/*--------------------------------*- C++ -*----------------------------------*\
| =========                 |                                                 |
| \\      /  F ield         | OpenFOAM: The Open Source CFD Toolbox           |
|  \\    /   O peration     | Version:  2412                                  |
|   \\  /    A nd           | Website:  www.openfoam.com                      |
|    \\/     M anipulation  |                                                 |
\*---------------------------------------------------------------------------*/
FoamFile
{
    version     2.0;
    format      ascii;
    arch        "LSB;label=32;scalar=64";
    class       volScalarField;
    location    "0.0350058";
    object      Vm;
}
// * * * * * * * * * * * * * * * * * * * * * * * * * * * * * * * * * * * * * //

dimensions      [0 0 0 0 0 0 0];

internalField   nonuniform List<scalar> 
8835
(
4.96109e-05
3.86691e-05
2.9971e-05
2.31067e-05
1.77313e-05
1.35457e-05
1.02986e-05
7.78775e-06
5.85418e-06
4.37353e-06
3.24741e-06
2.39674e-06
1.75805e-06
1.28119e-06
9.27268e-07
6.66307e-07
4.75281e-07
3.36483e-07
4.8622e-05
3.78941e-05
2.93684e-05
2.26422e-05
1.73754e-05
1.32738e-05
1.00914e-05
7.63043e-06
5.73542e-06
4.2846e-06
3.18139e-06
2.34813e-06
1.72248e-06
1.25534e-06
9.08584e-07
6.52892e-07
4.65714e-07
3.29707e-07
4.66969e-05
3.63896e-05
2.82002e-05
2.17417e-05
1.66858e-05
1.2748e-05
9.69184e-06
7.32786e-06
5.50739e-06
4.11385e-06
3.05443e-06
2.25433e-06
1.6536e-06
1.20505e-06
8.72107e-07
6.2662e-07
4.46932e-07
3.16377e-07
4.39102e-05
3.42102e-05
2.65067e-05
2.04362e-05
1.56852e-05
1.19841e-05
9.11059e-06
6.8873e-06
5.17533e-06
3.86526e-06
2.86963e-06
2.11781e-06
1.55332e-06
1.13182e-06
8.18968e-07
5.88338e-07
4.19557e-07
2.96941e-07
4.03614e-05
3.14357e-05
2.4353e-05
1.87758e-05
1.44115e-05
1.10102e-05
8.36827e-06
6.32405e-06
4.75057e-06
3.54729e-06
2.63334e-06
1.94334e-06
1.42524e-06
1.03834e-06
7.5118e-07
5.39524e-07
3.84655e-07
2.72159e-07
3.62155e-05
2.81963e-05
2.18406e-05
1.68402e-05
1.29262e-05
9.87383e-06
7.50166e-06
5.66636e-06
4.2547e-06
3.17616e-06
2.35747e-06
1.73951e-06
1.2755e-06
9.28996e-07
6.71875e-07
4.82413e-07
3.43817e-07
2.43159e-07
3.16528e-05
2.46394e-05
1.90882e-05
1.47216e-05
1.13013e-05
8.63139e-06
6.55528e-06
4.94929e-06
3.71491e-06
2.77252e-06
2.05739e-06
1.51759e-06
1.11226e-06
8.09648e-07
5.85217e-07
4.19946e-07
2.9911e-07
2.11388e-07
2.69069e-05
2.09464e-05
1.62329e-05
1.25235e-05
9.6147e-06
7.34174e-06
5.57372e-06
4.20661e-06
3.15658e-06
2.35523e-06
1.7471e-06
1.28799e-06
9.43277e-07
6.86069e-07
4.9547e-07
3.55234e-07
2.52781e-07
1.78458e-07
2.22188e-05
1.73011e-05
1.34121e-05
1.03481e-05
7.94258e-06
6.06184e-06
4.59954e-06
3.46994e-06
2.60303e-06
1.94154e-06
1.43943e-06
1.06033e-06
7.75807e-07
5.63693e-07
4.06674e-07
2.91255e-07
2.07003e-07
1.45942e-07
1.78099e-05
1.38706e-05
1.07527e-05
8.29336e-06
6.36138e-06
4.85154e-06
3.67899e-06
2.77425e-06
2.08024e-06
1.55065e-06
1.14863e-06
8.45209e-07
6.17689e-07
4.48271e-07
3.23002e-07
2.31012e-07
1.63933e-07
1.15378e-07
1.38703e-05
1.08012e-05
8.36909e-06
6.44945e-06
4.94215e-06
3.76586e-06
2.85371e-06
2.15052e-06
1.61122e-06
1.19975e-06
8.87561e-07
6.52191e-07
4.75951e-07
3.44903e-07
2.48124e-07
1.77143e-07
1.25456e-07
8.81094e-08
1.05458e-05
8.20624e-06
6.35124e-06
4.88816e-06
3.74131e-06
2.84798e-06
2.1561e-06
1.623e-06
1.21432e-06
9.02735e-07
6.66662e-07
4.89e-07
3.56214e-07
2.57636e-07
1.84948e-07
1.31727e-07
9.30539e-08
6.51767e-08
7.93864e-06
6.16846e-06
4.76663e-06
3.66334e-06
2.80036e-06
2.1291e-06
1.60959e-06
1.20955e-06
9.03199e-07
6.70032e-07
4.93745e-07
3.61362e-07
2.62611e-07
1.8944e-07
1.35601e-07
9.62828e-08
6.77948e-08
4.73236e-08
6.13398e-06
4.7581e-06
3.67101e-06
2.81732e-06
2.15056e-06
1.63239e-06
1.23172e-06
9.23598e-07
6.88098e-07
5.09275e-07
3.74388e-07
2.73309e-07
1.98064e-07
1.42439e-07
1.01622e-07
7.19053e-08
5.04454e-08
3.50772e-08
5.20474e-06
4.03253e-06
3.10797e-06
2.38274e-06
1.81669e-06
1.37705e-06
1.03742e-06
7.76606e-07
5.77608e-07
4.26766e-07
3.13163e-07
2.28157e-07
1.6498e-07
1.18364e-07
8.42333e-08
5.94438e-08
4.15863e-08
2.88304e-08
0.00030805
0.00024135
0.000187927
0.00014522
0.000111492
8.52268e-05
6.49257e-05
4.92697e-05
3.71943e-05
2.78934e-05
2.07709e-05
1.53679e-05
1.13051e-05
8.26847e-06
6.00893e-06
4.33567e-06
3.10467e-06
2.20641e-06
0.00030197
0.000236557
0.000184161
0.000142299
0.000109249
8.35174e-05
6.36257e-05
4.82806e-05
3.64424e-05
2.73255e-05
2.03469e-05
1.50551e-05
1.10764e-05
8.10225e-06
5.88864e-06
4.24898e-06
3.0426e-06
2.1623e-06
0.000290193
0.00022733
0.000176927
0.000136658
0.000104924
8.02348e-05
6.11438e-05
4.64031e-05
3.50206e-05
2.62525e-05
1.95442e-05
1.44601e-05
1.06384e-05
7.78152e-06
5.65482e-06
4.07958e-06
2.92087e-06
2.07558e-06
0.000273194
0.000213946
0.000166374
0.000128443
9.86214e-05
7.54405e-05
5.75078e-05
4.36455e-05
3.29313e-05
2.46777e-05
1.83675e-05
1.35888e-05
9.9976e-06
7.31235e-06
5.31293e-06
3.832e-06
2.74304e-06
1.94891e-06
0.000251454
0.000196788
0.000152885
0.000117954
9.05747e-05
6.93076e-05
5.28421e-05
4.00967e-05
3.02379e-05
2.26465e-05
1.68519e-05
1.2469e-05
9.17532e-06
6.71116e-06
4.87532e-06
3.51545e-06
2.51586e-06
1.78713e-06
0.000226095
0.000176733
0.000137114
0.000105746
8.12241e-05
6.21731e-05
4.73998e-05
3.59456e-05
2.7084e-05
2.02711e-05
1.50815e-05
1.11604e-05
8.2134e-06
6.00708e-06
4.3626e-06
3.14468e-06
2.24987e-06
1.59773e-06
0.000197961
0.000154524
0.000119783
9.24074e-05
7.10318e-05
5.44021e-05
4.14728e-05
3.14293e-05
2.36601e-05
1.76988e-05
1.31663e-05
9.74317e-06
7.16894e-06
5.24045e-06
3.80314e-06
2.73956e-06
1.95893e-06
1.39034e-06
0.000168514
0.000131345
0.000101809
7.86121e-05
6.04908e-05
4.6354e-05
3.53279e-05
2.67509e-05
2.0123e-05
1.50485e-05
1.11941e-05
8.28196e-06
6.09012e-06
4.44762e-06
3.22441e-06
2.32053e-06
1.65792e-06
1.17562e-06
0.000139256
0.000108459
8.41262e-05
6.50281e-05
5.00715e-05
3.83615e-05
2.92092e-05
2.20944e-05
1.66112e-05
1.24215e-05
9.23938e-06
6.83247e-06
5.01935e-06
3.66109e-06
2.65107e-06
1.90597e-06
1.36033e-06
9.63418e-07
0.0001116
8.69494e-05
6.75112e-05
5.22255e-05
4.02105e-05
3.07763e-05
2.34031e-05
1.76869e-05
1.3294e-05
9.94006e-06
7.39047e-06
5.45995e-06
4.00561e-06
2.91759e-06
2.11007e-06
1.51523e-06
1.07998e-06
7.63596e-07
8.69116e-05
6.77848e-05
5.26724e-05
4.07392e-05
3.13284e-05
2.39386e-05
1.818e-05
1.37317e-05
1.03184e-05
7.71103e-06
5.72702e-06
4.22453e-06
3.09414e-06
2.25032e-06
1.6252e-06
1.16524e-06
8.28976e-07
5.84858e-07
6.61715e-05
5.16436e-05
4.01141e-05
3.0978e-05
2.37729e-05
1.81345e-05
1.37597e-05
1.03872e-05
7.79904e-06
5.8203e-06
4.31456e-06
3.17608e-06
2.32185e-06
1.68573e-06
1.2152e-06
8.69373e-07
6.16919e-07
4.3405e-07
4.99569e-05
3.8954e-05
3.01981e-05
2.32659e-05
1.78214e-05
1.35801e-05
1.02961e-05
7.76429e-06
5.81976e-06
4.33341e-06
3.20449e-06
2.35351e-06
1.71679e-06
1.24355e-06
8.94029e-07
6.37627e-07
4.50962e-07
3.16203e-07
3.87089e-05
3.0116e-05
2.32886e-05
1.79075e-05
1.37e-05
1.0429e-05
7.89652e-06
5.94321e-06
4.44384e-06
3.30025e-06
2.4345e-06
1.78384e-06
1.29802e-06
9.3753e-07
6.71828e-07
4.77462e-07
3.36455e-07
2.3503e-07
3.28767e-05
2.55297e-05
1.97118e-05
1.51427e-05
1.15763e-05
8.80416e-06
6.65701e-06
5.00136e-06
3.73242e-06
2.76694e-06
2.03773e-06
1.49055e-06
1.08244e-06
7.80019e-07
5.57536e-07
3.95193e-07
2.77732e-07
1.93457e-07
0.00215073
0.00169036
0.00132914
0.00103703
0.000798709
0.000609356
0.000463062
0.000351476
0.000266433
0.000201043
0.000150434
0.000111531
8.21281e-05
6.01808e-05
4.38915e-05
3.18167e-05
2.28816e-05
1.63165e-05
0.00210782
0.00165731
0.00130316
0.00101689
0.000782546
0.000596929
0.000453659
0.000344398
0.000261069
0.000196956
0.000147342
0.000109233
8.04494e-05
5.89687e-05
4.3019e-05
3.1187e-05
2.24279e-05
1.59924e-05
0.00202531
0.00159495
0.00125464
0.000977602
0.000751677
0.00057345
0.000436086
0.00033129
0.000251198
0.000189442
0.000141644
0.000104974
7.73075e-05
5.66673e-05
4.13369e-05
2.99598e-05
2.15389e-05
1.53555e-05
0.00190758
0.00150436
0.00118216
0.000919575
0.000706173
0.000538771
0.000410055
0.000311816
0.000236516
0.000178287
0.000133186
9.86619e-05
7.26634e-05
5.32746e-05
3.88633e-05
2.81587e-05
2.02352e-05
1.44223e-05
0.00175763
0.00138793
0.00108977
0.000844561
0.000647623
0.000494235
0.000376577
0.000286656
0.000217442
0.000163719
0.000122154
9.04724e-05
6.66664e-05
4.89072e-05
3.56838e-05
2.58465e-05
1.85648e-05
1.32283e-05
0.00158575
0.00125255
0.000979974
0.000756706
0.000579731
0.000442699
0.000337711
0.000257203
0.000194931
0.000146531
0.000109205
8.08895e-05
5.96501e-05
4.37892e-05
3.19519e-05
2.31321e-05
1.66064e-05
1.18301e-05
0.00139505
0.00110048
0.000856949
0.000660193
0.000506005
0.000387083
0.000295811
0.000225369
0.00017057
0.000127963
9.52907e-05
7.06049e-05
5.20958e-05
3.82459e-05
2.7886e-05
2.01661e-05
1.44654e-05
1.03005e-05
0.00119478
0.000938314
0.000727489
0.000560233
0.000430219
0.00033002
0.000252645
0.000192397
0.000145322
0.000108842
8.10329e-05
6.00676e-05
4.43306e-05
3.25243e-05
2.36814e-05
1.7101e-05
1.22555e-05
8.72117e-06
0.000993726
0.000775076
0.000599763
0.000462457
0.0003561
0.000273795
0.000209638
0.000159337
0.000120058
8.98533e-05
6.69291e-05
4.96416e-05
3.66258e-05
2.68343e-05
1.95022e-05
1.40637e-05
1.00703e-05
7.16031e-06
0.000797319
0.00061982
0.000479965
0.000371139
0.000286634
0.000220572
0.000168583
0.000127749
9.61084e-05
7.19414e-05
5.36246e-05
3.97759e-05
2.93119e-05
2.14319e-05
1.55476e-05
1.11988e-05
8.01132e-06
5.68904e-06
0.000619329
0.000481728
0.000374123
0.000290192
0.00022434
0.000172313
0.000131237
9.92219e-05
7.46311e-05
5.58995e-05
4.16747e-05
3.08786e-05
2.27058e-05
1.65648e-05
1.19982e-05
8.63221e-06
6.16674e-06
4.37039e-06
0.000469946
0.000366722
0.000285751
0.000221831
0.00017108
0.000130853
9.93736e-05
7.50867e-05
5.65017e-05
4.2323e-05
3.1512e-05
2.32884e-05
1.70774e-05
1.24339e-05
8.99308e-06
6.45972e-06
4.60427e-06
3.25363e-06
0.000354624
0.000277504
0.000216272
0.000167388
0.000128515
9.80071e-05
7.43805e-05
5.6218e-05
4.22949e-05
3.16289e-05
2.34791e-05
1.72961e-05
1.2652e-05
9.19428e-06
6.63615e-06
4.75352e-06
3.37637e-06
2.37707e-06
0.000275604
0.00021554
0.000167384
0.000128965
9.87274e-05
7.52315e-05
5.70965e-05
4.31322e-05
3.23867e-05
2.41409e-05
1.78597e-05
1.3122e-05
9.57912e-06
6.946e-06
4.99906e-06
3.56799e-06
2.52443e-06
1.77052e-06
0.000234697
0.000183072
0.000141678
0.000108896
8.33027e-05
6.34768e-05
4.81607e-05
3.63338e-05
2.72195e-05
2.02387e-05
1.49437e-05
1.0964e-05
7.9923e-06
5.7842e-06
4.15238e-06
2.95532e-06
2.0852e-06
1.45856e-06
0.0151866
0.0116423
0.00915586
0.00729515
0.00577788
0.00442756
0.00334261
0.00251086
0.00189458
0.00143888
0.00109029
0.000814256
0.000599769
0.000438611
0.000319949
0.000233003
0.000168736
0.000120936
0.0148535
0.0114036
0.00898879
0.00718588
0.00566728
0.00433513
0.00327107
0.00245786
0.00185579
0.00140982
0.00106794
0.000797222
0.000587179
0.000429592
0.00031358
0.000228463
0.000165445
0.000118556
0.0141956
0.0109602
0.00867874
0.00693343
0.00545361
0.00416538
0.00314172
0.00236294
0.00178717
0.00135867
0.00102846
0.000766975
0.000564563
0.000413002
0.000301514
0.000219657
0.000159006
0.000113876
0.013277
0.0103253
0.00821079
0.00657422
0.00513055
0.00390778
0.0029466
0.00222077
0.00168461
0.0012823
0.000969442
0.000721205
0.000530475
0.000388206
0.000283638
0.000206685
0.0001495
0.00010698
0.0121287
0.00954047
0.00763508
0.00609525
0.00470534
0.00357381
0.00269532
0.00203783
0.00155135
0.0011812
0.000890255
0.000660646
0.000485894
0.000356071
0.000260567
0.000189946
0.000137262
9.81271e-05
0.0108817
0.0086597
0.0069441
0.00548382
0.00420552
0.00318552
0.00240543
0.00182585
0.00139375
0.00106043
0.000795498
0.000589156
0.000433631
0.000318494
0.00023353
0.000170259
0.000122858
8.77497e-05
0.00958033
0.00770154
0.00617791
0.00479313
0.0036572
0.00276902
0.00209941
0.0016025
0.00122565
0.000929285
0.000693807
0.000513266
0.000378238
0.000278361
0.000204225
0.000148673
0.00010706
7.63971e-05
0.00827832
0.00668958
0.00527306
0.00405773
0.00308924
0.00234652
0.00179194
0.00137503
0.00105099
0.000792052
0.000589458
0.000436057
0.000321935
0.000237299
0.000173996
0.000126314
9.07667e-05
6.4723e-05
0.00702697
0.00560707
0.00434729
0.00332843
0.00253666
0.00194016
0.00149292
0.00114784
0.000872478
0.000653769
0.000486036
0.00036018
0.000266552
0.000196544
0.00014373
0.000104009
7.46256e-05
5.31995e-05
0.00576046
0.00449153
0.00345638
0.00264602
0.00203056
0.0015677
0.00121098
0.000927098
0.000699167
0.000522501
0.000388882
0.000288998
0.000214186
0.000157634
0.000114827
8.28866e-05
5.94247e-05
4.2355e-05
0.00448694
0.00346811
0.00266659
0.00205487
0.0015931
0.00123651
0.000951782
0.00072172
0.000542083
0.000405294
0.00030252
0.000225307
0.000166776
0.000122234
8.87387e-05
6.39667e-05
4.58443e-05
3.26468e-05
0.0033777
0.00261012
0.0020223
0.00157548
0.00122778
0.000948785
0.000722506
0.000545115
0.000409455
0.000307053
0.000229767
0.000170928
0.000125933
9.19026e-05
6.6587e-05
4.79681e-05
3.43457e-05
2.43985e-05
0.00251879
0.00196258
0.00153689
0.00120203
0.000931643
0.000711982
0.000539448
0.000407034
0.000306627
0.000230463
0.000172195
0.000127436
9.34306e-05
6.80128e-05
4.92271e-05
3.54168e-05
2.52852e-05
1.78833e-05
0.00194676
0.00153096
0.00120142
0.000933915
0.000716048
0.000544595
0.000412637
0.000312169
0.000235586
0.000176702
0.000131311
9.66841e-05
7.06969e-05
5.14083e-05
3.71633e-05
2.66618e-05
1.89505e-05
1.33419e-05
0.00166044
0.00130842
0.0010229
0.000788402
0.000601951
0.000457599
0.000347304
0.000263136
0.000198391
0.000148281
0.000109758
8.06452e-05
5.89261e-05
4.28217e-05
3.09017e-05
2.21015e-05
1.56562e-05
1.09916e-05
0.126151
0.089828
0.0652221
0.051172
0.0413206
0.0326458
0.0249414
0.0184577
0.0134755
0.0100419
0.00771405
0.00594995
0.00442632
0.0032254
0.00232998
0.00169004
0.00123436
0.000896187
0.123226
0.0874124
0.0638179
0.0503215
0.0406072
0.0320032
0.0243926
0.0180319
0.0131704
0.00983228
0.00756114
0.00582779
0.00433143
0.00315591
0.0022815
0.00165699
0.00121097
0.000878929
0.116552
0.0827376
0.0612009
0.0487535
0.0393119
0.0308649
0.0234191
0.0172656
0.0126373
0.0094842
0.00730689
0.00562287
0.00417027
0.00303377
0.00219273
0.00159415
0.00116611
0.000845177
0.10722
0.0763307
0.05765
0.0463964
0.0372627
0.0290507
0.0219085
0.0161125
0.011851
0.00896867
0.00694265
0.00530635
0.00391922
0.00284685
0.00206013
0.00150142
0.00109846
0.000794702
0.0949423
0.0686429
0.0533753
0.0432534
0.0344909
0.0266423
0.0199222
0.014614
0.0108402
0.00828789
0.00643592
0.00486903
0.00358119
0.00260056
0.00188846
0.00138194
0.00101202
0.000729543
0.0817127
0.0609388
0.0487805
0.0394667
0.0311019
0.0237192
0.0175819
0.0129137
0.0097054
0.00749963
0.00580614
0.00433755
0.00317927
0.00231293
0.0016901
0.00124308
0.000908757
0.000652692
0.0688957
0.0537705
0.043741
0.0350527
0.0272244
0.0204839
0.0150911
0.0111959
0.00856239
0.00668102
0.00509068
0.00377211
0.00275765
0.00201262
0.00147958
0.00109089
0.000793716
0.000567979
0.057981
0.0470314
0.0381265
0.030075
0.0229795
0.0170866
0.0126296
0.00956472
0.0074312
0.00577718
0.00433427
0.00319166
0.00233357
0.00171393
0.00126751
0.000932511
0.000674145
0.000480905
0.0492408
0.0402053
0.0320563
0.0247829
0.0186107
0.0137872
0.0103836
0.00805003
0.00632609
0.0048022
0.0035671
0.00261992
0.00192483
0.00142458
0.00105522
0.000770826
0.000554269
0.000394819
0.0411377
0.0330047
0.0257094
0.0194728
0.0144998
0.0109167
0.00845667
0.00666288
0.0051269
0.00383817
0.00283481
0.00208824
0.00154827
0.00115221
0.000848942
0.000615146
0.000440823
0.000314185
0.0329753
0.025791
0.0196298
0.0146906
0.011101
0.0086271
0.00683083
0.00528999
0.00398551
0.00295922
0.00218796
0.00162681
0.0012156
0.000902156
0.000658247
0.00047446
0.000339826
0.000242699
0.0250999
0.019153
0.0144074
0.0109624
0.0085673
0.00681022
0.00529412
0.00400565
0.00298868
0.00222068
0.00165856
0.00124499
0.000928821
0.000681487
0.00049379
0.000355345
0.000254971
0.000182286
0.0184011
0.0139111
0.0106709
0.00839558
0.00669441
0.00521685
0.00396021
0.00296676
0.00221473
0.00166209
0.00125325
0.000939098
0.000692202
0.00050394
0.000364349
0.000262613
0.000188608
0.000134341
0.0137446
0.0106094
0.00838983
0.00670976
0.00524122
0.00399044
0.00300062
0.00224957
0.00169514
0.00128243
0.00096477
0.000714365
0.000522378
0.000379467
0.000274848
0.000198377
0.000142009
0.000100461
0.0114924
0.00907743
0.00727081
0.00574829
0.00440471
0.00332624
0.00249874
0.00188465
0.00143025
0.00108288
0.000807953
0.000594177
0.000433519
0.000315252
0.000228672
0.000164793
0.000117415
8.27005e-05
1.17314
0.878127
0.535613
0.344438
0.284692
0.244456
0.201673
0.156069
0.111254
0.0754331
0.0546494
0.0425529
0.0328261
0.0243739
0.0174073
0.012213
0.00879515
0.0065523
1.16234
0.848864
0.513464
0.336228
0.281345
0.241086
0.198224
0.152989
0.108481
0.0733971
0.053546
0.0417842
0.0321795
0.0238502
0.017007
0.011945
0.00862808
0.00643223
1.11755
0.791712
0.472446
0.324134
0.275739
0.23531
0.191812
0.146426
0.102891
0.0701731
0.0518999
0.0405807
0.031134
0.0229528
0.016295
0.01146
0.00832576
0.00623189
1.04992
0.704405
0.421649
0.309029
0.266394
0.225447
0.181619
0.136563
0.094689
0.0653343
0.0493067
0.0385978
0.0294232
0.0215306
0.0152178
0.0107431
0.00785702
0.00587818
0.932318
0.586985
0.366319
0.293379
0.253422
0.211868
0.167266
0.122459
0.0837363
0.0592934
0.0458121
0.0357579
0.0269956
0.0195737
0.0137961
0.00984248
0.00730136
0.00542514
0.776136
0.467301
0.323734
0.276217
0.236306
0.193662
0.149013
0.10564
0.0720893
0.0530526
0.0416064
0.0321834
0.0239896
0.0172273
0.0121784
0.00883831
0.00663
0.00487708
0.590421
0.370557
0.295565
0.256049
0.215135
0.171456
0.127118
0.087484
0.0614004
0.0472236
0.0370727
0.0282604
0.0207221
0.0147407
0.0105329
0.00780071
0.00586612
0.00425631
0.424456
0.311722
0.270236
0.231129
0.189012
0.144776
0.102531
0.070614
0.052535
0.041398
0.0321191
0.02402
0.0173303
0.012328
0.00899237
0.00678473
0.00502692
0.00360749
0.326306
0.279385
0.241351
0.200587
0.157182
0.114297
0.0787517
0.057084
0.0448068
0.0352269
0.026801
0.019635
0.0140181
0.0101117
0.0075525
0.00570216
0.00415167
0.00295249
0.28336
0.245877
0.206113
0.163927
0.121199
0.0842408
0.0603874
0.0470903
0.0373097
0.0287287
0.0213134
0.0153413
0.0110312
0.00819177
0.00623731
0.00459574
0.00330009
0.00233408
0.245766
0.206627
0.165166
0.123098
0.0861747
0.0617585
0.0481593
0.0383763
0.0297908
0.0222904
0.0161574
0.0116342
0.00861955
0.00656993
0.00490652
0.0035529
0.00252856
0.00179243
0.202306
0.161275
0.120071
0.0845279
0.0612168
0.0480266
0.038396
0.0299124
0.0225006
0.0164151
0.0118809
0.00882756
0.00675529
0.00507581
0.00369894
0.00264646
0.00188311
0.00134842
0.155316
0.115091
0.0812238
0.0597347
0.0473163
0.0379297
0.0296048
0.0223167
0.0163371
0.011886
0.00887769
0.00682388
0.00515077
0.00377241
0.00271258
0.00193827
0.00139258
0.00100414
0.113181
0.0801869
0.0595318
0.0474283
0.0381132
0.0298113
0.0225351
0.0165553
0.0120878
0.00905101
0.00695326
0.00529529
0.00389746
0.00281666
0.00202313
0.00146065
0.0010579
0.000756649
0.0886163
0.0648423
0.0511032
0.0413169
0.0326523
0.0249561
0.0184848
0.0134961
0.0100445
0.00770722
0.00594322
0.00441869
0.00321497
0.00231617
0.00167383
0.00121708
0.000879153
0.000623151
1.38222
1.37726
1.3762
1.38204
1.38766
1.38558
1.36278
1.28492
1.08129
0.70225
0.39555
0.291794
0.244669
0.197961
0.149066
0.101148
0.0657081
0.0471189
1.38121
1.3766
1.37756
1.38202
1.38684
1.38376
1.3597
1.28171
1.06813
0.672716
0.380363
0.287673
0.241439
0.194818
0.145772
0.0982971
0.0641193
0.0463074
1.38077
1.37705
1.37768
1.38401
1.38832
1.38259
1.35005
1.25787
1.01772
0.627677
0.362678
0.282114
0.236284
0.189023
0.139685
0.0930479
0.0612815
0.0447934
1.37976
1.3772
1.37921
1.38556
1.38796
1.37658
1.337
1.2233
0.942089
0.554917
0.33609
0.272751
0.227413
0.179642
0.130362
0.0856347
0.057308
0.0425191
1.37752
1.37678
1.38048
1.3864
1.38651
1.37029
1.31066
1.15313
0.81411
0.460904
0.309588
0.259164
0.213789
0.165654
0.116886
0.0760104
0.0525528
0.0395483
1.37658
1.37745
1.38381
1.38786
1.38085
1.35272
1.26728
1.04271
0.656826
0.374484
0.286545
0.241417
0.195689
0.147521
0.10057
0.0658769
0.0475425
0.036015
1.3769
1.38066
1.38672
1.38721
1.37121
1.32075
1.18142
0.863276
0.492596
0.31763
0.264894
0.22046
0.173403
0.125319
0.0828824
0.0564184
0.0423242
0.0319073
1.37878
1.38551
1.38742
1.38097
1.34913
1.25157
1.01332
0.633117
0.367724
0.285228
0.240734
0.195221
0.147568
0.101629
0.0670643
0.0484959
0.0369549
0.0274358
1.38368
1.3869
1.38398
1.3618
1.28865
1.10474
0.750509
0.425568
0.302699
0.256271
0.212372
0.165678
0.118602
0.0783958
0.0544043
0.0412514
0.0311879
0.0226366
1.38671
1.38341
1.36562
1.3068
1.14554
0.81983
0.475193
0.315847
0.266096
0.22324
0.177692
0.130929
0.0880486
0.0596721
0.0446652
0.0341346
0.0252018
0.0177969
1.38345
1.36632
1.31048
1.15834
0.845359
0.494184
0.324002
0.271284
0.229193
0.184359
0.137998
0.0943297
0.0634982
0.0470213
0.0361472
0.0270155
0.0193341
0.0133551
1.36154
1.30014
1.13835
0.82273
0.486687
0.322728
0.271303
0.229706
0.18575
0.140252
0.0969279
0.0654051
0.0482696
0.0372717
0.0280805
0.020267
0.0140958
0.00980563
1.28565
1.11131
0.777287
0.462223
0.317101
0.269467
0.228442
0.184668
0.139488
0.0967373
0.0657078
0.0486985
0.0377607
0.0286022
0.0207745
0.014531
0.0101321
0.00733744
1.10018
0.760691
0.455548
0.317204
0.270725
0.230037
0.186465
0.141305
0.0984216
0.0670187
0.049689
0.0386473
0.029407
0.0214839
0.0151315
0.0106024
0.00767897
0.00566984
0.865742
0.530659
0.344951
0.285454
0.245101
0.20245
0.157237
0.112426
0.0760341
0.0549295
0.0427294
0.0329701
0.0244768
0.017446
0.0121975
0.00874419
0.00648352
0.00471135
1.34525
1.35575
1.36585
1.37441
1.38261
1.38899
1.39226
1.3911
1.38558
1.38104
1.38323
1.38709
1.38274
1.35533
1.26826
1.01291
0.579424
0.327837
1.34581
1.35613
1.36649
1.37604
1.38405
1.38893
1.3916
1.39019
1.38444
1.38002
1.38267
1.3865
1.38179
1.35406
1.25688
0.984575
0.553531
0.320327
1.34794
1.35848
1.3685
1.37686
1.38468
1.39042
1.39282
1.3909
1.38513
1.38187
1.38519
1.38836
1.38101
1.3443
1.23049
0.927211
0.509954
0.309789
1.35053
1.3608
1.36978
1.37868
1.38629
1.39147
1.39316
1.39037
1.38458
1.38284
1.38702
1.38909
1.37835
1.33228
1.19461
0.848275
0.450577
0.295599
1.35341
1.36375
1.37333
1.38093
1.38763
1.39175
1.39188
1.38752
1.38217
1.38276
1.38745
1.38708
1.36963
1.30563
1.12175
0.724182
0.384122
0.278768
1.35801
1.36711
1.37635
1.38441
1.39028
1.39293
1.39092
1.38353
1.37935
1.3823
1.38634
1.38207
1.35587
1.26352
1.00691
0.580511
0.330183
0.260803
1.36331
1.37202
1.38056
1.38762
1.39198
1.39232
1.38685
1.38066
1.38014
1.38473
1.38553
1.3716
1.31837
1.16643
0.817268
0.435376
0.29354
0.239965
1.36897
1.3779
1.38443
1.3898
1.39213
1.39008
1.38448
1.38105
1.38241
1.38564
1.37992
1.34933
1.25565
1.01336
0.596718
0.337365
0.265203
0.216015
1.37612
1.38398
1.38892
1.39191
1.39079
1.38439
1.37956
1.38135
1.3863
1.38567
1.36812
1.30611
1.13311
0.757623
0.406339
0.287217
0.236314
0.187292
1.38256
1.38841
1.39089
1.39083
1.38669
1.38154
1.38043
1.38518
1.38667
1.37492
1.32891
1.19737
0.877256
0.482985
0.307168
0.251178
0.203125
0.153175
1.38842
1.39097
1.39109
1.38705
1.38065
1.38088
1.38614
1.38861
1.37899
1.33684
1.22268
0.939847
0.539118
0.323225
0.261009
0.213663
0.164605
0.114793
1.3917
1.39034
1.38632
1.38186
1.38104
1.38607
1.38824
1.37722
1.3399
1.23383
0.968479
0.570032
0.334448
0.26685
0.219924
0.171239
0.121593
0.077961
1.39031
1.38475
1.38087
1.38266
1.38658
1.3889
1.37972
1.33954
1.23182
0.96611
0.573127
0.33764
0.269406
0.223079
0.175041
0.125734
0.0814106
0.0539459
1.38593
1.38083
1.38287
1.38729
1.39028
1.38272
1.34578
1.24313
0.983535
0.589714
0.344373
0.273426
0.22728
0.179467
0.130288
0.0855659
0.0566241
0.041461
1.38153
1.3821
1.38638
1.39122
1.38743
1.36681
1.29797
1.10327
0.715258
0.401459
0.293785
0.246424
0.199626
0.150222
0.101766
0.0658612
0.046986
0.0351968
1.26833
1.27932
1.29062
1.30199
1.31336
1.3246
1.33563
1.34644
1.35708
1.36761
1.37768
1.38663
1.39431
1.39749
1.39562
1.38877
1.38561
1.38773
1.2694
1.27986
1.29098
1.30232
1.31363
1.32476
1.33574
1.34656
1.35733
1.36817
1.37931
1.38815
1.39444
1.39714
1.39501
1.38928
1.38513
1.38703
1.27082
1.28208
1.29351
1.30494
1.31631
1.32752
1.33851
1.34928
1.35991
1.37034
1.38011
1.38838
1.39443
1.39782
1.39504
1.38787
1.38623
1.38833
1.27362
1.28491
1.29633
1.30779
1.31916
1.33035
1.3413
1.35204
1.36263
1.37293
1.38237
1.39015
1.39528
1.39672
1.39405
1.3868
1.38517
1.38894
1.27703
1.28811
1.29941
1.3107
1.3219
1.33295
1.34381
1.3545
1.36507
1.37524
1.38438
1.39158
1.396
1.39719
1.39187
1.38512
1.38541
1.38815
1.28205
1.2932
1.30439
1.31527
1.32531
1.33588
1.34649
1.35704
1.36756
1.37777
1.38758
1.39424
1.39717
1.39514
1.38843
1.38557
1.38773
1.38606
1.28776
1.29881
1.30971
1.31983
1.33041
1.34103
1.35152
1.36203
1.37232
1.38177
1.38971
1.39583
1.39679
1.39229
1.38541
1.38458
1.38835
1.38062
1.29422
1.30518
1.31625
1.32724
1.33798
1.3483
1.35767
1.36775
1.3777
1.38736
1.39384
1.39662
1.39467
1.38834
1.38413
1.38792
1.38703
1.36795
1.30229
1.31333
1.32424
1.33479
1.34432
1.35441
1.36469
1.37473
1.38374
1.39084
1.39494
1.39488
1.39018
1.3857
1.38597
1.38787
1.37956
1.34222
1.3114
1.32206
1.33281
1.34341
1.35362
1.36288
1.37262
1.38175
1.38929
1.39422
1.39535
1.39171
1.38536
1.38539
1.38831
1.38444
1.35904
1.27636
1.32232
1.3327
1.34297
1.35231
1.36239
1.37253
1.38196
1.38987
1.39531
1.39708
1.39432
1.38792
1.3849
1.38743
1.38593
1.36744
1.30373
1.11506
1.33343
1.34358
1.35371
1.36295
1.37268
1.38197
1.38986
1.39536
1.39753
1.39534
1.38942
1.38631
1.38893
1.38871
1.37302
1.31477
1.14931
0.763278
1.34556
1.35483
1.36491
1.37462
1.38257
1.39003
1.39542
1.39737
1.39509
1.38933
1.38656
1.38958
1.39029
1.37692
1.32489
1.17512
0.810245
0.417502
1.35638
1.36554
1.37528
1.38413
1.39065
1.39587
1.39788
1.39557
1.38936
1.38457
1.38732
1.38883
1.37749
1.33059
1.19296
0.858429
0.45201
0.292385
1.36274
1.37269
1.38201
1.38916
1.39517
1.3982
1.39585
1.3901
1.38523
1.38742
1.39181
1.38858
1.36252
1.27458
1.02078
0.585044
0.329009
0.257969
1.19644
1.20612
1.2162
1.22663
1.23737
1.24841
1.25972
1.27129
1.2831
1.29524
1.30807
1.32021
1.33223
1.34467
1.35621
1.36812
1.37878
1.38841
1.19678
1.20643
1.21649
1.22692
1.23767
1.24874
1.26016
1.27201
1.28462
1.29686
1.30897
1.32104
1.33359
1.34521
1.35648
1.36833
1.37915
1.38955
1.19874
1.20857
1.21878
1.22931
1.24014
1.25124
1.26259
1.27417
1.286
1.29811
1.31088
1.32298
1.33488
1.34721
1.35844
1.36939
1.3808
1.3903
1.20105
1.21097
1.22129
1.23193
1.24286
1.25402
1.2654
1.27698
1.2887
1.30055
1.31264
1.32527
1.33703
1.34856
1.36062
1.37176
1.38311
1.39236
1.20381
1.21372
1.22402
1.23467
1.24562
1.25685
1.26833
1.28002
1.29184
1.30389
1.31654
1.32843
1.33989
1.35127
1.36318
1.37424
1.38531
1.39405
1.20779
1.21719
1.22727
1.23783
1.24876
1.26012
1.27193
1.2845
1.29665
1.30858
1.3204
1.33216
1.34442
1.35568
1.36669
1.37826
1.3882
1.39682
1.21285
1.22235
1.23254
1.24319
1.25424
1.26561
1.27728
1.28931
1.30199
1.314
1.32565
1.33709
1.34849
1.36031
1.3711
1.38146
1.39135
1.39793
1.21901
1.22931
1.23995
1.25092
1.26215
1.27357
1.28511
1.29679
1.30856
1.32021
1.33164
1.34303
1.355
1.36603
1.37671
1.38741
1.39551
1.40109
1.22643
1.23671
1.24685
1.25767
1.26883
1.28027
1.29194
1.30388
1.31644
1.3282
1.33944
1.35039
1.36139
1.3731
1.38328
1.39201
1.39923
1.40182
1.23511
1.24576
1.25674
1.26796
1.27937
1.29087
1.30244
1.314
1.32545
1.33666
1.34759
1.35834
1.36916
1.38048
1.38969
1.39676
1.40142
1.40026
1.24563
1.25647
1.26736
1.27782
1.28891
1.3003
1.31174
1.3231
1.33428
1.34531
1.35637
1.36806
1.3785
1.38774
1.3952
1.40071
1.40091
1.3953
1.25709
1.26808
1.27925
1.29029
1.30079
1.31188
1.32308
1.33416
1.3451
1.35594
1.36685
1.37828
1.38783
1.39528
1.39987
1.40049
1.39697
1.38928
1.26997
1.28037
1.29145
1.30277
1.31405
1.32523
1.33604
1.34592
1.35658
1.36821
1.37875
1.38816
1.39572
1.4005
1.4012
1.39691
1.39083
1.38844
1.2818
1.29267
1.30313
1.31423
1.32544
1.33653
1.3473
1.35764
1.36724
1.37832
1.388
1.39587
1.40106
1.40224
1.39819
1.39109
1.3903
1.39118
1.28949
1.29982
1.31085
1.32207
1.33317
1.34378
1.35323
1.36337
1.37365
1.38357
1.39224
1.39879
1.40223
1.40198
1.39516
1.39005
1.39182
1.39098
1.14125
1.14834
1.15587
1.16385
1.17229
1.18124
1.19082
1.2012
1.21177
1.22281
1.23463
1.24641
1.25854
1.2715
1.28441
1.2981
1.31182
1.32479
1.33823
1.14144
1.14856
1.15612
1.16413
1.17263
1.18172
1.19161
1.2018
1.21248
1.22389
1.23535
1.24719
1.25982
1.27245
1.28568
1.29868
1.31214
1.32506
1.33849
1.14274
1.14998
1.15765
1.16576
1.1743
1.1833
1.1928
1.2029
1.21383
1.22492
1.23645
1.24876
1.26115
1.2742
1.28706
1.30047
1.31347
1.32699
1.34031
1.14371
1.15105
1.15893
1.16748
1.17628
1.18544
1.19506
1.20526
1.21627
1.22739
1.23896
1.25137
1.2638
1.2769
1.2898
1.30322
1.31612
1.3294
1.34194
1.14631
1.15373
1.1616
1.16994
1.17874
1.18804
1.19789
1.20851
1.21927
1.23035
1.24195
1.25435
1.26681
1.2799
1.29282
1.30623
1.31918
1.33262
1.3458
1.14868
1.15615
1.16412
1.1726
1.18169
1.19156
1.20164
1.21208
1.22299
1.23466
1.24636
1.25844
1.27131
1.28406
1.29736
1.31031
1.32363
1.33624
1.34922
1.15245
1.1601
1.16826
1.17693
1.1862
1.19623
1.20642
1.2169
1.22781
1.23926
1.25149
1.26376
1.27669
1.28928
1.30199
1.31547
1.32892
1.34132
1.35393
1.15775
1.16571
1.17413
1.18301
1.19234
1.20207
1.21219
1.22274
1.23386
1.24579
1.25768
1.26988
1.28288
1.29569
1.30898
1.32179
1.33488
1.34711
1.35964
1.16339
1.17127
1.1799
1.18936
1.19905
1.20906
1.21945
1.23027
1.24166
1.25385
1.26581
1.27785
1.29026
1.3034
1.31611
1.3292
1.34151
1.35399
1.36551
1.17023
1.17876
1.18775
1.1972
1.20703
1.21722
1.22778
1.23875
1.25026
1.26258
1.27473
1.28706
1.30004
1.31254
1.32483
1.33762
1.34959
1.36173
1.37286
1.17865
1.18755
1.19688
1.20658
1.21668
1.22715
1.23795
1.24909
1.26061
1.27265
1.28546
1.29791
1.31031
1.32317
1.33523
1.34702
1.35917
1.3703
1.38172
1.18807
1.19731
1.20698
1.21699
1.22731
1.238
1.24906
1.26045
1.27215
1.28427
1.29712
1.30944
1.32145
1.33344
1.34587
1.35745
1.36935
1.38009
1.39075
1.19899
1.2086
1.2186
1.22882
1.23894
1.2498
1.26127
1.27355
1.28557
1.29758
1.30954
1.32142
1.33332
1.34564
1.35691
1.36784
1.37934
1.38944
1.39866