/*--------------------------------*- C++ -*----------------------------------*\
| =========                 |                                                 |
| \\      /  F ield         | OpenFOAM: The Open Source CFD Toolbox           |
|  \\    /   O peration     | Version:  2312                                  |
|   \\  /    A nd           | Website:  www.openfoam.com                      |
|    \\/     M anipulation  |                                                 |
\*---------------------------------------------------------------------------*/
FoamFile
{
    version     2.0;
    format      ascii;
    arch        "LSB;label=32;scalar=64";
    class       volVectorField;
    location    "0.3";
    object      D;
}
// * * * * * * * * * * * * * * * * * * * * * * * * * * * * * * * * * * * * * //

dimensions      [0 1 0 0 0 0 0];

internalField   nonuniform List<vector> 
1620
(
(8.73911e-05 7.64573e-06 -3.11208e-05)
(8.47357e-05 2.27049e-05 -3.11208e-05)
(7.95056e-05 3.7074e-05 -3.11208e-05)
(7.18599e-05 5.03167e-05 -3.11209e-05)
(6.20307e-05 6.20307e-05 -3.11209e-05)
(5.03167e-05 7.18599e-05 -3.11209e-05)
(3.7074e-05 7.95056e-05 -3.11208e-05)
(2.27049e-05 8.47357e-05 -3.11208e-05)
(7.64573e-06 8.73911e-05 -3.11208e-05)
(-7.64573e-06 8.73911e-05 -3.11208e-05)
(-2.27049e-05 8.47357e-05 -3.11208e-05)
(-3.7074e-05 7.95056e-05 -3.11208e-05)
(-5.03167e-05 7.18599e-05 -3.11209e-05)
(-6.20307e-05 6.20307e-05 -3.11209e-05)
(-7.18599e-05 5.03167e-05 -3.11209e-05)
(-7.95056e-05 3.7074e-05 -3.11208e-05)
(-8.47357e-05 2.27049e-05 -3.11208e-05)
(-8.73911e-05 7.64573e-06 -3.11208e-05)
(-8.73911e-05 -7.64573e-06 -3.11208e-05)
(-8.47357e-05 -2.27049e-05 -3.11208e-05)
(-7.95056e-05 -3.7074e-05 -3.11208e-05)
(-7.18599e-05 -5.03167e-05 -3.11209e-05)
(-6.20307e-05 -6.20307e-05 -3.11209e-05)
(-5.03167e-05 -7.18599e-05 -3.11209e-05)
(-3.7074e-05 -7.95056e-05 -3.11208e-05)
(-2.27049e-05 -8.47357e-05 -3.11208e-05)
(-7.64573e-06 -8.73911e-05 -3.11208e-05)
(7.64573e-06 -8.73911e-05 -3.11208e-05)
(2.27049e-05 -8.47357e-05 -3.11208e-05)
(3.7074e-05 -7.95056e-05 -3.11208e-05)
(5.03167e-05 -7.18599e-05 -3.11209e-05)
(6.20307e-05 -6.20307e-05 -3.11209e-05)
(7.18599e-05 -5.03167e-05 -3.11209e-05)
(7.95056e-05 -3.7074e-05 -3.11208e-05)
(8.47357e-05 -2.27049e-05 -3.11208e-05)
(8.73911e-05 -7.64573e-06 -3.11208e-05)
(0.000133872 1.17122e-05 -3.8943e-05)
(0.000129804 3.47809e-05 -3.8943e-05)
(0.000121792 5.67926e-05 -3.8943e-05)
(0.00011008 7.70788e-05 -3.8943e-05)
(9.50233e-05 9.50233e-05 -3.89431e-05)
(7.70788e-05 0.00011008 -3.8943e-05)
(5.67926e-05 0.000121792 -3.8943e-05)
(3.47809e-05 0.000129804 -3.8943e-05)
(1.17122e-05 0.000133872 -3.8943e-05)
(-1.17122e-05 0.000133872 -3.8943e-05)
(-3.47809e-05 0.000129804 -3.8943e-05)
(-5.67926e-05 0.000121792 -3.8943e-05)
(-7.70788e-05 0.00011008 -3.8943e-05)
(-9.50233e-05 9.50233e-05 -3.89431e-05)
(-0.00011008 7.70788e-05 -3.8943e-05)
(-0.000121792 5.67926e-05 -3.8943e-05)
(-0.000129804 3.47809e-05 -3.8943e-05)
(-0.000133872 1.17122e-05 -3.8943e-05)
(-0.000133872 -1.17122e-05 -3.8943e-05)
(-0.000129804 -3.47809e-05 -3.8943e-05)
(-0.000121792 -5.67926e-05 -3.8943e-05)
(-0.00011008 -7.70788e-05 -3.8943e-05)
(-9.50233e-05 -9.50233e-05 -3.89431e-05)
(-7.70788e-05 -0.00011008 -3.8943e-05)
(-5.67926e-05 -0.000121792 -3.8943e-05)
(-3.47809e-05 -0.000129804 -3.8943e-05)
(-1.17122e-05 -0.000133872 -3.8943e-05)
(1.17122e-05 -0.000133872 -3.8943e-05)
(3.47809e-05 -0.000129804 -3.8943e-05)
(5.67926e-05 -0.000121792 -3.8943e-05)
(7.70788e-05 -0.00011008 -3.8943e-05)
(9.50233e-05 -9.50233e-05 -3.89431e-05)
(0.00011008 -7.70788e-05 -3.8943e-05)
(0.000121792 -5.67926e-05 -3.8943e-05)
(0.000129804 -3.47809e-05 -3.8943e-05)
(0.000133872 -1.17122e-05 -3.8943e-05)
(0.000202516 1.77178e-05 -4.22834e-05)
(0.000196363 5.2615e-05 -4.22835e-05)
(0.000184243 8.59138e-05 -4.22835e-05)
(0.000166525 0.000116602 -4.22834e-05)
(0.000143747 0.000143747 -4.22835e-05)
(0.000116602 0.000166525 -4.22834e-05)
(8.59138e-05 0.000184243 -4.22835e-05)
(5.2615e-05 0.000196363 -4.22835e-05)
(1.77178e-05 0.000202516 -4.22834e-05)
(-1.77178e-05 0.000202516 -4.22834e-05)
(-5.2615e-05 0.000196363 -4.22835e-05)
(-8.59138e-05 0.000184243 -4.22835e-05)
(-0.000116602 0.000166525 -4.22834e-05)
(-0.000143747 0.000143747 -4.22835e-05)
(-0.000166525 0.000116602 -4.22834e-05)
(-0.000184243 8.59138e-05 -4.22835e-05)
(-0.000196363 5.2615e-05 -4.22835e-05)
(-0.000202516 1.77178e-05 -4.22834e-05)
(-0.000202516 -1.77178e-05 -4.22834e-05)
(-0.000196363 -5.2615e-05 -4.22835e-05)
(-0.000184243 -8.59138e-05 -4.22835e-05)
(-0.000166525 -0.000116602 -4.22834e-05)
(-0.000143747 -0.000143747 -4.22835e-05)
(-0.000116602 -0.000166525 -4.22834e-05)
(-8.59138e-05 -0.000184243 -4.22835e-05)
(-5.2615e-05 -0.000196363 -4.22835e-05)
(-1.77178e-05 -0.000202516 -4.22834e-05)
(1.77178e-05 -0.000202516 -4.22834e-05)
(5.2615e-05 -0.000196363 -4.22835e-05)
(8.59138e-05 -0.000184243 -4.22835e-05)
(0.000116602 -0.000166525 -4.22834e-05)
(0.000143747 -0.000143747 -4.22835e-05)
(0.000166525 -0.000116602 -4.22834e-05)
(0.000184243 -8.59138e-05 -4.22835e-05)
(0.000196363 -5.2615e-05 -4.22835e-05)
(0.000202516 -1.77178e-05 -4.22834e-05)
(0.000311429 2.72465e-05 -0.000107613)
(0.000301966 8.09116e-05 -0.000107614)
(0.000283328 0.000132118 -0.000107614)
(0.000256081 0.00017931 -0.000107614)
(0.000221054 0.000221054 -0.000107614)
(0.00017931 0.000256081 -0.000107614)
(0.000132118 0.000283328 -0.000107614)
(8.09116e-05 0.000301966 -0.000107614)
(2.72465e-05 0.000311429 -0.000107613)
(-2.72465e-05 0.000311429 -0.000107613)
(-8.09116e-05 0.000301966 -0.000107614)
(-0.000132118 0.000283328 -0.000107614)
(-0.00017931 0.000256081 -0.000107614)
(-0.000221054 0.000221054 -0.000107614)
(-0.000256081 0.00017931 -0.000107614)
(-0.000283328 0.000132118 -0.000107614)
(-0.000301966 8.09116e-05 -0.000107614)
(-0.000311429 2.72465e-05 -0.000107613)
(-0.000311429 -2.72465e-05 -0.000107613)
(-0.000301966 -8.09116e-05 -0.000107614)
(-0.000283328 -0.000132118 -0.000107614)
(-0.000256081 -0.00017931 -0.000107614)
(-0.000221054 -0.000221054 -0.000107614)
(-0.00017931 -0.000256081 -0.000107614)
(-0.000132118 -0.000283328 -0.000107614)
(-8.09116e-05 -0.000301966 -0.000107614)
(-2.72465e-05 -0.000311429 -0.000107613)
(2.72465e-05 -0.000311429 -0.000107613)
(8.09116e-05 -0.000301966 -0.000107614)
(0.000132118 -0.000283328 -0.000107614)
(0.00017931 -0.000256081 -0.000107614)
(0.000221054 -0.000221054 -0.000107614)
(0.000256081 -0.00017931 -0.000107614)
(0.000283328 -0.000132118 -0.000107614)
(0.000301966 -8.09116e-05 -0.000107614)
(0.000311429 -2.72465e-05 -0.000107613)
(0.00039827 3.48441e-05 -0.000135105)
(0.000386169 0.000103473 -0.000135105)
(0.000362334 0.000168959 -0.000135105)
(0.00032749 0.00022931 -0.000135105)
(0.000282695 0.000282695 -0.000135105)
(0.00022931 0.00032749 -0.000135105)
(0.000168959 0.000362334 -0.000135105)
(0.000103473 0.000386169 -0.000135105)
(3.48441e-05 0.00039827 -0.000135105)
(-3.48441e-05 0.00039827 -0.000135105)
(-0.000103473 0.000386169 -0.000135105)
(-0.000168959 0.000362334 -0.000135105)
(-0.00022931 0.00032749 -0.000135105)
(-0.000282695 0.000282695 -0.000135105)
(-0.00032749 0.00022931 -0.000135105)
(-0.000362334 0.000168959 -0.000135105)
(-0.000386169 0.000103473 -0.000135105)
(-0.00039827 3.48441e-05 -0.000135105)
(-0.00039827 -3.48441e-05 -0.000135105)
(-0.000386169 -0.000103473 -0.000135105)
(-0.000362334 -0.000168959 -0.000135105)
(-0.00032749 -0.00022931 -0.000135105)
(-0.000282695 -0.000282695 -0.000135105)
(-0.00022931 -0.00032749 -0.000135105)
(-0.000168959 -0.000362334 -0.000135105)
(-0.000103473 -0.000386169 -0.000135105)
(-3.48441e-05 -0.00039827 -0.000135105)
(3.48441e-05 -0.00039827 -0.000135105)
(0.000103473 -0.000386169 -0.000135105)
(0.000168959 -0.000362334 -0.000135105)
(0.00022931 -0.00032749 -0.000135105)
(0.000282695 -0.000282695 -0.000135105)
(0.00032749 -0.00022931 -0.000135105)
(0.000362334 -0.000168959 -0.000135105)
(0.000386169 -0.000103473 -0.000135105)
(0.00039827 -3.48441e-05 -0.000135105)
(0.000516009 4.5145e-05 -0.000158083)
(0.00050033 0.000134063 -0.000158083)
(0.000469449 0.000218907 -0.000158083)
(0.000424304 0.000297101 -0.000158083)
(0.000366267 0.000366267 -0.000158083)
(0.000297101 0.000424304 -0.000158083)
(0.000218907 0.000469449 -0.000158083)
(0.000134063 0.00050033 -0.000158083)
(4.5145e-05 0.000516009 -0.000158083)
(-4.5145e-05 0.000516009 -0.000158083)
(-0.000134063 0.00050033 -0.000158083)
(-0.000218907 0.000469449 -0.000158083)
(-0.000297101 0.000424304 -0.000158083)
(-0.000366267 0.000366267 -0.000158083)
(-0.000424304 0.000297101 -0.000158083)
(-0.000469449 0.000218907 -0.000158083)
(-0.00050033 0.000134063 -0.000158083)
(-0.000516009 4.5145e-05 -0.000158083)
(-0.000516009 -4.5145e-05 -0.000158083)
(-0.00050033 -0.000134063 -0.000158083)
(-0.000469449 -0.000218907 -0.000158083)
(-0.000424304 -0.000297101 -0.000158083)
(-0.000366267 -0.000366267 -0.000158083)
(-0.000297101 -0.000424304 -0.000158083)
(-0.000218907 -0.000469449 -0.000158083)
(-0.000134063 -0.00050033 -0.000158083)
(-4.5145e-05 -0.000516009 -0.000158083)
(4.5145e-05 -0.000516009 -0.000158083)
(0.000134063 -0.00050033 -0.000158083)
(0.000218907 -0.000469449 -0.000158083)
(0.000297101 -0.000424304 -0.000158083)
(0.000366267 -0.000366267 -0.000158083)
(0.000424304 -0.000297101 -0.000158083)
(0.000469449 -0.000218907 -0.000158083)
(0.00050033 -0.000134063 -0.000158083)
(0.000516009 -4.5145e-05 -0.000158083)
(0.000513929 4.49629e-05 -0.000223247)
(0.000498313 0.000133523 -0.000223247)
(0.000467557 0.000218025 -0.000223248)
(0.000422593 0.000295903 -0.000223248)
(0.00036479 0.00036479 -0.000223248)
(0.000295903 0.000422593 -0.000223248)
(0.000218025 0.000467557 -0.000223248)
(0.000133523 0.000498313 -0.000223247)
(4.49629e-05 0.000513929 -0.000223247)
(-4.49629e-05 0.000513929 -0.000223247)
(-0.000133523 0.000498313 -0.000223247)
(-0.000218025 0.000467557 -0.000223248)
(-0.000295903 0.000422593 -0.000223248)
(-0.00036479 0.00036479 -0.000223248)
(-0.000422593 0.000295903 -0.000223248)
(-0.000467557 0.000218025 -0.000223248)
(-0.000498313 0.000133523 -0.000223247)
(-0.000513929 4.49629e-05 -0.000223247)
(-0.000513929 -4.49629e-05 -0.000223247)
(-0.000498313 -0.000133523 -0.000223247)
(-0.000467557 -0.000218025 -0.000223248)
(-0.000422593 -0.000295903 -0.000223248)
(-0.00036479 -0.00036479 -0.000223248)
(-0.000295903 -0.000422593 -0.000223248)
(-0.000218025 -0.000467557 -0.000223248)
(-0.000133523 -0.000498313 -0.000223247)
(-4.49629e-05 -0.000513929 -0.000223247)
(4.49629e-05 -0.000513929 -0.000223247)
(0.000133523 -0.000498313 -0.000223247)
(0.000218025 -0.000467557 -0.000223248)
(0.000295903 -0.000422593 -0.000223248)
(0.00036479 -0.00036479 -0.000223248)
(0.000422593 -0.000295903 -0.000223248)
(0.000467557 -0.000218025 -0.000223248)
(0.000498313 -0.000133523 -0.000223247)
(0.000513929 -4.49629e-05 -0.000223247)
(0.00062957 5.50803e-05 -0.00026118)
(0.000610441 0.000163567 -0.00026118)
(0.000572764 0.000267084 -0.00026118)
(0.000517683 0.000362485 -0.00026118)
(0.000446873 0.000446873 -0.000261181)
(0.000362485 0.000517683 -0.00026118)
(0.000267084 0.000572764 -0.00026118)
(0.000163567 0.000610441 -0.00026118)
(5.50803e-05 0.00062957 -0.00026118)
(-5.50803e-05 0.00062957 -0.00026118)
(-0.000163567 0.000610441 -0.00026118)
(-0.000267084 0.000572764 -0.00026118)
(-0.000362485 0.000517683 -0.00026118)
(-0.000446873 0.000446873 -0.000261181)
(-0.000517683 0.000362485 -0.00026118)
(-0.000572764 0.000267084 -0.00026118)
(-0.000610441 0.000163567 -0.00026118)
(-0.00062957 5.50803e-05 -0.00026118)
(-0.00062957 -5.50803e-05 -0.00026118)
(-0.000610441 -0.000163567 -0.00026118)
(-0.000572764 -0.000267084 -0.00026118)
(-0.000517683 -0.000362485 -0.00026118)
(-0.000446873 -0.000446873 -0.000261181)
(-0.000362485 -0.000517683 -0.00026118)
(-0.000267084 -0.000572764 -0.00026118)
(-0.000163567 -0.000610441 -0.00026118)
(-5.50803e-05 -0.00062957 -0.00026118)
(5.50803e-05 -0.00062957 -0.00026118)
(0.000163567 -0.000610441 -0.00026118)
(0.000267084 -0.000572764 -0.00026118)
(0.000362485 -0.000517683 -0.00026118)
(0.000446873 -0.000446873 -0.000261181)
(0.000517683 -0.000362485 -0.00026118)
(0.000572764 -0.000267084 -0.00026118)
(0.000610441 -0.000163567 -0.00026118)
(0.00062957 -5.50803e-05 -0.00026118)
(0.00077834 6.80959e-05 -0.000295593)
(0.00075469 0.000202218 -0.000295593)
(0.00070811 0.000330196 -0.000295593)
(0.000640014 0.000448142 -0.000295593)
(0.000552471 0.000552471 -0.000295593)
(0.000448142 0.000640014 -0.000295593)
(0.000330196 0.00070811 -0.000295593)
(0.000202218 0.00075469 -0.000295593)
(6.80959e-05 0.00077834 -0.000295593)
(-6.80959e-05 0.00077834 -0.000295593)
(-0.000202218 0.00075469 -0.000295593)
(-0.000330196 0.00070811 -0.000295593)
(-0.000448142 0.000640014 -0.000295593)
(-0.000552471 0.000552471 -0.000295593)
(-0.000640014 0.000448142 -0.000295593)
(-0.00070811 0.000330196 -0.000295593)
(-0.00075469 0.000202218 -0.000295593)
(-0.00077834 6.80959e-05 -0.000295593)
(-0.00077834 -6.80959e-05 -0.000295593)
(-0.00075469 -0.000202218 -0.000295593)
(-0.00070811 -0.000330196 -0.000295593)
(-0.000640014 -0.000448142 -0.000295593)
(-0.000552471 -0.000552471 -0.000295593)
(-0.000448142 -0.000640014 -0.000295593)
(-0.000330196 -0.00070811 -0.000295593)
(-0.000202218 -0.00075469 -0.000295593)
(-6.80959e-05 -0.00077834 -0.000295593)
(6.80959e-05 -0.00077834 -0.000295593)
(0.000202218 -0.00075469 -0.000295593)
(0.000330196 -0.00070811 -0.000295593)
(0.000448142 -0.000640014 -0.000295593)
(0.000552471 -0.000552471 -0.000295593)
(0.000640014 -0.000448142 -0.000295593)
(0.00070811 -0.000330196 -0.000295593)
(0.00075469 -0.000202218 -0.000295593)
(0.00077834 -6.80959e-05 -0.000295593)
(0.000673522 5.89255e-05 -0.000357446)
(0.000653057 0.000174986 -0.000357446)
(0.00061275 0.00028573 -0.000357446)
(0.000553824 0.000387792 -0.000357446)
(0.000478071 0.000478071 -0.000357446)
(0.000387792 0.000553824 -0.000357446)
(0.00028573 0.00061275 -0.000357446)
(0.000174986 0.000653057 -0.000357446)
(5.89255e-05 0.000673522 -0.000357446)
(-5.89255e-05 0.000673522 -0.000357446)
(-0.000174986 0.000653057 -0.000357446)
(-0.00028573 0.00061275 -0.000357446)
(-0.000387792 0.000553824 -0.000357446)
(-0.000478071 0.000478071 -0.000357446)
(-0.000553824 0.000387792 -0.000357446)
(-0.00061275 0.00028573 -0.000357446)
(-0.000653057 0.000174986 -0.000357446)
(-0.000673522 5.89255e-05 -0.000357446)
(-0.000673522 -5.89255e-05 -0.000357446)
(-0.000653057 -0.000174986 -0.000357446)
(-0.00061275 -0.00028573 -0.000357446)
(-0.000553824 -0.000387792 -0.000357446)
(-0.000478071 -0.000478071 -0.000357446)
(-0.000387792 -0.000553824 -0.000357446)
(-0.00028573 -0.00061275 -0.000357446)
(-0.000174986 -0.000653057 -0.000357446)
(-5.89255e-05 -0.000673522 -0.000357446)
(5.89255e-05 -0.000673522 -0.000357446)
(0.000174986 -0.000653057 -0.000357446)
(0.00028573 -0.00061275 -0.000357446)
(0.000387792 -0.000553824 -0.000357446)
(0.000478071 -0.000478071 -0.000357446)
(0.000553824 -0.000387792 -0.000357446)
(0.00061275 -0.00028573 -0.000357446)
(0.000653057 -0.000174986 -0.000357446)
(0.000673522 -5.89255e-05 -0.000357446)
(0.00080371 7.03155e-05 -0.000399234)
(0.00077929 0.00020881 -0.000399234)
(0.000731191 0.00034096 -0.000399234)
(0.000660875 0.00046275 -0.000399234)
(0.000570479 0.000570479 -0.000399234)
(0.00046275 0.000660875 -0.000399234)
(0.00034096 0.000731191 -0.000399234)
(0.00020881 0.00077929 -0.000399234)
(7.03155e-05 0.00080371 -0.000399234)
(-7.03155e-05 0.00080371 -0.000399234)
(-0.00020881 0.00077929 -0.000399234)
(-0.00034096 0.000731191 -0.000399234)
(-0.00046275 0.000660875 -0.000399234)
(-0.000570479 0.000570479 -0.000399234)
(-0.000660875 0.00046275 -0.000399234)
(-0.000731191 0.00034096 -0.000399234)
(-0.00077929 0.00020881 -0.000399234)
(-0.00080371 7.03155e-05 -0.000399234)
(-0.00080371 -7.03155e-05 -0.000399234)
(-0.00077929 -0.00020881 -0.000399234)
(-0.000731191 -0.00034096 -0.000399234)
(-0.000660875 -0.00046275 -0.000399234)
(-0.000570479 -0.000570479 -0.000399234)
(-0.00046275 -0.000660875 -0.000399234)
(-0.00034096 -0.000731191 -0.000399234)
(-0.00020881 -0.00077929 -0.000399234)
(-7.03155e-05 -0.00080371 -0.000399234)
(7.03155e-05 -0.00080371 -0.000399234)
(0.00020881 -0.00077929 -0.000399234)
(0.00034096 -0.000731191 -0.000399234)
(0.00046275 -0.000660875 -0.000399234)
(0.000570479 -0.000570479 -0.000399234)
(0.000660875 -0.00046275 -0.000399234)
(0.000731191 -0.00034096 -0.000399234)
(0.00077929 -0.00020881 -0.000399234)
(0.00080371 -7.03155e-05 -0.000399234)
(0.000968376 8.47219e-05 -0.00043943)
(0.000938952 0.000251591 -0.00043943)
(0.000880999 0.000410816 -0.00043943)
(0.000796277 0.000557559 -0.00043943)
(0.00068736 0.00068736 -0.00043943)
(0.000557559 0.000796277 -0.00043943)
(0.000410816 0.000880999 -0.00043943)
(0.000251591 0.000938952 -0.00043943)
(8.47219e-05 0.000968376 -0.00043943)
(-8.47219e-05 0.000968376 -0.00043943)
(-0.000251591 0.000938952 -0.00043943)
(-0.000410816 0.000880999 -0.00043943)
(-0.000557559 0.000796277 -0.00043943)
(-0.00068736 0.00068736 -0.00043943)
(-0.000796277 0.000557559 -0.00043943)
(-0.000880999 0.000410816 -0.00043943)
(-0.000938952 0.000251591 -0.00043943)
(-0.000968376 8.47219e-05 -0.00043943)
(-0.000968376 -8.47219e-05 -0.00043943)
(-0.000938952 -0.000251591 -0.00043943)
(-0.000880999 -0.000410816 -0.00043943)
(-0.000796277 -0.000557559 -0.00043943)
(-0.00068736 -0.00068736 -0.00043943)
(-0.000557559 -0.000796277 -0.00043943)
(-0.000410816 -0.000880999 -0.00043943)
(-0.000251591 -0.000938952 -0.00043943)
(-8.47219e-05 -0.000968376 -0.00043943)
(8.47219e-05 -0.000968376 -0.00043943)
(0.000251591 -0.000938952 -0.00043943)
(0.000410816 -0.000880999 -0.00043943)
(0.000557559 -0.000796277 -0.00043943)
(0.00068736 -0.00068736 -0.00043943)
(0.000796277 -0.000557559 -0.00043943)
(0.000880999 -0.000410816 -0.00043943)
(0.000938952 -0.000251591 -0.00043943)
(0.000968376 -8.47219e-05 -0.00043943)
(0.000775952 6.78871e-05 -0.000493452)
(0.000752375 0.000201598 -0.000493452)
(0.000705938 0.000329184 -0.000493452)
(0.000638051 0.000446768 -0.000493452)
(0.000550777 0.000550777 -0.000493452)
(0.000446768 0.000638051 -0.000493452)
(0.000329184 0.000705938 -0.000493452)
(0.000201598 0.000752375 -0.000493452)
(6.78871e-05 0.000775952 -0.000493452)
(-6.78871e-05 0.000775952 -0.000493452)
(-0.000201598 0.000752375 -0.000493452)
(-0.000329184 0.000705938 -0.000493452)
(-0.000446768 0.000638051 -0.000493452)
(-0.000550777 0.000550777 -0.000493452)
(-0.000638051 0.000446768 -0.000493452)
(-0.000705938 0.000329184 -0.000493452)
(-0.000752375 0.000201598 -0.000493452)
(-0.000775952 6.78871e-05 -0.000493452)
(-0.000775952 -6.78871e-05 -0.000493452)
(-0.000752375 -0.000201598 -0.000493452)
(-0.000705938 -0.000329184 -0.000493452)
(-0.000638051 -0.000446768 -0.000493452)
(-0.000550777 -0.000550777 -0.000493452)
(-0.000446768 -0.000638051 -0.000493452)
(-0.000329184 -0.000705938 -0.000493452)
(-0.000201598 -0.000752375 -0.000493452)
(-6.78871e-05 -0.000775952 -0.000493452)
(6.78871e-05 -0.000775952 -0.000493452)
(0.000201598 -0.000752375 -0.000493452)
(0.000329184 -0.000705938 -0.000493452)
(0.000446768 -0.000638051 -0.000493452)
(0.000550777 -0.000550777 -0.000493452)
(0.000638051 -0.000446768 -0.000493452)
(0.000705938 -0.000329184 -0.000493452)
(0.000752375 -0.000201598 -0.000493452)
(0.000775952 -6.78871e-05 -0.000493452)
(0.000910759 7.96812e-05 -0.000535768)
(0.000883085 0.000236622 -0.000535768)
(0.000828581 0.000386373 -0.000535768)
(0.000748899 0.000524385 -0.000535768)
(0.000646463 0.000646463 -0.000535768)
(0.000524385 0.000748899 -0.000535768)
(0.000386373 0.000828581 -0.000535768)
(0.000236622 0.000883085 -0.000535768)
(7.96812e-05 0.000910759 -0.000535768)
(-7.96812e-05 0.000910759 -0.000535768)
(-0.000236622 0.000883085 -0.000535768)
(-0.000386373 0.000828581 -0.000535768)
(-0.000524385 0.000748899 -0.000535768)
(-0.000646463 0.000646463 -0.000535768)
(-0.000748899 0.000524385 -0.000535768)
(-0.000828581 0.000386373 -0.000535768)
(-0.000883085 0.000236622 -0.000535768)
(-0.000910759 7.96812e-05 -0.000535768)
(-0.000910759 -7.96812e-05 -0.000535768)
(-0.000883085 -0.000236622 -0.000535768)
(-0.000828581 -0.000386373 -0.000535768)
(-0.000748899 -0.000524385 -0.000535768)
(-0.000646463 -0.000646463 -0.000535768)
(-0.000524385 -0.000748899 -0.000535768)
(-0.000386373 -0.000828581 -0.000535768)
(-0.000236622 -0.000883085 -0.000535768)
(-7.96812e-05 -0.000910759 -0.000535768)
(7.96812e-05 -0.000910759 -0.000535768)
(0.000236622 -0.000883085 -0.000535768)
(0.000386373 -0.000828581 -0.000535768)
(0.000524385 -0.000748899 -0.000535768)
(0.000646463 -0.000646463 -0.000535768)
(0.000748899 -0.000524385 -0.000535768)
(0.000828581 -0.000386373 -0.000535768)
(0.000883085 -0.000236622 -0.000535768)
(0.000910759 -7.96812e-05 -0.000535768)
(0.0010815 9.46189e-05 -0.00057906)
(0.00104864 0.000280982 -0.00057906)
(0.000983915 0.000458807 -0.00057906)
(0.000889296 0.000622692 -0.00057906)
(0.000767656 0.000767656 -0.00057906)
(0.000622692 0.000889296 -0.00057906)
(0.000458807 0.000983915 -0.00057906)
(0.000280982 0.00104864 -0.00057906)
(9.46189e-05 0.0010815 -0.00057906)
(-9.46189e-05 0.0010815 -0.00057906)
(-0.000280982 0.00104864 -0.00057906)
(-0.000458807 0.000983915 -0.00057906)
(-0.000622692 0.000889296 -0.00057906)
(-0.000767656 0.000767656 -0.00057906)
(-0.000889296 0.000622692 -0.00057906)
(-0.000983915 0.000458807 -0.00057906)
(-0.00104864 0.000280982 -0.00057906)
(-0.0010815 9.46189e-05 -0.00057906)
(-0.0010815 -9.46189e-05 -0.00057906)
(-0.00104864 -0.000280982 -0.00057906)
(-0.000983915 -0.000458807 -0.00057906)
(-0.000889296 -0.000622692 -0.00057906)
(-0.000767656 -0.000767656 -0.00057906)
(-0.000622692 -0.000889296 -0.00057906)
(-0.000458807 -0.000983915 -0.00057906)
(-0.000280982 -0.00104864 -0.00057906)
(-9.46189e-05 -0.0010815 -0.00057906)
(9.46189e-05 -0.0010815 -0.00057906)
(0.000280982 -0.00104864 -0.00057906)
(0.000458807 -0.000983915 -0.00057906)
(0.000622692 -0.000889296 -0.00057906)
(0.000767656 -0.000767656 -0.00057906)
(0.000889296 -0.000622692 -0.00057906)
(0.000983915 -0.000458807 -0.00057906)
(0.00104864 -0.000280982 -0.00057906)
(0.0010815 -9.46189e-05 -0.00057906)
(0.000816847 7.1465e-05 -0.000618871)
(0.000792027 0.000212223 -0.000618871)
(0.000743142 0.000346533 -0.000618871)
(0.000671677 0.000470314 -0.000618871)
(0.000579804 0.000579804 -0.000618871)
(0.000470314 0.000671677 -0.000618871)
(0.000346533 0.000743142 -0.000618871)
(0.000212223 0.000792027 -0.000618871)
(7.1465e-05 0.000816847 -0.000618871)
(-7.1465e-05 0.000816847 -0.000618871)
(-0.000212223 0.000792027 -0.000618871)
(-0.000346533 0.000743142 -0.000618871)
(-0.000470314 0.000671677 -0.000618871)
(-0.000579804 0.000579804 -0.000618871)
(-0.000671677 0.000470314 -0.000618871)
(-0.000743142 0.000346533 -0.000618871)
(-0.000792027 0.000212223 -0.000618871)
(-0.000816847 7.1465e-05 -0.000618871)
(-0.000816847 -7.1465e-05 -0.000618871)
(-0.000792027 -0.000212223 -0.000618871)
(-0.000743142 -0.000346533 -0.000618871)
(-0.000671677 -0.000470314 -0.000618871)
(-0.000579804 -0.000579804 -0.000618871)
(-0.000470314 -0.000671677 -0.000618871)
(-0.000346533 -0.000743142 -0.000618871)
(-0.000212223 -0.000792027 -0.000618871)
(-7.1465e-05 -0.000816847 -0.000618871)
(7.1465e-05 -0.000816847 -0.000618871)
(0.000212223 -0.000792027 -0.000618871)
(0.000346533 -0.000743142 -0.000618871)
(0.000470314 -0.000671677 -0.000618871)
(0.000579804 -0.000579804 -0.000618871)
(0.000671677 -0.000470314 -0.000618871)
(0.000743142 -0.000346533 -0.000618871)
(0.000792027 -0.000212223 -0.000618871)
(0.000816847 -7.1465e-05 -0.000618871)
(0.000950154 8.31278e-05 -0.000660463)
(0.000921284 0.000246858 -0.000660463)
(0.000864421 0.000403087 -0.000660463)
(0.000781294 0.000547068 -0.000660463)
(0.000674427 0.000674427 -0.000660463)
(0.000547068 0.000781294 -0.000660463)
(0.000403087 0.000864421 -0.000660463)
(0.000246858 0.000921284 -0.000660463)
(8.31278e-05 0.000950154 -0.000660463)
(-8.31278e-05 0.000950154 -0.000660463)
(-0.000246858 0.000921284 -0.000660463)
(-0.000403087 0.000864421 -0.000660463)
(-0.000547068 0.000781294 -0.000660463)
(-0.000674427 0.000674427 -0.000660463)
(-0.000781294 0.000547068 -0.000660463)
(-0.000864421 0.000403087 -0.000660463)
(-0.000921284 0.000246858 -0.000660463)
(-0.000950154 8.31278e-05 -0.000660463)
(-0.000950154 -8.31278e-05 -0.000660463)
(-0.000921284 -0.000246858 -0.000660463)
(-0.000864421 -0.000403087 -0.000660463)
(-0.000781294 -0.000547068 -0.000660463)
(-0.000674427 -0.000674427 -0.000660463)
(-0.000547068 -0.000781294 -0.000660463)
(-0.000403087 -0.000864421 -0.000660463)
(-0.000246858 -0.000921284 -0.000660463)
(-8.31278e-05 -0.000950154 -0.000660463)
(8.31278e-05 -0.000950154 -0.000660463)
(0.000246858 -0.000921284 -0.000660463)
(0.000403087 -0.000864421 -0.000660463)
(0.000547068 -0.000781294 -0.000660463)
(0.000674427 -0.000674427 -0.000660463)
(0.000781294 -0.000547068 -0.000660463)
(0.000864421 -0.000403087 -0.000660463)
(0.000921284 -0.000246858 -0.000660463)
(0.000950154 -8.31278e-05 -0.000660463)
(0.00112081 9.80579e-05 -0.000706076)
(0.00108675 0.000291194 -0.000706076)
(0.00101968 0.000475483 -0.000706076)
(0.000921618 0.000645324 -0.000706077)
(0.000795557 0.000795557 -0.000706077)
(0.000645324 0.000921618 -0.000706077)
(0.000475483 0.00101968 -0.000706076)
(0.000291194 0.00108675 -0.000706076)
(9.80579e-05 0.00112081 -0.000706076)
(-9.80579e-05 0.00112081 -0.000706076)
(-0.000291194 0.00108675 -0.000706076)
(-0.000475483 0.00101968 -0.000706076)
(-0.000645324 0.000921618 -0.000706077)
(-0.000795557 0.000795557 -0.000706077)
(-0.000921618 0.000645324 -0.000706077)
(-0.00101968 0.000475483 -0.000706076)
(-0.00108675 0.000291194 -0.000706076)
(-0.00112081 9.80579e-05 -0.000706076)
(-0.00112081 -9.80579e-05 -0.000706076)
(-0.00108675 -0.000291194 -0.000706076)
(-0.00101968 -0.000475483 -0.000706076)
(-0.000921618 -0.000645324 -0.000706077)
(-0.000795557 -0.000795557 -0.000706077)
(-0.000645324 -0.000921618 -0.000706077)
(-0.000475483 -0.00101968 -0.000706076)
(-0.000291194 -0.00108675 -0.000706076)
(-9.80579e-05 -0.00112081 -0.000706076)
(9.80579e-05 -0.00112081 -0.000706076)
(0.000291194 -0.00108675 -0.000706076)
(0.000475483 -0.00101968 -0.000706076)
(0.000645324 -0.000921618 -0.000706077)
(0.000795557 -0.000795557 -0.000706077)
(0.000921618 -0.000645324 -0.000706077)
(0.00101968 -0.000475483 -0.000706076)
(0.00108675 -0.000291194 -0.000706076)
(0.00112081 -9.80579e-05 -0.000706076)
(0.000799236 6.99241e-05 -0.000725362)
(0.000774952 0.000207648 -0.000725362)
(0.000727121 0.000339063 -0.000725362)
(0.000657197 0.000460175 -0.000725363)
(0.000567305 0.000567305 -0.000725363)
(0.000460175 0.000657197 -0.000725363)
(0.000339063 0.000727121 -0.000725362)
(0.000207648 0.000774952 -0.000725362)
(6.99241e-05 0.000799236 -0.000725362)
(-6.99241e-05 0.000799236 -0.000725362)
(-0.000207648 0.000774952 -0.000725362)
(-0.000339063 0.000727121 -0.000725362)
(-0.000460175 0.000657197 -0.000725363)
(-0.000567305 0.000567305 -0.000725363)
(-0.000657197 0.000460175 -0.000725363)
(-0.000727121 0.000339063 -0.000725362)
(-0.000774952 0.000207648 -0.000725362)
(-0.000799236 6.99241e-05 -0.000725362)
(-0.000799236 -6.99241e-05 -0.000725362)
(-0.000774952 -0.000207648 -0.000725362)
(-0.000727121 -0.000339063 -0.000725362)
(-0.000657197 -0.000460175 -0.000725363)
(-0.000567305 -0.000567305 -0.000725363)
(-0.000460175 -0.000657197 -0.000725363)
(-0.000339063 -0.000727121 -0.000725362)
(-0.000207648 -0.000774952 -0.000725362)
(-6.99241e-05 -0.000799236 -0.000725362)
(6.99241e-05 -0.000799236 -0.000725362)
(0.000207648 -0.000774952 -0.000725362)
(0.000339063 -0.000727121 -0.000725362)
(0.000460175 -0.000657197 -0.000725363)
(0.000567305 -0.000567305 -0.000725363)
(0.000657197 -0.000460175 -0.000725363)
(0.000727121 -0.000339063 -0.000725362)
(0.000774952 -0.000207648 -0.000725362)
(0.000799236 -6.99241e-05 -0.000725362)
(0.000927565 8.11515e-05 -0.000766089)
(0.000899381 0.000240989 -0.000766089)
(0.00084387 0.000393504 -0.000766089)
(0.000762719 0.000534062 -0.000766089)
(0.000658393 0.000658393 -0.000766089)
(0.000534062 0.000762719 -0.000766089)
(0.000393504 0.00084387 -0.000766089)
(0.000240989 0.000899381 -0.000766089)
(8.11515e-05 0.000927565 -0.000766089)
(-8.11515e-05 0.000927565 -0.000766089)
(-0.000240989 0.000899381 -0.000766089)
(-0.000393504 0.00084387 -0.000766089)
(-0.000534062 0.000762719 -0.000766089)
(-0.000658393 0.000658393 -0.000766089)
(-0.000762719 0.000534062 -0.000766089)
(-0.00084387 0.000393504 -0.000766089)
(-0.000899381 0.000240989 -0.000766089)
(-0.000927565 8.11515e-05 -0.000766089)
(-0.000927565 -8.11515e-05 -0.000766089)
(-0.000899381 -0.000240989 -0.000766089)
(-0.00084387 -0.000393504 -0.000766089)
(-0.000762719 -0.000534062 -0.000766089)
(-0.000658393 -0.000658393 -0.000766089)
(-0.000534062 -0.000762719 -0.000766089)
(-0.000393504 -0.00084387 -0.000766089)
(-0.000240989 -0.000899381 -0.000766089)
(-8.11515e-05 -0.000927565 -0.000766089)
(8.11515e-05 -0.000927565 -0.000766089)
(0.000240989 -0.000899381 -0.000766089)
(0.000393504 -0.00084387 -0.000766089)
(0.000534062 -0.000762719 -0.000766089)
(0.000658393 -0.000658393 -0.000766089)
(0.000762719 -0.000534062 -0.000766089)
(0.00084387 -0.000393504 -0.000766089)
(0.000899381 -0.000240989 -0.000766089)
(0.000927565 -8.11515e-05 -0.000766089)
(0.00109441 9.57484e-05 -0.00081424)
(0.00106115 0.000284335 -0.00081424)
(0.000995657 0.000464283 -0.00081424)
(0.000899909 0.000630124 -0.00081424)
(0.000776818 0.000776818 -0.00081424)
(0.000630124 0.000899909 -0.00081424)
(0.000464283 0.000995657 -0.00081424)
(0.000284335 0.00106115 -0.00081424)
(9.57484e-05 0.00109441 -0.00081424)
(-9.57484e-05 0.00109441 -0.00081424)
(-0.000284335 0.00106115 -0.00081424)
(-0.000464283 0.000995657 -0.00081424)
(-0.000630124 0.000899909 -0.00081424)
(-0.000776818 0.000776818 -0.00081424)
(-0.000899909 0.000630124 -0.00081424)
(-0.000995657 0.000464283 -0.00081424)
(-0.00106115 0.000284335 -0.00081424)