/*--------------------------------*- C++ -*----------------------------------*\
| =========                 |                                                 |
| \\      /  F ield         | OpenFOAM: The Open Source CFD Toolbox           |
|  \\    /   O peration     | Version:  2312                                  |
|   \\  /    A nd           | Website:  www.openfoam.com                      |
|    \\/     M anipulation  |                                                 |
\*---------------------------------------------------------------------------*/
FoamFile
{
    version     2.0;
    format      ascii;
    arch        "LSB;label=32;scalar=64";
    class       volVectorField;
    location    "0.3";
    object      D_0_0_0;
}
// * * * * * * * * * * * * * * * * * * * * * * * * * * * * * * * * * * * * * //

dimensions      [0 1 0 0 0 0 0];

internalField   nonuniform List<vector> 
1620
(
(7.59213e-05 6.64226e-06 -2.5426e-05)
(7.36144e-05 1.97249e-05 -2.5426e-05)
(6.90708e-05 3.22082e-05 -2.54261e-05)
(6.24286e-05 4.37129e-05 -2.54261e-05)
(5.38894e-05 5.38894e-05 -2.54261e-05)
(4.37129e-05 6.24286e-05 -2.54261e-05)
(3.22082e-05 6.90708e-05 -2.54261e-05)
(1.97249e-05 7.36144e-05 -2.5426e-05)
(6.64226e-06 7.59213e-05 -2.5426e-05)
(-6.64226e-06 7.59213e-05 -2.5426e-05)
(-1.97249e-05 7.36144e-05 -2.5426e-05)
(-3.22082e-05 6.90708e-05 -2.54261e-05)
(-4.37129e-05 6.24286e-05 -2.54261e-05)
(-5.38894e-05 5.38894e-05 -2.54261e-05)
(-6.24286e-05 4.37129e-05 -2.54261e-05)
(-6.90708e-05 3.22082e-05 -2.54261e-05)
(-7.36144e-05 1.97249e-05 -2.5426e-05)
(-7.59213e-05 6.64226e-06 -2.5426e-05)
(-7.59213e-05 -6.64226e-06 -2.5426e-05)
(-7.36144e-05 -1.97249e-05 -2.5426e-05)
(-6.90708e-05 -3.22082e-05 -2.54261e-05)
(-6.24286e-05 -4.37129e-05 -2.54261e-05)
(-5.38894e-05 -5.38894e-05 -2.54261e-05)
(-4.37129e-05 -6.24286e-05 -2.54261e-05)
(-3.22082e-05 -6.90708e-05 -2.54261e-05)
(-1.97249e-05 -7.36144e-05 -2.5426e-05)
(-6.64226e-06 -7.59213e-05 -2.5426e-05)
(6.64226e-06 -7.59213e-05 -2.5426e-05)
(1.97249e-05 -7.36144e-05 -2.5426e-05)
(3.22082e-05 -6.90708e-05 -2.54261e-05)
(4.37129e-05 -6.24286e-05 -2.54261e-05)
(5.38894e-05 -5.38894e-05 -2.54261e-05)
(6.24286e-05 -4.37129e-05 -2.54261e-05)
(6.90708e-05 -3.22082e-05 -2.54261e-05)
(7.36144e-05 -1.97249e-05 -2.5426e-05)
(7.59213e-05 -6.64226e-06 -2.5426e-05)
(0.00011556 1.01101e-05 -3.3113e-05)
(0.000112049 3.00233e-05 -3.3113e-05)
(0.000105133 4.90241e-05 -3.3113e-05)
(9.50226e-05 6.65354e-05 -3.3113e-05)
(8.20253e-05 8.20253e-05 -3.31131e-05)
(6.65354e-05 9.50226e-05 -3.3113e-05)
(4.90241e-05 0.000105133 -3.3113e-05)
(3.00233e-05 0.000112049 -3.3113e-05)
(1.01101e-05 0.00011556 -3.3113e-05)
(-1.01101e-05 0.00011556 -3.3113e-05)
(-3.00233e-05 0.000112049 -3.3113e-05)
(-4.90241e-05 0.000105133 -3.3113e-05)
(-6.65354e-05 9.50226e-05 -3.3113e-05)
(-8.20253e-05 8.20253e-05 -3.31131e-05)
(-9.50226e-05 6.65354e-05 -3.3113e-05)
(-0.000105133 4.90241e-05 -3.3113e-05)
(-0.000112049 3.00233e-05 -3.3113e-05)
(-0.00011556 1.01101e-05 -3.3113e-05)
(-0.00011556 -1.01101e-05 -3.3113e-05)
(-0.000112049 -3.00233e-05 -3.3113e-05)
(-0.000105133 -4.90241e-05 -3.3113e-05)
(-9.50226e-05 -6.65354e-05 -3.3113e-05)
(-8.20253e-05 -8.20253e-05 -3.31131e-05)
(-6.65354e-05 -9.50226e-05 -3.3113e-05)
(-4.90241e-05 -0.000105133 -3.3113e-05)
(-3.00233e-05 -0.000112049 -3.3113e-05)
(-1.01101e-05 -0.00011556 -3.3113e-05)
(1.01101e-05 -0.00011556 -3.3113e-05)
(3.00233e-05 -0.000112049 -3.3113e-05)
(4.90241e-05 -0.000105133 -3.3113e-05)
(6.65354e-05 -9.50226e-05 -3.3113e-05)
(8.20253e-05 -8.20253e-05 -3.31131e-05)
(9.50226e-05 -6.65354e-05 -3.3113e-05)
(0.000105133 -4.90241e-05 -3.3113e-05)
(0.000112049 -3.00233e-05 -3.3113e-05)
(0.00011556 -1.01101e-05 -3.3113e-05)
(0.000175089 1.53182e-05 -3.71757e-05)
(0.000169769 4.54892e-05 -3.71758e-05)
(0.00015929 7.42783e-05 -3.71758e-05)
(0.000143972 0.00010081 -3.71757e-05)
(0.000124279 0.000124279 -3.71758e-05)
(0.00010081 0.000143972 -3.71757e-05)
(7.42783e-05 0.00015929 -3.71758e-05)
(4.54892e-05 0.000169769 -3.71758e-05)
(1.53182e-05 0.000175089 -3.71757e-05)
(-1.53182e-05 0.000175089 -3.71757e-05)
(-4.54892e-05 0.000169769 -3.71758e-05)
(-7.42783e-05 0.00015929 -3.71758e-05)
(-0.00010081 0.000143972 -3.71757e-05)
(-0.000124279 0.000124279 -3.71758e-05)
(-0.000143972 0.00010081 -3.71757e-05)
(-0.00015929 7.42783e-05 -3.71758e-05)
(-0.000169769 4.54892e-05 -3.71758e-05)
(-0.000175089 1.53182e-05 -3.71757e-05)
(-0.000175089 -1.53182e-05 -3.71757e-05)
(-0.000169769 -4.54892e-05 -3.71758e-05)
(-0.00015929 -7.42783e-05 -3.71758e-05)
(-0.000143972 -0.00010081 -3.71757e-05)
(-0.000124279 -0.000124279 -3.71758e-05)
(-0.00010081 -0.000143972 -3.71757e-05)
(-7.42783e-05 -0.00015929 -3.71758e-05)
(-4.54892e-05 -0.000169769 -3.71758e-05)
(-1.53182e-05 -0.000175089 -3.71757e-05)
(1.53182e-05 -0.000175089 -3.71757e-05)
(4.54892e-05 -0.000169769 -3.71758e-05)
(7.42783e-05 -0.00015929 -3.71758e-05)
(0.00010081 -0.000143972 -3.71757e-05)
(0.000124279 -0.000124279 -3.71758e-05)
(0.000143972 -0.00010081 -3.71757e-05)
(0.00015929 -7.42783e-05 -3.71758e-05)
(0.000169769 -4.54892e-05 -3.71758e-05)
(0.000175089 -1.53182e-05 -3.71757e-05)
(0.00026939 2.35685e-05 -8.94094e-05)
(0.000261204 6.99895e-05 -8.94095e-05)
(0.000245082 0.000114284 -8.94096e-05)
(0.000221513 0.000155105 -8.94097e-05)
(0.000191214 0.000191214 -8.94097e-05)
(0.000155105 0.000221513 -8.94097e-05)
(0.000114284 0.000245082 -8.94096e-05)
(6.99895e-05 0.000261204 -8.94095e-05)
(2.35685e-05 0.00026939 -8.94094e-05)
(-2.35685e-05 0.00026939 -8.94094e-05)
(-6.99895e-05 0.000261204 -8.94095e-05)
(-0.000114284 0.000245082 -8.94096e-05)
(-0.000155105 0.000221513 -8.94097e-05)
(-0.000191214 0.000191214 -8.94097e-05)
(-0.000221513 0.000155105 -8.94097e-05)
(-0.000245082 0.000114284 -8.94096e-05)
(-0.000261204 6.99895e-05 -8.94095e-05)
(-0.00026939 2.35685e-05 -8.94094e-05)
(-0.00026939 -2.35685e-05 -8.94094e-05)
(-0.000261204 -6.99895e-05 -8.94095e-05)
(-0.000245082 -0.000114284 -8.94096e-05)
(-0.000221513 -0.000155105 -8.94097e-05)
(-0.000191214 -0.000191214 -8.94097e-05)
(-0.000155105 -0.000221513 -8.94097e-05)
(-0.000114284 -0.000245082 -8.94096e-05)
(-6.99895e-05 -0.000261204 -8.94095e-05)
(-2.35685e-05 -0.00026939 -8.94094e-05)
(2.35685e-05 -0.00026939 -8.94094e-05)
(6.99895e-05 -0.000261204 -8.94095e-05)
(0.000114284 -0.000245082 -8.94096e-05)
(0.000155105 -0.000221513 -8.94097e-05)
(0.000191214 -0.000191214 -8.94097e-05)
(0.000221513 -0.000155105 -8.94097e-05)
(0.000245082 -0.000114284 -8.94096e-05)
(0.000261204 -6.99895e-05 -8.94095e-05)
(0.00026939 -2.35685e-05 -8.94094e-05)
(0.00034406 3.01014e-05 -0.000114862)
(0.000333606 8.93894e-05 -0.000114862)
(0.000313016 0.000145961 -0.000114862)
(0.000282914 0.000198098 -0.000114863)
(0.000244216 0.000244216 -0.000114863)
(0.000198098 0.000282914 -0.000114863)
(0.000145961 0.000313016 -0.000114862)
(8.93894e-05 0.000333606 -0.000114862)
(3.01014e-05 0.00034406 -0.000114862)
(-3.01014e-05 0.00034406 -0.000114862)
(-8.93894e-05 0.000333606 -0.000114862)
(-0.000145961 0.000313016 -0.000114862)
(-0.000198098 0.000282914 -0.000114863)
(-0.000244216 0.000244216 -0.000114863)
(-0.000282914 0.000198098 -0.000114863)
(-0.000313016 0.000145961 -0.000114862)
(-0.000333606 8.93894e-05 -0.000114862)
(-0.00034406 3.01014e-05 -0.000114862)
(-0.00034406 -3.01014e-05 -0.000114862)
(-0.000333606 -8.93894e-05 -0.000114862)
(-0.000313016 -0.000145961 -0.000114862)
(-0.000282914 -0.000198098 -0.000114863)
(-0.000244216 -0.000244216 -0.000114863)
(-0.000198098 -0.000282914 -0.000114863)
(-0.000145961 -0.000313016 -0.000114862)
(-8.93894e-05 -0.000333606 -0.000114862)
(-3.01014e-05 -0.00034406 -0.000114862)
(3.01014e-05 -0.00034406 -0.000114862)
(8.93894e-05 -0.000333606 -0.000114862)
(0.000145961 -0.000313016 -0.000114862)
(0.000198098 -0.000282914 -0.000114863)
(0.000244216 -0.000244216 -0.000114863)
(0.000282914 -0.000198098 -0.000114863)
(0.000313016 -0.000145961 -0.000114862)
(0.000333606 -8.93894e-05 -0.000114862)
(0.00034406 -3.01014e-05 -0.000114862)
(0.000446337 3.90494e-05 -0.000136776)
(0.000432775 0.000115962 -0.000136776)
(0.000406064 0.00018935 -0.000136776)
(0.000367014 0.000256986 -0.000136775)
(0.000316813 0.000316813 -0.000136775)
(0.000256986 0.000367014 -0.000136775)
(0.00018935 0.000406064 -0.000136776)
(0.000115962 0.000432775 -0.000136776)
(3.90494e-05 0.000446337 -0.000136776)
(-3.90494e-05 0.000446337 -0.000136776)
(-0.000115962 0.000432775 -0.000136776)
(-0.00018935 0.000406064 -0.000136776)
(-0.000256986 0.000367014 -0.000136775)
(-0.000316813 0.000316813 -0.000136775)
(-0.000367014 0.000256986 -0.000136775)
(-0.000406064 0.00018935 -0.000136776)
(-0.000432775 0.000115962 -0.000136776)
(-0.000446337 3.90494e-05 -0.000136776)
(-0.000446337 -3.90494e-05 -0.000136776)
(-0.000432775 -0.000115962 -0.000136776)
(-0.000406064 -0.00018935 -0.000136776)
(-0.000367014 -0.000256986 -0.000136775)
(-0.000316813 -0.000316813 -0.000136775)
(-0.000256986 -0.000367014 -0.000136775)
(-0.00018935 -0.000406064 -0.000136776)
(-0.000115962 -0.000432775 -0.000136776)
(-3.90494e-05 -0.000446337 -0.000136776)
(3.90494e-05 -0.000446337 -0.000136776)
(0.000115962 -0.000432775 -0.000136776)
(0.00018935 -0.000406064 -0.000136776)
(0.000256986 -0.000367014 -0.000136775)
(0.000316813 -0.000316813 -0.000136775)
(0.000367014 -0.000256986 -0.000136775)
(0.000406064 -0.00018935 -0.000136776)
(0.000432775 -0.000115962 -0.000136776)
(0.000446337 -3.90494e-05 -0.000136776)
(0.000444045 3.88488e-05 -0.000186897)
(0.000430552 0.000115366 -0.000186897)
(0.000403978 0.000188378 -0.000186897)
(0.000365129 0.000255666 -0.000186898)
(0.000315186 0.000315186 -0.000186898)
(0.000255666 0.000365129 -0.000186898)
(0.000188378 0.000403978 -0.000186897)
(0.000115366 0.000430552 -0.000186897)
(3.88488e-05 0.000444045 -0.000186897)
(-3.88488e-05 0.000444045 -0.000186897)
(-0.000115366 0.000430552 -0.000186897)
(-0.000188378 0.000403978 -0.000186897)
(-0.000255666 0.000365129 -0.000186898)
(-0.000315186 0.000315186 -0.000186898)
(-0.000365129 0.000255666 -0.000186898)
(-0.000403978 0.000188378 -0.000186897)
(-0.000430552 0.000115366 -0.000186897)
(-0.000444045 3.88488e-05 -0.000186897)
(-0.000444045 -3.88488e-05 -0.000186897)
(-0.000430552 -0.000115366 -0.000186897)
(-0.000403978 -0.000188378 -0.000186897)
(-0.000365129 -0.000255666 -0.000186898)
(-0.000315186 -0.000315186 -0.000186898)
(-0.000255666 -0.000365129 -0.000186898)
(-0.000188378 -0.000403978 -0.000186897)
(-0.000115366 -0.000430552 -0.000186897)
(-3.88488e-05 -0.000444045 -0.000186897)
(3.88488e-05 -0.000444045 -0.000186897)
(0.000115366 -0.000430552 -0.000186897)
(0.000188378 -0.000403978 -0.000186897)
(0.000255666 -0.000365129 -0.000186898)
(0.000315186 -0.000315186 -0.000186898)
(0.000365129 -0.000255666 -0.000186898)
(0.000403978 -0.000188378 -0.000186897)
(0.000430552 -0.000115366 -0.000186897)
(0.000444045 -3.88488e-05 -0.000186897)
(0.000543767 4.75734e-05 -0.000221701)
(0.000527244 0.000141275 -0.000221701)
(0.000494702 0.000230683 -0.000221701)
(0.000447128 0.000313082 -0.000221701)
(0.000385969 0.000385969 -0.000221701)
(0.000313082 0.000447128 -0.000221701)
(0.000230683 0.000494702 -0.000221701)
(0.000141275 0.000527244 -0.000221701)
(4.75734e-05 0.000543767 -0.000221701)
(-4.75734e-05 0.000543767 -0.000221701)
(-0.000141275 0.000527244 -0.000221701)
(-0.000230683 0.000494702 -0.000221701)
(-0.000313082 0.000447128 -0.000221701)
(-0.000385969 0.000385969 -0.000221701)
(-0.000447128 0.000313082 -0.000221701)
(-0.000494702 0.000230683 -0.000221701)
(-0.000527244 0.000141275 -0.000221701)
(-0.000543767 4.75734e-05 -0.000221701)
(-0.000543767 -4.75734e-05 -0.000221701)
(-0.000527244 -0.000141275 -0.000221701)
(-0.000494702 -0.000230683 -0.000221701)
(-0.000447128 -0.000313082 -0.000221701)
(-0.000385969 -0.000385969 -0.000221701)
(-0.000313082 -0.000447128 -0.000221701)
(-0.000230683 -0.000494702 -0.000221701)
(-0.000141275 -0.000527244 -0.000221701)
(-4.75734e-05 -0.000543767 -0.000221701)
(4.75734e-05 -0.000543767 -0.000221701)
(0.000141275 -0.000527244 -0.000221701)
(0.000230683 -0.000494702 -0.000221701)
(0.000313082 -0.000447128 -0.000221701)
(0.000385969 -0.000385969 -0.000221701)
(0.000447128 -0.000313082 -0.000221701)
(0.000494702 -0.000230683 -0.000221701)
(0.000527244 -0.000141275 -0.000221701)
(0.000543767 -4.75734e-05 -0.000221701)
(0.000672889 5.88702e-05 -0.00025383)
(0.000652444 0.000174822 -0.00025383)
(0.000612174 0.000285461 -0.00025383)
(0.000553304 0.000387427 -0.000253831)
(0.000477622 0.000477622 -0.000253831)
(0.000387427 0.000553304 -0.000253831)
(0.000285461 0.000612174 -0.00025383)
(0.000174822 0.000652444 -0.00025383)
(5.88702e-05 0.000672889 -0.00025383)
(-5.88702e-05 0.000672889 -0.00025383)
(-0.000174822 0.000652444 -0.00025383)
(-0.000285461 0.000612174 -0.00025383)
(-0.000387427 0.000553304 -0.000253831)
(-0.000477622 0.000477622 -0.000253831)
(-0.000553304 0.000387427 -0.000253831)
(-0.000612174 0.000285461 -0.00025383)
(-0.000652444 0.000174822 -0.00025383)
(-0.000672889 5.88702e-05 -0.00025383)
(-0.000672889 -5.88702e-05 -0.00025383)
(-0.000652444 -0.000174822 -0.00025383)
(-0.000612174 -0.000285461 -0.00025383)
(-0.000553304 -0.000387427 -0.000253831)
(-0.000477622 -0.000477622 -0.000253831)
(-0.000387427 -0.000553304 -0.000253831)
(-0.000285461 -0.000612174 -0.00025383)
(-0.000174822 -0.000652444 -0.00025383)
(-5.88702e-05 -0.000672889 -0.00025383)
(5.88702e-05 -0.000672889 -0.00025383)
(0.000174822 -0.000652444 -0.00025383)
(0.000285461 -0.000612174 -0.00025383)
(0.000387427 -0.000553304 -0.000253831)
(0.000477622 -0.000477622 -0.000253831)
(0.000553304 -0.000387427 -0.000253831)
(0.000612174 -0.000285461 -0.00025383)
(0.000652444 -0.000174822 -0.00025383)
(0.000672889 -5.88702e-05 -0.00025383)
(0.000581548 5.08788e-05 -0.000299825)
(0.000563878 0.00015109 -0.000299825)
(0.000529074 0.000246711 -0.000299825)
(0.000478196 0.000334836 -0.000299825)
(0.000412787 0.000412787 -0.000299826)
(0.000334836 0.000478196 -0.000299825)
(0.000246711 0.000529074 -0.000299825)
(0.00015109 0.000563878 -0.000299825)
(5.08788e-05 0.000581548 -0.000299825)
(-5.08788e-05 0.000581548 -0.000299825)
(-0.00015109 0.000563878 -0.000299825)
(-0.000246711 0.000529074 -0.000299825)
(-0.000334836 0.000478196 -0.000299825)
(-0.000412787 0.000412787 -0.000299826)
(-0.000478196 0.000334836 -0.000299825)
(-0.000529074 0.000246711 -0.000299825)
(-0.000563878 0.00015109 -0.000299825)
(-0.000581548 5.08788e-05 -0.000299825)
(-0.000581548 -5.08788e-05 -0.000299825)
(-0.000563878 -0.00015109 -0.000299825)
(-0.000529074 -0.000246711 -0.000299825)
(-0.000478196 -0.000334836 -0.000299825)
(-0.000412787 -0.000412787 -0.000299826)
(-0.000334836 -0.000478196 -0.000299825)
(-0.000246711 -0.000529074 -0.000299825)
(-0.00015109 -0.000563878 -0.000299825)
(-5.08788e-05 -0.000581548 -0.000299825)
(5.08788e-05 -0.000581548 -0.000299825)
(0.00015109 -0.000563878 -0.000299825)
(0.000246711 -0.000529074 -0.000299825)
(0.000334836 -0.000478196 -0.000299825)
(0.000412787 -0.000412787 -0.000299826)
(0.000478196 -0.000334836 -0.000299825)
(0.000529074 -0.000246711 -0.000299825)
(0.000563878 -0.00015109 -0.000299825)
(0.000581548 -5.08788e-05 -0.000299825)
(0.000693847 6.07037e-05 -0.000337772)
(0.000672764 0.000180267 -0.000337772)
(0.00063124 0.000294352 -0.000337772)
(0.000570537 0.000399494 -0.000337772)
(0.000492497 0.000492497 -0.000337772)
(0.000399494 0.000570537 -0.000337772)
(0.000294352 0.00063124 -0.000337772)
(0.000180267 0.000672764 -0.000337772)
(6.07037e-05 0.000693847 -0.000337772)
(-6.07037e-05 0.000693847 -0.000337772)
(-0.000180267 0.000672764 -0.000337772)
(-0.000294352 0.00063124 -0.000337772)
(-0.000399494 0.000570537 -0.000337772)
(-0.000492497 0.000492497 -0.000337772)
(-0.000570537 0.000399494 -0.000337772)
(-0.00063124 0.000294352 -0.000337772)
(-0.000672764 0.000180267 -0.000337772)
(-0.000693847 6.07037e-05 -0.000337772)
(-0.000693847 -6.07037e-05 -0.000337772)
(-0.000672764 -0.000180267 -0.000337772)
(-0.00063124 -0.000294352 -0.000337772)
(-0.000570537 -0.000399494 -0.000337772)
(-0.000492497 -0.000492497 -0.000337772)
(-0.000399494 -0.000570537 -0.000337772)
(-0.000294352 -0.00063124 -0.000337772)
(-0.000180267 -0.000672764 -0.000337772)
(-6.07037e-05 -0.000693847 -0.000337772)
(6.07037e-05 -0.000693847 -0.000337772)
(0.000180267 -0.000672764 -0.000337772)
(0.000294352 -0.00063124 -0.000337772)
(0.000399494 -0.000570537 -0.000337772)
(0.000492497 -0.000492497 -0.000337772)
(0.000570537 -0.000399494 -0.000337772)
(0.00063124 -0.000294352 -0.000337772)
(0.000672764 -0.000180267 -0.000337772)
(0.000693847 -6.07037e-05 -0.000337772)
(0.00083654 7.31877e-05 -0.000374669)
(0.000811122 0.000217339 -0.000374669)
(0.000761059 0.000354887 -0.000374669)
(0.000687871 0.000481652 -0.000374669)
(0.000593782 0.000593782 -0.000374669)
(0.000481652 0.000687871 -0.000374669)
(0.000354887 0.000761059 -0.000374669)
(0.000217339 0.000811122 -0.000374669)
(7.31877e-05 0.00083654 -0.000374669)
(-7.31877e-05 0.00083654 -0.000374669)
(-0.000217339 0.000811122 -0.000374669)
(-0.000354887 0.000761059 -0.000374669)
(-0.000481652 0.000687871 -0.000374669)
(-0.000593782 0.000593782 -0.000374669)
(-0.000687871 0.000481652 -0.000374669)
(-0.000761059 0.000354887 -0.000374669)
(-0.000811122 0.000217339 -0.000374669)
(-0.00083654 7.31877e-05 -0.000374669)
(-0.00083654 -7.31877e-05 -0.000374669)
(-0.000811122 -0.000217339 -0.000374669)
(-0.000761059 -0.000354887 -0.000374669)
(-0.000687871 -0.000481652 -0.000374669)
(-0.000593782 -0.000593782 -0.000374669)
(-0.000481652 -0.000687871 -0.000374669)
(-0.000354887 -0.000761059 -0.000374669)
(-0.000217339 -0.000811122 -0.000374669)
(-7.31877e-05 -0.00083654 -0.000374669)
(7.31877e-05 -0.00083654 -0.000374669)
(0.000217339 -0.000811122 -0.000374669)
(0.000354887 -0.000761059 -0.000374669)
(0.000481652 -0.000687871 -0.000374669)
(0.000593782 -0.000593782 -0.000374669)
(0.000687871 -0.000481652 -0.000374669)
(0.000761059 -0.000354887 -0.000374669)
(0.000811122 -0.000217339 -0.000374669)
(0.00083654 -7.31877e-05 -0.000374669)
(0.000669596 5.85821e-05 -0.000413606)
(0.00064925 0.000173966 -0.000413606)
(0.000609178 0.000284064 -0.000413606)
(0.000550596 0.000385531 -0.000413606)
(0.000475284 0.000475284 -0.000413606)
(0.000385531 0.000550596 -0.000413606)
(0.000284064 0.000609178 -0.000413606)
(0.000173966 0.00064925 -0.000413606)
(5.85821e-05 0.000669596 -0.000413606)
(-5.85821e-05 0.000669596 -0.000413606)
(-0.000173966 0.00064925 -0.000413606)
(-0.000284064 0.000609178 -0.000413606)
(-0.000385531 0.000550596 -0.000413606)
(-0.000475284 0.000475284 -0.000413606)
(-0.000550596 0.000385531 -0.000413606)
(-0.000609178 0.000284064 -0.000413606)
(-0.00064925 0.000173966 -0.000413606)
(-0.000669596 5.85821e-05 -0.000413606)
(-0.000669596 -5.85821e-05 -0.000413606)
(-0.00064925 -0.000173966 -0.000413606)
(-0.000609178 -0.000284064 -0.000413606)
(-0.000550596 -0.000385531 -0.000413606)
(-0.000475284 -0.000475284 -0.000413606)
(-0.000385531 -0.000550596 -0.000413606)
(-0.000284064 -0.000609178 -0.000413606)
(-0.000173966 -0.00064925 -0.000413606)
(-5.85821e-05 -0.000669596 -0.000413606)
(5.85821e-05 -0.000669596 -0.000413606)
(0.000173966 -0.00064925 -0.000413606)
(0.000284064 -0.000609178 -0.000413606)
(0.000385531 -0.000550596 -0.000413606)
(0.000475284 -0.000475284 -0.000413606)
(0.000550596 -0.000385531 -0.000413606)
(0.000609178 -0.000284064 -0.000413606)
(0.00064925 -0.000173966 -0.000413606)
(0.000669596 -5.85821e-05 -0.000413606)
(0.000785777 6.87466e-05 -0.000451445)
(0.000761901 0.000204151 -0.000451445)
(0.000714876 0.000333352 -0.000451445)
(0.000646129 0.000452425 -0.000451445)
(0.00055775 0.00055775 -0.000451445)
(0.000452425 0.000646129 -0.000451445)
(0.000333352 0.000714876 -0.000451445)
(0.000204151 0.000761901 -0.000451445)
(6.87466e-05 0.000785777 -0.000451445)
(-6.87466e-05 0.000785777 -0.000451445)
(-0.000204151 0.000761901 -0.000451445)
(-0.000333352 0.000714876 -0.000451445)
(-0.000452425 0.000646129 -0.000451445)
(-0.00055775 0.00055775 -0.000451445)
(-0.000646129 0.000452425 -0.000451445)
(-0.000714876 0.000333352 -0.000451445)
(-0.000761901 0.000204151 -0.000451445)
(-0.000785777 6.87466e-05 -0.000451445)
(-0.000785777 -6.87466e-05 -0.000451445)
(-0.000761901 -0.000204151 -0.000451445)
(-0.000714876 -0.000333352 -0.000451445)
(-0.000646129 -0.000452425 -0.000451445)
(-0.00055775 -0.00055775 -0.000451445)
(-0.000452425 -0.000646129 -0.000451445)
(-0.000333352 -0.000714876 -0.000451445)
(-0.000204151 -0.000761901 -0.000451445)
(-6.87466e-05 -0.000785777 -0.000451445)
(6.87466e-05 -0.000785777 -0.000451445)
(0.000204151 -0.000761901 -0.000451445)
(0.000333352 -0.000714876 -0.000451445)
(0.000452425 -0.000646129 -0.000451445)
(0.00055775 -0.00055775 -0.000451445)
(0.000646129 -0.000452425 -0.000451445)
(0.000714876 -0.000333352 -0.000451445)
(0.000761901 -0.000204151 -0.000451445)
(0.000785777 -6.87466e-05 -0.000451445)
(0.000933489 8.16698e-05 -0.000490383)
(0.000905125 0.000242528 -0.000490383)
(0.00084926 0.000396016 -0.000490383)
(0.00076759 0.000537473 -0.000490383)
(0.000662598 0.000662598 -0.000490383)
(0.000537473 0.00076759 -0.000490383)
(0.000396016 0.00084926 -0.000490383)
(0.000242528 0.000905125 -0.000490383)
(8.16698e-05 0.000933489 -0.000490383)
(-8.16698e-05 0.000933489 -0.000490383)
(-0.000242528 0.000905125 -0.000490383)
(-0.000396016 0.00084926 -0.000490383)
(-0.000537473 0.00076759 -0.000490383)
(-0.000662598 0.000662598 -0.000490383)
(-0.00076759 0.000537473 -0.000490383)
(-0.00084926 0.000396016 -0.000490383)
(-0.000905125 0.000242528 -0.000490383)
(-0.000933489 8.16698e-05 -0.000490383)
(-0.000933489 -8.16698e-05 -0.000490383)
(-0.000905125 -0.000242528 -0.000490383)
(-0.00084926 -0.000396016 -0.000490383)
(-0.00076759 -0.000537473 -0.000490383)
(-0.000662598 -0.000662598 -0.000490383)
(-0.000537473 -0.00076759 -0.000490383)
(-0.000396016 -0.00084926 -0.000490383)
(-0.000242528 -0.000905125 -0.000490383)
(-8.16698e-05 -0.000933489 -0.000490383)
(8.16698e-05 -0.000933489 -0.000490383)
(0.000242528 -0.000905125 -0.000490383)
(0.000396016 -0.00084926 -0.000490383)
(0.000537473 -0.00076759 -0.000490383)
(0.000662598 -0.000662598 -0.000490383)
(0.00076759 -0.000537473 -0.000490383)
(0.00084926 -0.000396016 -0.000490383)
(0.000905125 -0.000242528 -0.000490383)
(0.000933489 -8.16698e-05 -0.000490383)
(0.000704371 6.16246e-05 -0.000517594)
(0.000682969 0.000183001 -0.000517594)
(0.000640815 0.000298817 -0.000517594)
(0.000579191 0.000405554 -0.000517594)
(0.000499968 0.000499968 -0.000517594)
(0.000405554 0.000579191 -0.000517594)
(0.000298817 0.000640815 -0.000517594)
(0.000183001 0.000682969 -0.000517594)
(6.16246e-05 0.000704371 -0.000517594)
(-6.16246e-05 0.000704371 -0.000517594)
(-0.000183001 0.000682969 -0.000517594)
(-0.000298817 0.000640815 -0.000517594)
(-0.000405554 0.000579191 -0.000517594)
(-0.000499968 0.000499968 -0.000517594)
(-0.000579191 0.000405554 -0.000517594)
(-0.000640815 0.000298817 -0.000517594)
(-0.000682969 0.000183001 -0.000517594)
(-0.000704371 6.16246e-05 -0.000517594)
(-0.000704371 -6.16246e-05 -0.000517594)
(-0.000682969 -0.000183001 -0.000517594)
(-0.000640815 -0.000298817 -0.000517594)
(-0.000579191 -0.000405554 -0.000517594)
(-0.000499968 -0.000499968 -0.000517594)
(-0.000405554 -0.000579191 -0.000517594)
(-0.000298817 -0.000640815 -0.000517594)
(-0.000183001 -0.000682969 -0.000517594)
(-6.16246e-05 -0.000704371 -0.000517594)
(6.16246e-05 -0.000704371 -0.000517594)
(0.000183001 -0.000682969 -0.000517594)
(0.000298817 -0.000640815 -0.000517594)
(0.000405554 -0.000579191 -0.000517594)
(0.000499968 -0.000499968 -0.000517594)
(0.000579191 -0.000405554 -0.000517594)
(0.000640815 -0.000298817 -0.000517594)
(0.000682969 -0.000183001 -0.000517594)
(0.000704371 -6.16246e-05 -0.000517594)
(0.000819136 7.16652e-05 -0.000554046)
(0.000794247 0.000212818 -0.000554046)
(0.000745225 0.000347504 -0.000554046)
(0.00067356 0.000471632 -0.000554046)
(0.000581429 0.000581429 -0.000554046)
(0.000471632 0.00067356 -0.000554046)
(0.000347504 0.000745225 -0.000554046)
(0.000212818 0.000794247 -0.000554046)
(7.16652e-05 0.000819136 -0.000554046)
(-7.16652e-05 0.000819136 -0.000554046)
(-0.000212818 0.000794247 -0.000554046)
(-0.000347504 0.000745225 -0.000554046)
(-0.000471632 0.00067356 -0.000554046)
(-0.000581429 0.000581429 -0.000554046)
(-0.00067356 0.000471632 -0.000554046)
(-0.000745225 0.000347504 -0.000554046)
(-0.000794247 0.000212818 -0.000554046)
(-0.000819136 7.16652e-05 -0.000554046)
(-0.000819136 -7.16652e-05 -0.000554046)
(-0.000794247 -0.000212818 -0.000554046)
(-0.000745225 -0.000347504 -0.000554046)
(-0.00067356 -0.000471632 -0.000554046)
(-0.000581429 -0.000581429 -0.000554046)
(-0.000471632 -0.00067356 -0.000554046)
(-0.000347504 -0.000745225 -0.000554046)
(-0.000212818 -0.000794247 -0.000554046)
(-7.16652e-05 -0.000819136 -0.000554046)
(7.16652e-05 -0.000819136 -0.000554046)
(0.000212818 -0.000794247 -0.000554046)
(0.000347504 -0.000745225 -0.000554046)
(0.000471632 -0.00067356 -0.000554046)
(0.000581429 -0.000581429 -0.000554046)
(0.00067356 -0.000471632 -0.000554046)
(0.000745225 -0.000347504 -0.000554046)
(0.000794247 -0.000212818 -0.000554046)
(0.000819136 -7.16652e-05 -0.000554046)
(0.000966596 8.45662e-05 -0.000594147)
(0.000937226 0.000251129 -0.000594147)
(0.00087938 0.000410062 -0.000594147)
(0.000794814 0.000556535 -0.000594148)
(0.000686098 0.000686098 -0.000594148)
(0.000556535 0.000794814 -0.000594148)
(0.000410062 0.00087938 -0.000594147)
(0.000251129 0.000937226 -0.000594147)
(8.45662e-05 0.000966596 -0.000594147)
(-8.45662e-05 0.000966596 -0.000594147)
(-0.000251129 0.000937226 -0.000594147)
(-0.000410062 0.00087938 -0.000594147)
(-0.000556535 0.000794814 -0.000594148)
(-0.000686098 0.000686098 -0.000594148)
(-0.000794814 0.000556535 -0.000594148)
(-0.00087938 0.000410062 -0.000594147)
(-0.000937226 0.000251129 -0.000594147)
(-0.000966596 8.45662e-05 -0.000594147)
(-0.000966596 -8.45662e-05 -0.000594147)
(-0.000937226 -0.000251129 -0.000594147)
(-0.00087938 -0.000410062 -0.000594147)
(-0.000794814 -0.000556535 -0.000594148)
(-0.000686098 -0.000686098 -0.000594148)
(-0.000556535 -0.000794814 -0.000594148)
(-0.000410062 -0.00087938 -0.000594147)
(-0.000251129 -0.000937226 -0.000594147)
(-8.45662e-05 -0.000966596 -0.000594147)
(8.45662e-05 -0.000966596 -0.000594147)
(0.000251129 -0.000937226 -0.000594147)
(0.000410062 -0.00087938 -0.000594147)
(0.000556535 -0.000794814 -0.000594148)
(0.000686098 -0.000686098 -0.000594148)
(0.000794814 -0.000556535 -0.000594148)
(0.00087938 -0.000410062 -0.000594147)
(0.000937226 -0.000251129 -0.000594147)
(0.000966596 -8.45662e-05 -0.000594147)
(0.00068846 6.02325e-05 -0.000604773)
(0.000667541 0.000178867 -0.000604773)
(0.00062634 0.000292068 -0.000604773)
(0.000566108 0.000396393 -0.000604773)
(0.000488675 0.000488675 -0.000604773)
(0.000396393 0.000566108 -0.000604773)
(0.000292068 0.00062634 -0.000604773)
(0.000178867 0.000667541 -0.000604773)
(6.02325e-05 0.00068846 -0.000604773)
(-6.02325e-05 0.00068846 -0.000604773)
(-0.000178867 0.000667541 -0.000604773)
(-0.000292068 0.00062634 -0.000604773)
(-0.000396393 0.000566108 -0.000604773)
(-0.000488675 0.000488675 -0.000604773)
(-0.000566108 0.000396393 -0.000604773)
(-0.00062634 0.000292068 -0.000604773)
(-0.000667541 0.000178867 -0.000604773)
(-0.00068846 6.02325e-05 -0.000604773)
(-0.00068846 -6.02325e-05 -0.000604773)
(-0.000667541 -0.000178867 -0.000604773)
(-0.00062634 -0.000292068 -0.000604773)
(-0.000566108 -0.000396393 -0.000604773)
(-0.000488675 -0.000488675 -0.000604773)
(-0.000396393 -0.000566108 -0.000604773)
(-0.000292068 -0.00062634 -0.000604773)
(-0.000178867 -0.000667541 -0.000604773)
(-6.02325e-05 -0.00068846 -0.000604773)
(6.02325e-05 -0.00068846 -0.000604773)
(0.000178867 -0.000667541 -0.000604773)
(0.000292068 -0.00062634 -0.000604773)
(0.000396393 -0.000566108 -0.000604773)
(0.000488675 -0.000488675 -0.000604773)
(0.000566108 -0.000396393 -0.000604773)
(0.00062634 -0.000292068 -0.000604773)
(0.000667541 -0.000178867 -0.000604773)
(0.00068846 -6.02325e-05 -0.000604773)
(0.000798869 6.98921e-05 -0.000639685)
(0.000774596 0.000207553 -0.000639685)
(0.000726787 0.000338907 -0.000639685)
(0.000656895 0.000459963 -0.000639685)
(0.000567044 0.000567044 -0.000639685)
(0.000459963 0.000656895 -0.000639685)
(0.000338907 0.000726787 -0.000639685)
(0.000207553 0.000774596 -0.000639685)
(6.98921e-05 0.000798869 -0.000639685)
(-6.98921e-05 0.000798869 -0.000639685)
(-0.000207553 0.000774596 -0.000639685)
(-0.000338907 0.000726787 -0.000639685)
(-0.000459963 0.000656895 -0.000639685)
(-0.000567044 0.000567044 -0.000639685)
(-0.000656895 0.000459963 -0.000639685)
(-0.000726787 0.000338907 -0.000639685)
(-0.000774596 0.000207553 -0.000639685)
(-0.000798869 6.98921e-05 -0.000639685)
(-0.000798869 -6.98921e-05 -0.000639685)
(-0.000774596 -0.000207553 -0.000639685)
(-0.000726787 -0.000338907 -0.000639685)
(-0.000656895 -0.000459963 -0.000639685)
(-0.000567044 -0.000567044 -0.000639685)
(-0.000459963 -0.000656895 -0.000639685)
(-0.000338907 -0.000726787 -0.000639685)
(-0.000207553 -0.000774596 -0.000639685)
(-6.98921e-05 -0.000798869 -0.000639685)
(6.98921e-05 -0.000798869 -0.000639685)
(0.000207553 -0.000774596 -0.000639685)
(0.000338907 -0.000726787 -0.000639685)
(0.000459963 -0.000656895 -0.000639685)
(0.000567044 -0.000567044 -0.000639685)
(0.000656895 -0.000459963 -0.000639685)
(0.000726787 -0.000338907 -0.000639685)
(0.000774596 -0.000207553 -0.000639685)
(0.000798869 -6.98921e-05 -0.000639685)
(0.000942985 8.25008e-05 -0.000681108)
(0.000914333 0.000244995 -0.000681108)
(0.000857899 0.000400045 -0.000681108)
(0.000775399 0.000542941 -0.000681108)
(0.000669339 0.000669339 -0.000681108)
(0.000542941 0.000775399 -0.000681108)
(0.000400045 0.000857899 -0.000681108)
(0.000244995 0.000914333 -0.000681108)
(8.25008e-05 0.000942985 -0.000681108)
(-8.25008e-05 0.000942985 -0.000681108)
(-0.000244995 0.000914333 -0.000681108)
(-0.000400045 0.000857899 -0.000681108)