/*--------------------------------*- C++ -*----------------------------------*\
| =========                 |                                                 |
| \\      /  F ield         | OpenFOAM: The Open Source CFD Toolbox           |
|  \\    /   O peration     | Version:  2312                                  |
|   \\  /    A nd           | Website:  www.openfoam.com                      |
|    \\/     M anipulation  |                                                 |
\*---------------------------------------------------------------------------*/
FoamFile
{
    version     2.0;
    format      ascii;
    arch        "LSB;label=32;scalar=64";
    class       volTensorField;
    location    "0.3";
    object      F;
}
// * * * * * * * * * * * * * * * * * * * * * * * * * * * * * * * * * * * * * //

dimensions      [0 0 0 0 0 0 0];

internalField   nonuniform List<tensor> 
1620
(
(0.954219 -0.00483447 -0.119097 -0.00483441 1.00905 -0.0104197 0.00769721 0.000673405 1.04005)
(0.957526 -0.0139203 -0.115479 -0.0139201 1.00575 -0.0309424 0.00746335 0.00199977 1.04005)
(0.963741 -0.0213271 -0.108351 -0.021327 0.999532 -0.050525 0.00700269 0.00326539 1.04005)
(0.972115 -0.0261616 -0.0979315 -0.0261616 0.991159 -0.0685723 0.00632925 0.00443179 1.04005)
(0.981637 -0.0278406 -0.0845362 -0.0278406 0.981637 -0.0845362 0.00546351 0.00546351 1.04005)
(0.991159 -0.0261616 -0.0685723 -0.0261616 0.972115 -0.0979315 0.00443179 0.00632925 1.04005)
(0.999532 -0.021327 -0.050525 -0.0213271 0.963741 -0.108351 0.00326539 0.00700269 1.04005)
(1.00575 -0.0139201 -0.0309424 -0.0139203 0.957526 -0.115479 0.00199977 0.00746335 1.04005)
(1.00905 -0.00483441 -0.0104197 -0.00483447 0.954219 -0.119097 0.000673405 0.00769721 1.04005)
(1.00905 0.00483441 0.0104197 0.00483447 0.954219 -0.119097 -0.000673405 0.00769721 1.04005)
(1.00575 0.0139201 0.0309424 0.0139203 0.957526 -0.115479 -0.00199977 0.00746335 1.04005)
(0.999532 0.021327 0.050525 0.0213271 0.963741 -0.108351 -0.00326539 0.00700269 1.04005)
(0.991159 0.0261616 0.0685723 0.0261616 0.972115 -0.0979315 -0.00443179 0.00632925 1.04005)
(0.981637 0.0278406 0.0845362 0.0278406 0.981637 -0.0845362 -0.00546351 0.00546351 1.04005)
(0.972115 0.0261616 0.0979315 0.0261616 0.991159 -0.0685723 -0.00632925 0.00443179 1.04005)
(0.963741 0.0213271 0.108351 0.021327 0.999532 -0.050525 -0.00700269 0.00326539 1.04005)
(0.957526 0.0139203 0.115479 0.0139201 1.00575 -0.0309424 -0.00746335 0.00199977 1.04005)
(0.954219 0.00483447 0.119097 0.00483441 1.00905 -0.0104197 -0.00769721 0.000673405 1.04005)
(0.954219 -0.00483447 0.119097 -0.00483441 1.00905 0.0104197 -0.00769721 -0.000673405 1.04005)
(0.957526 -0.0139203 0.115479 -0.0139201 1.00575 0.0309424 -0.00746335 -0.00199977 1.04005)
(0.963741 -0.0213271 0.108351 -0.021327 0.999532 0.050525 -0.00700269 -0.00326539 1.04005)
(0.972115 -0.0261616 0.0979315 -0.0261616 0.991159 0.0685723 -0.00632925 -0.00443179 1.04005)
(0.981637 -0.0278406 0.0845362 -0.0278406 0.981637 0.0845362 -0.00546351 -0.00546351 1.04005)
(0.991159 -0.0261616 0.0685723 -0.0261616 0.972115 0.0979315 -0.00443179 -0.00632925 1.04005)
(0.999532 -0.021327 0.050525 -0.0213271 0.963741 0.108351 -0.00326539 -0.00700269 1.04005)
(1.00575 -0.0139201 0.0309424 -0.0139203 0.957526 0.115479 -0.00199977 -0.00746335 1.04005)
(1.00905 -0.00483441 0.0104197 -0.00483447 0.954219 0.119097 -0.000673405 -0.00769721 1.04005)
(1.00905 0.00483441 -0.0104197 0.00483447 0.954219 0.119097 0.000673405 -0.00769721 1.04005)
(1.00575 0.0139201 -0.0309424 0.0139203 0.957526 0.115479 0.00199977 -0.00746335 1.04005)
(0.999532 0.021327 -0.050525 0.0213271 0.963741 0.108351 0.00326539 -0.00700269 1.04005)
(0.991159 0.0261616 -0.0685723 0.0261616 0.972115 0.0979315 0.00443179 -0.00632925 1.04005)
(0.981637 0.0278406 -0.0845362 0.0278406 0.981637 0.0845362 0.00546351 -0.00546351 1.04005)
(0.972115 0.0261616 -0.0979315 0.0261616 0.991159 0.0685723 0.00632925 -0.00443179 1.04005)
(0.963741 0.0213271 -0.108351 0.021327 0.999532 0.050525 0.00700269 -0.00326539 1.04005)
(0.957526 0.0139203 -0.115479 0.0139201 1.00575 0.0309424 0.00746335 -0.00199977 1.04005)
(0.954219 0.00483447 -0.119097 0.00483441 1.00905 0.0104197 0.00769721 -0.000673405 1.04005)
(0.94334 -0.00638002 -0.140995 -0.00638002 1.01571 -0.0123355 0.00559861 0.000489795 1.05015)
(0.947704 -0.0183707 -0.136711 -0.0183705 1.01134 -0.0366316 0.0054285 0.00145452 1.05015)
(0.955906 -0.0281455 -0.128273 -0.0281454 1.00314 -0.0598146 0.00509342 0.00237509 1.05015)
(0.966956 -0.0345255 -0.115937 -0.0345256 0.992089 -0.0811801 0.00460358 0.00322349 1.05015)
(0.979523 -0.0367413 -0.100079 -0.0367413 0.979523 -0.100079 0.0039739 0.0039739 1.05015)
(0.992089 -0.0345256 -0.0811801 -0.0345255 0.966956 -0.115937 0.00322349 0.00460358 1.05015)
(1.00314 -0.0281454 -0.0598146 -0.0281455 0.955906 -0.128273 0.00237509 0.00509342 1.05015)
(1.01134 -0.0183705 -0.0366316 -0.0183707 0.947704 -0.136711 0.00145452 0.0054285 1.05015)
(1.01571 -0.00638002 -0.0123355 -0.00638002 0.94334 -0.140995 0.000489795 0.00559861 1.05015)
(1.01571 0.00638002 0.0123355 0.00638002 0.94334 -0.140995 -0.000489795 0.00559861 1.05015)
(1.01134 0.0183705 0.0366316 0.0183707 0.947704 -0.136711 -0.00145452 0.0054285 1.05015)
(1.00314 0.0281454 0.0598146 0.0281455 0.955906 -0.128273 -0.00237509 0.00509342 1.05015)
(0.992089 0.0345256 0.0811801 0.0345255 0.966956 -0.115937 -0.00322349 0.00460358 1.05015)
(0.979523 0.0367413 0.100079 0.0367413 0.979523 -0.100079 -0.0039739 0.0039739 1.05015)
(0.966956 0.0345255 0.115937 0.0345256 0.992089 -0.0811801 -0.00460358 0.00322349 1.05015)
(0.955906 0.0281455 0.128273 0.0281454 1.00314 -0.0598146 -0.00509342 0.00237509 1.05015)
(0.947704 0.0183707 0.136711 0.0183705 1.01134 -0.0366316 -0.0054285 0.00145452 1.05015)
(0.94334 0.00638002 0.140995 0.00638002 1.01571 -0.0123355 -0.00559861 0.000489795 1.05015)
(0.94334 -0.00638002 0.140995 -0.00638002 1.01571 0.0123355 -0.00559861 -0.000489795 1.05015)
(0.947704 -0.0183707 0.136711 -0.0183705 1.01134 0.0366316 -0.0054285 -0.00145452 1.05015)
(0.955906 -0.0281455 0.128273 -0.0281454 1.00314 0.0598146 -0.00509342 -0.00237509 1.05015)
(0.966956 -0.0345255 0.115937 -0.0345256 0.992089 0.0811801 -0.00460358 -0.00322349 1.05015)
(0.979523 -0.0367413 0.100079 -0.0367413 0.979523 0.100079 -0.0039739 -0.0039739 1.05015)
(0.992089 -0.0345256 0.0811801 -0.0345255 0.966956 0.115937 -0.00322349 -0.00460358 1.05015)
(1.00314 -0.0281454 0.0598146 -0.0281455 0.955906 0.128273 -0.00237509 -0.00509342 1.05015)
(1.01134 -0.0183705 0.0366316 -0.0183707 0.947704 0.136711 -0.00145452 -0.0054285 1.05015)
(1.01571 -0.00638002 0.0123355 -0.00638002 0.94334 0.140995 -0.000489795 -0.00559861 1.05015)
(1.01571 0.00638002 -0.0123355 0.00638002 0.94334 0.140995 0.000489795 -0.00559861 1.05015)
(1.01134 0.0183705 -0.0366316 0.0183707 0.947704 0.136711 0.00145452 -0.0054285 1.05015)
(1.00314 0.0281454 -0.0598146 0.0281455 0.955906 0.128273 0.00237509 -0.00509342 1.05015)
(0.992089 0.0345256 -0.0811801 0.0345255 0.966956 0.115937 0.00322349 -0.00460358 1.05015)
(0.979523 0.0367413 -0.100079 0.0367413 0.979523 0.100079 0.0039739 -0.0039739 1.05015)
(0.966956 0.0345255 -0.115937 0.0345256 0.992089 0.0811801 0.00460358 -0.00322349 1.05015)
(0.955906 0.0281455 -0.128273 0.0281454 1.00314 0.0598146 0.00509342 -0.00237509 1.05015)
(0.947704 0.0183707 -0.136711 0.0183705 1.01134 0.0366316 0.0054285 -0.00145452 1.05015)
(0.94334 0.00638002 -0.140995 0.00638002 1.01571 0.0123355 0.00559861 -0.000489795 1.05015)
(0.932452 -0.00835588 -0.167871 -0.00835591 1.02723 -0.0146868 0.00328673 0.000287533 1.06036)
(0.938168 -0.0240599 -0.16277 -0.0240599 1.02151 -0.043614 0.00318685 0.000853898 1.06036)
(0.94891 -0.0368621 -0.152724 -0.036862 1.01077 -0.071216 0.00299009 0.00139432 1.06036)
(0.963383 -0.045218 -0.138037 -0.0452179 0.996299 -0.0966543 0.00270253 0.00189236 1.06036)
(0.979841 -0.0481199 -0.119156 -0.0481199 0.979841 -0.119156 0.0023329 0.0023329 1.06036)
(0.996299 -0.0452179 -0.0966543 -0.045218 0.963383 -0.138037 0.00189236 0.00270253 1.06036)
(1.01077 -0.036862 -0.071216 -0.0368621 0.94891 -0.152724 0.00139432 0.00299009 1.06036)
(1.02151 -0.0240599 -0.043614 -0.0240599 0.938168 -0.16277 0.000853898 0.00318685 1.06036)
(1.02723 -0.00835591 -0.0146868 -0.00835588 0.932452 -0.167871 0.000287533 0.00328673 1.06036)
(1.02723 0.00835591 0.0146868 0.00835588 0.932452 -0.167871 -0.000287533 0.00328673 1.06036)
(1.02151 0.0240599 0.043614 0.0240599 0.938168 -0.16277 -0.000853898 0.00318685 1.06036)
(1.01077 0.036862 0.071216 0.0368621 0.94891 -0.152724 -0.00139432 0.00299009 1.06036)
(0.996299 0.0452179 0.0966543 0.045218 0.963383 -0.138037 -0.00189236 0.00270253 1.06036)
(0.979841 0.0481199 0.119156 0.0481199 0.979841 -0.119156 -0.0023329 0.0023329 1.06036)
(0.963383 0.045218 0.138037 0.0452179 0.996299 -0.0966543 -0.00270253 0.00189236 1.06036)
(0.94891 0.0368621 0.152724 0.036862 1.01077 -0.071216 -0.00299009 0.00139432 1.06036)
(0.938168 0.0240599 0.16277 0.0240599 1.02151 -0.043614 -0.00318685 0.000853898 1.06036)
(0.932452 0.00835588 0.167871 0.00835591 1.02723 -0.0146868 -0.00328673 0.000287533 1.06036)
(0.932452 -0.00835588 0.167871 -0.00835591 1.02723 0.0146868 -0.00328673 -0.000287533 1.06036)
(0.938168 -0.0240599 0.16277 -0.0240599 1.02151 0.043614 -0.00318685 -0.000853898 1.06036)
(0.94891 -0.0368621 0.152724 -0.036862 1.01077 0.071216 -0.00299009 -0.00139432 1.06036)
(0.963383 -0.045218 0.138037 -0.0452179 0.996299 0.0966543 -0.00270253 -0.00189236 1.06036)
(0.979841 -0.0481199 0.119156 -0.0481199 0.979841 0.119156 -0.0023329 -0.0023329 1.06036)
(0.996299 -0.0452179 0.0966543 -0.045218 0.963383 0.138037 -0.00189236 -0.00270253 1.06036)
(1.01077 -0.036862 0.071216 -0.0368621 0.94891 0.152724 -0.00139432 -0.00299009 1.06036)
(1.02151 -0.0240599 0.043614 -0.0240599 0.938168 0.16277 -0.000853898 -0.00318685 1.06036)
(1.02723 -0.00835591 0.0146868 -0.00835588 0.932452 0.167871 -0.000287533 -0.00328673 1.06036)
(1.02723 0.00835591 -0.0146868 0.00835588 0.932452 0.167871 0.000287533 -0.00328673 1.06036)
(1.02151 0.0240599 -0.043614 0.0240599 0.938168 0.16277 0.000853898 -0.00318685 1.06036)
(1.01077 0.036862 -0.071216 0.0368621 0.94891 0.152724 0.00139432 -0.00299009 1.06036)
(0.996299 0.0452179 -0.0966543 0.045218 0.963383 0.138037 0.00189236 -0.00270253 1.06036)
(0.979841 0.0481199 -0.119156 0.0481199 0.979841 0.119156 0.0023329 -0.0023329 1.06036)
(0.963383 0.045218 -0.138037 0.0452179 0.996299 0.0966543 0.00270253 -0.00189236 1.06036)
(0.94891 0.0368621 -0.152724 0.036862 1.01077 0.071216 0.00299009 -0.00139432 1.06036)
(0.938168 0.0240599 -0.16277 0.0240599 1.02151 0.043614 0.00318685 -0.000853898 1.06036)
(0.932452 0.00835588 -0.167871 0.00835591 1.02723 0.0146868 0.00328673 -0.000287533 1.06036)
(0.914433 -0.0103942 -0.114527 -0.0103941 1.03233 -0.0100198 0.0276169 0.00241614 1.05112)
(0.921543 -0.0299289 -0.111047 -0.0299286 1.02522 -0.029755 0.0267777 0.007175 1.05113)
(0.934906 -0.0458536 -0.104193 -0.0458534 1.01186 -0.048586 0.025125 0.0117159 1.05113)
(0.952909 -0.0562479 -0.0941733 -0.0562477 0.993854 -0.0659408 0.0227087 0.0159007 1.05113)
(0.973381 -0.0598577 -0.0812921 -0.0598577 0.973381 -0.0812921 0.0196025 0.0196025 1.05113)
(0.993854 -0.0562477 -0.0659408 -0.0562479 0.952909 -0.0941733 0.0159007 0.0227087 1.05113)
(1.01186 -0.0458534 -0.048586 -0.0458536 0.934906 -0.104193 0.0117159 0.025125 1.05113)
(1.02522 -0.0299286 -0.029755 -0.0299289 0.921543 -0.111047 0.007175 0.0267777 1.05113)
(1.03233 -0.0103941 -0.0100198 -0.0103942 0.914433 -0.114527 0.00241614 0.0276169 1.05112)
(1.03233 0.0103941 0.0100198 0.0103942 0.914433 -0.114527 -0.00241614 0.0276169 1.05112)
(1.02522 0.0299286 0.029755 0.0299289 0.921543 -0.111047 -0.007175 0.0267777 1.05113)
(1.01186 0.0458534 0.048586 0.0458536 0.934906 -0.104193 -0.0117159 0.025125 1.05113)
(0.993854 0.0562477 0.0659408 0.0562479 0.952909 -0.0941733 -0.0159007 0.0227087 1.05113)
(0.973381 0.0598577 0.0812921 0.0598577 0.973381 -0.0812921 -0.0196025 0.0196025 1.05113)
(0.952909 0.0562479 0.0941733 0.0562477 0.993854 -0.0659408 -0.0227087 0.0159007 1.05113)
(0.934906 0.0458536 0.104193 0.0458534 1.01186 -0.048586 -0.025125 0.0117159 1.05113)
(0.921543 0.0299289 0.111047 0.0299286 1.02522 -0.029755 -0.0267777 0.007175 1.05113)
(0.914433 0.0103942 0.114527 0.0103941 1.03233 -0.0100198 -0.0276169 0.00241614 1.05112)
(0.914433 -0.0103942 0.114527 -0.0103941 1.03233 0.0100198 -0.0276169 -0.00241614 1.05112)
(0.921543 -0.0299289 0.111047 -0.0299286 1.02522 0.029755 -0.0267777 -0.007175 1.05113)
(0.934906 -0.0458536 0.104193 -0.0458534 1.01186 0.048586 -0.025125 -0.0117159 1.05113)
(0.952909 -0.0562479 0.0941733 -0.0562477 0.993854 0.0659408 -0.0227087 -0.0159007 1.05113)
(0.973381 -0.0598577 0.0812921 -0.0598577 0.973381 0.0812921 -0.0196025 -0.0196025 1.05113)
(0.993854 -0.0562477 0.0659408 -0.0562479 0.952909 0.0941733 -0.0159007 -0.0227087 1.05113)
(1.01186 -0.0458534 0.048586 -0.0458536 0.934906 0.104193 -0.0117159 -0.025125 1.05113)
(1.02522 -0.0299286 0.029755 -0.0299289 0.921543 0.111047 -0.007175 -0.0267777 1.05113)
(1.03233 -0.0103941 0.0100198 -0.0103942 0.914433 0.114527 -0.00241614 -0.0276169 1.05112)
(1.03233 0.0103941 -0.0100198 0.0103942 0.914433 0.114527 0.00241614 -0.0276169 1.05112)
(1.02522 0.0299286 -0.029755 0.0299289 0.921543 0.111047 0.007175 -0.0267777 1.05113)
(1.01186 0.0458534 -0.048586 0.0458536 0.934906 0.104193 0.0117159 -0.025125 1.05113)
(0.993854 0.0562477 -0.0659408 0.0562479 0.952909 0.0941733 0.0159007 -0.0227087 1.05113)
(0.973381 0.0598577 -0.0812921 0.0598577 0.973381 0.0812921 0.0196025 -0.0196025 1.05113)
(0.952909 0.0562479 -0.0941733 0.0562477 0.993854 0.0659408 0.0227087 -0.0159007 1.05113)
(0.934906 0.0458536 -0.104193 0.0458534 1.01186 0.048586 0.025125 -0.0117159 1.05113)
(0.921543 0.0299289 -0.111047 0.0299286 1.02522 0.029755 0.0267777 -0.007175 1.05113)
(0.914433 0.0103942 -0.114527 0.0103941 1.03233 0.0100198 0.0276169 -0.00241614 1.05112)
(0.898727 -0.0130199 -0.133823 -0.0130199 1.04641 -0.011708 0.0256115 0.0022407 1.05921)
(0.907633 -0.0374894 -0.129757 -0.0374891 1.0375 -0.0347682 0.0248333 0.00665402 1.05921)
(0.924371 -0.0574372 -0.121748 -0.0574368 1.02076 -0.0567719 0.0233005 0.0108652 1.05921)
(0.946922 -0.0704569 -0.11004 -0.0704569 0.998211 -0.0770505 0.0210597 0.0147461 1.05921)
(0.972566 -0.0749787 -0.0949882 -0.0749787 0.972566 -0.0949882 0.018179 0.018179 1.05921)
(0.998211 -0.0704569 -0.0770505 -0.0704569 0.946922 -0.11004 0.0147461 0.0210597 1.05921)
(1.02076 -0.0574368 -0.0567719 -0.0574372 0.924371 -0.121748 0.0108652 0.0233005 1.05921)
(1.0375 -0.0374891 -0.0347682 -0.0374894 0.907633 -0.129757 0.00665402 0.0248333 1.05921)
(1.04641 -0.0130199 -0.011708 -0.0130199 0.898727 -0.133823 0.0022407 0.0256115 1.05921)
(1.04641 0.0130199 0.011708 0.0130199 0.898727 -0.133823 -0.0022407 0.0256115 1.05921)
(1.0375 0.0374891 0.0347682 0.0374894 0.907633 -0.129757 -0.00665402 0.0248333 1.05921)
(1.02076 0.0574368 0.0567719 0.0574372 0.924371 -0.121748 -0.0108652 0.0233005 1.05921)
(0.998211 0.0704569 0.0770505 0.0704569 0.946922 -0.11004 -0.0147461 0.0210597 1.05921)
(0.972566 0.0749787 0.0949882 0.0749787 0.972566 -0.0949882 -0.018179 0.018179 1.05921)
(0.946922 0.0704569 0.11004 0.0704569 0.998211 -0.0770505 -0.0210597 0.0147461 1.05921)
(0.924371 0.0574372 0.121748 0.0574368 1.02076 -0.0567719 -0.0233005 0.0108652 1.05921)
(0.907633 0.0374894 0.129757 0.0374891 1.0375 -0.0347682 -0.0248333 0.00665402 1.05921)
(0.898727 0.0130199 0.133823 0.0130199 1.04641 -0.011708 -0.0256115 0.0022407 1.05921)
(0.898727 -0.0130199 0.133823 -0.0130199 1.04641 0.011708 -0.0256115 -0.0022407 1.05921)
(0.907633 -0.0374894 0.129757 -0.0374891 1.0375 0.0347682 -0.0248333 -0.00665402 1.05921)
(0.924371 -0.0574372 0.121748 -0.0574368 1.02076 0.0567719 -0.0233005 -0.0108652 1.05921)
(0.946922 -0.0704569 0.11004 -0.0704569 0.998211 0.0770505 -0.0210597 -0.0147461 1.05921)
(0.972566 -0.0749787 0.0949882 -0.0749787 0.972566 0.0949882 -0.018179 -0.018179 1.05921)
(0.998211 -0.0704569 0.0770505 -0.0704569 0.946922 0.11004 -0.0147461 -0.0210597 1.05921)
(1.02076 -0.0574368 0.0567719 -0.0574372 0.924371 0.121748 -0.0108652 -0.0233005 1.05921)
(1.0375 -0.0374891 0.0347682 -0.0374894 0.907633 0.129757 -0.00665402 -0.0248333 1.05921)
(1.04641 -0.0130199 0.011708 -0.0130199 0.898727 0.133823 -0.0022407 -0.0256115 1.05921)
(1.04641 0.0130199 -0.011708 0.0130199 0.898727 0.133823 0.0022407 -0.0256115 1.05921)
(1.0375 0.0374891 -0.0347682 0.0374894 0.907633 0.129757 0.00665402 -0.0248333 1.05921)
(1.02076 0.0574368 -0.0567719 0.0574372 0.924371 0.121748 0.0108652 -0.0233005 1.05921)
(0.998211 0.0704569 -0.0770505 0.0704569 0.946922 0.11004 0.0147461 -0.0210597 1.05921)
(0.972566 0.0749787 -0.0949882 0.0749787 0.972566 0.0949882 0.018179 -0.018179 1.05921)
(0.946922 0.0704569 -0.11004 0.0704569 0.998211 0.0770505 0.0210597 -0.0147461 1.05921)
(0.924371 0.0574372 -0.121748 0.0574368 1.02076 0.0567719 0.0233005 -0.0108652 1.05921)
(0.907633 0.0374894 -0.129757 0.0374891 1.0375 0.0347682 0.0248333 -0.00665402 1.05921)
(0.898727 0.0130199 -0.133823 0.0130199 1.04641 0.011708 0.0256115 -0.0022407 1.05921)
(0.883676 -0.0162875 -0.156555 -0.0162875 1.06842 -0.0136967 0.0234079 0.00204792 1.06772)
(0.894817 -0.046898 -0.151798 -0.0468977 1.05728 -0.040674 0.0226966 0.00608155 1.06772)
(0.915756 -0.0718519 -0.142429 -0.0718517 1.03634 -0.0664155 0.0212957 0.00993039 1.06772)
(0.943967 -0.0881396 -0.128732 -0.0881394 1.00813 -0.0901389 0.0192477 0.0134774 1.06772)
(0.976047 -0.0937961 -0.111124 -0.0937961 0.976047 -0.111124 0.0166149 0.0166149 1.06772)
(1.00813 -0.0881394 -0.0901389 -0.0881396 0.943967 -0.128732 0.0134774 0.0192477 1.06772)
(1.03634 -0.0718517 -0.0664155 -0.0718519 0.915756 -0.142429 0.00993039 0.0212957 1.06772)
(1.05728 -0.0468977 -0.040674 -0.046898 0.894817 -0.151798 0.00608155 0.0226966 1.06772)
(1.06842 -0.0162875 -0.0136967 -0.0162875 0.883676 -0.156555 0.00204792 0.0234079 1.06772)
(1.06842 0.0162875 0.0136967 0.0162875 0.883676 -0.156555 -0.00204792 0.0234079 1.06772)
(1.05728 0.0468977 0.040674 0.046898 0.894817 -0.151798 -0.00608155 0.0226966 1.06772)
(1.03634 0.0718517 0.0664155 0.0718519 0.915756 -0.142429 -0.00993039 0.0212957 1.06772)
(1.00813 0.0881394 0.0901389 0.0881396 0.943967 -0.128732 -0.0134774 0.0192477 1.06772)
(0.976047 0.0937961 0.111124 0.0937961 0.976047 -0.111124 -0.0166149 0.0166149 1.06772)
(0.943967 0.0881396 0.128732 0.0881394 1.00813 -0.0901389 -0.0192477 0.0134774 1.06772)
(0.915756 0.0718519 0.142429 0.0718517 1.03634 -0.0664155 -0.0212957 0.00993039 1.06772)
(0.894817 0.046898 0.151798 0.0468977 1.05728 -0.040674 -0.0226966 0.00608155 1.06772)
(0.883676 0.0162875 0.156555 0.0162875 1.06842 -0.0136967 -0.0234079 0.00204792 1.06772)
(0.883676 -0.0162875 0.156555 -0.0162875 1.06842 0.0136967 -0.0234079 -0.00204792 1.06772)
(0.894817 -0.046898 0.151798 -0.0468977 1.05728 0.040674 -0.0226966 -0.00608155 1.06772)
(0.915756 -0.0718519 0.142429 -0.0718517 1.03634 0.0664155 -0.0212957 -0.00993039 1.06772)
(0.943967 -0.0881396 0.128732 -0.0881394 1.00813 0.0901389 -0.0192477 -0.0134774 1.06772)
(0.976047 -0.0937961 0.111124 -0.0937961 0.976047 0.111124 -0.0166149 -0.0166149 1.06772)
(1.00813 -0.0881394 0.0901389 -0.0881396 0.943967 0.128732 -0.0134774 -0.0192477 1.06772)
(1.03634 -0.0718517 0.0664155 -0.0718519 0.915756 0.142429 -0.00993039 -0.0212957 1.06772)
(1.05728 -0.0468977 0.040674 -0.046898 0.894817 0.151798 -0.00608155 -0.0226966 1.06772)
(1.06842 -0.0162875 0.0136967 -0.0162875 0.883676 0.156555 -0.00204792 -0.0234079 1.06772)
(1.06842 0.0162875 -0.0136967 0.0162875 0.883676 0.156555 0.00204792 -0.0234079 1.06772)
(1.05728 0.0468977 -0.040674 0.046898 0.894817 0.151798 0.00608155 -0.0226966 1.06772)
(1.03634 0.0718517 -0.0664155 0.0718519 0.915756 0.142429 0.00993039 -0.0212957 1.06772)
(1.00813 0.0881394 -0.0901389 0.0881396 0.943967 0.128732 0.0134774 -0.0192477 1.06772)
(0.976047 0.0937961 -0.111124 0.0937961 0.976047 0.111124 0.0166149 -0.0166149 1.06772)
(0.943967 0.0881396 -0.128732 0.0881394 1.00813 0.0901389 0.0192477 -0.0134774 1.06772)
(0.915756 0.0718519 -0.142429 0.0718517 1.03634 0.0664155 0.0212957 -0.00993039 1.06772)
(0.894817 0.046898 -0.151798 0.0468977 1.05728 0.040674 0.0226966 -0.00608155 1.06772)
(0.883676 0.0162875 -0.156555 0.0162875 1.06842 0.0136967 0.0234079 -0.00204792 1.06772)
(0.884683 -0.0148606 -0.0940576 -0.0148606 1.05324 -0.00822898 0.0391584 0.00342586 1.06482)
(0.894848 -0.0427894 -0.0911997 -0.0427892 1.04307 -0.0244369 0.0379685 0.0101736 1.06482)
(0.913952 -0.0655571 -0.0855707 -0.0655568 1.02397 -0.0399023 0.0356251 0.0166122 1.06482)
(0.939692 -0.0804178 -0.0773418 -0.0804174 0.998231 -0.0541553 0.0321991 0.022546 1.06482)
(0.968961 -0.0855786 -0.0667628 -0.0855786 0.968961 -0.0667628 0.0277949 0.0277949 1.06482)
(0.998231 -0.0804174 -0.0541553 -0.0804178 0.939692 -0.0773418 0.022546 0.0321991 1.06482)
(1.02397 -0.0655568 -0.0399023 -0.0655571 0.913952 -0.0855707 0.0166122 0.0356251 1.06482)
(1.04307 -0.0427892 -0.0244369 -0.0427894 0.894848 -0.0911997 0.0101736 0.0379685 1.06482)
(1.05324 -0.0148606 -0.00822898 -0.0148606 0.884683 -0.0940576 0.00342586 0.0391584 1.06482)
(1.05324 0.0148606 0.00822898 0.0148606 0.884683 -0.0940576 -0.00342586 0.0391584 1.06482)
(1.04307 0.0427892 0.0244369 0.0427894 0.894848 -0.0911997 -0.0101736 0.0379685 1.06482)
(1.02397 0.0655568 0.0399023 0.0655571 0.913952 -0.0855707 -0.0166122 0.0356251 1.06482)
(0.998231 0.0804174 0.0541553 0.0804178 0.939692 -0.0773418 -0.022546 0.0321991 1.06482)
(0.968961 0.0855786 0.0667628 0.0855786 0.968961 -0.0667628 -0.0277949 0.0277949 1.06482)
(0.939692 0.0804178 0.0773418 0.0804174 0.998231 -0.0541553 -0.0321991 0.022546 1.06482)
(0.913952 0.0655571 0.0855707 0.0655568 1.02397 -0.0399023 -0.0356251 0.0166122 1.06482)
(0.894848 0.0427894 0.0911997 0.0427892 1.04307 -0.0244369 -0.0379685 0.0101736 1.06482)
(0.884683 0.0148606 0.0940576 0.0148606 1.05324 -0.00822898 -0.0391584 0.00342586 1.06482)
(0.884683 -0.0148606 0.0940576 -0.0148606 1.05324 0.00822898 -0.0391584 -0.00342586 1.06482)
(0.894848 -0.0427894 0.0911997 -0.0427892 1.04307 0.0244369 -0.0379685 -0.0101736 1.06482)
(0.913952 -0.0655571 0.0855707 -0.0655568 1.02397 0.0399023 -0.0356251 -0.0166122 1.06482)
(0.939692 -0.0804178 0.0773418 -0.0804174 0.998231 0.0541553 -0.0321991 -0.022546 1.06482)
(0.968961 -0.0855786 0.0667628 -0.0855786 0.968961 0.0667628 -0.0277949 -0.0277949 1.06482)
(0.998231 -0.0804174 0.0541553 -0.0804178 0.939692 0.0773418 -0.022546 -0.0321991 1.06482)
(1.02397 -0.0655568 0.0399023 -0.0655571 0.913952 0.0855707 -0.0166122 -0.0356251 1.06482)
(1.04307 -0.0427892 0.0244369 -0.0427894 0.894848 0.0911997 -0.0101736 -0.0379685 1.06482)
(1.05324 -0.0148606 0.00822898 -0.0148606 0.884683 0.0940576 -0.00342586 -0.0391584 1.06482)
(1.05324 0.0148606 -0.00822898 0.0148606 0.884683 0.0940576 0.00342586 -0.0391584 1.06482)
(1.04307 0.0427892 -0.0244369 0.0427894 0.894848 0.0911997 0.0101736 -0.0379685 1.06482)
(1.02397 0.0655568 -0.0399023 0.0655571 0.913952 0.0855707 0.0166122 -0.0356251 1.06482)
(0.998231 0.0804174 -0.0541553 0.0804178 0.939692 0.0773418 0.022546 -0.0321991 1.06482)
(0.968961 0.0855786 -0.0667628 0.0855786 0.968961 0.0667628 0.0277949 -0.0277949 1.06482)
(0.939692 0.0804178 -0.0773418 0.0804174 0.998231 0.0541553 0.0321991 -0.022546 1.06482)
(0.913952 0.0655571 -0.0855707 0.0655568 1.02397 0.0399023 0.0356251 -0.0166122 1.06482)
(0.894848 0.0427894 -0.0911997 0.0427892 1.04307 0.0244369 0.0379685 -0.0101736 1.06482)
(0.884683 0.0148606 -0.0940576 0.0148606 1.05324 0.00822898 0.0391584 -0.00342586 1.06482)
(0.867209 -0.0181525 -0.106719 -0.0181523 1.0731 -0.00933669 0.0380111 0.00332553 1.0696)
(0.879626 -0.0522677 -0.103476 -0.0522675 1.06069 -0.0277263 0.0368561 0.00987549 1.0696)
(0.902962 -0.0800789 -0.0970895 -0.0800784 1.03735 -0.0452736 0.0345813 0.0161255 1.0696)
(0.934403 -0.0982311 -0.0877529 -0.098231 1.00591 -0.0614452 0.0312558 0.0218854 1.0696)
(0.970156 -0.104535 -0.0757499 -0.104535 0.970156 -0.0757499 0.0269805 0.0269805 1.0696)
(1.00591 -0.098231 -0.0614452 -0.0982311 0.934403 -0.0877529 0.0218854 0.0312558 1.0696)
(1.03735 -0.0800784 -0.0452736 -0.0800789 0.902962 -0.0970895 0.0161255 0.0345813 1.0696)
(1.06069 -0.0522675 -0.0277263 -0.0522677 0.879626 -0.103476 0.00987549 0.0368561 1.0696)
(1.0731 -0.0181523 -0.00933669 -0.0181525 0.867209 -0.106719 0.00332553 0.0380111 1.0696)
(1.0731 0.0181523 0.00933669 0.0181525 0.867209 -0.106719 -0.00332553 0.0380111 1.0696)
(1.06069 0.0522675 0.0277263 0.0522677 0.879626 -0.103476 -0.00987549 0.0368561 1.0696)
(1.03735 0.0800784 0.0452736 0.0800789 0.902962 -0.0970895 -0.0161255 0.0345813 1.0696)
(1.00591 0.098231 0.0614452 0.0982311 0.934403 -0.0877529 -0.0218854 0.0312558 1.0696)
(0.970156 0.104535 0.0757499 0.104535 0.970156 -0.0757499 -0.0269805 0.0269805 1.0696)
(0.934403 0.0982311 0.0877529 0.098231 1.00591 -0.0614452 -0.0312558 0.0218854 1.0696)
(0.902962 0.0800789 0.0970895 0.0800784 1.03735 -0.0452736 -0.0345813 0.0161255 1.0696)
(0.879626 0.0522677 0.103476 0.0522675 1.06069 -0.0277263 -0.0368561 0.00987549 1.0696)
(0.867209 0.0181525 0.106719 0.0181523 1.0731 -0.00933669 -0.0380111 0.00332553 1.0696)
(0.867209 -0.0181525 0.106719 -0.0181523 1.0731 0.00933669 -0.0380111 -0.00332553 1.0696)
(0.879626 -0.0522677 0.103476 -0.0522675 1.06069 0.0277263 -0.0368561 -0.00987549 1.0696)
(0.902962 -0.0800789 0.0970895 -0.0800784 1.03735 0.0452736 -0.0345813 -0.0161255 1.0696)
(0.934403 -0.0982311 0.0877529 -0.098231 1.00591 0.0614452 -0.0312558 -0.0218854 1.0696)
(0.970156 -0.104535 0.0757499 -0.104535 0.970156 0.0757499 -0.0269805 -0.0269805 1.0696)
(1.00591 -0.098231 0.0614452 -0.0982311 0.934403 0.0877529 -0.0218854 -0.0312558 1.0696)
(1.03735 -0.0800784 0.0452736 -0.0800789 0.902962 0.0970895 -0.0161255 -0.0345813 1.0696)
(1.06069 -0.0522675 0.0277263 -0.0522677 0.879626 0.103476 -0.00987549 -0.0368561 1.0696)
(1.0731 -0.0181523 0.00933669 -0.0181525 0.867209 0.106719 -0.00332553 -0.0380111 1.0696)
(1.0731 0.0181523 -0.00933669 0.0181525 0.867209 0.106719 0.00332553 -0.0380111 1.0696)
(1.06069 0.0522675 -0.0277263 0.0522677 0.879626 0.103476 0.00987549 -0.0368561 1.0696)
(1.03735 0.0800784 -0.0452736 0.0800789 0.902962 0.0970895 0.0161255 -0.0345813 1.0696)
(1.00591 0.098231 -0.0614452 0.0982311 0.934403 0.0877529 0.0218854 -0.0312558 1.0696)
(0.970156 0.104535 -0.0757499 0.104535 0.970156 0.0757499 0.0269805 -0.0269805 1.0696)
(0.934403 0.0982311 -0.0877529 0.098231 1.00591 0.0614452 0.0312558 -0.0218854 1.0696)
(0.902962 0.0800789 -0.0970895 0.0800784 1.03735 0.0452736 0.0345813 -0.0161255 1.0696)
(0.879626 0.0522677 -0.103476 0.0522675 1.06069 0.0277263 0.0368561 -0.00987549 1.0696)
(0.867209 0.0181525 -0.106719 0.0181523 1.0731 0.00933669 0.0380111 -0.00332553 1.0696)
(0.850959 -0.0221907 -0.121148 -0.0221906 1.10266 -0.010599 0.0364906 0.00319252 1.07538)
(0.866138 -0.0638955 -0.117467 -0.0638952 1.08748 -0.0314751 0.0353818 0.00948049 1.07538)
(0.894666 -0.0978935 -0.110216 -0.0978933 1.05895 -0.0513948 0.033198 0.0154804 1.07538)
(0.933101 -0.120084 -0.0996173 -0.120084 1.02052 -0.0697528 0.0300055 0.02101 1.07538)
(0.976808 -0.127791 -0.0859914 -0.127791 0.976808 -0.0859914 0.0259012 0.0259012 1.07538)
(1.02052 -0.120084 -0.0697528 -0.120084 0.933101 -0.0996173 0.02101 0.0300055 1.07538)
(1.05895 -0.0978933 -0.0513948 -0.0978935 0.894666 -0.110216 0.0154804 0.033198 1.07538)
(1.08748 -0.0638952 -0.0314751 -0.0638955 0.866138 -0.117467 0.00948049 0.0353818 1.07538)
(1.10266 -0.0221906 -0.010599 -0.0221907 0.850959 -0.121148 0.00319252 0.0364906 1.07538)
(1.10266 0.0221906 0.010599 0.0221907 0.850959 -0.121148 -0.00319252 0.0364906 1.07538)
(1.08748 0.0638952 0.0314751 0.0638955 0.866138 -0.117467 -0.00948049 0.0353818 1.07538)
(1.05895 0.0978933 0.0513948 0.0978935 0.894666 -0.110216 -0.0154804 0.033198 1.07538)
(1.02052 0.120084 0.0697528 0.120084 0.933101 -0.0996173 -0.02101 0.0300055 1.07538)
(0.976808 0.127791 0.0859914 0.127791 0.976808 -0.0859914 -0.0259012 0.0259012 1.07538)
(0.933101 0.120084 0.0996173 0.120084 1.02052 -0.0697528 -0.0300055 0.02101 1.07538)
(0.894666 0.0978935 0.110216 0.0978933 1.05895 -0.0513948 -0.033198 0.0154804 1.07538)
(0.866138 0.0638955 0.117467 0.0638952 1.08748 -0.0314751 -0.0353818 0.00948049 1.07538)
(0.850959 0.0221907 0.121148 0.0221906 1.10266 -0.010599 -0.0364906 0.00319252 1.07538)
(0.850959 -0.0221907 0.121148 -0.0221906 1.10266 0.010599 -0.0364906 -0.00319252 1.07538)
(0.866138 -0.0638955 0.117467 -0.0638952 1.08748 0.0314751 -0.0353818 -0.00948049 1.07538)
(0.894666 -0.0978935 0.110216 -0.0978933 1.05895 0.0513948 -0.033198 -0.0154804 1.07538)
(0.933101 -0.120084 0.0996173 -0.120084 1.02052 0.0697528 -0.0300055 -0.02101 1.07538)
(0.976808 -0.127791 0.0859914 -0.127791 0.976808 0.0859914 -0.0259012 -0.0259012 1.07538)
(1.02052 -0.120084 0.0697528 -0.120084 0.933101 0.0996173 -0.02101 -0.0300055 1.07538)
(1.05895 -0.0978933 0.0513948 -0.0978935 0.894666 0.110216 -0.0154804 -0.033198 1.07538)
(1.08748 -0.0638952 0.0314751 -0.0638955 0.866138 0.117467 -0.00948049 -0.0353818 1.07538)
(1.10266 -0.0221906 0.010599 -0.0221907 0.850959 0.121148 -0.00319252 -0.0364906 1.07538)
(1.10266 0.0221906 -0.010599 0.0221907 0.850959 0.121148 0.00319252 -0.0364906 1.07538)
(1.08748 0.0638952 -0.0314751 0.0638955 0.866138 0.117467 0.00948049 -0.0353818 1.07538)
(1.05895 0.0978933 -0.0513948 0.0978935 0.894666 0.110216 0.0154804 -0.033198 1.07538)
(1.02052 0.120084 -0.0697528 0.120084 0.933101 0.0996173 0.02101 -0.0300055 1.07538)
(0.976808 0.127791 -0.0859914 0.127791 0.976808 0.0859914 0.0259012 -0.0259012 1.07538)
(0.933101 0.120084 -0.0996173 0.120084 1.02052 0.0697528 0.0300055 -0.02101 1.07538)
(0.894666 0.0978935 -0.110216 0.0978933 1.05895 0.0513948 0.033198 -0.0154804 1.07538)
(0.866138 0.0638955 -0.117467 0.0638952 1.08748 0.0314751 0.0353818 -0.00948049 1.07538)
(0.850959 0.0221907 -0.121148 0.0221906 1.10266 0.010599 0.0364906 -0.00319252 1.07538)