/*--------------------------------*- C++ -*----------------------------------*\
| =========                 |                                                 |
| \\      /  F ield         | OpenFOAM: The Open Source CFD Toolbox           |
|  \\    /   O peration     | Version:  2312                                  |
|   \\  /    A nd           | Website:  www.openfoam.com                      |
|    \\/     M anipulation  |                                                 |
\*---------------------------------------------------------------------------*/
FoamFile
{
    version     2.0;
    format      ascii;
    arch        "LSB;label=32;scalar=64";
    class       pointVectorField;
    location    "0.3";
    object      pointD;
}
// * * * * * * * * * * * * * * * * * * * * * * * * * * * * * * * * * * * * * //

dimensions      [0 1 0 0 0 0 0];

internalField   nonuniform List<vector> 
2164
(
(0 0 0)
(0 0 0)
(0 0 0)
(0 0 0)
(0 0 0)
(0 0 0)
(0 0 0)
(0 0 0)
(0 0 0)
(0 0 0)
(0 0 0)
(0 0 0)
(0 0 0)
(0 0 0)
(0 0 0)
(0 0 0)
(0 0 0)
(0 0 0)
(0 0 0)
(0 0 0)
(0 0 0)
(0 0 0)
(0 0 0)
(0 0 0)
(0 0 0)
(0 0 0)
(0 0 0)
(0 0 0)
(0 0 0)
(0 0 0)
(0 0 0)
(0 0 0)
(0 0 0)
(0 0 0)
(0 0 0)
(0 0 0)
(0.000167439 2.95242e-05 -5.52185e-05)
(0.000159769 5.81512e-05 -5.52187e-05)
(0.000147244 8.50111e-05 -5.52189e-05)
(0.000130244 0.000109288 -5.52189e-05)
(0.000109288 0.000130244 -5.52189e-05)
(8.50111e-05 0.000147244 -5.52189e-05)
(5.81512e-05 0.000159769 -5.52187e-05)
(2.95242e-05 0.000167439 -5.52185e-05)
(4.24938e-14 0.000170022 -5.52185e-05)
(-2.95242e-05 0.000167439 -5.52185e-05)
(-5.81512e-05 0.000159769 -5.52187e-05)
(-8.50111e-05 0.000147244 -5.52189e-05)
(-0.000109288 0.000130244 -5.52189e-05)
(-0.000130244 0.000109288 -5.52189e-05)
(-0.000147244 8.50111e-05 -5.52189e-05)
(-0.000159769 5.81512e-05 -5.52187e-05)
(-0.000167439 2.95242e-05 -5.52185e-05)
(-0.000170022 3.03258e-14 -5.52185e-05)
(-0.000167439 -2.95242e-05 -5.52185e-05)
(-0.000159769 -5.81512e-05 -5.52187e-05)
(-0.000147244 -8.50111e-05 -5.52189e-05)
(-0.000130244 -0.000109288 -5.52189e-05)
(-0.000109288 -0.000130244 -5.52189e-05)
(-8.50111e-05 -0.000147244 -5.52189e-05)
(-5.81512e-05 -0.000159769 -5.52187e-05)
(-2.95242e-05 -0.000167439 -5.52185e-05)
(-4.50285e-14 -0.000170022 -5.52185e-05)
(2.95242e-05 -0.000167439 -5.52185e-05)
(5.81512e-05 -0.000159769 -5.52187e-05)
(8.50111e-05 -0.000147244 -5.52189e-05)
(0.000109288 -0.000130244 -5.52189e-05)
(0.000130244 -0.000109288 -5.52189e-05)
(0.000147244 -8.50111e-05 -5.52189e-05)
(0.000159769 -5.81512e-05 -5.52187e-05)
(0.000167439 -2.95242e-05 -5.52185e-05)
(0.000170022 -5.72624e-14 -5.52185e-05)
(0.000230839 4.07031e-05 -7.42429e-05)
(0.000220264 8.01694e-05 -7.4243e-05)
(0.000202996 0.000117199 -7.4243e-05)
(0.00017956 0.000150669 -7.42431e-05)
(0.000150669 0.00017956 -7.42431e-05)
(0.000117199 0.000202996 -7.4243e-05)
(8.01694e-05 0.000220264 -7.4243e-05)
(4.07031e-05 0.000230839 -7.42429e-05)
(3.88274e-14 0.0002344 -7.42429e-05)
(-4.07031e-05 0.000230839 -7.42429e-05)
(-8.01694e-05 0.000220264 -7.4243e-05)
(-0.000117199 0.000202996 -7.4243e-05)
(-0.000150669 0.00017956 -7.42431e-05)
(-0.00017956 0.000150669 -7.42431e-05)
(-0.000202996 0.000117199 -7.4243e-05)
(-0.000220264 8.01694e-05 -7.4243e-05)
(-0.000230839 4.07031e-05 -7.42429e-05)
(-0.0002344 2.63749e-14 -7.42429e-05)
(-0.000230839 -4.07031e-05 -7.42429e-05)
(-0.000220264 -8.01694e-05 -7.4243e-05)
(-0.000202996 -0.000117199 -7.4243e-05)
(-0.00017956 -0.000150669 -7.42431e-05)
(-0.000150669 -0.00017956 -7.42431e-05)
(-0.000117199 -0.000202996 -7.4243e-05)
(-8.01694e-05 -0.000220264 -7.4243e-05)
(-4.07031e-05 -0.000230839 -7.42429e-05)
(-4.14672e-14 -0.0002344 -7.42429e-05)
(4.07031e-05 -0.000230839 -7.42429e-05)
(8.01694e-05 -0.000220264 -7.4243e-05)
(0.000117199 -0.000202996 -7.4243e-05)
(0.000150669 -0.00017956 -7.42431e-05)
(0.00017956 -0.000150669 -7.42431e-05)
(0.000202996 -0.000117199 -7.4243e-05)
(0.000220264 -8.01694e-05 -7.4243e-05)
(0.000230839 -4.07031e-05 -7.42429e-05)
(0.0002344 -5.41055e-14 -7.42429e-05)
(0 0 0)
(0 0 0)
(0 0 0)
(0 0 0)
(0 0 0)
(0 0 0)
(0 0 0)
(0 0 0)
(0 0 0)
(0 0 0)
(0 0 0)
(0 0 0)
(0 0 0)
(0 0 0)
(0 0 0)
(0 0 0)
(0 0 0)
(0 0 0)
(0 0 0)
(0 0 0)
(0 0 0)
(0 0 0)
(0 0 0)
(0 0 0)
(0 0 0)
(0 0 0)
(0 0 0)
(0 0 0)
(0 0 0)
(0 0 0)
(0 0 0)
(0 0 0)
(0 0 0)
(0 0 0)
(0 0 0)
(0 0 0)
(0.000312504 5.51027e-05 -9.0894e-05)
(0.000298187 0.000108531 -9.08939e-05)
(0.000274811 0.000158662 -9.0894e-05)
(0.000243084 0.000203972 -9.08938e-05)
(0.000203972 0.000243084 -9.08938e-05)
(0.000158662 0.000274811 -9.0894e-05)
(0.000108531 0.000298187 -9.08939e-05)
(5.51027e-05 0.000312504 -9.0894e-05)
(3.52049e-14 0.000317324 -9.08939e-05)
(-5.51027e-05 0.000312504 -9.0894e-05)
(-0.000108531 0.000298187 -9.08939e-05)
(-0.000158662 0.000274811 -9.0894e-05)
(-0.000203972 0.000243084 -9.08938e-05)
(-0.000243084 0.000203972 -9.08938e-05)
(-0.000274811 0.000158662 -9.0894e-05)
(-0.000298187 0.000108531 -9.08939e-05)
(-0.000312504 5.51027e-05 -9.0894e-05)
(-0.000317324 2.24917e-14 -9.08939e-05)
(-0.000312504 -5.51027e-05 -9.0894e-05)
(-0.000298187 -0.000108531 -9.08939e-05)
(-0.000274811 -0.000158662 -9.0894e-05)
(-0.000243084 -0.000203972 -9.08938e-05)
(-0.000203972 -0.000243084 -9.08938e-05)
(-0.000158662 -0.000274811 -9.0894e-05)
(-0.000108531 -0.000298187 -9.08939e-05)
(-5.51027e-05 -0.000312504 -9.0894e-05)
(-3.79347e-14 -0.000317324 -9.08939e-05)
(5.51027e-05 -0.000312504 -9.0894e-05)
(0.000108531 -0.000298187 -9.08939e-05)
(0.000158662 -0.000274811 -9.0894e-05)
(0.000203972 -0.000243084 -9.08938e-05)
(0.000243084 -0.000203972 -9.08938e-05)
(0.000274811 -0.000158662 -9.0894e-05)
(0.000298187 -0.000108531 -9.08939e-05)
(0.000312504 -5.51027e-05 -9.0894e-05)
(0.000317324 -5.09847e-14 -9.08939e-05)
(0 0 0)
(0 0 0)
(0 0 0)
(0 0 0)
(0 0 0)
(0 0 0)
(0 0 0)
(0 0 0)
(0 0 0)
(0 0 0)
(0 0 0)
(0 0 0)
(0 0 0)
(0 0 0)
(0 0 0)
(0 0 0)
(0 0 0)
(0 0 0)
(0 0 0)
(0 0 0)
(0 0 0)
(0 0 0)
(0 0 0)
(0 0 0)
(0 0 0)
(0 0 0)
(0 0 0)
(0 0 0)
(0 0 0)
(0 0 0)
(0 0 0)
(0 0 0)
(0 0 0)
(0 0 0)
(0 0 0)
(0 0 0)
(0.000408019 7.19445e-05 -0.000104143)
(0.000389327 0.000141703 -0.000104143)
(0.000358806 0.000207156 -0.000104143)
(0.000317382 0.000266315 -0.000104143)
(0.000266315 0.000317382 -0.000104143)
(0.000207156 0.000358806 -0.000104143)
(0.000141703 0.000389327 -0.000104143)
(7.19445e-05 0.000408019 -0.000104143)
(3.16424e-14 0.000414313 -0.000104143)
(-7.19445e-05 0.000408019 -0.000104143)
(-0.000141703 0.000389327 -0.000104143)
(-0.000207156 0.000358806 -0.000104143)
(-0.000266315 0.000317382 -0.000104143)
(-0.000317382 0.000266315 -0.000104143)
(-0.000358806 0.000207156 -0.000104143)
(-0.000389327 0.000141703 -0.000104143)
(-0.000408019 7.19445e-05 -0.000104143)
(-0.000414313 1.86858e-14 -0.000104143)
(-0.000408019 -7.19445e-05 -0.000104143)
(-0.000389327 -0.000141703 -0.000104143)
(-0.000358806 -0.000207156 -0.000104143)
(-0.000317382 -0.000266315 -0.000104143)
(-0.000266315 -0.000317382 -0.000104143)
(-0.000207156 -0.000358806 -0.000104143)
(-0.000141703 -0.000389327 -0.000104143)
(-7.19445e-05 -0.000408019 -0.000104143)
(-3.44113e-14 -0.000414313 -0.000104143)
(7.19445e-05 -0.000408019 -0.000104143)
(0.000141703 -0.000389327 -0.000104143)
(0.000207156 -0.000358806 -0.000104143)
(0.000266315 -0.000317382 -0.000104143)
(0.000317382 -0.000266315 -0.000104143)
(0.000358806 -0.000207156 -0.000104143)
(0.000389327 -0.000141703 -0.000104143)
(0.000408019 -7.19445e-05 -0.000104143)
(0.000414313 -4.78316e-14 -0.000104143)
(0 0 0)
(0 0 0)
(0 0 0)
(0 0 0)
(0 0 0)
(0 0 0)
(0 0 0)
(0 0 0)
(0 0 0)
(0 0 0)
(0 0 0)
(0 0 0)
(0 0 0)
(0 0 0)
(0 0 0)
(0 0 0)
(0 0 0)
(0 0 0)
(0 0 0)
(0 0 0)
(0 0 0)
(0 0 0)
(0 0 0)
(0 0 0)
(0 0 0)
(0 0 0)
(0 0 0)
(0 0 0)
(0 0 0)
(0 0 0)
(0 0 0)
(0 0 0)
(0 0 0)
(0 0 0)
(0 0 0)
(0 0 0)
(0.000368917 6.505e-05 -0.000141914)
(0.000352016 0.000128123 -0.000141914)
(0.00032442 0.000187304 -0.000141915)
(0.000286966 0.000240793 -0.000141915)
(0.000240793 0.000286966 -0.000141915)
(0.000187304 0.00032442 -0.000141915)
(0.000128123 0.000352016 -0.000141914)
(6.505e-05 0.000368917 -0.000141914)
(8.39495e-14 0.000374608 -0.000141914)
(-6.505e-05 0.000368917 -0.000141914)
(-0.000128123 0.000352016 -0.000141914)
(-0.000187304 0.00032442 -0.000141915)
(-0.000240793 0.000286966 -0.000141915)
(-0.000286966 0.000240793 -0.000141915)
(-0.00032442 0.000187304 -0.000141915)
(-0.000352016 0.000128123 -0.000141914)
(-0.000368917 6.505e-05 -0.000141914)
(-0.000374608 5.95041e-14 -0.000141914)
(-0.000368917 -6.505e-05 -0.000141914)
(-0.000352016 -0.000128123 -0.000141914)
(-0.00032442 -0.000187304 -0.000141915)
(-0.000286966 -0.000240793 -0.000141915)
(-0.000240793 -0.000286966 -0.000141915)
(-0.000187304 -0.00032442 -0.000141915)
(-0.000128123 -0.000352016 -0.000141914)
(-6.505e-05 -0.000368917 -0.000141914)
(-8.91542e-14 -0.000374608 -0.000141914)
(6.505e-05 -0.000368917 -0.000141914)
(0.000128123 -0.000352016 -0.000141914)
(0.000187304 -0.00032442 -0.000141915)
(0.000240793 -0.000286966 -0.000141915)
(0.000286966 -0.000240793 -0.000141915)
(0.00032442 -0.000187304 -0.000141915)
(0.000352016 -0.000128123 -0.000141914)
(0.000368917 -6.505e-05 -0.000141914)
(0.000374608 -1.13921e-13 -0.000141914)
(0.000466461 8.22495e-05 -0.000176366)
(0.000445092 0.000162 -0.000176367)
(0.000410198 0.000236828 -0.000176366)
(0.000362842 0.00030446 -0.000176367)
(0.00030446 0.000362842 -0.000176367)
(0.000236828 0.000410198 -0.000176366)
(0.000162 0.000445092 -0.000176367)
(8.22495e-05 0.000466461 -0.000176366)
(7.63923e-14 0.000473658 -0.000176366)
(-8.22495e-05 0.000466461 -0.000176366)
(-0.000162 0.000445092 -0.000176367)
(-0.000236828 0.000410198 -0.000176366)
(-0.00030446 0.000362842 -0.000176367)
(-0.000362842 0.00030446 -0.000176367)
(-0.000410198 0.000236828 -0.000176366)
(-0.000445092 0.000162 -0.000176367)
(-0.000466461 8.22495e-05 -0.000176366)
(-0.000473658 5.14279e-14 -0.000176366)
(-0.000466461 -8.22495e-05 -0.000176366)
(-0.000445092 -0.000162 -0.000176367)
(-0.000410198 -0.000236828 -0.000176366)
(-0.000362842 -0.00030446 -0.000176367)
(-0.00030446 -0.000362842 -0.000176367)
(-0.000236828 -0.000410198 -0.000176366)
(-0.000162 -0.000445092 -0.000176367)
(-8.22495e-05 -0.000466461 -0.000176366)
(-8.17434e-14 -0.000473658 -0.000176366)
(8.22495e-05 -0.000466461 -0.000176366)
(0.000162 -0.000445092 -0.000176367)
(0.000236828 -0.000410198 -0.000176366)
(0.00030446 -0.000362842 -0.000176367)
(0.000362842 -0.00030446 -0.000176367)
(0.000410198 -0.000236828 -0.000176366)
(0.000445092 -0.000162 -0.000176367)
(0.000466461 -8.22495e-05 -0.000176366)
(0.000473658 -1.07118e-13 -0.000176366)
(0.000587097 0.000103521 -0.000209042)
(0.000560201 0.000203896 -0.000209042)
(0.000516284 0.000298076 -0.000209042)
(0.00045668 0.0003832 -0.000209042)
(0.0003832 0.00045668 -0.000209042)
(0.000298076 0.000516284 -0.000209042)
(0.000203896 0.000560201 -0.000209042)
(0.000103521 0.000587097 -0.000209042)
(6.8952e-14 0.000596154 -0.000209042)
(-0.000103521 0.000587097 -0.000209042)
(-0.000203896 0.000560201 -0.000209042)
(-0.000298076 0.000516284 -0.000209042)
(-0.0003832 0.00045668 -0.000209042)
(-0.00045668 0.0003832 -0.000209042)
(-0.000516284 0.000298076 -0.000209042)
(-0.000560201 0.000203896 -0.000209042)
(-0.000587097 0.000103521 -0.000209042)
(-0.000596154 4.35094e-14 -0.000209042)
(-0.000587097 -0.000103521 -0.000209042)
(-0.000560201 -0.000203896 -0.000209042)
(-0.000516284 -0.000298076 -0.000209042)
(-0.00045668 -0.0003832 -0.000209042)
(-0.0003832 -0.00045668 -0.000209042)
(-0.000298076 -0.000516284 -0.000209042)
(-0.000203896 -0.000560201 -0.000209042)
(-0.000103521 -0.000587097 -0.000209042)
(-7.44308e-14 -0.000596154 -0.000209042)
(0.000103521 -0.000587097 -0.000209042)
(0.000203896 -0.000560201 -0.000209042)
(0.000298076 -0.000516284 -0.000209042)
(0.0003832 -0.00045668 -0.000209042)
(0.00045668 -0.0003832 -0.000209042)
(0.000516284 -0.000298076 -0.000209042)
(0.000560201 -0.000203896 -0.000209042)
(0.000587097 -0.000103521 -0.000209042)
(0.000596154 -1.00404e-13 -0.000209042)
(0.000722715 0.000127434 -0.000237938)
(0.000689606 0.000250996 -0.000237938)
(0.000635544 0.000366931 -0.000237938)
(0.000562171 0.000471717 -0.000237938)
(0.000471717 0.000562171 -0.000237938)
(0.000366931 0.000635544 -0.000237938)
(0.000250996 0.000689606 -0.000237938)
(0.000127434 0.000722715 -0.000237938)
(6.16768e-14 0.000733863 -0.000237938)
(-0.000127434 0.000722715 -0.000237938)
(-0.000250996 0.000689606 -0.000237938)
(-0.000366931 0.000635544 -0.000237938)
(-0.000471717 0.000562171 -0.000237938)
(-0.000562171 0.000471717 -0.000237938)
(-0.000635544 0.000366931 -0.000237938)
(-0.000689606 0.000250996 -0.000237938)
(-0.000722715 0.000127434 -0.000237938)
(-0.000733863 3.58162e-14 -0.000237938)
(-0.000722715 -0.000127434 -0.000237938)
(-0.000689606 -0.000250996 -0.000237938)
(-0.000635544 -0.000366931 -0.000237938)
(-0.000562171 -0.000471717 -0.000237938)
(-0.000471717 -0.000562171 -0.000237938)
(-0.000366931 -0.000635544 -0.000237938)
(-0.000250996 -0.000689606 -0.000237938)
(-0.000127434 -0.000722715 -0.000237938)
(-6.71919e-14 -0.000733863 -0.000237938)
(0.000127434 -0.000722715 -0.000237938)
(0.000250996 -0.000689606 -0.000237938)
(0.000366931 -0.000635544 -0.000237938)
(0.000471717 -0.000562171 -0.000237938)
(0.000562171 -0.000471717 -0.000237938)
(0.000635544 -0.000366931 -0.000237938)
(0.000689606 -0.000250996 -0.000237938)
(0.000722715 -0.000127434 -0.000237938)
(0.000733863 -9.3679e-14 -0.000237938)
(0.000543133 9.57688e-05 -0.000268153)
(0.000518251 0.000188628 -0.000268153)
(0.000477623 0.000275756 -0.000268154)
(0.000422483 0.000354505 -0.000268154)
(0.000354505 0.000422483 -0.000268154)
(0.000275756 0.000477623 -0.000268154)
(0.000188628 0.000518251 -0.000268153)
(9.57688e-05 0.000543133 -0.000268153)
(1.22553e-13 0.000551512 -0.000268153)
(-9.57688e-05 0.000543133 -0.000268153)
(-0.000188628 0.000518251 -0.000268153)
(-0.000275756 0.000477623 -0.000268154)
(-0.000354505 0.000422483 -0.000268154)
(-0.000422483 0.000354505 -0.000268154)
(-0.000477623 0.000275756 -0.000268154)
(-0.000518251 0.000188628 -0.000268153)
(-0.000543133 9.57688e-05 -0.000268153)
(-0.000551512 8.56924e-14 -0.000268153)
(-0.000543133 -9.57688e-05 -0.000268153)
(-0.000518251 -0.000188628 -0.000268153)
(-0.000477623 -0.000275756 -0.000268154)
(-0.000422483 -0.000354505 -0.000268154)
(-0.000354505 -0.000422483 -0.000268154)
(-0.000275756 -0.000477623 -0.000268154)
(-0.000188628 -0.000518251 -0.000268153)
(-9.57688e-05 -0.000543133 -0.000268153)
(-1.30587e-13 -0.000551512 -0.000268153)
(9.57688e-05 -0.000543133 -0.000268153)
(0.000188628 -0.000518251 -0.000268153)
(0.000275756 -0.000477623 -0.000268154)
(0.000354505 -0.000422483 -0.000268154)
(0.000422483 -0.000354505 -0.000268154)
(0.000477623 -0.000275756 -0.000268154)
(0.000518251 -0.000188628 -0.000268153)
(0.000543133 -9.57688e-05 -0.000268153)
(0.000551512 -1.68104e-13 -0.000268153)
(0.000661511 0.000116642 -0.000309239)
(0.000631207 0.00022974 -0.000309239)
(0.000581722 0.000335858 -0.000309239)
(0.000514564 0.00043177 -0.000309239)
(0.00043177 0.000514564 -0.000309239)
(0.000335858 0.000581722 -0.000309239)
(0.00022974 0.000631207 -0.000309239)
(0.000116642 0.000661511 -0.000309239)
(1.11188e-13 0.000671717 -0.000309239)
(-0.000116642 0.000661511 -0.000309239)
(-0.00022974 0.000631207 -0.000309239)
(-0.000335858 0.000581722 -0.000309239)
(-0.00043177 0.000514564 -0.000309239)
(-0.000514564 0.00043177 -0.000309239)
(-0.000581722 0.000335858 -0.000309239)
(-0.000631207 0.00022974 -0.000309239)
(-0.000661511 0.000116642 -0.000309239)
(-0.000671717 7.37055e-14 -0.000309239)
(-0.000661511 -0.000116642 -0.000309239)
(-0.000631207 -0.00022974 -0.000309239)
(-0.000581722 -0.000335858 -0.000309239)
(-0.000514564 -0.00043177 -0.000309239)
(-0.00043177 -0.000514564 -0.000309239)
(-0.000335858 -0.000581722 -0.000309239)
(-0.00022974 -0.000631207 -0.000309239)
(-0.000116642 -0.000661511 -0.000309239)
(-1.19237e-13 -0.000671717 -0.000309239)
(0.000116642 -0.000661511 -0.000309239)
(0.00022974 -0.000631207 -0.000309239)
(0.000335858 -0.000581722 -0.000309239)
(0.00043177 -0.000514564 -0.000309239)
(0.000514564 -0.00043177 -0.000309239)
(0.000581722 -0.000335858 -0.000309239)
(0.000631207 -0.00022974 -0.000309239)
(0.000661511 -0.000116642 -0.000309239)
(0.000671717 -1.57265e-13 -0.000309239)
(0.000804145 0.000141792 -0.00034914)
(0.000767305 0.000279276 -0.00034914)
(0.000707153 0.000408274 -0.00034914)
(0.000625513 0.000524867 -0.00034914)
(0.000524867 0.000625513 -0.00034914)
(0.000408274 0.000707153 -0.00034914)
(0.000279276 0.000767305 -0.00034914)
(0.000141792 0.000804145 -0.00034914)
(1.00048e-13 0.000816549 -0.000349139)
(-0.000141792 0.000804145 -0.00034914)
(-0.000279276 0.000767305 -0.00034914)
(-0.000408274 0.000707153 -0.00034914)
(-0.000524867 0.000625513 -0.00034914)
(-0.000625513 0.000524867 -0.00034914)
(-0.000707153 0.000408274 -0.00034914)
(-0.000767305 0.000279276 -0.00034914)
(-0.000804145 0.000141792 -0.00034914)
(-0.000816549 6.19991e-14 -0.000349139)
(-0.000804145 -0.000141792 -0.00034914)
(-0.000767305 -0.000279276 -0.00034914)
(-0.000707153 -0.000408274 -0.00034914)
(-0.000625513 -0.000524867 -0.00034914)
(-0.000524867 -0.000625513 -0.00034914)
(-0.000408274 -0.000707153 -0.00034914)
(-0.000279276 -0.000767305 -0.00034914)
(-0.000141792 -0.000804145 -0.00034914)
(-1.08097e-13 -0.000816549 -0.000349139)
(0.000141792 -0.000804145 -0.00034914)
(0.000279276 -0.000767305 -0.00034914)
(0.000408274 -0.000707153 -0.00034914)
(0.000524867 -0.000625513 -0.00034914)
(0.000625513 -0.000524867 -0.00034914)
(0.000707153 -0.000408274 -0.00034914)
(0.000767305 -0.000279276 -0.00034914)
(0.000804145 -0.000141792 -0.00034914)
(0.000816549 -1.46601e-13 -0.000349139)
(0.000961856 0.000169601 -0.000386277)
(0.000917792 0.000334048 -0.000386276)
(0.000845842 0.000488347 -0.000386277)
(0.000748191 0.000627806 -0.000386277)
(0.000627806 0.000748191 -0.000386277)
(0.000488347 0.000845842 -0.000386277)
(0.000334048 0.000917792 -0.000386276)
(0.000169601 0.000961856 -0.000386277)
(8.91449e-14 0.000976695 -0.000386277)
(-0.000169601 0.000961856 -0.000386277)
(-0.000334048 0.000917792 -0.000386276)
(-0.000488347 0.000845842 -0.000386277)
(-0.000627806 0.000748191 -0.000386277)
(-0.000748191 0.000627806 -0.000386277)
(-0.000845842 0.000488347 -0.000386277)
(-0.000917792 0.000334048 -0.000386276)
(-0.000961856 0.000169601 -0.000386277)
(-0.000976695 5.065e-14 -0.000386277)
(-0.000961856 -0.000169601 -0.000386277)
(-0.000917792 -0.000334048 -0.000386276)
(-0.000845842 -0.000488347 -0.000386277)
(-0.000748191 -0.000627806 -0.000386277)
(-0.000627806 -0.000748191 -0.000386277)
(-0.000488347 -0.000845842 -0.000386277)
(-0.000334048 -0.000917792 -0.000386276)
(-0.000169601 -0.000961856 -0.000386277)
(-9.71277e-14 -0.000976695 -0.000386277)
(0.000169601 -0.000961856 -0.000386277)
(0.000334048 -0.000917792 -0.000386276)
(0.000488347 -0.000845842 -0.000386277)
(0.000627806 -0.000748191 -0.000386277)
(0.000748191 -0.000627806 -0.000386277)
(0.000845842 -0.000488347 -0.000386277)
(0.000917792 -0.000334048 -0.000386276)
(0.000961856 -0.000169601 -0.000386277)
(0.000976695 -1.36029e-13 -0.000386277)
(0.000671335 0.000118374 -0.000406059)
(0.000640581 0.000233153 -0.00040606)
(0.000590362 0.000340846 -0.00040606)
(0.000522206 0.000438183 -0.00040606)
(0.000438183 0.000522206 -0.00040606)
(0.000340846 0.000590362 -0.00040606)
(0.000233153 0.000640581 -0.00040606)
(0.000118374 0.000671335 -0.000406059)
(1.57348e-13 0.000681692 -0.000406059)
(-0.000118374 0.000671335 -0.000406059)
(-0.000233153 0.000640581 -0.00040606)
(-0.000340846 0.000590362 -0.00040606)
(-0.000438183 0.000522206 -0.00040606)
(-0.000522206 0.000438183 -0.00040606)
(-0.000590362 0.000340846 -0.00040606)
(-0.000640581 0.000233153 -0.00040606)
(-0.000671335 0.000118374 -0.000406059)
(-0.000681692 1.07718e-13 -0.000406059)
(-0.000671335 -0.000118374 -0.000406059)
(-0.000640581 -0.000233153 -0.00040606)
(-0.000590362 -0.000340846 -0.00040606)
(-0.000522206 -0.000438183 -0.00040606)
(-0.000438183 -0.000522206 -0.00040606)
(-0.000340846 -0.000590362 -0.00040606)
(-0.000233153 -0.000640581 -0.00040606)
(-0.000118374 -0.000671335 -0.000406059)
(-1.67919e-13 -0.000681692 -0.000406059)
(0.000118374 -0.000671335 -0.000406059)
(0.000233153 -0.000640581 -0.00040606)
(0.000340846 -0.000590362 -0.00040606)
(0.000438183 -0.000522206 -0.00040606)
(0.000522206 -0.000438183 -0.00040606)
(0.000590362 -0.000340846 -0.00040606)
(0.000640581 -0.000233153 -0.00040606)
(0.000671335 -0.000118374 -0.000406059)
(0.000681692 -2.18147e-13 -0.000406059)
(0.000798201 0.000140744 -0.000448687)
(0.000761634 0.000277212 -0.000448687)
(0.000701927 0.000405257 -0.000448688)
(0.00062089 0.000520988 -0.000448687)
(0.000520988 0.00062089 -0.000448687)
(0.000405257 0.000701927 -0.000448688)
(0.000277212 0.000761634 -0.000448687)
(0.000140744 0.000798201 -0.000448687)
(1.42273e-13 0.000810514 -0.000448687)
(-0.000140744 0.000798201 -0.000448687)
(-0.000277212 0.000761634 -0.000448687)
(-0.000405257 0.000701927 -0.000448688)
(-0.000520988 0.00062089 -0.000448687)
(-0.00062089 0.000520988 -0.000448687)
(-0.000701927 0.000405257 -0.000448688)
(-0.000761634 0.000277212 -0.000448687)
(-0.000798201 0.000140744 -0.000448687)
(-0.000810514 9.21989e-14 -0.000448687)
(-0.000798201 -0.000140744 -0.000448687)
(-0.000761634 -0.000277212 -0.000448687)
(-0.000701927 -0.000405257 -0.000448688)
(-0.00062089 -0.000520988 -0.000448687)
(-0.000520988 -0.00062089 -0.000448687)
(-0.000405257 -0.000701927 -0.000448688)
(-0.000277212 -0.000761634 -0.000448687)
(-0.000140744 -0.000798201 -0.000448687)
(-1.5269e-13 -0.000810514 -0.000448687)
(0.000140744 -0.000798201 -0.000448687)
(0.000277212 -0.000761634 -0.000448687)
(0.000405257 -0.000701927 -0.000448688)
(0.000520988 -0.00062089 -0.000448687)
(0.00062089 -0.000520988 -0.000448687)
(0.000701927 -0.000405257 -0.000448688)
(0.000761634 -0.000277212 -0.000448687)
(0.000798201 -0.000140744 -0.000448687)
(0.000810514 -2.03134e-13 -0.000448687)
(0.000950094 0.000167528 -0.000491298)
(0.00090657 0.000329964 -0.000491299)
(0.000835499 0.000482376 -0.000491299)
(0.000739042 0.000620131 -0.000491299)
(0.000620131 0.000739042 -0.000491299)
(0.000482376 0.000835499 -0.000491299)
(0.000329964 0.00090657 -0.000491299)
(0.000167528 0.000950094 -0.000491298)
(1.27551e-13 0.000964752 -0.000491299)
(-0.000167528 0.000950094 -0.000491298)
(-0.000329964 0.00090657 -0.000491299)
(-0.000482376 0.000835499 -0.000491299)
(-0.000620131 0.000739042 -0.000491299)
(-0.000739042 0.000620131 -0.000491299)
(-0.000835499 0.000482376 -0.000491299)
(-0.00090657 0.000329964 -0.000491299)
(-0.000950094 0.000167528 -0.000491298)
(-0.000964752 7.71019e-14 -0.000491299)
(-0.000950094 -0.000167528 -0.000491298)
(-0.00090657 -0.000329964 -0.000491299)
(-0.000835499 -0.000482376 -0.000491299)
(-0.000739042 -0.000620131 -0.000491299)
(-0.000620131 -0.000739042 -0.000491299)
(-0.000482376 -0.000835499 -0.000491299)
(-0.000329964 -0.00090657 -0.000491299)
(-0.000167528 -0.000950094 -0.000491298)
(-1.37804e-13 -0.000964752 -0.000491299)
(0.000167528 -0.000950094 -0.000491298)
(0.000329964 -0.00090657 -0.000491299)
(0.000482376 -0.000835499 -0.000491299)
(0.000620131 -0.000739042 -0.000491299)
(0.000739042 -0.000620131 -0.000491299)
(0.000835499 -0.000482376 -0.000491299)
(0.00090657 -0.000329964 -0.000491299)
(0.000950094 -0.000167528 -0.000491298)
(0.000964752 -1.88416e-13 -0.000491299)
(0.00111777 0.000197094 -0.000532667)
(0.00106657 0.000388199 -0.000532668)
(0.000982954 0.000567508 -0.000532667)
(0.000869474 0.000729576 -0.000532667)
(0.000729576 0.000869474 -0.000532667)
(0.000567508 0.000982954 -0.000532667)
(0.000388199 0.00106657 -0.000532668)
(0.000197094 0.00111777 -0.000532667)
(1.13148e-13 0.00113502 -0.000532667)
(-0.000197094 0.00111777 -0.000532667)
(-0.000388199 0.00106657 -0.000532668)
(-0.000567508 0.000982954 -0.000532667)
(-0.000729576 0.000869474 -0.000532667)
(-0.000869474 0.000729576 -0.000532667)
(-0.000982954 0.000567508 -0.000532667)
(-0.00106657 0.000388199 -0.000532668)
(-0.00111777 0.000197094 -0.000532667)
(-0.00113502 6.24509e-14 -0.000532667)
(-0.00111777 -0.000197094 -0.000532667)
(-0.00106657 -0.000388199 -0.000532668)
(-0.000982954 -0.000567508 -0.000532667)
(-0.000869474 -0.000729576 -0.000532667)
(-0.000729576 -0.000869474 -0.000532667)
(-0.000567508 -0.000982954 -0.000532667)
(-0.000388199 -0.00106657 -0.000532668)
(-0.000197094 -0.00111777 -0.000532667)
(-1.23206e-13 -0.00113502 -0.000532667)
(0.000197094 -0.00111777 -0.000532667)
(0.000388199 -0.00106657 -0.000532668)
(0.000567508 -0.000982954 -0.000532667)
(0.000729576 -0.000869474 -0.000532667)
(0.000869474 -0.000729576 -0.000532667)
(0.000982954 -0.000567508 -0.000532667)
(0.00106657 -0.000388199 -0.000532668)
(0.00111777 -0.000197094 -0.000532667)
(0.00113502 -1.73927e-13 -0.000532667)
(0.0007422 0.00013087 -0.000539663)
(0.000708199 0.000257763 -0.000539663)
(0.00065268 0.000376824 -0.000539663)
(0.000577329 0.000484436 -0.000539663)
(0.000484436 0.000577329 -0.000539663)
(0.000376824 0.00065268 -0.000539663)
(0.000257763 0.000708199 -0.000539663)
(0.00013087 0.0007422 -0.000539663)
(1.87551e-13 0.00075365 -0.000539663)
(-0.00013087 0.0007422 -0.000539663)
(-0.000257763 0.000708199 -0.000539663)
(-0.000376824 0.00065268 -0.000539663)
(-0.000484436 0.000577329 -0.000539663)
(-0.000577329 0.000484436 -0.000539663)
(-0.00065268 0.000376824 -0.000539663)
(-0.000708199 0.000257763 -0.000539663)
(-0.0007422 0.00013087 -0.000539663)
(-0.00075365 1.2499e-13 -0.000539663)
(-0.0007422 -0.00013087 -0.000539663)
(-0.000708199 -0.000257763 -0.000539663)
(-0.00065268 -0.000376824 -0.000539663)
(-0.000577329 -0.000484436 -0.000539663)
(-0.000484436 -0.000577329 -0.000539663)
(-0.000376824 -0.00065268 -0.000539663)
(-0.000257763 -0.000708199 -0.000539663)
(-0.00013087 -0.0007422 -0.000539663)
(-2.00213e-13 -0.00075365 -0.000539663)
(0.00013087 -0.0007422 -0.000539663)
(0.000257763 -0.000708199 -0.000539663)
(0.000376824 -0.00065268 -0.000539663)
(0.000484436 -0.000577329 -0.000539663)
(0.000577329 -0.000484436 -0.000539663)
(0.00065268 -0.000376824 -0.000539663)
(0.000708199 -0.000257763 -0.000539663)
(0.0007422 -0.00013087 -0.000539663)
(0.00075365 -2.62924e-13 -0.000539663)
(0.000869755 0.000153362 -0.00058156)
(0.00082991 0.000302063 -0.00058156)
(0.000764849 0.000441586 -0.00058156)
(0.000676549 0.000567692 -0.00058156)
(0.000567692 0.000676549 -0.00058156)
(0.000441586 0.000764849 -0.00058156)
(0.000302063 0.00082991 -0.00058156)
(0.000153362 0.000869755 -0.00058156)
(1.68881e-13 0.000883173 -0.00058156)
(-0.000153362 0.000869755 -0.00058156)
(-0.000302063 0.00082991 -0.00058156)
(-0.000441586 0.000764849 -0.00058156)
(-0.000567692 0.000676549 -0.00058156)
(-0.000676549 0.000567692 -0.00058156)
(-0.000764849 0.000441586 -0.00058156)
(-0.00082991 0.000302063 -0.00058156)
(-0.000869755 0.000153362 -0.00058156)
(-0.000883173 1.06255e-13 -0.00058156)
(-0.000869755 -0.000153362 -0.00058156)
(-0.00082991 -0.000302063 -0.00058156)
(-0.000764849 -0.000441586 -0.00058156)
(-0.000676549 -0.000567692 -0.00058156)
(-0.000567692 -0.000676549 -0.00058156)
(-0.000441586 -0.000764849 -0.00058156)
(-0.000302063 -0.00082991 -0.00058156)
(-0.000153362 -0.000869755 -0.00058156)
(-1.81272e-13 -0.000883173 -0.00058156)
(0.000153362 -0.000869755 -0.00058156)
(0.000302063 -0.00082991 -0.00058156)
(0.000441586 -0.000764849 -0.00058156)
(0.000567692 -0.000676549 -0.00058156)
(0.000676549 -0.000567692 -0.00058156)
(0.000764849 -0.000441586 -0.00058156)
(0.00082991 -0.000302063 -0.00058156)
(0.000869755 -0.000153362 -0.00058156)
(0.000883173 -2.43832e-13 -0.00058156)
(0.00102317 0.000180413 -0.00062512)
(0.000976298 0.000355343 -0.000625121)
(0.000899761 0.000519477 -0.000625121)
(0.000795886 0.000667827 -0.000625121)
(0.000667827 0.000795886 -0.000625121)
(0.000519477 0.000899761 -0.000625121)
(0.000355343 0.000976298 -0.000625121)
(0.000180413 0.00102317 -0.00062512)
(1.50704e-13 0.00103895 -0.00062512)
(-0.000180413 0.00102317 -0.00062512)
(-0.000355343 0.000976298 -0.000625121)
(-0.000519477 0.000899761 -0.000625121)
(-0.000667827 0.000795886 -0.000625121)
(-0.000795886 0.000667827 -0.000625121)
(-0.000899761 0.000519477 -0.000625121)
(-0.000976298 0.000355343 -0.000625121)
(-0.00102317 0.000180413 -0.00062512)
(-0.00103895 8.80924e-14 -0.00062512)
(-0.00102317 -0.000180413 -0.00062512)
(-0.000976298 -0.000355343 -0.000625121)
(-0.000899761 -0.000519477 -0.000625121)
(-0.000795886 -0.000667827 -0.000625121)
(-0.000667827 -0.000795886 -0.000625121)
(-0.000519477 -0.000899761 -0.000625121)
(-0.000355343 -0.000976298 -0.000625121)
(-0.000180413 -0.00102317 -0.00062512)
(-1.62811e-13 -0.00103895 -0.00062512)
(0.000180413 -0.00102317 -0.00062512)
(0.000355343 -0.000976298 -0.000625121)
(0.000519477 -0.000899761 -0.000625121)
(0.000667827 -0.000795886 -0.000625121)
(0.000795886 -0.000667827 -0.000625121)
(0.000899761 -0.000519477 -0.000625121)
(0.000976298 -0.000355343 -0.000625121)
(0.00102317 -0.000180413 -0.00062512)
(0.00103895 -2.25159e-13 -0.00062512)
(0.0011934 0.000210429 -0.000669215)
(0.00113873 0.000414465 -0.000669215)
(0.00104946 0.000605908 -0.000669215)
(0.000928304 0.000778939 -0.000669215)
(0.000778939 0.000928304 -0.000669215)
(0.000605908 0.00104946 -0.000669215)
(0.000414465 0.00113873 -0.000669215)
(0.000210429 0.0011934 -0.000669215)
(1.32945e-13 0.00121182 -0.000669215)
(-0.000210429 0.0011934 -0.000669215)
(-0.000414465 0.00113873 -0.000669215)
(-0.000605908 0.00104946 -0.000669215)
(-0.000778939 0.000928304 -0.000669215)
(-0.000928304 0.000778939 -0.000669215)
(-0.00104946 0.000605908 -0.000669215)
(-0.00113873 0.000414465 -0.000669215)
(-0.0011934 0.000210429 -0.000669215)
(-0.00121182 7.04713e-14 -0.000669215)
(-0.0011934 -0.000210429 -0.000669215)
(-0.00113873 -0.000414465 -0.000669215)
(-0.00104946 -0.000605908 -0.000669215)
(-0.000928304 -0.000778939 -0.000669215)
(-0.000778939 -0.000928304 -0.000669215)