/*--------------------------------*- C++ -*----------------------------------*\
| =========                 |                                                 |
| \\      /  F ield         | OpenFOAM: The Open Source CFD Toolbox           |
|  \\    /   O peration     | Version:  2312                                  |
|   \\  /    A nd           | Website:  www.openfoam.com                      |
|    \\/     M anipulation  |                                                 |
\*---------------------------------------------------------------------------*/
FoamFile
{
    version     2.0;
    format      ascii;
    arch        "LSB;label=32;scalar=64";
    class       volSymmTensorField;
    location    "0.3";
    object      sigma;
}
// * * * * * * * * * * * * * * * * * * * * * * * * * * * * * * * * * * * * * //

dimensions      [1 -1 -2 0 0 0 0];

internalField   nonuniform List<symmTensor> 
1620
(
(1933.64 -33.3738 -593.293 2312.18 -51.9065 2733.87)
(1956.45 -96.0961 -575.266 2289.34 -154.142 2733.86)
(1999.39 -147.228 -539.76 2246.47 -251.694 2733.89)
(2057.17 -180.603 -487.853 2188.64 -341.598 2733.87)
(2122.86 -192.194 -421.124 2122.86 -421.124 2733.83)
(2188.64 -180.603 -341.598 2057.17 -487.853 2733.87)
(2246.47 -147.228 -251.694 1999.39 -539.76 2733.89)
(2289.34 -96.0961 -154.142 1956.45 -575.266 2733.86)
(2312.18 -33.3738 -51.9065 1933.64 -593.293 2733.87)
(2312.18 33.3738 51.9065 1933.64 -593.293 2733.87)
(2289.34 96.0961 154.142 1956.45 -575.266 2733.86)
(2246.47 147.228 251.694 1999.39 -539.76 2733.89)
(2188.64 180.603 341.598 2057.17 -487.853 2733.87)
(2122.86 192.194 421.124 2122.86 -421.124 2733.83)
(2057.17 180.603 487.853 2188.64 -341.598 2733.87)
(1999.39 147.228 539.76 2246.47 -251.694 2733.89)
(1956.45 96.0961 575.266 2289.34 -154.142 2733.86)
(1933.64 33.3738 593.293 2312.18 -51.9065 2733.87)
(1933.64 -33.3738 593.293 2312.18 51.9065 2733.87)
(1956.45 -96.0961 575.266 2289.34 154.142 2733.86)
(1999.39 -147.228 539.76 2246.47 251.694 2733.89)
(2057.17 -180.603 487.853 2188.64 341.598 2733.87)
(2122.86 -192.194 421.124 2122.86 421.124 2733.83)
(2188.64 -180.603 341.598 2057.17 487.853 2733.87)
(2246.47 -147.228 251.694 1999.39 539.76 2733.89)
(2289.34 -96.0961 154.142 1956.45 575.266 2733.86)
(2312.18 -33.3738 51.9065 1933.64 593.293 2733.87)
(2312.18 33.3738 -51.9065 1933.64 593.293 2733.87)
(2289.34 96.0961 -154.142 1956.45 575.266 2733.86)
(2246.47 147.228 -251.694 1999.39 539.76 2733.89)
(2188.64 180.603 -341.598 2057.17 487.853 2733.87)
(2122.86 192.194 -421.124 2122.86 421.124 2733.83)
(2057.17 180.603 -487.853 2188.64 341.598 2733.87)
(1999.39 147.228 -539.76 2246.47 251.694 2733.89)
(1956.45 96.0961 -575.266 2289.34 154.142 2733.86)
(1933.64 33.3738 -593.293 2312.18 51.9065 2733.87)
(6457.7 -42.6779 -738.537 6941.78 -64.6137 7457.31)
(6486.83 -122.887 -716.096 6912.52 -191.877 7457.25)
(6541.67 -188.274 -671.898 6857.63 -313.311 7457.22)
(6615.61 -230.952 -607.284 6783.73 -425.224 7457.24)
(6699.68 -245.774 -524.218 6699.68 -524.218 7457.25)
(6783.73 -230.952 -425.224 6615.61 -607.284 7457.24)
(6857.63 -188.274 -313.311 6541.67 -671.898 7457.22)
(6912.52 -122.887 -191.877 6486.83 -716.096 7457.25)
(6941.78 -42.6779 -64.6137 6457.7 -738.537 7457.31)
(6941.78 42.6779 64.6137 6457.7 -738.537 7457.31)
(6912.52 122.887 191.877 6486.83 -716.096 7457.25)
(6857.63 188.274 313.311 6541.67 -671.898 7457.22)
(6783.73 230.952 425.224 6615.61 -607.284 7457.24)
(6699.68 245.774 524.218 6699.68 -524.218 7457.25)
(6615.61 230.952 607.284 6783.73 -425.224 7457.24)
(6541.67 188.274 671.898 6857.63 -313.311 7457.22)
(6486.83 122.887 716.096 6912.52 -191.877 7457.25)
(6457.7 42.6779 738.537 6941.78 -64.6137 7457.31)
(6457.7 -42.6779 738.537 6941.78 64.6137 7457.31)
(6486.83 -122.887 716.096 6912.52 191.877 7457.25)
(6541.67 -188.274 671.898 6857.63 313.311 7457.22)
(6615.61 -230.952 607.284 6783.73 425.224 7457.24)
(6699.68 -245.774 524.218 6699.68 524.218 7457.25)
(6783.73 -230.952 425.224 6615.61 607.284 7457.24)
(6857.63 -188.274 313.311 6541.67 671.898 7457.22)
(6912.52 -122.887 191.877 6486.83 716.096 7457.25)
(6941.78 -42.6779 64.6137 6457.7 738.537 7457.31)
(6941.78 42.6779 -64.6137 6457.7 738.537 7457.31)
(6912.52 122.887 -191.877 6486.83 716.096 7457.25)
(6857.63 188.274 -313.311 6541.67 671.898 7457.22)
(6783.73 230.952 -425.224 6615.61 607.284 7457.24)
(6699.68 245.774 -524.218 6699.68 524.218 7457.25)
(6615.61 230.952 -607.284 6783.73 425.224 7457.24)
(6541.67 188.274 -671.898 6857.63 313.311 7457.22)
(6486.83 122.887 -716.096 6912.52 191.877 7457.25)
(6457.7 42.6779 -738.537 6941.78 64.6137 7457.31)
(15414.5 -54.9974 -928.276 16038.3 -81.2138 16618.8)
(15452.1 -158.359 -900.07 16000.7 -241.173 16618.8)
(15522.8 -242.622 -844.517 15929.9 -393.803 16618.8)
(15618 -297.62 -763.303 15834.7 -534.47 16618.7)
(15726.4 -316.72 -658.897 15726.4 -658.897 16618.8)
(15834.7 -297.62 -534.47 15618 -763.303 16618.7)
(15929.9 -242.622 -393.803 15522.8 -844.517 16618.8)
(16000.7 -158.359 -241.173 15452.1 -900.07 16618.8)
(16038.3 -54.9974 -81.2138 15414.5 -928.276 16618.8)
(16038.3 54.9974 81.2138 15414.5 -928.276 16618.8)
(16000.7 158.359 241.173 15452.1 -900.07 16618.8)
(15929.9 242.622 393.803 15522.8 -844.517 16618.8)
(15834.7 297.62 534.47 15618 -763.303 16618.7)
(15726.4 316.72 658.897 15726.4 -658.897 16618.8)
(15618 297.62 763.303 15834.7 -534.47 16618.7)
(15522.8 242.622 844.517 15929.9 -393.803 16618.8)
(15452.1 158.359 900.07 16000.7 -241.173 16618.8)
(15414.5 54.9974 928.276 16038.3 -81.2138 16618.8)
(15414.5 -54.9974 928.276 16038.3 81.2138 16618.8)
(15452.1 -158.359 900.07 16000.7 241.173 16618.8)
(15522.8 -242.622 844.517 15929.9 393.803 16618.8)
(15618 -297.62 763.303 15834.7 534.47 16618.7)
(15726.4 -316.72 658.897 15726.4 658.897 16618.8)
(15834.7 -297.62 534.47 15618 763.303 16618.7)
(15929.9 -242.622 393.803 15522.8 844.517 16618.8)
(16000.7 -158.359 241.173 15452.1 900.07 16618.8)
(16038.3 -54.9974 81.2138 15414.5 928.276 16618.8)
(16038.3 54.9974 -81.2138 15414.5 928.276 16618.8)
(16000.7 158.359 -241.173 15452.1 900.07 16618.8)
(15929.9 242.622 -393.803 15522.8 844.517 16618.8)
(15834.7 297.62 -534.47 15618 763.303 16618.7)
(15726.4 316.72 -658.897 15726.4 658.897 16618.8)
(15618 297.62 -763.303 15834.7 534.47 16618.7)
(15522.8 242.622 -844.517 15929.9 393.803 16618.8)
(15452.1 158.359 -900.07 16000.7 241.173 16618.8)
(15414.5 54.9974 -928.276 16038.3 81.2138 16618.8)
(-5302.63 -84.2097 -458.013 -4347.47 -40.071 -4068.66)
(-5245.04 -242.471 -444.096 -4405.09 -118.996 -4068.68)
(-5136.75 -371.488 -416.686 -4513.32 -194.305 -4068.65)
(-4990.98 -455.698 -376.616 -4659.26 -263.709 -4068.73)
(-4825.14 -484.944 -325.102 -4825.14 -325.102 -4068.75)
(-4659.26 -455.698 -263.709 -4990.98 -376.616 -4068.73)
(-4513.32 -371.488 -194.305 -5136.75 -416.686 -4068.65)
(-4405.09 -242.471 -118.996 -5245.04 -444.096 -4068.68)
(-4347.47 -84.2097 -40.071 -5302.63 -458.013 -4068.66)
(-4347.47 84.2097 40.071 -5302.63 -458.013 -4068.66)
(-4405.09 242.471 118.996 -5245.04 -444.096 -4068.68)
(-4513.32 371.488 194.305 -5136.75 -416.686 -4068.65)
(-4659.26 455.698 263.709 -4990.98 -376.616 -4068.73)
(-4825.14 484.944 325.102 -4825.14 -325.102 -4068.75)
(-4990.98 455.698 376.616 -4659.26 -263.709 -4068.73)
(-5136.75 371.488 416.686 -4513.32 -194.305 -4068.65)
(-5245.04 242.471 444.096 -4405.09 -118.996 -4068.68)
(-5302.63 84.2097 458.013 -4347.47 -40.071 -4068.66)
(-5302.63 -84.2097 458.013 -4347.47 40.071 -4068.66)
(-5245.04 -242.471 444.096 -4405.09 118.996 -4068.68)
(-5136.75 -371.488 416.686 -4513.32 194.305 -4068.65)
(-4990.98 -455.698 376.616 -4659.26 263.709 -4068.73)
(-4825.14 -484.944 325.102 -4825.14 325.102 -4068.75)
(-4659.26 -455.698 263.709 -4990.98 376.616 -4068.73)
(-4513.32 -371.488 194.305 -5136.75 416.686 -4068.65)
(-4405.09 -242.471 118.996 -5245.04 444.096 -4068.68)
(-4347.47 -84.2097 40.071 -5302.63 458.013 -4068.66)
(-4347.47 84.2097 -40.071 -5302.63 458.013 -4068.66)
(-4405.09 242.471 -118.996 -5245.04 444.096 -4068.68)
(-4513.32 371.488 -194.305 -5136.75 416.686 -4068.65)
(-4659.26 455.698 -263.709 -4990.98 376.616 -4068.73)
(-4825.14 484.944 -325.102 -4825.14 325.102 -4068.75)
(-4990.98 455.698 -376.616 -4659.26 263.709 -4068.73)
(-5136.75 371.488 -416.686 -4513.32 194.305 -4068.65)
(-5245.04 242.471 -444.096 -4405.09 118.996 -4068.68)
(-5302.63 84.2097 -458.013 -4347.47 40.071 -4068.66)
(-1324.46 -105.39 -573.564 -129.061 -50.1804 109.785)
(-1252.35 -303.459 -556.136 -201.14 -149.016 109.797)
(-1116.86 -464.927 -521.811 -336.617 -243.324 109.808)
(-934.246 -570.318 -471.63 -519.088 -330.239 109.878)
(-726.699 -606.92 -407.12 -726.699 -407.12 109.846)
(-519.088 -570.318 -330.239 -934.246 -471.63 109.878)
(-336.617 -464.927 -243.324 -1116.86 -521.811 109.808)
(-201.14 -303.459 -149.016 -1252.35 -556.136 109.797)
(-129.061 -105.39 -50.1804 -1324.46 -573.564 109.785)
(-129.061 105.39 50.1804 -1324.46 -573.564 109.785)
(-201.14 303.459 149.016 -1252.35 -556.136 109.797)
(-336.617 464.927 243.324 -1116.86 -521.811 109.808)
(-519.088 570.318 330.239 -934.246 -471.63 109.878)
(-726.699 606.92 407.12 -726.699 -407.12 109.846)
(-934.246 570.318 471.63 -519.088 -330.239 109.878)
(-1116.86 464.927 521.811 -336.617 -243.324 109.808)
(-1252.35 303.459 556.136 -201.14 -149.016 109.797)
(-1324.46 105.39 573.564 -129.061 -50.1804 109.785)
(-1324.46 -105.39 573.564 -129.061 50.1804 109.785)
(-1252.35 -303.459 556.136 -201.14 149.016 109.797)
(-1116.86 -464.927 521.811 -336.617 243.324 109.808)
(-934.246 -570.318 471.63 -519.088 330.239 109.878)
(-726.699 -606.92 407.12 -726.699 407.12 109.846)
(-519.088 -570.318 330.239 -934.246 471.63 109.878)
(-336.617 -464.927 243.324 -1116.86 521.811 109.808)
(-201.14 -303.459 149.016 -1252.35 556.136 109.797)
(-129.061 -105.39 50.1804 -1324.46 573.564 109.785)
(-129.061 105.39 -50.1804 -1324.46 573.564 109.785)
(-201.14 303.459 -149.016 -1252.35 556.136 109.797)
(-336.617 464.927 -243.324 -1116.86 521.811 109.808)
(-519.088 570.318 -330.239 -934.246 471.63 109.878)
(-726.699 606.92 -407.12 -726.699 407.12 109.846)
(-934.246 570.318 -471.63 -519.088 330.239 109.878)
(-1116.86 464.927 -521.811 -336.617 243.324 109.808)
(-1252.35 303.459 -556.136 -201.14 149.016 109.797)
(-1324.46 105.39 -573.564 -129.061 50.1804 109.785)
(10602.8 -136.77 -721.134 12154.1 -63.0909 12252.1)
(10696.3 -393.811 -699.222 12060.5 -187.356 12252.1)
(10872.2 -603.354 -656.066 11884.7 -305.928 12252.1)
(11109 -740.125 -592.975 11647.7 -415.205 12252)
(11378.4 -787.625 -511.867 11378.4 -511.867 12252.1)
(11647.7 -740.125 -415.205 11109 -592.975 12252)
(11884.7 -603.354 -305.928 10872.2 -656.066 12252.1)
(12060.5 -393.811 -187.356 10696.3 -699.222 12252.1)
(12154.1 -136.77 -63.0909 10602.8 -721.134 12252.1)
(12154.1 136.77 63.0909 10602.8 -721.134 12252.1)
(12060.5 393.811 187.356 10696.3 -699.222 12252.1)
(11884.7 603.354 305.928 10872.2 -656.066 12252.1)
(11647.7 740.125 415.205 11109 -592.975 12252)
(11378.4 787.625 511.867 11378.4 -511.867 12252.1)
(11109 740.125 592.975 11647.7 -415.205 12252)
(10872.2 603.354 656.066 11884.7 -305.928 12252.1)
(10696.3 393.811 699.222 12060.5 -187.356 12252.1)
(10602.8 136.77 721.134 12154.1 -63.0909 12252.1)
(10602.8 -136.77 721.134 12154.1 63.0909 12252.1)
(10696.3 -393.811 699.222 12060.5 187.356 12252.1)
(10872.2 -603.354 656.066 11884.7 305.928 12252.1)
(11109 -740.125 592.975 11647.7 415.205 12252)
(11378.4 -787.625 511.867 11378.4 511.867 12252.1)
(11647.7 -740.125 415.205 11109 592.975 12252)
(11884.7 -603.354 305.928 10872.2 656.066 12252.1)
(12060.5 -393.811 187.356 10696.3 699.222 12252.1)
(12154.1 -136.77 63.0909 10602.8 721.134 12252.1)
(12154.1 136.77 -63.0909 10602.8 721.134 12252.1)
(12060.5 393.811 -187.356 10696.3 699.222 12252.1)
(11884.7 603.354 -305.928 10872.2 656.066 12252.1)
(11647.7 740.125 -415.205 11109 592.975 12252)
(11378.4 787.625 -511.867 11378.4 511.867 12252.1)
(11109 740.125 -592.975 11647.7 415.205 12252)
(10872.2 603.354 -656.066 11884.7 305.928 12252.1)
(10696.3 393.811 -699.222 12060.5 187.356 12252.1)
(10602.8 136.77 -721.134 12154.1 63.0909 12252.1)
(-5162.32 -126.531 -308.271 -3727.14 -26.9706 -3545.98)
(-5075.77 -364.331 -298.905 -3813.69 -80.0916 -3545.98)
(-4913.06 -558.186 -280.456 -3976.31 -130.779 -3545.94)
(-4693.92 -684.718 -253.486 -4195.49 -177.493 -3545.96)
(-4444.68 -728.661 -218.813 -4444.68 -218.813 -3545.93)
(-4195.49 -684.718 -177.493 -4693.92 -253.486 -3545.96)
(-3976.31 -558.186 -130.779 -4913.06 -280.456 -3545.94)
(-3813.69 -364.331 -80.0916 -5075.77 -298.905 -3545.98)
(-3727.14 -126.531 -26.9706 -5162.32 -308.271 -3545.98)
(-3727.14 126.531 26.9706 -5162.32 -308.271 -3545.98)
(-3813.69 364.331 80.0916 -5075.77 -298.905 -3545.98)
(-3976.31 558.186 130.779 -4913.06 -280.456 -3545.94)
(-4195.49 684.718 177.493 -4693.92 -253.486 -3545.96)
(-4444.68 728.661 218.813 -4444.68 -218.813 -3545.93)
(-4693.92 684.718 253.486 -4195.49 -177.493 -3545.96)
(-4913.06 558.186 280.456 -3976.31 -130.779 -3545.94)
(-5075.77 364.331 298.905 -3813.69 -80.0916 -3545.98)
(-5162.32 126.531 308.271 -3727.14 -26.9706 -3545.98)
(-5162.32 -126.531 308.271 -3727.14 26.9706 -3545.98)
(-5075.77 -364.331 298.905 -3813.69 80.0916 -3545.98)
(-4913.06 -558.186 280.456 -3976.31 130.779 -3545.94)
(-4693.92 -684.718 253.486 -4195.49 177.493 -3545.96)
(-4444.68 -728.661 218.813 -4444.68 218.813 -3545.93)
(-4195.49 -684.718 177.493 -4693.92 253.486 -3545.96)
(-3976.31 -558.186 130.779 -4913.06 280.456 -3545.94)
(-3813.69 -364.331 80.0916 -5075.77 298.905 -3545.98)
(-3727.14 -126.531 26.9706 -5162.32 308.271 -3545.98)
(-3727.14 126.531 -26.9706 -5162.32 308.271 -3545.98)
(-3813.69 364.331 -80.0916 -5075.77 298.905 -3545.98)
(-3976.31 558.186 -130.779 -4913.06 280.456 -3545.94)
(-4195.49 684.718 -177.493 -4693.92 253.486 -3545.96)
(-4444.68 728.661 -218.813 -4444.68 218.813 -3545.93)
(-4693.92 684.718 -253.486 -4195.49 177.493 -3545.96)
(-4913.06 558.186 -280.456 -3976.31 130.779 -3545.94)
(-5075.77 364.331 -298.905 -3813.69 80.0916 -3545.98)
(-5162.32 126.531 -308.271 -3727.14 26.9706 -3545.98)
(-1777.3 -158.24 -378.726 17.536 -33.1343 2.29063)
(-1669.03 -455.632 -367.218 -90.6764 -98.3962 2.32103)
(-1465.62 -698.069 -344.553 -294.121 -160.668 2.3051)
(-1191.53 -856.308 -311.419 -568.188 -218.059 2.31483)
(-879.953 -911.265 -268.823 -879.953 -268.823 2.2208)
(-568.188 -856.308 -218.059 -1191.53 -311.419 2.31483)
(-294.121 -698.069 -160.668 -1465.62 -344.553 2.3051)
(-90.6764 -455.632 -98.3962 -1669.03 -367.218 2.32103)
(17.536 -158.24 -33.1343 -1777.3 -378.726 2.29063)
(17.536 158.24 33.1343 -1777.3 -378.726 2.29063)
(-90.6764 455.632 98.3962 -1669.03 -367.218 2.32103)
(-294.121 698.069 160.668 -1465.62 -344.553 2.3051)
(-568.188 856.308 218.059 -1191.53 -311.419 2.31483)
(-879.953 911.265 268.823 -879.953 -268.823 2.2208)
(-1191.53 856.308 311.419 -568.188 -218.059 2.31483)
(-1465.62 698.069 344.553 -294.121 -160.668 2.3051)
(-1669.03 455.632 367.218 -90.6764 -98.3962 2.32103)
(-1777.3 158.24 378.726 17.536 -33.1343 2.29063)
(-1777.3 -158.24 378.726 17.536 33.1343 2.29063)
(-1669.03 -455.632 367.218 -90.6764 98.3962 2.32103)
(-1465.62 -698.069 344.553 -294.121 160.668 2.3051)
(-1191.53 -856.308 311.419 -568.188 218.059 2.31483)
(-879.953 -911.265 268.823 -879.953 268.823 2.2208)
(-568.188 -856.308 218.059 -1191.53 311.419 2.31483)
(-294.121 -698.069 160.668 -1465.62 344.553 2.3051)
(-90.6764 -455.632 98.3962 -1669.03 367.218 2.32103)
(17.536 -158.24 33.1343 -1777.3 378.726 2.29063)
(17.536 158.24 -33.1343 -1777.3 378.726 2.29063)
(-90.6764 455.632 -98.3962 -1669.03 367.218 2.32103)
(-294.121 698.069 -160.668 -1465.62 344.553 2.3051)
(-568.188 856.308 -218.059 -1191.53 311.419 2.31483)
(-879.953 911.265 -268.823 -879.953 268.823 2.2208)
(-1191.53 856.308 -311.419 -568.188 218.059 2.31483)
(-1465.62 698.069 -344.553 -294.121 160.668 2.3051)
(-1669.03 455.632 -367.218 -90.6764 98.3962 2.32103)
(-1777.3 158.24 -378.726 17.536 33.1343 2.29063)
(11906.4 -207.663 -468.243 14261.8 -40.9658 13878.9)
(12048.4 -597.94 -454.015 14119.8 -121.653 13878.9)
(12315.4 -916.098 -425.992 13852.8 -198.645 13879)
(12675.1 -1123.76 -385.026 13493.1 -269.599 13878.9)
(13084.2 -1195.88 -332.362 13084.2 -332.362 13879)
(13493.1 -1123.76 -269.599 12675.1 -385.026 13878.9)
(13852.8 -916.098 -198.645 12315.4 -425.992 13879)
(14119.8 -597.94 -121.653 12048.4 -454.015 13878.9)
(14261.8 -207.663 -40.9658 11906.4 -468.243 13878.9)
(14261.8 207.663 40.9658 11906.4 -468.243 13878.9)
(14119.8 597.94 121.653 12048.4 -454.015 13878.9)
(13852.8 916.098 198.645 12315.4 -425.992 13879)
(13493.1 1123.76 269.599 12675.1 -385.026 13878.9)
(13084.2 1195.88 332.362 13084.2 -332.362 13879)
(12675.1 1123.76 385.026 13493.1 -269.599 13878.9)
(12315.4 916.098 425.992 13852.8 -198.645 13879)
(12048.4 597.94 454.015 14119.8 -121.653 13878.9)
(11906.4 207.663 468.243 14261.8 -40.9658 13878.9)
(11906.4 -207.663 468.243 14261.8 40.9658 13878.9)
(12048.4 -597.94 454.015 14119.8 121.653 13878.9)
(12315.4 -916.098 425.992 13852.8 198.645 13879)
(12675.1 -1123.76 385.026 13493.1 269.599 13878.9)
(13084.2 -1195.88 332.362 13084.2 332.362 13879)
(13493.1 -1123.76 269.599 12675.1 385.026 13878.9)
(13852.8 -916.098 198.645 12315.4 425.992 13879)
(14119.8 -597.94 121.653 12048.4 454.015 13878.9)
(14261.8 -207.663 40.9658 11906.4 468.243 13878.9)
(14261.8 207.663 -40.9658 11906.4 468.243 13878.9)
(14119.8 597.94 -121.653 12048.4 454.015 13878.9)
(13852.8 916.098 -198.645 12315.4 425.992 13879)
(13493.1 1123.76 -269.599 12675.1 385.026 13878.9)
(13084.2 1195.88 -332.362 13084.2 332.362 13879)
(12675.1 1123.76 -385.026 13493.1 269.599 13878.9)
(12315.4 916.098 -425.992 13852.8 198.645 13879)
(12048.4 597.94 -454.015 14119.8 121.653 13878.9)
(11906.4 207.663 -468.243 14261.8 40.9658 13878.9)
(-5138.25 -157.297 -123.717 -3354.1 -10.8242 -3372.75)
(-5030.59 -452.917 -119.958 -3461.63 -32.1432 -3372.69)
(-4828.4 -693.91 -112.555 -3663.89 -52.4853 -3372.72)
(-4556 -851.207 -101.731 -3936.37 -71.2329 -3372.76)
(-4246.14 -905.835 -87.8158 -4246.14 -87.8158 -3372.72)
(-3936.37 -851.207 -71.2329 -4556 -101.731 -3372.76)
(-3663.89 -693.91 -52.4853 -4828.4 -112.555 -3372.72)
(-3461.63 -452.917 -32.1432 -5030.59 -119.958 -3372.69)
(-3354.1 -157.297 -10.8242 -5138.25 -123.717 -3372.75)
(-3354.1 157.297 10.8242 -5138.25 -123.717 -3372.75)
(-3461.63 452.917 32.1432 -5030.59 -119.958 -3372.69)
(-3663.89 693.91 52.4853 -4828.4 -112.555 -3372.72)
(-3936.37 851.207 71.2329 -4556 -101.731 -3372.76)
(-4246.14 905.835 87.8158 -4246.14 -87.8158 -3372.72)
(-4556 851.207 101.731 -3936.37 -71.2329 -3372.76)
(-4828.4 693.91 112.555 -3663.89 -52.4853 -3372.72)
(-5030.59 452.917 119.958 -3461.63 -32.1432 -3372.69)
(-5138.25 157.297 123.717 -3354.1 -10.8242 -3372.75)
(-5138.25 -157.297 123.717 -3354.1 10.8242 -3372.75)
(-5030.59 -452.917 119.958 -3461.63 32.1432 -3372.69)
(-4828.4 -693.91 112.555 -3663.89 52.4853 -3372.72)
(-4556 -851.207 101.731 -3936.37 71.2329 -3372.76)
(-4246.14 -905.835 87.8158 -4246.14 87.8158 -3372.72)
(-3936.37 -851.207 71.2329 -4556 101.731 -3372.76)
(-3663.89 -693.91 52.4853 -4828.4 112.555 -3372.72)
(-3461.63 -452.917 32.1432 -5030.59 119.958 -3372.69)
(-3354.1 -157.297 10.8242 -5138.25 123.717 -3372.75)
(-3354.1 157.297 -10.8242 -5138.25 123.717 -3372.75)
(-3461.63 452.917 -32.1432 -5030.59 119.958 -3372.69)
(-3663.89 693.91 -52.4853 -4828.4 112.555 -3372.72)
(-3936.37 851.207 -71.2329 -4556 101.731 -3372.76)
(-4246.14 905.835 -87.8158 -4246.14 87.8158 -3372.72)
(-4556 851.207 -101.731 -3936.37 71.2329 -3372.76)
(-4828.4 693.91 -112.555 -3663.89 52.4853 -3372.72)
(-5030.59 452.917 -119.958 -3461.63 32.1432 -3372.69)
(-5138.25 157.297 -123.717 -3354.1 10.8242 -3372.75)
(-2043.94 -197.431 -154.427 195.433 -13.511 -139.36)
(-1908.88 -568.479 -149.736 60.3888 -40.1219 -139.353)
(-1655.07 -870.961 -140.494 -193.426 -65.5137 -139.356)
(-1313.13 -1068.39 -126.983 -535.407 -88.9153 -139.378)
(-924.197 -1136.96 -109.615 -924.197 -109.615 -139.306)
(-535.407 -1068.39 -88.9153 -1313.13 -126.983 -139.378)
(-193.426 -870.961 -65.5137 -1655.07 -140.494 -139.356)
(60.3888 -568.479 -40.1219 -1908.88 -149.736 -139.353)
(195.433 -197.431 -13.511 -2043.94 -154.427 -139.36)
(195.433 197.431 13.511 -2043.94 -154.427 -139.36)
(60.3888 568.479 40.1219 -1908.88 -149.736 -139.353)
(-193.426 870.961 65.5137 -1655.07 -140.494 -139.356)
(-535.407 1068.39 88.9153 -1313.13 -126.983 -139.378)
(-924.197 1136.96 109.615 -924.197 -109.615 -139.306)
(-1313.13 1068.39 126.983 -535.407 -88.9153 -139.378)
(-1655.07 870.961 140.494 -193.426 -65.5137 -139.356)
(-1908.88 568.479 149.736 60.3888 -40.1219 -139.353)
(-2043.94 197.431 154.427 195.433 -13.511 -139.36)
(-2043.94 -197.431 154.427 195.433 13.511 -139.36)
(-1908.88 -568.479 149.736 60.3888 40.1219 -139.353)
(-1655.07 -870.961 140.494 -193.426 65.5137 -139.356)
(-1313.13 -1068.39 126.983 -535.407 88.9153 -139.378)
(-924.197 -1136.96 109.615 -924.197 109.615 -139.306)
(-535.407 -1068.39 88.9153 -1313.13 126.983 -139.378)
(-193.426 -870.961 65.5137 -1655.07 140.494 -139.356)
(60.3888 -568.479 40.1219 -1908.88 149.736 -139.353)
(195.433 -197.431 13.511 -2043.94 154.427 -139.36)
(195.433 197.431 -13.511 -2043.94 154.427 -139.36)
(60.3888 568.479 -40.1219 -1908.88 149.736 -139.353)
(-193.426 870.961 -65.5137 -1655.07 140.494 -139.356)
(-535.407 1068.39 -88.9153 -1313.13 126.983 -139.378)
(-924.197 1136.96 -109.615 -924.197 109.615 -139.306)
(-1313.13 1068.39 -126.983 -535.407 88.9153 -139.378)
(-1655.07 870.961 -140.494 -193.426 65.5137 -139.356)
(-1908.88 568.479 -149.736 60.3888 40.1219 -139.353)
(-2043.94 197.431 -154.427 195.433 13.511 -139.36)
(12890.9 -261.774 -198.519 15860.1 -17.3686 14976.1)
(13070.1 -753.749 -192.488 15681.1 -51.5775 14976.2)
(13406.5 -1154.81 -180.607 15344.5 -84.219 14976.1)
(13859.9 -1416.59 -163.239 14891.1 -114.302 14976.1)
(14375.6 -1507.5 -140.912 14375.6 -140.912 14976.2)
(14891.1 -1416.59 -114.302 13859.9 -163.239 14976.1)
(15344.5 -1154.81 -84.219 13406.5 -180.607 14976.1)
(15681.1 -753.749 -51.5775 13070.1 -192.488 14976.2)
(15860.1 -261.774 -17.3686 12890.9 -198.519 14976.1)
(15860.1 261.774 17.3686 12890.9 -198.519 14976.1)
(15681.1 753.749 51.5775 13070.1 -192.488 14976.2)
(15344.5 1154.81 84.219 13406.5 -180.607 14976.1)
(14891.1 1416.59 114.302 13859.9 -163.239 14976.1)
(14375.6 1507.5 140.912 14375.6 -140.912 14976.2)
(13859.9 1416.59 163.239 14891.1 -114.302 14976.1)
(13406.5 1154.81 180.607 15344.5 -84.219 14976.1)
(13070.1 753.749 192.488 15681.1 -51.5775 14976.2)
(12890.9 261.774 198.519 15860.1 -17.3686 14976.1)
(12890.9 -261.774 198.519 15860.1 17.3686 14976.1)
(13070.1 -753.749 192.488 15681.1 51.5775 14976.2)
(13406.5 -1154.81 180.607 15344.5 84.219 14976.1)
(13859.9 -1416.59 163.239 14891.1 114.302 14976.1)
(14375.6 -1507.5 140.912 14375.6 140.912 14976.2)
(14891.1 -1416.59 114.302 13859.9 163.239 14976.1)
(15344.5 -1154.81 84.219 13406.5 180.607 14976.1)
(15681.1 -753.749 51.5775 13070.1 192.488 14976.2)
(15860.1 -261.774 17.3686 12890.9 198.519 14976.1)
(15860.1 261.774 -17.3686 12890.9 198.519 14976.1)
(15681.1 753.749 -51.5775 13070.1 192.488 14976.2)
(15344.5 1154.81 -84.219 13406.5 180.607 14976.1)
(14891.1 1416.59 -114.302 13859.9 163.239 14976.1)
(14375.6 1507.5 -140.912 14375.6 140.912 14976.2)
(13859.9 1416.59 -163.239 14891.1 114.302 14976.1)
(13406.5 1154.81 -180.607 15344.5 84.219 14976.1)
(13070.1 753.749 -192.488 15681.1 51.5775 14976.2)
(12890.9 261.774 -198.519 15860.1 17.3686 14976.1)
(-5137.72 -175.763 74.1686 -3144.12 6.48862 -3399.32)
(-5017.45 -506.089 71.9145 -3264.31 19.2686 -3399.28)
(-4791.53 -775.374 67.4759 -3490.31 31.4636 -3399.32)
(-4487.08 -951.137 60.9867 -3794.71 42.7026 -3399.29)
(-4140.94 -1012.18 52.6443 -4140.94 52.6443 -3399.34)
(-3794.71 -951.137 42.7026 -4487.08 60.9867 -3399.29)
(-3490.31 -775.374 31.4636 -4791.53 67.4759 -3399.32)
(-3264.31 -506.089 19.2686 -5017.45 71.9145 -3399.28)
(-3144.12 -175.763 6.48862 -5137.72 74.1686 -3399.32)
(-3144.12 175.763 -6.48862 -5137.72 74.1686 -3399.32)
(-3264.31 506.089 -19.2686 -5017.45 71.9145 -3399.28)
(-3490.31 775.374 -31.4636 -4791.53 67.4759 -3399.32)
(-3794.71 951.137 -42.7026 -4487.08 60.9867 -3399.29)
(-4140.94 1012.18 -52.6443 -4140.94 52.6443 -3399.34)
(-4487.08 951.137 -60.9867 -3794.71 42.7026 -3399.29)
(-4791.53 775.374 -67.4759 -3490.31 31.4636 -3399.32)
(-5017.45 506.089 -71.9145 -3264.31 19.2686 -3399.28)
(-5137.72 175.763 -74.1686 -3144.12 6.48862 -3399.32)
(-5137.72 -175.763 -74.1686 -3144.12 -6.48862 -3399.32)
(-5017.45 -506.089 -71.9145 -3264.31 -19.2686 -3399.28)
(-4791.53 -775.374 -67.4759 -3490.31 -31.4636 -3399.32)
(-4487.08 -951.137 -60.9867 -3794.71 -42.7026 -3399.29)
(-4140.94 -1012.18 -52.6443 -4140.94 -52.6443 -3399.34)
(-3794.71 -951.137 -42.7026 -4487.08 -60.9867 -3399.29)
(-3490.31 -775.374 -31.4636 -4791.53 -67.4759 -3399.32)
(-3264.31 -506.089 -19.2686 -5017.45 -71.9145 -3399.28)
(-3144.12 -175.763 -6.48862 -5137.72 -74.1686 -3399.32)
(-3144.12 175.763 6.48862 -5137.72 -74.1686 -3399.32)
(-3264.31 506.089 19.2686 -5017.45 -71.9145 -3399.28)
(-3490.31 775.374 31.4636 -4791.53 -67.4759 -3399.32)
(-3794.71 951.137 42.7026 -4487.08 -60.9867 -3399.29)
(-4140.94 1012.18 52.6443 -4140.94 -52.6443 -3399.34)
(-4487.08 951.137 60.9867 -3794.71 -42.7026 -3399.29)
(-4791.53 775.374 67.4759 -3490.31 -31.4636 -3399.32)
(-5017.45 506.089 71.9145 -3264.31 -19.2686 -3399.28)
(-5137.72 175.763 74.1686 -3144.12 -6.48862 -3399.32)
(-2041.67 -221.65 72.1145 472.406 6.30886 -172.982)
(-1889.98 -638.216 69.9233 320.86 18.7351 -172.911)
(-1605.11 -977.803 65.608 35.8356 30.5923 -172.987)
(-1221.2 -1199.45 59.2983 -348.074 41.5207 -172.988)
(-784.606 -1276.43 51.187 -784.606 51.187 -172.955)
(-348.074 -1199.45 41.5207 -1221.2 59.2983 -172.988)
(35.8356 -977.803 30.5923 -1605.11 65.608 -172.987)
(320.86 -638.216 18.7351 -1889.98 69.9233 -172.911)
(472.406 -221.65 6.30886 -2041.67 72.1145 -172.982)
(472.406 221.65 -6.30886 -2041.67 72.1145 -172.982)
(320.86 638.216 -18.7351 -1889.98 69.9233 -172.911)
(35.8356 977.803 -30.5923 -1605.11 65.608 -172.987)
(-348.074 1199.45 -41.5207 -1221.2 59.2983 -172.988)
(-784.606 1276.43 -51.187 -784.606 51.187 -172.955)
(-1221.2 1199.45 -59.2983 -348.074 41.5207 -172.988)
(-1605.11 977.803 -65.608 35.8356 30.5923 -172.987)
(-1889.98 638.216 -69.9233 320.86 18.7351 -172.911)
(-2041.67 221.65 -72.1145 472.406 6.30886 -172.982)
(-2041.67 -221.65 -72.1145 472.406 -6.30886 -172.982)
(-1889.98 -638.216 -69.9233 320.86 -18.7351 -172.911)
(-1605.11 -977.803 -65.608 35.8356 -30.5923 -172.987)
(-1221.2 -1199.45 -59.2983 -348.074 -41.5207 -172.988)
(-784.606 -1276.43 -51.187 -784.606 -51.187 -172.955)
(-348.074 -1199.45 -41.5207 -1221.2 -59.2983 -172.988)
(35.8356 -977.803 -30.5923 -1605.11 -65.608 -172.987)
(320.86 -638.216 -18.7351 -1889.98 -69.9233 -172.911)
(472.406 -221.65 -6.30886 -2041.67 -72.1145 -172.982)
(472.406 221.65 6.30886 -2041.67 -72.1145 -172.982)
(320.86 638.216 18.7351 -1889.98 -69.9233 -172.911)
(35.8356 977.803 30.5923 -1605.11 -65.608 -172.987)
(-348.074 1199.45 41.5207 -1221.2 -59.2983 -172.988)
(-784.606 1276.43 51.187 -784.606 -51.187 -172.955)
(-1221.2 1199.45 59.2983 -348.074 -41.5207 -172.988)
(-1605.11 977.803 65.608 35.8356 -30.5923 -172.987)
(-1889.98 638.216 69.9233 320.86 -18.7351 -172.911)
(-2041.67 221.65 72.1145 472.406 -6.30886 -172.982)
(13861.1 -296.863 62.9882 17228.2 5.51045 15909.4)
(14064.1 -854.784 61.0741 17025.2 16.3638 15909.5)
(14445.8 -1309.61 57.3047 16643.5 26.7202 15909.4)
(14960 -1606.47 51.7935 16129.4 36.2657 15909.4)
(15544.6 -1709.57 44.7088 15544.6 44.7088 15909.4)
(16129.4 -1606.47 36.2657 14960 51.7935 15909.4)
(16643.5 -1309.61 26.7202 14445.8 57.3047 15909.4)
(17025.2 -854.784 16.3638 14064.1 61.0741 15909.5)
(17228.2 -296.863 5.51045 13861.1 62.9882 15909.4)
(17228.2 296.863 -5.51045 13861.1 62.9882 15909.4)
(17025.2 854.784 -16.3638 14064.1 61.0741 15909.5)
(16643.5 1309.61 -26.7202 14445.8 57.3047 15909.4)
(16129.4 1606.47 -36.2657 14960 51.7935 15909.4)
(15544.6 1709.57 -44.7088 15544.6 44.7088 15909.4)
(14960 1606.47 -51.7935 16129.4 36.2657 15909.4)
(14445.8 1309.61 -57.3047 16643.5 26.7202 15909.4)
(14064.1 854.784 -61.0741 17025.2 16.3638 15909.5)
(13861.1 296.863 -62.9882 17228.2 5.51045 15909.4)
(13861.1 -296.863 -62.9882 17228.2 -5.51045 15909.4)
(14064.1 -854.784 -61.0741 17025.2 -16.3638 15909.5)
(14445.8 -1309.61 -57.3047 16643.5 -26.7202 15909.4)
(14960 -1606.47 -51.7935 16129.4 -36.2657 15909.4)
(15544.6 -1709.57 -44.7088 15544.6 -44.7088 15909.4)
(16129.4 -1606.47 -36.2657 14960 -51.7935 15909.4)
(16643.5 -1309.61 -26.7202 14445.8 -57.3047 15909.4)
(17025.2 -854.784 -16.3638 14064.1 -61.0741 15909.5)
(17228.2 -296.863 -5.51045 13861.1 -62.9882 15909.4)
(17228.2 296.863 5.51045 13861.1 -62.9882 15909.4)
(17025.2 854.784 16.3638 14064.1 -61.0741 15909.5)
(16643.5 1309.61 26.7202 14445.8 -57.3047 15909.4)
(16129.4 1606.47 36.2657 14960 -51.7935 15909.4)
(15544.6 1709.57 44.7088 15544.6 -44.7088 15909.4)
(14960 1606.47 51.7935 16129.4 -36.2657 15909.4)
(14445.8 1309.61 57.3047 16643.5 -26.7202 15909.4)
(14064.1 854.784 61.0741 17025.2 -16.3638 15909.5)
(13861.1 296.863 62.9882 17228.2 -5.51045 15909.4)
(-5235.54 -181.472 261.963 -3177.17 22.9186 -3650.58)
(-5111.34 -522.528 254.004 -3301.25 68.0593 -3650.52)
(-4878.06 -800.56 238.326 -3534.56 111.132 -3650.54)
(-4563.71 -982.032 215.407 -3848.85 150.828 -3650.51)
(-4206.27 -1045.06 185.942 -4206.27 185.942 -3650.5)
(-3848.85 -982.032 150.828 -4563.71 215.407 -3650.51)
(-3534.56 -800.56 111.132 -4878.06 238.326 -3650.54)
(-3301.25 -522.528 68.0593 -5111.34 254.004 -3650.52)
(-3177.17 -181.472 22.9186 -5235.54 261.963 -3650.58)
(-3177.17 181.472 -22.9186 -5235.54 261.963 -3650.58)
(-3301.25 522.528 -68.0593 -5111.34 254.004 -3650.52)
(-3534.56 800.56 -111.132 -4878.06 238.326 -3650.54)
(-3848.85 982.032 -150.828 -4563.71 215.407 -3650.51)
(-4206.27 1045.06 -185.942 -4206.27 185.942 -3650.5)
(-4563.71 982.032 -215.407 -3848.85 150.828 -3650.51)
(-4878.06 800.56 -238.326 -3534.56 111.132 -3650.54)