/*--------------------------------*- C++ -*----------------------------------*\
| =========                 |                                                 |
| \\      /  F ield         | OpenFOAM: The Open Source CFD Toolbox           |
|  \\    /   O peration     | Version:  2312                                  |
|   \\  /    A nd           | Website:  www.openfoam.com                      |
|    \\/     M anipulation  |                                                 |
\*---------------------------------------------------------------------------*/
FoamFile
{
    version     2.0;
    format      ascii;
    arch        "LSB;label=32;scalar=64";
    class       volVectorField;
    location    "0.5";
    object      D;
}
// * * * * * * * * * * * * * * * * * * * * * * * * * * * * * * * * * * * * * //

dimensions      [0 1 0 0 0 0 0];

internalField   nonuniform List<vector> 
12960
(
(0.000100983 -0.000125734 3.53129e-06)
(0.000111557 -0.000116455 3.53129e-06)
(0.000121282 -0.000106289 3.53131e-06)
(0.000130084 -9.53134e-05 3.53124e-06)
(0.000137896 -8.36134e-05 3.53124e-06)
(0.000144659 -7.12766e-05 3.5313e-06)
(0.00015032 -5.83976e-05 3.53128e-06)
(0.000154838 -4.50741e-05 3.53114e-06)
(0.000158177 -3.14075e-05 3.53107e-06)
(0.000160313 -1.7502e-05 3.53118e-06)
(0.000161228 -3.46317e-06 3.53128e-06)
(0.000160916 1.06021e-05 3.53137e-06)
(0.00015938 2.45865e-05 3.5314e-06)
(0.000156631 3.83839e-05 3.53139e-06)
(0.000152689 5.18891e-05 3.5313e-06)
(0.000147586 6.49995e-05 3.5313e-06)
(0.000141359 7.7615e-05 3.53128e-06)
(0.000134057 8.964e-05 3.53119e-06)
(0.000125734 0.000100983 3.53129e-06)
(0.000116455 0.000111557 3.53129e-06)
(0.000106289 0.000121282 3.53131e-06)
(9.53134e-05 0.000130084 3.53124e-06)
(8.36134e-05 0.000137896 3.53124e-06)
(7.12766e-05 0.000144659 3.5313e-06)
(5.83976e-05 0.00015032 3.53128e-06)
(4.50741e-05 0.000154838 3.53114e-06)
(3.14075e-05 0.000158177 3.53107e-06)
(1.7502e-05 0.000160313 3.53118e-06)
(3.46317e-06 0.000161228 3.53128e-06)
(-1.06021e-05 0.000160916 3.53137e-06)
(-2.45865e-05 0.00015938 3.5314e-06)
(-3.83839e-05 0.000156631 3.53139e-06)
(-5.18891e-05 0.000152689 3.5313e-06)
(-6.49995e-05 0.000147586 3.5313e-06)
(-7.7615e-05 0.000141359 3.53128e-06)
(-8.964e-05 0.000134057 3.53119e-06)
(-0.000100983 0.000125734 3.53129e-06)
(-0.000111557 0.000116455 3.53129e-06)
(-0.000121282 0.000106289 3.53131e-06)
(-0.000130084 9.53134e-05 3.53124e-06)
(-0.000137896 8.36134e-05 3.53124e-06)
(-0.000144659 7.12766e-05 3.5313e-06)
(-0.00015032 5.83976e-05 3.53128e-06)
(-0.000154838 4.50741e-05 3.53114e-06)
(-0.000158177 3.14075e-05 3.53107e-06)
(-0.000160313 1.7502e-05 3.53118e-06)
(-0.000161228 3.46317e-06 3.53128e-06)
(-0.000160916 -1.06021e-05 3.53137e-06)
(-0.00015938 -2.45865e-05 3.5314e-06)
(-0.000156631 -3.83839e-05 3.53139e-06)
(-0.000152689 -5.18891e-05 3.5313e-06)
(-0.000147586 -6.49995e-05 3.5313e-06)
(-0.000141359 -7.7615e-05 3.53128e-06)
(-0.000134057 -8.964e-05 3.53119e-06)
(-0.000125734 -0.000100983 3.53129e-06)
(-0.000116455 -0.000111557 3.53129e-06)
(-0.000106289 -0.000121282 3.53131e-06)
(-9.53134e-05 -0.000130084 3.53124e-06)
(-8.36134e-05 -0.000137896 3.53124e-06)
(-7.12766e-05 -0.000144659 3.5313e-06)
(-5.83976e-05 -0.00015032 3.53128e-06)
(-4.50741e-05 -0.000154838 3.53114e-06)
(-3.14075e-05 -0.000158177 3.53107e-06)
(-1.7502e-05 -0.000160313 3.53118e-06)
(-3.46317e-06 -0.000161228 3.53128e-06)
(1.06021e-05 -0.000160916 3.53137e-06)
(2.45865e-05 -0.00015938 3.5314e-06)
(3.83839e-05 -0.000156631 3.53139e-06)
(5.18891e-05 -0.000152689 3.5313e-06)
(6.49995e-05 -0.000147586 3.5313e-06)
(7.7615e-05 -0.000141359 3.53128e-06)
(8.964e-05 -0.000134057 3.53119e-06)
(9.00919e-05 -0.000140991 1.4614e-05)
(0.000102037 -0.000132602 1.4614e-05)
(0.000113206 -0.000123205 1.4614e-05)
(0.000123513 -0.00011287 1.46141e-05)
(0.000132881 -0.000101675 1.46141e-05)
(0.000141237 -8.97071e-05 1.46141e-05)
(0.000148518 -7.70562e-05 1.46141e-05)
(0.000154669 -6.38187e-05 1.4614e-05)
(0.000159642 -5.00955e-05 1.4614e-05)
(0.000163401 -3.59913e-05 1.4614e-05)
(0.000165916 -2.16131e-05 1.46141e-05)
(0.000167168 -7.07015e-06 1.46141e-05)
(0.000167148 7.52636e-06 1.46141e-05)
(0.000165856 2.20656e-05 1.46141e-05)
(0.000163302 3.64369e-05 1.46141e-05)
(0.000159504 5.05309e-05 1.46141e-05)
(0.000154493 6.42403e-05 1.4614e-05)
(0.000148307 7.74609e-05 1.4614e-05)
(0.000140991 9.00919e-05 1.4614e-05)
(0.000132602 0.000102037 1.4614e-05)
(0.000123205 0.000113206 1.4614e-05)
(0.00011287 0.000123513 1.46141e-05)
(0.000101675 0.000132881 1.46141e-05)
(8.97071e-05 0.000141237 1.46141e-05)
(7.70562e-05 0.000148518 1.46141e-05)
(6.38187e-05 0.000154669 1.4614e-05)
(5.00955e-05 0.000159642 1.4614e-05)
(3.59913e-05 0.000163401 1.4614e-05)
(2.16131e-05 0.000165916 1.46141e-05)
(7.07015e-06 0.000167168 1.46141e-05)
(-7.52636e-06 0.000167148 1.46141e-05)
(-2.20656e-05 0.000165856 1.46141e-05)
(-3.64369e-05 0.000163302 1.46141e-05)
(-5.05309e-05 0.000159504 1.46141e-05)
(-6.42403e-05 0.000154493 1.4614e-05)
(-7.74609e-05 0.000148307 1.4614e-05)
(-9.00919e-05 0.000140991 1.4614e-05)
(-0.000102037 0.000132602 1.4614e-05)
(-0.000113206 0.000123205 1.4614e-05)
(-0.000123513 0.00011287 1.46141e-05)
(-0.000132881 0.000101675 1.46141e-05)
(-0.000141237 8.97071e-05 1.46141e-05)
(-0.000148518 7.70562e-05 1.46141e-05)
(-0.000154669 6.38187e-05 1.4614e-05)
(-0.000159642 5.00955e-05 1.4614e-05)
(-0.000163401 3.59913e-05 1.4614e-05)
(-0.000165916 2.16131e-05 1.46141e-05)
(-0.000167168 7.07015e-06 1.46141e-05)
(-0.000167148 -7.52636e-06 1.46141e-05)
(-0.000165856 -2.20656e-05 1.46141e-05)
(-0.000163302 -3.64369e-05 1.46141e-05)
(-0.000159504 -5.05309e-05 1.46141e-05)
(-0.000154493 -6.42403e-05 1.4614e-05)
(-0.000148307 -7.74609e-05 1.4614e-05)
(-0.000140991 -9.00919e-05 1.4614e-05)
(-0.000132602 -0.000102037 1.4614e-05)
(-0.000123205 -0.000113206 1.4614e-05)
(-0.00011287 -0.000123513 1.46141e-05)
(-0.000101675 -0.000132881 1.46141e-05)
(-8.97071e-05 -0.000141237 1.46141e-05)
(-7.70562e-05 -0.000148518 1.46141e-05)
(-6.38187e-05 -0.000154669 1.4614e-05)
(-5.00955e-05 -0.000159642 1.4614e-05)
(-3.59913e-05 -0.000163401 1.4614e-05)
(-2.16131e-05 -0.000165916 1.46141e-05)
(-7.07015e-06 -0.000167168 1.46141e-05)
(7.52636e-06 -0.000167148 1.46141e-05)
(2.20656e-05 -0.000165856 1.46141e-05)
(3.64369e-05 -0.000163302 1.46141e-05)
(5.05309e-05 -0.000159504 1.46141e-05)
(6.42403e-05 -0.000154493 1.4614e-05)
(7.74609e-05 -0.000148307 1.4614e-05)
(7.29734e-05 -0.000155471 1.98312e-05)
(8.62459e-05 -0.000148519 1.98312e-05)
(9.8862e-05 -0.000140437 1.98312e-05)
(0.000110726 -0.000131286 1.98312e-05)
(0.000121747 -0.000121137 1.98313e-05)
(0.000131841 -0.000110064 1.98312e-05)
(0.000140932 -9.81548e-05 1.98312e-05)
(0.000148951 -8.54984e-05 1.98312e-05)
(0.000155835 -7.21911e-05 1.98312e-05)
(0.000161534 -5.83345e-05 1.98312e-05)
(0.000166004 -4.40339e-05 1.98312e-05)
(0.000169209 -2.93981e-05 1.98312e-05)
(0.000171128 -1.45387e-05 1.98312e-05)
(0.000171744 4.31545e-07 1.98313e-05)
(0.000171053 1.53983e-05 1.98312e-05)
(0.00016906 3.02481e-05 1.98312e-05)
(0.00016578 4.48675e-05 1.98313e-05)
(0.000161239 5.91455e-05 1.98312e-05)
(0.000155471 7.29734e-05 1.98312e-05)
(0.000148519 8.62459e-05 1.98312e-05)
(0.000140437 9.8862e-05 1.98312e-05)
(0.000131286 0.000110726 1.98312e-05)
(0.000121137 0.000121747 1.98313e-05)
(0.000110064 0.000131841 1.98312e-05)
(9.81548e-05 0.000140932 1.98312e-05)
(8.54984e-05 0.000148951 1.98312e-05)
(7.21911e-05 0.000155835 1.98312e-05)
(5.83345e-05 0.000161534 1.98312e-05)
(4.40339e-05 0.000166004 1.98312e-05)
(2.93981e-05 0.000169209 1.98312e-05)
(1.45387e-05 0.000171128 1.98312e-05)
(-4.31545e-07 0.000171744 1.98313e-05)
(-1.53983e-05 0.000171053 1.98312e-05)
(-3.02481e-05 0.00016906 1.98312e-05)
(-4.48675e-05 0.00016578 1.98313e-05)
(-5.91455e-05 0.000161239 1.98312e-05)
(-7.29734e-05 0.000155471 1.98312e-05)
(-8.62459e-05 0.000148519 1.98312e-05)
(-9.8862e-05 0.000140437 1.98312e-05)
(-0.000110726 0.000131286 1.98312e-05)
(-0.000121747 0.000121137 1.98313e-05)
(-0.000131841 0.000110064 1.98312e-05)
(-0.000140932 9.81548e-05 1.98312e-05)
(-0.000148951 8.54984e-05 1.98312e-05)
(-0.000155835 7.21911e-05 1.98312e-05)
(-0.000161534 5.83345e-05 1.98312e-05)
(-0.000166004 4.40339e-05 1.98312e-05)
(-0.000169209 2.93981e-05 1.98312e-05)
(-0.000171128 1.45387e-05 1.98312e-05)
(-0.000171744 -4.31545e-07 1.98313e-05)
(-0.000171053 -1.53983e-05 1.98312e-05)
(-0.00016906 -3.02481e-05 1.98312e-05)
(-0.00016578 -4.48675e-05 1.98313e-05)
(-0.000161239 -5.91455e-05 1.98312e-05)
(-0.000155471 -7.29734e-05 1.98312e-05)
(-0.000148519 -8.62459e-05 1.98312e-05)
(-0.000140437 -9.8862e-05 1.98312e-05)
(-0.000131286 -0.000110726 1.98312e-05)
(-0.000121137 -0.000121747 1.98313e-05)
(-0.000110064 -0.000131841 1.98312e-05)
(-9.81548e-05 -0.000140932 1.98312e-05)
(-8.54984e-05 -0.000148951 1.98312e-05)
(-7.21911e-05 -0.000155835 1.98312e-05)
(-5.83345e-05 -0.000161534 1.98312e-05)
(-4.40339e-05 -0.000166004 1.98312e-05)
(-2.93981e-05 -0.000169209 1.98312e-05)
(-1.45387e-05 -0.000171128 1.98312e-05)
(4.31545e-07 -0.000171744 1.98313e-05)
(1.53983e-05 -0.000171053 1.98312e-05)
(3.02481e-05 -0.00016906 1.98312e-05)
(4.48675e-05 -0.00016578 1.98313e-05)
(5.91455e-05 -0.000161239 1.98312e-05)
(5.08489e-05 -0.000167558 2.20411e-05)
(6.52591e-05 -0.000162489 2.20411e-05)
(7.91728e-05 -0.000156183 2.20412e-05)
(9.24833e-05 -0.000148688 2.20411e-05)
(0.00010509 -0.000140062 2.20412e-05)
(0.000116898 -0.00013037 2.20412e-05)
(0.000127815 -0.000119685 2.20412e-05)
(0.00013776 -0.00010809 2.20412e-05)
(0.000146657 -9.56725e-05 2.20411e-05)
(0.000154437 -8.25265e-05 2.20412e-05)
(0.000161042 -6.87521e-05 2.20412e-05)
(0.000166421 -5.44547e-05 2.20412e-05)
(0.000170534 -3.97429e-05 2.20412e-05)
(0.000173349 -2.47285e-05 2.20411e-05)
(0.000174844 -9.52611e-06 2.20411e-05)
(0.00017501 5.74882e-06 2.20412e-05)
(0.000173843 2.09801e-05 2.20411e-05)
(0.000171353 3.60517e-05 2.20411e-05)
(0.000167558 5.08489e-05 2.20411e-05)
(0.000162489 6.52591e-05 2.20411e-05)
(0.000156183 7.91728e-05 2.20412e-05)
(0.000148688 9.24833e-05 2.20411e-05)
(0.000140062 0.00010509 2.20412e-05)
(0.00013037 0.000116898 2.20412e-05)
(0.000119685 0.000127815 2.20412e-05)
(0.00010809 0.00013776 2.20412e-05)
(9.56725e-05 0.000146657 2.20411e-05)
(8.25265e-05 0.000154437 2.20412e-05)
(6.87521e-05 0.000161042 2.20412e-05)
(5.44547e-05 0.000166421 2.20412e-05)
(3.97429e-05 0.000170534 2.20412e-05)
(2.47285e-05 0.000173349 2.20411e-05)
(9.52611e-06 0.000174844 2.20411e-05)
(-5.74882e-06 0.00017501 2.20412e-05)
(-2.09801e-05 0.000173843 2.20411e-05)
(-3.60517e-05 0.000171353 2.20411e-05)
(-5.08489e-05 0.000167558 2.20411e-05)
(-6.52591e-05 0.000162489 2.20411e-05)
(-7.91728e-05 0.000156183 2.20412e-05)
(-9.24833e-05 0.000148688 2.20411e-05)
(-0.00010509 0.000140062 2.20412e-05)
(-0.000116898 0.00013037 2.20412e-05)
(-0.000127815 0.000119685 2.20412e-05)
(-0.00013776 0.00010809 2.20412e-05)
(-0.000146657 9.56725e-05 2.20411e-05)
(-0.000154437 8.25265e-05 2.20412e-05)
(-0.000161042 6.87521e-05 2.20412e-05)
(-0.000166421 5.44547e-05 2.20412e-05)
(-0.000170534 3.97429e-05 2.20412e-05)
(-0.000173349 2.47285e-05 2.20411e-05)
(-0.000174844 9.52611e-06 2.20411e-05)
(-0.00017501 -5.74882e-06 2.20412e-05)
(-0.000173843 -2.09801e-05 2.20411e-05)
(-0.000171353 -3.60517e-05 2.20411e-05)
(-0.000167558 -5.08489e-05 2.20411e-05)
(-0.000162489 -6.52591e-05 2.20411e-05)
(-0.000156183 -7.91728e-05 2.20412e-05)
(-0.000148688 -9.24833e-05 2.20411e-05)
(-0.000140062 -0.00010509 2.20412e-05)
(-0.00013037 -0.000116898 2.20412e-05)
(-0.000119685 -0.000127815 2.20412e-05)
(-0.00010809 -0.00013776 2.20412e-05)
(-9.56725e-05 -0.000146657 2.20411e-05)
(-8.25265e-05 -0.000154437 2.20412e-05)
(-6.87521e-05 -0.000161042 2.20412e-05)
(-5.44547e-05 -0.000166421 2.20412e-05)
(-3.97429e-05 -0.000170534 2.20412e-05)
(-2.47285e-05 -0.000173349 2.20411e-05)
(-9.52611e-06 -0.000174844 2.20411e-05)
(5.74882e-06 -0.00017501 2.20412e-05)
(2.09801e-05 -0.000173843 2.20411e-05)
(3.60517e-05 -0.000171353 2.20411e-05)
(2.2612e-05 -0.000176561 2.49003e-05)
(3.79143e-05 -0.000173919 2.49003e-05)
(5.29278e-05 -0.000169952 2.49003e-05)
(6.75388e-05 -0.000164693 2.49003e-05)
(8.16357e-05 -0.000158179 2.49003e-05)
(9.51113e-05 -0.000150463 2.49003e-05)
(0.000107863 -0.0001416 2.49003e-05)
(0.000119794 -0.000131661 2.49002e-05)
(0.000130813 -0.00012072 2.49003e-05)
(0.000140837 -0.000108859 2.49003e-05)
(0.000149788 -9.61695e-05 2.49002e-05)
(0.0001576 -8.27486e-05 2.49003e-05)
(0.000164212 -6.86981e-05 2.49002e-05)
(0.000169575 -5.41246e-05 2.49002e-05)
(0.000173647 -3.91394e-05 2.49003e-05)
(0.000176397 -2.38561e-05 2.49003e-05)
(0.000177806 -8.39118e-06 2.49003e-05)
(0.00017786 7.13755e-06 2.49003e-05)
(0.000176561 2.2612e-05 2.49003e-05)
(0.000173919 3.79143e-05 2.49003e-05)
(0.000169952 5.29278e-05 2.49003e-05)
(0.000164693 6.75388e-05 2.49003e-05)
(0.000158179 8.16357e-05 2.49003e-05)
(0.000150463 9.51113e-05 2.49003e-05)
(0.0001416 0.000107863 2.49003e-05)
(0.000131661 0.000119794 2.49002e-05)
(0.00012072 0.000130813 2.49003e-05)
(0.000108859 0.000140837 2.49003e-05)
(9.61695e-05 0.000149788 2.49002e-05)
(8.27486e-05 0.0001576 2.49003e-05)
(6.86981e-05 0.000164212 2.49002e-05)
(5.41246e-05 0.000169575 2.49002e-05)
(3.91394e-05 0.000173647 2.49003e-05)
(2.38561e-05 0.000176397 2.49003e-05)
(8.39118e-06 0.000177806 2.49003e-05)
(-7.13755e-06 0.00017786 2.49003e-05)
(-2.2612e-05 0.000176561 2.49003e-05)
(-3.79143e-05 0.000173919 2.49003e-05)
(-5.29278e-05 0.000169952 2.49003e-05)
(-6.75388e-05 0.000164693 2.49003e-05)
(-8.16357e-05 0.000158179 2.49003e-05)
(-9.51113e-05 0.000150463 2.49003e-05)
(-0.000107863 0.0001416 2.49003e-05)
(-0.000119794 0.000131661 2.49002e-05)
(-0.000130813 0.00012072 2.49003e-05)
(-0.000140837 0.000108859 2.49003e-05)
(-0.000149788 9.61695e-05 2.49002e-05)
(-0.0001576 8.27486e-05 2.49003e-05)
(-0.000164212 6.86981e-05 2.49002e-05)
(-0.000169575 5.41246e-05 2.49002e-05)
(-0.000173647 3.91394e-05 2.49003e-05)
(-0.000176397 2.38561e-05 2.49003e-05)
(-0.000177806 8.39118e-06 2.49003e-05)
(-0.00017786 -7.13755e-06 2.49003e-05)
(-0.000176561 -2.2612e-05 2.49003e-05)
(-0.000173919 -3.79143e-05 2.49003e-05)
(-0.000169952 -5.29278e-05 2.49003e-05)
(-0.000164693 -6.75388e-05 2.49003e-05)
(-0.000158179 -8.16357e-05 2.49003e-05)
(-0.000150463 -9.51113e-05 2.49003e-05)
(-0.0001416 -0.000107863 2.49003e-05)
(-0.000131661 -0.000119794 2.49002e-05)
(-0.00012072 -0.000130813 2.49003e-05)
(-0.000108859 -0.000140837 2.49003e-05)
(-9.61695e-05 -0.000149788 2.49002e-05)
(-8.27486e-05 -0.0001576 2.49003e-05)
(-6.86981e-05 -0.000164212 2.49002e-05)
(-5.41246e-05 -0.000169575 2.49002e-05)
(-3.91394e-05 -0.000173647 2.49003e-05)
(-2.38561e-05 -0.000176397 2.49003e-05)
(-8.39118e-06 -0.000177806 2.49003e-05)
(7.13755e-06 -0.00017786 2.49003e-05)
(-1.8863e-05 -0.000183756 2.80422e-05)
(-2.77577e-06 -0.0001847 2.80422e-05)
(1.33324e-05 -0.00018424 2.80422e-05)
(2.93396e-05 -0.000182378 2.80423e-05)
(4.51232e-05 -0.000179126 2.80422e-05)
(6.05633e-05 -0.000174512 2.80422e-05)
(7.55424e-05 -0.000168569 2.80421e-05)
(8.99463e-05 -0.000161343 2.80421e-05)
(0.000103666 -0.00015289 2.80422e-05)
(0.000116597 -0.000143273 2.80422e-05)
(0.00012864 -0.000132566 2.80422e-05)
(0.000139705 -0.00012085 2.80422e-05)
(0.000149706 -0.000108214 2.8042e-05)
(0.000158568 -9.47544e-05 2.8042e-05)
(0.000166223 -8.0574e-05 2.80421e-05)
(0.000172612 -6.57798e-05 2.80421e-05)
(0.000177688 -5.04851e-05 2.80421e-05)
(0.000181413 -3.48065e-05 2.80423e-05)
(0.000183756 -1.8863e-05 2.80422e-05)
(0.0001847 -2.77577e-06 2.80422e-05)
(0.00018424 1.33324e-05 2.80422e-05)
(0.000182378 2.93396e-05 2.80423e-05)
(0.000179126 4.51232e-05 2.80422e-05)
(0.000174512 6.05633e-05 2.80422e-05)
(0.000168569 7.55424e-05 2.80421e-05)
(0.000161343 8.99463e-05 2.80421e-05)
(0.00015289 0.000103666 2.80422e-05)
(0.000143273 0.000116597 2.80422e-05)
(0.000132566 0.00012864 2.80422e-05)
(0.00012085 0.000139705 2.80422e-05)
(0.000108214 0.000149706 2.8042e-05)
(9.47544e-05 0.000158568 2.8042e-05)
(8.0574e-05 0.000166223 2.80421e-05)
(6.57798e-05 0.000172612 2.80421e-05)
(5.04851e-05 0.000177688 2.80421e-05)
(3.48065e-05 0.000181413 2.80423e-05)
(1.8863e-05 0.000183756 2.80422e-05)
(2.77577e-06 0.0001847 2.80422e-05)
(-1.33324e-05 0.00018424 2.80422e-05)
(-2.93396e-05 0.000182378 2.80423e-05)
(-4.51232e-05 0.000179126 2.80422e-05)
(-6.05633e-05 0.000174512 2.80422e-05)
(-7.55424e-05 0.000168569 2.80421e-05)
(-8.99463e-05 0.000161343 2.80421e-05)
(-0.000103666 0.00015289 2.80422e-05)
(-0.000116597 0.000143273 2.80422e-05)
(-0.00012864 0.000132566 2.80422e-05)
(-0.000139705 0.00012085 2.80422e-05)
(-0.000149706 0.000108214 2.8042e-05)
(-0.000158568 9.47544e-05 2.8042e-05)
(-0.000166223 8.0574e-05 2.80421e-05)
(-0.000172612 6.57798e-05 2.80421e-05)
(-0.000177688 5.04851e-05 2.80421e-05)
(-0.000181413 3.48065e-05 2.80423e-05)
(-0.000183756 1.8863e-05 2.80422e-05)
(-0.0001847 2.77577e-06 2.80422e-05)
(-0.00018424 -1.33324e-05 2.80422e-05)
(-0.000182378 -2.93396e-05 2.80423e-05)
(-0.000179126 -4.51232e-05 2.80422e-05)
(-0.000174512 -6.05633e-05 2.80422e-05)
(-0.000168569 -7.55424e-05 2.80421e-05)
(-0.000161343 -8.99463e-05 2.80421e-05)
(-0.00015289 -0.000103666 2.80422e-05)
(-0.000143273 -0.000116597 2.80422e-05)
(-0.000132566 -0.00012864 2.80422e-05)
(-0.00012085 -0.000139705 2.80422e-05)
(-0.000108214 -0.000149706 2.8042e-05)
(-9.47544e-05 -0.000158568 2.8042e-05)
(-8.0574e-05 -0.000166223 2.80421e-05)
(-6.57798e-05 -0.000172612 2.80421e-05)
(-5.04851e-05 -0.000177688 2.80421e-05)
(-3.48065e-05 -0.000181413 2.80423e-05)
(0.00026042 -0.000385063 3.05004e-05)
(0.000292989 -0.000360901 3.05003e-05)
(0.000323329 -0.000333992 3.05005e-05)
(0.000351208 -0.000304541 3.05005e-05)
(0.000376414 -0.000272772 3.05004e-05)
(0.000398755 -0.000238928 3.05002e-05)
(0.000418061 -0.000203265 3.05003e-05)
(0.000434186 -0.000166055 3.05001e-05)
(0.000447007 -0.000127581 3.04999e-05)
(0.000456426 -8.81362e-05 3.05001e-05)
(0.00046237 -4.80207e-05 3.05004e-05)
(0.000464795 -7.53977e-06 3.05005e-05)
(0.000463684 3.29985e-05 3.05005e-05)
(0.000459043 7.32857e-05 3.05007e-05)
(0.000450909 0.000113015 3.05007e-05)
(0.000439343 0.000151884 3.05005e-05)
(0.000424434 0.000189598 3.05004e-05)
(0.000406294 0.000225868 3.05003e-05)
(0.000385063 0.00026042 3.05004e-05)
(0.000360901 0.000292989 3.05003e-05)
(0.000333992 0.000323329 3.05005e-05)
(0.000304541 0.000351208 3.05005e-05)
(0.000272772 0.000376414 3.05004e-05)
(0.000238928 0.000398755 3.05002e-05)
(0.000203265 0.000418061 3.05003e-05)
(0.000166055 0.000434186 3.05001e-05)
(0.000127581 0.000447007 3.04999e-05)
(8.81362e-05 0.000456426 3.05001e-05)
(4.80207e-05 0.00046237 3.05004e-05)
(7.53977e-06 0.000464795 3.05005e-05)
(-3.29985e-05 0.000463684 3.05005e-05)
(-7.32857e-05 0.000459043 3.05007e-05)
(-0.000113015 0.000450909 3.05007e-05)
(-0.000151884 0.000439343 3.05005e-05)
(-0.000189598 0.000424434 3.05004e-05)
(-0.000225868 0.000406294 3.05003e-05)
(-0.00026042 0.000385063 3.05004e-05)
(-0.000292989 0.000360901 3.05003e-05)
(-0.000323329 0.000333992 3.05005e-05)
(-0.000351208 0.000304541 3.05005e-05)
(-0.000376414 0.000272772 3.05004e-05)
(-0.000398755 0.000238928 3.05002e-05)
(-0.000418061 0.000203265 3.05003e-05)
(-0.000434186 0.000166055 3.05001e-05)
(-0.000447007 0.000127581 3.04999e-05)
(-0.000456426 8.81362e-05 3.05001e-05)
(-0.00046237 4.80207e-05 3.05004e-05)
(-0.000464795 7.53977e-06 3.05005e-05)
(-0.000463684 -3.29985e-05 3.05005e-05)
(-0.000459043 -7.32857e-05 3.05007e-05)
(-0.000450909 -0.000113015 3.05007e-05)
(-0.000439343 -0.000151884 3.05005e-05)
(-0.000424434 -0.000189598 3.05004e-05)
(-0.000406294 -0.000225868 3.05003e-05)
(-0.000385063 -0.00026042 3.05004e-05)
(-0.000360901 -0.000292989 3.05003e-05)
(-0.000333992 -0.000323329 3.05005e-05)
(-0.000304541 -0.000351208 3.05005e-05)
(-0.000272772 -0.000376414 3.05004e-05)
(-0.000238928 -0.000398755 3.05002e-05)
(-0.000203265 -0.000418061 3.05003e-05)
(-0.000166055 -0.000434186 3.05001e-05)
(-0.000127581 -0.000447007 3.04999e-05)
(-8.81362e-05 -0.000456426 3.05001e-05)
(-4.80207e-05 -0.00046237 3.05004e-05)
(-7.53977e-06 -0.000464795 3.05005e-05)
(3.29985e-05 -0.000463684 3.05005e-05)
(7.32857e-05 -0.000459043 3.05007e-05)
(0.000113015 -0.000450909 3.05007e-05)
(0.000151884 -0.000439343 3.05005e-05)
(0.000189598 -0.000424434 3.05004e-05)
(0.000225868 -0.000406294 3.05003e-05)
(0.000232762 -0.000425223 6.42527e-05)
(0.000268937 -0.000403318 6.42526e-05)
(0.000303065 -0.000378344 6.42528e-05)
(0.000334887 -0.00035049 6.42528e-05)
(0.00036416 -0.000319969 6.42526e-05)
(0.000390661 -0.000287013 6.42526e-05)
(0.000414189 -0.000251873 6.42528e-05)
(0.000434565 -0.000214815 6.42527e-05)
(0.000451634 -0.000176123 6.42527e-05)
(0.000465266 -0.000136091 6.42527e-05)
(0.000475356 -9.50219e-05 6.42528e-05)
(0.000481829 -5.32301e-05 6.42529e-05)
(0.000484634 -1.10336e-05 6.42528e-05)
(0.000483752 3.12472e-05 6.42528e-05)
(0.000479188 7.32901e-05 6.42529e-05)
(0.000470977 0.000114775 6.42529e-05)
(0.000459181 0.000155387 6.42527e-05)
(0.000443891 0.000194816 6.42527e-05)
(0.000425223 0.000232762 6.42527e-05)
(0.000403318 0.000268937 6.42526e-05)
(0.000378344 0.000303065 6.42528e-05)
(0.00035049 0.000334887 6.42528e-05)
(0.000319969 0.00036416 6.42526e-05)
(0.000287013 0.000390661 6.42526e-05)
(0.000251873 0.000414189 6.42528e-05)
(0.000214815 0.000434565 6.42527e-05)
(0.000176123 0.000451634 6.42527e-05)
(0.000136091 0.000465266 6.42527e-05)
(9.50219e-05 0.000475356 6.42528e-05)
(5.32301e-05 0.000481829 6.42529e-05)
(1.10336e-05 0.000484634 6.42528e-05)
(-3.12472e-05 0.000483752 6.42528e-05)
(-7.32901e-05 0.000479188 6.42529e-05)
(-0.000114775 0.000470977 6.42529e-05)
(-0.000155387 0.000459181 6.42527e-05)
(-0.000194816 0.000443891 6.42527e-05)
(-0.000232762 0.000425223 6.42527e-05)
(-0.000268937 0.000403318 6.42526e-05)
(-0.000303065 0.000378344 6.42528e-05)
(-0.000334887 0.00035049 6.42528e-05)
(-0.00036416 0.000319969 6.42526e-05)
(-0.000390661 0.000287013 6.42526e-05)
(-0.000414189 0.000251873 6.42528e-05)
(-0.000434565 0.000214815 6.42527e-05)
(-0.000451634 0.000176123 6.42527e-05)
(-0.000465266 0.000136091 6.42527e-05)
(-0.000475356 9.50219e-05 6.42528e-05)
(-0.000481829 5.32301e-05 6.42529e-05)
(-0.000484634 1.10336e-05 6.42528e-05)
(-0.000483752 -3.12472e-05 6.42528e-05)
(-0.000479188 -7.32901e-05 6.42529e-05)
(-0.000470977 -0.000114775 6.42529e-05)
(-0.000459181 -0.000155387 6.42527e-05)
(-0.000443891 -0.000194816 6.42527e-05)
(-0.000425223 -0.000232762 6.42527e-05)
(-0.000403318 -0.000268937 6.42526e-05)
(-0.000378344 -0.000303065 6.42528e-05)
(-0.00035049 -0.000334887 6.42528e-05)
(-0.000319969 -0.00036416 6.42526e-05)
(-0.000287013 -0.000390661 6.42526e-05)
(-0.000251873 -0.000414189 6.42528e-05)
(-0.000214815 -0.000434565 6.42527e-05)
(-0.000176123 -0.000451634 6.42527e-05)
(-0.000136091 -0.000465266 6.42527e-05)
(-9.50219e-05 -0.000475356 6.42528e-05)
(-5.32301e-05 -0.000481829 6.42529e-05)
(-1.10336e-05 -0.000484634 6.42528e-05)
(3.12472e-05 -0.000483752 6.42528e-05)
(7.32901e-05 -0.000479188 6.42529e-05)
(0.000114775 -0.000470977 6.42529e-05)
(0.000155387 -0.000459181 6.42527e-05)
(0.000194816 -0.000443891 6.42527e-05)
(0.000192741 -0.00046389 8.80251e-05)
(0.000232438 -0.000445327 8.80252e-05)
(0.000270366 -0.000423374 8.80252e-05)
(0.000306237 -0.000398199 8.80254e-05)
(0.000339777 -0.000369993 8.80253e-05)
(0.000370731 -0.000338972 8.80254e-05)
(0.000398863 -0.000305371 8.80255e-05)
(0.00042396 -0.000269445 8.80254e-05)
(0.00044583 -0.00023147 8.80254e-05)
(0.000464308 -0.000191732 8.80253e-05)
(0.000479251 -0.000150535 8.80254e-05)
(0.000490548 -0.000108193 8.80256e-05)
(0.000498111 -6.50271e-05 8.80256e-05)
(0.000501882 -2.13663e-05 8.80253e-05)
(0.000501835 2.24567e-05 8.80254e-05)
(0.000497968 6.61095e-05 8.80254e-05)
(0.000490311 0.000109259 8.80253e-05)
(0.000478923 0.000151576 8.80252e-05)
(0.00046389 0.000192741 8.80251e-05)
(0.000445327 0.000232438 8.80252e-05)
(0.000423374 0.000270366 8.80252e-05)
(0.000398199 0.000306237 8.80254e-05)
(0.000369993 0.000339777 8.80253e-05)
(0.000338972 0.000370731 8.80254e-05)
(0.000305371 0.000398863 8.80255e-05)
(0.000269445 0.00042396 8.80254e-05)
(0.00023147 0.00044583 8.80254e-05)
(0.000191732 0.000464308 8.80253e-05)
(0.000150535 0.000479251 8.80254e-05)
(0.000108193 0.000490548 8.80256e-05)
(6.50271e-05 0.000498111 8.80256e-05)
(2.13663e-05 0.000501882 8.80253e-05)
(-2.24567e-05 0.000501835 8.80254e-05)
(-6.61095e-05 0.000497968 8.80254e-05)
(-0.000109259 0.000490311 8.80253e-05)
(-0.000151576 0.000478923 8.80252e-05)
(-0.000192741 0.00046389 8.80251e-05)
(-0.000232438 0.000445327 8.80252e-05)
(-0.000270366 0.000423374 8.80252e-05)
(-0.000306237 0.000398199 8.80254e-05)
(-0.000339777 0.000369993 8.80253e-05)
(-0.000370731 0.000338972 8.80254e-05)
(-0.000398863 0.000305371 8.80255e-05)
(-0.00042396 0.000269445 8.80254e-05)
(-0.00044583 0.00023147 8.80254e-05)
(-0.000464308 0.000191732 8.80253e-05)
(-0.000479251 0.000150535 8.80254e-05)
(-0.000490548 0.000108193 8.80256e-05)
(-0.000498111 6.50271e-05 8.80256e-05)
(-0.000501882 2.13663e-05 8.80253e-05)
(-0.000501835 -2.24567e-05 8.80254e-05)
(-0.000497968 -6.61095e-05 8.80254e-05)
(-0.000490311 -0.000109259 8.80253e-05)
(-0.000478923 -0.000151576 8.80252e-05)
(-0.00046389 -0.000192741 8.80251e-05)
(-0.000445327 -0.000232438 8.80252e-05)
(-0.000423374 -0.000270366 8.80252e-05)
(-0.000398199 -0.000306237 8.80254e-05)
(-0.000369993 -0.000339777 8.80253e-05)
(-0.000338972 -0.000370731 8.80254e-05)
(-0.000305371 -0.000398863 8.80255e-05)
(-0.000269445 -0.00042396 8.80254e-05)
(-0.00023147 -0.00044583 8.80254e-05)
(-0.000191732 -0.000464308 8.80253e-05)
(-0.000150535 -0.000479251 8.80254e-05)
(-0.000108193 -0.000490548 8.80256e-05)
(-6.50271e-05 -0.000498111 8.80256e-05)
(-2.13663e-05 -0.000501882 8.80253e-05)
(2.24567e-05 -0.000501835 8.80254e-05)
(6.61095e-05 -0.000497968 8.80254e-05)
(0.000109259 -0.000490311 8.80253e-05)
(0.000151576 -0.000478923 8.80252e-05)
(0.000143238 -0.000497548 0.00010384)
(0.000186058 -0.000483171 0.00010384)
(0.000227461 -0.000465117 0.00010384)
(0.000267133 -0.000443522 0.00010384)
(0.000304772 -0.000418552 0.00010384)
(0.000340091 -0.000390397 0.00010384)
(0.000372822 -0.000359271 0.00010384)
(0.000402716 -0.00032541 0.000103841)
(0.000429545 -0.000289073 0.00010384)
(0.000453105 -0.000250535 0.00010384)
(0.000473216 -0.000210091 0.00010384)
(0.000489725 -0.000168048 0.00010384)
(0.000502508 -0.000124726 0.00010384)
(0.000511467 -8.04552e-05 0.00010384)
(0.000516533 -3.55716e-05 0.00010384)
(0.000517668 9.58231e-06 0.00010384)
(0.000514863 5.46637e-05 0.00010384)
(0.000508139 9.93291e-05 0.00010384)
(0.000497548 0.000143238 0.00010384)
(0.000483171 0.000186058 0.00010384)
(0.000465117 0.000227461 0.00010384)
(0.000443522 0.000267133 0.00010384)
(0.000418552 0.000304772 0.00010384)
(0.000390397 0.000340091 0.00010384)
(0.000359271 0.000372822 0.00010384)
(0.00032541 0.000402716 0.000103841)
(0.000289073 0.000429545 0.00010384)
(0.000250535 0.000453105 0.00010384)
(0.000210091 0.000473216 0.00010384)
(0.000168048 0.000489725 0.00010384)
(0.000124726 0.000502508 0.00010384)
(8.04552e-05 0.000511467 0.00010384)
(3.55716e-05 0.000516533 0.00010384)
(-9.58231e-06 0.000517668 0.00010384)
(-5.46637e-05 0.000514863 0.00010384)
(-9.93291e-05 0.000508139 0.00010384)
(-0.000143238 0.000497548 0.00010384)
(-0.000186058 0.000483171 0.00010384)
(-0.000227461 0.000465117 0.00010384)
(-0.000267133 0.000443522 0.00010384)
(-0.000304772 0.000418552 0.00010384)
(-0.000340091 0.000390397 0.00010384)
(-0.000372822 0.000359271 0.00010384)
(-0.000402716 0.00032541 0.000103841)
(-0.000429545 0.000289073 0.00010384)
(-0.000453105 0.000250535 0.00010384)
(-0.000473216 0.000210091 0.00010384)
(-0.000489725 0.000168048 0.00010384)
(-0.000502508 0.000124726 0.00010384)
(-0.000511467 8.04552e-05 0.00010384)
(-0.000516533 3.55716e-05 0.00010384)
(-0.000517668 -9.58231e-06 0.00010384)
(-0.000514863 -5.46637e-05 0.00010384)
(-0.000508139 -9.93291e-05 0.00010384)
(-0.000497548 -0.000143238 0.00010384)
(-0.000483171 -0.000186058 0.00010384)
(-0.000465117 -0.000227461 0.00010384)
(-0.000443522 -0.000267133 0.00010384)
(-0.000418552 -0.000304772 0.00010384)
(-0.000390397 -0.000340091 0.00010384)
(-0.000359271 -0.000372822 0.00010384)
(-0.00032541 -0.000402716 0.000103841)
(-0.000289073 -0.000429545 0.00010384)
(-0.000250535 -0.000453105 0.00010384)
(-0.000210091 -0.000473216 0.00010384)
(-0.000168048 -0.000489725 0.00010384)
(-0.000124726 -0.000502508 0.00010384)
(-8.04552e-05 -0.000511467 0.00010384)
(-3.55716e-05 -0.000516533 0.00010384)
(9.58231e-06 -0.000517668 0.00010384)
(5.46637e-05 -0.000514863 0.00010384)
(9.93291e-05 -0.000508139 0.00010384)
(8.45463e-05 -0.00052384 0.000117029)
(0.00012988 -0.000514479 0.000117029)
(0.000174226 -0.000501201 0.000117029)
(0.000217245 -0.000484109 0.000117029)
(0.000258611 -0.000463332 0.000117029)
(0.00029801 -0.00043903 0.000117029)
(0.00033514 -0.000411386 0.000117029)
(0.000369718 -0.000380611 0.000117029)
(0.000401484 -0.000346939 0.000117028)
(0.000430194 -0.000310628 0.000117028)
(0.00045563 -0.000271952 0.000117029)
(0.000477599 -0.000231207 0.000117029)
(0.000495932 -0.000188701 0.000117029)
(0.000510491 -0.000144759 0.000117028)
(0.000521165 -9.97165e-05 0.000117029)
(0.000527873 -5.39147e-05 0.000117029)
(0.000530563 -7.70241e-06 0.000117029)
(0.000529216 3.85687e-05 0.000117029)
(0.00052384 8.45463e-05 0.000117029)
(0.000514479 0.00012988 0.000117029)
(0.000501201 0.000174226 0.000117029)
(0.000484109 0.000217245 0.000117029)
(0.000463332 0.000258611 0.000117029)
(0.00043903 0.00029801 0.000117029)
(0.000411386 0.00033514 0.000117029)
(0.000380611 0.000369718 0.000117029)
(0.000346939 0.000401484 0.000117028)
(0.000310628 0.000430194 0.000117028)
(0.000271952 0.00045563 0.000117029)
(0.000231207 0.000477599 0.000117029)
(0.000188701 0.000495932 0.000117029)
(0.000144759 0.000510491 0.000117028)
(9.97165e-05 0.000521165 0.000117029)
(5.39147e-05 0.000527873 0.000117029)