/*--------------------------------*- C++ -*----------------------------------*\
| =========                 |                                                 |
| \\      /  F ield         | OpenFOAM: The Open Source CFD Toolbox           |
|  \\    /   O peration     | Version:  2312                                  |
|   \\  /    A nd           | Website:  www.openfoam.com                      |
|    \\/     M anipulation  |                                                 |
\*---------------------------------------------------------------------------*/
FoamFile
{
    version     2.0;
    format      ascii;
    arch        "LSB;label=32;scalar=64";
    class       volVectorField;
    location    "0.5";
    object      D_0;
}
// * * * * * * * * * * * * * * * * * * * * * * * * * * * * * * * * * * * * * //

dimensions      [0 1 0 0 0 0 0];

internalField   nonuniform List<vector> 
12960
(
(0.000100203 -0.000124841 3.73749e-06)
(0.000110703 -0.000115633 3.73749e-06)
(0.00012036 -0.000105545 3.73752e-06)
(0.0001291 -9.46525e-05 3.73745e-06)
(0.000136859 -8.30407e-05 3.73744e-06)
(0.000143575 -7.07966e-05 3.73751e-06)
(0.000149199 -5.80138e-05 3.73748e-06)
(0.000153688 -4.47896e-05 3.73735e-06)
(0.000157006 -3.12243e-05 3.73728e-06)
(0.00015913 -1.74216e-05 3.73738e-06)
(0.000160043 -3.48613e-06 3.73749e-06)
(0.000159738 1.04759e-05 3.73757e-06)
(0.000158217 2.43581e-05 3.7376e-06)
(0.000155492 3.8055e-05 3.73759e-06)
(0.000151583 5.14622e-05 3.7375e-06)
(0.000146522 6.44778e-05 3.7375e-06)
(0.000140344 7.70026e-05 3.73748e-06)
(0.000133099 8.89415e-05 3.73739e-06)
(0.000124841 0.000100203 3.73749e-06)
(0.000115633 0.000110703 3.73749e-06)
(0.000105545 0.00012036 3.73752e-06)
(9.46525e-05 0.0001291 3.73745e-06)
(8.30407e-05 0.000136859 3.73744e-06)
(7.07966e-05 0.000143575 3.73751e-06)
(5.80138e-05 0.000149199 3.73748e-06)
(4.47896e-05 0.000153688 3.73735e-06)
(3.12243e-05 0.000157006 3.73728e-06)
(1.74216e-05 0.00015913 3.73738e-06)
(3.48613e-06 0.000160043 3.73749e-06)
(-1.04759e-05 0.000159738 3.73757e-06)
(-2.43581e-05 0.000158217 3.7376e-06)
(-3.8055e-05 0.000155492 3.7376e-06)
(-5.14622e-05 0.000151583 3.7375e-06)
(-6.44778e-05 0.000146522 3.7375e-06)
(-7.70026e-05 0.000140344 3.73748e-06)
(-8.89415e-05 0.000133099 3.73739e-06)
(-0.000100203 0.000124841 3.73749e-06)
(-0.000110703 0.000115633 3.73749e-06)
(-0.00012036 0.000105545 3.73752e-06)
(-0.0001291 9.46525e-05 3.73745e-06)
(-0.000136859 8.30407e-05 3.73744e-06)
(-0.000143575 7.07966e-05 3.73751e-06)
(-0.000149199 5.80138e-05 3.73748e-06)
(-0.000153688 4.47896e-05 3.73735e-06)
(-0.000157006 3.12243e-05 3.73728e-06)
(-0.00015913 1.74216e-05 3.73738e-06)
(-0.000160043 3.48613e-06 3.73749e-06)
(-0.000159738 -1.04759e-05 3.73757e-06)
(-0.000158217 -2.43581e-05 3.7376e-06)
(-0.000155492 -3.8055e-05 3.7376e-06)
(-0.000151583 -5.14622e-05 3.7375e-06)
(-0.000146522 -6.44778e-05 3.7375e-06)
(-0.000140344 -7.70026e-05 3.73748e-06)
(-0.000133099 -8.89415e-05 3.73739e-06)
(-0.000124841 -0.000100203 3.73749e-06)
(-0.000115633 -0.000110703 3.73749e-06)
(-0.000105545 -0.00012036 3.73752e-06)
(-9.46525e-05 -0.0001291 3.73745e-06)
(-8.30407e-05 -0.000136859 3.73744e-06)
(-7.07966e-05 -0.000143575 3.73751e-06)
(-5.80138e-05 -0.000149199 3.73748e-06)
(-4.47896e-05 -0.000153688 3.73735e-06)
(-3.12243e-05 -0.000157006 3.73728e-06)
(-1.74216e-05 -0.00015913 3.73738e-06)
(-3.48613e-06 -0.000160043 3.73749e-06)
(1.04759e-05 -0.000159738 3.73757e-06)
(2.43581e-05 -0.000158217 3.7376e-06)
(3.8055e-05 -0.000155492 3.7376e-06)
(5.14622e-05 -0.000151583 3.7375e-06)
(6.44778e-05 -0.000146522 3.7375e-06)
(7.70026e-05 -0.000140344 3.73748e-06)
(8.89415e-05 -0.000133099 3.73739e-06)
(8.93828e-05 -0.000139766 1.4463e-05)
(0.000101224 -0.000131444 1.4463e-05)
(0.000112295 -0.000122121 1.4463e-05)
(0.000122511 -0.00011187 1.44631e-05)
(0.000131795 -0.000100766 1.4463e-05)
(0.000140076 -8.88964e-05 1.4463e-05)
(0.000147291 -7.63497e-05 1.4463e-05)
(0.000153385 -6.32218e-05 1.4463e-05)
(0.000158311 -4.96128e-05 1.4463e-05)
(0.000162033 -3.56263e-05 1.4463e-05)
(0.000164522 -2.13687e-05 1.44631e-05)
(0.000165758 -6.94826e-06 1.44631e-05)
(0.000165732 7.52487e-06 1.44631e-05)
(0.000164446 2.19408e-05 1.44631e-05)
(0.000161908 3.61897e-05 1.44631e-05)
(0.000158137 5.01631e-05 1.44631e-05)
(0.000153163 6.37547e-05 1.4463e-05)
(0.000147024 7.68613e-05 1.4463e-05)
(0.000139766 8.93828e-05 1.4463e-05)
(0.000131444 0.000101224 1.4463e-05)
(0.000122121 0.000112295 1.4463e-05)
(0.00011187 0.000122511 1.44631e-05)
(0.000100766 0.000131795 1.4463e-05)
(8.88964e-05 0.000140076 1.4463e-05)
(7.63497e-05 0.000147291 1.4463e-05)
(6.32218e-05 0.000153385 1.4463e-05)
(4.96128e-05 0.000158311 1.4463e-05)
(3.56263e-05 0.000162033 1.4463e-05)
(2.13687e-05 0.000164522 1.44631e-05)
(6.94826e-06 0.000165758 1.44631e-05)
(-7.52487e-06 0.000165732 1.44631e-05)
(-2.19408e-05 0.000164446 1.44631e-05)
(-3.61897e-05 0.000161908 1.44631e-05)
(-5.01631e-05 0.000158137 1.44631e-05)
(-6.37547e-05 0.000153163 1.4463e-05)
(-7.68613e-05 0.000147024 1.4463e-05)
(-8.93828e-05 0.000139766 1.4463e-05)
(-0.000101224 0.000131444 1.4463e-05)
(-0.000112295 0.000122121 1.4463e-05)
(-0.000122511 0.00011187 1.44631e-05)
(-0.000131795 0.000100766 1.4463e-05)
(-0.000140076 8.88964e-05 1.4463e-05)
(-0.000147291 7.63497e-05 1.4463e-05)
(-0.000153385 6.32218e-05 1.4463e-05)
(-0.000158311 4.96128e-05 1.4463e-05)
(-0.000162033 3.56263e-05 1.4463e-05)
(-0.000164522 2.13687e-05 1.44631e-05)
(-0.000165758 6.94826e-06 1.44631e-05)
(-0.000165732 -7.52487e-06 1.44631e-05)
(-0.000164446 -2.19408e-05 1.44631e-05)
(-0.000161908 -3.61897e-05 1.44631e-05)
(-0.000158137 -5.01631e-05 1.44631e-05)
(-0.000153163 -6.37547e-05 1.4463e-05)
(-0.000147024 -7.68613e-05 1.4463e-05)
(-0.000139766 -8.93828e-05 1.4463e-05)
(-0.000131444 -0.000101224 1.4463e-05)
(-0.000122121 -0.000112295 1.4463e-05)
(-0.00011187 -0.000122511 1.44631e-05)
(-0.000100766 -0.000131795 1.4463e-05)
(-8.88964e-05 -0.000140076 1.4463e-05)
(-7.63497e-05 -0.000147291 1.4463e-05)
(-6.32218e-05 -0.000153385 1.4463e-05)
(-4.96128e-05 -0.000158311 1.4463e-05)
(-3.56263e-05 -0.000162033 1.4463e-05)
(-2.13687e-05 -0.000164522 1.44631e-05)
(-6.94826e-06 -0.000165758 1.44631e-05)
(7.52487e-06 -0.000165732 1.44631e-05)
(2.19408e-05 -0.000164446 1.44631e-05)
(3.61897e-05 -0.000161908 1.44631e-05)
(5.01631e-05 -0.000158137 1.44631e-05)
(6.37547e-05 -0.000153163 1.4463e-05)
(7.68613e-05 -0.000147024 1.4463e-05)
(7.2513e-05 -0.00015394 1.95143e-05)
(8.56539e-05 -0.000147034 1.95143e-05)
(9.81428e-05 -0.00013901 1.95144e-05)
(0.000109885 -0.000129927 1.95143e-05)
(0.000120791 -0.000119855 1.95144e-05)
(0.000130777 -0.000108872 1.95143e-05)
(0.000139768 -9.70591e-05 1.95143e-05)
(0.000147695 -8.45084e-05 1.95143e-05)
(0.000154498 -7.13143e-05 1.95143e-05)
(0.000160126 -5.75775e-05 1.95143e-05)
(0.000164535 -4.34025e-05 1.95144e-05)
(0.000167691 -2.88971e-05 1.95143e-05)
(0.000169572 -1.41719e-05 1.95144e-05)
(0.000170162 6.613e-07 1.95144e-05)
(0.000169457 1.54893e-05 1.95144e-05)
(0.000167462 3.01996e-05 1.95144e-05)
(0.000164193 4.468e-05 1.95144e-05)
(0.000159674 5.88203e-05 1.95143e-05)
(0.00015394 7.2513e-05 1.95143e-05)
(0.000147034 8.56539e-05 1.95143e-05)
(0.00013901 9.81428e-05 1.95144e-05)
(0.000129927 0.000109885 1.95143e-05)
(0.000119855 0.000120791 1.95144e-05)
(0.000108872 0.000130777 1.95143e-05)
(9.70591e-05 0.000139768 1.95143e-05)
(8.45084e-05 0.000147695 1.95143e-05)
(7.13143e-05 0.000154498 1.95143e-05)
(5.75775e-05 0.000160126 1.95143e-05)
(4.34025e-05 0.000164535 1.95144e-05)
(2.88971e-05 0.000167691 1.95143e-05)
(1.41719e-05 0.000169572 1.95144e-05)
(-6.613e-07 0.000170162 1.95144e-05)
(-1.54893e-05 0.000169457 1.95144e-05)
(-3.01996e-05 0.000167462 1.95144e-05)
(-4.468e-05 0.000164193 1.95144e-05)
(-5.88203e-05 0.000159674 1.95143e-05)
(-7.2513e-05 0.00015394 1.95143e-05)
(-8.56539e-05 0.000147034 1.95143e-05)
(-9.81428e-05 0.00013901 1.95144e-05)
(-0.000109885 0.000129927 1.95143e-05)
(-0.000120791 0.000119855 1.95144e-05)
(-0.000130777 0.000108872 1.95143e-05)
(-0.000139768 9.70591e-05 1.95143e-05)
(-0.000147695 8.45084e-05 1.95143e-05)
(-0.000154498 7.13143e-05 1.95143e-05)
(-0.000160126 5.75775e-05 1.95143e-05)
(-0.000164535 4.34025e-05 1.95144e-05)
(-0.000167691 2.88971e-05 1.95143e-05)
(-0.000169572 1.41719e-05 1.95144e-05)
(-0.000170162 -6.613e-07 1.95144e-05)
(-0.000169457 -1.54893e-05 1.95144e-05)
(-0.000167462 -3.01996e-05 1.95144e-05)
(-0.000164193 -4.468e-05 1.95144e-05)
(-0.000159674 -5.88203e-05 1.95143e-05)
(-0.00015394 -7.2513e-05 1.95143e-05)
(-0.000147034 -8.56539e-05 1.95143e-05)
(-0.00013901 -9.81428e-05 1.95144e-05)
(-0.000129927 -0.000109885 1.95143e-05)
(-0.000119855 -0.000120791 1.95144e-05)
(-0.000108872 -0.000130777 1.95143e-05)
(-9.70591e-05 -0.000139768 1.95143e-05)
(-8.45084e-05 -0.000147695 1.95143e-05)
(-7.13143e-05 -0.000154498 1.95143e-05)
(-5.75775e-05 -0.000160126 1.95143e-05)
(-4.34025e-05 -0.000164535 1.95144e-05)
(-2.88971e-05 -0.000167691 1.95143e-05)
(-1.41719e-05 -0.000169572 1.95144e-05)
(6.613e-07 -0.000170162 1.95144e-05)
(1.54893e-05 -0.000169457 1.95144e-05)
(3.01996e-05 -0.000167462 1.95144e-05)
(4.468e-05 -0.000164193 1.95144e-05)
(5.88203e-05 -0.000159674 1.95143e-05)
(5.07411e-05 -0.000165791 2.16814e-05)
(6.49977e-05 -0.000160738 2.16814e-05)
(7.87598e-05 -0.000154462 2.16815e-05)
(9.19219e-05 -0.000147009 2.16814e-05)
(0.000104385 -0.000138438 2.16814e-05)
(0.000116053 -0.000128814 2.16814e-05)
(0.000126839 -0.000118209 2.16815e-05)
(0.000136659 -0.000106705 2.16815e-05)
(0.000145439 -9.43881e-05 2.16814e-05)
(0.000153112 -8.13532e-05 2.16814e-05)
(0.000159619 -6.76989e-05 2.16815e-05)
(0.000164912 -5.35295e-05 2.16815e-05)
(0.00016895 -3.89527e-05 2.16815e-05)
(0.000171701 -2.40794e-05 2.16813e-05)
(0.000173147 -9.02301e-06 2.16814e-05)
(0.000173275 6.10208e-06 2.16815e-05)
(0.000172084 2.11808e-05 2.16814e-05)
(0.000169583 3.60983e-05 2.16814e-05)
(0.000165791 5.07411e-05 2.16814e-05)
(0.000160738 6.49977e-05 2.16814e-05)
(0.000154462 7.87598e-05 2.16815e-05)
(0.000147009 9.19219e-05 2.16814e-05)
(0.000138438 0.000104385 2.16814e-05)
(0.000128814 0.000116053 2.16814e-05)
(0.000118209 0.000126839 2.16815e-05)
(0.000106705 0.000136659 2.16815e-05)
(9.43881e-05 0.000145439 2.16814e-05)
(8.13532e-05 0.000153112 2.16814e-05)
(6.76989e-05 0.000159619 2.16815e-05)
(5.35295e-05 0.000164912 2.16815e-05)
(3.89527e-05 0.00016895 2.16815e-05)
(2.40794e-05 0.000171701 2.16813e-05)
(9.02301e-06 0.000173147 2.16814e-05)
(-6.10208e-06 0.000173275 2.16815e-05)
(-2.11808e-05 0.000172084 2.16814e-05)
(-3.60983e-05 0.000169583 2.16814e-05)
(-5.07411e-05 0.000165791 2.16814e-05)
(-6.49977e-05 0.000160738 2.16814e-05)
(-7.87598e-05 0.000154462 2.16815e-05)
(-9.19219e-05 0.000147009 2.16814e-05)
(-0.000104385 0.000138438 2.16814e-05)
(-0.000116053 0.000128814 2.16814e-05)
(-0.000126839 0.000118209 2.16815e-05)
(-0.000136659 0.000106705 2.16815e-05)
(-0.000145439 9.43881e-05 2.16814e-05)
(-0.000153112 8.13532e-05 2.16814e-05)
(-0.000159619 6.76989e-05 2.16815e-05)
(-0.000164912 5.35295e-05 2.16815e-05)
(-0.00016895 3.89527e-05 2.16815e-05)
(-0.000171701 2.40794e-05 2.16813e-05)
(-0.000173147 9.02301e-06 2.16814e-05)
(-0.000173275 -6.10208e-06 2.16815e-05)
(-0.000172084 -2.11808e-05 2.16814e-05)
(-0.000169583 -3.60983e-05 2.16814e-05)
(-0.000165791 -5.07411e-05 2.16814e-05)
(-0.000160738 -6.49977e-05 2.16814e-05)
(-0.000154462 -7.87598e-05 2.16815e-05)
(-0.000147009 -9.19219e-05 2.16814e-05)
(-0.000138438 -0.000104385 2.16814e-05)
(-0.000128814 -0.000116053 2.16814e-05)
(-0.000118209 -0.000126839 2.16815e-05)
(-0.000106705 -0.000136659 2.16815e-05)
(-9.43881e-05 -0.000145439 2.16814e-05)
(-8.13532e-05 -0.000153112 2.16814e-05)
(-6.76989e-05 -0.000159619 2.16815e-05)
(-5.35295e-05 -0.000164912 2.16815e-05)
(-3.89527e-05 -0.00016895 2.16815e-05)
(-2.40794e-05 -0.000171701 2.16813e-05)
(-9.02301e-06 -0.000173147 2.16814e-05)
(6.10208e-06 -0.000173275 2.16815e-05)
(2.11808e-05 -0.000172084 2.16814e-05)
(3.60983e-05 -0.000169583 2.16814e-05)
(2.29579e-05 -0.000174641 2.45143e-05)
(3.80915e-05 -0.000171975 2.45144e-05)
(5.29349e-05 -0.000168001 2.45144e-05)
(6.73758e-05 -0.000162748 2.45144e-05)
(8.13037e-05 -0.000156256 2.45144e-05)
(9.4613e-05 -0.000148575 2.45144e-05)
(0.000107202 -0.000139764 2.45144e-05)
(0.000118975 -0.000129889 2.45143e-05)
(0.000129844 -0.000119026 2.45144e-05)
(0.000139723 -0.000107256 2.45144e-05)
(0.000148539 -9.46698e-05 2.45143e-05)
(0.000156225 -8.13635e-05 2.45144e-05)
(0.000162722 -6.74381e-05 2.45143e-05)
(0.00016798 -5.29994e-05 2.45143e-05)
(0.00017196 -3.81574e-05 2.45144e-05)
(0.000174631 -2.30248e-05 2.45144e-05)
(0.000175974 -7.71699e-06 2.45144e-05)
(0.000175977 7.64954e-06 2.45143e-05)
(0.000174641 2.29579e-05 2.45143e-05)
(0.000171975 3.80915e-05 2.45144e-05)
(0.000168001 5.29349e-05 2.45144e-05)
(0.000162748 6.73758e-05 2.45144e-05)
(0.000156256 8.13037e-05 2.45144e-05)
(0.000148575 9.4613e-05 2.45144e-05)
(0.000139764 0.000107202 2.45144e-05)
(0.000129889 0.000118975 2.45143e-05)
(0.000119026 0.000129844 2.45144e-05)
(0.000107256 0.000139723 2.45144e-05)
(9.46698e-05 0.000148539 2.45143e-05)
(8.13635e-05 0.000156225 2.45144e-05)
(6.74381e-05 0.000162722 2.45143e-05)
(5.29994e-05 0.00016798 2.45143e-05)
(3.81574e-05 0.00017196 2.45144e-05)
(2.30248e-05 0.000174631 2.45144e-05)
(7.71699e-06 0.000175974 2.45144e-05)
(-7.64954e-06 0.000175977 2.45143e-05)
(-2.29579e-05 0.000174641 2.45143e-05)
(-3.80915e-05 0.000171975 2.45144e-05)
(-5.29349e-05 0.000168001 2.45144e-05)
(-6.73758e-05 0.000162748 2.45144e-05)
(-8.13037e-05 0.000156256 2.45144e-05)
(-9.4613e-05 0.000148575 2.45144e-05)
(-0.000107202 0.000139764 2.45144e-05)
(-0.000118975 0.000129889 2.45143e-05)
(-0.000129844 0.000119026 2.45144e-05)
(-0.000139723 0.000107256 2.45144e-05)
(-0.000148539 9.46698e-05 2.45143e-05)
(-0.000156225 8.13635e-05 2.45144e-05)
(-0.000162722 6.74381e-05 2.45143e-05)
(-0.00016798 5.29994e-05 2.45143e-05)
(-0.00017196 3.81574e-05 2.45144e-05)
(-0.000174631 2.30248e-05 2.45144e-05)
(-0.000175974 7.71699e-06 2.45144e-05)
(-0.000175977 -7.64954e-06 2.45143e-05)
(-0.000174641 -2.29579e-05 2.45143e-05)
(-0.000171975 -3.80915e-05 2.45144e-05)
(-0.000168001 -5.29349e-05 2.45144e-05)
(-0.000162748 -6.73758e-05 2.45144e-05)
(-0.000156256 -8.13037e-05 2.45144e-05)
(-0.000148575 -9.4613e-05 2.45144e-05)
(-0.000139764 -0.000107202 2.45144e-05)
(-0.000129889 -0.000118975 2.45143e-05)
(-0.000119026 -0.000129844 2.45144e-05)
(-0.000107256 -0.000139723 2.45144e-05)
(-9.46698e-05 -0.000148539 2.45143e-05)
(-8.13635e-05 -0.000156225 2.45144e-05)
(-6.74381e-05 -0.000162722 2.45143e-05)
(-5.29994e-05 -0.00016798 2.45143e-05)
(-3.81574e-05 -0.00017196 2.45144e-05)
(-2.30248e-05 -0.000174631 2.45144e-05)
(-7.71699e-06 -0.000175974 2.45144e-05)
(7.64954e-06 -0.000175977 2.45143e-05)
(-1.78707e-05 -0.00018173 2.7617e-05)
(-1.96388e-06 -0.000182595 2.7617e-05)
(1.39578e-05 -0.000182072 2.7617e-05)
(2.97736e-05 -0.000180164 2.76171e-05)
(4.53626e-05 -0.000176883 2.7617e-05)
(6.06063e-05 -0.000172256 2.7617e-05)
(7.53886e-05 -0.000166318 2.7617e-05)
(8.95969e-05 -0.000159114 2.76169e-05)
(0.000103124 -0.0001507 2.7617e-05)
(0.000115866 -0.000141139 2.76171e-05)
(0.000127726 -0.000130503 2.7617e-05)
(0.000138614 -0.000118875 2.7617e-05)
(0.000148447 -0.000106341 2.76169e-05)
(0.000157151 -9.29987e-05 2.76168e-05)
(0.000164659 -7.89485e-05 2.76169e-05)
(0.000170912 -6.42968e-05 2.7617e-05)
(0.000175865 -4.91561e-05 2.7617e-05)
(0.000179481 -3.36414e-05 2.76171e-05)
(0.00018173 -1.78707e-05 2.7617e-05)
(0.000182595 -1.96387e-06 2.7617e-05)
(0.000182072 1.39578e-05 2.7617e-05)
(0.000180164 2.97736e-05 2.76171e-05)
(0.000176883 4.53626e-05 2.7617e-05)
(0.000172256 6.06063e-05 2.7617e-05)
(0.000166318 7.53886e-05 2.7617e-05)
(0.000159114 8.95969e-05 2.76169e-05)
(0.0001507 0.000103124 2.7617e-05)
(0.000141139 0.000115866 2.76171e-05)
(0.000130503 0.000127726 2.7617e-05)
(0.000118875 0.000138614 2.7617e-05)
(0.000106341 0.000148447 2.76169e-05)
(9.29987e-05 0.000157151 2.76168e-05)
(7.89485e-05 0.000164659 2.76169e-05)
(6.42968e-05 0.000170912 2.7617e-05)
(4.91561e-05 0.000175865 2.7617e-05)
(3.36414e-05 0.000179481 2.76171e-05)
(1.78707e-05 0.00018173 2.7617e-05)
(1.96387e-06 0.000182595 2.7617e-05)
(-1.39578e-05 0.000182072 2.7617e-05)
(-2.97736e-05 0.000180164 2.76171e-05)
(-4.53626e-05 0.000176883 2.7617e-05)
(-6.06063e-05 0.000172256 2.7617e-05)
(-7.53886e-05 0.000166318 2.7617e-05)
(-8.95969e-05 0.000159114 2.76169e-05)
(-0.000103124 0.0001507 2.7617e-05)
(-0.000115866 0.000141139 2.76171e-05)
(-0.000127726 0.000130503 2.7617e-05)
(-0.000138614 0.000118875 2.7617e-05)
(-0.000148447 0.000106341 2.76169e-05)
(-0.000157151 9.29987e-05 2.76168e-05)
(-0.000164659 7.89485e-05 2.76169e-05)
(-0.000170912 6.42968e-05 2.7617e-05)
(-0.000175865 4.91561e-05 2.7617e-05)
(-0.000179481 3.36414e-05 2.76171e-05)
(-0.00018173 1.78707e-05 2.7617e-05)
(-0.000182595 1.96387e-06 2.7617e-05)
(-0.000182072 -1.39578e-05 2.7617e-05)
(-0.000180164 -2.97736e-05 2.76171e-05)
(-0.000176883 -4.53626e-05 2.7617e-05)
(-0.000172256 -6.06063e-05 2.7617e-05)
(-0.000166318 -7.53886e-05 2.7617e-05)
(-0.000159114 -8.95969e-05 2.76169e-05)
(-0.0001507 -0.000103124 2.7617e-05)
(-0.000141139 -0.000115866 2.76171e-05)
(-0.000130503 -0.000127726 2.7617e-05)
(-0.000118875 -0.000138614 2.7617e-05)
(-0.000106341 -0.000148447 2.76169e-05)
(-9.29987e-05 -0.000157151 2.76168e-05)
(-7.89485e-05 -0.000164659 2.76169e-05)
(-6.42968e-05 -0.000170912 2.7617e-05)
(-4.91561e-05 -0.000175865 2.7617e-05)
(-3.36414e-05 -0.000179481 2.76171e-05)
(0.000258474 -0.000382163 3.08012e-05)
(0.000290798 -0.000358181 3.08011e-05)
(0.000320909 -0.000331474 3.08013e-05)
(0.000348577 -0.000302243 3.08013e-05)
(0.000373593 -0.000270713 3.08012e-05)
(0.000395766 -0.000237122 3.0801e-05)
(0.000414926 -0.000201726 3.08011e-05)
(0.000430929 -0.000164795 3.08009e-05)
(0.000443653 -0.00012661 3.08007e-05)
(0.000452999 -8.74613e-05 3.08009e-05)
(0.000458897 -4.7647e-05 3.08012e-05)
(0.000461303 -7.47014e-06 3.08013e-05)
(0.000460199 3.27635e-05 3.08013e-05)
(0.000455592 7.27479e-05 3.08015e-05)
(0.000447518 0.000112179 3.08015e-05)
(0.000436038 0.000150756 3.08013e-05)
(0.00042124 0.000188185 3.08012e-05)
(0.000403235 0.000224183 3.08011e-05)
(0.000382163 0.000258474 3.08012e-05)
(0.000358181 0.000290798 3.08011e-05)
(0.000331474 0.000320909 3.08013e-05)
(0.000302243 0.000348577 3.08013e-05)
(0.000270713 0.000373593 3.08012e-05)
(0.000237122 0.000395766 3.0801e-05)
(0.000201726 0.000414926 3.08011e-05)
(0.000164795 0.000430929 3.08009e-05)
(0.00012661 0.000443653 3.08007e-05)
(8.74613e-05 0.000452999 3.08009e-05)
(4.7647e-05 0.000458897 3.08012e-05)
(7.47014e-06 0.000461303 3.08013e-05)
(-3.27635e-05 0.000460199 3.08013e-05)
(-7.27479e-05 0.000455592 3.08015e-05)
(-0.000112179 0.000447518 3.08015e-05)
(-0.000150756 0.000436038 3.08013e-05)
(-0.000188185 0.00042124 3.08012e-05)
(-0.000224183 0.000403235 3.08011e-05)
(-0.000258474 0.000382163 3.08012e-05)
(-0.000290798 0.000358181 3.08011e-05)
(-0.000320909 0.000331474 3.08013e-05)
(-0.000348577 0.000302243 3.08013e-05)
(-0.000373593 0.000270713 3.08012e-05)
(-0.000395766 0.000237122 3.0801e-05)
(-0.000414926 0.000201726 3.08011e-05)
(-0.000430929 0.000164795 3.08009e-05)
(-0.000443653 0.00012661 3.08007e-05)
(-0.000452999 8.74613e-05 3.08009e-05)
(-0.000458897 4.7647e-05 3.08012e-05)
(-0.000461303 7.47014e-06 3.08013e-05)
(-0.000460199 -3.27635e-05 3.08013e-05)
(-0.000455592 -7.27479e-05 3.08015e-05)
(-0.000447518 -0.000112179 3.08015e-05)
(-0.000436038 -0.000150756 3.08013e-05)
(-0.00042124 -0.000188185 3.08012e-05)
(-0.000403235 -0.000224183 3.08011e-05)
(-0.000382163 -0.000258474 3.08012e-05)
(-0.000358181 -0.000290798 3.08011e-05)
(-0.000331474 -0.000320909 3.08013e-05)
(-0.000302243 -0.000348577 3.08013e-05)
(-0.000270713 -0.000373593 3.08012e-05)
(-0.000237122 -0.000395766 3.0801e-05)
(-0.000201726 -0.000414926 3.08011e-05)
(-0.000164795 -0.000430929 3.08009e-05)
(-0.00012661 -0.000443653 3.08007e-05)
(-8.74613e-05 -0.000452999 3.08009e-05)
(-4.7647e-05 -0.000458897 3.08012e-05)
(-7.47014e-06 -0.000461303 3.08013e-05)
(3.27635e-05 -0.000460199 3.08013e-05)
(7.27479e-05 -0.000455592 3.08015e-05)
(0.000112179 -0.000447518 3.08015e-05)
(0.000150756 -0.000436038 3.08013e-05)
(0.000188185 -0.00042124 3.08012e-05)
(0.000224183 -0.000403235 3.08011e-05)
(0.0002312 -0.00042148 6.36585e-05)
(0.000267054 -0.000399726 6.36584e-05)
(0.000300877 -0.000374929 6.36586e-05)
(0.000332409 -0.000347279 6.36586e-05)
(0.000361411 -0.000316986 6.36584e-05)
(0.000387663 -0.000284281 6.36584e-05)
(0.000410965 -0.000249413 6.36586e-05)
(0.000431139 -0.000212645 6.36585e-05)
(0.000448031 -0.00017426 6.36585e-05)
(0.000461514 -0.000134549 6.36585e-05)
(0.000471484 -9.38126e-05 6.36586e-05)
(0.000477867 -5.23629e-05 6.36587e-05)
(0.000480611 -1.0515e-05 6.36586e-05)
(0.000479699 3.14132e-05 6.36586e-05)
(0.000475136 7.31022e-05 6.36587e-05)
(0.000466957 0.000114235 6.36587e-05)
(0.000455223 0.000154498 6.36585e-05)
(0.000440026 0.000193586 6.36585e-05)
(0.00042148 0.0002312 6.36585e-05)
(0.000399726 0.000267054 6.36584e-05)
(0.000374929 0.000300877 6.36586e-05)
(0.000347279 0.000332409 6.36586e-05)
(0.000316986 0.000361411 6.36584e-05)
(0.000284281 0.000387663 6.36584e-05)
(0.000249413 0.000410965 6.36586e-05)
(0.000212645 0.000431139 6.36585e-05)
(0.00017426 0.000448031 6.36585e-05)
(0.000134549 0.000461514 6.36585e-05)
(9.38126e-05 0.000471484 6.36586e-05)
(5.23629e-05 0.000477867 6.36587e-05)
(1.0515e-05 0.000480611 6.36586e-05)
(-3.14132e-05 0.000479699 6.36586e-05)
(-7.31022e-05 0.000475136 6.36587e-05)
(-0.000114235 0.000466957 6.36587e-05)
(-0.000154498 0.000455223 6.36585e-05)
(-0.000193586 0.000440026 6.36585e-05)
(-0.0002312 0.00042148 6.36585e-05)
(-0.000267054 0.000399726 6.36584e-05)
(-0.000300877 0.000374929 6.36586e-05)
(-0.000332409 0.000347279 6.36586e-05)
(-0.000361411 0.000316986 6.36584e-05)
(-0.000387663 0.000284281 6.36584e-05)
(-0.000410965 0.000249413 6.36586e-05)
(-0.000431139 0.000212645 6.36585e-05)
(-0.000448031 0.00017426 6.36585e-05)
(-0.000461514 0.000134549 6.36585e-05)
(-0.000471484 9.38126e-05 6.36586e-05)
(-0.000477867 5.23629e-05 6.36587e-05)
(-0.000480611 1.0515e-05 6.36586e-05)
(-0.000479699 -3.14132e-05 6.36586e-05)
(-0.000475136 -7.31022e-05 6.36587e-05)
(-0.000466957 -0.000114235 6.36587e-05)
(-0.000455223 -0.000154498 6.36585e-05)
(-0.000440026 -0.000193586 6.36585e-05)
(-0.00042148 -0.0002312 6.36585e-05)
(-0.000399726 -0.000267054 6.36584e-05)
(-0.000374929 -0.000300877 6.36586e-05)
(-0.000347279 -0.000332409 6.36586e-05)
(-0.000316986 -0.000361411 6.36584e-05)
(-0.000284281 -0.000387663 6.36584e-05)
(-0.000249413 -0.000410965 6.36586e-05)
(-0.000212645 -0.000431139 6.36585e-05)
(-0.00017426 -0.000448031 6.36585e-05)
(-0.000134549 -0.000461514 6.36585e-05)
(-9.38126e-05 -0.000471484 6.36586e-05)
(-5.23629e-05 -0.000477867 6.36587e-05)
(-1.0515e-05 -0.000480611 6.36586e-05)
(3.14132e-05 -0.000479699 6.36586e-05)
(7.31022e-05 -0.000475136 6.36587e-05)
(0.000114235 -0.000466957 6.36587e-05)
(0.000154498 -0.000455223 6.36585e-05)
(0.000193586 -0.000440026 6.36585e-05)
(0.000191806 -0.000459351 8.68305e-05)
(0.000231111 -0.000440886 8.68305e-05)
(0.000268657 -0.000419066 8.68306e-05)
(0.000304159 -0.000394056 8.68307e-05)
(0.000337345 -0.000366047 8.68307e-05)
(0.000367965 -0.000335253 8.68308e-05)
(0.000395784 -0.000301908 8.68309e-05)
(0.000420591 -0.000266263 8.68308e-05)
(0.000442196 -0.000228593 8.68307e-05)
(0.000460437 -0.000189184 8.68307e-05)
(0.000475173 -0.000148334 8.68307e-05)
(0.000486293 -0.000106356 8.68309e-05)
(0.000493712 -6.35674e-05 8.68309e-05)
(0.000497373 -2.02954e-05 8.68307e-05)
(0.00049725 2.31305e-05 8.68308e-05)
(0.000493341 6.63811e-05 8.68307e-05)
(0.000485679 0.000109126 8.68307e-05)
(0.00047432 0.000151041 8.68305e-05)
(0.000459351 0.000191806 8.68305e-05)
(0.000440886 0.000231111 8.68305e-05)
(0.000419066 0.000268657 8.68306e-05)
(0.000394056 0.000304159 8.68307e-05)
(0.000366047 0.000337345 8.68307e-05)
(0.000335253 0.000367965 8.68308e-05)
(0.000301908 0.000395784 8.68309e-05)
(0.000266263 0.000420591 8.68308e-05)
(0.000228593 0.000442196 8.68307e-05)
(0.000189184 0.000460437 8.68307e-05)
(0.000148334 0.000475173 8.68307e-05)
(0.000106356 0.000486293 8.68309e-05)
(6.35674e-05 0.000493712 8.68309e-05)
(2.02954e-05 0.000497373 8.68307e-05)
(-2.31305e-05 0.00049725 8.68308e-05)
(-6.63811e-05 0.000493341 8.68307e-05)
(-0.000109126 0.000485679 8.68307e-05)
(-0.000151041 0.00047432 8.68305e-05)
(-0.000191806 0.000459351 8.68305e-05)
(-0.000231111 0.000440886 8.68305e-05)
(-0.000268657 0.000419066 8.68306e-05)
(-0.000304159 0.000394056 8.68307e-05)
(-0.000337345 0.000366047 8.68307e-05)
(-0.000367965 0.000335253 8.68308e-05)
(-0.000395784 0.000301908 8.68309e-05)
(-0.000420591 0.000266263 8.68308e-05)
(-0.000442196 0.000228593 8.68307e-05)
(-0.000460437 0.000189184 8.68307e-05)
(-0.000475173 0.000148334 8.68307e-05)
(-0.000486293 0.000106356 8.68309e-05)
(-0.000493712 6.35674e-05 8.6831e-05)
(-0.000497373 2.02954e-05 8.68307e-05)
(-0.00049725 -2.31305e-05 8.68308e-05)
(-0.000493341 -6.63811e-05 8.68307e-05)
(-0.000485679 -0.000109126 8.68307e-05)
(-0.00047432 -0.000151041 8.68305e-05)
(-0.000459351 -0.000191806 8.68305e-05)
(-0.000440886 -0.000231111 8.68305e-05)
(-0.000419066 -0.000268657 8.68306e-05)
(-0.000394056 -0.000304159 8.68307e-05)
(-0.000366047 -0.000337345 8.68307e-05)
(-0.000335253 -0.000367965 8.68308e-05)
(-0.000301908 -0.000395784 8.68309e-05)
(-0.000266263 -0.000420591 8.68308e-05)
(-0.000228593 -0.000442196 8.68307e-05)
(-0.000189184 -0.000460437 8.68307e-05)
(-0.000148334 -0.000475173 8.68307e-05)
(-0.000106356 -0.000486293 8.68309e-05)
(-6.35674e-05 -0.000493712 8.68309e-05)
(-2.02954e-05 -0.000497373 8.68307e-05)
(2.31305e-05 -0.00049725 8.68308e-05)
(6.63811e-05 -0.000493341 8.68307e-05)
(0.000109126 -0.000485679 8.68307e-05)
(0.000151041 -0.00047432 8.68305e-05)
(0.000143105 -0.000492354 0.000102328)
(0.000185472 -0.000478008 0.000102328)
(0.000226428 -0.000460024 0.000102328)
(0.00026566 -0.000438539 0.000102328)
(0.00030287 -0.000413717 0.000102328)
(0.000337775 -0.000385746 0.000102328)
(0.000370109 -0.000354839 0.000102328)
(0.000399628 -0.000321232 0.000102328)
(0.000426104 -0.000285179 0.000102328)
(0.000449338 -0.000246956 0.000102328)
(0.000469151 -0.000206854 0.000102328)
(0.000485394 -0.000165178 0.000102328)
(0.000497943 -0.000122244 0.000102328)
(0.000506703 -7.83805e-05 0.000102328)
(0.000511606 -3.392e-05 0.000102328)
(0.000512616 1.07982e-05 0.000102328)
(0.000509724 5.54347e-05 0.000102328)
(0.000502953 9.96493e-05 0.000102328)
(0.000492354 0.000143105 0.000102328)
(0.000478008 0.000185472 0.000102328)
(0.000460024 0.000226428 0.000102328)
(0.000438539 0.00026566 0.000102328)
(0.000413717 0.00030287 0.000102328)
(0.000385746 0.000337775 0.000102328)
(0.000354839 0.000370109 0.000102328)
(0.000321232 0.000399628 0.000102328)
(0.000285179 0.000426104 0.000102328)
(0.000246956 0.000449338 0.000102328)
(0.000206854 0.000469151 0.000102328)
(0.000165178 0.000485394 0.000102328)
(0.000122244 0.000497943 0.000102328)
(7.83805e-05 0.000506703 0.000102328)
(3.392e-05 0.000511606 0.000102328)
(-1.07982e-05 0.000512616 0.000102328)
(-5.54347e-05 0.000509724 0.000102328)
(-9.96493e-05 0.000502953 0.000102328)
(-0.000143105 0.000492354 0.000102328)
(-0.000185472 0.000478008 0.000102328)
(-0.000226428 0.000460024 0.000102328)
(-0.00026566 0.000438539 0.000102328)
(-0.00030287 0.000413717 0.000102328)
(-0.000337775 0.000385746 0.000102328)
(-0.000370109 0.000354839 0.000102328)
(-0.000399628 0.000321232 0.000102328)
(-0.000426104 0.000285179 0.000102328)
(-0.000449338 0.000246956 0.000102328)
(-0.000469151 0.000206854 0.000102328)
(-0.000485394 0.000165178 0.000102328)
(-0.000497943 0.000122244 0.000102328)
(-0.000506703 7.83805e-05 0.000102328)
(-0.000511606 3.392e-05 0.000102328)
(-0.000512616 -1.07982e-05 0.000102328)
(-0.000509724 -5.54347e-05 0.000102328)
(-0.000502953 -9.96493e-05 0.000102328)
(-0.000492354 -0.000143105 0.000102328)
(-0.000478008 -0.000185472 0.000102328)
(-0.000460024 -0.000226428 0.000102328)
(-0.000438539 -0.00026566 0.000102328)
(-0.000413717 -0.00030287 0.000102328)
(-0.000385746 -0.000337775 0.000102328)
(-0.000354839 -0.000370109 0.000102328)
(-0.000321232 -0.000399628 0.000102328)
(-0.000285179 -0.000426104 0.000102328)
(-0.000246956 -0.000449338 0.000102328)
(-0.000206854 -0.000469151 0.000102328)
(-0.000165178 -0.000485394 0.000102328)
(-0.000122244 -0.000497943 0.000102328)
(-7.83805e-05 -0.000506703 0.000102328)
(-3.392e-05 -0.000511606 0.000102328)
(1.07982e-05 -0.000512616 0.000102328)
(5.54347e-05 -0.000509724 0.000102328)
(9.96493e-05 -0.000502953 0.000102328)
(8.53789e-05 -0.000518192 0.000115341)
(0.000130217 -0.000508779 0.000115341)
(0.000174065 -0.000495494 0.000115342)
(0.000216588 -0.000478438 0.000115342)
(0.000257462 -0.00045774 0.000115341)
(0.000296377 -0.000433559 0.000115341)
(0.000333037 -0.000406078 0.000115342)
(0.000367161 -0.000375507 0.000115341)
(0.000398491 -0.000342077 0.000115341)
(0.000426789 -0.000306045 0.000115341)
(0.000451838 -0.000267683 0.000115341)
(0.00047345 -0.000227285 0.000115342)
(0.000491457 -0.000185156 0.000115341)
(0.000505724 -0.000141618 0.000115341)
(0.000516142 -9.70023e-05 0.000115341)
(0.000522633 -5.16486e-05 0.000115342)
(0.000525146 -5.90166e-06 0.000115341)
(0.000523662 3.98904e-05 0.000115341)
(0.000518192 8.53789e-05 0.000115341)
(0.000508779 0.000130217 0.000115341)
(0.000495494 0.000174065 0.000115342)
(0.000478438 0.000216588 0.000115342)
(0.00045774 0.000257462 0.000115341)
(0.000433559 0.000296377 0.000115341)
(0.000406078 0.000333037 0.000115342)
(0.000375507 0.000367161 0.000115341)
(0.000342077 0.000398491 0.000115341)
(0.000306045 0.000426789 0.000115341)
(0.000267683 0.000451838 0.000115341)
(0.000227285 0.00047345 0.000115342)
(0.000185156 0.000491457 0.000115341)
(0.000141618 0.000505724 0.000115341)