/*--------------------------------*- C++ -*----------------------------------*\
| =========                 |                                                 |
| \\      /  F ield         | OpenFOAM: The Open Source CFD Toolbox           |
|  \\    /   O peration     | Version:  2312                                  |
|   \\  /    A nd           | Website:  www.openfoam.com                      |
|    \\/     M anipulation  |                                                 |
\*---------------------------------------------------------------------------*/
FoamFile
{
    version     2.0;
    format      ascii;
    arch        "LSB;label=32;scalar=64";
    class       volVectorField;
    location    "0.5";
    object      D_0_0;
}
// * * * * * * * * * * * * * * * * * * * * * * * * * * * * * * * * * * * * * //

dimensions      [0 1 0 0 0 0 0];

internalField   nonuniform List<vector> 
12960
(
(9.94074e-05 -0.000123938 3.94246e-06)
(0.000109831 -0.000114802 3.94246e-06)
(0.000119419 -0.000104793 3.94248e-06)
(0.000128097 -9.39861e-05 3.94241e-06)
(0.000135802 -8.24643e-05 3.94241e-06)
(0.000142472 -7.03144e-05 3.94247e-06)
(0.000148058 -5.76296e-05 3.94245e-06)
(0.000152518 -4.45063e-05 3.94232e-06)
(0.000155816 -3.10441e-05 3.94225e-06)
(0.000157929 -1.73458e-05 3.94235e-06)
(0.00015884 -3.51535e-06 3.94245e-06)
(0.000158541 1.03419e-05 3.94254e-06)
(0.000157037 2.41203e-05 3.94256e-06)
(0.000154337 3.77153e-05 3.94256e-06)
(0.000150462 5.10231e-05 3.94247e-06)
(0.000145443 6.39427e-05 3.94246e-06)
(0.000139317 7.63755e-05 3.94244e-06)
(0.00013213 8.82272e-05 3.94236e-06)
(0.000123938 9.94074e-05 3.94246e-06)
(0.000114802 0.000109831 3.94246e-06)
(0.000104793 0.000119419 3.94248e-06)
(9.39861e-05 0.000128097 3.94241e-06)
(8.24643e-05 0.000135802 3.94241e-06)
(7.03144e-05 0.000142472 3.94247e-06)
(5.76296e-05 0.000148058 3.94245e-06)
(4.45063e-05 0.000152518 3.94232e-06)
(3.10441e-05 0.000155816 3.94225e-06)
(1.73458e-05 0.000157929 3.94235e-06)
(3.51535e-06 0.00015884 3.94245e-06)
(-1.03419e-05 0.000158541 3.94254e-06)
(-2.41203e-05 0.000157037 3.94256e-06)
(-3.77153e-05 0.000154337 3.94256e-06)
(-5.10231e-05 0.000150462 3.94247e-06)
(-6.39427e-05 0.000145443 3.94246e-06)
(-7.63755e-05 0.000139317 3.94244e-06)
(-8.82272e-05 0.00013213 3.94236e-06)
(-9.94074e-05 0.000123938 3.94246e-06)
(-0.000109831 0.000114802 3.94246e-06)
(-0.000119419 0.000104793 3.94248e-06)
(-0.000128097 9.39861e-05 3.94241e-06)
(-0.000135802 8.24643e-05 3.94241e-06)
(-0.000142472 7.03144e-05 3.94247e-06)
(-0.000148058 5.76296e-05 3.94245e-06)
(-0.000152518 4.45063e-05 3.94232e-06)
(-0.000155816 3.10441e-05 3.94225e-06)
(-0.000157929 1.73458e-05 3.94235e-06)
(-0.00015884 3.51535e-06 3.94245e-06)
(-0.000158541 -1.03419e-05 3.94254e-06)
(-0.000157037 -2.41203e-05 3.94256e-06)
(-0.000154337 -3.77153e-05 3.94256e-06)
(-0.000150462 -5.10231e-05 3.94247e-06)
(-0.000145443 -6.39427e-05 3.94246e-06)
(-0.000139317 -7.63755e-05 3.94244e-06)
(-0.00013213 -8.82272e-05 3.94236e-06)
(-0.000123938 -9.94074e-05 3.94246e-06)
(-0.000114802 -0.000109831 3.94246e-06)
(-0.000104793 -0.000119419 3.94248e-06)
(-9.39861e-05 -0.000128097 3.94241e-06)
(-8.24643e-05 -0.000135802 3.94241e-06)
(-7.03144e-05 -0.000142472 3.94247e-06)
(-5.76296e-05 -0.000148058 3.94245e-06)
(-4.45063e-05 -0.000152518 3.94232e-06)
(-3.10441e-05 -0.000155816 3.94225e-06)
(-1.73458e-05 -0.000157929 3.94235e-06)
(-3.51535e-06 -0.00015884 3.94245e-06)
(1.03419e-05 -0.000158541 3.94254e-06)
(2.41203e-05 -0.000157037 3.94256e-06)
(3.77153e-05 -0.000154337 3.94256e-06)
(5.10231e-05 -0.000150462 3.94247e-06)
(6.39427e-05 -0.000145443 3.94246e-06)
(7.63755e-05 -0.000139317 3.94244e-06)
(8.82272e-05 -0.00013213 3.94236e-06)
(8.86571e-05 -0.000138527 1.43109e-05)
(0.000100393 -0.000130272 1.43109e-05)
(0.000111365 -0.000121027 1.43109e-05)
(0.00012149 -0.000110861 1.43109e-05)
(0.000130689 -9.98501e-05 1.43109e-05)
(0.000138895 -8.80801e-05 1.43109e-05)
(0.000146043 -7.56395e-05 1.43109e-05)
(0.00015208 -6.2623e-05 1.43108e-05)
(0.000156959 -4.91301e-05 1.43108e-05)
(0.000160643 -3.52634e-05 1.43109e-05)
(0.000163106 -2.11282e-05 1.43109e-05)
(0.000164327 -6.83203e-06 1.43109e-05)
(0.000164297 7.51591e-06 1.4311e-05)
(0.000163016 2.18067e-05 1.4311e-05)
(0.000160495 3.59315e-05 1.4311e-05)
(0.000156753 4.97828e-05 1.43109e-05)
(0.000151817 6.32552e-05 1.43109e-05)
(0.000145727 7.62463e-05 1.43109e-05)
(0.000138527 8.86571e-05 1.43109e-05)
(0.000130272 0.000100393 1.43109e-05)
(0.000121027 0.000111365 1.43109e-05)
(0.000110861 0.00012149 1.43109e-05)
(9.98501e-05 0.000130689 1.43109e-05)
(8.80801e-05 0.000138895 1.43109e-05)
(7.56395e-05 0.000146043 1.43109e-05)
(6.2623e-05 0.00015208 1.43108e-05)
(4.91301e-05 0.000156959 1.43108e-05)
(3.52634e-05 0.000160643 1.43109e-05)
(2.11282e-05 0.000163106 1.43109e-05)
(6.83203e-06 0.000164327 1.43109e-05)
(-7.51591e-06 0.000164297 1.4311e-05)
(-2.18067e-05 0.000163016 1.4311e-05)
(-3.59315e-05 0.000160495 1.4311e-05)
(-4.97828e-05 0.000156753 1.43109e-05)
(-6.32552e-05 0.000151817 1.43109e-05)
(-7.62463e-05 0.000145727 1.43109e-05)
(-8.86571e-05 0.000138527 1.43109e-05)
(-0.000100393 0.000130272 1.43109e-05)
(-0.000111365 0.000121027 1.43109e-05)
(-0.00012149 0.000110861 1.43109e-05)
(-0.000130689 9.98501e-05 1.43109e-05)
(-0.000138895 8.80801e-05 1.43109e-05)
(-0.000146043 7.56395e-05 1.43109e-05)
(-0.00015208 6.2623e-05 1.43108e-05)
(-0.000156959 4.91301e-05 1.43108e-05)
(-0.000160643 3.52634e-05 1.43109e-05)
(-0.000163106 2.11282e-05 1.43109e-05)
(-0.000164327 6.83203e-06 1.43109e-05)
(-0.000164297 -7.51591e-06 1.4311e-05)
(-0.000163016 -2.18067e-05 1.4311e-05)
(-0.000160495 -3.59315e-05 1.4311e-05)
(-0.000156753 -4.97828e-05 1.43109e-05)
(-0.000151817 -6.32552e-05 1.43109e-05)
(-0.000145727 -7.62463e-05 1.43109e-05)
(-0.000138527 -8.86571e-05 1.43109e-05)
(-0.000130272 -0.000100393 1.43109e-05)
(-0.000121027 -0.000111365 1.43109e-05)
(-0.000110861 -0.00012149 1.43109e-05)
(-9.98501e-05 -0.000130689 1.43109e-05)
(-8.80801e-05 -0.000138895 1.43109e-05)
(-7.56395e-05 -0.000146043 1.43109e-05)
(-6.2623e-05 -0.00015208 1.43108e-05)
(-4.91301e-05 -0.000156959 1.43108e-05)
(-3.52634e-05 -0.000160643 1.43109e-05)
(-2.11282e-05 -0.000163106 1.43109e-05)
(-6.83203e-06 -0.000164327 1.43109e-05)
(7.51591e-06 -0.000164297 1.4311e-05)
(2.18067e-05 -0.000163016 1.4311e-05)
(3.59315e-05 -0.000160495 1.4311e-05)
(4.97828e-05 -0.000156753 1.43109e-05)
(6.32552e-05 -0.000151817 1.43109e-05)
(7.62463e-05 -0.000145727 1.43109e-05)
(7.20373e-05 -0.000152391 1.91958e-05)
(8.5045e-05 -0.000145533 1.91958e-05)
(9.74054e-05 -0.000137567 1.91959e-05)
(0.000109024 -0.000128554 1.91958e-05)
(0.000119814 -0.000118563 1.91959e-05)
(0.000129691 -0.000107669 1.91958e-05)
(0.000138581 -9.59557e-05 1.91958e-05)
(0.000146417 -8.35125e-05 1.91958e-05)
(0.000153139 -7.04336e-05 1.91958e-05)
(0.000158695 -5.68188e-05 1.91958e-05)
(0.000163043 -4.27714e-05 1.91958e-05)
(0.00016615 -2.83984e-05 1.91958e-05)
(0.000167993 -1.38095e-05 1.91959e-05)
(0.000168558 8.84707e-07 1.91959e-05)
(0.000167839 1.5572e-05 1.91959e-05)
(0.000165843 3.0141e-05 1.91958e-05)
(0.000162585 4.44805e-05 1.91959e-05)
(0.00015809 5.84814e-05 1.91958e-05)
(0.000152391 7.20373e-05 1.91958e-05)
(0.000145533 8.5045e-05 1.91958e-05)
(0.000137567 9.74054e-05 1.91959e-05)
(0.000128554 0.000109024 1.91958e-05)
(0.000118563 0.000119814 1.91959e-05)
(0.000107669 0.000129691 1.91958e-05)
(9.59557e-05 0.000138581 1.91958e-05)
(8.35125e-05 0.000146417 1.91958e-05)
(7.04336e-05 0.000153139 1.91958e-05)
(5.68188e-05 0.000158695 1.91958e-05)
(4.27714e-05 0.000163043 1.91958e-05)
(2.83984e-05 0.00016615 1.91958e-05)
(1.38095e-05 0.000167993 1.91959e-05)
(-8.84707e-07 0.000168558 1.91959e-05)
(-1.5572e-05 0.000167839 1.91959e-05)
(-3.0141e-05 0.000165843 1.91958e-05)
(-4.44805e-05 0.000162585 1.91959e-05)
(-5.84814e-05 0.00015809 1.91958e-05)
(-7.20373e-05 0.000152391 1.91958e-05)
(-8.5045e-05 0.000145533 1.91958e-05)
(-9.74054e-05 0.000137567 1.91959e-05)
(-0.000109024 0.000128554 1.91958e-05)
(-0.000119814 0.000118563 1.91959e-05)
(-0.000129691 0.000107669 1.91958e-05)
(-0.000138581 9.59557e-05 1.91958e-05)
(-0.000146417 8.35125e-05 1.91958e-05)
(-0.000153139 7.04336e-05 1.91958e-05)
(-0.000158695 5.68188e-05 1.91958e-05)
(-0.000163043 4.27714e-05 1.91958e-05)
(-0.00016615 2.83984e-05 1.91958e-05)
(-0.000167993 1.38095e-05 1.91959e-05)
(-0.000168558 -8.84707e-07 1.91959e-05)
(-0.000167839 -1.5572e-05 1.91959e-05)
(-0.000165843 -3.0141e-05 1.91958e-05)
(-0.000162585 -4.44805e-05 1.91959e-05)
(-0.00015809 -5.84814e-05 1.91958e-05)
(-0.000152391 -7.20373e-05 1.91958e-05)
(-0.000145533 -8.5045e-05 1.91958e-05)
(-0.000137567 -9.74054e-05 1.91959e-05)
(-0.000128554 -0.000109024 1.91958e-05)
(-0.000118563 -0.000119814 1.91959e-05)
(-0.000107669 -0.000129691 1.91958e-05)
(-9.59557e-05 -0.000138581 1.91958e-05)
(-8.35125e-05 -0.000146417 1.91958e-05)
(-7.04336e-05 -0.000153139 1.91958e-05)
(-5.68188e-05 -0.000158695 1.91958e-05)
(-4.27714e-05 -0.000163043 1.91958e-05)
(-2.83984e-05 -0.00016615 1.91958e-05)
(-1.38095e-05 -0.000167993 1.91959e-05)
(8.84707e-07 -0.000168558 1.91959e-05)
(1.5572e-05 -0.000167839 1.91959e-05)
(3.0141e-05 -0.000165843 1.91958e-05)
(4.44805e-05 -0.000162585 1.91959e-05)
(5.84814e-05 -0.00015809 1.91958e-05)
(5.06208e-05 -0.000164002 2.13188e-05)
(6.47219e-05 -0.000158967 2.13188e-05)
(7.83307e-05 -0.000152721 2.13189e-05)
(9.13427e-05 -0.000145312 2.13188e-05)
(0.00010366 -0.000136798 2.13188e-05)
(0.000115188 -0.000127243 2.13188e-05)
(0.00012584 -0.00011672 2.13189e-05)
(0.000135534 -0.000105308 2.13189e-05)
(0.000144197 -9.3095e-05 2.13188e-05)
(0.000151762 -8.01733e-05 2.13188e-05)
(0.000158172 -6.66411e-05 2.13189e-05)
(0.000163378 -5.26019e-05 2.13189e-05)
(0.00016734 -3.81624e-05 2.13188e-05)
(0.000170029 -2.34324e-05 2.13187e-05)
(0.000171425 -8.52422e-06 2.13188e-05)
(0.000171516 6.44887e-06 2.13189e-05)
(0.000170301 2.13729e-05 2.13188e-05)
(0.00016779 3.61344e-05 2.13188e-05)
(0.000164002 5.06208e-05 2.13188e-05)
(0.000158967 6.47219e-05 2.13188e-05)
(0.000152721 7.83307e-05 2.13189e-05)
(0.000145312 9.13427e-05 2.13188e-05)
(0.000136798 0.00010366 2.13188e-05)
(0.000127243 0.000115188 2.13188e-05)
(0.00011672 0.00012584 2.13189e-05)
(0.000105308 0.000135534 2.13189e-05)
(9.3095e-05 0.000144197 2.13188e-05)
(8.01733e-05 0.000151762 2.13188e-05)
(6.66411e-05 0.000158172 2.13189e-05)
(5.26019e-05 0.000163378 2.13189e-05)
(3.81624e-05 0.00016734 2.13188e-05)
(2.34324e-05 0.000170029 2.13187e-05)
(8.52422e-06 0.000171425 2.13188e-05)
(-6.44887e-06 0.000171516 2.13189e-05)
(-2.13729e-05 0.000170301 2.13188e-05)
(-3.61344e-05 0.00016779 2.13188e-05)
(-5.06208e-05 0.000164002 2.13188e-05)
(-6.47219e-05 0.000158967 2.13188e-05)
(-7.83307e-05 0.000152721 2.13189e-05)
(-9.13427e-05 0.000145312 2.13188e-05)
(-0.00010366 0.000136798 2.13188e-05)
(-0.000115188 0.000127243 2.13188e-05)
(-0.00012584 0.00011672 2.13189e-05)
(-0.000135534 0.000105308 2.13189e-05)
(-0.000144197 9.3095e-05 2.13188e-05)
(-0.000151762 8.01733e-05 2.13188e-05)
(-0.000158172 6.66411e-05 2.13189e-05)
(-0.000163378 5.26019e-05 2.13189e-05)
(-0.00016734 3.81624e-05 2.13188e-05)
(-0.000170029 2.34324e-05 2.13187e-05)
(-0.000171425 8.52422e-06 2.13188e-05)
(-0.000171516 -6.44887e-06 2.13189e-05)
(-0.000170301 -2.13729e-05 2.13188e-05)
(-0.00016779 -3.61344e-05 2.13188e-05)
(-0.000164002 -5.06208e-05 2.13188e-05)
(-0.000158967 -6.47219e-05 2.13188e-05)
(-0.000152721 -7.83307e-05 2.13189e-05)
(-0.000145312 -9.13427e-05 2.13188e-05)
(-0.000136798 -0.00010366 2.13188e-05)
(-0.000127243 -0.000115188 2.13188e-05)
(-0.00011672 -0.00012584 2.13189e-05)
(-0.000105308 -0.000135534 2.13189e-05)
(-9.3095e-05 -0.000144197 2.13188e-05)
(-8.01733e-05 -0.000151762 2.13188e-05)
(-6.66411e-05 -0.000158172 2.13189e-05)
(-5.26019e-05 -0.000163378 2.13189e-05)
(-3.81624e-05 -0.00016734 2.13188e-05)
(-2.34324e-05 -0.000170029 2.13187e-05)
(-8.52422e-06 -0.000171425 2.13188e-05)
(6.44887e-06 -0.000171516 2.13189e-05)
(2.13729e-05 -0.000170301 2.13188e-05)
(3.61344e-05 -0.00016779 2.13188e-05)
(2.3296e-05 -0.000172694 2.41237e-05)
(3.82586e-05 -0.000170006 2.41238e-05)
(5.29298e-05 -0.000166025 2.41237e-05)
(6.71985e-05 -0.00016078 2.41237e-05)
(8.09556e-05 -0.000154311 2.41237e-05)
(9.40966e-05 -0.000146668 2.41237e-05)
(0.000106521 -0.000137909 2.41237e-05)
(0.000118136 -0.0001281 2.41237e-05)
(0.000128851 -0.000117317 2.41237e-05)
(0.000138586 -0.000105641 2.41237e-05)
(0.000147265 -9.31594e-05 2.41236e-05)
(0.000154824 -7.99699e-05 2.41237e-05)
(0.000161205 -6.61718e-05 2.41237e-05)
(0.000166358 -5.18701e-05 2.41236e-05)
(0.000170246 -3.71738e-05 2.41237e-05)
(0.000172838 -2.21944e-05 2.41237e-05)
(0.000174116 -7.04594e-06 2.41238e-05)
(0.000174067 8.15605e-06 2.41237e-05)
(0.000172694 2.3296e-05 2.41237e-05)
(0.000170006 3.82586e-05 2.41238e-05)
(0.000166025 5.29298e-05 2.41237e-05)
(0.00016078 6.71985e-05 2.41237e-05)
(0.000154311 8.09556e-05 2.41237e-05)
(0.000146668 9.40966e-05 2.41237e-05)
(0.000137909 0.000106521 2.41237e-05)
(0.0001281 0.000118136 2.41237e-05)
(0.000117317 0.000128851 2.41237e-05)
(0.000105641 0.000138586 2.41237e-05)
(9.31594e-05 0.000147265 2.41236e-05)
(7.99699e-05 0.000154824 2.41237e-05)
(6.61718e-05 0.000161205 2.41237e-05)
(5.18701e-05 0.000166358 2.41236e-05)
(3.71738e-05 0.000170246 2.41237e-05)
(2.21944e-05 0.000172838 2.41237e-05)
(7.04594e-06 0.000174116 2.41238e-05)
(-8.15605e-06 0.000174067 2.41237e-05)
(-2.3296e-05 0.000172694 2.41237e-05)
(-3.82586e-05 0.000170006 2.41238e-05)
(-5.29298e-05 0.000166025 2.41237e-05)
(-6.71985e-05 0.00016078 2.41237e-05)
(-8.09556e-05 0.000154311 2.41237e-05)
(-9.40966e-05 0.000146668 2.41237e-05)
(-0.000106521 0.000137909 2.41237e-05)
(-0.000118136 0.0001281 2.41237e-05)
(-0.000128851 0.000117317 2.41237e-05)
(-0.000138586 0.000105641 2.41237e-05)
(-0.000147265 9.31594e-05 2.41236e-05)
(-0.000154824 7.99699e-05 2.41237e-05)
(-0.000161205 6.61718e-05 2.41237e-05)
(-0.000166358 5.18701e-05 2.41236e-05)
(-0.000170246 3.71738e-05 2.41237e-05)
(-0.000172838 2.21944e-05 2.41237e-05)
(-0.000174116 7.04594e-06 2.41238e-05)
(-0.000174067 -8.15605e-06 2.41237e-05)
(-0.000172694 -2.3296e-05 2.41237e-05)
(-0.000170006 -3.82586e-05 2.41238e-05)
(-0.000166025 -5.29298e-05 2.41237e-05)
(-0.00016078 -6.71985e-05 2.41237e-05)
(-0.000154311 -8.09556e-05 2.41237e-05)
(-0.000146668 -9.40966e-05 2.41237e-05)
(-0.000137909 -0.000106521 2.41237e-05)
(-0.0001281 -0.000118136 2.41237e-05)
(-0.000117317 -0.000128851 2.41237e-05)
(-0.000105641 -0.000138586 2.41237e-05)
(-9.31594e-05 -0.000147265 2.41236e-05)
(-7.99699e-05 -0.000154824 2.41237e-05)
(-6.61718e-05 -0.000161205 2.41237e-05)
(-5.18701e-05 -0.000166358 2.41236e-05)
(-3.71738e-05 -0.000170246 2.41237e-05)
(-2.21944e-05 -0.000172838 2.41237e-05)
(-7.04594e-06 -0.000174116 2.41238e-05)
(8.15605e-06 -0.000174067 2.41237e-05)
(-1.68771e-05 -0.000179673 2.71853e-05)
(-1.1533e-06 -0.00018046 2.71852e-05)
(1.45791e-05 -0.000179874 2.71852e-05)
(3.02011e-05 -0.00017792 2.71854e-05)
(4.55929e-05 -0.00017461 2.71853e-05)
(6.06377e-05 -0.000169972 2.71852e-05)
(7.52208e-05 -0.00016404 2.71852e-05)
(8.92313e-05 -0.00015686 2.71852e-05)
(0.000102563 -0.000148486 2.71853e-05)
(0.000115114 -0.000138982 2.71853e-05)
(0.000126789 -0.00012842 2.71853e-05)
(0.0001375 -0.000116881 2.71853e-05)
(0.000147163 -0.000104453 2.71851e-05)
(0.000155707 -9.12291e-05 2.71851e-05)
(0.000163066 -7.73115e-05 2.71852e-05)
(0.000169183 -6.28049e-05 2.71852e-05)
(0.000174012 -4.78205e-05 2.71852e-05)
(0.000177519 -3.24724e-05 2.71853e-05)
(0.000179673 -1.68771e-05 2.71853e-05)
(0.00018046 -1.1533e-06 2.71852e-05)
(0.000179874 1.45791e-05 2.71852e-05)
(0.00017792 3.02011e-05 2.71854e-05)
(0.00017461 4.55929e-05 2.71853e-05)
(0.000169972 6.06377e-05 2.71852e-05)
(0.00016404 7.52208e-05 2.71852e-05)
(0.00015686 8.92313e-05 2.71852e-05)
(0.000148486 0.000102563 2.71853e-05)
(0.000138982 0.000115114 2.71853e-05)
(0.00012842 0.000126789 2.71853e-05)
(0.000116881 0.0001375 2.71853e-05)
(0.000104453 0.000147163 2.71851e-05)
(9.12291e-05 0.000155707 2.71851e-05)
(7.73115e-05 0.000163066 2.71852e-05)
(6.28049e-05 0.000169183 2.71852e-05)
(4.78205e-05 0.000174012 2.71852e-05)
(3.24724e-05 0.000177519 2.71853e-05)
(1.68771e-05 0.000179673 2.71853e-05)
(1.1533e-06 0.00018046 2.71852e-05)
(-1.45791e-05 0.000179874 2.71852e-05)
(-3.02011e-05 0.00017792 2.71854e-05)
(-4.55929e-05 0.00017461 2.71853e-05)
(-6.06377e-05 0.000169972 2.71852e-05)
(-7.52208e-05 0.00016404 2.71852e-05)
(-8.92313e-05 0.00015686 2.71852e-05)
(-0.000102563 0.000148486 2.71853e-05)
(-0.000115114 0.000138982 2.71853e-05)
(-0.000126789 0.00012842 2.71853e-05)
(-0.0001375 0.000116881 2.71853e-05)
(-0.000147163 0.000104453 2.71851e-05)
(-0.000155707 9.12291e-05 2.71851e-05)
(-0.000163066 7.73115e-05 2.71852e-05)
(-0.000169183 6.28049e-05 2.71852e-05)
(-0.000174012 4.78205e-05 2.71852e-05)
(-0.000177519 3.24724e-05 2.71853e-05)
(-0.000179673 1.68771e-05 2.71853e-05)
(-0.00018046 1.1533e-06 2.71852e-05)
(-0.000179874 -1.45791e-05 2.71852e-05)
(-0.00017792 -3.02011e-05 2.71854e-05)
(-0.00017461 -4.55929e-05 2.71853e-05)
(-0.000169972 -6.06377e-05 2.71852e-05)
(-0.00016404 -7.52208e-05 2.71852e-05)
(-0.00015686 -8.92313e-05 2.71852e-05)
(-0.000148486 -0.000102563 2.71853e-05)
(-0.000138982 -0.000115114 2.71853e-05)
(-0.00012842 -0.000126789 2.71853e-05)
(-0.000116881 -0.0001375 2.71853e-05)
(-0.000104453 -0.000147163 2.71851e-05)
(-9.12291e-05 -0.000155707 2.71851e-05)
(-7.73115e-05 -0.000163066 2.71852e-05)
(-6.28049e-05 -0.000169183 2.71852e-05)
(-4.78205e-05 -0.000174012 2.71852e-05)
(-3.24724e-05 -0.000177519 2.71853e-05)
(0.000256482 -0.000379232 3.10978e-05)
(0.000288558 -0.000355436 3.10977e-05)
(0.000318439 -0.000328934 3.10979e-05)
(0.000345895 -0.000299928 3.10979e-05)
(0.000370719 -0.00026864 3.10978e-05)
(0.000392722 -0.000235308 3.10977e-05)
(0.000411736 -0.000200184 3.10977e-05)
(0.000427616 -0.000163537 3.10975e-05)
(0.000440243 -0.000125646 3.10973e-05)
(0.000449518 -8.67978e-05 3.10975e-05)
(0.000455372 -4.72893e-05 3.10978e-05)
(0.000457761 -7.42105e-06 3.10979e-05)
(0.000456666 3.25036e-05 3.1098e-05)
(0.000452095 7.2181e-05 3.10981e-05)
(0.000444083 0.000111309 3.10981e-05)
(0.000432692 0.00014959 3.10979e-05)
(0.000418008 0.000186732 3.10978e-05)
(0.000400143 0.000222454 3.10977e-05)
(0.000379232 0.000256482 3.10978e-05)
(0.000355436 0.000288558 3.10977e-05)
(0.000328934 0.000318439 3.10979e-05)
(0.000299928 0.000345895 3.10979e-05)
(0.00026864 0.000370719 3.10978e-05)
(0.000235308 0.000392722 3.10977e-05)
(0.000200184 0.000411736 3.10977e-05)
(0.000163537 0.000427616 3.10975e-05)
(0.000125646 0.000440243 3.10973e-05)
(8.67978e-05 0.000449518 3.10975e-05)
(4.72893e-05 0.000455372 3.10978e-05)
(7.42105e-06 0.000457761 3.10979e-05)
(-3.25036e-05 0.000456666 3.1098e-05)
(-7.2181e-05 0.000452095 3.10981e-05)
(-0.000111309 0.000444083 3.10981e-05)
(-0.00014959 0.000432692 3.10979e-05)
(-0.000186732 0.000418008 3.10978e-05)
(-0.000222454 0.000400143 3.10977e-05)
(-0.000256482 0.000379232 3.10978e-05)
(-0.000288558 0.000355436 3.10977e-05)
(-0.000318439 0.000328934 3.10979e-05)
(-0.000345895 0.000299928 3.10979e-05)
(-0.000370719 0.00026864 3.10978e-05)
(-0.000392722 0.000235308 3.10977e-05)
(-0.000411736 0.000200184 3.10977e-05)
(-0.000427616 0.000163537 3.10975e-05)
(-0.000440243 0.000125646 3.10973e-05)
(-0.000449518 8.67978e-05 3.10975e-05)
(-0.000455372 4.72893e-05 3.10978e-05)
(-0.000457761 7.42105e-06 3.10979e-05)
(-0.000456666 -3.25036e-05 3.1098e-05)
(-0.000452095 -7.2181e-05 3.10981e-05)
(-0.000444083 -0.000111309 3.10981e-05)
(-0.000432692 -0.00014959 3.10979e-05)
(-0.000418008 -0.000186732 3.10978e-05)
(-0.000400143 -0.000222454 3.10977e-05)
(-0.000379232 -0.000256482 3.10978e-05)
(-0.000355436 -0.000288558 3.10977e-05)
(-0.000328934 -0.000318439 3.10979e-05)
(-0.000299928 -0.000345895 3.10979e-05)
(-0.00026864 -0.000370719 3.10978e-05)
(-0.000235308 -0.000392722 3.10977e-05)
(-0.000200184 -0.000411736 3.10977e-05)
(-0.000163537 -0.000427616 3.10975e-05)
(-0.000125646 -0.000440243 3.10973e-05)
(-8.67978e-05 -0.000449518 3.10975e-05)
(-4.72893e-05 -0.000455372 3.10978e-05)
(-7.42105e-06 -0.000457761 3.10979e-05)
(3.25036e-05 -0.000456666 3.1098e-05)
(7.2181e-05 -0.000452095 3.10981e-05)
(0.000111309 -0.000444083 3.10981e-05)
(0.00014959 -0.000432692 3.10979e-05)
(0.000186732 -0.000418008 3.10978e-05)
(0.000222454 -0.000400143 3.10977e-05)
(0.000229593 -0.000417695 6.30574e-05)
(0.000265123 -0.000396095 6.30573e-05)
(0.000298637 -0.000371481 6.30574e-05)
(0.000329877 -0.000344039 6.30575e-05)
(0.000358606 -0.000313979 6.30573e-05)
(0.000384607 -0.00028153 6.30572e-05)
(0.00040768 -0.000246938 6.30575e-05)
(0.000427651 -0.000210466 6.30573e-05)
(0.000444367 -0.000172394 6.30574e-05)
(0.000457701 -0.000133009 6.30574e-05)
(0.000467552 -9.26109e-05 6.30575e-05)
(0.000473844 -5.15085e-05 6.30576e-05)
(0.00047653 -1.00144e-05 6.30575e-05)
(0.000475589 3.15562e-05 6.30575e-05)
(0.000471029 7.28864e-05 6.30576e-05)
(0.000462885 0.000113662 6.30576e-05)
(0.000451217 0.000153573 6.30574e-05)
(0.000436115 0.000192315 6.30574e-05)
(0.000417695 0.000229593 6.30574e-05)
(0.000396095 0.000265123 6.30573e-05)
(0.000371481 0.000298637 6.30574e-05)
(0.000344039 0.000329877 6.30575e-05)
(0.000313979 0.000358606 6.30573e-05)
(0.00028153 0.000384607 6.30572e-05)
(0.000246938 0.00040768 6.30575e-05)
(0.000210466 0.000427651 6.30573e-05)
(0.000172394 0.000444367 6.30574e-05)
(0.000133009 0.000457701 6.30574e-05)
(9.26109e-05 0.000467552 6.30575e-05)
(5.15085e-05 0.000473844 6.30576e-05)
(1.00144e-05 0.00047653 6.30575e-05)
(-3.15562e-05 0.000475589 6.30575e-05)
(-7.28864e-05 0.000471029 6.30576e-05)
(-0.000113662 0.000462885 6.30576e-05)
(-0.000153573 0.000451217 6.30574e-05)
(-0.000192315 0.000436115 6.30574e-05)
(-0.000229593 0.000417695 6.30574e-05)
(-0.000265123 0.000396095 6.30573e-05)
(-0.000298637 0.000371481 6.30574e-05)
(-0.000329877 0.000344039 6.30575e-05)
(-0.000358606 0.000313979 6.30573e-05)
(-0.000384607 0.00028153 6.30572e-05)
(-0.00040768 0.000246938 6.30575e-05)
(-0.000427651 0.000210466 6.30573e-05)
(-0.000444367 0.000172394 6.30574e-05)
(-0.000457701 0.000133009 6.30574e-05)
(-0.000467552 9.26109e-05 6.30575e-05)
(-0.000473844 5.15085e-05 6.30576e-05)
(-0.00047653 1.00144e-05 6.30575e-05)
(-0.000475589 -3.15562e-05 6.30575e-05)
(-0.000471029 -7.28864e-05 6.30576e-05)
(-0.000462885 -0.000113662 6.30576e-05)
(-0.000451217 -0.000153573 6.30574e-05)
(-0.000436115 -0.000192315 6.30574e-05)
(-0.000417695 -0.000229593 6.30574e-05)
(-0.000396095 -0.000265123 6.30573e-05)
(-0.000371481 -0.000298637 6.30574e-05)
(-0.000344039 -0.000329877 6.30575e-05)
(-0.000313979 -0.000358606 6.30573e-05)
(-0.00028153 -0.000384607 6.30572e-05)
(-0.000246938 -0.00040768 6.30575e-05)
(-0.000210466 -0.000427651 6.30573e-05)
(-0.000172394 -0.000444367 6.30574e-05)
(-0.000133009 -0.000457701 6.30574e-05)
(-9.26109e-05 -0.000467552 6.30575e-05)
(-5.15085e-05 -0.000473844 6.30576e-05)
(-1.00144e-05 -0.00047653 6.30575e-05)
(3.15562e-05 -0.000475589 6.30575e-05)
(7.28864e-05 -0.000471029 6.30576e-05)
(0.000113662 -0.000462885 6.30576e-05)
(0.000153573 -0.000451217 6.30574e-05)
(0.000192315 -0.000436115 6.30574e-05)
(0.00019083 -0.000454758 8.56256e-05)
(0.000229739 -0.000436396 8.56256e-05)
(0.000266899 -0.000414712 8.56257e-05)
(0.000302028 -0.000389872 8.56258e-05)
(0.000334858 -0.000362065 8.56257e-05)
(0.00036514 -0.000331503 8.56259e-05)
(0.000392643 -0.000298418 8.5626e-05)
(0.000417157 -0.000263061 8.56258e-05)
(0.000438497 -0.000225702 8.56258e-05)
(0.000456499 -0.000186626 8.56258e-05)
(0.000471028 -0.000146129 8.56258e-05)
(0.000481972 -0.00010452 8.5626e-05)
(0.000489247 -6.2116e-05 8.5626e-05)
(0.000492799 -1.92387e-05 8.56257e-05)
(0.0004926 2.37845e-05 8.56259e-05)
(0.000488653 6.66274e-05 8.56258e-05)
(0.000480987 0.000108963 8.56258e-05)
(0.00046966 0.000150469 8.56256e-05)
(0.000454758 0.00019083 8.56256e-05)
(0.000436396 0.000229739 8.56256e-05)
(0.000414712 0.000266899 8.56257e-05)
(0.000389872 0.000302028 8.56258e-05)
(0.000362065 0.000334858 8.56257e-05)
(0.000331503 0.00036514 8.56259e-05)
(0.000298418 0.000392643 8.5626e-05)
(0.000263061 0.000417157 8.56258e-05)
(0.000225702 0.000438497 8.56258e-05)
(0.000186626 0.000456499 8.56258e-05)
(0.000146129 0.000471028 8.56258e-05)
(0.00010452 0.000481972 8.5626e-05)
(6.2116e-05 0.000489247 8.5626e-05)
(1.92387e-05 0.000492799 8.56257e-05)
(-2.37845e-05 0.0004926 8.56259e-05)
(-6.66274e-05 0.000488653 8.56258e-05)
(-0.000108963 0.000480987 8.56258e-05)
(-0.000150469 0.00046966 8.56256e-05)
(-0.00019083 0.000454758 8.56256e-05)
(-0.000229739 0.000436396 8.56256e-05)
(-0.000266899 0.000414712 8.56257e-05)
(-0.000302028 0.000389872 8.56258e-05)
(-0.000334858 0.000362065 8.56257e-05)
(-0.00036514 0.000331503 8.56259e-05)
(-0.000392643 0.000298418 8.5626e-05)
(-0.000417157 0.000263061 8.56258e-05)
(-0.000438497 0.000225702 8.56258e-05)
(-0.000456499 0.000186626 8.56258e-05)
(-0.000471028 0.000146129 8.56258e-05)
(-0.000481972 0.00010452 8.5626e-05)
(-0.000489247 6.2116e-05 8.5626e-05)
(-0.000492799 1.92387e-05 8.56257e-05)
(-0.0004926 -2.37845e-05 8.56259e-05)
(-0.000488653 -6.66274e-05 8.56258e-05)
(-0.000480987 -0.000108963 8.56258e-05)
(-0.00046966 -0.000150469 8.56256e-05)
(-0.000454758 -0.00019083 8.56256e-05)
(-0.000436396 -0.000229739 8.56256e-05)
(-0.000414712 -0.000266899 8.56257e-05)
(-0.000389872 -0.000302028 8.56258e-05)
(-0.000362065 -0.000334858 8.56257e-05)
(-0.000331503 -0.00036514 8.56259e-05)
(-0.000298418 -0.000392643 8.5626e-05)
(-0.000263061 -0.000417157 8.56258e-05)
(-0.000225702 -0.000438497 8.56258e-05)
(-0.000186626 -0.000456499 8.56258e-05)
(-0.000146129 -0.000471028 8.56258e-05)
(-0.00010452 -0.000481972 8.5626e-05)
(-6.2116e-05 -0.000489247 8.5626e-05)
(-1.92387e-05 -0.000492799 8.56257e-05)
(2.37845e-05 -0.0004926 8.56259e-05)
(6.66274e-05 -0.000488653 8.56258e-05)
(0.000108963 -0.000480987 8.56258e-05)
(0.000150469 -0.00046966 8.56256e-05)
(0.000142939 -0.000487094 0.000100801)
(0.000184848 -0.000472783 0.000100801)
(0.00022535 -0.000454873 0.000100801)
(0.000264137 -0.000433502 0.000100801)
(0.000300914 -0.000408831 0.000100801)
(0.000335401 -0.000381049 0.000100801)
(0.000367335 -0.000350367 0.000100801)
(0.000396474 -0.000317018 0.000100801)
(0.000422595 -0.000281257 0.000100801)
(0.0004455 -0.000243355 0.000100801)
(0.000465015 -0.000203601 0.000100801)
(0.00048099 -0.000162298 0.000100801)
(0.000493305 -0.000119759 0.000100801)
(0.000501865 -7.63086e-05 0.000100801)
(0.000506606 -3.22776e-05 0.000100801)
(0.000507492 1.19987e-05 0.000100801)
(0.000504515 5.6184e-05 0.000100801)
(0.000497698 9.99417e-05 0.000100801)
(0.000487094 0.000142939 0.000100801)
(0.000472783 0.000184848 0.000100801)
(0.000454873 0.00022535 0.000100801)
(0.000433502 0.000264137 0.000100801)
(0.000408831 0.000300914 0.000100801)
(0.000381049 0.000335401 0.000100801)
(0.000350367 0.000367335 0.000100801)
(0.000317018 0.000396474 0.000100801)
(0.000281257 0.000422595 0.000100801)
(0.000243355 0.0004455 0.000100801)
(0.000203601 0.000465015 0.000100801)
(0.000162298 0.00048099 0.000100801)
(0.000119759 0.000493305 0.000100801)
(7.63086e-05 0.000501865 0.000100801)
(3.22776e-05 0.000506606 0.000100801)
(-1.19987e-05 0.000507492 0.000100801)
(-5.6184e-05 0.000504515 0.000100801)
(-9.99417e-05 0.000497698 0.000100801)
(-0.000142939 0.000487094 0.000100801)
(-0.000184848 0.000472783 0.000100801)
(-0.00022535 0.000454873 0.000100801)
(-0.000264137 0.000433502 0.000100801)
(-0.000300914 0.000408831 0.000100801)
(-0.000335401 0.000381049 0.000100801)
(-0.000367335 0.000350367 0.000100801)
(-0.000396474 0.000317018 0.000100801)
(-0.000422595 0.000281257 0.000100801)
(-0.0004455 0.000243355 0.000100801)
(-0.000465015 0.000203601 0.000100801)
(-0.00048099 0.000162298 0.000100801)
(-0.000493305 0.000119759 0.000100801)
(-0.000501865 7.63086e-05 0.000100801)
(-0.000506606 3.22776e-05 0.000100801)
(-0.000507492 -1.19987e-05 0.000100801)
(-0.000504515 -5.6184e-05 0.000100801)
(-0.000497698 -9.99417e-05 0.000100801)
(-0.000487094 -0.000142939 0.000100801)
(-0.000472783 -0.000184848 0.000100801)
(-0.000454873 -0.00022535 0.000100801)
(-0.000433502 -0.000264137 0.000100801)
(-0.000408831 -0.000300914 0.000100801)
(-0.000381049 -0.000335401 0.000100801)
(-0.000350367 -0.000367335 0.000100801)
(-0.000317018 -0.000396474 0.000100801)
(-0.000281257 -0.000422595 0.000100801)
(-0.000243355 -0.0004455 0.000100801)
(-0.000203601 -0.000465015 0.000100801)
(-0.000162298 -0.00048099 0.000100801)
(-0.000119759 -0.000493305 0.000100801)
(-7.63086e-05 -0.000501865 0.000100801)
(-3.22776e-05 -0.000506606 0.000100801)
(1.19987e-05 -0.000507492 0.000100801)
(5.6184e-05 -0.000504515 0.000100801)
(9.99417e-05 -0.000497698 0.000100801)
(8.6188e-05 -0.000512466 0.000113632)
(0.000130524 -0.000503005 0.000113632)
(0.000173867 -0.000489715 0.000113632)
(0.000215887 -0.000472697 0.000113632)
(0.000256264 -0.000452082 0.000113632)
(0.00029469 -0.000428027 0.000113632)
(0.000330874 -0.000400715 0.000113632)
(0.000364539 -0.000370352 0.000113632)
(0.00039543 -0.000337171 0.000113632)
(0.000423312 -0.000301424 0.000113632)
(0.000447972 -0.000263383 0.000113632)
(0.000469223 -0.000223338 0.000113632)
(0.000486902 -0.000181592 0.000113632)
(0.000500876 -0.000138464 0.000113632)
(0.000511038 -9.42836e-05 0.000113632)
(0.000517311 -4.93851e-05 0.000113632)
(0.000519647 -4.11053e-06 0.000113632)
(0.000518028 4.11955e-05 0.000113632)
(0.000512466 8.6188e-05 0.000113632)
(0.000503005 0.000130524 0.000113632)
(0.000489715 0.000173867 0.000113632)
(0.000472697 0.000215887 0.000113632)
(0.000452082 0.000256264 0.000113632)
(0.000428027 0.00029469 0.000113632)
(0.000400715 0.000330874 0.000113632)
(0.000370352 0.000364539 0.000113632)
(0.000337171 0.00039543 0.000113632)
(0.000301424 0.000423312 0.000113632)
(0.000263383 0.000447972 0.000113632)
(0.000223338 0.000469223 0.000113632)
(0.000181592 0.000486902 0.000113632)
(0.000138464 0.000500876 0.000113632)