/*--------------------------------*- C++ -*----------------------------------*\
| =========                 |                                                 |
| \\      /  F ield         | OpenFOAM: The Open Source CFD Toolbox           |
|  \\    /   O peration     | Version:  2312                                  |
|   \\  /    A nd           | Website:  www.openfoam.com                      |
|    \\/     M anipulation  |                                                 |
\*---------------------------------------------------------------------------*/
FoamFile
{
    version     2.0;
    format      ascii;
    arch        "LSB;label=32;scalar=64";
    class       volTensorField;
    location    "0.5";
    object      F;
}
// * * * * * * * * * * * * * * * * * * * * * * * * * * * * * * * * * * * * * //

dimensions      [0 0 0 0 0 0 0];

internalField   nonuniform List<tensor> 
12960
(
(1.02143 0.0142084 -0.16225 0.0296517 1.01195 0.270654 -0.0221166 -0.000965574 0.969909)
(1.01755 0.014698 -0.185221 0.0301412 1.01583 0.255483 -0.0219483 -0.00288953 0.969909)
(1.01364 0.0145063 -0.206783 0.0299495 1.01974 0.238368 -0.0216129 -0.00479144 0.969909)
(1.00983 0.0136393 -0.226772 0.0290825 1.02355 0.219438 -0.0211131 -0.00665699 0.969909)
(1.00623 0.0121232 -0.245034 0.0275665 1.02716 0.198839 -0.0204527 -0.00847176 0.969909)
(1.00294 0.0100041 -0.261432 0.0254475 1.03045 0.176726 -0.0196363 -0.0102219 0.969909)
(1.00007 0.00734655 -0.275839 0.0227898 1.03332 0.153268 -0.0186706 -0.0118946 0.969909)
(0.997705 0.00423113 -0.288148 0.0196744 1.03568 0.128644 -0.017563 -0.0134768 0.969909)
(0.995918 0.000752552 -0.298264 0.0161958 1.03747 0.103041 -0.0163218 -0.0149562 0.969909)
(0.994763 -0.00298352 -0.306109 0.0124596 1.03862 0.0766532 -0.0149562 -0.0163216 0.969909)
(0.994273 -0.0068637 -0.311625 0.00857954 1.03911 0.0496825 -0.0134767 -0.0175629 0.969909)
(0.994465 -0.0107701 -0.314769 0.00467343 1.03892 0.0223335 -0.0118946 -0.0186705 0.969909)
(0.995332 -0.0145835 -0.315518 0.000859812 1.03805 -0.00518542 -0.0102219 -0.0196362 0.969909)
(0.996848 -0.0181884 -0.313865 -0.00274519 1.03654 -0.0326649 -0.00847166 -0.0204525 0.969909)
(0.998967 -0.0214756 -0.309824 -0.00603223 1.03442 -0.0598958 -0.00665686 -0.0211131 0.969909)
(1.00162 -0.0243446 -0.303425 -0.00890131 1.03176 -0.0866708 -0.00479141 -0.021613 0.969909)
(1.00474 -0.0267087 -0.294716 -0.0112654 1.02865 -0.112786 -0.00288949 -0.0219484 0.969909)
(1.00822 -0.0284958 -0.283765 -0.0130525 1.02517 -0.138043 -0.000965655 -0.0221168 0.969909)
(1.01195 -0.0296517 -0.270654 -0.0142084 1.02143 -0.16225 0.000965574 -0.0221166 0.969909)
(1.01583 -0.0301412 -0.255483 -0.014698 1.01755 -0.185221 0.00288953 -0.0219483 0.969909)
(1.01974 -0.0299495 -0.238368 -0.0145063 1.01364 -0.206783 0.00479144 -0.0216129 0.969909)
(1.02355 -0.0290825 -0.219438 -0.0136393 1.00983 -0.226772 0.00665699 -0.0211131 0.969909)
(1.02716 -0.0275665 -0.198839 -0.0121232 1.00623 -0.245034 0.00847176 -0.0204527 0.969909)
(1.03045 -0.0254475 -0.176726 -0.0100041 1.00294 -0.261432 0.0102219 -0.0196363 0.969909)
(1.03332 -0.0227898 -0.153268 -0.00734655 1.00007 -0.275839 0.0118946 -0.0186706 0.969909)
(1.03568 -0.0196744 -0.128644 -0.00423113 0.997705 -0.288148 0.0134768 -0.017563 0.969909)
(1.03747 -0.0161958 -0.103041 -0.000752552 0.995918 -0.298264 0.0149562 -0.0163218 0.969909)
(1.03862 -0.0124596 -0.0766532 0.00298352 0.994763 -0.306109 0.0163216 -0.0149562 0.969909)
(1.03911 -0.00857954 -0.0496825 0.0068637 0.994273 -0.311625 0.0175629 -0.0134767 0.969909)
(1.03892 -0.00467343 -0.0223335 0.0107701 0.994465 -0.314769 0.0186705 -0.0118946 0.969909)
(1.03805 -0.000859812 0.00518542 0.0145835 0.995332 -0.315518 0.0196362 -0.0102219 0.969909)
(1.03654 0.00274519 0.0326649 0.0181884 0.996848 -0.313865 0.0204525 -0.00847166 0.969909)
(1.03442 0.00603223 0.0598958 0.0214756 0.998967 -0.309824 0.0211131 -0.00665686 0.969909)
(1.03176 0.00890131 0.0866708 0.0243446 1.00162 -0.303425 0.021613 -0.00479141 0.969909)
(1.02865 0.0112654 0.112786 0.0267087 1.00474 -0.294716 0.0219484 -0.00288949 0.969909)
(1.02517 0.0130525 0.138043 0.0284958 1.00822 -0.283765 0.0221168 -0.000965655 0.969909)
(1.02143 0.0142084 0.16225 0.0296517 1.01195 -0.270654 0.0221166 0.000965574 0.969909)
(1.01755 0.014698 0.185221 0.0301412 1.01583 -0.255483 0.0219483 0.00288953 0.969909)
(1.01364 0.0145063 0.206783 0.0299495 1.01974 -0.238368 0.0216129 0.00479144 0.969909)
(1.00983 0.0136393 0.226772 0.0290825 1.02355 -0.219438 0.0211131 0.00665699 0.969909)
(1.00623 0.0121232 0.245034 0.0275665 1.02716 -0.198839 0.0204527 0.00847176 0.969909)
(1.00294 0.0100041 0.261432 0.0254475 1.03045 -0.176726 0.0196363 0.0102219 0.969909)
(1.00007 0.00734655 0.275839 0.0227898 1.03332 -0.153268 0.0186706 0.0118946 0.969909)
(0.997705 0.00423113 0.288148 0.0196744 1.03568 -0.128644 0.017563 0.0134768 0.969909)
(0.995918 0.000752552 0.298264 0.0161958 1.03747 -0.103041 0.0163218 0.0149562 0.969909)
(0.994763 -0.00298352 0.306109 0.0124596 1.03862 -0.0766532 0.0149562 0.0163216 0.969909)
(0.994273 -0.0068637 0.311625 0.00857954 1.03911 -0.0496825 0.0134767 0.0175629 0.969909)
(0.994465 -0.0107701 0.314769 0.00467343 1.03892 -0.0223335 0.0118946 0.0186705 0.969909)
(0.995332 -0.0145835 0.315518 0.000859812 1.03805 0.00518542 0.0102219 0.0196362 0.969909)
(0.996848 -0.0181884 0.313865 -0.00274519 1.03654 0.0326649 0.00847166 0.0204525 0.969909)
(0.998967 -0.0214756 0.309824 -0.00603223 1.03442 0.0598958 0.00665686 0.0211131 0.969909)
(1.00162 -0.0243446 0.303425 -0.00890131 1.03176 0.0866708 0.00479141 0.021613 0.969909)
(1.00474 -0.0267087 0.294716 -0.0112654 1.02865 0.112786 0.00288949 0.0219484 0.969909)
(1.00822 -0.0284958 0.283765 -0.0130525 1.02517 0.138043 0.000965655 0.0221168 0.969909)
(1.01195 -0.0296517 0.270654 -0.0142084 1.02143 0.16225 -0.000965574 0.0221166 0.969909)
(1.01583 -0.0301412 0.255483 -0.014698 1.01755 0.185221 -0.00288953 0.0219483 0.969909)
(1.01974 -0.0299495 0.238368 -0.0145063 1.01364 0.206783 -0.00479144 0.0216129 0.969909)
(1.02355 -0.0290825 0.219438 -0.0136393 1.00983 0.226772 -0.00665699 0.0211131 0.969909)
(1.02716 -0.0275665 0.198839 -0.0121232 1.00623 0.245034 -0.00847176 0.0204527 0.969909)
(1.03045 -0.0254475 0.176726 -0.0100041 1.00294 0.261432 -0.0102219 0.0196363 0.969909)
(1.03332 -0.0227898 0.153268 -0.00734655 1.00007 0.275839 -0.0118946 0.0186706 0.969909)
(1.03568 -0.0196744 0.128644 -0.00423113 0.997705 0.288148 -0.0134768 0.017563 0.969909)
(1.03747 -0.0161958 0.103041 -0.000752552 0.995918 0.298264 -0.0149562 0.0163218 0.969909)
(1.03862 -0.0124596 0.0766532 0.00298352 0.994763 0.306109 -0.0163216 0.0149562 0.969909)
(1.03911 -0.00857954 0.0496825 0.0068637 0.994273 0.311625 -0.0175629 0.0134767 0.969909)
(1.03892 -0.00467343 0.0223335 0.0107701 0.994465 0.314769 -0.0186705 0.0118946 0.969909)
(1.03805 -0.000859812 -0.00518542 0.0145835 0.995332 0.315518 -0.0196362 0.0102219 0.969909)
(1.03654 0.00274519 -0.0326649 0.0181884 0.996848 0.313865 -0.0204525 0.00847166 0.969909)
(1.03442 0.00603223 -0.0598958 0.0214756 0.998967 0.309824 -0.0211131 0.00665686 0.969909)
(1.03176 0.00890131 -0.0866708 0.0243446 1.00162 0.303425 -0.021613 0.00479141 0.969909)
(1.02865 0.0112654 -0.112786 0.0267087 1.00474 0.294716 -0.0219484 0.00288949 0.969909)
(1.02517 0.0130525 -0.138043 0.0284958 1.00822 0.283765 -0.0221168 0.000965655 0.969909)
(1.02742 0.0169063 -0.144315 0.0289794 1.0113 0.296149 -0.0163577 -0.000714168 0.94714)
(1.02331 0.0179568 -0.169577 0.0300298 1.01541 0.282444 -0.0162332 -0.00213714 0.94714)
(1.01908 0.0182782 -0.193549 0.0303511 1.01964 0.26659 -0.0159851 -0.00354381 0.94714)
(1.01487 0.0178608 -0.216047 0.0299337 1.02385 0.248707 -0.0156155 -0.00492353 0.94714)
(1.01078 0.0167174 -0.236901 0.0287904 1.02794 0.228931 -0.015127 -0.00626585 0.94714)
(1.00696 0.0148825 -0.255952 0.0269554 1.03176 0.207412 -0.0145232 -0.0075603 0.94714)
(1.00352 0.012412 -0.273055 0.0244849 1.0352 0.184315 -0.013809 -0.00879742 0.94714)
(1.00056 0.00938106 -0.28808 0.021454 1.03816 0.159815 -0.0129899 -0.00996753 0.94714)
(0.998165 0.00588167 -0.300913 0.0179546 1.04056 0.1341 -0.0120718 -0.0110617 0.94714)
(0.996417 0.00202011 -0.311455 0.014093 1.0423 0.107363 -0.0110617 -0.0120717 0.94714)
(0.995367 -0.00208634 -0.319627 0.00998663 1.04335 0.0798091 -0.00996747 -0.0129898 0.94714)
(0.995045 -0.00631282 -0.325367 0.00576017 1.04367 0.0516479 -0.00879734 -0.013809 0.94714)
(0.995463 -0.0105308 -0.32863 0.00154223 1.04326 0.023094 -0.00756029 -0.0145232 0.94714)
(0.996606 -0.0146122 -0.329392 -0.00253922 1.04211 -0.00563595 -0.00626575 -0.0151269 0.94714)
(0.998441 -0.0184332 -0.327648 -0.00636008 1.04028 -0.034323 -0.0049235 -0.0156154 0.94714)
(1.00091 -0.0218774 -0.323409 -0.00980425 1.03781 -0.0627487 -0.00354383 -0.0159851 0.94714)
(1.00394 -0.0248403 -0.31671 -0.0127672 1.03478 -0.090697 -0.00213714 -0.0162333 0.94714)
(1.00744 -0.0272319 -0.3076 -0.0151587 1.03128 -0.117955 -0.000714144 -0.0163578 0.94714)
(1.0113 -0.0289794 -0.296149 -0.0169063 1.02742 -0.144315 0.000714168 -0.0163577 0.94714)
(1.01541 -0.0300298 -0.282444 -0.0179568 1.02331 -0.169577 0.00213714 -0.0162332 0.94714)
(1.01964 -0.0303511 -0.26659 -0.0182782 1.01908 -0.193549 0.00354381 -0.0159851 0.94714)
(1.02385 -0.0299337 -0.248707 -0.0178608 1.01487 -0.216047 0.00492353 -0.0156155 0.94714)
(1.02794 -0.0287904 -0.228931 -0.0167174 1.01078 -0.236901 0.00626585 -0.015127 0.94714)
(1.03176 -0.0269554 -0.207412 -0.0148825 1.00696 -0.255952 0.0075603 -0.0145232 0.94714)
(1.0352 -0.0244849 -0.184315 -0.012412 1.00352 -0.273055 0.00879742 -0.013809 0.94714)
(1.03816 -0.021454 -0.159815 -0.00938106 1.00056 -0.28808 0.00996753 -0.0129899 0.94714)
(1.04056 -0.0179546 -0.1341 -0.00588167 0.998165 -0.300913 0.0110617 -0.0120718 0.94714)
(1.0423 -0.014093 -0.107363 -0.00202011 0.996417 -0.311455 0.0120717 -0.0110617 0.94714)
(1.04335 -0.00998663 -0.0798091 0.00208634 0.995367 -0.319627 0.0129898 -0.00996747 0.94714)
(1.04367 -0.00576017 -0.0516479 0.00631282 0.995045 -0.325367 0.013809 -0.00879734 0.94714)
(1.04326 -0.00154223 -0.023094 0.0105308 0.995463 -0.32863 0.0145232 -0.00756029 0.94714)
(1.04211 0.00253922 0.00563595 0.0146122 0.996606 -0.329392 0.0151269 -0.00626575 0.94714)
(1.04028 0.00636008 0.034323 0.0184332 0.998441 -0.327648 0.0156154 -0.0049235 0.94714)
(1.03781 0.00980425 0.0627487 0.0218774 1.00091 -0.323409 0.0159851 -0.00354383 0.94714)
(1.03478 0.0127672 0.090697 0.0248403 1.00394 -0.31671 0.0162333 -0.00213714 0.94714)
(1.03128 0.0151587 0.117955 0.0272319 1.00744 -0.3076 0.0163578 -0.000714144 0.94714)
(1.02742 0.0169063 0.144315 0.0289794 1.0113 -0.296149 0.0163577 0.000714168 0.94714)
(1.02331 0.0179568 0.169577 0.0300298 1.01541 -0.282444 0.0162332 0.00213714 0.94714)
(1.01908 0.0182782 0.193549 0.0303511 1.01964 -0.26659 0.0159851 0.00354381 0.94714)
(1.01487 0.0178608 0.216047 0.0299337 1.02385 -0.248707 0.0156155 0.00492353 0.94714)
(1.01078 0.0167174 0.236901 0.0287904 1.02794 -0.228931 0.015127 0.00626585 0.94714)
(1.00696 0.0148825 0.255952 0.0269554 1.03176 -0.207412 0.0145232 0.0075603 0.94714)
(1.00352 0.012412 0.273055 0.0244849 1.0352 -0.184315 0.013809 0.00879742 0.94714)
(1.00056 0.00938106 0.28808 0.021454 1.03816 -0.159815 0.0129899 0.00996753 0.94714)
(0.998165 0.00588167 0.300913 0.0179546 1.04056 -0.1341 0.0120718 0.0110617 0.94714)
(0.996417 0.00202011 0.311455 0.014093 1.0423 -0.107363 0.0110617 0.0120717 0.94714)
(0.995367 -0.00208634 0.319627 0.00998663 1.04335 -0.0798091 0.00996747 0.0129898 0.94714)
(0.995045 -0.00631282 0.325367 0.00576017 1.04367 -0.0516479 0.00879734 0.013809 0.94714)
(0.995463 -0.0105308 0.32863 0.00154223 1.04326 -0.023094 0.00756029 0.0145232 0.94714)
(0.996606 -0.0146122 0.329392 -0.00253922 1.04211 0.00563595 0.00626575 0.0151269 0.94714)
(0.998441 -0.0184332 0.327648 -0.00636008 1.04028 0.034323 0.0049235 0.0156154 0.94714)
(1.00091 -0.0218774 0.323409 -0.00980425 1.03781 0.0627487 0.00354383 0.0159851 0.94714)
(1.00394 -0.0248403 0.31671 -0.0127672 1.03478 0.090697 0.00213714 0.0162333 0.94714)
(1.00744 -0.0272319 0.3076 -0.0151587 1.03128 0.117955 0.000714144 0.0163578 0.94714)
(1.0113 -0.0289794 0.296149 -0.0169063 1.02742 0.144315 -0.000714168 0.0163577 0.94714)
(1.01541 -0.0300298 0.282444 -0.0179568 1.02331 0.169577 -0.00213714 0.0162332 0.94714)
(1.01964 -0.0303511 0.26659 -0.0182782 1.01908 0.193549 -0.00354381 0.0159851 0.94714)
(1.02385 -0.0299337 0.248707 -0.0178608 1.01487 0.216047 -0.00492353 0.0156155 0.94714)
(1.02794 -0.0287904 0.228931 -0.0167174 1.01078 0.236901 -0.00626585 0.015127 0.94714)
(1.03176 -0.0269554 0.207412 -0.0148825 1.00696 0.255952 -0.0075603 0.0145232 0.94714)
(1.0352 -0.0244849 0.184315 -0.012412 1.00352 0.273055 -0.00879742 0.013809 0.94714)
(1.03816 -0.021454 0.159815 -0.00938106 1.00056 0.28808 -0.00996753 0.0129899 0.94714)
(1.04056 -0.0179546 0.1341 -0.00588167 0.998165 0.300913 -0.0110617 0.0120718 0.94714)
(1.0423 -0.014093 0.107363 -0.00202011 0.996417 0.311455 -0.0120717 0.0110617 0.94714)
(1.04335 -0.00998663 0.0798091 0.00208634 0.995367 0.319627 -0.0129898 0.00996747 0.94714)
(1.04367 -0.00576017 0.0516479 0.00631282 0.995045 0.325367 -0.013809 0.00879734 0.94714)
(1.04326 -0.00154223 0.023094 0.0105308 0.995463 0.32863 -0.0145232 0.00756029 0.94714)
(1.04211 0.00253922 -0.00563595 0.0146122 0.996606 0.329392 -0.0151269 0.00626575 0.94714)
(1.04028 0.00636008 -0.034323 0.0184332 0.998441 0.327648 -0.0156154 0.0049235 0.94714)
(1.03781 0.00980425 -0.0627487 0.0218774 1.00091 0.323409 -0.0159851 0.00354383 0.94714)
(1.03478 0.0127672 -0.090697 0.0248403 1.00394 0.31671 -0.0162333 0.00213714 0.94714)
(1.03128 0.0151587 -0.117955 0.0272319 1.00744 0.3076 -0.0163578 0.000714144 0.94714)
(1.0385 0.0200213 -0.119591 0.0259823 1.00974 0.320778 -0.00743455 -0.000324617 0.92891)
(1.03429 0.022169 -0.147093 0.0281299 1.01396 0.309134 -0.00737789 -0.000971325 0.92891)
(1.02977 0.0235526 -0.173476 0.0295135 1.01848 0.295138 -0.00726523 -0.00161066 0.92891)
(1.02508 0.0241301 -0.198539 0.030091 1.02317 0.278895 -0.00709726 -0.00223772 0.92891)
(1.02035 0.0238837 -0.222091 0.0298447 1.02789 0.26053 -0.00687526 -0.00284785 0.92891)
(1.01575 0.0228211 -0.243952 0.0287821 1.0325 0.240183 -0.00660088 -0.0034362 0.92891)
(1.01139 0.0209747 -0.263957 0.0269356 1.03685 0.218007 -0.00627631 -0.00399846 0.92891)
(1.00743 0.0184003 -0.281953 0.0243613 1.04082 0.194172 -0.00590395 -0.00453031 0.92891)
(1.00397 0.0151763 -0.297804 0.0211372 1.04428 0.168859 -0.00548655 -0.0050275 0.92891)
(1.00112 0.0114005 -0.311387 0.0173615 1.04713 0.142261 -0.00502751 -0.00548652 0.92891)
(0.998974 0.00718778 -0.322601 0.0131488 1.04927 0.11458 -0.00453025 -0.00590386 0.92891)
(0.997591 0.00266612 -0.33136 0.00862716 1.05066 0.086028 -0.00399843 -0.00627628 0.92891)
(0.997013 -0.00202707 -0.337597 0.00393385 1.05123 0.0568206 -0.00343616 -0.00660087 0.92891)
(0.997259 -0.00674922 -0.341264 -0.000788332 1.05099 0.0271807 -0.00284777 -0.00687513 0.92891)
(0.998322 -0.011357 -0.342335 -0.00539594 1.04993 -0.0026657 -0.00223774 -0.00709726 0.92891)
(1.00017 -0.0157103 -0.3408 -0.0097492 1.04808 -0.0324922 -0.00161068 -0.00726516 0.92891)
(1.00274 -0.0196766 -0.336671 -0.0137155 1.0455 -0.0620713 -0.000971336 -0.00737788 0.92891)
(1.00597 -0.0231356 -0.32998 -0.0171746 1.04228 -0.0911779 -0.000324565 -0.00743454 0.92891)
(1.00974 -0.0259823 -0.320778 -0.0200213 1.0385 -0.119591 0.000324617 -0.00743455 0.92891)
(1.01396 -0.0281299 -0.309134 -0.022169 1.03429 -0.147093 0.000971325 -0.00737789 0.92891)
(1.01848 -0.0295135 -0.295138 -0.0235526 1.02977 -0.173476 0.00161066 -0.00726523 0.92891)
(1.02317 -0.030091 -0.278895 -0.0241301 1.02508 -0.198539 0.00223772 -0.00709726 0.92891)
(1.02789 -0.0298447 -0.26053 -0.0238837 1.02035 -0.222091 0.00284785 -0.00687526 0.92891)
(1.0325 -0.0287821 -0.240183 -0.0228211 1.01575 -0.243952 0.0034362 -0.00660088 0.92891)
(1.03685 -0.0269356 -0.218007 -0.0209747 1.01139 -0.263957 0.00399846 -0.00627631 0.92891)
(1.04082 -0.0243613 -0.194172 -0.0184003 1.00743 -0.281953 0.00453031 -0.00590395 0.92891)
(1.04428 -0.0211372 -0.168859 -0.0151763 1.00397 -0.297804 0.0050275 -0.00548655 0.92891)
(1.04713 -0.0173615 -0.142261 -0.0114005 1.00112 -0.311387 0.00548652 -0.00502751 0.92891)
(1.04927 -0.0131488 -0.11458 -0.00718778 0.998974 -0.322601 0.00590386 -0.00453025 0.92891)
(1.05066 -0.00862716 -0.086028 -0.00266612 0.997591 -0.33136 0.00627628 -0.00399843 0.92891)
(1.05123 -0.00393385 -0.0568206 0.00202707 0.997013 -0.337597 0.00660087 -0.00343616 0.92891)
(1.05099 0.000788332 -0.0271807 0.00674922 0.997259 -0.341264 0.00687513 -0.00284777 0.92891)
(1.04993 0.00539594 0.0026657 0.011357 0.998322 -0.342335 0.00709726 -0.00223774 0.92891)
(1.04808 0.0097492 0.0324922 0.0157103 1.00017 -0.3408 0.00726516 -0.00161068 0.92891)
(1.0455 0.0137155 0.0620713 0.0196766 1.00274 -0.336671 0.00737788 -0.000971336 0.92891)
(1.04228 0.0171746 0.0911779 0.0231356 1.00597 -0.32998 0.00743454 -0.000324565 0.92891)
(1.0385 0.0200213 0.119591 0.0259823 1.00974 -0.320778 0.00743455 0.000324617 0.92891)
(1.03429 0.022169 0.147093 0.0281299 1.01396 -0.309134 0.00737789 0.000971325 0.92891)
(1.02977 0.0235526 0.173476 0.0295135 1.01848 -0.295138 0.00726523 0.00161066 0.92891)
(1.02508 0.0241301 0.198539 0.030091 1.02317 -0.278895 0.00709726 0.00223772 0.92891)
(1.02035 0.0238837 0.222091 0.0298447 1.02789 -0.26053 0.00687526 0.00284785 0.92891)
(1.01575 0.0228211 0.243952 0.0287821 1.0325 -0.240183 0.00660088 0.0034362 0.92891)
(1.01139 0.0209747 0.263957 0.0269356 1.03685 -0.218007 0.00627631 0.00399846 0.92891)
(1.00743 0.0184003 0.281953 0.0243613 1.04082 -0.194172 0.00590395 0.00453031 0.92891)
(1.00397 0.0151763 0.297804 0.0211372 1.04428 -0.168859 0.00548655 0.0050275 0.92891)
(1.00112 0.0114005 0.311387 0.0173615 1.04713 -0.142261 0.00502751 0.00548652 0.92891)
(0.998974 0.00718778 0.322601 0.0131488 1.04927 -0.11458 0.00453025 0.00590386 0.92891)
(0.997591 0.00266612 0.33136 0.00862716 1.05066 -0.086028 0.00399843 0.00627628 0.92891)
(0.997013 -0.00202707 0.337597 0.00393385 1.05123 -0.0568206 0.00343616 0.00660087 0.92891)
(0.997259 -0.00674922 0.341264 -0.000788332 1.05099 -0.0271807 0.00284777 0.00687513 0.92891)
(0.998322 -0.011357 0.342335 -0.00539594 1.04993 0.0026657 0.00223774 0.00709726 0.92891)
(1.00017 -0.0157103 0.3408 -0.0097492 1.04808 0.0324922 0.00161068 0.00726516 0.92891)
(1.00274 -0.0196766 0.336671 -0.0137155 1.0455 0.0620713 0.000971336 0.00737788 0.92891)
(1.00597 -0.0231356 0.32998 -0.0171746 1.04228 0.0911779 0.000324565 0.00743454 0.92891)
(1.00974 -0.0259823 0.320778 -0.0200213 1.0385 0.119591 -0.000324617 0.00743455 0.92891)
(1.01396 -0.0281299 0.309134 -0.022169 1.03429 0.147093 -0.000971325 0.00737789 0.92891)
(1.01848 -0.0295135 0.295138 -0.0235526 1.02977 0.173476 -0.00161066 0.00726523 0.92891)
(1.02317 -0.030091 0.278895 -0.0241301 1.02508 0.198539 -0.00223772 0.00709726 0.92891)
(1.02789 -0.0298447 0.26053 -0.0238837 1.02035 0.222091 -0.00284785 0.00687526 0.92891)
(1.0325 -0.0287821 0.240183 -0.0228211 1.01575 0.243952 -0.0034362 0.00660088 0.92891)
(1.03685 -0.0269356 0.218007 -0.0209747 1.01139 0.263957 -0.00399846 0.00627631 0.92891)
(1.04082 -0.0243613 0.194172 -0.0184003 1.00743 0.281953 -0.00453031 0.00590395 0.92891)
(1.04428 -0.0211372 0.168859 -0.0151763 1.00397 0.297804 -0.0050275 0.00548655 0.92891)
(1.04713 -0.0173615 0.142261 -0.0114005 1.00112 0.311387 -0.00548652 0.00502751 0.92891)
(1.04927 -0.0131488 0.11458 -0.00718778 0.998974 0.322601 -0.00590386 0.00453025 0.92891)
(1.05066 -0.00862716 0.086028 -0.00266612 0.997591 0.33136 -0.00627628 0.00399843 0.92891)
(1.05123 -0.00393385 0.0568206 0.00202707 0.997013 0.337597 -0.00660087 0.00343616 0.92891)
(1.05099 0.000788332 0.0271807 0.00674922 0.997259 0.341264 -0.00687513 0.00284777 0.92891)
(1.04993 0.00539594 -0.0026657 0.011357 0.998322 0.342335 -0.00709726 0.00223774 0.92891)
(1.04808 0.0097492 -0.0324922 0.0157103 1.00017 0.3408 -0.00726516 0.00161068 0.92891)
(1.0455 0.0137155 -0.0620713 0.0196766 1.00274 0.336671 -0.00737788 0.000971336 0.92891)
(1.04228 0.0171746 -0.0911779 0.0231356 1.00597 0.32998 -0.00743454 0.000324565 0.92891)
(1.04945 0.023158 -0.0902955 0.0207111 1.00728 0.342608 -0.00502188 -0.00021926 0.915092)
(1.04532 0.0264865 -0.119812 0.0240395 1.01141 0.333434 -0.0049837 -0.000656107 0.915092)
(1.04068 0.0290473 -0.148417 0.0266003 1.01605 0.321723 -0.00490763 -0.00108793 0.915092)
(1.03566 0.0307626 -0.175892 0.0283158 1.02107 0.307563 -0.00479411 -0.00151146 0.915092)
(1.03042 0.0315805 -0.202029 0.0291337 1.02631 0.291063 -0.00464413 -0.00192368 0.915092)
(1.02512 0.031476 -0.226628 0.0290291 1.03161 0.272348 -0.0044588 -0.00232115 0.915092)
(1.01991 0.0304524 -0.249502 0.0280053 1.03682 0.251559 -0.00423952 -0.00270089 0.915092)
(1.01496 0.0285406 -0.270477 0.0260935 1.04176 0.228857 -0.00398794 -0.00306021 0.915092)
(1.01042 0.0257989 -0.289394 0.0233518 1.0463 0.204412 -0.00370594 -0.00339595 0.915092)
(1.00643 0.0223103 -0.306109 0.0198634 1.0503 0.178412 -0.00339599 -0.00370596 0.915092)
(1.0031 0.0181809 -0.320493 0.015734 1.05363 0.151054 -0.00306015 -0.0039879 0.915092)
(1.00054 0.0135365 -0.332439 0.0110895 1.05619 0.122546 -0.0027009 -0.00423951 0.915092)
(0.998824 0.00851791 -0.341854 0.00607086 1.0579 0.0931057 -0.00232104 -0.00445873 0.915092)
(0.998006 0.00327765 -0.348668 0.000830695 1.05872 0.0629568 -0.00192365 -0.00464403 0.915092)
(0.998111 -0.00202502 -0.352828 -0.00447199 1.05862 0.0323287 -0.00151148 -0.00479403 0.915092)
(0.999135 -0.00722912 -0.354304 -0.00967589 1.05759 0.0014547 -0.00108794 -0.00490763 0.915092)
(1.00105 -0.0121763 -0.353082 -0.0146232 1.05568 -0.0294305 -0.000656124 -0.00498364 0.915092)
(1.00379 -0.0167162 -0.349174 -0.0191632 1.05294 -0.0600917 -0.000219242 -0.00502187 0.915092)
(1.00728 -0.0207111 -0.342608 -0.023158 1.04945 -0.0902955 0.00021926 -0.00502188 0.915092)
(1.01141 -0.0240395 -0.333434 -0.0264865 1.04532 -0.119812 0.000656107 -0.0049837 0.915092)
(1.01605 -0.0266003 -0.321723 -0.0290473 1.04068 -0.148417 0.00108793 -0.00490763 0.915092)
(1.02107 -0.0283158 -0.307563 -0.0307626 1.03566 -0.175892 0.00151146 -0.00479411 0.915092)
(1.02631 -0.0291337 -0.291063 -0.0315805 1.03042 -0.202029 0.00192368 -0.00464413 0.915092)
(1.03161 -0.0290291 -0.272348 -0.031476 1.02512 -0.226628 0.00232115 -0.0044588 0.915092)
(1.03682 -0.0280053 -0.251559 -0.0304524 1.01991 -0.249502 0.00270089 -0.00423952 0.915092)
(1.04176 -0.0260935 -0.228857 -0.0285406 1.01496 -0.270477 0.00306021 -0.00398794 0.915092)
(1.0463 -0.0233518 -0.204412 -0.0257989 1.01042 -0.289394 0.00339595 -0.00370594 0.915092)
(1.0503 -0.0198634 -0.178412 -0.0223103 1.00643 -0.306109 0.00370596 -0.00339599 0.915092)
(1.05363 -0.015734 -0.151054 -0.0181809 1.0031 -0.320493 0.0039879 -0.00306015 0.915092)
(1.05619 -0.0110895 -0.122546 -0.0135365 1.00054 -0.332439 0.00423951 -0.0027009 0.915092)
(1.0579 -0.00607086 -0.0931057 -0.00851791 0.998824 -0.341854 0.00445873 -0.00232104 0.915092)
(1.05872 -0.000830695 -0.0629568 -0.00327765 0.998006 -0.348668 0.00464403 -0.00192365 0.915092)
(1.05862 0.00447199 -0.0323287 0.00202502 0.998111 -0.352828 0.00479403 -0.00151148 0.915092)
(1.05759 0.00967589 -0.0014547 0.00722912 0.999135 -0.354304 0.00490763 -0.00108794 0.915092)
(1.05568 0.0146232 0.0294305 0.0121763 1.00105 -0.353082 0.00498364 -0.000656124 0.915092)
(1.05294 0.0191632 0.0600917 0.0167162 1.00379 -0.349174 0.00502187 -0.000219242 0.915092)
(1.04945 0.023158 0.0902955 0.0207111 1.00728 -0.342608 0.00502188 0.00021926 0.915092)
(1.04532 0.0264865 0.119812 0.0240395 1.01141 -0.333434 0.0049837 0.000656107 0.915092)
(1.04068 0.0290473 0.148417 0.0266003 1.01605 -0.321723 0.00490763 0.00108793 0.915092)
(1.03566 0.0307626 0.175892 0.0283158 1.02107 -0.307563 0.00479411 0.00151146 0.915092)
(1.03042 0.0315805 0.202029 0.0291337 1.02631 -0.291063 0.00464413 0.00192368 0.915092)
(1.02512 0.031476 0.226628 0.0290291 1.03161 -0.272348 0.0044588 0.00232115 0.915092)
(1.01991 0.0304524 0.249502 0.0280053 1.03682 -0.251559 0.00423952 0.00270089 0.915092)
(1.01496 0.0285406 0.270477 0.0260935 1.04176 -0.228857 0.00398794 0.00306021 0.915092)
(1.01042 0.0257989 0.289394 0.0233518 1.0463 -0.204412 0.00370594 0.00339595 0.915092)
(1.00643 0.0223103 0.306109 0.0198634 1.0503 -0.178412 0.00339599 0.00370596 0.915092)
(1.0031 0.0181809 0.320493 0.015734 1.05363 -0.151054 0.00306015 0.0039879 0.915092)
(1.00054 0.0135365 0.332439 0.0110895 1.05619 -0.122546 0.0027009 0.00423951 0.915092)
(0.998824 0.00851791 0.341854 0.00607086 1.0579 -0.0931057 0.00232104 0.00445873 0.915092)
(0.998006 0.00327765 0.348668 0.000830695 1.05872 -0.0629568 0.00192365 0.00464403 0.915092)
(0.998111 -0.00202502 0.352828 -0.00447199 1.05862 -0.0323287 0.00151148 0.00479403 0.915092)
(0.999135 -0.00722912 0.354304 -0.00967589 1.05759 -0.0014547 0.00108794 0.00490763 0.915092)
(1.00105 -0.0121763 0.353082 -0.0146232 1.05568 0.0294305 0.000656124 0.00498364 0.915092)
(1.00379 -0.0167162 0.349174 -0.0191632 1.05294 0.0600917 0.000219242 0.00502187 0.915092)
(1.00728 -0.0207111 0.342608 -0.023158 1.04945 0.0902955 -0.00021926 0.00502188 0.915092)
(1.01141 -0.0240395 0.333434 -0.0264865 1.04532 0.119812 -0.000656107 0.0049837 0.915092)
(1.01605 -0.0266003 0.321723 -0.0290473 1.04068 0.148417 -0.00108793 0.00490763 0.915092)
(1.02107 -0.0283158 0.307563 -0.0307626 1.03566 0.175892 -0.00151146 0.00479411 0.915092)
(1.02631 -0.0291337 0.291063 -0.0315805 1.03042 0.202029 -0.00192368 0.00464413 0.915092)
(1.03161 -0.0290291 0.272348 -0.031476 1.02512 0.226628 -0.00232115 0.0044588 0.915092)
(1.03682 -0.0280053 0.251559 -0.0304524 1.01991 0.249502 -0.00270089 0.00423952 0.915092)
(1.04176 -0.0260935 0.228857 -0.0285406 1.01496 0.270477 -0.00306021 0.00398794 0.915092)
(1.0463 -0.0233518 0.204412 -0.0257989 1.01042 0.289394 -0.00339595 0.00370594 0.915092)
(1.0503 -0.0198634 0.178412 -0.0223103 1.00643 0.306109 -0.00370596 0.00339599 0.915092)
(1.05363 -0.015734 0.151054 -0.0181809 1.0031 0.320493 -0.0039879 0.00306015 0.915092)
(1.05619 -0.0110895 0.122546 -0.0135365 1.00054 0.332439 -0.00423951 0.0027009 0.915092)
(1.0579 -0.00607086 0.0931057 -0.00851791 0.998824 0.341854 -0.00445873 0.00232104 0.915092)
(1.05872 -0.000830695 0.0629568 -0.00327765 0.998006 0.348668 -0.00464403 0.00192365 0.915092)
(1.05862 0.00447199 0.0323287 0.00202502 0.998111 0.352828 -0.00479403 0.00151148 0.915092)
(1.05759 0.00967589 0.0014547 0.00722912 0.999135 0.354304 -0.00490763 0.00108794 0.915092)
(1.05568 0.0146232 -0.0294305 0.0121763 1.00105 0.353082 -0.00498364 0.000656124 0.915092)
(1.05294 0.0191632 -0.0600917 0.0167162 1.00379 0.349174 -0.00502187 0.000219242 0.915092)
(1.06853 0.026591 -0.0569996 0.0160408 1.00372 0.360224 -0.00598987 -0.000261512 0.904268)
(1.06434 0.0318942 -0.0881783 0.0213443 1.00792 0.353885 -0.00594444 -0.00078252 0.904268)
(1.05929 0.0363889 -0.118686 0.0258389 1.01297 0.344854 -0.00585354 -0.00129765 0.904268)
(1.05354 0.0399382 -0.14829 0.0293883 1.01872 0.333197 -0.00571793 -0.00180282 0.904268)
(1.04725 0.0424341 -0.176766 0.0318842 1.02501 0.319005 -0.00553894 -0.00229427 0.904268)
(1.04063 0.0438008 -0.203896 0.0332511 1.03163 0.302385 -0.00531805 -0.00276838 0.904268)
(1.03387 0.0439971 -0.229475 0.0334472 1.03839 0.283463 -0.00505646 -0.00322133 0.904268)
(1.02718 0.0430171 -0.253307 0.0324669 1.04508 0.262384 -0.00475645 -0.00365003 0.904268)
(1.02076 0.0408902 -0.275212 0.0303403 1.05149 0.239309 -0.00442038 -0.00405071 0.904268)
(1.01481 0.0376811 -0.295021 0.027131 1.05744 0.214412 -0.00405073 -0.00442038 0.904268)
(1.00951 0.0334869 -0.312586 0.0229371 1.06275 0.187883 -0.00365005 -0.00475654 0.904268)
(1.00501 0.028436 -0.327772 0.017886 1.06724 0.159925 -0.00322133 -0.00505654 0.904268)
(1.00147 0.0226814 -0.340463 0.0121313 1.07079 0.130749 -0.0027682 -0.00531794 0.904268)
(0.998969 0.0163978 -0.350563 0.00584789 1.07329 0.100578 -0.00229425 -0.00553886 0.904268)
(0.997602 0.00977633 -0.357994 -0.000773658 1.07465 0.0696417 -0.00180286 -0.00571769 0.904268)
(0.997406 0.00301787 -0.362702 -0.00753222 1.07485 0.0381755 -0.0012977 -0.00585355 0.904268)
(0.998386 -0.00367186 -0.364649 -0.0142221 1.07387 0.00641852 -0.000782514 -0.00594438 0.904268)
(1.00051 -0.01009 -0.363821 -0.0206399 1.07174 -0.0253871 -0.000261506 -0.00598996 0.904268)
(1.00372 -0.0160408 -0.360224 -0.026591 1.06853 -0.0569996 0.000261512 -0.00598987 0.904268)
(1.00792 -0.0213443 -0.353885 -0.0318942 1.06434 -0.0881783 0.00078252 -0.00594444 0.904268)
(1.01297 -0.0258389 -0.344854 -0.0363889 1.05929 -0.118686 0.00129765 -0.00585354 0.904268)
(1.01872 -0.0293883 -0.333197 -0.0399382 1.05354 -0.14829 0.00180282 -0.00571793 0.904268)
(1.02501 -0.0318842 -0.319005 -0.0424341 1.04725 -0.176766 0.00229427 -0.00553894 0.904268)
(1.03163 -0.0332511 -0.302385 -0.0438008 1.04063 -0.203896 0.00276838 -0.00531805 0.904268)
(1.03839 -0.0334472 -0.283463 -0.0439971 1.03387 -0.229475 0.00322133 -0.00505646 0.904268)
(1.04508 -0.0324669 -0.262384 -0.0430171 1.02718 -0.253307 0.00365003 -0.00475645 0.904268)
(1.05149 -0.0303403 -0.239309 -0.0408902 1.02076 -0.275212 0.00405071 -0.00442038 0.904268)
(1.05744 -0.027131 -0.214412 -0.0376811 1.01481 -0.295021 0.00442038 -0.00405073 0.904268)
(1.06275 -0.0229371 -0.187883 -0.0334869 1.00951 -0.312586 0.00475654 -0.00365005 0.904268)
(1.06724 -0.017886 -0.159925 -0.028436 1.00501 -0.327772 0.00505654 -0.00322133 0.904268)
(1.07079 -0.0121313 -0.130749 -0.0226814 1.00147 -0.340463 0.00531794 -0.0027682 0.904268)
(1.07329 -0.00584789 -0.100578 -0.0163978 0.998969 -0.350563 0.00553886 -0.00229425 0.904268)
(1.07465 0.000773658 -0.0696417 -0.00977633 0.997602 -0.357994 0.00571769 -0.00180286 0.904268)
(1.07485 0.00753222 -0.0381755 -0.00301787 0.997406 -0.362702 0.00585355 -0.0012977 0.904268)
(1.07387 0.0142221 -0.00641852 0.00367186 0.998386 -0.364649 0.00594438 -0.000782514 0.904268)