/*--------------------------------*- C++ -*----------------------------------*\
| =========                 |                                                 |
| \\      /  F ield         | OpenFOAM: The Open Source CFD Toolbox           |
|  \\    /   O peration     | Version:  2312                                  |
|   \\  /    A nd           | Website:  www.openfoam.com                      |
|    \\/     M anipulation  |                                                 |
\*---------------------------------------------------------------------------*/
FoamFile
{
    version     2.0;
    format      ascii;
    arch        "LSB;label=32;scalar=64";
    class       volSymmTensorField;
    location    "0.5";
    object      sigma;
}
// * * * * * * * * * * * * * * * * * * * * * * * * * * * * * * * * * * * * * //

dimensions      [1 -1 -2 0 0 0 0];

internalField   nonuniform List<symmTensor> 
12960
(
(-787.486 623.46 -3577.21 1477.71 -7262.31 25360.8)
(-878.482 417.321 -2930.62 1568.91 -7546.57 25360.7)
(-932.418 198.492 -2261.83 1622.53 -7773.01 25360.9)
(-947.474 -26.3605 -1575.73 1637.64 -7940.62 25360.8)
(-923.296 -250.414 -877.651 1613.42 -8047.77 25360.8)
(-860.424 -466.887 -172.812 1550.87 -8093.76 25360.8)
(-760.994 -669.112 533.155 1451.44 -8077.9 25360.9)
(-627.963 -851.026 1235.13 1318.45 -8000.65 25361)
(-465.33 -1007.19 1927.96 1156.06 -7862.78 25360.8)
(-278.127 -1132.66 2605.91 968.842 -7664.83 25360.8)
(-72.177 -1223.61 3263.76 762.436 -7408.35 25360.9)
(146.708 -1277.5 3897.07 543.694 -7095.74 25360.9)
(371.604 -1292.63 4500.85 318.859 -6729.16 25360.8)
(595.444 -1268.35 5070.04 94.6239 -6311.23 25360.7)
(811.873 -1205.59 5600.77 -121.825 -5845.31 25360.8)
(1014.23 -1106.19 6088.85 -323.952 -5334.94 25360.9)
(1196.28 -973.255 6530.92 -505.9 -4783.95 25360.7)
(1352.25 -810.664 6922.92 -662.014 -4196.55 25360.8)
(1477.71 -623.46 7262.31 -787.486 -3577.21 25360.8)
(1568.91 -417.321 7546.57 -878.482 -2930.62 25360.7)
(1622.53 -198.492 7773.01 -932.418 -2261.83 25360.9)
(1637.64 26.3605 7940.62 -947.474 -1575.73 25360.8)
(1613.42 250.414 8047.77 -923.296 -877.651 25360.8)
(1550.87 466.887 8093.76 -860.424 -172.812 25360.8)
(1451.44 669.112 8077.9 -760.994 533.155 25360.9)
(1318.45 851.026 8000.65 -627.963 1235.13 25361)
(1156.06 1007.19 7862.78 -465.33 1927.96 25360.8)
(968.842 1132.66 7664.83 -278.127 2605.91 25360.8)
(762.436 1223.61 7408.35 -72.177 3263.76 25360.9)
(543.694 1277.5 7095.74 146.708 3897.07 25360.9)
(318.859 1292.63 6729.16 371.604 4500.85 25360.8)
(94.6239 1268.35 6311.23 595.444 5070.04 25360.7)
(-121.825 1205.59 5845.31 811.873 5600.77 25360.8)
(-323.952 1106.19 5334.94 1014.23 6088.85 25360.9)
(-505.9 973.255 4783.95 1196.28 6530.92 25360.7)
(-662.014 810.664 4196.55 1352.25 6922.92 25360.8)
(-787.486 623.46 3577.21 1477.71 7262.31 25360.8)
(-878.482 417.321 2930.62 1568.91 7546.57 25360.7)
(-932.418 198.492 2261.83 1622.53 7773.01 25360.9)
(-947.474 -26.3605 1575.73 1637.64 7940.62 25360.8)
(-923.296 -250.414 877.651 1613.42 8047.77 25360.8)
(-860.424 -466.887 172.812 1550.87 8093.76 25360.8)
(-760.994 -669.112 -533.155 1451.44 8077.9 25360.9)
(-627.963 -851.026 -1235.13 1318.45 8000.65 25361)
(-465.33 -1007.19 -1927.96 1156.06 7862.78 25360.8)
(-278.127 -1132.66 -2605.91 968.842 7664.83 25360.8)
(-72.1771 -1223.61 -3263.76 762.436 7408.35 25360.9)
(146.708 -1277.5 -3897.07 543.694 7095.74 25360.9)
(371.604 -1292.63 -4500.85 318.859 6729.16 25360.8)
(595.444 -1268.35 -5070.04 94.6239 6311.23 25360.7)
(811.873 -1205.59 -5600.77 -121.825 5845.31 25360.8)
(1014.23 -1106.19 -6088.85 -323.952 5334.94 25360.9)
(1196.28 -973.255 -6530.92 -505.9 4783.95 25360.7)
(1352.25 -810.664 -6922.92 -662.014 4196.55 25360.8)
(1477.71 -623.46 -7262.31 -787.486 3577.21 25360.8)
(1568.91 -417.321 -7546.57 -878.482 2930.62 25360.7)
(1622.53 -198.492 -7773.01 -932.418 2261.83 25360.9)
(1637.64 26.3605 -7940.62 -947.474 1575.73 25360.8)
(1613.42 250.414 -8047.77 -923.296 877.651 25360.8)
(1550.87 466.887 -8093.76 -860.424 172.812 25360.8)
(1451.44 669.112 -8077.9 -760.994 -533.155 25360.9)
(1318.45 851.026 -8000.65 -627.963 -1235.13 25361)
(1156.06 1007.19 -7862.78 -465.33 -1927.96 25360.8)
(968.842 1132.66 -7664.83 -278.127 -2605.91 25360.8)
(762.436 1223.61 -7408.35 -72.177 -3263.76 25360.9)
(543.694 1277.5 -7095.74 146.708 -3897.07 25360.9)
(318.859 1292.63 -6729.16 371.604 -4500.85 25360.8)
(94.6239 1268.35 -6311.23 595.444 -5070.04 25360.7)
(-121.825 1205.59 -5845.31 811.873 -5600.77 25360.8)
(-323.952 1106.19 -5334.94 1014.23 -6088.85 25360.9)
(-505.9 973.255 -4783.95 1196.28 -6530.92 25360.7)
(-662.014 810.664 -4196.55 1352.25 -6922.92 25360.8)
(-18154.8 1067.34 -1688.26 -5098.51 -13501.5 -3094.82)
(-18240.8 -82.4774 -505.091 -5012.21 -13597.3 -3094.74)
(-18126.1 -1229.76 681.899 -5127.17 -13589.6 -3094.66)
(-17813.9 -2339.7 1863.71 -5439.59 -13478.4 -3094.84)
(-17313.5 -3378.56 3031.35 -5939.64 -13264.7 -3094.72)
(-16640.5 -4314.78 4175.93 -6612.82 -12950 -3094.9)
(-15815.2 -5119.84 5288.69 -7438.35 -12536.8 -3094.92)
(-14862.4 -5769.36 6361.23 -8391.02 -12028.2 -3094.81)
(-13811.4 -6243.68 7385.37 -9441.91 -11428 -3095.01)
(-12694 -6528.2 8353.28 -10559.3 -10740.8 -3095)
(-11544.3 -6614.26 9257.58 -11709.2 -9971.91 -3094.84)
(-10397 -6499.48 10091.5 -12856.6 -9127.1 -3094.95)
(-9287.03 -6187.21 10848.6 -13966.5 -8212.85 -3095.02)
(-8247.98 -5686.9 11523.1 -15005.1 -7236.08 -3094.69)
(-7312.03 -5013.82 12109.9 -15941.5 -6204.25 -3094.88)
(-6506.87 -4188.38 12604.5 -16746.5 -5125.18 -3094.75)
(-5857.14 -3235.72 13003.3 -17395.9 -4007.11 -3094.78)
(-5383 -2184.71 13303 -17870.2 -2858.56 -3094.79)
(-5098.51 -1067.34 13501.5 -18154.8 -1688.26 -3094.82)
(-5012.21 82.4774 13597.3 -18240.8 -505.091 -3094.74)
(-5127.17 1229.76 13589.6 -18126.1 681.899 -3094.66)
(-5439.59 2339.7 13478.4 -17813.9 1863.71 -3094.84)
(-5939.64 3378.56 13264.7 -17313.5 3031.35 -3094.72)
(-6612.82 4314.78 12950 -16640.5 4175.93 -3094.9)
(-7438.35 5119.84 12536.8 -15815.2 5288.69 -3094.92)
(-8391.02 5769.36 12028.2 -14862.4 6361.23 -3094.81)
(-9441.91 6243.68 11428 -13811.4 7385.37 -3095.01)
(-10559.3 6528.2 10740.8 -12694 8353.28 -3095)
(-11709.2 6614.26 9971.91 -11544.3 9257.58 -3094.84)
(-12856.6 6499.48 9127.1 -10397 10091.5 -3094.95)
(-13966.5 6187.21 8212.85 -9287.03 10848.6 -3095.02)
(-15005.1 5686.9 7236.08 -8247.98 11523.1 -3094.69)
(-15941.5 5013.82 6204.25 -7312.03 12109.9 -3094.88)
(-16746.5 4188.38 5125.18 -6506.87 12604.5 -3094.75)
(-17395.9 3235.72 4007.11 -5857.14 13003.3 -3094.78)
(-17870.2 2184.71 2858.56 -5383 13303 -3094.79)
(-18154.8 1067.34 1688.26 -5098.51 13501.5 -3094.82)
(-18240.8 -82.4774 505.091 -5012.21 13597.3 -3094.74)
(-18126.1 -1229.76 -681.899 -5127.17 13589.6 -3094.66)
(-17813.9 -2339.7 -1863.71 -5439.59 13478.4 -3094.84)
(-17313.5 -3378.56 -3031.35 -5939.64 13264.7 -3094.72)
(-16640.5 -4314.78 -4175.93 -6612.82 12950 -3094.9)
(-15815.2 -5119.84 -5288.69 -7438.35 12536.8 -3094.92)
(-14862.4 -5769.36 -6361.23 -8391.02 12028.2 -3094.81)
(-13811.4 -6243.68 -7385.37 -9441.91 11428 -3095.01)
(-12694 -6528.2 -8353.28 -10559.3 10740.8 -3095)
(-11544.3 -6614.26 -9257.58 -11709.2 9971.91 -3094.84)
(-10397 -6499.48 -10091.5 -12856.6 9127.1 -3094.95)
(-9287.03 -6187.21 -10848.6 -13966.5 8212.85 -3095.02)
(-8247.98 -5686.9 -11523.1 -15005.1 7236.08 -3094.69)
(-7312.03 -5013.82 -12109.9 -15941.5 6204.25 -3094.88)
(-6506.87 -4188.38 -12604.5 -16746.5 5125.18 -3094.75)
(-5857.14 -3235.72 -13003.3 -17395.9 4007.11 -3094.78)
(-5383 -2184.71 -13303 -17870.2 2858.56 -3094.79)
(-5098.51 -1067.34 -13501.5 -18154.8 1688.26 -3094.82)
(-5012.21 82.4774 -13597.3 -18240.8 505.091 -3094.74)
(-5127.17 1229.76 -13589.6 -18126.1 -681.899 -3094.66)
(-5439.59 2339.7 -13478.4 -17813.9 -1863.71 -3094.84)
(-5939.64 3378.56 -13264.7 -17313.5 -3031.35 -3094.72)
(-6612.82 4314.78 -12950 -16640.5 -4175.93 -3094.9)
(-7438.35 5119.84 -12536.8 -15815.2 -5288.69 -3094.92)
(-8391.02 5769.36 -12028.2 -14862.4 -6361.23 -3094.81)
(-9441.91 6243.68 -11428 -13811.4 -7385.37 -3095.01)
(-10559.3 6528.2 -10740.8 -12694 -8353.28 -3095)
(-11709.2 6614.26 -9971.91 -11544.3 -9257.58 -3094.84)
(-12856.6 6499.48 -9127.1 -10397 -10091.5 -3094.95)
(-13966.5 6187.21 -8212.85 -9287.03 -10848.6 -3095.02)
(-15005.1 5686.9 -7236.08 -8247.98 -11523.1 -3094.69)
(-15941.5 5013.82 -6204.25 -7312.03 -12109.9 -3094.88)
(-16746.5 4188.38 -5125.18 -6506.87 -12604.5 -3094.75)
(-17395.9 3235.72 -4007.11 -5857.14 -13003.3 -3094.78)
(-17870.2 2184.71 -2858.56 -5383 -13303 -3094.79)
(-27308.3 50.4723 -278.656 -1268.44 -8617.16 -24298.1)
(-27119.3 -2211.19 473.439 -1457.5 -8608.63 -24298.2)
(-26540.4 -4405.64 1221.94 -2036.41 -8534.66 -24298.1)
(-25589.2 -6466.26 1961.13 -2987.6 -8395.66 -24298.2)
(-24294.8 -8330.39 2685.39 -4282.21 -8192.77 -24298.3)
(-22696.1 -9941.41 3389.2 -5880.66 -7927.52 -24298.2)
(-20842 -11250.4 4067.24 -7734.69 -7601.97 -24298.2)
(-18788.8 -12217.5 4714.33 -9787.82 -7218.57 -24298.1)
(-16598.8 -12813.4 5325.49 -11977.7 -6780.16 -24298.2)
(-14338.8 -13020 5896.15 -14237.8 -6290.23 -24298.2)
(-12077.2 -12830.9 6422 -16499.5 -5752.45 -24298.2)
(-9882.71 -12252 6898.9 -18694 -5170.83 -24298.2)
(-7822.17 -11300.8 7323.32 -20754.7 -4549.88 -24298.3)
(-5958.07 -10006.3 7692.02 -22618.9 -3894.31 -24298.3)
(-4347.07 -8407.71 8002.18 -24229.9 -3209.09 -24298.2)
(-3038.11 -6553.67 8251.44 -25538.8 -2499.46 -24298.2)
(-2070.95 -4500.5 8437.84 -26505.9 -1770.77 -24298.2)
(-1475 -2310.59 8560.08 -27101.7 -1028.63 -24298.1)
(-1268.44 -50.4723 8617.16 -27308.3 -278.656 -24298.1)
(-1457.5 2211.19 8608.63 -27119.3 473.439 -24298.2)
(-2036.41 4405.64 8534.66 -26540.4 1221.94 -24298.1)
(-2987.6 6466.26 8395.66 -25589.2 1961.13 -24298.2)
(-4282.21 8330.39 8192.77 -24294.8 2685.39 -24298.3)
(-5880.66 9941.41 7927.52 -22696.1 3389.2 -24298.2)
(-7734.69 11250.4 7601.97 -20842 4067.24 -24298.2)
(-9787.82 12217.5 7218.57 -18788.8 4714.33 -24298.1)
(-11977.7 12813.4 6780.16 -16598.8 5325.49 -24298.2)
(-14237.8 13020 6290.23 -14338.8 5896.15 -24298.2)
(-16499.5 12830.9 5752.45 -12077.2 6422 -24298.2)
(-18694 12252 5170.83 -9882.71 6898.9 -24298.2)
(-20754.7 11300.8 4549.88 -7822.17 7323.32 -24298.3)
(-22618.9 10006.3 3894.31 -5958.07 7692.02 -24298.3)
(-24229.9 8407.71 3209.09 -4347.07 8002.18 -24298.2)
(-25538.8 6553.67 2499.46 -3038.11 8251.44 -24298.2)
(-26505.9 4500.5 1770.77 -2070.95 8437.84 -24298.2)
(-27101.7 2310.59 1028.63 -1475 8560.08 -24298.1)
(-27308.3 50.4723 278.656 -1268.44 8617.16 -24298.1)
(-27119.3 -2211.19 -473.439 -1457.5 8608.63 -24298.2)
(-26540.4 -4405.64 -1221.94 -2036.41 8534.66 -24298.1)
(-25589.2 -6466.26 -1961.13 -2987.6 8395.66 -24298.2)
(-24294.8 -8330.39 -2685.39 -4282.21 8192.77 -24298.3)
(-22696.1 -9941.41 -3389.2 -5880.66 7927.52 -24298.2)
(-20842 -11250.4 -4067.24 -7734.69 7601.97 -24298.2)
(-18788.8 -12217.5 -4714.33 -9787.82 7218.57 -24298.1)
(-16598.8 -12813.4 -5325.49 -11977.7 6780.16 -24298.2)
(-14338.8 -13020 -5896.15 -14237.8 6290.23 -24298.2)
(-12077.2 -12830.9 -6422 -16499.5 5752.45 -24298.2)
(-9882.71 -12252 -6898.9 -18694 5170.83 -24298.2)
(-7822.17 -11300.8 -7323.32 -20754.7 4549.88 -24298.3)
(-5958.07 -10006.3 -7692.02 -22618.9 3894.31 -24298.3)
(-4347.07 -8407.71 -8002.18 -24229.9 3209.09 -24298.2)
(-3038.11 -6553.67 -8251.44 -25538.8 2499.46 -24298.2)
(-2070.95 -4500.5 -8437.84 -26505.9 1770.77 -24298.2)
(-1475 -2310.59 -8560.08 -27101.7 1028.63 -24298.1)
(-1268.44 -50.4723 -8617.16 -27308.3 278.656 -24298.1)
(-1457.5 2211.19 -8608.63 -27119.3 -473.439 -24298.2)
(-2036.41 4405.64 -8534.66 -26540.4 -1221.94 -24298.1)
(-2987.6 6466.26 -8395.66 -25589.2 -1961.13 -24298.2)
(-4282.21 8330.39 -8192.77 -24294.8 -2685.39 -24298.3)
(-5880.66 9941.41 -7927.52 -22696.1 -3389.2 -24298.2)
(-7734.69 11250.4 -7601.97 -20842 -4067.24 -24298.2)
(-9787.82 12217.5 -7218.57 -18788.8 -4714.33 -24298.1)
(-11977.7 12813.4 -6780.16 -16598.8 -5325.49 -24298.2)
(-14237.8 13020 -6290.23 -14338.8 -5896.15 -24298.2)
(-16499.5 12830.9 -5752.45 -12077.2 -6422 -24298.2)
(-18694 12252 -5170.83 -9882.71 -6898.9 -24298.2)
(-20754.7 11300.8 -4549.88 -7822.17 -7323.32 -24298.3)
(-22618.9 10006.3 -3894.31 -5958.07 -7692.02 -24298.3)
(-24229.9 8407.71 -3209.09 -4347.07 -8002.18 -24298.2)
(-25538.8 6553.67 -2499.46 -3038.11 -8251.44 -24298.2)
(-26505.9 4500.5 -1770.77 -2070.95 -8437.84 -24298.2)
(-27101.7 2310.59 -1028.63 -1475 -8560.08 -24298.1)
(-34426.3 -1801.38 -471.347 -3678.53 5585.95 -34212.1)
(-33879.9 -4443.67 -956.403 -4224.88 5523.61 -34212.1)
(-32883.1 -6950.92 -1434.18 -5221.86 5419.24 -34212.2)
(-31465.9 -9246.98 -1901.04 -6638.92 5273.62 -34212.1)
(-29671.6 -11262.1 -2353.44 -8433.25 5087.89 -34212.1)
(-27554.7 -12935 -2787.95 -10550.3 4863.47 -34212.2)
(-25179.5 -14214.9 -3201.19 -12925.6 4601.93 -34212.2)
(-22618 -15062.8 -3590.11 -15487.1 4305.44 -34212.2)
(-19948.1 -15453.1 -3951.71 -18156.9 3976.17 -34212.1)
(-17251.1 -15373.9 -4283.22 -20853.8 3616.63 -34212.1)
(-14608.9 -14827.5 -4582.11 -23496.2 3229.54 -34212.2)
(-12101.6 -13830.6 -4846.12 -26003.5 2817.88 -34212.2)
(-9805.56 -12413.5 -5073.33 -28299.5 2384.81 -34212.2)
(-7790.39 -10619.2 -5261.81 -30314.5 1933.55 -34212.2)
(-6117.41 -8502.2 -5410.28 -31987.4 1467.58 -34212.1)
(-4837.65 -6126.91 -5517.6 -33267.4 990.463 -34212.2)
(-3989.6 -3565.44 -5582.93 -34115.3 505.804 -34212.1)
(-3599.29 -895.636 -5605.77 -34505.5 17.2938 -34212.1)
(-3678.54 1801.38 -5585.95 -34426.3 -471.347 -34212.1)
(-4224.88 4443.67 -5523.61 -33879.9 -956.403 -34212.1)
(-5221.86 6950.92 -5419.24 -32883.1 -1434.18 -34212.2)
(-6638.92 9246.98 -5273.62 -31465.9 -1901.04 -34212.1)
(-8433.25 11262.1 -5087.89 -29671.6 -2353.44 -34212.1)
(-10550.3 12935 -4863.47 -27554.7 -2787.95 -34212.2)
(-12925.6 14214.9 -4601.93 -25179.5 -3201.19 -34212.2)
(-15487.1 15062.8 -4305.44 -22618 -3590.11 -34212.2)
(-18156.9 15453.1 -3976.17 -19948.1 -3951.71 -34212.1)
(-20853.8 15373.9 -3616.63 -17251.1 -4283.22 -34212.1)
(-23496.2 14827.5 -3229.54 -14608.9 -4582.11 -34212.2)
(-26003.5 13830.6 -2817.88 -12101.6 -4846.12 -34212.2)
(-28299.5 12413.5 -2384.81 -9805.56 -5073.33 -34212.2)
(-30314.5 10619.2 -1933.55 -7790.39 -5261.81 -34212.2)
(-31987.4 8502.2 -1467.58 -6117.41 -5410.28 -34212.1)
(-33267.4 6126.91 -990.463 -4837.65 -5517.6 -34212.2)
(-34115.3 3565.44 -505.804 -3989.6 -5582.93 -34212.1)
(-34505.5 895.636 -17.2938 -3599.29 -5605.77 -34212.1)
(-34426.3 -1801.38 471.347 -3678.54 -5585.95 -34212.1)
(-33879.9 -4443.67 956.403 -4224.88 -5523.61 -34212.1)
(-32883.1 -6950.92 1434.18 -5221.86 -5419.24 -34212.2)
(-31465.9 -9246.98 1901.04 -6638.92 -5273.62 -34212.1)
(-29671.6 -11262.1 2353.44 -8433.25 -5087.89 -34212.1)
(-27554.7 -12935 2787.95 -10550.3 -4863.47 -34212.2)
(-25179.5 -14214.9 3201.19 -12925.6 -4601.93 -34212.2)
(-22618 -15062.8 3590.11 -15487.1 -4305.44 -34212.2)
(-19948.1 -15453.1 3951.71 -18156.9 -3976.17 -34212.1)
(-17251.1 -15373.9 4283.22 -20853.8 -3616.63 -34212.1)
(-14608.9 -14827.5 4582.11 -23496.2 -3229.54 -34212.2)
(-12101.6 -13830.6 4846.12 -26003.5 -2817.88 -34212.2)
(-9805.56 -12413.5 5073.33 -28299.5 -2384.81 -34212.2)
(-7790.39 -10619.2 5261.81 -30314.5 -1933.55 -34212.2)
(-6117.41 -8502.2 5410.28 -31987.4 -1467.58 -34212.1)
(-4837.65 -6126.91 5517.6 -33267.4 -990.463 -34212.2)
(-3989.6 -3565.44 5582.93 -34115.3 -505.804 -34212.1)
(-3599.29 -895.636 5605.77 -34505.5 -17.2938 -34212.1)
(-3678.54 1801.38 5585.95 -34426.3 471.347 -34212.1)
(-4224.88 4443.67 5523.61 -33879.9 956.403 -34212.1)
(-5221.86 6950.92 5419.24 -32883.1 1434.18 -34212.2)
(-6638.92 9246.98 5273.62 -31465.9 1901.04 -34212.1)
(-8433.25 11262.1 5087.89 -29671.6 2353.44 -34212.1)
(-10550.3 12935 4863.47 -27554.7 2787.95 -34212.2)
(-12925.6 14214.9 4601.93 -25179.5 3201.19 -34212.2)
(-15487.1 15062.8 4305.44 -22618 3590.11 -34212.2)
(-18156.9 15453.1 3976.17 -19948.1 3951.71 -34212.1)
(-20853.8 15373.9 3616.63 -17251.1 4283.22 -34212.1)
(-23496.2 14827.5 3229.54 -14608.9 4582.11 -34212.2)
(-26003.5 13830.6 2817.88 -12101.6 4846.12 -34212.2)
(-28299.5 12413.5 2384.81 -9805.56 5073.33 -34212.2)
(-30314.5 10619.2 1933.55 -7790.39 5261.81 -34212.2)
(-31987.4 8502.2 1467.58 -6117.41 5410.28 -34212.1)
(-33267.4 6126.91 990.463 -4837.65 5517.6 -34212.2)
(-34115.3 3565.44 505.804 -3989.6 5582.93 -34212.1)
(-34505.5 895.636 17.2938 -3599.29 5605.77 -34212.1)
(-32065.6 -2721.28 -2273.78 -11485.4 16887.7 -20461)
(-31436.8 -4466.79 -3736.99 -12114.4 16625.2 -20461.1)
(-30514.2 -6076.58 -5171.75 -13036.7 16236.3 -20461)
(-29326.2 -7501.74 -6567.15 -14224.6 15723.7 -20460.9)
(-27908.8 -8698.94 -7912.58 -15641.9 15091.5 -20460.8)
(-26305.3 -9631.88 -9197.77 -17245.8 14344.5 -20461.1)
(-24563.8 -10272.1 -10413 -18987.2 13488.3 -20461)
(-22737.7 -10600.3 -11548.9 -20813.2 12529.4 -20461.1)
(-20882.4 -10606.3 -12597 -22668.6 11475.1 -20460.9)
(-19054.2 -10290.1 -13549.2 -24496.7 10333.6 -20460.9)
(-17308.8 -9661.22 -14398.2 -26242.4 9113.37 -20461.2)
(-15698.9 -8738.79 -15137.7 -27852.1 7823.8 -20461)
(-14273.7 -7550.83 -15762 -29277.2 6474.67 -20461)
(-13076.5 -6133.44 -16266.4 -30474.3 5076.3 -20460.8)
(-12143.5 -4529.71 -16646.9 -31407.2 3639.27 -20460.8)
(-11503.4 -2788.34 -16900.7 -32047.6 2174.55 -20461)
(-11175.3 -962.245 -17025.9 -32375.8 693.277 -20461.1)
(-11169.2 893.078 -17021.6 -32381.8 -793.265 -20461)
(-11485.4 2721.28 -16887.7 -32065.6 -2273.78 -20461)
(-12114.4 4466.79 -16625.2 -31436.8 -3736.99 -20461.1)
(-13036.7 6076.58 -16236.3 -30514.2 -5171.75 -20461)
(-14224.6 7501.74 -15723.7 -29326.2 -6567.15 -20460.9)
(-15641.9 8698.94 -15091.5 -27908.8 -7912.58 -20460.8)
(-17245.8 9631.88 -14344.5 -26305.3 -9197.77 -20461.1)
(-18987.2 10272.1 -13488.3 -24563.8 -10413 -20461)
(-20813.2 10600.3 -12529.4 -22737.7 -11548.9 -20461.1)
(-22668.6 10606.3 -11475.1 -20882.4 -12597 -20460.9)
(-24496.7 10290.1 -10333.6 -19054.2 -13549.2 -20460.9)
(-26242.4 9661.22 -9113.37 -17308.8 -14398.2 -20461.2)
(-27852.1 8738.79 -7823.8 -15698.9 -15137.7 -20461)
(-29277.2 7550.83 -6474.67 -14273.7 -15762 -20461)
(-30474.3 6133.44 -5076.3 -13076.5 -16266.4 -20460.8)
(-31407.2 4529.71 -3639.27 -12143.5 -16646.9 -20460.8)
(-32047.6 2788.34 -2174.55 -11503.4 -16900.7 -20461)
(-32375.8 962.245 -693.277 -11175.3 -17025.9 -20461.1)
(-32381.8 -893.078 793.265 -11169.2 -17021.6 -20461)
(-32065.6 -2721.28 2273.78 -11485.4 -16887.7 -20461)
(-31436.8 -4466.79 3736.99 -12114.4 -16625.2 -20461.1)
(-30514.2 -6076.58 5171.75 -13036.7 -16236.3 -20461)
(-29326.2 -7501.74 6567.15 -14224.6 -15723.7 -20460.9)
(-27908.8 -8698.94 7912.58 -15641.9 -15091.5 -20460.8)
(-26305.3 -9631.88 9197.77 -17245.8 -14344.5 -20461.1)
(-24563.8 -10272.1 10413 -18987.2 -13488.3 -20461)
(-22737.7 -10600.3 11548.9 -20813.2 -12529.4 -20461.1)
(-20882.4 -10606.3 12597 -22668.6 -11475.1 -20460.9)
(-19054.2 -10290.1 13549.2 -24496.7 -10333.6 -20460.9)
(-17308.8 -9661.22 14398.2 -26242.4 -9113.37 -20461.2)
(-15698.9 -8738.79 15137.7 -27852.1 -7823.8 -20461)
(-14273.7 -7550.83 15762 -29277.2 -6474.67 -20461)
(-13076.5 -6133.44 16266.4 -30474.3 -5076.3 -20460.8)
(-12143.5 -4529.71 16646.9 -31407.2 -3639.27 -20460.8)
(-11503.4 -2788.34 16900.7 -32047.6 -2174.55 -20461)
(-11175.3 -962.245 17025.9 -32375.8 -693.277 -20461.1)
(-11169.2 893.078 17021.6 -32381.8 793.265 -20461)
(-11485.4 2721.28 16887.7 -32065.6 2273.78 -20461)
(-12114.4 4466.79 16625.2 -31436.8 3736.99 -20461.1)
(-13036.7 6076.58 16236.3 -30514.2 5171.75 -20461)
(-14224.6 7501.74 15723.7 -29326.2 6567.15 -20460.9)
(-15641.9 8698.94 15091.5 -27908.8 7912.58 -20460.8)
(-17245.8 9631.88 14344.5 -26305.3 9197.77 -20461.1)
(-18987.2 10272.1 13488.3 -24563.8 10413 -20461)
(-20813.2 10600.3 12529.4 -22737.7 11548.9 -20461.1)
(-22668.6 10606.3 11475.1 -20882.4 12597 -20460.9)
(-24496.7 10290.1 10333.6 -19054.2 13549.2 -20460.9)
(-26242.4 9661.22 9113.37 -17308.8 14398.2 -20461.2)
(-27852.1 8738.79 7823.8 -15698.9 15137.7 -20461)
(-29277.2 7550.83 6474.67 -14273.7 15762 -20461)
(-30474.3 6133.44 5076.3 -13076.5 16266.4 -20460.8)
(-31407.2 4529.71 3639.27 -12143.5 16646.9 -20460.8)
(-32047.6 2788.34 2174.55 -11503.4 16900.7 -20461)
(-32375.8 962.245 693.277 -11175.3 17025.9 -20461.1)
(-32381.8 -893.078 -793.265 -11169.2 17021.6 -20461)
(-36616.3 -1243.12 -3611.02 -32687.6 10594.8 -10439.1)
(-36370.6 -1565.34 -4520.69 -32933.4 10239.7 -10439.1)
(-36072.6 -1839.99 -5395.93 -33231.2 9806.74 -10439)
(-35731.5 -2058.74 -6230.11 -33572.3 9299.15 -10439)
(-35357.7 -2214.96 -7016.9 -33946.2 8720.83 -10439.1)
(-34962.3 -2303.85 -7750.26 -34341.5 8076.07 -10439.1)
(-34557.5 -2322.75 -8424.65 -34746.3 7369.87 -10439.1)
(-34155.7 -2271.06 -9034.92 -35148.3 6607.54 -10439.2)
(-33768.7 -2150.37 -9576.4 -35534.9 5794.95 -10438.9)
(-33408.6 -1964.35 -10045 -35894.9 4938.27 -10438.9)
(-33086.6 -1718.64 -10437.2 -36217.2 4044 -10439)
(-32811.8 -1420.72 -10750 -36491.8 3118.96 -10439)
(-32593.1 -1079.62 -10980.9 -36710.6 2170.16 -10439)
(-32436.9 -705.718 -11128.3 -36866.8 1204.86 -10439)
(-32348 -310.365 -11190.9 -36955.7 230.366 -10438.9)
(-32329.1 94.4072 -11168.3 -36974.6 -745.868 -10439)
(-32380.9 496.309 -11060.9 -36923 -1716.41 -10439.1)
(-32501.5 883.133 -10869.2 -36802.2 -2673.9 -10439)
(-32687.6 1243.12 -10594.8 -36616.3 -3611.02 -10439.1)
(-32933.4 1565.34 -10239.7 -36370.6 -4520.69 -10439.1)
(-33231.2 1839.99 -9806.74 -36072.6 -5395.93 -10439)
(-33572.3 2058.74 -9299.15 -35731.5 -6230.11 -10439)
(-33946.2 2214.96 -8720.83 -35357.7 -7016.9 -10439.1)
(-34341.5 2303.85 -8076.07 -34962.3 -7750.26 -10439.1)
(-34746.3 2322.75 -7369.87 -34557.5 -8424.65 -10439.1)
(-35148.3 2271.06 -6607.54 -34155.7 -9034.92 -10439.2)
(-35534.9 2150.37 -5794.95 -33768.7 -9576.4 -10438.9)
(-35894.9 1964.35 -4938.27 -33408.6 -10045 -10438.9)
(-36217.2 1718.64 -4044 -33086.6 -10437.2 -10439)
(-36491.8 1420.72 -3118.96 -32811.8 -10750 -10439)
(-36710.6 1079.62 -2170.16 -32593.1 -10980.9 -10439)
(-36866.8 705.718 -1204.86 -32436.9 -11128.3 -10439)
(-36955.7 310.365 -230.366 -32348 -11190.9 -10438.9)
(-36974.6 -94.4072 745.868 -32329.1 -11168.3 -10439)
(-36923 -496.309 1716.41 -32380.9 -11060.9 -10439.1)
(-36802.2 -883.133 2673.9 -32501.5 -10869.2 -10439)
(-36616.3 -1243.12 3611.02 -32687.6 -10594.8 -10439.1)
(-36370.6 -1565.34 4520.69 -32933.4 -10239.7 -10439.1)
(-36072.6 -1839.99 5395.93 -33231.2 -9806.74 -10439)
(-35731.5 -2058.74 6230.11 -33572.3 -9299.15 -10439)
(-35357.7 -2214.96 7016.9 -33946.2 -8720.83 -10439.1)
(-34962.3 -2303.85 7750.26 -34341.5 -8076.07 -10439.1)
(-34557.5 -2322.75 8424.65 -34746.3 -7369.87 -10439.1)
(-34155.7 -2271.06 9034.92 -35148.3 -6607.54 -10439.2)
(-33768.7 -2150.37 9576.4 -35534.9 -5794.95 -10438.9)
(-33408.6 -1964.35 10045 -35894.9 -4938.27 -10438.9)
(-33086.6 -1718.64 10437.2 -36217.2 -4044 -10439)
(-32811.8 -1420.72 10750 -36491.8 -3118.96 -10439)
(-32593.1 -1079.62 10980.9 -36710.6 -2170.16 -10439)
(-32436.9 -705.718 11128.3 -36866.8 -1204.86 -10439)
(-32348 -310.365 11190.9 -36955.7 -230.366 -10438.9)
(-32329.1 94.4072 11168.3 -36974.6 745.868 -10439)
(-32380.9 496.309 11060.9 -36923 1716.41 -10439.1)
(-32501.5 883.133 10869.2 -36802.2 2673.9 -10439)
(-32687.6 1243.12 10594.8 -36616.3 3611.02 -10439.1)
(-32933.4 1565.34 10239.7 -36370.6 4520.69 -10439.1)
(-33231.2 1839.99 9806.74 -36072.6 5395.93 -10439)
(-33572.3 2058.74 9299.15 -35731.5 6230.11 -10439)
(-33946.2 2214.96 8720.83 -35357.7 7016.9 -10439.1)
(-34341.5 2303.85 8076.07 -34962.3 7750.26 -10439.1)
(-34746.3 2322.75 7369.87 -34557.5 8424.65 -10439.1)
(-35148.3 2271.06 6607.54 -34155.7 9034.92 -10439.2)
(-35534.9 2150.37 5794.95 -33768.7 9576.4 -10438.9)
(-35894.9 1964.35 4938.27 -33408.6 10045 -10438.9)
(-36217.2 1718.64 4044 -33086.6 10437.2 -10439)
(-36491.8 1420.72 3118.96 -32811.8 10750 -10439)
(-36710.6 1079.62 2170.16 -32593.1 10980.9 -10439)
(-36866.8 705.718 1204.86 -32436.9 11128.3 -10439)
(-36955.7 310.365 230.366 -32348 11190.9 -10438.9)
(-36974.6 -94.4072 -745.868 -32329.1 11168.3 -10439)
(-36923 -496.309 -1716.41 -32380.9 11060.9 -10439.1)
(-36802.2 -883.133 -2673.9 -32501.5 10869.2 -10439)
(9034.13 462.512 -3303.48 10056.8 -4961.43 36176.7)
(8961.48 366.705 -2858.45 10129.4 -5230.71 36176.4)
(8906.69 259.725 -2391.78 10184 -5459.59 36176.6)
(8871.4 144.878 -1906.88 10219.5 -5647.19 36176.8)
(8856.42 25.6206 -1407.37 10234.4 -5792.02 36176.6)
(8862.21 -94.4307 -897.113 10228.2 -5892.82 36176.3)
(8889.24 -211.587 -380.172 10201.7 -5948.48 36176.6)
(8936.06 -322.284 139.564 10155 -5958.82 36176.9)
(9001.05 -423.268 658.567 10089.6 -5924.14 36176.5)
(9082.77 -511.353 1172.38 10007.8 -5844.22 36176.4)
(9178.79 -583.839 1677.05 9912.14 -5719.63 36176.8)
(9285.75 -638.702 2169.4 9805.21 -5551.83 36176.6)
(9400.42 -674.126 2645.12 9690.16 -5341.67 36176.4)
(9519.74 -688.998 3100.42 9571 -5090.76 36176.6)
(9639.84 -682.951 3532.18 9451.05 -4801.11 36176.8)
(9756.98 -656.199 3937.26 9333.85 -4475.02 36176.7)
(9867.72 -609.545 4312.65 9223.01 -4114.85 36176.4)
(9968.7 -544.282 4654.65 9122.18 -3723.33 36176.6)
(10056.8 -462.512 4961.43 9034.13 -3303.48 36176.7)
(10129.4 -366.705 5230.71 8961.48 -2858.45 36176.4)
(10184 -259.725 5459.59 8906.69 -2391.78 36176.6)
(10219.5 -144.878 5647.19 8871.4 -1906.88 36176.8)
(10234.4 -25.6206 5792.02 8856.42 -1407.37 36176.6)
(10228.2 94.4307 5892.82 8862.21 -897.113 36176.3)
(10201.7 211.587 5948.48 8889.24 -380.172 36176.6)
(10155 322.284 5958.82 8936.06 139.564 36176.9)
(10089.6 423.268 5924.14 9001.05 658.567 36176.5)
(10007.8 511.353 5844.22 9082.77 1172.38 36176.4)
(9912.14 583.839 5719.63 9178.79 1677.05 36176.8)
(9805.21 638.702 5551.83 9285.75 2169.4 36176.6)
(9690.16 674.126 5341.67 9400.42 2645.12 36176.4)
(9571 688.998 5090.76 9519.74 3100.42 36176.6)
(9451.05 682.951 4801.11 9639.84 3532.18 36176.8)
(9333.85 656.199 4475.02 9756.98 3937.26 36176.7)
(9223.01 609.545 4114.85 9867.72 4312.65 36176.4)
(9122.18 544.282 3723.33 9968.7 4654.65 36176.6)
(9034.13 462.512 3303.48 10056.8 4961.43 36176.7)
(8961.48 366.705 2858.45 10129.4 5230.71 36176.4)
(8906.69 259.725 2391.78 10184 5459.59 36176.6)
(8871.4 144.878 1906.88 10219.5 5647.19 36176.8)
(8856.42 25.6206 1407.37 10234.4 5792.02 36176.6)
(8862.21 -94.4307 897.113 10228.2 5892.82 36176.3)
(8889.24 -211.587 380.172 10201.7 5948.48 36176.6)
(8936.06 -322.284 -139.564 10155 5958.82 36176.9)
(9001.05 -423.268 -658.567 10089.6 5924.14 36176.5)
(9082.77 -511.353 -1172.38 10007.8 5844.22 36176.4)
(9178.79 -583.839 -1677.05 9912.14 5719.63 36176.8)
(9285.75 -638.702 -2169.4 9805.21 5551.83 36176.6)
(9400.42 -674.126 -2645.12 9690.16 5341.67 36176.4)
(9519.74 -688.998 -3100.42 9571 5090.76 36176.6)
(9639.84 -682.951 -3532.18 9451.05 4801.11 36176.8)
(9756.98 -656.199 -3937.26 9333.85 4475.02 36176.7)
(9867.72 -609.545 -4312.65 9223.01 4114.85 36176.4)
(9968.7 -544.282 -4654.65 9122.18 3723.33 36176.6)
(10056.8 -462.512 -4961.43 9034.13 3303.48 36176.7)
(10129.4 -366.705 -5230.71 8961.48 2858.45 36176.4)
(10184 -259.725 -5459.59 8906.69 2391.78 36176.6)
(10219.5 -144.878 -5647.19 8871.4 1906.88 36176.8)
(10234.4 -25.6206 -5792.02 8856.42 1407.37 36176.6)
(10228.2 94.4307 -5892.82 8862.21 897.113 36176.3)
(10201.7 211.587 -5948.48 8889.24 380.172 36176.6)
(10155 322.284 -5958.82 8936.06 -139.564 36176.9)
(10089.6 423.268 -5924.14 9001.05 -658.567 36176.5)
(10007.8 511.353 -5844.22 9082.77 -1172.38 36176.4)
(9912.14 583.839 -5719.63 9178.79 -1677.05 36176.8)
(9805.21 638.702 -5551.83 9285.75 -2169.4 36176.6)
(9690.16 674.126 -5341.67 9400.42 -2645.12 36176.4)
(9571 688.998 -5090.76 9519.74 -3100.42 36176.6)
(9451.05 682.951 -4801.11 9639.84 -3532.18 36176.8)
(9333.85 656.199 -4475.02 9756.98 -3937.26 36176.7)
(9223.01 609.545 -4114.85 9867.72 -4312.65 36176.4)
(9122.18 544.282 -3723.33 9968.7 -4654.65 36176.6)
(-1925.17 1114.26 -1613.31 9570.23 -13290.4 13989.3)
(-2031.33 99.2547 -448.833 9676.44 -13380.4 13989.3)
(-1959.54 -918.752 719.042 9604.74 -13368.6 13989.5)
(-1712.12 -1908.85 1881.45 9357.4 -13255 13989.5)
(-1296.7 -2840.94 3029.53 8941.69 -13040.6 13989.4)
(-725.292 -3686.75 4154.59 8370.95 -12727 13989.6)
(-16.269 -4420.52 5248.01 7661.4 -12316.4 13989.3)
(809.681 -5019.92 6301.47 6835.44 -11812.2 13989.5)
(1727.26 -5466.91 7307.02 5918.09 -11218 13989.4)
(2708.37 -5747.71 8256.93 4936.89 -10538.5 13989.4)
(3723.19 -5853.82 9143.96 3921.75 -9778.75 13989.4)
(4741.35 -5782.17 9961.47 2903.82 -8944.58 13989.4)
(5731.63 -5534.79 10703.1 1913.9 -8042.35 13989.5)
(6663.45 -5119.2 11363.3 981.58 -7078.91 13989.4)
(7509.39 -4548.1 11937.1 135.913 -6061.58 13989.5)
(8243.06 -3838.82 12419.9 -597.921 -4998.14 13989.4)
(8842.57 -3012.9 12808.3 -1197.41 -3896.63 13989.3)
(9289.41 -2095.41 13099.2 -1644.35 -2765.5 13989.3)
(9570.23 -1114.26 13290.4 -1925.17 -1613.31 13989.3)
(9676.44 -99.2547 13380.4 -2031.33 -448.833 13989.3)
(9604.74 918.752 13368.6 -1959.54 719.042 13989.5)
(9357.4 1908.85 13255 -1712.12 1881.45 13989.5)
(8941.69 2840.94 13040.6 -1296.7 3029.53 13989.4)
(8370.95 3686.75 12727 -725.292 4154.59 13989.6)
(7661.4 4420.52 12316.4 -16.269 5248.01 13989.3)
(6835.44 5019.92 11812.2 809.681 6301.47 13989.5)
(5918.09 5466.91 11218 1727.26 7307.02 13989.4)
(4936.89 5747.71 10538.5 2708.37 8256.93 13989.4)
(3921.75 5853.82 9778.75 3723.19 9143.96 13989.4)
(2903.82 5782.17 8944.58 4741.35 9961.47 13989.4)
(1913.9 5534.79 8042.35 5731.63 10703.1 13989.5)
(981.58 5119.2 7078.91 6663.45 11363.3 13989.4)
(135.913 4548.1 6061.58 7509.39 11937.1 13989.5)
(-597.921 3838.82 4998.14 8243.06 12419.9 13989.4)
(-1197.41 3012.9 3896.63 8842.57 12808.3 13989.3)
(-1644.35 2095.41 2765.5 9289.41 13099.2 13989.3)
(-1925.17 1114.26 1613.31 9570.23 13290.4 13989.3)
(-2031.33 99.2547 448.833 9676.44 13380.4 13989.3)
(-1959.54 -918.752 -719.042 9604.74 13368.6 13989.5)
(-1712.12 -1908.85 -1881.45 9357.4 13255 13989.5)
(-1296.7 -2840.94 -3029.53 8941.69 13040.6 13989.4)
(-725.292 -3686.75 -4154.59 8370.95 12727 13989.6)
(-16.269 -4420.52 -5248.01 7661.4 12316.4 13989.3)
(809.681 -5019.92 -6301.47 6835.44 11812.2 13989.5)
(1727.26 -5466.91 -7307.02 5918.09 11218 13989.4)
(2708.37 -5747.71 -8256.93 4936.89 10538.5 13989.4)
(3723.19 -5853.82 -9143.96 3921.75 9778.75 13989.4)
(4741.35 -5782.17 -9961.47 2903.82 8944.58 13989.4)