/*--------------------------------*- C++ -*----------------------------------*\
| =========                 |                                                 |
| \\      /  F ield         | OpenFOAM: The Open Source CFD Toolbox           |
|  \\    /   O peration     | Version:  2312                                  |
|   \\  /    A nd           | Website:  www.openfoam.com                      |
|    \\/     M anipulation  |                                                 |
\*---------------------------------------------------------------------------*/
FoamFile
{
    version     2.0;
    format      ascii;
    arch        "LSB;label=32;scalar=64";
    class       volVectorField;
    location    "0.5";
    object      U;
}
// * * * * * * * * * * * * * * * * * * * * * * * * * * * * * * * * * * * * * //

dimensions      [0 1 -1 0 0 0 0];

internalField   nonuniform List<vector> 
12960
(
(7.70997e-05 -8.87983e-05 -2.06822e-05)
(8.45455e-05 -8.17409e-05 -2.06823e-05)
(9.13481e-05 -7.40614e-05 -2.06822e-05)
(9.74552e-05 -6.58175e-05 -2.06823e-05)
(0.000102821 -5.70734e-05 -2.06823e-05)
(0.000107404 -4.78948e-05 -2.06822e-05)
(0.000111169 -3.83517e-05 -2.06824e-05)
(0.000114089 -2.85168e-05 -2.06825e-05)
(0.00011614 -1.84648e-05 -2.06827e-05)
(0.000117308 -8.27234e-06 -2.06825e-05)
(0.000117582 1.98333e-06 -2.06822e-05)
(0.000116962 1.22239e-05 -2.0682e-05)
(0.000115451 2.23711e-05 -2.0682e-05)
(0.000113062 3.23482e-05 -2.06822e-05)
(0.000109812 4.20792e-05 -2.06823e-05)
(0.000105727 5.14899e-05 -2.06822e-05)
(0.000100837 6.05086e-05 -2.06822e-05)
(9.51798e-05 6.90671e-05 -2.06825e-05)
(8.87983e-05 7.70997e-05 -2.06822e-05)
(8.17409e-05 8.45455e-05 -2.06823e-05)
(7.40614e-05 9.13481e-05 -2.06822e-05)
(6.58176e-05 9.74552e-05 -2.06823e-05)
(5.70734e-05 0.000102821 -2.06823e-05)
(4.78948e-05 0.000107404 -2.06822e-05)
(3.83517e-05 0.000111169 -2.06824e-05)
(2.85168e-05 0.000114089 -2.06825e-05)
(1.84648e-05 0.00011614 -2.06827e-05)
(8.27235e-06 0.000117308 -2.06825e-05)
(-1.98332e-06 0.000117582 -2.06822e-05)
(-1.22238e-05 0.000116962 -2.0682e-05)
(-2.23711e-05 0.000115451 -2.0682e-05)
(-3.23482e-05 0.000113062 -2.06822e-05)
(-4.20792e-05 0.000109812 -2.06823e-05)
(-5.14899e-05 0.000105727 -2.06822e-05)
(-6.05086e-05 0.000100837 -2.06822e-05)
(-6.90671e-05 9.51799e-05 -2.06825e-05)
(-7.70997e-05 8.87984e-05 -2.06822e-05)
(-8.45455e-05 8.17409e-05 -2.06823e-05)
(-9.13481e-05 7.40614e-05 -2.06822e-05)
(-9.74552e-05 6.58176e-05 -2.06823e-05)
(-0.000102821 5.70734e-05 -2.06823e-05)
(-0.000107404 4.78948e-05 -2.06822e-05)
(-0.000111169 3.83517e-05 -2.06824e-05)
(-0.000114089 2.85168e-05 -2.06825e-05)
(-0.00011614 1.84648e-05 -2.06827e-05)
(-0.000117308 8.27237e-06 -2.06825e-05)
(-0.000117582 -1.98329e-06 -2.06822e-05)
(-0.000116962 -1.22238e-05 -2.0682e-05)
(-0.000115451 -2.2371e-05 -2.0682e-05)
(-0.000113062 -3.23482e-05 -2.06822e-05)
(-0.000109812 -4.20792e-05 -2.06823e-05)
(-0.000105727 -5.14899e-05 -2.06822e-05)
(-0.000100837 -6.05086e-05 -2.06822e-05)
(-9.51799e-05 -6.90671e-05 -2.06825e-05)
(-8.87984e-05 -7.70997e-05 -2.06822e-05)
(-8.17409e-05 -8.45455e-05 -2.06823e-05)
(-7.40614e-05 -9.13481e-05 -2.06822e-05)
(-6.58176e-05 -9.74551e-05 -2.06823e-05)
(-5.70734e-05 -0.000102821 -2.06823e-05)
(-4.78948e-05 -0.000107403 -2.06822e-05)
(-3.83517e-05 -0.000111169 -2.06824e-05)
(-2.85168e-05 -0.000114089 -2.06825e-05)
(-1.84648e-05 -0.00011614 -2.06827e-05)
(-8.27236e-06 -0.000117308 -2.06825e-05)
(1.9833e-06 -0.000117582 -2.06822e-05)
(1.22238e-05 -0.000116962 -2.0682e-05)
(2.23711e-05 -0.000115451 -2.0682e-05)
(3.23482e-05 -0.000113062 -2.06822e-05)
(4.20792e-05 -0.000109812 -2.06823e-05)
(5.14899e-05 -0.000105727 -2.06822e-05)
(6.05086e-05 -0.000100837 -2.06822e-05)
(6.90671e-05 -9.51798e-05 -2.06825e-05)
(7.00769e-05 -0.000121827 1.50448e-05)
(8.0428e-05 -0.000115256 1.50448e-05)
(9.01673e-05 -0.000107808 1.50449e-05)
(9.92205e-05 -9.95389e-05 1.5045e-05)
(0.000107518 -9.05123e-05 1.50449e-05)
(0.000114998 -8.07973e-05 1.50449e-05)
(0.000121602 -7.04671e-05 1.50448e-05)
(0.000127281 -5.96006e-05 1.50447e-05)
(0.000131991 -4.82805e-05 1.50447e-05)
(0.000135697 -3.65931e-05 1.50448e-05)
(0.00013837 -2.46271e-05 1.5045e-05)
(0.00013999 -1.24735e-05 1.5045e-05)
(0.000140544 -2.2513e-07 1.5045e-05)
(0.000140029 1.20249e-05 1.5045e-05)
(0.000138448 2.41835e-05 1.5045e-05)
(0.000135813 3.6158e-05 1.5045e-05)
(0.000132145 4.78572e-05 1.50449e-05)
(0.000127471 5.91923e-05 1.50448e-05)
(0.000121827 7.00769e-05 1.50448e-05)
(0.000115256 8.0428e-05 1.50448e-05)
(0.000107808 9.01674e-05 1.50449e-05)
(9.95389e-05 9.92205e-05 1.5045e-05)
(9.05123e-05 0.000107518 1.50449e-05)
(8.07973e-05 0.000114998 1.50449e-05)
(7.04672e-05 0.000121602 1.50448e-05)
(5.96006e-05 0.000127281 1.50447e-05)
(4.82805e-05 0.000131991 1.50447e-05)
(3.65931e-05 0.000135697 1.50448e-05)
(2.46271e-05 0.00013837 1.5045e-05)
(1.24735e-05 0.00013999 1.5045e-05)
(2.25144e-07 0.000140544 1.5045e-05)
(-1.20249e-05 0.000140029 1.5045e-05)
(-2.41834e-05 0.000138448 1.5045e-05)
(-3.61579e-05 0.000135813 1.5045e-05)
(-4.78572e-05 0.000132145 1.50449e-05)
(-5.91923e-05 0.000127471 1.50448e-05)
(-7.00769e-05 0.000121827 1.50448e-05)
(-8.0428e-05 0.000115256 1.50448e-05)
(-9.01673e-05 0.000107808 1.50449e-05)
(-9.92205e-05 9.95389e-05 1.5045e-05)
(-0.000107518 9.05123e-05 1.50449e-05)
(-0.000114998 8.07974e-05 1.50449e-05)
(-0.000121602 7.04672e-05 1.50448e-05)
(-0.000127281 5.96006e-05 1.50447e-05)
(-0.000131991 4.82805e-05 1.50447e-05)
(-0.000135697 3.65932e-05 1.50448e-05)
(-0.00013837 2.46272e-05 1.5045e-05)
(-0.00013999 1.24735e-05 1.5045e-05)
(-0.000140544 2.25167e-07 1.5045e-05)
(-0.000140029 -1.20249e-05 1.5045e-05)
(-0.000138448 -2.41834e-05 1.5045e-05)
(-0.000135813 -3.61579e-05 1.5045e-05)
(-0.000132145 -4.78571e-05 1.50449e-05)
(-0.000127471 -5.91923e-05 1.50448e-05)
(-0.000121827 -7.00768e-05 1.50448e-05)
(-0.000115256 -8.0428e-05 1.50448e-05)
(-0.000107808 -9.01673e-05 1.50449e-05)
(-9.95389e-05 -9.92204e-05 1.5045e-05)
(-9.05123e-05 -0.000107518 1.50449e-05)
(-8.07973e-05 -0.000114998 1.50449e-05)
(-7.04672e-05 -0.000121602 1.50448e-05)
(-5.96006e-05 -0.000127281 1.50447e-05)
(-4.82805e-05 -0.000131991 1.50447e-05)
(-3.65932e-05 -0.000135697 1.50448e-05)
(-2.46271e-05 -0.00013837 1.5045e-05)
(-1.24735e-05 -0.00013999 1.5045e-05)
(-2.25154e-07 -0.000140544 1.5045e-05)
(1.20249e-05 -0.000140029 1.5045e-05)
(2.41834e-05 -0.000138448 1.5045e-05)
(3.61579e-05 -0.000135813 1.5045e-05)
(4.78572e-05 -0.000132145 1.50449e-05)
(5.91923e-05 -0.000127471 1.50448e-05)
(4.52745e-05 -0.000152207 3.16057e-05)
(5.8368e-05 -0.000147682 3.16057e-05)
(7.10172e-05 -0.000142033 3.16058e-05)
(8.31258e-05 -0.000135303 3.16058e-05)
(9.46021e-05 -0.000127543 3.16059e-05)
(0.000105358 -0.000118812 3.16056e-05)
(0.000115312 -0.000109178 3.16056e-05)
(0.000124389 -9.87122e-05 3.16056e-05)
(0.000132519 -8.74955e-05 3.16056e-05)
(0.00013964 -7.56128e-05 3.16056e-05)
(0.000145699 -6.31546e-05 3.16058e-05)
(0.000150648 -5.02157e-05 3.16057e-05)
(0.000154452 -3.68948e-05 3.16058e-05)
(0.00015708 -2.32929e-05 3.16058e-05)
(0.000158512 -9.51386e-06 3.16057e-05)
(0.000158738 4.33774e-06 3.16057e-05)
(0.000157756 1.81562e-05 3.16058e-05)
(0.000155574 3.18365e-05 3.16057e-05)
(0.000152207 4.52745e-05 3.16057e-05)
(0.000147682 5.8368e-05 3.16057e-05)
(0.000142033 7.10172e-05 3.16058e-05)
(0.000135303 8.31258e-05 3.16058e-05)
(0.000127543 9.46021e-05 3.16059e-05)
(0.000118812 0.000105358 3.16056e-05)
(0.000109178 0.000115312 3.16056e-05)
(9.87122e-05 0.000124389 3.16056e-05)
(8.74955e-05 0.000132519 3.16056e-05)
(7.56128e-05 0.00013964 3.16056e-05)
(6.31546e-05 0.000145699 3.16058e-05)
(5.02157e-05 0.000150648 3.16057e-05)
(3.68948e-05 0.000154452 3.16058e-05)
(2.32929e-05 0.00015708 3.16058e-05)
(9.51387e-06 0.000158512 3.16057e-05)
(-4.33772e-06 0.000158738 3.16057e-05)
(-1.81562e-05 0.000157756 3.16058e-05)
(-3.18365e-05 0.000155574 3.16057e-05)
(-4.52745e-05 0.000152207 3.16057e-05)
(-5.8368e-05 0.000147682 3.16057e-05)
(-7.10172e-05 0.000142033 3.16058e-05)
(-8.31258e-05 0.000135303 3.16058e-05)
(-9.46021e-05 0.000127543 3.16059e-05)
(-0.000105358 0.000118813 3.16056e-05)
(-0.000115312 0.000109178 3.16056e-05)
(-0.000124389 9.87123e-05 3.16056e-05)
(-0.000132519 8.74955e-05 3.16056e-05)
(-0.00013964 7.56129e-05 3.16056e-05)
(-0.000145699 6.31546e-05 3.16058e-05)
(-0.000150648 5.02157e-05 3.16057e-05)
(-0.000154452 3.68948e-05 3.16057e-05)
(-0.00015708 2.32929e-05 3.16058e-05)
(-0.000158512 9.51389e-06 3.16057e-05)
(-0.000158738 -4.3377e-06 3.16057e-05)
(-0.000157756 -1.81562e-05 3.16058e-05)
(-0.000155574 -3.18365e-05 3.16057e-05)
(-0.000152207 -4.52745e-05 3.16057e-05)
(-0.000147682 -5.83679e-05 3.16057e-05)
(-0.000142033 -7.10171e-05 3.16058e-05)
(-0.000135303 -8.31258e-05 3.16057e-05)
(-0.000127543 -9.46021e-05 3.16059e-05)
(-0.000118812 -0.000105358 3.16056e-05)
(-0.000109178 -0.000115312 3.16056e-05)
(-9.87122e-05 -0.000124389 3.16056e-05)
(-8.74955e-05 -0.000132519 3.16056e-05)
(-7.56129e-05 -0.00013964 3.16056e-05)
(-6.31546e-05 -0.000145699 3.16058e-05)
(-5.02157e-05 -0.000150648 3.16057e-05)
(-3.68948e-05 -0.000154452 3.16057e-05)
(-2.32929e-05 -0.00015708 3.16058e-05)
(-9.51388e-06 -0.000158512 3.16057e-05)
(4.33772e-06 -0.000158738 3.16057e-05)
(1.81562e-05 -0.000157756 3.16058e-05)
(3.18365e-05 -0.000155574 3.16057e-05)
(1.01484e-05 -0.000175612 3.58281e-05)
(2.54153e-05 -0.000174059 3.58281e-05)
(4.04889e-05 -0.000171182 3.58283e-05)
(5.5254e-05 -0.000167001 3.58281e-05)
(6.95987e-05 -0.000161549 3.58281e-05)
(8.34138e-05 -0.000154869 3.58281e-05)
(9.65941e-05 -0.00014701 3.58282e-05)
(0.000109039 -0.000138032 3.58282e-05)
(0.000120655 -0.000128003 3.58281e-05)
(0.000131352 -0.000117001 3.58282e-05)
(0.000141049 -0.000105107 3.58282e-05)
(0.000149673 -9.24138e-05 3.58282e-05)
(0.000157158 -7.90172e-05 3.58282e-05)
(0.000163446 -6.5019e-05 3.5828e-05)
(0.000168491 -5.05263e-05 3.58281e-05)
(0.000172254 -3.56493e-05 3.58282e-05)
(0.000174706 -2.05005e-05 3.58281e-05)
(0.000175828 -5.19581e-06 3.58281e-05)
(0.000175612 1.01484e-05 3.58281e-05)
(0.000174059 2.54153e-05 3.58281e-05)
(0.000171182 4.04889e-05 3.58283e-05)
(0.000167001 5.5254e-05 3.58281e-05)
(0.000161549 6.95987e-05 3.58282e-05)
(0.000154869 8.34138e-05 3.58281e-05)
(0.00014701 9.65941e-05 3.58282e-05)
(0.000138032 0.000109039 3.58282e-05)
(0.000128003 0.000120655 3.58281e-05)
(0.000117001 0.000131352 3.58282e-05)
(0.000105107 0.000141049 3.58282e-05)
(9.24138e-05 0.000149673 3.58282e-05)
(7.90173e-05 0.000157158 3.58282e-05)
(6.5019e-05 0.000163446 3.5828e-05)
(5.05263e-05 0.000168491 3.58281e-05)
(3.56493e-05 0.000172254 3.58282e-05)
(2.05006e-05 0.000174706 3.58281e-05)
(5.19582e-06 0.000175828 3.58281e-05)
(-1.01484e-05 0.000175612 3.58281e-05)
(-2.54153e-05 0.000174059 3.58281e-05)
(-4.04889e-05 0.000171182 3.58283e-05)
(-5.5254e-05 0.000167001 3.58281e-05)
(-6.95987e-05 0.000161549 3.58281e-05)
(-8.34138e-05 0.000154869 3.58281e-05)
(-9.65941e-05 0.00014701 3.58282e-05)
(-0.000109039 0.000138032 3.58282e-05)
(-0.000120655 0.000128003 3.58281e-05)
(-0.000131352 0.000117001 3.58282e-05)
(-0.000141049 0.000105107 3.58282e-05)
(-0.000149673 9.24138e-05 3.58282e-05)
(-0.000157158 7.90173e-05 3.58281e-05)
(-0.000163446 6.5019e-05 3.58279e-05)
(-0.000168491 5.05263e-05 3.58281e-05)
(-0.000172254 3.56493e-05 3.58282e-05)
(-0.000174706 2.05006e-05 3.58281e-05)
(-0.000175828 5.19584e-06 3.58281e-05)
(-0.000175612 -1.01484e-05 3.58281e-05)
(-0.000174059 -2.54153e-05 3.58281e-05)
(-0.000171182 -4.04889e-05 3.58283e-05)
(-0.000167001 -5.52539e-05 3.58281e-05)
(-0.000161549 -6.95987e-05 3.58281e-05)
(-0.000154869 -8.34138e-05 3.58281e-05)
(-0.00014701 -9.6594e-05 3.58282e-05)
(-0.000138032 -0.000109039 3.58282e-05)
(-0.000128003 -0.000120655 3.58281e-05)
(-0.000117001 -0.000131352 3.58282e-05)
(-0.000105107 -0.000141049 3.58282e-05)
(-9.24138e-05 -0.000149673 3.58282e-05)
(-7.90173e-05 -0.000157158 3.58281e-05)
(-6.5019e-05 -0.000163446 3.5828e-05)
(-5.05263e-05 -0.000168491 3.58281e-05)
(-3.56493e-05 -0.000172254 3.58282e-05)
(-2.05006e-05 -0.000174706 3.58281e-05)
(-5.19582e-06 -0.000175828 3.58281e-05)
(-3.49771e-05 -0.000190788 3.83536e-05)
(-1.82158e-05 -0.000193111 3.83537e-05)
(-1.31592e-06 -0.000193963 3.83536e-05)
(1.55941e-05 -0.00019334 3.83536e-05)
(3.23854e-05 -0.000191245 3.83536e-05)
(4.89302e-05 -0.000187694 3.83536e-05)
(6.51024e-05 -0.000182715 3.83535e-05)
(8.07795e-05 -0.000176346 3.83535e-05)
(9.5842e-05 -0.000168636 3.83536e-05)
(0.000110175 -0.000159641 3.83537e-05)
(0.000123669 -0.00014943 3.83535e-05)
(0.000136222 -0.000138083 3.83536e-05)
(0.000147738 -0.000125685 3.83535e-05)
(0.00015813 -0.00011233 3.83534e-05)
(0.000167319 -9.81213e-05 3.83536e-05)
(0.000175234 -8.3165e-05 3.83536e-05)
(0.000181816 -6.75759e-05 3.83537e-05)
(0.000187014 -5.14724e-05 3.83536e-05)
(0.000190788 -3.49771e-05 3.83536e-05)
(0.000193111 -1.82158e-05 3.83537e-05)
(0.000193963 -1.31591e-06 3.83536e-05)
(0.00019334 1.55941e-05 3.83536e-05)
(0.000191245 3.23855e-05 3.83536e-05)
(0.000187694 4.89302e-05 3.83536e-05)
(0.000182715 6.51024e-05 3.83535e-05)
(0.000176346 8.07795e-05 3.83535e-05)
(0.000168636 9.5842e-05 3.83536e-05)
(0.000159641 0.000110175 3.83537e-05)
(0.00014943 0.000123669 3.83535e-05)
(0.000138083 0.000136222 3.83536e-05)
(0.000125685 0.000147738 3.83535e-05)
(0.000112331 0.00015813 3.83534e-05)
(9.81213e-05 0.000167319 3.83536e-05)
(8.3165e-05 0.000175234 3.83536e-05)
(6.7576e-05 0.000181816 3.83537e-05)
(5.14724e-05 0.000187014 3.83536e-05)
(3.49771e-05 0.000190788 3.83536e-05)
(1.82158e-05 0.000193111 3.83537e-05)
(1.31593e-06 0.000193963 3.83536e-05)
(-1.55941e-05 0.00019334 3.83536e-05)
(-3.23854e-05 0.000191245 3.83536e-05)
(-4.89302e-05 0.000187694 3.83536e-05)
(-6.51024e-05 0.000182715 3.83535e-05)
(-8.07794e-05 0.000176346 3.83535e-05)
(-9.5842e-05 0.000168636 3.83536e-05)
(-0.000110175 0.000159641 3.83537e-05)
(-0.000123669 0.00014943 3.83535e-05)
(-0.000136222 0.000138083 3.83536e-05)
(-0.000147738 0.000125685 3.83535e-05)
(-0.00015813 0.000112331 3.83534e-05)
(-0.000167319 9.81213e-05 3.83536e-05)
(-0.000175234 8.3165e-05 3.83536e-05)
(-0.000181816 6.7576e-05 3.83537e-05)
(-0.000187014 5.14724e-05 3.83536e-05)
(-0.000190788 3.49771e-05 3.83536e-05)
(-0.000193111 1.82158e-05 3.83537e-05)
(-0.000193963 1.31594e-06 3.83536e-05)
(-0.00019334 -1.55941e-05 3.83536e-05)
(-0.000191245 -3.23854e-05 3.83536e-05)
(-0.000187694 -4.89302e-05 3.83536e-05)
(-0.000182715 -6.51024e-05 3.83535e-05)
(-0.000176346 -8.07794e-05 3.83535e-05)
(-0.000168636 -9.5842e-05 3.83536e-05)
(-0.000159641 -0.000110175 3.83537e-05)
(-0.00014943 -0.000123669 3.83535e-05)
(-0.000138083 -0.000136221 3.83536e-05)
(-0.000125685 -0.000147738 3.83535e-05)
(-0.000112331 -0.00015813 3.83534e-05)
(-9.81213e-05 -0.000167319 3.83536e-05)
(-8.3165e-05 -0.000175234 3.83536e-05)
(-6.7576e-05 -0.000181816 3.83537e-05)
(-5.14724e-05 -0.000187014 3.83536e-05)
(-9.91629e-05 -0.000201125 4.21863e-05)
(-8.12559e-05 -0.000209002 4.21863e-05)
(-6.27311e-05 -0.000215289 4.21862e-05)
(-4.37287e-05 -0.000219939 4.21864e-05)
(-2.43932e-05 -0.000222912 4.21862e-05)
(-4.87231e-06 -0.00022419 4.21862e-05)
(1.46855e-05 -0.000223761 4.21861e-05)
(3.41313e-05 -0.000221629 4.21861e-05)
(5.33178e-05 -0.000217812 4.21862e-05)
(7.20986e-05 -0.000212336 4.21863e-05)
(9.03306e-05 -0.000205244 4.21862e-05)
(0.000107875 -0.00019659 4.21862e-05)
(0.000124598 -0.00018644 4.21859e-05)
(0.000140374 -0.000174872 4.21859e-05)
(0.000155081 -0.000161972 4.2186e-05)
(0.000168607 -0.000147839 4.21861e-05)
(0.00018085 -0.000132581 4.21862e-05)
(0.000191718 -0.000116315 4.21864e-05)
(0.000201125 -9.91628e-05 4.21863e-05)
(0.000209002 -8.12559e-05 4.21863e-05)
(0.000215289 -6.27311e-05 4.21862e-05)
(0.000219939 -4.37287e-05 4.21864e-05)
(0.000222912 -2.43932e-05 4.21862e-05)
(0.00022419 -4.8723e-06 4.21862e-05)
(0.000223761 1.46855e-05 4.21861e-05)
(0.000221629 3.41313e-05 4.21861e-05)
(0.000217812 5.33178e-05 4.21862e-05)
(0.000212336 7.20986e-05 4.21863e-05)
(0.000205244 9.03306e-05 4.21862e-05)
(0.00019659 0.000107875 4.21862e-05)
(0.00018644 0.000124598 4.21859e-05)
(0.000174872 0.000140374 4.21859e-05)
(0.000161972 0.000155081 4.2186e-05)
(0.000147839 0.000168607 4.21861e-05)
(0.000132581 0.00018085 4.21862e-05)
(0.000116315 0.000191718 4.21864e-05)
(9.91629e-05 0.000201125 4.21863e-05)
(8.12559e-05 0.000209002 4.21863e-05)
(6.27311e-05 0.000215289 4.21862e-05)
(4.37287e-05 0.000219939 4.21864e-05)
(2.43932e-05 0.000222912 4.21862e-05)
(4.87231e-06 0.00022419 4.21862e-05)
(-1.46855e-05 0.000223761 4.21861e-05)
(-3.41313e-05 0.000221629 4.21861e-05)
(-5.33178e-05 0.000217812 4.21862e-05)
(-7.20986e-05 0.000212336 4.21863e-05)
(-9.03306e-05 0.000205244 4.21862e-05)
(-0.000107875 0.00019659 4.21862e-05)
(-0.000124598 0.00018644 4.21859e-05)
(-0.000140374 0.000174872 4.21859e-05)
(-0.000155081 0.000161972 4.2186e-05)
(-0.000168607 0.000147839 4.21861e-05)
(-0.00018085 0.000132581 4.21862e-05)
(-0.000191718 0.000116315 4.21864e-05)
(-0.000201125 9.91629e-05 4.21863e-05)
(-0.000209002 8.12559e-05 4.21863e-05)
(-0.000215289 6.27311e-05 4.21862e-05)
(-0.000219939 4.37287e-05 4.21864e-05)
(-0.000222912 2.43932e-05 4.21862e-05)
(-0.00022419 4.87232e-06 4.21862e-05)
(-0.000223761 -1.46855e-05 4.21861e-05)
(-0.000221629 -3.41313e-05 4.21861e-05)
(-0.000217812 -5.33178e-05 4.21862e-05)
(-0.000212336 -7.20986e-05 4.21863e-05)
(-0.000205244 -9.03306e-05 4.21862e-05)
(-0.00019659 -0.000107875 4.21862e-05)
(-0.00018644 -0.000124598 4.21859e-05)
(-0.000174872 -0.000140374 4.21859e-05)
(-0.000161972 -0.000155081 4.2186e-05)
(-0.000147839 -0.000168607 4.21861e-05)
(-0.000132581 -0.00018085 4.21862e-05)
(-0.000116315 -0.000191718 4.21864e-05)
(0.000192276 -0.000288529 -3.02902e-05)
(0.000216691 -0.000270673 -3.02906e-05)
(0.000239457 -0.000250757 -3.029e-05)
(0.000260401 -0.000228932 -3.029e-05)
(0.000279363 -0.000205367 -3.02902e-05)
(0.000296199 -0.000180237 -3.02907e-05)
(0.00031078 -0.000153736 -3.02907e-05)
(0.000322996 -0.000126064 -3.02911e-05)
(0.000332755 -9.74336e-05 -3.02915e-05)
(0.000339981 -6.80612e-05 -3.02912e-05)
(0.000344618 -3.81709e-05 -3.02901e-05)
(0.000346633 -7.99022e-06 -3.02901e-05)
(0.000346011 2.2251e-05 -3.02902e-05)
(0.000342755 5.23232e-05 -3.02899e-05)
(0.000336889 8.19973e-05 -3.02899e-05)
(0.000328461 0.000111047 -3.02902e-05)
(0.000317533 0.000139252 -3.02903e-05)
(0.000304188 0.000166397 -3.02905e-05)
(0.000288529 0.000192276 -3.02902e-05)
(0.000270673 0.000216691 -3.02906e-05)
(0.000250757 0.000239457 -3.029e-05)
(0.000228933 0.000260401 -3.029e-05)
(0.000205367 0.000279363 -3.02902e-05)
(0.000180237 0.000296199 -3.02907e-05)
(0.000153736 0.00031078 -3.02907e-05)
(0.000126064 0.000322996 -3.02911e-05)
(9.74337e-05 0.000332755 -3.02915e-05)
(6.80612e-05 0.000339981 -3.02912e-05)
(3.81709e-05 0.000344618 -3.02901e-05)
(7.99026e-06 0.000346633 -3.02901e-05)
(-2.2251e-05 0.000346011 -3.02902e-05)
(-5.23232e-05 0.000342755 -3.02899e-05)
(-8.19972e-05 0.000336889 -3.02899e-05)
(-0.000111047 0.000328461 -3.02902e-05)
(-0.000139252 0.000317533 -3.02903e-05)
(-0.000166397 0.000304188 -3.02905e-05)
(-0.000192276 0.000288529 -3.02902e-05)
(-0.000216691 0.000270673 -3.02906e-05)
(-0.000239457 0.000250757 -3.029e-05)
(-0.000260401 0.000228933 -3.029e-05)
(-0.000279363 0.000205367 -3.02902e-05)
(-0.000296199 0.000180237 -3.02907e-05)
(-0.00031078 0.000153736 -3.02907e-05)
(-0.000322996 0.000126064 -3.02911e-05)
(-0.000332755 9.74337e-05 -3.02915e-05)
(-0.000339981 6.80613e-05 -3.02912e-05)
(-0.000344618 3.8171e-05 -3.02901e-05)
(-0.000346633 7.99033e-06 -3.02901e-05)
(-0.000346011 -2.22509e-05 -3.02902e-05)
(-0.000342755 -5.23231e-05 -3.02899e-05)
(-0.000336889 -8.19972e-05 -3.02899e-05)
(-0.000328461 -0.000111047 -3.02902e-05)
(-0.000317533 -0.000139252 -3.02903e-05)
(-0.000304188 -0.000166397 -3.02905e-05)
(-0.000288529 -0.000192276 -3.02902e-05)
(-0.000270673 -0.000216691 -3.02906e-05)
(-0.000250757 -0.000239457 -3.029e-05)
(-0.000228933 -0.0002604 -3.029e-05)
(-0.000205367 -0.000279363 -3.02902e-05)
(-0.000180237 -0.000296199 -3.02907e-05)
(-0.000153736 -0.00031078 -3.02907e-05)
(-0.000126064 -0.000322996 -3.02911e-05)
(-9.74337e-05 -0.000332755 -3.02915e-05)
(-6.80613e-05 -0.000339981 -3.02912e-05)
(-3.81709e-05 -0.000344618 -3.02901e-05)
(-7.99029e-06 -0.000346633 -3.02901e-05)
(2.22509e-05 -0.000346011 -3.02902e-05)
(5.23231e-05 -0.000342755 -3.02899e-05)
(8.19972e-05 -0.000336889 -3.02899e-05)
(0.000111047 -0.000328461 -3.02902e-05)
(0.000139252 -0.000317533 -3.02903e-05)
(0.000166397 -0.000304188 -3.02905e-05)
(0.000154 -0.000372236 5.90753e-05)
(0.000185857 -0.000357398 5.90751e-05)
(0.000216299 -0.000339839 5.90756e-05)
(0.000245094 -0.000319694 5.90758e-05)
(0.000272025 -0.000297116 5.90753e-05)
(0.000296885 -0.000272277 5.90752e-05)
(0.000319486 -0.000245366 5.90755e-05)
(0.000339655 -0.000216587 5.90752e-05)
(0.00035724 -0.00018616 5.90753e-05)
(0.000372105 -0.000154317 5.90755e-05)
(0.000384138 -0.000121298 5.90757e-05)
(0.000393249 -8.73562e-05 5.90759e-05)
(0.000399365 -5.27501e-05 5.90757e-05)
(0.000402443 -1.77422e-05 5.90755e-05)
(0.000402458 1.74005e-05 5.90759e-05)
(0.00039941 5.24108e-05 5.90759e-05)
(0.000393322 8.70225e-05 5.90754e-05)
(0.000384241 0.000120972 5.90753e-05)
(0.000372236 0.000154 5.90753e-05)
(0.000357398 0.000185857 5.90751e-05)
(0.000339839 0.000216299 5.90756e-05)
(0.000319694 0.000245095 5.90758e-05)
(0.000297116 0.000272025 5.90753e-05)
(0.000272277 0.000296885 5.90752e-05)
(0.000245366 0.000319486 5.90755e-05)
(0.000216587 0.000339655 5.90752e-05)
(0.00018616 0.00035724 5.90753e-05)
(0.000154317 0.000372105 5.90755e-05)
(0.000121298 0.000384139 5.90757e-05)
(8.73563e-05 0.000393249 5.90759e-05)
(5.27501e-05 0.000399365 5.90757e-05)
(1.77423e-05 0.000402443 5.90755e-05)
(-1.74005e-05 0.000402458 5.90759e-05)
(-5.24108e-05 0.00039941 5.90759e-05)
(-8.70225e-05 0.000393322 5.90754e-05)
(-0.000120972 0.000384241 5.90753e-05)
(-0.000154 0.000372236 5.90753e-05)
(-0.000185857 0.000357398 5.90751e-05)
(-0.000216299 0.00033984 5.90756e-05)
(-0.000245094 0.000319694 5.90758e-05)
(-0.000272025 0.000297116 5.90753e-05)
(-0.000296885 0.000272277 5.90752e-05)
(-0.000319486 0.000245366 5.90755e-05)
(-0.000339655 0.000216587 5.90752e-05)
(-0.00035724 0.000186161 5.90753e-05)
(-0.000372105 0.000154317 5.90754e-05)
(-0.000384138 0.000121298 5.90757e-05)
(-0.000393249 8.73563e-05 5.90759e-05)
(-0.000399365 5.27502e-05 5.90757e-05)
(-0.000402443 1.77423e-05 5.90755e-05)
(-0.000402458 -1.74004e-05 5.90758e-05)
(-0.00039941 -5.24107e-05 5.90759e-05)
(-0.000393322 -8.70224e-05 5.90754e-05)
(-0.000384241 -0.000120972 5.90752e-05)
(-0.000372236 -0.000154 5.90753e-05)
(-0.000357398 -0.000185857 5.90751e-05)
(-0.000339839 -0.000216299 5.90756e-05)
(-0.000319694 -0.000245094 5.90758e-05)
(-0.000297116 -0.000272025 5.90753e-05)
(-0.000272277 -0.000296885 5.90752e-05)
(-0.000245366 -0.000319486 5.90755e-05)
(-0.000216587 -0.000339655 5.90752e-05)
(-0.000186161 -0.00035724 5.90752e-05)
(-0.000154317 -0.000372105 5.90754e-05)
(-0.000121298 -0.000384138 5.90756e-05)
(-8.73563e-05 -0.000393249 5.90759e-05)
(-5.27502e-05 -0.000399365 5.90757e-05)
(-1.77423e-05 -0.000402443 5.90755e-05)
(1.74005e-05 -0.000402458 5.90758e-05)
(5.24108e-05 -0.00039941 5.90759e-05)
(8.70224e-05 -0.000393322 5.90754e-05)
(0.000120972 -0.000384241 5.90753e-05)
(9.14812e-05 -0.000451238 0.00011895)
(0.000130461 -0.000441548 0.00011895)
(0.000168448 -0.000428497 0.00011895)
(0.000205153 -0.000412186 0.000118951)
(0.000240296 -0.000392737 0.000118951)
(0.000273611 -0.0003703 0.000118951)
(0.000304844 -0.000345044 0.000118951)
(0.000333756 -0.000317162 0.000118951)
(0.000360128 -0.000286866 0.000118951)
(0.00038376 -0.000254387 0.000118951)
(0.000404471 -0.000219972 0.000118951)
(0.000422104 -0.000183883 0.000118951)
(0.000436524 -0.000146395 0.000118951)
(0.000447622 -0.000107791 0.000118951)
(0.000455313 -6.83689e-05 0.000118951)
(0.000459539 -2.8425e-05 0.000118951)
(0.000460268 1.17347e-05 0.00011895)
(0.000457494 5.18051e-05 0.00011895)
(0.000451238 9.14812e-05 0.00011895)
(0.000441548 0.000130461 0.00011895)
(0.000428497 0.000168448 0.00011895)
(0.000412186 0.000205153 0.000118951)
(0.000392737 0.000240297 0.000118951)
(0.0003703 0.000273611 0.000118951)
(0.000345044 0.000304844 0.000118951)
(0.000317162 0.000333756 0.000118951)
(0.000286866 0.000360128 0.000118951)
(0.000254387 0.00038376 0.000118951)
(0.000219972 0.000404471 0.000118951)
(0.000183884 0.000422104 0.000118951)
(0.000146395 0.000436524 0.000118951)
(0.000107792 0.000447622 0.000118951)
(6.83689e-05 0.000455313 0.000118951)
(2.84251e-05 0.000459539 0.000118951)
(-1.17347e-05 0.000460268 0.00011895)
(-5.1805e-05 0.000457494 0.00011895)
(-9.14812e-05 0.000451238 0.00011895)
(-0.000130461 0.000441548 0.00011895)
(-0.000168448 0.000428497 0.00011895)
(-0.000205153 0.000412186 0.000118951)
(-0.000240296 0.000392737 0.000118951)
(-0.000273611 0.0003703 0.000118951)
(-0.000304844 0.000345044 0.000118951)
(-0.000333756 0.000317162 0.000118951)
(-0.000360128 0.000286866 0.000118951)
(-0.00038376 0.000254387 0.000118951)
(-0.000404471 0.000219972 0.000118951)
(-0.000422104 0.000183884 0.000118951)
(-0.000436524 0.000146395 0.000118951)
(-0.000447622 0.000107792 0.000118951)
(-0.000455313 6.8369e-05 0.000118951)
(-0.000459539 2.84251e-05 0.000118951)
(-0.000460268 -1.17346e-05 0.00011895)
(-0.000457494 -5.18049e-05 0.00011895)
(-0.000451238 -9.14811e-05 0.00011895)
(-0.000441548 -0.000130461 0.00011895)
(-0.000428497 -0.000168448 0.00011895)
(-0.000412186 -0.000205153 0.000118951)
(-0.000392737 -0.000240296 0.000118951)
(-0.0003703 -0.000273611 0.000118951)
(-0.000345044 -0.000304844 0.000118951)
(-0.000317162 -0.000333756 0.000118951)
(-0.000286866 -0.000360128 0.000118951)
(-0.000254387 -0.00038376 0.000118951)
(-0.000219972 -0.000404471 0.000118951)
(-0.000183884 -0.000422104 0.000118951)
(-0.000146395 -0.000436524 0.000118951)
(-0.000107792 -0.000447622 0.000118951)
(-6.83689e-05 -0.000455313 0.000118951)
(-2.84251e-05 -0.000459539 0.000118951)
(1.17347e-05 -0.000460268 0.00011895)
(5.1805e-05 -0.000457494 0.00011895)
(1.16224e-05 -0.000516167 0.000150442)
(5.6565e-05 -0.00051319 0.000150442)
(0.000101077 -0.000506307 0.000150442)
(0.00014482 -0.000495571 0.000150442)
(0.000187461 -0.000481063 0.000150442)
(0.000228674 -0.000462894 0.000150442)
(0.000268148 -0.000441203 0.000150442)
(0.000305581 -0.000416154 0.000150442)
(0.000340688 -0.000387936 0.000150442)
(0.000373203 -0.000356767 0.000150442)
(0.000402877 -0.000322883 0.000150442)
(0.000429485 -0.000286541 0.000150442)
(0.000452824 -0.000248019 0.000150442)
(0.000472717 -0.000207608 0.000150442)
(0.000489013 -0.000165618 0.000150442)
(0.000501587 -0.000122368 0.000150442)
(0.000510343 -7.81859e-05 0.000150442)
(0.000515216 -3.34087e-05 0.000150442)
(0.000516167 1.16225e-05 0.000150442)
(0.00051319 5.6565e-05 0.000150442)
(0.000506307 0.000101077 0.000150442)
(0.000495571 0.00014482 0.000150442)
(0.000481063 0.000187461 0.000150442)
(0.000462894 0.000228674 0.000150442)
(0.000441203 0.000268148 0.000150442)
(0.000416154 0.000305581 0.000150442)
(0.000387936 0.000340688 0.000150442)
(0.000356767 0.000373203 0.000150442)
(0.000322883 0.000402877 0.000150442)
(0.000286541 0.000429485 0.000150442)
(0.000248019 0.000452824 0.000150442)
(0.000207608 0.000472717 0.000150442)
(0.000165618 0.000489013 0.000150442)
(0.000122368 0.000501587 0.000150442)
(7.81859e-05 0.000510343 0.000150442)
(3.34088e-05 0.000515216 0.000150442)
(-1.16224e-05 0.000516167 0.000150442)
(-5.6565e-05 0.00051319 0.000150442)
(-0.000101077 0.000506307 0.000150442)
(-0.00014482 0.000495571 0.000150442)
(-0.000187461 0.000481063 0.000150442)
(-0.000228674 0.000462894 0.000150442)
(-0.000268148 0.000441203 0.000150442)
(-0.000305581 0.000416154 0.000150442)
(-0.000340688 0.000387936 0.000150442)
(-0.000373203 0.000356767 0.000150442)
(-0.000402877 0.000322883 0.000150442)
(-0.000429485 0.000286541 0.000150442)
(-0.000452824 0.000248019 0.000150442)
(-0.000472717 0.000207609 0.000150442)
(-0.000489013 0.000165618 0.000150442)
(-0.000501587 0.000122368 0.000150442)
(-0.000510343 7.8186e-05 0.000150442)
(-0.000515216 3.34088e-05 0.000150442)
(-0.000516167 -1.16224e-05 0.000150442)
(-0.00051319 -5.6565e-05 0.000150442)
(-0.000506307 -0.000101077 0.000150442)
(-0.000495571 -0.00014482 0.000150442)
(-0.000481063 -0.00018746 0.000150442)
(-0.000462894 -0.000228674 0.000150442)
(-0.000441203 -0.000268148 0.000150442)
(-0.000416154 -0.000305581 0.000150442)
(-0.000387936 -0.000340688 0.000150442)
(-0.000356767 -0.000373203 0.000150442)
(-0.000322883 -0.000402877 0.000150442)
(-0.000286541 -0.000429485 0.000150442)
(-0.000248019 -0.000452824 0.000150442)
(-0.000207608 -0.000472717 0.000150442)
(-0.000165618 -0.000489013 0.000150442)
(-0.000122368 -0.000501587 0.000150442)
(-7.81859e-05 -0.000510343 0.000150442)
(-3.34088e-05 -0.000515215 0.000150442)
(-8.44349e-05 -0.000560923 0.000167607)
(-3.52264e-05 -0.000566148 0.000167607)
(1.42506e-05 -0.000567064 0.000167608)
(6.36198e-05 -0.000563663 0.000167608)
(0.000112504 -0.000555973 0.000167607)
(0.000160532 -0.000544052 0.000167607)
(0.000207338 -0.000527991 0.000167608)
(0.000252566 -0.000507911 0.000167607)
(0.000295872 -0.000483965 0.000167607)
(0.000336927 -0.000456337 0.000167607)
(0.000375417 -0.000425235 0.000167607)
(0.000411051 -0.000390898 0.000167608)
(0.000443556 -0.000353584 0.000167607)
(0.000472684 -0.00031358 0.000167607)
(0.000498216 -0.00027119 0.000167607)
(0.000519956 -0.000226736 0.000167608)
(0.000537739 -0.000180556 0.000167607)
(0.00055143 -0.000133001 0.000167607)
(0.000560923 -8.44349e-05 0.000167607)
(0.000566148 -3.52264e-05 0.000167607)
(0.000567064 1.42507e-05 0.000167608)
(0.000563663 6.36198e-05 0.000167608)
(0.000555973 0.000112504 0.000167607)
(0.000544052 0.000160532 0.000167607)
(0.000527991 0.000207338 0.000167608)
(0.000507911 0.000252566 0.000167607)
(0.000483965 0.000295873 0.000167607)
(0.000456337 0.000336927 0.000167607)