/*--------------------------------*- C++ -*----------------------------------*\
| =========                 |                                                 |
| \\      /  F ield         | OpenFOAM: The Open Source CFD Toolbox           |
|  \\    /   O peration     | Version:  2312                                  |
|   \\  /    A nd           | Website:  www.openfoam.com                      |
|    \\/     M anipulation  |                                                 |
\*---------------------------------------------------------------------------*/
FoamFile
{
    version     2.0;
    format      ascii;
    arch        "LSB;label=32;scalar=64";
    class       volVectorField;
    location    "0.1";
    object      D_0;
}
// * * * * * * * * * * * * * * * * * * * * * * * * * * * * * * * * * * * * * //

dimensions      [0 1 0 0 0 0 0];

internalField   nonuniform List<vector> 
1620
(
(5.39267e-05 -0.000117129 1.78628e-05)
(7.34466e-05 -0.000105985 1.78628e-05)
(9.07351e-05 -9.16213e-05 1.78629e-05)
(0.000105267 -7.44735e-05 1.78629e-05)
(0.0001166 -5.50627e-05 1.78629e-05)
(0.00012439 -3.39789e-05 1.78629e-05)
(0.0001284 -1.18626e-05 1.78628e-05)
(0.000128509 1.0614e-05 1.78628e-05)
(0.000124714 3.27682e-05 1.78628e-05)
(0.000117129 5.39267e-05 1.78628e-05)
(0.000105985 7.34466e-05 1.78628e-05)
(9.16213e-05 9.07351e-05 1.78629e-05)
(7.44735e-05 0.000105267 1.78629e-05)
(5.50627e-05 0.0001166 1.78629e-05)
(3.39789e-05 0.00012439 1.78629e-05)
(1.18626e-05 0.0001284 1.78628e-05)
(-1.0614e-05 0.000128509 1.78628e-05)
(-3.27682e-05 0.000124714 1.78628e-05)
(-5.39267e-05 0.000117129 1.78628e-05)
(-7.34466e-05 0.000105985 1.78628e-05)
(-9.07351e-05 9.16213e-05 1.78629e-05)
(-0.000105267 7.44735e-05 1.78629e-05)
(-0.0001166 5.50627e-05 1.78629e-05)
(-0.00012439 3.39789e-05 1.78629e-05)
(-0.0001284 1.18626e-05 1.78628e-05)
(-0.000128509 -1.0614e-05 1.78628e-05)
(-0.000124714 -3.27682e-05 1.78628e-05)
(-0.000117129 -5.39267e-05 1.78628e-05)
(-0.000105985 -7.34466e-05 1.78628e-05)
(-9.16213e-05 -9.07351e-05 1.78629e-05)
(-7.44735e-05 -0.000105267 1.78629e-05)
(-5.50627e-05 -0.0001166 1.78629e-05)
(-3.39789e-05 -0.00012439 1.78629e-05)
(-1.18626e-05 -0.0001284 1.78628e-05)
(1.0614e-05 -0.000128509 1.78628e-05)
(3.27682e-05 -0.000124714 1.78628e-05)
(3.76005e-05 -0.000110982 1.74224e-05)
(5.63011e-05 -0.000102766 1.74224e-05)
(7.32909e-05 -9.14286e-05 1.74224e-05)
(8.80539e-05 -7.73128e-05 1.74224e-05)
(0.000100142 -6.08479e-05 1.74225e-05)
(0.000109186 -4.25339e-05 1.74225e-05)
(0.000114913 -2.29278e-05 1.74224e-05)
(0.000117149 -2.62507e-06 1.74224e-05)
(0.000115825 1.77575e-05 1.74224e-05)
(0.000110982 3.76005e-05 1.74224e-05)
(0.000102766 5.63011e-05 1.74224e-05)
(9.14286e-05 7.32909e-05 1.74224e-05)
(7.73128e-05 8.80539e-05 1.74224e-05)
(6.08479e-05 0.000100142 1.74225e-05)
(4.25339e-05 0.000109186 1.74225e-05)
(2.29278e-05 0.000114913 1.74224e-05)
(2.62507e-06 0.000117149 1.74224e-05)
(-1.77575e-05 0.000115825 1.74224e-05)
(-3.76005e-05 0.000110982 1.74224e-05)
(-5.63011e-05 0.000102766 1.74224e-05)
(-7.32909e-05 9.14286e-05 1.74224e-05)
(-8.80539e-05 7.73128e-05 1.74224e-05)
(-0.000100142 6.08479e-05 1.74225e-05)
(-0.000109186 4.25339e-05 1.74225e-05)
(-0.000114913 2.29278e-05 1.74224e-05)
(-0.000117149 2.62507e-06 1.74224e-05)
(-0.000115825 -1.77575e-05 1.74224e-05)
(-0.000110982 -3.76005e-05 1.74224e-05)
(-0.000102766 -5.63011e-05 1.74224e-05)
(-9.14286e-05 -7.32909e-05 1.74224e-05)
(-7.73128e-05 -8.80539e-05 1.74224e-05)
(-6.08479e-05 -0.000100142 1.74225e-05)
(-4.25339e-05 -0.000109186 1.74225e-05)
(-2.29278e-05 -0.000114913 1.74224e-05)
(-2.62507e-06 -0.000117149 1.74224e-05)
(1.77575e-05 -0.000115825 1.74224e-05)
(1.82965e-05 -0.000105014 1.62706e-05)
(3.62541e-05 -0.000100242 1.62706e-05)
(5.31102e-05 -9.24236e-05 1.62707e-05)
(6.83524e-05 -8.17969e-05 1.62707e-05)
(8.15181e-05 -6.8685e-05 1.62707e-05)
(9.22065e-05 -5.3486e-05 1.62706e-05)
(0.000100094 -3.6662e-05 1.62707e-05)
(0.000104939 -1.87239e-05 1.62707e-05)
(0.000106596 -2.16985e-07 1.62706e-05)
(0.000105014 1.82965e-05 1.62706e-05)
(0.000100242 3.62541e-05 1.62706e-05)
(9.24236e-05 5.31102e-05 1.62707e-05)
(8.17969e-05 6.83524e-05 1.62707e-05)
(6.8685e-05 8.15181e-05 1.62707e-05)
(5.3486e-05 9.22065e-05 1.62706e-05)
(3.6662e-05 0.000100094 1.62707e-05)
(1.87239e-05 0.000104939 1.62707e-05)
(2.16985e-07 0.000106596 1.62706e-05)
(-1.82965e-05 0.000105014 1.62706e-05)
(-3.62541e-05 0.000100242 1.62706e-05)
(-5.31102e-05 9.24236e-05 1.62707e-05)
(-6.83524e-05 8.17969e-05 1.62707e-05)
(-8.15181e-05 6.8685e-05 1.62707e-05)
(-9.22065e-05 5.3486e-05 1.62706e-05)
(-0.000100094 3.6662e-05 1.62707e-05)
(-0.000104939 1.87239e-05 1.62707e-05)
(-0.000106596 2.16986e-07 1.62706e-05)
(-0.000105014 -1.82965e-05 1.62706e-05)
(-0.000100242 -3.62541e-05 1.62706e-05)
(-9.24236e-05 -5.31102e-05 1.62707e-05)
(-8.17969e-05 -6.83524e-05 1.62707e-05)
(-6.8685e-05 -8.15181e-05 1.62707e-05)
(-5.3486e-05 -9.22065e-05 1.62706e-05)
(-3.6662e-05 -0.000100094 1.62707e-05)
(-1.87239e-05 -0.000104939 1.62707e-05)
(-2.16986e-07 -0.000106596 1.62706e-05)
(0.000128217 -0.000351605 6.37409e-05)
(0.000187325 -0.000323999 6.37411e-05)
(0.000240741 -0.000286548 6.37412e-05)
(0.000286842 -0.00024039 6.37412e-05)
(0.000324227 -0.000186929 6.37412e-05)
(0.000351761 -0.000127787 6.37412e-05)
(0.000368608 -6.47632e-05 6.3741e-05)
(0.000374254 2.28702e-07 6.3741e-05)
(0.000368528 6.52136e-05 6.37409e-05)
(0.000351605 0.000128217 6.37409e-05)
(0.000323999 0.000187325 6.37411e-05)
(0.000286548 0.000240741 6.37412e-05)
(0.00024039 0.000286842 6.37412e-05)
(0.000186929 0.000324227 6.37412e-05)
(0.000127787 0.000351761 6.37412e-05)
(6.47632e-05 0.000368608 6.3741e-05)
(-2.28702e-07 0.000374254 6.3741e-05)
(-6.52136e-05 0.000368528 6.37409e-05)
(-0.000128217 0.000351605 6.37409e-05)
(-0.000187325 0.000323999 6.37411e-05)
(-0.000240741 0.000286548 6.37412e-05)
(-0.000286842 0.00024039 6.37412e-05)
(-0.000324227 0.000186929 6.37412e-05)
(-0.000351761 0.000127787 6.37412e-05)
(-0.000368608 6.47632e-05 6.3741e-05)
(-0.000374254 -2.28701e-07 6.3741e-05)
(-0.000368528 -6.52136e-05 6.37409e-05)
(-0.000351605 -0.000128217 6.37409e-05)
(-0.000323999 -0.000187325 6.37411e-05)
(-0.000286548 -0.000240741 6.37412e-05)
(-0.00024039 -0.000286842 6.37412e-05)
(-0.000186929 -0.000324227 6.37412e-05)
(-0.000127787 -0.000351761 6.37412e-05)
(-6.47632e-05 -0.000368608 6.3741e-05)
(2.28701e-07 -0.000374254 6.3741e-05)
(6.52136e-05 -0.000368528 6.37409e-05)
(0.000105925 -0.000330269 6.60903e-05)
(0.000161666 -0.000306858 6.60903e-05)
(0.000212495 -0.000274123 6.60904e-05)
(0.000256868 -0.000233059 6.60905e-05)
(0.000293436 -0.000184914 6.60905e-05)
(0.000321088 -0.00013115 6.60905e-05)
(0.000338984 -7.34012e-05 6.60904e-05)
(0.00034658 -1.34222e-05 6.60903e-05)
(0.000343645 4.69646e-05 6.60903e-05)
(0.000330269 0.000105925 6.60903e-05)
(0.000306858 0.000161666 6.60903e-05)
(0.000274123 0.000212495 6.60904e-05)
(0.000233059 0.000256868 6.60905e-05)
(0.000184914 0.000293436 6.60905e-05)
(0.00013115 0.000321088 6.60905e-05)
(7.34012e-05 0.000338984 6.60904e-05)
(1.34222e-05 0.00034658 6.60903e-05)
(-4.69646e-05 0.000343645 6.60903e-05)
(-0.000105925 0.000330269 6.60903e-05)
(-0.000161666 0.000306858 6.60903e-05)
(-0.000212495 0.000274123 6.60904e-05)
(-0.000256868 0.000233059 6.60905e-05)
(-0.000293436 0.000184914 6.60905e-05)
(-0.000321088 0.00013115 6.60905e-05)
(-0.000338984 7.34012e-05 6.60904e-05)
(-0.00034658 1.34222e-05 6.60903e-05)
(-0.000343645 -4.69646e-05 6.60903e-05)
(-0.000330269 -0.000105925 6.60903e-05)
(-0.000306858 -0.000161666 6.60903e-05)
(-0.000274123 -0.000212495 6.60904e-05)
(-0.000233059 -0.000256868 6.60905e-05)
(-0.000184914 -0.000293436 6.60905e-05)
(-0.00013115 -0.000321088 6.60905e-05)
(-7.34012e-05 -0.000338984 6.60904e-05)
(-1.34222e-05 -0.00034658 6.60903e-05)
(4.69646e-05 -0.000343645 6.60903e-05)
(8.03403e-05 -0.000308852 6.75409e-05)
(0.000132751 -0.000290208 6.75409e-05)
(0.000181128 -0.000262747 6.75409e-05)
(0.000224002 -0.000227303 6.75409e-05)
(0.00026007 -0.000184952 6.75409e-05)
(0.000288236 -0.000136981 6.75409e-05)
(0.000307643 -8.48489e-05 6.7541e-05)
(0.000317703 -3.01383e-05 6.75409e-05)
(0.00031811 2.54882e-05 6.75409e-05)
(0.000308852 8.03403e-05 6.75409e-05)
(0.000290208 0.000132751 6.75409e-05)
(0.000262747 0.000181128 6.75409e-05)
(0.000227303 0.000224002 6.75409e-05)
(0.000184952 0.00026007 6.75409e-05)
(0.000136981 0.000288236 6.75409e-05)
(8.48489e-05 0.000307643 6.7541e-05)
(3.01383e-05 0.000317703 6.75409e-05)
(-2.54882e-05 0.00031811 6.75409e-05)
(-8.03403e-05 0.000308852 6.75409e-05)
(-0.000132751 0.000290208 6.75409e-05)
(-0.000181128 0.000262747 6.75409e-05)
(-0.000224002 0.000227303 6.75409e-05)
(-0.00026007 0.000184952 6.75409e-05)
(-0.000288236 0.000136981 6.75409e-05)
(-0.000307643 8.48489e-05 6.7541e-05)
(-0.000317703 3.01383e-05 6.75409e-05)
(-0.00031811 -2.54882e-05 6.75409e-05)
(-0.000308852 -8.03403e-05 6.75409e-05)
(-0.000290208 -0.000132751 6.75409e-05)
(-0.000262747 -0.000181128 6.75409e-05)
(-0.000227303 -0.000224002 6.75409e-05)
(-0.000184952 -0.00026007 6.75409e-05)
(-0.000136981 -0.000288236 6.75409e-05)
(-8.48489e-05 -0.000307643 6.7541e-05)
(-3.01383e-05 -0.000317703 6.75409e-05)
(2.54882e-05 -0.00031811 6.75409e-05)
(0.000194272 -0.000581806 0.000134105)
(0.00029235 -0.000539232 0.000134106)
(0.000381545 -0.000480274 0.000134106)
(0.000459147 -0.000406723 0.000134106)
(0.000522799 -0.000320814 0.000134106)
(0.000570565 -0.000225157 0.000134106)
(0.000600995 -0.000122659 0.000134106)
(0.000613164 -1.64336e-05 0.000134105)
(0.000606702 9.02908e-05 0.000134105)
(0.000581806 0.000194272 0.000134105)
(0.000539232 0.00029235 0.000134106)
(0.000480274 0.000381545 0.000134106)
(0.000406723 0.000459147 0.000134106)
(0.000320814 0.000522799 0.000134106)
(0.000225157 0.000570565 0.000134106)
(0.000122659 0.000600995 0.000134106)
(1.64336e-05 0.000613164 0.000134105)
(-9.02908e-05 0.000606702 0.000134105)
(-0.000194272 0.000581806 0.000134105)
(-0.00029235 0.000539232 0.000134106)
(-0.000381545 0.000480274 0.000134106)
(-0.000459147 0.000406723 0.000134106)
(-0.000522799 0.000320814 0.000134106)
(-0.000570565 0.000225157 0.000134106)
(-0.000600995 0.000122659 0.000134106)
(-0.000613164 1.64336e-05 0.000134105)
(-0.000606702 -9.02908e-05 0.000134105)
(-0.000581806 -0.000194272 0.000134105)
(-0.000539232 -0.00029235 0.000134106)
(-0.000480274 -0.000381545 0.000134106)
(-0.000406723 -0.000459147 0.000134106)
(-0.000320814 -0.000522799 0.000134106)
(-0.000225157 -0.000570565 0.000134106)
(-0.000122659 -0.000600995 0.000134106)
(-1.64336e-05 -0.000613164 0.000134105)
(9.02908e-05 -0.000606702 0.000134105)
(0.000164966 -0.000543345 0.000138323)
(0.00025681 -0.000506444 0.000138323)
(0.000340852 -0.000454156 0.000138323)
(0.000414537 -0.000388068 0.000138323)
(0.000475627 -0.000310188 0.000138323)
(0.000522264 -0.000222884 0.000138323)
(0.000553034 -0.000128808 0.000138323)
(0.000566999 -3.08176e-05 0.000138323)
(0.000563736 6.81088e-05 0.000138323)
(0.000543345 0.000164966 0.000138323)
(0.000506444 0.00025681 0.000138323)
(0.000454156 0.000340852 0.000138323)
(0.000388068 0.000414537 0.000138323)
(0.000310188 0.000475627 0.000138323)
(0.000222884 0.000522264 0.000138323)
(0.000128808 0.000553034 0.000138323)
(3.08176e-05 0.000566999 0.000138323)
(-6.81088e-05 0.000563736 0.000138323)
(-0.000164966 0.000543345 0.000138323)
(-0.00025681 0.000506444 0.000138323)
(-0.000340852 0.000454156 0.000138323)
(-0.000414537 0.000388068 0.000138323)
(-0.000475627 0.000310188 0.000138323)
(-0.000522264 0.000222884 0.000138323)
(-0.000553034 0.000128808 0.000138323)
(-0.000566999 3.08176e-05 0.000138323)
(-0.000563736 -6.81088e-05 0.000138323)
(-0.000543345 -0.000164966 0.000138323)
(-0.000506444 -0.00025681 0.000138323)
(-0.000454156 -0.000340852 0.000138323)
(-0.000388068 -0.000414537 0.000138323)
(-0.000310188 -0.000475627 0.000138323)
(-0.000222884 -0.000522264 0.000138323)
(-0.000128808 -0.000553034 0.000138323)
(-3.08176e-05 -0.000566999 0.000138323)
(6.81088e-05 -0.000563736 0.000138323)
(0.000132467 -0.000504416 0.000141619)
(0.000218045 -0.00047375 0.000141619)
(0.000296999 -0.00042869 0.000141619)
(0.000366928 -0.000370604 0.000141619)
(0.000425708 -0.000301257 0.000141619)
(0.000471553 -0.000222757 0.000141619)
(0.000503071 -0.000137488 0.000141619)
(0.000519302 -4.80422e-05 0.000141619)
(0.000519755 4.28635e-05 0.000141619)
(0.000504416 0.000132467 0.000141619)
(0.00047375 0.000218045 0.000141619)
(0.00042869 0.000296999 0.000141619)
(0.000370604 0.000366928 0.000141619)
(0.000301257 0.000425708 0.000141619)
(0.000222757 0.000471553 0.000141619)
(0.000137488 0.000503071 0.000141619)
(4.80422e-05 0.000519302 0.000141619)
(-4.28635e-05 0.000519755 0.000141619)
(-0.000132467 0.000504416 0.000141619)
(-0.000218045 0.00047375 0.000141619)
(-0.000296999 0.00042869 0.000141619)
(-0.000366928 0.000370604 0.000141619)
(-0.000425708 0.000301257 0.000141619)
(-0.000471553 0.000222757 0.000141619)
(-0.000503071 0.000137488 0.000141619)
(-0.000519302 4.80422e-05 0.000141619)
(-0.000519755 -4.28635e-05 0.000141619)
(-0.000504416 -0.000132467 0.000141619)
(-0.00047375 -0.000218045 0.000141619)
(-0.00042869 -0.000296999 0.000141619)
(-0.000370604 -0.000366928 0.000141619)
(-0.000301257 -0.000425708 0.000141619)
(-0.000222757 -0.000471553 0.000141619)
(-0.000137488 -0.000503071 0.000141619)
(-4.80422e-05 -0.000519302 0.000141619)
(4.28635e-05 -0.000519755 0.000141619)
(0.000245156 -0.000804328 0.000222588)
(0.000381101 -0.000749538 0.000222588)
(0.000505467 -0.000671973 0.000222588)
(0.000614475 -0.000573991 0.000222588)
(0.000704812 -0.000458568 0.000222588)
(0.000773734 -0.000329212 0.000222588)
(0.000819146 -0.000189853 0.000222588)
(0.000839669 -4.47253e-05 0.000222588)
(0.000834679 0.000101761 0.000222588)
(0.000804328 0.000245156 0.000222588)
(0.000749538 0.000381101 0.000222588)
(0.000671973 0.000505467 0.000222588)
(0.000573991 0.000614475 0.000222588)
(0.000458568 0.000704812 0.000222588)
(0.000329212 0.000773734 0.000222588)
(0.000189853 0.000819146 0.000222588)
(4.47253e-05 0.000839669 0.000222588)
(-0.000101761 0.000834679 0.000222588)
(-0.000245156 0.000804328 0.000222588)
(-0.000381101 0.000749538 0.000222588)
(-0.000505467 0.000671973 0.000222588)
(-0.000614475 0.000573991 0.000222588)
(-0.000704812 0.000458568 0.000222588)
(-0.000773734 0.000329212 0.000222588)
(-0.000819146 0.000189853 0.000222588)
(-0.000839669 4.47253e-05 0.000222588)
(-0.000834679 -0.000101761 0.000222588)
(-0.000804328 -0.000245156 0.000222588)
(-0.000749538 -0.000381101 0.000222588)
(-0.000671973 -0.000505467 0.000222588)
(-0.000573991 -0.000614475 0.000222588)
(-0.000458568 -0.000704812 0.000222588)
(-0.000329212 -0.000773734 0.000222588)
(-0.000189853 -0.000819146 0.000222588)
(-4.47253e-05 -0.000839669 0.000222588)
(0.000101761 -0.000834679 0.000222588)
(0.000210541 -0.000746229 0.000227614)
(0.000336924 -0.000698332 0.000227614)
(0.000453069 -0.000629216 0.000227614)
(0.000555448 -0.000540982 0.000227614)
(0.000640951 -0.000436311 0.000227614)
(0.000706978 -0.000318382 0.000227614)
(0.000751524 -0.00019078 0.000227614)
(0.000773235 -5.73812e-05 0.000227614)
(0.000771452 7.77614e-05 0.000227614)
(0.000746229 0.000210541 0.000227614)
(0.000698332 0.000336924 0.000227614)
(0.000629216 0.000453069 0.000227614)
(0.000540982 0.000555448 0.000227614)
(0.000436311 0.000640951 0.000227614)
(0.000318382 0.000706978 0.000227614)
(0.00019078 0.000751524 0.000227614)
(5.73812e-05 0.000773235 0.000227614)
(-7.77614e-05 0.000771452 0.000227614)
(-0.000210541 0.000746229 0.000227614)
(-0.000336924 0.000698332 0.000227614)
(-0.000453069 0.000629216 0.000227614)
(-0.000555448 0.000540982 0.000227614)
(-0.000640951 0.000436311 0.000227614)
(-0.000706978 0.000318382 0.000227614)
(-0.000751524 0.00019078 0.000227614)
(-0.000773235 5.73812e-05 0.000227614)
(-0.000771452 -7.77614e-05 0.000227614)
(-0.000746229 -0.000210541 0.000227614)
(-0.000698332 -0.000336924 0.000227614)
(-0.000629216 -0.000453069 0.000227614)
(-0.000540982 -0.000555448 0.000227614)
(-0.000436311 -0.000640951 0.000227614)
(-0.000318382 -0.000706978 0.000227614)
(-0.00019078 -0.000751524 0.000227614)
(-5.73812e-05 -0.000773235 0.000227614)
(7.77614e-05 -0.000771452 0.000227614)
(0.000172927 -0.000687559 0.000231648)
(0.000289694 -0.000647085 0.000231648)
(0.000397658 -0.00058695 0.000231648)
(0.000493539 -0.00050898 0.000231648)
(0.000574424 -0.000415545 0.000231648)
(0.000637856 -0.000309485 0.000231648)
(0.000681907 -0.00019402 0.000231648)
(0.000705239 -7.26608e-05 0.000231648)
(0.000707142 5.09066e-05 0.000231648)
(0.000687559 0.000172927 0.000231648)
(0.000647085 0.000289694 0.000231648)
(0.00058695 0.000397658 0.000231648)
(0.00050898 0.000493539 0.000231648)
(0.000415545 0.000574424 0.000231648)
(0.000309485 0.000637856 0.000231648)
(0.00019402 0.000681907 0.000231648)
(7.26608e-05 0.000705239 0.000231648)
(-5.09066e-05 0.000707142 0.000231648)
(-0.000172927 0.000687559 0.000231648)
(-0.000289694 0.000647085 0.000231648)
(-0.000397658 0.00058695 0.000231648)
(-0.000493539 0.00050898 0.000231648)
(-0.000574424 0.000415545 0.000231648)
(-0.000637856 0.000309485 0.000231648)
(-0.000681907 0.00019402 0.000231648)
(-0.000705239 7.26608e-05 0.000231648)
(-0.000707142 -5.09066e-05 0.000231648)
(-0.000687559 -0.000172927 0.000231648)
(-0.000647085 -0.000289694 0.000231648)
(-0.00058695 -0.000397658 0.000231648)
(-0.00050898 -0.000493539 0.000231648)
(-0.000415545 -0.000574424 0.000231648)
(-0.000309485 -0.000637856 0.000231648)
(-0.00019402 -0.000681907 0.000231648)
(-7.26608e-05 -0.000705239 0.000231648)
(5.09066e-05 -0.000707142 0.000231648)
(0.000278972 -0.00101492 0.000325539)
(0.000450973 -0.000951061 0.000325539)
(0.000609272 -0.000858301 0.000325539)
(0.000749058 -0.000739463 0.000325539)
(0.000866085 -0.000598156 0.000325539)
(0.000956796 -0.000438675 0.000325539)
(0.00101843 -0.000265865 0.000325539)
(0.00104913 -8.49763e-05 0.000325539)
(0.00104795 9.8494e-05 0.000325539)
(0.00101492 0.000278972 0.000325539)
(0.000951061 0.000450973 0.000325539)
(0.000858301 0.000609272 0.000325539)
(0.000739463 0.000749058 0.000325539)
(0.000598156 0.000866085 0.000325539)
(0.000438675 0.000956796 0.000325539)
(0.000265865 0.00101843 0.000325539)
(8.49763e-05 0.00104913 0.000325539)
(-9.8494e-05 0.00104795 0.000325539)
(-0.000278972 0.00101492 0.000325539)
(-0.000450973 0.000951061 0.000325539)
(-0.000609272 0.000858301 0.000325539)
(-0.000749058 0.000739463 0.000325539)
(-0.000866085 0.000598156 0.000325539)
(-0.000956796 0.000438675 0.000325539)
(-0.00101843 0.000265865 0.000325539)
(-0.00104913 8.49763e-05 0.000325539)
(-0.00104795 -9.8494e-05 0.000325539)
(-0.00101492 -0.000278972 0.000325539)
(-0.000951061 -0.000450973 0.000325539)
(-0.000858301 -0.000609272 0.000325539)
(-0.000739463 -0.000749058 0.000325539)
(-0.000598156 -0.000866085 0.000325539)
(-0.000438675 -0.000956796 0.000325539)
(-0.000265865 -0.00101843 0.000325539)
(-8.49763e-05 -0.00104913 0.000325539)
(9.8494e-05 -0.00104795 0.000325539)
(0.000240733 -0.000934847 0.000330215)
(0.00039941 -0.000878842 0.000330215)
(0.000545951 -0.000796133 0.000330215)
(0.000675904 -0.000689234 0.000330215)
(0.00078532 -0.000561394 0.000330215)
(0.000870874 -0.000416496 0.000330215)
(0.000929968 -0.000258943 0.000330215)
(0.000960804 -9.35217e-05 0.000330215)
(0.000962447 7.47411e-05 0.000330215)
(0.000934847 0.000240733 0.000330215)
(0.000878842 0.00039941 0.000330215)
(0.000796133 0.000545951 0.000330215)
(0.000689234 0.000675904 0.000330215)
(0.000561394 0.00078532 0.000330215)
(0.000416496 0.000870874 0.000330215)
(0.000258943 0.000929968 0.000330215)
(9.35217e-05 0.000960804 0.000330215)
(-7.47411e-05 0.000962447 0.000330215)
(-0.000240733 0.000934847 0.000330215)
(-0.00039941 0.000878842 0.000330215)
(-0.000545951 0.000796133 0.000330215)
(-0.000675904 0.000689234 0.000330215)
(-0.00078532 0.000561394 0.000330215)
(-0.000870874 0.000416496 0.000330215)
(-0.000929968 0.000258943 0.000330215)
(-0.000960804 9.35217e-05 0.000330215)
(-0.000962447 -7.47411e-05 0.000330215)
(-0.000934847 -0.000240733 0.000330215)
(-0.000878842 -0.00039941 0.000330215)
(-0.000796133 -0.000545951 0.000330215)
(-0.000689234 -0.000675904 0.000330215)
(-0.000561394 -0.00078532 0.000330215)
(-0.000416496 -0.000870874 0.000330215)
(-0.000258943 -0.000929968 0.000330215)
(-9.35217e-05 -0.000960804 0.000330215)
(7.47411e-05 -0.000962447 0.000330215)
(0.000199714 -0.000854291 0.000333841)
(0.000345026 -0.000806632 0.000333841)
(0.000479854 -0.000734465 0.000333841)
(0.000600102 -0.00063998 0.000333841)
(0.000702117 -0.000526051 0.000333841)
(0.000782798 -0.000396138 0.000333841)
(0.000839694 -0.000254188 0.000333841)
(0.000871077 -0.000104515 0.000333841)
(0.000875992 4.83333e-05 0.000333841)
(0.000854291 0.000199714 0.000333841)
(0.000806632 0.000345026 0.000333841)
(0.000734465 0.000479854 0.000333841)
(0.00063998 0.000600102 0.000333841)
(0.000526051 0.000702117 0.000333841)
(0.000396138 0.000782798 0.000333841)
(0.000254188 0.000839694 0.000333841)
(0.000104515 0.000871077 0.000333841)
(-4.83333e-05 0.000875992 0.000333841)
(-0.000199714 0.000854291 0.000333841)
(-0.000345026 0.000806632 0.000333841)
(-0.000479854 0.000734465 0.000333841)
(-0.000600102 0.00063998 0.000333841)
(-0.000702117 0.000526051 0.000333841)
(-0.000782798 0.000396138 0.000333841)
(-0.000839694 0.000254188 0.000333841)
(-0.000871077 0.000104515 0.000333841)
(-0.000875992 -4.83333e-05 0.000333841)
(-0.000854291 -0.000199714 0.000333841)
(-0.000806632 -0.000345026 0.000333841)
(-0.000734465 -0.000479854 0.000333841)
(-0.00063998 -0.000600102 0.000333841)
(-0.000526051 -0.000702117 0.000333841)
(-0.000396138 -0.000782798 0.000333841)
(-0.000254188 -0.000839694 0.000333841)
(-0.000104515 -0.000871077 0.000333841)
(4.83333e-05 -0.000875992 0.000333841)
(0.000295534 -0.00120882 0.00044018)
(0.000500954 -0.00113913 0.00044018)
(0.000691152 -0.00103484 0.00044018)
(0.000860349 -0.000899099 0.00044018)
(0.00100341 -0.000736042 0.00044018)
(0.00111597 -0.00055062 0.00044018)
(0.00119463 -0.000348469 0.00044018)
(0.001237 -0.000135728 0.00044018)
(0.00124177 8.11355e-05 0.00044018)
(0.00120882 0.000295534 0.00044018)
(0.00113913 0.000500954 0.00044018)
(0.00103484 0.000691152 0.00044018)
(0.000899099 0.000860349 0.00044018)
(0.000736042 0.00100341 0.00044018)
(0.00055062 0.00111597 0.00044018)
(0.000348469 0.00119463 0.00044018)
(0.000135728 0.001237 0.00044018)
(-8.11355e-05 0.00124177 0.00044018)
(-0.000295534 0.00120882 0.00044018)
(-0.000500954 0.00113913 0.00044018)
(-0.000691152 0.00103484 0.00044018)
(-0.000860349 0.000899099 0.00044018)
(-0.00100341 0.000736042 0.00044018)
(-0.00111597 0.00055062 0.00044018)
(-0.00119463 0.000348469 0.00044018)
(-0.001237 0.000135728 0.00044018)
(-0.00124177 -8.11355e-05 0.00044018)
(-0.00120882 -0.000295534 0.00044018)
(-0.00113913 -0.000500954 0.00044018)
(-0.00103484 -0.000691152 0.00044018)
(-0.000899099 -0.000860349 0.00044018)
(-0.000736042 -0.00100341 0.00044018)
(-0.00055062 -0.00111597 0.00044018)
(-0.000348469 -0.00119463 0.00044018)
(-0.000135728 -0.001237 0.00044018)
(8.11355e-05 -0.00124177 0.00044018)
(0.000255268 -0.00110476 0.000443208)
(0.000443231 -0.00104365 0.000443208)
(0.000617725 -0.000950831 0.000443208)
(0.000773451 -0.000829119 0.000443208)
(0.000905675 -0.000682215 0.000443208)
(0.00101038 -0.000514582 0.000443208)
(0.00108439 -0.000331313 0.000443208)
(0.00112545 -0.000137978 0.000443208)
(0.00113231 5.95498e-05 0.000443208)
(0.00110476 0.000255268 0.000443208)
(0.00104365 0.000443231 0.000443208)
(0.000950831 0.000617725 0.000443208)
(0.000829119 0.000773451 0.000443208)
(0.000682215 0.000905675 0.000443208)
(0.000514582 0.00101038 0.000443208)
(0.000331313 0.00108439 0.000443208)
(0.000137978 0.00112545 0.000443208)
(-5.95498e-05 0.00113231 0.000443208)
(-0.000255268 0.00110476 0.000443208)
(-0.000443231 0.00104365 0.000443208)
(-0.000617725 0.000950831 0.000443208)
(-0.000773451 0.000829119 0.000443208)
(-0.000905675 0.000682215 0.000443208)
(-0.00101038 0.000514582 0.000443208)
(-0.00108439 0.000331313 0.000443208)
(-0.00112545 0.000137978 0.000443208)
(-0.00113231 -5.95498e-05 0.000443208)
(-0.00110476 -0.000255268 0.000443208)
(-0.00104365 -0.000443231 0.000443208)
(-0.000950831 -0.000617725 0.000443208)
(-0.000829119 -0.000773451 0.000443208)
(-0.000682215 -0.000905675 0.000443208)
(-0.000514582 -0.00101038 0.000443208)
(-0.000331313 -0.00108439 0.000443208)
(-0.000137978 -0.00112545 0.000443208)
(5.95498e-05 -0.00113231 0.000443208)
(0.000212486 -0.00100045 0.000445144)
(0.000382984 -0.000948349 0.000445144)
(0.000541844 -0.000867437 0.000445144)
(0.000684241 -0.000760169 0.000445144)
(0.000805848 -0.000629803 0.000445144)
(0.000902969 -0.000480301 0.000445144)
(0.000972654 -0.000316205 0.000445144)
(0.00101279 -0.000142501 0.000445144)
(0.00102214 3.55322e-05 0.000445144)
(0.00100045 0.000212486 0.000445144)
(0.000948349 0.000382984 0.000445144)
(0.000867437 0.000541844 0.000445144)
(0.000760169 0.000684241 0.000445144)
(0.000629803 0.000805848 0.000445144)
(0.000480301 0.000902969 0.000445144)
(0.000316205 0.000972654 0.000445144)
(0.000142501 0.00101279 0.000445144)
(-3.55322e-05 0.00102214 0.000445144)
(-0.000212486 0.00100045 0.000445144)
(-0.000382984 0.000948349 0.000445144)
(-0.000541844 0.000867437 0.000445144)
(-0.000684241 0.000760169 0.000445144)
(-0.000805848 0.000629803 0.000445144)
(-0.000902969 0.000480301 0.000445144)
(-0.000972654 0.000316205 0.000445144)
(-0.00101279 0.000142501 0.000445144)
(-0.00102214 -3.55322e-05 0.000445144)
(-0.00100045 -0.000212486 0.000445144)
(-0.000948349 -0.000382984 0.000445144)
(-0.000867437 -0.000541844 0.000445144)
(-0.000760169 -0.000684241 0.000445144)
(-0.000629803 -0.000805848 0.000445144)
(-0.000480301 -0.000902969 0.000445144)
(-0.000316205 -0.000972654 0.000445144)
(-0.000142501 -0.00101279 0.000445144)
(3.55322e-05 -0.00102214 0.000445144)
(0.000295961 -0.00138069 0.000564877)
(0.00053122 -0.00130832 0.000564877)
(0.000750338 -0.0011962 0.000564877)
(0.000946657 -0.00104773 0.000564877)
(0.00111421 -0.000867432 0.000564876)
(0.00124791 -0.000660773 0.000564877)
(0.0013437 -0.000434037 0.000564877)
(0.00139865 -0.000194112 0.000564877)
(0.00141111 5.17105e-05 0.000564877)
(0.00138069 0.000295961 0.000564877)
(0.00130832 0.00053122 0.000564877)
(0.0011962 0.000750338 0.000564877)
(0.00104773 0.000946657 0.000564877)
(0.000867432 0.00111421 0.000564876)
(0.000660773 0.00124791 0.000564877)
(0.000434037 0.0013437 0.000564877)
(0.000194112 0.00139865 0.000564877)
(-5.17105e-05 0.00141111 0.000564877)
(-0.000295961 0.00138069 0.000564877)
(-0.00053122 0.00130832 0.000564877)
(-0.000750338 0.0011962 0.000564877)
(-0.000946657 0.00104773 0.000564877)
(-0.00111421 0.000867432 0.000564876)
(-0.00124791 0.000660773 0.000564877)
(-0.0013437 0.000434037 0.000564877)
(-0.00139865 0.000194112 0.000564877)
(-0.00141111 -5.17105e-05 0.000564877)
(-0.00138069 -0.000295961 0.000564877)
(-0.00130832 -0.00053122 0.000564877)
(-0.0011962 -0.000750338 0.000564877)
(-0.00104773 -0.000946657 0.000564877)
(-0.000867432 -0.00111421 0.000564876)
(-0.000660773 -0.00124791 0.000564877)
(-0.000434037 -0.0013437 0.000564877)
(-0.000194112 -0.00139865 0.000564877)
(5.17105e-05 -0.00141111 0.000564877)
(0.000255195 -0.00125102 0.000564792)
(0.000468556 -0.0011877 0.000564792)
(0.00066768 -0.00108829 0.000564792)
(0.000846516 -0.000955818 0.000564792)
(0.000999632 -0.000794301 0.000564792)
(0.00112237 -0.00060865 0.000564792)
(0.00121101 -0.000404505 0.000564792)
(0.00126286 -0.000188069 0.000564792)
(0.00127633 3.40812e-05 0.000564792)
(0.00125102 0.000255195 0.000564792)
(0.0011877 0.000468556 0.000564792)
(0.00108829 0.00066768 0.000564792)
(0.000955818 0.000846516 0.000564792)
(0.000794301 0.000999632 0.000564792)
(0.00060865 0.00112237 0.000564792)
(0.000404505 0.00121101 0.000564792)
(0.000188069 0.00126286 0.000564792)
(-3.40812e-05 0.00127633 0.000564792)
(-0.000255195 0.00125102 0.000564792)
(-0.000468556 0.0011877 0.000564792)
(-0.00066768 0.00108829 0.000564792)
(-0.000846516 0.000955818 0.000564792)
(-0.000999632 0.000794301 0.000564792)
(-0.00112237 0.00060865 0.000564792)
(-0.00121101 0.000404505 0.000564792)
(-0.00126286 0.000188069 0.000564792)
(-0.00127633 -3.40812e-05 0.000564792)
(-0.00125102 -0.000255195 0.000564792)
(-0.0011877 -0.000468556 0.000564792)
(-0.00108829 -0.00066768 0.000564792)
(-0.000955818 -0.000846516 0.000564792)
(-0.000794301 -0.000999632 0.000564792)
(-0.00060865 -0.00112237 0.000564792)
(-0.000404505 -0.00121101 0.000564792)
(-0.000188069 -0.00126286 0.000564792)
(3.40812e-05 -0.00127633 0.000564792)
(0.000212243 -0.0011214 0.000563585)
(0.000403748 -0.00106751 0.000563585)
(0.000582986 -0.000981182 0.000563585)
(0.000744509 -0.000865041 0.000563585)
(0.000883411 -0.000722616 0.000563585)
(0.000995471 -0.000558236 0.000563585)
(0.00107728 -0.000376893 0.000563585)
(0.00112636 -0.000184099 0.000563585)
(0.00114122 1.42892e-05 0.000563585)
(0.0011214 0.000212243 0.000563585)
(0.00106751 0.000403748 0.000563585)
(0.000981182 0.000582986 0.000563585)
(0.000865041 0.000744509 0.000563585)
(0.000722616 0.000883411 0.000563585)
(0.000558236 0.000995471 0.000563585)
(0.000376893 0.00107728 0.000563585)
(0.000184099 0.00112636 0.000563585)
(-1.42892e-05 0.00114122 0.000563585)
(-0.000212243 0.0011214 0.000563585)
(-0.000403748 0.00106751 0.000563585)
(-0.000582986 0.000981182 0.000563585)
(-0.000744509 0.000865041 0.000563585)
(-0.000883411 0.000722616 0.000563585)
(-0.000995471 0.000558236 0.000563585)
(-0.00107728 0.000376893 0.000563585)
(-0.00112636 0.000184099 0.000563585)
(-0.00114122 -1.42892e-05 0.000563585)
(-0.0011214 -0.000212243 0.000563585)
(-0.00106751 -0.000403748 0.000563585)
(-0.000981182 -0.000582986 0.000563585)
(-0.000865041 -0.000744509 0.000563585)
(-0.000722616 -0.000883411 0.000563585)
(-0.000558236 -0.000995471 0.000563585)
(-0.000376893 -0.00107728 0.000563585)
(-0.000184099 -0.00112636 0.000563585)