/*--------------------------------*- C++ -*----------------------------------*\
| =========                 |                                                 |
| \\      /  F ield         | OpenFOAM: The Open Source CFD Toolbox           |
|  \\    /   O peration     | Version:  2312                                  |
|   \\  /    A nd           | Website:  www.openfoam.com                      |
|    \\/     M anipulation  |                                                 |
\*---------------------------------------------------------------------------*/
FoamFile
{
    version     2.0;
    format      ascii;
    arch        "LSB;label=32;scalar=64";
    class       volVectorField;
    location    "0.1";
    object      D_0_0;
}
// * * * * * * * * * * * * * * * * * * * * * * * * * * * * * * * * * * * * * //

dimensions      [0 1 0 0 0 0 0];

internalField   nonuniform List<vector> 
1620
(
(4.91044e-05 -0.000104284 1.62079e-05)
(6.64671e-05 -9.41729e-05 1.62079e-05)
(8.18103e-05 -8.12003e-05 1.62079e-05)
(9.46678e-05 -6.57606e-05 1.6208e-05)
(0.000104649 -4.83226e-05 1.6208e-05)
(0.00011145 -2.94164e-05 1.6208e-05)
(0.000114865 -9.61637e-06 1.62079e-05)
(0.00011479 1.04757e-05 1.62079e-05)
(0.000111227 3.02496e-05 1.62079e-05)
(0.000104284 4.91044e-05 1.62079e-05)
(9.41729e-05 6.64671e-05 1.62079e-05)
(8.12003e-05 8.18103e-05 1.62079e-05)
(6.57606e-05 9.46678e-05 1.6208e-05)
(4.83226e-05 0.000104649 1.6208e-05)
(2.94164e-05 0.00011145 1.6208e-05)
(9.61637e-06 0.000114865 1.62079e-05)
(-1.04757e-05 0.00011479 1.62079e-05)
(-3.02496e-05 0.000111227 1.62079e-05)
(-4.91044e-05 0.000104284 1.62079e-05)
(-6.64671e-05 9.41729e-05 1.62079e-05)
(-8.18103e-05 8.12003e-05 1.62079e-05)
(-9.46678e-05 6.57606e-05 1.6208e-05)
(-0.000104649 4.83226e-05 1.6208e-05)
(-0.00011145 2.94164e-05 1.6208e-05)
(-0.000114865 9.61637e-06 1.62079e-05)
(-0.00011479 -1.04757e-05 1.62079e-05)
(-0.000111227 -3.02496e-05 1.62079e-05)
(-0.000104284 -4.91044e-05 1.62079e-05)
(-9.41729e-05 -6.64671e-05 1.62079e-05)
(-8.12003e-05 -8.18103e-05 1.62079e-05)
(-6.57606e-05 -9.46678e-05 1.6208e-05)
(-4.83226e-05 -0.000104649 1.6208e-05)
(-2.94164e-05 -0.00011145 1.6208e-05)
(-9.61637e-06 -0.000114865 1.62079e-05)
(1.04757e-05 -0.00011479 1.62079e-05)
(3.02496e-05 -0.000111227 1.62079e-05)
(3.44192e-05 -9.83455e-05 1.56688e-05)
(5.09738e-05 -9.08746e-05 1.56688e-05)
(6.59795e-05 -8.06424e-05 1.56688e-05)
(7.89806e-05 -6.79601e-05 1.56688e-05)
(8.9582e-05 -5.32128e-05 1.56689e-05)
(9.74612e-05 -3.68486e-05 1.56688e-05)
(0.000102379 -1.93648e-05 1.56688e-05)
(0.000104187 -1.2927e-06 1.56688e-05)
(0.000102828 1.68188e-05 1.56688e-05)
(9.83455e-05 3.44192e-05 1.56688e-05)
(9.08746e-05 5.09738e-05 1.56688e-05)
(8.06424e-05 6.59795e-05 1.56688e-05)
(6.79601e-05 7.89806e-05 1.56688e-05)
(5.32128e-05 8.9582e-05 1.56689e-05)
(3.68486e-05 9.74612e-05 1.56688e-05)
(1.93648e-05 0.000102379 1.56688e-05)
(1.2927e-06 0.000104187 1.56688e-05)
(-1.68188e-05 0.000102828 1.56688e-05)
(-3.44192e-05 9.83455e-05 1.56688e-05)
(-5.09738e-05 9.08746e-05 1.56688e-05)
(-6.59795e-05 8.06424e-05 1.56688e-05)
(-7.89806e-05 6.79601e-05 1.56688e-05)
(-8.9582e-05 5.32128e-05 1.56689e-05)
(-9.74612e-05 3.68486e-05 1.56688e-05)
(-0.000102379 1.93648e-05 1.56688e-05)
(-0.000104187 1.2927e-06 1.56688e-05)
(-0.000102828 -1.68188e-05 1.56688e-05)
(-9.83455e-05 -3.44192e-05 1.56688e-05)
(-9.08746e-05 -5.09738e-05 1.56688e-05)
(-8.06424e-05 -6.59795e-05 1.56688e-05)
(-6.79601e-05 -7.89806e-05 1.56688e-05)
(-5.32128e-05 -8.9582e-05 1.56689e-05)
(-3.68486e-05 -9.74612e-05 1.56688e-05)
(-1.93648e-05 -0.000102379 1.56688e-05)
(-1.2927e-06 -0.000104187 1.56688e-05)
(1.68188e-05 -0.000102828 1.56688e-05)
(1.72314e-05 -9.25849e-05 1.45322e-05)
(3.30469e-05 -8.81862e-05 1.45322e-05)
(4.78582e-05 -8.1108e-05 1.45322e-05)
(6.12153e-05 -7.15652e-05 1.45322e-05)
(7.27127e-05 -5.98481e-05 1.45322e-05)
(8.20003e-05 -4.63124e-05 1.45322e-05)
(8.87968e-05 -3.13696e-05 1.45322e-05)
(9.2895e-05 -1.54736e-05 1.45322e-05)
(9.41706e-05 8.92479e-07 1.45322e-05)
(9.25849e-05 1.72314e-05 1.45322e-05)
(8.81862e-05 3.30469e-05 1.45322e-05)
(8.1108e-05 4.78582e-05 1.45322e-05)
(7.15652e-05 6.12153e-05 1.45322e-05)
(5.98481e-05 7.27127e-05 1.45322e-05)
(4.63124e-05 8.20003e-05 1.45322e-05)
(3.13696e-05 8.87968e-05 1.45322e-05)
(1.54736e-05 9.2895e-05 1.45322e-05)
(-8.92479e-07 9.41706e-05 1.45322e-05)
(-1.72314e-05 9.25849e-05 1.45322e-05)
(-3.30469e-05 8.81862e-05 1.45322e-05)
(-4.78582e-05 8.1108e-05 1.45322e-05)
(-6.12153e-05 7.15652e-05 1.45322e-05)
(-7.27127e-05 5.98481e-05 1.45322e-05)
(-8.20003e-05 4.63124e-05 1.45322e-05)
(-8.87968e-05 3.13696e-05 1.45322e-05)
(-9.2895e-05 1.54736e-05 1.45322e-05)
(-9.41706e-05 -8.92479e-07 1.45322e-05)
(-9.25849e-05 -1.72314e-05 1.45322e-05)
(-8.81862e-05 -3.30469e-05 1.45322e-05)
(-8.1108e-05 -4.78582e-05 1.45322e-05)
(-7.15652e-05 -6.12153e-05 1.45322e-05)
(-5.98481e-05 -7.27127e-05 1.45322e-05)
(-4.63124e-05 -8.20003e-05 1.45322e-05)
(-3.13696e-05 -8.87968e-05 1.45322e-05)
(-1.54736e-05 -9.2895e-05 1.45322e-05)
(8.92479e-07 -9.41706e-05 1.45322e-05)
(0.000117106 -0.00031312 5.77154e-05)
(0.000169699 -0.000288028 5.77155e-05)
(0.000217137 -0.000254184 5.77156e-05)
(0.000257976 -0.000212617 5.77156e-05)
(0.000290978 -0.00016459 5.77157e-05)
(0.000315138 -0.000111561 5.77156e-05)
(0.000329723 -5.51435e-05 5.77155e-05)
(0.000334289 2.94993e-06 5.77154e-05)
(0.000328698 6.09537e-05 5.77154e-05)
(0.00031312 0.000117106 5.77154e-05)
(0.000288028 0.000169699 5.77155e-05)
(0.000254184 0.000217137 5.77156e-05)
(0.000212617 0.000257976 5.77156e-05)
(0.00016459 0.000290978 5.77157e-05)
(0.000111561 0.000315138 5.77156e-05)
(5.51435e-05 0.000329723 5.77155e-05)
(-2.94993e-06 0.000334289 5.77154e-05)
(-6.09537e-05 0.000328698 5.77154e-05)
(-0.000117106 0.00031312 5.77154e-05)
(-0.000169699 0.000288028 5.77155e-05)
(-0.000217137 0.000254184 5.77156e-05)
(-0.000257976 0.000212617 5.77156e-05)
(-0.000290978 0.00016459 5.77157e-05)
(-0.000315138 0.000111561 5.77156e-05)
(-0.000329723 5.51435e-05 5.77155e-05)
(-0.000334289 -2.94993e-06 5.77154e-05)
(-0.000328698 -6.09537e-05 5.77154e-05)
(-0.00031312 -0.000117106 5.77154e-05)
(-0.000288028 -0.000169699 5.77155e-05)
(-0.000254184 -0.000217137 5.77156e-05)
(-0.000212617 -0.000257976 5.77156e-05)
(-0.00016459 -0.000290978 5.77157e-05)
(-0.000111561 -0.000315138 5.77156e-05)
(-5.51435e-05 -0.000329723 5.77155e-05)
(2.94993e-06 -0.000334289 5.77154e-05)
(6.09537e-05 -0.000328698 5.77154e-05)
(9.71857e-05 -0.000292726 5.943e-05)
(0.000146541 -0.000271403 5.943e-05)
(0.000191443 -0.000241833 5.94301e-05)
(0.000230529 -0.000204916 5.94302e-05)
(0.00026261 -0.000161771 5.94302e-05)
(0.000286711 -0.000113712 5.94302e-05)
(0.000302101 -6.21977e-05 5.94301e-05)
(0.000308312 -8.79343e-06 5.943e-05)
(0.000305155 4.48779e-05 5.943e-05)
(0.000292726 9.71857e-05 5.943e-05)
(0.000271403 0.000146541 5.943e-05)
(0.000241833 0.000191443 5.94301e-05)
(0.000204916 0.000230529 5.94302e-05)
(0.000161771 0.00026261 5.94302e-05)
(0.000113712 0.000286711 5.94302e-05)
(6.21977e-05 0.000302101 5.94301e-05)
(8.79343e-06 0.000308312 5.943e-05)
(-4.48779e-05 0.000305155 5.943e-05)
(-9.71857e-05 0.000292726 5.943e-05)
(-0.000146541 0.000271403 5.943e-05)
(-0.000191443 0.000241833 5.94301e-05)
(-0.000230529 0.000204916 5.94302e-05)
(-0.00026261 0.000161771 5.94302e-05)
(-0.000286711 0.000113712 5.94302e-05)
(-0.000302101 6.21977e-05 5.94301e-05)
(-0.000308312 8.79343e-06 5.943e-05)
(-0.000305155 -4.48779e-05 5.943e-05)
(-0.000292726 -9.71857e-05 5.943e-05)
(-0.000271403 -0.000146541 5.943e-05)
(-0.000241833 -0.000191443 5.94301e-05)
(-0.000204916 -0.000230529 5.94302e-05)
(-0.000161771 -0.00026261 5.94302e-05)
(-0.000113712 -0.000286711 5.94302e-05)
(-6.21977e-05 -0.000302101 5.94301e-05)
(-8.79343e-06 -0.000308312 5.943e-05)
(4.48779e-05 -0.000305155 5.943e-05)
(7.452e-05 -0.000272297 6.04042e-05)
(0.000120672 -0.00025522 6.04041e-05)
(0.000163157 -0.000230388 6.04042e-05)
(0.000200685 -0.000198556 6.04042e-05)
(0.000232115 -0.000160691 6.04042e-05)
(0.000256492 -0.000117944 6.04042e-05)
(0.000273076 -7.16124e-05 6.04042e-05)
(0.000281363 -2.31054e-05 6.04042e-05)
(0.000281101 2.61038e-05 6.04042e-05)
(0.000272297 7.452e-05 6.04042e-05)
(0.00025522 0.000120672 6.04041e-05)
(0.000230388 0.000163157 6.04042e-05)
(0.000198556 0.000200685 6.04042e-05)
(0.000160691 0.000232115 6.04042e-05)
(0.000117944 0.000256492 6.04042e-05)
(7.16124e-05 0.000273076 6.04042e-05)
(2.31054e-05 0.000281363 6.04042e-05)
(-2.61038e-05 0.000281101 6.04042e-05)
(-7.452e-05 0.000272297 6.04042e-05)
(-0.000120672 0.00025522 6.04041e-05)
(-0.000163157 0.000230388 6.04042e-05)
(-0.000200685 0.000198556 6.04042e-05)
(-0.000232115 0.000160691 6.04042e-05)
(-0.000256492 0.000117944 6.04042e-05)
(-0.000273076 7.16124e-05 6.04042e-05)
(-0.000281363 2.31054e-05 6.04042e-05)
(-0.000281101 -2.61038e-05 6.04042e-05)
(-0.000272297 -7.452e-05 6.04042e-05)
(-0.00025522 -0.000120672 6.04041e-05)
(-0.000230388 -0.000163157 6.04042e-05)
(-0.000198556 -0.000200685 6.04042e-05)
(-0.000160691 -0.000232115 6.04042e-05)
(-0.000117944 -0.000256492 6.04042e-05)
(-7.16124e-05 -0.000273076 6.04042e-05)
(-2.31054e-05 -0.000281363 6.04042e-05)
(2.61038e-05 -0.000281101 6.04042e-05)
(0.000177791 -0.000518218 0.0001211)
(0.000265078 -0.000479472 0.000121101)
(0.00034431 -0.000426157 0.000121101)
(0.000413081 -0.000359894 0.000121101)
(0.0004693 -0.000282696 0.000121101)
(0.00051126 -0.000196908 0.000121101)
(0.000537686 -0.000105137 0.000121101)
(0.000547774 -1.01719e-05 0.0001211)
(0.000541218 8.51026e-05 0.0001211)
(0.000518218 0.000177791 0.0001211)
(0.000479472 0.000265078 0.000121101)
(0.000426157 0.00034431 0.000121101)
(0.000359894 0.000413081 0.000121101)
(0.000282696 0.0004693 0.000121101)
(0.000196908 0.00051126 0.000121101)
(0.000105137 0.000537686 0.000121101)
(1.01719e-05 0.000547774 0.0001211)
(-8.51026e-05 0.000541218 0.0001211)
(-0.000177791 0.000518218 0.0001211)
(-0.000265078 0.000479472 0.000121101)
(-0.00034431 0.000426157 0.000121101)
(-0.000413081 0.000359894 0.000121101)
(-0.0004693 0.000282696 0.000121101)
(-0.00051126 0.000196908 0.000121101)
(-0.000537686 0.000105137 0.000121101)
(-0.000547774 1.01719e-05 0.0001211)
(-0.000541218 -8.51026e-05 0.0001211)
(-0.000518218 -0.000177791 0.0001211)
(-0.000479472 -0.000265078 0.000121101)
(-0.000426157 -0.00034431 0.000121101)
(-0.000359894 -0.000413081 0.000121101)
(-0.000282696 -0.0004693 0.000121101)
(-0.000196908 -0.00051126 0.000121101)
(-0.000105137 -0.000537686 0.000121101)
(-1.01719e-05 -0.000547774 0.0001211)
(8.51026e-05 -0.000541218 0.0001211)
(0.000151669 -0.000481752 0.000124347)
(0.00023302 -0.000448096 0.000124347)
(0.000307291 -0.000400825 0.000124347)
(0.000372225 -0.000341375 0.000124347)
(0.000425849 -0.000271552 0.000124347)
(0.000466534 -0.000193479 0.000124347)
(0.000493044 -0.000109527 0.000124347)
(0.000504573 -2.22467e-05 0.000124347)
(0.00050077 6.57093e-05 0.000124347)
(0.000481752 0.000151669 0.000124347)
(0.000448096 0.00023302 0.000124347)
(0.000400825 0.000307291 0.000124347)
(0.000341375 0.000372225 0.000124347)
(0.000271552 0.000425849 0.000124347)
(0.000193479 0.000466534 0.000124347)
(0.000109527 0.000493044 0.000124347)
(2.22467e-05 0.000504573 0.000124347)
(-6.57093e-05 0.00050077 0.000124347)
(-0.000151669 0.000481752 0.000124347)
(-0.00023302 0.000448096 0.000124347)
(-0.000307291 0.000400825 0.000124347)
(-0.000372225 0.000341375 0.000124347)
(-0.000425849 0.000271552 0.000124347)
(-0.000466534 0.000193479 0.000124347)
(-0.000493044 0.000109527 0.000124347)
(-0.000504573 2.22467e-05 0.000124347)
(-0.00050077 -6.57093e-05 0.000124347)
(-0.000481752 -0.000151669 0.000124347)
(-0.000448096 -0.00023302 0.000124347)
(-0.000400825 -0.000307291 0.000124347)
(-0.000341375 -0.000372225 0.000124347)
(-0.000271552 -0.000425849 0.000124347)
(-0.000193479 -0.000466534 0.000124347)
(-0.000109527 -0.000493044 0.000124347)
(-2.22467e-05 -0.000504573 0.000124347)
(6.57093e-05 -0.00050077 0.000124347)
(0.000122862 -0.000444927 0.000126845)
(0.000198257 -0.000416833 0.000126845)
(0.000267627 -0.000376074 0.000126845)
(0.000328866 -0.000323887 0.000126845)
(0.000380112 -0.00026186 0.000126845)
(0.000419809 -0.000191876 0.000126845)
(0.00044675 -0.000116062 0.000126845)
(0.000460116 -3.67213e-05 0.000126845)
(0.000459503 4.37349e-05 0.000126845)
(0.000444927 0.000122862 0.000126845)
(0.000416833 0.000198257 0.000126845)
(0.000376074 0.000267627 0.000126845)
(0.000323887 0.000328866 0.000126845)
(0.00026186 0.000380112 0.000126845)
(0.000191876 0.000419809 0.000126845)
(0.000116062 0.00044675 0.000126845)
(3.67213e-05 0.000460116 0.000126845)
(-4.37349e-05 0.000459503 0.000126845)
(-0.000122862 0.000444927 0.000126845)
(-0.000198257 0.000416833 0.000126845)
(-0.000267627 0.000376074 0.000126845)
(-0.000328866 0.000323887 0.000126845)
(-0.000380112 0.00026186 0.000126845)
(-0.000419809 0.000191876 0.000126845)
(-0.00044675 0.000116062 0.000126845)
(-0.000460116 3.67213e-05 0.000126845)
(-0.000459503 -4.37349e-05 0.000126845)
(-0.000444927 -0.000122862 0.000126845)
(-0.000416833 -0.000198257 0.000126845)
(-0.000376074 -0.000267627 0.000126845)
(-0.000323887 -0.000328866 0.000126845)
(-0.00026186 -0.000380112 0.000126845)
(-0.000191876 -0.000419809 0.000126845)
(-0.000116062 -0.00044675 0.000126845)
(-3.67213e-05 -0.000460116 0.000126845)
(4.37349e-05 -0.000459503 0.000126845)
(0.000224955 -0.000716727 0.000200664)
(0.000345996 -0.000666775 0.000200664)
(0.000456523 -0.000596564 0.000200664)
(0.00055318 -0.000508226 0.000200665)
(0.000633029 -0.000404447 0.000200665)
(0.000693643 -0.000288378 0.000200664)
(0.000733181 -0.000163547 0.000200664)
(0.000750442 -3.37466e-05 0.000200664)
(0.000744901 9.7079e-05 0.000200664)
(0.000716727 0.000224955 0.000200664)
(0.000666775 0.000345996 0.000200664)
(0.000596564 0.000456523 0.000200664)
(0.000508226 0.00055318 0.000200665)
(0.000404447 0.000633029 0.000200665)
(0.000288378 0.000693643 0.000200664)
(0.000163547 0.000733181 0.000200664)
(3.37466e-05 0.000750442 0.000200664)
(-9.7079e-05 0.000744901 0.000200664)
(-0.000224955 0.000716727 0.000200664)
(-0.000345996 0.000666775 0.000200664)
(-0.000456523 0.000596564 0.000200664)
(-0.00055318 0.000508226 0.000200665)
(-0.000633029 0.000404447 0.000200665)
(-0.000693643 0.000288378 0.000200664)
(-0.000733181 0.000163547 0.000200664)
(-0.000750442 3.37466e-05 0.000200664)
(-0.000744901 -9.7079e-05 0.000200664)
(-0.000716727 -0.000224955 0.000200664)
(-0.000666775 -0.000345996 0.000200664)
(-0.000596564 -0.000456523 0.000200664)
(-0.000508226 -0.00055318 0.000200665)
(-0.000404447 -0.000633029 0.000200665)
(-0.000288378 -0.000693643 0.000200664)
(-0.000163547 -0.000733181 0.000200664)
(-3.37466e-05 -0.000750442 0.000200664)
(9.7079e-05 -0.000744901 0.000200664)
(0.000194103 -0.000662067 0.000204583)
(0.000306121 -0.000618303 0.000204583)
(0.000408837 -0.000555752 0.000204583)
(0.000499131 -0.000476315 0.000204583)
(0.00057426 -0.000382406 0.000204583)
(0.000631939 -0.000276877 0.000204583)
(0.000670418 -0.000162936 0.000204583)
(0.000688526 -4.40434e-05 0.000204583)
(0.000685714 7.61871e-05 0.000204583)
(0.000662067 0.000194103 0.000204583)
(0.000618303 0.000306121 0.000204583)
(0.000555752 0.000408837 0.000204583)
(0.000476315 0.000499131 0.000204583)
(0.000382406 0.00057426 0.000204583)
(0.000276877 0.000631939 0.000204583)
(0.000162936 0.000670418 0.000204583)
(4.40434e-05 0.000688526 0.000204583)
(-7.61871e-05 0.000685714 0.000204583)
(-0.000194103 0.000662067 0.000204583)
(-0.000306121 0.000618303 0.000204583)
(-0.000408837 0.000555752 0.000204583)
(-0.000499131 0.000476315 0.000204583)
(-0.00057426 0.000382406 0.000204583)
(-0.000631939 0.000276877 0.000204583)
(-0.000670418 0.000162936 0.000204583)
(-0.000688526 4.40434e-05 0.000204583)
(-0.000685714 -7.61871e-05 0.000204583)
(-0.000662067 -0.000194103 0.000204583)
(-0.000618303 -0.000306121 0.000204583)
(-0.000555752 -0.000408837 0.000204583)
(-0.000476315 -0.000499131 0.000204583)
(-0.000382406 -0.00057426 0.000204583)
(-0.000276877 -0.000631939 0.000204583)
(-0.000162936 -0.000670418 0.000204583)
(-4.40434e-05 -0.000688526 0.000204583)
(7.61871e-05 -0.000685714 0.000204583)
(0.000160703 -0.000606969 0.000207698)
(0.000263661 -0.000569842 0.000207698)
(0.000358607 -0.0005154 0.000207698)
(0.000442657 -0.000445299 0.000207698)
(0.000513258 -0.000361667 0.000207698)
(0.000568263 -0.000267046 0.000207698)
(0.000606002 -0.000164311 0.000207698)
(0.000625328 -5.65841e-05 0.000207698)
(0.000625653 5.28626e-05 0.000207698)
(0.000606969 0.000160703 0.000207698)
(0.000569842 0.000263661 0.000207698)
(0.0005154 0.000358607 0.000207698)
(0.000445299 0.000442657 0.000207698)
(0.000361667 0.000513258 0.000207698)
(0.000267046 0.000568263 0.000207698)
(0.000164311 0.000606002 0.000207698)
(5.65841e-05 0.000625328 0.000207698)
(-5.28626e-05 0.000625653 0.000207698)
(-0.000160703 0.000606969 0.000207698)
(-0.000263661 0.000569842 0.000207698)
(-0.000358607 0.0005154 0.000207698)
(-0.000442657 0.000445299 0.000207698)
(-0.000513258 0.000361667 0.000207698)
(-0.000568263 0.000267046 0.000207698)
(-0.000606002 0.000164311 0.000207698)
(-0.000625328 5.65841e-05 0.000207698)
(-0.000625653 -5.28626e-05 0.000207698)
(-0.000606969 -0.000160703 0.000207698)
(-0.000569842 -0.000263661 0.000207698)
(-0.0005154 -0.000358607 0.000207698)
(-0.000445299 -0.000442657 0.000207698)
(-0.000361667 -0.000513258 0.000207698)
(-0.000267046 -0.000568263 0.000207698)
(-0.000164311 -0.000606002 0.000207698)
(-5.65841e-05 -0.000625328 0.000207698)
(5.28626e-05 -0.000625653 0.000207698)
(0.000256857 -0.000905048 0.000293119)
(0.000410114 -0.000846696 0.000293119)
(0.000550911 -0.000762617 0.000293119)
(0.000674968 -0.000655366 0.000293119)
(0.000778517 -0.000528203 0.000293119)
(0.000858411 -0.00038499 0.000293119)
(0.000912223 -0.00023008 0.000293119)
(0.000938317 -6.81784e-05 0.000293119)
(0.000935901 9.57943e-05 0.000293119)
(0.000905048 0.000256857 0.000293119)
(0.000846696 0.000410114 0.000293119)
(0.000762617 0.000550911 0.000293119)
(0.000655366 0.000674968 0.000293119)
(0.000528203 0.000778517 0.000293119)
(0.00038499 0.000858411 0.000293119)
(0.00023008 0.000912223 0.000293119)
(6.81784e-05 0.000938317 0.000293119)
(-9.57943e-05 0.000935901 0.000293119)
(-0.000256857 0.000905048 0.000293119)
(-0.000410114 0.000846696 0.000293119)
(-0.000550911 0.000762617 0.000293119)
(-0.000674968 0.000655366 0.000293119)
(-0.000778517 0.000528203 0.000293119)
(-0.000858411 0.00038499 0.000293119)
(-0.000912223 0.00023008 0.000293119)
(-0.000938317 6.81784e-05 0.000293119)
(-0.000935901 -9.57943e-05 0.000293119)
(-0.000905048 -0.000256857 0.000293119)
(-0.000846696 -0.000410114 0.000293119)
(-0.000762617 -0.000550911 0.000293119)
(-0.000655366 -0.000674968 0.000293119)
(-0.000528203 -0.000778517 0.000293119)
(-0.00038499 -0.000858411 0.000293119)
(-0.00023008 -0.000912223 0.000293119)
(-6.81784e-05 -0.000938317 0.000293119)
(9.57943e-05 -0.000935901 0.000293119)
(0.000222737 -0.000830203 0.000296742)
(0.000363516 -0.000778912 0.000296742)
(0.00049325 -0.000703955 0.000296742)
(0.000607997 -0.000607608 0.000296742)
(0.00070427 -0.0004928 0.000296742)
(0.000779145 -0.000363018 0.000296742)
(0.000830345 -0.000222206 0.000296742)
(0.000856316 -7.4642e-05 0.000296742)
(0.000856268 7.51898e-05 0.000296742)
(0.000830203 0.000222737 0.000296742)
(0.000778912 0.000363516 0.000296742)
(0.000703955 0.00049325 0.000296742)
(0.000607608 0.000607997 0.000296742)
(0.0004928 0.00070427 0.000296742)
(0.000363018 0.000779145 0.000296742)
(0.000222206 0.000830345 0.000296742)
(7.4642e-05 0.000856316 0.000296742)
(-7.51898e-05 0.000856268 0.000296742)
(-0.000222737 0.000830203 0.000296742)
(-0.000363516 0.000778912 0.000296742)
(-0.00049325 0.000703955 0.000296742)
(-0.000607997 0.000607608 0.000296742)
(-0.00070427 0.0004928 0.000296742)
(-0.000779145 0.000363018 0.000296742)
(-0.000830345 0.000222206 0.000296742)
(-0.000856316 7.4642e-05 0.000296742)
(-0.000856268 -7.51898e-05 0.000296742)
(-0.000830203 -0.000222737 0.000296742)
(-0.000778912 -0.000363516 0.000296742)
(-0.000703955 -0.00049325 0.000296742)
(-0.000607608 -0.000607997 0.000296742)
(-0.0004928 -0.00070427 0.000296742)
(-0.000363018 -0.000779145 0.000296742)
(-0.000222206 -0.000830345 0.000296742)
(-7.4642e-05 -0.000856316 0.000296742)
(7.51898e-05 -0.000856268 0.000296742)
(0.00018623 -0.000755003 0.000299517)
(0.000314505 -0.000711194 0.000299517)
(0.000433225 -0.000645776 0.000299517)
(0.000538781 -0.000560737 0.000299517)
(0.000627967 -0.00045866 0.000299517)
(0.000698072 -0.000342646 0.000299517)
(0.000746967 -0.000216222 0.000299517)
(0.000773165 -8.32277e-05 0.000299517)
(0.000775871 5.22954e-05 0.000299517)
(0.000755003 0.00018623 0.000299517)
(0.000711194 0.000314505 0.000299517)
(0.000645776 0.000433225 0.000299517)
(0.000560737 0.000538781 0.000299517)
(0.00045866 0.000627967 0.000299517)
(0.000342646 0.000698072 0.000299517)
(0.000216222 0.000746967 0.000299517)
(8.32277e-05 0.000773165 0.000299517)
(-5.22954e-05 0.000775871 0.000299517)
(-0.00018623 0.000755003 0.000299517)
(-0.000314505 0.000711194 0.000299517)
(-0.000433225 0.000645776 0.000299517)
(-0.000538781 0.000560737 0.000299517)
(-0.000627967 0.00045866 0.000299517)
(-0.000698072 0.000342646 0.000299517)
(-0.000746967 0.000216222 0.000299517)
(-0.000773165 8.32277e-05 0.000299517)
(-0.000775871 -5.22954e-05 0.000299517)
(-0.000755003 -0.00018623 0.000299517)
(-0.000711194 -0.000314505 0.000299517)
(-0.000645776 -0.000433225 0.000299517)
(-0.000560737 -0.000538781 0.000299517)
(-0.00045866 -0.000627967 0.000299517)
(-0.000342646 -0.000698072 0.000299517)
(-0.000216222 -0.000746967 0.000299517)
(-8.32277e-05 -0.000773165 0.000299517)
(5.22954e-05 -0.000775871 0.000299517)
(0.000273263 -0.00107909 0.000395928)
(0.000456495 -0.00101525 0.000395928)
(0.000625856 -0.000920556 0.000395928)
(0.0007762 -0.000797892 0.000395928)
(0.00090296 -0.000650984 0.000395928)
(0.00100228 -0.000484297 0.000395928)
(0.00107116 -0.000302895 0.000395928)
(0.00110748 -0.000112289 0.000395928)
(0.00111015 8.17288e-05 0.000395928)
(0.00107909 0.000273263 0.000395928)
(0.00101525 0.000456495 0.000395928)
(0.000920556 0.000625856 0.000395928)
(0.000797892 0.0007762 0.000395928)
(0.000650984 0.00090296 0.000395928)
(0.000484297 0.00100228 0.000395928)
(0.000302895 0.00107116 0.000395928)
(0.000112289 0.00110748 0.000395928)
(-8.17288e-05 0.00111015 0.000395928)
(-0.000273263 0.00107909 0.000395928)
(-0.000456495 0.00101525 0.000395928)
(-0.000625856 0.000920556 0.000395928)
(-0.0007762 0.000797892 0.000395928)
(-0.00090296 0.000650984 0.000395928)
(-0.00100228 0.000484297 0.000395928)
(-0.00107116 0.000302895 0.000395928)
(-0.00110748 0.000112289 0.000395928)
(-0.00111015 -8.17288e-05 0.000395928)
(-0.00107909 -0.000273263 0.000395928)
(-0.00101525 -0.000456495 0.000395928)
(-0.000920556 -0.000625856 0.000395928)
(-0.000797892 -0.0007762 0.000395928)
(-0.000650984 -0.00090296 0.000395928)
(-0.000484297 -0.00100228 0.000395928)
(-0.000302895 -0.00107116 0.000395928)
(-0.000112289 -0.00110748 0.000395928)
(8.17288e-05 -0.00111015 0.000395928)
(0.000237274 -0.000982331 0.000398148)
(0.000404249 -0.000926205 0.000398148)
(0.000558941 -0.000841936 0.000398148)
(0.00069665 -0.000732086 0.000398148)
(0.000813192 -0.000599992 0.000398148)
(0.000905025 -0.000449668 0.000398148)
(0.00096936 -0.000285681 0.000398148)
(0.00100424 -0.000113013 0.000398148)
(0.00100861 6.30888e-05 0.000398148)
(0.000982331 0.000237274 0.000398148)
(0.000926205 0.000404249 0.000398148)
(0.000841936 0.000558941 0.000398148)
(0.000732086 0.00069665 0.000398148)
(0.000599992 0.000813192 0.000398148)
(0.000449668 0.000905025 0.000398148)
(0.000285681 0.00096936 0.000398148)
(0.000113013 0.00100424 0.000398148)
(-6.30888e-05 0.00100861 0.000398148)
(-0.000237274 0.000982331 0.000398148)
(-0.000404249 0.000926205 0.000398148)
(-0.000558941 0.000841936 0.000398148)
(-0.00069665 0.000732086 0.000398148)
(-0.000813192 0.000599992 0.000398148)
(-0.000905025 0.000449668 0.000398148)
(-0.00096936 0.000285681 0.000398148)
(-0.00100424 0.000113013 0.000398148)
(-0.00100861 -6.30888e-05 0.000398148)
(-0.000982331 -0.000237274 0.000398148)
(-0.000926205 -0.000404249 0.000398148)
(-0.000841936 -0.000558941 0.000398148)
(-0.000732086 -0.00069665 0.000398148)
(-0.000599992 -0.000813192 0.000398148)
(-0.000449668 -0.000905025 0.000398148)
(-0.000285681 -0.00096936 0.000398148)
(-0.000113013 -0.00100424 0.000398148)
(6.30888e-05 -0.00100861 0.000398148)
(0.000199096 -0.0008854 0.000399491)
(0.000349819 -0.000837376 0.000399491)
(0.000489913 -0.000763909 0.000399491)
(0.000615122 -0.000667231 0.000399491)
(0.00072164 -0.00055028 0.000399491)
(0.000806232 -0.000416608 0.000399491)
(0.000866327 -0.000270279 0.000399491)
(0.000900099 -0.000115736 0.000399491)
(0.000906522 4.23226e-05 0.000399491)
(0.0008854 0.000199096 0.000399491)
(0.000837376 0.000349819 0.000399491)
(0.000763909 0.000489913 0.000399491)
(0.000667231 0.000615122 0.000399491)
(0.00055028 0.00072164 0.000399491)
(0.000416608 0.000806232 0.000399491)
(0.000270279 0.000866327 0.000399491)
(0.000115736 0.000900099 0.000399491)
(-4.23226e-05 0.000906522 0.000399491)
(-0.000199096 0.0008854 0.000399491)
(-0.000349819 0.000837376 0.000399491)
(-0.000489913 0.000763909 0.000399491)
(-0.000615122 0.000667231 0.000399491)
(-0.00072164 0.00055028 0.000399491)
(-0.000806232 0.000416608 0.000399491)
(-0.000866327 0.000270279 0.000399491)
(-0.000900099 0.000115736 0.000399491)
(-0.000906522 -4.23226e-05 0.000399491)
(-0.0008854 -0.000199096 0.000399491)
(-0.000837376 -0.000349819 0.000399491)
(-0.000763909 -0.000489913 0.000399491)
(-0.000667231 -0.000615122 0.000399491)
(-0.00055028 -0.00072164 0.000399491)
(-0.000416608 -0.000806232 0.000399491)
(-0.000270279 -0.000866327 0.000399491)
(-0.000115736 -0.000900099 0.000399491)
(4.23226e-05 -0.000906522 0.000399491)
(0.000275087 -0.00123425 0.00050755)
(0.000485233 -0.00116773 0.00050755)
(0.000680635 -0.00106573 0.00050755)
(0.000855357 -0.000931348 0.00050755)
(0.00100409 -0.000768668 0.00050755)
(0.00112231 -0.000582632 0.00050755)
(0.00120643 -0.000378893 0.00050755)
(0.0012539 -0.000163641 0.00050755)
(0.00126327 5.65826e-05 0.00050755)
(0.00123425 0.000275087 0.00050755)
(0.00116773 0.000485233 0.00050755)
(0.00106573 0.000680635 0.00050755)
(0.000931348 0.000855357 0.00050755)
(0.000768668 0.00100409 0.00050755)
(0.000582632 0.00112231 0.00050755)
(0.000378893 0.00120643 0.00050755)
(0.000163641 0.0012539 0.00050755)
(-5.65826e-05 0.00126327 0.00050755)
(-0.000275087 0.00123425 0.00050755)
(-0.000485233 0.00116773 0.00050755)
(-0.000680635 0.00106573 0.00050755)
(-0.000855357 0.000931348 0.00050755)
(-0.00100409 0.000768668 0.00050755)
(-0.00112231 0.000582632 0.00050755)
(-0.00120643 0.000378893 0.00050755)
(-0.0012539 0.000163641 0.00050755)
(-0.00126327 -5.65826e-05 0.00050755)
(-0.00123425 -0.000275087 0.00050755)
(-0.00116773 -0.000485233 0.00050755)
(-0.00106573 -0.000680635 0.00050755)
(-0.000931348 -0.000855357 0.00050755)
(-0.000768668 -0.00100409 0.00050755)
(-0.000582632 -0.00112231 0.00050755)
(-0.000378893 -0.00120643 0.00050755)
(-0.000163641 -0.0012539 0.00050755)
(5.65826e-05 -0.00126327 0.00050755)
(0.000238572 -0.0011141 0.000507103)
(0.00042841 -0.00105575 0.000507102)
(0.000605231 -0.000965319 0.000507102)
(0.000763662 -0.000845556 0.000507102)
(0.000898889 -0.000700102 0.000507102)
(0.0010068 -0.000533375 0.000507102)
(0.00108413 -0.000350442 0.000507102)
(0.00112851 -0.000156861 0.000507102)
(0.00113861 4.1486e-05 0.000507103)
(0.0011141 0.000238572 0.000507103)
(0.00105575 0.00042841 0.000507102)
(0.000965319 0.000605231 0.000507102)
(0.000845556 0.000763662 0.000507102)
(0.000700102 0.000898889 0.000507102)
(0.000533375 0.0010068 0.000507102)
(0.000350442 0.00108413 0.000507102)
(0.000156861 0.00112851 0.000507102)
(-4.1486e-05 0.00113861 0.000507103)
(-0.000238572 0.0011141 0.000507103)
(-0.00042841 0.00105575 0.000507102)
(-0.000605231 0.000965319 0.000507102)
(-0.000763662 0.000845556 0.000507102)
(-0.000898889 0.000700102 0.000507102)
(-0.0010068 0.000533375 0.000507102)
(-0.00108413 0.000350442 0.000507102)
(-0.00112851 0.000156861 0.000507102)
(-0.00113861 -4.1486e-05 0.000507103)
(-0.0011141 -0.000238572 0.000507103)
(-0.00105575 -0.00042841 0.000507102)
(-0.000965319 -0.000605231 0.000507102)
(-0.000845556 -0.000763662 0.000507102)
(-0.000700102 -0.000898889 0.000507102)
(-0.000533375 -0.0010068 0.000507102)
(-0.000350442 -0.00108413 0.000507102)
(-0.000156861 -0.00112851 0.000507102)
(4.1486e-05 -0.00113861 0.000507103)
(0.000200124 -0.000994063 0.000505764)
(0.000369701 -0.00094421 0.000505764)
(0.000528045 -0.000865667 0.000505764)
(0.000670344 -0.000760821 0.000505764)
(0.000792275 -0.000632859 0.000505764)
(0.000890133 -0.000485667 0.000505764)
(0.000960946 -0.000323719 0.000505764)
(0.00100256 -0.000151935 0.000505764)
(0.00101371 2.44663e-05 0.000505764)
(0.000994063 0.000200124 0.000505764)
(0.00094421 0.000369701 0.000505764)
(0.000865667 0.000528045 0.000505764)
(0.000760821 0.000670344 0.000505764)
(0.000632859 0.000792275 0.000505764)
(0.000485667 0.000890133 0.000505764)
(0.000323719 0.000960946 0.000505764)
(0.000151935 0.00100256 0.000505764)
(-2.44663e-05 0.00101371 0.000505764)
(-0.000200124 0.000994063 0.000505764)
(-0.000369701 0.00094421 0.000505764)
(-0.000528045 0.000865667 0.000505764)
(-0.000670344 0.000760821 0.000505764)
(-0.000792275 0.000632859 0.000505764)
(-0.000890133 0.000485667 0.000505764)
(-0.000960946 0.000323719 0.000505764)
(-0.00100256 0.000151935 0.000505764)
(-0.00101371 -2.44663e-05 0.000505764)
(-0.000994063 -0.000200124 0.000505764)
(-0.00094421 -0.000369701 0.000505764)
(-0.000865667 -0.000528045 0.000505764)
(-0.000760821 -0.000670344 0.000505764)
(-0.000632859 -0.000792275 0.000505764)
(-0.000485667 -0.000890133 0.000505764)
(-0.000323719 -0.000960946 0.000505764)
(-0.000151935 -0.00100256 0.000505764)
(2.44663e-05 -0.00101371 0.000505764)