/*--------------------------------*- C++ -*----------------------------------*\
| =========                 |                                                 |
| \\      /  F ield         | OpenFOAM: The Open Source CFD Toolbox           |
|  \\    /   O peration     | Version:  2312                                  |
|   \\  /    A nd           | Website:  www.openfoam.com                      |
|    \\/     M anipulation  |                                                 |
\*---------------------------------------------------------------------------*/
FoamFile
{
    version     2.0;
    format      ascii;
    arch        "LSB;label=32;scalar=64";
    class       volVectorField;
    location    "0.1";
    object      U;
}
// * * * * * * * * * * * * * * * * * * * * * * * * * * * * * * * * * * * * * //

dimensions      [0 1 -1 0 0 0 0];

internalField   nonuniform List<vector> 
1620
(
(0.000389712 -0.00109659 0.000133225)
(0.000574212 -0.00101226 0.000133225)
(0.000741267 -0.000897172 0.000133226)
(0.000885799 -0.000754823 0.000133226)
(0.00100342 -0.000589538 0.000133226)
(0.00109054 -0.00040634 0.000133226)
(0.00114453 -0.000210796 0.000133225)
(0.00116375 -8.84838e-06 0.000133225)
(0.00114761 0.000193369 0.000133225)
(0.00109659 0.000389712 0.000133225)
(0.00101226 0.000574212 0.000133225)
(0.000897172 0.000741267 0.000133226)
(0.000754823 0.000885799 0.000133226)
(0.000589538 0.00100342 0.000133226)
(0.00040634 0.00109054 0.000133226)
(0.000210796 0.00114453 0.000133225)
(8.84838e-06 0.00116375 0.000133225)
(-0.000193369 0.00114761 0.000133225)
(-0.000389712 0.00109659 0.000133225)
(-0.000574212 0.00101226 0.000133225)
(-0.000741267 0.000897172 0.000133226)
(-0.000885799 0.000754823 0.000133226)
(-0.00100342 0.000589538 0.000133226)
(-0.00109054 0.00040634 0.000133226)
(-0.00114453 0.000210796 0.000133225)
(-0.00116375 8.84837e-06 0.000133225)
(-0.00114761 -0.000193369 0.000133225)
(-0.00109659 -0.000389712 0.000133225)
(-0.00101226 -0.000574212 0.000133225)
(-0.000897172 -0.000741267 0.000133226)
(-0.000754823 -0.000885799 0.000133226)
(-0.000589538 -0.00100342 0.000133226)
(-0.00040634 -0.00109054 0.000133226)
(-0.000210796 -0.00114453 0.000133225)
(-8.84838e-06 -0.00116375 0.000133225)
(0.000193369 -0.00114761 0.000133225)
(0.000252147 -0.00110148 0.00014948)
(0.000439587 -0.00104097 0.00014948)
(0.00061367 -0.000948816 0.000149481)
(0.000769107 -0.000827839 0.000149481)
(0.000901177 -0.000681709 0.000149481)
(0.00100586 -0.000514863 0.000149481)
(0.00107999 -0.000332375 0.00014948)
(0.0011213 -0.000139789 0.00014948)
(0.00112854 5.70457e-05 0.00014948)
(0.00110148 0.000252147 0.00014948)
(0.00104097 0.000439587 0.00014948)
(0.000948816 0.00061367 0.000149481)
(0.000827839 0.000769107 0.000149481)
(0.000681709 0.000901177 0.000149481)
(0.000514863 0.00100586 0.000149481)
(0.000332375 0.00107999 0.00014948)
(0.000139789 0.0011213 0.00014948)
(-5.70457e-05 0.00112854 0.00014948)
(-0.000252147 0.00110148 0.00014948)
(-0.000439587 0.00104097 0.00014948)
(-0.00061367 0.000948816 0.000149481)
(-0.000769107 0.000827839 0.000149481)
(-0.000901177 0.000681709 0.000149481)
(-0.00100586 0.000514863 0.000149481)
(-0.00107999 0.000332375 0.00014948)
(-0.0011213 0.000139789 0.00014948)
(-0.00112854 -5.70457e-05 0.00014948)
(-0.00110148 -0.000252147 0.00014948)
(-0.00104097 -0.000439587 0.00014948)
(-0.000948816 -0.00061367 0.000149481)
(-0.000827839 -0.000769107 0.000149481)
(-0.000681709 -0.000901177 0.000149481)
(-0.000514863 -0.00100586 0.000149481)
(-0.000332375 -0.00107999 0.00014948)
(-0.000139789 -0.0011213 0.00014948)
(5.70457e-05 -0.00112854 0.00014948)
(6.73563e-05 -0.00110611 0.000153938)
(0.000258407 -0.00107761 0.000153938)
(0.000441606 -0.00101637 0.000153938)
(0.000611387 -0.000924241 0.000153938)
(0.000762594 -0.000804035 0.000153938)
(0.000890625 -0.000659396 0.000153938)
(0.000991599 -0.000494723 0.000153938)
(0.00106244 -0.000315017 0.000153938)
(0.001101 -0.000125741 0.000153938)
(0.00110611 6.73563e-05 0.000153938)
(0.00107761 0.000258407 0.000153938)
(0.00101637 0.000441606 0.000153938)
(0.000924241 0.000611387 0.000153938)
(0.000804035 0.000762594 0.000153938)
(0.000659396 0.000890625 0.000153938)
(0.000494723 0.000991599 0.000153938)
(0.000315017 0.00106244 0.000153938)
(0.000125741 0.001101 0.000153938)
(-6.73563e-05 0.00110611 0.000153938)
(-0.000258407 0.00107761 0.000153938)
(-0.000441606 0.00101637 0.000153938)
(-0.000611387 0.000924241 0.000153938)
(-0.000762594 0.000804035 0.000153938)
(-0.000890625 0.000659396 0.000153938)
(-0.000991599 0.000494723 0.000153938)
(-0.00106244 0.000315017 0.000153938)
(-0.001101 0.000125741 0.000153938)
(-0.00110611 -6.73563e-05 0.000153938)
(-0.00107761 -0.000258407 0.000153938)
(-0.00101637 -0.000441606 0.000153938)
(-0.000924241 -0.000611387 0.000153938)
(-0.000804035 -0.000762594 0.000153938)
(-0.000659396 -0.000890625 0.000153938)
(-0.000494723 -0.000991599 0.000153938)
(-0.000315017 -0.00106244 0.000153938)
(-0.000125741 -0.001101 0.000153938)
(0.000887404 -0.00328602 0.000492535)
(0.00144453 -0.003082 0.000492536)
(0.00195777 -0.00278434 0.000492537)
(0.00241152 -0.00240207 0.000492537)
(0.002792 -0.00194682 0.000492538)
(0.00308765 -0.00143242 0.000492537)
(0.00328948 -0.000874495 0.000492535)
(0.00339136 -0.000289998 0.000492535)
(0.00339019 0.000303311 0.000492535)
(0.00328602 0.000887404 0.000492535)
(0.003082 0.00144453 0.000492536)
(0.00278434 0.00195777 0.000492537)
(0.00240207 0.00241152 0.000492537)
(0.00194682 0.002792 0.000492538)
(0.00143242 0.00308765 0.000492537)
(0.000874495 0.00328948 0.000492535)
(0.000289998 0.00339136 0.000492535)
(-0.000303311 0.00339019 0.000492535)
(-0.000887404 0.00328602 0.000492535)
(-0.00144453 0.003082 0.000492536)
(-0.00195777 0.00278434 0.000492537)
(-0.00241152 0.00240207 0.000492538)
(-0.002792 0.00194682 0.000492538)
(-0.00308765 0.00143242 0.000492537)
(-0.00328948 0.000874495 0.000492535)
(-0.00339136 0.000289998 0.000492535)
(-0.00339019 -0.000303311 0.000492535)
(-0.00328602 -0.000887404 0.000492535)
(-0.003082 -0.00144453 0.000492536)
(-0.00278434 -0.00195777 0.000492537)
(-0.00240207 -0.00241152 0.000492538)
(-0.00194682 -0.002792 0.000492538)
(-0.00143242 -0.00308765 0.000492537)
(-0.000874495 -0.00328948 0.000492535)
(-0.000289998 -0.00339136 0.000492535)
(0.000303311 -0.00339019 0.000492535)
(0.000683035 -0.0032722 0.00056648)
(0.00124087 -0.00310388 0.000566481)
(0.001761 -0.00284125 0.000566482)
(0.00222763 -0.00249229 0.000566482)
(0.00262657 -0.0020676 0.000566483)
(0.0029457 -0.00158009 0.000566482)
(0.00317533 -0.00104457 0.000566481)
(0.00330847 -0.000477314 0.00056648)
(0.0033411 0.000104446 0.00056648)
(0.0032722 0.000683034 0.00056648)
(0.00310388 0.00124087 0.000566481)
(0.00284125 0.001761 0.000566482)
(0.00249229 0.00222763 0.000566482)
(0.0020676 0.00262657 0.000566483)
(0.00158009 0.0029457 0.000566482)
(0.00104457 0.00317533 0.000566481)
(0.000477314 0.00330847 0.00056648)
(-0.000104446 0.0033411 0.00056648)
(-0.000683034 0.0032722 0.00056648)
(-0.00124087 0.00310388 0.000566481)
(-0.001761 0.00284125 0.000566482)
(-0.00222763 0.00249229 0.000566482)
(-0.00262657 0.0020676 0.000566483)
(-0.0029457 0.00158009 0.000566482)
(-0.00317533 0.00104457 0.000566481)
(-0.00330847 0.000477314 0.00056648)
(-0.0033411 -0.000104446 0.00056648)
(-0.0032722 -0.000683035 0.00056648)
(-0.00310388 -0.00124087 0.000566481)
(-0.00284125 -0.001761 0.000566482)
(-0.00249229 -0.00222763 0.000566482)
(-0.0020676 -0.00262657 0.000566483)
(-0.00158009 -0.0029457 0.000566482)
(-0.00104457 -0.00317533 0.000566481)
(-0.000477314 -0.00330847 0.00056648)
(0.000104446 -0.0033411 0.00056648)
(0.000424333 -0.00325292 0.00062365)
(0.00098275 -0.00312982 0.000623649)
(0.00151131 -0.00291161 0.00062365)
(0.00199394 -0.00260494 0.00062365)
(0.00241599 -0.00221912 0.00062365)
(0.00276464 -0.00176588 0.00062365)
(0.00302928 -0.00125898 0.00062365)
(0.00320188 -0.000713822 0.00062365)
(0.00327719 -0.000146978 0.00062365)
(0.00325292 0.000424333 0.00062365)
(0.00312982 0.00098275 0.000623649)
(0.00291161 0.00151131 0.00062365)
(0.00260494 0.00199394 0.00062365)
(0.00221912 0.00241599 0.00062365)
(0.00176588 0.00276464 0.00062365)
(0.00125898 0.00302928 0.00062365)
(0.000713822 0.00320188 0.00062365)
(0.000146978 0.00327719 0.00062365)
(-0.000424333 0.00325292 0.00062365)
(-0.00098275 0.00312982 0.000623649)
(-0.00151131 0.00291161 0.00062365)
(-0.00199394 0.00260494 0.00062365)
(-0.00241599 0.00221912 0.00062365)
(-0.00276464 0.00176588 0.00062365)
(-0.00302928 0.00125898 0.00062365)
(-0.00320188 0.000713822 0.00062365)
(-0.00327719 0.000146978 0.00062365)
(-0.00325292 -0.000424333 0.00062365)
(-0.00312982 -0.00098275 0.000623649)
(-0.00291161 -0.00151131 0.00062365)
(-0.00260494 -0.00199394 0.00062365)
(-0.00221912 -0.00241599 0.00062365)
(-0.00176588 -0.00276464 0.00062365)
(-0.00125898 -0.00302928 0.00062365)
(-0.000713822 -0.00320188 0.00062365)
(-0.000146978 -0.00327719 0.00062365)
(0.00130488 -0.00543529 0.00107816)
(0.00222889 -0.00512612 0.00107817)
(0.00308517 -0.00466121 0.00107817)
(0.00384771 -0.00405466 0.00107817)
(0.00449333 -0.00332491 0.00107817)
(0.00500243 -0.00249414 0.00107817)
(0.00535954 -0.00158758 0.00107817)
(0.0055538 -0.00063279 0.00107816)
(0.00557931 0.00034123 0.00107816)
(0.00543529 0.00130488 0.00107816)
(0.00512612 0.00222889 0.00107817)
(0.00466121 0.00308517 0.00107817)
(0.00405466 0.00384771 0.00107817)
(0.00332491 0.00449333 0.00107817)
(0.00249414 0.00500243 0.00107817)
(0.00158758 0.00535954 0.00107817)
(0.00063279 0.0055538 0.00107816)
(-0.00034123 0.00557931 0.00107816)
(-0.00130488 0.00543529 0.00107816)
(-0.00222889 0.00512612 0.00107817)
(-0.00308517 0.00466121 0.00107817)
(-0.00384771 0.00405466 0.00107817)
(-0.00449333 0.00332491 0.00107817)
(-0.00500243 0.00249414 0.00107817)
(-0.00535954 0.00158758 0.00107817)
(-0.0055538 0.00063279 0.00107816)
(-0.00557931 -0.00034123 0.00107816)
(-0.00543529 -0.00130488 0.00107816)
(-0.00512612 -0.00222889 0.00107817)
(-0.00466121 -0.00308517 0.00107817)
(-0.00405466 -0.00384771 0.00107817)
(-0.00332491 -0.00449333 0.00107817)
(-0.00249414 -0.00500243 0.00107817)
(-0.00158758 -0.00535954 0.00107817)
(-0.00063279 -0.0055538 0.00107816)
(0.00034123 -0.00557931 0.00107816)
(0.00102609 -0.00536881 0.00118787)
(0.00194278 -0.00510907 0.00118787)
(0.00280045 -0.00469409 0.00118787)
(0.00357302 -0.00413648 0.00118787)
(0.00423703 -0.00345319 0.00118787)
(0.0047723 -0.00266497 0.00118787)
(0.00516257 -0.00179578 0.00118787)
(0.00539597 -0.000872031 0.00118787)
(0.00546542 7.8216e-05 0.00118787)
(0.00536881 0.00102609 0.00118787)
(0.00510907 0.00194278 0.00118787)
(0.00469409 0.00280045 0.00118787)
(0.00413648 0.00357302 0.00118787)
(0.00345319 0.00423703 0.00118787)
(0.00266497 0.0047723 0.00118787)
(0.00179578 0.00516257 0.00118787)
(0.000872031 0.00539597 0.00118787)
(-7.8216e-05 0.00546542 0.00118787)
(-0.00102609 0.00536881 0.00118787)
(-0.00194278 0.00510907 0.00118787)
(-0.00280045 0.00469409 0.00118787)
(-0.00357302 0.00413648 0.00118787)
(-0.00423703 0.00345319 0.00118787)
(-0.0047723 0.00266497 0.00118787)
(-0.00516257 0.00179578 0.00118787)
(-0.00539597 0.000872031 0.00118787)
(-0.00546542 -7.8216e-05 0.00118787)
(-0.00536881 -0.00102609 0.00118787)
(-0.00510907 -0.00194278 0.00118787)
(-0.00469409 -0.00280045 0.00118787)
(-0.00413648 -0.00357302 0.00118787)
(-0.00345319 -0.00423703 0.00118787)
(-0.00266497 -0.0047723 0.00118787)
(-0.00179578 -0.00516257 0.00118787)
(-0.000872031 -0.00539597 0.00118787)
(7.8216e-05 -0.00546542 0.00118787)
(0.000697431 -0.00529015 0.00127902)
(0.00160546 -0.00508867 0.00127902)
(0.00246471 -0.00473258 0.00127902)
(0.00324907 -0.00423269 0.00127902)
(0.00393471 -0.00360419 0.00127902)
(0.00450079 -0.00286618 0.00127902)
(0.00493012 -0.00204108 0.00127902)
(0.00520965 -0.00115397 0.00127902)
(0.00533089 -0.00023179 0.00127902)
(0.00529015 0.000697431 0.00127902)
(0.00508867 0.00160546 0.00127902)
(0.00473258 0.00246471 0.00127902)
(0.00423269 0.00324907 0.00127902)
(0.00360419 0.00393471 0.00127902)
(0.00286618 0.00450079 0.00127902)
(0.00204108 0.00493012 0.00127902)
(0.00115397 0.00520965 0.00127902)
(0.00023179 0.00533089 0.00127902)
(-0.000697431 0.00529015 0.00127902)
(-0.00160546 0.00508867 0.00127902)
(-0.00246471 0.00473258 0.00127902)
(-0.00324907 0.00423269 0.00127902)
(-0.00393471 0.00360419 0.00127902)
(-0.00450079 0.00286618 0.00127902)
(-0.00493012 0.00204108 0.00127902)
(-0.00520965 0.00115397 0.00127902)
(-0.00533089 0.00023179 0.00127902)
(-0.00529015 -0.000697431 0.00127902)
(-0.00508867 -0.00160546 0.00127902)
(-0.00473258 -0.00246471 0.00127902)
(-0.00423269 -0.00324907 0.00127902)
(-0.00360419 -0.00393471 0.00127902)
(-0.00286618 -0.00450079 0.00127902)
(-0.00204108 -0.00493012 0.00127902)
(-0.00115397 -0.00520965 0.00127902)
(-0.00023179 -0.00533089 0.00127902)
(0.00157955 -0.00749682 0.00183185)
(0.00285736 -0.00710864 0.00183185)
(0.00404836 -0.00650446 0.00183185)
(0.00511634 -0.00570266 0.00183185)
(0.00602887 -0.00472758 0.00183185)
(0.00675821 -0.00360885 0.00183185)
(0.00728221 -0.00238048 0.00183185)
(0.00758494 -0.00107977 0.00183185)
(0.00765721 0.000253747 0.00183185)
(0.00749682 0.00157955 0.00183185)
(0.00710864 0.00285736 0.00183185)
(0.00650446 0.00404836 0.00183185)
(0.00570266 0.00511634 0.00183185)
(0.00472758 0.00602887 0.00183185)
(0.00360885 0.00675821 0.00183185)
(0.00238048 0.00728221 0.00183185)
(0.00107977 0.00758494 0.00183185)
(-0.000253747 0.00765721 0.00183185)
(-0.00157955 0.00749682 0.00183185)
(-0.00285736 0.00710864 0.00183185)
(-0.00404836 0.00650446 0.00183185)
(-0.00511634 0.00570266 0.00183185)
(-0.00602887 0.00472758 0.00183185)
(-0.00675821 0.00360885 0.00183185)
(-0.00728221 0.00238048 0.00183185)
(-0.00758494 0.00107977 0.00183185)
(-0.00765721 -0.000253747 0.00183185)
(-0.00749682 -0.00157955 0.00183185)
(-0.00710864 -0.00285736 0.00183185)
(-0.00650446 -0.00404836 0.00183185)
(-0.00570266 -0.00511634 0.00183185)
(-0.00472758 -0.00602887 0.00183185)
(-0.00360885 -0.00675821 0.00183185)
(-0.00238048 -0.00728221 0.00183185)
(-0.00107977 -0.00758494 0.00183185)
(0.000253747 -0.00765721 0.00183185)
(0.0012464 -0.00733472 0.00195619)
(0.00250113 -0.00700685 0.00195619)
(0.00367986 -0.00646609 0.00195619)
(0.00474678 -0.00572885 0.00195619)
(0.00566947 -0.00481755 0.00195619)
(0.0064199 -0.00375987 0.00195619)
(0.00697526 -0.00258794 0.00195619)
(0.00731868 -0.00133739 0.00195619)
(0.00743973 -4.61924e-05 0.00195619)
(0.00733472 0.0012464 0.00195619)
(0.00700685 0.00250113 0.00195619)
(0.00646609 0.00367986 0.00195619)
(0.00572885 0.00474678 0.00195619)
(0.00481755 0.00566947 0.00195619)
(0.00375987 0.0064199 0.00195619)
(0.00258794 0.00697526 0.00195619)
(0.00133739 0.00731868 0.00195619)
(4.61924e-05 0.00743973 0.00195619)
(-0.0012464 0.00733472 0.00195619)
(-0.00250113 0.00700685 0.00195619)
(-0.00367986 0.00646609 0.00195619)
(-0.00474678 0.00572885 0.00195619)
(-0.00566947 0.00481755 0.00195619)
(-0.0064199 0.00375987 0.00195619)
(-0.00697526 0.00258794 0.00195619)
(-0.00731868 0.00133739 0.00195619)
(-0.00743973 4.61923e-05 0.00195619)
(-0.00733472 -0.0012464 0.00195619)
(-0.00700685 -0.00250113 0.00195619)
(-0.00646609 -0.00367986 0.00195619)
(-0.00572885 -0.00474678 0.00195619)
(-0.00481755 -0.00566947 0.00195619)
(-0.00375987 -0.0064199 0.00195619)
(-0.00258794 -0.00697526 0.00195619)
(-0.00133739 -0.00731868 0.00195619)
(-4.61923e-05 -0.00743973 0.00195619)
(0.0008698 -0.00715781 0.00206023)
(0.00209953 -0.00689803 0.00206023)
(0.00326546 -0.00642866 0.00206023)
(0.00433218 -0.00576395 0.00206023)
(0.00526726 -0.0049241 0.00206023)
(0.0060423 -0.00393465 0.00206023)
(0.00663375 -0.00282564 0.00206023)
(0.00702364 -0.00163077 0.00206023)
(0.00720011 -0.000386356 0.00206023)
(0.00715781 0.0008698 0.00206023)
(0.00689803 0.00209953 0.00206023)
(0.00642866 0.00326546 0.00206023)
(0.00576395 0.00433218 0.00206023)
(0.0049241 0.00526726 0.00206023)
(0.00393465 0.0060423 0.00206023)
(0.00282564 0.00663375 0.00206023)
(0.00163077 0.00702364 0.00206023)
(0.000386356 0.00720011 0.00206023)
(-0.0008698 0.00715781 0.00206023)
(-0.00209953 0.00689803 0.00206023)
(-0.00326546 0.00642866 0.00206023)
(-0.00433218 0.00576395 0.00206023)
(-0.00526726 0.0049241 0.00206023)
(-0.0060423 0.00393465 0.00206023)
(-0.00663375 0.00282564 0.00206023)
(-0.00702364 0.00163077 0.00206023)
(-0.00720011 0.000386356 0.00206023)
(-0.00715781 -0.0008698 0.00206023)
(-0.00689803 -0.00209953 0.00206023)
(-0.00642866 -0.00326546 0.00206023)
(-0.00576395 -0.00433218 0.00206023)
(-0.0049241 -0.00526726 0.00206023)
(-0.00393465 -0.0060423 0.00206023)
(-0.00282564 -0.00663375 0.00206023)
(-0.00163077 -0.00702364 0.00206023)
(-0.000386356 -0.00720011 0.00206023)
(0.0017005 -0.00941165 0.00272391)
(0.00330898 -0.00897337 0.00272391)
(0.00481692 -0.00826245 0.00272391)
(0.0061785 -0.00730047 0.00272391)
(0.00735235 -0.00611668 0.00272391)
(0.0083028 -0.00474703 0.00272391)
(0.00900098 -0.00323315 0.00272391)
(0.00942566 -0.00162102 0.00272391)
(0.00956396 4.03517e-05 0.00272391)
(0.00941165 0.0017005 0.00272391)
(0.00897337 0.00330898 0.00272391)
(0.00826245 0.00481692 0.00272391)
(0.00730047 0.0061785 0.00272391)
(0.00611668 0.00735235 0.00272391)
(0.00474703 0.0083028 0.00272391)
(0.00323315 0.00900098 0.00272391)
(0.00162102 0.00942566 0.00272391)
(-4.03517e-05 0.00956396 0.00272391)
(-0.0017005 0.00941165 0.00272391)
(-0.00330898 0.00897337 0.00272391)
(-0.00481692 0.00826245 0.00272391)
(-0.0061785 0.00730047 0.00272391)
(-0.00735235 0.00611668 0.00272391)
(-0.0083028 0.00474703 0.00272391)
(-0.00900098 0.00323315 0.00272391)
(-0.00942566 0.00162102 0.00272391)
(-0.00956396 -4.03518e-05 0.00272391)
(-0.00941165 -0.0017005 0.00272391)
(-0.00897337 -0.00330898 0.00272391)
(-0.00826245 -0.00481692 0.00272391)
(-0.00730047 -0.0061785 0.00272391)
(-0.00611668 -0.00735235 0.00272391)
(-0.00474703 -0.0083028 0.00272391)
(-0.00323315 -0.00900098 0.00272391)
(-0.00162102 -0.00942566 0.00272391)
(4.03518e-05 -0.00956396 0.00272391)
(0.0013318 -0.00911463 0.0028433)
(0.00289431 -0.00874489 0.0028433)
(0.00436887 -0.00810945 0.0028433)
(0.00571069 -0.0072276 0.0028433)
(0.00687899 -0.00612615 0.0028433)
(0.00783828 -0.00483855 0.0028433)
(0.0085594 -0.00340394 0.0028433)
(0.00902045 -0.00186591 0.0028433)
(0.00920742 -0.000271173 0.0028433)
(0.00911463 0.0013318 0.0028433)
(0.00874489 0.00289431 0.0028433)
(0.00810945 0.00436887 0.0028433)
(0.0072276 0.00571069 0.0028433)
(0.00612615 0.00687899 0.0028433)
(0.00483855 0.00783828 0.0028433)
(0.00340394 0.0085594 0.0028433)
(0.00186591 0.00902045 0.0028433)
(0.000271173 0.00920742 0.0028433)
(-0.0013318 0.00911463 0.0028433)
(-0.00289431 0.00874489 0.0028433)
(-0.00436887 0.00810945 0.0028433)
(-0.00571069 0.0072276 0.0028433)
(-0.00687899 0.00612615 0.0028433)
(-0.00783828 0.00483855 0.0028433)
(-0.0085594 0.00340394 0.0028433)
(-0.00902045 0.00186591 0.0028433)
(-0.00920742 0.000271173 0.0028433)
(-0.00911463 -0.0013318 0.0028433)
(-0.00874489 -0.00289431 0.0028433)
(-0.00810945 -0.00436887 0.0028433)
(-0.0072276 -0.00571069 0.0028433)
(-0.00612615 -0.00687899 0.0028433)
(-0.00483855 -0.00783828 0.0028433)
(-0.00340394 -0.0085594 0.0028433)
(-0.00186591 -0.00902045 0.0028433)
(-0.000271173 -0.00920742 0.0028433)
(0.00092634 -0.00880325 0.00294088)
(0.00244094 -0.00850865 0.00294088)
(0.00388136 -0.00795552 0.00294088)
(0.00520386 -0.00716067 0.00294088)
(0.00636824 -0.00614824 0.00294088)
(0.00733912 -0.004949 0.00294088)
(0.00808701 -0.00359939 0.00294088)
(0.00858918 -0.00214042 0.00294088)
(0.00883037 -0.000616404 0.00294088)
(0.00880325 0.00092634 0.00294088)
(0.00850865 0.00244094 0.00294088)
(0.00795552 0.00388136 0.00294088)
(0.00716067 0.00520386 0.00294088)
(0.00614824 0.00636824 0.00294088)
(0.004949 0.00733912 0.00294088)
(0.00359939 0.00808701 0.00294088)
(0.00214042 0.00858918 0.00294088)
(0.000616404 0.00883037 0.00294088)
(-0.00092634 0.00880325 0.00294088)
(-0.00244094 0.00850865 0.00294088)
(-0.00388136 0.00795552 0.00294088)
(-0.00520386 0.00716067 0.00294088)
(-0.00636824 0.00614824 0.00294088)
(-0.00733912 0.004949 0.00294088)
(-0.00808701 0.00359939 0.00294088)
(-0.00858918 0.00214042 0.00294088)
(-0.00883037 0.000616404 0.00294088)
(-0.00880325 -0.00092634 0.00294088)
(-0.00850865 -0.00244094 0.00294088)
(-0.00795552 -0.00388136 0.00294088)
(-0.00716067 -0.00520386 0.00294088)
(-0.00614824 -0.00636824 0.00294088)
(-0.004949 -0.00733912 0.00294088)
(-0.00359939 -0.00808701 0.00294088)
(-0.00214042 -0.00858918 0.00294088)
(-0.000616404 -0.00883037 0.00294088)
(0.00167595 -0.0111162 0.00373668)
(0.0035808 -0.0106563 0.00373668)
(0.00537685 -0.00987262 0.00373668)
(0.00700953 -0.00878895 0.00373668)
(0.00842922 -0.00743824 0.00373668)
(0.0095928 -0.00586151 0.00373668)
(0.0104649 -0.00410669 0.00373668)
(0.011019 -0.00222709 0.00373668)
(0.0112384 -0.000279822 0.00373668)
(0.0111162 0.00167595 0.00373668)
(0.0106563 0.0035808 0.00373668)
(0.00987262 0.00537685 0.00373668)
(0.00878895 0.00700953 0.00373668)
(0.00743824 0.00842922 0.00373668)
(0.00586151 0.0095928 0.00373668)
(0.00410669 0.0104649 0.00373668)
(0.00222709 0.011019 0.00373668)
(0.000279822 0.0112384 0.00373668)
(-0.00167595 0.0111162 0.00373668)
(-0.0035808 0.0106563 0.00373668)
(-0.00537685 0.00987262 0.00373668)
(-0.00700953 0.00878895 0.00373668)
(-0.00842922 0.00743824 0.00373668)
(-0.0095928 0.00586151 0.00373668)
(-0.0104649 0.00410669 0.00373668)
(-0.011019 0.00222709 0.00373668)
(-0.0112384 0.000279822 0.00373668)
(-0.0111162 -0.00167595 0.00373668)
(-0.0106563 -0.0035808 0.00373668)
(-0.00987262 -0.00537685 0.00373668)
(-0.00878895 -0.00700953 0.00373668)
(-0.00743824 -0.00842922 0.00373668)
(-0.00586151 -0.0095928 0.00373668)
(-0.00410669 -0.0104649 0.00373668)
(-0.00222709 -0.011019 0.00373668)
(-0.000279822 -0.0112384 0.00373668)
(0.00128799 -0.010653 0.00383221)
(0.00311829 -0.0102675 0.00383221)
(0.00485384 -0.00956999 0.00383221)
(0.00644191 -0.00858174 0.00383221)
(0.00783425 -0.00733274 0.00383221)
(0.00898855 -0.00586094 0.00383221)
(0.00986973 -0.00421106 0.00383221)
(0.010451 -0.00243322 0.00383221)
(0.0107148 -0.00058145 0.00383221)
(0.010653 0.00128799 0.00383221)
(0.0102675 0.00311829 0.00383221)
(0.00956999 0.00485384 0.00383221)
(0.00858174 0.00644191 0.00383221)
(0.00733274 0.00783425 0.00383221)
(0.00586094 0.00898855 0.00383221)
(0.00421106 0.00986973 0.00383221)
(0.00243322 0.010451 0.00383221)
(0.00058145 0.0107148 0.00383221)
(-0.00128799 0.010653 0.00383221)
(-0.00311829 0.0102675 0.00383221)
(-0.00485384 0.00956999 0.00383221)
(-0.00644191 0.00858174 0.00383221)
(-0.00783425 0.00733274 0.00383221)
(-0.00898855 0.00586094 0.00383221)
(-0.00986973 0.00421106 0.00383221)
(-0.010451 0.00243322 0.00383221)
(-0.0107148 0.00058145 0.00383221)
(-0.010653 -0.00128799 0.00383221)
(-0.0102675 -0.00311829 0.00383221)
(-0.00956999 -0.00485384 0.00383221)
(-0.00858174 -0.00644191 0.00383221)
(-0.00733274 -0.00783425 0.00383221)
(-0.00586094 -0.00898855 0.00383221)
(-0.00421106 -0.00986973 0.00383221)
(-0.00243322 -0.010451 0.00383221)
(-0.00058145 -0.0107148 0.00383221)
(0.00087059 -0.0101782 0.00390436)
(0.00262478 -0.00987236 0.00390436)
(0.00429923 -0.00926658 0.00390436)
(0.00584303 -0.00837925 0.00390436)
(0.00720931 -0.00723732 0.00390436)
(0.00835653 -0.00587549 0.00390436)
(0.00924984 -0.00433513 0.00390436)
(0.00986211 -0.00266305 0.00390436)
(0.0101747 -0.000910057 0.00390436)
(0.0101782 0.00087059 0.00390436)
(0.00987236 0.00262478 0.00390436)
(0.00926658 0.00429923 0.00390436)
(0.00837925 0.00584303 0.00390436)
(0.00723732 0.00720931 0.00390436)
(0.00587549 0.00835653 0.00390436)
(0.00433513 0.00924984 0.00390436)
(0.00266305 0.00986211 0.00390436)
(0.000910057 0.0101747 0.00390436)
(-0.00087059 0.0101782 0.00390436)
(-0.00262478 0.00987236 0.00390436)
(-0.00429923 0.00926658 0.00390436)
(-0.00584303 0.00837925 0.00390436)
(-0.00720931 0.00723732 0.00390436)
(-0.00835653 0.00587549 0.00390436)
(-0.00924984 0.00433513 0.00390436)
(-0.00986211 0.00266305 0.00390436)
(-0.0101747 0.000910057 0.00390436)
(-0.0101782 -0.00087059 0.00390436)
(-0.00987236 -0.00262478 0.00390436)
(-0.00926658 -0.00429923 0.00390436)
(-0.00837925 -0.00584303 0.00390436)
(-0.00723732 -0.00720931 0.00390436)
(-0.00587549 -0.00835653 0.00390436)
(-0.00433513 -0.00924984 0.00390436)
(-0.00266305 -0.00986211 0.00390436)
(-0.000910057 -0.0101747 0.00390436)
(0.00152883 -0.0125458 0.00486708)
(0.00368416 -0.0120897 0.00486708)
(0.00572755 -0.0112663 0.00486708)
(0.00759691 -0.0101006 0.00486708)
(0.00923544 -0.00862794 0.00486708)
(0.0105934 -0.00689314 0.00486708)
(0.0116294 -0.0049489 0.00486708)
(0.0123121 -0.00285429 0.00486708)
(0.0126207 -0.000672952 0.00486708)
(0.0125458 0.00152883 0.00486708)
(0.0120897 0.00368416 0.00486708)
(0.0112663 0.00572755 0.00486708)
(0.0101006 0.00759691 0.00486708)
(0.00862794 0.00923544 0.00486708)
(0.00689314 0.0105934 0.00486708)
(0.0049489 0.0116294 0.00486708)
(0.00285429 0.0123121 0.00486708)
(0.000672952 0.0126207 0.00486708)
(-0.00152883 0.0125458 0.00486708)
(-0.00368416 0.0120897 0.00486708)
(-0.00572755 0.0112663 0.00486708)
(-0.00759691 0.0101006 0.00486708)
(-0.00923544 0.00862794 0.00486708)
(-0.0105934 0.00689314 0.00486708)
(-0.0116294 0.0049489 0.00486708)
(-0.0123121 0.00285429 0.00486708)
(-0.0126207 0.000672952 0.00486708)
(-0.0125458 -0.00152883 0.00486708)
(-0.0120897 -0.00368416 0.00486708)
(-0.0112663 -0.00572755 0.00486708)
(-0.0101006 -0.00759691 0.00486708)
(-0.00862794 -0.00923544 0.00486708)
(-0.00689314 -0.0105934 0.00486708)
(-0.0049489 -0.0116294 0.00486708)
(-0.00285429 -0.0123121 0.00486708)
(-0.000672952 -0.0126207 0.00486708)
(0.00113581 -0.0118941 0.0049192)
(0.00318396 -0.0115162 0.00491919)
(0.00513535 -0.0107884 0.00491919)
(0.00693071 -0.00973271 0.00491919)
(0.00851549 -0.00838135 0.00491919)
(0.00984152 -0.00677532 0.00491919)
(0.0108685 -0.00496342 0.00491919)
(0.0115653 -0.00300072 0.00491919)
(0.0119107 -0.000946834 0.0049192)
(0.0118941 0.00113581 0.0049192)
(0.0115162 0.00318396 0.00491919)
(0.0107884 0.00513535 0.00491919)
(0.00973271 0.00693071 0.00491919)
(0.00838135 0.00851549 0.00491919)
(0.00677532 0.00984152 0.00491919)
(0.00496342 0.0108685 0.00491919)
(0.00300072 0.0115653 0.00491919)
(0.000946834 0.0119107 0.0049192)
(-0.00113581 0.0118941 0.0049192)
(-0.00318396 0.0115162 0.00491919)
(-0.00513535 0.0107884 0.00491919)
(-0.00693071 0.00973271 0.00491919)
(-0.00851549 0.00838135 0.00491919)
(-0.00984152 0.00677532 0.00491919)
(-0.0108685 0.00496342 0.00491919)
(-0.0115653 0.00300072 0.00491919)
(-0.0119107 0.000946834 0.0049192)
(-0.0118941 -0.00113581 0.0049192)
(-0.0115162 -0.00318396 0.00491919)
(-0.0107884 -0.00513535 0.00491919)
(-0.00973271 -0.00693071 0.00491919)
(-0.00838135 -0.00851549 0.00491919)
(-0.00677532 -0.00984152 0.00491919)
(-0.00496342 -0.0108685 0.00491919)
(-0.00300072 -0.0115653 0.00491919)
(-0.000946834 -0.0119107 0.0049192)
(0.0007218 -0.0112359 0.00494602)
(0.00266192 -0.0109398 0.00494602)
(0.00452116 -0.0103114 0.00494603)
(0.00624302 -0.00936964 0.00494602)
(0.0077752 -0.0081432 0.00494602)
(0.00907113 -0.00666934 0.00494602)
(0.0100914 -0.00499283 0.00494603)
(0.0108051 -0.00316462 0.00494602)
(0.0111905 -0.00124026 0.00494602)
(0.0112359 0.0007218 0.00494602)
(0.0109398 0.00266192 0.00494602)
(0.0103114 0.00452116 0.00494603)
(0.00936964 0.00624302 0.00494602)
(0.0081432 0.0077752 0.00494602)
(0.00666934 0.00907113 0.00494602)
(0.00499283 0.0100914 0.00494603)
(0.00316462 0.0108051 0.00494602)
(0.00124026 0.0111905 0.00494602)
(-0.0007218 0.0112359 0.00494602)
(-0.00266192 0.0109398 0.00494602)
(-0.00452116 0.0103114 0.00494603)
(-0.00624302 0.00936964 0.00494602)
(-0.0077752 0.0081432 0.00494602)
(-0.00907113 0.00666934 0.00494602)
(-0.0100914 0.00499283 0.00494603)
(-0.0108051 0.00316462 0.00494602)
(-0.0111905 0.00124025 0.00494602)
(-0.0112359 -0.0007218 0.00494602)
(-0.0109398 -0.00266192 0.00494602)
(-0.0103114 -0.00452116 0.00494603)
(-0.00936964 -0.00624302 0.00494602)
(-0.0081432 -0.0077752 0.00494602)
(-0.00666934 -0.00907113 0.00494602)
(-0.00499283 -0.0100914 0.00494603)
(-0.00316462 -0.0108051 0.00494602)
(-0.00124025 -0.0111905 0.00494602)
(0.00129297 -0.0136345 0.00612227)
(0.00364094 -0.0132029 0.00612227)
(0.00587828 -0.01237 0.00612227)
(0.00793701 -0.0111614 0.00612226)
(0.00975458 -0.00961355 0.00612226)
(0.0112758 -0.00777363 0.00612226)
(0.0124543 -0.00569752 0.00612227)
(0.0132545 -0.00344828 0.00612227)
(0.0136519 -0.00109428 0.00612227)
(0.0136345 0.00129297 0.00612227)
(0.0132029 0.00364094 0.00612227)
(0.01237 0.00587828 0.00612226)
(0.0111614 0.00793701 0.00612226)
(0.00961355 0.00975458 0.00612226)
(0.00777363 0.0112758 0.00612226)
(0.00569752 0.0124543 0.00612227)
(0.00344828 0.0132545 0.00612227)
(0.00109428 0.0136519 0.00612227)
(-0.00129297 0.0136345 0.00612227)
(-0.00364094 0.0132029 0.00612227)
(-0.00587828 0.01237 0.00612227)
(-0.00793701 0.0111614 0.00612226)
(-0.00975458 0.00961355 0.00612226)
(-0.0112758 0.00777363 0.00612226)
(-0.0124543 0.00569752 0.00612227)
(-0.0132545 0.00344828 0.00612227)
(-0.0136519 0.00109428 0.00612227)
(-0.0136345 -0.00129297 0.00612227)
(-0.0132029 -0.00364094 0.00612227)
(-0.01237 -0.00587828 0.00612227)
(-0.0111614 -0.00793701 0.00612226)
(-0.00961355 -0.00975458 0.00612226)
(-0.00777363 -0.0112758 0.00612226)
(-0.00569752 -0.0124543 0.00612227)
(-0.00344828 -0.0132545 0.00612227)
(-0.00109428 -0.0136519 0.00612227)
(0.000908312 -0.0127826 0.0061095)
(0.00311419 -0.0124307 0.0061095)
(0.00522544 -0.011701 0.0061095)
(0.00717792 -0.0106159 0.0061095)
(0.0089123 -0.00920818 0.0061095)
(0.0103759 -0.00752069 0.0061095)
(0.0115242 -0.00560467 0.0061095)
(0.0123224 -0.00351837 0.0061095)
(0.0127461 -0.00132516 0.0061095)
(0.0127826 0.000908311 0.0061095)
(0.0124307 0.00311419 0.0061095)
(0.011701 0.00522544 0.0061095)
(0.0106159 0.00717792 0.0061095)
(0.00920818 0.0089123 0.0061095)
(0.00752069 0.0103759 0.0061095)
(0.00560467 0.0115242 0.0061095)
(0.00351837 0.0123224 0.0061095)