/*--------------------------------*- C++ -*----------------------------------*\
| =========                 |                                                 |
| \\      /  F ield         | OpenFOAM: The Open Source CFD Toolbox           |
|  \\    /   O peration     | Version:  2312                                  |
|   \\  /    A nd           | Website:  www.openfoam.com                      |
|    \\/     M anipulation  |                                                 |
\*---------------------------------------------------------------------------*/
FoamFile
{
    version     2.0;
    format      ascii;
    arch        "LSB;label=32;scalar=64";
    class       volVectorField;
    location    "0.6";
    object      D;
}
// * * * * * * * * * * * * * * * * * * * * * * * * * * * * * * * * * * * * * //

dimensions      [0 1 0 0 0 0 0];

internalField   nonuniform List<vector> 
1620
(
(0.000799935 0.000188167 -0.00202154)
(0.00103763 0.000403529 -0.0018592)
(0.00104228 0.000624997 -0.00146811)
(0.000869482 0.000739052 -0.000951871)
(0.000618031 0.000725046 -0.000434706)
(0.00035823 0.00061969 6.57272e-07)
(0.000121509 0.000466673 0.00032239)
(-8.39814e-05 0.000297306 0.000534123)
(-0.000259503 0.000131196 0.000659004)
(-0.000407852 -2.03295e-05 0.000729586)
(-0.000529042 -0.000152823 0.000780965)
(-0.0006181 -0.000266193 0.00084491)
(-0.000664727 -0.000357832 0.000944894)
(-0.000653876 -0.000413215 0.00109317)
(-0.00056445 -0.000404713 0.00129044)
(-0.00036669 -0.000314833 0.00152506)
(-3.60447e-05 -0.000179848 0.00176676)
(0.00039517 -0.000105291 0.00196032)
(0.000799935 -0.000188167 0.00202154)
(0.00103763 -0.000403529 0.0018592)
(0.00104228 -0.000624997 0.00146811)
(0.000869482 -0.000739052 0.000951871)
(0.000618031 -0.000725046 0.000434706)
(0.00035823 -0.00061969 -6.57272e-07)
(0.000121509 -0.000466673 -0.00032239)
(-8.39814e-05 -0.000297306 -0.000534123)
(-0.000259503 -0.000131196 -0.000659004)
(-0.000407852 2.03295e-05 -0.000729586)
(-0.000529042 0.000152823 -0.000780965)
(-0.0006181 0.000266193 -0.00084491)
(-0.000664727 0.000357832 -0.000944894)
(-0.000653876 0.000413215 -0.00109317)
(-0.00056445 0.000404713 -0.00129044)
(-0.00036669 0.000314833 -0.00152506)
(-3.60447e-05 0.000179848 -0.00176676)
(0.00039517 0.000105291 -0.00196032)
(0.000397618 0.000521973 -0.00171747)
(0.00048649 0.0005437 -0.0015327)
(0.000476037 0.000595328 -0.00126384)
(0.00037126 0.000654063 -0.000938536)
(0.000201208 0.000698123 -0.000594963)
(2.38093e-06 0.000717328 -0.00026541)
(-0.000194504 0.000708376 3.10848e-05)
(-0.000368067 0.000671163 0.000288987)
(-0.000505287 0.00060722 0.000513577)
(-0.00059886 0.000517593 0.00071695)
(-0.000644313 0.000400741 0.000912781)
(-0.000638524 0.000253154 0.00111042)
(-0.000580854 7.45742e-05 0.00130973)
(-0.000475932 -0.000123151 0.0014991)
(-0.000333893 -0.000310212 0.00165939)
(-0.000163987 -0.000447224 0.00177243)
(3.00137e-05 -0.000511322 0.00182601)
(0.00023234 -0.000521103 0.00181089)
(0.000397618 -0.000521973 0.00171747)
(0.00048649 -0.0005437 0.0015327)
(0.000476037 -0.000595328 0.00126384)
(0.00037126 -0.000654063 0.000938536)
(0.000201208 -0.000698123 0.000594963)
(2.38093e-06 -0.000717328 0.00026541)
(-0.000194504 -0.000708376 -3.10848e-05)
(-0.000368067 -0.000671163 -0.000288987)
(-0.000505287 -0.00060722 -0.000513577)
(-0.00059886 -0.000517593 -0.00071695)
(-0.000644313 -0.000400741 -0.000912781)
(-0.000638524 -0.000253154 -0.00111042)
(-0.000580854 -7.45742e-05 -0.00130973)
(-0.000475932 0.000123151 -0.0014991)
(-0.000333893 0.000310212 -0.00165939)
(-0.000163987 0.000447224 -0.00177243)
(3.00137e-05 0.000511322 -0.00182601)
(0.00023234 0.000521103 -0.00181089)
(8.86149e-05 0.000691237 -0.00145411)
(8.37598e-05 0.000588168 -0.00127105)
(6.35273e-05 0.000532299 -0.00110167)
(7.2405e-06 0.00056872 -0.00092472)
(-0.000103689 0.000684057 -0.000716603)
(-0.000263035 0.000834765 -0.00046743)
(-0.000443593 0.000975524 -0.000181204)
(-0.000612077 0.00107304 0.000130872)
(-0.00074056 0.00110743 0.000456557)
(-0.000810264 0.00106812 0.000784741)
(-0.000810741 0.000950016 0.00110398)
(-0.000739189 0.000752302 0.00139952)
(-0.000602695 0.00048088 0.0016509)
(-0.000422533 0.000154162 0.00183269)
(-0.000234604 -0.000190148 0.00192146)
(-7.8039e-05 -0.000493681 0.00190819)
(2.48513e-05 -0.000692113 0.00180584)
(7.54171e-05 -0.00075012 0.00164294)
(8.86149e-05 -0.000691237 0.00145411)
(8.37598e-05 -0.000588168 0.00127105)
(6.35273e-05 -0.000532299 0.00110167)
(7.2405e-06 -0.00056872 0.00092472)
(-0.000103689 -0.000684057 0.000716603)
(-0.000263035 -0.000834765 0.00046743)
(-0.000443593 -0.000975524 0.000181204)
(-0.000612077 -0.00107304 -0.000130872)
(-0.00074056 -0.00110743 -0.000456557)
(-0.000810264 -0.00106812 -0.000784741)
(-0.000810741 -0.000950016 -0.00110398)
(-0.000739189 -0.000752302 -0.00139952)
(-0.000602695 -0.00048088 -0.0016509)
(-0.000422533 -0.000154162 -0.00183269)
(-0.000234604 0.000190148 -0.00192146)
(-7.8039e-05 0.000493681 -0.00190819)
(2.48513e-05 0.000692113 -0.00180584)
(7.54171e-05 0.00075012 -0.00164294)
(0.00244963 0.00114409 -0.00523553)
(0.00299517 0.00141449 -0.0046198)
(0.0028283 0.00169206 -0.00360535)
(0.00215407 0.00184032 -0.00241447)
(0.00126846 0.0018441 -0.00124891)
(0.000380965 0.00173502 -0.000236592)
(-0.000406529 0.00154325 0.000570136)
(-0.0010634 0.00129366 0.00117493)
(-0.00159234 0.00100923 0.00161981)
(-0.00200305 0.000705955 0.00196984)
(-0.00229632 0.000385748 0.00229633)
(-0.00245607 3.78262e-05 0.00265892)
(-0.00244844 -0.000345517 0.00309002)
(-0.00222756 -0.000740233 0.00358748)
(-0.00174618 -0.00106667 0.00412192)
(-0.000967935 -0.0012155 0.00465143)
(0.000106599 -0.00115887 0.00510678)
(0.00135828 -0.00105423 0.00534925)
(0.00244963 -0.00114409 0.00523553)
(0.00299517 -0.00141449 0.0046198)
(0.0028283 -0.00169206 0.00360535)
(0.00215407 -0.00184032 0.00241447)
(0.00126846 -0.0018441 0.00124891)
(0.000380965 -0.00173502 0.000236592)
(-0.000406529 -0.00154325 -0.000570136)
(-0.0010634 -0.00129366 -0.00117493)
(-0.00159234 -0.00100923 -0.00161981)
(-0.00200305 -0.000705955 -0.00196984)
(-0.00229632 -0.000385748 -0.00229633)
(-0.00245607 -3.78262e-05 -0.00265892)
(-0.00244844 0.000345517 -0.00309002)
(-0.00222756 0.000740233 -0.00358748)
(-0.00174618 0.00106667 -0.00412192)
(-0.000967935 0.0012155 -0.00465143)
(0.000106599 0.00115887 -0.00510678)
(0.00135828 0.00105423 -0.00534925)
(0.00168616 0.00162601 -0.00487469)
(0.00198933 0.00159812 -0.00435169)
(0.00190565 0.00166243 -0.00360552)
(0.00147629 0.00177494 -0.00271238)
(0.000840654 0.00188926 -0.00175831)
(0.000138314 0.00196178 -0.000821507)
(-0.000528932 0.00195915 4.26238e-05)
(-0.00109992 0.00186614 0.00080956)
(-0.00154374 0.00168314 0.0014845)
(-0.00184577 0.0014155 0.00209291)
(-0.00199585 0.00106463 0.00266648)
(-0.00198225 0.000627307 0.00322837)
(-0.00179324 0.00010598 0.00378078)
(-0.00142649 -0.000471397 0.00429876)
(-0.000901881 -0.00103144 0.00473561)
(-0.00026501 -0.00146156 0.00504293)
(0.000428847 -0.00167291 0.00518913)
(0.00111817 -0.00168283 0.00514455)
(0.00168616 -0.00162601 0.00487469)
(0.00198933 -0.00159812 0.00435169)
(0.00190565 -0.00166243 0.00360552)
(0.00147629 -0.00177494 0.00271238)
(0.000840654 -0.00188926 0.00175831)
(0.000138314 -0.00196178 0.000821507)
(-0.000528932 -0.00195915 -4.26238e-05)
(-0.00109992 -0.00186614 -0.00080956)
(-0.00154374 -0.00168314 -0.0014845)
(-0.00184577 -0.0014155 -0.00209291)
(-0.00199585 -0.00106463 -0.00266648)
(-0.00198225 -0.000627307 -0.00322837)
(-0.00179324 -0.00010598 -0.00378078)
(-0.00142649 0.000471397 -0.00429876)
(-0.000901881 0.00103144 -0.00473561)
(-0.00026501 0.00146156 -0.00504293)
(0.000428847 0.00167291 -0.00518913)
(0.00111817 0.00168283 -0.00514455)
(0.00101857 0.00190914 -0.00443024)
(0.00113875 0.00166898 -0.00401745)
(0.00113352 0.00157392 -0.00353295)
(0.000928449 0.00166987 -0.00292386)
(0.000523718 0.00190077 -0.00217557)
(-1.19262e-05 0.00216248 -0.00131827)
(-0.000580527 0.00235967 -0.000405386)
(-0.00109205 0.00243246 0.000513932)
(-0.00148164 0.00235325 0.00140774)
(-0.00170898 0.00211375 0.00225801)
(-0.00175141 0.00171623 0.00305153)
(-0.00160026 0.00117135 0.0037716)
(-0.00126482 0.000501449 0.00439204)
(-0.000784397 -0.000250816 0.00487377)
(-0.000240811 -0.00100845 0.00516833)
(0.000252214 -0.00165065 0.00523847)
(0.000608787 -0.00203804 0.0050954)
(0.000841144 -0.00209383 0.00480624)
(0.00101857 -0.00190914 0.00443024)
(0.00113875 -0.00166898 0.00401745)
(0.00113352 -0.00157392 0.00353295)
(0.000928449 -0.00166987 0.00292386)
(0.000523718 -0.00190077 0.00217557)
(-1.19262e-05 -0.00216248 0.00131827)
(-0.000580527 -0.00235967 0.000405386)
(-0.00109205 -0.00243246 -0.000513932)
(-0.00148164 -0.00235325 -0.00140774)
(-0.00170898 -0.00211375 -0.00225801)
(-0.00175141 -0.00171623 -0.00305153)
(-0.00160026 -0.00117135 -0.0037716)
(-0.00126482 -0.000501449 -0.00439204)
(-0.000784397 0.000250816 -0.00487377)
(-0.000240811 0.00100845 -0.00516833)
(0.000252214 0.00165065 -0.00523847)
(0.000608787 0.00203804 -0.0050954)
(0.000841144 0.00209383 -0.00480624)
(0.00480294 0.0027352 -0.00782326)
(0.00529471 0.0028285 -0.00684698)
(0.00456654 0.00287695 -0.00537878)
(0.00310769 0.00284847 -0.00371726)
(0.00140542 0.00275174 -0.00210004)
(-0.000216567 0.0025819 -0.000663553)
(-0.00160504 0.00232795 0.00053468)
(-0.00272048 0.00199249 0.00149631)
(-0.0035749 0.00159121 0.00226843)
(-0.00418847 0.00113737 0.00292736)
(-0.00456581 0.000628482 0.00355636)
(-0.00468543 4.7823e-05 0.00422117)
(-0.00449657 -0.000615959 0.00495068)
(-0.00392024 -0.0013351 0.00573156)
(-0.00286013 -0.00201146 0.0065221)
(-0.00124997 -0.00249095 0.00726995)
(0.000834898 -0.00267872 0.00788567)
(0.00305051 -0.00267704 0.00814732)
(0.00480294 -0.0027352 0.00782326)
(0.00529471 -0.0028285 0.00684698)
(0.00456654 -0.00287695 0.00537878)
(0.00310769 -0.00284847 0.00371726)
(0.00140542 -0.00275174 0.00210004)
(-0.000216567 -0.0025819 0.000663553)
(-0.00160504 -0.00232795 -0.00053468)
(-0.00272048 -0.00199249 -0.00149631)
(-0.0035749 -0.00159121 -0.00226843)
(-0.00418847 -0.00113737 -0.00292736)
(-0.00456581 -0.000628482 -0.00355636)
(-0.00468543 -4.7823e-05 -0.00422117)
(-0.00449657 0.000615959 -0.00495068)
(-0.00392024 0.0013351 -0.00573156)
(-0.00286013 0.00201146 -0.0065221)
(-0.00124997 0.00249095 -0.00726995)
(0.000834898 0.00267872 -0.00788567)
(0.00305051 0.00267704 -0.00814732)
(0.00368772 0.00283242 -0.00736731)
(0.00402779 0.00272431 -0.00656555)
(0.00364479 0.00271144 -0.00545967)
(0.00271999 0.00279076 -0.00414109)
(0.00151128 0.00290496 -0.00272125)
(0.000248338 0.00297233 -0.00131002)
(-0.000908837 0.00292872 1.06447e-05)
(-0.00187167 0.00274608 0.00120209)
(-0.00260161 0.00242404 0.00226608)
(-0.00308349 0.00197165 0.00323048)
(-0.0033058 0.00139491 0.00413083)
(-0.00325108 0.000696317 0.00499255)
(-0.00289574 -0.000113103 0.0058175)
(-0.00221853 -0.000992204 0.00657801)
(-0.00121815 -0.00184581 0.00722056)
(5.87012e-05 -0.00252395 0.00767969)
(0.00147959 -0.0028935 0.0078962)
(0.00278322 -0.00294885 0.00781311)
(0.00368772 -0.00283242 0.00736731)
(0.00402779 -0.00272431 0.00656555)
(0.00364479 -0.00271144 0.00545967)
(0.00271999 -0.00279076 0.00414109)
(0.00151128 -0.00290496 0.00272125)
(0.000248338 -0.00297233 0.00131002)
(-0.000908837 -0.00292872 -1.06447e-05)
(-0.00187167 -0.00274608 -0.00120209)
(-0.00260161 -0.00242404 -0.00226608)
(-0.00308349 -0.00197165 -0.00323048)
(-0.0033058 -0.00139491 -0.00413083)
(-0.00325108 -0.000696317 -0.00499255)
(-0.00289574 0.000113103 -0.0058175)
(-0.00221853 0.000992204 -0.00657801)
(-0.00121815 0.00184581 -0.00722056)
(5.87012e-05 0.00252395 -0.00767969)
(0.00147959 0.0028935 -0.0078962)
(0.00278322 0.00294885 -0.00781311)
(0.00270397 0.0028418 -0.00678463)
(0.00293665 0.0025755 -0.00620064)
(0.00286502 0.00249417 -0.00542883)
(0.00243993 0.00263813 -0.00442628)
(0.00170503 0.00292645 -0.00320654)
(0.000787378 0.00321617 -0.00184549)
(-0.000154311 0.00338506 -0.00043663)
(-0.000985907 0.00336501 0.000949094)
(-0.0016187 0.00313088 0.00227087)
(-0.00200075 0.00268185 0.00350613)
(-0.00210243 0.00203197 0.00463841)
(-0.00190912 0.00120744 0.00564981)
(-0.00142458 0.000248104 0.00651545)
(-0.000686457 -0.000785015 0.00719737)
(0.000211746 -0.0017921 0.00764041)
(0.00111596 -0.00261829 0.00778607)
(0.00185822 -0.00308903 0.00762453)
(0.00234719 -0.00312071 0.00725327)
(0.00270397 -0.0028418 0.00678463)
(0.00293665 -0.0025755 0.00620064)
(0.00286502 -0.00249417 0.00542883)
(0.00243993 -0.00263813 0.00442628)
(0.00170503 -0.00292645 0.00320654)
(0.000787378 -0.00321617 0.00184549)
(-0.000154311 -0.00338506 0.00043663)
(-0.000985907 -0.00336501 -0.000949094)
(-0.0016187 -0.00313088 -0.00227087)
(-0.00200075 -0.00268185 -0.00350613)
(-0.00210243 -0.00203197 -0.00463841)
(-0.00190912 -0.00120744 -0.00564981)
(-0.00142458 -0.000248104 -0.00651545)
(-0.000686457 0.000785015 -0.00719737)
(0.000211746 0.0017921 -0.00764041)
(0.00111596 0.00261829 -0.00778607)
(0.00185822 0.00308903 -0.00762453)
(0.00234719 0.00312071 -0.00725327)
(0.00692853 0.0043839 -0.00942619)
(0.00711663 0.00399696 -0.00825194)
(0.00579378 0.00367873 -0.00659936)
(0.00360808 0.003424 -0.00474178)
(0.00118762 0.00318072 -0.00289589)
(-0.0010473 0.00289617 -0.00119924)
(-0.00291046 0.00253447 0.000284261)
(-0.00436752 0.00208132 0.00154899)
(-0.00544183 0.00153973 0.00263119)
(-0.00615913 0.000915351 0.00359344)
(-0.00652464 0.000204011 0.00450436)
(-0.00651442 -0.000606678 0.00541623)
(-0.00606941 -0.00151949 0.0063491)
(-0.00508726 -0.00249935 0.0072906)
(-0.00342774 -0.00344946 0.00820958)
(-0.000998051 -0.00421903 0.00905298)
(0.00202411 -0.00466061 0.00969987)
(0.00499486 -0.00469462 0.00991622)
(0.00692853 -0.0043839 0.00942619)
(0.00711663 -0.00399696 0.00825194)
(0.00579378 -0.00367873 0.00659936)
(0.00360808 -0.003424 0.00474178)
(0.00118762 -0.00318072 0.00289589)
(-0.0010473 -0.00289617 0.00119924)
(-0.00291046 -0.00253447 -0.000284261)
(-0.00436752 -0.00208132 -0.00154899)
(-0.00544183 -0.00153973 -0.00263119)
(-0.00615913 -0.000915351 -0.00359344)
(-0.00652464 -0.000204011 -0.00450436)
(-0.00651442 0.000606678 -0.00541623)
(-0.00606941 0.00151949 -0.0063491)
(-0.00508726 0.00249935 -0.0072906)
(-0.00342774 0.00344946 -0.00820958)
(-0.000998051 0.00421903 -0.00905298)
(0.00202411 0.00466061 -0.00969987)
(0.00499486 0.00469462 -0.00991622)
(0.00564535 0.00393793 -0.0089951)
(0.00580731 0.00366871 -0.00802587)
(0.00506288 0.00353391 -0.00670042)
(0.00367876 0.00352542 -0.00511412)
(0.00197947 0.00355375 -0.00339947)
(0.000257806 0.00352185 -0.00168766)
(-0.00128565 0.00336223 -6.962e-05)
(-0.00254637 0.00304494 0.00141338)
(-0.00348214 0.00256736 0.00275816)
(-0.00407668 0.00193859 0.00398398)
(-0.00431641 0.00116903 0.00511709)
(-0.0041799 0.000269996 0.0061764)
(-0.00363638 -0.000736862 0.00716276)
(-0.00265215 -0.00180233 0.0080551)
(-0.00121117 -0.00282931 0.00881173)
(0.000633528 -0.00366696 0.00937006)
(0.00267659 -0.00415336 0.0096449)
(0.00450795 -0.00420426 0.0095422)
(0.00564535 -0.00393793 0.0089951)
(0.00580731 -0.00366871 0.00802587)
(0.00506288 -0.00353391 0.00670042)
(0.00367876 -0.00352542 0.00511412)
(0.00197947 -0.00355375 0.00339947)
(0.000257806 -0.00352185 0.00168766)
(-0.00128565 -0.00336223 6.962e-05)
(-0.00254637 -0.00304494 -0.00141338)
(-0.00348214 -0.00256736 -0.00275816)
(-0.00407668 -0.00193859 -0.00398398)
(-0.00431641 -0.00116903 -0.00511709)
(-0.0041799 -0.000269996 -0.0061764)
(-0.00363638 0.000736862 -0.00716276)
(-0.00265215 0.00180233 -0.0080551)
(-0.00121117 0.00282931 -0.00881173)
(0.000633528 0.00366696 -0.00937006)
(0.00267659 0.00415336 -0.0096449)
(0.00450795 0.00420426 -0.0095422)
(0.00441157 0.00368619 -0.00858519)
(0.00462248 0.0034953 -0.00782755)
(0.00445045 0.00345192 -0.00676703)
(0.00384226 0.00358649 -0.00540637)
(0.00284642 0.00381385 -0.00381752)
(0.00162605 0.00399995 -0.00211286)
(0.000389095 0.00403425 -0.00039536)
(-0.000693617 0.00385793 0.00126808)
(-0.00151497 0.00345198 0.00283982)
(-0.00201495 0.00282204 0.00429573)
(-0.0021589 0.00199156 0.00561695)
(-0.00192677 0.000997968 0.00678672)
(-0.00131692 -0.000109067 0.00778645)
(-0.000366887 -0.00126304 0.00858885)
(0.000814587 -0.0023629 0.00915124)
(0.0020409 -0.00325635 0.00942471)
(0.00311349 -0.00377967 0.00939057)
(0.003908 -0.00387547 0.00909026)
(0.00441157 -0.00368619 0.00858519)
(0.00462248 -0.0034953 0.00782755)
(0.00445045 -0.00345192 0.00676703)
(0.00384226 -0.00358649 0.00540637)
(0.00284642 -0.00381385 0.00381752)
(0.00162605 -0.00399995 0.00211286)
(0.000389095 -0.00403425 0.00039536)
(-0.000693617 -0.00385793 -0.00126808)
(-0.00151497 -0.00345198 -0.00283982)
(-0.00201495 -0.00282204 -0.00429573)
(-0.0021589 -0.00199156 -0.00561695)
(-0.00192677 -0.000997968 -0.00678672)
(-0.00131692 0.000109067 -0.00778645)
(-0.000366887 0.00126304 -0.00858885)
(0.000814587 0.0023629 -0.00915124)
(0.0020409 0.00325635 -0.00942471)
(0.00311349 0.00377967 -0.00939057)
(0.003908 0.00387547 -0.00909026)
(0.0077887 0.00547298 -0.00999879)
(0.00780021 0.00477397 -0.00883007)
(0.0062306 0.00413153 -0.00722465)
(0.00368725 0.00359862 -0.00538148)
(0.000877079 0.00312512 -0.00349104)
(-0.00170058 0.00264982 -0.00169078)
(-0.00383198 0.00212714 -4.88648e-05)
(-0.00548293 0.00152629 0.00142059)
(-0.0066755 0.00083189 0.002735)
(-0.00742764 3.85945e-05 0.0039295)
(-0.00773581 -0.000856494 0.00504425)
(-0.00756986 -0.00185275 0.00611066)
(-0.00686481 -0.00293216 0.00714327)
(-0.00550833 -0.00403644 0.00814355)
(-0.00335733 -0.00504886 0.00910151)
(-0.000384439 -0.00580588 0.00995357)
(0.00303066 -0.0061518 0.0105234)
(0.00604795 -0.00601237 0.0105806)
(0.0077887 -0.00547298 0.00999879)
(0.00780021 -0.00477397 0.00883007)
(0.0062306 -0.00413153 0.00722465)
(0.00368725 -0.00359862 0.00538148)
(0.000877079 -0.00312512 0.00349104)
(-0.00170058 -0.00264982 0.00169078)
(-0.00383198 -0.00212714 4.88648e-05)
(-0.00548293 -0.00152629 -0.00142059)
(-0.0066755 -0.00083189 -0.002735)
(-0.00742764 -3.85945e-05 -0.0039295)
(-0.00773581 0.000856494 -0.00504425)
(-0.00756986 0.00185275 -0.00611066)
(-0.00686481 0.00293216 -0.00714327)
(-0.00550833 0.00403644 -0.00814355)
(-0.00335733 0.00504886 -0.00910151)
(-0.000384439 0.00580588 -0.00995357)
(0.00303066 0.0061518 -0.0105234)
(0.00604795 0.00601237 -0.0105806)
(0.00652773 0.0047843 -0.00976751)
(0.00662848 0.0044285 -0.00874817)
(0.0057397 0.00414354 -0.00733313)
(0.004127 0.00395394 -0.00563448)
(0.00216283 0.0037896 -0.00379914)
(0.00018591 0.00356925 -0.00196159)
(-0.00157747 0.00323612 -0.000206766)
(-0.00301077 0.00275972 0.00142803)
(-0.00406305 0.00213054 0.00293325)
(-0.00470953 0.00135345 0.0043132)
(-0.00492962 0.000442385 0.00557793)
(-0.00469728 -0.000580549 0.00673582)
(-0.00397881 -0.00167932 0.00778757)
(-0.00273962 -0.00279163 0.00872368)
(-0.000974787 -0.00381419 0.00952026)
(0.00120878 -0.00460448 0.0101209)
(0.00349662 -0.0050294 0.0104251)
(0.00541128 -0.00505118 0.0103271)
(0.00652773 -0.0047843 0.00976751)
(0.00662848 -0.0044285 0.00874817)
(0.0057397 -0.00414354 0.00733313)
(0.004127 -0.00395394 0.00563448)
(0.00216283 -0.0037896 0.00379914)
(0.00018591 -0.00356925 0.00196159)
(-0.00157747 -0.00323612 0.000206766)
(-0.00301077 -0.00275972 -0.00142803)
(-0.00406305 -0.00213054 -0.00293325)
(-0.00470953 -0.00135345 -0.0043132)
(-0.00492962 -0.000442385 -0.00557793)
(-0.00469728 0.000580549 -0.00673582)
(-0.00397881 0.00167932 -0.00778757)
(-0.00273962 0.00279163 -0.00872368)
(-0.000974787 0.00381419 -0.00952026)
(0.00120878 0.00460448 -0.0101209)
(0.00349662 0.0050294 -0.0104251)
(0.00541128 0.00505118 -0.0103271)
(0.00531805 0.00434993 -0.00970837)
(0.00554337 0.00432021 -0.00881542)
(0.00533365 0.00431636 -0.00752044)
(0.00463762 0.00436876 -0.00590998)
(0.00350801 0.00443023 -0.00410911)
(0.00212177 0.00441476 -0.00224107)
(0.000713448 0.00424862 -0.000395642)
(-0.000519779 0.00389063 0.00137655)
(-0.00145388 0.0033267 0.00304579)
(-0.00201963 0.00256456 0.00458772)
(-0.00217722 0.00163184 0.00598119)
(-0.00190377 0.000572453 0.00720992)
(-0.00119806 -0.000557196 0.00826117)
(-0.000105689 -0.00168743 0.00912066)
(0.00124184 -0.00272567 0.00976669)
(0.00262577 -0.00355484 0.0101735)
(0.00383096 -0.00408157 0.0103228)
(0.00473799 -0.00431152 0.0101888)
(0.00531805 -0.00434993 0.00970837)
(0.00554337 -0.00432021 0.00881542)
(0.00533365 -0.00431636 0.00752044)
(0.00463762 -0.00436876 0.00590998)
(0.00350801 -0.00443023 0.00410911)
(0.00212177 -0.00441476 0.00224107)
(0.000713448 -0.00424862 0.000395642)
(-0.000519779 -0.00389063 -0.00137655)
(-0.00145388 -0.0033267 -0.00304579)
(-0.00201963 -0.00256456 -0.00458772)
(-0.00217722 -0.00163184 -0.00598119)
(-0.00190377 -0.000572453 -0.00720992)
(-0.00119806 0.000557196 -0.00826117)
(-0.000105689 0.00168743 -0.00912066)
(0.00124184 0.00272567 -0.00976669)
(0.00262577 0.00355484 -0.0101735)
(0.00383096 0.00408157 -0.0103228)
(0.00473799 0.00431152 -0.0101888)
(0.00754557 0.00594647 -0.00984342)
(0.00743146 0.00504324 -0.00878888)
(0.00585025 0.00415965 -0.0073446)
(0.00331933 0.00336639 -0.00564654)
(0.000487127 0.00264164 -0.00384845)
(-0.00214715 0.00194336 -0.00207905)
(-0.00434863 0.0012338 -0.000409074)
(-0.00606399 0.000475858 0.00113967)
(-0.00729634 -0.000360361 0.00256796)
(-0.00804413 -0.00129024 0.00388473)
(-0.00828803 -0.00231356 0.00510203)
(-0.00798903 -0.00341214 0.00623177)
(-0.00708203 -0.00453997 0.00728577)
(-0.005471 -0.00560862 0.00827746)
(-0.00307189 -0.00648318 0.00920163)
(1.76511e-05 -0.00701057 0.00997662)
(0.00331777 -0.00708238 0.0104315)
(0.00606087 -0.00669054 0.010406)
(0.00754557 -0.00594647 0.00984342)
(0.00743146 -0.00504324 0.00878888)
(0.00585025 -0.00415965 0.0073446)
(0.00331933 -0.00336639 0.00564654)
(0.000487127 -0.00264164 0.00384845)
(-0.00214715 -0.00194336 0.00207905)
(-0.00434863 -0.0012338 0.000409074)
(-0.00606399 -0.000475858 -0.00113967)
(-0.00729634 0.000360361 -0.00256796)
(-0.00804413 0.00129024 -0.00388473)
(-0.00828803 0.00231356 -0.00510203)
(-0.00798903 0.00341214 -0.00623177)
(-0.00708203 0.00453997 -0.00728577)
(-0.005471 0.00560862 -0.00827746)
(-0.00307189 0.00648318 -0.00920163)
(1.76512e-05 0.00701057 -0.00997662)
(0.00331777 0.00708238 -0.0104315)
(0.00606087 0.00669054 -0.010406)
(0.00648141 0.00520083 -0.00978506)
(0.00650598 0.00478322 -0.0088162)
(0.00559665 0.00436919 -0.00745017)
(0.00398574 0.00398494 -0.00579357)
(0.00201015 0.0035955 -0.00398956)
(-2.34528e-06 0.00315576 -0.00216735)
(-0.00181771 0.00263134 -0.000406375)
(-0.00330456 0.00199671 0.00125825)
(-0.00439492 0.00123692 0.00281129)
(-0.00504851 0.000352061 0.00424361)
(-0.005234 -0.000641382 0.00554993)
(-0.00492105 -0.00171036 0.00672854)
(-0.00407944 -0.00280258 0.00778011)
(-0.00269066 -0.00384071 0.00870495)
(-0.000790411 -0.00472039 0.00949029)
(0.00145032 -0.00532872 0.0100836)
(0.00368478 -0.00559088 0.0103885)
(0.0054818 -0.00551567 0.0103077)
(0.00648141 -0.00520083 0.00978506)
(0.00650598 -0.00478322 0.0088162)
(0.00559665 -0.00436919 0.00745017)
(0.00398574 -0.00398494 0.00579357)
(0.00201015 -0.0035955 0.00398956)
(-2.34527e-06 -0.00315576 0.00216735)
(-0.00181771 -0.00263134 0.000406375)
(-0.00330456 -0.00199671 -0.00125825)
(-0.00439492 -0.00123692 -0.00281129)
(-0.00504851 -0.000352061 -0.00424361)
(-0.005234 0.000641382 -0.00554993)
(-0.00492105 0.00171036 -0.00672854)
(-0.00407944 0.00280258 -0.00778011)
(-0.00269066 0.00384071 -0.00870495)
(-0.000790411 0.00472039 -0.00949029)
(0.00145032 0.00532872 -0.0100836)
(0.00368478 0.00559088 -0.0103885)
(0.0054818 0.00551567 -0.0103077)
(0.00543689 0.00473636 -0.0100103)
(0.00563297 0.004809 -0.00909082)
(0.00540052 0.00481183 -0.00772892)
(0.0047006 0.00475268 -0.00605127)
(0.003573 0.00461852 -0.00420945)
(0.00217369 0.00437868 -0.00232787)
(0.000731883 0.00400355 -0.000485212)
(-0.000543144 0.00347368 0.00127868)
(-0.0015117 0.00278097 0.00293992)
(-0.00209332 0.00193355 0.00447506)
(-0.0022427 0.00095973 0.00586181)
(-0.00193718 -9.36034e-05 0.00708414)
(-0.00118245 -0.0011657 0.00813399)
(-3.91985e-05 -0.00218648 0.00900892)
(0.00134215 -0.00308159 0.00970527)
(0.00273849 -0.00378641 0.010209)
(0.00394974 -0.00427397 0.0104838)
(0.00486437 -0.00457201 0.0104526)
(0.00543689 -0.00473636 0.0100103)
(0.00563297 -0.004809 0.00909082)
(0.00540052 -0.00481183 0.00772892)
(0.0047006 -0.00475268 0.00605127)
(0.003573 -0.00461852 0.00420945)
(0.00217369 -0.00437868 0.00232787)
(0.000731883 -0.00400355 0.000485212)
(-0.000543144 -0.00347368 -0.00127868)
(-0.0015117 -0.00278097 -0.00293992)
(-0.00209332 -0.00193355 -0.00447506)
(-0.0022427 -0.00095973 -0.00586181)
(-0.00193718 9.36034e-05 -0.00708414)
(-0.00118245 0.0011657 -0.00813399)
(-3.91985e-05 0.00218648 -0.00900892)
(0.00134215 0.00308159 -0.00970527)
(0.00273849 0.00378641 -0.010209)
(0.00394974 0.00427397 -0.0104838)
(0.00486437 0.00457201 -0.0104526)
(0.00642631 0.00600931 -0.00920169)
(0.00629163 0.0049134 -0.00834137)
(0.00487594 0.00381713 -0.00713362)
(0.00258749 0.00278947 -0.00566387)
(-3.3672e-05 0.00183154 -0.00404836)
(-0.0025338 0.00092049 -0.00240436)
(-0.00466628 2.96298e-05 -0.000808485)
(-0.00634935 -0.000874539 0.000708439)
(-0.00756035 -0.00182585 0.00213634)
(-0.00827655 -0.00284382 0.00346776)
(-0.00846373 -0.00392374 0.00469547)
(-0.00807792 -0.00503098 0.00581714)
(-0.00706496 -0.00609552 0.00684092)
(-0.00536809 -0.00700904 0.00778142)
(-0.00298486 -0.00763677 0.00862814)
(-0.000100083 -0.00785761 0.00930335)
(0.00282775 -0.00761969 0.00968011)
(0.00518299 -0.00696418 0.00965676)
(0.00642631 -0.00600931 0.00920169)
(0.00629163 -0.0049134 0.00834137)
(0.00487594 -0.00381713 0.00713362)
(0.00258749 -0.00278947 0.00566387)
(-3.3672e-05 -0.00183154 0.00404836)
(-0.0025338 -0.00092049 0.00240436)
(-0.00466628 -2.96298e-05 0.000808485)
(-0.00634935 0.000874539 -0.000708439)
(-0.00756035 0.00182585 -0.00213634)
(-0.00827655 0.00284382 -0.00346776)
(-0.00846373 0.00392374 -0.00469547)
(-0.00807792 0.00503098 -0.00581714)
(-0.00706496 0.00609552 -0.00684092)
(-0.00536809 0.00700904 -0.00778142)
(-0.00298486 0.00763677 -0.00862814)
(-0.000100083 0.00785761 -0.00930335)
(0.00282775 0.00761969 -0.00968011)
(0.00518299 0.00696418 -0.00965676)
(0.00564058 0.00529679 -0.00924334)
(0.00563527 0.00475721 -0.00840409)
(0.00480784 0.00418749 -0.00719658)
(0.0033461 0.00360897 -0.00570506)
(0.00152749 0.00300815 -0.00404952)
(-0.000362653 0.00236564 -0.00234658)
(-0.0021011 0.00166607 -0.000675364)
(-0.00354553 0.000893404 0.000924791)
(-0.00461001 3.36773e-05 0.00243328)
(-0.0052379 -0.000914507 0.00383271)
(-0.00538761 -0.00193229 0.00510784)
(-0.00502743 -0.00297799 0.00624978)
(-0.00413781 -0.00398696 0.00725836)
(-0.00272795 -0.00487376 0.00813771)
(-0.00087796 -0.00554334 0.00887845)
(0.00120986 -0.00591813 0.0094348)
(0.00321632 -0.00597018 0.0097284)
(0.00478801 -0.00573456 0.00968108)
(0.00564058 -0.00529679 0.00924334)
(0.00563527 -0.00475721 0.00840409)
(0.00480784 -0.00418749 0.00719658)
(0.0033461 -0.00360897 0.00570506)
(0.00152749 -0.00300815 0.00404952)
(-0.000362653 -0.00236564 0.00234658)
(-0.0021011 -0.00166607 0.000675364)
(-0.00354553 -0.000893404 -0.000924791)
(-0.00461001 -3.36773e-05 -0.00243328)
(-0.0052379 0.000914507 -0.00383271)
(-0.00538761 0.00193229 -0.00510784)
(-0.00502743 0.00297799 -0.00624978)
(-0.00413781 0.00398696 -0.00725836)
(-0.00272795 0.00487376 -0.00813771)
(-0.00087796 0.00554334 -0.00887845)
(0.00120986 0.00591813 -0.0094348)
(0.00321632 0.00597018 -0.0097284)
(0.00478801 0.00573456 -0.00968108)
(0.00483024 0.00488318 -0.00966145)
(0.00498897 0.00492609 -0.00880459)
(0.00476365 0.0048518 -0.00751942)
(0.00412618 0.00465474 -0.00593426)
(0.00310376 0.00433706 -0.00419372)
(0.00181677 0.00390071 -0.00241254)
(0.000462354 0.00334739 -0.000663732)
(-0.000757289 0.00267745 0.00101378)
(-0.00169252 0.00189124 0.00259639)
(-0.00225155 0.000998954 0.0040614)
(-0.00238348 2.8841e-05 0.00538714)
(-0.00206779 -0.000971989 0.00655883)
(-0.00132045 -0.00194265 0.00757205)
(-0.000217648 -0.00281825 0.00843095)
(0.00108385 -0.00354493 0.00913883)
(0.00237862 -0.0040968 0.00968268)
(0.00349159 -0.00448293 0.0100154)
(0.00432267 -0.00473596 0.0100452)
(0.00483024 -0.00488318 0.00966145)
(0.00498897 -0.00492609 0.00880459)
(0.00476365 -0.0048518 0.00751942)
(0.00412618 -0.00465474 0.00593426)
(0.00310376 -0.00433706 0.00419372)
(0.00181677 -0.00390071 0.00241254)
(0.000462354 -0.00334739 0.000663732)
(-0.000757289 -0.00267745 -0.00101378)
(-0.00169252 -0.00189124 -0.00259639)
(-0.00225155 -0.000998954 -0.0040614)
(-0.00238348 -2.8841e-05 -0.00538714)
(-0.00206779 0.000971989 -0.00655883)
(-0.00132045 0.00194265 -0.00757205)
(-0.000217648 0.00281825 -0.00843095)
(0.00108385 0.00354493 -0.00913883)
(0.00237862 0.0040968 -0.00968268)
(0.00349159 0.00448293 -0.0100154)
(0.00432267 0.00473596 -0.0100452)
(0.00466267 0.005871 -0.0082781)
(0.00459878 0.00457947 -0.00766145)
(0.00346611 0.00327667 -0.00673933)
(0.00155099 0.00203363 -0.00555515)
(-0.000731075 0.000867793 -0.0041868)
(-0.00298943 -0.000231201 -0.00273432)
(-0.00497038 -0.00128233 -0.00128106)
(-0.00655862 -0.00231134 0.00012808)
(-0.0077052 -0.0033465 0.00147299)
(-0.00837204 -0.00440413 0.00273819)
(-0.00851783 -0.00547412 0.00390776)
(-0.00810196 -0.0065118 0.00497189)
(-0.00709058 -0.00743629 0.00593367)
(-0.00547241 -0.00813736 0.00680203)
(-0.00330809 -0.00849696 0.00756428)
(-0.00080645 -0.00842954 0.00816416)
(0.00165368 -0.00792041 0.00851999)
(0.00361047 -0.00702996 0.00856646)
(0.00466267 -0.005871 0.0082781)
(0.00459878 -0.00457947 0.00766145)
(0.00346611 -0.00327667 0.00673933)
(0.00155099 -0.00203363 0.00555515)
(-0.000731075 -0.000867793 0.0041868)
(-0.00298943 0.000231201 0.00273432)
(-0.00497038 0.00128233 0.00128106)
(-0.00655862 0.00231134 -0.00012808)
(-0.0077052 0.0033465 -0.00147299)
(-0.00837204 0.00440413 -0.00273819)
(-0.00851783 0.00547412 -0.00390776)
(-0.00810196 0.0065118 -0.00497189)
(-0.00709058 0.00743629 -0.00593367)
(-0.00547241 0.00813736 -0.00680203)
(-0.00330809 0.00849696 -0.00756428)
(-0.00080645 0.00842954 -0.00816416)