/*--------------------------------*- C++ -*----------------------------------*\
| =========                 |                                                 |
| \\      /  F ield         | OpenFOAM: The Open Source CFD Toolbox           |
|  \\    /   O peration     | Version:  2312                                  |
|   \\  /    A nd           | Website:  www.openfoam.com                      |
|    \\/     M anipulation  |                                                 |
\*---------------------------------------------------------------------------*/
FoamFile
{
    version     2.0;
    format      ascii;
    arch        "LSB;label=32;scalar=64";
    class       volVectorField;
    location    "0.6";
    object      D_0_0;
}
// * * * * * * * * * * * * * * * * * * * * * * * * * * * * * * * * * * * * * //

dimensions      [0 1 0 0 0 0 0];

internalField   nonuniform List<vector> 
1620
(
(0.000776504 0.000197554 -0.00198307)
(0.00100896 0.000404852 -0.00182199)
(0.00101453 0.000618195 -0.00143655)
(0.000845831 0.000726284 -0.000928259)
(0.000598761 0.000708005 -0.000418997)
(0.000342685 0.000599106 9.65375e-06)
(0.000109171 0.000443118 0.000326014)
(-9.32985e-05 0.000271617 0.00053351)
(-0.000265728 0.000104314 0.00065497)
(-0.000410753 -4.75825e-05 0.000722521)
(-0.000528338 -0.000179683 0.000770778)
(-0.000613663 -0.000291704 0.000831133)
(-0.000656888 -0.000380774 0.000926991)
(-0.000643779 -0.000432572 0.00107093)
(-0.000554351 -0.000420669 0.00126419)
(-0.000360151 -0.000329229 0.00149536)
(-3.75971e-05 -0.000194591 0.00173386)
(0.000382151 -0.000119391 0.00192413)
(0.000776504 -0.000197554 0.00198307)
(0.00100896 -0.000404852 0.00182199)
(0.00101453 -0.000618195 0.00143655)
(0.000845831 -0.000726284 0.000928259)
(0.000598761 -0.000708005 0.000418997)
(0.000342685 -0.000599106 -9.65375e-06)
(0.000109171 -0.000443118 -0.000326014)
(-9.32985e-05 -0.000271617 -0.00053351)
(-0.000265728 -0.000104314 -0.00065497)
(-0.000410753 4.75825e-05 -0.000722521)
(-0.000528338 0.000179683 -0.000770778)
(-0.000613663 0.000291704 -0.000831133)
(-0.000656888 0.000380774 -0.000926991)
(-0.000643779 0.000432572 -0.00107093)
(-0.000554351 0.000420669 -0.00126419)
(-0.000360151 0.000329229 -0.00149536)
(-3.75971e-05 0.000194591 -0.00173386)
(0.000382151 0.000119391 -0.00192413)
(0.000384186 0.000523522 -0.00168521)
(0.000470667 0.000542211 -0.00150273)
(0.000460048 0.000589299 -0.00123742)
(0.000356869 0.000642599 -0.000916841)
(0.000189423 0.000680981 -0.000578645)
(-6.42772e-06 0.000694831 -0.000254641)
(-0.000200383 0.000681393 3.64006e-05)
(-0.000371311 0.000640952 0.000289023)
(-0.000506273 0.000575174 0.000508451)
(-0.000597948 0.000485085 0.000706657)
(-0.000641842 0.000369161 0.000897225)
(-0.000634909 0.000224018 0.00108955)
(-0.0005767 4.95207e-05 0.00128379)
(-0.000472089 -0.000142701 0.00146885)
(-0.000331403 -0.00032374 0.00162619)
(-0.000164084 -0.00045566 0.00173795)
(2.5883e-05 -0.000516596 0.00179158)
(0.000223206 -0.000524592 0.0017773)
(0.000384186 -0.000523522 0.00168521)
(0.000470667 -0.000542211 0.00150273)
(0.000460048 -0.000589299 0.00123742)
(0.000356869 -0.000642599 0.000916841)
(0.000189423 -0.000680981 0.000578645)
(-6.42772e-06 -0.000694831 0.000254641)
(-0.000200383 -0.000681393 -3.64006e-05)
(-0.000371311 -0.000640952 -0.000289023)
(-0.000506273 -0.000575174 -0.000508451)
(-0.000597948 -0.000485085 -0.000706657)
(-0.000641842 -0.000369161 -0.000897225)
(-0.000634909 -0.000224018 -0.00108955)
(-0.0005767 -4.95207e-05 -0.00128379)
(-0.000472089 0.000142701 -0.00146885)
(-0.000331403 0.00032374 -0.00162619)
(-0.000164084 0.00045566 -0.00173795)
(2.5883e-05 0.000516596 -0.00179158)
(0.000223206 0.000524592 -0.0017773)
(8.33307e-05 0.00068994 -0.00143014)
(7.72641e-05 0.000587726 -0.00124992)
(5.56998e-05 0.000530176 -0.00108264)
(-1.09794e-06 0.000561599 -0.000907943)
(-0.000110956 0.000669745 -0.000702965)
(-0.000267781 0.000812833 -0.000458044)
(-0.000445134 0.000946944 -0.00017707)
(-0.000610546 0.00103955 0.000128976)
(-0.000736602 0.00107107 0.000448088)
(-0.00080473 0.00103106 0.000769436)
(-0.000804568 0.0009144 0.00108199)
(-0.000733385 0.000720231 0.00137153)
(-0.000598285 0.000454285 0.00161818)
(-0.000420332 0.000134597 0.0017971)
(-0.000234851 -0.000201898 0.00188527)
(-8.02756e-05 -0.000498191 0.00187355)
(2.13322e-05 -0.000691691 0.00177432)
(7.10208e-05 -0.000748057 0.00161527)
(8.33307e-05 -0.00068994 0.00143014)
(7.72641e-05 -0.000587726 0.00124992)
(5.56998e-05 -0.000530176 0.00108264)
(-1.09794e-06 -0.000561599 0.000907943)
(-0.000110956 -0.000669745 0.000702965)
(-0.000267781 -0.000812833 0.000458044)
(-0.000445134 -0.000946944 0.00017707)
(-0.000610546 -0.00103955 -0.000128976)
(-0.000736602 -0.00107107 -0.000448088)
(-0.00080473 -0.00103106 -0.000769436)
(-0.000804568 -0.0009144 -0.00108199)
(-0.000733385 -0.000720231 -0.00137153)
(-0.000598285 -0.000454285 -0.00161818)
(-0.000420332 -0.000134597 -0.0017971)
(-0.000234851 0.000201898 -0.00188527)
(-8.02756e-05 0.000498191 -0.00187355)
(2.13322e-05 0.000691691 -0.00177432)
(7.10208e-05 0.000748057 -0.00161527)
(0.00238238 0.00115935 -0.00514132)
(0.00291602 0.00141612 -0.00453252)
(0.00275525 0.00167876 -0.0035315)
(0.00209614 0.0018131 -0.00235667)
(0.0012264 0.00180298 -0.00120671)
(0.000352253 0.0016801 -0.000208487)
(-0.000424522 0.00147625 0.000585659)
(-0.00107234 0.00121763 0.00117917)
(-0.00159296 0.000927385 0.00161361)
(-0.00199553 0.000621105 0.00195319)
(-0.00228072 0.000300695 0.00226831)
(-0.00243285 -4.38812e-05 0.00261807)
(-0.00241912 -0.000419159 0.00303525)
(-0.0021956 -0.000800738 0.00351919)
(-0.00171779 -0.00111127 0.0040426)
(-0.000952421 -0.00124694 0.00456469)
(9.82001e-05 -0.00118434 0.00501545)
(0.00131831 -0.00107734 0.00525536)
(0.00238238 -0.00115935 0.00514132)
(0.00291602 -0.00141612 0.00453252)
(0.00275525 -0.00167876 0.0035315)
(0.00209614 -0.0018131 0.00235667)
(0.0012264 -0.00180298 0.00120671)
(0.000352253 -0.0016801 0.000208487)
(-0.000424522 -0.00147625 -0.000585659)
(-0.00107234 -0.00121763 -0.00117917)
(-0.00159296 -0.000927385 -0.00161361)
(-0.00199553 -0.000621105 -0.00195319)
(-0.00228072 -0.000300695 -0.00226831)
(-0.00243285 4.38812e-05 -0.00261807)
(-0.00241912 0.000419159 -0.00303525)
(-0.0021956 0.000800738 -0.00351919)
(-0.00171779 0.00111127 -0.0040426)
(-0.000952421 0.00124694 -0.00456469)
(9.82001e-05 0.00118434 -0.00501545)
(0.00131831 0.00107734 -0.00525536)
(0.00163182 0.00162821 -0.00478777)
(0.00192584 0.00159439 -0.00427155)
(0.00184279 0.00164818 -0.00353489)
(0.00142162 0.00174655 -0.00265377)
(0.000797661 0.00184462 -0.00171357)
(0.000107384 0.00190124 -0.000791619)
(-0.000549093 0.00188539 5.74669e-05)
(-0.0011111 0.00178316 0.000809594)
(-0.00154756 0.00159513 0.00146999)
(-0.0018435 0.00132639 0.00206397)
(-0.00198863 0.000978202 0.00262312)
(-0.00197148 0.000547539 0.00317083)
(-0.00178106 3.71545e-05 0.00370997)
(-0.00141613 -0.000525219 0.0042167)
(-0.000897568 -0.00106793 0.00464568)
(-0.000271284 -0.00148223 0.00494934)
(0.000407795 -0.00168331 0.00509552)
(0.00107957 -0.00168868 0.00505335)
(0.00163182 -0.00162821 0.00478777)
(0.00192584 -0.00159439 0.00427155)
(0.00184279 -0.00164818 0.00353489)
(0.00142162 -0.00174655 0.00265377)
(0.000797661 -0.00184462 0.00171357)
(0.000107384 -0.00190124 0.000791619)
(-0.000549093 -0.00188539 -5.74669e-05)
(-0.0011111 -0.00178316 -0.000809594)
(-0.00154756 -0.00159513 -0.00146999)
(-0.0018435 -0.00132639 -0.00206397)
(-0.00198863 -0.000978202 -0.00262312)
(-0.00197148 -0.000547539 -0.00317083)
(-0.00178106 -3.71545e-05 -0.00370997)
(-0.00141613 0.000525218 -0.0042167)
(-0.000897568 0.00106793 -0.00464568)
(-0.000271284 0.00148223 -0.00494934)
(0.000407795 0.00168331 -0.00509552)
(0.00107957 0.00168868 -0.00505335)
(0.000975922 0.00190402 -0.00435554)
(0.00108773 0.00166384 -0.00394815)
(0.00107752 0.00156213 -0.00346927)
(0.000873839 0.00164404 -0.00286839)
(0.000476655 0.00185649 -0.00213204)
(-4.7971e-05 0.00209981 -0.00128978)
(-0.000605196 0.00228202 -0.000393712)
(-0.00110696 0.00234476 0.000507963)
(-0.00148905 0.00226081 0.00138381)
(-0.00171112 0.00202185 0.00221638)
(-0.00175046 0.00162986 0.00299333)
(-0.00159859 0.001095 0.00369905)
(-0.00126523 0.000438882 0.00430832)
(-0.000790006 -0.000296732 0.00478274)
(-0.000254054 -0.00103621 0.00507428)
(0.000230948 -0.00166131 0.00514578)
(0.000580853 -0.00203662 0.00500755)
(0.00080674 -0.00208808 0.00472479)
(0.000975922 -0.00190402 0.00435554)
(0.00108773 -0.00166384 0.00394815)
(0.00107752 -0.00156213 0.00346927)
(0.000873839 -0.00164404 0.00286839)
(0.000476655 -0.00185649 0.00213204)
(-4.7971e-05 -0.00209981 0.00128978)
(-0.000605196 -0.00228202 0.000393712)
(-0.00110696 -0.00234476 -0.000507963)
(-0.00148905 -0.00226081 -0.00138381)
(-0.00171112 -0.00202185 -0.00221638)
(-0.00175046 -0.00162986 -0.00299333)
(-0.00159859 -0.001095 -0.00369905)
(-0.00126523 -0.000438882 -0.00430832)
(-0.000790006 0.000296732 -0.00478274)
(-0.000254054 0.00103621 -0.00507428)
(0.000230948 0.00166131 -0.00514578)
(0.000580853 0.00203662 -0.00500755)
(0.00080674 0.00208808 -0.00472479)
(0.0046707 0.00273914 -0.00768705)
(0.00515188 0.00281896 -0.00672135)
(0.00444378 0.00285152 -0.00527113)
(0.00301734 0.00280529 -0.00362972)
(0.00134606 0.00268825 -0.002032)
(-0.000251605 0.00249771 -0.000614277)
(-0.00162195 0.00222604 0.00056556)
(-0.00272322 0.00187777 0.00150904)
(-0.0035657 0.00146873 0.00226304)
(-0.00416881 0.00101175 0.00290334)
(-0.00453711 0.000504426 0.00351264)
(-0.00464939 -6.91016e-05 0.00415667)
(-0.00445557 -0.000718959 0.00486528)
(-0.00387847 -0.00141703 0.0056272)
(-0.00282613 -0.00206761 0.00640291)
(-0.00123923 -0.00252329 0.00714073)
(0.000802864 -0.00269681 0.00774986)
(0.0029639 -0.00268965 0.00800866)
(0.0046707 -0.00273914 0.00768705)
(0.00515188 -0.00281896 0.00672135)
(0.00444378 -0.00285152 0.00527113)
(0.00301734 -0.00280529 0.00362972)
(0.00134606 -0.00268825 0.002032)
(-0.000251605 -0.00249771 0.000614277)
(-0.00162195 -0.00222604 -0.00056556)
(-0.00272322 -0.00187777 -0.00150904)
(-0.0035657 -0.00146873 -0.00226304)
(-0.00416881 -0.00101175 -0.00290334)
(-0.00453711 -0.000504426 -0.00351264)
(-0.00464939 6.91016e-05 -0.00415667)
(-0.00445557 0.000718959 -0.00486528)
(-0.00387847 0.00141703 -0.0056272)
(-0.00282613 0.00206761 -0.00640291)
(-0.00123923 0.00252329 -0.00714073)
(0.000802864 0.00269681 -0.00774986)
(0.0029639 0.00268965 -0.00800866)
(0.00357178 0.00282892 -0.00724116)
(0.00390017 0.00271273 -0.00644948)
(0.00352419 0.00268574 -0.00535726)
(0.00261863 0.00274517 -0.00405571)
(0.00143361 0.00283627 -0.00265538)
(0.000193126 0.00288143 -0.00126494)
(-0.000945399 0.00281989 3.44919e-05)
(-0.00189356 0.00262516 0.0012045)
(-0.00261199 0.00229698 0.00224687)
(-0.00308484 0.00184407 0.00318959)
(-0.00330034 0.00127225 0.00406853)
(-0.00324132 0.000584131 0.00490979)
(-0.0028851 -0.000209137 0.00571627)
(-0.00221205 -0.0010668 0.00646151)
(-0.00122329 -0.00189559 0.00709309)
(3.22798e-05 -0.00255013 0.00754612)
(0.00142278 -0.00290301 0.0077611)
(0.00269329 -0.00295021 0.00768031)
(0.00357178 -0.00282892 0.00724116)
(0.00390017 -0.00271273 0.00644948)
(0.00352419 -0.00268574 0.00535726)
(0.00261863 -0.00274517 0.00405571)
(0.00143361 -0.00283627 0.00265538)
(0.000193126 -0.00288143 0.00126494)
(-0.000945399 -0.00281989 -3.44919e-05)
(-0.00189356 -0.00262516 -0.0012045)
(-0.00261199 -0.00229698 -0.00224687)
(-0.00308484 -0.00184407 -0.00318959)
(-0.00330034 -0.00127225 -0.00406853)
(-0.00324132 -0.000584131 -0.00490979)
(-0.0028851 0.000209137 -0.00571627)
(-0.00221205 0.0010668 -0.00646151)
(-0.00122329 0.00189559 -0.00709309)
(3.22798e-05 0.00255013 -0.00754612)
(0.00142278 0.00290301 -0.0077611)
(0.00269329 0.00295021 -0.00768031)
(0.00260215 0.00283399 -0.00667375)
(0.00282051 0.00256379 -0.00609693)
(0.00274364 0.00247086 -0.00533525)
(0.00232516 0.00259452 -0.00434736)
(0.00160672 0.00285785 -0.00314687)
(0.000709799 0.00312386 -0.00180778)
(-0.000212313 0.00327429 -0.000421885)
(-0.00102802 0.00324235 0.000940299)
(-0.00164878 0.00300317 0.00223808)
(-0.0020221 0.00255585 0.00344963)
(-0.00211807 0.001914 0.00455982)
(-0.00192243 0.00110303 0.00555218)
(-0.00144002 0.000161769 0.00640292)
(-0.000709845 -0.000849787 0.00707462)
(0.000174282 -0.00183313 0.0075123)
(0.00106073 -0.00263635 0.00765771)
(0.00178584 -0.0030899 0.00750075)
(0.00226055 -0.00311383 0.00713613)
(0.00260215 -0.00283399 0.00667375)
(0.00282051 -0.00256379 0.00609693)
(0.00274364 -0.00247086 0.00533525)
(0.00232516 -0.00259452 0.00434736)
(0.00160672 -0.00285785 0.00314687)
(0.000709799 -0.00312386 0.00180778)
(-0.000212313 -0.00327429 0.000421885)
(-0.00102802 -0.00324235 -0.000940299)
(-0.00164878 -0.00300317 -0.00223808)
(-0.0020221 -0.00255585 -0.00344963)
(-0.00211807 -0.001914 -0.00455982)
(-0.00192243 -0.00110303 -0.00555218)
(-0.00144002 -0.000161769 -0.00640292)
(-0.000709845 0.000849787 -0.00707462)
(0.000174282 0.00183313 -0.0075123)
(0.00106073 0.00263635 -0.00765771)
(0.00178584 0.0030899 -0.00750075)
(0.00226055 0.00311383 -0.00713613)
(0.00673389 0.00436874 -0.00926717)
(0.00691882 0.00397621 -0.00810651)
(0.00562796 0.00364431 -0.00647316)
(0.0034871 0.00336964 -0.00463615)
(0.00110701 0.00310354 -0.00281043)
(-0.00109808 0.00279698 -0.00113403)
(-0.00293977 0.00241715 0.000328103)
(-0.00438005 0.00195148 0.00157002)
(-0.00544045 0.00140323 0.00262825)
(-0.0061465 0.000777778 0.0035657)
(-0.00650374 7.10358e-05 0.00445138)
(-0.00648839 -0.00072877 0.00533824)
(-0.0060415 -0.00162365 0.00624764)
(-0.00506183 -0.0025785 0.00716894)
(-0.00341432 -0.00349858 0.00807197)
(-0.00101669 -0.00423836 0.00890293)
(0.00194741 -0.00465757 0.0095403)
(0.00484875 -0.00468135 0.00975217)
(0.00673389 -0.00436874 0.00926717)
(0.00691882 -0.00397621 0.00810651)
(0.00562796 -0.00364431 0.00647316)
(0.0034871 -0.00336964 0.00463615)
(0.00110701 -0.00310354 0.00281043)
(-0.00109808 -0.00279698 0.00113403)
(-0.00293977 -0.00241715 -0.000328103)
(-0.00438005 -0.00195148 -0.00157002)
(-0.00544045 -0.00140323 -0.00262825)
(-0.0061465 -0.000777778 -0.0035657)
(-0.00650374 -7.10358e-05 -0.00445138)
(-0.00648839 0.00072877 -0.00533824)
(-0.0060415 0.00162365 -0.00624764)
(-0.00506183 0.0025785 -0.00716894)
(-0.00341432 0.00349858 -0.00807197)
(-0.00101669 0.00423836 -0.00890293)
(0.00194741 0.00465757 -0.0095403)
(0.00484875 0.00468135 -0.00975217)
(0.00546624 0.00392661 -0.00884572)
(0.00562028 0.00364868 -0.00788826)
(0.00488979 0.00349722 -0.00657955)
(0.00353353 0.00346572 -0.00501388)
(0.00186642 0.00346909 -0.00332168)
(0.000174065 0.00341444 -0.00163267)
(-0.00134571 0.00323695 -3.78853e-05)
(-0.00258802 0.00290785 0.00142081)
(-0.00350955 0.00242476 0.00274026)
(-0.00409339 0.00179664 0.00394038)
(-0.00432585 0.00103374 0.00504842)
(-0.00418582 0.000147289 0.00608438)
(-0.00364337 -0.000841222 0.00705031)
(-0.00266655 -0.0018831 0.00792612)
(-0.00124257 -0.00288285 0.00867032)
(0.00057198 -0.00369342 0.00921984)
(0.00257276 -0.00415849 0.00948957)
(0.00435998 -0.00419781 0.00938667)
(0.00546624 -0.00392661 0.00884572)
(0.00562028 -0.00364868 0.00788826)
(0.00488979 -0.00349722 0.00657955)
(0.00353353 -0.00346572 0.00501388)
(0.00186642 -0.00346909 0.00332168)
(0.000174065 -0.00341444 0.00163267)
(-0.00134571 -0.00323695 3.78853e-05)
(-0.00258802 -0.00290785 -0.00142081)
(-0.00350955 -0.00242476 -0.00274026)
(-0.00409339 -0.00179664 -0.00394038)
(-0.00432585 -0.00103374 -0.00504842)
(-0.00418582 -0.000147289 -0.00608438)
(-0.00364337 0.000841222 -0.00705031)
(-0.00266655 0.0018831 -0.00792612)
(-0.00124257 0.00288285 -0.00867032)
(0.00057198 0.00369342 -0.00921984)
(0.00257276 0.00415849 -0.00948957)
(0.00435998 0.00419781 -0.00938667)
(0.00424707 0.00367309 -0.00844623)
(0.00444341 0.00347176 -0.00769777)
(0.00426759 0.00341203 -0.00665318)
(0.00367062 0.0035237 -0.00531417)
(0.00269875 0.00372555 -0.00374986)
(0.00150721 0.00388868 -0.00206982)
(0.000296481 0.00390547 -0.000376456)
(-0.000765538 0.00371796 0.00126234)
(-0.00157145 0.00330745 0.0028085)
(-0.00206029 0.00267971 0.0042388)
(-0.00219701 0.00185776 0.00553599)
(-0.0019621 0.00087821 0.00668486)
(-0.0013555 -0.000210304 0.00766788)
(-0.00041697 -0.00134217 0.00845809)
(0.000743822 -0.00241726 0.00901246)
(0.00194359 -0.00328575 0.00928167)
(0.00299 -0.00378838 0.00924655)
(0.00376235 -0.00387076 0.00894768)
(0.00424707 -0.00367309 0.00844623)
(0.00444341 -0.00347176 0.00769777)
(0.00426759 -0.00341203 0.00665318)
(0.00367062 -0.0035237 0.00531417)
(0.00269875 -0.00372555 0.00374986)
(0.00150721 -0.00388868 0.00206982)
(0.000296481 -0.00390547 0.000376456)
(-0.000765538 -0.00371796 -0.00126234)
(-0.00157145 -0.00330745 -0.0028085)
(-0.00206029 -0.00267971 -0.0042388)
(-0.00219701 -0.00185776 -0.00553599)
(-0.0019621 -0.00087821 -0.00668486)
(-0.0013555 0.000210304 -0.00766788)
(-0.00041697 0.00134217 -0.00845809)
(0.000743822 0.00241726 -0.00901246)
(0.00194359 0.00328575 -0.00928167)
(0.00299 0.00378838 -0.00924655)
(0.00376235 0.00387076 -0.00894768)
(0.00755607 0.00545133 -0.00983658)
(0.00756823 0.00474646 -0.00868167)
(0.00603229 0.00409006 -0.0070949)
(0.00353515 0.00353736 -0.00527157)
(0.000765131 0.0030432 -0.00340005)
(-0.00178393 0.00254923 -0.00161849)
(-0.00389418 0.00201155 2.8191e-06)
(-0.00552719 0.00140069 0.00144873)
(-0.00670415 0.000701831 0.00273721)
(-0.00744395 -9.02948e-05 0.0039046)
(-0.00774407 -0.000978554 0.00499237)
(-0.00757475 -0.00196213 0.00603318)
(-0.00687088 -0.00302288 0.00704286)
(-0.00552099 -0.00410304 0.00802376)
(-0.00338721 -0.00508803 0.00896515)
(-0.000452721 -0.00581865 0.00980184)
(0.00290091 -0.0061445 0.0103594)
(0.00585411 -0.00599452 0.0104125)
(0.00755607 -0.00545133 0.00983658)
(0.00756823 -0.00474646 0.00868167)
(0.00603229 -0.00409006 0.0070949)
(0.00353515 -0.00353736 0.00527157)
(0.000765131 -0.0030432 0.00340005)
(-0.00178393 -0.00254923 0.00161849)
(-0.00389418 -0.00201155 -2.8191e-06)
(-0.00552719 -0.00140069 -0.00144873)
(-0.00670415 -0.000701831 -0.00273721)
(-0.00744395 9.02948e-05 -0.0039046)
(-0.00774407 0.000978554 -0.00499237)
(-0.00757475 0.00196213 -0.00603318)
(-0.00687088 0.00302288 -0.00704286)
(-0.00552099 0.00410304 -0.00802376)
(-0.00338721 0.00508803 -0.00896515)
(-0.000452721 0.00581865 -0.00980184)
(0.00290091 0.0061445 -0.0103594)
(0.00585411 0.00599452 -0.0104125)
(0.00630412 0.00477018 -0.00960911)
(0.00639864 0.00440046 -0.00860161)
(0.00552525 0.00409603 -0.00720537)
(0.0039423 0.00388348 -0.00552939)
(0.0020121 0.00369682 -0.00371698)
(6.6005e-05 0.0034573 -0.00190135)
(-0.00167196 0.00310931 -0.000168771)
(-0.00308477 0.00262317 0.00144198)
(-0.00412087 0.00198988 0.00292134)
(-0.0047554 0.00121452 0.00427474)
(-0.00496807 0.000310864 0.00551375)
(-0.00473328 -0.000699322 0.00664813)
(-0.0040182 -0.00178054 0.00767971)
(-0.00278999 -0.00287133 0.00859946)
(-0.00104707 -0.00386987 0.00938272)
(0.00110089 -0.00463638 0.00997185)
(0.00334347 -0.00504131 0.010267)
(0.00521546 -0.00504865 0.0101652)
(0.00630412 -0.00477018 0.00960911)
(0.00639864 -0.00440046 0.00860161)
(0.00552525 -0.00409603 0.00720537)
(0.0039423 -0.00388348 0.00552939)
(0.0020121 -0.00369682 0.00371698)
(6.6005e-05 -0.0034573 0.00190135)
(-0.00167196 -0.00310931 0.000168771)
(-0.00308477 -0.00262317 -0.00144198)
(-0.00412087 -0.00198988 -0.00292134)
(-0.0047554 -0.00121452 -0.00427474)
(-0.00496807 -0.000310864 -0.00551375)
(-0.00473328 0.000699322 -0.00664813)
(-0.0040182 0.00178054 -0.00767971)
(-0.00278999 0.00287133 -0.00859946)
(-0.00104707 0.00386987 -0.00938272)
(0.00110089 0.00463638 -0.00997185)
(0.00334347 0.00504131 -0.010267)
(0.00521546 0.00504865 -0.0101652)
(0.00510204 0.00433579 -0.00955066)
(0.00531363 0.00428544 -0.0086686)
(0.00510136 0.00425962 -0.0073947)
(0.00441862 0.00428899 -0.00581072)
(0.00331636 0.00432842 -0.00403664)
(0.00196313 0.00429434 -0.00219313)
(0.000584902 0.00411413 -0.000370635)
(-0.000624591 0.00374702 0.00137812)
(-0.00154105 0.00317952 0.00302262)
(-0.00209431 0.0024197 0.00453948)
(-0.00224422 0.00149492 0.00590919)
(-0.00196855 0.000448296 0.00711703)
(-0.00126786 -0.000664885 0.00815122)
(-0.000190337 -0.001776 0.00899749)
(0.00113161 -0.00279321 0.00963306)
(0.00248382 -0.0036006 0.0100308)
(0.00365896 -0.00410655 0.0101717)
(0.00454148 -0.00431701 0.0100312)
(0.00510204 -0.00433579 0.00955066)
(0.00531363 -0.00428544 0.0086686)
(0.00510136 -0.00425962 0.0073947)
(0.00441862 -0.00428899 0.00581072)
(0.00331636 -0.00432842 0.00403664)
(0.00196313 -0.00429434 0.00219313)
(0.000584902 -0.00411413 0.000370635)
(-0.000624591 -0.00374702 -0.00137812)
(-0.00154105 -0.00317952 -0.00302262)
(-0.00209431 -0.0024197 -0.00453948)
(-0.00224422 -0.00149492 -0.00590919)
(-0.00196855 -0.000448296 -0.00711703)
(-0.00126786 0.000664885 -0.00815122)
(-0.000190337 0.001776 -0.00899749)
(0.00113161 0.00279321 -0.00963306)
(0.00248382 0.0036006 -0.0100308)
(0.00365896 0.00410655 -0.0101717)
(0.00454148 0.00431701 -0.0100312)
(0.00728497 0.00593193 -0.00969035)
(0.00717441 0.00501823 -0.00864723)
(0.0056247 0.00411855 -0.0072197)
(0.00313529 0.00330649 -0.00554012)
(0.000338209 0.00256449 -0.00375911)
(-0.00227149 0.00185186 -0.00200557)
(-0.00445386 0.00113107 -0.000352943)
(-0.00615131 0.000365768 0.00117498)
(-0.00736697 -0.000473168 0.00257915)
(-0.00810135 -0.00140074 0.00387003)
(-0.00833688 -0.00241674 0.00506152)
(-0.00803534 -0.00350322 0.00616717)
(-0.00713166 -0.00461467 0.00720002)
(-0.00553062 -0.00566378 0.0081735)
(-0.00315278 -0.00651774 0.00908073)
(-0.00010299 -0.00702659 0.00983899)
(0.00314137 -0.00708446 0.0102805)
(0.00583071 -0.00668341 0.0102493)
(0.00728497 -0.00593193 0.00969035)
(0.00717441 -0.00501823 0.00864723)
(0.0056247 -0.00411855 0.0072197)
(0.00313529 -0.00330649 0.00554012)
(0.000338209 -0.00256449 0.00375911)
(-0.00227149 -0.00185186 0.00200557)
(-0.00445386 -0.00113107 0.000352943)
(-0.00615131 -0.000365768 -0.00117498)
(-0.00736697 0.000473168 -0.00257915)
(-0.00810135 0.00140074 -0.00387003)
(-0.00833688 0.00241674 -0.00506152)
(-0.00803534 0.00350322 -0.00616717)
(-0.00713166 0.00461467 -0.00720002)
(-0.00553062 0.00566378 -0.0081735)
(-0.00315278 0.00651774 -0.00908073)
(-0.00010299 0.00702659 -0.00983899)
(0.00314137 0.00708446 -0.0102805)
(0.00583071 0.00668341 -0.0102493)
(0.00622341 0.00519233 -0.00962952)
(0.00624428 0.00475435 -0.00867079)
(0.00534979 0.00431742 -0.00732302)
(0.00376587 0.00391092 -0.00568874)
(0.00182116 0.00350271 -0.00390669)
(-0.000162541 0.00304822 -0.0021046)
(-0.00195301 0.00251269 -0.000363565)
(-0.00341869 0.00187085 0.00127926)
(-0.00449172 0.00110841 0.00280833)
(-0.00513248 0.000225842 0.00421567)
(-0.00531038 -0.000760466 0.00549772)
(-0.00499579 -0.00181804 0.00665426)
(-0.00415939 -0.00289551 0.00768691)
(-0.0027843 -0.00391672 0.0085959)
(-0.000908759 -0.00477859 0.00936701)
(0.00129567 -0.0053695 0.00994649)
(0.00348788 -0.00561537 0.0102393)
(0.00524715 -0.0055244 0.0101514)
(0.00622341 -0.00519233 0.00962952)
(0.00624428 -0.00475435 0.00867079)
(0.00534979 -0.00431742 0.00732302)
(0.00376587 -0.00391092 0.00568874)
(0.00182116 -0.00350271 0.00390669)
(-0.000162541 -0.00304822 0.0021046)
(-0.00195301 -0.00251269 0.000363565)
(-0.00341869 -0.00187085 -0.00127926)
(-0.00449172 -0.00110841 -0.00280833)
(-0.00513248 -0.000225842 -0.00421567)
(-0.00531038 0.000760466 -0.00549772)
(-0.00499579 0.00181804 -0.00665426)
(-0.00415939 0.00289551 -0.00768691)
(-0.0027843 0.00391672 -0.0085959)
(-0.000908759 0.00477859 -0.00936701)
(0.00129567 0.0053695 -0.00994649)
(0.00348788 0.00561537 -0.0102393)
(0.00524715 0.0055244 -0.0101514)
(0.00518123 0.00472562 -0.00984659)
(0.00536545 0.00476909 -0.0089378)
(0.00513115 0.00474495 -0.0075982)
(0.00444362 0.00466306 -0.00594795)
(0.00334211 0.00451081 -0.00413286)
(0.00197563 0.00425724 -0.00227493)
(0.000564889 0.00387205 -0.000453777)
(-0.000685047 0.00333569 0.00128847)
(-0.00163479 0.00264071 0.00292688)
(-0.00220326 0.00179572 0.00443876)
(-0.00234501 0.000828929 0.00580329)
(-0.00203813 -0.000213574 0.00700582)
(-0.0012901 -0.00127225 0.00803907)
(-0.000163861 -0.00227826 0.00890018)
(0.00119013 -0.00315784 0.0095838)
(0.00255426 -0.00384586 0.0100741)
(0.00373587 -0.00431415 0.0103347)
(0.00462677 -0.00458887 0.0102917)
(0.00518123 -0.00472562 0.00984659)
(0.00536545 -0.00476909 0.0089378)
(0.00513115 -0.00474495 0.0075982)
(0.00444362 -0.00466306 0.00594795)
(0.00334211 -0.00451081 0.00413286)
(0.00197563 -0.00425724 0.00227493)
(0.000564889 -0.00387205 0.000453777)
(-0.000685047 -0.00333569 -0.00128847)
(-0.00163479 -0.00264071 -0.00292688)
(-0.00220326 -0.00179572 -0.00443876)
(-0.00234501 -0.000828929 -0.00580329)
(-0.00203813 0.000213574 -0.00700582)
(-0.0012901 0.00127225 -0.00803907)
(-0.000163861 0.00227826 -0.00890018)
(0.00119013 0.00315784 -0.0095838)
(0.00255426 0.00384586 -0.0100741)
(0.00373587 0.00431415 -0.0103347)
(0.00462677 0.00458887 -0.0102917)
(0.00614217 0.0060067 -0.00906407)
(0.00601041 0.00489773 -0.00821042)
(0.00462126 0.00378482 -0.00701532)
(0.00236864 0.00274015 -0.00556132)
(-0.00022137 0.00176798 -0.00396107)
(-0.0026994 0.000845937 -0.00233055)
(-0.00481452 -5.32909e-05 -0.000748416)
(-0.00648066 -0.000963025 0.000751927)
(-0.00767513 -0.00191633 0.00215971)
(-0.00837762 -0.00293218 0.00346859)
(-0.00855617 -0.00400584 0.00467327)
(-0.00816794 -0.0051032 0.00577327)
(-0.00715904 -0.00615518 0.00677783)
(-0.0054737 -0.00705493 0.00770114)
(-0.0031131 -0.00766951 0.00853089)
(-0.000265892 -0.00787965 0.00918903)
(0.00261368 -0.00763364 0.00955143)
(0.00492409 -0.00697078 0.00951981)
(0.00614217 -0.0060067 0.00906407)
(0.00601041 -0.00489773 0.00821042)
(0.00462126 -0.00378482 0.00701532)
(0.00236864 -0.00274015 0.00556132)
(-0.00022137 -0.00176798 0.00396107)
(-0.0026994 -0.000845937 0.00233055)
(-0.00481452 5.32909e-05 0.000748416)
(-0.00648066 0.000963025 -0.000751927)
(-0.00767513 0.00191633 -0.00215971)
(-0.00837762 0.00293218 -0.00346859)
(-0.00855617 0.00400584 -0.00467327)
(-0.00816794 0.0051032 -0.00577327)
(-0.00715904 0.00615518 -0.00677783)
(-0.0054737 0.00705493 -0.00770114)
(-0.0031131 0.00766951 -0.00853089)
(-0.000265892 0.00787965 -0.00918903)
(0.00261368 0.00763364 -0.00955143)
(0.00492409 0.00697078 -0.00951981)
(0.00535658 0.00529655 -0.00909854)
(0.00534803 0.00473361 -0.00826619)
(0.00453274 0.00413982 -0.00707384)
(0.00309353 0.00354026 -0.00560204)
(0.00130149 0.00292352 -0.00396652)
(-0.00056281 0.0022697 -0.00228184)
(-0.00227786 0.00156215 -0.00062811)
(-0.00370154 0.00078442 0.00095334)
(-0.00474853 -7.69631e-05 0.00244112)
(-0.00536328 -0.00102294 0.00381861)
(-0.00550534 -0.00203472 0.00507213)
(-0.00514389 -0.00307131 0.0061942)
(-0.00426034 -0.0040692 0.0071854)
(-0.00286519 -0.00494425 0.00804934)
(-0.00103989 -0.00560227 0.0087751)
(0.00101438 -0.00596567 0.00931615)
(0.00298395 -0.00600518 0.00959566)
(0.00452363 -0.00575406 0.00953858)
(0.00535658 -0.00529655 0.00909854)
(0.00534803 -0.00473361 0.00826619)
(0.00453274 -0.00413982 0.00707384)
(0.00309353 -0.00354026 0.00560204)
(0.00130149 -0.00292352 0.00396652)
(-0.00056281 -0.0022697 0.00228184)
(-0.00227786 -0.00156215 0.00062811)
(-0.00370154 -0.00078442 -0.00095334)
(-0.00474853 7.69631e-05 -0.00244112)
(-0.00536328 0.00102294 -0.00381861)
(-0.00550534 0.00203472 -0.00507213)
(-0.00514389 0.00307131 -0.0061942)
(-0.00426034 0.0040692 -0.0071854)
(-0.00286519 0.00494425 -0.00804934)
(-0.00103989 0.00560227 -0.0087751)
(0.00101438 0.00596567 -0.00931615)
(0.00298395 0.00600518 -0.00959566)
(0.00452363 0.00575406 -0.00953858)
(0.00454745 0.00487673 -0.00950184)
(0.00469555 0.00488655 -0.00865395)
(0.00446749 0.00478318 -0.00738917)
(0.00383906 0.00456404 -0.00582937)
(0.00283815 0.00423119 -0.00411383)
(0.00158046 0.00378491 -0.00235499)
(0.000255698 0.00322501 -0.000626323)
(-0.000938853 0.00255106 0.00103148)
(-0.00185488 0.00176384 0.00259368)
(-0.00240053 0.000874037 0.00403795)
(-0.00252504 -9.01561e-05 0.00534373)
(-0.00220871 -0.00108236 0.00649733)
(-0.00146909 -0.0020429 0.00749475)
(-0.000383777 -0.00290805 0.00833939)
(0.000891746 -0.00362414 0.00903276)
(0.00215758 -0.00416356 0.00956031)
(0.0032447 -0.00453238 0.00987546)
(0.0040554 -0.00476077 0.0098905)
(0.00454745 -0.00487673 0.00950184)
(0.00469555 -0.00488655 0.00865395)
(0.00446749 -0.00478318 0.00738917)
(0.00383906 -0.00456404 0.00582937)
(0.00283815 -0.00423119 0.00411383)
(0.00158046 -0.00378491 0.00235499)
(0.000255698 -0.00322501 0.000626323)
(-0.000938853 -0.00255106 -0.00103148)
(-0.00185488 -0.00176384 -0.00259368)
(-0.00240053 -0.000874037 -0.00403795)
(-0.00252504 9.01561e-05 -0.00534373)
(-0.00220871 0.00108236 -0.00649733)
(-0.00146909 0.0020429 -0.00749475)
(-0.000383777 0.00290805 -0.00833939)
(0.000891746 0.00362414 -0.00903276)
(0.00215758 0.00416356 -0.00956031)
(0.0032447 0.00453238 -0.00987546)
(0.0040554 0.00476077 -0.0098905)
(0.00435896 0.00587819 -0.0081594)
(0.0042943 0.00457496 -0.0075434)
(0.00318111 0.00325792 -0.00662779)
(0.00129575 0.00200087 -0.00545444)
(-0.000957609 0.00082359 -0.00409836)
(-0.00319392 -0.000283984 -0.00265728)
(-0.00515777 -0.00134162 -0.00121495)
(-0.00673017 -0.00237524 0.000181526)
(-0.00786135 -0.00341247 0.00151068)
(-0.00851505 -0.004469 0.00275741)
(-0.00865221 -0.00553466 0.00390737)
(-0.00823355 -0.00656533 0.00495252)
(-0.00722577 -0.00748123 0.00589691)
(-0.00561876 -0.00817358 0.00674892)
(-0.00347587 -0.00852584 0.0074945)
(-0.00100766 -0.00845332 0.00807736)
(0.0014113 -0.00794038 0.00841786)
(0.00332985 -0.00704509 0.00845321)
(0.00435896 -0.00587819 0.0081594)
(0.0042943 -0.00457496 0.0075434)
(0.00318111 -0.00325792 0.00662779)
(0.00129575 -0.00200087 0.00545444)
(-0.000957609 -0.00082359 0.00409836)
(-0.00319392 0.000283984 0.00265728)
(-0.00515777 0.00134162 0.00121495)
(-0.00673017 0.00237524 -0.000181526)
(-0.00786135 0.00341247 -0.00151068)
(-0.00851505 0.004469 -0.00275741)
(-0.00865221 0.00553466 -0.00390737)
(-0.00823355 0.00656533 -0.00495252)
(-0.00722577 0.00748123 -0.00589691)
(-0.00561876 0.00817358 -0.00674892)
(-0.00347587 0.00852584 -0.0074945)