/*--------------------------------*- C++ -*----------------------------------*\
| =========                 |                                                 |
| \\      /  F ield         | OpenFOAM: The Open Source CFD Toolbox           |
|  \\    /   O peration     | Version:  2312                                  |
|   \\  /    A nd           | Website:  www.openfoam.com                      |
|    \\/     M anipulation  |                                                 |
\*---------------------------------------------------------------------------*/
FoamFile
{
    version     2.0;
    format      ascii;
    arch        "LSB;label=32;scalar=64";
    class       volVectorField;
    location    "0.6";
    object      D_0_0_0;
}
// * * * * * * * * * * * * * * * * * * * * * * * * * * * * * * * * * * * * * //

dimensions      [0 1 0 0 0 0 0];

internalField   nonuniform List<vector> 
1620
(
(0.000752034 0.000172452 -0.00196193)
(0.000983795 0.000374457 -0.00180744)
(0.00099261 0.000585129 -0.00143048)
(0.000828491 0.000693994 -0.000930678)
(0.000585154 0.000678519 -0.000428549)
(0.000331368 0.000572934 -5.43698e-06)
(9.90646e-05 0.000420213 0.000306625)
(-0.000102702 0.000252042 0.000510702)
(-0.000274495 8.8351e-05 0.000629412)
(-0.000418725 -5.95522e-05 0.00069474)
(-0.00053533 -0.000187254 0.000741176)
(-0.000619605 -0.000294464 0.000800043)
(-0.000661937 -0.000378397 0.000894813)
(-0.00064845 -0.000425107 0.00103829)
(-0.000559744 -0.000408884 0.00123199)
(-0.000368197 -0.000314462 0.00146462)
(-5.07592e-05 -0.000177681 0.00170543)
(0.00036248 -9.93895e-05 0.00189873)
(0.000752034 -0.000172452 0.00196193)
(0.000983795 -0.000374457 0.00180744)
(0.00099261 -0.000585129 0.00143048)
(0.000828491 -0.000693994 0.000930678)
(0.000585154 -0.000678519 0.000428549)
(0.000331368 -0.000572934 5.43698e-06)
(9.90646e-05 -0.000420213 -0.000306625)
(-0.000102702 -0.000252042 -0.000510702)
(-0.000274495 -8.8351e-05 -0.000629412)
(-0.000418725 5.95522e-05 -0.00069474)
(-0.00053533 0.000187254 -0.000741176)
(-0.000619605 0.000294464 -0.000800043)
(-0.000661937 0.000378397 -0.000894813)
(-0.00064845 0.000425107 -0.00103829)
(-0.000559744 0.000408884 -0.00123199)
(-0.000368197 0.000314462 -0.00146462)
(-5.07592e-05 0.000177681 -0.00170543)
(0.00036248 9.93895e-05 -0.00189873)
(0.000367783 0.000498362 -0.00167307)
(0.000454018 0.000515857 -0.00149653)
(0.000444581 0.00056231 -0.00123745)
(0.000343375 0.000615897 -0.000923008)
(0.000177954 0.000655433 -0.000590438)
(-1.62683e-05 0.000671099 -0.000271363)
(-0.000209124 0.000660063 1.54681e-05)
(-0.000379414 0.000622623 0.000264557)
(-0.000514059 0.000560437 0.000481069)
(-0.000605607 0.000474497 0.000676912)
(-0.000649492 0.000363257 0.000865647)
(-0.000642652 0.000223325 0.00105675)
(-0.000584649 5.44653e-05 0.00125058)
(-0.00048038 -0.000132039 0.00143636)
(-0.00034029 -0.000307926 0.00159576)
(-0.000174134 -0.00043595 0.00171088)
(1.37809e-05 -0.000494448 0.0017689)
(0.000208564 -0.00050086 0.00175968)
(0.000367783 -0.000498362 0.00167307)
(0.000454018 -0.000515857 0.00149653)
(0.000444581 -0.00056231 0.00123745)
(0.000343375 -0.000615897 0.000923008)
(0.000177954 -0.000655433 0.000590438)
(-1.62683e-05 -0.000671099 0.000271363)
(-0.000209124 -0.000660063 -1.54681e-05)
(-0.000379414 -0.000622623 -0.000264557)
(-0.000514059 -0.000560437 -0.000481069)
(-0.000605607 -0.000474497 -0.000676912)
(-0.000649492 -0.000363257 -0.000865647)
(-0.000642652 -0.000223325 -0.00105675)
(-0.000584649 -5.44653e-05 -0.00125058)
(-0.00048038 0.000132039 -0.00143636)
(-0.00034029 0.000307926 -0.00159576)
(-0.000174134 0.00043595 -0.00171088)
(1.37809e-05 0.000494448 -0.0017689)
(0.000208564 0.00050086 -0.00175968)
(7.41199e-05 0.000667138 -0.00142897)
(6.75665e-05 0.000567335 -0.00125405)
(4.53607e-05 0.000511215 -0.0010914)
(-1.16924e-05 0.000542954 -0.000920998)
(-0.000121062 0.000651044 -0.000720186)
(-0.000276809 0.000794551 -0.000479251)
(-0.000452954 0.000930045 -0.000201912)
(-0.00061744 0.00102509 0.00010101)
(-0.000743042 0.00106 0.000417589)
(-0.000811195 0.00102416 0.000737062)
(-0.000811459 0.000912367 0.00104852)
(-0.000740993 0.000723646 0.00133797)
(-0.000606745 0.000463525 0.00158584)
(-0.000429535 0.000149654 0.00176753)
(-0.000244426 -0.000181646 0.00186002)
(-8.9782e-05 -0.000474168 0.00185384)
(1.20913e-05 -0.000666049 0.0017608)
(6.19351e-05 -0.000723076 0.0016081)
(7.41199e-05 -0.000667138 0.00142897)
(6.75665e-05 -0.000567335 0.00125405)
(4.53607e-05 -0.000511215 0.0010914)
(-1.16924e-05 -0.000542954 0.000920998)
(-0.000121062 -0.000651044 0.000720186)
(-0.000276809 -0.000794551 0.000479251)
(-0.000452954 -0.000930045 0.000201912)
(-0.00061744 -0.00102509 -0.00010101)
(-0.000743042 -0.00106 -0.000417589)
(-0.000811195 -0.00102416 -0.000737062)
(-0.000811459 -0.000912367 -0.00104852)
(-0.000740993 -0.000723646 -0.00133797)
(-0.000606745 -0.000463525 -0.00158584)
(-0.000429535 -0.000149654 -0.00176753)
(-0.000244426 0.000181646 -0.00186002)
(-8.9782e-05 0.000474168 -0.00185384)
(1.20913e-05 0.000666049 -0.0017608)
(6.19351e-05 0.000723076 -0.0016081)
(0.00231179 0.00108141 -0.00510097)
(0.00284662 0.00133194 -0.00451093)
(0.00269754 0.00159324 -0.00353001)
(0.0020528 0.00173156 -0.00237416)
(0.0011944 0.00172813 -0.00124041)
(0.00032711 0.00161271 -0.000255463)
(-0.000446207 0.00141683 0.000527847)
(-0.00109229 0.00116708 0.00111252)
(-0.00161161 0.000886828 0.00153976)
(-0.00201272 0.000591729 0.00187342)
(-0.00229631 0.000283793 0.0021836)
(-0.00244712 -4.6772e-05 0.00252942)
(-0.00243301 -0.000406415 0.00294414)
(-0.00221096 -0.000771379 0.00342805)
(-0.00173765 -0.00106621 0.00395485)
(-0.000981315 -0.00118971 0.00448411)
(5.49776e-05 -0.00111944 0.00494557)
(0.00125841 -0.0010067 0.00519926)
(0.00231179 -0.00108141 0.00510097)
(0.00284662 -0.00133194 0.00451093)
(0.00269754 -0.00159324 0.00353001)
(0.0020528 -0.00173156 0.00237416)
(0.0011944 -0.00172813 0.00124041)
(0.00032711 -0.00161271 0.000255463)
(-0.000446207 -0.00141683 -0.000527847)
(-0.00109229 -0.00116708 -0.00111252)
(-0.00161161 -0.000886828 -0.00153976)
(-0.00201272 -0.000591729 -0.00187342)
(-0.00229631 -0.000283793 -0.0021836)
(-0.00244712 4.6772e-05 -0.00252942)
(-0.00243301 0.000406415 -0.00294414)
(-0.00221096 0.000771379 -0.00342805)
(-0.00173765 0.00106621 -0.00395485)
(-0.000981315 0.00118971 -0.00448411)
(5.49776e-05 0.00111944 -0.00494557)
(0.00125841 0.0010067 -0.00519926)
(0.00157273 0.0015532 -0.00475684)
(0.00186582 0.00151879 -0.00425817)
(0.00178773 0.00157321 -0.00353915)
(0.00137463 0.00167371 -0.00267481)
(0.000758735 0.00177526 -0.00174998)
(7.47754e-05 0.00183676 -0.000841668)
(-0.000577517 0.00182755 -4.3228e-06)
(-0.00113709 0.00173392 0.00073796)
(-0.00157226 0.0015563 0.00139031)
(-0.00186759 0.00129961 0.00197789)
(-0.0020126 0.000964936 0.00253232)
(-0.00199592 0.000549174 0.00307717)
(-0.00180677 5.48409e-05 0.00361583)
(-0.00144418 -0.000491066 0.00412516)
(-0.000929304 -0.00101843 0.00456039)
(-0.000308366 -0.00142057 0.00487392)
(0.000363368 -0.00161406 0.00503291)
(0.00102663 -0.0016157 0.00500581)
(0.00157273 -0.0015532 0.00475684)
(0.00186582 -0.00151879 0.00425817)
(0.00178773 -0.00157321 0.00353915)
(0.00137463 -0.00167371 0.00267481)
(0.000758735 -0.00177526 0.00174998)
(7.47754e-05 -0.00183676 0.000841668)
(-0.000577517 -0.00182755 4.3228e-06)
(-0.00113709 -0.00173392 -0.00073796)
(-0.00157226 -0.0015563 -0.00139031)
(-0.00186759 -0.00129961 -0.00197789)
(-0.0020126 -0.000964936 -0.00253232)
(-0.00199592 -0.000549174 -0.00307717)
(-0.00180677 -5.48409e-05 -0.00361583)
(-0.00144418 0.000491066 -0.00412516)
(-0.000929304 0.00101843 -0.00456039)
(-0.000308366 0.00142057 -0.00487392)
(0.000363368 0.00161406 -0.00503291)
(0.00102663 0.0016157 -0.00500581)
(0.000928129 0.00183491 -0.00433841)
(0.00103618 0.00159896 -0.00394651)
(0.00102431 0.00149986 -0.00348251)
(0.000822504 0.00158271 -0.00289618)
(0.000430087 0.00179593 -0.00217411)
(-8.8699e-05 0.00204172 -0.00134537)
(-0.000640777 0.00222918 -0.000461353)
(-0.00113901 0.00230005 0.000430152)
(-0.0015193 0.00222674 0.00129783)
(-0.001741 0.00200048 0.00212435)
(-0.00178109 0.00162285 0.00289767)
(-0.00163083 0.00110354 0.0036026)
(-0.00129979 0.000463523 0.00421441)
(-0.000827267 -0.000256295 0.00469508)
(-0.000293819 -0.000981499 0.00499661)
(0.000189533 -0.00159555 0.00508134)
(0.000538431 -0.00196479 0.00495833)
(0.000762477 -0.00201576 0.00469149)
(0.000928129 -0.00183491 0.00433841)
(0.00103618 -0.00159896 0.00394651)
(0.00102431 -0.00149986 0.00348251)
(0.000822504 -0.00158271 0.00289618)
(0.000430087 -0.00179593 0.00217411)
(-8.8699e-05 -0.00204172 0.00134537)
(-0.000640777 -0.00222918 0.000461353)
(-0.00113901 -0.00230005 -0.000430152)
(-0.0015193 -0.00222674 -0.00129783)
(-0.001741 -0.00200048 -0.00212435)
(-0.00178109 -0.00162285 -0.00289767)
(-0.00163083 -0.00110354 -0.0036026)
(-0.00129979 -0.000463523 -0.00421441)
(-0.000827267 0.000256295 -0.00469508)
(-0.000293819 0.000981499 -0.00499661)
(0.000189533 0.00159555 -0.00508134)
(0.000538431 0.00196479 -0.00495833)
(0.000762477 0.00201576 -0.00469149)
(0.00454225 0.00260786 -0.00763382)
(0.005032 0.00268505 -0.00669726)
(0.00434733 0.00272046 -0.00527654)
(0.00294626 0.002682 -0.00366205)
(0.0012942 0.00257509 -0.00208737)
(-0.000292084 0.00239585 -0.000689142)
(-0.00165678 0.00213692 0.00047409)
(-0.00275532 0.0018033 0.00140351)
(-0.00359612 0.00141093 0.00214578)
(-0.00419795 0.00097256 0.0027764)
(-0.00456557 0.000485865 0.00337794)
(-0.00467835 -6.47958e-05 0.00401641)
(-0.00448701 -0.000689593 0.00472254)
(-0.00391543 -0.00136127 0.00548624)
(-0.00287341 -0.00198635 0.00626896)
(-0.00130376 -0.00242083 0.00701916)
(0.000714126 -0.00258008 0.00764583)
(0.00284971 -0.00256462 0.00792807)
(0.00454225 -0.00260786 0.00763382)
(0.005032 -0.00268505 0.00669726)
(0.00434733 -0.00272046 0.00527654)
(0.00294626 -0.002682 0.00366205)
(0.0012942 -0.00257509 0.00208737)
(-0.000292084 -0.00239585 0.000689142)
(-0.00165678 -0.00213692 -0.00047409)
(-0.00275532 -0.0018033 -0.00140351)
(-0.00359612 -0.00141093 -0.00214578)
(-0.00419795 -0.00097256 -0.0027764)
(-0.00456557 -0.000485865 -0.00337794)
(-0.00467835 6.47958e-05 -0.00401641)
(-0.00448701 0.000689593 -0.00472254)
(-0.00391543 0.00136127 -0.00548624)
(-0.00287341 0.00198635 -0.00626896)
(-0.00130376 0.00242083 -0.00701916)
(0.000714126 0.00258008 -0.00764583)
(0.00284971 0.00256462 -0.00792807)
(0.00345844 0.00270811 -0.00719788)
(0.00378746 0.00259278 -0.00643398)
(0.00342214 0.00256846 -0.00536893)
(0.00253201 0.00263227 -0.00409291)
(0.00136203 0.00272965 -0.00271566)
(0.000133235 0.00278349 -0.00134542)
(-0.000997594 0.00273353 -6.32557e-05)
(-0.00194126 0.00255333 0.00109225)
(-0.00265731 0.00224231 0.00212273)
(-0.00312918 0.00180883 0.00305614)
(-0.00334491 0.00125842 0.00392853)
(-0.00328748 0.000593444 0.00476643)
(-0.00293456 -0.000175413 0.00557338)
(-0.00226705 -0.00100836 0.00632365)
(-0.0012867 -0.00181395 0.00696526)
(-4.28888e-05 -0.00244949 0.0074333)
(0.00133297 -0.00278983 0.00766769)
(0.00258898 -0.00283104 0.00761023)
(0.00345844 -0.00270811 0.00719788)
(0.00378746 -0.00259278 0.00643398)
(0.00342214 -0.00256846 0.00536893)
(0.00253201 -0.00263227 0.00409291)
(0.00136203 -0.00272965 0.00271566)
(0.000133235 -0.00278349 0.00134542)
(-0.000997594 -0.00273353 6.32557e-05)
(-0.00194126 -0.00255333 -0.00109225)
(-0.00265731 -0.00224231 -0.00212273)
(-0.00312918 -0.00180883 -0.00305614)
(-0.00334491 -0.00125842 -0.00392853)
(-0.00328748 -0.000593444 -0.00476643)
(-0.00293456 0.000175413 -0.00557338)
(-0.00226705 0.00100836 -0.00632365)
(-0.0012867 0.00181395 -0.00696526)
(-4.28888e-05 0.00244949 -0.0074333)
(0.00133297 0.00278983 -0.00766769)
(0.00258898 0.00283104 -0.00761023)
(0.00250362 0.00272578 -0.00664444)
(0.00271432 0.0024595 -0.00609248)
(0.00263581 0.00236981 -0.00535568)
(0.00222294 0.0024957 -0.00439193)
(0.00151525 0.00276212 -0.00321419)
(0.00063027 0.00303438 -0.00189541)
(-0.00028196 0.00319518 -0.000526732)
(-0.00109107 0.00317744 0.000821321)
(-0.00170827 0.00295564 0.00210791)
(-0.00208035 0.00252828 0.00331139)
(-0.00217688 0.00190827 0.0044171)
(-0.00198332 0.00112027 0.00540911)
(-0.00150446 0.00020224 0.00626408)
(-0.000779222 -0.000786843 0.00694481)
(9.90802e-05 -0.00174988 0.00739633)
(0.000979783 -0.00253705 0.00756003)
(0.00169985 -0.00298102 0.00742468)
(0.00216948 -0.00300263 0.00708305)
(0.00250362 -0.00272578 0.00664444)
(0.00271432 -0.0024595 0.00609248)
(0.00263581 -0.00236981 0.00535568)
(0.00222294 -0.0024957 0.00439193)
(0.00151525 -0.00276212 0.00321419)
(0.00063027 -0.00303438 0.00189541)
(-0.00028196 -0.00319518 0.000526732)
(-0.00109107 -0.00317744 -0.000821321)
(-0.00170827 -0.00295564 -0.00210791)
(-0.00208035 -0.00252828 -0.00331139)
(-0.00217688 -0.00190827 -0.0044171)
(-0.00198332 -0.00112027 -0.00540911)
(-0.00150446 -0.00020224 -0.00626408)
(-0.000779222 0.000786843 -0.00694481)
(9.90802e-05 0.00174988 -0.00739633)
(0.000979783 0.00253705 -0.00756003)
(0.00169985 0.00298102 -0.00742468)
(0.00216948 0.00300263 -0.00708305)
(0.00655236 0.00419946 -0.00920732)
(0.00675565 0.00380996 -0.00808439)
(0.00549714 0.00348362 -0.00648767)
(0.00338804 0.00321807 -0.00468348)
(0.00103047 0.00296441 -0.00288575)
(-0.00116213 0.00267299 -0.00123314)
(-0.00299771 0.00231103 0.00020838)
(-0.00443476 0.00186607 0.00143244)
(-0.0054932 0.0013412 0.0024756)
(-0.00619847 0.000741524 0.00340094)
(-0.00655662 6.27437e-05 0.00427776)
(-0.00654455 -0.000707097 0.00515958)
(-0.00610399 -0.00157049 0.00606859)
(-0.00513489 -0.00249345 0.00699487)
(-0.00350436 -0.00338329 0.00790842)
(-0.00113238 -0.00409723 0.0087554)
(0.00180004 -0.00449783 0.00941504)
(0.00467457 -0.00451254 0.00965642)
(0.00655236 -0.00419946 0.00920732)
(0.00675565 -0.00380996 0.00808439)
(0.00549714 -0.00348362 0.00648767)
(0.00338804 -0.00321807 0.00468348)
(0.00103047 -0.00296441 0.00288575)
(-0.00116213 -0.00267299 0.00123314)
(-0.00299771 -0.00231103 -0.00020838)
(-0.00443476 -0.00186607 -0.00143244)
(-0.0054932 -0.0013412 -0.0024756)
(-0.00619847 -0.000741524 -0.00340094)
(-0.00655662 -6.27437e-05 -0.00427776)
(-0.00654455 0.000707097 -0.00515958)
(-0.00610399 0.00157049 -0.00606859)
(-0.00513489 0.00249345 -0.00699487)
(-0.00350436 0.00338329 -0.00790842)
(-0.00113238 0.00409723 -0.0087554)
(0.00180004 0.00449783 -0.00941504)
(0.00467457 0.00451254 -0.00965642)
(0.00529964 0.00377206 -0.00879463)
(0.00545882 0.00349614 -0.0078724)
(0.00474404 0.00334833 -0.00659868)
(0.00340826 0.00332301 -0.00506574)
(0.00176062 0.00333601 -0.0034023)
(8.32619e-05 0.00329467 -0.00173757)
(-0.00142653 0.00313408 -0.00016316)
(-0.00266278 0.00282519 0.00127841)
(-0.00358104 0.0023652 0.00258383)
(-0.0041638 0.00176261 0.00377326)
(-0.00439729 0.00102717 0.00487441)
(-0.00426062 0.000169572 0.00590782)
(-0.00372425 -0.000789408 0.0068761)
(-0.00275685 -0.00180215 0.00775952)
(-0.00134641 -0.00277482 0.00851663)
(0.000450269 -0.00356273 0.00908419)
(0.00243097 -0.00401201 0.00937712)
(0.0042012 -0.00404383 0.00930261)
(0.00529964 -0.00377206 0.00879463)
(0.00545882 -0.00349614 0.0078724)
(0.00474404 -0.00334833 0.00659868)
(0.00340826 -0.00332301 0.00506574)
(0.00176062 -0.00333601 0.0034023)
(8.32619e-05 -0.00329467 0.00173757)
(-0.00142653 -0.00313408 0.00016316)
(-0.00266278 -0.00282519 -0.00127841)
(-0.00358104 -0.0023652 -0.00258383)
(-0.0041638 -0.00176261 -0.00377326)
(-0.00439729 -0.00102717 -0.00487441)
(-0.00426062 -0.000169572 -0.00590782)
(-0.00372425 0.000789408 -0.0068761)
(-0.00275685 0.00180215 -0.00775952)
(-0.00134641 0.00277482 -0.00851663)
(0.000450269 0.00356273 -0.00908419)
(0.00243097 0.00401201 -0.00937712)
(0.0042012 0.00404383 -0.00930261)
(0.00409538 0.00353093 -0.00840541)
(0.00428354 0.00333201 -0.0076896)
(0.00410713 0.00327641 -0.00667877)
(0.0035193 0.00339325 -0.00537218)
(0.00256357 0.00360268 -0.00383677)
(0.0013894 0.00377739 -0.00218087)
(0.000192644 0.00381007 -0.00050696)
(-0.000860175 0.00364214 0.00111618)
(-0.00166102 0.00325427 0.00265007)
(-0.00214796 0.00265156 0.00407178)
(-0.00228533 0.00185626 0.00536466)
(-0.00205338 0.000904058 0.00651397)
(-0.00145215 -0.00015731 0.00750246)
(-0.000521343 -0.00126316 0.0083032)
(0.000630032 -0.00231463 0.00887296)
(0.00182015 -0.00316378 0.0091619)
(0.00285754 -0.0036533 0.00915008)
(0.00362075 -0.00372929 0.00887754)
(0.00409538 -0.00353093 0.00840541)
(0.00428354 -0.00333201 0.0076896)
(0.00410713 -0.00327641 0.00667877)
(0.0035193 -0.00339325 0.00537218)
(0.00256357 -0.00360268 0.00383677)
(0.0013894 -0.00377739 0.00218087)
(0.000192644 -0.00381007 0.00050696)
(-0.000860175 -0.00364214 -0.00111618)
(-0.00166102 -0.00325427 -0.00265007)
(-0.00214796 -0.00265156 -0.00407178)
(-0.00228533 -0.00185626 -0.00536466)
(-0.00205338 -0.000904058 -0.00651397)
(-0.00145215 0.00015731 -0.00750246)
(-0.000521343 0.00126316 -0.0083032)
(0.000630032 0.00231463 -0.00887296)
(0.00182015 0.00316378 -0.0091619)
(0.00285754 0.0036533 -0.00915008)
(0.00362075 0.00372929 -0.00887754)
(0.00733454 0.00526804 -0.00977611)
(0.00737218 0.00456659 -0.00866412)
(0.00587229 0.00391547 -0.00711906)
(0.00340778 0.00337188 -0.00533302)
(0.000658739 0.0028919 -0.0034927)
(-0.00188002 0.00241649 -0.001737)
(-0.00398524 0.00190109 -0.000137902)
(-0.00561489 0.00131595 0.00128861)
(-0.00678953 0.000645846 0.00256078)
(-0.00752884 -0.000115068 0.00371562)
(-0.00783127 -0.000970332 0.00479532)
(-0.0076678 -0.00191992 0.00583318)
(-0.00697404 -0.00294677 0.00684542)
(-0.0056398 -0.00399466 0.00783423)
(-0.00352933 -0.00495099 0.00878824)
(-0.000626237 -0.00565852 0.00964251)
(0.00269509 -0.00596851 0.0102249)
(0.00562892 -0.00581122 0.0103115)
(0.00733454 -0.00526804 0.00977611)
(0.00737218 -0.00456659 0.00866412)
(0.00587229 -0.00391547 0.00711906)
(0.00340778 -0.00337188 0.00533302)
(0.000658739 -0.0028919 0.0034927)
(-0.00188002 -0.00241649 0.001737)
(-0.00398524 -0.00190109 0.000137902)
(-0.00561489 -0.00131595 -0.00128861)
(-0.00678953 -0.000645846 -0.00256078)
(-0.00752884 0.000115068 -0.00371562)
(-0.00783127 0.000970332 -0.00479532)
(-0.0076678 0.00191992 -0.00583318)
(-0.00697404 0.00294677 -0.00684542)
(-0.0056398 0.00399466 -0.00783423)
(-0.00352933 0.00495099 -0.00878824)
(-0.000626237 0.00565852 -0.00964251)
(0.00269509 0.00596851 -0.0102249)
(0.00562892 0.00581122 -0.0103115)
(0.00609384 0.00459929 -0.00955415)
(0.00619763 0.00422972 -0.0085863)
(0.00534257 0.00392839 -0.00723055)
(0.0037817 0.00372331 -0.00559229)
(0.00187176 0.00354939 -0.00381206)
(-5.88731e-05 0.00332734 -0.00202267)
(-0.00178624 0.00300067 -0.000311669)
(-0.00319222 0.00253913 0.00128101)
(-0.00422447 0.00193329 0.0027457)
(-0.00485801 0.00118762 0.00408836)
(-0.00507268 0.000315121 0.00532122)
(-0.0048432 -0.000663348 0.00645458)
(-0.00413716 -0.00171334 0.0074905)
(-0.00292233 -0.00277465 0.00841987)
(-0.00119767 -0.00374694 0.00921756)
(0.00092823 -0.00449211 0.00982584)
(0.00314955 -0.00488203 0.0101456)
(0.00500763 -0.00488098 0.0100743)
(0.00609384 -0.00459929 0.00955415)
(0.00619763 -0.00422972 0.0085863)
(0.00534257 -0.00392839 0.00723055)
(0.0037817 -0.00372331 0.00559229)
(0.00187176 -0.00354939 0.00381206)
(-5.8873e-05 -0.00332734 0.00202267)
(-0.00178624 -0.00300067 0.000311669)
(-0.00319222 -0.00253913 -0.00128101)
(-0.00422447 -0.00193329 -0.0027457)
(-0.00485801 -0.00118762 -0.00408836)
(-0.00507268 -0.000315121 -0.00532122)
(-0.0048432 0.000663348 -0.00645458)
(-0.00413716 0.00171334 -0.0074905)
(-0.00292233 0.00277465 -0.00841987)
(-0.00119767 0.00374694 -0.00921756)
(0.00092823 0.00449211 -0.00982584)
(0.00314955 0.00488203 -0.0101456)
(0.00500763 0.00488098 -0.0100743)
(0.00490248 0.00417335 -0.00950098)
(0.00510762 0.00412191 -0.00865689)
(0.00489643 0.00409974 -0.007423)
(0.00422502 0.00413697 -0.00587669)
(0.00314184 0.00418854 -0.00413484)
(0.00180903 0.004171 -0.00231708)
(0.000447145 0.00401115 -0.000514753)
(-0.000751644 0.00366749 0.00121798)
(-0.00166227 0.00312601 0.00285007)
(-0.00221352 0.0023942 0.00435851)
(-0.00236468 0.00149853 0.00572439)
(-0.00209337 0.000481096 0.00693336)
(-0.00140025 -0.000603786 0.00797374)
(-0.000333406 -0.0016884 0.00883103)
(0.000975766 -0.00268186 0.00948195)
(0.00231519 -0.00346944 0.0098988)
(0.00347892 -0.00396037 0.0100625)
(0.00435124 -0.0041605 0.00994897)
(0.00490248 -0.00417335 0.00950098)
(0.00510762 -0.00412191 0.00865689)
(0.00489643 -0.00409974 0.007423)
(0.00422502 -0.00413697 0.00587669)
(0.00314184 -0.00418854 0.00413484)
(0.00180903 -0.004171 0.00231708)
(0.000447145 -0.00401115 0.000514753)
(-0.000751644 -0.00366749 -0.00121798)
(-0.00166227 -0.00312601 -0.00285007)
(-0.00221352 -0.0023942 -0.00435851)
(-0.00236468 -0.00149853 -0.00572439)
(-0.00209337 -0.000481096 -0.00693336)
(-0.00140025 0.000603786 -0.00797374)
(-0.000333406 0.0016884 -0.00883103)
(0.000975766 0.00268186 -0.00948195)
(0.00231519 0.00346944 -0.0098988)
(0.00347892 0.00396037 -0.0100625)
(0.00435124 0.0041605 -0.00994897)
(0.00702908 0.00575511 -0.00963255)
(0.00694817 0.00484268 -0.00863387)
(0.00543581 0.00394648 -0.00725059)
(0.00297793 0.00314268 -0.00561107)
(0.000199336 0.00241535 -0.00386309)
(-0.00240263 0.00172293 -0.00213588)
(-0.00458151 0.00102672 -0.000505138)
(-0.00627603 0.000289783 0.00100394)
(-0.00748943 -0.000517593 0.00239247)
(-0.00822376 -0.00141132 0.00367188)
(-0.00846283 -0.00239237 0.00485701)
(-0.00816928 -0.00344423 0.00596199)
(-0.00727877 -0.0045231 0.00699972)
(-0.00569728 -0.00554354 0.00798278)
(-0.00334644 -0.00637437 0.00890348)
(-0.000328844 -0.00686641 0.00968008)
(0.00288737 -0.00691362 0.0101474)
(0.00556452 -0.00650752 0.0101505)
(0.00702908 -0.00575511 0.00963255)
(0.00694817 -0.00484268 0.00863387)
(0.00543581 -0.00394648 0.00725059)
(0.00297793 -0.00314268 0.00561107)
(0.000199336 -0.00241535 0.00386309)
(-0.00240263 -0.00172293 0.00213588)
(-0.00458151 -0.00102672 0.000505138)
(-0.00627603 -0.000289783 -0.00100394)
(-0.00748943 0.000517593 -0.00239247)
(-0.00822376 0.00141132 -0.00367188)
(-0.00846283 0.00239237 -0.00485701)
(-0.00816928 0.00344423 -0.00596199)
(-0.00727877 0.0045231 -0.00699972)
(-0.00569728 0.00554354 -0.00798278)
(-0.00334644 0.00637437 -0.00890348)
(-0.000328844 0.00686641 -0.00968008)
(0.00288737 0.00691362 -0.0101474)
(0.00556452 0.00650752 -0.0101505)
(0.00597514 0.0050228 -0.00957415)
(0.00600882 0.00458207 -0.00865668)
(0.00513433 0.00414649 -0.00735169)
(0.00357232 0.00374747 -0.00575733)
(0.00164685 0.00335347 -0.00400897)
(-0.000322369 0.0029187 -0.00223376)
(-0.00210267 0.00240694 -0.00051435)
(-0.00356148 0.00179208 0.00111069)
(-0.00463064 0.00105928 0.00262559)
(-0.00527078 0.000208261 0.00402305)
(-0.00545174 -0.00074567 0.00530018)
(-0.00514425 -0.00177133 0.0064572)
(-0.00431939 -0.00281878 0.00749565)
(-0.0029607 -0.00381325 0.00841518)
(-0.00110614 -0.0046528 0.00920093)
(0.00107538 -0.00522636 0.00979936)
(0.00324819 -0.00545973 0.0101166)
(0.00499718 -0.00536032 0.0100593)
(0.00597514 -0.0050228 0.00957415)
(0.00600882 -0.00458207 0.00865668)
(0.00513433 -0.00414649 0.00735169)
(0.00357232 -0.00374747 0.00575733)
(0.00164685 -0.00335347 0.00400897)
(-0.000322369 -0.0029187 0.00223376)
(-0.00210267 -0.00240694 0.00051435)
(-0.00356148 -0.00179208 -0.00111069)
(-0.00463064 -0.00105928 -0.00262559)
(-0.00527078 -0.000208261 -0.00402305)
(-0.00545174 0.00074567 -0.00530018)
(-0.00514425 0.00177133 -0.0064572)
(-0.00431939 0.00281878 -0.00749565)
(-0.0029607 0.00381325 -0.00841518)
(-0.00110614 0.0046528 -0.00920093)
(0.00107538 0.00522636 -0.00979936)
(0.00324819 0.00545973 -0.0101166)
(0.00499718 0.00536032 -0.0100593)
(0.00494033 0.00455842 -0.00979237)
(0.00512068 0.00459745 -0.00892418)
(0.00488943 0.00457548 -0.00762712)
(0.00421406 0.00450243 -0.00601626)
(0.00313201 0.00436492 -0.00423437)
(0.00178657 0.00413087 -0.00240271)
(0.000392893 0.00376863 -0.000601923)
(-0.000845835 0.00325779 0.00112438)
(-0.00178962 0.00259042 0.00275069)
(-0.00235643 0.00177454 0.00425462)
(-0.00250031 0.000837408 0.00561586)
(-0.00219925 -0.000176026 0.00682002)
(-0.00146078 -0.00120734 0.0078597)
(-0.000347484 -0.00218862 0.00873151)
(0.000991796 -0.00304662 0.00942939)
(0.00234197 -0.00371631 0.00993721)
(0.00351191 -0.00416922 0.0102191)
(0.00439334 -0.0044312 0.0102032)
(0.00494033 -0.00455842 0.00979237)
(0.00512068 -0.00459745 0.00892418)
(0.00488943 -0.00457548 0.00762712)
(0.00421406 -0.00450243 0.00601626)
(0.00313201 -0.00436492 0.00423437)
(0.00178657 -0.00413087 0.00240271)
(0.000392893 -0.00376863 0.000601923)
(-0.000845835 -0.00325779 -0.00112438)
(-0.00178962 -0.00259042 -0.00275069)
(-0.00235643 -0.00177454 -0.00425462)
(-0.00250031 -0.000837408 -0.00561586)
(-0.00219925 0.000176026 -0.00682002)
(-0.00146078 0.00120734 -0.0078597)
(-0.000347484 0.00218862 -0.00873151)
(0.000991796 0.00304662 -0.00942939)
(0.00234197 0.00371631 -0.00993721)
(0.00351191 0.00416922 -0.0102191)
(0.00439334 0.0044312 -0.0102032)
(0.00585536 0.0058491 -0.00901022)
(0.00575255 0.00474007 -0.00819904)
(0.00439926 0.00362928 -0.00704741)
(0.00217725 0.0025917 -0.00563394)
(-0.000394468 0.00163328 -0.00406756)
(-0.00286507 0.000731019 -0.00246338)
(-0.00497746 -0.00014373 -0.000901989)
(-0.00664152 -0.0010251 0.000581244)
(-0.00783452 -0.00194687 0.00197523)
(-0.00853785 -0.0029292 0.00327444)
(-0.0087211 -0.00396891 0.00447456)
(-0.00834235 -0.00503386 0.00557554)
(-0.00734838 -0.00605705 0.00658614)
(-0.00568413 -0.00693348 0.00751948)
(-0.0033507 -0.00753136 0.00836275)
(-0.000533022 -0.00773115 0.00903914)
(0.00232312 -0.00747959 0.00942657)
(0.00462539 -0.00681418 0.00942739)
(0.00585536 -0.0058491 0.00901022)
(0.00575255 -0.00474007 0.00819904)
(0.00439926 -0.00362928 0.00704741)
(0.00217725 -0.0025917 0.00563394)
(-0.000394468 -0.00163328 0.00406756)
(-0.00286507 -0.000731019 0.00246338)
(-0.00497746 0.00014373 0.000901989)
(-0.00664152 0.0010251 -0.000581244)
(-0.00783452 0.00194687 -0.00197523)
(-0.00853785 0.0029292 -0.00327444)
(-0.0087211 0.00396891 -0.00447456)
(-0.00834235 0.00503386 -0.00557554)
(-0.00734838 0.00605705 -0.00658614)
(-0.00568413 0.00693348 -0.00751948)
(-0.0033507 0.00753136 -0.00836275)
(-0.000533022 0.00773115 -0.00903914)
(0.00232312 0.00747959 -0.00942657)
(0.00462539 0.00681418 -0.00942739)
(0.00507624 0.00514072 -0.00904501)
(0.00508124 0.00457351 -0.00825273)
(0.00428564 0.00397968 -0.00710235)
(0.0028674 0.00338668 -0.00567019)
(0.00109361 0.00278374 -0.00406847)
(-0.000756968 0.00214969 -0.00241065)
(-0.00246237 0.00146616 -0.000777976)
(-0.00387959 0.000715624 0.000786733)
(-0.00492314 -0.000116137 0.00226163)
(-0.00553794 -0.001031 0.00363056)
(-0.00568402 -0.00201147 0.00488046)
(-0.00533096 -0.00301816 0.00600411)
(-0.00446042 -0.0039892 0.00700174)
(-0.00308289 -0.0048418 0.00787616)
(-0.00127867 -0.00548242 0.00861591)
(0.000754363 -0.00583301 0.00917491)
(0.00270742 -0.00586306 0.00947759)
(0.00423966 -0.00560446 0.00944977)
(0.00507624 -0.00514072 0.00904501)
(0.00508124 -0.00457351 0.00825273)
(0.00428564 -0.00397968 0.00710235)
(0.0028674 -0.00338668 0.00567019)
(0.00109361 -0.00278374 0.00406847)
(-0.000756968 -0.00214969 0.00241065)
(-0.00246237 -0.00146616 0.000777976)
(-0.00387959 -0.000715624 -0.000786733)
(-0.00492314 0.000116137 -0.00226163)
(-0.00553794 0.001031 -0.00363056)
(-0.00568402 0.00201147 -0.00488046)
(-0.00533096 0.00301816 -0.00600411)
(-0.00446042 0.0039892 -0.00700174)
(-0.00308289 0.0048418 -0.00787616)
(-0.00127867 0.00548242 -0.00861591)
(0.000754363 0.00583301 -0.00917491)
(0.00270742 0.00586306 -0.00947759)
(0.00423966 0.00560446 -0.00944977)
(0.00427372 0.00471693 -0.00944643)
(0.00441974 0.00472048 -0.0086391)
(0.00419539 0.00461794 -0.00741637)
(0.00357828 0.00440718 -0.00589524)
(0.00259518 0.00408941 -0.00421234)
(0.0013573 0.00366333 -0.00247959)
(4.92678e-05 0.00312701 -0.000771149)
(-0.00113406 0.00247891 0.000871111)
(-0.00204424 0.00171923 0.00242185)
(-0.00258866 0.000857982 0.00385888)
(-0.00271609 -7.76484e-05 0.00516196)
(-0.00240669 -0.00104251 0.0063175)
(-0.00167785 -0.00197815 0.00732116)
(-0.000606363 -0.00282165 0.00817562)
(0.000654381 -0.00351936 0.0088817)
(0.00190706 -0.00404287 0.00942487)
(0.00298394 -0.00439722 0.00975976)
(0.00378705 -0.00461216 0.00980091)
(0.00427372 -0.00471693 0.00944643)
(0.00441974 -0.00472048 0.0086391)
(0.00419539 -0.00461794 0.00741637)
(0.00357828 -0.00440718 0.00589524)
(0.00259518 -0.00408941 0.00421234)
(0.0013573 -0.00366333 0.00247959)
(4.92678e-05 -0.00312701 0.000771149)
(-0.00113406 -0.00247891 -0.000871111)
(-0.00204424 -0.00171923 -0.00242185)
(-0.00258866 -0.000857982 -0.00385888)
(-0.00271609 7.76484e-05 -0.00516196)
(-0.00240669 0.00104251 -0.0063175)
(-0.00167785 0.00197815 -0.00732116)
(-0.000606363 0.00282165 -0.00817562)
(0.000654381 0.00351936 -0.0088817)
(0.00190706 0.00404287 -0.00942487)
(0.00298394 0.00439722 -0.00975976)
(0.00378705 0.00461216 -0.00980091)
(0.00404525 0.00574532 -0.00811008)
(0.00400467 0.00444268 -0.00753194)
(0.00292294 0.00312778 -0.00665594)
(0.00106675 0.00187699 -0.00552084)
(-0.00116676 0.000711846 -0.00419796)
(-0.0033934 -0.000377835 -0.00278295)
(-0.00535363 -0.00141295 -0.00136033)
(-0.00692449 -0.00242034 2.09161e-05)
(-0.0080553 -0.00342846 0.0013384)
(-0.00871095 -0.00445424 0.0025774)
(-0.00885371 -0.00548928 0.00372427)
(-0.00844513 -0.00649159 0.00477126)
(-0.00745237 -0.0073835 0.00572186)
(-0.00586552 -0.00805791 0.00658355)
(-0.00374716 -0.00839895 0.00734205)
(-0.00130424 -0.0083211 0.00794211)
(0.00109516 -0.00780671 0.00830548)
(0.00300673 -0.00691167 0.00836975)
(0.00404525 -0.00574532 0.00811008)
(0.00400467 -0.00444268 0.00753194)
(0.00292294 -0.00312778 0.00665594)
(0.00106675 -0.00187699 0.00552084)
(-0.00116676 -0.000711846 0.00419796)
(-0.0033934 0.000377835 0.00278295)
(-0.00535363 0.00141295 0.00136033)
(-0.00692449 0.00242034 -2.09161e-05)
(-0.0080553 0.00342846 -0.0013384)
(-0.00871095 0.00445424 -0.0025774)
(-0.00885371 0.00548928 -0.00372427)
(-0.00844513 0.00649159 -0.00477126)
(-0.00745237 0.0073835 -0.00572186)
(-0.00586552 0.00805791 -0.00658355)
(-0.00374716 0.00839895 -0.00734205)