/*--------------------------------*- C++ -*----------------------------------*\
| =========                 |                                                 |
| \\      /  F ield         | OpenFOAM: The Open Source CFD Toolbox           |
|  \\    /   O peration     | Version:  2312                                  |
|   \\  /    A nd           | Website:  www.openfoam.com                      |
|    \\/     M anipulation  |                                                 |
\*---------------------------------------------------------------------------*/
FoamFile
{
    version     2.0;
    format      ascii;
    arch        "LSB;label=32;scalar=64";
    class       volTensorField;
    location    "0.6";
    object      F;
}
// * * * * * * * * * * * * * * * * * * * * * * * * * * * * * * * * * * * * * //

dimensions      [0 0 0 0 0 0 0];

internalField   nonuniform List<tensor> 
1620
(
(0.834041 0.0669964 -0.111093 -0.105062 1.01802 0.0979603 0.330811 0.00114576 1.08995)
(0.804231 0.06209 -0.148563 -0.107748 1.0272 0.0483705 0.283115 0.0226766 1.10528)
(0.822351 0.0554714 -0.154295 -0.110921 1.03113 0.00374874 0.219961 0.0477262 1.08833)
(0.873613 0.0510652 -0.13862 -0.113625 1.02202 -0.0159618 0.152529 0.0727877 1.05606)
(0.938543 0.0519224 -0.116137 -0.1164 0.998751 -0.0137433 0.0875484 0.0924763 1.02716)
(1.00313 0.0574587 -0.0940668 -0.117963 0.964696 -0.00329314 0.0289532 0.101433 1.01106)
(1.06003 0.0644882 -0.0734059 -0.116164 0.925969 0.00292902 -0.0213042 0.0961646 1.00743)
(1.10667 0.0687885 -0.0534647 -0.109844 0.889763 -0.00130808 -0.0630773 0.076079 1.01057)
(1.14298 0.0665516 -0.0346966 -0.0990777 0.862706 -0.0163064 -0.0980554 0.0435013 1.01362)
(1.16953 0.0555541 -0.0191698 -0.0841922 0.849739 -0.0384674 -0.129313 0.00313817 1.01115)
(1.18632 0.0357733 -0.00974623 -0.0648323 0.853478 -0.0618667 -0.160295 -0.0386208 1.00026)
(1.19223 0.00956039 -0.00883827 -0.0398093 0.87366 -0.0790032 -0.193566 -0.0745146 0.981317)
(1.18494 -0.0185551 -0.0168711 -0.00800642 0.906429 -0.0814596 -0.22969 -0.0976118 0.958568)
(1.16154 -0.0429202 -0.0303253 0.0296231 0.944091 -0.0617972 -0.266792 -0.103253 0.940149)
(1.11978 -0.0592947 -0.0402132 0.0676235 0.97687 -0.0177997 -0.301422 -0.0914232 0.93631)
(1.05958 -0.0675169 -0.0337456 0.0960858 0.997536 0.0419709 -0.330317 -0.0677765 0.954752)
(0.984033 -0.0704665 -0.00155231 0.107404 1.00652 0.0962372 -0.349686 -0.041361 0.994998)
(0.901962 -0.0698825 0.0531218 0.105615 1.01116 0.119074 -0.35152 -0.018649 1.04647)
(0.834041 -0.0669964 0.111093 0.105062 1.01802 0.0979603 -0.330811 0.00114576 1.08995)
(0.804231 -0.06209 0.148563 0.107748 1.0272 0.0483705 -0.283115 0.0226766 1.10528)
(0.822351 -0.0554714 0.154295 0.110921 1.03113 0.00374874 -0.219961 0.0477262 1.08833)
(0.873613 -0.0510652 0.13862 0.113625 1.02202 -0.0159618 -0.152529 0.0727877 1.05606)
(0.938543 -0.0519224 0.116137 0.1164 0.998751 -0.0137433 -0.0875484 0.0924763 1.02716)
(1.00313 -0.0574587 0.0940668 0.117963 0.964696 -0.00329314 -0.0289532 0.101433 1.01106)
(1.06003 -0.0644882 0.0734059 0.116164 0.925969 0.00292902 0.0213042 0.0961646 1.00743)
(1.10667 -0.0687885 0.0534647 0.109844 0.889763 -0.00130808 0.0630773 0.076079 1.01057)
(1.14298 -0.0665516 0.0346966 0.0990777 0.862706 -0.0163064 0.0980554 0.0435013 1.01362)
(1.16953 -0.0555541 0.0191698 0.0841922 0.849739 -0.0384674 0.129313 0.00313817 1.01115)
(1.18632 -0.0357733 0.00974623 0.0648323 0.853478 -0.0618667 0.160295 -0.0386208 1.00026)
(1.19223 -0.00956039 0.00883827 0.0398093 0.87366 -0.0790032 0.193566 -0.0745146 0.981317)
(1.18494 0.0185551 0.0168711 0.00800642 0.906429 -0.0814596 0.22969 -0.0976118 0.958568)
(1.16154 0.0429202 0.0303253 -0.0296231 0.944091 -0.0617972 0.266792 -0.103253 0.940149)
(1.11978 0.0592947 0.0402132 -0.0676235 0.97687 -0.0177997 0.301422 -0.0914232 0.93631)
(1.05958 0.0675169 0.0337456 -0.0960858 0.997536 0.0419709 0.330317 -0.0677765 0.954752)
(0.984033 0.0704665 0.00155231 -0.107404 1.00652 0.0962372 0.349686 -0.041361 0.994998)
(0.901962 0.0698825 -0.0531218 -0.105615 1.01116 0.119074 0.35152 -0.018649 1.04647)
(0.870668 0.0341591 -0.100307 -0.119603 0.995897 0.0726954 0.326111 0.0203876 1.08454)
(0.850151 0.0432692 -0.131337 -0.111903 1.00008 0.027897 0.290523 0.0214842 1.09421)
(0.858012 0.0494544 -0.133184 -0.111037 1.01554 -0.00733402 0.242282 0.0310259 1.07335)
(0.891073 0.0490747 -0.117759 -0.116034 1.02251 -0.0143116 0.185488 0.0520554 1.04168)
(0.938706 0.0476573 -0.0995615 -0.124365 1.00889 1.01861e-05 0.123991 0.0759316 1.01878)
(0.990619 0.0506082 -0.0835001 -0.131902 0.975787 0.0181994 0.0618757 0.0909307 1.01237)
(1.0394 0.0578192 -0.0676298 -0.134808 0.932576 0.0263721 0.002739 0.0891808 1.01928)
(1.08069 0.0648286 -0.049383 -0.131011 0.890735 0.0188579 -0.0513135 0.0688611 1.03125)
(1.1124 0.0661562 -0.0288386 -0.120087 0.860056 -0.00309447 -0.100001 0.0333206 1.03983)
(1.13359 0.0579299 -0.00881713 -0.102323 0.847107 -0.0339986 -0.144389 -0.010607 1.03894)
(1.14359 0.0391508 0.00640475 -0.0779498 0.854731 -0.0661632 -0.18601 -0.0541635 1.02602)
(1.14151 0.0121454 0.0126301 -0.0469865 0.881833 -0.090909 -0.225952 -0.0881424 1.00248)
(1.12633 -0.0174143 0.00755517 -0.00973597 0.923205 -0.0994788 -0.264121 -0.104602 0.973966)
(1.09761 -0.0415172 -0.0067679 0.0320938 0.969562 -0.0845806 -0.298822 -0.0992034 0.949996)
(1.0568 -0.0530399 -0.0216371 0.0738718 1.00865 -0.0438579 -0.326973 -0.0739132 0.941855)
(1.00824 -0.0505965 -0.0228311 0.107625 1.02889 0.0146014 -0.345413 -0.0380548 0.957618)
(0.957708 -0.0404389 0.0014367 0.125664 1.02614 0.0691517 -0.35244 -0.00500137 0.996116)
(0.90973 -0.0324155 0.0491401 0.126741 1.00916 0.0925378 -0.346561 0.0147943 1.0452)
(0.870668 -0.0341591 0.100307 0.119603 0.995897 0.0726954 -0.326111 0.0203876 1.08454)
(0.850151 -0.0432692 0.131337 0.111903 1.00008 0.027897 -0.290523 0.0214842 1.09421)
(0.858012 -0.0494544 0.133184 0.111037 1.01554 -0.00733402 -0.242282 0.0310259 1.07335)
(0.891073 -0.0490747 0.117759 0.116034 1.02251 -0.0143116 -0.185488 0.0520554 1.04168)
(0.938706 -0.0476573 0.0995615 0.124365 1.00889 1.01861e-05 -0.123991 0.0759316 1.01878)
(0.990619 -0.0506082 0.0835001 0.131902 0.975787 0.0181994 -0.0618757 0.0909307 1.01237)
(1.0394 -0.0578192 0.0676298 0.134808 0.932576 0.0263721 -0.002739 0.0891808 1.01928)
(1.08069 -0.0648286 0.049383 0.131011 0.890735 0.0188579 0.0513135 0.0688611 1.03125)
(1.1124 -0.0661562 0.0288386 0.120087 0.860056 -0.00309447 0.100001 0.0333206 1.03983)
(1.13359 -0.0579299 0.00881713 0.102323 0.847107 -0.0339986 0.144389 -0.010607 1.03894)
(1.14359 -0.0391508 -0.00640475 0.0779498 0.854731 -0.0661632 0.18601 -0.0541635 1.02602)
(1.14151 -0.0121454 -0.0126301 0.0469865 0.881833 -0.090909 0.225952 -0.0881424 1.00248)
(1.12633 0.0174143 -0.00755517 0.00973597 0.923205 -0.0994788 0.264121 -0.104602 0.973966)
(1.09761 0.0415172 0.0067679 -0.0320938 0.969562 -0.0845806 0.298822 -0.0992034 0.949996)
(1.0568 0.0530399 0.0216371 -0.0738718 1.00865 -0.0438579 0.326973 -0.0739132 0.941855)
(1.00824 0.0505965 0.0228311 -0.107625 1.02889 0.0146014 0.345413 -0.0380548 0.957618)
(0.957708 0.0404389 -0.0014367 -0.125664 1.02614 0.0691517 0.35244 -0.00500137 0.996116)
(0.90973 0.0324155 -0.0491401 -0.126741 1.00916 0.0925378 0.346561 0.0147943 1.0452)
(0.907 0.0086316 -0.0878373 -0.130546 0.977624 0.0456537 0.308756 0.035348 1.07845)
(0.895289 0.0269969 -0.111715 -0.114302 0.979209 0.00815661 0.284645 0.0192232 1.08223)
(0.893878 0.042019 -0.110583 -0.108575 1.00505 -0.0160367 0.253031 0.0158678 1.05863)
(0.908788 0.0444169 -0.0963981 -0.11448 1.02737 -0.00917637 0.209864 0.033067 1.02869)
(0.938757 0.0402668 -0.0834861 -0.127682 1.0238 0.0187416 0.155157 0.0605381 1.01259)
(0.97768 0.0400874 -0.0749882 -0.141322 0.991729 0.046024 0.0924764 0.081318 1.01696)
(1.01819 0.0473879 -0.0656441 -0.149514 0.943156 0.0562342 0.0267837 0.0829804 1.03595)
(1.05414 0.0577784 -0.0502449 -0.148959 0.894389 0.043739 -0.0378525 0.0619577 1.05806)
(1.08143 0.0638315 -0.0280795 -0.138515 0.859323 0.0117491 -0.0990944 0.02264 1.07224)
(1.09763 0.0595471 -0.00275604 -0.11824 0.846717 -0.0312771 -0.155861 -0.0253584 1.07127)
(1.10135 0.0425834 0.0197302 -0.088855 0.859449 -0.0746304 -0.207579 -0.0700702 1.05319)
(1.09198 0.0151043 0.0329992 -0.0516093 0.894696 -0.107634 -0.253675 -0.099949 1.02163)
(1.06989 -0.0160061 0.0325022 -0.00832626 0.944749 -0.121251 -0.293237 -0.106619 0.985136)
(1.03721 -0.0402731 0.0185877 0.0383382 0.998015 -0.109288 -0.324627 -0.0876353 0.955629)
(0.999159 -0.0478516 -0.000427276 0.0841349 1.04004 -0.070536 -0.345154 -0.0487771 0.945223)
(0.96402 -0.0365837 -0.00903663 0.122222 1.05634 -0.0134695 -0.352002 -0.00382402 0.960863)
(0.93875 -0.0161721 0.00668643 0.144105 1.04077 0.0401165 -0.345361 0.0307458 0.998867)
(0.921952 -0.00323863 0.0457071 0.144627 1.00542 0.0631334 -0.32986 0.0438369 1.04475)
(0.907 -0.0086316 0.0878373 0.130546 0.977624 0.0456537 -0.308756 0.035348 1.07845)
(0.895289 -0.0269969 0.111715 0.114302 0.979209 0.00815661 -0.284645 0.0192232 1.08223)
(0.893878 -0.042019 0.110583 0.108575 1.00505 -0.0160367 -0.253031 0.0158678 1.05863)
(0.908788 -0.0444169 0.0963981 0.11448 1.02737 -0.00917637 -0.209864 0.033067 1.02869)
(0.938757 -0.0402668 0.0834861 0.127682 1.0238 0.0187416 -0.155157 0.0605381 1.01259)
(0.97768 -0.0400874 0.0749882 0.141322 0.991729 0.046024 -0.0924764 0.081318 1.01696)
(1.01819 -0.0473879 0.0656441 0.149514 0.943156 0.0562342 -0.0267837 0.0829804 1.03595)
(1.05414 -0.0577784 0.0502449 0.148959 0.894389 0.043739 0.0378525 0.0619577 1.05806)
(1.08143 -0.0638315 0.0280795 0.138515 0.859323 0.0117491 0.0990944 0.02264 1.07224)
(1.09763 -0.0595471 0.00275604 0.11824 0.846717 -0.0312771 0.155861 -0.0253584 1.07127)
(1.10135 -0.0425834 -0.0197302 0.088855 0.859449 -0.0746304 0.207579 -0.0700702 1.05319)
(1.09198 -0.0151043 -0.0329992 0.0516093 0.894696 -0.107634 0.253675 -0.099949 1.02163)
(1.06989 0.0160061 -0.0325022 0.00832626 0.944749 -0.121251 0.293237 -0.106619 0.985136)
(1.03721 0.0402731 -0.0185877 -0.0383382 0.998015 -0.109288 0.324627 -0.0876353 0.955629)
(0.999159 0.0478516 0.000427276 -0.0841349 1.04004 -0.070536 0.345154 -0.0487771 0.945223)
(0.96402 0.0365837 0.00903663 -0.122222 1.05634 -0.0134695 0.352002 -0.00382402 0.960863)
(0.93875 0.0161721 -0.00668643 -0.144105 1.04077 0.0401165 0.345361 0.0307458 0.998867)
(0.921952 0.00323863 -0.0457071 -0.144627 1.00542 0.0631334 0.32986 0.0438369 1.04475)
(0.79867 0.161749 -0.207157 -0.138528 1.01922 0.141677 0.299004 0.0542523 1.11146)
(0.788152 0.107292 -0.272531 -0.128854 1.03255 0.0635775 0.257512 0.117157 1.11331)
(0.825671 0.0457372 -0.272045 -0.117398 1.03756 0.00751939 0.204183 0.174276 1.08238)
(0.890334 -0.000373308 -0.237175 -0.109476 1.02208 -0.00836904 0.147607 0.217636 1.04829)
(0.963545 -0.0236163 -0.195566 -0.106271 0.984976 0.00200835 0.0924578 0.238126 1.03109)
(1.03281 -0.0279028 -0.159194 -0.104789 0.932647 0.0150583 0.0410072 0.228986 1.03377)
(1.09177 -0.0222418 -0.12893 -0.101493 0.877043 0.014768 -0.0053692 0.189677 1.04769)
(1.13844 -0.0169814 -0.102756 -0.0944572 0.83116 -0.00308394 -0.0462652 0.125365 1.0614)
(1.17302 -0.0208429 -0.080624 -0.0832339 0.805082 -0.0345136 -0.0825343 0.0450623 1.06581)
(1.19618 -0.0389734 -0.0651789 -0.067806 0.804281 -0.0718294 -0.116034 -0.0400116 1.05586)
(1.20802 -0.0721386 -0.0603243 -0.0478063 0.829322 -0.106194 -0.148849 -0.117802 1.03079)
(1.20774 -0.11662 -0.0690519 -0.0224427 0.875838 -0.128424 -0.182357 -0.176877 0.994069)
(1.19346 -0.164571 -0.0908509 0.00889305 0.934355 -0.128989 -0.216518 -0.208197 0.953302)
(1.16229 -0.205322 -0.118513 0.0454611 0.990445 -0.0986997 -0.249758 -0.207299 0.920258)
(1.11101 -0.22896 -0.135031 0.083667 1.02764 -0.0329502 -0.279695 -0.17653 0.910026)
(1.03855 -0.232271 -0.114904 0.116402 1.0363 0.0587726 -0.304134 -0.125062 0.935499)
(0.950776 -0.220659 -0.0378974 0.136213 1.02426 0.14499 -0.320368 -0.0646932 0.994231)
(0.863467 -0.198045 0.0861611 0.141378 1.01451 0.180671 -0.320851 -0.00593797 1.06126)
(0.79867 -0.161749 0.207157 0.138528 1.01922 0.141677 -0.299004 0.0542523 1.11146)
(0.788152 -0.107292 0.272531 0.128854 1.03255 0.0635775 -0.257512 0.117157 1.11331)
(0.825671 -0.0457372 0.272045 0.117398 1.03756 0.00751939 -0.204183 0.174276 1.08238)
(0.890334 0.000373308 0.237175 0.109476 1.02208 -0.00836904 -0.147607 0.217636 1.04829)
(0.963545 0.0236163 0.195566 0.106271 0.984976 0.00200835 -0.0924578 0.238126 1.03109)
(1.03281 0.0279028 0.159194 0.104789 0.932647 0.0150583 -0.0410072 0.228986 1.03377)
(1.09177 0.0222418 0.12893 0.101493 0.877043 0.014768 0.0053692 0.189677 1.04769)
(1.13844 0.0169814 0.102756 0.0944572 0.83116 -0.00308394 0.0462652 0.125365 1.0614)
(1.17302 0.0208429 0.080624 0.0832339 0.805082 -0.0345136 0.0825343 0.0450623 1.06581)
(1.19618 0.0389734 0.0651789 0.067806 0.804281 -0.0718294 0.116034 -0.0400116 1.05586)
(1.20802 0.0721386 0.0603243 0.0478063 0.829322 -0.106194 0.148849 -0.117802 1.03079)
(1.20774 0.11662 0.0690519 0.0224427 0.875838 -0.128424 0.182357 -0.176877 0.994069)
(1.19346 0.164571 0.0908509 -0.00889305 0.934355 -0.128989 0.216518 -0.208197 0.953302)
(1.16229 0.205322 0.118513 -0.0454611 0.990445 -0.0986997 0.249758 -0.207299 0.920258)
(1.11101 0.22896 0.135031 -0.083667 1.02764 -0.0329502 0.279695 -0.17653 0.910026)
(1.03855 0.232271 0.114904 -0.116402 1.0363 0.0587726 0.304134 -0.125062 0.935499)
(0.950776 0.220659 0.0378974 -0.136213 1.02426 0.14499 0.320368 -0.0646932 0.994231)
(0.863467 0.198045 -0.0861611 -0.141378 1.01451 0.180671 0.320851 -0.00593797 1.06126)
(0.833845 0.102715 -0.196798 -0.125901 0.982043 0.110238 0.292645 0.0672685 1.12051)
(0.823089 0.0897672 -0.252101 -0.116313 0.993525 0.0379197 0.261261 0.0977711 1.11454)
(0.842032 0.0574925 -0.241981 -0.110833 1.02222 -0.00675652 0.220081 0.141271 1.07628)
(0.882838 0.0156808 -0.203927 -0.111533 1.03158 -0.00643089 0.17098 0.190335 1.04304)
(0.935038 -0.0169316 -0.168063 -0.116318 1.00671 0.0191246 0.116648 0.225228 1.03621)
(0.989215 -0.0306572 -0.141997 -0.1207 0.95354 0.0408733 0.0606474 0.228569 1.0549)
(1.03859 -0.0285438 -0.120264 -0.120828 0.890116 0.0409225 0.00628806 0.194585 1.08521)
(1.07933 -0.0216592 -0.0969123 -0.114801 0.835748 0.0160744 -0.0444121 0.128273 1.11157)
(1.10974 -0.0220794 -0.0712675 -0.10226 0.804846 -0.0271528 -0.0908801 0.0412361 1.12234)
(1.12916 -0.0380733 -0.0477017 -0.0835026 0.804967 -0.0777639 -0.133508 -0.051477 1.1115)
(1.1371 -0.0720034 -0.0331067 -0.0589252 0.836487 -0.123592 -0.173 -0.133812 1.07907)
(1.13284 -0.119678 -0.0339497 -0.0289563 0.893041 -0.15329 -0.209796 -0.191321 1.03099)
(1.1154 -0.170385 -0.0529737 0.00565711 0.962659 -0.157279 -0.243693 -0.213768 0.978071)
(1.08386 -0.208212 -0.0849685 0.0432865 1.02921 -0.128052 -0.273655 -0.19729 0.93473)
(1.03827 -0.217144 -0.112136 0.0805381 1.0744 -0.0625201 -0.297778 -0.146503 0.917619)
(0.981358 -0.192219 -0.104367 0.11159 1.08303 0.0296623 -0.31359 -0.0764951 0.940874)
(0.920382 -0.149572 -0.0357181 0.130092 1.05353 0.116206 -0.319018 -0.00965291 1.00236)
(0.867754 -0.116079 0.0836076 0.133489 1.00852 0.150022 -0.312619 0.0372646 1.0732)
(0.833845 -0.102715 0.196798 0.125901 0.982043 0.110238 -0.292645 0.0672685 1.12051)
(0.823089 -0.0897672 0.252101 0.116313 0.993525 0.0379197 -0.261261 0.0977711 1.11454)
(0.842032 -0.0574925 0.241981 0.110833 1.02222 -0.00675652 -0.220081 0.141271 1.07628)
(0.882838 -0.0156808 0.203927 0.111533 1.03158 -0.00643089 -0.17098 0.190335 1.04304)
(0.935038 0.0169316 0.168063 0.116318 1.00671 0.0191246 -0.116648 0.225228 1.03621)
(0.989215 0.0306572 0.141997 0.1207 0.95354 0.0408733 -0.0606474 0.228569 1.0549)
(1.03859 0.0285438 0.120264 0.120828 0.890116 0.0409225 -0.00628806 0.194585 1.08521)
(1.07933 0.0216592 0.0969123 0.114801 0.835748 0.0160744 0.0444121 0.128273 1.11157)
(1.10974 0.0220794 0.0712675 0.10226 0.804846 -0.0271528 0.0908801 0.0412361 1.12234)
(1.12916 0.0380733 0.0477017 0.0835026 0.804967 -0.0777639 0.133508 -0.051477 1.1115)
(1.1371 0.0720034 0.0331067 0.0589252 0.836487 -0.123592 0.173 -0.133812 1.07907)
(1.13284 0.119678 0.0339497 0.0289563 0.893041 -0.15329 0.209796 -0.191321 1.03099)
(1.1154 0.170385 0.0529737 -0.00565711 0.962659 -0.157279 0.243693 -0.213768 0.978071)
(1.08386 0.208212 0.0849685 -0.0432865 1.02921 -0.128052 0.273655 -0.19729 0.93473)
(1.03827 0.217144 0.112136 -0.0805381 1.0744 -0.0625201 0.297778 -0.146503 0.917619)
(0.981358 0.192219 0.104367 -0.11159 1.08303 0.0296623 0.31359 -0.0764951 0.940874)
(0.920382 0.149572 0.0357181 -0.130092 1.05353 0.116206 0.319018 -0.00965291 1.00236)
(0.867754 0.116079 -0.0836076 -0.133489 1.00852 0.150022 0.312619 0.0372646 1.0732)
(0.867191 0.0493328 -0.185359 -0.116645 0.946049 0.0763177 0.277428 0.0762419 1.13178)
(0.856547 0.0749084 -0.23033 -0.10607 0.958126 0.0127097 0.257346 0.0717646 1.11647)
(0.85862 0.0721284 -0.209841 -0.103168 1.00921 -0.0195139 0.228088 0.101206 1.0698)
(0.875959 0.0347178 -0.167433 -0.108648 1.04518 -0.00135707 0.18726 0.157516 1.03737)
(0.906676 -0.00954681 -0.137871 -0.118887 1.03525 0.0419697 0.135821 0.209459 1.04224)
(0.945127 -0.0355372 -0.124545 -0.128049 0.982262 0.0745186 0.0778161 0.228134 1.0798)
(0.984412 -0.0384762 -0.114167 -0.131461 0.909997 0.0749904 0.0179419 0.201313 1.13022)
(1.01891 -0.0298352 -0.0954175 -0.126832 0.84531 0.040713 -0.0404058 0.133187 1.17239)
(1.04506 -0.0257558 -0.0663938 -0.113599 0.808426 -0.0187029 -0.0953373 0.038339 1.19071)
(1.06084 -0.0385222 -0.0333881 -0.0921375 0.809869 -0.0875181 -0.145791 -0.0631581 1.17738)
(1.06511 -0.0726447 -0.00698893 -0.0634776 0.849646 -0.148437 -0.191027 -0.149824 1.13355)
(1.05728 -0.123423 0.00196129 -0.0292042 0.918178 -0.186732 -0.230462 -0.203359 1.06913)
(1.03738 -0.176632 -0.0132747 0.00866841 0.999416 -0.19286 -0.263575 -0.212727 1.00019)
(1.00671 -0.210208 -0.0496804 0.047724 1.07442 -0.162283 -0.289576 -0.176352 0.945344)
(0.968903 -0.201928 -0.0880482 0.084644 1.12289 -0.0950219 -0.3068 -0.103367 0.92286)
(0.930683 -0.147158 -0.0927398 0.114278 1.12509 -0.00180465 -0.312773 -0.0160081 0.946541)
(0.900069 -0.076217 -0.0322134 0.130361 1.07342 0.0841928 -0.306711 0.0530583 1.01289)
(0.881394 -0.0384567 0.0816231 0.129475 0.995756 0.115439 -0.293218 0.0817359 1.08825)
(0.867191 -0.0493328 0.185359 0.116645 0.946049 0.0763177 -0.277428 0.0762419 1.13178)
(0.856547 -0.0749084 0.23033 0.10607 0.958126 0.0127097 -0.257346 0.0717646 1.11647)
(0.85862 -0.0721284 0.209841 0.103168 1.00921 -0.0195139 -0.228088 0.101206 1.0698)
(0.875959 -0.0347178 0.167433 0.108648 1.04518 -0.00135707 -0.18726 0.157516 1.03737)
(0.906676 0.00954681 0.137871 0.118887 1.03525 0.0419697 -0.135821 0.209459 1.04224)
(0.945127 0.0355372 0.124545 0.128049 0.982262 0.0745186 -0.0778161 0.228134 1.0798)
(0.984412 0.0384762 0.114167 0.131461 0.909997 0.0749904 -0.0179419 0.201313 1.13022)
(1.01891 0.0298352 0.0954175 0.126832 0.84531 0.040713 0.0404058 0.133187 1.17239)
(1.04506 0.0257558 0.0663938 0.113599 0.808426 -0.0187029 0.0953373 0.038339 1.19071)
(1.06084 0.0385222 0.0333881 0.0921375 0.809869 -0.0875181 0.145791 -0.0631581 1.17738)
(1.06511 0.0726447 0.00698893 0.0634776 0.849646 -0.148437 0.191027 -0.149824 1.13355)
(1.05728 0.123423 -0.00196129 0.0292042 0.918178 -0.186732 0.230462 -0.203359 1.06913)
(1.03738 0.176632 0.0132747 -0.00866841 0.999416 -0.19286 0.263575 -0.212727 1.00019)
(1.00671 0.210208 0.0496804 -0.047724 1.07442 -0.162283 0.289576 -0.176352 0.945344)
(0.968903 0.201928 0.0880482 -0.084644 1.12289 -0.0950219 0.3068 -0.103367 0.92286)
(0.930683 0.147158 0.0927398 -0.114278 1.12509 -0.00180465 0.312773 -0.0160081 0.946541)
(0.900069 0.076217 0.0322134 -0.130361 1.07342 0.0841928 0.306711 0.0530583 1.01289)
(0.881394 0.0384567 -0.0816231 -0.129475 0.995756 0.115439 0.293218 0.0817359 1.08825)
(0.766585 0.222211 -0.301957 -0.169889 1.01018 0.0346751 0.218784 0.101374 1.13799)
(0.785464 0.0742561 -0.35651 -0.135193 1.01851 -0.0214864 0.189738 0.184888 1.13085)
(0.845623 -0.0610316 -0.318879 -0.103877 1.02033 -0.0394832 0.156727 0.257518 1.09138)
(0.924272 -0.162016 -0.247609 -0.0828149 0.999397 -0.018112 0.122182 0.304807 1.0615)
(1.00423 -0.225771 -0.182818 -0.0699831 0.951964 0.0152711 0.0867707 0.315386 1.05995)
(1.07452 -0.257595 -0.139038 -0.060915 0.887513 0.0338004 0.0509918 0.284706 1.08019)
(1.1307 -0.269023 -0.114668 -0.0521293 0.823532 0.0257662 0.0154747 0.216536 1.10615)
(1.17252 -0.27338 -0.103991 -0.0415548 0.776822 -0.00648928 -0.019262 0.120802 1.12363)
(1.201 -0.281425 -0.103451 -0.028126 0.75842 -0.0534684 -0.0528753 0.0109829 1.12389)
(1.21696 -0.299456 -0.11265 -0.0112916 0.772381 -0.103906 -0.0851879 -0.0977065 1.10382)
(1.22062 -0.329027 -0.132878 0.00926104 0.81614 -0.1473 -0.116011 -0.19024 1.06544)
(1.21155 -0.36729 -0.164631 0.0335926 0.881326 -0.174676 -0.144919 -0.25407 1.01524)
(1.18847 -0.407748 -0.204323 0.0614119 0.954705 -0.178443 -0.171244 -0.281365 0.963238)
(1.14845 -0.441452 -0.240314 0.0921178 1.01925 -0.152275 -0.194451 -0.270592 0.922553)
(1.08671 -0.458474 -0.250153 0.124825 1.05691 -0.0938658 -0.214454 -0.226686 0.909364)
(1.0004 -0.449804 -0.204724 0.157428 1.05772 -0.013435 -0.230651 -0.158999 0.939445)
(0.898916 -0.409588 -0.0845008 0.183701 1.0326 0.0591618 -0.240305 -0.0754941 1.01288)
(0.809713 -0.33715 0.103289 0.191097 1.01224 0.083555 -0.2386 0.0134978 1.09204)
(0.766585 -0.222211 0.301957 0.169889 1.01018 0.0346751 -0.218784 0.101374 1.13799)
(0.785464 -0.0742561 0.35651 0.135193 1.01851 -0.0214864 -0.189738 0.184888 1.13085)
(0.845623 0.0610316 0.318879 0.103877 1.02033 -0.0394832 -0.156727 0.257518 1.09138)
(0.924272 0.162016 0.247609 0.0828149 0.999397 -0.018112 -0.122182 0.304807 1.0615)
(1.00423 0.225771 0.182818 0.0699831 0.951964 0.0152711 -0.0867707 0.315386 1.05995)
(1.07452 0.257595 0.139038 0.060915 0.887513 0.0338004 -0.0509918 0.284706 1.08019)
(1.1307 0.269023 0.114668 0.0521293 0.823532 0.0257662 -0.0154747 0.216536 1.10615)
(1.17252 0.27338 0.103991 0.0415548 0.776822 -0.00648928 0.019262 0.120802 1.12363)
(1.201 0.281425 0.103451 0.028126 0.75842 -0.0534684 0.0528753 0.0109829 1.12389)
(1.21696 0.299456 0.11265 0.0112916 0.772381 -0.103906 0.0851879 -0.0977065 1.10382)
(1.22062 0.329027 0.132878 -0.00926104 0.81614 -0.1473 0.116011 -0.19024 1.06544)
(1.21155 0.36729 0.164631 -0.0335926 0.881326 -0.174676 0.144919 -0.25407 1.01524)
(1.18847 0.407748 0.204323 -0.0614119 0.954705 -0.178443 0.171244 -0.281365 0.963238)
(1.14845 0.441452 0.240314 -0.0921178 1.01925 -0.152275 0.194451 -0.270592 0.922553)
(1.08671 0.458474 0.250153 -0.124825 1.05691 -0.0938658 0.214454 -0.226686 0.909364)
(1.0004 0.449804 0.204724 -0.157428 1.05772 -0.013435 0.230651 -0.158999 0.939445)
(0.898916 0.409588 0.0845008 -0.183701 1.0326 0.0591618 0.240305 -0.0754941 1.01288)
(0.809713 0.33715 -0.103289 -0.191097 1.01224 0.083555 0.2386 0.0134978 1.09204)
(0.790582 0.146225 -0.283925 -0.123137 0.976488 0.0184321 0.21832 0.108417 1.15157)
(0.7985 0.0824405 -0.323788 -0.110104 0.996718 -0.0331689 0.194734 0.156683 1.13138)
(0.833329 -0.0135205 -0.271672 -0.0994475 1.02703 -0.0426905 0.164331 0.218826 1.08812)
(0.883568 -0.116358 -0.195229 -0.093064 1.03023 -0.0103879 0.127878 0.278824 1.06567)
(0.939632 -0.201074 -0.138547 -0.0885634 0.99221 0.0327392 0.0877135 0.309058 1.07995)
(0.993459 -0.252603 -0.110181 -0.0830719 0.924538 0.0556563 0.0466267 0.292806 1.11901)
(1.03979 -0.274076 -0.0994733 -0.0747788 0.851512 0.0449848 0.00652069 0.230106 1.16201)
(1.07628 -0.280045 -0.0952362 -0.0628952 0.79597 0.00390447 -0.0316837 0.131981 1.19151)
(1.10227 -0.28597 -0.0931725 -0.0472524 0.772936 -0.0556657 -0.0674985 0.0149623 1.19652)
(1.11765 -0.302347 -0.0951335 -0.0280436 0.788226 -0.118902 -0.100547 -0.10158 1.17299)
(1.12223 -0.332865 -0.106048 -0.0057541 0.838492 -0.17156 -0.130496 -0.198311 1.12411)
(1.11549 -0.374144 -0.130505 0.0188278 0.912577 -0.202433 -0.157083 -0.259729 1.05971)
(1.09644 -0.415933 -0.168768 0.0446609 0.99425 -0.204305 -0.180215 -0.27724 0.993929)
(1.06347 -0.442005 -0.211493 0.0706039 1.06486 -0.173229 -0.200094 -0.249976 0.942815)
(1.01474 -0.434075 -0.234169 0.0954199 1.10514 -0.109311 -0.216984 -0.18411 0.923682)
(0.950752 -0.382052 -0.199094 0.117158 1.10095 -0.0243685 -0.230121 -0.0943349 0.953029)
(0.879588 -0.294914 -0.0778439 0.131988 1.05591 0.0491436 -0.236642 -0.00509016 1.03109)
(0.819758 -0.205463 0.113181 0.134368 1.00002 0.0682882 -0.233229 0.0616385 1.11492)
(0.790582 -0.146225 0.283925 0.123137 0.976488 0.0184321 -0.21832 0.108417 1.15157)
(0.7985 -0.0824405 0.323788 0.110104 0.996718 -0.0331689 -0.194734 0.156683 1.13138)
(0.833329 0.0135205 0.271672 0.0994475 1.02703 -0.0426905 -0.164331 0.218826 1.08812)
(0.883568 0.116358 0.195229 0.093064 1.03023 -0.0103879 -0.127878 0.278824 1.06567)
(0.939632 0.201074 0.138547 0.0885634 0.99221 0.0327392 -0.0877135 0.309058 1.07995)
(0.993459 0.252603 0.110181 0.0830719 0.924538 0.0556563 -0.0466267 0.292806 1.11901)
(1.03979 0.274076 0.0994733 0.0747788 0.851512 0.0449848 -0.00652069 0.230106 1.16201)
(1.07628 0.280045 0.0952362 0.0628952 0.79597 0.00390447 0.0316837 0.131981 1.19151)
(1.10227 0.28597 0.0931725 0.0472524 0.772936 -0.0556657 0.0674985 0.0149623 1.19652)
(1.11765 0.302347 0.0951335 0.0280436 0.788226 -0.118902 0.100547 -0.10158 1.17299)
(1.12223 0.332865 0.106048 0.0057541 0.838492 -0.17156 0.130496 -0.198311 1.12411)
(1.11549 0.374144 0.130505 -0.0188278 0.912577 -0.202433 0.157083 -0.259729 1.05971)
(1.09644 0.415933 0.168768 -0.0446609 0.99425 -0.204305 0.180215 -0.27724 0.993929)
(1.06347 0.442005 0.211493 -0.0706039 1.06486 -0.173229 0.200094 -0.249976 0.942815)
(1.01474 0.434075 0.234169 -0.0954199 1.10514 -0.109311 0.216984 -0.18411 0.923682)
(0.950752 0.382052 0.199094 -0.117158 1.10095 -0.0243685 0.230121 -0.0943349 0.953029)
(0.879588 0.294914 0.0778439 -0.131988 1.05591 0.0491436 0.236642 -0.00509016 1.03109)
(0.819758 0.205463 -0.113181 -0.134368 1.00002 0.0682882 0.233229 0.0616385 1.11492)
(0.817342 0.0885131 -0.267345 -0.0960634 0.939624 0.00161806 0.223565 0.101611 1.16783)
(0.812837 0.0965758 -0.291944 -0.0988616 0.972261 -0.0443013 0.205027 0.118737 1.1334)
(0.821679 0.0431802 -0.221957 -0.101663 1.02924 -0.0464054 0.174106 0.174915 1.08698)
(0.842985 -0.0601811 -0.136632 -0.103671 1.06024 -0.00308355 0.133764 0.248286 1.07183)
(0.874373 -0.169595 -0.0876193 -0.103366 1.0376 0.0523714 0.0886401 0.299657 1.10203)
(0.910897 -0.245954 -0.0775972 -0.0992048 0.970124 0.0825365 0.0431034 0.30058 1.16169)
(0.946668 -0.280688 -0.0844547 -0.0903899 0.888247 0.0701867 -0.000226474 0.245648 1.22482)
(0.977303 -0.289019 -0.0894126 -0.076955 0.822482 0.0186035 -0.0403977 0.145968 1.26938)
(1.00047 -0.292109 -0.0865624 -0.0593309 0.793668 -0.0574234 -0.0770709 0.0212732 1.28064)
(1.01507 -0.305865 -0.080202 -0.038255 0.810491 -0.137986 -0.109864 -0.103854 1.25248)
(1.02043 -0.336841 -0.0798165 -0.0148737 0.86871 -0.203175 -0.138423 -0.204375 1.18949)
(1.01594 -0.381019 -0.0953554 0.00934819 0.953254 -0.238425 -0.162705 -0.260951 1.10626)
(1.00104 -0.423283 -0.132112 0.0329091 1.04356 -0.237199 -0.183099 -0.264355 1.02282)
(0.975715 -0.438199 -0.183511 0.0545023 1.11842 -0.199131 -0.200243 -0.215534 0.959563)
(0.941506 -0.397553 -0.221913 0.0728322 1.15678 -0.127869 -0.214479 -0.124181 0.935612)
(0.902397 -0.292284 -0.198027 0.0862648 1.14011 -0.0372784 -0.225266 -0.0132369 0.967477)
(0.864378 -0.159384 -0.0712695 0.0935965 1.06723 0.037254 -0.231092 0.0749894 1.0533)
(0.834492 -0.0823644 0.126567 0.0959551 0.977126 0.0507552 -0.230519 0.105276 1.1427)
(0.817342 -0.0885131 0.267345 0.0960634 0.939624 0.00161806 -0.223565 0.101611 1.16783)
(0.812837 -0.0965758 0.291944 0.0988616 0.972261 -0.0443013 -0.205027 0.118737 1.1334)
(0.821679 -0.0431802 0.221957 0.101663 1.02924 -0.0464054 -0.174106 0.174915 1.08698)
(0.842985 0.0601811 0.136632 0.103671 1.06024 -0.00308355 -0.133764 0.248286 1.07183)
(0.874373 0.169595 0.0876193 0.103366 1.0376 0.0523714 -0.0886401 0.299657 1.10203)
(0.910897 0.245954 0.0775972 0.0992048 0.970124 0.0825365 -0.0431034 0.30058 1.16169)
(0.946668 0.280688 0.0844547 0.0903899 0.888247 0.0701867 0.000226474 0.245648 1.22482)
(0.977303 0.289019 0.0894126 0.076955 0.822482 0.0186035 0.0403977 0.145968 1.26938)
(1.00047 0.292109 0.0865624 0.0593309 0.793668 -0.0574234 0.0770709 0.0212732 1.28064)
(1.01507 0.305865 0.080202 0.038255 0.810491 -0.137986 0.109864 -0.103854 1.25248)
(1.02043 0.336841 0.0798165 0.0148737 0.86871 -0.203175 0.138423 -0.204375 1.18949)
(1.01594 0.381019 0.0953554 -0.00934819 0.953254 -0.238425 0.162705 -0.260951 1.10626)
(1.00104 0.423283 0.132112 -0.0329091 1.04356 -0.237199 0.183099 -0.264355 1.02282)
(0.975715 0.438199 0.183511 -0.0545023 1.11842 -0.199131 0.200243 -0.215534 0.959563)
(0.941506 0.397553 0.221913 -0.0728322 1.15678 -0.127869 0.214479 -0.124181 0.935612)
(0.902397 0.292284 0.198027 -0.0862648 1.14011 -0.0372784 0.225266 -0.0132369 0.967477)
(0.864378 0.159384 0.0712695 -0.0935965 1.06723 0.037254 0.231092 0.0749894 1.0533)
(0.834492 0.0823644 -0.126567 -0.0959551 0.977126 0.0507552 0.230519 0.105276 1.1427)
(0.832833 0.216516 -0.350212 -0.147787 0.949379 -0.119984 0.117588 0.134263 1.13184)
(0.857622 0.00139079 -0.387815 -0.105217 0.962251 -0.0968957 0.105773 0.222687 1.1221)
(0.906615 -0.189427 -0.318291 -0.0672366 0.969474 -0.0528535 0.0957861 0.292231 1.09816)
(0.970447 -0.340798 -0.21413 -0.038421 0.946083 0.00122812 0.0839346 0.329454 1.09298)
(1.03493 -0.445416 -0.129151 -0.0160723 0.892049 0.042805 0.0685025 0.32482 1.1124)
(1.08969 -0.505512 -0.0826387 0.00234192 0.823164 0.0549711 0.0496051 0.277962 1.14418)
(1.13161 -0.534263 -0.0705834 0.0183406 0.759467 0.0336984 0.0275632 0.196553 1.17298)
(1.16155 -0.547343 -0.0820484 0.0335361 0.717184 -0.0140939 0.00288994 0.0922676 1.18732)
(1.18059 -0.55655 -0.108262 0.0495211 0.705833 -0.0764077 -0.0232085 -0.0210332 1.18094)
(1.189 -0.568702 -0.144614 0.0673133 0.727664 -0.140841 -0.0489499 -0.128214 1.15288)