/*--------------------------------*- C++ -*----------------------------------*\
| =========                 |                                                 |
| \\      /  F ield         | OpenFOAM: The Open Source CFD Toolbox           |
|  \\    /   O peration     | Version:  2312                                  |
|   \\  /    A nd           | Website:  www.openfoam.com                      |
|    \\/     M anipulation  |                                                 |
\*---------------------------------------------------------------------------*/
FoamFile
{
    version     2.0;
    format      ascii;
    arch        "LSB;label=32;scalar=64";
    class       pointVectorField;
    location    "0.6";
    object      pointD;
}
// * * * * * * * * * * * * * * * * * * * * * * * * * * * * * * * * * * * * * //

dimensions      [0 1 0 0 0 0 0];

internalField   nonuniform List<vector> 
2164
(
(0 0 0)
(0 0 0)
(0 0 0)
(0 0 0)
(0 0 0)
(0 0 0)
(0 0 0)
(0 0 0)
(0 0 0)
(0 0 0)
(0 0 0)
(0 0 0)
(0 0 0)
(0 0 0)
(0 0 0)
(0 0 0)
(0 0 0)
(0 0 0)
(0 0 0)
(0 0 0)
(0 0 0)
(0 0 0)
(0 0 0)
(0 0 0)
(0 0 0)
(0 0 0)
(0 0 0)
(0 0 0)
(0 0 0)
(0 0 0)
(0 0 0)
(0 0 0)
(0 0 0)
(0 0 0)
(0 0 0)
(0 0 0)
(0.00220317 0.000552513 -0.00375206)
(0.00244496 0.000979732 -0.00310397)
(0.00214368 0.00128126 -0.00214843)
(0.00155198 0.00135356 -0.0011305)
(0.000900786 0.00123953 -0.00023579)
(0.000307421 0.00101613 0.000446677)
(-0.000195811 0.000742734 0.000905092)
(-0.000616315 0.000459565 0.00117415)
(-0.000971522 0.000193455 0.00131445)
(-0.00127265 -4.30316e-05 0.00139821)
(-0.00151604 -0.000252666 0.00149582)
(-0.00167957 -0.000445775 0.00166245)
(-0.0017239 -0.000619535 0.00192796)
(-0.00159699 -0.000732976 0.00229544)
(-0.00123752 -0.000710878 0.00274878)
(-0.000583664 -0.000519836 0.00324697)
(0.000365287 -0.000282196 0.00368859)
(0.00141296 -0.000256928 0.00392231)
(0.00220317 -0.000552513 0.00375206)
(0.00244496 -0.000979732 0.00310397)
(0.00214368 -0.00128126 0.00214843)
(0.00155198 -0.00135356 0.0011305)
(0.000900786 -0.00123953 0.00023579)
(0.000307421 -0.00101613 -0.000446677)
(-0.000195811 -0.000742734 -0.000905092)
(-0.000616315 -0.000459565 -0.00117415)
(-0.000971522 -0.000193455 -0.00131445)
(-0.00127265 4.30315e-05 -0.00139821)
(-0.00151604 0.000252666 -0.00149582)
(-0.00167957 0.000445775 -0.00166245)
(-0.0017239 0.000619535 -0.00192796)
(-0.00159699 0.000732976 -0.00229544)
(-0.00123752 0.000710878 -0.00274878)
(-0.000583664 0.000519836 -0.00324697)
(0.000365287 0.000282196 -0.00368859)
(0.00141296 0.000256928 -0.00392231)
(0.00146682 0.000892505 -0.0034129)
(0.00161748 0.00105676 -0.00289417)
(0.00142242 0.00121682 -0.00218268)
(0.00100257 0.00130598 -0.0014028)
(0.000498683 0.00131663 -0.000658735)
(4.68192e-06 0.00125952 -1.32306e-05)
(-0.000432027 0.00114636 0.000511474)
(-0.000793225 0.000989592 0.0009245)
(-0.00107456 0.000801018 0.00125647)
(-0.00127435 0.000586356 0.00154868)
(-0.00138655 0.000342132 0.00184085)
(-0.00139867 6.09602e-05 0.00215902)
(-0.00129551 -0.000252622 0.00250659)
(-0.00106667 -0.000561286 0.00286349)
(-0.000709878 -0.000790896 0.00319715)
(-0.000224612 -0.000875511 0.00347367)
(0.000376672 -0.00083809 0.00364677)
(0.000998864 -0.000811411 0.00365422)
(0.00146682 -0.000892505 0.0034129)
(0.00161748 -0.00105676 0.00289417)
(0.00142242 -0.00121682 0.00218268)
(0.00100257 -0.00130598 0.0014028)
(0.000498683 -0.00131663 0.000658735)
(4.68192e-06 -0.00125952 1.32306e-05)
(-0.000432027 -0.00114636 -0.000511474)
(-0.000793225 -0.000989592 -0.0009245)
(-0.00107456 -0.000801018 -0.00125647)
(-0.00127435 -0.000586356 -0.00154868)
(-0.00138655 -0.000342132 -0.00184085)
(-0.00139867 -6.09602e-05 -0.00215902)
(-0.00129551 0.000252622 -0.00250659)
(-0.00106667 0.000561286 -0.00286349)
(-0.000709878 0.000790896 -0.00319715)
(-0.000224612 0.000875511 -0.00347367)
(0.000376672 0.00083809 -0.00364677)
(0.000998864 0.000811411 -0.00365422)
(0 0 0)
(0 0 0)
(0 0 0)
(0 0 0)
(0 0 0)
(0 0 0)
(0 0 0)
(0 0 0)
(0 0 0)
(0 0 0)
(0 0 0)
(0 0 0)
(0 0 0)
(0 0 0)
(0 0 0)
(0 0 0)
(0 0 0)
(0 0 0)
(0 0 0)
(0 0 0)
(0 0 0)
(0 0 0)
(0 0 0)
(0 0 0)
(0 0 0)
(0 0 0)
(0 0 0)
(0 0 0)
(0 0 0)
(0 0 0)
(0 0 0)
(0 0 0)
(0 0 0)
(0 0 0)
(0 0 0)
(0 0 0)
(0.000787147 0.00116351 -0.00305788)
(0.00085635 0.00109063 -0.00267759)
(0.000759131 0.00112591 -0.00220891)
(0.000498 0.0012434 -0.00166158)
(0.000126694 0.00139047 -0.00106292)
(-0.000284695 0.00151244 -0.000449474)
(-0.000673509 0.00157067 0.000147096)
(-0.00099487 0.0015465 0.000709883)
(-0.00122138 0.00143433 0.00123725)
(-0.00133734 0.0012328 0.00173599)
(-0.00133333 0.000940388 0.00221182)
(-0.0012057 0.000557808 0.00266061)
(-0.000962657 9.74758e-05 0.00306206)
(-0.000634263 -0.000401854 0.00337998)
(-0.00027489 -0.000864834 0.00357476)
(5.98989e-05 -0.00119443 0.00362677)
(0.000350997 -0.00132352 0.00354587)
(0.00060083 -0.00128068 0.00335046)
(0.000787147 -0.00116351 0.00305788)
(0.00085635 -0.00109063 0.00267759)
(0.000759131 -0.00112591 0.00220891)
(0.000498 -0.0012434 0.00166158)
(0.000126694 -0.00139047 0.00106292)
(-0.000284695 -0.00151244 0.000449474)
(-0.000673509 -0.00157067 -0.000147096)
(-0.00099487 -0.0015465 -0.000709883)
(-0.00122138 -0.00143433 -0.00123725)
(-0.00133734 -0.0012328 -0.00173599)
(-0.00133333 -0.000940388 -0.00221182)
(-0.0012057 -0.000557808 -0.00266061)
(-0.000962657 -9.74758e-05 -0.00306206)
(-0.000634263 0.000401854 -0.00337998)
(-0.00027489 0.000864834 -0.00357476)
(5.98989e-05 0.00119443 -0.00362677)
(0.000350997 0.00132352 -0.00354587)
(0.00060083 0.00128068 -0.00335046)
(0 0 0)
(0 0 0)
(0 0 0)
(0 0 0)
(0 0 0)
(0 0 0)
(0 0 0)
(0 0 0)
(0 0 0)
(0 0 0)
(0 0 0)
(0 0 0)
(0 0 0)
(0 0 0)
(0 0 0)
(0 0 0)
(0 0 0)
(0 0 0)
(0 0 0)
(0 0 0)
(0 0 0)
(0 0 0)
(0 0 0)
(0 0 0)
(0 0 0)
(0 0 0)
(0 0 0)
(0 0 0)
(0 0 0)
(0 0 0)
(0 0 0)
(0 0 0)
(0 0 0)
(0 0 0)
(0 0 0)
(0 0 0)
(0.000223696 0.00131028 -0.00271459)
(0.000234831 0.00108141 -0.0024605)
(0.000221217 0.00103516 -0.00220024)
(0.000100639 0.00118914 -0.00185412)
(-0.000148441 0.0014659 -0.00138478)
(-0.00048351 0.00175936 -0.000801569)
(-0.000832554 0.00198387 -0.000140104)
(-0.00112707 0.00208769 0.00056025)
(-0.00131714 0.00204556 0.00126587)
(-0.00137247 0.00184886 0.00194745)
(-0.00127962 0.00150043 0.00257541)
(-0.00104311 0.00101373 0.00311639)
(-0.00069319 0.000415444 0.00353129)
(-0.000296516 -0.000246637 0.00377742)
(4.65076e-05 -0.000889871 0.00382132)
(0.000243105 -0.00139125 0.00366677)
(0.000281869 -0.00162421 0.00337438)
(0.000246436 -0.00155995 0.0030285)
(0.000223696 -0.00131028 0.00271459)
(0.000234831 -0.00108141 0.0024605)
(0.000221217 -0.00103516 0.00220024)
(0.000100639 -0.00118914 0.00185412)
(-0.000148441 -0.0014659 0.00138478)
(-0.00048351 -0.00175936 0.000801569)
(-0.000832554 -0.00198387 0.000140104)
(-0.00112707 -0.00208769 -0.00056025)
(-0.00131714 -0.00204556 -0.00126587)
(-0.00137247 -0.00184886 -0.00194745)
(-0.00127962 -0.00150043 -0.00257541)
(-0.00104311 -0.00101373 -0.00311639)
(-0.00069319 -0.000415444 -0.00353129)
(-0.000296516 0.000246637 -0.00377742)
(4.65076e-05 0.000889871 -0.00382132)
(0.000243105 0.00139125 -0.00366677)
(0.000281869 0.00162421 -0.00337438)
(0.000246436 0.00155995 -0.0030285)
(0 0 0)
(0 0 0)
(0 0 0)
(0 0 0)
(0 0 0)
(0 0 0)
(0 0 0)
(0 0 0)
(0 0 0)
(0 0 0)
(0 0 0)
(0 0 0)
(0 0 0)
(0 0 0)
(0 0 0)
(0 0 0)
(0 0 0)
(0 0 0)
(0 0 0)
(0 0 0)
(0 0 0)
(0 0 0)
(0 0 0)
(0 0 0)
(0 0 0)
(0 0 0)
(0 0 0)
(0 0 0)
(0 0 0)
(0 0 0)
(0 0 0)
(0 0 0)
(0 0 0)
(0 0 0)
(0 0 0)
(0 0 0)
(0.00463189 0.0018826 -0.00662486)
(0.004688 0.00223971 -0.0053981)
(0.00372045 0.00243114 -0.00378443)
(0.0022818 0.00241516 -0.00214229)
(0.000800065 0.00224618 -0.000700422)
(-0.000508265 0.00197355 0.000442347)
(-0.00158208 0.00163178 0.0012762)
(-0.00243714 0.00125367 0.00184988)
(-0.00310934 0.000867402 0.00225153)
(-0.0036223 0.000482922 0.00258838)
(-0.00397132 8.5263e-05 0.00296171)
(-0.00411716 -0.000353545 0.00344159)
(-0.00398571 -0.000840783 0.0040505)
(-0.00347266 -0.00131765 0.00476754)
(-0.00246134 -0.00164447 0.00555354)
(-0.000879444 -0.00169694 0.00634985)
(0.0011738 -0.00155924 0.00697649)
(0.0032836 -0.00157597 0.00715098)
(0.00463189 -0.0018826 0.00662486)
(0.004688 -0.00223971 0.0053981)
(0.00372045 -0.00243114 0.00378443)
(0.0022818 -0.00241516 0.00214229)
(0.000800065 -0.00224618 0.000700422)
(-0.000508265 -0.00197355 -0.000442347)
(-0.00158208 -0.00163178 -0.0012762)
(-0.00243714 -0.00125367 -0.00184988)
(-0.00310934 -0.000867402 -0.00225153)
(-0.0036223 -0.000482922 -0.00258838)
(-0.00397132 -8.5263e-05 -0.00296171)
(-0.00411716 0.000353545 -0.00344159)
(-0.00398571 0.000840783 -0.0040505)
(-0.00347266 0.00131765 -0.00476754)
(-0.00246134 0.00164447 -0.00555354)
(-0.000879444 0.00169694 -0.00634985)
(0.0011738 0.00155924 -0.00697649)
(0.0032836 0.00157597 -0.00715098)
(0.00347303 0.00209305 -0.00624662)
(0.00355011 0.00220667 -0.00527602)
(0.00291935 0.002331 -0.00402111)
(0.00188622 0.00241902 -0.0026673)
(0.000734975 0.00244609 -0.00135969)
(-0.000350934 0.0023869 -0.000190237)
(-0.00128132 0.00222799 0.00080153)
(-0.00202626 0.00197507 0.00162314)
(-0.00258331 0.00164288 0.00231775)
(-0.00295348 0.00123961 0.00294654)
(-0.00312711 0.000759717 0.00356756)
(-0.00307938 0.000191775 0.00421572)
(-0.00277397 -0.000457411 0.00488945)
(-0.0021743 -0.00112893 0.00555089)
(-0.00126045 -0.0016942 0.00614399)
(-5.33875e-05 -0.00201313 0.00661226)
(0.00133143 -0.00207096 0.00686743)
(0.00263401 -0.00204671 0.00678118)
(0.00347303 -0.00209305 0.00624662)
(0.00355011 -0.00220667 0.00527602)
(0.00291935 -0.002331 0.00402111)
(0.00188622 -0.00241902 0.0026673)
(0.000734975 -0.00244609 0.00135969)
(-0.000350934 -0.0023869 0.000190237)
(-0.00128132 -0.00222799 -0.00080153)
(-0.00202626 -0.00197507 -0.00162314)
(-0.00258331 -0.00164288 -0.00231775)
(-0.00295348 -0.00123961 -0.00294654)
(-0.00312711 -0.000759717 -0.00356756)
(-0.00307938 -0.000191775 -0.00421572)
(-0.00277397 0.000457411 -0.00488945)
(-0.0021743 0.00112893 -0.00555089)
(-0.00126045 0.0016942 -0.00614399)
(-5.33875e-05 0.00201313 -0.00661226)
(0.00133143 0.00207096 -0.00686743)
(0.00263401 0.00204671 -0.00678118)
(0.00237516 0.00224103 -0.00578929)
(0.00247422 0.00211558 -0.00509733)
(0.00216709 0.00216668 -0.0042101)
(0.00152716 0.00235458 -0.00315264)
(0.000693718 0.00258352 -0.00198845)
(-0.000184737 0.00275069 -0.000800139)
(-0.000988827 0.00278867 0.000344903)
(-0.00164189 0.00267078 0.00141281)
(-0.002102 0.00239443 0.00239939)
(-0.00234616 0.00196483 0.00331537)
(-0.00235875 0.00138827 0.00417116)
(-0.00212882 0.000675251 0.00496441)
(-0.00165795 -0.000147373 0.00567108)
(-0.000977626 -0.00101571 0.00624187)
(-0.000165442 -0.00180819 0.00661183)
(0.000664681 -0.00236353 0.00673379)
(0.00139663 -0.00256698 0.00661567)
(0.00197281 -0.00246065 0.00629383)
(0.00237516 -0.00224103 0.00578929)
(0.00247422 -0.00211558 0.00509733)
(0.00216709 -0.00216668 0.0042101)
(0.00152716 -0.00235458 0.00315264)
(0.000693718 -0.00258352 0.00198845)
(-0.000184737 -0.00275069 0.000800139)
(-0.000988827 -0.00278867 -0.000344903)
(-0.00164189 -0.00267078 -0.00141281)
(-0.002102 -0.00239443 -0.00239939)
(-0.00234616 -0.00196483 -0.00331537)
(-0.00235875 -0.00138827 -0.00417116)
(-0.00212882 -0.000675251 -0.00496441)
(-0.00165795 0.000147373 -0.00567108)
(-0.000977626 0.00101571 -0.00624187)
(-0.000165442 0.00180819 -0.00661183)
(0.000664681 0.00236353 -0.00673379)
(0.00139663 0.00256698 -0.00661567)
(0.00197281 0.00246065 -0.00629383)
(0.0014421 0.0022937 -0.00530346)
(0.00155954 0.00200495 -0.00486281)
(0.00153682 0.00200024 -0.0042961)
(0.00126208 0.00226851 -0.00350775)
(0.000736835 0.00267397 -0.00248852)
(6.43846e-05 0.0030511 -0.00130231)
(-0.000616748 0.00327911 -3.40651e-05)
(-0.00118819 0.00329479 0.00124642)
(-0.0015696 0.00307454 0.00248902)
(-0.00171352 0.00261919 0.00365368)
(-0.00159767 0.00194781 0.00470283)
(-0.00122491 0.00109542 0.00559773)
(-0.00063486 0.00011305 0.00629459)
(7.54282e-05 -0.000923266 0.00673912)
(0.000742779 -0.00188947 0.00687207)
(0.00118735 -0.00260212 0.00667363)
(0.00133513 -0.0028775 0.00623985)
(0.00135262 -0.00269324 0.0057474)
(0.0014421 -0.0022937 0.00530346)
(0.00155954 -0.00200495 0.00486281)
(0.00153682 -0.00200024 0.0042961)
(0.00126208 -0.00226851 0.00350775)
(0.000736835 -0.00267397 0.00248852)
(6.43846e-05 -0.0030511 0.00130231)
(-0.000616748 -0.00327911 3.40651e-05)
(-0.00118819 -0.00329479 -0.00124642)
(-0.0015696 -0.00307454 -0.00248902)
(-0.00171352 -0.00261919 -0.00365368)
(-0.00159767 -0.00194781 -0.00470283)
(-0.00122491 -0.00109542 -0.00559773)
(-0.00063486 -0.00011305 -0.00629459)
(7.54282e-05 0.000923266 -0.00673912)
(0.000742779 0.00188947 -0.00687207)
(0.00118735 0.00260212 -0.00667363)
(0.00133513 0.0028775 -0.00623985)
(0.00135262 0.00269324 -0.0057474)
(0.0072452 0.00365406 -0.00865017)
(0.00669823 0.00352004 -0.00708108)
(0.00479192 0.00334194 -0.00512783)
(0.0023534 0.00310644 -0.00316001)
(-2.41772e-05 0.00281368 -0.00139611)
(-0.00204942 0.00245528 7.10877e-05)
(-0.00365517 0.00202883 0.00123074)
(-0.00487871 0.00154718 0.00212855)
(-0.00577611 0.00102765 0.00285075)
(-0.0063816 0.000472339 0.00350351)
(-0.00669263 -0.000140158 0.00418431)
(-0.00666339 -0.000841375 0.00495416)
(-0.00619618 -0.00163926 0.00582426)
(-0.00512942 -0.00247614 0.00676883)
(-0.00326356 -0.00321072 0.00775084)
(-0.000519 -0.0036801 0.00870344)
(0.00278474 -0.00382543 0.00940796)
(0.00578397 -0.0037673 0.0094694)
(0.0072452 -0.00365406 0.00865017)
(0.00669823 -0.00352004 0.00708108)
(0.00479192 -0.00334194 0.00512783)
(0.0023534 -0.00310644 0.00316001)
(-2.41772e-05 -0.00281368 0.00139611)
(-0.00204942 -0.00245528 -7.10877e-05)
(-0.00365517 -0.00202883 -0.00123074)
(-0.00487871 -0.00154718 -0.00212855)
(-0.00577611 -0.00102765 -0.00285075)
(-0.0063816 -0.000472339 -0.00350351)
(-0.00669263 0.000140158 -0.00418431)
(-0.00666339 0.000841375 -0.00495416)
(-0.00619618 0.00163926 -0.00582426)
(-0.00512942 0.00247614 -0.00676883)
(-0.00326356 0.00321072 -0.00775084)
(-0.000519 0.0036801 -0.00870344)
(0.00278474 0.00382543 -0.00940796)
(0.00578397 0.0037673 -0.0094694)
(0.00582989 0.00343281 -0.00824387)
(0.00551889 0.00329959 -0.00698447)
(0.00425008 0.00324939 -0.00540344)
(0.00250055 0.00323968 -0.00369502)
(0.00066721 0.00320343 -0.002018)
(-0.000998766 0.003078 -0.000478606)
(-0.00238291 0.00282945 0.000874222)
(-0.00345619 0.00245478 0.00204276)
(-0.00422324 0.00196603 0.00306667)
(-0.00468933 0.0013713 0.00400406)
(-0.00484419 0.000667223 0.00490912)
(-0.00465639 -0.000152592 0.005812)
(-0.00407215 -0.00107472 0.00670786)
(-0.00301894 -0.00203501 0.00756066)
(-0.00143216 -0.00289805 0.00831632)
(0.00065416 -0.00349295 0.00890367)
(0.00295299 -0.00371456 0.00919712)
(0.00489151 -0.00362502 0.00900836)
(0.00582989 -0.00343281 0.00824387)
(0.00551889 -0.00329959 0.00698447)
(0.00425008 -0.00324939 0.00540344)
(0.00250055 -0.00323968 0.00369502)
(0.00066721 -0.00320343 0.002018)
(-0.000998766 -0.003078 0.000478606)
(-0.00238291 -0.00282945 -0.000874222)
(-0.00345619 -0.00245478 -0.00204276)
(-0.00422324 -0.00196603 -0.00306667)
(-0.00468933 -0.0013713 -0.00400406)
(-0.00484419 -0.000667223 -0.00490912)
(-0.00465639 0.000152592 -0.005812)
(-0.00407215 0.00107472 -0.00670786)
(-0.00301894 0.00203501 -0.00756066)
(-0.00143216 0.00289805 -0.00831632)
(0.00065416 0.00349295 -0.00890367)
(0.00295299 0.00371456 -0.00919712)
(0.00489151 0.00362502 -0.00900836)
(0.0044584 0.00322756 -0.00779431)
(0.00440828 0.00306631 -0.00685627)
(0.00378201 0.00310244 -0.00563587)
(0.00272153 0.003286 -0.00418276)
(0.00142815 0.00349384 -0.00259946)
(0.000112098 0.00360368 -0.00100048)
(-0.00106364 0.00354136 0.000531802)
(-0.00200248 0.00328131 0.00195892)
(-0.00265661 0.00282532 0.00327363)
(-0.00300083 0.00218573 0.00448287)
(-0.00301591 0.0013791 0.00559413)
(-0.00268376 0.000428424 0.00660519)
(-0.00199469 -0.000627587 0.00749632)
(-0.000967403 -0.0017151 0.00822482)
(0.0003224 -0.00269996 0.00872645)
(0.00172389 -0.0033974 0.00893721)
(0.00300752 -0.00366025 0.0088363)
(0.00395632 -0.00351398 0.00845009)
(0.0044584 -0.00322756 0.00779431)
(0.00440828 -0.00306631 0.00685627)
(0.00378201 -0.00310244 0.00563587)
(0.00272153 -0.003286 0.00418276)
(0.00142815 -0.00349384 0.00259946)
(0.000112098 -0.00360368 0.00100048)
(-0.00106364 -0.00354136 -0.000531802)
(-0.00200248 -0.00328131 -0.00195892)
(-0.00265661 -0.00282532 -0.00327363)
(-0.00300083 -0.00218573 -0.00448287)
(-0.00301591 -0.0013791 -0.00559413)
(-0.00268376 -0.000428424 -0.00660519)
(-0.00199469 0.000627587 -0.00749632)
(-0.000967403 0.0017151 -0.00822482)
(0.0003224 0.00269996 -0.00872645)
(0.00172389 0.0033974 -0.00893721)
(0.00300752 0.00366025 -0.0088363)
(0.00395632 0.00351398 -0.00845009)
(0.00326263 0.00308239 -0.00734893)
(0.00344083 0.00289564 -0.0066887)
(0.00338545 0.00297478 -0.00576948)
(0.00296421 0.00329222 -0.00454669)
(0.00219257 0.00369808 -0.00306897)
(0.00122485 0.00401886 -0.00144281)
(0.000257038 0.00413555 0.000228704)
(-0.000554189 0.0039927 0.00187247)
(-0.00110983 0.00357643 0.00343683)
(-0.00135332 0.00290033 0.00487837)
(-0.00125574 0.00200005 0.00615819)
(-0.000813765 0.000928004 0.00724173)
(-6.45817e-05 -0.000250574 0.0080941)
(0.000882945 -0.00144857 0.00866907)
(0.00182951 -0.00252866 0.00890727)
(0.00254416 -0.00329624 0.0087786)
(0.00290619 -0.0035851 0.00836904)
(0.00306752 -0.00341549 0.00787042)
(0.00326263 -0.00308239 0.00734893)
(0.00344083 -0.00289564 0.0066887)
(0.00338545 -0.00297478 0.00576948)
(0.00296421 -0.00329222 0.00454669)
(0.00219257 -0.00369808 0.00306897)
(0.00122485 -0.00401886 0.00144281)
(0.000257038 -0.00413555 -0.000228704)
(-0.000554189 -0.0039927 -0.00187247)
(-0.00110983 -0.00357643 -0.00343683)
(-0.00135332 -0.00290033 -0.00487837)
(-0.00125574 -0.00200005 -0.00615819)
(-0.000813765 -0.000928004 -0.00724173)
(-6.45817e-05 0.000250574 -0.0080941)
(0.000882945 0.00144857 -0.00866907)
(0.00182951 0.00252866 -0.00890727)
(0.00254416 0.00329624 -0.0087786)
(0.00290619 0.0035851 -0.00836904)
(0.00306752 0.00341549 -0.00787042)
(0.00877599 0.00501713 -0.00960203)
(0.00777743 0.00432803 -0.00799613)
(0.00523969 0.00375092 -0.00603785)
(0.00209604 0.00325654 -0.00401537)
(-0.000914893 0.00278256 -0.00212317)
(-0.00343031 0.00228328 -0.000458396)
(-0.00538483 0.00173129 0.000958196)
(-0.00683545 0.00111506 0.00215552)
(-0.00784617 0.000432939 0.00319399)
(-0.00844952 -0.000321225 0.00414947)
(-0.0086393 -0.001165 0.00509116)
(-0.00836538 -0.00211609 0.00606085)
(-0.00751482 -0.00316395 0.0070685)
(-0.00588595 -0.00423666 0.0081085)
(-0.00324218 -0.00518939 0.00915704)
(0.000399816 -0.00583944 0.0101021)
(0.00440525 -0.00602481 0.0106818)
(0.00757201 -0.00568626 0.0105567)
(0.00877599 -0.00501713 0.00960203)
(0.00777743 -0.00432803 0.00799613)
(0.00523969 -0.00375092 0.00603785)
(0.00209604 -0.00325654 0.00401537)
(-0.000914893 -0.00278256 0.00212317)
(-0.00343031 -0.00228328 0.000458396)
(-0.00538483 -0.00173129 -0.000958196)
(-0.00683545 -0.00111506 -0.00215552)
(-0.00784617 -0.000432939 -0.00319399)
(-0.00844952 0.000321225 -0.00414947)
(-0.0086393 0.001165 -0.00509116)
(-0.00836538 0.00211609 -0.00606085)
(-0.00751482 0.00316395 -0.0070685)
(-0.00588595 0.00423666 -0.0081085)
(-0.00324218 0.00518939 -0.00915704)
(0.000399816 0.00583944 -0.0101021)
(0.00440525 0.00602481 -0.0106818)
(0.00757201 0.00568626 -0.0105567)
(0.00734021 0.00450721 -0.00930445)
(0.00672803 0.00409135 -0.00795007)
(0.00502503 0.00381601 -0.00625617)
(0.00277505 0.00362933 -0.00439933)
(0.000466849 0.00343675 -0.00254207)
(-0.00159307 0.00316573 -0.000796065)
(-0.00327746 0.00277615 0.000788312)
(-0.00455983 0.00225452 0.00220666)
(-0.00544515 0.00160336 0.00348262)
(-0.00593529 0.000828495 0.00465361)
(-0.0060162 -6.69143e-05 0.00575527)
(-0.00565201 -0.00107605 0.00680721)
(-0.00477918 -0.00217083 0.00780752)
(-0.00330465 -0.00327763 0.00873803)
(-0.00115489 -0.0042615 0.00955985)
(0.00155878 -0.00494744 0.0101804)
(0.00436322 -0.00518645 0.0104396)
(0.00650545 -0.00496534 0.0101653)
(0.00734021 -0.00450721 0.00930445)
(0.00672803 -0.00409135 0.00795007)
(0.00502503 -0.00381601 0.00625617)
(0.00277505 -0.00362933 0.00439933)
(0.000466849 -0.00343675 0.00254207)
(-0.00159307 -0.00316573 0.000796065)
(-0.00327746 -0.00277615 -0.000788312)
(-0.00455983 -0.00225452 -0.00220666)
(-0.00544515 -0.00160336 -0.00348262)
(-0.00593529 -0.000828495 -0.00465361)
(-0.0060162 6.69143e-05 -0.00575527)
(-0.00565201 0.00107605 -0.00680721)
(-0.00477918 0.00217083 -0.00780752)
(-0.00330465 0.00327763 -0.00873803)
(-0.00115489 0.0042615 -0.00955985)
(0.00155878 0.00494744 -0.0101804)
(0.00436322 0.00518645 -0.0104396)
(0.00650545 0.00496534 -0.0101653)
(0.00592251 0.00411618 -0.00907738)
(0.00573659 0.00393907 -0.00795465)
(0.00489215 0.00390807 -0.00648706)
(0.00354791 0.00397763 -0.00477256)
(0.00194267 0.00403664 -0.00294599)
(0.000328629 0.00398263 -0.00112706)
(-0.00110025 0.00375449 0.000610947)
(-0.00223127 0.00332962 0.00223554)
(-0.00300918 0.00270937 0.00373561)
(-0.00340417 0.00190903 0.00510887)
(-0.0033927 0.000953393 0.00635535)
(-0.00295215 -0.000123628 0.00747177)
(-0.0020682 -0.00127371 0.008446)
(-0.000760251 -0.00241904 0.00925201)
(0.000876217 -0.00343191 0.00984571)
(0.00264026 -0.00414724 0.0101691)
(0.00424489 -0.00444416 0.010169)
(0.00540254 -0.00435966 0.00981341)
(0.00592251 -0.00411618 0.00907738)
(0.00573659 -0.00393907 0.00795465)
(0.00489215 -0.00390807 0.00648706)
(0.00354791 -0.00397763 0.00477256)
(0.00194267 -0.00403664 0.00294599)
(0.000328629 -0.00398263 0.00112706)
(-0.00110025 -0.00375449 -0.000610947)
(-0.00223127 -0.00332962 -0.00223554)
(-0.00300918 -0.00270937 -0.00373561)
(-0.00340417 -0.00190903 -0.00510887)
(-0.0033927 -0.000953393 -0.00635535)
(-0.00295215 0.000123628 -0.00747177)
(-0.0020682 0.00127371 -0.008446)
(-0.000760251 0.00241904 -0.00925201)
(0.000876217 0.00343191 -0.00984571)
(0.00264026 0.00414724 -0.0101691)
(0.00424489 0.00444416 -0.010169)
(0.00540254 0.00435966 -0.00981341)
(0.00465039 0.00389059 -0.00890699)
(0.00485494 0.0039061 -0.00797162)
(0.00479109 0.00404874 -0.00668161)
(0.00429251 0.00430325 -0.00509034)
(0.00336712 0.00456241 -0.00330385)
(0.00219916 0.00469829 -0.00143692)
(0.0010296 0.00462281 0.000423759)
(4.74857e-05 0.00429619 0.00222257)
(-0.000632747 0.00371267 0.00391634)
(-0.000947873 0.00289341 0.00546446)
(-0.000864431 0.00188277 0.00683164)
(-0.000375404 0.00074068 0.007991)
(0.000480126 -0.000464065 0.00892011)
(0.00157429 -0.00164758 0.00959082)
(0.00267189 -0.00269001 0.00997051)
(0.00352787 -0.00344621 0.0100531)
(0.00405638 -0.0038346 0.00988261)
(0.00437638 -0.00392189 0.00951328)
(0.00465039 -0.00389059 0.00890699)
(0.00485494 -0.0039061 0.00797162)
(0.00479109 -0.00404874 0.00668161)
(0.00429251 -0.00430325 0.00509034)
(0.00336712 -0.00456241 0.00330385)
(0.00219916 -0.00469829 0.00143692)
(0.0010296 -0.00462281 -0.000423759)
(4.74857e-05 -0.00429619 -0.00222257)
(-0.000632747 -0.00371267 -0.00391634)
(-0.000947873 -0.00289341 -0.00546446)
(-0.000864431 -0.00188277 -0.00683164)
(-0.000375404 -0.00074068 -0.007991)
(0.000480126 0.000464065 -0.00892011)
(0.00157429 0.00164758 -0.00959082)
(0.00267189 0.00269001 -0.00997051)
(0.00352787 0.00344621 -0.0100531)
(0.00405638 0.0038346 -0.00988261)
(0.00437638 0.00392189 -0.00951328)
(0.00887387 0.00569717 -0.009684)
(0.0077323 0.00466183 -0.0082399)
(0.00504644 0.0037427 -0.00646418)
(0.00169174 0.00295132 -0.00455733)
(-0.00154902 0.00223236 -0.00269005)
(-0.00426553 0.00153648 -0.00096333)
(-0.00637655 0.000822518 0.00059194)
(-0.00793331 5.51404e-05 0.00198598)
(-0.00898677 -0.000789032 0.00324742)
(-0.00955252 -0.0017235 0.00441296)
(-0.00961131 -0.00275497 0.00551724)
(-0.00910478 -0.00387471 0.0065847)
(-0.00791396 -0.00503612 0.00763344)
(-0.00584425 -0.00613023 0.00868013)
(-0.00273625 -0.00698649 0.0096956)
(0.00119582 -0.00742086 0.01052)
(0.005131 -0.00731106 0.0108891)
(0.00795794 -0.00667267 0.0106112)
(0.00887387 -0.00569717 0.009684)
(0.0077323 -0.00466183 0.0082399)
(0.00504644 -0.0037427 0.00646418)
(0.00169174 -0.00295132 0.00455733)
(-0.00154902 -0.00223236 0.00269005)
(-0.00426553 -0.00153648 0.00096333)
(-0.00637655 -0.000822518 -0.00059194)
(-0.00793331 -5.51404e-05 -0.00198598)
(-0.00898677 0.000789032 -0.00324742)
(-0.00955252 0.0017235 -0.00441296)
(-0.00961131 0.00275497 -0.00551724)
(-0.00910478 0.00387471 -0.0065847)
(-0.00791396 0.00503612 -0.00763344)
(-0.00584425 0.00613023 -0.00868013)
(-0.00273625 0.00698649 -0.0096956)
(0.00119582 0.00742086 -0.01052)
(0.005131 0.00731106 -0.0108891)
(0.00795794 0.00667267 -0.0106112)
(0.00760528 0.0051371 -0.00955474)
(0.00690815 0.00453933 -0.00825493)
(0.00510251 0.00403304 -0.0066084)
(0.0027048 0.00360272 -0.00476951)
(0.000229094 0.00317978 -0.00289492)
(-0.00198898 0.00270749 -0.00109353)
(-0.00380679 0.00214737 0.000586205)
(-0.00518724 0.00147449 0.00213333)
(-0.00612181 0.00067846 0.00355268)
(-0.00659888 -0.000238545 0.00485619)
(-0.00659491 -0.0012644 0.00605726)
(-0.00606941 -0.00237326 0.00716549)
(-0.00495812 -0.00351297 0.00818614)
(-0.00318054 -0.00458852 0.00911936)
(-0.000722943 -0.00545915 0.00993266)
(0.00217832 -0.00597404 0.0105166)
(0.00495366 -0.00604374 0.0107088)
(0.00691976 -0.00570833 0.0103934)
(0.00760528 -0.0051371 0.00955474)
(0.00690815 -0.00453933 0.00825493)
(0.00510251 -0.00403304 0.0066084)
(0.0027048 -0.00360272 0.00476951)
(0.000229094 -0.00317978 0.00289492)
(-0.00198898 -0.00270749 0.00109353)
(-0.00380679 -0.00214737 -0.000586205)
(-0.00518724 -0.00147449 -0.00213333)
(-0.00612181 -0.00067846 -0.00355268)
(-0.00659888 0.000238545 -0.00485619)
(-0.00659491 0.0012644 -0.00605726)
(-0.00606941 0.00237326 -0.00716549)
(-0.00495812 0.00351297 -0.00818614)
(-0.00318054 0.00458852 -0.00911936)
(-0.000722943 0.00545915 -0.00993266)
(0.00217832 0.00597404 -0.0105166)
(0.00495366 0.00604374 -0.0107088)
(0.00691976 0.00570833 -0.0103934)
(0.00635666 0.00473654 -0.00959261)
(0.006134 0.00456487 -0.00839768)
(0.00523202 0.00442794 -0.00682757)
(0.00380481 0.004308 -0.00502013)
(0.002094 0.00414234 -0.00312342)
(0.000362208 0.00387042 -0.00124838)
(-0.00117978 0.00345269 0.000545944)
(-0.00240208 0.00286934 0.00223379)
(-0.00323561 0.00211781 0.0038)
(-0.00364097 0.00121265 0.00523223)
(-0.0035893 0.000184238 0.00652175)
(-0.00305697 -0.000922986 0.00766316)
(-0.00203479 -0.00204871 0.00865194)
(-0.000560164 -0.00310978 0.00947942)
(0.00123283 -0.00399651 0.0101211)
(0.00309578 -0.00459989 0.0105266)
(0.00472556 -0.00487459 0.010624)
(0.00586497 -0.00487951 0.0103336)
(0.00635666 -0.00473654 0.00959261)
(0.006134 -0.00456487 0.00839768)
(0.00523202 -0.00442794 0.00682757)
(0.00380481 -0.004308 0.00502013)
(0.002094 -0.00414234 0.00312342)
(0.000362208 -0.00387042 0.00124838)
(-0.00117978 -0.00345269 -0.000545944)
(-0.00240208 -0.00286934 -0.00223379)
(-0.00323561 -0.00211781 -0.0038)
(-0.00364097 -0.00121265 -0.00523223)
(-0.0035893 -0.000184238 -0.00652175)
(-0.00305697 0.000922986 -0.00766316)
(-0.00203479 0.00204871 -0.00865194)
(-0.000560164 0.00310978 -0.00947942)
(0.00123283 0.00399651 -0.0101211)
(0.00309578 0.00459989 -0.0105266)
(0.00472556 0.00487459 -0.010624)
(0.00586497 0.00487951 -0.0103336)
(0.0052195 0.00451572 -0.00973035)
(0.00543618 0.00472875 -0.00860645)
(0.00536906 0.00489852 -0.00707876)
(0.00485545 0.00502486 -0.00528653)
(0.00388756 0.00506711 -0.00336949)
(0.00264502 0.0049661 -0.00143347)
(0.00138614 0.0046775 0.0004577)
(0.000322604 0.00418014 0.00226724)
(-0.000416876 0.00347373 0.00396275)
(-0.000762739 0.00258121 0.00550922)
(-0.000679905 0.00154848 0.00687597)
(-0.000163947 0.000437201 0.00804236)
(0.00073619 -0.00068372 0.00899683)
(0.00187373 -0.00174095 0.00973161)
(0.0029999 -0.00265615 0.0102432)
(0.00388683 -0.00336753 0.010539)
(0.00448062 -0.00387492 0.0106106)
(0.00488908 -0.00423943 0.010381)
(0.0052195 -0.00451572 0.00973035)
(0.00543618 -0.00472875 0.00860645)
(0.00536906 -0.00489852 0.00707876)
(0.00485545 -0.00502486 0.00528653)
(0.00388756 -0.00506711 0.00336949)
(0.00264502 -0.0049661 0.00143347)
(0.00138614 -0.0046775 -0.0004577)
(0.000322604 -0.00418014 -0.00226724)
(-0.000416876 -0.00347373 -0.00396275)
(-0.000762739 -0.00258121 -0.00550922)
(-0.000679905 -0.00154848 -0.00687597)
(-0.000163947 -0.000437201 -0.00804236)
(0.00073619 0.00068372 -0.00899683)
(0.00187373 0.00174095 -0.00973161)
(0.0029999 0.00265615 -0.0102432)
(0.00388683 0.00336753 -0.010539)
(0.00448062 0.00387492 -0.0106106)
(0.00488908 0.00423943 -0.010381)
(0.00792608 0.00580115 -0.00923961)
(0.0068169 0.00452332 -0.00803379)
(0.00430778 0.00333408 -0.00651654)
(0.00112943 0.00226999 -0.00481953)
(-0.00201194 0.00130288 -0.00308379)
(-0.00470023 0.000396308 -0.00141202)
(-0.00682012 -0.000490169 0.000154255)
(-0.0083924 -0.00140269 0.00161146)
(-0.00944164 -0.00237892 0.00296547)
(-0.00996033 -0.00343662 0.00422211)
(-0.0099131 -0.00456893 0.0053877)
(-0.00923644 -0.00573684 0.00647348)
(-0.00782587 -0.00685548 0.007502)
(-0.0055492 -0.00778561 0.0084924)
(-0.00238582 -0.00835522 0.00939852)
(0.00132292 -0.00842398 0.0100659)
(0.00481859 -0.00795056 0.0103075)
(0.0072233 -0.00701584 0.0100256)
(0.00792608 -0.00580115 0.00923961)
(0.0068169 -0.00452332 0.00803379)
(0.00430778 -0.00333408 0.00651654)
(0.00112943 -0.00226999 0.00481953)
(-0.00201194 -0.00130288 0.00308379)
(-0.00470023 -0.000396308 0.00141202)
(-0.00682012 0.000490169 -0.000154255)
(-0.0083924 0.00140269 -0.00161146)
(-0.00944164 0.00237892 -0.00296547)
(-0.00996033 0.00343662 -0.00422211)
(-0.0099131 0.00456893 -0.0053877)
(-0.00923644 0.00573684 -0.00647348)
(-0.00782587 0.00685548 -0.007502)
(-0.0055492 0.00778561 -0.0084924)
(-0.00238582 0.00835522 -0.00939852)
(0.00132292 0.00842398 -0.0100659)
(0.00481859 0.00795056 -0.0103075)
(0.0072233 0.00701584 -0.0100256)
(0.0069302 0.00529157 -0.00921381)
(0.00624112 0.00454313 -0.00806628)
(0.00454802 0.00383317 -0.00658407)
(0.00228032 0.00316659 -0.00488873)
(-0.000107031 0.00250952 -0.00311857)
(-0.00228793 0.00182999 -0.00137891)
(-0.00410264 0.00109962 0.000278877)
(-0.00549132 0.000290404 0.00183743)