/*--------------------------------*- C++ -*----------------------------------*\
| =========                 |                                                 |
| \\      /  F ield         | OpenFOAM: The Open Source CFD Toolbox           |
|  \\    /   O peration     | Version:  2312                                  |
|   \\  /    A nd           | Website:  www.openfoam.com                      |
|    \\/     M anipulation  |                                                 |
\*---------------------------------------------------------------------------*/
FoamFile
{
    version     2.0;
    format      ascii;
    arch        "LSB;label=32;scalar=64";
    class       volScalarField;
    location    "0.6";
    object      sigmaHyd;
}
// * * * * * * * * * * * * * * * * * * * * * * * * * * * * * * * * * * * * * //

dimensions      [1 -1 -2 0 0 0 0];

internalField   nonuniform List<scalar> 
1620
(
-27767.7
-36660.3
-35369.2
-27699.4
-18596.7
-10700.2
-4544.75
273.127
4294.42
7889.05
11180.6
14026.9
15999.6
16365
14132
8355.2
-1226.64
-14264.6
-27767.7
-36660.3
-35369.2
-27699.4
-18596.7
-10700.2
-4544.75
273.127
4294.42
7889.05
11180.6
14026.9
15999.6
16365
14132
8355.2
-1226.64
-14264.6
-23094.3
-26417
-25852.4
-21615.4
-15853
-10243.3
-5518.99
-1829.98
861.029
2609.34
3443.37
3350.82
2268.48
51.5372
-3556.59
-8624.87
-14280.1
-19264.3
-23094.3
-26417
-25852.4
-21615.4
-15853
-10243.3
-5518.99
-1829.98
861.029
2609.34
3443.37
3350.82
2268.48
51.5372
-3556.59
-8624.87
-14280.1
-19264.3
-17085.2
-16728.9
-15858.7
-13068
-8675.66
-3953.37
-34.4193
2459.63
3238.73
2200.9
-571.73
-4767.03
-9796.58
-14817.8
-18887.8
-21020.7
-20468.8
-18283
-17085.2
-16728.9
-15858.7
-13068
-8675.66
-3953.37
-34.4193
2459.63
3238.73
2200.9
-571.73
-4767.03
-9796.58
-14817.8
-18887.8
-21020.7
-20468.8
-18283
-4957.2
-6141.05
-4748.3
-3056.62
-1718.49
-916.816
-358.645
317.011
1383.5
2983.36
5078.97
7415.05
9533.94
10878.9
10975.8
9323.6
5156.29
-248.059
-4957.2
-6141.05
-4748.3
-3056.62
-1718.49
-916.816
-358.645
317.011
1383.5
2983.36
5078.97
7415.05
9533.94
10878.9
10975.8
9323.6
5156.29
-248.059
-12681.4
-10855.6
-7821.83
-6932.51
-6590.74
-6069.04
-5287.27
-4462.43
-3819.81
-3504.37
-3604.73
-4182.91
-5261.37
-6766.66
-8469.55
-10414.5
-14034.6
-16933.9
-12681.4
-10855.6
-7821.83
-6932.51
-6590.74
-6069.04
-5287.27
-4462.43
-3819.81
-3504.37
-3604.73
-4182.91
-5261.37
-6766.66
-8469.55
-10414.5
-14034.6
-16933.9
-18852.2
-16999.2
-13245.5
-10580.7
-8133.44
-5594.43
-3284.91
-1791.92
-1633.88
-3138.91
-6368.17
-11071.8
-16639.7
-21977.6
-25467.9
-25870.7
-24508.7
-22033.4
-18852.2
-16999.2
-13245.5
-10580.7
-8133.44
-5594.43
-3284.91
-1791.92
-1633.88
-3138.91
-6368.17
-11071.8
-16639.7
-21977.6
-25467.9
-25870.7
-24508.7
-22033.4
-4875.53
-3345.45
3228.8
8197.51
10503.5
11034.7
10782.8
10475.6
10551.2
11204.2
12380.4
13783.2
14931
15270.1
14418.3
12169.9
6400.42
-3565.84
-4875.53
-3345.45
3228.8
8197.51
10503.5
11034.7
10782.8
10475.6
10551.2
11204.2
12380.4
13783.2
14931
15270.1
14418.3
12169.9
6400.42
-3565.84
-27303.3
-17389.2
-10607
-8013.51
-6637.65
-5109.87
-3562.93
-2376.18
-1701.05
-1510.83
-1748.09
-2406.35
-3594.89
-5615.91
-8692.07
-12418.5
-18140.3
-28487.3
-27303.3
-17389.2
-10607
-8013.51
-6637.65
-5109.87
-3562.93
-2376.18
-1701.05
-1510.83
-1748.09
-2406.35
-3594.89
-5615.91
-8692.07
-12418.5
-18140.3
-28487.3
-35128.8
-28861.4
-26267.5
-25483.6
-23513.8
-19893.3
-15740.3
-12363.6
-10626.2
-10937.9
-13300.8
-17407.2
-22772.8
-28653.8
-33382.7
-34355.5
-32268.8
-33478.3
-35128.8
-28861.4
-26267.5
-25483.6
-23513.8
-19893.3
-15740.3
-12363.6
-10626.2
-10937.9
-13300.8
-17407.2
-22772.8
-28653.8
-33382.7
-34355.5
-32268.8
-33478.3
-12536.2
-6799.43
2001.2
8434.21
11817.1
12879.8
12725.1
12257.1
12012.9
12227.8
12873.9
13694.3
14242.9
13881.6
11877.7
7990.53
1464.66
-8416.96
-12536.2
-6799.43
2001.2
8434.21
11817.1
12879.8
12725.1
12257.1
12012.9
12227.8
12873.9
13694.3
14242.9
13881.6
11877.7
7990.53
1464.66
-8416.96
-24542.4
-14101.6
-9913.56
-8076.28
-5798.92
-3149.61
-975.256
387.913
1032.63
1163.24
915.579
288.88
-942.117
-3351.65
-7576.77
-13216.8
-19441.5
-24807.6
-24542.4
-14101.6
-9913.56
-8076.28
-5798.92
-3149.61
-975.256
387.913
1032.63
1163.24
915.579
288.88
-942.117
-3351.65
-7576.77
-13216.8
-19441.5
-24807.6
-15883.8
-17331.8
-22789.6
-26456.3
-26058.1
-22197.6
-17043.1
-12482.8
-9566.92
-8750.26
-10037.5
-13119.5
-17523.8
-22477.7
-25956
-24771.8
-18984
-14866.9
-15883.8
-17331.8
-22789.6
-26456.3
-26058.1
-22197.6
-17043.1
-12482.8
-9566.92
-8750.26
-10037.5
-13119.5
-17523.8
-22477.7
-25956
-24771.8
-18984
-14866.9
-13892.7
-11667.3
-5216.76
2077.59
7278.81
9892.16
10684.1
10644.2
10473.5
10512.4
10809.2
11173.2
11146.1
9804.81
5832.28
-888.552
-8388.21
-13299
-13892.7
-11667.3
-5216.76
2077.59
7278.81
9892.16
10684.1
10644.2
10473.5
10512.4
10809.2
11173.2
11146.1
9804.81
5832.28
-888.553
-8388.21
-13299
-12766.2
-11462.8
-10284.2
-7638.56
-3821.51
-201.658
2191.32
3342.52
3696.57
3610.42
3230.34
2494.37
1083.03
-1658.75
-6325.75
-11882.7
-15595.9
-15145.9
-12766.2
-11462.8
-10284.2
-7638.56
-3821.51
-201.658
2191.32
3342.52
3696.57
3610.42
3230.34
2494.37
1083.03
-1658.75
-6325.75
-11882.7
-15595.9
-15145.9
7102.93
-950.778
-11403.5
-18266.6
-19381.3
-15847.6
-10559.5
-5737.31
-2332.81
-730.912
-1008.64
-2971.21
-6139.1
-9522.69
-10817.2
-7149.39
666.561
7468.67
7102.93
-950.778
-11403.5
-18266.6
-19381.3
-15847.6
-10559.5
-5737.31
-2332.81
-730.912
-1008.64
-2971.21
-6139.1
-9522.69
-10817.2
-7149.39
666.561
7468.67
-19852.1
-17497.4
-12095.5
-5063.65
1281.1
5519.5
7581
8250.68
8326.15
8247.72
8136.18
7848.23
6875.14
4131.01
-1397.57
-8597.51
-15016.3
-19015.5
-19852.1
-17497.4
-12095.5
-5063.65
1281.1
5519.5
7581
8250.68
8326.15
8247.72
8136.18
7848.23
6875.14
4131.01
-1397.57
-8597.51
-15016.3
-19015.5
-11226.7
-9776.98
-8339.53
-5605.4
-1578.04
2240.88
4543.75
5336.74
5295.81
4899.05
4306.08
3441.69
1992.89
-628.453
-4654.72
-8817.1
-11535.3
-12187.4
-11226.7
-9776.98
-8339.53
-5605.4
-1578.04
2240.88
4543.75
5336.74
5295.81
4899.05
4306.08
3441.69
1992.89
-628.453
-4654.72
-8817.1
-11535.3
-12187.4
18770.2
10546.9
-632.053
-8865.56
-11237.8
-8533.57
-3760.8
688.417
4004.93
5923.29
6324.34
5313.13
3365.47
1570.15
2080.8
6826.93
14322.4
19834.2
18770.2
10546.9
-632.053
-8865.56
-11237.8
-8533.57
-3760.8
688.417
4004.93
5923.29
6324.34
5313.13
3365.47
1570.15
2080.8
6826.93
14322.4
19834.2
-26173
-24385.8
-19859.1
-13328.9
-6421.78
-815.153
2663.67
4339.58
4934.37
4934.6
4513.98
3560.72
1567.03
-2380.66
-8590.12
-15571.5
-21470.9
-25174.8
-26173
-24385.8
-19859.1
-13328.9
-6421.78
-815.153
2663.67
4339.58
4934.37
4934.6
4513.98
3560.72
1567.03
-2380.66
-8590.12
-15571.5
-21470.9
-25174.8
-9692.19
-8227.62
-6232.12
-3573.34
-113.453
3330.6
5487.2
6081.79
5785.34
5183.52
4497.09
3677.4
2417.43
207.778
-2914.61
-6046.73
-8558.65
-9933.28
-9692.19
-8227.62
-6232.12
-3573.34
-113.453
3330.6
5487.2
6081.79
5785.34
5183.52
4497.09
3677.4
2417.43
207.778
-2914.61
-6046.73
-8558.65
-9933.28
27942.2
19945.5
8760.2
-230.095
-4030.32
-2861.25
806.358
4579.72
7586.07
9614.47
10537.5
10401.4
9633.38
9304.23
11267.6
16626.9
23813.3
28943.1
27942.2
19945.5
8760.2
-230.095
-4030.32
-2861.25
806.358
4579.72
7586.07
9614.47
10537.5
10401.4
9633.38
9304.23
11267.6
16626.9
23813.3
28943.1
-32424.9
-31435.4
-28032.5
-22457.5
-15764.4
-9432.35
-4704.89
-1867.79
-493.953
-149.142
-646.417
-2071.03
-4828.51
-9439.53
-15670.4
-22187.8
-27634.3
-31150.1
-32424.9
-31435.4
-28032.5
-22457.5
-15764.4
-9432.35
-4704.89
-1867.79
-493.953
-149.142
-646.417
-2071.03
-4828.51
-9439.53
-15670.4
-22187.8
-27634.3
-31150.1
-8919.58
-7168.76
-4658.21
-2018.96
814.104
3647.97
5616.86
6214.21
5873.37
5209.57
4527.45
3808.17
2743.31
938.161
-1529.58
-4266.88
-6978.52
-8869.42
-8919.58
-7168.76
-4658.21
-2018.96
814.104
3647.97
5616.86
6214.21
5873.37
5209.57
4527.45
3808.17
2743.31
938.161
-1529.58
-4266.88
-6978.52
-8869.42
35976.6
28768
17923.9
8358.11
3073.55
2360.43
4579
7604.55
10317.1
12408.3
13750.9
14361.8
14613.7
15501
18491.5
24183.7
31229.2
36405.4
35976.6
28768
17923.9
8358.11
3073.55
2360.43
4579
7604.55
10317.1
12408.3
13750.9
14361.8
14613.7
15501
18491.5
24183.7
31229.2
36405.4
-37498.9
-37333
-35327.3
-31255.8
-25635.9
-19554.4
-14237.2
-10442.3
-8217.94
-7339.41
-7673.04
-9266.67
-12326.9
-16952.6
-22638
-28324.9
-33021.2
-36105.1
-37498.9
-37333
-35327.3
-31255.8
-25635.9
-19554.4
-14237.2
-10442.3
-8217.94
-7339.41
-7673.04
-9266.67
-12326.9
-16952.6
-22638
-28324.9
-33021.2
-36105.1
-9293.37
-7363.04
-4408.67
-1518.73
1078.22
3436.43
5201.15
5928.37
5747.36
5152.78
4500.38
3818.11
2841.2
1271.17
-931.227
-3705.15
-6758.05
-9044.66
-9293.37
-7363.04
-4408.67
-1518.73
1078.22
3436.43
5201.15
5928.37
5747.36
5152.78
4500.38
3818.11
2841.2
1271.17
-931.227
-3705.15
-6758.05
-9044.66
43931.4
37937.9
27905.4
18056.9
11412.1
8749.61
9227.38
11272.8
13627.7
15741
17417.7
18656.2
19795.7
21695.2
25438.8
31363.2
38328.2
43609.9
43931.4
37937.9
27905.4
18056.9
11412.1
8749.61
9227.38
11272.8
13627.7
15741
17417.7
18656.2
19795.7
21695.2
25438.8
31363.2
38328.2
43609.9
-40579.7
-41025.7
-40444.5
-38279.9
-34500.6
-29711.9
-24850.1
-20793.5
-18005.8
-16593.1
-16563.3
-17934.3
-20693.9
-24632.8
-29178.7
-33544
-37053.3
-39354.3
-40579.7
-41025.7
-40444.5
-38279.9
-34500.6
-29711.9
-24850.1
-20793.5
-18005.8
-16593.1
-16563.3
-17934.3
-20693.9
-24632.8
-29178.7
-33544
-37053.3
-39354.3
-11389.5
-9567.34
-6353.73
-3013.28
-137.971
2210.53
3954.22
4889.89
5009.25
4601.25
3982.99
3236.24
2182.92
581.486
-1717.67
-4757.49
-8165.07
-10817
-11389.5
-9567.34
-6353.73
-3013.28
-137.971
2210.53
3954.22
4889.89
5009.25
4601.25
3982.99
3236.24
2182.92
581.486
-1717.67
-4757.49
-8165.07
-10817
51563.4
47106.3
38613.5
29252.5
21788.2
17415.1
15988.4
16611.2
18240.4
20159.7
22030.5
23797.1
25735.1
28496.3
32804.9
38806.2
45488.3
50608.6
51563.4
47106.3
38613.5
29252.5
21788.2
17415.1
15988.4
16611.2
18240.4
20159.7
22030.5
23797.1
25735.1
28496.3
32804.9
38806.2
45488.3
50608.6
-41185.1
-41915.9
-42454
-42169.2
-40614.2
-37883.8
-34504.8
-31189.5
-28541.1
-26915.7
-26479.9
-27259.5
-29114.9
-31712.4
-34561.1
-37149.8
-39118.6
-40377.3
-41185.1
-41915.9
-42454
-42169.2
-40614.2
-37883.8
-34504.8
-31189.5
-28541.1
-26915.7
-26479.9
-27259.5
-29114.9
-31712.4
-34561.1
-37149.8
-39118.6
-40377.3
-15550.3
-14164
-11074.8
-7406.99
-3962.91
-1076.92
1114.65
2499.81
3052.52
2915.02
2316.85
1378.05
20.3348
-1933.54
-4621.25
-8013.93
-11669.5
-14572.6
-15550.3
-14164
-11074.8
-7406.99
-3962.91
-1076.92
1114.65
2499.81
3052.52
2915.02
2316.85
1378.05
20.3348
-1933.54
-4621.25
-8013.93
-11669.5
-14572.6
57646.4
54778.8
48501.8
40805
33746
28566
25607.6
24604.8
25001
26241.8
27955.6
30007.4
32521.2
35844.8
40340.7
45971.9
51878.5
56378.1
57646.4
54778.8
48501.8
40805
33746
28566
25607.6
24604.8
25001
26241.8
27955.6
30007.4
32521.2
35844.8
40340.7
45971.9
51878.5
56378.1
-39239
-39928.8
-41059.4
-42130.7
-42540.6
-42002.6
-40635
-38847
-37128.2
-35861.5
-35251.4
-35330
-35960.7
-36875.9
-37776.9
-38445.8
-38813
-38981.4
-39239
-39928.8
-41059.4
-42130.7
-42540.6
-42002.6
-40635
-38847
-37128.2
-35861.5
-35251.4
-35330
-35960.7
-36875.9
-37776.9
-38445.8
-38813
-38981.4
-21452.6
-20684.9
-18189
-14706.7
-10949.7
-7408.01
-4414.31
-2219.71
-975.773
-688.661
-1232.54
-2465.32
-4334.94
-6864.19
-10040.2
-13680.8
-17323
-20194
-21452.6
-20684.9
-18189
-14706.7
-10949.7
-7408.01
-4414.31
-2219.71
-975.773
-688.661
-1232.54
-2465.32
-4334.94
-6864.19
-10040.2
-13680.8
-17323
-20194
61109.4
59643.3
55828.4
50720.1
45514.4
41064
37780
35751.2
34888.2
35034.9
36050.7
37840.6
40356
43595.2
47553
52054.6
56505.5
59882.1
61109.4
59643.3
55828.4
50720.1
45514.4
41064
37780
35751.2
34888.2
35034.9
36050.7
37840.6
40356
43595.2
47553
52054.6
56505.5
59882.1
-35291.1
-35761.2
-36947.1
-38544
-40044.4
-41040.9
-41390.8
-41202.7
-40732.1
-40246.2
-39863.1
-39531.5
-39158.8
-38644.4
-37923.7
-37045.8
-36168.1
-35502
-35291.1
-35761.2
-36947.1
-38544
-40044.4
-41040.9
-41390.8
-41202.7
-40732.1
-40246.2
-39863.1
-39531.5
-39158.8
-38644.4
-37923.7
-37045.8
-36168.1
-35502
-28230.6
-28135.3
-26669.8
-24153.6
-20981.2
-17542.9
-14207.9
-11345.6
-9291.46
-8307.65
-8487.32
-9737.31
-11864.8
-14648.5
-17865.9
-21245.5
-24415.3
-26899.9
-28230.6
-28135.3
-26669.8
-24153.6
-20981.2
-17542.9
-14207.9
-11345.6
-9291.46
-8307.65
-8487.32
-9737.31
-11864.8
-14648.5
-17865.9
-21245.5
-24415.3
-26899.9
62774.3
62121
60347.2
57910.3
55325.1
52947.2
50947.4
49390.8
48323.8
47820.4
48001.6
48957.5
50649.4
52900.6
55463
58082.2
60446.5
62148
62774.3
62121
60347.2
57910.3
55325.1
52947.2
50947.4
49390.8
48323.8
47820.4
48001.6
48957.5
50649.4
52900.6
55463
58082.2
60446.5
62148
-29050.6
-28975.2
-29642.4
-30826.4
-32204.4
-33530
-34682.5
-35587.6
-36216.8
-36663.9
-37023.6
-37166.9
-36922.6
-36195.6
-34921.4
-33209.9
-31400.7
-29908.2
-29050.6
-28975.2
-29642.4
-30826.4
-32204.4
-33530
-34682.5
-35587.6
-36216.8
-36663.9
-37023.6
-37166.9
-36922.6
-36195.6
-34921.4
-33209.9
-31400.7
-29908.2
-35890.4
-36076.9
-35605
-34502.1
-32886.3
-30952.9
-28899.5
-26898.5
-25157
-24010.6
-23789.9
-24571.7
-26180.5
-28241.9
-30353.2
-32259.1
-33866.8
-35113
-35890.4
-36076.9
-35605
-34502.1
-32886.3
-30952.9
-28899.5
-26898.5
-25157
-24010.6
-23789.9
-24571.7
-26180.5
-28241.9
-30353.2
-32259.1
-33866.8
-35113
66166.2
66028
65497.9
64729.9
63861.1
62976
62142.8
61428
60871.5
60460.2
60202.3
60190.6
60544.7
61332.3
62489
63798.4
64983.6
65815
66166.2
66028
65497.9
64729.9
63861.1
62976
62142.8
61428
60871.5
60460.2
60202.3
60190.6
60544.7
61332.3
62489
63798.4
64983.6
65815
-26936.5
-27905
-29113.1
-30556.9
-32132.3
-33536.3
-34339.8
-34286.8
-33436.7
-32062.9
-30434.9
-28677.9
-26952.3
-25632.4
-25002.3
-25037.8
-25496.5
-26151.2
-26936.5
-27905
-29113.1
-30556.9
-32132.3
-33536.3
-34339.8
-34286.8
-33436.7
-32062.9
-30434.9
-28677.9
-26952.3
-25632.4
-25002.3
-25037.8
-25496.5
-26151.2
-38252
-39227.4
-40070.2
-40756
-41200.4
-41218.7
-40603.7
-39329.4
-37617.1
-35829.3
-34268.2
-33097.6
-32466.9
-32569.5
-33356
-34573.6
-35902.7
-37147
-38252
-39227.4
-40070.2
-40756
-41200.4
-41218.7
-40603.7
-39329.4
-37617.1
-35829.3
-34268.2
-33097.6
-32466.9
-32569.5
-33356
-34573.6
-35902.7
-37147
62267.7
61868.7
61494
61211.3
61170.1
61553.9
62446.4
63729.9
65107.8
66232.1
66902.8
67092.6
66760
65991.1
64984.4
64020.3
63256.5
62701.6
62267.7
61868.7
61494
61211.3
61170.1
61553.9
62446.4
63729.9
65107.8
66232.1
66902.8
67092.6
66760
65991.1
64984.4
64020.3
63256.5
62701.6
)
;

boundaryField
{
    fixed
    {
        type            zeroGradient;
    }
    inside
    {
        type            zeroGradient;
    }
    outside
    {
        type            zeroGradient;
    }
}


// ************************************************************************* //
