/*--------------------------------*- C++ -*----------------------------------*\
| =========                 |                                                 |
| \\      /  F ield         | OpenFOAM: The Open Source CFD Toolbox           |
|  \\    /   O peration     | Version:  2312                                  |
|   \\  /    A nd           | Website:  www.openfoam.com                      |
|    \\/     M anipulation  |                                                 |
\*---------------------------------------------------------------------------*/
FoamFile
{
    version     2.0;
    format      ascii;
    arch        "LSB;label=32;scalar=64";
    class       volVectorField;
    location    "0.6";
    object      U;
}
// * * * * * * * * * * * * * * * * * * * * * * * * * * * * * * * * * * * * * //

dimensions      [0 1 -1 0 0 0 0];

internalField   nonuniform List<vector> 
1620
(
(0.000155807 -0.00259105 -0.00172703)
(0.000562638 -0.00229624 -0.00208031)
(0.000726989 -0.00180153 -0.00219722)
(0.000712247 -0.00123716 -0.00211888)
(0.000605051 -0.000668307 -0.00195068)
(0.000445317 -0.000125545 -0.00177529)
(0.000250796 0.000363069 -0.00163076)
(3.7447e-05 0.000782739 -0.00152384)
(-0.000183444 0.00114168 -0.00144059)
(-0.000409928 0.00145814 -0.00135265)
(-0.000645192 0.00173878 -0.00122632)
(-0.000885932 0.00196717 -0.00103413)
(-0.00111024 0.00211284 -0.000765734)
(-0.00127515 0.00216535 -0.000433906)
(-0.0013284 0.00217685 -6.57428e-05)
(-0.00121873 0.0022517 0.000325025)
(-0.000900603 0.00243582 0.000754477)
(-0.000391797 0.00261218 0.00123842)
(0.000155807 0.00259105 0.00172703)
(0.000562638 0.00229624 0.00208031)
(0.000726989 0.00180153 0.00219722)
(0.000712247 0.00123716 0.00211888)
(0.000605051 0.000668307 0.00195068)
(0.000445317 0.000125545 0.00177529)
(0.000250796 -0.000363069 0.00163076)
(3.7447e-05 -0.000782739 0.00152384)
(-0.000183444 -0.00114168 0.00144059)
(-0.000409928 -0.00145814 0.00135265)
(-0.000645192 -0.00173878 0.00122632)
(-0.000885932 -0.00196717 0.00103413)
(-0.00111024 -0.00211284 0.000765734)
(-0.00127515 -0.00216535 0.000433906)
(-0.0013284 -0.00217685 6.57428e-05)
(-0.00121873 -0.0022517 -0.000325025)
(-0.000900603 -0.00243582 -0.000754477)
(-0.000391797 -0.00261218 -0.00123842)
(-0.000101534 -0.00190399 -0.00189048)
(8.65678e-05 -0.00173377 -0.00211218)
(0.000186444 -0.00139256 -0.00224718)
(0.000189176 -0.000904234 -0.00227574)
(0.000105855 -0.000330654 -0.00221264)
(-4.02448e-05 0.000262659 -0.00208621)
(-0.00021958 0.000821464 -0.00191836)
(-0.000404145 0.00131256 -0.00171851)
(-0.000575705 0.00172434 -0.00148555)
(-0.000727018 0.00205643 -0.00121292)
(-0.000855537 0.00230669 -0.000894112)
(-0.000954721 0.00246362 -0.000527731)
(-0.0010094 0.00250943 -0.000122854)
(-0.00100124 0.00243753 0.000295792)
(-0.000923036 0.0022794 0.000691735)
(-0.000782768 0.00211119 0.00103826)
(-0.000585816 0.00200697 0.00133978)
(-0.00034226 0.00196505 0.00162074)
(-0.000101534 0.00190399 0.00189048)
(8.65678e-05 0.00173377 0.00211218)
(0.000186444 0.00139256 0.00224718)
(0.000189176 0.000904234 0.00227574)
(0.000105855 0.000330654 0.00221264)
(-4.02448e-05 -0.000262659 0.00208621)
(-0.00021958 -0.000821464 0.00191836)
(-0.000404145 -0.00131256 0.00171851)
(-0.000575705 -0.00172434 0.00148555)
(-0.000727018 -0.00205643 0.00121292)
(-0.000855537 -0.00230669 0.000894112)
(-0.000954721 -0.00246362 0.000527731)
(-0.0010094 -0.00250943 0.000122854)
(-0.00100124 -0.00243753 -0.000295792)
(-0.000923036 -0.0022794 -0.000691735)
(-0.000782768 -0.00211119 -0.00103826)
(-0.000585816 -0.00200697 -0.00133978)
(-0.00034226 -0.00196505 -0.00162074)
(-0.000260504 -0.00147166 -0.00202945)
(-0.000196883 -0.00136197 -0.00215985)
(-0.000136051 -0.0011065 -0.00230547)
(-0.00012012 -0.000645713 -0.00241283)
(-0.000188049 -2.29959e-05 -0.00243234)
(-0.000338105 0.000669283 -0.0023406)
(-0.000535013 0.00134387 -0.00213595)
(-0.000736795 0.0019405 -0.00182773)
(-0.000913268 0.00242401 -0.00143077)
(-0.00104742 0.00277614 -0.000965816)
(-0.00112739 0.00298927 -0.00045952)
(-0.00113987 0.00306168 5.84224e-05)
(-0.00107204 0.00299403 0.00055745)
(-0.000924944 0.00279133 0.00100509)
(-0.000730254 0.00247544 0.00136871)
(-0.000545325 0.00210574 0.00162988)
(-0.000411277 0.0017801 0.00180204)
(-0.000324598 0.00157528 0.00192162)
(-0.000260504 0.00147166 0.00202945)
(-0.000196883 0.00136197 0.00215985)
(-0.000136051 0.0011065 0.00230547)
(-0.00012012 0.000645713 0.00241283)
(-0.000188049 2.29959e-05 0.00243234)
(-0.000338105 -0.000669283 0.0023406)
(-0.000535013 -0.00134387 0.00213595)
(-0.000736795 -0.0019405 0.00182773)
(-0.000913268 -0.00242401 0.00143077)
(-0.00104742 -0.00277614 0.000965816)
(-0.00112739 -0.00298927 0.00045952)
(-0.00113987 -0.00306168 -5.84224e-05)
(-0.00107204 -0.00299403 -0.00055745)
(-0.000924944 -0.00279133 -0.00100509)
(-0.000730254 -0.00247544 -0.00136871)
(-0.000545324 -0.00210574 -0.00162988)
(-0.000411277 -0.0017801 -0.00180204)
(-0.000324598 -0.00157528 -0.00192162)
(0.000435756 -0.00683725 -0.00511434)
(0.00155529 -0.0061396 -0.00583137)
(0.0018833 -0.00496485 -0.00609362)
(0.00161938 -0.00348014 -0.006058)
(0.00105919 -0.00179151 -0.00587193)
(0.000388419 -5.79622e-05 -0.00561341)
(-0.00029944 0.00155301 -0.00531778)
(-0.000959573 0.00295727 -0.004997)
(-0.00157757 0.00416214 -0.00463336)
(-0.00216052 0.00520801 -0.00417934)
(-0.00272313 0.00610666 -0.00357487)
(-0.00326576 0.00681075 -0.00277319)
(-0.00374838 0.00722484 -0.00176986)
(-0.00407175 0.00727009 -0.000625867)
(-0.00408672 0.00700771 0.000546714)
(-0.00364028 0.00672855 0.00167576)
(-0.00263354 0.00675186 0.00281151)
(-0.00113639 0.00696709 0.00399153)
(0.000435756 0.00683725 0.00511434)
(0.00155529 0.0061396 0.00583137)
(0.0018833 0.00496485 0.00609362)
(0.00161938 0.00348014 0.006058)
(0.00105919 0.00179151 0.00587193)
(0.000388419 5.79622e-05 0.00561341)
(-0.00029944 -0.00155301 0.00531778)
(-0.000959573 -0.00295727 0.004997)
(-0.00157757 -0.00416214 0.00463336)
(-0.00216052 -0.00520801 0.00417934)
(-0.00272313 -0.00610666 0.00357487)
(-0.00326576 -0.00681075 0.00277319)
(-0.00374838 -0.00722484 0.00176986)
(-0.00407175 -0.00727009 0.000625867)
(-0.00408672 -0.00700771 -0.000546714)
(-0.00364028 -0.00672855 -0.00167576)
(-0.00263354 -0.00675186 -0.00281151)
(-0.00113639 -0.00696709 -0.00399153)
(0.000169723 -0.00547915 -0.00523423)
(0.000885888 -0.00501754 -0.00588993)
(0.00118592 -0.00406901 -0.006316)
(0.00105441 -0.00269152 -0.00646861)
(0.000614269 -0.00103507 -0.0063616)
(1.43208e-05 0.000690901 -0.00604904)
(-0.000623342 0.00230291 -0.00559031)
(-0.00122471 0.00370299 -0.0050215)
(-0.00176075 0.00486897 -0.00435111)
(-0.00222873 0.00581021 -0.00357264)
(-0.00263009 0.00652954 -0.00267923)
(-0.00295042 0.00700546 -0.00167352)
(-0.00314521 0.00719513 -0.000575584)
(-0.00314219 0.00706357 0.000567446)
(-0.00287671 0.00664944 0.00167837)
(-0.00234777 0.0061357 0.00268324)
(-0.00161254 0.00577907 0.00358312)
(-0.000729607 0.00564732 0.00443398)
(0.000169723 0.00547915 0.00523423)
(0.000885888 0.00501754 0.00588993)
(0.00118592 0.00406901 0.006316)
(0.00105441 0.00269152 0.00646861)
(0.000614269 0.00103507 0.0063616)
(1.43208e-05 -0.000690901 0.00604904)
(-0.000623342 -0.00230291 0.00559031)
(-0.00122471 -0.00370299 0.0050215)
(-0.00176075 -0.00486897 0.00435111)
(-0.00222873 -0.00581021 0.00357264)
(-0.00263009 -0.00652954 0.00267923)
(-0.00295042 -0.00700546 0.00167352)
(-0.00314521 -0.00719513 0.000575584)
(-0.00314219 -0.00706357 -0.000567446)
(-0.00287671 -0.00664944 -0.00167837)
(-0.00234777 -0.0061357 -0.00268324)
(-0.00161254 -0.00577907 -0.00358312)
(-0.000729607 -0.00564732 -0.00443398)
(9.37713e-07 -0.00440043 -0.00525813)
(0.000431602 -0.00407938 -0.00589153)
(0.000722518 -0.00330478 -0.00646042)
(0.000718472 -0.00201388 -0.00677669)
(0.000392001 -0.000360072 -0.0067483)
(-0.000153266 0.00140465 -0.00639625)
(-0.000772531 0.00306773 -0.00578911)
(-0.00136109 0.00450602 -0.00498069)
(-0.00187101 0.00566036 -0.00400569)
(-0.00228547 0.00650443 -0.00290428)
(-0.00258918 0.00703339 -0.00173199)
(-0.00275014 0.00725873 -0.000549052)
(-0.00271714 0.00719887 0.000595605)
(-0.00244334 0.0068702 0.00166913)
(-0.00194539 0.00630103 0.00263904)
(-0.00135735 0.0055924 0.00345975)
(-0.000851368 0.00495962 0.0041188)
(-0.000436506 0.00459608 0.00469153)
(9.37706e-07 0.00440043 0.00525813)
(0.000431602 0.00407938 0.00589153)
(0.000722518 0.00330478 0.00646042)
(0.000718472 0.00201388 0.00677669)
(0.000392001 0.000360072 0.0067483)
(-0.000153266 -0.00140465 0.00639625)
(-0.000772531 -0.00306773 0.00578911)
(-0.00136109 -0.00450602 0.00498069)
(-0.00187101 -0.00566036 0.00400569)
(-0.00228547 -0.00650443 0.00290428)
(-0.00258918 -0.00703339 0.00173199)
(-0.00275014 -0.00725873 0.000549052)
(-0.00271714 -0.00719887 -0.000595605)
(-0.00244334 -0.0068702 -0.00166913)
(-0.00194539 -0.00630103 -0.00263904)
(-0.00135735 -0.0055924 -0.00345975)
(-0.000851368 -0.00495962 -0.0041188)
(-0.000436506 -0.00459608 -0.00469153)
(0.00166992 -0.00963219 -0.00778724)
(0.00318401 -0.0086907 -0.00892077)
(0.00312725 -0.00713899 -0.00945381)
(0.00214354 -0.0050494 -0.00962856)
(0.000838528 -0.00255511 -0.0095896)
(-0.000450541 4.98557e-05 -0.00937118)
(-0.00160721 0.00248794 -0.0089853)
(-0.00261977 0.00462876 -0.00844418)
(-0.00350441 0.00647016 -0.00774365)
(-0.00428232 0.00804938 -0.00685486)
(-0.00497781 0.0093695 -0.00573858)
(-0.00561407 0.0103705 -0.00437142)
(-0.0061928 0.0109443 -0.00277666)
(-0.00664014 0.0109973 -0.00104438)
(-0.00671204 0.0105776 0.000699929)
(-0.00596458 0.010017 0.00240974)
(-0.00405019 0.00979349 0.00419423)
(-0.00121274 0.00991389 0.00607912)
(0.00166992 0.00963219 0.00778724)
(0.00318401 0.0086907 0.00892077)
(0.00312725 0.00713899 0.00945381)
(0.00214354 0.0050494 0.00962856)
(0.000838528 0.00255511 0.0095896)
(-0.000450541 -4.98557e-05 0.00937118)
(-0.00160721 -0.00248794 0.0089853)
(-0.00261977 -0.00462876 0.00844418)
(-0.00350441 -0.00647016 0.00774365)
(-0.00428232 -0.00804938 0.00685486)
(-0.00497781 -0.0093695 0.00573858)
(-0.00561407 -0.0103705 0.00437142)
(-0.0061928 -0.0109443 0.00277666)
(-0.00664014 -0.0109973 0.00104438)
(-0.00671204 -0.0105776 -0.000699929)
(-0.00596458 -0.010017 -0.00240974)
(-0.00405019 -0.00979349 -0.00419423)
(-0.00121274 -0.00991389 -0.00607912)
(0.0013775 -0.00822824 -0.00771498)
(0.00240405 -0.00747292 -0.00881218)
(0.00254458 -0.00606352 -0.00955672)
(0.00197485 -0.00402461 -0.0098922)
(0.000994923 -0.00157058 -0.00984025)
(-0.000114119 0.00097182 -0.0094782)
(-0.00117047 0.00333883 -0.00887625)
(-0.00210201 0.00540347 -0.00806724)
(-0.00290218 0.00713766 -0.00706221)
(-0.00358467 0.00854688 -0.00587006)
(-0.00415822 0.00962813 -0.00450729)
(-0.004612 0.0103554 -0.00300178)
(-0.0048993 0.0106851 -0.00139531)
(-0.00491839 0.0105811 0.000257408)
(-0.00450985 0.0100768 0.00189532)
(-0.00352273 0.00937564 0.0034647)
(-0.00197042 0.00881621 0.0049543)
(-0.000184353 0.00853169 0.00639475)
(0.0013775 0.00822824 0.00771498)
(0.00240405 0.00747292 0.00881218)
(0.00254458 0.00606352 0.00955672)
(0.00197485 0.00402461 0.0098922)
(0.000994923 0.00157058 0.00984025)
(-0.000114119 -0.00097182 0.0094782)
(-0.00117047 -0.00333883 0.00887625)
(-0.00210201 -0.00540347 0.00806724)
(-0.00290218 -0.00713766 0.00706221)
(-0.00358467 -0.00854688 0.00587006)
(-0.00415822 -0.00962813 0.00450729)
(-0.004612 -0.0103554 0.00300178)
(-0.0048993 -0.0106851 0.00139531)
(-0.00491839 -0.0105811 -0.000257408)
(-0.00450985 -0.0100768 -0.00189532)
(-0.00352273 -0.00937564 -0.0034647)
(-0.00197042 -0.00881621 -0.0049543)
(-0.000184353 -0.00853169 -0.00639475)
(0.00126062 -0.00693521 -0.00749607)
(0.00190799 -0.00629364 -0.00864483)
(0.00220874 -0.00503826 -0.00953404)
(0.0020141 -0.00310732 -0.00996711)
(0.00134257 -0.000718385 -0.00989887)
(0.000398135 0.00177367 -0.00942569)
(-0.000583478 0.00409736 -0.00865162)
(-0.00147162 0.00611779 -0.0076168)
(-0.0022354 0.00777089 -0.00633977)
(-0.00287655 0.00902134 -0.00486896)
(-0.00338331 0.00985988 -0.00328428)
(-0.00370701 0.0103021 -0.00167112)
(-0.00375224 0.0103745 -9.27844e-05)
(-0.0033967 0.0100931 0.00142297)
(-0.00257954 0.00946922 0.0028619)
(-0.00144379 0.00860615 0.00417318)
(-0.000325668 0.00778034 0.00530303)
(0.000521136 0.00725375 0.00635239)
(0.00126062 0.00693521 0.00749607)
(0.00190799 0.00629364 0.00864483)
(0.00220874 0.00503826 0.00953404)
(0.0020141 0.00310732 0.00996711)
(0.00134257 0.000718385 0.00989887)
(0.000398135 -0.00177367 0.00942569)
(-0.000583478 -0.00409736 0.00865162)
(-0.00147162 -0.00611779 0.0076168)
(-0.0022354 -0.00777089 0.00633977)
(-0.00287655 -0.00902134 0.00486896)
(-0.00338331 -0.00985988 0.00328428)
(-0.00370701 -0.0103021 0.00167112)
(-0.00375224 -0.0103745 9.27844e-05)
(-0.0033967 -0.0100931 -0.00142297)
(-0.00257954 -0.00946922 -0.0028619)
(-0.00144379 -0.00860615 -0.00417318)
(-0.000325668 -0.00778034 -0.00530303)
(0.000521136 -0.00725375 -0.00635239)
(0.00303126 -0.010685 -0.00925854)
(0.00457624 -0.010014 -0.0107489)
(0.00409044 -0.00845055 -0.0116833)
(0.00246314 -0.00606846 -0.0122373)
(0.000580199 -0.0031932 -0.0124873)
(-0.00108857 -0.000198948 -0.0124385)
(-0.00247523 0.00263859 -0.0120747)
(-0.00365129 0.00518256 -0.0113968)
(-0.00466528 0.00740416 -0.0104242)
(-0.00553197 0.00931021 -0.00917361)
(-0.00626533 0.0108833 -0.00765532)
(-0.00690016 0.0120588 -0.0058889)
(-0.00748517 0.012737 -0.00392909)
(-0.0080103 0.0128335 -0.00187383)
(-0.00819878 0.0123804 0.000201904)
(-0.00729985 0.0116367 0.00236154)
(-0.00460443 0.0110253 0.00471679)
(-0.000582407 0.0107946 0.00716359)
(0.00303126 0.010685 0.00925854)
(0.00457624 0.010014 0.0107489)
(0.00409044 0.00845055 0.0116833)
(0.00246314 0.00606846 0.0122373)
(0.000580199 0.0031932 0.0124873)
(-0.00108857 0.000198948 0.0124385)
(-0.00247523 -0.00263859 0.0120747)
(-0.00365129 -0.00518256 0.0113968)
(-0.00466528 -0.00740416 0.0104242)
(-0.00553197 -0.00931021 0.00917361)
(-0.00626533 -0.0108833 0.00765532)
(-0.00690016 -0.0120588 0.0058889)
(-0.00748517 -0.012737 0.00392909)
(-0.0080103 -0.0128335 0.00187383)
(-0.00819878 -0.0123804 -0.000201904)
(-0.00729985 -0.0116367 -0.00236154)
(-0.00460443 -0.0110253 -0.00471679)
(-0.000582407 -0.0107946 -0.00716359)
(0.00279728 -0.0099519 -0.00913772)
(0.003804 -0.00905377 -0.0106157)
(0.00368415 -0.00734778 -0.0116503)
(0.00271454 -0.00490286 -0.0121837)
(0.00131428 -0.00204625 -0.0122776)
(-0.000140312 0.000871281 -0.0120278)
(-0.00145175 0.00360979 -0.0114693)
(-0.00257729 0.00605032 -0.0105976)
(-0.00353359 0.008148 -0.00942347)
(-0.00433923 0.00988464 -0.007984)
(-0.00500072 0.0112413 -0.00633058)
(-0.00550874 0.0121882 -0.0045213)
(-0.00582351 0.0126874 -0.00261932)
(-0.00584002 0.012708 -0.000681829)
(-0.00533956 0.012269 0.00127349)
(-0.00402949 0.0115287 0.00327862)
(-0.00184485 0.0108016 0.00533345)
(0.000713075 0.0103315 0.00733902)
(0.00279728 0.0099519 0.00913772)
(0.003804 0.00905377 0.0106157)
(0.00368415 0.00734778 0.0116503)
(0.00271454 0.00490286 0.0121837)
(0.00131428 0.00204625 0.0122776)
(-0.000140312 -0.000871281 0.0120278)
(-0.00145175 -0.00360979 0.0114693)
(-0.00257729 -0.00605032 0.0105976)
(-0.00353359 -0.008148 0.00942347)
(-0.00433923 -0.00988464 0.007984)
(-0.00500072 -0.0112413 0.00633058)
(-0.00550874 -0.0121882 0.0045213)
(-0.00582351 -0.0126874 0.00261932)
(-0.00584002 -0.012708 0.000681829)
(-0.00533956 -0.012269 -0.00127349)
(-0.00402949 -0.0115287 -0.00327862)
(-0.00184485 -0.0108016 -0.00533345)
(0.000713075 -0.0103315 -0.00733902)
(0.00264827 -0.00889679 -0.00908128)
(0.00327312 -0.00779261 -0.0106007)
(0.00351285 -0.00605353 -0.0116088)
(0.00316556 -0.00368046 -0.0120181)
(0.00223075 -0.000923551 -0.0119283)
(0.000976858 0.00188368 -0.0114942)
(-0.000280985 0.0045123 -0.01078)
(-0.00138898 0.00685085 -0.00976069)
(-0.00233064 0.00882879 -0.00842636)
(-0.00312285 0.0103947 -0.00683192)
(-0.0037585 0.0115271 -0.00507349)
(-0.00417922 0.0122354 -0.00325015)
(-0.00425505 0.0125448 -0.00143405)
(-0.0037948 0.0124669 0.000350694)
(-0.00266923 0.0119911 0.00211792)
(-0.00106095 0.0111922 0.0038678)
(0.000547663 0.0103206 0.00559086)
(0.00178342 0.00959553 0.0073226)
(0.00264827 0.00889679 0.00908128)
(0.00327312 0.00779261 0.0106007)
(0.00351285 0.00605353 0.0116088)
(0.00316556 0.00368046 0.0120181)
(0.00223075 0.000923551 0.0119283)
(0.000976858 -0.00188368 0.0114942)
(-0.000280985 -0.0045123 0.01078)
(-0.00138898 -0.00685085 0.00976069)
(-0.00233064 -0.00882879 0.00842636)
(-0.00312285 -0.0103947 0.00683192)
(-0.0037585 -0.0115271 0.00507349)
(-0.00417922 -0.0122354 0.00325015)
(-0.00425505 -0.0125448 0.00143405)
(-0.0037948 -0.0124669 -0.000350694)
(-0.00266923 -0.0119911 -0.00211792)
(-0.00106095 -0.0111922 -0.0038678)
(0.000547663 -0.0103206 -0.00559086)
(0.00178342 -0.00959553 -0.0073226)
(0.00321751 -0.0111167 -0.00946731)
(0.00492598 -0.0103839 -0.011313)
(0.00453933 -0.00880597 -0.0126649)
(0.00283924 -0.00643427 -0.0135971)
(0.000863234 -0.00362157 -0.0141763)
(-0.000841824 -0.00067559 -0.014398)
(-0.00225939 0.00220337 -0.0142039)
(-0.003509 0.00488407 -0.0135632)
(-0.00463112 0.00729308 -0.0125032)
(-0.00560562 0.00938744 -0.0110802)
(-0.00641529 0.0111197 -0.00935383)
(-0.00708256 0.0124192 -0.0073891)
(-0.00767202 0.0131981 -0.00527126)
(-0.00820955 0.013391 -0.00308754)
(-0.00840416 0.0130436 -0.000824137)
(-0.00737527 0.0123975 0.00167876)
(-0.00443392 0.011797 0.00443105)
(-0.000340152 0.0114248 0.00713114)
(0.00321751 0.0111167 0.00946731)
(0.00492598 0.0103839 0.011313)
(0.00453933 0.00880597 0.0126649)
(0.00283924 0.00643427 0.0135971)
(0.000863234 0.00362157 0.0141763)
(-0.000841824 0.00067559 0.014398)
(-0.00225939 -0.00220337 0.0142039)
(-0.003509 -0.00488407 0.0135632)
(-0.00463112 -0.00729308 0.0125032)
(-0.00560562 -0.00938744 0.0110802)
(-0.00641529 -0.0111197 0.00935383)
(-0.00708256 -0.0124192 0.0073891)
(-0.00767202 -0.0131981 0.00527126)
(-0.00820955 -0.013391 0.00308754)
(-0.00840416 -0.0130436 0.000824137)
(-0.00737527 -0.0123975 -0.00167876)
(-0.00443392 -0.011797 -0.00443105)
(-0.000340152 -0.0114248 -0.00713114)
(0.00327914 -0.0108673 -0.00962149)
(0.00442838 -0.00964902 -0.0114036)
(0.00436016 -0.00773247 -0.0126446)
(0.00333361 -0.00519955 -0.0133521)
(0.00183821 -0.00234943 -0.0136428)
(0.000292229 0.000552928 -0.0136044)
(-0.00111432 0.00334334 -0.0132171)
(-0.0023509 0.00591646 -0.012432)
(-0.00342581 0.00819781 -0.0112548)
(-0.0043388 0.0101339 -0.00974468)
(-0.00508032 0.0116843 -0.00798291)
(-0.00563352 0.0128149 -0.00605367)
(-0.00596 0.0134978 -0.00403649)
(-0.00595529 0.0137177 -0.00198152)
(-0.00537563 0.0134955 0.000147392)
(-0.00390128 0.0129487 0.0024552)
(-0.00154709 0.0122876 0.00493455)
(0.0011022 0.0116384 0.00740103)
(0.00327914 0.0108673 0.00962149)
(0.00442838 0.00964902 0.0114036)
(0.00436016 0.00773247 0.0126446)
(0.00333361 0.00519955 0.0133521)
(0.00183821 0.00234943 0.0136428)
(0.000292229 -0.000552928 0.0136044)
(-0.00111432 -0.00334334 0.0132171)
(-0.0023509 -0.00591646 0.012432)
(-0.00342581 -0.00819781 0.0112548)
(-0.0043388 -0.0101339 0.00974468)
(-0.00508032 -0.0116843 0.00798291)
(-0.00563352 -0.0128149 0.00605367)
(-0.00596 -0.0134978 0.00403649)
(-0.00595529 -0.0137177 0.00198152)
(-0.00537563 -0.0134955 -0.000147392)
(-0.00390128 -0.0129487 -0.0024552)
(-0.00154709 -0.0122876 -0.00493455)
(0.0011022 -0.0116384 -0.00740103)
(0.00342782 -0.0102454 -0.0100572)
(0.00410597 -0.00850919 -0.0117917)
(0.00436162 -0.00631675 -0.0127843)
(0.00399317 -0.00374198 -0.0131416)
(0.00297758 -0.000962 -0.0130874)
(0.0015839 0.00181893 -0.0127793)
(0.00016576 0.0044667 -0.0122219)
(-0.00109181 0.0068977 -0.0113348)
(-0.00216165 0.00902984 -0.0100852)
(-0.00305788 0.0107925 -0.00852748)
(-0.00377221 0.0121484 -0.0067628)
(-0.00424288 0.0130965 -0.00489563)
(-0.00432552 0.0136638 -0.00300403)
(-0.00379369 0.0138784 -0.00110576)
(-0.00249348 0.0137357 0.000859964)
(-0.000674191 0.0132505 0.00297766)
(0.00109112 0.0125093 0.00529907)
(0.00245073 0.011544 0.00775861)
(0.00342782 0.0102454 0.0100572)
(0.00410597 0.00850919 0.0117917)
(0.00436162 0.00631675 0.0127843)
(0.00399317 0.00374198 0.0131416)
(0.00297758 0.000962 0.0130874)
(0.0015839 -0.00181893 0.0127793)
(0.00016576 -0.0044667 0.0122219)
(-0.00109181 -0.0068977 0.0113348)
(-0.00216165 -0.00902984 0.0100852)
(-0.00305788 -0.0107925 0.00852748)
(-0.00377221 -0.0121484 0.0067628)
(-0.00424288 -0.0130965 0.00489563)
(-0.00432552 -0.0136638 0.00300403)
(-0.00379369 -0.0138784 0.00110576)
(-0.00249348 -0.0137357 -0.000859964)
(-0.000674191 -0.0132505 -0.00297766)
(0.00109112 -0.0125093 -0.00529907)
(0.00245073 -0.011544 -0.00775861)
(0.0029317 -0.0112492 -0.00886467)
(0.00468843 -0.0102692 -0.0110206)
(0.00458347 -0.0086324 -0.0127134)
(0.00321435 -0.00640627 -0.0139545)
(0.00149934 -0.00385565 -0.0148116)
(-3.54906e-05 -0.0011714 -0.0153024)
(-0.00137881 0.00154097 -0.0153559)
(-0.00265117 0.00417692 -0.0149032)
(-0.0038676 0.00663035 -0.0139466)
(-0.00496693 0.00880916 -0.0125489)
(-0.00589361 0.0106312 -0.0108003)
(-0.00664469 0.0120164 -0.00880656)
(-0.00727435 0.0128906 -0.00668111)
(-0.00780039 0.0132172 -0.00448943)
(-0.00791562 0.013064 -0.00214394)
(-0.0068312 0.0126513 0.000519584)
(-0.00408826 0.0122148 0.00343055)
(-0.000377413 0.0118017 0.00629444)
(0.0029317 0.0112492 0.00886467)
(0.00468843 0.0102692 0.0110206)
(0.00458347 0.0086324 0.0127134)
(0.00321435 0.00640627 0.0139545)
(0.00149934 0.00385565 0.0148116)
(-3.54906e-05 0.0011714 0.0153024)
(-0.00137881 -0.00154097 0.0153559)
(-0.00265117 -0.00417692 0.0149032)
(-0.0038676 -0.00663035 0.0139466)
(-0.00496693 -0.00880916 0.0125489)
(-0.00589361 -0.0106312 0.0108003)
(-0.00664469 -0.0120164 0.00880656)
(-0.00727435 -0.0128906 0.00668111)
(-0.00780039 -0.0132172 0.00448943)
(-0.00791562 -0.013064 0.00214394)
(-0.0068312 -0.0126513 -0.000519584)
(-0.00408826 -0.0122148 -0.00343055)
(-0.000377413 -0.0118017 -0.00629444)
(0.00328032 -0.0112433 -0.00933875)
(0.00446841 -0.00967382 -0.0113749)
(0.00457468 -0.00758537 -0.012817)
(0.0037822 -0.00511332 -0.0137038)
(0.00248515 -0.00246924 -0.0141801)
(0.00105162 0.000208084 -0.0143388)
(-0.000334794 0.00284542 -0.0141475)
(-0.00162475 0.00536523 -0.0135323)
(-0.00279427 0.00767529 -0.0124786)
(-0.00381135 0.00969063 -0.0110433)
(-0.00464256 0.0113469 -0.00932002)
(-0.00525671 0.0126023 -0.00741063)
(-0.00560948 0.0134375 -0.00540415)
(-0.00559323 0.0138562 -0.00333398)
(-0.0049742 0.01389 -0.00112172)
(-0.00350928 0.0136111 0.00135646)
(-0.00128821 0.0130939 0.00407669)
(0.00119085 0.0123381 0.00682923)
(0.00328032 0.0112433 0.00933875)
(0.00446841 0.00967382 0.0113749)
(0.00457468 0.00758537 0.012817)
(0.0037822 0.00511332 0.0137038)
(0.00248515 0.00246924 0.0141801)
(0.00105162 -0.000208084 0.0143388)
(-0.000334794 -0.00284542 0.0141475)
(-0.00162475 -0.00536523 0.0135323)
(-0.00279427 -0.00767529 0.0124786)
(-0.00381135 -0.00969063 0.0110433)
(-0.00464256 -0.0113469 0.00932002)
(-0.00525671 -0.0126023 0.00741063)
(-0.00560948 -0.0134375 0.00540415)
(-0.00559323 -0.0138562 0.00333398)
(-0.0049742 -0.01389 0.00112172)
(-0.00350928 -0.0136111 -0.00135646)
(-0.00128821 -0.0130939 -0.00407669)
(0.00119085 -0.0123381 -0.00682923)
(0.00363591 -0.0108682 -0.0102432)
(0.00434507 -0.00863398 -0.0121724)
(0.0046914 -0.00612065 -0.0132258)
(0.00447247 -0.00350642 -0.0136157)
(0.00360164 -0.000887431 -0.0136327)
(0.00227145 0.00167919 -0.0134364)
(0.000824611 0.00416193 -0.0130168)
(-0.000512223 0.00651152 -0.012279)
(-0.00167282 0.00864325 -0.0111735)
(-0.00264938 0.0104724 -0.00974043)
(-0.00342296 0.0119458 -0.00807188)
(-0.00392669 0.0130504 -0.0062684)
(-0.00401383 0.0138122 -0.0044048)
(-0.00346375 0.0142761 -0.00248482)
(-0.0021605 0.0144551 -0.000409695)
(-0.000391973 0.0143003 0.0019568)
(0.0013107 0.0137203 0.00467543)
(0.00264887 0.0125986 0.00758578)
(0.00363591 0.0108682 0.0102432)
(0.00434507 0.00863398 0.0121724)
(0.0046914 0.00612065 0.0132258)
(0.00447247 0.00350642 0.0136157)
(0.00360164 0.000887431 0.0136327)
(0.00227145 -0.00167919 0.0134364)
(0.000824611 -0.00416193 0.0130168)
(-0.000512223 -0.00651152 0.012279)
(-0.00167282 -0.00864325 0.0111735)
(-0.00264938 -0.0104724 0.00974043)
(-0.00342296 -0.0119458 0.00807188)
(-0.00392669 -0.0130504 0.0062684)
(-0.00401383 -0.0138122 0.0044048)
(-0.00346375 -0.0142761 0.00248482)
(-0.0021605 -0.0144551 0.000409695)
(-0.000391973 -0.0143003 -0.0019568)
(0.0013107 -0.0137203 -0.00467543)
(0.00264887 -0.0125986 -0.00758578)
(0.00251124 -0.0108839 -0.00782459)
(0.00428365 -0.00977524 -0.0102387)
(0.00451569 -0.00818948 -0.0122194)
(0.00358688 -0.00620571 -0.0137207)
(0.00220727 -0.00398611 -0.0147851)
(0.000864148 -0.0016292 -0.01547)
(-0.00038262 0.000823161 -0.0157455)
(-0.00163286 0.00329876 -0.0155294)
(-0.00289492 0.00568232 -0.0147831)
(-0.00408718 0.0078486 -0.0135439)
(-0.00512475 0.00968481 -0.0119084)
(-0.00597732 0.0110992 -0.0100081)
(-0.0066712 0.0120306 -0.00797202)
(-0.00718231 0.0124706 -0.0058401)
(-0.00719752 0.0125034 -0.00349556)
(-0.00611759 0.0123083 -0.000811976)
(-0.00369117 0.0120145 0.00212432)
(-0.000464094 0.0115844 0.00507415)
(0.00251124 0.0108839 0.00782459)
(0.00428365 0.00977524 0.0102387)
(0.00451569 0.00818948 0.0122194)
(0.00358688 0.00620571 0.0137207)
(0.00220727 0.00398611 0.0147851)
(0.000864148 0.0016292 0.01547)
(-0.00038262 -0.000823161 0.0157455)
(-0.00163286 -0.00329876 0.0155294)
(-0.00289492 -0.00568232 0.0147831)
(-0.00408718 -0.0078486 0.0135439)
(-0.00512475 -0.00968481 0.0119084)
(-0.00597732 -0.0110992 0.0100081)
(-0.0066712 -0.0120306 0.00797202)
(-0.00718231 -0.0124706 0.0058401)
(-0.00719752 -0.0125034 0.00349556)
(-0.00611759 -0.0123083 0.000811976)
(-0.00369117 -0.0120145 -0.00212432)
(-0.000464094 -0.0115844 -0.00507415)
(0.00298483 -0.0109617 -0.00854674)
(0.00419565 -0.00924642 -0.0107672)
(0.00452695 -0.0071597 -0.0124106)
(0.00406672 -0.00486386 -0.0134941)
(0.00308026 -0.00250043 -0.014139)
(0.00185287 -0.000123037 -0.0144487)
(0.000559873 0.00226014 -0.0144235)
(-0.000723295 0.00460642 -0.0139968)
(-0.00194197 0.00682556 -0.0131318)
(-0.00303527 0.00881435 -0.011863)
(-0.00394552 0.0104881 -0.0102781)
(-0.00462381 0.0117948 -0.00848398)
(-0.0050139 0.0127184 -0.00656902)
(-0.00500476 0.0132741 -0.00454663)
(-0.00440206 0.0134978 -0.00232275)
(-0.00306271 0.0134185 0.000208728)
(-0.00110631 0.0130136 0.00301096)
(0.00107728 0.0122156 0.00588152)
(0.00298483 0.0109617 0.00854674)
(0.00419565 0.00924642 0.0107672)
(0.00452695 0.0071597 0.0124106)
(0.00406672 0.00486386 0.0134941)
(0.00308026 0.00250043 0.014139)
(0.00185287 0.000123037 0.0144487)
(0.000559873 -0.00226014 0.0144235)
(-0.000723295 -0.00460642 0.0139968)
(-0.00194197 -0.00682556 0.0131318)
(-0.00303527 -0.00881435 0.011863)
(-0.00394552 -0.0104881 0.0102781)
(-0.00462381 -0.0117948 0.00848398)
(-0.0050139 -0.0127184 0.00656902)
(-0.00500476 -0.0132741 0.00454663)
(-0.00440206 -0.0134978 0.00232275)
(-0.00306271 -0.0134185 -0.000208728)
(-0.00110631 -0.0130136 -0.00301096)
(0.00107728 -0.0122156 -0.00588152)
(0.00337688 -0.0107027 -0.00979571)
(0.00411456 -0.00826652 -0.0118636)
(0.00459948 -0.00567336 -0.0130418)
(0.00462415 -0.0031567 -0.0135503)
(0.0040428 -0.000772295 -0.0136741)
(0.00294003 0.00151113 -0.0135729)
(0.00159424 0.00373676 -0.0132582)
(0.000258666 0.00589451 -0.0126568)
(-0.000946463 0.00791076 -0.0117141)
(-0.00197656 0.00969593 -0.0104496)
(-0.0027926 0.0111851 -0.00893685)
(-0.00331803 0.0123549 -0.00726269)
(-0.0034111 0.0132255 -0.00548753)
(-0.00289228 0.0138427 -0.00359817)
(-0.00172243 0.0142207 -0.00148649)
(-0.000189587 0.0142706 0.000987085)
(0.00127951 0.0138031 0.00387234)
(0.00245869 0.0126251 0.00696977)
(0.00337688 0.0107027 0.00979571)
(0.00411456 0.00826652 0.0118636)
(0.00459948 0.00567336 0.0130418)
(0.00462415 0.0031567 0.0135503)
(0.0040428 0.000772295 0.0136741)
(0.00294003 -0.00151113 0.0135729)
(0.00159424 -0.00373676 0.0132582)
(0.000258666 -0.00589451 0.0126568)
(-0.000946463 -0.00791076 0.0117141)
(-0.00197656 -0.00969593 0.0104496)
(-0.0027926 -0.0111851 0.00893685)
(-0.00331803 -0.0123549 0.00726269)
(-0.0034111 -0.0132255 0.00548753)
(-0.00289228 -0.0138427 0.00359817)
(-0.00172243 -0.0142207 0.00148649)
(-0.000189586 -0.0142706 -0.000987085)
(0.00127951 -0.0138031 -0.00387234)
(0.00245869 -0.0126251 -0.00696977)
(0.00205637 -0.00994169 -0.00653965)
(0.00380971 -0.00890684 -0.00912984)
(0.00435639 -0.00753236 -0.0113505)
(0.00386447 -0.00587627 -0.0131022)
(0.00281449 -0.00402242 -0.0143686)
(0.00163502 -0.00201465 -0.0152071)
(0.000467434 0.000132904 -0.0156435)
(-0.000734019 0.00236895 -0.0156274)
(-0.00198344 0.00458303 -0.0151027)
(-0.00320817 0.00663654 -0.0140768)
(-0.00431383 0.00839879 -0.0126334)
(-0.00524644 0.0097704 -0.010906)
(-0.00599243 0.010699 -0.00901668)
(-0.00647653 0.0111937 -0.00698506)
(-0.00641149 0.01134 -0.00470811)
(-0.00539076 0.0112714 -0.00210199)
(-0.00330144 0.0110546 0.000762914)
(-0.000560674 0.01064 0.00370405)
(0.00205637 0.00994169 0.00653965)
(0.00380971 0.00890684 0.00912984)
(0.00435639 0.00753236 0.0113505)
(0.00386447 0.00587627 0.0131022)
(0.00281449 0.00402242 0.0143686)
(0.00163502 0.00201465 0.0152071)
(0.000467434 -0.000132904 0.0156435)
(-0.000734019 -0.00236895 0.0156274)
(-0.00198344 -0.00458303 0.0151027)
(-0.00320817 -0.00663654 0.0140768)
(-0.00431383 -0.00839879 0.0126334)
(-0.00524644 -0.0097704 0.010906)
(-0.00599243 -0.010699 0.00901668)
(-0.00647653 -0.0111937 0.00698506)
(-0.00641149 -0.01134 0.00470811)
(-0.00539076 -0.0112714 0.00210199)
(-0.00330144 -0.0110546 -0.000762914)
(-0.000560673 -0.01064 -0.00370405)
(0.00254456 -0.010044 -0.00740757)
(0.00374741 -0.00842756 -0.00972803)
(0.00428267 -0.00654727 -0.0115468)
(0.00414866 -0.00454181 -0.0128366)
(0.00348824 -0.00250341 -0.0136634)
(0.00250135 -0.000449092 -0.0141176)
(0.00135028 0.0016389 -0.0142347)
(0.000133516 0.00374228 -0.0139817)
(-0.00107343 0.00578365 -0.0133188)
(-0.00219187 0.00765663 -0.0122579)
(-0.00314585 0.00926563 -0.0108689)
(-0.00386927 0.0105503 -0.0092496)
(-0.00429239 0.011492 -0.00747584)
(-0.00430829 0.0121051 -0.00554615)