/*--------------------------------*- C++ -*----------------------------------*\
| =========                 |                                                 |
| \\      /  F ield         | OpenFOAM: The Open Source CFD Toolbox           |
|  \\    /   O peration     | Version:  2312                                  |
|   \\  /    A nd           | Website:  www.openfoam.com                      |
|    \\/     M anipulation  |                                                 |
\*---------------------------------------------------------------------------*/
FoamFile
{
    version     2.0;
    format      ascii;
    arch        "LSB;label=32;scalar=64";
    class       volVectorField;
    location    "0.6";
    object      D_0_0;
}
// * * * * * * * * * * * * * * * * * * * * * * * * * * * * * * * * * * * * * //

dimensions      [0 1 0 0 0 0 0];

internalField   nonuniform List<vector> 
1620
(
(0.000111238 0.000264812 -6.14791e-07)
(6.3564e-05 0.000280104 -6.14912e-07)
(1.3959e-05 0.000286887 -6.14787e-07)
(-3.60703e-05 0.000284953 -6.14574e-07)
(-8.50039e-05 0.000274361 -6.1459e-07)
(-0.000131355 0.000255432 -6.14674e-07)
(-0.000173714 0.000228741 -6.14357e-07)
(-0.000210796 0.0001951 -6.14415e-07)
(-0.000241472 0.000155532 -6.14741e-07)
(-0.000264812 0.000111238 -6.14797e-07)
(-0.000280104 6.3564e-05 -6.14919e-07)
(-0.000286887 1.3959e-05 -6.14793e-07)
(-0.000284953 -3.60703e-05 -6.1458e-07)
(-0.000274361 -8.50039e-05 -6.14596e-07)
(-0.000255432 -0.000131355 -6.1468e-07)
(-0.000228741 -0.000173714 -6.14363e-07)
(-0.0001951 -0.000210796 -6.1442e-07)
(-0.000155532 -0.000241472 -6.14745e-07)
(-0.000111238 -0.000264812 -6.148e-07)
(-6.3564e-05 -0.000280104 -6.1492e-07)
(-1.39589e-05 -0.000286887 -6.14793e-07)
(3.60703e-05 -0.000284953 -6.14578e-07)
(8.5004e-05 -0.000274361 -6.14592e-07)
(0.000131355 -0.000255432 -6.14675e-07)
(0.000173714 -0.000228741 -6.14356e-07)
(0.000210796 -0.0001951 -6.14412e-07)
(0.000241472 -0.000155532 -6.14736e-07)
(0.000264812 -0.000111238 -6.14791e-07)
(0.000280104 -6.3564e-05 -6.14911e-07)
(0.000286887 -1.3959e-05 -6.14784e-07)
(0.000284953 3.60703e-05 -6.1457e-07)
(0.000274361 8.50039e-05 -6.14585e-07)
(0.000255432 0.000131355 -6.14669e-07)
(0.000228741 0.000173714 -6.14352e-07)
(0.0001951 0.000210796 -6.14409e-07)
(0.000155532 0.000241472 -6.14735e-07)
(5.27308e-05 0.000309792 3.87103e-05)
(-1.86513e-06 0.000314242 3.87103e-05)
(-5.6404e-05 0.000309144 3.87104e-05)
(-0.000109229 0.000294653 3.87104e-05)
(-0.000158736 0.000271209 3.87105e-05)
(-0.000203419 0.000239524 3.87104e-05)
(-0.000241922 0.000200562 3.87105e-05)
(-0.000273074 0.000155506 3.87104e-05)
(-0.000295929 0.000105724 3.87102e-05)
(-0.000309792 5.27307e-05 3.87103e-05)
(-0.000314242 -1.86515e-06 3.87103e-05)
(-0.000309144 -5.64041e-05 3.87104e-05)
(-0.000294653 -0.000109229 3.87104e-05)
(-0.000271209 -0.000158736 3.87104e-05)
(-0.000239524 -0.000203419 3.87104e-05)
(-0.000200562 -0.000241922 3.87105e-05)
(-0.000155506 -0.000273074 3.87104e-05)
(-0.000105724 -0.000295929 3.87102e-05)
(-5.27307e-05 -0.000309792 3.87103e-05)
(1.86517e-06 -0.000314242 3.87103e-05)
(5.64041e-05 -0.000309144 3.87104e-05)
(0.000109229 -0.000294653 3.87104e-05)
(0.000158736 -0.000271209 3.87104e-05)
(0.000203419 -0.000239524 3.87104e-05)
(0.000241922 -0.000200562 3.87105e-05)
(0.000273074 -0.000155506 3.87104e-05)
(0.000295929 -0.000105724 3.87102e-05)
(0.000309792 -5.27307e-05 3.87103e-05)
(0.000314242 1.86515e-06 3.87103e-05)
(0.000309144 5.64041e-05 3.87104e-05)
(0.000294653 0.000109229 3.87104e-05)
(0.000271209 0.000158736 3.87105e-05)
(0.000239524 0.000203419 3.87104e-05)
(0.000200562 0.000241922 3.87105e-05)
(0.000155506 0.000273074 3.87104e-05)
(0.000105724 0.000295929 3.87102e-05)
(-3.03905e-05 0.000350928 4.47309e-05)
(-9.08668e-05 0.00034032 4.47311e-05)
(-0.000148582 0.000319371 4.4731e-05)
(-0.000201783 0.000288717 4.4731e-05)
(-0.000248853 0.000249293 4.47312e-05)
(-0.000288361 0.000202292 4.47311e-05)
(-0.000319108 0.000149145 4.47311e-05)
(-0.000340159 9.14666e-05 4.47308e-05)
(-0.000350874 3.10091e-05 4.47308e-05)
(-0.000350928 -3.03905e-05 4.47309e-05)
(-0.00034032 -9.08668e-05 4.47311e-05)
(-0.000319371 -0.000148582 4.4731e-05)
(-0.000288717 -0.000201783 4.4731e-05)
(-0.000249293 -0.000248853 4.47312e-05)
(-0.000202292 -0.000288361 4.4731e-05)
(-0.000149145 -0.000319108 4.47311e-05)
(-9.14666e-05 -0.000340159 4.47308e-05)
(-3.10091e-05 -0.000350874 4.47308e-05)
(3.03905e-05 -0.000350928 4.47309e-05)
(9.08668e-05 -0.00034032 4.47311e-05)
(0.000148582 -0.000319371 4.4731e-05)
(0.000201783 -0.000288717 4.4731e-05)
(0.000248853 -0.000249293 4.47312e-05)
(0.000288361 -0.000202292 4.47311e-05)
(0.000319108 -0.000149145 4.47311e-05)
(0.000340159 -9.14666e-05 4.47308e-05)
(0.000350874 -3.10091e-05 4.47308e-05)
(0.000350928 3.03905e-05 4.47309e-05)
(0.00034032 9.08668e-05 4.47311e-05)
(0.000319371 0.000148582 4.4731e-05)
(0.000288717 0.000201783 4.4731e-05)
(0.000249293 0.000248853 4.47312e-05)
(0.000202292 0.000288361 4.47311e-05)
(0.000149145 0.000319108 4.47311e-05)
(9.14666e-05 0.000340159 4.47308e-05)
(3.10092e-05 0.000350874 4.47308e-05)
(0.000213155 0.000844416 0.00012799)
(6.3286e-05 0.000868601 0.00012799)
(-8.85063e-05 0.000866395 0.00012799)
(-0.000237609 0.000837863 0.000127991)
(-0.000379493 0.000783874 0.000127991)
(-0.000509845 0.000706067 0.000127991)
(-0.000624708 0.000606807 0.000127991)
(-0.000720588 0.000489108 0.000127991)
(-0.000794573 0.000356548 0.00012799)
(-0.000844416 0.000213155 0.00012799)
(-0.000868601 6.32859e-05 0.00012799)
(-0.000866395 -8.85063e-05 0.00012799)
(-0.000837863 -0.000237609 0.000127991)
(-0.000783874 -0.000379493 0.000127991)
(-0.000706067 -0.000509845 0.000127991)
(-0.000606807 -0.000624708 0.000127991)
(-0.000489108 -0.000720588 0.000127991)
(-0.000356548 -0.000794573 0.00012799)
(-0.000213155 -0.000844416 0.00012799)
(-6.32858e-05 -0.000868601 0.00012799)
(8.85064e-05 -0.000866395 0.00012799)
(0.000237609 -0.000837863 0.000127991)
(0.000379493 -0.000783874 0.000127991)
(0.000509845 -0.000706067 0.000127991)
(0.000624708 -0.000606807 0.000127991)
(0.000720588 -0.000489108 0.000127991)
(0.000794573 -0.000356548 0.00012799)
(0.000844416 -0.000213155 0.00012799)
(0.000868601 -6.32859e-05 0.00012799)
(0.000866395 8.85063e-05 0.00012799)
(0.000837863 0.000237609 0.000127991)
(0.000783874 0.000379493 0.000127991)
(0.000706067 0.000509845 0.000127991)
(0.000606807 0.000624708 0.000127991)
(0.000489108 0.000720588 0.000127991)
(0.000356548 0.000794573 0.00012799)
(0.000116849 0.000921373 0.00019903)
(-4.49205e-05 0.000927665 0.00019903)
(-0.000205325 0.000905772 0.00019903)
(-0.000359491 0.000856357 0.000199031)
(-0.000502735 0.000780922 0.000199031)
(-0.000630703 0.000681759 0.000199031)
(-0.000739507 0.000561881 0.000199031)
(-0.000825842 0.00042493 0.00019903)
(-0.000887084 0.000275068 0.00019903)
(-0.000921372 0.000116849 0.00019903)
(-0.000927665 -4.49205e-05 0.00019903)
(-0.000905772 -0.000205325 0.00019903)
(-0.000856357 -0.000359491 0.000199031)
(-0.000780922 -0.000502735 0.000199031)
(-0.000681759 -0.000630703 0.000199031)
(-0.000561881 -0.000739507 0.000199031)
(-0.00042493 -0.000825842 0.00019903)
(-0.000275068 -0.000887084 0.00019903)
(-0.000116849 -0.000921373 0.00019903)
(4.49206e-05 -0.000927665 0.00019903)
(0.000205325 -0.000905772 0.00019903)
(0.000359491 -0.000856357 0.000199031)
(0.000502735 -0.000780922 0.000199031)
(0.000630703 -0.000681759 0.000199031)
(0.000739507 -0.000561881 0.000199031)
(0.000825842 -0.00042493 0.00019903)
(0.000887084 -0.000275068 0.00019903)
(0.000921373 -0.000116849 0.00019903)
(0.000927665 4.49205e-05 0.00019903)
(0.000905772 0.000205325 0.00019903)
(0.000856357 0.000359491 0.000199031)
(0.000780922 0.000502735 0.000199031)
(0.000681759 0.000630703 0.000199031)
(0.000561881 0.000739507 0.000199031)
(0.00042493 0.000825842 0.00019903)
(0.000275068 0.000887084 0.00019903)
(-8.80735e-06 0.000987674 0.000250537)
(-0.000180181 0.00097114 0.000250537)
(-0.00034608 0.000925098 0.000250537)
(-0.000501463 0.000850947 0.000250537)
(-0.00064161 0.000750941 0.000250537)
(-0.000762262 0.000628117 0.000250537)
(-0.000859753 0.000486209 0.000250537)
(-0.000931122 0.000329528 0.000250537)
(-0.000974198 0.000162834 0.000250537)
(-0.000987674 -8.80739e-06 0.000250537)
(-0.00097114 -0.000180181 0.000250537)
(-0.000925098 -0.00034608 0.000250537)
(-0.000850947 -0.000501463 0.000250537)
(-0.000750941 -0.00064161 0.000250537)
(-0.000628117 -0.000762262 0.000250537)
(-0.000486209 -0.000859753 0.000250537)
(-0.000329528 -0.000931122 0.000250537)
(-0.000162834 -0.000974198 0.000250537)
(8.80743e-06 -0.000987674 0.000250537)
(0.000180181 -0.00097114 0.000250537)
(0.00034608 -0.000925098 0.000250537)
(0.000501463 -0.000850947 0.000250537)
(0.00064161 -0.000750941 0.000250537)
(0.000762262 -0.000628117 0.000250537)
(0.000859753 -0.000486209 0.000250537)
(0.000931122 -0.000329528 0.000250537)
(0.000974198 -0.000162834 0.000250537)
(0.000987674 8.8074e-06 0.000250537)
(0.00097114 0.000180181 0.000250537)
(0.000925098 0.00034608 0.000250537)
(0.000850947 0.000501463 0.000250537)
(0.000750941 0.00064161 0.000250537)
(0.000628117 0.000762262 0.000250537)
(0.000486209 0.000859753 0.000250537)
(0.000329528 0.000931122 0.000250537)
(0.000162834 0.000974198 0.000250537)
(0.000267316 0.00142622 0.000344417)
(1.55945e-05 0.00145097 0.000344417)
(-0.000236601 0.00143164 0.000344418)
(-0.000481608 0.0013688 0.000344419)
(-0.000711981 0.00126438 0.00034442)
(-0.00092072 0.00112153 0.00034442)
(-0.00110149 0.000944614 0.000344419)
(-0.00124878 0.000738992 0.000344419)
(-0.00135813 0.000510916 0.000344418)
(-0.00142622 0.000267316 0.000344417)
(-0.00145097 1.55944e-05 0.000344417)
(-0.00143164 -0.000236601 0.000344418)
(-0.0013688 -0.000481608 0.000344419)
(-0.00126438 -0.000711981 0.00034442)
(-0.00112153 -0.00092072 0.00034442)
(-0.000944614 -0.00110149 0.000344419)
(-0.000738992 -0.00124878 0.000344419)
(-0.000510916 -0.00135813 0.000344418)
(-0.000267316 -0.00142622 0.000344417)
(-1.55943e-05 -0.00145097 0.000344417)
(0.000236601 -0.00143164 0.000344418)
(0.000481608 -0.0013688 0.000344419)
(0.000711981 -0.00126438 0.00034442)
(0.00092072 -0.00112153 0.00034442)
(0.00110149 -0.000944614 0.000344419)
(0.00124878 -0.000738992 0.000344419)
(0.00135813 -0.000510916 0.000344418)
(0.00142622 -0.000267316 0.000344417)
(0.00145097 -1.55944e-05 0.000344417)
(0.00143164 0.000236601 0.000344418)
(0.0013688 0.000481608 0.000344419)
(0.00126438 0.000711981 0.00034442)
(0.00112153 0.00092072 0.00034442)
(0.000944614 0.00110149 0.000344419)
(0.000738992 0.00124878 0.000344419)
(0.000510916 0.00135813 0.000344418)
(0.000134892 0.00151087 0.000433744)
(-0.000129518 0.00151134 0.000433745)
(-0.000389992 0.00146589 0.000433744)
(-0.000638616 0.0013759 0.000433745)
(-0.000867837 0.0012441 0.000433745)
(-0.00107069 0.0010745 0.000433745)
(-0.00124101 0.000872257 0.000433745)
(-0.00137362 0.000643506 0.000433745)
(-0.0014645 0.000395203 0.000433744)
(-0.00151087 0.000134892 0.000433744)
(-0.00151134 -0.000129518 0.000433744)
(-0.00146589 -0.000389992 0.000433744)
(-0.0013759 -0.000638616 0.000433745)
(-0.0012441 -0.000867837 0.000433745)
(-0.0010745 -0.00107069 0.000433745)
(-0.000872257 -0.00124101 0.000433745)
(-0.000643506 -0.00137362 0.000433745)
(-0.000395203 -0.0014645 0.000433744)
(-0.000134891 -0.00151087 0.000433744)
(0.000129518 -0.00151134 0.000433744)
(0.000389992 -0.00146589 0.000433744)
(0.000638616 -0.0013759 0.000433745)
(0.000867837 -0.0012441 0.000433745)
(0.00107069 -0.0010745 0.000433745)
(0.00124101 -0.000872257 0.000433745)
(0.00137362 -0.000643506 0.000433745)
(0.0014645 -0.000395203 0.000433745)
(0.00151087 -0.000134892 0.000433744)
(0.00151134 0.000129518 0.000433745)
(0.00146589 0.000389992 0.000433744)
(0.0013759 0.000638616 0.000433745)
(0.0012441 0.000867837 0.000433745)
(0.0010745 0.00107069 0.000433745)
(0.000872257 0.00124101 0.000433745)
(0.000643506 0.00137362 0.000433745)
(0.000395203 0.0014645 0.000433745)
(-2.33434e-05 0.00158216 0.000507071)
(-0.000297728 0.00155407 0.000507071)
(-0.000563067 0.00147876 0.000507071)
(-0.000811297 0.00135852 0.000507071)
(-0.00103488 0.001197 0.000507071)
(-0.00122701 0.000999114 0.000507071)
(-0.00138186 0.000770866 0.000507071)
(-0.00149473 0.000519197 0.000507071)
(-0.00156218 0.000251751 0.000507071)
(-0.00158216 -2.33435e-05 0.000507071)
(-0.00155407 -0.000297728 0.000507071)
(-0.00147876 -0.000563067 0.000507071)
(-0.00135852 -0.000811297 0.000507071)
(-0.001197 -0.00103488 0.000507071)
(-0.000999114 -0.00122701 0.000507071)
(-0.000770866 -0.00138186 0.000507071)
(-0.000519196 -0.00149473 0.000507071)
(-0.000251751 -0.00156218 0.000507071)
(2.33436e-05 -0.00158216 0.000507071)
(0.000297728 -0.00155407 0.000507071)
(0.000563067 -0.00147876 0.000507071)
(0.000811297 -0.00135852 0.000507071)
(0.00103488 -0.001197 0.000507071)
(0.00122701 -0.000999114 0.000507071)
(0.00138186 -0.000770866 0.000507071)
(0.00149473 -0.000519197 0.000507071)
(0.00156218 -0.000251751 0.000507071)
(0.00158216 2.33435e-05 0.000507071)
(0.00155407 0.000297728 0.000507071)
(0.00147876 0.000563067 0.000507071)
(0.00135852 0.000811297 0.000507071)
(0.001197 0.00103488 0.000507071)
(0.000999114 0.00122701 0.000507071)
(0.000770866 0.00138186 0.000507071)
(0.000519197 0.00149473 0.000507071)
(0.000251751 0.00156218 0.000507071)
(0.000248679 0.00199366 0.000611123)
(-0.000101295 0.00200656 0.000611123)
(-0.000448191 0.00195848 0.000611124)
(-0.000781469 0.0018509 0.000611124)
(-0.001091 0.00168708 0.000611125)
(-0.00136738 0.001472 0.000611125)
(-0.00160222 0.00121219 0.000611125)
(-0.00178838 0.000915554 0.000611125)
(-0.00192019 0.000591096 0.000611124)
(-0.00199366 0.000248678 0.000611123)
(-0.00200656 -0.000101295 0.000611123)
(-0.00195848 -0.000448191 0.000611123)
(-0.0018509 -0.000781469 0.000611124)
(-0.00168708 -0.001091 0.000611125)
(-0.001472 -0.00136739 0.000611125)
(-0.00121219 -0.00160222 0.000611125)
(-0.000915554 -0.00178838 0.000611125)
(-0.000591096 -0.00192019 0.000611124)
(-0.000248678 -0.00199366 0.000611123)
(0.000101295 -0.00200656 0.000611123)
(0.000448192 -0.00195848 0.000611123)
(0.000781469 -0.0018509 0.000611124)
(0.001091 -0.00168708 0.000611125)
(0.00136739 -0.001472 0.000611125)
(0.00160222 -0.00121219 0.000611125)
(0.00178838 -0.000915554 0.000611125)
(0.00192019 -0.000591096 0.000611124)
(0.00199366 -0.000248678 0.000611123)
(0.00200656 0.000101295 0.000611123)
(0.00195848 0.000448191 0.000611124)
(0.0018509 0.000781469 0.000611124)
(0.00168708 0.001091 0.000611125)
(0.001472 0.00136739 0.000611125)
(0.00121219 0.00160222 0.000611125)
(0.000915554 0.00178838 0.000611125)
(0.000591096 0.00192019 0.000611124)
(9.80414e-05 0.00206156 0.000705666)
(-0.000261434 0.00204726 0.000705665)
(-0.000612965 0.00197076 0.000705665)
(-0.000945872 0.00183438 0.000705666)
(-0.00125004 0.00164227 0.000705666)
(-0.00151622 0.00140025 0.000705666)
(-0.00173634 0.00111569 0.000705666)
(-0.0019037 0.000797224 0.000705666)
(-0.00201321 0.000454538 0.000705666)
(-0.00206156 9.80413e-05 0.000705665)
(-0.00204726 -0.000261434 0.000705665)
(-0.00197076 -0.000612966 0.000705665)
(-0.00183438 -0.000945872 0.000705666)
(-0.00164227 -0.00125004 0.000705666)
(-0.00140025 -0.00151622 0.000705666)
(-0.00111569 -0.00173634 0.000705666)
(-0.000797223 -0.0019037 0.000705666)
(-0.000454538 -0.00201321 0.000705666)
(-9.80412e-05 -0.00206156 0.000705665)
(0.000261434 -0.00204726 0.000705665)
(0.000612966 -0.00197076 0.000705665)
(0.000945872 -0.00183438 0.000705666)
(0.00125004 -0.00164227 0.000705666)
(0.00151622 -0.00140025 0.000705666)
(0.00173634 -0.00111569 0.000705666)
(0.0019037 -0.000797224 0.000705666)
(0.00201321 -0.000454538 0.000705666)
(0.00206156 -9.80413e-05 0.000705666)
(0.00204726 0.000261434 0.000705665)
(0.00197076 0.000612966 0.000705666)
(0.00183438 0.000945872 0.000705666)
(0.00164227 0.00125004 0.000705666)
(0.00140025 0.00151622 0.000705666)
(0.00111569 0.00173634 0.000705666)
(0.000797224 0.0019037 0.000705666)
(0.000454538 0.00201321 0.000705666)
(-7.46765e-05 0.00211604 0.00078551)
(-0.000440989 0.00207093 0.00078551)
(-0.000793902 0.00196289 0.00078551)
(-0.00112269 0.00179521 0.00078551)
(-0.00141737 0.00157298 0.00078551)
(-0.00166898 0.00130296 0.00078551)
(-0.00186988 0.00099335 0.00078551)
(-0.00201397 0.000653557 0.00078551)
(-0.00209686 0.000293905 0.00078551)
(-0.00211604 -7.46766e-05 0.00078551)
(-0.00207093 -0.000440989 0.00078551)
(-0.00196289 -0.000793902 0.00078551)
(-0.00179521 -0.00112269 0.00078551)
(-0.00157298 -0.00141737 0.00078551)
(-0.00130296 -0.00166898 0.00078551)
(-0.00099335 -0.00186988 0.00078551)
(-0.000653557 -0.00201397 0.00078551)
(-0.000293905 -0.00209686 0.00078551)
(7.46767e-05 -0.00211604 0.00078551)
(0.000440989 -0.00207093 0.00078551)
(0.000793902 -0.00196289 0.00078551)
(0.00112269 -0.00179521 0.00078551)
(0.00141737 -0.00157298 0.00078551)
(0.00166898 -0.00130296 0.00078551)
(0.00186988 -0.00099335 0.00078551)
(0.00201397 -0.000653557 0.000785511)
(0.00209686 -0.000293905 0.000785511)
(0.00211604 7.46767e-05 0.00078551)
(0.00207093 0.000440989 0.00078551)
(0.00196289 0.000793902 0.000785511)
(0.00179521 0.00112269 0.00078551)
(0.00157298 0.00141737 0.00078551)
(0.00130296 0.00166898 0.00078551)
(0.00099335 0.00186988 0.00078551)
(0.000653557 0.00201397 0.000785511)
(0.000293905 0.00209686 0.000785511)
(0.000165091 0.00252374 0.000906092)
(-0.00027566 0.00251407 0.000906091)
(-0.000708035 0.002428 0.000906092)
(-0.0011189 0.00226817 0.000906092)
(-0.00149576 0.00203941 0.000906093)
(-0.00182718 0.00174869 0.000906093)
(-0.00210307 0.00140484 0.000906093)
(-0.00231507 0.0010183 0.000906093)
(-0.00245673 0.000600825 0.000906093)
(-0.00252374 0.00016509 0.000906092)
(-0.00251407 -0.00027566 0.000906091)
(-0.002428 -0.000708035 0.000906091)
(-0.00226817 -0.0011189 0.000906092)
(-0.00203941 -0.00149576 0.000906093)
(-0.00174869 -0.00182718 0.000906093)
(-0.00140484 -0.00210307 0.000906093)
(-0.0010183 -0.00231507 0.000906093)
(-0.000600825 -0.00245673 0.000906093)
(-0.00016509 -0.00252374 0.000906092)
(0.00027566 -0.00251407 0.000906091)
(0.000708035 -0.002428 0.000906091)
(0.0011189 -0.00226817 0.000906092)
(0.00149576 -0.00203941 0.000906093)
(0.00182718 -0.00174869 0.000906093)
(0.00210307 -0.00140484 0.000906093)
(0.00231507 -0.0010183 0.000906093)
(0.00245673 -0.000600825 0.000906093)
(0.00252374 -0.00016509 0.000906092)
(0.00251407 0.00027566 0.000906091)
(0.002428 0.000708035 0.000906092)
(0.00226817 0.0011189 0.000906092)
(0.00203941 0.00149576 0.000906093)
(0.00174869 0.00182718 0.000906093)
(0.00140484 0.00210307 0.000906093)
(0.0010183 0.00231507 0.000906093)
(0.000600825 0.00245673 0.000906093)
(1.03789e-05 0.00255635 0.000996046)
(-0.000433684 0.00251931 0.000996046)
(-0.000864568 0.00240573 0.000996046)
(-0.00126918 0.00221905 0.000996047)
(-0.00163524 0.00196495 0.000996047)
(-0.0019516 0.00165114 0.000996047)
(-0.00220867 0.00128716 0.000996047)
(-0.00239863 0.000884075 0.000996047)
(-0.00251571 0.000454126 0.000996047)
(-0.00255635 1.03787e-05 0.000996046)
(-0.00251931 -0.000433684 0.000996046)
(-0.00240573 -0.000864569 0.000996046)
(-0.00221905 -0.00126918 0.000996047)
(-0.00196495 -0.00163524 0.000996047)
(-0.00165114 -0.0019516 0.000996047)
(-0.00128716 -0.00220867 0.000996047)
(-0.000884075 -0.00239863 0.000996047)
(-0.000454126 -0.00251571 0.000996047)
(-1.03786e-05 -0.00255635 0.000996046)
(0.000433684 -0.00251931 0.000996046)
(0.000864569 -0.00240573 0.000996046)
(0.00126918 -0.00221905 0.000996047)
(0.00163524 -0.00196495 0.000996047)
(0.0019516 -0.00165114 0.000996047)
(0.00220867 -0.00128716 0.000996047)
(0.00239863 -0.000884075 0.000996047)
(0.00251571 -0.000454126 0.000996047)
(0.00255635 -1.03787e-05 0.000996046)
(0.00251931 0.000433684 0.000996046)
(0.00240573 0.000864569 0.000996047)
(0.00221905 0.00126918 0.000996047)
(0.00196495 0.00163524 0.000996047)
(0.00165114 0.0019516 0.000996047)
(0.00128716 0.00220867 0.000996047)
(0.000884075 0.00239863 0.000996047)
(0.000454126 0.00251571 0.000996047)
(-0.000162884 0.00257693 0.00107173)
(-0.000607889 0.0025095 0.00107173)
(-0.00103442 0.00236581 0.00107173)
(-0.00142953 0.00215024 0.00107173)
(-0.00178119 0.00186934 0.00107173)
(-0.00207874 0.00153164 0.00107173)
(-0.00231313 0.0011474 0.00107173)
(-0.00247723 0.000728301 0.00107173)
(-0.00256606 0.00028707 0.00107173)
(-0.00257693 -0.000162884 0.00107173)
(-0.0025095 -0.000607889 0.00107173)
(-0.00236581 -0.00103442 0.00107173)
(-0.00215024 -0.00142953 0.00107173)
(-0.00186934 -0.00178119 0.00107173)
(-0.00153164 -0.00207874 0.00107173)
(-0.0011474 -0.00231313 0.00107173)
(-0.000728301 -0.00247723 0.00107173)
(-0.00028707 -0.00256606 0.00107173)
(0.000162885 -0.00257693 0.00107173)
(0.000607889 -0.0025095 0.00107173)
(0.00103442 -0.00236581 0.00107173)
(0.00142953 -0.00215024 0.00107173)
(0.00178119 -0.00186934 0.00107173)
(0.00207874 -0.00153164 0.00107173)
(0.00231313 -0.0011474 0.00107173)
(0.00247723 -0.000728301 0.00107173)
(0.00256606 -0.00028707 0.00107173)
(0.00257693 0.000162884 0.00107173)
(0.0025095 0.000607889 0.00107173)
(0.00236581 0.00103442 0.00107173)
(0.00215024 0.00142953 0.00107173)
(0.00186934 0.00178119 0.00107173)
(0.00153164 0.00207874 0.00107173)
(0.0011474 0.00231313 0.00107173)
(0.000728301 0.00247723 0.00107173)
(0.00028707 0.00256606 0.00107173)
(3.43114e-05 0.00299256 0.00121742)
(-0.000485862 0.00295305 0.00121742)
(-0.000991272 0.00282382 0.00121742)
(-0.00146656 0.00260879 0.00121742)
(-0.00189729 0.00231449 0.00121742)
(-0.00227037 0.00194986 0.00121742)
(-0.00257447 0.00152599 0.00121742)
(-0.00280035 0.00105576 0.00121742)
(-0.00294113 0.000553442 0.00121742)
(-0.00299256 3.43112e-05 0.00121742)
(-0.00295305 -0.000485862 0.00121742)
(-0.00282382 -0.000991272 0.00121742)
(-0.00260879 -0.00146656 0.00121742)
(-0.00231449 -0.00189729 0.00121742)
(-0.00194986 -0.00227037 0.00121742)
(-0.00152599 -0.00257447 0.00121742)
(-0.00105576 -0.00280035 0.00121742)
(-0.000553442 -0.00294113 0.00121742)
(-3.4311e-05 -0.00299256 0.00121742)
(0.000485862 -0.00295305 0.00121742)
(0.000991273 -0.00282382 0.00121742)
(0.00146656 -0.00260879 0.00121742)
(0.00189729 -0.00231449 0.00121742)
(0.00227037 -0.00194986 0.00121742)
(0.00257447 -0.00152599 0.00121742)
(0.00280035 -0.00105576 0.00121742)
(0.00294113 -0.000553442 0.00121742)
(0.00299256 -3.43111e-05 0.00121742)
(0.00295305 0.000485862 0.00121742)
(0.00282382 0.000991272 0.00121742)
(0.00260879 0.00146656 0.00121742)
(0.00231449 0.00189729 0.00121742)
(0.00194986 0.00227037 0.00121742)
(0.00152599 0.00257447 0.00121742)
(0.00105576 0.00280035 0.00121742)
(0.000553442 0.00294113 0.00121742)
(-0.000116151 0.00297781 0.00129549)
(-0.000631478 0.0029124 0.00129549)
(-0.00112762 0.0027585 0.00129549)
(-0.00158949 0.00252079 0.00129549)
(-0.00200308 0.00220648 0.00129549)
(-0.00235579 0.00182512 0.00129549)
(-0.00263693 0.00138832 0.00129549)
(-0.00283795 0.000909327 0.00129549)
(-0.00295274 0.000402705 0.00129549)
(-0.00297781 -0.000116151 0.00129549)
(-0.0029124 -0.000631478 0.00129549)
(-0.0027585 -0.00112762 0.00129549)
(-0.00252079 -0.0015895 0.00129549)
(-0.00220648 -0.00200308 0.00129549)
(-0.00182512 -0.0023558 0.00129549)
(-0.00138832 -0.00263693 0.00129549)
(-0.000909326 -0.00283795 0.00129549)
(-0.000402705 -0.00295274 0.00129549)
(0.000116151 -0.00297781 0.00129549)
(0.000631479 -0.0029124 0.00129549)
(0.00112762 -0.0027585 0.00129549)
(0.0015895 -0.00252079 0.00129549)
(0.00200308 -0.00220648 0.00129549)
(0.0023558 -0.00182512 0.00129549)
(0.00263693 -0.00138832 0.00129549)
(0.00283795 -0.000909326 0.00129549)
(0.00295274 -0.000402705 0.00129549)
(0.00297781 0.000116151 0.00129549)
(0.0029124 0.000631479 0.00129549)
(0.0027585 0.00112762 0.00129549)
(0.00252079 0.0015895 0.00129549)
(0.00220648 0.00200308 0.00129549)
(0.00182512 0.0023558 0.00129549)
(0.00138832 0.00263693 0.00129549)
(0.000909327 0.00283795 0.00129549)
(0.000402706 0.00295274 0.00129549)
(-0.00028143 0.00295367 0.00135925)
(-0.000790054 0.00285992 0.00135925)
(-0.00127467 0.00267928 0.00135925)
(-0.00172056 0.00241723 0.00135925)
(-0.00211417 0.00208174 0.00135925)
(-0.00244354 0.00168299 0.00135925)
(-0.00269866 0.00123311 0.00135925)
(-0.00287179 0.000745756 0.00135925)
(-0.00295766 0.000235744 0.00135925)
(-0.00295367 -0.00028143 0.00135925)
(-0.00285992 -0.000790054 0.00135925)
(-0.00267928 -0.00127467 0.00135925)
(-0.00241723 -0.00172056 0.00135925)
(-0.00208174 -0.00211417 0.00135925)
(-0.00168299 -0.00244354 0.00135925)
(-0.00123311 -0.00269866 0.00135925)
(-0.000745756 -0.00287179 0.00135925)
(-0.000235744 -0.00295766 0.00135925)
(0.000281431 -0.00295367 0.00135925)
(0.000790054 -0.00285992 0.00135925)
(0.00127467 -0.00267928 0.00135925)
(0.00172056 -0.00241723 0.00135925)
(0.00211417 -0.00208174 0.00135925)
(0.00244354 -0.00168299 0.00135925)
(0.00269866 -0.00123311 0.00135925)
(0.00287179 -0.000745756 0.00135925)
(0.00295766 -0.000235744 0.00135925)
(0.00295367 0.00028143 0.00135925)
(0.00285992 0.000790054 0.00135925)
(0.00267928 0.00127467 0.00135925)
(0.00241723 0.00172056 0.00135925)
(0.00208174 0.00211417 0.00135925)
(0.00168299 0.00244354 0.00135925)
(0.00123311 0.00269866 0.00135925)
(0.000745756 0.00287179 0.00135925)
(0.000235744 0.00295766 0.00135925)
(-0.000121074 0.003379 0.00154381)
(-0.000705992 0.00330664 0.00154381)
(-0.00126946 0.00313381 0.00154381)
(-0.00179435 0.00286576 0.00154381)
(-0.00226473 0.00251064 0.00154381)
(-0.00266629 0.00207923 0.00154381)
(-0.00298683 0.00158465 0.00154381)
(-0.00321663 0.00104191 0.00154381)
(-0.00334869 0.000467521 0.00154381)
(-0.003379 -0.000121075 0.00154381)
(-0.00330664 -0.000705992 0.00154381)
(-0.00313381 -0.00126946 0.00154381)
(-0.00286576 -0.00179435 0.00154381)
(-0.00251064 -0.00226473 0.00154381)
(-0.00207923 -0.00266629 0.00154381)
(-0.00158465 -0.00298683 0.00154381)
(-0.00104191 -0.00321663 0.00154381)
(-0.000467521 -0.00334869 0.00154381)
(0.000121075 -0.003379 0.00154381)
(0.000705992 -0.00330664 0.00154381)
(0.00126946 -0.00313381 0.00154381)
(0.00179435 -0.00286576 0.00154381)
(0.00226473 -0.00251064 0.00154381)
(0.00266629 -0.00207923 0.00154381)
(0.00298684 -0.00158465 0.00154381)
(0.00321663 -0.00104191 0.00154381)
(0.00334869 -0.000467521 0.00154381)
(0.003379 0.000121075 0.00154381)
(0.00330664 0.000705992 0.00154381)
(0.00313381 0.00126946 0.00154381)
(0.00286576 0.00179435 0.00154381)
(0.00251064 0.00226473 0.00154381)
(0.00207923 0.00266629 0.00154381)
(0.00158465 0.00298683 0.00154381)
(0.00104191 0.00321663 0.00154381)
(0.000467521 0.00334869 0.00154381)
(-0.000263942 0.00330904 0.00160369)
(-0.000834541 0.00321293 0.00160369)
(-0.00137978 0.00301921 0.00160369)
(-0.0018831 0.00273374 0.00160369)
(-0.0023292 0.00236521 0.00160369)
(-0.00270453 0.00192482 0.00160369)
(-0.00299768 0.00142594 0.00160369)
(-0.00319975 0.000883734 0.00160369)
(-0.0033046 0.000314675 0.00160369)
(-0.00330904 -0.000263942 0.00160369)
(-0.00321293 -0.000834541 0.00160369)
(-0.00301921 -0.00137978 0.00160369)
(-0.00273374 -0.0018831 0.00160369)
(-0.00236521 -0.0023292 0.00160369)
(-0.00192482 -0.00270453 0.00160369)
(-0.00142594 -0.00299768 0.00160369)
(-0.000883733 -0.00319975 0.00160369)
(-0.000314675 -0.0033046 0.00160369)
(0.000263942 -0.00330904 0.00160369)
(0.000834541 -0.00321293 0.00160369)
(0.00137978 -0.00301921 0.00160369)
(0.0018831 -0.00273374 0.00160369)
(0.0023292 -0.00236521 0.00160369)
(0.00270453 -0.00192482 0.00160369)
(0.00299768 -0.00142594 0.00160369)
(0.00319975 -0.000883734 0.00160369)
(0.0033046 -0.000314675 0.00160369)
(0.00330904 0.000263942 0.00160369)
(0.00321293 0.000834541 0.00160369)
(0.00301921 0.00137978 0.00160369)
(0.00273374 0.0018831 0.00160369)
(0.00236521 0.0023292 0.00160369)
(0.00192482 0.00270453 0.00160369)
(0.00142594 0.00299768 0.00160369)
(0.000883734 0.00319975 0.00160369)
(0.000314675 0.0033046 0.00160369)
(-0.000417297 0.00323383 0.00164873)
(-0.000972506 0.00311224 0.00164873)
(-0.00149817 0.00289608 0.00164873)
(-0.0019783 0.00259193 0.00164873)
(-0.00239833 0.00220902 0.00164873)
(-0.00274549 0.001759 0.00164873)
(-0.00300922 0.00125552 0.00164873)
(-0.00318153 0.000713904 0.00164873)
(-0.00325716 0.000150592 0.00164873)
(-0.00323383 -0.000417298 0.00164873)
(-0.00311224 -0.000972506 0.00164873)
(-0.00289608 -0.00149817 0.00164873)
(-0.00259193 -0.0019783 0.00164873)
(-0.00220902 -0.00239833 0.00164873)
(-0.001759 -0.00274549 0.00164873)
(-0.00125552 -0.00300923 0.00164873)
(-0.000713904 -0.00318153 0.00164873)
(-0.000150591 -0.00325716 0.00164873)
(0.000417298 -0.00323383 0.00164873)
(0.000972506 -0.00311224 0.00164873)
(0.00149817 -0.00289608 0.00164873)
(0.0019783 -0.00259193 0.00164873)
(0.00239833 -0.00220902 0.00164873)
(0.00274549 -0.001759 0.00164873)
(0.00300923 -0.00125552 0.00164873)
(0.00318153 -0.000713904 0.00164873)
(0.00325716 -0.000150592 0.00164873)
(0.00323383 0.000417298 0.00164873)
(0.00311224 0.000972506 0.00164873)
(0.00289608 0.00149817 0.00164873)
(0.00259193 0.0019783 0.00164873)
(0.00220902 0.00239833 0.00164873)
(0.001759 0.00274549 0.00164873)
(0.00125552 0.00300923 0.00164873)
(0.000713904 0.00318153 0.00164873)
(0.000150592 0.00325716 0.00164873)
(-0.000276259 0.00366457 0.00189115)
(-0.000908408 0.00356093 0.00189115)
(-0.00151296 0.00334909 0.00189115)
(-0.00207153 0.00303548 0.00189115)
(-0.00256717 0.00262965 0.00189115)
(-0.0029848 0.00214392 0.00189115)
(-0.00331174 0.00159304 0.00189115)
(-0.00353806 0.000993758 0.00189115)
(-0.00365687 0.000364283 0.00189115)
(-0.00366457 -0.000276259 0.00189115)
(-0.00356093 -0.000908408 0.00189115)
(-0.00334909 -0.00151296 0.00189115)
(-0.00303548 -0.00207153 0.00189115)
(-0.00262965 -0.00256717 0.00189115)
(-0.00214392 -0.0029848 0.00189115)
(-0.00159304 -0.00331174 0.00189115)
(-0.000993758 -0.00353806 0.00189115)
(-0.000364283 -0.00365687 0.00189115)
(0.000276259 -0.00366457 0.00189115)
(0.000908409 -0.00356093 0.00189115)
(0.00151296 -0.00334909 0.00189115)
(0.00207153 -0.00303548 0.00189115)
(0.00256717 -0.00262965 0.00189115)