/*--------------------------------*- C++ -*----------------------------------*\
| =========                 |                                                 |
| \\      /  F ield         | OpenFOAM: The Open Source CFD Toolbox           |
|  \\    /   O peration     | Version:  2312                                  |
|   \\  /    A nd           | Website:  www.openfoam.com                      |
|    \\/     M anipulation  |                                                 |
\*---------------------------------------------------------------------------*/
FoamFile
{
    version     2.0;
    format      ascii;
    arch        "LSB;label=32;scalar=64";
    class       volTensorField;
    location    "0.6";
    object      F;
}
// * * * * * * * * * * * * * * * * * * * * * * * * * * * * * * * * * * * * * //

dimensions      [0 0 0 0 0 0 0];

internalField   nonuniform List<tensor> 
1620
(
(1.06165 -0.0234863 -0.0485003 -0.0470409 1.0081 -0.305232 -0.0406797 -0.00355908 0.930152)
(1.0721 -0.0122016 0.00523932 -0.0357564 0.997653 -0.309017 -0.0394438 -0.0105689 0.930152)
(1.07805 0.00197532 0.0588199 -0.0215796 0.991696 -0.303412 -0.0370094 -0.0172577 0.930152)
(1.0788 0.0173345 0.110613 -0.0062202 0.990948 -0.288589 -0.0334503 -0.0234221 0.930151)
(1.07425 0.0320234 0.159046 0.00846879 0.995498 -0.264997 -0.0288748 -0.0288749 0.930151)
(1.06495 0.0442701 0.202645 0.0207158 1.0048 -0.233353 -0.0234223 -0.0334503 0.930151)
(1.05203 0.0525979 0.240088 0.0290436 1.01772 -0.194619 -0.0172577 -0.037009 0.930152)
(1.03703 0.056002 0.270236 0.0324477 1.03272 -0.149971 -0.0105687 -0.0394434 0.930152)
(1.02177 0.0540721 0.292173 0.0305177 1.04798 -0.100766 -0.00355889 -0.0406796 0.930152)
(1.0081 0.0470409 0.305232 0.0234863 1.06165 -0.0485003 0.00355908 -0.0406797 0.930152)
(0.997653 0.0357564 0.309017 0.0122016 1.0721 0.00523934 0.0105689 -0.0394438 0.930152)
(0.991696 0.0215796 0.303412 -0.00197532 1.07805 0.0588199 0.0172577 -0.0370094 0.930152)
(0.990948 0.00622021 0.288589 -0.0173345 1.0788 0.110613 0.0234221 -0.0334503 0.930151)
(0.995498 -0.00846879 0.264997 -0.0320234 1.07425 0.159046 0.0288749 -0.0288748 0.930151)
(1.0048 -0.0207158 0.233353 -0.0442701 1.06495 0.202645 0.0334503 -0.0234223 0.930151)
(1.01772 -0.0290436 0.194619 -0.0525978 1.05203 0.240088 0.037009 -0.0172577 0.930152)
(1.03272 -0.0324477 0.149971 -0.056002 1.03703 0.270236 0.0394434 -0.0105687 0.930152)
(1.04798 -0.0305177 0.100766 -0.0540721 1.02177 0.292173 0.0406796 -0.00355889 0.930152)
(1.06165 -0.0234863 0.0485003 -0.0470409 1.0081 0.305232 0.0406797 0.00355908 0.930152)
(1.0721 -0.0122016 -0.00523935 -0.0357564 0.997653 0.309017 0.0394438 0.0105689 0.930152)
(1.07805 0.00197532 -0.0588199 -0.0215796 0.991696 0.303412 0.0370094 0.0172577 0.930152)
(1.0788 0.0173345 -0.110613 -0.0062202 0.990948 0.288589 0.0334503 0.0234221 0.930151)
(1.07425 0.0320234 -0.159046 0.00846879 0.995498 0.264997 0.0288748 0.0288749 0.930151)
(1.06495 0.0442701 -0.202645 0.0207158 1.0048 0.233353 0.0234223 0.0334503 0.930151)
(1.05203 0.0525978 -0.240088 0.0290436 1.01772 0.194619 0.0172577 0.037009 0.930151)
(1.03703 0.056002 -0.270236 0.0324477 1.03272 0.149971 0.0105687 0.0394434 0.930152)
(1.02177 0.0540721 -0.292173 0.0305177 1.04798 0.100766 0.0035589 0.0406796 0.930152)
(1.0081 0.0470409 -0.305232 0.0234863 1.06165 0.0485003 -0.00355908 0.0406797 0.930152)
(0.997653 0.0357564 -0.309017 0.0122016 1.0721 -0.00523934 -0.0105689 0.0394438 0.930152)
(0.991696 0.0215796 -0.303412 -0.00197532 1.07805 -0.0588199 -0.0172577 0.0370094 0.930152)
(0.990948 0.0062202 -0.288589 -0.0173345 1.0788 -0.110613 -0.0234221 0.0334503 0.930151)
(0.995498 -0.0084688 -0.264997 -0.0320234 1.07425 -0.159046 -0.0288749 0.0288748 0.930151)
(1.0048 -0.0207158 -0.233353 -0.0442701 1.06495 -0.202645 -0.0334503 0.0234223 0.930151)
(1.01772 -0.0290436 -0.194619 -0.0525979 1.05203 -0.240088 -0.037009 0.0172577 0.930151)
(1.03272 -0.0324477 -0.149971 -0.056002 1.03703 -0.270236 -0.0394434 0.0105687 0.930152)
(1.04798 -0.0305177 -0.100766 -0.0540721 1.02177 -0.292173 -0.0406796 0.00355889 0.930152)
(1.07483 -0.0315308 -0.0277032 -0.0451 1.00253 -0.323363 -0.0243245 -0.00212812 0.914172)
(1.08576 -0.0168545 0.028869 -0.0304239 0.991601 -0.323261 -0.0235855 -0.00631963 0.914172)
(1.091 0.000672988 0.0845642 -0.0128964 0.986355 -0.313337 -0.0221297 -0.0103192 0.914172)
(1.08994 0.0189375 0.13769 0.00536828 0.98742 -0.293893 -0.0200015 -0.0140053 0.914172)
(1.08269 0.0357364 0.186632 0.0221671 0.994668 -0.265518 -0.0172658 -0.0172658 0.914172)
(1.07013 0.0490431 0.229903 0.035474 1.00722 -0.229076 -0.0140054 -0.0200016 0.914172)
(1.05378 0.0572529 0.266189 0.0436838 1.02357 -0.185673 -0.0103191 -0.0221295 0.914172)
(1.03561 0.0593753 0.294387 0.0458063 1.04175 -0.136629 -0.00631948 -0.0235851 0.914172)
(1.01781 0.0551547 0.31364 0.0415856 1.05955 -0.0834337 -0.00212809 -0.0243244 0.914172)
(1.00253 0.0451 0.323363 0.0315308 1.07483 -0.0277031 0.00212812 -0.0243245 0.914172)
(0.991601 0.0304239 0.323261 0.0168545 1.08576 0.0288691 0.00631963 -0.0235855 0.914172)
(0.986355 0.0128964 0.313337 -0.000672985 1.091 0.0845642 0.0103192 -0.0221297 0.914172)
(0.98742 -0.00536828 0.293893 -0.0189375 1.08994 0.13769 0.0140053 -0.0200015 0.914172)
(0.994668 -0.0221671 0.265518 -0.0357364 1.08269 0.186632 0.0172658 -0.0172658 0.914172)
(1.00722 -0.035474 0.229076 -0.0490431 1.07013 0.229903 0.0200016 -0.0140054 0.914172)
(1.02357 -0.0436838 0.185673 -0.0572529 1.05378 0.266189 0.0221295 -0.0103191 0.914172)
(1.04175 -0.0458063 0.136629 -0.0593753 1.03561 0.294387 0.0235851 -0.00631948 0.914172)
(1.05955 -0.0415856 0.0834337 -0.0551546 1.01781 0.31364 0.0243244 -0.00212809 0.914172)
(1.07483 -0.0315308 0.0277031 -0.0451 1.00253 0.323363 0.0243245 0.00212812 0.914172)
(1.08576 -0.0168545 -0.0288691 -0.0304239 0.991601 0.323261 0.0235855 0.00631963 0.914172)
(1.091 0.000672986 -0.0845642 -0.0128964 0.986355 0.313337 0.0221297 0.0103191 0.914172)
(1.08994 0.0189375 -0.13769 0.00536828 0.98742 0.293893 0.0200015 0.0140053 0.914172)
(1.08269 0.0357364 -0.186632 0.0221671 0.994668 0.265518 0.0172658 0.0172658 0.914172)
(1.07013 0.0490431 -0.229903 0.035474 1.00722 0.229076 0.0140054 0.0200016 0.914172)
(1.05378 0.0572529 -0.266189 0.0436838 1.02357 0.185673 0.0103191 0.0221295 0.914172)
(1.03561 0.0593753 -0.294387 0.0458063 1.04175 0.136629 0.00631948 0.0235851 0.914172)
(1.01781 0.0551546 -0.31364 0.0415856 1.05955 0.0834337 0.00212809 0.0243244 0.914172)
(1.00253 0.0451 -0.323363 0.0315308 1.07483 0.0277031 -0.00212812 0.0243245 0.914172)
(0.991601 0.0304239 -0.323261 0.0168545 1.08576 -0.0288691 -0.00631963 0.0235855 0.914172)
(0.986355 0.0128964 -0.313337 -0.000672988 1.091 -0.0845642 -0.0103191 0.0221297 0.914172)
(0.98742 -0.00536829 -0.293893 -0.0189375 1.08994 -0.13769 -0.0140053 0.0200015 0.914172)
(0.994668 -0.0221671 -0.265518 -0.0357364 1.08269 -0.186632 -0.0172658 0.0172658 0.914172)
(1.00722 -0.035474 -0.229076 -0.0490431 1.07013 -0.229903 -0.0200016 0.0140054 0.914172)
(1.02357 -0.0436838 -0.185673 -0.0572529 1.05378 -0.266189 -0.0221295 0.0103191 0.914172)
(1.04175 -0.0458063 -0.136629 -0.0593753 1.03561 -0.294387 -0.0235851 0.00631948 0.914172)
(1.05955 -0.0415856 -0.0834337 -0.0551546 1.01781 -0.31364 -0.0243244 0.00212809 0.914172)
(1.08843 -0.0414894 -0.00410039 -0.0417098 0.991996 -0.338351 -0.00642692 -0.000562215 0.890738)
(1.09975 -0.0224895 0.0547158 -0.0227101 0.980676 -0.333923 -0.0062317 -0.00166979 0.890738)
(1.10389 -0.000763602 0.111869 -0.000984183 0.976537 -0.319348 -0.00584678 -0.00272642 0.890738)
(1.10035 0.0210675 0.165624 0.0208468 0.980078 -0.295071 -0.00528459 -0.00370025 0.890738)
(1.08955 0.040371 0.214346 0.0401503 0.990872 -0.261828 -0.0045619 -0.00456184 0.890738)
(1.07281 0.0548182 0.256556 0.054598 1.00762 -0.220629 -0.00370034 -0.00528466 0.890738)
(1.05213 0.0626671 0.29097 0.0624466 1.02829 -0.172726 -0.00272627 -0.00584681 0.890738)
(1.03002 0.0629705 0.316543 0.06275 1.05041 -0.119576 -0.00166965 -0.00623138 0.890738)
(1.00913 0.0556921 0.332498 0.0554716 1.07129 -0.0627921 -0.000562346 -0.00642688 0.890738)
(0.991996 0.0417098 0.338351 0.0414894 1.08843 -0.00410037 0.000562215 -0.00642692 0.890738)
(0.980676 0.0227101 0.333923 0.0224895 1.09975 0.0547158 0.0016698 -0.0062317 0.890738)
(0.976537 0.000984188 0.319348 0.000763606 1.10389 0.111869 0.00272643 -0.00584678 0.890738)
(0.980078 -0.0208468 0.295071 -0.0210675 1.10035 0.165624 0.00370025 -0.00528459 0.890738)
(0.990872 -0.0401503 0.261828 -0.040371 1.08955 0.214346 0.00456184 -0.0045619 0.890738)
(1.00762 -0.054598 0.220629 -0.0548182 1.07281 0.256556 0.00528466 -0.00370034 0.890738)
(1.02829 -0.0624466 0.172726 -0.0626671 1.05213 0.29097 0.00584681 -0.00272627 0.890738)
(1.05041 -0.06275 0.119576 -0.0629705 1.03002 0.316543 0.00623138 -0.00166965 0.890738)
(1.07129 -0.0554716 0.0627921 -0.0556921 1.00913 0.332498 0.00642688 -0.000562346 0.890738)
(1.08843 -0.0414894 0.00410036 -0.0417098 0.991996 0.338351 0.00642692 0.000562214 0.890738)
(1.09975 -0.0224895 -0.0547158 -0.0227101 0.980676 0.333923 0.0062317 0.00166979 0.890738)
(1.10389 -0.000763606 -0.111869 -0.000984185 0.976537 0.319348 0.00584678 0.00272642 0.890738)
(1.10035 0.0210675 -0.165624 0.0208468 0.980078 0.295071 0.00528459 0.00370025 0.890738)
(1.08955 0.040371 -0.214346 0.0401503 0.990872 0.261828 0.0045619 0.00456184 0.890738)
(1.07281 0.0548182 -0.256556 0.054598 1.00762 0.220629 0.00370034 0.00528466 0.890738)
(1.05213 0.0626671 -0.29097 0.0624466 1.02829 0.172726 0.00272627 0.00584681 0.890738)
(1.03002 0.0629705 -0.316543 0.06275 1.05041 0.119576 0.00166965 0.00623137 0.890738)
(1.00913 0.0556921 -0.332498 0.0554716 1.07129 0.0627921 0.000562347 0.00642688 0.890738)
(0.991996 0.0417098 -0.338351 0.0414894 1.08843 0.00410037 -0.000562214 0.00642692 0.890738)
(0.980676 0.0227101 -0.333923 0.0224895 1.09975 -0.0547158 -0.00166979 0.0062317 0.890738)
(0.976537 0.00098418 -0.319348 0.000763602 1.10389 -0.111869 -0.00272642 0.00584678 0.890738)
(0.980078 -0.0208468 -0.295071 -0.0210675 1.10035 -0.165624 -0.00370025 0.00528459 0.890738)
(0.990872 -0.0401504 -0.261828 -0.040371 1.08955 -0.214346 -0.00456184 0.0045619 0.890738)
(1.00762 -0.054598 -0.220629 -0.0548182 1.07281 -0.256556 -0.00528466 0.00370034 0.890738)
(1.02829 -0.0624466 -0.172726 -0.0626671 1.05213 -0.29097 -0.00584681 0.00272627 0.890738)
(1.05041 -0.06275 -0.119576 -0.0629705 1.03002 -0.316543 -0.00623137 0.00166965 0.890738)
(1.07129 -0.0554716 -0.0627921 -0.0556921 1.00913 -0.332498 -0.00642688 0.000562346 0.890738)
(1.10553 -0.081614 -0.0351294 -0.0822959 1.0158 -0.306852 -0.074191 -0.00649105 0.906226)
(1.13085 -0.0613273 0.0186886 -0.0620093 0.990475 -0.30829 -0.071937 -0.0192755 0.906226)
(1.14771 -0.0336025 0.0719388 -0.0342847 0.973616 -0.300362 -0.0674973 -0.0314739 0.906226)
(1.15407 -0.00178368 0.123003 -0.00246569 0.967257 -0.283306 -0.0610058 -0.0427161 0.906226)
(1.14916 0.0302915 0.17033 0.0296097 0.972163 -0.257643 -0.0526609 -0.0526608 0.906226)
(1.13358 0.0587541 0.212481 0.0580726 0.987744 -0.224151 -0.0427165 -0.0610058 0.906226)
(1.10921 0.0801711 0.248177 0.0794898 1.01212 -0.183849 -0.0314739 -0.0674964 0.906226)
(1.07898 0.0919594 0.276331 0.0912782 1.04235 -0.13796 -0.019275 -0.0719364 0.906226)
(1.04654 0.0926974 0.29609 0.092016 1.07479 -0.08788 -0.00649063 -0.0741909 0.906226)
(1.0158 0.0822959 0.306852 0.081614 1.10553 -0.0351294 0.00649105 -0.074191 0.906226)
(0.990475 0.0620093 0.30829 0.0613273 1.13085 0.0186887 0.0192755 -0.071937 0.906226)
(0.973616 0.0342847 0.300362 0.0336026 1.14771 0.0719388 0.0314739 -0.0674972 0.906226)
(0.967257 0.0024657 0.283306 0.00178369 1.15407 0.123003 0.0427161 -0.0610058 0.906226)
(0.972163 -0.0296097 0.257643 -0.0302915 1.14916 0.17033 0.0526608 -0.0526609 0.906226)
(0.987744 -0.0580726 0.224151 -0.0587541 1.13358 0.212481 0.0610058 -0.0427165 0.906226)
(1.01212 -0.0794898 0.183849 -0.0801711 1.10921 0.248177 0.0674964 -0.0314739 0.906226)
(1.04235 -0.0912782 0.13796 -0.0919594 1.07898 0.276331 0.0719364 -0.019275 0.906226)
(1.07479 -0.092016 0.08788 -0.0926974 1.04654 0.29609 0.0741908 -0.00649063 0.906226)
(1.10553 -0.081614 0.0351293 -0.0822959 1.0158 0.306852 0.074191 0.00649105 0.906226)
(1.13085 -0.0613273 -0.0186887 -0.0620093 0.990475 0.30829 0.071937 0.0192755 0.906226)
(1.14771 -0.0336025 -0.0719388 -0.0342847 0.973616 0.300362 0.0674972 0.0314739 0.906226)
(1.15407 -0.00178369 -0.123003 -0.00246569 0.967257 0.283306 0.0610058 0.0427161 0.906226)
(1.14916 0.0302915 -0.17033 0.0296097 0.972163 0.257643 0.0526609 0.0526608 0.906226)
(1.13358 0.0587541 -0.212481 0.0580726 0.987744 0.224151 0.0427165 0.0610057 0.906226)
(1.10921 0.0801711 -0.248177 0.0794898 1.01212 0.183849 0.0314739 0.0674964 0.906226)
(1.07898 0.0919594 -0.276331 0.0912782 1.04235 0.13796 0.019275 0.0719364 0.906226)
(1.04654 0.0926974 -0.29609 0.092016 1.07479 0.08788 0.00649063 0.0741909 0.906226)
(1.0158 0.0822959 -0.306852 0.081614 1.10553 0.0351294 -0.00649105 0.074191 0.906226)
(0.990475 0.0620093 -0.30829 0.0613273 1.13085 -0.0186887 -0.0192755 0.071937 0.906226)
(0.973616 0.0342847 -0.300362 0.0336025 1.14771 -0.0719388 -0.0314739 0.0674972 0.906226)
(0.967257 0.00246569 -0.283306 0.00178368 1.15407 -0.123003 -0.0427161 0.0610058 0.906226)
(0.972163 -0.0296097 -0.257643 -0.0302915 1.14916 -0.17033 -0.0526608 0.0526609 0.906226)
(0.987744 -0.0580726 -0.224151 -0.0587541 1.13358 -0.212481 -0.0610058 0.0427165 0.906226)
(1.01212 -0.0794898 -0.183849 -0.0801711 1.10921 -0.248177 -0.0674964 0.0314739 0.906226)
(1.04235 -0.0912782 -0.13796 -0.0919594 1.07898 -0.276331 -0.0719364 0.019275 0.906226)
(1.07479 -0.092016 -0.08788 -0.0926974 1.04654 -0.29609 -0.0741909 0.00649063 0.906226)
(1.12222 -0.100597 -0.0150291 -0.077597 1.00721 -0.319651 -0.064833 -0.0056722 0.892498)
(1.14923 -0.0755552 0.040706 -0.0525554 0.980205 -0.317405 -0.0628634 -0.0168441 0.892498)
(1.16604 -0.0427872 0.0952043 -0.0197876 0.963394 -0.305514 -0.0589834 -0.0275041 0.892498)
(1.17063 -0.006246 0.14681 0.0167541 0.958804 -0.284341 -0.0533108 -0.0373283 0.892498)
(1.16245 0.0296619 0.193955 0.0526622 0.966988 -0.254528 -0.0460186 -0.0460185 0.892498)
(1.14247 0.0606051 0.235206 0.0836054 0.98696 -0.216981 -0.0373284 -0.0533107 0.892498)
(1.11312 0.082851 0.269311 0.105852 1.01631 -0.172841 -0.0275039 -0.0589828 0.892498)
(1.07793 0.093717 0.295233 0.116717 1.0515 -0.12345 -0.0168438 -0.0628629 0.892498)
(1.04115 0.0918923 0.312185 0.114893 1.08828 -0.0703076 -0.00567204 -0.0648329 0.892498)
(1.00721 0.077597 0.319651 0.100597 1.12222 -0.0150291 0.0056722 -0.064833 0.892498)
(0.980205 0.0525554 0.317405 0.0755552 1.14923 0.040706 0.0168441 -0.0628634 0.892498)
(0.963394 0.0197876 0.305514 0.0427872 1.16604 0.0952043 0.0275041 -0.0589834 0.892498)
(0.958804 -0.0167541 0.284341 0.006246 1.17063 0.14681 0.0373283 -0.0533108 0.892498)
(0.966988 -0.0526622 0.254528 -0.0296619 1.16245 0.193955 0.0460185 -0.0460186 0.892498)
(0.98696 -0.0836054 0.216981 -0.0606051 1.14247 0.235206 0.0533107 -0.0373284 0.892498)
(1.01631 -0.105852 0.172841 -0.082851 1.11312 0.269311 0.0589828 -0.0275039 0.892498)
(1.0515 -0.116717 0.12345 -0.093717 1.07793 0.295233 0.0628628 -0.0168438 0.892498)
(1.08828 -0.114893 0.0703075 -0.0918923 1.04115 0.312185 0.0648329 -0.00567204 0.892498)
(1.12222 -0.100597 0.0150291 -0.077597 1.00721 0.319651 0.064833 0.0056722 0.892498)
(1.14923 -0.0755552 -0.040706 -0.0525554 0.980205 0.317405 0.0628634 0.0168441 0.892498)
(1.16604 -0.0427872 -0.0952044 -0.0197876 0.963394 0.305514 0.0589834 0.0275041 0.892498)
(1.17063 -0.006246 -0.14681 0.0167541 0.958804 0.284341 0.0533108 0.0373283 0.892498)
(1.16245 0.0296619 -0.193955 0.0526622 0.966988 0.254528 0.0460186 0.0460184 0.892498)
(1.14247 0.0606051 -0.235206 0.0836054 0.98696 0.216981 0.0373284 0.0533107 0.892498)
(1.11312 0.082851 -0.269311 0.105852 1.01631 0.172841 0.0275039 0.0589828 0.892498)
(1.07793 0.093717 -0.295233 0.116717 1.0515 0.12345 0.0168438 0.0628628 0.892498)
(1.04115 0.0918923 -0.312185 0.114893 1.08828 0.0703076 0.00567204 0.0648329 0.892498)
(1.00721 0.077597 -0.319651 0.100597 1.12222 0.0150291 -0.0056722 0.064833 0.892498)
(0.980205 0.0525554 -0.317405 0.0755552 1.14923 -0.040706 -0.0168441 0.0628634 0.892498)
(0.963394 0.0197876 -0.305514 0.0427872 1.16604 -0.0952043 -0.0275041 0.0589834 0.892498)
(0.958804 -0.0167541 -0.284341 0.006246 1.17063 -0.14681 -0.0373283 0.0533108 0.892498)
(0.966988 -0.0526622 -0.254528 -0.0296619 1.16245 -0.193955 -0.0460185 0.0460186 0.892498)
(0.98696 -0.0836054 -0.216981 -0.0606051 1.14247 -0.235206 -0.0533107 0.0373284 0.892498)
(1.01631 -0.105852 -0.172841 -0.082851 1.11312 -0.269311 -0.0589828 0.0275039 0.892498)
(1.0515 -0.116717 -0.12345 -0.093717 1.07793 -0.295233 -0.0628629 0.0168438 0.892498)
(1.08828 -0.114893 -0.0703076 -0.0918923 1.04115 -0.312185 -0.0648329 0.00567204 0.892498)
(1.13962 -0.123438 0.00587286 -0.0698845 0.992353 -0.330332 -0.0545242 -0.0047702 0.873893)
(1.16824 -0.0924241 0.0631451 -0.0388707 0.963733 -0.324294 -0.0528678 -0.0141658 0.873893)
(1.18453 -0.053492 0.118499 6.15429e-05 0.947447 -0.308402 -0.0496046 -0.0231309 0.873893)
(1.18652 -0.0113376 0.170252 0.042216 0.945459 -0.28314 -0.0448339 -0.031393 0.873893)
(1.17397 0.0289545 0.216832 0.0825085 0.958008 -0.249274 -0.0387013 -0.0387013 0.873893)
(1.14839 0.0625247 0.256824 0.116079 0.983582 -0.207835 -0.0313929 -0.0448339 0.873893)
(1.11288 0.0853236 0.289012 0.138878 1.01909 -0.16008 -0.0231306 -0.0496041 0.873893)
(1.07171 0.0946016 0.312419 0.148156 1.06026 -0.107462 -0.0141656 -0.0528672 0.873893)
(1.02985 0.0892397 0.326333 0.142794 1.10212 -0.0515779 -0.00477025 -0.0545242 0.873893)
(0.992353 0.0698845 0.330332 0.123438 1.13962 0.00587288 0.0047702 -0.0545242 0.873893)
(0.963733 0.0388707 0.324294 0.0924242 1.16824 0.0631451 0.0141658 -0.0528678 0.873893)
(0.947447 -6.15352e-05 0.308402 0.053492 1.18453 0.118499 0.0231309 -0.0496046 0.873893)
(0.945459 -0.042216 0.28314 0.0113376 1.18652 0.170252 0.031393 -0.0448339 0.873893)
(0.958008 -0.0825085 0.249274 -0.0289545 1.17397 0.216832 0.0387013 -0.0387013 0.873893)
(0.983582 -0.116079 0.207835 -0.0625247 1.14839 0.256824 0.0448339 -0.0313929 0.873893)
(1.01909 -0.138878 0.16008 -0.0853236 1.11288 0.289012 0.0496041 -0.0231306 0.873893)
(1.06026 -0.148156 0.107462 -0.0946016 1.07171 0.312419 0.0528672 -0.0141656 0.873893)
(1.10212 -0.142794 0.0515779 -0.0892397 1.02985 0.326333 0.0545242 -0.00477026 0.873893)
(1.13962 -0.123438 -0.00587289 -0.0698845 0.992353 0.330332 0.0545242 0.0047702 0.873893)
(1.16824 -0.0924242 -0.0631451 -0.0388707 0.963733 0.324294 0.0528678 0.0141658 0.873893)
(1.18453 -0.053492 -0.118499 6.15416e-05 0.947447 0.308402 0.0496046 0.0231309 0.873893)
(1.18652 -0.0113376 -0.170252 0.042216 0.945459 0.28314 0.0448339 0.031393 0.873893)
(1.17397 0.0289545 -0.216832 0.0825085 0.958008 0.249274 0.0387013 0.0387013 0.873893)
(1.14839 0.0625247 -0.256824 0.116079 0.983582 0.207835 0.0313929 0.0448338 0.873893)
(1.11288 0.0853236 -0.289012 0.138878 1.01909 0.16008 0.0231306 0.0496041 0.873893)
(1.07171 0.0946016 -0.312419 0.148156 1.06026 0.107462 0.0141657 0.0528672 0.873893)
(1.02985 0.0892397 -0.326333 0.142794 1.10212 0.0515779 0.00477026 0.0545242 0.873893)
(0.992353 0.0698845 -0.330332 0.123438 1.13962 -0.00587288 -0.0047702 0.0545242 0.873893)
(0.963733 0.0388707 -0.324294 0.0924241 1.16824 -0.0631451 -0.0141658 0.0528678 0.873893)
(0.947447 -6.15499e-05 -0.308402 0.053492 1.18453 -0.118499 -0.0231309 0.0496046 0.873893)
(0.945459 -0.042216 -0.28314 0.0113376 1.18652 -0.170252 -0.031393 0.0448339 0.873893)
(0.958008 -0.0825085 -0.249274 -0.0289545 1.17397 -0.216832 -0.0387013 0.0387013 0.873893)
(0.983582 -0.116079 -0.207835 -0.0625247 1.14839 -0.256824 -0.0448339 0.0313929 0.873893)
(1.01909 -0.138878 -0.16008 -0.0853236 1.11288 -0.289012 -0.0496041 0.0231306 0.873893)
(1.06026 -0.148156 -0.107462 -0.0946016 1.07171 -0.312419 -0.0528672 0.0141656 0.873893)
(1.10212 -0.142794 -0.0515779 -0.0892397 1.02985 -0.326333 -0.0545242 0.00477026 0.873893)
(1.14728 -0.139812 -0.00771514 -0.0969331 1.02006 -0.30084 -0.0953218 -0.00833964 0.873706)
(1.18393 -0.110916 0.0446424 -0.0680382 0.983411 -0.297609 -0.0924254 -0.0247652 0.873706)
(1.20849 -0.0712289 0.0956435 -0.028351 0.958855 -0.285336 -0.0867209 -0.0404381 0.873706)
(1.21799 -0.0255361 0.143738 0.0173417 0.949353 -0.264392 -0.0783808 -0.0548822 0.873706)
(1.21129 0.0206507 0.187466 0.0635287 0.956052 -0.235416 -0.0676594 -0.0676591 0.873706)
(1.1892 0.061761 0.225497 0.104639 0.978144 -0.199286 -0.0548825 -0.0783803 0.873706)
(1.15438 0.092836 0.256677 0.135715 1.01296 -0.157101 -0.0404379 -0.08672 0.873706)
(1.11103 0.110128 0.280058 0.153007 1.05631 -0.110143 -0.0247646 -0.0924248 0.873706)
(1.06438 0.111551 0.29493 0.154429 1.10296 -0.0598382 -0.00833906 -0.0953216 0.873706)
(1.02006 0.0969331 0.30084 0.139812 1.14728 -0.00771512 0.00833964 -0.0953218 0.873706)
(0.983411 0.0680382 0.297609 0.110916 1.18393 0.0446424 0.0247652 -0.0924254 0.873706)
(0.958855 0.0283511 0.285336 0.0712289 1.20849 0.0956435 0.0404381 -0.0867209 0.873706)
(0.949353 -0.0173417 0.264392 0.0255361 1.21799 0.143738 0.0548822 -0.0783808 0.873706)
(0.956052 -0.0635287 0.235416 -0.0206507 1.21129 0.187466 0.0676591 -0.0676594 0.873706)
(0.978144 -0.104639 0.199286 -0.061761 1.1892 0.225497 0.0783803 -0.0548825 0.873706)
(1.01296 -0.135715 0.157101 -0.092836 1.15438 0.256677 0.0867199 -0.0404379 0.873706)
(1.05631 -0.153007 0.110143 -0.110128 1.11103 0.280058 0.0924248 -0.0247646 0.873706)
(1.10296 -0.154429 0.0598382 -0.111551 1.06438 0.29493 0.0953216 -0.00833906 0.873706)
(1.14728 -0.139812 0.00771511 -0.0969331 1.02006 0.30084 0.0953218 0.00833964 0.873706)
(1.18393 -0.110916 -0.0446424 -0.0680382 0.983411 0.297609 0.0924254 0.0247652 0.873706)
(1.20849 -0.0712289 -0.0956435 -0.028351 0.958855 0.285336 0.0867209 0.0404381 0.873706)
(1.21799 -0.0255361 -0.143738 0.0173417 0.949353 0.264392 0.0783808 0.0548822 0.873706)
(1.21129 0.0206507 -0.187466 0.0635287 0.956052 0.235416 0.0676594 0.067659 0.873706)
(1.1892 0.061761 -0.225497 0.104639 0.978144 0.199286 0.0548825 0.0783803 0.873706)
(1.15438 0.092836 -0.256677 0.135715 1.01296 0.157101 0.0404379 0.0867199 0.873706)
(1.11103 0.110128 -0.280058 0.153007 1.05631 0.110143 0.0247646 0.0924248 0.873706)
(1.06438 0.111551 -0.29493 0.154429 1.10296 0.0598382 0.00833906 0.0953216 0.873706)
(1.02006 0.0969331 -0.30084 0.139812 1.14728 0.00771512 -0.00833964 0.0953218 0.873706)
(0.983411 0.0680382 -0.297609 0.110916 1.18393 -0.0446424 -0.0247652 0.0924254 0.873706)
(0.958855 0.028351 -0.285336 0.0712289 1.20849 -0.0956435 -0.0404381 0.0867209 0.873706)
(0.949353 -0.0173417 -0.264392 0.0255361 1.21799 -0.143738 -0.0548822 0.0783808 0.873706)
(0.956052 -0.0635287 -0.235416 -0.0206507 1.21129 -0.187466 -0.0676591 0.0676594 0.873706)
(0.978144 -0.104639 -0.199286 -0.061761 1.1892 -0.225497 -0.0783803 0.0548825 0.873706)
(1.01296 -0.135715 -0.157101 -0.092836 1.15438 -0.256677 -0.08672 0.0404379 0.873706)
(1.05631 -0.153007 -0.110143 -0.110128 1.11103 -0.280058 -0.0924248 0.0247646 0.873706)
(1.10296 -0.154429 -0.0598383 -0.111551 1.06438 -0.29493 -0.0953216 0.00833906 0.873706)
(1.16347 -0.167064 0.00669335 -0.0913721 1.00789 -0.303346 -0.0884627 -0.00773955 0.865264)
(1.20297 -0.132667 0.0592672 -0.0569751 0.968389 -0.297575 -0.0857748 -0.0229832 0.865264)
(1.22833 -0.0868327 0.11004 -0.0111411 0.943032 -0.282763 -0.0804806 -0.0375285 0.865264)
(1.23648 -0.0350902 0.157469 0.0406015 0.93488 -0.259359 -0.0727407 -0.0509333 0.865264)
(1.22644 0.0163201 0.200114 0.0920119 0.944917 -0.228074 -0.0627908 -0.0627906 0.865264)
(1.19943 0.0611971 0.236679 0.136889 0.971932 -0.18986 -0.0509333 -0.0727403 0.865264)
(1.15869 0.0941279 0.266052 0.16982 1.01267 -0.145876 -0.0375282 -0.0804798 0.865264)
(1.10915 0.111141 0.287341 0.186833 1.06221 -0.0974607 -0.0229828 -0.0857742 0.865264)
(1.05678 0.110184 0.2999 0.185876 1.11458 -0.0460838 -0.00773924 -0.0884625 0.865264)
(1.00789 0.0913722 0.303346 0.167064 1.16347 0.00669336 0.00773955 -0.0884627 0.865264)
(0.968389 0.0569751 0.297575 0.132667 1.20297 0.0592672 0.0229832 -0.0857748 0.865264)
(0.943032 0.0111411 0.282763 0.0868327 1.22833 0.11004 0.0375285 -0.0804806 0.865264)
(0.93488 -0.0406015 0.259359 0.0350902 1.23648 0.157469 0.0509333 -0.0727407 0.865264)
(0.944917 -0.0920119 0.228074 -0.0163201 1.22644 0.200114 0.0627906 -0.0627908 0.865264)
(0.971932 -0.136889 0.18986 -0.0611971 1.19943 0.236679 0.0727403 -0.0509333 0.865264)
(1.01267 -0.16982 0.145876 -0.0941278 1.15869 0.266052 0.0804798 -0.0375282 0.865264)
(1.06221 -0.186833 0.0974607 -0.111141 1.10915 0.287341 0.0857741 -0.0229828 0.865264)
(1.11458 -0.185876 0.0460838 -0.110184 1.05678 0.2999 0.0884625 -0.00773924 0.865264)
(1.16347 -0.167064 -0.00669338 -0.0913721 1.00789 0.303346 0.0884627 0.00773954 0.865264)
(1.20297 -0.132667 -0.0592672 -0.0569751 0.968389 0.297575 0.0857748 0.0229832 0.865264)
(1.22833 -0.0868327 -0.11004 -0.0111411 0.943032 0.282763 0.0804806 0.0375285 0.865264)
(1.23648 -0.0350902 -0.157469 0.0406015 0.93488 0.259359 0.0727407 0.0509333 0.865264)
(1.22644 0.0163201 -0.200114 0.0920119 0.944917 0.228074 0.0627908 0.0627906 0.865264)
(1.19943 0.0611971 -0.236679 0.136889 0.971932 0.18986 0.0509333 0.0727403 0.865264)
(1.15869 0.0941278 -0.266052 0.16982 1.01267 0.145876 0.0375282 0.0804798 0.865264)
(1.10915 0.111141 -0.287341 0.186833 1.06221 0.0974607 0.0229828 0.0857741 0.865264)
(1.05678 0.110184 -0.2999 0.185876 1.11458 0.0460838 0.00773924 0.0884625 0.865264)
(1.00789 0.0913721 -0.303346 0.167064 1.16347 -0.00669337 -0.00773954 0.0884627 0.865264)
(0.968389 0.0569751 -0.297575 0.132667 1.20297 -0.0592672 -0.0229832 0.0857748 0.865264)
(0.943032 0.0111411 -0.282763 0.0868327 1.22833 -0.11004 -0.0375285 0.0804806 0.865264)
(0.93488 -0.0406015 -0.259359 0.0350902 1.23648 -0.157469 -0.0509333 0.0727407 0.865264)
(0.944917 -0.0920119 -0.228074 -0.0163201 1.22644 -0.200114 -0.0627906 0.0627908 0.865264)
(0.971932 -0.136889 -0.18986 -0.0611971 1.19943 -0.236679 -0.0727403 0.0509333 0.865264)
(1.01267 -0.16982 -0.145876 -0.0941278 1.15869 -0.266052 -0.0804798 0.0375282 0.865264)
(1.06221 -0.186833 -0.0974608 -0.111141 1.10915 -0.287341 -0.0857742 0.0229828 0.865264)
(1.11458 -0.185876 -0.0460838 -0.110184 1.05678 -0.2999 -0.0884625 0.00773924 0.865264)
(1.18014 -0.199891 0.0198223 -0.081639 0.989118 -0.305405 -0.0803711 -0.00703156 0.855138)
(1.22253 -0.158735 0.0725542 -0.0404829 0.946734 -0.297323 -0.0779291 -0.020881 0.855138)
(1.24828 -0.105564 0.123081 0.0126878 0.920982 -0.280207 -0.0731191 -0.034096 0.855138)
(1.25429 -0.0467926 0.169869 0.0714597 0.914968 -0.254578 -0.0660872 -0.0462747 0.855138)
(1.23984 0.0104917 0.211495 0.128744 0.929418 -0.221212 -0.0570474 -0.0570474 0.855138)
(1.20667 0.0593791 0.246695 0.177632 0.962589 -0.181126 -0.0462745 -0.0660869 0.855138)
(1.15878 0.0939728 0.2744 0.212225 1.01048 -0.135536 -0.0340956 -0.0731184 0.855138)
(1.10195 0.1101 0.293767 0.228353 1.06732 -0.085828 -0.0208808 -0.0779285 0.855138)
(1.04302 0.105817 0.304207 0.22407 1.12624 -0.033512 -0.0070315 -0.080371 0.855138)
(0.989118 0.0816391 0.305405 0.199891 1.18014 0.0198223 0.00703156 -0.0803711 0.855138)
(0.946734 0.0404829 0.297323 0.158735 1.22253 0.0725542 0.020881 -0.0779291 0.855138)
(0.920982 -0.0126878 0.280207 0.105564 1.24828 0.123082 0.034096 -0.0731191 0.855138)
(0.914968 -0.0714596 0.254578 0.0467926 1.25429 0.169869 0.0462747 -0.0660872 0.855138)
(0.929418 -0.128744 0.221212 -0.0104917 1.23984 0.211495 0.0570474 -0.0570474 0.855138)
(0.962589 -0.177632 0.181126 -0.0593791 1.20667 0.246695 0.0660869 -0.0462745 0.855138)
(1.01048 -0.212225 0.135536 -0.0939728 1.15878 0.2744 0.0731184 -0.0340956 0.855138)
(1.06732 -0.228353 0.085828 -0.1101 1.10195 0.293767 0.0779285 -0.0208808 0.855138)
(1.12624 -0.22407 0.0335119 -0.105817 1.04302 0.304207 0.080371 -0.00703151 0.855138)
(1.18014 -0.199891 -0.0198223 -0.0816391 0.989118 0.305405 0.0803711 0.00703155 0.855138)
(1.22253 -0.158735 -0.0725542 -0.0404829 0.946734 0.297323 0.0779291 0.020881 0.855138)
(1.24828 -0.105564 -0.123082 0.0126878 0.920982 0.280207 0.0731191 0.034096 0.855138)
(1.25429 -0.0467926 -0.169869 0.0714597 0.914968 0.254578 0.0660872 0.0462747 0.855138)
(1.23984 0.0104917 -0.211495 0.128744 0.929418 0.221212 0.0570474 0.0570474 0.855138)
(1.20667 0.0593791 -0.246695 0.177632 0.962589 0.181126 0.0462745 0.0660869 0.855138)
(1.15878 0.0939728 -0.2744 0.212225 1.01048 0.135536 0.0340956 0.0731184 0.855138)
(1.10195 0.1101 -0.293767 0.228353 1.06732 0.085828 0.0208808 0.0779285 0.855138)
(1.04302 0.105817 -0.304208 0.22407 1.12624 0.033512 0.00703151 0.080371 0.855138)
(0.989118 0.081639 -0.305405 0.199891 1.18014 -0.0198223 -0.00703155 0.0803711 0.855138)
(0.946734 0.0404829 -0.297323 0.158735 1.22253 -0.0725542 -0.020881 0.0779291 0.855138)
(0.920982 -0.0126879 -0.280207 0.105564 1.24828 -0.123082 -0.034096 0.0731191 0.855138)
(0.914968 -0.0714597 -0.254578 0.0467926 1.25429 -0.169869 -0.0462747 0.0660872 0.855138)
(0.929418 -0.128744 -0.221213 -0.0104917 1.23984 -0.211495 -0.0570474 0.0570474 0.855138)
(0.962589 -0.177632 -0.181126 -0.0593791 1.20667 -0.246695 -0.0660869 0.0462745 0.855138)
(1.01048 -0.212225 -0.135536 -0.0939728 1.15878 -0.2744 -0.0731184 0.0340956 0.855138)
(1.06732 -0.228353 -0.085828 -0.1101 1.10195 -0.293767 -0.0779286 0.0208808 0.855138)
(1.12624 -0.22407 -0.033512 -0.105817 1.04302 -0.304207 -0.080371 0.00703151 0.855138)
(1.17243 -0.199363 0.0215156 -0.0899944 1.0185 -0.284489 -0.106385 -0.00930775 0.858091)
(1.21728 -0.164314 0.0705897 -0.0549456 0.973662 -0.27643 -0.103153 -0.0276397 0.858092)
(1.24743 -0.116042 0.117519 -0.00667381 0.943512 -0.259973 -0.0967861 -0.0451319 0.858092)
(1.25925 -0.0603692 0.160877 0.0489987 0.93169 -0.235616 -0.0874785 -0.0612527 0.858092)
(1.25131 -0.0040111 0.199347 0.105357 0.939622 -0.204101 -0.0755129 -0.0755125 0.858092)