/*--------------------------------*- C++ -*----------------------------------*\
| =========                 |                                                 |
| \\      /  F ield         | OpenFOAM: The Open Source CFD Toolbox           |
|  \\    /   O peration     | Version:  2312                                  |
|   \\  /    A nd           | Website:  www.openfoam.com                      |
|    \\/     M anipulation  |                                                 |
\*---------------------------------------------------------------------------*/
FoamFile
{
    version     2.0;
    format      ascii;
    arch        "LSB;label=32;scalar=64";
    class       volScalarField;
    location    "0.6";
    object      sigmaHyd;
}
// * * * * * * * * * * * * * * * * * * * * * * * * * * * * * * * * * * * * * //

dimensions      [1 -1 -2 0 0 0 0];

internalField   nonuniform List<scalar> 
1620
(
-9015.83
-9015.78
-9015.78
-9015.95
-9015.97
-9015.91
-9015.88
-9015.87
-9015.84
-9015.83
-9015.78
-9015.78
-9015.94
-9015.97
-9015.91
-9015.88
-9015.87
-9015.84
-9015.83
-9015.78
-9015.78
-9015.95
-9015.97
-9015.91
-9015.88
-9015.87
-9015.84
-9015.83
-9015.78
-9015.78
-9015.95
-9015.97
-9015.91
-9015.88
-9015.87
-9015.84
-18064.7
-18064.7
-18064.6
-18064.7
-18064.7
-18064.7
-18064.6
-18064.7
-18064.8
-18064.7
-18064.7
-18064.6
-18064.7
-18064.7
-18064.7
-18064.6
-18064.7
-18064.7
-18064.7
-18064.7
-18064.6
-18064.7
-18064.7
-18064.7
-18064.6
-18064.7
-18064.8
-18064.7
-18064.7
-18064.6
-18064.7
-18064.7
-18064.7
-18064.6
-18064.7
-18064.8
-40957.8
-40957.8
-40957.9
-40957.8
-40957.9
-40957.8
-40957.8
-40957.9
-40957.8
-40957.8
-40957.8
-40957.9
-40957.8
-40957.9
-40957.8
-40957.8
-40957.9
-40957.8
-40957.8
-40957.8
-40957.9
-40957.8
-40957.9
-40957.8
-40957.8
-40957.9
-40957.8
-40957.8
-40957.8
-40957.9
-40957.8
-40957.9
-40957.8
-40957.8
-40957.9
-40957.8
4861.75
4861.68
4861.79
4861.78
4861.84
4861.83
4861.64
4861.72
4861.78
4861.75
4861.68
4861.79
4861.78
4861.84
4861.83
4861.64
4861.72
4861.78
4861.75
4861.68
4861.79
4861.78
4861.84
4861.83
4861.64
4861.72
4861.78
4861.75
4861.68
4861.79
4861.78
4861.84
4861.83
4861.64
4861.72
4861.78
-3274.55
-3274.46
-3274.59
-3274.59
-3274.6
-3274.72
-3274.49
-3274.51
-3274.54
-3274.55
-3274.46
-3274.59
-3274.59
-3274.6
-3274.72
-3274.49
-3274.51
-3274.54
-3274.55
-3274.46
-3274.59
-3274.59
-3274.6
-3274.72
-3274.49
-3274.51
-3274.54
-3274.55
-3274.46
-3274.59
-3274.59
-3274.6
-3274.72
-3274.49
-3274.51
-3274.54
-23214.7
-23214.8
-23214.7
-23214.7
-23214.6
-23214.4
-23214.7
-23214.7
-23214.7
-23214.7
-23214.8
-23214.7
-23214.7
-23214.6
-23214.4
-23214.7
-23214.7
-23214.7
-23214.7
-23214.8
-23214.7
-23214.7
-23214.6
-23214.4
-23214.7
-23214.7
-23214.7
-23214.7
-23214.8
-23214.7
-23214.7
-23214.6
-23214.4
-23214.7
-23214.7
-23214.7
3007.65
3007.57
3007.64
3007.59
3007.7
3007.69
3007.52
3007.65
3007.52
3007.65
3007.57
3007.64
3007.59
3007.7
3007.69
3007.52
3007.65
3007.52
3007.65
3007.57
3007.64
3007.59
3007.7
3007.69
3007.52
3007.65
3007.52
3007.65
3007.57
3007.64
3007.59
3007.7
3007.69
3007.52
3007.65
3007.52
-5183.66
-5183.61
-5183.65
-5183.51
-5183.53
-5183.65
-5183.56
-5183.76
-5183.57
-5183.66
-5183.61
-5183.65
-5183.51
-5183.53
-5183.65
-5183.56
-5183.75
-5183.57
-5183.66
-5183.61
-5183.65
-5183.51
-5183.53
-5183.65
-5183.56
-5183.76
-5183.57
-5183.66
-5183.61
-5183.65
-5183.51
-5183.53
-5183.65
-5183.56
-5183.76
-5183.57
-21844.3
-21844.3
-21844.2
-21844.3
-21844.4
-21844.4
-21844.4
-21844.2
-21844.3
-21844.3
-21844.3
-21844.2
-21844.3
-21844.4
-21844.4
-21844.4
-21844.2
-21844.3
-21844.3
-21844.3
-21844.2
-21844.3
-21844.4
-21844.4
-21844.4
-21844.2
-21844.3
-21844.3
-21844.3
-21844.2
-21844.3
-21844.4
-21844.4
-21844.4
-21844.2
-21844.3
2483.35
2483.35
2483.29
2483.38
2483.41
2483.38
2483.46
2483.3
2483.38
2483.35
2483.35
2483.29
2483.38
2483.41
2483.38
2483.46
2483.3
2483.38
2483.35
2483.35
2483.29
2483.38
2483.41
2483.38
2483.46
2483.3
2483.38
2483.35
2483.35
2483.29
2483.38
2483.41
2483.38
2483.46
2483.3
2483.38
-5222.11
-5222.11
-5222.14
-5222.07
-5222.16
-5222.08
-5222.14
-5222.11
-5222.12
-5222.11
-5222.11
-5222.14
-5222.07
-5222.16
-5222.08
-5222.14
-5222.11
-5222.12
-5222.11
-5222.11
-5222.14
-5222.07
-5222.16
-5222.08
-5222.14
-5222.11
-5222.12
-5222.11
-5222.11
-5222.14
-5222.07
-5222.16
-5222.08
-5222.14
-5222.11
-5222.12
-20263.4
-20263.5
-20263.4
-20263.5
-20263.5
-20263.4
-20263.5
-20263.5
-20263.4
-20263.4
-20263.5
-20263.4
-20263.5
-20263.5
-20263.4
-20263.5
-20263.5
-20263.4
-20263.4
-20263.5
-20263.4
-20263.5
-20263.5
-20263.4
-20263.5
-20263.5
-20263.4
-20263.4
-20263.5
-20263.4
-20263.5
-20263.5
-20263.4
-20263.5
-20263.5
-20263.4
1603.37
1603.48
1603.3
1603.4
1603.34
1603.36
1603.52
1603.31
1603.39
1603.37
1603.48
1603.3
1603.4
1603.34
1603.36
1603.52
1603.31
1603.39
1603.37
1603.48
1603.3
1603.4
1603.34
1603.36
1603.52
1603.31
1603.39
1603.37
1603.48
1603.3
1603.4
1603.34
1603.36
1603.52
1603.31
1603.39
-5544.38
-5544.55
-5544.39
-5544.5
-5544.47
-5544.4
-5544.53
-5544.38
-5544.45
-5544.38
-5544.55
-5544.39
-5544.5
-5544.47
-5544.4
-5544.53
-5544.38
-5544.45
-5544.38
-5544.55
-5544.39
-5544.5
-5544.47
-5544.4
-5544.53
-5544.38
-5544.45
-5544.38
-5544.55
-5544.39
-5544.5
-5544.47
-5544.4
-5544.53
-5544.38
-5544.45
-19158.9
-19158.8
-19158.8
-19158.8
-19158.8
-19158.8
-19158.9
-19158.9
-19158.8
-19158.9
-19158.8
-19158.8
-19158.8
-19158.8
-19158.8
-19158.9
-19158.9
-19158.8
-19158.9
-19158.8
-19158.8
-19158.8
-19158.8
-19158.8
-19158.9
-19158.9
-19158.8
-19158.9
-19158.8
-19158.8
-19158.8
-19158.8
-19158.8
-19158.9
-19158.9
-19158.8
574.575
574.654
574.551
574.645
574.579
574.581
574.619
574.514
574.628
574.575
574.654
574.551
574.645
574.579
574.581
574.619
574.514
574.628
574.575
574.655
574.552
574.646
574.579
574.582
574.62
574.515
574.628
574.575
574.655
574.552
574.646
574.579
574.581
574.619
574.514
574.628
-5893.81
-5893.95
-5893.83
-5893.87
-5893.87
-5893.87
-5893.89
-5893.75
-5893.92
-5893.81
-5893.95
-5893.83
-5893.87
-5893.87
-5893.87
-5893.89
-5893.75
-5893.92
-5893.81
-5893.95
-5893.83
-5893.87
-5893.87
-5893.87
-5893.89
-5893.75
-5893.92
-5893.81
-5893.95
-5893.83
-5893.87
-5893.87
-5893.87
-5893.89
-5893.75
-5893.92
-17994.5
-17994.4
-17994.5
-17994.5
-17994.5
-17994.6
-17994.5
-17994.6
-17994.5
-17994.4
-17994.4
-17994.5
-17994.5
-17994.5
-17994.6
-17994.5
-17994.6
-17994.5
-17994.4
-17994.4
-17994.5
-17994.5
-17994.5
-17994.6
-17994.5
-17994.6
-17994.5
-17994.5
-17994.4
-17994.5
-17994.5
-17994.5
-17994.6
-17994.5
-17994.6
-17994.5
-809.427
-809.364
-809.566
-809.295
-809.437
-809.563
-809.374
-809.545
-809.443
-809.427
-809.364
-809.566
-809.295
-809.437
-809.563
-809.374
-809.545
-809.442
-809.426
-809.363
-809.565
-809.294
-809.436
-809.562
-809.373
-809.545
-809.442
-809.426
-809.363
-809.565
-809.294
-809.437
-809.562
-809.373
-809.545
-809.442
-6313.94
-6314.19
-6313.99
-6314.16
-6314.08
-6313.92
-6314.13
-6313.97
-6314.16
-6313.94
-6314.19
-6313.99
-6314.16
-6314.08
-6313.92
-6314.12
-6313.97
-6314.16
-6313.94
-6314.19
-6313.99
-6314.16
-6314.08
-6313.92
-6314.13
-6313.97
-6314.16
-6313.94
-6314.19
-6313.99
-6314.16
-6314.08
-6313.92
-6314.13
-6313.97
-6314.16
-16563.9
-16563.7
-16563.9
-16563.8
-16563.8
-16563.9
-16563.8
-16563.9
-16563.7
-16563.9
-16563.7
-16563.9
-16563.8
-16563.8
-16563.9
-16563.8
-16563.9
-16563.7
-16563.9
-16563.7
-16563.9
-16563.8
-16563.8
-16563.9
-16563.8
-16563.9
-16563.7
-16563.9
-16563.7
-16563.9
-16563.8
-16563.8
-16563.9
-16563.8
-16563.9
-16563.7
-2619
-2619.08
-2619.12
-2618.98
-2619.12
-2619.12
-2619.09
-2619.13
-2619.14
-2619
-2619.08
-2619.12
-2618.98
-2619.12
-2619.12
-2619.09
-2619.13
-2619.14
-2619
-2619.08
-2619.12
-2618.98
-2619.12
-2619.12
-2619.09
-2619.13
-2619.14
-2619
-2619.08
-2619.12
-2618.98
-2619.12
-2619.12
-2619.09
-2619.13
-2619.14
-6757.85
-6757.85
-6757.74
-6757.9
-6757.81
-6757.71
-6757.83
-6757.82
-6757.7
-6757.85
-6757.85
-6757.74
-6757.9
-6757.81
-6757.71
-6757.83
-6757.82
-6757.7
-6757.85
-6757.85
-6757.74
-6757.9
-6757.81
-6757.71
-6757.83
-6757.82
-6757.7
-6757.85
-6757.85
-6757.74
-6757.9
-6757.81
-6757.71
-6757.83
-6757.82
-6757.7
-14626.6
-14626.5
-14626.5
-14626.5
-14626.5
-14626.6
-14626.6
-14626.6
-14626.5
-14626.6
-14626.5
-14626.5
-14626.5
-14626.5
-14626.6
-14626.6
-14626.6
-14626.5
-14626.6
-14626.5
-14626.5
-14626.5
-14626.5
-14626.6
-14626.6
-14626.6
-14626.5
-14626.6
-14626.5
-14626.5
-14626.5
-14626.5
-14626.6
-14626.6
-14626.6
-14626.5
-4789.44
-4789.41
-4789.34
-4789.37
-4789.43
-4789.46
-4789.46
-4789.4
-4789.33
-4789.44
-4789.41
-4789.34
-4789.37
-4789.43
-4789.46
-4789.46
-4789.4
-4789.33
-4789.44
-4789.4
-4789.34
-4789.37
-4789.43
-4789.45
-4789.46
-4789.4
-4789.33
-4789.44
-4789.4
-4789.34
-4789.37
-4789.43
-4789.45
-4789.46
-4789.4
-4789.33
-7135.67
-7135.64
-7135.67
-7135.53
-7135.62
-7135.67
-7135.56
-7135.68
-7135.65
-7135.67
-7135.64
-7135.67
-7135.53
-7135.62
-7135.67
-7135.56
-7135.68
-7135.65
-7135.67
-7135.64
-7135.67
-7135.53
-7135.62
-7135.67
-7135.56
-7135.68
-7135.65
-7135.67
-7135.64
-7135.67
-7135.53
-7135.62
-7135.67
-7135.56
-7135.68
-7135.65
-11997.2
-11997.3
-11997.3
-11997.4
-11997.4
-11997.3
-11997.3
-11997.3
-11997.4
-11997.2
-11997.3
-11997.3
-11997.4
-11997.4
-11997.3
-11997.3
-11997.3
-11997.4
-11997.2
-11997.3
-11997.3
-11997.4
-11997.4
-11997.3
-11997.3
-11997.3
-11997.4
-11997.2
-11997.4
-11997.3
-11997.4
-11997.4
-11997.3
-11997.3
-11997.3
-11997.4
-7030.1
-7030.16
-7030.08
-7029.97
-7030.05
-7030.1
-7030.14
-7030.01
-7030.03
-7030.1
-7030.16
-7030.08
-7029.97
-7030.05
-7030.1
-7030.14
-7030.01
-7030.03
-7030.1
-7030.16
-7030.08
-7029.97
-7030.05
-7030.1
-7030.14
-7030.01
-7030.03
-7030.1
-7030.16
-7030.08
-7029.97
-7030.05
-7030.1
-7030.14
-7030.01
-7030.03
-7293.74
-7293.7
-7293.81
-7293.84
-7293.76
-7293.86
-7293.74
-7293.77
-7293.84
-7293.74
-7293.7
-7293.81
-7293.84
-7293.76
-7293.86
-7293.74
-7293.77
-7293.84
-7293.74
-7293.7
-7293.81
-7293.84
-7293.76
-7293.86
-7293.74
-7293.77
-7293.84
-7293.74
-7293.7
-7293.81
-7293.84
-7293.76
-7293.86
-7293.74
-7293.77
-7293.84
-8697.99
-8698.09
-8698.04
-8698.13
-8698.02
-8697.98
-8697.95
-8698.04
-8698.11
-8697.99
-8698.09
-8698.04
-8698.13
-8698.02
-8697.98
-8697.95
-8698.04
-8698.11
-8698
-8698.09
-8698.04
-8698.13
-8698.02
-8697.98
-8697.95
-8698.04
-8698.11
-8698
-8698.09
-8698.04
-8698.13
-8698.02
-8697.98
-8697.95
-8698.04
-8698.11
-8677.82
-8677.85
-8677.74
-8677.77
-8677.78
-8677.8
-8677.75
-8677.88
-8677.87
-8677.82
-8677.85
-8677.74
-8677.77
-8677.78
-8677.8
-8677.75
-8677.88
-8677.87
-8677.82
-8677.85
-8677.74
-8677.77
-8677.78
-8677.8
-8677.75
-8677.88
-8677.87
-8677.82
-8677.85
-8677.74
-8677.77
-8677.78
-8677.8
-8677.75
-8677.88
-8677.87
-6984.14
-6983.99
-6984.12
-6984.1
-6984.13
-6984.08
-6984.1
-6984.21
-6984.09
-6984.14
-6983.99
-6984.12
-6984.1
-6984.13
-6984.08
-6984.1
-6984.21
-6984.09
-6984.14
-6983.99
-6984.12
-6984.1
-6984.13
-6984.08
-6984.1
-6984.21
-6984.09
-6984.14
-6983.99
-6984.12
-6984.1
-6984.13
-6984.08
-6984.1
-6984.21
-6984.09
-5187.41
-5187.54
-5187.45
-5187.56
-5187.51
-5187.49
-5187.57
-5187.44
-5187.49
-5187.41
-5187.54
-5187.45
-5187.56
-5187.51
-5187.49
-5187.57
-5187.44
-5187.5
-5187.41
-5187.54
-5187.45
-5187.56
-5187.51
-5187.5
-5187.57
-5187.44
-5187.5
-5187.41
-5187.54
-5187.45
-5187.56
-5187.51
-5187.5
-5187.57
-5187.44
-5187.5
-8446.58
-8446.42
-8446.33
-8446.46
-8446.42
-8446.42
-8446.36
-8446.52
-8446.76
-8446.59
-8446.42
-8446.32
-8446.46
-8446.41
-8446.42
-8446.36
-8446.52
-8446.76
-8446.59
-8446.42
-8446.32
-8446.46
-8446.42
-8446.42
-8446.36
-8446.52
-8446.76
-8446.59
-8446.43
-8446.33
-8446.46
-8446.42
-8446.42
-8446.36
-8446.52
-8446.75
-5719.34
-5719.25
-5719.33
-5719.4
-5719.34
-5719.38
-5719.39
-5719.42
-5719.36
-5719.34
-5719.25
-5719.33
-5719.4
-5719.34
-5719.38
-5719.39
-5719.42
-5719.36
-5719.34
-5719.25
-5719.33
-5719.4
-5719.34
-5719.38
-5719.39
-5719.42
-5719.36
-5719.34
-5719.26
-5719.33
-5719.4
-5719.34
-5719.38
-5719.39
-5719.42
-5719.36
-2430.73
-2430.88
-2430.83
-2430.87
-2430.84
-2430.88
-2430.76
-2430.66
-2430.67
-2430.73
-2430.88
-2430.83
-2430.87
-2430.84
-2430.88
-2430.76
-2430.66
-2430.67
-2430.73
-2430.88
-2430.84
-2430.88
-2430.84
-2430.88
-2430.76
-2430.66
-2430.67
-2430.73
-2430.89
-2430.84
-2430.88
-2430.84
-2430.88
-2430.77
-2430.66
-2430.67
-4372.9
-4372.62
-4372.67
-4372.82
-4372.57
-4372.54
-4372.83
-4372.97
-4373.17
-4372.91
-4372.62
-4372.67
-4372.82
-4372.56
-4372.54
-4372.82
-4372.97
-4373.17
-4372.91
-4372.62
-4372.67
-4372.82
-4372.57
-4372.54
-4372.83
-4372.97
-4373.17
-4372.91
-4372.62
-4372.67
-4372.82
-4372.57
-4372.54
-4372.82
-4372.97
-4373.17
-3078.69
-3078.61
-3078.63
-3078.61
-3078.67
-3078.61
-3078.6
-3078.65
-3078.65
-3078.69
-3078.61
-3078.63
-3078.61
-3078.68
-3078.61
-3078.6
-3078.66
-3078.65
-3078.69
-3078.61
-3078.63
-3078.61
-3078.68
-3078.61
-3078.6
-3078.66
-3078.65
-3078.7
-3078.61
-3078.63
-3078.61
-3078.68
-3078.61
-3078.6
-3078.65
-3078.65
-2694.35
-2694.67
-2694.63
-2694.68
-2694.61
-2694.6
-2694.53
-2694.25
-2694.26
-2694.34
-2694.67
-2694.63
-2694.69
-2694.62
-2694.61
-2694.54
-2694.25
-2694.26
-2694.34
-2694.67
-2694.63
-2694.69
-2694.62
-2694.61
-2694.54
-2694.25
-2694.26
-2694.34
-2694.67
-2694.63
-2694.69
-2694.62
-2694.61
-2694.54
-2694.26
-2694.27
729.843
730.923
734.22
732.63
728.951
731.958
734.399
730.964
729.309
729.806
730.885
734.193
732.617
728.949
731.957
734.394
730.952
729.296
729.793
730.875
734.187
732.612
728.941
731.949
734.385
730.948
729.294
729.79
730.87
734.177
732.599
728.931
731.943
734.388
730.971
729.337
3509.96
3509.65
3509.02
3509.56
3509.66
3509.46
3508.98
3509.65
3509.83
3509.96
3509.65
3509.02
3509.56
3509.66
3509.46
3508.98
3509.65
3509.83
3509.96
3509.65
3509.02
3509.56
3509.67
3509.46
3508.98
3509.65
3509.84
3509.97
3509.66
3509.02
3509.57
3509.67
3509.46
3508.98
3509.65
3509.83
-6215.02
-6215.38
-6215.47
-6215.33
-6215.32
-6215.42
-6215.26
-6214.81
-6214.88
-6215.01
-6215.37
-6215.47
-6215.33
-6215.32
-6215.42
-6215.26
-6214.81
-6214.88
-6215.01
-6215.38
-6215.47
-6215.33
-6215.32
-6215.42
-6215.26
-6214.81
-6214.88
-6215
-6215.37
-6215.46
-6215.32
-6215.32
-6215.42
-6215.27
-6214.82
-6214.89
33263.9
33269.8
33236.3
33244.7
33276.7
33254.9
33233.4
33258.2
33257.6
33264
33270
33236.5
33244.8
33276.8
33254.9
33233.4
33258.3
33257.7
33264
33270.1
33236.5
33244.8
33276.8
33255
33233.4
33258.3
33257.6
33264
33270
33236.5
33244.8
33276.7
33254.9
33233.4
33258.2
33257.5
20160.7
20158.1
20157.5
20157.8
20161.2
20156.3
20157.9
20159.3
20160.8
20160.8
20158.2
20157.5
20157.8
20161.2
20156.4
20158
20159.4
20160.8
20160.8
20158.2
20157.5
20157.8
20161.2
20156.4
20158
20159.4
20160.8
20160.8
20158.2
20157.5
20157.8
20161.2
20156.4
20157.9
20159.3
20160.7
-47899.7
-47898.9
-47901.3
-47899.3
-47900.6
-47899.3
-47900.9
-47898.7
-47899.8
-47899.7
-47898.9
-47901.3
-47899.3
-47900.6
-47899.4
-47900.9
-47898.7
-47899.8
-47899.8
-47898.9
-47901.3
-47899.3
-47900.6
-47899.4
-47900.9
-47898.7
-47899.8
-47899.7
-47898.9
-47901.3
-47899.3
-47900.6
-47899.3
-47900.9
-47898.7
-47899.8
)
;

boundaryField
{
    fixed
    {
        type            zeroGradient;
    }
    inside
    {
        type            zeroGradient;
    }
    outside
    {
        type            zeroGradient;
    }
}


// ************************************************************************* //
