/*--------------------------------*- C++ -*----------------------------------*\
| =========                 |                                                 |
| \\      /  F ield         | OpenFOAM: The Open Source CFD Toolbox           |
|  \\    /   O peration     | Version:  2312                                  |
|   \\  /    A nd           | Website:  www.openfoam.com                      |
|    \\/     M anipulation  |                                                 |
\*---------------------------------------------------------------------------*/
FoamFile
{
    version     2.0;
    format      ascii;
    arch        "LSB;label=32;scalar=64";
    class       volVectorField;
    location    "0.6";
    object      U;
}
// * * * * * * * * * * * * * * * * * * * * * * * * * * * * * * * * * * * * * //

dimensions      [0 1 -1 0 0 0 0];

internalField   nonuniform List<vector> 
1620
(
(6.83908e-05 7.204e-05 -7.87096e-05)
(5.48421e-05 8.28213e-05 -7.871e-05)
(3.96274e-05 9.10861e-05 -7.87099e-05)
(2.32087e-05 9.6584e-05 -7.87096e-05)
(6.08442e-06 9.91473e-05 -7.87097e-05)
(-1.12251e-05 9.86976e-05 -7.87098e-05)
(-2.81932e-05 9.52485e-05 -7.8709e-05)
(-4.43048e-05 8.89056e-05 -7.87089e-05)
(-5.90698e-05 7.98614e-05 -7.87095e-05)
(-7.204e-05 6.83908e-05 -7.87096e-05)
(-8.28213e-05 5.48421e-05 -7.871e-05)
(-9.10861e-05 3.96274e-05 -7.87099e-05)
(-9.6584e-05 2.32088e-05 -7.87096e-05)
(-9.91474e-05 6.08445e-06 -7.87097e-05)
(-9.86976e-05 -1.12251e-05 -7.87098e-05)
(-9.52485e-05 -2.81932e-05 -7.8709e-05)
(-8.89057e-05 -4.43048e-05 -7.87089e-05)
(-7.98614e-05 -5.90698e-05 -7.87095e-05)
(-6.83908e-05 -7.204e-05 -7.87096e-05)
(-5.48422e-05 -8.28213e-05 -7.871e-05)
(-3.96274e-05 -9.10861e-05 -7.87099e-05)
(-2.32088e-05 -9.6584e-05 -7.87096e-05)
(-6.08446e-06 -9.91474e-05 -7.87097e-05)
(1.12251e-05 -9.86976e-05 -7.87098e-05)
(2.81932e-05 -9.52485e-05 -7.8709e-05)
(4.43048e-05 -8.89056e-05 -7.87089e-05)
(5.90698e-05 -7.98614e-05 -7.87095e-05)
(7.204e-05 -6.83908e-05 -7.87096e-05)
(8.28213e-05 -5.48421e-05 -7.871e-05)
(9.10861e-05 -3.96274e-05 -7.87099e-05)
(9.6584e-05 -2.32088e-05 -7.87096e-05)
(9.91473e-05 -6.08444e-06 -7.87097e-05)
(9.86976e-05 1.12251e-05 -7.87098e-05)
(9.52485e-05 2.81932e-05 -7.8709e-05)
(8.89056e-05 4.43048e-05 -7.87089e-05)
(7.98614e-05 5.90698e-05 -7.87095e-05)
(2.63957e-05 0.000178455 9.92705e-06)
(-4.99358e-06 0.000180328 9.927e-06)
(-3.62309e-05 0.000176721 9.92708e-06)
(-6.63675e-05 0.000167744 9.92716e-06)
(-9.44881e-05 0.000153671 9.92711e-06)
(-0.000119738 0.000134929 9.92719e-06)
(-0.000141348 0.000112087 9.92738e-06)
(-0.000158665 8.58391e-05 9.92729e-06)
(-0.00017116 5.69831e-05 9.92703e-06)
(-0.000178455 2.63957e-05 9.92705e-06)
(-0.000180328 -4.99356e-06 9.92699e-06)
(-0.000176721 -3.62309e-05 9.92707e-06)
(-0.000167744 -6.63674e-05 9.92716e-06)
(-0.000153671 -9.44881e-05 9.92711e-06)
(-0.000134929 -0.000119737 9.92718e-06)
(-0.000112087 -0.000141348 9.92738e-06)
(-8.58391e-05 -0.000158665 9.92729e-06)
(-5.69831e-05 -0.00017116 9.92703e-06)
(-2.63958e-05 -0.000178455 9.92705e-06)
(4.99355e-06 -0.000180327 9.927e-06)
(3.62309e-05 -0.000176721 9.92708e-06)
(6.63674e-05 -0.000167744 9.92717e-06)
(9.44881e-05 -0.000153671 9.92711e-06)
(0.000119737 -0.000134929 9.92719e-06)
(0.000141348 -0.000112087 9.92738e-06)
(0.000158665 -8.58391e-05 9.92729e-06)
(0.00017116 -5.69831e-05 9.92703e-06)
(0.000178455 -2.63957e-05 9.92706e-06)
(0.000180327 4.99357e-06 9.927e-06)
(0.000176721 3.62309e-05 9.92708e-06)
(0.000167744 6.63674e-05 9.92717e-06)
(0.000153671 9.44881e-05 9.92711e-06)
(0.000134929 0.000119737 9.92719e-06)
(0.000112087 0.000141348 9.92738e-06)
(8.58391e-05 0.000158665 9.92729e-06)
(5.6983e-05 0.00017116 9.92703e-06)
(-5.65278e-05 0.000276757 3.53922e-05)
(-0.000103727 0.000262737 3.53924e-05)
(-0.000147775 0.000240733 3.53922e-05)
(-0.000187333 0.000211415 3.53923e-05)
(-0.000221199 0.000175673 3.53926e-05)
(-0.000248344 0.000134593 3.53925e-05)
(-0.000267943 8.94238e-05 3.53924e-05)
(-0.0002794 4.15374e-05 3.53921e-05)
(-0.000282368 -7.61085e-06 3.53921e-05)
(-0.000276757 -5.65278e-05 3.53921e-05)
(-0.000262737 -0.000103727 3.53924e-05)
(-0.000240733 -0.000147775 3.53922e-05)
(-0.000211415 -0.000187333 3.53923e-05)
(-0.000175673 -0.000221199 3.53926e-05)
(-0.000134593 -0.000248344 3.53925e-05)
(-8.94238e-05 -0.000267943 3.53924e-05)
(-4.15374e-05 -0.0002794 3.53921e-05)
(7.61083e-06 -0.000282368 3.53921e-05)
(5.65278e-05 -0.000276757 3.53921e-05)
(0.000103727 -0.000262737 3.53924e-05)
(0.000147775 -0.000240733 3.53922e-05)
(0.000187333 -0.000211415 3.53923e-05)
(0.000221199 -0.000175673 3.53926e-05)
(0.000248344 -0.000134593 3.53925e-05)
(0.000267943 -8.94238e-05 3.53924e-05)
(0.0002794 -4.15373e-05 3.53921e-05)
(0.000282368 7.61086e-06 3.53921e-05)
(0.000276757 5.65278e-05 3.53922e-05)
(0.000262737 0.000103727 3.53924e-05)
(0.000240733 0.000147775 3.53922e-05)
(0.000211415 0.000187333 3.53923e-05)
(0.000175673 0.000221199 3.53926e-05)
(0.000134593 0.000248344 3.53925e-05)
(8.94238e-05 0.000267943 3.53924e-05)
(4.15373e-05 0.0002794 3.53921e-05)
(-7.61087e-06 0.000282368 3.53921e-05)
(0.00011448 0.00032987 -4.4837e-05)
(5.54602e-05 0.000344737 -4.48377e-05)
(-5.24525e-06 0.00034913 -4.48376e-05)
(-6.57912e-05 0.000342916 -4.48357e-05)
(-0.000124338 0.000326282 -4.48348e-05)
(-0.000179108 0.000299734 -4.48355e-05)
(-0.000228435 0.000264079 -4.48353e-05)
(-0.000270822 0.000220399 -4.48356e-05)
(-0.000304979 0.000170023 -4.48366e-05)
(-0.00032987 0.00011448 -4.4837e-05)
(-0.000344737 5.54603e-05 -4.48377e-05)
(-0.000349131 -5.24519e-06 -4.48376e-05)
(-0.000342916 -6.57912e-05 -4.48357e-05)
(-0.000326282 -0.000124338 -4.48348e-05)
(-0.000299734 -0.000179108 -4.48355e-05)
(-0.000264079 -0.000228435 -4.48353e-05)
(-0.000220399 -0.000270822 -4.48356e-05)
(-0.000170023 -0.000304979 -4.48366e-05)
(-0.00011448 -0.00032987 -4.48369e-05)
(-5.54604e-05 -0.000344737 -4.48376e-05)
(5.24514e-06 -0.00034913 -4.48375e-05)
(6.57911e-05 -0.000342916 -4.48357e-05)
(0.000124338 -0.000326282 -4.48348e-05)
(0.000179108 -0.000299734 -4.48355e-05)
(0.000228435 -0.000264079 -4.48353e-05)
(0.000270822 -0.000220399 -4.48355e-05)
(0.000304979 -0.000170023 -4.48365e-05)
(0.00032987 -0.00011448 -4.48369e-05)
(0.000344737 -5.54603e-05 -4.48376e-05)
(0.00034913 5.2452e-06 -4.48375e-05)
(0.000342916 6.57912e-05 -4.48357e-05)
(0.000326282 0.000124338 -4.48348e-05)
(0.000299734 0.000179108 -4.48355e-05)
(0.000264079 0.000228435 -4.48353e-05)
(0.000220399 0.000270822 -4.48356e-05)
(0.000170023 0.000304979 -4.48366e-05)
(2.03946e-05 0.000533751 0.000108049)
(-7.25995e-05 0.000529183 0.000108049)
(-0.000163388 0.000508537 0.000108049)
(-0.000249212 0.000472439 0.00010805)
(-0.000327465 0.000421987 0.00010805)
(-0.000395767 0.000358712 0.00010805)
(-0.000452044 0.000284538 0.00010805)
(-0.000494586 0.000201718 0.00010805)
(-0.0005221 0.00011277 0.000108049)
(-0.000533751 2.03946e-05 0.000108049)
(-0.000529183 -7.25995e-05 0.000108049)
(-0.000508537 -0.000163388 0.000108049)
(-0.000472439 -0.000249212 0.00010805)
(-0.000421987 -0.000327465 0.00010805)
(-0.000358712 -0.000395767 0.00010805)
(-0.000284538 -0.000452044 0.00010805)
(-0.000201718 -0.000494586 0.00010805)
(-0.00011277 -0.0005221 0.000108049)
(-2.03947e-05 -0.000533751 0.000108049)
(7.25994e-05 -0.000529183 0.000108049)
(0.000163388 -0.000508537 0.000108049)
(0.000249212 -0.000472439 0.00010805)
(0.000327465 -0.000421987 0.00010805)
(0.000395767 -0.000358712 0.00010805)
(0.000452044 -0.000284538 0.00010805)
(0.000494586 -0.000201718 0.00010805)
(0.0005221 -0.00011277 0.000108049)
(0.000533751 -2.03946e-05 0.000108049)
(0.000529183 7.25995e-05 0.000108049)
(0.000508537 0.000163388 0.000108049)
(0.000472439 0.000249212 0.00010805)
(0.000421987 0.000327465 0.00010805)
(0.000358712 0.000395767 0.00010805)
(0.000284538 0.000452044 0.00010805)
(0.000201718 0.000494586 0.00010805)
(0.00011277 0.0005221 0.000108049)
(-0.000124197 0.000716329 0.00022022)
(-0.000246699 0.00068388 0.00022022)
(-0.000361705 0.000630651 0.00022022)
(-0.000465721 0.00055826 0.00022022)
(-0.000555586 0.000468907 0.00022022)
(-0.000628571 0.000365306 0.00022022)
(-0.000682457 0.000250606 0.00022022)
(-0.000715606 0.000128292 0.00022022)
(-0.000727013 2.07897e-06 0.00022022)
(-0.000716329 -0.000124197 0.00022022)
(-0.00068388 -0.000246699 0.00022022)
(-0.000630651 -0.000361705 0.00022022)
(-0.00055826 -0.000465721 0.00022022)
(-0.000468907 -0.000555586 0.00022022)
(-0.000365306 -0.000628571 0.00022022)
(-0.000250606 -0.000682456 0.00022022)
(-0.000128292 -0.000715606 0.00022022)
(-2.07902e-06 -0.000727013 0.00022022)
(0.000124197 -0.000716329 0.00022022)
(0.000246699 -0.00068388 0.00022022)
(0.000361705 -0.000630651 0.00022022)
(0.000465721 -0.00055826 0.00022022)
(0.000555586 -0.000468907 0.00022022)
(0.000628571 -0.000365306 0.00022022)
(0.000682456 -0.000250606 0.00022022)
(0.000715606 -0.000128292 0.00022022)
(0.000727013 -2.07896e-06 0.00022022)
(0.000716329 0.000124197 0.00022022)
(0.00068388 0.000246699 0.00022022)
(0.000630651 0.000361705 0.00022022)
(0.00055826 0.000465721 0.00022022)
(0.000468907 0.000555586 0.00022022)
(0.000365306 0.000628571 0.00022022)
(0.000250606 0.000682456 0.00022022)
(0.000128292 0.000715606 0.00022022)
(2.07891e-06 0.000727013 0.00022022)
(7.75702e-05 0.000618637 3.68524e-05)
(-3.1033e-05 0.000622708 3.68522e-05)
(-0.000138693 0.000607859 3.68525e-05)
(-0.00024214 0.00057454 3.68544e-05)
(-0.000338229 0.000523764 3.68556e-05)
(-0.000424041 0.000457075 3.68557e-05)
(-0.00049697 0.000376497 3.68557e-05)
(-0.000554797 0.000284479 3.68548e-05)
(-0.000595768 0.000183817 3.68532e-05)
(-0.000618637 7.75703e-05 3.68524e-05)
(-0.000622708 -3.10329e-05 3.68522e-05)
(-0.000607859 -0.000138693 3.68525e-05)
(-0.00057454 -0.00024214 3.68544e-05)
(-0.000523764 -0.000338229 3.68556e-05)
(-0.000457075 -0.000424041 3.68557e-05)
(-0.000376497 -0.000496969 3.68557e-05)
(-0.000284479 -0.000554797 3.68548e-05)
(-0.000183817 -0.000595768 3.68532e-05)
(-7.75704e-05 -0.000618637 3.68524e-05)
(3.10328e-05 -0.000622708 3.68523e-05)
(0.000138693 -0.000607859 3.68526e-05)
(0.00024214 -0.00057454 3.68545e-05)
(0.000338229 -0.000523764 3.68557e-05)
(0.000424041 -0.000457075 3.68557e-05)
(0.000496969 -0.000376497 3.68558e-05)
(0.000554797 -0.000284479 3.68549e-05)
(0.000595768 -0.000183817 3.68533e-05)
(0.000618637 -7.75703e-05 3.68525e-05)
(0.000622708 3.10329e-05 3.68523e-05)
(0.000607859 0.000138693 3.68526e-05)
(0.00057454 0.00024214 3.68545e-05)
(0.000523764 0.000338229 3.68557e-05)
(0.000457075 0.000424041 3.68557e-05)
(0.000376497 0.00049697 3.68557e-05)
(0.000284479 0.000554797 3.68548e-05)
(0.000183817 0.000595768 3.68532e-05)
(-4.96714e-05 0.000876555 0.000223952)
(-0.000201129 0.000854613 0.000223952)
(-0.000346474 0.000806704 0.000223952)
(-0.000481293 0.000734284 0.000223953)
(-0.000601489 0.000639553 0.000223954)
(-0.000703407 0.000525389 0.000223954)
(-0.000783954 0.000395262 0.000223954)
(-0.000840681 0.000253124 0.000223954)
(-0.000871864 0.000103296 0.000223953)
(-0.000876555 -4.96713e-05 0.000223952)
(-0.000854613 -0.000201128 0.000223952)
(-0.000806704 -0.000346474 0.000223952)
(-0.000734284 -0.000481293 0.000223953)
(-0.000639553 -0.000601488 0.000223954)
(-0.000525389 -0.000703407 0.000223954)
(-0.000395262 -0.000783954 0.000223954)
(-0.000253124 -0.000840681 0.000223954)
(-0.000103296 -0.000871863 0.000223953)
(4.96712e-05 -0.000876555 0.000223952)
(0.000201128 -0.000854613 0.000223952)
(0.000346474 -0.000806704 0.000223952)
(0.000481293 -0.000734284 0.000223953)
(0.000601488 -0.000639553 0.000223954)
(0.000703407 -0.000525389 0.000223954)
(0.000783954 -0.000395262 0.000223954)
(0.000840681 -0.000253124 0.000223954)
(0.000871863 -0.000103296 0.000223953)
(0.000876555 4.96713e-05 0.000223952)
(0.000854613 0.000201128 0.000223952)
(0.000806704 0.000346474 0.000223952)
(0.000734284 0.000481293 0.000223953)
(0.000639553 0.000601488 0.000223954)
(0.000525389 0.000703407 0.000223954)
(0.000395261 0.000783954 0.000223954)
(0.000253124 0.000840681 0.000223954)
(0.000103296 0.000871863 0.000223953)
(-0.000221451 0.00110889 0.000377497)
(-0.000410643 0.00105359 0.000377497)
(-0.000587358 0.000966279 0.000377497)
(-0.000746227 0.000849606 0.000377497)
(-0.000882423 0.000707117 0.000377497)
(-0.000991806 0.000543142 0.000377497)
(-0.00107105 0.000362665 0.000377497)
(-0.00111776 0.000171168 0.000377497)
(-0.0011305 -2.5529e-05 0.000377497)
(-0.00110889 -0.000221451 0.000377497)
(-0.00105359 -0.000410643 0.000377497)
(-0.000966279 -0.000587358 0.000377497)
(-0.000849606 -0.000746227 0.000377497)
(-0.000707117 -0.000882422 0.000377497)
(-0.000543142 -0.000991806 0.000377497)
(-0.000362665 -0.00107105 0.000377497)
(-0.000171168 -0.00111776 0.000377497)
(2.55289e-05 -0.0011305 0.000377497)
(0.00022145 -0.00110889 0.000377497)
(0.000410643 -0.00105359 0.000377497)
(0.000587358 -0.000966279 0.000377497)
(0.000746227 -0.000849606 0.000377497)
(0.000882422 -0.000707117 0.000377497)
(0.000991806 -0.000543142 0.000377497)
(0.00107105 -0.000362665 0.000377497)
(0.00111776 -0.000171168 0.000377497)
(0.0011305 2.5529e-05 0.000377497)
(0.00110889 0.000221451 0.000377497)
(0.00105359 0.000410643 0.000377497)
(0.000966279 0.000587358 0.000377497)
(0.000849606 0.000746227 0.000377497)
(0.000707117 0.000882423 0.000377497)
(0.000543142 0.000991806 0.000377497)
(0.000362665 0.00107105 0.000377497)
(0.000171168 0.00111776 0.000377497)
(-2.55291e-05 0.0011305 0.000377497)
(-6.29751e-05 0.000919208 0.000108895)
(-0.000221637 0.000894307 0.000108894)
(-0.000373565 0.000842234 0.000108895)
(-0.000514142 0.00076457 0.000108896)
(-0.000639097 0.000663674 0.000108897)
(-0.000744633 0.000542613 0.000108898)
(-0.000827544 0.000405065 0.000108898)
(-0.000885311 0.00025521 0.000108897)
(-0.000916178 9.76006e-05 0.000108896)
(-0.000919208 -6.2975e-05 0.000108895)
(-0.000894307 -0.000221637 0.000108894)
(-0.000842234 -0.000373565 0.000108895)
(-0.00076457 -0.000514142 0.000108896)
(-0.000663674 -0.000639097 0.000108897)
(-0.000542613 -0.000744633 0.000108898)
(-0.000405066 -0.000827544 0.000108898)
(-0.00025521 -0.000885311 0.000108897)
(-9.76007e-05 -0.000916178 0.000108896)
(6.29749e-05 -0.000919208 0.000108895)
(0.000221637 -0.000894307 0.000108894)
(0.000373565 -0.000842234 0.000108895)
(0.000514142 -0.00076457 0.000108896)
(0.000639097 -0.000663674 0.000108897)
(0.000744633 -0.000542613 0.000108898)
(0.000827544 -0.000405065 0.000108898)
(0.000885311 -0.00025521 0.000108897)
(0.000916178 -9.76006e-05 0.000108896)
(0.000919208 6.2975e-05 0.000108895)
(0.000894307 0.000221637 0.000108894)
(0.000842234 0.000373565 0.000108895)
(0.00076457 0.000514142 0.000108896)
(0.000663674 0.000639097 0.000108897)
(0.000542613 0.000744633 0.000108898)
(0.000405065 0.000827544 0.000108898)
(0.00025521 0.000885311 0.000108897)
(9.76005e-05 0.000916178 0.000108896)
(-0.000188793 0.00119377 0.000308036)
(-0.00039322 0.00114285 0.000308035)
(-0.000585699 0.0010572 0.000308036)
(-0.000760382 0.000939437 0.000308036)
(-0.000911961 0.000793125 0.000308036)
(-0.00103583 0.000622716 0.000308037)
(-0.00112823 0.000433385 0.000308037)
(-0.00118634 0.000230886 0.000308037)
(-0.00120841 2.13713e-05 0.000308037)
(-0.00119377 -0.000188792 0.000308036)
(-0.00114285 -0.00039322 0.000308035)
(-0.0010572 -0.000585699 0.000308036)
(-0.000939437 -0.000760382 0.000308036)
(-0.000793126 -0.000911961 0.000308036)
(-0.000622716 -0.00103583 0.000308037)
(-0.000433385 -0.00112823 0.000308037)
(-0.000230886 -0.00118634 0.000308037)
(-2.13714e-05 -0.00120841 0.000308037)
(0.000188792 -0.00119377 0.000308036)
(0.00039322 -0.00114285 0.000308035)
(0.000585699 -0.0010572 0.000308036)
(0.000760382 -0.000939437 0.000308036)
(0.000911961 -0.000793125 0.000308036)
(0.00103583 -0.000622716 0.000308037)
(0.00112823 -0.000433385 0.000308037)
(0.00118634 -0.000230886 0.000308037)
(0.00120841 -2.13712e-05 0.000308037)
(0.00119377 0.000188793 0.000308036)
(0.00114285 0.00039322 0.000308035)
(0.0010572 0.000585699 0.000308036)
(0.000939437 0.000760382 0.000308036)
(0.000793125 0.000911961 0.000308036)
(0.000622715 0.00103583 0.000308037)
(0.000433385 0.00112823 0.000308037)
(0.000230886 0.00118634 0.000308037)
(2.13711e-05 0.00120841 0.000308037)
(-0.000353608 0.00144279 0.000477481)
(-0.000598774 0.00135947 0.00047748)
(-0.000825747 0.00123484 0.00047748)
(-0.00102763 0.00107269 0.000477481)
(-0.00119829 0.00087795 0.00047748)
(-0.00133254 0.000656531 0.000477481)
(-0.0014263 0.000415164 0.000477481)
(-0.00147672 0.000161182 0.000477481)
(-0.00148228 -9.76972e-05 0.000477481)
(-0.00144279 -0.000353608 0.000477481)
(-0.00135947 -0.000598774 0.00047748)
(-0.00123484 -0.000825746 0.00047748)
(-0.00107269 -0.00102763 0.00047748)
(-0.00087795 -0.00119829 0.00047748)
(-0.000656531 -0.00133254 0.000477481)
(-0.000415164 -0.0014263 0.000477481)
(-0.000161182 -0.00147672 0.000477481)
(9.76971e-05 -0.00148228 0.000477481)
(0.000353608 -0.00144279 0.000477481)
(0.000598774 -0.00135947 0.00047748)
(0.000825746 -0.00123484 0.000477481)
(0.00102763 -0.00107269 0.000477481)
(0.00119829 -0.00087795 0.00047748)
(0.00133254 -0.000656531 0.000477481)
(0.0014263 -0.000415164 0.000477481)
(0.00147672 -0.000161182 0.000477481)
(0.00148228 9.76972e-05 0.000477481)
(0.00144279 0.000353608 0.000477481)
(0.00135947 0.000598774 0.00047748)
(0.00123484 0.000825746 0.000477481)
(0.00107269 0.00102763 0.000477481)
(0.00087795 0.00119829 0.00047748)
(0.000656531 0.00133254 0.000477481)
(0.000415164 0.0014263 0.000477481)
(0.000161182 0.00147672 0.000477481)
(-9.76973e-05 0.00148228 0.000477481)
(-0.00027684 0.00119538 0.000136688)
(-0.00048021 0.00112915 0.000136687)
(-0.000668989 0.00102861 0.000136687)
(-0.000837441 0.000896811 0.000136688)
(-0.000980447 0.000737767 0.000136689)
(-0.00109366 0.000556305 0.000136689)
(-0.00117365 0.000357941 0.000136689)
(-0.00121798 0.0001487 0.000136689)
(-0.00122529 -6.50578e-05 0.000136689)
(-0.00119538 -0.000276839 0.000136688)
(-0.00112915 -0.00048021 0.000136686)
(-0.00102861 -0.000668989 0.000136687)
(-0.000896811 -0.000837441 0.000136688)
(-0.000737767 -0.000980447 0.000136689)
(-0.000556305 -0.00109366 0.000136689)
(-0.000357941 -0.00117365 0.000136689)
(-0.0001487 -0.00121798 0.000136689)
(6.50577e-05 -0.00122529 0.000136689)
(0.000276839 -0.00119538 0.000136688)
(0.000480209 -0.00112915 0.000136687)
(0.000668989 -0.00102861 0.000136687)
(0.000837441 -0.000896811 0.000136688)
(0.000980447 -0.000737767 0.000136689)
(0.00109366 -0.000556305 0.000136689)
(0.00117365 -0.00035794 0.000136689)
(0.00121798 -0.0001487 0.00013669)
(0.00122529 6.50578e-05 0.000136689)
(0.00119538 0.00027684 0.000136688)
(0.00112915 0.00048021 0.000136687)
(0.00102861 0.000668989 0.000136687)
(0.000896811 0.000837441 0.000136688)
(0.000737766 0.000980447 0.000136689)
(0.000556305 0.00109366 0.000136689)
(0.00035794 0.00117365 0.000136689)
(0.0001487 0.00121798 0.000136689)
(-6.5058e-05 0.00122529 0.000136689)
(-0.000382845 0.00146951 0.000336741)
(-0.000632207 0.00138071 0.00033674)
(-0.000862359 0.00124995 0.000336741)
(-0.00106631 0.00108121 0.000336741)
(-0.00123786 0.000879623 0.000336741)
(-0.0013718 0.000651307 0.000336742)
(-0.00146406 0.000403202 0.000336742)
(-0.00151183 0.000142846 0.000336742)
(-0.00151367 -0.000121851 0.000336742)
(-0.00146951 -0.000382845 0.000336741)
(-0.00138071 -0.000632207 0.00033674)
(-0.00124995 -0.000862359 0.000336741)
(-0.00108121 -0.00106631 0.000336741)
(-0.000879623 -0.00123786 0.000336741)
(-0.000651307 -0.0013718 0.000336742)
(-0.000403202 -0.00146406 0.000336742)
(-0.000142846 -0.00151183 0.000336742)
(0.00012185 -0.00151367 0.000336742)
(0.000382845 -0.00146951 0.000336741)
(0.000632207 -0.0013807 0.00033674)
(0.000862359 -0.00124995 0.000336741)
(0.00106631 -0.00108121 0.000336741)
(0.00123786 -0.000879623 0.000336742)
(0.0013718 -0.000651307 0.000336742)
(0.00146406 -0.000403202 0.000336742)
(0.00151183 -0.000142846 0.000336742)
(0.00151367 0.000121851 0.000336742)
(0.00146951 0.000382845 0.000336741)
(0.0013807 0.000632207 0.00033674)
(0.00124995 0.000862359 0.000336741)
(0.00108121 0.00106631 0.000336741)
(0.000879623 0.00123786 0.000336742)
(0.000651307 0.0013718 0.000336742)
(0.000403202 0.00146406 0.000336742)
(0.000142846 0.00151183 0.000336742)
(-0.000121851 0.00151367 0.000336742)
(-0.000522648 0.00171949 0.000509153)
(-0.000813294 0.00160261 0.000509153)
(-0.00107923 0.00143704 0.000509153)
(-0.00131237 0.0012278 0.000509153)
(-0.00150564 0.000981255 0.000509153)
(-0.00165316 0.000704897 0.000509153)
(-0.00175045 0.00040712 0.000509153)
(-0.00179455 9.69725e-05 0.000509153)
(-0.00178413 -0.000216121 0.000509153)
(-0.00171949 -0.000522648 0.000509153)
(-0.00160261 -0.000813294 0.000509153)
(-0.00143704 -0.00107923 0.000509153)
(-0.0012278 -0.00131237 0.000509153)
(-0.000981255 -0.00150564 0.000509153)
(-0.000704897 -0.00165316 0.000509153)
(-0.00040712 -0.00175045 0.000509153)
(-9.69726e-05 -0.00179455 0.000509153)
(0.000216121 -0.00178412 0.000509154)
(0.000522648 -0.00171949 0.000509153)
(0.000813294 -0.00160261 0.000509153)
(0.00107923 -0.00143704 0.000509153)
(0.00131237 -0.0012278 0.000509153)
(0.00150564 -0.000981255 0.000509153)
(0.00165316 -0.000704897 0.000509153)
(0.00175045 -0.00040712 0.000509153)
(0.00179455 -9.69725e-05 0.000509154)
(0.00178412 0.000216121 0.000509154)
(0.00171949 0.000522648 0.000509154)
(0.00160261 0.000813294 0.000509153)
(0.00143704 0.00107923 0.000509153)
(0.0012278 0.00131237 0.000509153)
(0.000981255 0.00150564 0.000509153)
(0.000704897 0.00165316 0.000509153)
(0.00040712 0.00175045 0.000509153)
(9.69724e-05 0.00179455 0.000509153)
(-0.000216121 0.00178412 0.000509154)
(-0.000522554 0.00141477 0.000109261)
(-0.000760287 0.00130254 0.000109259)
(-0.00097492 0.00115072 0.000109259)
(-0.00115993 0.000963949 0.00010926)
(-0.00130969 0.000747884 0.00010926)
(-0.00141967 0.000509096 0.000109261)
(-0.0014865 0.000254839 0.00010926)
(-0.00150817 -7.16087e-06 0.000109261)
(-0.00148402 -0.000268943 0.000109262)
(-0.00141477 -0.000522553 0.000109261)
(-0.00130254 -0.000760287 0.000109259)
(-0.00115072 -0.000974919 0.000109259)
(-0.000963949 -0.00115993 0.00010926)
(-0.000747885 -0.00130969 0.00010926)
(-0.000509096 -0.00141967 0.000109261)
(-0.000254839 -0.0014865 0.00010926)
(7.16075e-06 -0.00150817 0.000109261)
(0.000268943 -0.00148402 0.000109262)
(0.000522553 -0.00141477 0.000109261)
(0.000760287 -0.00130254 0.000109259)
(0.000974919 -0.00115072 0.000109259)
(0.00115993 -0.000963949 0.00010926)
(0.00130969 -0.000747884 0.000109261)
(0.00141967 -0.000509096 0.000109261)
(0.0014865 -0.000254839 0.000109261)
(0.00150817 7.16093e-06 0.000109261)
(0.00148402 0.000268943 0.000109262)
(0.00141477 0.000522553 0.000109261)
(0.00130254 0.000760287 0.000109259)
(0.00115072 0.00097492 0.000109259)
(0.000963949 0.00115993 0.00010926)
(0.000747884 0.00130969 0.000109261)
(0.000509096 0.00141967 0.000109261)
(0.000254839 0.0014865 0.00010926)
(-7.16104e-06 0.00150817 0.000109261)
(-0.000268943 0.00148402 0.000109262)
(-0.000608425 0.00168611 0.000305564)
(-0.000891972 0.00155484 0.000305563)
(-0.00114842 0.00137633 0.000305563)
(-0.00136997 0.001156 0.000305564)
(-0.00154989 0.000900544 0.000305564)
(-0.00168272 0.000617727 0.000305564)
(-0.00176442 0.000316142 0.000305564)
(-0.00179251 4.94982e-06 0.000305564)
(-0.00176614 -0.000306393 0.000305565)
(-0.00168611 -0.000608425 0.000305564)
(-0.00155484 -0.000891972 0.000305563)
(-0.00137633 -0.00114842 0.000305563)
(-0.001156 -0.00136997 0.000305564)
(-0.000900544 -0.00154989 0.000305564)
(-0.000617728 -0.00168272 0.000305564)
(-0.000316142 -0.00176442 0.000305564)
(-4.94995e-06 -0.00179251 0.000305564)
(0.000306392 -0.00176614 0.000305565)
(0.000608425 -0.00168611 0.000305564)
(0.000891972 -0.00155484 0.000305564)
(0.00114842 -0.00137633 0.000305563)
(0.00136997 -0.001156 0.000305564)
(0.00154989 -0.000900544 0.000305564)
(0.00168272 -0.000617727 0.000305564)
(0.00176442 -0.000316142 0.000305564)
(0.00179251 -4.94977e-06 0.000305564)
(0.00176614 0.000306393 0.000305565)
(0.00168611 0.000608425 0.000305564)
(0.00155484 0.000891972 0.000305564)
(0.00137633 0.00114842 0.000305563)
(0.001156 0.00136997 0.000305564)
(0.000900544 0.00154989 0.000305564)
(0.000617727 0.00168272 0.000305564)
(0.000316141 0.00176442 0.000305564)
(4.94966e-06 0.00179251 0.000305564)
(-0.000306393 0.00176614 0.000305565)
(-0.000721721 0.00193611 0.000474908)
(-0.00104696 0.00178137 0.000474907)
(-0.00134039 0.00157251 0.000474908)
(-0.00159309 0.00131586 0.000474907)
(-0.00179738 0.00101923 0.000474907)
(-0.00194706 0.000691638 0.000474907)
(-0.00203758 0.000343028 0.000474908)
(-0.00206619 -1.60065e-05 0.000474907)
(-0.00203202 -0.000374554 0.000474908)
(-0.00193611 -0.000721721 0.000474907)
(-0.00178137 -0.00104696 0.000474907)
(-0.00157251 -0.00134039 0.000474908)
(-0.00131586 -0.00159309 0.000474907)
(-0.00101923 -0.00179738 0.000474907)
(-0.000691638 -0.00194706 0.000474907)
(-0.000343028 -0.00203758 0.000474908)
(1.60064e-05 -0.00206619 0.000474908)
(0.000374554 -0.00203202 0.000474908)
(0.000721721 -0.00193611 0.000474908)
(0.00104696 -0.00178137 0.000474908)
(0.00134039 -0.00157251 0.000474908)
(0.00159309 -0.00131586 0.000474908)
(0.00179738 -0.00101923 0.000474907)
(0.00194706 -0.000691638 0.000474908)
(0.00203758 -0.000343028 0.000474908)
(0.00206619 1.60066e-05 0.000474908)
(0.00203202 0.000374554 0.000474908)
(0.00193611 0.000721721 0.000474908)
(0.00178137 0.00104696 0.000474908)
(0.00157251 0.00134039 0.000474908)
(0.00131586 0.00159309 0.000474908)
(0.00101923 0.00179738 0.000474907)
(0.000691638 0.00194706 0.000474907)
(0.000343028 0.00203758 0.000474908)
(-1.60067e-05 0.00206619 0.000474908)
(-0.000374554 0.00203202 0.000474908)
(-0.000758034 0.00155681 3.75734e-05)
(-0.00101685 0.00140153 3.75723e-05)
(-0.00124478 0.00120366 3.75716e-05)
(-0.00143488 0.000969219 3.75712e-05)
(-0.00158139 0.000705329 3.75712e-05)
(-0.00167984 0.000420008 3.75717e-05)
(-0.00172725 0.000121927 3.7572e-05)
(-0.00172218 -0.00017986 3.75727e-05)
(-0.00166479 -0.000476181 3.75736e-05)
(-0.00155681 -0.000758034 3.75733e-05)
(-0.00140153 -0.00101685 3.75723e-05)
(-0.00120366 -0.00124478 3.75716e-05)
(-0.000969219 -0.00143488 3.75712e-05)
(-0.000705329 -0.00158138 3.75712e-05)
(-0.000420009 -0.00167984 3.75718e-05)
(-0.000121927 -0.00172725 3.75721e-05)
(0.00017986 -0.00172218 3.75728e-05)
(0.000476181 -0.00166479 3.75738e-05)
(0.000758034 -0.00155681 3.75735e-05)
(0.00101685 -0.00140153 3.75724e-05)
(0.00124478 -0.00120366 3.75718e-05)
(0.00143488 -0.000969219 3.75714e-05)
(0.00158138 -0.000705329 3.75714e-05)
(0.00167984 -0.000420008 3.75719e-05)
(0.00172725 -0.000121927 3.75722e-05)
(0.00172218 0.00017986 3.7573e-05)
(0.00166479 0.000476181 3.75739e-05)
(0.00155681 0.000758034 3.75736e-05)
(0.00140153 0.00101685 3.75725e-05)
(0.00120366 0.00124478 3.75718e-05)
(0.000969219 0.00143488 3.75713e-05)
(0.000705329 0.00158139 3.75713e-05)
(0.000420008 0.00167984 3.75718e-05)
(0.000121927 0.00172725 3.7572e-05)
(-0.00017986 0.00172218 3.75728e-05)
(-0.000476181 0.00166479 3.75737e-05)
(-0.000836222 0.00182682 0.000226381)
(-0.00114074 0.00165386 0.00022638)
(-0.0014106 0.00143065 0.00022638)
(-0.0016376 0.00116396 0.000226379)
(-0.00181484 0.000861913 0.000226379)
(-0.00193694 0.000533676 0.00022638)
(-0.00200018 0.000189222 0.00022638)
(-0.00200266 -0.000160981 0.00022638)
(-0.00194428 -0.000506294 0.000226381)
(-0.00182682 -0.000836221 0.000226381)
(-0.00165386 -0.00114074 0.00022638)
(-0.00143065 -0.0014106 0.00022638)
(-0.00116396 -0.0016376 0.000226379)
(-0.000861913 -0.00181484 0.000226379)
(-0.000533676 -0.00193694 0.00022638)
(-0.000189222 -0.00200018 0.00022638)
(0.000160981 -0.00200266 0.00022638)
(0.000506293 -0.00194428 0.000226381)
(0.000836221 -0.00182682 0.000226381)
(0.00114074 -0.00165386 0.00022638)
(0.0014106 -0.00143065 0.00022638)
(0.0016376 -0.00116396 0.00022638)
(0.00181484 -0.000861913 0.000226379)
(0.00193694 -0.000533676 0.00022638)
(0.00200018 -0.000189222 0.00022638)
(0.00200265 0.000160981 0.00022638)
(0.00194428 0.000506294 0.000226381)
(0.00182682 0.000836222 0.000226381)
(0.00165386 0.00114074 0.00022638)
(0.00143065 0.0014106 0.00022638)
(0.00116396 0.0016376 0.00022638)
(0.000861913 0.00181484 0.000226379)
(0.000533676 0.00193694 0.00022638)
(0.000189222 0.00200018 0.00022638)
(-0.000160981 0.00200266 0.00022638)
(-0.000506294 0.00194428 0.000226381)
(-0.000933187 0.00208166 0.000387367)
(-0.00128049 0.00188799 0.000387367)
(-0.00158888 0.00163696 0.000387367)
(-0.001849 0.00133618 0.000387367)
(-0.00205293 0.000994806 0.000387367)
(-0.00219449 0.000623205 0.000387367)
(-0.00226937 0.000232669 0.000387367)
(-0.00227529 -0.000164937 0.000387367)
(-0.00221209 -0.000557532 0.000387368)
(-0.00208166 -0.000933187 0.000387367)
(-0.00188799 -0.00128049 0.000387367)
(-0.00163696 -0.00158888 0.000387367)
(-0.00133618 -0.001849 0.000387367)
(-0.000994806 -0.00205293 0.000387367)
(-0.000623205 -0.00219449 0.000387367)
(-0.000232669 -0.00226937 0.000387367)
(0.000164937 -0.00227529 0.000387368)
(0.000557532 -0.00221208 0.000387368)
(0.000933187 -0.00208166 0.000387367)
(0.00128049 -0.00188799 0.000387368)
(0.00158888 -0.00163696 0.000387367)
(0.001849 -0.00133618 0.000387367)
(0.00205293 -0.000994806 0.000387367)
(0.00219449 -0.000623205 0.000387367)
(0.00226937 -0.000232669 0.000387367)
(0.00227529 0.000164937 0.000387368)
(0.00221208 0.000557532 0.000387368)
(0.00208166 0.000933187 0.000387368)
(0.00188799 0.00128049 0.000387368)
(0.00163696 0.00158888 0.000387367)
(0.00133618 0.001849 0.000387367)
(0.000994805 0.00205293 0.000387367)
(0.000623205 0.00219449 0.000387367)
(0.000232669 0.00226937 0.000387367)
(-0.000164937 0.00227529 0.000387368)
(-0.000557532 0.00221209 0.000387368)
(-0.000942357 0.00161064 -5.19506e-05)
(-0.00120773 0.00142253 -5.19515e-05)
(-0.0014364 0.0011912 -5.19525e-05)
(-0.00162143 0.000923676 -5.19536e-05)
(-0.00175719 0.000628085 -5.19543e-05)
(-0.00183956 0.000313411 -5.19534e-05)
(-0.00186603 -1.07861e-05 -5.19526e-05)
(-0.00183581 -0.000334656 -5.19519e-05)