# Probe 0 (0.02 0.003 0.007)
# Time        0            
0.055         1.48242      
0.06          1.40453      
