/*--------------------------------*- C++ -*----------------------------------*\
| =========                 |                                                 |
| \\      /  F ield         | OpenFOAM: The Open Source CFD Toolbox           |
|  \\    /   O peration     | Version:  2312                                  |
|   \\  /    A nd           | Website:  www.openfoam.com                      |
|    \\/     M anipulation  |                                                 |
\*---------------------------------------------------------------------------*/
FoamFile
{
    version     2.0;
    format      ascii;
    arch        "LSB;label=32;scalar=64";
    class       volVectorField;
    location    "0.7";
    object      D;
}
// * * * * * * * * * * * * * * * * * * * * * * * * * * * * * * * * * * * * * //

dimensions      [0 1 0 0 0 0 0];

internalField   nonuniform List<vector> 
1620
(
(-0.000243586 0.000198955 -0.000151043)
(-0.000274433 0.000153633 -0.000151043)
(-0.000296942 0.000103644 -0.000151043)
(-0.000310429 5.0507e-05 -0.000151042)
(-0.000314483 -4.16523e-06 -0.000151043)
(-0.000308982 -5.87117e-05 -0.000151043)
(-0.000294093 -0.000111474 -0.000151042)
(-0.000270268 -0.000160849 -0.000151042)
(-0.00023823 -0.000205337 -0.000151042)
(-0.000198954 -0.000243586 -0.000151043)
(-0.000153633 -0.000274433 -0.000151043)
(-0.000103644 -0.000296942 -0.000151043)
(-5.0507e-05 -0.000310429 -0.000151042)
(4.16525e-06 -0.000314483 -0.000151043)
(5.87117e-05 -0.000308982 -0.000151043)
(0.000111474 -0.000294093 -0.000151042)
(0.000160849 -0.000270268 -0.000151042)
(0.000205337 -0.00023823 -0.000151042)
(0.000243586 -0.000198954 -0.000151043)
(0.000274433 -0.000153633 -0.000151043)
(0.000296942 -0.000103644 -0.000151043)
(0.000310429 -5.0507e-05 -0.000151042)
(0.000314483 4.16525e-06 -0.000151043)
(0.000308982 5.87117e-05 -0.000151043)
(0.000294093 0.000111474 -0.000151042)
(0.000270268 0.000160849 -0.000151042)
(0.00023823 0.000205337 -0.000151042)
(0.000198954 0.000243586 -0.000151042)
(0.000153633 0.000274433 -0.000151043)
(0.000103644 0.000296942 -0.000151043)
(5.0507e-05 0.000310429 -0.000151042)
(-4.16522e-06 0.000314483 -0.000151043)
(-5.87117e-05 0.000308982 -0.000151043)
(-0.000111474 0.000294093 -0.000151042)
(-0.000160849 0.000270268 -0.000151042)
(-0.000205337 0.00023823 -0.000151042)
(-0.000164845 0.000298517 -0.000102338)
(-0.000214178 0.000265356 -0.000102338)
(-0.000257003 0.000224133 -0.000102338)
(-0.000292018 0.0001761 -0.000102338)
(-0.000318162 0.000122717 -0.000102338)
(-0.000334638 6.5604e-05 -0.000102338)
(-0.000340946 6.49816e-06 -0.000102338)
(-0.000336895 -5.28051e-05 -0.000102338)
(-0.000322607 -0.000110504 -0.000102338)
(-0.000298517 -0.000164845 -0.000102338)
(-0.000265356 -0.000214178 -0.000102338)
(-0.000224133 -0.000257003 -0.000102338)
(-0.0001761 -0.000292018 -0.000102338)
(-0.000122717 -0.000318162 -0.000102338)
(-6.5604e-05 -0.000334638 -0.000102338)
(-6.49815e-06 -0.000340946 -0.000102338)
(5.28051e-05 -0.000336895 -0.000102338)
(0.000110504 -0.000322607 -0.000102338)
(0.000164845 -0.000298517 -0.000102338)
(0.000214178 -0.000265356 -0.000102338)
(0.000257003 -0.000224133 -0.000102338)
(0.000292018 -0.0001761 -0.000102338)
(0.000318162 -0.000122717 -0.000102338)
(0.000334638 -6.5604e-05 -0.000102338)
(0.000340946 -6.49814e-06 -0.000102338)
(0.000336895 5.28051e-05 -0.000102338)
(0.000322607 0.000110504 -0.000102338)
(0.000298517 0.000164846 -0.000102338)
(0.000265356 0.000214178 -0.000102338)
(0.000224133 0.000257003 -0.000102338)
(0.0001761 0.000292018 -0.000102338)
(0.000122717 0.000318162 -0.000102338)
(6.5604e-05 0.000334638 -0.000102338)
(6.49816e-06 0.000340946 -0.000102338)
(-5.28051e-05 0.000336895 -0.000102338)
(-0.000110504 0.000322607 -0.000102338)
(-0.000115074 0.000401198 -6.6214e-05)
(-0.000182993 0.000375121 -6.6214e-05)
(-0.000245352 0.000337646 -6.62142e-05)
(-0.000300256 0.000289911 -6.62141e-05)
(-0.000346038 0.000233368 -6.62142e-05)
(-0.000381304 0.000169734 -6.62141e-05)
(-0.000404985 0.000100942 -6.62142e-05)
(-0.000416361 2.90836e-05 -6.62143e-05)
(-0.000415086 -4.36585e-05 -6.62141e-05)
(-0.000401198 -0.000115074 -6.6214e-05)
(-0.000375121 -0.000182993 -6.6214e-05)
(-0.000337646 -0.000245352 -6.62143e-05)
(-0.000289911 -0.000300256 -6.62141e-05)
(-0.000233368 -0.000346038 -6.62142e-05)
(-0.000169734 -0.000381304 -6.62141e-05)
(-0.000100942 -0.000404985 -6.62142e-05)
(-2.90836e-05 -0.000416361 -6.62143e-05)
(4.36585e-05 -0.000415086 -6.62141e-05)
(0.000115074 -0.000401198 -6.62141e-05)
(0.000182993 -0.000375121 -6.6214e-05)
(0.000245352 -0.000337646 -6.62143e-05)
(0.000300256 -0.000289911 -6.62141e-05)
(0.000346038 -0.000233368 -6.62142e-05)
(0.000381304 -0.000169734 -6.62141e-05)
(0.000404985 -0.000100942 -6.62142e-05)
(0.000416361 -2.90836e-05 -6.62143e-05)
(0.000415086 4.36585e-05 -6.62141e-05)
(0.000401198 0.000115074 -6.6214e-05)
(0.000375121 0.000182993 -6.6214e-05)
(0.000337646 0.000245352 -6.62142e-05)
(0.000289911 0.000300256 -6.62141e-05)
(0.000233368 0.000346038 -6.62142e-05)
(0.000169734 0.000381304 -6.6214e-05)
(0.000100942 0.000404985 -6.62142e-05)
(2.90836e-05 0.000416361 -6.62143e-05)
(-4.36585e-05 0.000415086 -6.62141e-05)
(-0.000560281 0.00070338 -0.000438952)
(-0.00067391 0.000595402 -0.000438953)
(-0.000767063 0.000469334 -0.000438953)
(-0.000836908 0.000329005 -0.000438952)
(-0.000881325 0.00017868 -0.000438951)
(-0.000898963 2.29252e-05 -0.000438952)
(-0.000889287 -0.000133527 -0.000438952)
(-0.00085259 -0.000285921 -0.000438952)
(-0.000789986 -0.000429628 -0.000438952)
(-0.00070338 -0.000560281 -0.000438952)
(-0.000595402 -0.00067391 -0.000438953)
(-0.000469333 -0.000767063 -0.000438953)
(-0.000329005 -0.000836908 -0.000438952)
(-0.00017868 -0.000881325 -0.000438951)
(-2.29251e-05 -0.000898963 -0.000438952)
(0.000133527 -0.000889287 -0.000438952)
(0.000285921 -0.00085259 -0.000438952)
(0.000429628 -0.000789986 -0.000438952)
(0.000560281 -0.00070338 -0.000438953)
(0.00067391 -0.000595402 -0.000438953)
(0.000767063 -0.000469333 -0.000438953)
(0.000836908 -0.000329005 -0.000438952)
(0.000881325 -0.00017868 -0.000438951)
(0.000898963 -2.29251e-05 -0.000438952)
(0.000889287 0.000133527 -0.000438952)
(0.00085259 0.000285921 -0.000438952)
(0.000789986 0.000429628 -0.000438952)
(0.00070338 0.000560281 -0.000438952)
(0.000595402 0.00067391 -0.000438953)
(0.000469334 0.000767063 -0.000438953)
(0.000329005 0.000836908 -0.000438951)
(0.00017868 0.000881325 -0.000438951)
(2.29252e-05 0.000898963 -0.000438951)
(-0.000133527 0.000889287 -0.000438952)
(-0.000285921 0.00085259 -0.000438952)
(-0.000429628 0.000789986 -0.000438952)
(-0.000497819 0.000897484 -0.000325954)
(-0.000646102 0.000797403 -0.000325954)
(-0.000774754 0.000673095 -0.000325954)
(-0.000879866 0.000528336 -0.000325954)
(-0.000958244 0.000367522 -0.000325953)
(-0.00100751 0.000195541 -0.000325954)
(-0.00102615 1.76186e-05 -0.000325954)
(-0.00101362 -0.000160839 -0.000325953)
(-0.000970295 -0.000334409 -0.000325954)
(-0.000897484 -0.000497819 -0.000325954)
(-0.000797403 -0.000646102 -0.000325954)
(-0.000673095 -0.000774754 -0.000325954)
(-0.000528336 -0.000879866 -0.000325954)
(-0.000367522 -0.000958244 -0.000325954)
(-0.000195541 -0.00100751 -0.000325954)
(-1.76186e-05 -0.00102615 -0.000325954)
(0.000160839 -0.00101362 -0.000325954)
(0.000334409 -0.000970295 -0.000325954)
(0.000497819 -0.000897484 -0.000325954)
(0.000646102 -0.000797403 -0.000325954)
(0.000774754 -0.000673095 -0.000325954)
(0.000879866 -0.000528336 -0.000325954)
(0.000958244 -0.000367522 -0.000325953)
(0.00100751 -0.000195541 -0.000325954)
(0.00102615 -1.76186e-05 -0.000325954)
(0.00101362 0.000160839 -0.000325953)
(0.000970295 0.000334409 -0.000325954)
(0.000897484 0.000497819 -0.000325954)
(0.000797403 0.000646102 -0.000325954)
(0.000673095 0.000774754 -0.000325954)
(0.000528336 0.000879866 -0.000325954)
(0.000367522 0.000958244 -0.000325953)
(0.000195541 0.00100751 -0.000325954)
(1.76186e-05 0.00102615 -0.000325954)
(-0.000160839 0.00101362 -0.000325953)
(-0.000334409 0.000970295 -0.000325954)
(-0.000472729 0.00108792 -0.000216845)
(-0.000654462 0.000989304 -0.000216844)
(-0.000816309 0.000860628 -0.000216845)
(-0.000953354 0.000705803 -0.000216845)
(-0.00106143 0.000529532 -0.000216845)
(-0.00113726 0.000337171 -0.000216845)
(-0.00117853 0.000134565 -0.000216845)
(-0.00118399 -7.21286e-05 -0.000216845)
(-0.00115348 -0.000276631 -0.000216845)
(-0.00108792 -0.000472729 -0.000216845)
(-0.000989304 -0.000654462 -0.000216845)
(-0.000860628 -0.000816309 -0.000216845)
(-0.000705803 -0.000953354 -0.000216845)
(-0.000529532 -0.00106143 -0.000216845)
(-0.000337171 -0.00113726 -0.000216845)
(-0.000134565 -0.00117853 -0.000216845)
(7.21286e-05 -0.00118399 -0.000216845)
(0.000276631 -0.00115348 -0.000216845)
(0.000472729 -0.00108792 -0.000216845)
(0.000654462 -0.000989304 -0.000216845)
(0.000816309 -0.000860628 -0.000216845)
(0.000953354 -0.000705803 -0.000216845)
(0.00106143 -0.000529532 -0.000216845)
(0.00113726 -0.000337171 -0.000216845)
(0.00117853 -0.000134565 -0.000216845)
(0.00118399 7.21287e-05 -0.000216845)
(0.00115348 0.000276631 -0.000216845)
(0.00108792 0.000472729 -0.000216845)
(0.000989304 0.000654462 -0.000216844)
(0.000860628 0.000816309 -0.000216845)
(0.000705803 0.000953354 -0.000216845)
(0.000529532 0.00106143 -0.000216845)
(0.000337171 0.00113726 -0.000216845)
(0.000134565 0.00117853 -0.000216845)
(-7.21286e-05 0.00118399 -0.000216845)
(-0.000276631 0.00115348 -0.000216845)
(-0.000861864 0.00123647 -0.000798647)
(-0.00106348 0.00106803 -0.000798648)
(-0.00123279 0.000867129 -0.000798647)
(-0.00136463 0.000639885 -0.000798646)
(-0.00145502 0.000393199 -0.000798645)
(-0.00150119 0.000134565 -0.000798645)
(-0.00150175 -0.000128159 -0.000798645)
(-0.00145668 -0.000386988 -0.000798646)
(-0.00136735 -0.000634059 -0.000798647)
(-0.00123647 -0.000861864 -0.000798648)
(-0.00106803 -0.00106348 -0.000798648)
(-0.000867129 -0.00123279 -0.000798647)
(-0.000639885 -0.00136463 -0.000798646)
(-0.000393199 -0.00145502 -0.000798645)
(-0.000134565 -0.00150119 -0.000798645)
(0.000128159 -0.00150175 -0.000798645)
(0.000386988 -0.00145668 -0.000798646)
(0.000634059 -0.00136735 -0.000798647)
(0.000861864 -0.00123647 -0.000798648)
(0.00106348 -0.00106803 -0.000798648)
(0.00123279 -0.000867129 -0.000798647)
(0.00136463 -0.000639885 -0.000798646)
(0.00145502 -0.000393199 -0.000798645)
(0.00150119 -0.000134565 -0.000798645)
(0.00150175 0.000128159 -0.000798645)
(0.00145668 0.000386988 -0.000798646)
(0.00136735 0.000634059 -0.000798647)
(0.00123647 0.000861864 -0.000798647)
(0.00106803 0.00106348 -0.000798647)
(0.000867129 0.00123279 -0.000798647)
(0.000639885 0.00136463 -0.000798646)
(0.000393199 0.00145502 -0.000798645)
(0.000134565 0.00150119 -0.000798645)
(-0.000128159 0.00150175 -0.000798645)
(-0.000386988 0.00145668 -0.000798646)
(-0.000634059 0.00136735 -0.000798647)
(-0.00082543 0.00149594 -0.000631384)
(-0.00107266 0.00132988 -0.000631384)
(-0.00128729 0.00112341 -0.000631384)
(-0.00146281 0.00088281 -0.000631383)
(-0.00159389 0.000615384 -0.000631383)
(-0.00167653 0.000329258 -0.000631383)
(-0.00170824 3.31284e-05 -0.000631383)
(-0.00168804 -0.000264008 -0.000631383)
(-0.00161655 -0.000553122 -0.000631383)
(-0.00149594 -0.00082543 -0.000631384)
(-0.00132988 -0.00107266 -0.000631384)
(-0.00112341 -0.00128729 -0.000631384)
(-0.00088281 -0.00146281 -0.000631383)
(-0.000615383 -0.00159389 -0.000631383)
(-0.000329258 -0.00167653 -0.000631383)
(-3.31283e-05 -0.00170824 -0.000631383)
(0.000264008 -0.00168804 -0.000631383)
(0.000553122 -0.00161655 -0.000631383)
(0.000825431 -0.00149594 -0.000631384)
(0.00107266 -0.00132988 -0.000631384)
(0.00128729 -0.00112341 -0.000631384)
(0.00146281 -0.00088281 -0.000631383)
(0.00159389 -0.000615383 -0.000631383)
(0.00167653 -0.000329258 -0.000631383)
(0.00170824 -3.31283e-05 -0.000631383)
(0.00168804 0.000264008 -0.000631383)
(0.00161655 0.000553122 -0.000631383)
(0.00149594 0.000825431 -0.000631384)
(0.00132988 0.00107266 -0.000631384)
(0.00112341 0.00128729 -0.000631384)
(0.00088281 0.00146281 -0.000631383)
(0.000615384 0.00159389 -0.000631383)
(0.000329258 0.00167653 -0.000631383)
(3.31283e-05 0.00170824 -0.000631383)
(-0.000264008 0.00168804 -0.000631383)
(-0.000553122 0.00161655 -0.000631383)
(-0.000832921 0.00174136 -0.000469472)
(-0.00112265 0.00157027 -0.000469472)
(-0.00137827 0.00135147 -0.000469472)
(-0.00159201 0.00109161 -0.000469473)
(-0.00175738 0.000798572 -0.000469473)
(-0.00186935 0.000481273 -0.000469473)
(-0.00192452 0.000149351 -0.000469473)
(-0.00192122 -0.000187108 -0.000469472)
(-0.00185954 -0.000517882 -0.000469472)
(-0.00174136 -0.000832921 -0.000469472)
(-0.00157027 -0.00112265 -0.000469472)
(-0.00135147 -0.00137827 -0.000469472)
(-0.00109161 -0.00159201 -0.000469473)
(-0.000798572 -0.00175738 -0.000469473)
(-0.000481273 -0.00186935 -0.000469473)
(-0.000149351 -0.00192452 -0.000469473)
(0.000187108 -0.00192122 -0.000469472)
(0.000517882 -0.00185954 -0.000469472)
(0.000832921 -0.00174136 -0.000469472)
(0.00112265 -0.00157027 -0.000469472)
(0.00137827 -0.00135147 -0.000469472)
(0.00159201 -0.00109161 -0.000469473)
(0.00175738 -0.000798572 -0.000469473)
(0.00186935 -0.000481273 -0.000469473)
(0.00192452 -0.000149351 -0.000469473)
(0.00192122 0.000187108 -0.000469472)
(0.00185954 0.000517882 -0.000469472)
(0.00174136 0.000832921 -0.000469472)
(0.00157027 0.00112265 -0.000469472)
(0.00135147 0.00137827 -0.000469472)
(0.00109161 0.00159201 -0.000469473)
(0.000798572 0.00175738 -0.000469473)
(0.000481273 0.00186935 -0.000469473)
(0.000149351 0.00192452 -0.000469472)
(-0.000187108 0.00192122 -0.000469472)
(-0.000517882 0.00185954 -0.000469472)
(-0.00114635 0.00180584 -0.00120074)
(-0.00144252 0.00157934 -0.00120074)
(-0.00169485 0.00130486 -0.00120074)
(-0.00189569 0.000990729 -0.00120074)
(-0.00203893 0.000646495 -0.00120074)
(-0.00212021 0.000282617 -0.00120074)
(-0.00213708 -8.98478e-05 -0.00120074)
(-0.00208901 -0.000459583 -0.00120074)
(-0.00197747 -0.000815354 -0.00120074)
(-0.00180584 -0.00114635 -0.00120074)
(-0.00157934 -0.00144252 -0.00120074)
(-0.00130486 -0.00169485 -0.00120074)
(-0.000990729 -0.00189569 -0.00120074)
(-0.000646495 -0.00203893 -0.00120074)
(-0.000282617 -0.00212021 -0.00120074)
(8.98479e-05 -0.00213708 -0.00120074)
(0.000459583 -0.00208901 -0.00120074)
(0.000815354 -0.00197747 -0.00120074)
(0.00114635 -0.00180584 -0.00120074)
(0.00144252 -0.00157934 -0.00120074)
(0.00169485 -0.00130486 -0.00120074)
(0.00189569 -0.000990729 -0.00120074)
(0.00203893 -0.000646495 -0.00120074)
(0.00212021 -0.000282617 -0.00120074)
(0.00213708 8.9848e-05 -0.00120074)
(0.00208901 0.000459583 -0.00120074)
(0.00197747 0.000815354 -0.00120074)
(0.00180584 0.00114635 -0.00120074)
(0.00157934 0.00144252 -0.00120074)
(0.00130486 0.00169485 -0.00120074)
(0.000990729 0.00189569 -0.00120074)
(0.000646495 0.00203893 -0.00120074)
(0.000282617 0.00212021 -0.00120074)
(-8.98478e-05 0.00213708 -0.00120074)
(-0.000459583 0.00208901 -0.00120074)
(-0.000815354 0.00197747 -0.00120074)
(-0.00114218 0.00208497 -0.00099424)
(-0.00148687 0.00185496 -0.00099424)
(-0.0017864 0.00156859 -0.00099424)
(-0.00203164 0.00123455 -0.00099424)
(-0.00221515 0.000863006 -0.00099424)
(-0.00233136 0.000465238 -0.000994239)
(-0.00237673 5.33339e-05 -0.000994239)
(-0.00234988 -0.000360191 -0.000994239)
(-0.00225163 -0.000762772 -0.00099424)
(-0.00208497 -0.00114218 -0.00099424)
(-0.00185496 -0.00148687 -0.00099424)
(-0.00156859 -0.0017864 -0.00099424)
(-0.00123455 -0.00203164 -0.00099424)
(-0.000863006 -0.00221515 -0.00099424)
(-0.000465238 -0.00233136 -0.000994239)
(-5.33338e-05 -0.00237673 -0.000994239)
(0.000360191 -0.00234988 -0.000994239)
(0.000762772 -0.00225163 -0.00099424)
(0.00114218 -0.00208497 -0.00099424)
(0.00148687 -0.00185496 -0.00099424)
(0.0017864 -0.00156859 -0.00099424)
(0.00203164 -0.00123455 -0.00099424)
(0.00221515 -0.000863006 -0.00099424)
(0.00233136 -0.000465238 -0.000994239)
(0.00237673 -5.33338e-05 -0.000994239)
(0.00234988 0.000360191 -0.000994239)
(0.00225163 0.000762772 -0.00099424)
(0.00208497 0.00114218 -0.00099424)
(0.00185496 0.00148687 -0.00099424)
(0.00156859 0.0017864 -0.00099424)
(0.00123455 0.00203164 -0.00099424)
(0.000863006 0.00221515 -0.00099424)
(0.000465238 0.00233136 -0.000994239)
(5.33339e-05 0.00237673 -0.000994239)
(-0.000360191 0.00234988 -0.000994239)
(-0.000762772 0.00225163 -0.00099424)
(-0.00118624 0.00233725 -0.000796804)
(-0.00157408 0.00209575 -0.000796804)
(-0.00191409 0.00179058 -0.000796804)
(-0.00219594 0.001431 -0.000796804)
(-0.00241106 0.00102794 -0.000796804)
(-0.00255293 0.000593643 -0.000796804)
(-0.00261723 0.000141311 -0.000796804)
(-0.00260201 -0.000315314 -0.000796804)
(-0.00250773 -0.000762359 -0.000796804)
(-0.00233725 -0.00118624 -0.000796804)
(-0.00209575 -0.00157408 -0.000796804)
(-0.00179058 -0.00191409 -0.000796804)
(-0.001431 -0.00219594 -0.000796804)
(-0.00102794 -0.00241106 -0.000796804)
(-0.000593643 -0.00255293 -0.000796804)
(-0.000141311 -0.00261723 -0.000796804)
(0.000315314 -0.00260201 -0.000796804)
(0.000762359 -0.00250773 -0.000796804)
(0.00118624 -0.00233725 -0.000796804)
(0.00157408 -0.00209575 -0.000796804)
(0.00191409 -0.00179058 -0.000796804)
(0.00219594 -0.001431 -0.000796804)
(0.00241106 -0.00102794 -0.000796804)
(0.00255293 -0.000593642 -0.000796804)
(0.00261723 -0.000141311 -0.000796804)
(0.00260201 0.000315314 -0.000796804)
(0.00250773 0.000762359 -0.000796804)
(0.00233725 0.00118624 -0.000796804)
(0.00209575 0.00157408 -0.000796804)
(0.00179058 0.00191409 -0.000796804)
(0.001431 0.00219594 -0.000796804)
(0.00102794 0.00241106 -0.000796804)
(0.000593643 0.00255293 -0.000796804)
(0.000141311 0.00261723 -0.000796804)
(-0.000315314 0.00260201 -0.000796804)
(-0.000762359 0.00250773 -0.000796804)
(-0.00142678 0.00240088 -0.00162916)
(-0.00182201 0.00211665 -0.00162916)
(-0.00216189 0.0017681 -0.00162916)
(-0.00243607 0.00136584 -0.00162916)
(-0.00263624 0.000922067 -0.00162916)
(-0.0027563 0.000450281 -0.00162916)
(-0.00279262 -3.51864e-05 -0.00162916)
(-0.00274408 -0.000519586 -0.00162916)
(-0.00261217 -0.000988196 -0.00162916)
(-0.00240088 -0.00142678 -0.00162916)
(-0.00211665 -0.00182201 -0.00162916)
(-0.0017681 -0.00216189 -0.00162916)
(-0.00136584 -0.00243607 -0.00162916)
(-0.000922067 -0.00263624 -0.00162916)
(-0.000450281 -0.0027563 -0.00162916)
(3.51866e-05 -0.00279262 -0.00162916)
(0.000519586 -0.00274408 -0.00162916)
(0.000988197 -0.00261217 -0.00162916)
(0.00142678 -0.00240088 -0.00162916)
(0.00182201 -0.00211665 -0.00162916)
(0.00216189 -0.0017681 -0.00162916)
(0.00243607 -0.00136584 -0.00162916)
(0.00263624 -0.000922067 -0.00162916)
(0.0027563 -0.000450281 -0.00162916)
(0.00279262 3.51866e-05 -0.00162916)
(0.00274408 0.000519586 -0.00162916)
(0.00261217 0.000988197 -0.00162916)
(0.00240088 0.00142678 -0.00162916)
(0.00211665 0.00182201 -0.00162916)
(0.0017681 0.00216189 -0.00162916)
(0.00136584 0.00243607 -0.00162916)
(0.000922067 0.00263624 -0.00162916)
(0.000450281 0.0027563 -0.00162916)
(-3.51864e-05 0.00279262 -0.00162916)
(-0.000519586 0.00274408 -0.00162916)
(-0.000988196 0.00261217 -0.00162916)
(-0.00145047 0.0026544 -0.00139707)
(-0.00188937 0.0023622 -0.00139707)
(-0.00227086 0.00199823 -0.00139707)
(-0.00258335 0.00157354 -0.00139707)
(-0.00281734 0.00110104 -0.00139707)
(-0.00296573 0.00059509 -0.00139707)
(-0.00302401 7.10544e-05 -0.00139707)
(-0.00299041 -0.00045514 -0.00139707)
(-0.00286595 -0.000967505 -0.00139707)
(-0.0026544 -0.00145047 -0.00139707)
(-0.0023622 -0.00188937 -0.00139707)
(-0.00199823 -0.00227086 -0.00139707)
(-0.00157354 -0.00258335 -0.00139707)
(-0.00110104 -0.00281734 -0.00139707)
(-0.00059509 -0.00296573 -0.00139707)
(-7.10542e-05 -0.00302401 -0.00139707)
(0.00045514 -0.00299041 -0.00139707)
(0.000967505 -0.00286595 -0.00139707)
(0.00145047 -0.0026544 -0.00139707)
(0.00188937 -0.0023622 -0.00139707)
(0.00227086 -0.00199823 -0.00139707)
(0.00258335 -0.00157354 -0.00139707)
(0.00281734 -0.00110104 -0.00139707)
(0.00296573 -0.00059509 -0.00139707)
(0.00302401 -7.10542e-05 -0.00139707)
(0.00299041 0.00045514 -0.00139707)
(0.00286595 0.000967505 -0.00139707)
(0.0026544 0.00145047 -0.00139707)
(0.0023622 0.00188937 -0.00139707)
(0.00199823 0.00227086 -0.00139707)
(0.00157354 0.00258335 -0.00139707)
(0.00110104 0.00281734 -0.00139707)
(0.00059509 0.00296573 -0.00139707)
(7.10544e-05 0.00302401 -0.00139707)
(-0.00045514 0.00299041 -0.00139707)
(-0.000967505 0.00286595 -0.00139707)
(-0.00152321 0.0028691 -0.0011781)
(-0.00199828 0.00256101 -0.0011781)
(-0.00241264 0.0021751 -0.0011781)
(-0.00275368 0.00172311 -0.0011781)
(-0.00301106 0.00121876 -0.0011781)
(-0.00317695 0.000677375 -0.0011781)
(-0.00324631 0.000115412 -0.0011781)
(-0.00321704 -0.000450059 -0.0011781)
(-0.00309001 -0.00100185 -0.0011781)
(-0.0028691 -0.00152321 -0.0011781)
(-0.00256101 -0.00199828 -0.0011781)
(-0.0021751 -0.00241264 -0.0011781)
(-0.00172311 -0.00275368 -0.0011781)
(-0.00121876 -0.00301106 -0.0011781)
(-0.000677375 -0.00317695 -0.0011781)
(-0.000115411 -0.00324631 -0.0011781)
(0.000450059 -0.00321704 -0.0011781)
(0.00100185 -0.00309001 -0.0011781)
(0.00152321 -0.0028691 -0.0011781)
(0.00199828 -0.002561 -0.0011781)
(0.00241264 -0.0021751 -0.0011781)
(0.00275368 -0.00172311 -0.0011781)
(0.00301106 -0.00121876 -0.0011781)
(0.00317695 -0.000677375 -0.0011781)
(0.00324631 -0.000115411 -0.0011781)
(0.00321704 0.000450059 -0.0011781)
(0.00309001 0.00100185 -0.0011781)
(0.0028691 0.00152321 -0.0011781)
(0.00256101 0.00199828 -0.0011781)
(0.0021751 0.00241264 -0.0011781)
(0.00172311 0.00275368 -0.0011781)
(0.00121876 0.00301106 -0.0011781)
(0.000677375 0.00317695 -0.0011781)
(0.000115412 0.00324631 -0.0011781)
(-0.000450059 0.00321704 -0.0011781)
(-0.00100185 0.00309001 -0.0011781)
(-0.00171644 0.00299613 -0.00207821)
(-0.00221063 0.00265255 -0.00207821)
(-0.00263766 0.00222838 -0.00207821)
(-0.00298454 0.0017365 -0.00207821)
(-0.00324074 0.00119186 -0.00207821)
(-0.00339847 0.000611007 -0.00207821)
(-0.00345294 1.15864e-05 -0.00207821)
(-0.0034025 -0.000588187 -0.00207821)
(-0.00324867 -0.00117009 -0.00207821)
(-0.00299613 -0.00171644 -0.00207821)
(-0.00265255 -0.00221063 -0.00207821)
(-0.00222838 -0.00263766 -0.00207821)
(-0.0017365 -0.00298454 -0.00207821)
(-0.00119186 -0.00324074 -0.00207821)
(-0.000611007 -0.00339847 -0.00207821)
(-1.15862e-05 -0.00345294 -0.00207821)
(0.000588187 -0.0034025 -0.00207821)
(0.00117009 -0.00324867 -0.00207821)
(0.00171644 -0.00299613 -0.00207821)
(0.00221063 -0.00265255 -0.00207821)
(0.00263766 -0.00222838 -0.00207821)
(0.00298454 -0.0017365 -0.00207821)
(0.00324074 -0.00119186 -0.00207821)
(0.00339847 -0.000611007 -0.00207821)
(0.00345294 -1.15862e-05 -0.00207821)
(0.0034025 0.000588187 -0.00207821)
(0.00324867 0.00117009 -0.00207821)
(0.00299613 0.00171644 -0.00207821)
(0.00265255 0.00221063 -0.00207821)
(0.00222838 0.00263766 -0.00207821)
(0.0017365 0.00298454 -0.00207821)
(0.00119186 0.00324074 -0.00207821)
(0.000611007 0.00339847 -0.00207821)
(1.15864e-05 0.00345294 -0.00207821)
(-0.000588187 0.0034025 -0.00207821)
(-0.00117009 0.00324867 -0.00207821)
(-0.00175579 0.00318965 -0.00182771)
(-0.00228299 0.0028363 -0.00182771)
(-0.00274082 0.00239678 -0.00182771)
(-0.00311538 0.00188443 -0.00182771)
(-0.00339528 0.00131482 -0.00182771)
(-0.00357201 0.000705258 -0.00182771)
(-0.00364021 7.427e-05 -0.00182771)
(-0.0035978 -0.000558974 -0.00182771)
(-0.00344608 -0.00117524 -0.00182771)
(-0.00318965 -0.00175579 -0.00182771)
(-0.0028363 -0.00228299 -0.00182771)
(-0.00239678 -0.00274082 -0.00182771)
(-0.00188442 -0.00311538 -0.00182771)
(-0.00131482 -0.00339528 -0.00182771)
(-0.000705257 -0.00357201 -0.00182771)
(-7.42698e-05 -0.00364021 -0.00182771)
(0.000558975 -0.0035978 -0.00182771)
(0.00117524 -0.00344608 -0.00182771)
(0.00175579 -0.00318965 -0.00182771)
(0.00228299 -0.0028363 -0.00182771)
(0.00274082 -0.00239678 -0.00182771)
(0.00311538 -0.00188442 -0.00182771)
(0.00339528 -0.00131482 -0.00182771)
(0.00357201 -0.000705257 -0.00182771)
(0.00364021 -7.42699e-05 -0.00182771)
(0.00359781 0.000558975 -0.00182771)
(0.00344608 0.00117524 -0.00182771)
(0.00318965 0.00175579 -0.00182771)
(0.0028363 0.00228299 -0.00182771)
(0.00239678 0.00274082 -0.00182771)
(0.00188443 0.00311538 -0.00182771)
(0.00131482 0.00339528 -0.00182771)
(0.000705258 0.00357201 -0.00182771)
(7.427e-05 0.00364021 -0.00182771)
(-0.000558974 0.00359781 -0.00182771)
(-0.00117524 0.00344608 -0.00182771)
(-0.00184184 0.00333516 -0.00159402)
(-0.002393 0.00296466 -0.00159402)
(-0.00287145 0.00250408 -0.00159402)
(-0.00326266 0.00196741 -0.00159402)
(-0.00355473 0.00137097 -0.00159402)
(-0.00373879 0.000732869 -0.00159402)
(-0.00380925 7.2502e-05 -0.00159402)
(-0.00376397 -0.00059007 -0.00159402)
(-0.00360432 -0.00123471 -0.00159402)
(-0.00333516 -0.00184184 -0.00159402)
(-0.00296466 -0.002393 -0.00159402)
(-0.00250408 -0.00287145 -0.00159402)
(-0.00196741 -0.00326266 -0.00159402)
(-0.00137097 -0.00355473 -0.00159402)
(-0.000732869 -0.00373879 -0.00159402)
(-7.25018e-05 -0.00380925 -0.00159402)
(0.00059007 -0.00376397 -0.00159402)
(0.00123471 -0.00360432 -0.00159402)
(0.00184184 -0.00333516 -0.00159402)
(0.002393 -0.00296466 -0.00159402)
(0.00287145 -0.00250408 -0.00159402)
(0.00326266 -0.00196741 -0.00159402)
(0.00355473 -0.00137097 -0.00159402)
(0.00373879 -0.000732869 -0.00159402)
(0.00380925 -7.25018e-05 -0.00159402)
(0.00376397 0.00059007 -0.00159402)
(0.00360432 0.00123471 -0.00159402)
(0.00333516 0.00184184 -0.00159402)
(0.00296466 0.002393 -0.00159402)
(0.00250408 0.00287145 -0.00159402)
(0.00196741 0.00326266 -0.00159402)
(0.00137097 0.00355473 -0.00159402)
(0.000732869 0.00373879 -0.00159402)
(7.2502e-05 0.00380925 -0.00159402)
(-0.00059007 0.00376397 -0.00159402)
(-0.00123471 0.00360432 -0.00159402)
(-0.00202319 0.00355621 -0.00254677)
(-0.00260998 0.00315086 -0.00254677)
(-0.00311747 0.00264977 -0.00254677)
(-0.00353024 0.00206818 -0.00254677)
(-0.00383574 0.00142374 -0.00254677)
(-0.0040247 0.000736036 -0.00254677)
(-0.00409136 2.59732e-05 -0.00254677)
(-0.00403372 -0.00068488 -0.00254677)
(-0.00385351 -0.00137492 -0.00254677)
(-0.00355621 -0.00202319 -0.00254677)
(-0.00315086 -0.00260998 -0.00254677)
(-0.00264977 -0.00311747 -0.00254677)
(-0.00206818 -0.00353024 -0.00254677)
(-0.00142373 -0.00383574 -0.00254677)
(-0.000736036 -0.0040247 -0.00254677)
(-2.5973e-05 -0.00409136 -0.00254677)
(0.00068488 -0.00403372 -0.00254677)
(0.00137492 -0.00385351 -0.00254677)
(0.00202319 -0.00355621 -0.00254677)
(0.00260998 -0.00315086 -0.00254677)
(0.00311747 -0.00264977 -0.00254677)
(0.00353024 -0.00206818 -0.00254677)
(0.00383574 -0.00142373 -0.00254677)
(0.0040247 -0.000736036 -0.00254677)
(0.00409136 -2.5973e-05 -0.00254677)
(0.00403372 0.00068488 -0.00254677)
(0.00385351 0.00137492 -0.00254677)
(0.00355621 0.00202319 -0.00254677)
(0.00315086 0.00260998 -0.00254677)
(0.00264977 0.00311747 -0.00254677)
(0.00206818 0.00353024 -0.00254677)
(0.00142374 0.00383574 -0.00254677)
(0.000736036 0.0040247 -0.00254677)
(2.59732e-05 0.00409136 -0.00254677)
(-0.00068488 0.00403372 -0.00254677)
(-0.00137492 0.00385351 -0.00254677)
(-0.00206218 0.00366836 -0.0022787)
(-0.00266786 0.00325453 -0.0022787)
(-0.00319247 0.00274182 -0.0022787)
(-0.00362008 0.0021458 -0.0022787)
(-0.0039377 0.00148458 -0.0022787)
(-0.00413567 0.000778255 -0.0022787)
(-0.00420798 4.82784e-05 -0.0022787)
(-0.00415244 -0.000683164 -0.0022787)
(-0.00397072 -0.00139385 -0.0022787)
(-0.00366836 -0.00206218 -0.0022787)
(-0.00325453 -0.00266786 -0.0022787)
(-0.00274182 -0.00319247 -0.0022787)
(-0.0021458 -0.00362008 -0.0022787)
(-0.00148458 -0.0039377 -0.0022787)
(-0.000778254 -0.00413567 -0.0022787)
(-4.82781e-05 -0.00420798 -0.0022787)
(0.000683164 -0.00415244 -0.0022787)
(0.00139385 -0.00397072 -0.0022787)
(0.00206218 -0.00366836 -0.0022787)
(0.00266786 -0.00325453 -0.0022787)
(0.00319247 -0.00274182 -0.0022787)
(0.00362008 -0.0021458 -0.0022787)
(0.0039377 -0.00148458 -0.0022787)
(0.00413567 -0.000778254 -0.0022787)
(0.00420798 -4.82782e-05 -0.0022787)
(0.00415244 0.000683164 -0.0022787)
(0.00397072 0.00139385 -0.0022787)
(0.00366836 0.00206218 -0.0022787)
(0.00325453 0.00266786 -0.0022787)
(0.00274182 0.00319247 -0.0022787)
(0.0021458 0.00362008 -0.0022787)
(0.00148458 0.0039377 -0.0022787)
(0.000778255 0.00413567 -0.0022787)
(4.82784e-05 0.00420798 -0.0022787)
(-0.000683164 0.00415244 -0.0022787)
(-0.00139385 0.00397072 -0.0022787)
(-0.00214293 0.00372763 -0.00203051)
(-0.00275767 0.00329888 -0.00203051)
(-0.00328862 0.0027699 -0.00203051)
(-0.00371965 0.00215676 -0.00203051)
(-0.00403765 0.00147808 -0.00203051)
(-0.00423298 0.000754498 -0.00203051)
(-0.00429969 7.98576e-06 -0.00203051)
(-0.00423575 -0.000738768 -0.00203051)
(-0.00404312 -0.00146308 -0.00203051)
(-0.00372763 -0.00214293 -0.00203051)
(-0.00329888 -0.00275767 -0.00203051)
(-0.0027699 -0.00328862 -0.00203051)
(-0.00215676 -0.00371965 -0.00203051)
(-0.00147808 -0.00403765 -0.00203051)
(-0.000754497 -0.00423298 -0.00203051)
(-7.98554e-06 -0.00429969 -0.00203051)
(0.000738769 -0.00423575 -0.00203051)
(0.00146308 -0.00404312 -0.00203051)
(0.00214293 -0.00372763 -0.00203051)
(0.00275767 -0.00329888 -0.00203051)
(0.00328862 -0.0027699 -0.00203051)
(0.00371965 -0.00215676 -0.00203051)
(0.00403765 -0.00147808 -0.00203051)
(0.00423298 -0.000754497 -0.00203051)
(0.00429969 -7.98557e-06 -0.00203051)
(0.00423575 0.000738769 -0.00203051)
(0.00404312 0.00146308 -0.00203051)
(0.00372763 0.00214293 -0.00203051)
(0.00329888 0.00275767 -0.00203051)
(0.0027699 0.00328862 -0.00203051)
(0.00215676 0.00371965 -0.00203051)
(0.00147808 0.00403765 -0.00203051)
(0.000754498 0.00423298 -0.00203051)
(7.98579e-06 0.00429969 -0.00203051)
(-0.000738768 0.00423575 -0.00203051)
(-0.00146308 0.00404312 -0.00203051)
(-0.00234335 0.00403816 -0.00303151)
(-0.00300897 0.00356989 -0.00303151)
(-0.00358316 0.00299316 -0.00303151)
(-0.00404848 0.00232547 -0.00303151)
(-0.00439079 0.00158713 -0.00303152)
(-0.00459968 0.000800571 -0.00303151)
(-0.00466882 -1.03187e-05 -0.00303151)
(-0.0045961 -0.000820896 -0.00303151)