/*--------------------------------*- C++ -*----------------------------------*\
| =========                 |                                                 |
| \\      /  F ield         | OpenFOAM: The Open Source CFD Toolbox           |
|  \\    /   O peration     | Version:  2312                                  |
|   \\  /    A nd           | Website:  www.openfoam.com                      |
|    \\/     M anipulation  |                                                 |
\*---------------------------------------------------------------------------*/
FoamFile
{
    version     2.0;
    format      ascii;
    arch        "LSB;label=32;scalar=64";
    class       volVectorField;
    location    "0.7";
    object      D_0_0_0;
}
// * * * * * * * * * * * * * * * * * * * * * * * * * * * * * * * * * * * * * //

dimensions      [0 1 0 0 0 0 0];

internalField   nonuniform List<vector> 
1620
(
(-0.000240475 0.000204648 -0.000146157)
(-0.000272358 0.00015978 -0.000146157)
(-0.000295967 0.000110058 -0.000146157)
(-0.000310582 5.69926e-05 -0.000146157)
(-0.00031576 2.19525e-06 -0.000146157)
(-0.000311344 -5.26695e-05 -0.000146157)
(-0.000297468 -0.000105934 -0.000146157)
(-0.000274554 -0.000155979 -0.000146157)
(-0.000243297 -0.000201285 -0.000146157)
(-0.000204648 -0.000240475 -0.000146157)
(-0.00015978 -0.000272358 -0.000146157)
(-0.000110058 -0.000295967 -0.000146157)
(-5.69926e-05 -0.000310582 -0.000146157)
(-2.19523e-06 -0.00031576 -0.000146157)
(5.26695e-05 -0.000311344 -0.000146157)
(0.000105934 -0.000297468 -0.000146157)
(0.000155979 -0.000274554 -0.000146157)
(0.000201285 -0.000243297 -0.000146157)
(0.000240475 -0.000204648 -0.000146157)
(0.000272358 -0.00015978 -0.000146157)
(0.000295967 -0.000110058 -0.000146157)
(0.000310582 -5.69926e-05 -0.000146157)
(0.00031576 -2.19523e-06 -0.000146157)
(0.000311344 5.26695e-05 -0.000146157)
(0.000297468 0.000105934 -0.000146157)
(0.000274554 0.000155979 -0.000146157)
(0.000243297 0.000201285 -0.000146157)
(0.000204648 0.000240475 -0.000146157)
(0.00015978 0.000272358 -0.000146157)
(0.000110058 0.000295967 -0.000146157)
(5.69926e-05 0.000310582 -0.000146157)
(2.19526e-06 0.00031576 -0.000146157)
(-5.26695e-05 0.000311344 -0.000146157)
(-0.000105934 0.000297468 -0.000146157)
(-0.000155979 0.000274554 -0.000146157)
(-0.000201285 0.000243297 -0.000146157)
(-0.000163926 0.000299966 -9.89033e-05)
(-0.000213524 0.000266943 -9.89034e-05)
(-0.000256634 0.000225809 -9.89033e-05)
(-0.000291947 0.000177815 -9.89032e-05)
(-0.000318389 0.000124418 -9.89034e-05)
(-0.000335157 6.72399e-05 -9.89033e-05)
(-0.000341741 8.01909e-06 -9.89031e-05)
(-0.000337942 -5.14453e-05 -9.89032e-05)
(-0.000323874 -0.000109347 -9.89033e-05)
(-0.000299966 -0.000163926 -9.89033e-05)
(-0.000266943 -0.000213524 -9.89034e-05)
(-0.000225809 -0.000256634 -9.89033e-05)
(-0.000177815 -0.000291947 -9.89032e-05)
(-0.000124418 -0.000318389 -9.89034e-05)
(-6.72399e-05 -0.000335157 -9.89033e-05)
(-8.01907e-06 -0.000341741 -9.89032e-05)
(5.14454e-05 -0.000337942 -9.89032e-05)
(0.000109347 -0.000323874 -9.89033e-05)
(0.000163926 -0.000299966 -9.89033e-05)
(0.000213524 -0.000266943 -9.89034e-05)
(0.000256634 -0.000225809 -9.89033e-05)
(0.000291947 -0.000177815 -9.89032e-05)
(0.000318389 -0.000124418 -9.89034e-05)
(0.000335157 -6.72399e-05 -9.89033e-05)
(0.000341741 -8.01907e-06 -9.89032e-05)
(0.000337942 5.14454e-05 -9.89032e-05)
(0.000323874 0.000109347 -9.89033e-05)
(0.000299966 0.000163926 -9.89033e-05)
(0.000266943 0.000213524 -9.89034e-05)
(0.000225809 0.000256634 -9.89033e-05)
(0.000177815 0.000291947 -9.89032e-05)
(0.000124418 0.000318389 -9.89034e-05)
(6.72399e-05 0.000335157 -9.89033e-05)
(8.01909e-06 0.000341741 -9.89031e-05)
(-5.14453e-05 0.000337942 -9.89032e-05)
(-0.000109347 0.000323874 -9.89033e-05)
(-0.000115661 0.000398061 -6.37746e-05)
(-0.000183026 0.000371929 -6.37746e-05)
(-0.00024483 0.000334497 -6.37748e-05)
(-0.000299195 0.000286901 -6.37746e-05)
(-0.000344471 0.000230588 -6.37747e-05)
(-0.000379278 0.000167268 -6.37746e-05)
(-0.000402562 9.88656e-05 -6.37748e-05)
(-0.000413614 2.74594e-05 -6.37749e-05)
(-0.000412098 -4.47809e-05 -6.37747e-05)
(-0.000398061 -0.000115661 -6.37746e-05)
(-0.000371929 -0.000183026 -6.37746e-05)
(-0.000334497 -0.00024483 -6.37748e-05)
(-0.000286901 -0.000299195 -6.37746e-05)
(-0.000230588 -0.000344471 -6.37747e-05)
(-0.000167268 -0.000379278 -6.37746e-05)
(-9.88656e-05 -0.000402562 -6.37748e-05)
(-2.74594e-05 -0.000413614 -6.37749e-05)
(4.47809e-05 -0.000412098 -6.37747e-05)
(0.000115661 -0.000398061 -6.37746e-05)
(0.000183026 -0.000371929 -6.37746e-05)
(0.00024483 -0.000334497 -6.37748e-05)
(0.000299195 -0.000286901 -6.37746e-05)
(0.000344471 -0.000230588 -6.37747e-05)
(0.000379278 -0.000167268 -6.37746e-05)
(0.000402562 -9.88656e-05 -6.37748e-05)
(0.000413614 -2.74594e-05 -6.37749e-05)
(0.000412098 4.4781e-05 -6.37747e-05)
(0.000398061 0.000115661 -6.37746e-05)
(0.000371929 0.000183026 -6.37746e-05)
(0.000334497 0.00024483 -6.37748e-05)
(0.000286901 0.000299195 -6.37746e-05)
(0.000230588 0.000344471 -6.37747e-05)
(0.000167268 0.000379278 -6.37746e-05)
(9.88656e-05 0.000402562 -6.37748e-05)
(2.74594e-05 0.000413614 -6.37748e-05)
(-4.47809e-05 0.000412098 -6.37746e-05)
(-0.000555815 0.000715682 -0.000426033)
(-0.000671648 0.000608292 -0.000426034)
(-0.000767073 0.000482421 -0.000426034)
(-0.000839191 0.000341891 -0.000426032)
(-0.000885811 0.000190974 -0.000426032)
(-0.000905515 3.42535e-05 -0.000426033)
(-0.000897707 -0.000123508 -0.000426033)
(-0.000862622 -0.000277517 -0.000426033)
(-0.000801325 -0.000423094 -0.000426033)
(-0.000715681 -0.000555815 -0.000426033)
(-0.000608292 -0.000671648 -0.000426034)
(-0.000482421 -0.000767073 -0.000426034)
(-0.000341891 -0.000839191 -0.000426033)
(-0.000190974 -0.000885811 -0.000426032)
(-3.42535e-05 -0.000905515 -0.000426033)
(0.000123508 -0.000897707 -0.000426033)
(0.000277517 -0.000862622 -0.000426033)
(0.000423094 -0.000801325 -0.000426033)
(0.000555815 -0.000715681 -0.000426033)
(0.000671648 -0.000608292 -0.000426034)
(0.000767073 -0.000482421 -0.000426034)
(0.000839191 -0.000341891 -0.000426033)
(0.000885811 -0.000190974 -0.000426032)
(0.000905515 -3.42535e-05 -0.000426033)
(0.000897707 0.000123508 -0.000426033)
(0.000862622 0.000277517 -0.000426033)
(0.000801325 0.000423094 -0.000426033)
(0.000715681 0.000555815 -0.000426033)
(0.000608292 0.000671648 -0.000426034)
(0.000482421 0.000767073 -0.000426034)
(0.000341891 0.000839191 -0.000426032)
(0.000190974 0.000885811 -0.000426032)
(3.42535e-05 0.000905515 -0.000426032)
(-0.000123508 0.000897707 -0.000426033)
(-0.000277517 0.000862622 -0.000426033)
(-0.000423094 0.000801325 -0.000426033)
(-0.000494957 0.000901216 -0.00031628)
(-0.000643931 0.000801576 -0.00031628)
(-0.000773341 0.000677581 -0.00031628)
(-0.000879253 0.000532999 -0.00031628)
(-0.00095845 0.000372221 -0.00031628)
(-0.00100852 0.000200132 -0.00031628)
(-0.00102796 2.19636e-05 -0.00031628)
(-0.00101615 -0.000156873 -0.00031628)
(-0.000973473 -0.000330942 -0.00031628)
(-0.000901216 -0.000494957 -0.00031628)
(-0.000801576 -0.000643931 -0.00031628)
(-0.000677581 -0.000773341 -0.00031628)
(-0.000532999 -0.000879253 -0.00031628)
(-0.000372221 -0.00095845 -0.00031628)
(-0.000200132 -0.00100852 -0.00031628)
(-2.19635e-05 -0.00102796 -0.00031628)
(0.000156873 -0.00101615 -0.00031628)
(0.000330943 -0.000973473 -0.00031628)
(0.000494957 -0.000901216 -0.00031628)
(0.000643931 -0.000801576 -0.00031628)
(0.000773341 -0.000677581 -0.00031628)
(0.000879253 -0.000532999 -0.00031628)
(0.00095845 -0.000372221 -0.00031628)
(0.00100852 -0.000200132 -0.00031628)
(0.00102796 -2.19635e-05 -0.00031628)
(0.00101615 0.000156873 -0.00031628)
(0.000973473 0.000330943 -0.00031628)
(0.000901216 0.000494957 -0.00031628)
(0.000801576 0.000643931 -0.00031628)
(0.000677581 0.000773341 -0.00031628)
(0.000532999 0.000879253 -0.00031628)
(0.000372221 0.00095845 -0.00031628)
(0.000200132 0.00100852 -0.00031628)
(2.19635e-05 0.00102796 -0.00031628)
(-0.000156873 0.00101615 -0.000316279)
(-0.000330943 0.000973473 -0.00031628)
(-0.000470404 0.00108289 -0.000210334)
(-0.000651299 0.000984758 -0.000210333)
(-0.000812405 0.0008567 -0.000210334)
(-0.000948827 0.000702612 -0.000210334)
(-0.00105642 0.000527176 -0.000210334)
(-0.00113191 0.000335721 -0.000210334)
(-0.00117301 0.000134066 -0.000210334)
(-0.00117848 -7.16627e-05 -0.000210334)
(-0.00114813 -0.000275214 -0.000210334)
(-0.00108289 -0.000470404 -0.000210334)
(-0.000984758 -0.000651299 -0.000210333)
(-0.0008567 -0.000812405 -0.000210334)
(-0.000702612 -0.000948827 -0.000210334)
(-0.000527176 -0.00105642 -0.000210334)
(-0.000335721 -0.00113191 -0.000210334)
(-0.000134066 -0.00117301 -0.000210334)
(7.16628e-05 -0.00117847 -0.000210334)
(0.000275214 -0.00114813 -0.000210334)
(0.000470404 -0.00108289 -0.000210334)
(0.000651299 -0.000984757 -0.000210333)
(0.000812405 -0.0008567 -0.000210334)
(0.000948827 -0.000702612 -0.000210334)
(0.00105642 -0.000527176 -0.000210334)
(0.00113191 -0.000335721 -0.000210334)
(0.00117301 -0.000134066 -0.000210334)
(0.00117848 7.16628e-05 -0.000210334)
(0.00114813 0.000275214 -0.000210334)
(0.00108289 0.000470404 -0.000210334)
(0.000984758 0.000651299 -0.000210333)
(0.0008567 0.000812405 -0.000210334)
(0.000702612 0.000948827 -0.000210334)
(0.000527176 0.00105642 -0.000210334)
(0.000335721 0.00113191 -0.000210333)
(0.000134066 0.00117301 -0.000210334)
(-7.16627e-05 0.00117848 -0.000210334)
(-0.000275214 0.00114813 -0.000210334)
(-0.000856793 0.00125263 -0.000777375)
(-0.00106129 0.00108482 -0.000777375)
(-0.00123355 0.000884049 -0.000777375)
(-0.00136832 0.000656416 -0.000777374)
(-0.00146152 0.000408838 -0.000777373)
(-0.00151031 0.000148837 -0.000777373)
(-0.00151321 -0.000115687 -0.000777373)
(-0.00147013 -0.000376696 -0.000777373)
(-0.00138238 -0.000626259 -0.000777375)
(-0.00125263 -0.000856793 -0.000777375)
(-0.00108482 -0.00106129 -0.000777375)
(-0.000884049 -0.00123355 -0.000777375)
(-0.000656416 -0.00136832 -0.000777374)
(-0.000408838 -0.00146152 -0.000777373)
(-0.000148837 -0.00151031 -0.000777373)
(0.000115687 -0.00151321 -0.000777373)
(0.000376696 -0.00147013 -0.000777374)
(0.000626259 -0.00138238 -0.000777375)
(0.000856793 -0.00125263 -0.000777375)
(0.00106129 -0.00108482 -0.000777375)
(0.00123355 -0.000884049 -0.000777375)
(0.00136832 -0.000656416 -0.000777374)
(0.00146152 -0.000408838 -0.000777373)
(0.00151031 -0.000148837 -0.000777373)
(0.00151321 0.000115687 -0.000777373)
(0.00147013 0.000376696 -0.000777373)
(0.00138238 0.000626259 -0.000777375)
(0.00125263 0.000856793 -0.000777375)
(0.00108482 0.00106129 -0.000777375)
(0.000884049 0.00123355 -0.000777375)
(0.000656416 0.00136832 -0.000777374)
(0.000408838 0.00146152 -0.000777373)
(0.000148837 0.00151031 -0.000777373)
(-0.000115687 0.00151321 -0.000777373)
(-0.000376696 0.00147013 -0.000777373)
(-0.000626259 0.00138238 -0.000777375)
(-0.000820656 0.00150082 -0.000614677)
(-0.0010688 0.00133552 -0.000614678)
(-0.00128447 0.00112963 -0.000614678)
(-0.00146112 0.000889422 -0.000614677)
(-0.00159337 0.00062219 -0.000614676)
(-0.0016772 0.000336051 -0.000614677)
(-0.00171008 3.97028e-05 -0.000614677)
(-0.00169099 -0.000257853 -0.000614677)
(-0.00162053 -0.000547573 -0.000614677)
(-0.00150082 -0.000820656 -0.000614678)
(-0.00133552 -0.0010688 -0.000614678)
(-0.00112963 -0.00128447 -0.000614678)
(-0.000889422 -0.00146112 -0.000614677)
(-0.00062219 -0.00159337 -0.000614677)
(-0.000336051 -0.0016772 -0.000614677)
(-3.97027e-05 -0.00171008 -0.000614677)
(0.000257853 -0.00169099 -0.000614677)
(0.000547573 -0.00162053 -0.000614677)
(0.000820656 -0.00150082 -0.000614678)
(0.0010688 -0.00133552 -0.000614678)
(0.00128447 -0.00112963 -0.000614678)
(0.00146112 -0.000889422 -0.000614677)
(0.00159337 -0.00062219 -0.000614677)
(0.0016772 -0.000336051 -0.000614677)
(0.00171008 -3.97027e-05 -0.000614677)
(0.00169099 0.000257853 -0.000614677)
(0.00162053 0.000547573 -0.000614677)
(0.00150082 0.000820656 -0.000614677)
(0.00133552 0.0010688 -0.000614678)
(0.00112963 0.00128447 -0.000614678)
(0.000889422 0.00146112 -0.000614677)
(0.00062219 0.00159337 -0.000614676)
(0.000336051 0.0016772 -0.000614677)
(3.97028e-05 0.00171008 -0.000614677)
(-0.000257853 0.00169099 -0.000614677)
(-0.000547573 0.00162053 -0.000614677)
(-0.000826983 0.00173522 -0.000457172)
(-0.00111574 0.00156526 -0.000457172)
(-0.00137059 0.00134773 -0.000457172)
(-0.0015838 0.00108926 -0.000457173)
(-0.00174888 0.000797684 -0.000457173)
(-0.00186083 0.000481874 -0.000457173)
(-0.00191624 0.000151423 -0.000457173)
(-0.00191342 -0.000183628 -0.000457173)
(-0.00185246 -0.000513101 -0.000457173)
(-0.00173522 -0.000826983 -0.000457172)
(-0.00156526 -0.00111574 -0.000457172)
(-0.00134773 -0.00137059 -0.000457173)
(-0.00108926 -0.0015838 -0.000457173)
(-0.000797684 -0.00174888 -0.000457173)
(-0.000481874 -0.00186083 -0.000457173)
(-0.000151423 -0.00191624 -0.000457173)
(0.000183628 -0.00191342 -0.000457173)
(0.000513101 -0.00185246 -0.000457173)
(0.000826983 -0.00173522 -0.000457172)
(0.00111574 -0.00156526 -0.000457172)
(0.00137059 -0.00134773 -0.000457173)
(0.0015838 -0.00108926 -0.000457173)
(0.00174888 -0.000797684 -0.000457173)
(0.00186083 -0.000481874 -0.000457173)
(0.00191624 -0.000151423 -0.000457173)
(0.00191342 0.000183628 -0.000457173)
(0.00185246 0.000513101 -0.000457172)
(0.00173522 0.000826983 -0.000457172)
(0.00156526 0.00111574 -0.000457172)
(0.00134773 0.00137059 -0.000457172)
(0.00108926 0.0015838 -0.000457173)
(0.000797684 0.00174888 -0.000457173)
(0.000481874 0.00186083 -0.000457173)
(0.000151423 0.00191624 -0.000457173)
(-0.000183628 0.00191342 -0.000457172)
(-0.000513101 0.00185246 -0.000457172)
(-0.00114135 0.00182203 -0.00117216)
(-0.0014404 0.00159615 -0.00117216)
(-0.00169568 0.00132178 -0.00117216)
(-0.00189945 0.00100725 -0.00117216)
(-0.0020455 0.000662111 -0.00117215)
(-0.0021294 0.000296856 -0.00117215)
(-0.00214859 -7.74202e-05 -0.00117215)
(-0.00210251 -0.000449344 -0.00117215)
(-0.00199254 -0.000807614 -0.00117215)
(-0.00182203 -0.00114135 -0.00117216)
(-0.00159615 -0.0014404 -0.00117216)
(-0.00132178 -0.00169568 -0.00117216)
(-0.00100725 -0.00189945 -0.00117216)
(-0.000662111 -0.0020455 -0.00117216)
(-0.000296855 -0.0021294 -0.00117215)
(7.74204e-05 -0.00214859 -0.00117215)
(0.000449344 -0.00210251 -0.00117215)
(0.000807614 -0.00199254 -0.00117215)
(0.00114135 -0.00182203 -0.00117216)
(0.0014404 -0.00159615 -0.00117216)
(0.00169568 -0.00132178 -0.00117216)
(0.00189945 -0.00100725 -0.00117216)
(0.0020455 -0.000662111 -0.00117215)
(0.0021294 -0.000296855 -0.00117215)
(0.00214859 7.74204e-05 -0.00117215)
(0.00210251 0.000449344 -0.00117215)
(0.00199254 0.000807614 -0.00117215)
(0.00182203 0.00114135 -0.00117216)
(0.00159615 0.0014404 -0.00117216)
(0.00132178 0.00169568 -0.00117216)
(0.00100725 0.00189945 -0.00117216)
(0.000662111 0.0020455 -0.00117215)
(0.000296856 0.0021294 -0.00117215)
(-7.74203e-05 0.00214859 -0.00117215)
(-0.000449344 0.00210251 -0.00117215)
(-0.000807614 0.00199254 -0.00117215)
(-0.00113588 0.00208931 -0.000970831)
(-0.00148142 0.00186033 -0.000970831)
(-0.00178196 0.00157482 -0.000970831)
(-0.00202835 0.00124146 -0.000970831)
(-0.00221311 0.000870381 -0.000970831)
(-0.00233063 0.000472854 -0.00097083)
(-0.00237734 6.09604e-05 -0.00097083)
(-0.0023518 -0.000352786 -0.00097083)
(-0.00225481 -0.000755813 -0.000970831)
(-0.00208931 -0.00113588 -0.000970831)
(-0.00186033 -0.00148142 -0.000970831)
(-0.00157482 -0.00178196 -0.000970831)
(-0.00124146 -0.00202835 -0.000970831)
(-0.000870381 -0.00221311 -0.000970831)
(-0.000472854 -0.00233063 -0.00097083)
(-6.09603e-05 -0.00237734 -0.00097083)
(0.000352786 -0.0023518 -0.00097083)
(0.000755813 -0.00225481 -0.000970831)
(0.00113588 -0.00208931 -0.000970831)
(0.00148142 -0.00186033 -0.000970831)
(0.00178196 -0.00157482 -0.000970831)
(0.00202835 -0.00124146 -0.000970831)
(0.00221311 -0.000870381 -0.000970831)
(0.00233063 -0.000472854 -0.00097083)
(0.00237734 -6.09603e-05 -0.00097083)
(0.0023518 0.000352786 -0.00097083)
(0.00225481 0.000755813 -0.000970831)
(0.00208931 0.00113588 -0.000970831)
(0.00186033 0.00148142 -0.000970831)
(0.00157482 0.00178196 -0.000970831)
(0.00124146 0.00202835 -0.000970831)
(0.000870381 0.00221311 -0.000970831)
(0.000472854 0.00233063 -0.00097083)
(6.09604e-05 0.00237734 -0.00097083)
(-0.000352786 0.0023518 -0.00097083)
(-0.000755813 0.00225481 -0.000970831)
(-0.001177 0.00233061 -0.000778189)
(-0.00156382 0.00209082 -0.000778189)
(-0.00190313 0.0017875 -0.000778189)
(-0.00218461 0.00142987 -0.000778189)
(-0.00239972 0.00102879 -0.000778189)
(-0.00254191 0.000596456 -0.000778189)
(-0.00260687 0.000145996 -0.000778189)
(-0.00259261 -0.0003089 -0.00077819)
(-0.00249959 -0.00075441 -0.000778189)
(-0.00233061 -0.001177 -0.000778189)
(-0.00209082 -0.00156382 -0.000778189)
(-0.0017875 -0.00190313 -0.000778189)
(-0.00142987 -0.00218461 -0.000778189)
(-0.00102879 -0.00239972 -0.000778189)
(-0.000596456 -0.00254191 -0.000778189)
(-0.000145995 -0.00260687 -0.000778189)
(0.0003089 -0.00259261 -0.00077819)
(0.00075441 -0.00249959 -0.000778189)
(0.001177 -0.00233061 -0.000778189)
(0.00156382 -0.00209082 -0.00077819)
(0.00190313 -0.0017875 -0.000778189)
(0.00218461 -0.00142987 -0.000778189)
(0.00239972 -0.00102879 -0.000778189)
(0.00254191 -0.000596456 -0.000778189)
(0.00260687 -0.000145995 -0.000778189)
(0.00259261 0.0003089 -0.00077819)
(0.00249959 0.00075441 -0.000778189)
(0.00233061 0.001177 -0.000778189)
(0.00209082 0.00156382 -0.000778189)
(0.0017875 0.00190313 -0.000778189)
(0.00142987 0.00218461 -0.000778189)
(0.00102879 0.00239972 -0.000778189)
(0.000596456 0.00254191 -0.000778189)
(0.000145996 0.00260687 -0.000778189)
(-0.0003089 0.00259261 -0.000778189)
(-0.00075441 0.00249959 -0.000778189)
(-0.00142211 0.00241344 -0.00159464)
(-0.0018196 0.00212983 -0.00159464)
(-0.00216179 0.0017815 -0.00159464)
(-0.00243831 0.00137904 -0.00159464)
(-0.00264073 0.000934686 -0.00159464)
(-0.00276292 0.000461927 -0.00159464)
(-0.00280115 -2.48659e-05 -0.00159464)
(-0.00275428 -0.000510905 -0.00159464)
(-0.00262372 -0.000981419 -0.00159464)
(-0.00241344 -0.00142211 -0.00159464)
(-0.00212983 -0.0018196 -0.00159464)
(-0.0017815 -0.00216179 -0.00159464)
(-0.00137904 -0.00243831 -0.00159464)
(-0.000934685 -0.00264073 -0.00159464)
(-0.000461927 -0.00276292 -0.00159464)
(2.48661e-05 -0.00280115 -0.00159464)
(0.000510905 -0.00275428 -0.00159464)
(0.000981419 -0.00262372 -0.00159464)
(0.00142211 -0.00241344 -0.00159464)
(0.0018196 -0.00212983 -0.00159464)
(0.00216179 -0.0017815 -0.00159464)
(0.00243831 -0.00137904 -0.00159464)
(0.00264073 -0.000934685 -0.00159464)
(0.00276292 -0.000461927 -0.00159464)
(0.00280116 2.48661e-05 -0.00159464)
(0.00275428 0.000510905 -0.00159464)
(0.00262372 0.000981419 -0.00159464)
(0.00241344 0.00142211 -0.00159464)
(0.00212983 0.0018196 -0.00159464)
(0.0017815 0.00216179 -0.00159464)
(0.00137904 0.00243831 -0.00159464)
(0.000934686 0.00264073 -0.00159464)
(0.000461927 0.00276292 -0.00159464)
(-2.4866e-05 0.00280116 -0.00159464)
(-0.000510905 0.00275428 -0.00159464)
(-0.000981419 0.00262372 -0.00159464)
(-0.00144314 0.00265611 -0.00136782)
(-0.00188244 0.00236516 -0.00136782)
(-0.00226455 0.00200235 -0.00136782)
(-0.00257785 0.00157869 -0.00136782)
(-0.00281282 0.00110707 -0.00136782)
(-0.00296233 0.00060181 -0.00136782)
(-0.00302183 7.82632e-05 -0.00136782)
(-0.00298951 -0.000447661 -0.00136782)
(-0.00286636 -0.000959983 -0.00136782)
(-0.00265611 -0.00144314 -0.00136782)
(-0.00236516 -0.00188244 -0.00136782)
(-0.00200235 -0.00226455 -0.00136782)
(-0.00157869 -0.00257785 -0.00136782)
(-0.00110707 -0.00281282 -0.00136782)
(-0.000601809 -0.00296233 -0.00136782)
(-7.8263e-05 -0.00302183 -0.00136782)
(0.000447661 -0.00298951 -0.00136782)
(0.000959983 -0.00286636 -0.00136782)
(0.00144314 -0.00265611 -0.00136782)
(0.00188244 -0.00236516 -0.00136782)
(0.00226455 -0.00200235 -0.00136782)
(0.00257785 -0.00157869 -0.00136782)
(0.00281282 -0.00110707 -0.00136782)
(0.00296233 -0.000601809 -0.00136782)
(0.00302183 -7.8263e-05 -0.00136782)
(0.00298951 0.000447661 -0.00136782)
(0.00286636 0.000959984 -0.00136782)
(0.00265611 0.00144314 -0.00136782)
(0.00236516 0.00188244 -0.00136782)
(0.00200235 0.00226455 -0.00136782)
(0.00157869 0.00257785 -0.00136782)
(0.00110707 0.00281282 -0.00136782)
(0.00060181 0.00296233 -0.00136782)
(7.82631e-05 0.00302183 -0.00136782)
(-0.000447661 0.00298951 -0.00136782)
(-0.000959983 0.00286636 -0.00136782)
(-0.00151159 0.00286141 -0.00115347)
(-0.0019855 0.00255545 -0.00115347)
(-0.00239909 0.00217185 -0.00115347)
(-0.00273978 0.00172226 -0.00115347)
(-0.00299722 0.00122034 -0.00115347)
(-0.00316359 0.000681336 -0.00115347)
(-0.00323384 0.000121632 -0.00115347)
(-0.00320583 -0.000441767 -0.00115347)
(-0.00308042 -0.000991743 -0.00115347)
(-0.00286141 -0.00151159 -0.00115347)
(-0.00255545 -0.0019855 -0.00115347)
(-0.00217185 -0.00239909 -0.00115347)
(-0.00172226 -0.00273977 -0.00115347)
(-0.00122034 -0.00299722 -0.00115347)
(-0.000681335 -0.00316359 -0.00115347)
(-0.000121632 -0.00323384 -0.00115347)
(0.000441767 -0.00320583 -0.00115347)
(0.000991744 -0.00308042 -0.00115347)
(0.00151159 -0.00286141 -0.00115347)
(0.0019855 -0.00255545 -0.00115347)
(0.00239909 -0.00217185 -0.00115347)
(0.00273978 -0.00172226 -0.00115347)
(0.00299722 -0.00122034 -0.00115347)
(0.00316359 -0.000681335 -0.00115347)
(0.00323384 -0.000121632 -0.00115347)
(0.00320583 0.000441768 -0.00115347)
(0.00308042 0.000991744 -0.00115347)
(0.00286141 0.00151159 -0.00115347)
(0.00255545 0.0019855 -0.00115347)
(0.00217185 0.00239909 -0.00115347)
(0.00172226 0.00273978 -0.00115347)
(0.00122034 0.00299722 -0.00115347)
(0.000681336 0.00316359 -0.00115347)
(0.000121632 0.00323384 -0.00115347)
(-0.000441767 0.00320583 -0.00115347)
(-0.000991743 0.00308042 -0.00115347)
(-0.00171186 0.00300228 -0.00203864)
(-0.0022072 0.0026594 -0.00203864)
(-0.00263546 0.00223573 -0.00203864)
(-0.00298365 0.00174412 -0.00203864)
(-0.00324119 0.00119951 -0.00203864)
(-0.00340024 0.000618464 -0.00203864)
(-0.00345598 1.86225e-05 -0.00203864)
(-0.00340671 -0.000581785 -0.00203864)
(-0.00325393 -0.00116452 -0.00203864)
(-0.00300228 -0.00171186 -0.00203864)
(-0.0026594 -0.0022072 -0.00203864)
(-0.00223573 -0.00263546 -0.00203864)
(-0.00174412 -0.00298365 -0.00203864)
(-0.00119951 -0.00324119 -0.00203864)
(-0.000618464 -0.00340024 -0.00203864)
(-1.86223e-05 -0.00345598 -0.00203864)
(0.000581786 -0.00340671 -0.00203864)
(0.00116452 -0.00325393 -0.00203864)
(0.00171186 -0.00300228 -0.00203864)
(0.0022072 -0.0026594 -0.00203864)
(0.00263546 -0.00223573 -0.00203864)
(0.00298365 -0.00174412 -0.00203864)
(0.00324119 -0.00119951 -0.00203864)
(0.00340024 -0.000618464 -0.00203864)
(0.00345598 -1.86223e-05 -0.00203864)
(0.00340671 0.000581786 -0.00203864)
(0.00325393 0.00116452 -0.00203864)
(0.00300228 0.00171186 -0.00203864)
(0.0026594 0.0022072 -0.00203864)
(0.00223573 0.00263546 -0.00203864)
(0.00174412 0.00298365 -0.00203864)
(0.00119951 0.00324119 -0.00203864)
(0.000618464 0.00340024 -0.00203864)
(1.86225e-05 0.00345598 -0.00203864)
(-0.000581785 0.00340671 -0.00203864)
(-0.00116452 0.00325393 -0.00203864)
(-0.00174767 0.00318665 -0.00179339)
(-0.00227448 0.00283476 -0.00179339)
(-0.00273217 0.00239673 -0.00179339)
(-0.00310685 0.00188588 -0.00179339)
(-0.00338713 0.00131773 -0.00179339)
(-0.0035645 0.000709544 -0.00179339)
(-0.00363356 7.97963e-05 -0.00179339)
(-0.00359221 -0.000552376 -0.00179339)
(-0.00344172 -0.00116777 -0.00179339)
(-0.00318665 -0.00174767 -0.00179339)
(-0.00283476 -0.00227448 -0.00179339)
(-0.00239673 -0.00273217 -0.00179339)
(-0.00188588 -0.00310685 -0.00179339)
(-0.00131773 -0.00338713 -0.00179339)
(-0.000709544 -0.0035645 -0.00179339)
(-7.97961e-05 -0.00363356 -0.00179339)
(0.000552377 -0.00359221 -0.00179339)
(0.00116777 -0.00344172 -0.00179339)
(0.00174767 -0.00318665 -0.00179339)
(0.00227448 -0.00283476 -0.00179339)
(0.00273217 -0.00239673 -0.00179339)
(0.00310685 -0.00188588 -0.00179339)
(0.00338713 -0.00131773 -0.00179339)
(0.0035645 -0.000709544 -0.00179339)
(0.00363356 -7.97961e-05 -0.00179339)
(0.00359221 0.000552377 -0.00179339)
(0.00344172 0.00116777 -0.00179339)
(0.00318665 0.00174767 -0.00179339)
(0.00283476 0.00227448 -0.00179339)
(0.00239673 0.00273217 -0.00179339)
(0.00188588 0.00310685 -0.00179339)
(0.00131773 0.00338713 -0.00179339)
(0.000709544 0.0035645 -0.00179339)
(7.97963e-05 0.00363356 -0.00179339)
(-0.000552376 0.00359221 -0.00179339)
(-0.00116777 0.00344172 -0.00179339)
(-0.0018287 0.00332492 -0.00156403)
(-0.00237829 0.00295686 -0.00156403)
(-0.00285561 0.00249895 -0.00156403)
(-0.00324617 0.00196512 -0.00156403)
(-0.00353809 0.00137157 -0.00156403)
(-0.00372251 0.000736352 -0.00156403)
(-0.00379382 7.87595e-05 -0.00156403)
(-0.00374986 -0.000581228 -0.00156403)
(-0.00359196 -0.00122355 -0.00156403)
(-0.00332492 -0.0018287 -0.00156403)
(-0.00295686 -0.00237829 -0.00156403)
(-0.00249895 -0.00285561 -0.00156403)
(-0.00196512 -0.00324617 -0.00156403)
(-0.00137157 -0.00353809 -0.00156403)
(-0.000736352 -0.00372251 -0.00156403)
(-7.87593e-05 -0.00379382 -0.00156403)
(0.000581228 -0.00374986 -0.00156403)
(0.00122356 -0.00359196 -0.00156403)
(0.0018287 -0.00332492 -0.00156403)
(0.00237829 -0.00295686 -0.00156403)
(0.00285561 -0.00249895 -0.00156403)
(0.00324617 -0.00196512 -0.00156403)
(0.00353809 -0.00137157 -0.00156403)
(0.00372251 -0.000736352 -0.00156403)
(0.00379382 -7.87593e-05 -0.00156403)
(0.00374986 0.000581228 -0.00156403)
(0.00359196 0.00122356 -0.00156403)
(0.00332492 0.0018287 -0.00156403)
(0.00295686 0.00237829 -0.00156403)
(0.00249895 0.00285561 -0.00156403)
(0.00196512 0.00324617 -0.00156403)
(0.00137157 0.00353809 -0.00156403)
(0.000736352 0.00372251 -0.00156403)
(7.87595e-05 0.00379382 -0.00156403)
(-0.000581228 0.00374986 -0.00156403)
(-0.00122355 0.00359196 -0.00156403)
(-0.0020178 0.00355432 -0.00250225)
(-0.00260434 0.00314993 -0.00250225)
(-0.00311176 0.00264984 -0.00250225)
(-0.00352462 0.00206923 -0.00250225)
(-0.00383039 0.00142575 -0.00250225)
(-0.00401978 0.000738947 -0.00250225)
(-0.00408703 2.96935e-05 -0.00250225)
(-0.00403009 -0.000680464 -0.00250225)
(-0.00385071 -0.00136994 -0.00250225)
(-0.00355432 -0.0020178 -0.00250225)
(-0.00314993 -0.00260434 -0.00250225)
(-0.00264984 -0.00311176 -0.00250225)
(-0.00206923 -0.00352462 -0.00250225)
(-0.00142575 -0.00383039 -0.00250225)
(-0.000738947 -0.00401978 -0.00250225)
(-2.96932e-05 -0.00408703 -0.00250225)
(0.000680464 -0.00403009 -0.00250225)
(0.00136994 -0.00385071 -0.00250225)
(0.0020178 -0.00355432 -0.00250225)
(0.00260434 -0.00314993 -0.00250225)
(0.00311176 -0.00264984 -0.00250225)
(0.00352462 -0.00206923 -0.00250225)
(0.00383039 -0.00142575 -0.00250225)
(0.00401978 -0.000738947 -0.00250225)
(0.00408703 -2.96933e-05 -0.00250225)
(0.00403009 0.000680464 -0.00250225)
(0.00385071 0.00136994 -0.00250225)
(0.00355432 0.0020178 -0.00250225)
(0.00314993 0.00260434 -0.00250225)
(0.00264984 0.00311176 -0.00250225)
(0.00206923 0.00352462 -0.00250225)
(0.00142575 0.00383039 -0.00250225)
(0.000738947 0.00401978 -0.00250225)
(2.96935e-05 0.00408703 -0.00250225)
(-0.000680464 0.00403009 -0.00250225)
(-0.00136994 0.00385071 -0.00250225)
(-0.002053 0.00365913 -0.00223961)
(-0.00265721 0.00324704 -0.00223961)
(-0.00318068 0.00273629 -0.00223961)
(-0.00360751 0.0021424 -0.00223961)
(-0.00392473 0.00148341 -0.00223961)
(-0.0041227 0.000779354 -0.00223961)
(-0.0041954 5.16143e-05 -0.00223961)
(-0.00414062 -0.000677693 -0.00223961)
(-0.00396004 -0.00138641 -0.00223961)
(-0.00365913 -0.002053 -0.00223961)
(-0.00324704 -0.00265721 -0.00223961)
(-0.00273629 -0.00318068 -0.00223961)
(-0.0021424 -0.00360751 -0.00223961)
(-0.00148341 -0.00392473 -0.00223961)
(-0.000779354 -0.0041227 -0.00223961)
(-5.1614e-05 -0.0041954 -0.00223961)
(0.000677693 -0.00414062 -0.00223961)
(0.00138641 -0.00396004 -0.00223961)
(0.002053 -0.00365913 -0.00223961)
(0.00265721 -0.00324704 -0.00223961)
(0.00318068 -0.00273629 -0.00223961)
(0.00360751 -0.0021424 -0.00223961)
(0.00392473 -0.00148341 -0.00223961)
(0.0041227 -0.000779354 -0.00223961)
(0.0041954 -5.16141e-05 -0.00223961)
(0.00414062 0.000677693 -0.00223961)
(0.00396004 0.00138641 -0.00223961)
(0.00365913 0.002053 -0.00223961)
(0.00324704 0.00265721 -0.00223961)
(0.00273629 0.00318068 -0.00223961)
(0.0021424 0.00360751 -0.00223961)
(0.00148341 0.00392473 -0.00223961)
(0.000779354 0.0041227 -0.00223961)
(5.16143e-05 0.0041954 -0.00223961)
(-0.000677693 0.00414062 -0.00223961)
(-0.00138641 0.00396004 -0.00223961)
(-0.00212866 0.00371331 -0.00199569)
(-0.00274113 0.00328725 -0.00199569)
(-0.00327031 0.00276132 -0.0019957)
(-0.00370012 0.00215149 -0.00199569)
(-0.00401751 0.00147628 -0.00199569)
(-0.00421283 0.000756223 -0.00199569)
(-0.00428014 1.31834e-05 -0.00199569)
(-0.00421741 -0.000730256 -0.00199569)
(-0.00402653 -0.00145151 -0.00199569)
(-0.00371331 -0.00212866 -0.0019957)
(-0.00328725 -0.00274113 -0.00199569)
(-0.00276132 -0.00327031 -0.0019957)
(-0.00215149 -0.00370012 -0.00199569)
(-0.00147628 -0.00401751 -0.00199569)
(-0.000756222 -0.00421283 -0.00199569)
(-1.31832e-05 -0.00428014 -0.0019957)
(0.000730256 -0.00421741 -0.00199569)
(0.00145151 -0.00402653 -0.00199569)
(0.00212866 -0.00371331 -0.0019957)
(0.00274113 -0.00328725 -0.00199569)
(0.00327031 -0.00276132 -0.0019957)
(0.00370012 -0.00215149 -0.00199569)
(0.00401751 -0.00147628 -0.00199569)
(0.00421283 -0.000756222 -0.00199569)
(0.00428014 -1.31832e-05 -0.00199569)
(0.00421741 0.000730256 -0.00199569)
(0.00402653 0.00145151 -0.00199569)
(0.00371331 0.00212866 -0.00199569)
(0.00328725 0.00274113 -0.00199569)
(0.00276132 0.00327031 -0.0019957)
(0.00215149 0.00370012 -0.00199569)
(0.00147628 0.00401751 -0.00199569)
(0.000756223 0.00421283 -0.00199569)
(1.31834e-05 0.00428014 -0.00199569)
(-0.000730256 0.00421741 -0.00199569)
(-0.00145151 0.00402653 -0.00199569)
(-0.00233556 0.00402795 -0.00298154)
(-0.00299953 0.00356119 -0.00298154)
(-0.00357235 0.00298622 -0.00298154)
(-0.00403663 0.00232052 -0.00298154)
(-0.00437826 0.00158432 -0.00298154)
(-0.00458686 0.00079997 -0.00298154)
(-0.00465609 -8.68355e-06 -0.00298154)