/*--------------------------------*- C++ -*----------------------------------*\
| =========                 |                                                 |
| \\      /  F ield         | OpenFOAM: The Open Source CFD Toolbox           |
|  \\    /   O peration     | Version:  2312                                  |
|   \\  /    A nd           | Website:  www.openfoam.com                      |
|    \\/     M anipulation  |                                                 |
\*---------------------------------------------------------------------------*/
FoamFile
{
    version     2.0;
    format      ascii;
    arch        "LSB;label=32;scalar=64";
    class       volVectorField;
    location    "0.7";
    object      D_0_0;
}
// * * * * * * * * * * * * * * * * * * * * * * * * * * * * * * * * * * * * * //

dimensions      [0 1 0 0 0 0 0];

internalField   nonuniform List<vector> 
1620
(
(-0.000241519 0.00020276 -0.000147794)
(-0.000273058 0.00015774 -0.000147794)
(-0.000296302 0.000107927 -0.000147794)
(-0.000310542 5.48359e-05 -0.000147794)
(-0.000315346 7.82833e-08 -0.000147794)
(-0.000310569 -5.46825e-05 -0.000147794)
(-0.000296355 -0.000107782 -0.000147793)
(-0.000273137 -0.000157605 -0.000147793)
(-0.000241619 -0.000202641 -0.000147794)
(-0.00020276 -0.000241519 -0.000147794)
(-0.00015774 -0.000273058 -0.000147794)
(-0.000107927 -0.000296302 -0.000147794)
(-5.48359e-05 -0.000310542 -0.000147794)
(-7.82607e-08 -0.000315346 -0.000147794)
(5.46825e-05 -0.000310569 -0.000147794)
(0.000107782 -0.000296355 -0.000147793)
(0.000157605 -0.000273137 -0.000147793)
(0.000202641 -0.000241619 -0.000147794)
(0.000241519 -0.00020276 -0.000147794)
(0.000273058 -0.00015774 -0.000147794)
(0.000296302 -0.000107927 -0.000147794)
(0.000310542 -5.48359e-05 -0.000147794)
(0.000315346 -7.8257e-08 -0.000147794)
(0.000310569 5.46825e-05 -0.000147794)
(0.000296355 0.000107782 -0.000147793)
(0.000273137 0.000157605 -0.000147793)
(0.000241619 0.000202641 -0.000147794)
(0.00020276 0.000241519 -0.000147794)
(0.00015774 0.000273058 -0.000147794)
(0.000107927 0.000296302 -0.000147794)
(5.48359e-05 0.000310542 -0.000147794)
(7.82874e-08 0.000315346 -0.000147794)
(-5.46824e-05 0.000310569 -0.000147794)
(-0.000107782 0.000296355 -0.000147793)
(-0.000157605 0.000273137 -0.000147793)
(-0.000202641 0.000241619 -0.000147794)
(-0.000164234 0.000299505 -0.00010005)
(-0.000213747 0.000266436 -0.00010005)
(-0.000256766 0.000225271 -0.00010005)
(-0.000291983 0.000177262 -0.00010005)
(-0.000318329 0.000123867 -0.00010005)
(-0.000335002 6.67077e-05 -0.00010005)
(-0.000341496 7.5219e-06 -0.00010005)
(-0.000337614 -5.18924e-05 -0.00010005)
(-0.000323474 -0.00010973 -0.00010005)
(-0.000299505 -0.000164234 -0.00010005)
(-0.000266436 -0.000213747 -0.00010005)
(-0.000225271 -0.000256766 -0.00010005)
(-0.000177262 -0.000291983 -0.00010005)
(-0.000123867 -0.000318329 -0.00010005)
(-6.67077e-05 -0.000335002 -0.00010005)
(-7.52188e-06 -0.000341496 -0.00010005)
(5.18924e-05 -0.000337614 -0.00010005)
(0.00010973 -0.000323474 -0.00010005)
(0.000164234 -0.000299505 -0.00010005)
(0.000213747 -0.000266436 -0.00010005)
(0.000256766 -0.000225271 -0.00010005)
(0.000291983 -0.000177262 -0.00010005)
(0.000318329 -0.000123867 -0.00010005)
(0.000335002 -6.67077e-05 -0.00010005)
(0.000341496 -7.52188e-06 -0.00010005)
(0.000337614 5.18925e-05 -0.00010005)
(0.000323474 0.00010973 -0.00010005)
(0.000299505 0.000164234 -0.00010005)
(0.000266436 0.000213747 -0.00010005)
(0.000225271 0.000256766 -0.00010005)
(0.000177262 0.000291983 -0.00010005)
(0.000123867 0.000318329 -0.00010005)
(6.67077e-05 0.000335002 -0.00010005)
(7.52189e-06 0.000341496 -0.00010005)
(-5.18924e-05 0.000337614 -0.00010005)
(-0.00010973 0.000323474 -0.00010005)
(-0.000115467 0.000399139 -6.45831e-05)
(-0.000183023 0.000373025 -6.45831e-05)
(-0.000245017 0.000335577 -6.45834e-05)
(-0.000299567 0.000287931 -6.45832e-05)
(-0.000345015 0.000231538 -6.45833e-05)
(-0.000379979 0.000168109 -6.45832e-05)
(-0.000403399 9.95724e-05 -6.45833e-05)
(-0.000414561 2.80101e-05 -6.45834e-05)
(-0.000413126 -4.4403e-05 -6.45832e-05)
(-0.000399139 -0.000115467 -6.45832e-05)
(-0.000373025 -0.000183023 -6.45831e-05)
(-0.000335577 -0.000245017 -6.45834e-05)
(-0.000287931 -0.000299567 -6.45832e-05)
(-0.000231538 -0.000345015 -6.45833e-05)
(-0.000168109 -0.000379979 -6.45832e-05)
(-9.95724e-05 -0.000403399 -6.45834e-05)
(-2.80101e-05 -0.000414561 -6.45834e-05)
(4.44031e-05 -0.000413126 -6.45832e-05)
(0.000115467 -0.000399139 -6.45832e-05)
(0.000183023 -0.000373025 -6.45832e-05)
(0.000245017 -0.000335577 -6.45834e-05)
(0.000299567 -0.000287931 -6.45832e-05)
(0.000345015 -0.000231538 -6.45833e-05)
(0.000379979 -0.000168109 -6.45832e-05)
(0.000403399 -9.95723e-05 -6.45833e-05)
(0.000414561 -2.80101e-05 -6.45834e-05)
(0.000413126 4.44031e-05 -6.45832e-05)
(0.000399139 0.000115467 -6.45832e-05)
(0.000373025 0.000183023 -6.45831e-05)
(0.000335577 0.000245017 -6.45834e-05)
(0.000287931 0.000299567 -6.45832e-05)
(0.000231538 0.000345015 -6.45833e-05)
(0.000168109 0.000379979 -6.45832e-05)
(9.95723e-05 0.000403399 -6.45833e-05)
(2.80101e-05 0.000414561 -6.45834e-05)
(-4.44031e-05 0.000413126 -6.45832e-05)
(-0.000557313 0.000711613 -0.000430368)
(-0.000672416 0.000604025 -0.000430369)
(-0.000767089 0.000478085 -0.000430369)
(-0.000838454 0.000337619 -0.000430367)
(-0.000884342 0.000186895 -0.000430367)
(-0.000903361 3.04909e-05 -0.000430367)
(-0.000894932 -0.00012684 -0.000430367)
(-0.000859311 -0.000280316 -0.000430368)
(-0.000797578 -0.000425275 -0.000430368)
(-0.000711613 -0.000557313 -0.000430368)
(-0.000604025 -0.000672416 -0.000430369)
(-0.000478085 -0.000767089 -0.000430369)
(-0.000337619 -0.000838454 -0.000430367)
(-0.000186895 -0.000884342 -0.000430367)
(-3.04908e-05 -0.000903361 -0.000430367)
(0.00012684 -0.000894932 -0.000430367)
(0.000280316 -0.000859311 -0.000430368)
(0.000425275 -0.000797578 -0.000430368)
(0.000557313 -0.000711613 -0.000430368)
(0.000672416 -0.000604025 -0.000430369)
(0.000767089 -0.000478085 -0.000430369)
(0.000838454 -0.000337619 -0.000430367)
(0.000884343 -0.000186895 -0.000430367)
(0.000903361 -3.04908e-05 -0.000430367)
(0.000894932 0.00012684 -0.000430367)
(0.000859311 0.000280316 -0.000430368)
(0.000797578 0.000425275 -0.000430368)
(0.000711613 0.000557313 -0.000430368)
(0.000604025 0.000672416 -0.000430369)
(0.000478085 0.000767089 -0.000430369)
(0.000337619 0.000838454 -0.000430367)
(0.000186895 0.000884343 -0.000430367)
(3.04909e-05 0.000903361 -0.000430367)
(-0.00012684 0.000894932 -0.000430367)
(-0.000280316 0.000859311 -0.000430368)
(-0.000425275 0.000797578 -0.000430368)
(-0.000495918 0.000900037 -0.000319515)
(-0.000644673 0.000800247 -0.000319515)
(-0.000773841 0.000676144 -0.000319516)
(-0.000879496 0.000531497 -0.000319515)
(-0.000958428 0.000370699 -0.000319515)
(-0.00100824 0.000198638 -0.000319515)
(-0.00102741 2.05413e-05 -0.000319515)
(-0.00101537 -0.000158179 -0.000319515)
(-0.000972478 -0.000332094 -0.000319515)
(-0.000900036 -0.000495918 -0.000319515)
(-0.000800247 -0.000644673 -0.000319515)
(-0.000676144 -0.000773841 -0.000319516)
(-0.000531497 -0.000879496 -0.000319515)
(-0.000370699 -0.000958428 -0.000319515)
(-0.000198638 -0.00100824 -0.000319515)
(-2.05412e-05 -0.00102741 -0.000319515)
(0.000158179 -0.00101537 -0.000319515)
(0.000332094 -0.000972478 -0.000319515)
(0.000495918 -0.000900036 -0.000319515)
(0.000644673 -0.000800247 -0.000319515)
(0.000773841 -0.000676144 -0.000319516)
(0.000879496 -0.000531496 -0.000319515)
(0.000958428 -0.000370699 -0.000319515)
(0.00100824 -0.000198638 -0.000319515)
(0.00102741 -2.05412e-05 -0.000319515)
(0.00101537 0.00015818 -0.000319515)
(0.000972478 0.000332094 -0.000319515)
(0.000900036 0.000495918 -0.000319515)
(0.000800247 0.000644673 -0.000319515)
(0.000676144 0.000773841 -0.000319516)
(0.000531497 0.000879496 -0.000319515)
(0.000370699 0.000958428 -0.000319515)
(0.000198638 0.00100824 -0.000319515)
(2.05413e-05 0.00102741 -0.000319515)
(-0.000158179 0.00101537 -0.000319515)
(-0.000332094 0.000972478 -0.000319515)
(-0.000471189 0.00108466 -0.000212498)
(-0.00065238 0.000986363 -0.000212498)
(-0.000813748 0.000858093 -0.000212498)
(-0.000950391 0.000703751 -0.000212498)
(-0.00105816 0.000528026 -0.000212498)
(-0.00113377 0.000336256 -0.000212498)
(-0.00117494 0.000134269 -0.000212498)
(-0.00118041 -7.17962e-05 -0.000212498)
(-0.00115001 -0.000275681 -0.000212498)
(-0.00108466 -0.000471189 -0.000212498)
(-0.000986363 -0.00065238 -0.000212498)
(-0.000858093 -0.000813748 -0.000212498)
(-0.000703751 -0.000950391 -0.000212498)
(-0.000528025 -0.00105816 -0.000212498)
(-0.000336256 -0.00113377 -0.000212498)
(-0.000134269 -0.00117494 -0.000212498)
(7.17963e-05 -0.00118041 -0.000212498)
(0.000275681 -0.00115001 -0.000212498)
(0.000471189 -0.00108466 -0.000212498)
(0.00065238 -0.000986363 -0.000212498)
(0.000813748 -0.000858093 -0.000212498)
(0.000950392 -0.000703751 -0.000212498)
(0.00105816 -0.000528025 -0.000212498)
(0.00113377 -0.000336256 -0.000212498)
(0.00117494 -0.000134269 -0.000212498)
(0.00118041 7.17963e-05 -0.000212498)
(0.00115001 0.000275681 -0.000212498)
(0.00108466 0.000471189 -0.000212498)
(0.000986363 0.00065238 -0.000212498)
(0.000858093 0.000813748 -0.000212498)
(0.000703751 0.000950392 -0.000212498)
(0.000528025 0.00105816 -0.000212498)
(0.000336256 0.00113377 -0.000212498)
(0.000134269 0.00117494 -0.000212498)
(-7.17963e-05 0.00118041 -0.000212498)
(-0.000275681 0.00115001 -0.000212498)
(-0.000858493 0.0012473 -0.000784524)
(-0.00106204 0.00107927 -0.000784525)
(-0.00123332 0.000878456 -0.000784524)
(-0.00136713 0.000650947 -0.000784523)
(-0.00145939 0.00040366 -0.000784522)
(-0.00150732 0.000144107 -0.000784522)
(-0.00150944 -0.000119826 -0.000784522)
(-0.0014657 -0.000380117 -0.000784523)
(-0.00137743 -0.000628859 -0.000784524)
(-0.0012473 -0.000858493 -0.000784525)
(-0.00107927 -0.00106204 -0.000784525)
(-0.000878456 -0.00123332 -0.000784524)
(-0.000650947 -0.00136713 -0.000784523)
(-0.00040366 -0.00145939 -0.000784522)
(-0.000144107 -0.00150732 -0.000784522)
(0.000119826 -0.00150944 -0.000784522)
(0.000380117 -0.0014657 -0.000784523)
(0.000628859 -0.00137743 -0.000784524)
(0.000858493 -0.0012473 -0.000784525)
(0.00106204 -0.00107927 -0.000784525)
(0.00123332 -0.000878456 -0.000784525)
(0.00136713 -0.000650947 -0.000784523)
(0.00145939 -0.00040366 -0.000784522)
(0.00150732 -0.000144107 -0.000784522)
(0.00150944 0.000119826 -0.000784522)
(0.0014657 0.000380117 -0.000784523)
(0.00137743 0.000628859 -0.000784524)
(0.0012473 0.000858493 -0.000784524)
(0.00107927 0.00106204 -0.000784524)
(0.000878456 0.00123332 -0.000784524)
(0.000650947 0.00136713 -0.000784523)
(0.00040366 0.00145939 -0.000784522)
(0.000144107 0.00150732 -0.000784522)
(-0.000119826 0.00150944 -0.000784522)
(-0.000380117 0.0014657 -0.000784523)
(-0.000628859 0.00137743 -0.000784524)
(-0.00082226 0.0014993 -0.000620278)
(-0.00107012 0.00133374 -0.000620278)
(-0.00128546 0.00112765 -0.000620278)
(-0.00146175 0.000887301 -0.000620278)
(-0.00159362 0.000619992 -0.000620277)
(-0.00167707 0.000333843 -0.000620277)
(-0.00170956 3.75516e-05 -0.000620277)
(-0.00169011 -0.000259881 -0.000620278)
(-0.0016193 -0.000549417 -0.000620278)
(-0.0014993 -0.00082226 -0.000620278)
(-0.00133374 -0.00107012 -0.000620278)
(-0.00112765 -0.00128546 -0.000620278)
(-0.000887301 -0.00146175 -0.000620278)
(-0.000619991 -0.00159362 -0.000620277)
(-0.000333843 -0.00167707 -0.000620277)
(-3.75515e-05 -0.00170956 -0.000620277)
(0.000259881 -0.00169011 -0.000620278)
(0.000549417 -0.0016193 -0.000620278)
(0.00082226 -0.0014993 -0.000620278)
(0.00107012 -0.00133374 -0.000620278)
(0.00128546 -0.00112765 -0.000620278)
(0.00146175 -0.000887301 -0.000620278)
(0.00159362 -0.000619991 -0.000620277)
(0.00167707 -0.000333843 -0.000620277)
(0.00170956 -3.75515e-05 -0.000620277)
(0.00169011 0.000259882 -0.000620278)
(0.0016193 0.000549417 -0.000620278)
(0.0014993 0.00082226 -0.000620278)
(0.00133374 0.00107012 -0.000620278)
(0.00112765 0.00128546 -0.000620278)
(0.000887301 0.00146175 -0.000620278)
(0.000619991 0.00159362 -0.000620277)
(0.000333843 0.00167707 -0.000620277)
(3.75516e-05 0.00170956 -0.000620277)
(-0.000259881 0.00169011 -0.000620278)
(-0.000549417 0.0016193 -0.000620278)
(-0.000828983 0.00173742 -0.000461279)
(-0.00111809 0.00156707 -0.000461279)
(-0.00137322 0.00134911 -0.000461279)
(-0.00158663 0.00109016 -0.000461279)
(-0.00175183 0.000798079 -0.000461279)
(-0.0018638 0.000481752 -0.000461279)
(-0.00191914 0.000150788 -0.000461279)
(-0.00191617 -0.000184758 -0.000461279)
(-0.00185497 -0.00051469 -0.000461279)
(-0.00173742 -0.000828983 -0.000461279)
(-0.00156707 -0.00111809 -0.000461279)
(-0.00134911 -0.00137322 -0.000461279)
(-0.00109016 -0.00158663 -0.000461279)
(-0.000798079 -0.00175183 -0.000461279)
(-0.000481752 -0.0018638 -0.000461279)
(-0.000150788 -0.00191914 -0.000461279)
(0.000184758 -0.00191617 -0.000461279)
(0.00051469 -0.00185497 -0.000461279)
(0.000828983 -0.00173742 -0.000461279)
(0.00111809 -0.00156707 -0.000461279)
(0.00137322 -0.00134911 -0.000461279)
(0.00158663 -0.00109016 -0.000461279)
(0.00175183 -0.000798079 -0.000461279)
(0.0018638 -0.000481752 -0.000461279)
(0.00191914 -0.000150788 -0.000461279)
(0.00191617 0.000184758 -0.000461279)
(0.00185497 0.00051469 -0.000461279)
(0.00173742 0.000828983 -0.000461279)
(0.00156707 0.00111809 -0.000461279)
(0.00134911 0.00137322 -0.000461279)
(0.00109016 0.00158663 -0.000461279)
(0.000798079 0.00175183 -0.000461279)
(0.000481752 0.0018638 -0.000461279)
(0.000150788 0.00191914 -0.000461279)
(-0.000184758 0.00191617 -0.000461279)
(-0.00051469 0.00185497 -0.000461279)
(-0.00114303 0.00181671 -0.00118178)
(-0.00144113 0.00159062 -0.00118178)
(-0.00169544 0.00131621 -0.00118178)
(-0.00189824 0.0010018 -0.00118178)
(-0.00204337 0.000656956 -0.00118178)
(-0.0021264 0.000292149 -0.00118178)
(-0.00214483 -8.15358e-05 -0.00118178)
(-0.00209808 -0.000452743 -0.00118178)
(-0.00198759 -0.000810193 -0.00118178)
(-0.00181671 -0.00114303 -0.00118178)
(-0.00159062 -0.00144113 -0.00118178)
(-0.00131621 -0.00169544 -0.00118178)
(-0.0010018 -0.00189824 -0.00118178)
(-0.000656956 -0.00204337 -0.00118178)
(-0.000292149 -0.0021264 -0.00118178)
(8.15359e-05 -0.00214483 -0.00118178)
(0.000452743 -0.00209808 -0.00118178)
(0.000810194 -0.00198759 -0.00118178)
(0.00114303 -0.00181671 -0.00118178)
(0.00144113 -0.00159062 -0.00118178)
(0.00169544 -0.00131621 -0.00118178)
(0.00189824 -0.0010018 -0.00118178)
(0.00204337 -0.000656956 -0.00118178)
(0.0021264 -0.000292149 -0.00118178)
(0.00214483 8.15359e-05 -0.00118178)
(0.00209808 0.000452743 -0.00118178)
(0.00198759 0.000810194 -0.00118178)
(0.00181671 0.00114303 -0.00118178)
(0.00159062 0.00144113 -0.00118178)
(0.00131621 0.00169544 -0.00118178)
(0.0010018 0.00189824 -0.00118178)
(0.000656956 0.00204337 -0.00118178)
(0.000292149 0.0021264 -0.00118178)
(-8.15358e-05 0.00214483 -0.00118178)
(-0.000452743 0.00209808 -0.00118178)
(-0.000810193 0.00198759 -0.00118178)
(-0.001138 0.002088 -0.000978699)
(-0.00148328 0.00185867 -0.000978699)
(-0.0017835 0.00157286 -0.000978699)
(-0.00202953 0.00123926 -0.000978698)
(-0.0022139 0.000868012 -0.000978698)
(-0.00233099 0.000470386 -0.000978698)
(-0.00237726 5.84673e-05 -0.000978698)
(-0.0023513 -0.000355228 -0.000978698)
(-0.00225389 -0.00075813 -0.000978698)
(-0.002088 -0.001138 -0.000978699)
(-0.00185867 -0.00148328 -0.000978699)
(-0.00157286 -0.0017835 -0.000978699)
(-0.00123926 -0.00202953 -0.000978698)
(-0.000868012 -0.0022139 -0.000978698)
(-0.000470386 -0.00233099 -0.000978698)
(-5.84672e-05 -0.00237726 -0.000978698)
(0.000355228 -0.0023513 -0.000978698)
(0.00075813 -0.00225389 -0.000978698)
(0.001138 -0.002088 -0.000978699)
(0.00148328 -0.00185867 -0.000978699)
(0.0017835 -0.00157286 -0.000978699)
(0.00202953 -0.00123926 -0.000978698)
(0.0022139 -0.000868012 -0.000978698)
(0.00233099 -0.000470386 -0.000978698)
(0.00237726 -5.84671e-05 -0.000978698)
(0.0023513 0.000355228 -0.000978698)
(0.00225389 0.00075813 -0.000978698)
(0.002088 0.001138 -0.000978699)
(0.00185867 0.00148328 -0.000978699)
(0.00157286 0.0017835 -0.000978699)
(0.00123926 0.00202953 -0.000978698)
(0.000868012 0.0022139 -0.000978698)
(0.000470386 0.00233099 -0.000978698)
(5.84672e-05 0.00237726 -0.000978698)
(-0.000355228 0.0023513 -0.000978698)
(-0.00075813 0.00225389 -0.000978698)
(-0.00118011 0.00233301 -0.000784427)
(-0.00156731 0.00209264 -0.000784427)
(-0.00190688 0.00178869 -0.000784427)
(-0.00218851 0.00143039 -0.000784427)
(-0.00240365 0.00102863 -0.000784427)
(-0.00254575 0.000595612 -0.000784427)
(-0.0026105 0.000144497 -0.000784428)
(-0.00259593 -0.000311007 -0.000784428)
(-0.00250249 -0.000757061 -0.000784427)
(-0.00233301 -0.00118011 -0.000784427)
(-0.00209264 -0.00156731 -0.000784428)
(-0.00178869 -0.00190688 -0.000784427)
(-0.00143039 -0.00218851 -0.000784427)
(-0.00102863 -0.00240365 -0.000784427)
(-0.000595611 -0.00254575 -0.000784427)
(-0.000144497 -0.0026105 -0.000784428)
(0.000311007 -0.00259593 -0.000784428)
(0.000757061 -0.00250249 -0.000784427)
(0.00118011 -0.00233301 -0.000784427)
(0.00156731 -0.00209264 -0.000784428)
(0.00190688 -0.00178869 -0.000784427)
(0.00218851 -0.00143039 -0.000784427)
(0.00240365 -0.00102863 -0.000784427)
(0.00254575 -0.000595611 -0.000784427)
(0.0026105 -0.000144497 -0.000784428)
(0.00259593 0.000311007 -0.000784428)
(0.00250249 0.000757061 -0.000784427)
(0.00233301 0.00118011 -0.000784427)
(0.00209264 0.00156731 -0.000784428)
(0.00178869 0.00190688 -0.000784427)
(0.00143039 0.00218851 -0.000784427)
(0.00102863 0.00240365 -0.000784427)
(0.000595612 0.00254575 -0.000784427)
(0.000144497 0.0026105 -0.000784427)
(-0.000311007 0.00259593 -0.000784428)
(-0.000757061 0.00250249 -0.000784427)
(-0.00142369 0.00240935 -0.00160629)
(-0.00182044 0.00212553 -0.00160629)
(-0.00216188 0.00177712 -0.00160629)
(-0.00243763 0.00137472 -0.00160629)
(-0.00263931 0.000930541 -0.00160629)
(-0.0027608 0.000458091 -0.00160629)
(-0.00279841 -2.82767e-05 -0.00160629)
(-0.00275098 -0.000513786 -0.00160629)
(-0.00261997 -0.000983684 -0.00160629)
(-0.00240935 -0.00142369 -0.00160629)
(-0.00212553 -0.00182044 -0.00160629)
(-0.00177712 -0.00216188 -0.00160629)
(-0.00137472 -0.00243763 -0.00160629)
(-0.000930541 -0.00263931 -0.00160629)
(-0.000458091 -0.0027608 -0.00160629)
(2.82769e-05 -0.00279841 -0.00160629)
(0.000513787 -0.00275098 -0.00160629)
(0.000983684 -0.00261997 -0.00160629)
(0.00142369 -0.00240935 -0.00160629)
(0.00182044 -0.00212553 -0.00160629)
(0.00216188 -0.00177712 -0.00160629)
(0.00243763 -0.00137472 -0.00160629)
(0.00263931 -0.000930541 -0.00160629)
(0.0027608 -0.000458091 -0.00160629)
(0.00279841 2.82769e-05 -0.00160629)
(0.00275098 0.000513787 -0.00160629)
(0.00261997 0.000983684 -0.00160629)
(0.00240935 0.00142369 -0.00160629)
(0.00212553 0.00182044 -0.00160629)
(0.00177712 0.00216188 -0.00160629)
(0.00137472 0.00243763 -0.00160629)
(0.000930541 0.00263931 -0.00160629)
(0.000458091 0.0027608 -0.00160629)
(-2.82768e-05 0.00279841 -0.00160629)
(-0.000513786 0.00275098 -0.00160629)
(-0.000983684 0.00261997 -0.00160629)
(-0.00144562 0.0026557 -0.00137767)
(-0.00188481 0.00236432 -0.00137767)
(-0.00226674 0.00200111 -0.00137767)
(-0.00257979 0.00157709 -0.00137767)
(-0.00281446 0.00110516 -0.00137767)
(-0.00296361 0.000599644 -0.00137767)
(-0.00302271 7.59089e-05 -0.00137767)
(-0.00298997 -0.000450133 -0.00137767)
(-0.00286638 -0.000962497 -0.00137767)
(-0.0026557 -0.00144562 -0.00137767)
(-0.00236432 -0.00188481 -0.00137767)
(-0.00200111 -0.00226674 -0.00137767)
(-0.00157709 -0.00257979 -0.00137767)
(-0.00110516 -0.00281446 -0.00137767)
(-0.000599644 -0.00296361 -0.00137767)
(-7.59087e-05 -0.00302271 -0.00137767)
(0.000450133 -0.00298997 -0.00137767)
(0.000962498 -0.00286638 -0.00137767)
(0.00144562 -0.0026557 -0.00137767)
(0.00188481 -0.00236432 -0.00137767)
(0.00226674 -0.00200111 -0.00137767)
(0.00257979 -0.00157709 -0.00137767)
(0.00281446 -0.00110516 -0.00137767)
(0.00296361 -0.000599644 -0.00137767)
(0.00302271 -7.59087e-05 -0.00137767)
(0.00298997 0.000450133 -0.00137767)
(0.00286638 0.000962498 -0.00137767)
(0.0026557 0.00144562 -0.00137767)
(0.00236432 0.00188481 -0.00137767)
(0.00200111 0.00226674 -0.00137767)
(0.00157709 0.00257979 -0.00137767)
(0.00110516 0.00281446 -0.00137767)
(0.000599644 0.00296361 -0.00137767)
(7.59089e-05 0.00302271 -0.00137767)
(-0.000450133 0.00298997 -0.00137767)
(-0.000962497 0.00286638 -0.00137767)
(-0.00151551 0.00286418 -0.00116175)
(-0.00198985 0.0025575 -0.00116175)
(-0.00240372 0.00217311 -0.00116175)
(-0.00274456 0.0017227 -0.00116175)
(-0.00300201 0.00121994 -0.00116175)
(-0.00316824 0.00068011 -0.00116175)
(-0.00323821 0.000119619 -0.00116175)
(-0.00320978 -0.000444508 -0.00116175)
(-0.00308383 -0.000995128 -0.00116175)
(-0.00286418 -0.00151551 -0.00116175)
(-0.0025575 -0.00198985 -0.00116175)
(-0.00217311 -0.00240372 -0.00116175)
(-0.0017227 -0.00274456 -0.00116175)
(-0.00121994 -0.00300201 -0.00116175)
(-0.00068011 -0.00316824 -0.00116175)
(-0.000119618 -0.00323821 -0.00116175)
(0.000444508 -0.00320978 -0.00116175)
(0.000995128 -0.00308383 -0.00116175)
(0.00151551 -0.00286418 -0.00116175)
(0.00198985 -0.0025575 -0.00116175)
(0.00240372 -0.00217311 -0.00116175)
(0.00274456 -0.0017227 -0.00116175)
(0.00300201 -0.00121994 -0.00116175)
(0.00316824 -0.00068011 -0.00116175)
(0.00323821 -0.000119618 -0.00116175)
(0.00320978 0.000444508 -0.00116175)
(0.00308383 0.000995128 -0.00116175)
(0.00286418 0.00151551 -0.00116175)
(0.0025575 0.00198985 -0.00116175)
(0.00217311 0.00240372 -0.00116175)
(0.0017227 0.00274456 -0.00116175)
(0.00121994 0.00300201 -0.00116175)
(0.00068011 0.00316824 -0.00116175)
(0.000119619 0.00323821 -0.00116175)
(-0.000444508 0.00320978 -0.00116175)
(-0.000995128 0.00308383 -0.00116175)
(-0.00171343 0.00300035 -0.00205201)
(-0.00220841 0.00265723 -0.00205201)
(-0.00263628 0.00223338 -0.00205201)
(-0.00298405 0.00174166 -0.00205201)
(-0.00324115 0.00119703 -0.00205201)
(-0.00339977 0.000616023 -0.00205201)
(-0.0034551 1.62997e-05 -0.00205201)
(-0.00340544 -0.00058392 -0.00205201)
(-0.0032523 -0.0011664 -0.00205201)
(-0.00300035 -0.00171343 -0.00205201)
(-0.00265723 -0.00220841 -0.00205201)
(-0.00223338 -0.00263628 -0.00205201)
(-0.00174166 -0.00298405 -0.00205201)
(-0.00119703 -0.00324115 -0.00205201)
(-0.000616023 -0.00339977 -0.00205201)
(-1.62994e-05 -0.0034551 -0.00205201)
(0.00058392 -0.00340544 -0.00205201)
(0.0011664 -0.0032523 -0.00205201)
(0.00171343 -0.00300035 -0.00205201)
(0.00220841 -0.00265723 -0.00205201)
(0.00263628 -0.00223338 -0.00205201)
(0.00298405 -0.00174166 -0.00205201)
(0.00324115 -0.00119703 -0.00205201)
(0.00339977 -0.000616023 -0.00205201)
(0.0034551 -1.62994e-05 -0.00205201)
(0.00340544 0.00058392 -0.00205201)
(0.0032523 0.0011664 -0.00205201)
(0.00300035 0.00171343 -0.00205201)
(0.00265723 0.00220841 -0.00205201)
(0.00223338 0.00263628 -0.00205201)
(0.00174166 0.00298405 -0.00205201)
(0.00119703 0.00324115 -0.00205201)
(0.000616023 0.00339977 -0.00205201)
(1.62996e-05 0.0034551 -0.00205201)
(-0.00058392 0.00340544 -0.00205201)
(-0.0011664 0.0032523 -0.00205201)
(-0.00175043 0.00318782 -0.00180497)
(-0.0022774 0.00283543 -0.00180497)
(-0.00273517 0.00239689 -0.00180497)
(-0.00310983 0.00188552 -0.00180497)
(-0.00339 0.00131686 -0.00180497)
(-0.00356717 0.000708184 -0.00180497)
(-0.00363595 7.79923e-05 -0.00180497)
(-0.00359426 -0.000554569 -0.00180497)
(-0.00344335 -0.00117028 -0.00180497)
(-0.00318782 -0.00175043 -0.00180497)
(-0.00283543 -0.0022774 -0.00180497)
(-0.00239689 -0.00273517 -0.00180497)
(-0.00188552 -0.00310983 -0.00180497)
(-0.00131686 -0.00339 -0.00180497)
(-0.000708184 -0.00356717 -0.00180497)
(-7.79921e-05 -0.00363595 -0.00180497)
(0.00055457 -0.00359426 -0.00180497)
(0.00117028 -0.00344335 -0.00180497)
(0.00175043 -0.00318782 -0.00180497)
(0.0022774 -0.00283543 -0.00180497)
(0.00273517 -0.00239689 -0.00180497)
(0.00310983 -0.00188552 -0.00180497)
(0.00339 -0.00131686 -0.00180497)
(0.00356717 -0.000708184 -0.00180497)
(0.00363595 -7.79921e-05 -0.00180497)
(0.00359426 0.00055457 -0.00180497)
(0.00344335 0.00117028 -0.00180497)
(0.00318782 0.00175043 -0.00180497)
(0.00283543 0.0022774 -0.00180497)
(0.00239689 0.00273517 -0.00180497)
(0.00188552 0.00310983 -0.00180497)
(0.00131686 0.00339 -0.00180497)
(0.000708184 0.00356717 -0.00180497)
(7.79923e-05 0.00363595 -0.00180497)
(-0.000554569 0.00359426 -0.00180497)
(-0.00117028 0.00344335 -0.00180497)
(-0.00183316 0.00332856 -0.00157413)
(-0.0023833 0.00295966 -0.00157413)
(-0.00286104 0.00250084 -0.00157413)
(-0.00325184 0.00196604 -0.00157413)
(-0.00354383 0.00137149 -0.00157413)
(-0.00372815 0.000735276 -0.00157413)
(-0.00379919 7.67196e-05 -0.00157413)
(-0.00375479 -0.000584169 -0.00157413)
(-0.00359631 -0.00122731 -0.00157413)
(-0.00332855 -0.00183316 -0.00157413)
(-0.00295966 -0.0023833 -0.00157413)
(-0.00250084 -0.00286104 -0.00157413)
(-0.00196604 -0.00325184 -0.00157413)
(-0.00137149 -0.00354383 -0.00157413)
(-0.000735275 -0.00372815 -0.00157413)
(-7.67194e-05 -0.00379919 -0.00157413)
(0.00058417 -0.00375479 -0.00157413)
(0.00122731 -0.00359631 -0.00157413)
(0.00183316 -0.00332855 -0.00157413)
(0.0023833 -0.00295966 -0.00157413)
(0.00286104 -0.00250084 -0.00157413)
(0.00325184 -0.00196604 -0.00157413)
(0.00354383 -0.00137149 -0.00157413)
(0.00372815 -0.000735275 -0.00157413)
(0.00379919 -7.67194e-05 -0.00157413)
(0.00375479 0.00058417 -0.00157413)
(0.00359631 0.00122731 -0.00157413)
(0.00332856 0.00183316 -0.00157413)
(0.00295966 0.0023833 -0.00157413)
(0.00250084 0.00286104 -0.00157413)
(0.00196604 0.00325184 -0.00157413)
(0.00137149 0.00354383 -0.00157413)
(0.000735276 0.00372815 -0.00157413)
(7.67196e-05 0.00379919 -0.00157413)
(-0.00058417 0.0037548 -0.00157413)
(-0.00122731 0.00359631 -0.00157413)
(-0.00201967 0.00355509 -0.00251732)
(-0.00260632 0.00315037 -0.00251732)
(-0.00311378 0.00264993 -0.00251732)
(-0.00352663 0.00206896 -0.00251732)
(-0.00383233 0.00142514 -0.00251732)
(-0.00402158 0.000738011 -0.00251732)
(-0.00408863 2.84595e-05 -0.00251732)
(-0.00403146 -0.000681958 -0.00251732)
(-0.00385179 -0.00137165 -0.00251732)
(-0.00355509 -0.00201967 -0.00251732)
(-0.00315037 -0.00260632 -0.00251732)
(-0.00264992 -0.00311378 -0.00251732)
(-0.00206896 -0.00352663 -0.00251732)
(-0.00142514 -0.00383233 -0.00251732)
(-0.000738011 -0.00402158 -0.00251732)
(-2.84593e-05 -0.00408863 -0.00251732)
(0.000681958 -0.00403146 -0.00251732)
(0.00137165 -0.00385179 -0.00251732)
(0.00201967 -0.00355509 -0.00251732)
(0.00260632 -0.00315037 -0.00251732)
(0.00311378 -0.00264992 -0.00251732)
(0.00352663 -0.00206896 -0.00251732)
(0.00383233 -0.00142514 -0.00251732)
(0.00402158 -0.000738011 -0.00251732)
(0.00408863 -2.84593e-05 -0.00251732)
(0.00403146 0.000681958 -0.00251732)
(0.00385179 0.00137165 -0.00251732)
(0.00355509 0.00201967 -0.00251732)
(0.00315037 0.00260632 -0.00251732)
(0.00264993 0.00311378 -0.00251732)
(0.00206896 0.00352663 -0.00251732)
(0.00142514 0.00383233 -0.00251732)
(0.000738011 0.00402158 -0.00251732)
(2.84595e-05 0.00408863 -0.00251732)
(-0.000681958 0.00403146 -0.00251732)
(-0.00137165 0.00385179 -0.00251732)
(-0.00205615 0.00366239 -0.00225283)
(-0.00266088 0.0032497 -0.00225283)
(-0.00318476 0.00273828 -0.00225283)
(-0.00361187 0.00214365 -0.00225283)
(-0.00392924 0.00148389 -0.00225283)
(-0.00412722 0.000779042 -0.00225283)
(-0.0041998 5.05212e-05 -0.00225283)
(-0.00414476 -0.000679533 -0.00225283)
(-0.0039638 -0.00138894 -0.00225283)
(-0.00366239 -0.00205615 -0.00225283)
(-0.0032497 -0.00266088 -0.00225283)
(-0.00273828 -0.00318476 -0.00225283)
(-0.00214365 -0.00361187 -0.00225283)
(-0.00148389 -0.00392924 -0.00225283)
(-0.000779041 -0.00412722 -0.00225283)
(-5.0521e-05 -0.0041998 -0.00225283)
(0.000679533 -0.00414476 -0.00225283)
(0.00138894 -0.0039638 -0.00225283)
(0.00205615 -0.00366239 -0.00225283)
(0.00266088 -0.0032497 -0.00225283)
(0.00318476 -0.00273828 -0.00225283)
(0.00361187 -0.00214365 -0.00225283)
(0.00392924 -0.00148389 -0.00225283)
(0.00412722 -0.000779041 -0.00225283)
(0.0041998 -5.0521e-05 -0.00225283)
(0.00414476 0.000679533 -0.00225283)
(0.0039638 0.00138894 -0.00225283)
(0.00366239 0.00205615 -0.00225283)
(0.0032497 0.00266088 -0.00225283)
(0.00273828 0.00318476 -0.00225283)
(0.00214365 0.00361187 -0.00225283)
(0.00148389 0.00392924 -0.00225283)
(0.000779042 0.00412722 -0.00225283)
(5.05212e-05 0.0041998 -0.00225283)
(-0.000679533 0.00414476 -0.00225283)
(-0.00138894 0.0039638 -0.00225283)
(-0.00213351 0.0037183 -0.00200745)
(-0.00274678 0.00329133 -0.00200745)
(-0.00327658 0.00276436 -0.00200745)
(-0.00370683 0.00215339 -0.00200745)
(-0.00402445 0.00147699 -0.00200745)
(-0.00421978 0.000755714 -0.00200745)
(-0.0042869 1.14754e-05 -0.00200745)
(-0.00422377 -0.000733112 -0.00200745)
(-0.0040323 -0.00145542 -0.00200745)
(-0.0037183 -0.00213351 -0.00200745)
(-0.00329133 -0.00274678 -0.00200745)
(-0.00276436 -0.00327658 -0.00200745)
(-0.00215339 -0.00370683 -0.00200745)
(-0.00147699 -0.00402445 -0.00200745)
(-0.000755714 -0.00421978 -0.00200745)
(-1.14752e-05 -0.0042869 -0.00200745)
(0.000733112 -0.00422377 -0.00200745)
(0.00145542 -0.0040323 -0.00200745)
(0.00213352 -0.0037183 -0.00200745)
(0.00274678 -0.00329133 -0.00200745)
(0.00327658 -0.00276436 -0.00200745)
(0.00370683 -0.00215339 -0.00200745)
(0.00402445 -0.00147699 -0.00200745)
(0.00421978 -0.000755714 -0.00200745)
(0.0042869 -1.14752e-05 -0.00200745)
(0.00422377 0.000733112 -0.00200745)
(0.0040323 0.00145542 -0.00200745)
(0.0037183 0.00213352 -0.00200745)
(0.00329133 0.00274678 -0.00200745)
(0.00276436 0.00327658 -0.00200745)
(0.00215339 0.00370683 -0.00200745)
(0.00147699 0.00402445 -0.00200745)
(0.000755714 0.00421978 -0.00200745)
(1.14754e-05 0.0042869 -0.00200745)
(-0.000733112 0.00422377 -0.00200745)
(-0.00145542 0.0040323 -0.00200745)
(-0.00233827 0.00403151 -0.00299847)
(-0.00300281 0.00356423 -0.00299847)
(-0.00357611 0.00298864 -0.00299847)
(-0.00404075 0.00232225 -0.00299847)
(-0.00438262 0.0015853 -0.00299847)
(-0.00459133 0.000800187 -0.00299847)
(-0.00466052 -9.24554e-06 -0.00299847)