/*--------------------------------*- C++ -*----------------------------------*\
| =========                 |                                                 |
| \\      /  F ield         | OpenFOAM: The Open Source CFD Toolbox           |
|  \\    /   O peration     | Version:  2312                                  |
|   \\  /    A nd           | Website:  www.openfoam.com                      |
|    \\/     M anipulation  |                                                 |
\*---------------------------------------------------------------------------*/
FoamFile
{
    version     2.0;
    format      ascii;
    arch        "LSB;label=32;scalar=64";
    class       volScalarField;
    location    "0.7";
    object      sigmaHyd;
}
// * * * * * * * * * * * * * * * * * * * * * * * * * * * * * * * * * * * * * //

dimensions      [1 -1 -2 0 0 0 0];

internalField   nonuniform List<scalar> 
1620
(
22694.3
22694.3
22694.3
22694.1
22694.1
22694.2
22694.2
22694.3
22694.3
22694.3
22694.3
22694.3
22694.1
22694.1
22694.2
22694.2
22694.3
22694.3
22694.3
22694.3
22694.3
22694.1
22694.1
22694.2
22694.2
22694.3
22694.3
22694.3
22694.3
22694.3
22694.1
22694.1
22694.2
22694.2
22694.3
22694.3
14347.9
14347.9
14347.8
14347.9
14347.9
14347.8
14347.9
14347.9
14347.8
14347.9
14347.9
14347.8
14347.9
14347.9
14347.8
14347.9
14347.9
14347.8
14347.9
14347.9
14347.8
14347.9
14347.9
14347.8
14347.9
14347.9
14347.8
14347.9
14347.9
14347.8
14347.9
14347.9
14347.8
14347.9
14347.9
14347.8
105.315
105.317
105.151
105.124
105.261
105.25
105.279
105.171
105.269
105.318
105.32
105.154
105.126
105.263
105.253
105.281
105.173
105.271
105.32
105.321
105.154
105.126
105.263
105.251
105.28
105.17
105.269
105.317
105.318
105.151
105.123
105.259
105.248
105.276
105.167
105.266
7389.63
7389.64
7389.78
7389.55
7389.59
7389.67
7389.52
7389.68
7389.65
7389.63
7389.64
7389.78
7389.55
7389.59
7389.66
7389.52
7389.68
7389.65
7389.63
7389.64
7389.78
7389.54
7389.59
7389.66
7389.52
7389.68
7389.65
7389.63
7389.64
7389.78
7389.54
7389.59
7389.66
7389.52
7389.68
7389.65
-2518.52
-2518.51
-2518.61
-2518.36
-2518.42
-2518.6
-2518.38
-2518.61
-2518.52
-2518.52
-2518.51
-2518.62
-2518.36
-2518.42
-2518.6
-2518.38
-2518.61
-2518.52
-2518.52
-2518.51
-2518.62
-2518.36
-2518.42
-2518.6
-2518.38
-2518.61
-2518.52
-2518.52
-2518.51
-2518.62
-2518.36
-2518.42
-2518.6
-2518.38
-2518.61
-2518.51
-19590.6
-19590.8
-19590.7
-19590.8
-19590.7
-19590.5
-19590.6
-19590.6
-19590.6
-19590.6
-19590.8
-19590.7
-19590.8
-19590.7
-19590.5
-19590.6
-19590.6
-19590.6
-19590.6
-19590.8
-19590.7
-19590.8
-19590.7
-19590.5
-19590.6
-19590.6
-19590.6
-19590.6
-19590.8
-19590.7
-19590.8
-19590.7
-19590.5
-19590.6
-19590.6
-19590.6
8758.65
8758.39
8758.63
8758.42
8758.58
8758.66
8758.36
8758.52
8758.37
8758.65
8758.39
8758.63
8758.42
8758.59
8758.66
8758.36
8758.52
8758.37
8758.65
8758.39
8758.63
8758.42
8758.59
8758.66
8758.36
8758.52
8758.37
8758.65
8758.39
8758.63
8758.42
8758.59
8758.66
8758.36
8758.52
8758.37
-2430.47
-2430.23
-2430.47
-2430.23
-2430.29
-2430.5
-2430.3
-2430.5
-2430.24
-2430.47
-2430.23
-2430.46
-2430.23
-2430.28
-2430.5
-2430.3
-2430.5
-2430.24
-2430.47
-2430.23
-2430.46
-2430.23
-2430.29
-2430.5
-2430.3
-2430.5
-2430.24
-2430.47
-2430.23
-2430.46
-2430.23
-2430.29
-2430.5
-2430.3
-2430.51
-2430.24
-21732.5
-21732.7
-21732.4
-21732.5
-21732.6
-21732.5
-21732.7
-21732.4
-21732.5
-21732.5
-21732.7
-21732.4
-21732.5
-21732.6
-21732.5
-21732.7
-21732.4
-21732.5
-21732.5
-21732.7
-21732.4
-21732.5
-21732.6
-21732.5
-21732.7
-21732.4
-21732.5
-21732.5
-21732.7
-21732.4
-21732.5
-21732.6
-21732.5
-21732.7
-21732.4
-21732.5
9304.64
9304.66
9304.59
9304.7
9304.7
9304.73
9304.74
9304.57
9304.66
9304.64
9304.66
9304.59
9304.7
9304.7
9304.73
9304.74
9304.57
9304.66
9304.64
9304.66
9304.59
9304.7
9304.7
9304.73
9304.74
9304.57
9304.66
9304.64
9304.66
9304.59
9304.7
9304.7
9304.73
9304.73
9304.57
9304.66
-2631.7
-2631.77
-2631.74
-2631.63
-2631.77
-2631.7
-2631.75
-2631.74
-2631.7
-2631.7
-2631.77
-2631.74
-2631.63
-2631.77
-2631.7
-2631.75
-2631.74
-2631.7
-2631.7
-2631.77
-2631.74
-2631.63
-2631.77
-2631.7
-2631.75
-2631.74
-2631.7
-2631.7
-2631.77
-2631.74
-2631.63
-2631.77
-2631.7
-2631.75
-2631.74
-2631.71
-24723.9
-24724
-24723.9
-24724
-24724
-24723.9
-24724
-24723.9
-24723.9
-24723.9
-24724
-24723.9
-24724
-24724
-24723.9
-24724
-24723.9
-24723.9
-24723.9
-24724
-24723.9
-24724
-24724
-24723.9
-24724
-24723.9
-24723.9
-24723.9
-24724
-24723.9
-24724
-24724
-24723.9
-24724
-24723.9
-24723.9
9407.79
9407.93
9407.73
9407.97
9407.83
9407.76
9408.03
9407.68
9407.9
9407.79
9407.93
9407.73
9407.97
9407.83
9407.76
9408.03
9407.68
9407.9
9407.79
9407.93
9407.73
9407.97
9407.83
9407.76
9408.03
9407.68
9407.9
9407.79
9407.93
9407.73
9407.97
9407.83
9407.76
9408.03
9407.68
9407.9
-3005.45
-3005.77
-3005.43
-3005.67
-3005.61
-3005.44
-3005.69
-3005.5
-3005.58
-3005.45
-3005.77
-3005.43
-3005.67
-3005.61
-3005.44
-3005.69
-3005.5
-3005.58
-3005.45
-3005.77
-3005.43
-3005.67
-3005.61
-3005.44
-3005.69
-3005.5
-3005.58
-3005.45
-3005.77
-3005.43
-3005.67
-3005.61
-3005.44
-3005.69
-3005.5
-3005.58
-26613.1
-26612.8
-26612.9
-26613
-26612.8
-26612.9
-26612.9
-26613
-26612.8
-26613.1
-26612.8
-26612.9
-26613
-26612.8
-26612.9
-26612.9
-26613
-26612.8
-26613.1
-26612.8
-26612.9
-26613
-26612.8
-26612.9
-26612.9
-26613
-26612.8
-26613.1
-26612.8
-26612.9
-26613
-26612.8
-26612.9
-26612.9
-26613
-26612.8
8851.75
8851.92
8851.76
8851.9
8851.8
8851.76
8851.84
8851.7
8851.93
8851.75
8851.92
8851.76
8851.9
8851.8
8851.76
8851.84
8851.7
8851.93
8851.75
8851.92
8851.76
8851.9
8851.8
8851.76
8851.84
8851.7
8851.93
8851.75
8851.92
8851.76
8851.9
8851.8
8851.76
8851.84
8851.7
8851.93
-3936.8
-3936.99
-3936.87
-3936.92
-3936.89
-3936.9
-3937.01
-3936.68
-3937.02
-3936.8
-3936.99
-3936.87
-3936.92
-3936.88
-3936.89
-3937.01
-3936.68
-3937.02
-3936.8
-3936.99
-3936.87
-3936.92
-3936.88
-3936.89
-3937.01
-3936.68
-3937.02
-3936.8
-3936.99
-3936.87
-3936.92
-3936.88
-3936.89
-3937.01
-3936.68
-3937.02
-27816.2
-27816
-27816.3
-27816.1
-27816.3
-27816.4
-27816.2
-27816.3
-27816.2
-27816.2
-27816
-27816.3
-27816.1
-27816.3
-27816.4
-27816.2
-27816.3
-27816.2
-27816.2
-27816
-27816.3
-27816.1
-27816.3
-27816.4
-27816.2
-27816.3
-27816.2
-27816.2
-27816
-27816.3
-27816.1
-27816.3
-27816.4
-27816.2
-27816.3
-27816.2
7465.23
7465.39
7465.01
7465.47
7465.14
7465.1
7465.39
7465.05
7465.31
7465.23
7465.39
7465.01
7465.47
7465.14
7465.1
7465.39
7465.05
7465.31
7465.23
7465.39
7465.01
7465.47
7465.14
7465.1
7465.39
7465.05
7465.31
7465.23
7465.39
7465.01
7465.47
7465.14
7465.1
7465.39
7465.05
7465.31
-5365.85
-5366.45
-5365.92
-5366.25
-5366.24
-5365.87
-5366.21
-5366.03
-5366.27
-5365.85
-5366.45
-5365.92
-5366.25
-5366.24
-5365.86
-5366.21
-5366.03
-5366.27
-5365.85
-5366.45
-5365.92
-5366.25
-5366.24
-5365.86
-5366.21
-5366.03
-5366.27
-5365.85
-5366.45
-5365.92
-5366.25
-5366.24
-5365.86
-5366.21
-5366.03
-5366.27
-28532.2
-28531.9
-28532.1
-28532.1
-28532.1
-28532.1
-28532
-28532.3
-28531.8
-28532.2
-28531.9
-28532.1
-28532.1
-28532.1
-28532.1
-28532
-28532.3
-28531.8
-28532.2
-28531.9
-28532.1
-28532.1
-28532.1
-28532.1
-28532
-28532.3
-28531.8
-28532.2
-28531.9
-28532.1
-28532.1
-28532.1
-28532.1
-28532
-28532.3
-28531.8
4880.37
4880.27
4880.14
4880.28
4880.16
4880.19
4880.29
4880.16
4880.12
4880.37
4880.27
4880.14
4880.28
4880.16
4880.19
4880.29
4880.16
4880.12
4880.37
4880.27
4880.14
4880.28
4880.16
4880.19
4880.29
4880.16
4880.12
4880.37
4880.27
4880.14
4880.28
4880.16
4880.19
4880.29
4880.16
4880.12
-7156.33
-7156.38
-7156.11
-7156.44
-7156.18
-7156.08
-7156.24
-7156.3
-7156.07
-7156.33
-7156.38
-7156.11
-7156.44
-7156.18
-7156.08
-7156.24
-7156.3
-7156.06
-7156.33
-7156.38
-7156.1
-7156.44
-7156.18
-7156.08
-7156.24
-7156.3
-7156.07
-7156.33
-7156.38
-7156.11
-7156.44
-7156.18
-7156.08
-7156.24
-7156.3
-7156.07
-28723.3
-28723
-28723.1
-28723.2
-28723.2
-28723.3
-28723.3
-28723.2
-28723.2
-28723.3
-28723
-28723.1
-28723.2
-28723.2
-28723.3
-28723.3
-28723.2
-28723.2
-28723.3
-28723
-28723.1
-28723.2
-28723.2
-28723.3
-28723.3
-28723.2
-28723.2
-28723.3
-28723
-28723.1
-28723.2
-28723.2
-28723.3
-28723.3
-28723.2
-28723.2
518.954
519.017
518.972
518.968
518.958
518.965
518.906
518.979
519.044
518.954
519.017
518.972
518.968
518.959
518.965
518.906
518.979
519.044
518.954
519.017
518.972
518.968
518.959
518.965
518.906
518.979
519.044
518.953
519.016
518.971
518.967
518.958
518.965
518.906
518.979
519.044
-9120.06
-9119.89
-9120.01
-9119.84
-9119.83
-9120.07
-9119.73
-9119.98
-9119.95
-9120.06
-9119.89
-9120.01
-9119.84
-9119.83
-9120.07
-9119.73
-9119.98
-9119.95
-9120.06
-9119.89
-9120.01
-9119.84
-9119.83
-9120.07
-9119.73
-9119.98
-9119.95
-9120.06
-9119.89
-9120.01
-9119.84
-9119.83
-9120.07
-9119.73
-9119.98
-9119.95
-27960.8
-27961.1
-27960.9
-27961.1
-27961.1
-27961.1
-27961
-27961.1
-27961.3
-27960.8
-27961.1
-27960.9
-27961.1
-27961.1
-27961.1
-27961
-27961.1
-27961.3
-27960.8
-27961.1
-27960.9
-27961.1
-27961.1
-27961.1
-27961
-27961.1
-27961.3
-27960.8
-27961.1
-27960.9
-27961.1
-27961.1
-27961.1
-27961
-27961.1
-27961.3
-6054.91
-6055
-6054.93
-6054.81
-6054.86
-6054.99
-6054.94
-6054.77
-6054.91
-6054.91
-6055
-6054.94
-6054.81
-6054.86
-6054.99
-6054.94
-6054.77
-6054.91
-6054.91
-6055
-6054.94
-6054.81
-6054.86
-6054.99
-6054.94
-6054.77
-6054.91
-6054.91
-6055
-6054.94
-6054.81
-6054.86
-6054.99
-6054.94
-6054.77
-6054.91
-10812.6
-10812.4
-10812.6
-10812.6
-10812.6
-10812.7
-10812.5
-10812.6
-10812.7
-10812.6
-10812.4
-10812.6
-10812.6
-10812.6
-10812.7
-10812.5
-10812.6
-10812.7
-10812.6
-10812.4
-10812.6
-10812.6
-10812.6
-10812.7
-10812.5
-10812.6
-10812.7
-10812.6
-10812.4
-10812.6
-10812.6
-10812.6
-10812.7
-10812.5
-10812.6
-10812.7
-25141.6
-25141.8
-25141.7
-25141.8
-25141.7
-25141.6
-25141.7
-25141.7
-25141.9
-25141.6
-25141.8
-25141.7
-25141.8
-25141.7
-25141.6
-25141.7
-25141.7
-25141.9
-25141.6
-25141.8
-25141.7
-25141.8
-25141.7
-25141.6
-25141.7
-25141.7
-25141.9
-25141.6
-25141.8
-25141.7
-25141.8
-25141.7
-25141.6
-25141.7
-25141.7
-25141.9
-14033.3
-14033.4
-14033.3
-14033.2
-14033.2
-14033.3
-14033.2
-14033.3
-14033.4
-14033.3
-14033.4
-14033.3
-14033.2
-14033.2
-14033.3
-14033.2
-14033.3
-14033.4
-14033.3
-14033.4
-14033.3
-14033.2
-14033.2
-14033.3
-14033.2
-14033.3
-14033.4
-14033.3
-14033.4
-14033.3
-14033.2
-14033.2
-14033.3
-14033.2
-14033.3
-14033.4
-11348.1
-11347.7
-11348
-11348
-11348
-11348
-11348
-11348.2
-11347.9
-11348.1
-11347.7
-11348
-11348
-11348
-11348
-11348
-11348.2
-11347.9
-11348.1
-11347.7
-11348
-11348
-11348
-11348
-11348
-11348.2
-11347.9
-11348.1
-11347.7
-11348
-11348
-11348
-11348
-11348
-11348.2
-11347.9
-18508.8
-18509.1
-18508.8
-18509
-18509
-18509
-18509.2
-18508.8
-18509.1
-18508.8
-18509.1
-18508.9
-18509
-18509
-18509
-18509.2
-18508.8
-18509.1
-18508.8
-18509.1
-18508.9
-18509
-18509
-18509
-18509.2
-18508.8
-18509.1
-18508.8
-18509.1
-18508.8
-18509
-18509
-18509
-18509.2
-18508.8
-18509.1
-20830
-20830
-20829.8
-20829.9
-20829.7
-20829.8
-20829.7
-20829.8
-20830.3
-20830
-20830
-20829.8
-20829.9
-20829.7
-20829.8
-20829.7
-20829.8
-20830.3
-20830
-20830
-20829.8
-20829.9
-20829.7
-20829.8
-20829.7
-20829.8
-20830.3
-20830
-20830
-20829.8
-20829.9
-20829.7
-20829.8
-20829.7
-20829.8
-20830.3
-10162.7
-10162.5
-10162.6
-10162.8
-10162.7
-10162.8
-10162.8
-10163
-10162.7
-10162.7
-10162.5
-10162.6
-10162.8
-10162.7
-10162.8
-10162.8
-10163
-10162.7
-10162.7
-10162.5
-10162.6
-10162.8
-10162.7
-10162.8
-10162.8
-10163
-10162.8
-10162.7
-10162.5
-10162.6
-10162.8
-10162.7
-10162.8
-10162.8
-10163
-10162.7
-6090.23
-6090.47
-6090.31
-6090.42
-6090.42
-6090.58
-6090.34
-6090.15
-6090.12
-6090.23
-6090.47
-6090.31
-6090.43
-6090.43
-6090.58
-6090.34
-6090.15
-6090.12
-6090.23
-6090.47
-6090.31
-6090.43
-6090.43
-6090.58
-6090.34
-6090.15
-6090.12
-6090.23
-6090.47
-6090.31
-6090.42
-6090.42
-6090.58
-6090.34
-6090.15
-6090.12
-23269.3
-23269.2
-23269.1
-23269
-23269
-23268.7
-23269.2
-23269.1
-23269.7
-23269.3
-23269.2
-23269.1
-23269
-23269
-23268.7
-23269.1
-23269.1
-23269.7
-23269.3
-23269.2
-23269.1
-23269
-23269
-23268.7
-23269.2
-23269.1
-23269.7
-23269.3
-23269.3
-23269.1
-23269
-23269
-23268.7
-23269.1
-23269.1
-23269.7
-7773.91
-7773.83
-7773.96
-7774.2
-7773.6
-7774.17
-7773.95
-7774.19
-7773.73
-7773.91
-7773.82
-7773.96
-7774.2
-7773.6
-7774.17
-7773.95
-7774.18
-7773.73
-7773.91
-7773.83
-7773.96
-7774.2
-7773.6
-7774.17
-7773.96
-7774.19
-7773.73
-7773.91
-7773.83
-7773.96
-7774.2
-7773.6
-7774.17
-7773.95
-7774.19
-7773.73
14165.3
14164.9
14165
14165
14164.8
14165.3
14165
14165.8
14165.3
14165.3
14164.9
14165
14165
14164.8
14165.3
14165
14165.8
14165.3
14165.3
14164.9
14165
14165
14164.8
14165.3
14165
14165.8
14165.3
14165.3
14164.9
14165
14165
14164.8
14165.3
14165
14165.8
14165.3
-20908.9
-20908.1
-20905.8
-20906.6
-20909.9
-20907.4
-20905.6
-20908
-20909.7
-20909
-20908.1
-20905.8
-20906.6
-20909.9
-20907.4
-20905.7
-20908
-20909.7
-20909
-20908.2
-20905.8
-20906.6
-20909.9
-20907.5
-20905.7
-20908
-20909.7
-20909
-20908.2
-20905.8
-20906.6
-20909.9
-20907.5
-20905.7
-20908
-20909.7
-8926.15
-8926.54
-8926.39
-8926.89
-8926.05
-8927.23
-8926.57
-8926.54
-8926.36
-8926.14
-8926.53
-8926.38
-8926.89
-8926.05
-8927.23
-8926.57
-8926.54
-8926.36
-8926.14
-8926.53
-8926.39
-8926.89
-8926.05
-8927.24
-8926.57
-8926.55
-8926.36
-8926.14
-8926.53
-8926.39
-8926.89
-8926.04
-8927.23
-8926.56
-8926.54
-8926.36
42125.5
42125.3
42125.2
42125.8
42125.6
42125.7
42126.3
42126
42125.8
42125.5
42125.3
42125.2
42125.8
42125.6
42125.7
42126.3
42126
42125.8
42125.5
42125.3
42125.2
42125.8
42125.6
42125.7
42126.3
42126
42125.9
42125.5
42125.3
42125.2
42125.8
42125.6
42125.7
42126.3
42126
42125.8
7216.23
7220.37
7198.02
7204.59
7224.67
7208.87
7196.92
7213.47
7210.36
7216.31
7220.51
7198.12
7204.64
7224.72
7208.92
7196.94
7213.51
7210.4
7216.32
7220.55
7198.13
7204.63
7224.72
7208.91
7196.93
7213.49
7210.37
7216.3
7220.51
7198.12
7204.63
7224.71
7208.91
7196.94
7213.47
7210.33
7025.21
7023.14
7025
7021.15
7030.57
7019.07
7027.81
7024.99
7026.79
7025.22
7023.13
7024.97
7021.12
7030.55
7019.06
7027.81
7025.01
7026.8
7025.22
7023.15
7024.98
7021.13
7030.56
7019.07
7027.82
7025.01
7026.8
7025.25
7023.16
7025
7021.13
7030.55
7019.08
7027.81
7024.98
7026.78
58400.7
58401
58396.2
58409.5
58387.9
58413.2
58392.2
58404.8
58399.7
58400.6
58401
58396.2
58409.4
58387.9
58413.2
58392.2
58404.8
58399.7
58400.7
58401
58396.2
58409.4
58387.9
58413.2
58392.2
58404.8
58399.7
58400.7
58401
58396.2
58409.4
58387.9
58413.2
58392.2
58404.8
58399.7
)
;

boundaryField
{
    fixed
    {
        type            zeroGradient;
    }
    inside
    {
        type            zeroGradient;
    }
    outside
    {
        type            zeroGradient;
    }
}


// ************************************************************************* //
