/*--------------------------------*- C++ -*----------------------------------*\
| =========                 |                                                 |
| \\      /  F ield         | OpenFOAM: The Open Source CFD Toolbox           |
|  \\    /   O peration     | Version:  2412                                  |
|   \\  /    A nd           | Website:  www.openfoam.com                      |
|    \\/     M anipulation  |                                                 |
\*---------------------------------------------------------------------------*/
FoamFile
{
    version     2.0;
    format      ascii;
    arch        "LSB;label=32;scalar=64";
    class       volScalarField;
    location    "0.030011";
    object      activationTime;
}
// * * * * * * * * * * * * * * * * * * * * * * * * * * * * * * * * * * * * * //

dimensions      [0 0 1 0 0 0 0];

internalField   nonuniform List<scalar> 
8835
(
0
0
0
0
0
0
0
0
0
0
0
0
0
0
0
0
0
0
0
0
0
0
0
0
0
0
0
0
0
0
0
0
0
0
0
0
0
0
0
0
0
0
0
0
0
0
0
0
0
0
0
0
0
0
0
0
0
0
0
0
0
0
0
0
0
0
0
0
0
0
0
0
0
0
0
0
0
0
0
0
0
0
0
0
0
0
0
0
0
0
0
0
0
0
0
0
0
0
0
0
0
0
0
0
0
0
0
0
0
0
0
0
0
0
0
0
0
0
0
0
0
0
0
0
0
0
0
0
0
0
0
0
0
0
0
0
0
0
0
0
0
0
0
0
0
0
0
0
0
0
0
0
0
0
0
0
0
0
0
0
0
0
0
0
0
0
0
0
0
0
0
0
0
0
0
0
0
0
0
0
0
0
0
0
0
0
0
0
0
0
0
0
0
0
0
0
0
0
0
0
0
0
0
0
0
0
0
0
0
0
0
0
0
0
0
0
0
0
0
0
0
0
0
0
0
0
0
0
0
0
0
0
0
0
0
0
0
0
0
0
0
0
0
0
0
0
0
0
0
0
0
0
0
0
0
0
0
0
0
0
0
0
0
0
0
0
0
0
0
0
0
0
0
0
0
0
0
0
0
0
0
0
0
0
0
0
0
0
0
0
0
0
0
0
0
0
0
0
0
0
0
0
0
0
0
0
0
0
0
0
0
0
0
0
0
0
0
0
0
0
0
0
0
0
0
0
0
0
0
0
0
0
0
0
0
0
0
0
0
0
0
0
0
0
0
0
0
0
0
0
0
0
0
0
0
0
0
0
0
0
0
0
0
0
0
0
0
0
0
0
0
0
0
0
0
0
0
0
0
0
0
0
0
0
0
0
0
0
0
0
0
0
0
0
0
0
0
0
0
0
0
0
0
0
0
0
0
0
0
0
0
0
0
0
0
0
0
0
0
0
0
0
0
0
0
0
0
0
0
0
0
0
0
0
0
0
0
0
0
0
0
0
0
0
0
0
0
0
0
0
0
0
0
0
0
0
0
0
0
0
0
0
0
0
0
0
0
0
0
0
0
0
0
0
0
0
0
0
0
0
0
0
0
0
0
0
0
0
0
0
0
0
0
0
0
0
0
0
0
0
0
0
0
0
0
0
0
0
0
0
0
0
0
0
0
0
0
0
0
0
0
0
0
0
0
0
0
0
0
0
0
0
0
0
0
0
0
0
0
0
0
0
0
0
0
0
0
0
0
0
0
0
0
0
0
0
0
0
0
0
0
0
0
0
0
0
0
0
0
0
0
0
0
0
0
0
0
0
0
0
0
0
0
0
0
0
0
0
0
0
0
0
0
0
0
0
0
0
0
0
0
0
0
0
0
0
0
0
0
0
0
0
0
0
0
0
0
0
0
0
0
0
0
0
0
0
0
0
0
0
0
0
0
0
0
0
0
0
0
0
0
0
0
0
0
0
0
0
0
0
0
0
0
0
0
0
0
0
0
0
0
0
0
0
0
0
0
0
0
0
0
0
0
0
0
0
0
0
0
0
0
0
0
0
0
0
0
0
0
0
0
0
0
0
0
0
0
0
0
0
0
0
0
0
0
0
0
0
0
0
0
0
0
0
0
0
0
0
0
0
0
0
0
0
0
0
0
0
0
0
0
0
0
0
0
0
0
0
0
0
0
0
0
0
0
0
0
0
0
0
0
0
0
0
0
0
0
0
0
0
0
0
0
0
0
0
0
0
0
0
0
0
0
0
0
0
0
0
0
0
0
0
0
0
0
0
0
0
0
0
0
0
0
0
0
0
0
0
0
0
0
0
0
0
0
0
0
0
0
0
0
0
0
0
0
0
0
0
0
0
0
0
0
0
0
0
0
0
0
0
0
0
0
0
0
0
0
0
0
0
0
0
0
0
0
0
0
0
0
0
0
0
0
0
0
0
0
0
0
0
0
0
0
0
0
0
0
0
0
0
0
0
0
0
0
0
0
0
0
0
0
0
0
0
0
0
0
0
0
0
0
0
0
0
0
0
0
0
0
0
0
0
0
0
0
0
0
0
0
0
0
0
0
0
0
0
0
0
0
0
0
0
0
0
0
0
0
0
0
0
0
0
0
0
0
0
0
0
0
0
0
0
0
0
0
0
0
0
0
0
0
0
0
0
0
0
0
0
0
0
0
0
0
0
0
0
0
0
0
0
0
0
0
0
0
0
0
0
0
0
0
0
0
0
0
0
0
0
0
0
0
0
0
0
0
0
0
0
0
0
0
0
0
0
0
0
0
0
0
0
0
0
0
0
0
0
0
0
0
0
0
0
0
0
0
0
0
0
0
0
0
0
0
0
0
0
0
0
0
0
0
0
0
0
0
0
0
0
0
0
0
0
0
0
0
0
0
0
0
0
0
0
0
0
0
0
0
0
0
0
0
0
0
0
0
0
0
0
0
0
0
0
0
0
0
0
0
0
0
0
0
0
0
0
0
0
0
0
0
0
0
0
0
0
0
0
0
0
0
0
0
0
0
0
0
0
0
0
0
0
0
0
0
0
0
0
0
0
0
0
0
0
0
0
0
0
0
0
0
0
0
0
0
0
0
0
0
0
0
0
0
0
0
0
0
0
0
0
0
0
0
0
0
0
0
0
0
0
0
0
0
0
0
0
0
0
0
0
0
0
0
0
0
0
0
0
0
0
0
0
0
0
0
0
0
0
0
0
0
0
0
0
0
0
0
0
0
0
0
0
0
0
0
0
0
0
0
0
0
0
0
0
0
0
0
0
0
0
0
0
0
0
0
0
0
0
0
0
0
0
0
0
0
0
0
0
0
0
0
0
0
0
0
0
0
0
0
0
0
0
0
0
0
0
0
0
0
0
0
0
0
0
0
0
0
0
0
0
0
0
0
0
0
0
0
0
0
0
0
0
0
0
0
0
0
0
0
0
0
0
0
0
0
0
0
0
0
0
0
0
0
0
0
0
0
0
0
0
0
0
0
0
0
0
0
0
0
0
0
0
0
0
0
0
0
0
0
0
0
0
0
0
0
0
0
0
0
0
0
0
0
0
0
0
0
0
0
0
0
0
0
0
0
0
0
0
0
0
0
0
0
0
0
0
0
0
0
0
0
0
0
0
0
0
0
0
0
0
0
0
0
0
0
0
0
0
0
0
0
0
0
0
0
0
0
0
0
0
0
0
0
0
0
0
0
0
0
0
0
0
0
0
0
0
0
0
0
0
0
0
0
0
0
0
0
0
0
0
0
0
0
0
0
0
0
0
0
0
0
0
0
0
0
0
0
0
0
0
0
0
0
0
0
0
0
0
0
0
0
0
0
0
0
0
0
0
0
0
0
0
0
0
0
0
0
0
0
0
0
0
0
0
0
0
0
0
0
0
0
0
0
0
0
0
0
0
0
0
0
0
0
0
0
0
0
0
0
0
0
0
0
0
0
0
0
0
0
0
0
0
0
0
0
0
0
0
0
0
0
0
0
0
0
0
0
0
0
0
0
0
0
0
0
0
0
0
0
0
0
0
0
0
0
0
0
0
0
0
0
0
0
0
0
0
0
0
0
0
0
0
0
0
0
0
0
0
0
0
0
0
0
0
0
0
0
0
0
0
0
0
0
0
0
0
0
0
0
0
0
0
0
0
0
0
0
0
0
0
0
0
0
0
0
0
0
0
0
0
0
0
0
0
0
0
0
0
0
0
0
0
0
0
0
0
0
0
0
0
0
0
0
0
0
0
0
0
0
0
0
0
0
0
0
0
0
0
0
0
0
0
0
0
0
0
0
0
0
0
0
0
0
0
0
0
0
0
0
0
0
0
0
0
0
0
0
0
0
0
0
0
0
0
0
0
0
0
0
0
0
0
0
0
0
0
0
0
0
0
0
0
0
0
0
0
0
0
0
0
0
0
0
0
0
0
0
0
0
0
0
0
0
0
0
0
0
0
0
0
0
0
0
0
0
0
0
0
0
0
0
0
0
0
0
0
0
0
0
0
0
0
0
0
0
0
0
0
0
0
0
0
0
0
0
0
0
0
0
0
0
0
0
0
0
0
0
0
0
0
0
0
0
0
0
0
0
0
0
0
0
0
0
0
0
0
0
0
0
0
0
0
0
0
0
0
0
0
0
0
0
0
0
0
0
0
0
0
0
0
0
0
0
0
0
0
0
0
0
0
0
0
0
0
0
0
0
0
0
0
0
0
0
0
0
0
0
0
0
0
0
0
0
0
0
0
0
0
0
0
0
0
0
0
0
0
0
0
0
0
0
0
0
0
0
0
0
0
0
0
0
0
0
0
0
0
0
0
0
0
0
0
0
0
0
0
0
0
0
0
0
0
0
0
0
0
0
0
0
0
0
0
0
0
0
0
0
0
0
0
0
0
0
0
0
0
0
0
0
0
0
0
0
0
0
0
0
0
0
0
0
0
0
0
0
0
0
0
0
0
0
0
0
0
0
0
0
0
0
0
0
0
0
0
0
0
0
0
0
0
0
0
0
0
0
0
0
0
0
0
0
0
0
0
0
0
0
0
0
0
0
0
0
0
0
0
0
0
0
0
0
0
0
0
0
0
0
0
0
0
0
0
0
0
0
0
0
0
0
0
0
0
0
0
0
0
0
0
0
0
0
0
0
0
0
0
0
0
0
0
0
0
0
0
0
0
0
0
0
0
0
0
0
0
0
0
0
0
0
0
0
0
0
0
0
0
0
0
0
0
0
0
0
0
0
0
0
0
0
0
0
0
0
0
0
0
0
0
0
0
0
0
0
0
0
0
0
0
0
0
0
0
0
0
0
0
0
0
0
0
0
0
0
0
0
0
0
0
0
0
0
0
0
0
0
0
0
0
0
0
0
0
0
0
0
0
0
0
0
0
0
0
0
0
0
0
0
0
0
0
0
0
0
0
0
0
0
0
0
0
0
0
0
0
0
0
0
0
0
0
0
0
0
0
0
0
0
0
0
0
0
0
0
0
0
0
0
0
0
0
0
0
0
0
0
0
0
0
0
0
0
0
0
0
0
0
0
0
0
0
0
0
0
0
0
0
0
0
0
0
0
0
0
0
0
0
0
0
0
0
0
0
0
0
0
0
0
0
0
0
0
0
0
0
0
0
0
0
0
0
0
0
0
0
0
0
0
0
0
0
0
0
0
0
0
0
0
0
0
0
0
0
0
0
0
0
0
0
0
0
0
0
0
0
0
0
0
0
0
0
0
0
0
0
0
0
0
0
0
0
0
0
0
0
0
0
0
0
0
0
0
0
0
0
0
0
0
0
0
0
0
0
0
0
0
0
0
0
0
0
0
0
0
0
0
0
0
0
0
0
0
0
0
0
0
0
0
0
0
0
0
0
0
0
0
0
0
0
0
0
0
0
0
0
0
0
0
0
0
0
0
0
0
0
0
0
0
0
0
0
0
0
0
0
0
0
0
0
0
0
0
0
0
0
0
0
0
0
0
0
0
0
0
0
0
0
0
0
0
0
0
0
0
0
0
0
0
0
0
0
0
0
0
0
0
0
0
0
0
0
0
0
0
0
0
0
0
0
0
0
0
0
0
0
0
0
0
0
0
0
0
0
0
0
0
0
0
0
0
0
0
0
0
0
0
0
0
0
0
0
0
0
0
0
0
0
0
0
0
0
0
0
0
0
0
0
0
0
0
0
0
0
0
0
0
0
0
0
0
0
0
0
0
0
0
0
0
0
0
0
0
0
0
0
0
0
0
0
0
0
0
0
0
0
0
0
0
0
0
0
0
0
0
0
0
0
0
0
0
0
0
0
0
0
0
0
0
0
0
0
0
0
0
0
0
0
0
0
0
0
0
0
0
0
0
0
0
0
0
0
0
0
0
0
0
0
0
0
0
0
0
0
0
0
0
0
0
0
0
0
0
0
0
0
0
0
0
0
0
0
0
0
0
0
0
0
0
0
0
0
0
0
0
0
0
0
0
0
0
0
0
0
0
0
0
0
0
0
0
0
0
0
0
0
0
0
0
0
0
0
0
0
0
0
0
0
0
0
0
0
0
0
0
0
0
0
0
0
0
0
0
0
0
0
0
0
0
0
0
0
0
0
0
0
0
0
0
0
0
0
0
0
0.028998
0.0291646
0.0293332
0.0295035
0.0296757
0.0298509
0
0
0
0
0
0
0
0
0
0
0
0
0
0.0290133
0.0291796
0.0293479
0.0295183
0.0296911
0.0298661
0
0
0
0
0
0
0
0
0
0
0
0
0
0.0290371
0.029203
0.0293708
0.0295405
0.029712
0.0298857
0
0
0
0
0
0
0
0
0
0
0
0
0
0.0290823
0.0292486
0.0294166
0.0295816
0.029751
0.0299232
0
0
0
0
0
0
0
0
0
0
0
0
0
0.0291253
0.029291
0.0294585
0.0296277
0.0297988
0.0299721
0
0
0
0
0
0
0
0
0
0
0
0
0
0.0291987
0.0293637
0.0295304
0.0296994
0.0298705
0
0
0
0
0
0
0
0
0
0
0
0
0
0
0.029282
0.0294466
0.0296128
0.0297811
0.0299515
0
0
0
0
0
0
0
0
0
0
0
0
0
0
0.0293756
0.0295394
0.0297052
0.0298728
0
0
0
0
0
0
0
0
0
0
0
0
0
0
0
0.0294959
0.0296635
0.0298305
0.0299934
0
0
0
0
0
0
0
0
0
0
0
0
0
0
0
0.0296423
0.0298033
0.0299666
0
0
0
0
0
0
0
0
0
0
0
0
0
0
0
0
0.0298044
0.029964
0
0
0
0
0
0
0
0
0
0
0
0
0
0
0
0
0
0.0299866
0
0
0
0
0
0
0
0
0
0
0
0
0
0
0
0
0
0
0
0
0
0
0
0
0
0
0
0
0
0
0
0
0
0
0
0
0
0
0
0
0
0
0
0
0
0
0
0
0
0
0
0
0
0
0
0
0
0
0
0
0
0
0
0
0
0
0
0
0
0
0
0
0
0
0
0.0278616
0.0280335
0.0282077
0.0283851
0.0285594
0.0287378
0.0289192
0.0290991
0.0292832
0.029471
0.0296569
0.0298421
0
0
0
0
0
0
0
0.0278738
0.0280464
0.0282213
0.0283934
0.0285697
0.0287489
0.0289318
0.0291115
0.0292955
0.029479
0.0296669
0.0298538
0
0
0
0
0
0
0
0.0279007
0.0280703
0.0282427
0.028418
0.0285966
0.0287721
0.0289521
0.0291356
0.029317
0.0295026
0.0296874
0.029877
0
0
0
0
0
0
0
0.0279407
0.0281077
0.0282792
0.0284535
0.0286312
0.0288117
0.0289886
0.0291701
0.029351
0.0295365
0.0297204
0.0299101
0
0
0
0
0
0
0
0.0279867
0.0281568
0.0283292
0.0285046
0.0286828
0.0288578
0.0290371
0.0292202
0.029401
0.029586
0.02977
0.029959
0
0
0
0
0
0
0
0.028057
0.0282281
0.0283963
0.0285689
0.0287447
0.0289235
0.0291002
0.0292813
0.0294652
0.029648
0.0298347
0
0
0
0
0
0
0
0
0.028142
0.0283126
0.02848
0.0286519
0.0288269
0.0290046
0.0291806
0.029361
0.0295443
0.0297258
0.0299122
0
0
0
0
0
0
0
0
0.0282383
0.0284078
0.028579
0.0287524
0.0289289
0.0291021
0.0292795
0.0294599
0.0296387
0.0298225
0.030009
0
0
0
0
0
0
0
0
0.0283609
0.028529
0.0286992
0.0288715
0.0290461
0.0292237
0.029398
0.0295768
0.0297585
0.0299387
0
0
0
0
0
0
0
0
0
0.0285091
0.0286762
0.0288458
0.0290176
0.0291863
0.0293597
0.029536
0.0297147
0.0298917
0
0
0
0
0
0
0
0
0
0
0.0286767
0.0288419
0.0290097
0.02918
0.0293522
0.0295211
0.0296948
0.0298716
0
0
0
0
0
0
0
0
0
0
0
0.0288586
0.0290219
0.0291877
0.0293558
0.0295262
0.0296984
0.0298726
0
0
0
0
0
0
0
0
0
0
0
0
0.02906
0.0292265
0.0293926
0.0295548
0.0297214
0.0298912
0
0
0
0
0
0
0
0
0
0
0
0
0
0.0292624
0.0294238
0.0295869
0.0297516
0.0299185
0
0
0
0
0
0
0
0
0
0
0
0
0
0
0.0294057
0.0295641
0.0297246
0.0298874
0
0
0
0
0
0
0
0
0
0
0
0
0
0
0
0.0267392
0.0269186
0.0270948
0.0272757
0.0274611
0.0276439
0.0278312
0.0280177
0.0282038
0.0283971
0.0285886
0.0287866
0.0289834
0.02918
0.029378
0.0295787
0.0297814
0.0299911
0
0.0267522
0.0269264
0.027105
0.0272871
0.027468
0.0276531
0.0278373
0.0280266
0.0282145
0.0284081
0.0286008
0.0287932
0.0289933
0.0291919
0.0293905
0.0295905
0.0297933
0.029998
0
0.0267736
0.0269514
0.0271275
0.0273082
0.0274918
0.0276746
0.0278616
0.0280477
0.0282391
0.0284293
0.0286198
0.0288167
0.0290122
0.0292087
0.0294076
0.0296126
0.0298169
0
0
0.0268083
0.0269857
0.0271667
0.0273448
0.0275273
0.027709
0.0278961
0.0280813
0.0282729
0.0284621
0.0286574
0.0288513
0.0290453
0.0292423
0.0294452
0.029647
0.0298494
0
0
0.0268605
0.0270386
0.0272143
0.0273944
0.0275776
0.0277599
0.0279464
0.0281319
0.0283227
0.0285123
0.0287022
0.0288985
0.0290931
0.0292892
0.0294923
0.0296943
0.0298968
0
0
0.0269282
0.0271037
0.0272821
0.0274595
0.0276416
0.0278264
0.0280103
0.0281983
0.0283852
0.0285775
0.0287689
0.02896
0.0291586
0.0293556
0.029553
0.0297526
0.0299545
0
0
0.0270144
0.027189
0.0273669
0.0275435
0.0277247
0.027909
0.0280918
0.0282792
0.028465
0.0286568
0.0288473
0.0290382
0.0292359
0.0294319
0.0296288
0.0298281
0
0
0
0.0271177
0.0272948
0.0274685
0.0276466
0.0278277
0.0280078
0.0281922
0.0283748
0.0285637
0.0287504
0.028944
0.0291354
0.0293284
0.0295274
0.0297248
0.0299232
0
0
0
0.0272431
0.027419
0.0275914
0.0277685
0.0279487
0.0281271
0.0283109
0.0284975
0.0286828
0.0288724
0.0290613
0.0292501
0.0294461
0.0296405
0.0298359
0
0
0
0
0.027388
0.0275611
0.0277364
0.0279142
0.02809
0.0282702
0.0284534
0.0286351
0.0288217
0.0290064
0.0291977
0.0293867
0.0295776
0.0297744
0.0299692
0
0
0
0
0.0275596
0.0277308
0.0279045
0.0280809
0.0282549
0.0284338
0.028616
0.0287955
0.0289813
0.0291645
0.0293538
0.0295414
0.0297354
0.0299271
0
0
0
0
0
0.0277514
0.0279207
0.0280925
0.0282666
0.0284431
0.0286221
0.0287988
0.0289806
0.0291604
0.0293451
0.0295345
0.0297208
0.0299089
0
0
0
0
0
0
0.0279638
0.0281313
0.028301
0.0284731
0.0286478
0.0288251
0.0289995
0.0291792
0.0293623
0.0295425
0.0297287
0.0299133
0
0
0
0
0
0
0
0.028175
0.0283408
0.0285089
0.0286794
0.0288522
0.0290277
0.0292053
0.0293799
0.0295603
0.0297439
0.0299246
0
0
0
0
0
0
0
0
0.0283309
0.0284955
0.0286622
0.0288309
0.0290015
0.0291748
0.0293509
0.029529
0.0297046
0.0298844
0
0
0
0
0
0
0
0
0
0.0256294
0.0258146
0.0259989
0.0261873
0.0263751
0.026568
0.0267609
0.0269534
0.027148
0.0273495
0.0275503
0.0277515
0.0279541
0.0281592
0.0283665
0.028576
0.0287877
0.0290017
0.0292189
0.0256428
0.025824
0.0260101
0.026195
0.0263858
0.026575
0.0267703
0.0269645
0.0271588
0.027356
0.0275596
0.0277623
0.0279658
0.0281711
0.0283785
0.0285883
0.0288006
0.0290158
0.0292283
0.0256653
0.0258488
0.0260318
0.0262201
0.0264072
0.0266005
0.0267925
0.0269848
0.0271843
0.0273824
0.0275811
0.0277819
0.0279851
0.0281903
0.0283975
0.028607
0.0288187
0.0290326
0.0292488
0.0256998
0.0258837
0.0260711
0.0262567
0.0264421
0.0266349
0.026826
0.0270234
0.0272198
0.0274162
0.0276143
0.0278151
0.0280181
0.0282281
0.0284379
0.0286438
0.0288537
0.0290665
0.0292818
0.0257517
0.0259349
0.0261177
0.0263055
0.0264922
0.026685
0.0268765
0.0270684
0.0272673
0.0274648
0.0276626
0.0278631
0.0280659
0.0282709
0.0284781
0.0286872
0.0288984
0.0291119
0.0293275
0.0258217
0.026002
0.0261866
0.0263709
0.0265603
0.0267489
0.0269428
0.027136
0.0273289
0.0275244
0.0277267
0.0279281
0.0281303
0.0283343
0.0285408
0.0287499
0.0289611
0.029175
0.0293918
0.025909
0.0260885
0.0262725
0.026456
0.0266446
0.0268321
0.0270253
0.0272177
0.0274099
0.0276055
0.0278074
0.0280081
0.0282092
0.0284126
0.0286185
0.0288266
0.0290368
0.0292494
0.0294646
0.026012
0.0261942
0.026375
0.0265603
0.0267447
0.0269349
0.0271239
0.027314
0.0275101
0.0277047
0.0279017
0.0281054
0.0283082
0.0285117
0.0287169
0.0289241
0.0291337
0.029346
0.0295613
0.0261386
0.0263202
0.0264999
0.0266845
0.0268677
0.0270573
0.0272447
0.0274387
0.0276311
0.0278237
0.0280191
0.0282206
0.0284214
0.0286235
0.0288281
0.0290348
0.0292436
0.0294545
0.0296679
0.0262889
0.0264684
0.0266504
0.026831
0.0270165
0.0272001
0.0273904
0.0275787
0.0277695
0.0279653
0.0281602
0.0283575
0.0285611
0.0287639
0.0289675
0.0291726
0.02938
0.0295898
0.0298021
0.0264658
0.0266437
0.0268193
0.0270008
0.0271859
0.0273683
0.0275576
0.0277443
0.0279387
0.0281308
0.0283236
0.0285187
0.0287201
0.0289206
0.0291232
0.0293275
0.0295337
0.029742
0.0299526
0.026666
0.0268419
0.0270203
0.0271962
0.0273782
0.0275639
0.0277473
0.0279374
0.028125
0.0283145
0.0285093
0.0287031
0.0288991
0.0291016
0.029303
0.0295056
0.0297106
0.0299178
0
0.0268904
0.0270651
0.0272373
0.0274145
0.0275957
0.0277746
0.0279585
0.0281478
0.0283336
0.0285213
0.0287138
0.0289064
0.0291
0.0292994
0.0294992
0.0297002
0.0299031
0
0
0.0271118
0.0272843
0.0274593
0.0276369
0.0278122
0.0279914
0.0281753
0.0283575
0.028544
0.0287308
0.0289219
0.0291133
0.02931
0.029505
0.0297019
0.0299002
0
0
0
0.0272842
0.0274549
0.0276283
0.0278043
0.0279778
0.0281553
0.0283368
0.0285173
0.028702
0.0288867
0.0290763
0.0292655
0.0294598
0.029654
0.0298485
0
0
0
0
0.0245443
0.0247333
0.0249278
0.0251219
0.0253159
0.0255121
0.0257158
0.0259191
0.0261235
0.02633
0.0265387
0.0267499
0.026964
0.0271752
0.0273909
0.02761
0.0278329
0.0280544
0.0282801
0.0245528
0.0247449
0.0249354
0.0251327
0.0253288
0.0255252
0.0257241
0.0259257
0.0261295
0.0263406
0.0265466
0.026756
0.0269682
0.027183
0.0274004
0.0276209
0.0278402
0.0280637
0.0282904
0.024579
0.0247659
0.0249603
0.0251539
0.0253483
0.0255505
0.0257519
0.0259536
0.0261567
0.026362
0.0265699
0.0267803
0.0269936
0.0272101
0.027424
0.0276422
0.0278636
0.0280895
0.0283128
0.0246136
0.0248052
0.024997
0.0251888
0.0253831
0.0255844
0.025785
0.0259863
0.0261894
0.0263949
0.0266028
0.026813
0.0270257
0.027241
0.0274603
0.0276767
0.0278973
0.0281212
0.0283449
0.0246631
0.0248507
0.0250452
0.0252385
0.0254325
0.0256345
0.0258355
0.0260367
0.0262392
0.0264439
0.0266513
0.0268612
0.0270735
0.0272894
0.0275085
0.0277243
0.0279446
0.0281692
0.0283923
0.02473
0.0249214
0.0251117
0.0253028
0.0255008
0.0256977
0.0258955
0.0260962
0.0262991
0.0265041
0.0267114
0.0269209
0.0271328
0.027347
0.0275638
0.0277831
0.0280068
0.0282276
0.0284526
0.0248185
0.0250091
0.0251988
0.0253886
0.0255859
0.0257818
0.0259787
0.0261786
0.0263806
0.0265898
0.026799
0.0270094
0.0272167
0.0274284
0.0276433
0.0278612
0.0280825
0.0283026
0.028527
0.0249281
0.0251145
0.0253011
0.0254943
0.0256865
0.0258817
0.0260828
0.0262827
0.0264835
0.0266872
0.0268932
0.0271015
0.027312
0.0275247
0.0277399
0.0279583
0.0281751
0.0283963
0.0286207
0.025053
0.0252411
0.0254276
0.0256202
0.0258113
0.0260103
0.0262081
0.0264058
0.0266055
0.0268077
0.0270122
0.0272192
0.0274285
0.0276402
0.0278546
0.0280717
0.0282916
0.0285103
0.0287332
0.0252126
0.0253947
0.0255838
0.0257707
0.0259654
0.0261584
0.0263525
0.0265492
0.0267524
0.0269551
0.0271588
0.0273647
0.027573
0.0277837
0.0279973
0.0282144
0.0284286
0.0286473
0.0288695
0.0253907
0.0255753
0.0257588
0.0259476
0.0261364
0.0263312
0.0265245
0.0267203
0.026923
0.0271247
0.0273269
0.0275313
0.0277381
0.0279474
0.0281593
0.0283738
0.0285921
0.028807
0.0290268
0.0255995
0.0257823
0.0259641
0.0261503
0.0263375
0.0265291
0.0267216
0.0269199
0.0271167
0.0273156
0.0275163
0.0277188
0.0279234
0.0281306
0.0283406
0.0285532
0.0287684
0.028986
0.0292065
0.0258365
0.0260137
0.0261961
0.0263838
0.026568
0.0267548
0.0269459
0.0271385
0.0273365
0.027533
0.0277318
0.0279323
0.028135
0.0283403
0.028548
0.0287584
0.0289716
0.0291875
0.0294063
0.0260784
0.0262588
0.0264364
0.0266199
0.0268023
0.0269891
0.0271769
0.0273689
0.0275616
0.0277554
0.0279555
0.0281557
0.0283569
0.0285598
0.0287653
0.0289733
0.0291841
0.0293975
0.0296138
0.0262654
0.0264419
0.0266227
0.026801
0.0269836
0.0271666
0.0273542
0.0275417
0.0277348
0.0279276
0.0281213
0.0283223
0.0285227
0.0287242
0.0289277
0.0291334
0.0293415
0.0295526
0.0297664
0.0234838
0.0236804
0.0238792
0.0240812
0.0242854
0.0244919
0.0247007
0.0249121
0.0251259
0.0253424
0.0255618
0.0257809
0.0260041
0.0262305
0.0264565
0.0266874
0.0269185
0.0271549
0.0273918
0.0234942
0.0236927
0.023892
0.0240931
0.0242973
0.0245037
0.0247127
0.0249241
0.025138
0.025355
0.0255759
0.0257938
0.0260165
0.0262393
0.0264674
0.0266995
0.0269306
0.0271621
0.0274004
0.0235143
0.0237103
0.0239096
0.0241157
0.024322
0.0245298
0.0247399
0.0249526
0.0251624
0.0253769
0.0255949
0.0258165
0.0260374
0.0262627
0.0264929
0.0267216
0.0269506
0.0271864
0.0274216
0.0235486
0.0237455
0.023949
0.024152
0.0243565
0.0245632
0.0247725
0.0249847
0.0251999
0.0254123
0.0256294
0.0258502
0.0260755
0.0262984
0.0265263
0.0267547
0.0269876
0.0272209
0.0274542
0.0236003
0.0237958
0.0239948
0.0242006
0.0244064
0.0246137
0.0248232
0.0250353
0.0252448
0.0254588
0.0256763
0.0258971
0.0261177
0.0263426
0.0265716
0.0268001
0.0270336
0.027267
0.0275007
0.0236668
0.0238675
0.0240673
0.0242679
0.0244702
0.0246757
0.0248836
0.0250941
0.025307
0.0255231
0.025743
0.0259599
0.0261814
0.0264077
0.0266325
0.0268619
0.0270924
0.0273284
0.0275642
0.0237546
0.0239553
0.0241549
0.0243549
0.0245562
0.0247606
0.0249678
0.0251774
0.0253896
0.025605
0.0258245
0.0260407
0.0262616
0.0264865
0.0267108
0.0269399
0.0271691
0.027404
0.0276391
0.0238658
0.0240609
0.0242572
0.0244565
0.0246581
0.0248669
0.0250759
0.0252865
0.0254942
0.0257065
0.0259225
0.0261413
0.0263637
0.0265847
0.0268102
0.0270351
0.0272661
0.027496
0.0277327
0.0239955
0.0241924
0.0243881
0.0245864
0.0247868
0.0249897
0.0252
0.0254107
0.0256174
0.0258286
0.0260435
0.0262614
0.0264824
0.0267023
0.0269272
0.0271555
0.0273835
0.0276163
0.0278498
0.0241589
0.0243509
0.0245446
0.0247407
0.0249433
0.0251456
0.0253498
0.0255566
0.0257657
0.0259773
0.0261919
0.026411
0.0266269
0.0268473
0.0270716
0.0272958
0.0275244
0.0277526
0.0279869
0.0243441
0.0245339
0.0247288
0.0249237
0.025121
0.0253254
0.0255294
0.025735
0.0259431
0.026154
0.0263681
0.0265795
0.0267955
0.0270154
0.0272388
0.0274613
0.0276888
0.0279148
0.0281479
0.0245628
0.0247509
0.0249451
0.0251378
0.025333
0.0255302
0.0257345
0.0259388
0.0261453
0.0263539
0.0265653
0.0267793
0.0269915
0.0272088
0.0274299
0.0276542
0.0278771
0.0281058
0.0283331
0.0248101
0.0249961
0.0251873
0.0253788
0.0255764
0.0257722
0.0259709
0.0261715
0.0263745
0.02658
0.0267882
0.0269995
0.0272134
0.0274301
0.02765
0.0278682
0.0280921
0.0283199
0.0285455
0.0250757
0.0252588
0.0254484
0.0256364
0.0258266
0.0260227
0.02622
0.026418
0.0266178
0.0268203
0.0270309
0.0272424
0.0274501
0.0276624
0.0278786
0.028098
0.0283208
0.0285414
0.0287686
0.0252791
0.0254627
0.0256506
0.0258376
0.0260246
0.0262189
0.0264125
0.0266074
0.0268097
0.0270118
0.0272157
0.027422
0.0276306
0.0278419
0.0280565
0.0282743
0.02849
0.0287098
0.0289354
0.0224504
0.0226576
0.0228676
0.0230803
0.0232961
0.023516
0.023733
0.0239547
0.0241809
0.0244062
0.0246361
0.0248671
0.0251041
0.0253409
0.0255784
0.0258174
0.0260649
0.0263132
0.026563
0.0224623
0.0226695
0.0228796
0.0230929
0.0233094
0.0235236
0.0237426
0.0239655
0.0241886
0.0244162
0.0246433
0.0248766
0.0251096
0.0253487
0.0255883
0.0258287
0.0260714
0.0263169
0.0265658
0.0224795
0.0226869
0.0228969
0.0231095
0.0233247
0.0235429
0.0237654
0.0239858
0.0242107
0.0244356
0.0246663
0.0248967
0.0251334
0.02537
0.0256075
0.0258526
0.0260977
0.026344
0.0265926
0.0225199
0.0227285
0.0229395
0.0231481
0.0233614
0.0235786
0.0237993
0.0240196
0.0242442
0.0244731
0.0247018
0.0249356
0.0251695
0.025404
0.0256456
0.0258883
0.0261318
0.0263769
0.0266245
0.0225656
0.0227725
0.0229819
0.0231939
0.0234086
0.0236261
0.0238479
0.0240679
0.0242925
0.0245171
0.0247479
0.0249778
0.0252142
0.02545
0.025687
0.025932
0.0261767
0.0264224
0.0266704
0.0226388
0.0228455
0.0230549
0.0232673
0.0234776
0.0236926
0.0239115
0.0241338
0.0243561
0.024583
0.0248093
0.0250419
0.0252737
0.025512
0.0257502
0.0259895
0.0262315
0.0264818
0.0267324
0.0227269
0.0229336
0.0231428
0.0233548
0.0235641
0.0237783
0.0239963
0.0242179
0.0244393
0.0246654
0.0248961
0.0251256
0.0253553
0.0255926
0.0258295
0.0260675
0.0263141
0.0265612
0.0268098
0.0228336
0.0230385
0.023246
0.0234561
0.0236689
0.0238849
0.0241053
0.0243226
0.0245448
0.0247723
0.0249984
0.0252299
0.0254611
0.0256928
0.025932
0.0261714
0.0264122
0.0266552
0.0269014
0.0229726
0.0231761
0.0233818
0.0235904
0.0238025
0.0240182
0.0242316
0.0244497
0.0246716
0.024893
0.0251206
0.0253517
0.0255828
0.0258134
0.0260522
0.0262903
0.0265296
0.0267727
0.0270229
0.0231381
0.0233393
0.0235434
0.0237502
0.0239599
0.0241727
0.0243887
0.0246034
0.0248233
0.0250469
0.0252693
0.0254984
0.025731
0.0259632
0.0261953
0.0264353
0.0266752
0.0269163
0.0271599
0.0233298
0.0235297
0.0237318
0.0239365
0.024144
0.0243546
0.0245683
0.0247848
0.0250045
0.0252278
0.0254498
0.0256769
0.0259035
0.0261365
0.0263683
0.0266072
0.0268461
0.0270856
0.0273271
0.023561
0.0237588
0.023959
0.0241618
0.0243672
0.0245754
0.0247866
0.0250009
0.0252185
0.0254349
0.0256571
0.0258835
0.0261077
0.0263392
0.0265684
0.0268058
0.0270418
0.0272792
0.027525
0.0238225
0.0240165
0.0242172
0.0244188
0.0246221
0.024828
0.0250366
0.0252482
0.0254634
0.0256817
0.0258979
0.0261205
0.026347
0.0265716
0.0268032
0.0270334
0.0272718
0.0275088
0.0277464
0.0241079
0.0243028
0.0244989
0.0246961
0.0248954
0.025098
0.0253084
0.0255194
0.0257276
0.0259403
0.026157
0.0263774
0.0266015
0.0268233
0.027052
0.0272787
0.0275129
0.0277452
0.0279861
0.0243399
0.0245305
0.0247213
0.0249202
0.0251185
0.0253182
0.0255204
0.0257261
0.0259341
0.0261448
0.0263583
0.0265757
0.0267969
0.0270161
0.0272395
0.0274692
0.027696
0.0279301
0.0281626
0.0214637
0.0216797
0.021901
0.0221273
0.0223521
0.0225819
0.0228126
0.0230435
0.0232825
0.0235214
0.0237618
0.0240055
0.0242577
0.0245107
0.0247606
0.0250144
0.025272
0.0255334
0.0257981
0.0214694
0.0216883
0.0219108
0.0221336
0.0223608
0.022588
0.0228213
0.0230545
0.023294
0.0235343
0.0237758
0.0240195
0.0242661
0.0245158
0.0247685
0.0250242
0.0252829
0.0255448
0.0258101
0.02149
0.0217118
0.0219311
0.0221554
0.0223803
0.0226111
0.0228418
0.0230787
0.0233161
0.0235542
0.023795
0.0240434
0.0242924
0.0245433
0.0247965
0.0250528
0.0253069
0.0255659
0.0258295
0.0215236
0.021744
0.0219638
0.0221883
0.0224175
0.0226462
0.0228806
0.0231148
0.0233503
0.0235877
0.0238333
0.0240788
0.0243261
0.024576
0.0248285
0.0250843
0.0253435
0.0256004
0.0258622
0.0215749
0.0217963
0.022015
0.0222388
0.0224634
0.0226938
0.022924
0.0231607
0.0233975
0.023635
0.0238804
0.0241264
0.0243741
0.0246239
0.0248764
0.0251319
0.0253907
0.0256472
0.0259093
0.0216424
0.0218607
0.0220834
0.022305
0.0225314
0.022758
0.0229905
0.023223
0.0234618
0.0237014
0.0239422
0.0241853
0.0244311
0.0246798
0.0249316
0.0251863
0.0254445
0.0257056
0.02597
0.0217307
0.0219486
0.0221713
0.0223917
0.0226173
0.0228432
0.023075
0.0233067
0.0235448
0.0237837
0.0240237
0.0242658
0.024511
0.0247596
0.0250111
0.0252653
0.0255225
0.0257835
0.0260476
0.0218436
0.0220594
0.0222788
0.0225025
0.022725
0.0229527
0.023181
0.0234152
0.0236501
0.0238857
0.0241293
0.0243729
0.024618
0.0248657
0.0251163
0.02537
0.0256269
0.0258873
0.0261458
0.0219829
0.0221984
0.0224178
0.022636
0.0228592
0.0230868
0.0233142
0.0235468
0.0237804
0.0240143
0.0242566
0.0244994
0.0247435
0.0249902
0.0252397
0.0254921
0.0257477
0.0260069
0.0262694
0.022154
0.0223675
0.0225852
0.0228013
0.0230228
0.0232485
0.0234737
0.0237051
0.0239366
0.0241747
0.0244133
0.0246522
0.0248931
0.025138
0.025386
0.0256367
0.0258904
0.0261467
0.026407
0.0223567
0.0225679
0.0227827
0.0230008
0.0232181
0.0234409
0.0236678
0.0238945
0.0241272
0.0243601
0.0245938
0.024836
0.0250779
0.025321
0.0255664
0.0258148
0.0260666
0.0263216
0.0265799
0.0225977
0.022806
0.0230179
0.0232332
0.0234517
0.023674
0.0238954
0.024122
0.0243478
0.0245811
0.0248135
0.025054
0.0252942
0.0255351
0.0257781
0.0260242
0.0262739
0.0265262
0.0267819
0.0228801
0.023085
0.0232935
0.023505
0.0237204
0.0239395
0.0241616
0.0243822
0.0246091
0.0248408
0.0250712
0.0253031
0.0255424
0.0257809
0.0260214
0.026266
0.0265183
0.0267709
0.0270205
0.023198
0.0234001
0.0236047
0.0238123
0.0240235
0.0242383
0.0244569
0.0246738
0.024896
0.0251238
0.0253494
0.0255825
0.0258136
0.0260535
0.026292
0.0265313
0.0267744
0.0270209
0.0272695
0.023451
0.023654
0.023857
0.0240614
0.0242686
0.0244794
0.024694
0.024912
0.0251278
0.0253482
0.0255745
0.0257995
0.0260297
0.0262608
0.0264979
0.0267341
0.0269733
0.0272148
0.0274634
0.020751
0.020988
0.0212258
0.0214646
0.0217059
0.0219505
0.0221989
0.02245
0.022704
0.022961
0.0232221
0.0234865
0.0237545
0.0240213
0.0242934
0.0245642
0.0248415
0.0251179
0.0207629
0.0209953
0.0212349
0.0214756
0.021718
0.0219628
0.0222106
0.0224619
0.0227168
0.0229747
0.0232358
0.0235006
0.0237636
0.0240325
0.0243001
0.0245745
0.024847
0.0251271
0.0207807
0.0210178
0.0212551
0.0214938
0.0217406
0.0219884
0.0222379
0.02249
0.0227456
0.0229993
0.0232579
0.023521
0.023788
0.0240528
0.0243241
0.0245937
0.0248704
0.0251453
0.0208191
0.0210536
0.021289
0.0215323
0.0217768
0.0220228
0.0222715
0.0225232
0.0227782
0.0230367
0.0232928
0.0235544
0.0238207
0.0240856
0.0243556
0.0246308
0.0249049
0.0251795
0.0208647
0.0211015
0.0213383
0.0215766
0.0218233
0.0220707
0.0223199
0.0225716
0.0228268
0.0230804
0.0233382
0.0236011
0.0238678
0.0241323
0.0244031
0.0246731
0.0249492
0.0252245
0.0209336
0.0211664
0.0214057
0.0216462
0.0218882
0.0221327
0.0223799
0.0226304
0.0228842
0.0231413
0.0234018
0.023666
0.0239281
0.0241964
0.0244639
0.0247372
0.0250099
0.0252889
0.0210232
0.0212555
0.021489
0.0217309
0.0219732
0.0222171
0.0224637
0.0227135
0.0229666
0.0232231
0.0234831
0.0237468
0.0240082
0.0242765
0.0245489
0.0248197
0.0250963
0.0253723
0.0211348
0.0213644
0.0216019
0.0218391
0.0220781
0.0223264
0.0225751
0.0228256
0.023079
0.0233354
0.0235894
0.0238493
0.0241136
0.0243818
0.0246488
0.0249219
0.0251941
0.0254728
0.0212783
0.0215086
0.0217396
0.0219788
0.022218
0.0224591
0.0227038
0.0229522
0.0232035
0.0234577
0.0237144
0.0239751
0.0242395
0.0245074
0.024773
0.0250447
0.025315
0.0255928
0.021449
0.0216803
0.0219102
0.0221487
0.0223866
0.0226257
0.0228687
0.0231197
0.0233715
0.0236255
0.023877
0.0241329
0.0243939
0.0246593
0.0249232
0.0251919
0.025466
0.0257378
0.0216598
0.0218885
0.0221164
0.0223523
0.0225874
0.0228254
0.0230702
0.0233158
0.0235636
0.0238144
0.024068
0.024325
0.0245856
0.024844
0.0251077
0.0253765
0.0256433
0.0259169
0.0219146
0.0221396
0.0223691
0.022599
0.0228296
0.0230683
0.0233067
0.0235468
0.0237916
0.0240395
0.0242956
0.0245472
0.0248026
0.0250618
0.0253254
0.0255925
0.0258564
0.0261281
0.0222167
0.0224392
0.0226609
0.0228891
0.0231221
0.0233547
0.0235875
0.0238296
0.0240714
0.0243149
0.0245616
0.0248111
0.0250641
0.0253207
0.0255808
0.0258449
0.0261055
0.0263726
0.0225619
0.0227801
0.0229966
0.0232196
0.0234483
0.0236746
0.023909
0.0241419
0.0243774
0.0246205
0.0248635
0.0251083
0.0253558
0.0256064
0.0258607
0.0261189
0.0263801
0.0266396
0.0228484
0.0230621
0.0232743
0.0234914
0.0237125
0.0239396
0.0241648
0.0243962
0.024627
0.0248607
0.0250994
0.0253403
0.0255831
0.0258286
0.0260772
0.026329
0.0265836
0.026841
0.0198926
0.0201457
0.020396
0.0206507
0.02091
0.0211732
0.0214406
0.0217063
0.0219784
0.022249
0.022527
0.0228038
0.0230817
0.0233675
0.023653
0.0239396
0.0242281
0.0245182
0.0199002
0.0201498
0.020403
0.0206598
0.0209203
0.0211842
0.0214466
0.0217159
0.0219895
0.0222621
0.022535
0.0228151
0.0230942
0.0233752
0.023664
0.023952
0.0242409
0.0245316
0.0199256
0.0201759
0.0204296
0.0206871
0.0209431
0.0212051
0.0214715
0.0217366
0.0220078
0.022284
0.0225593
0.0228342
0.0231178
0.0234004
0.0236837
0.0239689
0.0242573
0.0245484
0.0199581
0.0202082
0.0204619
0.0207191
0.0209801
0.0212392
0.0215048
0.0217744
0.0220426
0.0223181
0.0225927
0.0228688
0.0231517
0.0234334
0.0237159
0.0240018
0.0242948
0.0245881
0.0200095
0.0202595
0.020513
0.0207702
0.021026
0.0212876
0.0215539
0.021819
0.0220896
0.0223655
0.0226404
0.0229152
0.0231984
0.0234806
0.0237636
0.0240489
0.0243376
0.0246336
0.0200735
0.0203224
0.020575
0.0208313
0.0210914
0.0213552
0.021617
0.021886
0.0221541
0.0224278
0.0227014
0.0229813
0.0232601
0.0235411
0.0238295
0.0241175
0.0244059
0.0246962
0.020163
0.0204113
0.0206632
0.0209188
0.0211784
0.0214417
0.0217029
0.0219707
0.0222381
0.0225112
0.0227842
0.0230634
0.0233414
0.0236275
0.0239134
0.0241998
0.0244871
0.0247764
0.020276
0.020523
0.0207736
0.0210273
0.0212849
0.0215468
0.0218125
0.0220761
0.0223462
0.0226156
0.0228906
0.0231651
0.0234467
0.0237273
0.0240087
0.0242992
0.0245891
0.0248799
0.0204259
0.0206719
0.0209208
0.0211733
0.0214296
0.0216899
0.0219488
0.0222138
0.0224836
0.022751
0.0230258
0.0232984
0.023579
0.0238582
0.0241377
0.024421
0.0247113
0.0250017
0.0206027
0.0208507
0.0210998
0.0213513
0.0216062
0.021865
0.022121
0.0223833
0.0226506
0.0229156
0.0231879
0.0234586
0.0237366
0.0240128
0.0242972
0.0245806
0.0248644
0.02515
0.0208252
0.0210656
0.0213151
0.0215654
0.0218183
0.0220744
0.0223278
0.0225866
0.0228508
0.0231188
0.0233848
0.0236581
0.0239296
0.0242088
0.0244869
0.0247649
0.0250523
0.0253385
0.0210948
0.0213323
0.0215727