/*--------------------------------*- C++ -*----------------------------------*\
| =========                 |                                                 |
| \\      /  F ield         | OpenFOAM: The Open Source CFD Toolbox           |
|  \\    /   O peration     | Version:  2412                                  |
|   \\  /    A nd           | Website:  www.openfoam.com                      |
|    \\/     M anipulation  |                                                 |
\*---------------------------------------------------------------------------*/
FoamFile
{
    version     2.0;
    format      ascii;
    arch        "LSB;label=32;scalar=64";
    class       volScalarField;
    location    "0.030011";
    object      Vm;
}
// * * * * * * * * * * * * * * * * * * * * * * * * * * * * * * * * * * * * * //

dimensions      [0 0 0 0 0 0 0];

internalField   nonuniform List<scalar> 
8835
(
1.01628e-08
7.47288e-09
5.45281e-09
3.94723e-09
2.83388e-09
2.01724e-09
1.42324e-09
9.94936e-10
6.88883e-10
4.72244e-10
3.20396e-10
2.15045e-10
1.42731e-10
9.36387e-11
6.06951e-11
3.88518e-11
2.4549e-11
1.53063e-11
9.95416e-09
7.31913e-09
5.34029e-09
3.86548e-09
2.77495e-09
1.97509e-09
1.39335e-09
9.73913e-10
6.74233e-10
4.6213e-10
3.13481e-10
2.10366e-10
1.39595e-10
9.15613e-11
5.9334e-11
3.79716e-11
2.39871e-11
1.49515e-11
9.54071e-09
7.01436e-09
5.11723e-09
3.70345e-09
2.65816e-09
1.89158e-09
1.33413e-09
9.3228e-10
6.45227e-10
4.42111e-10
2.998e-10
2.01112e-10
1.33403e-10
8.7463e-11
5.66547e-11
3.62406e-11
2.28823e-11
1.42552e-11
8.93406e-09
6.56704e-09
4.78979e-09
3.46556e-09
2.48666e-09
1.76895e-09
1.24717e-09
8.71159e-10
6.02657e-10
4.12741e-10
2.79737e-10
1.87547e-10
1.24329e-10
8.14624e-11
5.27323e-11
3.37077e-11
2.12683e-11
1.32382e-11
8.15423e-09
5.99195e-09
4.36879e-09
3.1597e-09
2.2662e-09
1.61134e-09
1.13545e-09
7.92654e-10
5.47999e-10
3.7505e-10
2.54005e-10
1.70161e-10
1.12709e-10
7.37815e-11
4.77135e-11
3.04678e-11
1.92016e-11
1.19384e-11
7.23467e-09
5.31379e-09
3.87234e-09
2.79905e-09
2.00629e-09
1.42556e-09
1.00379e-09
7.0018e-10
4.83648e-10
3.30702e-10
2.23748e-10
1.49733e-10
9.90671e-11
6.47741e-11
4.18352e-11
2.66785e-11
1.67906e-11
1.04243e-11
6.22039e-09
4.56593e-09
3.32502e-09
2.40159e-09
1.71996e-09
1.22099e-09
8.58899e-10
5.9848e-10
4.12931e-10
2.82004e-10
1.90553e-10
1.27342e-10
8.41296e-11
5.49221e-11
3.54139e-11
2.25461e-11
1.41639e-11
8.77728e-12
5.16612e-09
3.78891e-09
2.75667e-09
1.98911e-09
1.42301e-09
1.009e-09
7.08874e-10
4.93268e-10
3.39841e-10
2.31726e-10
1.56318e-10
1.04279e-10
6.87633e-11
4.4802e-11
2.88277e-11
1.83112e-11
1.14772e-11
7.09494e-12
4.13036e-09
3.02599e-09
2.19901e-09
1.58469e-09
1.13211e-09
8.01536e-10
5.62206e-10
3.90529e-10
2.68557e-10
1.82757e-10
1.23024e-10
8.18855e-11
5.38686e-11
3.50095e-11
2.2468e-11
1.42335e-11
8.89597e-12
5.4832e-12
3.16908e-09
2.31836e-09
1.68214e-09
1.21017e-09
8.62984e-10
6.09802e-10
4.26831e-10
2.95834e-10
2.02956e-10
1.37768e-10
9.24937e-11
6.13917e-11
4.02661e-11
2.60878e-11
1.66887e-11
1.05372e-11
6.56395e-12
4.03081e-12
2.32784e-09
1.6996e-09
1.23059e-09
8.83333e-10
6.28408e-10
4.42918e-10
3.09187e-10
2.13685e-10
1.46157e-10
9.88985e-11
6.61766e-11
4.3771e-11
2.8605e-11
1.84634e-11
1.17643e-11
7.39711e-12
4.58641e-12
2.80513e-12
1.6377e-09
1.19252e-09
8.60993e-10
6.16174e-10
4.36959e-10
3.06951e-10
2.13518e-10
1.47021e-10
1.00169e-10
6.75049e-11
4.49781e-11
2.96173e-11
1.92656e-11
1.23758e-11
7.84583e-12
4.90655e-12
3.02666e-12
1.84065e-12
1.1153e-09
8.0919e-10
5.82004e-10
4.14845e-10
2.92949e-10
2.0488e-10
1.41858e-10
9.72076e-11
6.58964e-11
4.41758e-11
2.92743e-11
1.91689e-11
1.23975e-11
7.91643e-12
4.98833e-12
3.1005e-12
1.89927e-12
1.14741e-12
7.66766e-10
5.53794e-10
3.9641e-10
2.8114e-10
1.97488e-10
1.37357e-10
9.45575e-11
6.44058e-11
4.33883e-11
2.88996e-11
1.90221e-11
1.23696e-11
7.94283e-12
5.03481e-12
3.14924e-12
1.94267e-12
1.18109e-12
7.08079e-13
5.92744e-10
4.26414e-10
3.03957e-10
2.14622e-10
1.50064e-10
1.03866e-10
7.11363e-11
4.81951e-11
3.22871e-11
2.13803e-11
1.39882e-11
9.03864e-12
5.76675e-12
3.63116e-12
2.25585e-12
1.38043e-12
8.33092e-13
4.96754e-13
6.49958e-08
4.79756e-08
3.51466e-08
2.55475e-08
1.84199e-08
1.31695e-08
9.33374e-09
6.55529e-09
4.56045e-09
3.14141e-09
2.1417e-09
1.44452e-09
9.63434e-10
6.35114e-10
4.1362e-10
2.65985e-10
1.68813e-10
1.05689e-10
6.367e-08
4.69952e-08
3.44266e-08
2.50225e-08
1.80398e-08
1.28965e-08
9.13929e-09
6.41792e-09
4.46426e-09
3.07466e-09
2.09583e-09
1.41331e-09
9.42428e-10
6.21131e-10
4.04419e-10
2.60003e-10
1.64972e-10
1.03257e-10
6.10387e-08
4.50488e-08
3.2997e-08
2.398e-08
1.72855e-08
1.2355e-08
8.7536e-09
6.14555e-09
4.27358e-09
2.94241e-09
2.00498e-09
1.35154e-09
9.00871e-10
5.93483e-10
3.86239e-10
2.48193e-10
1.57396e-10
9.84608e-11
5.71821e-08
4.2195e-08
3.09e-08
2.24504e-08
1.61783e-08
1.15599e-08
8.18733e-09
5.74568e-09
3.99373e-09
2.74838e-09
1.87178e-09
1.26102e-09
8.40022e-10
5.53033e-10
3.5966e-10
2.30941e-10
1.46341e-10
9.14675e-11
5.22247e-08
3.85259e-08
2.82035e-08
2.04835e-08
1.47546e-08
1.05377e-08
7.45953e-09
5.23195e-09
3.63437e-09
2.49938e-09
1.70095e-09
1.14504e-09
7.62111e-10
5.01283e-10
3.25688e-10
2.08912e-10
1.32237e-10
8.2559e-11
4.6378e-08
3.41981e-08
2.50228e-08
1.81633e-08
1.30754e-08
9.33225e-09
6.60144e-09
4.62646e-09
3.21104e-09
2.20623e-09
1.49997e-09
1.00869e-09
6.70604e-10
4.40562e-10
2.8587e-10
1.83121e-10
1.15746e-10
7.21547e-11
3.99263e-08
2.94229e-08
2.15141e-08
1.56048e-08
1.12245e-08
8.00409e-09
5.65648e-09
3.96006e-09
2.74542e-09
1.88403e-09
1.27926e-09
8.59076e-10
5.70297e-10
3.74077e-10
2.42325e-10
1.54955e-10
9.77626e-11
6.08263e-11
3.32159e-08
2.44581e-08
1.7868e-08
1.29477e-08
9.30347e-09
6.62666e-09
4.67719e-09
3.27003e-09
2.26373e-09
1.55105e-09
1.05141e-09
7.04804e-10
4.66993e-10
3.05698e-10
1.97606e-10
1.26075e-10
7.93545e-11
4.92517e-11
2.6614e-08
1.95765e-08
1.42855e-08
1.0339e-08
7.41908e-09
5.2767e-09
3.71842e-09
2.59522e-09
1.79324e-09
1.22624e-09
8.29467e-10
5.54766e-10
3.66695e-10
2.39429e-10
1.54354e-10
9.82037e-11
6.16311e-11
3.81342e-11
2.04766e-08
1.50409e-08
1.09592e-08
7.91873e-09
5.67228e-09
4.02658e-09
2.8316e-09
1.97189e-09
1.35931e-09
9.27167e-10
6.25478e-10
4.17139e-10
2.74893e-10
1.78918e-10
1.14961e-10
7.2887e-11
4.55769e-11
2.80949e-11
1.50938e-08
1.10658e-08
8.04638e-09
5.80123e-09
4.14567e-09
2.93543e-09
2.05871e-09
1.42956e-09
9.82463e-10
6.67967e-10
4.49083e-10
2.98422e-10
1.95918e-10
1.27014e-10
8.12758e-11
5.13081e-11
3.19404e-11
1.95997e-11
1.06649e-08
7.79829e-09
5.65457e-09
4.0646e-09
2.89541e-09
2.04326e-09
1.42792e-09
9.87827e-10
6.76207e-10
4.5784e-10
3.06471e-10
2.02728e-10
1.32461e-10
8.54515e-11
5.44001e-11
3.41603e-11
2.11505e-11
1.29069e-11
7.29978e-09
5.3185e-09
3.84176e-09
2.75039e-09
1.95091e-09
1.37059e-09
9.53338e-10
6.5627e-10
4.46926e-10
3.0097e-10
2.00336e-10
1.3175e-10
8.55669e-11
5.48569e-11
3.46991e-11
2.16467e-11
1.33132e-11
8.06816e-12
5.04502e-09
3.65907e-09
2.63043e-09
1.87367e-09
1.32197e-09
9.23554e-10
6.38626e-10
4.36924e-10
2.95637e-10
1.97756e-10
1.30719e-10
8.53466e-11
5.50185e-11
3.50027e-11
2.1968e-11
1.35934e-11
8.29131e-12
4.98331e-12
3.91484e-09
2.82819e-09
2.02466e-09
1.43582e-09
1.00834e-09
7.00983e-10
4.82209e-10
3.28111e-10
2.20743e-10
1.46777e-10
9.64154e-11
6.25421e-11
4.00457e-11
2.52995e-11
1.57644e-11
9.68378e-12
5.86229e-12
3.49805e-12
4.6976e-07
3.47912e-07
2.55794e-07
1.86634e-07
1.35087e-07
9.69662e-08
6.9005e-08
4.86692e-08
3.40072e-08
2.35308e-08
1.61155e-08
1.09193e-08
7.3161e-09
4.84497e-09
3.16957e-09
2.04724e-09
1.30485e-09
8.20237e-10
4.60204e-07
3.40828e-07
2.50579e-07
1.8282e-07
1.32318e-07
9.49704e-08
6.75781e-08
4.76573e-08
3.32957e-08
2.30348e-08
1.5773e-08
1.0685e-08
7.15765e-09
4.73897e-09
3.09948e-09
2.00146e-09
1.27532e-09
8.01446e-10
4.41224e-07
3.26751e-07
2.40209e-07
1.75235e-07
1.2681e-07
9.10024e-08
6.47422e-08
4.5647e-08
3.18825e-08
2.20501e-08
1.50933e-08
1.02207e-08
6.84371e-09
4.52908e-09
2.96079e-09
1.91092e-09
1.21698e-09
7.64348e-10
4.13479e-07
3.06161e-07
2.2503e-07
1.64123e-07
1.18736e-07
8.51817e-08
6.05805e-08
4.26963e-08
2.98085e-08
2.06056e-08
1.4097e-08
9.54048e-09
6.38431e-09
4.22225e-09
2.75823e-09
1.77883e-09
1.13193e-09
7.10323e-10
3.77841e-07
2.79706e-07
2.05522e-07
1.49838e-07
1.08355e-07
7.76993e-08
5.52317e-08
3.89054e-08
2.71454e-08
1.87521e-08
1.28196e-08
8.66918e-09
5.79636e-09
3.82993e-09
2.49949e-09
1.61028e-09
1.02354e-09
6.41546e-10
3.35807e-07
2.48496e-07
1.82503e-07
1.32982e-07
9.61075e-08
6.88722e-08
4.89233e-08
3.44357e-08
2.40068e-08
1.6569e-08
1.13162e-08
7.64454e-09
5.10559e-09
3.36945e-09
2.19613e-09
1.41289e-09
8.96759e-10
5.61217e-10
2.89421e-07
2.14051e-07
1.57099e-07
1.14385e-07
8.26009e-08
5.91425e-08
4.19729e-08
2.95135e-08
2.05524e-08
1.41678e-08
9.66376e-09
6.51929e-09
4.34764e-09
2.86469e-09
1.86398e-09
1.19704e-09
7.5832e-10
4.73633e-10
2.41163e-07
1.78223e-07
1.30689e-07
9.50639e-08
6.85778e-08
4.90474e-08
3.47663e-08
2.44134e-08
1.69761e-08
1.16841e-08
7.95635e-09
5.35786e-09
3.56624e-09
2.345e-09
1.5225e-09
9.7549e-10
6.16472e-10
3.84061e-10
1.9362e-07
1.42943e-07
1.04702e-07
7.60696e-08
5.48051e-08
3.91419e-08
2.77016e-08
1.94191e-08
1.34781e-08
9.25806e-09
6.2909e-09
4.22668e-09
2.80645e-09
1.8406e-09
1.19172e-09
7.61346e-10
4.79681e-10
2.97894e-10
1.49349e-07
1.10107e-07
8.05315e-08
5.84178e-08
4.20165e-08
2.99524e-08
2.11546e-08
1.47967e-08
1.02454e-08
7.01975e-09
4.75706e-09
3.18689e-09
2.10952e-09
1.37901e-09
8.89798e-10
5.66415e-10
3.55526e-10
2.19927e-10
1.10438e-07
8.12669e-08
5.93206e-08
4.29404e-08
3.08136e-08
2.19113e-08
1.54337e-08
1.07641e-08
7.43052e-09
5.07458e-09
3.42701e-09
2.28743e-09
1.50827e-09
9.81948e-10
6.30899e-10
3.99825e-10
2.49802e-10
1.53786e-10
7.83394e-08
5.7499e-08
4.18569e-08
3.021e-08
2.16099e-08
1.53147e-08
1.07487e-08
7.46839e-09
5.13496e-09
3.49211e-09
2.34784e-09
1.55979e-09
1.02345e-09
6.62915e-10
4.23662e-10
2.67013e-10
1.65876e-10
1.01523e-10
5.38655e-08
3.9397e-08
2.85715e-08
2.05384e-08
1.46289e-08
1.03207e-08
7.20942e-09
4.98435e-09
3.40911e-09
2.30567e-09
1.54123e-09
1.01777e-09
6.63641e-10
4.27078e-10
2.71117e-10
1.69695e-10
1.04675e-10
6.36046e-11
3.74019e-08
2.72334e-08
1.9656e-08
1.40582e-08
9.95987e-09
6.98734e-09
4.85213e-09
3.33373e-09
2.26523e-09
1.52153e-09
1.0098e-09
6.6188e-10
4.28253e-10
2.73397e-10
1.72129e-10
1.06827e-10
6.53263e-11
3.93453e-11
2.91177e-08
2.11188e-08
1.51796e-08
1.08091e-08
7.6225e-09
5.32134e-09
3.67602e-09
2.51176e-09
1.69681e-09
1.13279e-09
7.4701e-10
4.86366e-10
3.12502e-10
1.98058e-10
1.23762e-10
7.62165e-11
4.62377e-11
2.76235e-11
3.39976e-06
2.52554e-06
1.86309e-06
1.36443e-06
9.91499e-07
7.14565e-07
5.10563e-07
3.61587e-07
2.5375e-07
1.76376e-07
1.21358e-07
8.26139e-08
5.56124e-08
3.70013e-08
2.43196e-08
1.57809e-08
1.01034e-08
6.37827e-09
3.33041e-06
2.47405e-06
1.82515e-06
1.33665e-06
9.71279e-07
6.99949e-07
5.00081e-07
3.54131e-07
2.48489e-07
1.72693e-07
1.18803e-07
8.08572e-08
5.44177e-08
3.61978e-08
2.37856e-08
1.54303e-08
9.87613e-09
6.23291e-09
3.19283e-06
2.37178e-06
1.74967e-06
1.2813e-06
9.30972e-07
6.70814e-07
4.79189e-07
3.39272e-07
2.38006e-07
1.65358e-07
1.13716e-07
7.73638e-08
5.20441e-08
3.4603e-08
2.27265e-08
1.47355e-08
9.42616e-09
5.94544e-09
2.99258e-06
2.22283e-06
1.63961e-06
1.20049e-06
8.72025e-07
6.28142e-07
4.48557e-07
3.1747e-07
2.22622e-07
1.54596e-07
1.06257e-07
7.22473e-08
4.85718e-08
3.22729e-08
2.11809e-08
1.37227e-08
8.77096e-09
5.52729e-09
2.7359e-06
2.03187e-06
1.4984e-06
1.09672e-06
7.96293e-07
5.73312e-07
4.09202e-07
2.89469e-07
2.02871e-07
1.4079e-07
9.66975e-08
6.56957e-08
4.41303e-08
2.92956e-08
1.92081e-08
1.24313e-08
7.93658e-09
4.99546e-09
2.4331e-06
1.80656e-06
1.33175e-06
9.74222e-07
7.06898e-07
5.08607e-07
3.62775e-07
2.56447e-07
1.79588e-07
1.24522e-07
8.54417e-08
5.79888e-08
3.89107e-08
2.58e-08
1.68944e-08
1.09187e-08
6.96046e-09
4.37415e-09
2.09918e-06
1.55798e-06
1.14781e-06
8.39015e-07
6.08268e-07
4.37262e-07
3.11612e-07
2.20071e-07
1.53949e-07
1.06617e-07
7.30614e-08
4.95182e-08
3.31782e-08
2.19642e-08
1.4358e-08
9.26236e-09
5.89309e-09
3.69581e-09
1.75197e-06
1.29947e-06
9.5654e-07
6.98485e-07
5.05838e-07
3.63229e-07
2.58553e-07
1.82365e-07
1.27389e-07
8.80829e-08
6.02588e-08
4.07681e-08
2.72632e-08
1.80112e-08
1.17477e-08
7.5605e-09
4.79828e-09
3.00132e-09
1.40949e-06
1.0445e-06
7.67984e-07
5.601e-07
4.05102e-07
2.90505e-07
2.06482e-07
1.45394e-07
1.01373e-07
6.99525e-08
4.77529e-08
3.22337e-08
2.15032e-08
1.41684e-08
9.21518e-09
5.91295e-09
3.74091e-09
2.33224e-09
1.09008e-06
8.06685e-07
5.92225e-07
4.31244e-07
3.11405e-07
2.22926e-07
1.58138e-07
1.11107e-07
7.72808e-08
5.31913e-08
3.62125e-08
2.43729e-08
1.62084e-08
1.06439e-08
6.89834e-09
4.40989e-09
2.77913e-09
1.72558e-09
8.08702e-07
5.9729e-07
4.37629e-07
3.18029e-07
2.29158e-07
1.63655e-07
1.15784e-07
8.1113e-08
5.62444e-08
3.85863e-08
2.61785e-08
1.75541e-08
1.16274e-08
7.60356e-09
4.90618e-09
3.12193e-09
1.958e-09
1.20966e-09
5.75899e-07
4.24253e-07
3.1003e-07
2.24672e-07
1.61393e-07
1.14873e-07
8.09768e-08
5.65126e-08
3.90299e-08
2.66634e-08
1.80083e-08
1.20178e-08
7.92023e-09
5.15201e-09
3.30605e-09
2.09169e-09
1.30405e-09
8.0069e-10
3.9772e-07
2.91999e-07
2.12613e-07
1.53471e-07
1.09777e-07
7.77795e-08
5.45675e-08
3.78922e-08
2.60326e-08
1.76854e-08
1.18744e-08
7.87544e-09
5.15682e-09
3.33201e-09
2.1233e-09
1.3337e-09
8.25308e-10
5.02873e-10
2.77373e-07
2.02768e-07
1.46953e-07
1.05541e-07
7.50893e-08
5.29041e-08
3.68973e-08
2.54625e-08
1.73779e-08
1.17235e-08
7.81386e-09
5.14284e-09
3.34077e-09
2.14076e-09
1.35249e-09
8.4201e-10
5.16299e-10
3.11661e-10
2.16573e-07
1.57722e-07
1.13837e-07
8.14006e-08
5.76475e-08
4.04187e-08
2.80444e-08
1.92469e-08
1.3059e-08
8.75548e-09
5.79777e-09
3.78994e-09
2.44437e-09
1.55465e-09
9.74545e-10
6.01816e-10
3.65944e-10
2.1901e-10
2.45963e-05
1.83197e-05
1.355e-05
9.95582e-06
7.26359e-06
5.25752e-06
3.77241e-06
2.68241e-06
1.89016e-06
1.31965e-06
9.12358e-07
6.2414e-07
4.2219e-07
2.82249e-07
1.86406e-07
1.21545e-07
7.81889e-08
4.95866e-08
2.40907e-05
1.79427e-05
1.32724e-05
9.75298e-06
7.11602e-06
5.15064e-06
3.69553e-06
2.62757e-06
1.85136e-06
1.29242e-06
8.93379e-07
6.11023e-07
4.13217e-07
2.7618e-07
1.82351e-07
1.18868e-07
7.64438e-08
4.84645e-08
2.30899e-05
1.71959e-05
1.27208e-05
9.34858e-06
6.82118e-06
4.9369e-06
3.54167e-06
2.51777e-06
1.77368e-06
1.23789e-06
8.55401e-07
5.84806e-07
3.95307e-07
2.64085e-07
1.74279e-07
1.13545e-07
7.29781e-08
4.62386e-08
2.16411e-05
1.61147e-05
1.19214e-05
8.76119e-06
6.39164e-06
4.62457e-06
3.31636e-06
2.35675e-06
1.65967e-06
1.15784e-06
7.99676e-07
5.46382e-07
3.69097e-07
2.46412e-07
1.625e-07
1.05788e-07
6.79345e-08
4.30035e-08
1.9792e-05
1.47358e-05
1.09007e-05
8.00957e-06
5.84092e-06
4.22369e-06
3.02709e-06
2.15008e-06
1.51339e-06
1.05519e-06
7.28269e-07
4.97192e-07
3.35583e-07
2.2384e-07
1.47475e-07
9.59062e-08
6.15173e-08
3.88931e-08
1.76066e-05
1.31078e-05
9.69582e-06
7.12198e-06
5.19037e-06
3.75024e-06
2.68572e-06
1.90635e-06
1.34094e-06
9.34209e-07
6.44155e-07
4.39303e-07
2.96185e-07
1.97334e-07
1.29849e-07
8.43263e-08
5.40076e-08
3.409e-08
1.52006e-05
1.13152e-05
8.36741e-06
6.14225e-06
4.47206e-06
3.22785e-06
2.30946e-06
1.63789e-06
1.15103e-06
8.00993e-07
5.51571e-07
3.75628e-07
2.52882e-07
1.68221e-07
1.10504e-07
7.16286e-08
4.57832e-08
2.88379e-08
1.27032e-05
9.45409e-06
6.98704e-06
5.12364e-06
3.72561e-06
2.68566e-06
1.91934e-06
1.35965e-06
9.54223e-07
6.62993e-07
4.55745e-07
3.09803e-07
2.08172e-07
1.38197e-07
9.05776e-08
5.85695e-08
3.73394e-08
2.34557e-08
1.0239e-05
7.61674e-06
5.62365e-06
4.1181e-06
2.98993e-06
2.15237e-06
1.53617e-06
1.08657e-06
7.6119e-07
5.2777e-07
3.61985e-07
2.45504e-07
1.64569e-07
1.08964e-07
7.12122e-08
4.59057e-08
2.91712e-08
1.82624e-08
7.93995e-06
5.89982e-06
4.34886e-06
3.1788e-06
2.30407e-06
1.65603e-06
1.1799e-06
8.3285e-07
5.82027e-07
4.02475e-07
2.75286e-07
1.86165e-07
1.24403e-07
8.20896e-08
5.34523e-08
3.43243e-08
2.1724e-08
1.35429e-08
5.9115e-06
4.38349e-06
3.22382e-06
2.35146e-06
1.70103e-06
1.22003e-06
8.67095e-07
6.10273e-07
4.25119e-07
2.92993e-07
1.9971e-07
1.34557e-07
8.9556e-08
5.88392e-08
3.81378e-08
2.43734e-08
1.53493e-08
9.51908e-09
4.22766e-06
3.12589e-06
2.29263e-06
1.66787e-06
1.20316e-06
8.6019e-07
6.09126e-07
4.2702e-07
2.96249e-07
2.03316e-07
1.37967e-07
9.25099e-08
6.12526e-08
4.0024e-08
2.57949e-08
1.63876e-08
1.02563e-08
6.31948e-09
2.93206e-06
2.16046e-06
1.5792e-06
1.14471e-06
8.2241e-07
5.8529e-07
4.12433e-07
2.87668e-07
1.98531e-07
1.35501e-07
9.14049e-08
6.09019e-08
4.00565e-08
2.59932e-08
1.66321e-08
1.04873e-08
6.51242e-09
3.98036e-09
2.05267e-06
1.50647e-06
1.0964e-06
7.90888e-07
5.6516e-07
3.9992e-07
2.80147e-07
1.94201e-07
1.33152e-07
9.02441e-08
6.04225e-08
3.99438e-08
2.60579e-08
1.67658e-08
1.06327e-08
6.64253e-09
4.08546e-09
2.47249e-09
1.60654e-06
1.17497e-06
8.51772e-07
6.11736e-07
4.35107e-07
3.0641e-07
2.13565e-07
1.47252e-07
1.00376e-07
6.76065e-08
4.49676e-08
2.95217e-08
1.91193e-08
1.22075e-08
7.67961e-09
4.75733e-09
2.90047e-09
1.73955e-09
0.000177902
0.000133026
9.85535e-05
7.25225e-05
5.30679e-05
3.85884e-05
2.7831e-05
1.98782e-05
1.40597e-05
9.85412e-06
6.84421e-06
4.70661e-06
3.20053e-06
2.1503e-06
1.42699e-06
9.35078e-07
6.04588e-07
3.85326e-07
0.000174258
0.00013025
9.6497e-05
7.10269e-05
5.19875e-05
3.78085e-05
2.72691e-05
1.94753e-05
1.37739e-05
9.65331e-06
6.70402e-06
4.60927e-06
3.13347e-06
2.10465e-06
1.3963e-06
9.14707e-07
5.91232e-07
3.76684e-07
0.000166991
0.000124763
9.24302e-05
6.80542e-05
4.98305e-05
3.62466e-05
2.61395e-05
1.86643e-05
1.31981e-05
9.24845e-06
6.42139e-06
4.41331e-06
2.9988e-06
2.01318e-06
1.33495e-06
8.7405e-07
5.64609e-07
3.59481e-07
0.00015653
0.000116854
8.65671e-05
6.3761e-05
4.6702e-05
3.39689e-05
2.44861e-05
1.74747e-05
1.23525e-05
8.65348e-06
6.00606e-06
4.12555e-06
2.80134e-06
1.87929e-06
1.24531e-06
8.14735e-07
5.25836e-07
3.34471e-07
0.000143275
0.000106874
7.917e-05
5.83246e-05
4.27192e-05
3.10555e-05
2.23661e-05
1.59495e-05
1.1269e-05
7.89146e-06
5.47418e-06
3.75717e-06
2.54881e-06
1.70832e-06
1.131e-06
7.39216e-07
4.76546e-07
3.0273e-07
0.000127467
9.50329e-05
7.04208e-05
5.1901e-05
3.80095e-05
2.76078e-05
1.98603e-05
1.41503e-05
9.99219e-06
6.99348e-06
4.84731e-06
3.32322e-06
2.25171e-06
1.50745e-06
9.9684e-07
6.50675e-07
4.1883e-07
2.65623e-07
0.000110074
8.20456e-05
6.08187e-05
4.48301e-05
3.28092e-05
2.37977e-05
1.70952e-05
1.21686e-05
8.58702e-06
6.00497e-06
4.15697e-06
2.84549e-06
1.92495e-06
1.28671e-06
8.49485e-07
5.53466e-07
3.55522e-07
2.2498e-07
9.20364e-05
6.86182e-05
5.08814e-05
3.74893e-05
2.73985e-05
1.98355e-05
1.42269e-05
1.01163e-05
7.13176e-06
4.98062e-06
3.44164e-06
2.35113e-06
1.58742e-06
1.05901e-06
6.97644e-07
4.53413e-07
2.90465e-07
1.83292e-07
7.42325e-05
5.53802e-05
4.1069e-05
3.02257e-05
2.20441e-05
1.59269e-05
1.14073e-05
8.1021e-06
5.70356e-06
3.97511e-06
2.74013e-06
1.8673e-06
1.25775e-06
8.36985e-07
5.4982e-07
3.56204e-07
2.27419e-07
1.43004e-07
5.76639e-05
4.30282e-05
3.18745e-05
2.34047e-05
1.70268e-05
1.22799e-05
8.78362e-06
6.22907e-06
4.37536e-06
3.04078e-06
2.08974e-06
1.41989e-06
9.53519e-07
6.32411e-07
4.13872e-07
2.67044e-07
1.6978e-07
1.06298e-07
4.30894e-05
3.21076e-05
2.372e-05
1.73649e-05
1.26041e-05
9.07455e-06
6.4788e-06
4.58271e-06
3.20819e-06
2.22149e-06
1.52122e-06
1.02989e-06
6.88913e-07
4.54909e-07
2.96287e-07
1.90223e-07
1.20319e-07
7.49262e-08
3.09815e-05
2.30078e-05
1.69346e-05
1.23605e-05
8.95005e-06
6.42715e-06
4.57345e-06
3.22167e-06
2.24534e-06
1.54798e-06
1.05541e-06
7.11196e-07
4.73257e-07
3.10734e-07
2.01185e-07
1.28376e-07
8.06812e-08
4.99046e-08
2.15928e-05
1.59644e-05
1.17082e-05
8.51953e-06
6.14818e-06
4.3965e-06
3.1126e-06
2.18072e-06
1.51171e-06
1.03661e-06
7.02701e-07
4.70517e-07
3.10949e-07
2.027e-07
1.30268e-07
8.24841e-08
5.14197e-08
3.15355e-08
1.51627e-05
1.11662e-05
8.15943e-06
5.9128e-06
4.24546e-06
3.01804e-06
2.12349e-06
1.47859e-06
1.01855e-06
6.93706e-07
4.66743e-07
3.10011e-07
2.03157e-07
1.31283e-07
8.36061e-08
5.24329e-08
3.23594e-08
1.96408e-08
1.18814e-05
8.72546e-06
6.35513e-06
4.58632e-06
3.27712e-06
2.31791e-06
1.62277e-06
1.1242e-06
7.70137e-07
5.21288e-07
3.48389e-07
2.29773e-07
1.49472e-07
9.58467e-08
6.05377e-08
3.76358e-08
2.30163e-08
1.38384e-08
0.00127826
0.000967544
0.000719995
0.000529319
0.000386803
0.000281879
0.000204592
0.000147182
0.000104572
7.34947e-05
5.12112e-05
3.53938e-05
2.42171e-05
1.63634e-05
1.09119e-05
7.18419e-06
4.66926e-06
2.99217e-06
0.00125345
0.000947809
0.000704565
0.000518006
0.00037873
0.00027617
0.000200531
0.00014424
0.000102462
7.20097e-05
5.01778e-05
3.46767e-05
2.37197e-05
1.60214e-05
1.06801e-05
7.02945e-06
4.56724e-06
2.92572e-06
0.0012019
0.000907754
0.000674278
0.000495793
0.000362799
0.000264809
0.00019233
0.000138281
9.81875e-05
6.89953e-05
4.80774e-05
3.32209e-05
2.27137e-05
1.53328e-05
1.02154e-05
6.72014e-06
4.36368e-06
2.79327e-06
0.00112862
0.000850001
0.000630461
0.000463682
0.000339723
0.000248254
0.00018032
0.000129524
9.18974e-05
6.45587e-05
4.49844e-05
3.10759e-05
2.12323e-05
1.43202e-05
9.53347e-06
6.26704e-06
4.0661e-06
2.60016e-06
0.00103683
0.000778252
0.000576426
0.00042401
0.000310947
0.000227329
0.00016497
0.000118301
8.38509e-05
5.88905e-05
4.10317e-05
2.83306e-05
1.93356e-05
1.3026e-05
8.6639e-06
5.69065e-06
3.6883e-06
2.35542e-06
0.000924926
0.000691479
0.000511783
0.000376916
0.00027688
0.000202494
0.000146737
0.000105023
7.43675e-05
5.22187e-05
3.63748e-05
2.50916e-05
1.70991e-05
1.1503e-05
7.64229e-06
5.01414e-06
3.2453e-06
2.06897e-06
0.00080006
0.000596382
0.000441402
0.000325632
0.00023954
0.000175058
0.000126522
9.03677e-05
6.39414e-05
4.48903e-05
3.12512e-05
2.15229e-05
1.46373e-05
9.82958e-06
6.52076e-06
4.27131e-06
2.75884e-06
1.75475e-06
0.000669408
0.000498321
0.000369234
0.000272896
0.000200807
0.000146397
0.00010545
7.51785e-05
5.31639e-05
3.73081e-05
2.59377e-05
1.78218e-05
1.20914e-05
8.10372e-06
5.36554e-06
3.50642e-06
2.25837e-06
1.43207e-06
0.000539089
0.000401661
0.00029841
0.000220907
0.000162282
0.000117852
8.46478e-05
6.02795e-05
4.26086e-05
2.98662e-05
2.07111e-05
1.41867e-05
9.59966e-06
6.41913e-06
4.23956e-06
2.76185e-06
1.77238e-06
1.11971e-06
0.000417884
0.00031226
0.000232564
0.000171999
0.00012581
9.10099e-05
6.52585e-05
4.64485e-05
3.2801e-05
2.29332e-05
1.58446e-05
1.08153e-05
7.29666e-06
4.86459e-06
3.20118e-06
2.07643e-06
1.32651e-06
8.3427e-07
0.000312488
0.000234066
0.000174141
0.000128201
9.33416e-05
6.73641e-05
4.82606e-05
3.43117e-05
2.41634e-05
1.68216e-05
1.15717e-05
7.8695e-06
5.29053e-06
3.51263e-06
2.30008e-06
1.48396e-06
9.4292e-07
5.89778e-07
0.000226063
0.000169074
0.000125096
9.15693e-05
6.64541e-05
4.78799e-05
3.42394e-05
2.42586e-05
1.69956e-05
1.17695e-05
8.05969e-06
5.45785e-06
3.65156e-06
2.41043e-06
1.56836e-06
1.00538e-06
6.34671e-07
3.9424e-07
0.000158851
0.000117977
8.67476e-05
6.32738e-05
4.58267e-05
3.29368e-05
2.34491e-05
1.65105e-05
1.14948e-05
7.91633e-06
5.39259e-06
3.63014e-06
2.41175e-06
1.57988e-06
1.02e-06
6.48734e-07
4.06144e-07
2.50051e-07
0.000111964
8.26464e-05
6.05524e-05
4.4058e-05
3.18042e-05
2.27347e-05
1.60726e-05
1.12387e-05
7.77587e-06
5.32219e-06
3.60006e-06
2.40365e-06
1.58279e-06
1.02752e-06
6.57299e-07
4.13995e-07
2.56497e-07
1.562e-07
8.76821e-05
6.45643e-05
4.72243e-05
3.42705e-05
2.46267e-05
1.75017e-05
1.23038e-05
8.56077e-06
5.89413e-06
4.01149e-06
2.69529e-06
1.78637e-06
1.1675e-06
7.52094e-07
4.77162e-07
2.97864e-07
1.82802e-07
1.10229e-07
0.00892998
0.00692785
0.00529666
0.00391033
0.00283698
0.00204866
0.00148836
0.00108443
0.000778935
0.000549324
0.000382743
0.000265018
0.000182545
0.000124356
8.34124e-05
5.51418e-05
3.59995e-05
2.32053e-05
0.00876364
0.00682595
0.0051853
0.00382254
0.00277334
0.00200524
0.00145932
0.0010635
0.000763426
0.000538225
0.00037504
0.000259737
0.000178891
0.000121811
8.16622e-05
5.39628e-05
3.52191e-05
2.26946e-05
0.00841427
0.00655076
0.00496482
0.00365424
0.00265154
0.00192081
0.00140057
0.00102062
0.000731866
0.000515599
0.000359298
0.000248961
0.00017147
0.000116678
7.81601e-05
5.16187e-05
3.36726e-05
2.16824e-05
0.00792714
0.00617697
0.0046382
0.00340554
0.00247286
0.00179773
0.00131504
0.000958097
0.000685275
0.000482216
0.000336078
0.000233035
0.000160481
0.000109061
7.29678e-05
4.81507e-05
3.13903e-05
2.01943e-05
0.00734335
0.00568864
0.00424685
0.00310893
0.00225842
0.00164713
0.00120714
0.000877357
0.000625484
0.000439592
0.000306501
0.000212686
0.000146371
9.92961e-05
6.6343e-05
4.37483e-05
2.8503e-05
1.83137e-05
0.00664902
0.00507324
0.00376101
0.00274845
0.00200316
0.00146896
0.0010789
0.000780722
0.000554723
0.0003895
0.0002718
0.000188696
0.000129657
8.77486e-05
5.85353e-05
3.85696e-05
2.51072e-05
1.61056e-05
0.00583017
0.00438345
0.00323155
0.00236195
0.00173116
0.00127571
0.000935351
0.000672879
0.000476681
0.000334684
0.00023386
0.000162321
0.000111221
7.50596e-05
4.99849e-05
3.29001e-05
2.13818e-05
1.36816e-05
0.00491791
0.00366156
0.00269028
0.00197303
0.00145624
0.00107571
0.000783007
0.000560004
0.00039595
0.000278273
0.000194655
0.000134863
9.20686e-05
6.19567e-05
4.11883e-05
2.70663e-05
1.75429e-05
1.11867e-05
0.00396345
0.00293277
0.0021589
0.00159685
0.00118534
0.00087213
0.000629762
0.00044864
0.000317215
0.000223312
0.000156113
0.000107706
7.32254e-05
4.91517e-05
3.26221e-05
2.13847e-05
1.38068e-05
8.76683e-06
0.0030511
0.00225929
0.00167893
0.00125315
0.000928899
0.000676237
0.000485368
0.000345421
0.000244695
0.00017234
0.00012
8.23426e-05
5.57633e-05
3.73385e-05
2.47153e-05
1.61319e-05
1.03614e-05
6.54657e-06
0.00225874
0.00168778
0.0012663
0.000945084
0.000692842
0.000500633
0.000358573
0.000255604
0.000181264
0.000127194
8.79846e-05
6.00619e-05
4.05419e-05
2.70674e-05
1.78356e-05
1.15719e-05
7.38777e-06
4.64158e-06
0.00163155
0.00123227
0.000923679
0.000680248
0.000494069
0.000355805
0.000255056
0.000181927
0.000128451
8.94402e-05
6.14757e-05
4.17931e-05
2.81136e-05
1.86749e-05
1.22205e-05
7.87166e-06
4.99156e-06
3.11481e-06
0.00116123
0.000872455
0.000644463
0.000470225
0.00034054
0.000245521
0.000176007
0.000124843
8.73579e-05
6.03764e-05
4.12893e-05
2.79455e-05
1.86817e-05
1.23073e-05
7.98425e-06
5.10105e-06
3.20827e-06
1.98398e-06
0.000828005
0.000613081
0.000449101
0.000326948
0.000237019
0.000170694
0.00012151
8.53554e-05
5.92591e-05
4.07256e-05
2.77016e-05
1.86099e-05
1.23223e-05
8.03751e-06
5.16504e-06
3.26843e-06
2.03411e-06
1.24349e-06
0.00064836
0.000477194
0.000349182
0.000254508
0.000184315
0.000131946
9.31809e-05
6.50425e-05
4.49599e-05
3.07735e-05
2.08098e-05
1.38709e-05
9.10911e-06
5.89522e-06
3.75844e-06
2.35737e-06
1.45272e-06
8.78915e-07
0.0647861
0.049177
0.0385436
0.0293697
0.0214631
0.0151377
0.0106639
0.00778879
0.00578204
0.00413665
0.00288086
0.00197927
0.00136345
0.00094087
0.000638096
0.000423764
0.000277126
0.000179474
0.0630748
0.0482334
0.0377904
0.0287255
0.0209421
0.0147608
0.0104326
0.00764241
0.00567208
0.00405418
0.00282181
0.00193912
0.00133657
0.000922404
0.000624907
0.000414687
0.000271093
0.000175539
0.0602137
0.0465258
0.0363916
0.0275354
0.0199893
0.014073
0.0099896
0.00734689
0.00544785
0.00388506
0.00270088
0.00185744
0.00128239
0.000884973
0.000598821
0.000396945
0.000259384
0.000167906
0.0562125
0.0439298
0.0341944
0.0256759
0.0185253
0.0130483
0.00935576
0.00694225
0.00511933
0.00363437
0.00252198
0.00173709
0.00120247
0.00082884
0.0005594
0.00037017
0.000241772
0.000156462
0.051963
0.0409376
0.0316259
0.0234934
0.0168043
0.0118538
0.00859558
0.00642131
0.00468873
0.00331013
0.00229313
0.00158397
0.00109971
0.000756331
0.000508946
0.000336316
0.000219712
0.000142133
0.0470063
0.0369799
0.028198
0.0206622
0.0146758
0.0104658
0.00772941
0.0057852
0.00416993
0.00292695
0.00202645
0.00140563
0.000978099
0.000669654
0.000448955
0.00029629
0.000193642
0.00012517
0.0417306
0.0324711
0.0243392
0.0175766
0.0124722
0.00905516
0.00680828
0.00502658
0.00358675
0.00250561
0.0017391
0.0012133
0.000843118
0.000574012
0.000383381
0.000252804
0.00016525
0.000106582
0.0360316
0.0275345
0.0202384
0.0144461
0.0103669
0.00770255
0.00579721
0.00420494
0.00297235
0.00207246
0.00144725
0.00101436
0.000701109
0.000474398
0.000315845
0.000208224
0.000135968
8.7358e-05
0.0296486
0.0220955
0.0159292
0.0114123
0.00841652
0.00639825
0.00470969
0.00336934
0.00236666
0.00165677
0.00116675
0.000816179
0.000559362
0.000376425
0.000250304
0.000165064
0.000107439
6.86573e-05
0.0229708
0.0167273
0.0120383
0.00888149
0.00675441
0.00504144
0.00364354
0.00258042
0.00181475
0.00128218
0.000905445
0.000627545
0.000426581
0.000286005
0.000190126
0.000125083
8.09177e-05
5.13776e-05
0.0167057
0.0120926
0.00896019
0.00685421
0.00515436
0.00375389
0.00267813
0.00189485
0.0013461
0.000957188
0.000669428
0.000459062
0.000310256
0.000207824
0.000137967
9.01951e-05
5.78938e-05
3.65209e-05
0.0116565
0.00873348
0.00671995
0.00507097
0.00370815
0.00265821
0.00189083
0.00135069
0.000966088
0.000680047
0.000469588
0.000319652
0.000215683
0.000144303
9.51628e-05
6.16451e-05
3.9252e-05
2.46021e-05
0.00825293
0.00640282
0.0048124
0.00352666
0.00253985
0.00181866
0.00130766
0.000939796
0.000664363
0.000461054
0.000315674
0.00021434
0.000144327
9.5815e-05
6.25107e-05
4.01044e-05
2.53355e-05
1.57465e-05
0.00609653
0.00458048
0.00335973
0.00242945
0.00175222
0.00126919
0.000915636
0.000648805
0.000451887
0.000310906
0.000212265
0.00014368
9.58502e-05
6.28605e-05
4.05641e-05
2.57873e-05
1.61322e-05
9.90807e-06
0.00483022
0.00355969
0.00258549
0.00187308
0.00136369
0.000990329
0.000706157
0.000494422
0.000341969
0.000234841
0.000160037
0.000107544
7.10245e-05
4.61543e-05
2.95605e-05
1.86437e-05
1.15481e-05
7.01411e-06
0.543924
0.334141
0.272509
0.227197
0.179234
0.129698
0.0848635
0.0566982
0.0419032
0.0311672
0.0221967
0.0150522
0.0100521
0.00696793
0.00487078
0.00327771
0.00214021
0.00138079
0.51527
0.325946
0.268807
0.223508
0.175394
0.125926
0.0822724
0.0554447
0.0411809
0.0306114
0.0217492
0.0147201
0.00984249
0.00686469
0.00477541
0.00320722
0.00209208
0.00135011
0.473388
0.313502
0.262382
0.217104
0.168867
0.119743
0.0777294
0.0531728
0.0397535
0.0294516
0.0208236
0.014044
0.00942509
0.00660022