/*--------------------------------*- C++ -*----------------------------------*\
| =========                 |                                                 |
| \\      /  F ield         | OpenFOAM: The Open Source CFD Toolbox           |
|  \\    /   O peration     | Version:  2412                                  |
|   \\  /    A nd           | Website:  www.openfoam.com                      |
|    \\/     M anipulation  |                                                 |
\*---------------------------------------------------------------------------*/
FoamFile
{
    version     2.0;
    format      ascii;
    arch        "LSB;label=32;scalar=64";
    class       volScalarField;
    location    "0.030011";
    object      Vm_0;
}
// * * * * * * * * * * * * * * * * * * * * * * * * * * * * * * * * * * * * * //

dimensions      [1 2 -3 0 0 -1 0];

internalField   nonuniform List<scalar> 
8835
(
-0.084
-0.084
-0.084
-0.084
-0.084
-0.084
-0.084
-0.084
-0.084
-0.084
-0.084
-0.084
-0.084
-0.084
-0.084
-0.084
-0.084
-0.084
-0.084
-0.084
-0.084
-0.084
-0.084
-0.084
-0.084
-0.084
-0.084
-0.084
-0.084
-0.084
-0.084
-0.084
-0.084
-0.084
-0.084
-0.084
-0.084
-0.084
-0.084
-0.084
-0.084
-0.084
-0.084
-0.084
-0.084
-0.084
-0.084
-0.084
-0.084
-0.084
-0.084
-0.084
-0.084
-0.084
-0.084
-0.084
-0.084
-0.084
-0.084
-0.084
-0.084
-0.084
-0.084
-0.084
-0.084
-0.084
-0.084
-0.084
-0.084
-0.084
-0.084
-0.084
-0.084
-0.084
-0.084
-0.084
-0.084
-0.084
-0.084
-0.084
-0.084
-0.084
-0.084
-0.084
-0.084
-0.084
-0.084
-0.084
-0.084
-0.084
-0.084
-0.084
-0.084
-0.084
-0.084
-0.084
-0.084
-0.084
-0.084
-0.084
-0.084
-0.084
-0.084
-0.084
-0.084
-0.084
-0.084
-0.084
-0.084
-0.084
-0.084
-0.084
-0.084
-0.084
-0.084
-0.084
-0.084
-0.084
-0.084
-0.084
-0.084
-0.084
-0.084
-0.084
-0.084
-0.084
-0.084
-0.084
-0.084
-0.084
-0.084
-0.084
-0.084
-0.084
-0.084
-0.084
-0.084
-0.084
-0.084
-0.084
-0.084
-0.084
-0.084
-0.084
-0.084
-0.084
-0.084
-0.084
-0.084
-0.084
-0.084
-0.084
-0.084
-0.084
-0.084
-0.084
-0.084
-0.084
-0.084
-0.084
-0.084
-0.084
-0.084
-0.084
-0.084
-0.084
-0.084
-0.084
-0.084
-0.084
-0.084
-0.084
-0.084
-0.084
-0.084
-0.084
-0.084
-0.084
-0.084
-0.084
-0.084
-0.084
-0.084
-0.084
-0.084
-0.084
-0.084
-0.084
-0.084
-0.084
-0.084
-0.084
-0.084
-0.084
-0.084
-0.084
-0.084
-0.084
-0.084
-0.084
-0.084
-0.084
-0.084
-0.084
-0.084
-0.084
-0.084
-0.084
-0.084
-0.084
-0.084
-0.084
-0.084
-0.084
-0.084
-0.084
-0.084
-0.084
-0.084
-0.084
-0.084
-0.084
-0.084
-0.084
-0.084
-0.084
-0.084
-0.084
-0.084
-0.084
-0.084
-0.084
-0.084
-0.084
-0.084
-0.084
-0.084
-0.084
-0.084
-0.084
-0.084
-0.084
-0.084
-0.084
-0.084
-0.084
-0.084
-0.084
-0.084
-0.084
-0.084
-0.084
-0.084
-0.084
-0.084
-0.084
-0.084
-0.084
-0.084
-0.084
-0.084
-0.084
-0.084
-0.084
-0.084
-0.084
-0.084
-0.084
-0.084
-0.084
-0.084
-0.084
-0.084
-0.084
-0.084
-0.084
-0.084
-0.084
-0.084
-0.084
-0.084
-0.084
-0.084
-0.084
-0.084
-0.084
-0.084
-0.084
-0.084
-0.084
-0.084
-0.084
-0.084
-0.084
-0.084
-0.084
-0.084
-0.084
-0.084
-0.084
-0.084
-0.084
-0.084
-0.084
-0.084
-0.084
-0.084
-0.084
-0.084
-0.084
-0.084
-0.084
-0.084
-0.084
-0.084
-0.084
-0.084
-0.084
-0.084
-0.084
-0.084
-0.084
-0.084
-0.084
-0.084
-0.084
-0.084
-0.084
-0.084
-0.084
-0.084
-0.084
-0.084
-0.084
-0.084
-0.084
-0.084
-0.084
-0.084
-0.084
-0.084
-0.084
-0.084
-0.084
-0.084
-0.084
-0.084
-0.084
-0.084
-0.084
-0.084
-0.084
-0.084
-0.084
-0.084
-0.084
-0.084
-0.084
-0.084
-0.084
-0.084
-0.084
-0.084
-0.084
-0.084
-0.084
-0.084
-0.084
-0.084
-0.084
-0.084
-0.084
-0.084
-0.084
-0.084
-0.084
-0.084
-0.084
-0.084
-0.084
-0.084
-0.084
-0.084
-0.084
-0.084
-0.084
-0.084
-0.084
-0.084
-0.084
-0.084
-0.084
-0.084
-0.084
-0.084
-0.084
-0.084
-0.084
-0.084
-0.084
-0.084
-0.084
-0.084
-0.084
-0.084
-0.084
-0.084
-0.084
-0.084
-0.084
-0.084
-0.084
-0.084
-0.084
-0.084
-0.084
-0.084
-0.084
-0.084
-0.084
-0.084
-0.084
-0.084
-0.084
-0.084
-0.084
-0.084
-0.084
-0.084
-0.084
-0.084
-0.084
-0.084
-0.084
-0.084
-0.084
-0.084
-0.084
-0.084
-0.084
-0.084
-0.084
-0.084
-0.084
-0.084
-0.084
-0.084
-0.084
-0.084
-0.084
-0.084
-0.084
-0.084
-0.084
-0.084
-0.084
-0.084
-0.084
-0.084
-0.084
-0.084
-0.084
-0.084
-0.084
-0.084
-0.084
-0.084
-0.084
-0.084
-0.084
-0.084
-0.084
-0.084
-0.084
-0.084
-0.084
-0.084
-0.084
-0.084
-0.084
-0.084
-0.084
-0.084
-0.084
-0.084
-0.084
-0.084
-0.084
-0.084
-0.084
-0.084
-0.084
-0.084
-0.084
-0.084
-0.084
-0.084
-0.084
-0.084
-0.084
-0.084
-0.084
-0.084
-0.084
-0.084
-0.084
-0.084
-0.084
-0.084
-0.084
-0.084
-0.084
-0.084
-0.084
-0.084
-0.084
-0.084
-0.084
-0.084
-0.084
-0.084
-0.084
-0.084
-0.084
-0.084
-0.084
-0.084
-0.084
-0.084
-0.084
-0.084
-0.084
-0.084
-0.084
-0.084
-0.084
-0.084
-0.084
-0.084
-0.084
-0.084
-0.084
-0.084
-0.084
-0.084
-0.084
-0.084
-0.084
-0.084
-0.084
-0.084
-0.084
-0.084
-0.084
-0.084
-0.084
-0.084
-0.084
-0.084
-0.084
-0.084
-0.084
-0.084
-0.084
-0.084
-0.084
-0.084
-0.084
-0.084
-0.084
-0.084
-0.084
-0.084
-0.084
-0.084
-0.084
-0.084
-0.084
-0.084
-0.084
-0.084
-0.084
-0.084
-0.084
-0.084
-0.084
-0.084
-0.084
-0.084
-0.084
-0.084
-0.084
-0.084
-0.084
-0.084
-0.084
-0.084
-0.084
-0.084
-0.084
-0.084
-0.084
-0.084
-0.084
-0.084
-0.084
-0.084
-0.084
-0.084
-0.084
-0.084
-0.084
-0.084
-0.084
-0.084
-0.084
-0.084
-0.084
-0.084
-0.084
-0.084
-0.084
-0.084
-0.084
-0.084
-0.084
-0.084
-0.084
-0.084
-0.084
-0.084
-0.084
-0.084
-0.084
-0.084
-0.084
-0.084
-0.084
-0.084
-0.084
-0.084
-0.084
-0.084
-0.084
-0.084
-0.084
-0.084
-0.084
-0.084
-0.084
-0.084
-0.084
-0.084
-0.084
-0.084
-0.084
-0.084
-0.084
-0.084
-0.084
-0.084
-0.084
-0.084
-0.084
-0.084
-0.084
-0.084
-0.084
-0.084
-0.084
-0.084
-0.084
-0.084
-0.084
-0.084
-0.084
-0.084
-0.084
-0.084
-0.084
-0.084
-0.084
-0.084
-0.084
-0.084
-0.084
-0.084
-0.084
-0.084
-0.084
-0.084
-0.084
-0.084
-0.084
-0.084
-0.084
-0.084
-0.084
-0.084
-0.084
-0.084
-0.084
-0.084
-0.084
-0.084
-0.084
-0.084
-0.084
-0.084
-0.084
-0.084
-0.084
-0.084
-0.084
-0.084
-0.084
-0.084
-0.084
-0.084
-0.084
-0.084
-0.084
-0.084
-0.084
-0.084
-0.084
-0.084
-0.084
-0.084
-0.084
-0.084
-0.084
-0.084
-0.084
-0.084
-0.084
-0.084
-0.084
-0.084
-0.084
-0.084
-0.084
-0.084
-0.084
-0.084
-0.084
-0.084
-0.084
-0.084
-0.084
-0.084
-0.084
-0.084
-0.084
-0.084
-0.084
-0.084
-0.084
-0.084
-0.084
-0.084
-0.084
-0.084
-0.084
-0.084
-0.084
-0.084
-0.084
-0.084
-0.084
-0.084
-0.084
-0.084
-0.084
-0.084
-0.084
-0.084
-0.084
-0.084
-0.084
-0.084
-0.084
-0.084
-0.084
-0.084
-0.084
-0.084
-0.084
-0.084
-0.084
-0.084
-0.084
-0.084
-0.084
-0.084
-0.084
-0.084
-0.084
-0.084
-0.084
-0.084
-0.084
-0.084
-0.084
-0.084
-0.084
-0.084
-0.084
-0.084
-0.084
-0.0839997
-0.0839998
-0.0839998
-0.0839999
-0.0839999
-0.0839999
-0.084
-0.084
-0.084
-0.084
-0.084
-0.084
-0.084
-0.084
-0.084
-0.084
-0.084
-0.084
-0.0839997
-0.0839998
-0.0839998
-0.0839999
-0.0839999
-0.0839999
-0.084
-0.084
-0.084
-0.084
-0.084
-0.084
-0.084
-0.084
-0.084
-0.084
-0.084
-0.084
-0.0839997
-0.0839998
-0.0839999
-0.0839999
-0.0839999
-0.0839999
-0.084
-0.084
-0.084
-0.084
-0.084
-0.084
-0.084
-0.084
-0.084
-0.084
-0.084
-0.084
-0.0839997
-0.0839998
-0.0839999
-0.0839999
-0.0839999
-0.0839999
-0.084
-0.084
-0.084
-0.084
-0.084
-0.084
-0.084
-0.084
-0.084
-0.084
-0.084
-0.084
-0.0839998
-0.0839998
-0.0839999
-0.0839999
-0.0839999
-0.084
-0.084
-0.084
-0.084
-0.084
-0.084
-0.084
-0.084
-0.084
-0.084
-0.084
-0.084
-0.084
-0.0839998
-0.0839998
-0.0839999
-0.0839999
-0.0839999
-0.084
-0.084
-0.084
-0.084
-0.084
-0.084
-0.084
-0.084
-0.084
-0.084
-0.084
-0.084
-0.084
-0.0839998
-0.0839999
-0.0839999
-0.0839999
-0.0839999
-0.084
-0.084
-0.084
-0.084
-0.084
-0.084
-0.084
-0.084
-0.084
-0.084
-0.084
-0.084
-0.084
-0.0839998
-0.0839999
-0.0839999
-0.0839999
-0.084
-0.084
-0.084
-0.084
-0.084
-0.084
-0.084
-0.084
-0.084
-0.084
-0.084
-0.084
-0.084
-0.084
-0.0839999
-0.0839999
-0.0839999
-0.084
-0.084
-0.084
-0.084
-0.084
-0.084
-0.084
-0.084
-0.084
-0.084
-0.084
-0.084
-0.084
-0.084
-0.084
-0.0839999
-0.0839999
-0.0839999
-0.084
-0.084
-0.084
-0.084
-0.084
-0.084
-0.084
-0.084
-0.084
-0.084
-0.084
-0.084
-0.084
-0.084
-0.084
-0.0839999
-0.0839999
-0.084
-0.084
-0.084
-0.084
-0.084
-0.084
-0.084
-0.084
-0.084
-0.084
-0.084
-0.084
-0.084
-0.084
-0.084
-0.084
-0.084
-0.084
-0.084
-0.084
-0.084
-0.084
-0.084
-0.084
-0.084
-0.084
-0.084
-0.084
-0.084
-0.084
-0.084
-0.084
-0.084
-0.084
-0.084
-0.084
-0.084
-0.084
-0.084
-0.084
-0.084
-0.084
-0.084
-0.084
-0.084
-0.084
-0.084
-0.084
-0.084
-0.084
-0.084
-0.084
-0.084
-0.084
-0.084
-0.084
-0.084
-0.084
-0.084
-0.084
-0.084
-0.084
-0.084
-0.084
-0.084
-0.084
-0.084
-0.084
-0.084
-0.084
-0.084
-0.084
-0.084
-0.084
-0.084
-0.084
-0.084
-0.084
-0.084
-0.084
-0.084
-0.084
-0.084
-0.084
-0.084
-0.084
-0.084
-0.084
-0.0839979
-0.0839984
-0.0839988
-0.0839991
-0.0839994
-0.0839995
-0.0839997
-0.0839998
-0.0839998
-0.0839999
-0.0839999
-0.0839999
-0.084
-0.084
-0.084
-0.084
-0.084
-0.084
-0.0839979
-0.0839985
-0.0839989
-0.0839992
-0.0839994
-0.0839996
-0.0839997
-0.0839998
-0.0839998
-0.0839999
-0.0839999
-0.0839999
-0.084
-0.084
-0.084
-0.084
-0.084
-0.084
-0.083998
-0.0839985
-0.0839989
-0.0839992
-0.0839994
-0.0839996
-0.0839997
-0.0839998
-0.0839998
-0.0839999
-0.0839999
-0.0839999
-0.084
-0.084
-0.084
-0.084
-0.084
-0.084
-0.0839981
-0.0839986
-0.083999
-0.0839992
-0.0839995
-0.0839996
-0.0839997
-0.0839998
-0.0839999
-0.0839999
-0.0839999
-0.084
-0.084
-0.084
-0.084
-0.084
-0.084
-0.084
-0.0839983
-0.0839987
-0.0839991
-0.0839993
-0.0839995
-0.0839996
-0.0839997
-0.0839998
-0.0839999
-0.0839999
-0.0839999
-0.084
-0.084
-0.084
-0.084
-0.084
-0.084
-0.084
-0.0839985
-0.0839989
-0.0839992
-0.0839994
-0.0839996
-0.0839997
-0.0839998
-0.0839998
-0.0839999
-0.0839999
-0.0839999
-0.084
-0.084
-0.084
-0.084
-0.084
-0.084
-0.084
-0.0839987
-0.083999
-0.0839993
-0.0839995
-0.0839996
-0.0839997
-0.0839998
-0.0839999
-0.0839999
-0.0839999
-0.084
-0.084
-0.084
-0.084
-0.084
-0.084
-0.084
-0.084
-0.0839989
-0.0839992
-0.0839994
-0.0839996
-0.0839997
-0.0839998
-0.0839998
-0.0839999
-0.0839999
-0.0839999
-0.084
-0.084
-0.084
-0.084
-0.084
-0.084
-0.084
-0.084
-0.0839991
-0.0839993
-0.0839995
-0.0839996
-0.0839997
-0.0839998
-0.0839999
-0.0839999
-0.0839999
-0.084
-0.084
-0.084
-0.084
-0.084
-0.084
-0.084
-0.084
-0.084
-0.0839993
-0.0839995
-0.0839996
-0.0839997
-0.0839998
-0.0839999
-0.0839999
-0.0839999
-0.084
-0.084
-0.084
-0.084
-0.084
-0.084
-0.084
-0.084
-0.084
-0.084
-0.0839995
-0.0839996
-0.0839997
-0.0839998
-0.0839999
-0.0839999
-0.0839999
-0.0839999
-0.084
-0.084
-0.084
-0.084
-0.084
-0.084
-0.084
-0.084
-0.084
-0.084
-0.0839996
-0.0839997
-0.0839998
-0.0839999
-0.0839999
-0.0839999
-0.0839999
-0.084
-0.084
-0.084
-0.084
-0.084
-0.084
-0.084
-0.084
-0.084
-0.084
-0.084
-0.0839997
-0.0839998
-0.0839999
-0.0839999
-0.0839999
-0.0839999
-0.084
-0.084
-0.084
-0.084
-0.084
-0.084
-0.084
-0.084
-0.084
-0.084
-0.084
-0.084
-0.0839998
-0.0839999
-0.0839999
-0.0839999
-0.084
-0.084
-0.084
-0.084
-0.084
-0.084
-0.084
-0.084
-0.084
-0.084
-0.084
-0.084
-0.084
-0.084
-0.0839999
-0.0839999
-0.0839999
-0.0839999
-0.084
-0.084
-0.084
-0.084
-0.084
-0.084
-0.084
-0.084
-0.084
-0.084
-0.084
-0.084
-0.084
-0.084
-0.0839848
-0.0839886
-0.0839916
-0.0839938
-0.0839955
-0.0839967
-0.0839976
-0.0839983
-0.0839988
-0.0839992
-0.0839994
-0.0839996
-0.0839997
-0.0839998
-0.0839999
-0.0839999
-0.0839999
-0.084
-0.0839851
-0.0839888
-0.0839917
-0.0839939
-0.0839955
-0.0839968
-0.0839977
-0.0839983
-0.0839988
-0.0839992
-0.0839994
-0.0839996
-0.0839997
-0.0839998
-0.0839999
-0.0839999
-0.0839999
-0.084
-0.0839857
-0.0839893
-0.0839921
-0.0839942
-0.0839957
-0.0839969
-0.0839978
-0.0839984
-0.0839989
-0.0839992
-0.0839994
-0.0839996
-0.0839997
-0.0839998
-0.0839999
-0.0839999
-0.084
-0.084
-0.0839866
-0.08399
-0.0839926
-0.0839945
-0.083996
-0.0839971
-0.0839979
-0.0839985
-0.0839989
-0.0839993
-0.0839995
-0.0839996
-0.0839998
-0.0839998
-0.0839999
-0.0839999
-0.084
-0.084
-0.0839877
-0.0839908
-0.0839932
-0.083995
-0.0839963
-0.0839973
-0.0839981
-0.0839986
-0.083999
-0.0839993
-0.0839995
-0.0839997
-0.0839998
-0.0839999
-0.0839999
-0.0839999
-0.084
-0.084
-0.0839891
-0.0839919
-0.083994
-0.0839956
-0.0839967
-0.0839976
-0.0839983
-0.0839988
-0.0839991
-0.0839994
-0.0839996
-0.0839997
-0.0839998
-0.0839999
-0.0839999
-0.0839999
-0.084
-0.084
-0.0839906
-0.083993
-0.0839948
-0.0839962
-0.0839972
-0.083998
-0.0839985
-0.083999
-0.0839993
-0.0839995
-0.0839996
-0.0839998
-0.0839998
-0.0839999
-0.0839999
-0.084
-0.084
-0.084
-0.0839921
-0.0839941
-0.0839956
-0.0839968
-0.0839977
-0.0839983
-0.0839988
-0.0839991
-0.0839994
-0.0839996
-0.0839997
-0.0839998
-0.0839999
-0.0839999
-0.0839999
-0.084
-0.084
-0.084
-0.0839936
-0.0839953
-0.0839965
-0.0839974
-0.0839981
-0.0839986
-0.083999
-0.0839993
-0.0839995
-0.0839997
-0.0839998
-0.0839998
-0.0839999
-0.0839999
-0.084
-0.084
-0.084
-0.084
-0.0839951
-0.0839963
-0.0839973
-0.083998
-0.0839985
-0.0839989
-0.0839992
-0.0839995
-0.0839996
-0.0839997
-0.0839998
-0.0839999
-0.0839999
-0.0839999
-0.084
-0.084
-0.084
-0.084
-0.0839963
-0.0839972
-0.083998
-0.0839985
-0.0839989
-0.0839992
-0.0839994
-0.0839996
-0.0839997
-0.0839998
-0.0839999
-0.0839999
-0.0839999
-0.084
-0.084
-0.084
-0.084
-0.084
-0.0839973
-0.083998
-0.0839985
-0.0839989
-0.0839992
-0.0839994
-0.0839996
-0.0839997
-0.0839998
-0.0839999
-0.0839999
-0.0839999
-0.084
-0.084
-0.084
-0.084
-0.084
-0.084
-0.0839981
-0.0839986
-0.083999
-0.0839993
-0.0839995
-0.0839996
-0.0839997
-0.0839998
-0.0839999
-0.0839999
-0.0839999
-0.084
-0.084
-0.084
-0.084
-0.084
-0.084
-0.084
-0.0839987
-0.083999
-0.0839993
-0.0839995
-0.0839996
-0.0839997
-0.0839998
-0.0839999
-0.0839999
-0.0839999
-0.084
-0.084
-0.084
-0.084
-0.084
-0.084
-0.084
-0.084
-0.083999
-0.0839993
-0.0839995
-0.0839996
-0.0839997
-0.0839998
-0.0839999
-0.0839999
-0.0839999
-0.084
-0.084
-0.084
-0.084
-0.084
-0.084
-0.084
-0.084
-0.084
-0.0838905
-0.0839171
-0.0839383
-0.0839546
-0.0839669
-0.0839758
-0.0839825
-0.0839874
-0.083991
-0.0839937
-0.0839956
-0.083997
-0.0839979
-0.0839986
-0.0839991
-0.0839994
-0.0839996
-0.0839997
-0.0838926
-0.0839188
-0.0839396
-0.0839556
-0.0839675
-0.0839763
-0.0839828
-0.0839876
-0.0839912
-0.0839938
-0.0839957
-0.083997
-0.083998
-0.0839986
-0.0839991
-0.0839994
-0.0839996
-0.0839997
-0.083897
-0.0839222
-0.0839422
-0.0839575
-0.0839689
-0.0839773
-0.0839835
-0.0839881
-0.0839916
-0.0839941
-0.0839959
-0.0839972
-0.0839981
-0.0839987
-0.0839991
-0.0839994
-0.0839996
-0.0839998
-0.0839033
-0.0839272
-0.083946
-0.0839603
-0.0839709
-0.0839787
-0.0839845
-0.0839889
-0.0839921
-0.0839945
-0.0839961
-0.0839973
-0.0839982
-0.0839988
-0.0839992
-0.0839995
-0.0839997
-0.0839998
-0.0839111
-0.0839333
-0.0839506
-0.0839637
-0.0839734
-0.0839805
-0.0839859
-0.0839899
-0.0839928
-0.083995
-0.0839965
-0.0839976
-0.0839983
-0.0839989
-0.0839993
-0.0839995
-0.0839997
-0.0839998
-0.0839207
-0.0839407
-0.0839561
-0.0839677
-0.0839763
-0.0839826
-0.0839874
-0.083991
-0.0839936
-0.0839955
-0.0839969
-0.0839978
-0.0839985
-0.083999
-0.0839993
-0.0839996
-0.0839997
-0.0839998
-0.0839314
-0.0839489
-0.0839622
-0.0839721
-0.0839795
-0.083985
-0.0839892
-0.0839923
-0.0839945
-0.0839962
-0.0839973
-0.0839982
-0.0839987
-0.0839992
-0.0839994
-0.0839996
-0.0839998
-0.0839998
-0.0839426
-0.0839573
-0.0839684
-0.0839766
-0.0839828
-0.0839875
-0.083991
-0.0839936
-0.0839954
-0.0839968
-0.0839978
-0.0839985
-0.083999
-0.0839993
-0.0839995
-0.0839997
-0.0839998
-0.0839999
-0.0839538
-0.0839656
-0.0839744
-0.0839811
-0.0839861
-0.0839899
-0.0839927
-0.0839948
-0.0839963
-0.0839974
-0.0839982
-0.0839988
-0.0839992
-0.0839994
-0.0839996
-0.0839998
-0.0839998
-0.0839999
-0.0839642
-0.0839732
-0.0839801
-0.0839853
-0.0839892
-0.0839922
-0.0839944
-0.083996
-0.0839972
-0.083998
-0.0839986
-0.0839991
-0.0839994
-0.0839996
-0.0839997
-0.0839998
-0.0839999
-0.0839999
-0.0839732
-0.0839799
-0.0839851
-0.083989
-0.083992
-0.0839942
-0.0839959
-0.0839971
-0.0839979
-0.0839986
-0.083999
-0.0839993
-0.0839995
-0.0839997
-0.0839998
-0.0839999
-0.0839999
-0.0839999
-0.0839806
-0.0839855
-0.0839893
-0.0839922
-0.0839943
-0.0839959
-0.0839971
-0.0839979
-0.0839985
-0.083999
-0.0839993
-0.0839995
-0.0839997
-0.0839998
-0.0839999
-0.0839999
-0.0839999
-0.084
-0.0839864
-0.0839899
-0.0839926
-0.0839946
-0.0839961
-0.0839972
-0.083998
-0.0839986
-0.083999
-0.0839993
-0.0839995
-0.0839997
-0.0839998
-0.0839999
-0.0839999
-0.0839999
-0.084
-0.084
-0.0839904
-0.0839929
-0.0839948
-0.0839962
-0.0839973
-0.0839981
-0.0839986
-0.083999
-0.0839993
-0.0839995
-0.0839997
-0.0839998
-0.0839999
-0.0839999
-0.0839999
-0.084
-0.084
-0.084
-0.0839925
-0.0839945
-0.083996
-0.0839971
-0.0839979
-0.0839985
-0.0839989
-0.0839993
-0.0839995
-0.0839997
-0.0839998
-0.0839998
-0.0839999
-0.0839999
-0.084
-0.084
-0.084
-0.084
-0.0832347
-0.0834063
-0.0835461
-0.0836649
-0.0837569
-0.0838244
-0.0838724
-0.0839071
-0.0839332
-0.0839529
-0.0839672
-0.0839773
-0.0839844
-0.0839893
-0.0839929
-0.0839953
-0.0839969
-0.083998
-0.083249
-0.083415
-0.0835556
-0.0836724
-0.0837623
-0.0838282
-0.0838749
-0.0839089
-0.0839346
-0.0839539
-0.0839679
-0.0839777
-0.0839847
-0.0839896
-0.083993
-0.0839954
-0.083997
-0.0839981
-0.0832789
-0.0834386
-0.0835745
-0.0836868
-0.0837728
-0.0838354
-0.08388
-0.0839125
-0.0839373
-0.0839558
-0.0839692
-0.0839787
-0.0839853
-0.08399
-0.0839933
-0.0839956
-0.0839971
-0.0839981
-0.0833206
-0.0834706
-0.0836025
-0.0837081
-0.0837881
-0.0838459
-0.0838873
-0.0839179
-0.0839413
-0.0839587
-0.0839712
-0.08398
-0.0839862
-0.0839907
-0.0839937
-0.0839959
-0.0839973
-0.0839983
-0.0833707
-0.0835125
-0.083636
-0.0837336
-0.0838065
-0.0838588
-0.0838965
-0.0839248
-0.0839464
-0.0839623
-0.0839737
-0.0839818
-0.0839875
-0.0839915
-0.0839943
-0.0839963
-0.0839976
-0.0839984
-0.0834302
-0.0835652
-0.0836777
-0.0837645
-0.0838283
-0.0838741
-0.0839075
-0.0839331
-0.0839525
-0.0839666
-0.0839767
-0.0839838
-0.0839889
-0.0839925
-0.083995
-0.0839967
-0.0839978
-0.0839986
-0.0835004
-0.0836243
-0.0837231
-0.0837976
-0.0838516
-0.0838907
-0.0839198
-0.0839423
-0.0839591
-0.0839713
-0.08398
-0.0839861
-0.0839905
-0.0839936
-0.0839957
-0.0839972
-0.0839982
-0.0839988
-0.0835785
-0.0836862
-0.0837694
-0.0838309
-0.0838752
-0.0839078
-0.0839329
-0.083952
-0.0839661
-0.0839762
-0.0839833
-0.0839884
-0.0839921
-0.0839947
-0.0839965
-0.0839977
-0.0839985
-0.083999
-0.0836603
-0.0837487
-0.083815
-0.0838632
-0.0838984
-0.0839253
-0.083946
-0.0839616
-0.0839728
-0.0839809
-0.0839866
-0.0839908
-0.0839937
-0.0839958
-0.0839972
-0.0839982
-0.0839988
-0.0839992
-0.0837385
-0.0838064
-0.0838561
-0.0838926
-0.0839204
-0.083942
-0.0839584
-0.0839704
-0.083979
-0.0839852
-0.0839897
-0.0839929
-0.0839952
-0.0839968
-0.0839979
-0.0839986
-0.0839991
-0.0839994
-0.0838064
-0.0838554
-0.0838915
-0.083919
-0.0839406
-0.0839571
-0.0839693
-0.0839781
-0.0839845
-0.0839891
-0.0839925
-0.0839949
-0.0839965
-0.0839977
-0.0839985
-0.083999
-0.0839994
-0.0839996
-0.0838602
-0.0838944
-0.0839208
-0.0839417
-0.0839577
-0.0839695
-0.0839781
-0.0839844
-0.083989
-0.0839923
-0.0839947
-0.0839964
-0.0839976
-0.0839984
-0.083999
-0.0839993
-0.0839996
-0.0839997
-0.0839005
-0.0839252
-0.0839448
-0.0839597
-0.0839708
-0.083979
-0.0839849
-0.0839893
-0.0839925
-0.0839948
-0.0839965
-0.0839976
-0.0839984
-0.0839989
-0.0839993
-0.0839996
-0.0839997
-0.0839998
-0.083929
-0.0839475
-0.0839615
-0.083972
-0.0839797
-0.0839854
-0.0839896
-0.0839927
-0.0839949
-0.0839965
-0.0839976
-0.0839984
-0.0839989
-0.0839993
-0.0839996
-0.0839997
-0.0839998
-0.0839999
-0.0839444
-0.0839591
-0.0839701
-0.0839782
-0.0839842
-0.0839887
-0.083992
-0.0839944
-0.0839961
-0.0839974
-0.0839982
-0.0839988
-0.0839992
-0.0839995
-0.0839997
-0.0839998
-0.0839999
-0.0839999
-0.0784478
-0.0797855
-0.0806968
-0.081483
-0.0821606
-0.0827027
-0.0830861
-0.0833325
-0.0835045
-0.0836455
-0.0837531
-0.0838304
-0.0838832
-0.0839194
-0.0839453
-0.0839637
-0.0839763
-0.0839846
-0.0785945
-0.0798664
-0.0807614
-0.0815382
-0.0822053
-0.082735
-0.0831059
-0.083345
-0.0835139
-0.0836526
-0.0837582
-0.0838338
-0.0838855
-0.0839209
-0.0839464
-0.0839645
-0.0839768
-0.083985
-0.0788397
-0.0800127
-0.0808812
-0.0816402
-0.0822869
-0.0827939
-0.0831439
-0.0833704
-0.0835331
-0.0836671
-0.0837685
-0.0838408
-0.0838901
-0.0839242
-0.0839487
-0.083966
-0.0839778
-0.0839856
-0.0791826
-0.0802352
-0.0810695
-0.0817996
-0.0824124
-0.0828818
-0.0831982
-0.083405
-0.0835613
-0.0836885
-0.0837839
-0.0838511
-0.0838969
-0.083929
-0.0839521
-0.0839683
-0.0839793
-0.0839866
-0.0795468
-0.0804916
-0.0812897
-0.0819866
-0.0825599
-0.0829841
-0.0832634
-0.0834497
-0.0835982
-0.0837163
-0.0838035
-0.0838643
-0.0839058
-0.0839352
-0.0839564
-0.0839712
-0.0839812
-0.0839878
-0.0799716
-0.0808308
-0.0815834
-0.0822293
-0.0827423
-0.0831031
-0.0833376
-0.0835042
-0.0836426
-0.0837492
-0.0838263
-0.0838795
-0.0839162
-0.0839426
-0.0839615
-0.0839746
-0.0839834
-0.0839893
-0.0804237
-0.0812172
-0.0819141
-0.0824937
-0.0829311
-0.083224
-0.0834165
-0.0835692
-0.0836926
-0.0837853
-0.083851
-0.083896
-0.0839277
-0.0839508
-0.0839671
-0.0839783
-0.0839858
-0.0839909
-0.0809121
-0.0816403
-0.0822656
-0.082762
-0.0831116
-0.0833399
-0.0835032
-0.0836396
-0.0837453
-0.0838224
-0.083876
-0.0839131
-0.0839399
-0.0839593
-0.0839729
-0.0839822
-0.0839883
-0.0839925
-0.0814591
-0.0821064
-0.0826349
-0.083022
-0.0832787
-0.0834517
-0.0835964
-0.0837112
-0.0837972
-0.083858
-0.0839
-0.0839301
-0.0839521
-0.0839677
-0.0839785
-0.0839859
-0.0839908
-0.0839941
-0.0820314
-0.0825665
-0.0829683
-0.0832389
-0.0834211
-0.0835679
-0.0836877
-0.0837789
-0.0838445
-0.0838901
-0.0839224
-0.0839462
-0.0839634
-0.0839755
-0.0839837
-0.0839893
-0.0839931
-0.0839956
-0.0825683
-0.0829637
-0.0832321
-0.0834126
-0.0835583
-0.0836783
-0.0837705
-0.0838376
-0.0838846
-0.083918
-0.0839426
-0.0839607
-0.0839734
-0.0839822
-0.0839882
-0.0839923
-0.083995
-0.0839969
-0.083001
-0.0832515
-0.0834241
-0.0835654
-0.0836822
-0.0837722
-0.083838
-0.0838842
-0.0839172
-0.0839417
-0.0839598
-0.0839726
-0.0839815
-0.0839876
-0.0839918
-0.0839947
-0.0839966
-0.0839979
-0.0832927
-0.0834513
-0.0835876
-0.0836978
-0.0837823
-0.0838441
-0.0838879
-0.0839195
-0.0839431
-0.0839605
-0.0839729
-0.0839816
-0.0839876
-0.0839918
-0.0839946
-0.0839966
-0.0839978
-0.0839987
-0.0834775
-0.0836075
-0.0837121
-0.0837918
-0.0838498
-0.0838912
-0.0839215
-0.0839444
-0.0839613
-0.0839734
-0.0839818
-0.0839877
-0.0839918
-0.0839946
-0.0839965
-0.0839978
-0.0839986
-0.0839992
-0.0835861
-0.0836949
-0.0837784
-0.0838395
-0.0838831
-0.0839151
-0.0839395
-0.0839576
-0.0839707
-0.0839799
-0.0839863
-0.0839908
-0.0839939
-0.083996
-0.0839975
-0.0839984
-0.083999
-0.0839994
-0.0373857
-0.0553641
-0.060646
-0.0645292
-0.0686397
-0.0728849
-0.0767272
-0.079141
-0.0804089
-0.081329
-0.0820977
-0.08271
-0.0831385
-0.0834028
-0.0835826
-0.0837191
-0.0838166
-0.0838817
-0.0398414
-0.0560664
-0.0609632
-0.0648454
-0.0689688
-0.0732082
-0.0769493
-0.0792484
-0.0804708
-0.0813766
-0.0821361
-0.0827385
-0.0831565
-0.0834117
-0.0835907
-0.0837251
-0.0838207
-0.0838843
-0.0434306
-0.0571329
-0.0615139
-0.0653942
-0.0695281
-0.073738
-0.0773386
-0.0794431
-0.0805931
-0.081476
-0.0822154
-0.0827964
-0.0831923
-0.0834344
-0.0836068
-0.0837366
-0.0838284
-0.0838892
-0.0485034
-0.0584294
-0.0624475
-0.0663358
-0.0704737
-0.0746117
-0.0779068
-0.0797158
-0.0807753
-0.0816254
-0.0823347
-0.0828812
-0.0832441
-0.0834662
-0.0836318
-0.0837545
-0.0838404
-0.0838968
-0.0530743
-0.0596979
-0.0635216
-0.0674884
-0.0716565
-0.0756648
-0.0785365
-0.0800392
-0.0810162
-0.0818261
-0.0824928
-0.0829897
-0.083309
-0.0835104
-0.0836641
-0.0837771
-0.0838551
-0.083906
-0.0569799
-0.0613267
-0.0651239
-0.0691679
-0.0733055
-0.0769456
-0.0792036
-0.0804128
-0.0813116
-0.0820701
-0.0826802
-0.0831127
-0.0833815
-0.0835636
-0.0837031
-0.0838041
-0.0838726
-0.083917
-0.0594215
-0.0631912
-0.06707
-0.0711603
-0.0751595
-0.0781844
-0.0798216
-0.0808295
-0.0816568
-0.0823492
-0.0828832
-0.0832393
-0.0834586
-0.0836233
-0.0837463
-0.0838334
-0.0838912
-0.0839291
-0.0616742
-0.0653981
-0.0693801
-0.073447
-0.0770293
-0.0792283
-0.0804091
-0.0812922
-0.0820415
-0.0826489
-0.0830862
-0.0833622
-0.0835449
-0.083687
-0.0837914
-0.0838632
-0.0839102
-0.0839416
-0.0644185
-0.0683134
-0.0723438
-0.076098
-0.0787031
-0.0800783
-0.0810086
-0.0817934
-0.0824477
-0.0829436
-0.08327
-0.0834755
-0.083633
-0.0837513
-0.0838354
-0.0838916
-0.0839286
-0.0839539
-0.0678098
-0.0717535
-0.0755465
-0.0783508
-0.0798665
-0.0808271
-0.0816265
-0.0823037
-0.0828341
-0.083198
-0.0834249
-0.0835905
-0.0837185
-0.0838117
-0.0838754
-0.0839174
-0.0839459
-0.0839654
-0.0717716
-0.0754947
-0.0782817
-0.0798091
-0.0807676
-0.0815617
-0.0822391
-0.0827785
-0.0831569
-0.0833965
-0.0835648
-0.0836974
-0.0837955
-0.0838638
-0.0839091
-0.0839399
-0.0839611
-0.0839754
-0.0759075
-0.0784756
-0.0798852
-0.0808091
-0.0815864
-0.0822511
-0.082781
-0.0831539
-0.0833912
-0.0835584
-0.0836907
-0.0837894
-0.0838587
-0.0839051
-0.0839366
-0.0839586
-0.0839735
-0.0839834
-0.0788562
-0.0800817
-0.0809522
-0.0816975
-0.0823319
-0.0828335
-0.0831829
-0.0834073
-0.0835681
-0.0836964
-0.0837922
-0.0838597
-0.0839051
-0.0839362
-0.083958
-0.0839729
-0.0839829
-0.0839893
-0.080245
-0.0810784
-0.0818024
-0.0824125
-0.0828852
-0.0832094
-0.0834191
-0.0835777
-0.0837028
-0.0837959
-0.0838614
-0.0839056
-0.0839363
-0.0839578
-0.0839727
-0.0839826
-0.083989
-0.0839932
-0.080933
-0.0816768
-0.0823119
-0.0828104
-0.0831551
-0.0833784
-0.0835426
-0.0836758
-0.0837762
-0.0838473
-0.0838956
-0.0839288
-0.0839525
-0.083969
-0.0839801
-0.0839874
-0.0839921
-0.0839952
0.0344865
0.0348683
0.0350482
0.0341152
0.0301039
0.0180836
-0.0120989
-0.0460378
-0.0589477
-0.0637593
-0.0681955
-0.0727626
-0.0769861
-0.0795565
-0.0808742
-0.0818114
-0.0825532
-0.0830908
-0.0834153
0.0344014
0.0347996
0.0349177
0.0338126
0.0293522
0.0162973
-0.0145049
-0.0475865
-0.0593091
-0.0639974
-0.0684465
-0.0730193
-0.0771781
-0.0796473
-0.0809307
-0.0818563
-0.0825876
-0.0831125
-0.083428
0.03455
0.0349762
0.0350202
0.033705
0.0286467
0.0138643
-0.019695
-0.0503413
-0.0599969
-0.0645241
-0.0689703
-0.0735506
-0.0775441
-0.0798179
-0.0810363
-0.0819392
-0.0826504
-0.083152
-0.0834493
0.0343569
0.0347718
0.034652
0.0330265
0.0266634
0.00833747
-0.0276006
-0.0536052
-0.0609454
-0.0653328
-0.0697937
-0.0743473
-0.0780779
-0.0800721
-0.0812063
-0.0820725
-0.0827492
-0.0832134
-0.0834862
0.0347191
0.0350516
0.0345611
0.0318119
0.0231131
-0.000565393
-0.0371111
-0.0566549
-0.0621636
-0.066502
-0.0709866
-0.0754434
-0.0787235
-0.080387
-0.0814274
-0.0822451
-0.0828723
-0.0832849
-0.0835309
0.0346862
0.03476
0.0335526
0.0289242
0.0156904
-0.0145717
-0.0471515
-0.0590431
-0.0636677
-0.0680148
-0.0725297
-0.0767317
-0.0793975
-0.0807529
-0.0817008
-0.0824568
-0.0830184
-0.0833694
-0.0835853
0.0348202
0.0344265
0.0319976
0.0242607
0.00338342
-0.0318567
-0.0548407
-0.0612483
-0.0655206
-0.0699169
-0.0743885
-0.0780552
-0.0800301
-0.0811523
-0.0820133
-0.0826937
-0.0831716
-0.0834553
-0.0836448
0.0349808
0.0337306
0.029047
0.0156826
-0.0154507
-0.0474908
-0.0590415
-0.0635605
-0.0678192
-0.0722555
-0.076467
-0.0792292
-0.0806296
-0.081589
-0.0823585
-0.0829428
-0.0833208
-0.0835485
-0.0837077
0.034129
0.0303243
0.0200359
-0.00480211
-0.0397522
-0.0570639
-0.0621507
-0.0663222
-0.0706836
-0.0750053
-0.0783881
-0.0801613
-0.0812214
-0.0820536
-0.0827131
-0.0831763
-0.0834528
-0.0836394
-0.0837699
0.031285
0.0226652
0.00049778
-0.0343765
-0.0553329
-0.0612598
-0.0653651
-0.0696255
-0.0739346
-0.0776533
-0.0797796
-0.080939
-0.0818135
-0.0825214
-0.0830457
-0.0833746
-0.0835804
-0.0837271
-0.0838287
0.022609
0.00101889
-0.0333352
-0.0548522
-0.0609811
-0.064997
-0.0691532
-0.0734243
-0.0772398
-0.079547
-0.0807694
-0.0816636
-0.0823931
-0.0829502
-0.0833143
-0.0835362
-0.0836939
-0.0838049
-0.083879
-0.00334933
-0.036518
-0.0555686
-0.0611648
-0.0651223
-0.0692331
-0.0734445
-0.0772085
-0.0795071
-0.0807277
-0.0816178
-0.0823455
-0.0829083
-0.0832849
-0.0835129
-0.083675
-0.0837904
-0.0838687
-0.0839184
-0.0424254
-0.0571654
-0.0618623
-0.0657301
-0.0697866
-0.0739272
-0.0775143
-0.0796339
-0.0807918
-0.0816571
-0.0823682
-0.0829174
-0.0832853
-0.0835098
-0.0836705
-0.0837858
-0.0838647
-0.0839153
-0.0839476
-0.0582108
-0.062439
-0.0663228
-0.0704091
-0.0744963
-0.0778499
-0.0797601
-0.0808555
-0.0817034
-0.0824021
-0.0829362
-0.0832898
-0.0835101
-0.0836695
-0.0837842
-0.0838628
-0.0839135
-0.083946
-0.0839671
-0.0616549
-0.0654905
-0.0695943
-0.0737861
-0.0773724
-0.0794707
-0.0806263
-0.0815119
-0.082251
-0.0828289
-0.0832201
-0.0834576
-0.08363
-0.0837561
-0.0838439
-0.083901
-0.0839376
-0.0839616
-0.083977
0.0336618
0.0344763
0.0351531
0.0356233
0.0358382
0.0354933
0.0348591
0.0348354
0.0349369
0.0341048
0.0305225
0.0190051
-0.0136476
-0.0497257
-0.0611579
-0.0663818
-0.0713221
-0.0761892
-0.0794842
0.033655
0.0344715
0.035156
0.0356868
0.0357715
0.0353642
0.034753
0.0347819
0.0349124
0.0341492
0.0300574
0.0176626
-0.0162188
-0.0509203
-0.0614939
-0.0666639
-0.0716025
-0.0764023
-0.079587
0.033811
0.0346409
0.035283
0.0356641
0.0356895
0.035355
0.0347689
0.0347476
0.0349495
0.0338546
0.0292889
0.0147914
-0.0207371
-0.0530255
-0.0620879
-0.0671783
-0.0721253
-0.0768335
-0.0797895
0.0338831
0.0347589
0.0353747
0.0356918
0.0356022
0.0350808
0.0347115
0.0348362
0.0349451
0.0334733
0.0278509
0.0103242
-0.028071
-0.055599
-0.0630284
-0.0680093
-0.0729407
-0.0774576
-0.0800804
0.0342403
0.0349717
0.0354915
0.0356941
0.0354943
0.035014
0.0346822
0.034851
0.0346985
0.0324712
0.0248826
0.00199638
-0.0377802
-0.0581133
-0.0642473
-0.069154
-0.0740639
-0.0782292
-0.0804349
0.034421
0.0350995
0.0356266
0.0357069
0.035315
0.0347524
0.0348113
0.0349635
0.0342061
0.0307738
0.0194674
-0.0106307
-0.0477856
-0.0605089
-0.065761
-0.0706223
-0.0754561
-0.0790639
-0.080837
0.0347614
0.0353337
0.0357097
0.0355908
0.0350354
0.0346567
0.0349609
0.0348824
0.0332928
0.0275325
0.00995326
-0.0278367
-0.0553297
-0.0627519
-0.0676237
-0.0724647
-0.0770514
-0.0798559
-0.0812606
0.0352553