/*--------------------------------*- C++ -*----------------------------------*\
| =========                 |                                                 |
| \\      /  F ield         | OpenFOAM: The Open Source CFD Toolbox           |
|  \\    /   O peration     | Version:  2312                                  |
|   \\  /    A nd           | Website:  www.openfoam.com                      |
|    \\/     M anipulation  |                                                 |
\*---------------------------------------------------------------------------*/
FoamFile
{
    version     2.0;
    format      ascii;
    arch        "LSB;label=32;scalar=64";
    class       volVectorField;
    location    "0.4";
    object      D;
}
// * * * * * * * * * * * * * * * * * * * * * * * * * * * * * * * * * * * * * //

dimensions      [0 1 0 0 0 0 0];

internalField   nonuniform List<vector> 
12960
(
(9.23886e-05 -0.000116199 5.51323e-06)
(0.000102164 -0.000107705 5.51324e-06)
(0.000111163 -9.83906e-05 5.51326e-06)
(0.000119315 -8.83274e-05 5.51319e-06)
(0.000126559 -7.75925e-05 5.51319e-06)
(0.00013284 -6.62667e-05 5.51325e-06)
(0.00013811 -5.44368e-05 5.51323e-06)
(0.000142329 -4.21926e-05 5.51312e-06)
(0.000145465 -2.96272e-05 5.51306e-06)
(0.000147493 -1.68364e-05 5.51315e-06)
(0.0001484 -3.91743e-06 5.51323e-06)
(0.000148176 9.03146e-06 5.51329e-06)
(0.000146825 2.19115e-05 5.51332e-06)
(0.000144357 3.46248e-05 5.51333e-06)
(0.00014079 4.70746e-05 5.51325e-06)
(0.000136151 5.91661e-05 5.51324e-06)
(0.000130476 7.08073e-05 5.51322e-06)
(0.000123809 8.19097e-05 5.51316e-06)
(0.000116199 9.23886e-05 5.51323e-06)
(0.000107705 0.000102164 5.51324e-06)
(9.83906e-05 0.000111163 5.51326e-06)
(8.83274e-05 0.000119315 5.51319e-06)
(7.75925e-05 0.000126559 5.51319e-06)
(6.62667e-05 0.00013284 5.51325e-06)
(5.44368e-05 0.00013811 5.51323e-06)
(4.21926e-05 0.000142329 5.51312e-06)
(2.96272e-05 0.000145465 5.51306e-06)
(1.68364e-05 0.000147493 5.51315e-06)
(3.91743e-06 0.0001484 5.51323e-06)
(-9.03146e-06 0.000148176 5.51329e-06)
(-2.19115e-05 0.000146825 5.51332e-06)
(-3.46248e-05 0.000144357 5.51333e-06)
(-4.70746e-05 0.00014079 5.51325e-06)
(-5.91661e-05 0.000136151 5.51324e-06)
(-7.08073e-05 0.000130476 5.51322e-06)
(-8.19097e-05 0.000123809 5.51316e-06)
(-9.23886e-05 0.000116199 5.51323e-06)
(-0.000102164 0.000107705 5.51324e-06)
(-0.000111163 9.83906e-05 5.51326e-06)
(-0.000119315 8.83274e-05 5.51319e-06)
(-0.000126559 7.75925e-05 5.51319e-06)
(-0.00013284 6.62667e-05 5.51325e-06)
(-0.00013811 5.44368e-05 5.51323e-06)
(-0.000142329 4.21926e-05 5.51312e-06)
(-0.000145465 2.96272e-05 5.51306e-06)
(-0.000147493 1.68364e-05 5.51315e-06)
(-0.0001484 3.91743e-06 5.51323e-06)
(-0.000148176 -9.03146e-06 5.51329e-06)
(-0.000146825 -2.19115e-05 5.51332e-06)
(-0.000144357 -3.46248e-05 5.51333e-06)
(-0.00014079 -4.70746e-05 5.51325e-06)
(-0.000136151 -5.91661e-05 5.51324e-06)
(-0.000130476 -7.08073e-05 5.51322e-06)
(-0.000123809 -8.19097e-05 5.51316e-06)
(-0.000116199 -9.23886e-05 5.51323e-06)
(-0.000107705 -0.000102164 5.51324e-06)
(-9.83906e-05 -0.000111163 5.51326e-06)
(-8.83274e-05 -0.000119315 5.51319e-06)
(-7.75925e-05 -0.000126559 5.51319e-06)
(-6.62667e-05 -0.00013284 5.51325e-06)
(-5.44368e-05 -0.00013811 5.51323e-06)
(-4.21926e-05 -0.000142329 5.51312e-06)
(-2.96272e-05 -0.000145465 5.51306e-06)
(-1.68364e-05 -0.000147493 5.51315e-06)
(-3.91743e-06 -0.0001484 5.51323e-06)
(9.03146e-06 -0.000148176 5.51329e-06)
(2.19115e-05 -0.000146825 5.51332e-06)
(3.46248e-05 -0.000144357 5.51333e-06)
(4.70746e-05 -0.00014079 5.51325e-06)
(5.91661e-05 -0.000136151 5.51324e-06)
(7.08073e-05 -0.000130476 5.51322e-06)
(8.19097e-05 -0.000123809 5.51316e-06)
(8.22147e-05 -0.000127964 1.3044e-05)
(9.30544e-05 -0.000120311 1.3044e-05)
(0.000103186 -0.000111743 1.3044e-05)
(0.000112533 -0.000102325 1.3044e-05)
(0.000121023 -9.21273e-05 1.3044e-05)
(0.000128592 -8.12291e-05 1.3044e-05)
(0.000135182 -6.97126e-05 1.3044e-05)
(0.000140744 -5.76653e-05 1.3044e-05)
(0.000145234 -4.51792e-05 1.3044e-05)
(0.000148619 -3.23494e-05 1.3044e-05)
(0.000150873 -1.92734e-05 1.3044e-05)
(0.000151978 -6.0505e-06 1.3044e-05)
(0.000151927 7.21827e-06 1.30441e-05)
(0.00015072 2.04321e-05 1.30441e-05)
(0.000148366 3.34905e-05 1.30441e-05)
(0.000144882 4.62939e-05 1.3044e-05)
(0.000140295 5.87449e-05 1.3044e-05)
(0.000134642 7.07491e-05 1.3044e-05)
(0.000127964 8.22147e-05 1.3044e-05)
(0.000120311 9.30544e-05 1.3044e-05)
(0.000111743 0.000103186 1.3044e-05)
(0.000102325 0.000112533 1.3044e-05)
(9.21273e-05 0.000121023 1.3044e-05)
(8.12291e-05 0.000128592 1.3044e-05)
(6.97126e-05 0.000135182 1.3044e-05)
(5.76653e-05 0.000140744 1.3044e-05)
(4.51792e-05 0.000145234 1.3044e-05)
(3.23494e-05 0.000148619 1.3044e-05)
(1.92734e-05 0.000150873 1.3044e-05)
(6.0505e-06 0.000151978 1.3044e-05)
(-7.21827e-06 0.000151927 1.30441e-05)
(-2.04321e-05 0.00015072 1.30441e-05)
(-3.34905e-05 0.000148366 1.30441e-05)
(-4.62939e-05 0.000144882 1.3044e-05)
(-5.87449e-05 0.000140295 1.3044e-05)
(-7.07491e-05 0.000134642 1.3044e-05)
(-8.22147e-05 0.000127964 1.3044e-05)
(-9.30544e-05 0.000120311 1.3044e-05)
(-0.000103186 0.000111743 1.3044e-05)
(-0.000112533 0.000102325 1.3044e-05)
(-0.000121023 9.21273e-05 1.3044e-05)
(-0.000128592 8.12291e-05 1.3044e-05)
(-0.000135182 6.97126e-05 1.3044e-05)
(-0.000140744 5.76653e-05 1.3044e-05)
(-0.000145234 4.51792e-05 1.3044e-05)
(-0.000148619 3.23494e-05 1.3044e-05)
(-0.000150873 1.92734e-05 1.3044e-05)
(-0.000151978 6.05049e-06 1.3044e-05)
(-0.000151927 -7.21827e-06 1.30441e-05)
(-0.00015072 -2.04321e-05 1.30441e-05)
(-0.000148366 -3.34905e-05 1.30441e-05)
(-0.000144882 -4.62939e-05 1.3044e-05)
(-0.000140295 -5.87449e-05 1.3044e-05)
(-0.000134642 -7.07491e-05 1.3044e-05)
(-0.000127964 -8.22147e-05 1.3044e-05)
(-0.000120311 -9.30544e-05 1.3044e-05)
(-0.000111743 -0.000103186 1.3044e-05)
(-0.000102325 -0.000112533 1.3044e-05)
(-9.21273e-05 -0.000121023 1.3044e-05)
(-8.12291e-05 -0.000128592 1.3044e-05)
(-6.97126e-05 -0.000135182 1.3044e-05)
(-5.76653e-05 -0.000140744 1.3044e-05)
(-4.51792e-05 -0.000145234 1.3044e-05)
(-3.23494e-05 -0.000148619 1.3044e-05)
(-1.92734e-05 -0.000150873 1.3044e-05)
(-6.05049e-06 -0.000151978 1.3044e-05)
(7.21827e-06 -0.000151927 1.30441e-05)
(2.04321e-05 -0.00015072 1.30441e-05)
(3.34905e-05 -0.000148366 1.30441e-05)
(4.62939e-05 -0.000144882 1.3044e-05)
(5.87449e-05 -0.000140295 1.3044e-05)
(7.07491e-05 -0.000134642 1.3044e-05)
(6.76513e-05 -0.000139204 1.65855e-05)
(7.95263e-05 -0.000132778 1.65855e-05)
(9.07961e-05 -0.000125342 1.65855e-05)
(0.000101375 -0.000116951 1.65855e-05)
(0.000111182 -0.000107671 1.65856e-05)
(0.000120143 -9.7571e-05 1.65855e-05)
(0.000128189 -8.67284e-05 1.65854e-05)
(0.000135261 -7.52261e-05 1.65854e-05)
(0.000141302 -6.3151e-05 1.65854e-05)
(0.000146269 -5.05955e-05 1.65854e-05)
(0.000150122 -3.76548e-05 1.65855e-05)
(0.000152832 -2.44275e-05 1.65854e-05)
(0.00015438 -1.10143e-05 1.65855e-05)
(0.000154753 2.48273e-06 1.65855e-05)
(0.000153947 1.59607e-05 1.65855e-05)
(0.00015197 2.93175e-05 1.65855e-05)
(0.000148837 4.2451e-05 1.65855e-05)
(0.00014457 5.52614e-05 1.65855e-05)
(0.000139204 6.76513e-05 1.65855e-05)
(0.000132778 7.95263e-05 1.65855e-05)
(0.000125342 9.07961e-05 1.65855e-05)
(0.000116951 0.000101375 1.65855e-05)
(0.000107671 0.000111182 1.65856e-05)
(9.7571e-05 0.000120143 1.65855e-05)
(8.67284e-05 0.000128189 1.65854e-05)
(7.52261e-05 0.000135261 1.65854e-05)
(6.3151e-05 0.000141302 1.65854e-05)
(5.05955e-05 0.000146269 1.65854e-05)
(3.76548e-05 0.000150122 1.65855e-05)
(2.44275e-05 0.000152832 1.65854e-05)
(1.10143e-05 0.00015438 1.65855e-05)
(-2.48273e-06 0.000154753 1.65855e-05)
(-1.59607e-05 0.000153947 1.65855e-05)
(-2.93175e-05 0.00015197 1.65855e-05)
(-4.2451e-05 0.000148837 1.65855e-05)
(-5.52614e-05 0.00014457 1.65855e-05)
(-6.76513e-05 0.000139204 1.65855e-05)
(-7.95263e-05 0.000132778 1.65855e-05)
(-9.07961e-05 0.000125342 1.65855e-05)
(-0.000101375 0.000116951 1.65855e-05)
(-0.000111182 0.000107671 1.65856e-05)
(-0.000120143 9.7571e-05 1.65855e-05)
(-0.000128189 8.67284e-05 1.65854e-05)
(-0.000135261 7.52261e-05 1.65854e-05)
(-0.000141302 6.3151e-05 1.65854e-05)
(-0.000146269 5.05955e-05 1.65854e-05)
(-0.000150122 3.76548e-05 1.65855e-05)
(-0.000152832 2.44275e-05 1.65854e-05)
(-0.00015438 1.10143e-05 1.65855e-05)
(-0.000154753 -2.48273e-06 1.65855e-05)
(-0.000153947 -1.59607e-05 1.65855e-05)
(-0.00015197 -2.93175e-05 1.65855e-05)
(-0.000148837 -4.2451e-05 1.65855e-05)
(-0.00014457 -5.52614e-05 1.65855e-05)
(-0.000139204 -6.76513e-05 1.65855e-05)
(-0.000132778 -7.95263e-05 1.65855e-05)
(-0.000125342 -9.07961e-05 1.65855e-05)
(-0.000116951 -0.000101375 1.65855e-05)
(-0.000107671 -0.000111182 1.65856e-05)
(-9.7571e-05 -0.000120143 1.65855e-05)
(-8.67284e-05 -0.000128189 1.65854e-05)
(-7.52261e-05 -0.000135261 1.65854e-05)
(-6.3151e-05 -0.000141302 1.65854e-05)
(-5.05955e-05 -0.000146269 1.65854e-05)
(-3.76548e-05 -0.000150122 1.65855e-05)
(-2.44275e-05 -0.000152832 1.65854e-05)
(-1.10143e-05 -0.00015438 1.65855e-05)
(2.48273e-06 -0.000154753 1.65855e-05)
(1.59607e-05 -0.000153947 1.65855e-05)
(2.93175e-05 -0.00015197 1.65855e-05)
(4.2451e-05 -0.000148837 1.65855e-05)
(5.52614e-05 -0.00014457 1.65855e-05)
(4.91843e-05 -0.000148738 1.8309e-05)
(6.19605e-05 -0.000143885 1.8309e-05)
(7.42654e-05 -0.000137938 1.8309e-05)
(8.60044e-05 -0.00013094 1.8309e-05)
(9.70892e-05 -0.000122946 1.8309e-05)
(0.000107435 -0.000114016 1.8309e-05)
(0.000116964 -0.000104219 1.8309e-05)
(0.000125602 -9.36282e-05 1.8309e-05)
(0.000133284 -8.23251e-05 1.8309e-05)
(0.000139952 -7.03954e-05 1.8309e-05)
(0.000145555 -5.79297e-05 1.8309e-05)
(0.00015005 -4.50233e-05 1.8309e-05)
(0.000153403 -3.17742e-05 1.8309e-05)
(0.000155588 -1.82832e-05 1.83089e-05)
(0.00015659 -4.6533e-06 1.8309e-05)
(0.0001564 9.0121e-06 1.8309e-05)
(0.000155019 2.2609e-05 1.8309e-05)
(0.000152459 3.60338e-05 1.8309e-05)
(0.000148738 4.91843e-05 1.8309e-05)
(0.000143885 6.19605e-05 1.8309e-05)
(0.000137938 7.42654e-05 1.8309e-05)
(0.00013094 8.60044e-05 1.8309e-05)
(0.000122946 9.70892e-05 1.8309e-05)
(0.000114016 0.000107435 1.8309e-05)
(0.000104219 0.000116964 1.8309e-05)
(9.36282e-05 0.000125602 1.8309e-05)
(8.23251e-05 0.000133284 1.8309e-05)
(7.03954e-05 0.000139952 1.8309e-05)
(5.79297e-05 0.000145555 1.8309e-05)
(4.50233e-05 0.00015005 1.8309e-05)
(3.17742e-05 0.000153403 1.8309e-05)
(1.82832e-05 0.000155588 1.83089e-05)
(4.6533e-06 0.00015659 1.8309e-05)
(-9.0121e-06 0.0001564 1.8309e-05)
(-2.2609e-05 0.000155019 1.8309e-05)
(-3.60338e-05 0.000152459 1.8309e-05)
(-4.91843e-05 0.000148738 1.8309e-05)
(-6.19605e-05 0.000143885 1.8309e-05)
(-7.42654e-05 0.000137938 1.8309e-05)
(-8.60044e-05 0.00013094 1.8309e-05)
(-9.70892e-05 0.000122946 1.8309e-05)
(-0.000107435 0.000114016 1.8309e-05)
(-0.000116964 0.000104219 1.8309e-05)
(-0.000125602 9.36282e-05 1.8309e-05)
(-0.000133284 8.23251e-05 1.8309e-05)
(-0.000139952 7.03954e-05 1.8309e-05)
(-0.000145555 5.79297e-05 1.8309e-05)
(-0.00015005 4.50233e-05 1.8309e-05)
(-0.000153403 3.17742e-05 1.8309e-05)
(-0.000155588 1.82832e-05 1.83089e-05)
(-0.00015659 4.6533e-06 1.8309e-05)
(-0.0001564 -9.0121e-06 1.8309e-05)
(-0.000155019 -2.2609e-05 1.8309e-05)
(-0.000152459 -3.60338e-05 1.8309e-05)
(-0.000148738 -4.91843e-05 1.8309e-05)
(-0.000143885 -6.19605e-05 1.8309e-05)
(-0.000137938 -7.42654e-05 1.8309e-05)
(-0.00013094 -8.60044e-05 1.8309e-05)
(-0.000122946 -9.70892e-05 1.8309e-05)
(-0.000114016 -0.000107435 1.8309e-05)
(-0.000104219 -0.000116964 1.8309e-05)
(-9.36282e-05 -0.000125602 1.8309e-05)
(-8.23251e-05 -0.000133284 1.8309e-05)
(-7.03954e-05 -0.000139952 1.8309e-05)
(-5.79297e-05 -0.000145555 1.8309e-05)
(-4.50233e-05 -0.00015005 1.8309e-05)
(-3.17742e-05 -0.000153403 1.8309e-05)
(-1.82832e-05 -0.000155588 1.83089e-05)
(-4.6533e-06 -0.00015659 1.8309e-05)
(9.0121e-06 -0.0001564 1.8309e-05)
(2.2609e-05 -0.000155019 1.8309e-05)
(3.60338e-05 -0.000152459 1.8309e-05)
(2.57083e-05 -0.000156005 2.08186e-05)
(3.92073e-05 -0.000153171 2.08186e-05)
(5.24076e-05 -0.000149171 2.08186e-05)
(6.52094e-05 -0.000144036 2.08186e-05)
(7.75147e-05 -0.000137804 2.08186e-05)
(8.92302e-05 -0.000130524 2.08186e-05)
(0.000100266 -0.00012225 2.08186e-05)
(0.00011054 -0.000113046 2.08186e-05)
(0.000119972 -0.000102983 2.08186e-05)
(0.000128491 -9.21344e-05 2.08186e-05)
(0.000136032 -8.05845e-05 2.08185e-05)
(0.000142537 -6.84219e-05 2.08186e-05)
(0.000147958 -5.57386e-05 2.08186e-05)
(0.000152253 -4.26311e-05 2.08185e-05)
(0.00015539 -2.91992e-05 2.08186e-05)
(0.000157343 -1.5545e-05 2.08186e-05)
(0.0001581 -1.77239e-06 2.08187e-05)
(0.000157652 1.20136e-05 2.08186e-05)
(0.000156005 2.57083e-05 2.08186e-05)
(0.000153171 3.92073e-05 2.08186e-05)
(0.000149171 5.24076e-05 2.08186e-05)
(0.000144036 6.52094e-05 2.08186e-05)
(0.000137804 7.75147e-05 2.08186e-05)
(0.000130524 8.92302e-05 2.08186e-05)
(0.00012225 0.000100266 2.08186e-05)
(0.000113046 0.00011054 2.08186e-05)
(0.000102983 0.000119972 2.08186e-05)
(9.21344e-05 0.000128491 2.08186e-05)
(8.05845e-05 0.000136032 2.08185e-05)
(6.84219e-05 0.000142537 2.08186e-05)
(5.57386e-05 0.000147958 2.08186e-05)
(4.26311e-05 0.000152253 2.08185e-05)
(2.91992e-05 0.00015539 2.08186e-05)
(1.5545e-05 0.000157343 2.08186e-05)
(1.77239e-06 0.0001581 2.08187e-05)
(-1.20136e-05 0.000157652 2.08186e-05)
(-2.57083e-05 0.000156005 2.08186e-05)
(-3.92073e-05 0.000153171 2.08186e-05)
(-5.24076e-05 0.000149171 2.08186e-05)
(-6.52094e-05 0.000144036 2.08186e-05)
(-7.75147e-05 0.000137804 2.08186e-05)
(-8.92302e-05 0.000130524 2.08186e-05)
(-0.000100266 0.00012225 2.08186e-05)
(-0.00011054 0.000113046 2.08186e-05)
(-0.000119972 0.000102983 2.08186e-05)
(-0.000128491 9.21344e-05 2.08186e-05)
(-0.000136032 8.05845e-05 2.08185e-05)
(-0.000142537 6.84219e-05 2.08186e-05)
(-0.000147958 5.57386e-05 2.08186e-05)
(-0.000152253 4.26311e-05 2.08185e-05)
(-0.00015539 2.91992e-05 2.08186e-05)
(-0.000157343 1.5545e-05 2.08186e-05)
(-0.0001581 1.77239e-06 2.08187e-05)
(-0.000157652 -1.20136e-05 2.08186e-05)
(-0.000156005 -2.57083e-05 2.08186e-05)
(-0.000153171 -3.92073e-05 2.08186e-05)
(-0.000149171 -5.24076e-05 2.08186e-05)
(-0.000144036 -6.52094e-05 2.08186e-05)
(-0.000137804 -7.75147e-05 2.08186e-05)
(-0.000130524 -8.92302e-05 2.08186e-05)
(-0.00012225 -0.000100266 2.08186e-05)
(-0.000113046 -0.00011054 2.08186e-05)
(-0.000102983 -0.000119972 2.08186e-05)
(-9.21344e-05 -0.000128491 2.08186e-05)
(-8.05845e-05 -0.000136032 2.08185e-05)
(-6.84219e-05 -0.000142537 2.08186e-05)
(-5.57386e-05 -0.000147958 2.08186e-05)
(-4.26311e-05 -0.000152253 2.08185e-05)
(-2.91992e-05 -0.00015539 2.08186e-05)
(-1.5545e-05 -0.000157343 2.08186e-05)
(-1.77239e-06 -0.0001581 2.08187e-05)
(1.20136e-05 -0.000157652 2.08186e-05)
(-8.88178e-06 -0.000161946 2.34838e-05)
(5.26657e-06 -0.000162103 2.34838e-05)
(1.93747e-05 -0.000161028 2.34838e-05)
(3.33359e-05 -0.000158727 2.34839e-05)
(4.7043e-05 -0.000155218 2.34838e-05)
(6.0392e-05 -0.000150527 2.34838e-05)
(7.32814e-05 -0.00014469 2.34838e-05)
(8.56127e-05 -0.000137752 2.34837e-05)
(9.72931e-05 -0.000129767 2.34838e-05)
(0.000108233 -0.000120794 2.34839e-05)
(0.000118349 -0.0001109 2.34838e-05)
(0.000127564 -0.000100164 2.34838e-05)
(0.000135809 -8.86647e-05 2.34837e-05)
(0.00014302 -7.6491e-05 2.34837e-05)
(0.000149142 -6.37352e-05 2.34838e-05)
(0.000154129 -5.04938e-05 2.34838e-05)
(0.000157943 -3.68683e-05 2.34838e-05)
(0.000160556 -2.29624e-05 2.34839e-05)
(0.000161946 -8.88178e-06 2.34838e-05)
(0.000162103 5.26657e-06 2.34838e-05)
(0.000161028 1.93747e-05 2.34838e-05)
(0.000158727 3.33359e-05 2.34839e-05)
(0.000155218 4.7043e-05 2.34838e-05)
(0.000150527 6.0392e-05 2.34838e-05)
(0.00014469 7.32814e-05 2.34838e-05)
(0.000137752 8.56127e-05 2.34837e-05)
(0.000129767 9.72931e-05 2.34838e-05)
(0.000120794 0.000108233 2.34839e-05)
(0.0001109 0.000118349 2.34838e-05)
(0.000100164 0.000127564 2.34838e-05)
(8.86647e-05 0.000135809 2.34837e-05)
(7.6491e-05 0.00014302 2.34837e-05)
(6.37352e-05 0.000149142 2.34838e-05)
(5.04938e-05 0.000154129 2.34838e-05)
(3.68683e-05 0.000157943 2.34838e-05)
(2.29624e-05 0.000160556 2.34839e-05)
(8.88178e-06 0.000161946 2.34838e-05)
(-5.26657e-06 0.000162103 2.34838e-05)
(-1.93747e-05 0.000161028 2.34838e-05)
(-3.33359e-05 0.000158727 2.34839e-05)
(-4.7043e-05 0.000155218 2.34838e-05)
(-6.0392e-05 0.000150527 2.34838e-05)
(-7.32814e-05 0.00014469 2.34838e-05)
(-8.56127e-05 0.000137752 2.34837e-05)
(-9.72931e-05 0.000129767 2.34838e-05)
(-0.000108233 0.000120794 2.34839e-05)
(-0.000118349 0.0001109 2.34838e-05)
(-0.000127564 0.000100164 2.34838e-05)
(-0.000135809 8.86647e-05 2.34837e-05)
(-0.00014302 7.6491e-05 2.34837e-05)
(-0.000149142 6.37352e-05 2.34838e-05)
(-0.000154129 5.04938e-05 2.34838e-05)
(-0.000157943 3.68683e-05 2.34838e-05)
(-0.000160556 2.29624e-05 2.34839e-05)
(-0.000161946 8.88178e-06 2.34838e-05)
(-0.000162103 -5.26657e-06 2.34838e-05)
(-0.000161028 -1.93747e-05 2.34838e-05)
(-0.000158727 -3.33359e-05 2.34839e-05)
(-0.000155218 -4.7043e-05 2.34838e-05)
(-0.000150527 -6.0392e-05 2.34838e-05)
(-0.00014469 -7.32814e-05 2.34838e-05)
(-0.000137752 -8.56127e-05 2.34837e-05)
(-0.000129767 -9.72931e-05 2.34838e-05)
(-0.000120794 -0.000108233 2.34839e-05)
(-0.0001109 -0.000118349 2.34838e-05)
(-0.000100164 -0.000127564 2.34838e-05)
(-8.86647e-05 -0.000135809 2.34837e-05)
(-7.6491e-05 -0.00014302 2.34837e-05)
(-6.37352e-05 -0.000149142 2.34838e-05)
(-5.04938e-05 -0.000154129 2.34838e-05)
(-3.68683e-05 -0.000157943 2.34838e-05)
(-2.29624e-05 -0.000160556 2.34839e-05)
(0.00023877 -0.000354276 3.32421e-05)
(0.000268738 -0.000332118 3.3242e-05)
(0.000296662 -0.000307432 3.32421e-05)
(0.000322327 -0.000280406 3.32421e-05)
(0.00034554 -0.000251247 3.3242e-05)
(0.000366122 -0.000220175 3.32419e-05)
(0.000383918 -0.000187427 3.3242e-05)
(0.000398793 -0.000153253 3.32418e-05)
(0.000410633 -0.000117913 3.32417e-05)
(0.000419347 -8.16752e-05 3.32418e-05)
(0.000424869 -4.48159e-05 3.32421e-05)
(0.000427158 -7.61556e-06 3.32421e-05)
(0.000426197 2.96427e-05 3.32422e-05)
(0.000421991 6.66754e-05 3.32423e-05)
(0.000414574 0.000103201 3.32423e-05)
(0.000404002 0.000138941 3.32421e-05)
(0.000390355 0.000173623 3.3242e-05)
(0.000373737 0.000206984 3.3242e-05)
(0.000354276 0.00023877 3.32421e-05)
(0.000332118 0.000268738 3.3242e-05)
(0.000307432 0.000296662 3.32421e-05)
(0.000280406 0.000322327 3.32421e-05)
(0.000251247 0.00034554 3.3242e-05)
(0.000220175 0.000366122 3.32419e-05)
(0.000187427 0.000383918 3.3242e-05)
(0.000153253 0.000398793 3.32418e-05)
(0.000117913 0.000410633 3.32417e-05)
(8.16752e-05 0.000419347 3.32418e-05)
(4.48159e-05 0.000424869 3.32421e-05)
(7.61556e-06 0.000427158 3.32421e-05)
(-2.96427e-05 0.000426197 3.32422e-05)
(-6.66754e-05 0.000421991 3.32423e-05)
(-0.000103201 0.000414574 3.32423e-05)
(-0.000138941 0.000404002 3.32421e-05)
(-0.000173623 0.000390355 3.3242e-05)
(-0.000206984 0.000373737 3.3242e-05)
(-0.00023877 0.000354276 3.32421e-05)
(-0.000268738 0.000332118 3.3242e-05)
(-0.000296662 0.000307432 3.32421e-05)
(-0.000322327 0.000280406 3.32421e-05)
(-0.00034554 0.000251247 3.3242e-05)
(-0.000366122 0.000220175 3.32419e-05)
(-0.000383918 0.000187427 3.3242e-05)
(-0.000398793 0.000153253 3.32418e-05)
(-0.000410633 0.000117913 3.32417e-05)
(-0.000419347 8.16752e-05 3.32418e-05)
(-0.000424869 4.48159e-05 3.32421e-05)
(-0.000427158 7.61556e-06 3.32421e-05)
(-0.000426197 -2.96427e-05 3.32422e-05)
(-0.000421991 -6.66754e-05 3.32423e-05)
(-0.000414574 -0.000103201 3.32423e-05)
(-0.000404002 -0.000138941 3.32421e-05)
(-0.000390355 -0.000173623 3.3242e-05)
(-0.000373737 -0.000206984 3.3242e-05)
(-0.000354276 -0.00023877 3.32421e-05)
(-0.000332118 -0.000268738 3.3242e-05)
(-0.000307432 -0.000296662 3.32421e-05)
(-0.000280406 -0.000322327 3.32421e-05)
(-0.000251247 -0.00034554 3.3242e-05)
(-0.000220175 -0.000366122 3.32419e-05)
(-0.000187427 -0.000383918 3.3242e-05)
(-0.000153253 -0.000398793 3.32418e-05)
(-0.000117913 -0.000410633 3.32417e-05)
(-8.16752e-05 -0.000419347 3.32418e-05)
(-4.48159e-05 -0.000424869 3.32421e-05)
(-7.61556e-06 -0.000427158 3.32421e-05)
(2.96427e-05 -0.000426197 3.32422e-05)
(6.66754e-05 -0.000421991 3.32423e-05)
(0.000103201 -0.000414574 3.32423e-05)
(0.000138941 -0.000404002 3.32421e-05)
(0.000173623 -0.000390355 3.3242e-05)
(0.000206984 -0.000373737 3.3242e-05)
(0.00021502 -0.000385462 5.79465e-05)
(0.000247797 -0.000365255 5.79465e-05)
(0.000278688 -0.000342268 5.79466e-05)
(0.000307458 -0.000316676 5.79466e-05)
(0.000333889 -0.000288674 5.79465e-05)
(0.000357778 -0.000258475 5.79464e-05)
(0.000378944 -0.00022631 5.79466e-05)
(0.000397226 -0.000192421 5.79465e-05)
(0.000412485 -0.000157069 5.79465e-05)
(0.000424605 -0.000120521 5.79465e-05)
(0.000433493 -8.3055e-05 5.79466e-05)
(0.000439082 -4.49574e-05 5.79467e-05)
(0.000441329 -6.51798e-06 5.79466e-05)
(0.000440218 3.19714e-05 5.79466e-05)
(0.000435756 7.02172e-05 5.79467e-05)
(0.000427978 0.000107929 5.79467e-05)
(0.000416943 0.000144819 5.79465e-05)
(0.000402735 0.000180607 5.79465e-05)
(0.000385462 0.00021502 5.79465e-05)
(0.000365255 0.000247797 5.79465e-05)
(0.000342268 0.000278688 5.79466e-05)
(0.000316676 0.000307458 5.79466e-05)
(0.000288674 0.000333889 5.79465e-05)
(0.000258475 0.000357778 5.79464e-05)
(0.00022631 0.000378944 5.79466e-05)
(0.000192421 0.000397226 5.79465e-05)
(0.000157069 0.000412485 5.79465e-05)
(0.000120521 0.000424605 5.79465e-05)
(8.3055e-05 0.000433493 5.79466e-05)
(4.49574e-05 0.000439082 5.79467e-05)
(6.51798e-06 0.000441329 5.79466e-05)
(-3.19714e-05 0.000440218 5.79466e-05)
(-7.02172e-05 0.000435756 5.79467e-05)
(-0.000107929 0.000427978 5.79467e-05)
(-0.000144819 0.000416943 5.79465e-05)
(-0.000180607 0.000402735 5.79465e-05)
(-0.00021502 0.000385462 5.79465e-05)
(-0.000247797 0.000365255 5.79465e-05)
(-0.000278688 0.000342268 5.79466e-05)
(-0.000307458 0.000316676 5.79466e-05)
(-0.000333889 0.000288674 5.79465e-05)
(-0.000357778 0.000258475 5.79464e-05)
(-0.000378944 0.00022631 5.79466e-05)
(-0.000397226 0.000192421 5.79465e-05)
(-0.000412485 0.000157069 5.79465e-05)
(-0.000424605 0.000120521 5.79465e-05)
(-0.000433493 8.3055e-05 5.79466e-05)
(-0.000439082 4.49574e-05 5.79467e-05)
(-0.000441329 6.51798e-06 5.79466e-05)
(-0.000440218 -3.19714e-05 5.79466e-05)
(-0.000435756 -7.02172e-05 5.79467e-05)
(-0.000427978 -0.000107929 5.79467e-05)
(-0.000416943 -0.000144819 5.79465e-05)
(-0.000402735 -0.000180607 5.79465e-05)
(-0.000385462 -0.00021502 5.79465e-05)
(-0.000365255 -0.000247797 5.79465e-05)
(-0.000342268 -0.000278688 5.79466e-05)
(-0.000316676 -0.000307458 5.79466e-05)
(-0.000288674 -0.000333889 5.79465e-05)
(-0.000258475 -0.000357778 5.79464e-05)
(-0.00022631 -0.000378944 5.79466e-05)
(-0.000192421 -0.000397226 5.79465e-05)
(-0.000157069 -0.000412485 5.79465e-05)
(-0.000120521 -0.000424605 5.79465e-05)
(-8.3055e-05 -0.000433493 5.79466e-05)
(-4.49574e-05 -0.000439082 5.79467e-05)
(-6.51798e-06 -0.000441329 5.79466e-05)
(3.19714e-05 -0.000440218 5.79466e-05)
(7.02172e-05 -0.000435756 5.79467e-05)
(0.000107929 -0.000427978 5.79467e-05)
(0.000144819 -0.000416943 5.79465e-05)
(0.000180607 -0.000402735 5.79465e-05)
(0.000181478 -0.000415619 7.55767e-05)
(0.000217011 -0.000398221 7.55767e-05)
(0.000250892 -0.000377792 7.55768e-05)
(0.000282864 -0.000354487 7.55769e-05)
(0.000312683 -0.000328485 7.55768e-05)
(0.000340123 -0.000299983 7.55769e-05)
(0.000364974 -0.000269198 7.5577e-05)
(0.000387047 -0.000236364 7.55769e-05)
(0.000406174 -0.000201731 7.55769e-05)
(0.000422211 -0.000165563 7.55769e-05)
(0.000435034 -0.000128135 7.55769e-05)
(0.000444546 -8.97317e-05 7.55771e-05)
(0.000450675 -5.06453e-05 7.55771e-05)
(0.000453374 -1.11735e-05 7.55768e-05)
(0.000452623 2.83829e-05 7.5577e-05)
(0.000448426 6.7724e-05 7.55769e-05)
(0.000440818 0.000106549 7.55768e-05)
(0.000429854 0.000144564 7.55767e-05)
(0.000415619 0.000181478 7.55767e-05)
(0.000398221 0.000217011 7.55767e-05)
(0.000377792 0.000250892 7.55768e-05)
(0.000354487 0.000282864 7.55769e-05)
(0.000328485 0.000312683 7.55768e-05)
(0.000299983 0.000340123 7.55769e-05)
(0.000269198 0.000364974 7.5577e-05)
(0.000236364 0.000387047 7.55769e-05)
(0.000201731 0.000406174 7.55769e-05)
(0.000165563 0.000422211 7.55769e-05)
(0.000128135 0.000435034 7.55769e-05)
(8.97317e-05 0.000444546 7.55771e-05)
(5.06453e-05 0.000450675 7.55771e-05)
(1.11735e-05 0.000453374 7.55768e-05)
(-2.83829e-05 0.000452623 7.5577e-05)
(-6.7724e-05 0.000448426 7.55769e-05)
(-0.000106549 0.000440818 7.55768e-05)
(-0.000144564 0.000429854 7.55767e-05)
(-0.000181478 0.000415619 7.55767e-05)
(-0.000217011 0.000398221 7.55767e-05)
(-0.000250892 0.000377792 7.55768e-05)
(-0.000282864 0.000354487 7.55769e-05)
(-0.000312683 0.000328485 7.55768e-05)
(-0.000340123 0.000299983 7.55769e-05)
(-0.000364974 0.000269198 7.5577e-05)
(-0.000387047 0.000236364 7.55769e-05)
(-0.000406174 0.000201731 7.55769e-05)
(-0.000422211 0.000165563 7.55769e-05)
(-0.000435034 0.000128135 7.55769e-05)
(-0.000444546 8.97317e-05 7.55771e-05)
(-0.000450675 5.06453e-05 7.55771e-05)
(-0.000453374 1.11735e-05 7.55768e-05)
(-0.000452623 -2.83829e-05 7.5577e-05)
(-0.000448426 -6.7724e-05 7.55769e-05)
(-0.000440818 -0.000106549 7.55768e-05)
(-0.000429854 -0.000144564 7.55767e-05)
(-0.000415619 -0.000181478 7.55767e-05)
(-0.000398221 -0.000217011 7.55767e-05)
(-0.000377792 -0.000250892 7.55768e-05)
(-0.000354487 -0.000282864 7.55769e-05)
(-0.000328485 -0.000312683 7.55768e-05)
(-0.000299983 -0.000340123 7.55769e-05)
(-0.000269198 -0.000364974 7.5577e-05)
(-0.000236364 -0.000387047 7.55769e-05)
(-0.000201731 -0.000406174 7.55769e-05)
(-0.000165563 -0.000422211 7.55769e-05)
(-0.000128135 -0.000435034 7.55769e-05)
(-8.97317e-05 -0.000444546 7.55771e-05)
(-5.06453e-05 -0.000450675 7.55771e-05)
(-1.11735e-05 -0.000453374 7.55768e-05)
(2.83829e-05 -0.000452623 7.5577e-05)
(6.7724e-05 -0.000448426 7.55769e-05)
(0.000106549 -0.000440818 7.55768e-05)
(0.000144564 -0.000429854 7.55767e-05)
(0.000140326 -0.00044216 8.7989e-05)
(0.000178329 -0.000428247 8.79891e-05)
(0.000214974 -0.000411075 8.79892e-05)
(0.000249984 -0.000390775 8.79892e-05)
(0.000283091 -0.0003675 8.79892e-05)
(0.000314043 -0.000341429 8.79892e-05)
(0.000342605 -0.000312759 8.79892e-05)
(0.000368561 -0.000281709 8.79893e-05)
(0.000391711 -0.000248515 8.79892e-05)
(0.00041188 -0.000213429 8.79891e-05)
(0.000428914 -0.000176719 8.79892e-05)
(0.000442683 -0.000138665 8.79891e-05)
(0.000453084 -9.95544e-05 8.79892e-05)
(0.000460037 -5.96866e-05 8.79891e-05)
(0.000463488 -1.93645e-05 8.79891e-05)
(0.000463413 2.11047e-05 8.79892e-05)
(0.00045981 6.14136e-05 8.79892e-05)
(0.000452708 0.000101255 8.7989e-05)
(0.00044216 0.000140326 8.7989e-05)
(0.000428247 0.000178329 8.79891e-05)
(0.000411075 0.000214974 8.79892e-05)
(0.000390775 0.000249984 8.79892e-05)
(0.0003675 0.000283091 8.79892e-05)
(0.000341429 0.000314043 8.79892e-05)
(0.000312759 0.000342605 8.79892e-05)
(0.000281709 0.000368561 8.79893e-05)
(0.000248515 0.000391711 8.79892e-05)
(0.000213429 0.00041188 8.79891e-05)
(0.000176719 0.000428914 8.79892e-05)
(0.000138665 0.000442683 8.79891e-05)
(9.95544e-05 0.000453084 8.79892e-05)
(5.96866e-05 0.000460037 8.79891e-05)
(1.93645e-05 0.000463488 8.79891e-05)
(-2.11047e-05 0.000463413 8.79892e-05)
(-6.14136e-05 0.00045981 8.79892e-05)
(-0.000101255 0.000452708 8.7989e-05)
(-0.000140326 0.00044216 8.7989e-05)
(-0.000178329 0.000428247 8.79891e-05)
(-0.000214974 0.000411075 8.79892e-05)
(-0.000249984 0.000390775 8.79892e-05)
(-0.000283091 0.0003675 8.79892e-05)
(-0.000314043 0.000341429 8.79892e-05)
(-0.000342605 0.000312759 8.79892e-05)
(-0.000368561 0.000281709 8.79893e-05)
(-0.000391711 0.000248515 8.79892e-05)
(-0.00041188 0.000213429 8.79891e-05)
(-0.000428914 0.000176719 8.79892e-05)
(-0.000442683 0.000138665 8.79891e-05)
(-0.000453084 9.95544e-05 8.79892e-05)
(-0.000460037 5.96866e-05 8.79891e-05)
(-0.000463488 1.93645e-05 8.79891e-05)
(-0.000463413 -2.11047e-05 8.79892e-05)
(-0.00045981 -6.14136e-05 8.79892e-05)
(-0.000452708 -0.000101255 8.7989e-05)
(-0.00044216 -0.000140326 8.7989e-05)
(-0.000428247 -0.000178329 8.79891e-05)
(-0.000411075 -0.000214974 8.79892e-05)
(-0.000390775 -0.000249984 8.79892e-05)
(-0.0003675 -0.000283091 8.79892e-05)
(-0.000341429 -0.000314043 8.79892e-05)
(-0.000312759 -0.000342605 8.79892e-05)
(-0.000281709 -0.000368561 8.79893e-05)
(-0.000248515 -0.000391711 8.79892e-05)
(-0.000213429 -0.00041188 8.79891e-05)
(-0.000176719 -0.000428914 8.79892e-05)
(-0.000138665 -0.000442683 8.79891e-05)
(-9.95544e-05 -0.000453084 8.79892e-05)
(-5.96866e-05 -0.000460037 8.79891e-05)
(-1.93645e-05 -0.000463488 8.79891e-05)
(2.11047e-05 -0.000463413 8.79892e-05)
(6.14136e-05 -0.00045981 8.79892e-05)
(0.000101255 -0.000452708 8.7989e-05)
(9.17613e-05 -0.000463323 9.91084e-05)
(0.000131793 -0.000453563 9.91085e-05)
(0.000170822 -0.000440351 9.91086e-05)
(0.000208552 -0.000423787 9.91086e-05)
(0.000244693 -0.000403997 9.91085e-05)
(0.000278973 -0.000381133 9.91085e-05)
(0.000311129 -0.000355369 9.91086e-05)
(0.000340917 -0.0003269 9.91084e-05)
(0.000368111 -0.000295943 9.91083e-05)
(0.000392504 -0.000262734 9.91082e-05)
(0.000413909 -0.000227525 9.91083e-05)
(0.000432165 -0.000190585 9.91086e-05)
(0.00044713 -0.000152194 9.91083e-05)
(0.000458693 -0.000112645 9.91083e-05)
(0.000466765 -7.22386e-05 9.91084e-05)
(0.000471285 -3.12826e-05 9.91085e-05)
(0.000472218 9.91166e-06 9.91084e-05)
(0.000469558 5.10307e-05 9.91084e-05)
(0.000463323 9.17613e-05 9.91084e-05)
(0.000453563 0.000131793 9.91085e-05)
(0.000440351 0.000170822 9.91086e-05)
(0.000423787 0.000208552 9.91086e-05)
(0.000403997 0.000244693 9.91085e-05)
(0.000381133 0.000278973 9.91085e-05)
(0.000355369 0.000311129 9.91086e-05)
(0.0003269 0.000340917 9.91084e-05)
(0.000295943 0.000368111 9.91083e-05)
(0.000262734 0.000392504 9.91082e-05)
(0.000227525 0.000413909 9.91083e-05)
(0.000190585 0.000432165 9.91086e-05)
(0.000152194 0.00044713 9.91083e-05)
(0.000112645 0.000458693 9.91083e-05)
(7.22386e-05 0.000466765 9.91084e-05)
(3.12826e-05 0.000471285 9.91085e-05)
(-9.91166e-06 0.000472218 9.91084e-05)