/*--------------------------------*- C++ -*----------------------------------*\
| =========                 |                                                 |
| \\      /  F ield         | OpenFOAM: The Open Source CFD Toolbox           |
|  \\    /   O peration     | Version:  2312                                  |
|   \\  /    A nd           | Website:  www.openfoam.com                      |
|    \\/     M anipulation  |                                                 |
\*---------------------------------------------------------------------------*/
FoamFile
{
    version     2.0;
    format      ascii;
    arch        "LSB;label=32;scalar=64";
    class       volVectorField;
    location    "0.4";
    object      D_0_0;
}
// * * * * * * * * * * * * * * * * * * * * * * * * * * * * * * * * * * * * * //

dimensions      [0 1 0 0 0 0 0];

internalField   nonuniform List<vector> 
12960
(
(9.04033e-05 -0.000114092 5.87139e-06)
(0.000100003 -0.000105779 5.8714e-06)
(0.000108842 -9.66603e-05 5.87142e-06)
(0.000116852 -8.6806e-05 5.87136e-06)
(0.000123973 -7.62916e-05 5.87136e-06)
(0.00013015 -6.51962e-05 5.87141e-06)
(0.000135337 -5.36047e-05 5.8714e-06)
(0.000139494 -4.16054e-05 5.87129e-06)
(0.00014259 -2.92893e-05 5.87123e-06)
(0.0001446 -1.67504e-05 5.87131e-06)
(0.00014551 -4.08394e-06 5.87139e-06)
(0.000145311 8.61368e-06 5.87145e-06)
(0.000144008 2.12456e-05 5.87148e-06)
(0.000141608 3.37159e-05 5.87149e-06)
(0.000138131 4.59296e-05 5.87141e-06)
(0.000133602 5.77938e-05 5.8714e-06)
(0.000128057 6.9218e-05 5.87138e-06)
(0.000121537 8.01156e-05 5.87132e-06)
(0.000114092 9.04033e-05 5.87139e-06)
(0.000105779 0.000100003 5.8714e-06)
(9.66603e-05 0.000108842 5.87142e-06)
(8.6806e-05 0.000116852 5.87136e-06)
(7.62916e-05 0.000123973 5.87136e-06)
(6.51962e-05 0.00013015 5.87141e-06)
(5.36047e-05 0.000135337 5.8714e-06)
(4.16054e-05 0.000139494 5.87129e-06)
(2.92893e-05 0.00014259 5.87123e-06)
(1.67504e-05 0.0001446 5.87131e-06)
(4.08394e-06 0.00014551 5.87139e-06)
(-8.61368e-06 0.000145311 5.87145e-06)
(-2.12456e-05 0.000144008 5.87148e-06)
(-3.37159e-05 0.000141608 5.87149e-06)
(-4.59296e-05 0.000138131 5.87141e-06)
(-5.77938e-05 0.000133602 5.8714e-06)
(-6.9218e-05 0.000128057 5.87138e-06)
(-8.01156e-05 0.000121537 5.87132e-06)
(-9.04033e-05 0.000114092 5.87139e-06)
(-0.000100003 0.000105779 5.8714e-06)
(-0.000108842 9.66603e-05 5.87142e-06)
(-0.000116852 8.6806e-05 5.87136e-06)
(-0.000123973 7.62916e-05 5.87136e-06)
(-0.00013015 6.51962e-05 5.87141e-06)
(-0.000135337 5.36047e-05 5.8714e-06)
(-0.000139494 4.16054e-05 5.87129e-06)
(-0.00014259 2.92893e-05 5.87123e-06)
(-0.0001446 1.67504e-05 5.87131e-06)
(-0.00014551 4.08394e-06 5.87139e-06)
(-0.000145311 -8.61368e-06 5.87145e-06)
(-0.000144008 -2.12456e-05 5.87148e-06)
(-0.000141608 -3.37159e-05 5.87149e-06)
(-0.000138131 -4.59296e-05 5.87141e-06)
(-0.000133602 -5.77938e-05 5.8714e-06)
(-0.000128057 -6.9218e-05 5.87138e-06)
(-0.000121537 -8.01156e-05 5.87132e-06)
(-0.000114092 -9.04033e-05 5.87139e-06)
(-0.000105779 -0.000100003 5.8714e-06)
(-9.66603e-05 -0.000108842 5.87142e-06)
(-8.6806e-05 -0.000116852 5.87136e-06)
(-7.62916e-05 -0.000123973 5.87136e-06)
(-6.51962e-05 -0.00013015 5.87141e-06)
(-5.36047e-05 -0.000135337 5.8714e-06)
(-4.16054e-05 -0.000139494 5.87129e-06)
(-2.92893e-05 -0.00014259 5.87123e-06)
(-1.67504e-05 -0.0001446 5.87131e-06)
(-4.08394e-06 -0.00014551 5.87139e-06)
(8.61368e-06 -0.000145311 5.87145e-06)
(2.12456e-05 -0.000144008 5.87148e-06)
(3.37159e-05 -0.000141608 5.87149e-06)
(4.59296e-05 -0.000138131 5.87141e-06)
(5.77938e-05 -0.000133602 5.8714e-06)
(6.9218e-05 -0.000128057 5.87138e-06)
(8.01156e-05 -0.000121537 5.87132e-06)
(8.03875e-05 -0.00012511 1.27044e-05)
(9.09855e-05 -0.000117628 1.27044e-05)
(0.000100891 -0.000109251 1.27044e-05)
(0.00011003 -0.000100042 1.27044e-05)
(0.00011833 -9.00711e-05 1.27044e-05)
(0.00012573 -7.94154e-05 1.27044e-05)
(0.000132173 -6.81552e-05 1.27044e-05)
(0.00013761 -5.63761e-05 1.27044e-05)
(0.000142 -4.4168e-05 1.27043e-05)
(0.000145309 -3.16239e-05 1.27044e-05)
(0.000147513 -1.88391e-05 1.27044e-05)
(0.000148593 -5.91068e-06 1.27044e-05)
(0.000148543 7.06251e-06 1.27044e-05)
(0.000147362 1.9982e-05 1.27044e-05)
(0.00014506 3.27494e-05 1.27044e-05)
(0.000141653 4.52675e-05 1.27044e-05)
(0.000137168 5.7441e-05 1.27044e-05)
(0.00013164 6.91776e-05 1.27044e-05)
(0.00012511 8.03875e-05 1.27044e-05)
(0.000117628 9.09855e-05 1.27044e-05)
(0.000109251 0.000100891 1.27044e-05)
(0.000100042 0.00011003 1.27044e-05)
(9.00711e-05 0.00011833 1.27044e-05)
(7.94154e-05 0.00012573 1.27044e-05)
(6.81552e-05 0.000132173 1.27044e-05)
(5.63761e-05 0.00013761 1.27044e-05)
(4.4168e-05 0.000142 1.27043e-05)
(3.16239e-05 0.000145309 1.27044e-05)
(1.88391e-05 0.000147513 1.27044e-05)
(5.91068e-06 0.000148593 1.27044e-05)
(-7.06251e-06 0.000148543 1.27044e-05)
(-1.9982e-05 0.000147362 1.27044e-05)
(-3.27494e-05 0.00014506 1.27044e-05)
(-4.52675e-05 0.000141653 1.27044e-05)
(-5.7441e-05 0.000137168 1.27044e-05)
(-6.91776e-05 0.00013164 1.27044e-05)
(-8.03875e-05 0.00012511 1.27044e-05)
(-9.09855e-05 0.000117628 1.27044e-05)
(-0.000100891 0.000109251 1.27044e-05)
(-0.00011003 0.000100042 1.27044e-05)
(-0.00011833 9.00711e-05 1.27044e-05)
(-0.00012573 7.94154e-05 1.27044e-05)
(-0.000132173 6.81552e-05 1.27044e-05)
(-0.00013761 5.63761e-05 1.27044e-05)
(-0.000142 4.4168e-05 1.27043e-05)
(-0.000145309 3.16239e-05 1.27044e-05)
(-0.000147513 1.88391e-05 1.27044e-05)
(-0.000148593 5.91068e-06 1.27044e-05)
(-0.000148543 -7.06251e-06 1.27044e-05)
(-0.000147362 -1.9982e-05 1.27044e-05)
(-0.00014506 -3.27494e-05 1.27044e-05)
(-0.000141653 -4.52675e-05 1.27044e-05)
(-0.000137168 -5.7441e-05 1.27044e-05)
(-0.00013164 -6.91776e-05 1.27044e-05)
(-0.00012511 -8.03875e-05 1.27044e-05)
(-0.000117628 -9.09855e-05 1.27044e-05)
(-0.000109251 -0.000100891 1.27044e-05)
(-0.000100042 -0.00011003 1.27044e-05)
(-9.00711e-05 -0.00011833 1.27044e-05)
(-7.94154e-05 -0.00012573 1.27044e-05)
(-6.81552e-05 -0.000132173 1.27044e-05)
(-5.63761e-05 -0.00013761 1.27044e-05)
(-4.4168e-05 -0.000142 1.27043e-05)
(-3.16239e-05 -0.000145309 1.27044e-05)
(-1.88391e-05 -0.000147513 1.27044e-05)
(-5.91068e-06 -0.000148593 1.27044e-05)
(7.06251e-06 -0.000148543 1.27044e-05)
(1.9982e-05 -0.000147362 1.27044e-05)
(3.27494e-05 -0.00014506 1.27044e-05)
(4.52675e-05 -0.000141653 1.27044e-05)
(5.7441e-05 -0.000137168 1.27044e-05)
(6.91776e-05 -0.00013164 1.27044e-05)
(6.63611e-05 -0.000135652 1.59102e-05)
(7.79315e-05 -0.000129352 1.59102e-05)
(8.89087e-05 -0.000122068 1.59103e-05)
(9.92092e-05 -0.000113854 1.59102e-05)
(0.000108755 -0.000104775 1.59103e-05)
(0.000117473 -9.48972e-05 1.59102e-05)
(0.000125296 -8.42975e-05 1.59102e-05)
(0.000132167 -7.30566e-05 1.59102e-05)
(0.000138031 -6.12595e-05 1.59102e-05)
(0.000142845 -4.89962e-05 1.59102e-05)
(0.000146572 -3.636e-05 1.59102e-05)
(0.000149182 -2.3447e-05 1.59102e-05)
(0.000150659 -1.03557e-05 1.59103e-05)
(0.000150988 2.8145e-06 1.59103e-05)
(0.000150168 1.59632e-05 1.59103e-05)
(0.000148205 2.89906e-05 1.59103e-05)
(0.000145115 4.17972e-05 1.59103e-05)
(0.00014092 5.42857e-05 1.59102e-05)
(0.000135652 6.63611e-05 1.59102e-05)
(0.000129352 7.79315e-05 1.59102e-05)
(0.000122068 8.89087e-05 1.59103e-05)
(0.000113854 9.92092e-05 1.59102e-05)
(0.000104775 0.000108755 1.59103e-05)
(9.48972e-05 0.000117473 1.59102e-05)
(8.42975e-05 0.000125296 1.59102e-05)
(7.30566e-05 0.000132167 1.59102e-05)
(6.12595e-05 0.000138031 1.59102e-05)
(4.89962e-05 0.000142845 1.59102e-05)
(3.636e-05 0.000146572 1.59102e-05)
(2.3447e-05 0.000149182 1.59102e-05)
(1.03557e-05 0.000150659 1.59103e-05)
(-2.8145e-06 0.000150988 1.59103e-05)
(-1.59632e-05 0.000150168 1.59103e-05)
(-2.89906e-05 0.000148205 1.59103e-05)
(-4.17972e-05 0.000145115 1.59103e-05)
(-5.42857e-05 0.00014092 1.59102e-05)
(-6.63611e-05 0.000135652 1.59102e-05)
(-7.79315e-05 0.000129352 1.59102e-05)
(-8.89087e-05 0.000122068 1.59103e-05)
(-9.92092e-05 0.000113854 1.59102e-05)
(-0.000108755 0.000104775 1.59103e-05)
(-0.000117473 9.48972e-05 1.59102e-05)
(-0.000125296 8.42975e-05 1.59102e-05)
(-0.000132167 7.30566e-05 1.59102e-05)
(-0.000138031 6.12595e-05 1.59102e-05)
(-0.000142845 4.89962e-05 1.59102e-05)
(-0.000146572 3.636e-05 1.59102e-05)
(-0.000149182 2.3447e-05 1.59102e-05)
(-0.000150659 1.03557e-05 1.59103e-05)
(-0.000150988 -2.8145e-06 1.59103e-05)
(-0.000150168 -1.59632e-05 1.59103e-05)
(-0.000148205 -2.89906e-05 1.59103e-05)
(-0.000145115 -4.17972e-05 1.59103e-05)
(-0.00014092 -5.42857e-05 1.59102e-05)
(-0.000135652 -6.63611e-05 1.59102e-05)
(-0.000129352 -7.79315e-05 1.59102e-05)
(-0.000122068 -8.89087e-05 1.59103e-05)
(-0.000113854 -9.92092e-05 1.59102e-05)
(-0.000104775 -0.000108755 1.59103e-05)
(-9.48972e-05 -0.000117473 1.59102e-05)
(-8.42975e-05 -0.000125296 1.59102e-05)
(-7.30566e-05 -0.000132167 1.59102e-05)
(-6.12595e-05 -0.000138031 1.59102e-05)
(-4.89962e-05 -0.000142845 1.59102e-05)
(-3.636e-05 -0.000146572 1.59102e-05)
(-2.3447e-05 -0.000149182 1.59102e-05)
(-1.03557e-05 -0.000150659 1.59103e-05)
(2.8145e-06 -0.000150988 1.59103e-05)
(1.59632e-05 -0.000150168 1.59103e-05)
(2.89906e-05 -0.000148205 1.59103e-05)
(4.17972e-05 -0.000145115 1.59103e-05)
(5.42857e-05 -0.00014092 1.59102e-05)
(4.86677e-05 -0.000144621 1.75221e-05)
(6.1087e-05 -0.000139829 1.75221e-05)
(7.30416e-05 -0.000133973 1.75222e-05)
(8.44398e-05 -0.000127097 1.75221e-05)
(9.51956e-05 -0.000119254 1.75221e-05)
(0.000105227 -0.000110503 1.75222e-05)
(0.000114458 -0.000100912 1.75222e-05)
(0.000122817 -9.05521e-05 1.75222e-05)
(0.000130242 -7.95034e-05 1.75221e-05)
(0.000136676 -6.78496e-05 1.75221e-05)
(0.000142069 -5.56791e-05 1.75222e-05)
(0.000146381 -4.30851e-05 1.75222e-05)
(0.000149579 -3.01632e-05 1.75222e-05)
(0.000151638 -1.70116e-05 1.75221e-05)
(0.000152544 -3.73073e-06 1.75221e-05)
(0.00015229 9.57859e-06 1.75222e-05)
(0.000150875 2.2815e-05 1.75221e-05)
(0.000148312 3.58779e-05 1.75221e-05)
(0.000144621 4.86677e-05 1.75221e-05)
(0.000139829 6.1087e-05 1.75221e-05)
(0.000133973 7.30416e-05 1.75222e-05)
(0.000127097 8.44398e-05 1.75221e-05)
(0.000119254 9.51956e-05 1.75221e-05)
(0.000110503 0.000105227 1.75222e-05)
(0.000100912 0.000114458 1.75222e-05)
(9.05521e-05 0.000122817 1.75222e-05)
(7.95034e-05 0.000130242 1.75221e-05)
(6.78496e-05 0.000136676 1.75221e-05)
(5.56791e-05 0.000142069 1.75222e-05)
(4.30851e-05 0.000146381 1.75222e-05)
(3.01632e-05 0.000149579 1.75222e-05)
(1.70116e-05 0.000151638 1.75221e-05)
(3.73073e-06 0.000152544 1.75221e-05)
(-9.57859e-06 0.00015229 1.75222e-05)
(-2.2815e-05 0.000150875 1.75221e-05)
(-3.58779e-05 0.000148312 1.75221e-05)
(-4.86677e-05 0.000144621 1.75221e-05)
(-6.1087e-05 0.000139829 1.75221e-05)
(-7.30416e-05 0.000133973 1.75222e-05)
(-8.44398e-05 0.000127097 1.75221e-05)
(-9.51956e-05 0.000119254 1.75221e-05)
(-0.000105227 0.000110503 1.75222e-05)
(-0.000114458 0.000100912 1.75222e-05)
(-0.000122817 9.05521e-05 1.75222e-05)
(-0.000130242 7.95034e-05 1.75221e-05)
(-0.000136676 6.78496e-05 1.75221e-05)
(-0.000142069 5.56791e-05 1.75222e-05)
(-0.000146381 4.30851e-05 1.75222e-05)
(-0.000149579 3.01632e-05 1.75222e-05)
(-0.000151638 1.70116e-05 1.75221e-05)
(-0.000152544 3.73073e-06 1.75221e-05)
(-0.00015229 -9.57859e-06 1.75222e-05)
(-0.000150875 -2.2815e-05 1.75221e-05)
(-0.000148312 -3.58779e-05 1.75221e-05)
(-0.000144621 -4.86677e-05 1.75221e-05)
(-0.000139829 -6.1087e-05 1.75221e-05)
(-0.000133973 -7.30416e-05 1.75222e-05)
(-0.000127097 -8.44398e-05 1.75221e-05)
(-0.000119254 -9.51956e-05 1.75221e-05)
(-0.000110503 -0.000105227 1.75222e-05)
(-0.000100912 -0.000114458 1.75222e-05)
(-9.05521e-05 -0.000122817 1.75222e-05)
(-7.95034e-05 -0.000130242 1.75221e-05)
(-6.78496e-05 -0.000136676 1.75221e-05)
(-5.56791e-05 -0.000142069 1.75222e-05)
(-4.30851e-05 -0.000146381 1.75222e-05)
(-3.01632e-05 -0.000149579 1.75222e-05)
(-1.70116e-05 -0.000151638 1.75221e-05)
(-3.73073e-06 -0.000152544 1.75221e-05)
(9.57859e-06 -0.00015229 1.75222e-05)
(2.2815e-05 -0.000150875 1.75221e-05)
(3.58779e-05 -0.000148312 1.75221e-05)
(2.62109e-05 -0.000151485 1.99379e-05)
(3.9314e-05 -0.000148624 1.99379e-05)
(5.21176e-05 -0.000144632 1.99379e-05)
(6.45249e-05 -0.00013954 1.9938e-05)
(7.64409e-05 -0.000133385 1.99379e-05)
(8.77753e-05 -0.000126215 1.99379e-05)
(9.84413e-05 -0.000118084 1.99379e-05)
(0.000108359 -0.000109055 1.99379e-05)
(0.000117452 -9.91967e-05 1.99379e-05)
(0.00012565 -8.85826e-05 1.99379e-05)
(0.000132892 -7.72939e-05 1.99379e-05)
(0.000139123 -6.54174e-05 1.99379e-05)
(0.000144295 -5.30432e-05 1.99379e-05)
(0.000148369 -4.02652e-05 1.99378e-05)
(0.000151314 -2.71809e-05 1.99379e-05)
(0.000153107 -1.38896e-05 1.99379e-05)
(0.000153735 -4.92499e-07 1.9938e-05)
(0.000153193 1.29083e-05 1.99379e-05)
(0.000151485 2.62109e-05 1.99379e-05)
(0.000148624 3.9314e-05 1.99379e-05)
(0.000144632 5.21176e-05 1.99379e-05)
(0.00013954 6.45249e-05 1.9938e-05)
(0.000133385 7.64409e-05 1.99379e-05)
(0.000126215 8.77753e-05 1.99379e-05)
(0.000118084 9.84413e-05 1.99379e-05)
(0.000109055 0.000108359 1.99379e-05)
(9.91967e-05 0.000117452 1.99379e-05)
(8.85826e-05 0.00012565 1.99379e-05)
(7.72939e-05 0.000132892 1.99379e-05)
(6.54174e-05 0.000139123 1.99379e-05)
(5.30432e-05 0.000144295 1.99379e-05)
(4.02652e-05 0.000148369 1.99378e-05)
(2.71809e-05 0.000151314 1.99379e-05)
(1.38896e-05 0.000153107 1.99379e-05)
(4.92499e-07 0.000153735 1.9938e-05)
(-1.29083e-05 0.000153193 1.99379e-05)
(-2.62109e-05 0.000151485 1.99379e-05)
(-3.9314e-05 0.000148624 1.99379e-05)
(-5.21176e-05 0.000144632 1.99379e-05)
(-6.45249e-05 0.00013954 1.9938e-05)
(-7.64409e-05 0.000133385 1.99379e-05)
(-8.77753e-05 0.000126215 1.99379e-05)
(-9.84413e-05 0.000118084 1.99379e-05)
(-0.000108359 0.000109055 1.99379e-05)
(-0.000117452 9.91967e-05 1.99379e-05)
(-0.00012565 8.85826e-05 1.99379e-05)
(-0.000132892 7.72939e-05 1.99379e-05)
(-0.000139123 6.54174e-05 1.99379e-05)
(-0.000144295 5.30432e-05 1.99379e-05)
(-0.000148369 4.02652e-05 1.99378e-05)
(-0.000151314 2.71809e-05 1.99379e-05)
(-0.000153107 1.38896e-05 1.99379e-05)
(-0.000153735 4.92499e-07 1.9938e-05)
(-0.000153193 -1.29083e-05 1.99379e-05)
(-0.000151485 -2.62109e-05 1.99379e-05)
(-0.000148624 -3.9314e-05 1.99379e-05)
(-0.000144632 -5.21176e-05 1.99379e-05)
(-0.00013954 -6.45249e-05 1.9938e-05)
(-0.000133385 -7.64409e-05 1.99379e-05)
(-0.000126215 -8.77753e-05 1.99379e-05)
(-0.000118084 -9.84413e-05 1.99379e-05)
(-0.000109055 -0.000108359 1.99379e-05)
(-9.91967e-05 -0.000117452 1.99379e-05)
(-8.85826e-05 -0.00012565 1.99379e-05)
(-7.72939e-05 -0.000132892 1.99379e-05)
(-6.54174e-05 -0.000139123 1.99379e-05)
(-5.30432e-05 -0.000144295 1.99379e-05)
(-4.02652e-05 -0.000148369 1.99378e-05)
(-2.71809e-05 -0.000151314 1.99379e-05)
(-1.38896e-05 -0.000153107 1.99379e-05)
(-4.92499e-07 -0.000153735 1.9938e-05)
(1.29083e-05 -0.000153193 1.99379e-05)
(-6.88047e-06 -0.000157117 2.24854e-05)
(6.83941e-06 -0.000157119 2.24853e-05)
(2.05071e-05 -0.000155925 2.24853e-05)
(3.40192e-05 -0.000153545 2.24855e-05)
(4.72721e-05 -0.000149996 2.24854e-05)
(6.01651e-05 -0.000145305 2.24854e-05)
(7.26002e-05 -0.000139508 2.24853e-05)
(8.44825e-05 -0.000132649 2.24853e-05)
(9.57224e-05 -0.000124782 2.24854e-05)
(0.000106234 -0.000115964 2.24854e-05)
(0.000115936 -0.000106264 2.24854e-05)
(0.000124757 -9.57548e-05 2.24854e-05)
(0.000132627 -8.45172e-05 2.24852e-05)
(0.000139489 -7.26365e-05 2.24852e-05)
(0.000145289 -6.02031e-05 2.24853e-05)
(0.000149983 -4.7311e-05 2.24853e-05)
(0.000153535 -3.4059e-05 2.24853e-05)
(0.00015592 -2.05479e-05 2.24854e-05)
(0.000157117 -6.88047e-06 2.24854e-05)
(0.000157119 6.83941e-06 2.24853e-05)
(0.000155925 2.05071e-05 2.24853e-05)
(0.000153545 3.40192e-05 2.24855e-05)
(0.000149996 4.72721e-05 2.24854e-05)
(0.000145305 6.01651e-05 2.24854e-05)
(0.000139508 7.26002e-05 2.24853e-05)
(0.000132649 8.44825e-05 2.24853e-05)
(0.000124782 9.57224e-05 2.24854e-05)
(0.000115964 0.000106234 2.24854e-05)
(0.000106264 0.000115936 2.24854e-05)
(9.57548e-05 0.000124757 2.24854e-05)
(8.45172e-05 0.000132627 2.24852e-05)
(7.26365e-05 0.000139489 2.24852e-05)
(6.02031e-05 0.000145289 2.24853e-05)
(4.7311e-05 0.000149983 2.24853e-05)
(3.4059e-05 0.000153535 2.24853e-05)
(2.05479e-05 0.00015592 2.24854e-05)
(6.88047e-06 0.000157117 2.24854e-05)
(-6.83941e-06 0.000157119 2.24853e-05)
(-2.05071e-05 0.000155925 2.24853e-05)
(-3.40192e-05 0.000153545 2.24855e-05)
(-4.72721e-05 0.000149996 2.24854e-05)
(-6.01651e-05 0.000145305 2.24854e-05)
(-7.26002e-05 0.000139508 2.24853e-05)
(-8.44825e-05 0.000132649 2.24853e-05)
(-9.57224e-05 0.000124782 2.24854e-05)
(-0.000106234 0.000115964 2.24854e-05)
(-0.000115936 0.000106264 2.24854e-05)
(-0.000124757 9.57548e-05 2.24854e-05)
(-0.000132627 8.45172e-05 2.24852e-05)
(-0.000139489 7.26365e-05 2.24852e-05)
(-0.000145289 6.02031e-05 2.24853e-05)
(-0.000149983 4.7311e-05 2.24853e-05)
(-0.000153535 3.4059e-05 2.24853e-05)
(-0.00015592 2.05479e-05 2.24854e-05)
(-0.000157117 6.88047e-06 2.24854e-05)
(-0.000157119 -6.83941e-06 2.24853e-05)
(-0.000155925 -2.05071e-05 2.24853e-05)
(-0.000153545 -3.40192e-05 2.24855e-05)
(-0.000149996 -4.72721e-05 2.24854e-05)
(-0.000145305 -6.01651e-05 2.24854e-05)
(-0.000139508 -7.26002e-05 2.24853e-05)
(-0.000132649 -8.44825e-05 2.24853e-05)
(-0.000124782 -9.57224e-05 2.24854e-05)
(-0.000115964 -0.000106234 2.24854e-05)
(-0.000106264 -0.000115936 2.24854e-05)
(-9.57548e-05 -0.000124757 2.24854e-05)
(-8.45172e-05 -0.000132627 2.24852e-05)
(-7.26365e-05 -0.000139489 2.24852e-05)
(-6.02031e-05 -0.000145289 2.24853e-05)
(-4.7311e-05 -0.000149983 2.24853e-05)
(-3.4059e-05 -0.000153535 2.24853e-05)
(-2.05479e-05 -0.00015592 2.24854e-05)
(0.000233724 -0.000347528 3.36634e-05)
(0.000263124 -0.000325835 3.36633e-05)
(0.000290521 -0.000301663 3.36635e-05)
(0.000315706 -0.000275194 3.36634e-05)
(0.00033849 -0.000246632 3.36634e-05)
(0.000358697 -0.000216192 3.36633e-05)
(0.000376175 -0.000184106 3.36634e-05)
(0.000390789 -0.00015062 3.36632e-05)
(0.00040243 -0.000115987 3.36631e-05)
(0.000411008 -8.04719e-05 3.36632e-05)
(0.000416456 -4.4344e-05 3.36634e-05)
(0.000418736 -7.87866e-06 3.36635e-05)
(0.00041783 2.86466e-05 3.36635e-05)
(0.000413743 6.49539e-05 3.36637e-05)
(0.000406507 0.000100767 3.36636e-05)
(0.000396178 0.000135813 3.36635e-05)
(0.000382834 0.000169825 3.36634e-05)
(0.000366576 0.000202545 3.36634e-05)
(0.000347528 0.000233724 3.36634e-05)
(0.000325835 0.000263124 3.36633e-05)
(0.000301663 0.000290521 3.36635e-05)
(0.000275194 0.000315706 3.36634e-05)
(0.000246632 0.00033849 3.36634e-05)
(0.000216192 0.000358697 3.36633e-05)
(0.000184106 0.000376175 3.36634e-05)
(0.00015062 0.000390789 3.36632e-05)
(0.000115987 0.00040243 3.36631e-05)
(8.04719e-05 0.000411008 3.36632e-05)
(4.4344e-05 0.000416456 3.36634e-05)
(7.87866e-06 0.000418736 3.36635e-05)
(-2.86466e-05 0.00041783 3.36635e-05)
(-6.49539e-05 0.000413743 3.36637e-05)
(-0.000100767 0.000406507 3.36636e-05)
(-0.000135813 0.000396178 3.36635e-05)
(-0.000169825 0.000382834 3.36634e-05)
(-0.000202545 0.000366576 3.36634e-05)
(-0.000233724 0.000347528 3.36634e-05)
(-0.000263124 0.000325835 3.36633e-05)
(-0.000290521 0.000301663 3.36635e-05)
(-0.000315706 0.000275194 3.36634e-05)
(-0.00033849 0.000246632 3.36634e-05)
(-0.000358697 0.000216192 3.36633e-05)
(-0.000376175 0.000184106 3.36634e-05)
(-0.000390789 0.00015062 3.36632e-05)
(-0.00040243 0.000115987 3.36631e-05)
(-0.000411008 8.04719e-05 3.36632e-05)
(-0.000416456 4.4344e-05 3.36634e-05)
(-0.000418736 7.87866e-06 3.36635e-05)
(-0.00041783 -2.86466e-05 3.36635e-05)
(-0.000413743 -6.49539e-05 3.36637e-05)
(-0.000406507 -0.000100767 3.36636e-05)
(-0.000396178 -0.000135813 3.36635e-05)
(-0.000382834 -0.000169825 3.36634e-05)
(-0.000366576 -0.000202545 3.36634e-05)
(-0.000347528 -0.000233724 3.36634e-05)
(-0.000325835 -0.000263124 3.36633e-05)
(-0.000301663 -0.000290521 3.36635e-05)
(-0.000275194 -0.000315706 3.36634e-05)
(-0.000246632 -0.00033849 3.36634e-05)
(-0.000216192 -0.000358697 3.36633e-05)
(-0.000184106 -0.000376175 3.36634e-05)
(-0.00015062 -0.000390789 3.36632e-05)
(-0.000115987 -0.00040243 3.36631e-05)
(-8.04719e-05 -0.000411008 3.36632e-05)
(-4.4344e-05 -0.000416456 3.36634e-05)
(-7.87866e-06 -0.000418736 3.36635e-05)
(2.86466e-05 -0.00041783 3.36635e-05)
(6.49539e-05 -0.000413743 3.36637e-05)
(0.000100767 -0.000406507 3.36636e-05)
(0.000135813 -0.000396178 3.36635e-05)
(0.000169825 -0.000382834 3.36634e-05)
(0.000202545 -0.000366576 3.36634e-05)
(0.000210791 -0.000376767 5.65439e-05)
(0.000242827 -0.000356961 5.65439e-05)
(0.000273014 -0.000334439 5.6544e-05)
(0.000301123 -0.000309372 5.6544e-05)
(0.000326941 -0.00028195 5.65439e-05)
(0.00035027 -0.000252382 5.65438e-05)
(0.000370934 -0.000220894 5.6544e-05)
(0.000388775 -0.000187724 5.65439e-05)
(0.000403657 -0.000153126 5.65439e-05)
(0.000415466 -0.000117363 5.65439e-05)
(0.000424114 -8.07056e-05 5.6544e-05)
(0.000429534 -4.34344e-05 5.65441e-05)
(0.000431684 -5.83289e-06 5.6544e-05)
(0.00043055 3.18133e-05 5.6544e-05)
(0.000426139 6.92171e-05 5.65441e-05)
(0.000418485 0.000106094 5.65441e-05)
(0.000407646 0.000142164 5.6544e-05)
(0.000393705 0.000177152 5.65439e-05)
(0.000376767 0.000210791 5.65439e-05)
(0.000356961 0.000242827 5.65439e-05)
(0.000334439 0.000273014 5.6544e-05)
(0.000309372 0.000301123 5.6544e-05)
(0.00028195 0.000326941 5.65439e-05)
(0.000252382 0.00035027 5.65438e-05)
(0.000220894 0.000370934 5.6544e-05)
(0.000187724 0.000388775 5.65439e-05)
(0.000153126 0.000403657 5.65439e-05)
(0.000117363 0.000415466 5.65439e-05)
(8.07056e-05 0.000424114 5.6544e-05)
(4.34344e-05 0.000429534 5.65441e-05)
(5.83289e-06 0.000431684 5.6544e-05)
(-3.18133e-05 0.00043055 5.6544e-05)
(-6.92171e-05 0.000426139 5.65441e-05)
(-0.000106094 0.000418485 5.65441e-05)
(-0.000142164 0.000407646 5.65439e-05)
(-0.000177152 0.000393705 5.65439e-05)
(-0.000210791 0.000376767 5.65439e-05)
(-0.000242827 0.000356961 5.65439e-05)
(-0.000273014 0.000334439 5.6544e-05)
(-0.000301123 0.000309372 5.6544e-05)
(-0.000326941 0.00028195 5.65439e-05)
(-0.00035027 0.000252382 5.65438e-05)
(-0.000370934 0.000220894 5.6544e-05)
(-0.000388775 0.000187724 5.65439e-05)
(-0.000403657 0.000153126 5.65439e-05)
(-0.000415466 0.000117363 5.65439e-05)
(-0.000424114 8.07056e-05 5.6544e-05)
(-0.000429534 4.34344e-05 5.65441e-05)
(-0.000431684 5.83289e-06 5.6544e-05)
(-0.00043055 -3.18133e-05 5.6544e-05)
(-0.000426139 -6.92171e-05 5.65441e-05)
(-0.000418485 -0.000106094 5.65441e-05)
(-0.000407646 -0.000142164 5.65439e-05)
(-0.000393705 -0.000177152 5.65439e-05)
(-0.000376767 -0.000210791 5.65439e-05)
(-0.000356961 -0.000242827 5.65439e-05)
(-0.000334439 -0.000273014 5.6544e-05)
(-0.000309372 -0.000301123 5.6544e-05)
(-0.00028195 -0.000326941 5.65439e-05)
(-0.000252382 -0.00035027 5.65438e-05)
(-0.000220894 -0.000370934 5.6544e-05)
(-0.000187724 -0.000388775 5.65439e-05)
(-0.000153126 -0.000403657 5.65439e-05)
(-0.000117363 -0.000415466 5.65439e-05)
(-8.07056e-05 -0.000424114 5.6544e-05)
(-4.34344e-05 -0.000429534 5.65441e-05)
(-5.83289e-06 -0.000431684 5.6544e-05)
(3.18133e-05 -0.00043055 5.6544e-05)
(6.92171e-05 -0.000426139 5.65441e-05)
(0.000106094 -0.000418485 5.65441e-05)
(0.000142164 -0.000407646 5.6544e-05)
(0.000177152 -0.000393705 5.65439e-05)
(0.000178615 -0.000405067 7.29171e-05)
(0.000213239 -0.000387958 7.29172e-05)
(0.00024624 -0.000367897 7.29172e-05)
(0.000277368 -0.000345036 7.29173e-05)
(0.000306384 -0.000319548 7.29173e-05)
(0.000333069 -0.00029163 7.29174e-05)
(0.000357218 -0.000261491 7.29175e-05)
(0.000378649 -0.000229362 7.29174e-05)
(0.000397199 -0.000195488 7.29173e-05)
(0.000412725 -0.000160126 7.29173e-05)
(0.00042511 -0.000123545 7.29173e-05)
(0.000434261 -8.60244e-05 7.29175e-05)
(0.000440106 -4.78486e-05 7.29175e-05)
(0.000442601 -9.30867e-06 7.29173e-05)
(0.000441728 2.93017e-05 7.29174e-05)
(0.000437493 6.76897e-05 7.29173e-05)
(0.000429929 0.000105562 7.29173e-05)
(0.000419093 0.000142631 7.29172e-05)
(0.000405067 0.000178615 7.29171e-05)
(0.000387958 0.000213239 7.29172e-05)
(0.000367897 0.00024624 7.29172e-05)
(0.000345036 0.000277368 7.29173e-05)
(0.000319548 0.000306384 7.29173e-05)
(0.00029163 0.000333069 7.29174e-05)
(0.000261491 0.000357218 7.29175e-05)
(0.000229362 0.000378649 7.29174e-05)
(0.000195488 0.000397199 7.29173e-05)
(0.000160126 0.000412725 7.29173e-05)
(0.000123545 0.00042511 7.29173e-05)
(8.60244e-05 0.000434261 7.29175e-05)
(4.78486e-05 0.000440106 7.29175e-05)
(9.30867e-06 0.000442601 7.29173e-05)
(-2.93017e-05 0.000441728 7.29174e-05)
(-6.76897e-05 0.000437493 7.29173e-05)
(-0.000105562 0.000429929 7.29173e-05)
(-0.000142631 0.000419093 7.29172e-05)
(-0.000178615 0.000405067 7.29171e-05)
(-0.000213239 0.000387958 7.29172e-05)
(-0.00024624 0.000367897 7.29172e-05)
(-0.000277368 0.000345036 7.29173e-05)
(-0.000306384 0.000319548 7.29173e-05)
(-0.000333069 0.00029163 7.29174e-05)
(-0.000357218 0.000261491 7.29175e-05)
(-0.000378649 0.000229362 7.29174e-05)
(-0.000397199 0.000195488 7.29173e-05)
(-0.000412725 0.000160126 7.29173e-05)
(-0.00042511 0.000123545 7.29173e-05)
(-0.000434261 8.60244e-05 7.29175e-05)
(-0.000440106 4.78486e-05 7.29175e-05)
(-0.000442601 9.30867e-06 7.29173e-05)
(-0.000441728 -2.93017e-05 7.29174e-05)
(-0.000437493 -6.76897e-05 7.29173e-05)
(-0.000429929 -0.000105562 7.29173e-05)
(-0.000419093 -0.000142631 7.29172e-05)
(-0.000405067 -0.000178615 7.29171e-05)
(-0.000387958 -0.000213239 7.29172e-05)
(-0.000367897 -0.00024624 7.29172e-05)
(-0.000345036 -0.000277368 7.29173e-05)
(-0.000319548 -0.000306384 7.29173e-05)
(-0.00029163 -0.000333069 7.29174e-05)
(-0.000261491 -0.000357218 7.29175e-05)
(-0.000229362 -0.000378649 7.29174e-05)
(-0.000195488 -0.000397199 7.29173e-05)
(-0.000160126 -0.000412725 7.29173e-05)
(-0.000123545 -0.00042511 7.29173e-05)
(-8.60244e-05 -0.000434261 7.29175e-05)
(-4.78486e-05 -0.000440106 7.29175e-05)
(-9.30867e-06 -0.000442601 7.29173e-05)
(2.93017e-05 -0.000441728 7.29174e-05)
(6.76897e-05 -0.000437493 7.29173e-05)
(0.000105562 -0.000429929 7.29173e-05)
(0.000142631 -0.000419093 7.29172e-05)
(0.000139236 -0.000430025 8.45915e-05)
(0.000176186 -0.000416253 8.45916e-05)
(0.000211794 -0.000399314 8.45916e-05)
(0.00024579 -0.000379335 8.45916e-05)
(0.000277916 -0.00035647 8.45917e-05)
(0.000307927 -0.000330891 8.45916e-05)
(0.000335594 -0.000302794 8.45916e-05)
(0.000360708 -0.000272394 8.45917e-05)
(0.000383076 -0.000239919 8.45916e-05)
(0.000402528 -0.000205619 8.45916e-05)
(0.000418917 -0.000169754 8.45917e-05)
(0.000432118 -0.000132597 8.45916e-05)
(0.00044203 -9.44305e-05 8.45917e-05)
(0.000448578 -5.55457e-05 8.45916e-05)
(0.000451712 -1.6238e-05 8.45916e-05)
(0.000451409 2.3193e-05 8.45916e-05)
(0.00044767 6.24477e-05 8.45916e-05)
(0.000440524 0.000101227 8.45915e-05)
(0.000430025 0.000139236 8.45915e-05)
(0.000416253 0.000176186 8.45916e-05)
(0.000399314 0.000211794 8.45916e-05)
(0.000379335 0.00024579 8.45916e-05)
(0.00035647 0.000277916 8.45917e-05)
(0.000330891 0.000307927 8.45916e-05)
(0.000302794 0.000335594 8.45916e-05)
(0.000272394 0.000360708 8.45917e-05)
(0.000239919 0.000383076 8.45916e-05)
(0.000205619 0.000402528 8.45916e-05)
(0.000169754 0.000418917 8.45917e-05)
(0.000132597 0.000432118 8.45916e-05)
(9.44305e-05 0.00044203 8.45917e-05)
(5.55457e-05 0.000448578 8.45916e-05)
(1.6238e-05 0.000451712 8.45916e-05)
(-2.3193e-05 0.000451409 8.45916e-05)
(-6.24477e-05 0.00044767 8.45916e-05)
(-0.000101227 0.000440524 8.45915e-05)
(-0.000139236 0.000430025 8.45915e-05)
(-0.000176185 0.000416253 8.45916e-05)
(-0.000211794 0.000399314 8.45916e-05)
(-0.00024579 0.000379335 8.45916e-05)
(-0.000277916 0.00035647 8.45917e-05)
(-0.000307927 0.000330891 8.45916e-05)
(-0.000335594 0.000302794 8.45916e-05)
(-0.000360708 0.000272394 8.45917e-05)
(-0.000383076 0.000239919 8.45916e-05)
(-0.000402528 0.000205619 8.45916e-05)
(-0.000418917 0.000169754 8.45917e-05)
(-0.000432118 0.000132597 8.45916e-05)
(-0.00044203 9.44305e-05 8.45917e-05)
(-0.000448578 5.55457e-05 8.45916e-05)
(-0.000451712 1.6238e-05 8.45916e-05)
(-0.000451409 -2.3193e-05 8.45916e-05)
(-0.00044767 -6.24477e-05 8.45916e-05)
(-0.000440524 -0.000101227 8.45915e-05)
(-0.000430025 -0.000139236 8.45915e-05)
(-0.000416253 -0.000176186 8.45916e-05)
(-0.000399314 -0.000211794 8.45916e-05)
(-0.000379335 -0.00024579 8.45916e-05)
(-0.00035647 -0.000277916 8.45917e-05)
(-0.000330891 -0.000307927 8.45916e-05)
(-0.000302794 -0.000335594 8.45916e-05)
(-0.000272394 -0.000360708 8.45917e-05)
(-0.000239919 -0.000383076 8.45916e-05)
(-0.000205619 -0.000402528 8.45916e-05)
(-0.000169754 -0.000418917 8.45917e-05)
(-0.000132597 -0.000432118 8.45916e-05)
(-9.44305e-05 -0.00044203 8.45917e-05)
(-5.55457e-05 -0.000448578 8.45916e-05)
(-1.6238e-05 -0.000451712 8.45916e-05)
(2.3193e-05 -0.000451409 8.45916e-05)
(6.24477e-05 -0.00044767 8.45916e-05)
(0.000101227 -0.000440524 8.45915e-05)
(9.28375e-05 -0.000449994 9.52119e-05)
(0.000131704 -0.000440191 9.52119e-05)
(0.000169568 -0.000427037 9.5212e-05)
(0.000206141 -0.000410633 9.5212e-05)
(0.000241146 -0.000391104 9.52119e-05)
(0.000274315 -0.000368598 9.52119e-05)
(0.000305397 -0.000343288 9.5212e-05)
(0.000334154 -0.000315364 9.52118e-05)
(0.000360368 -0.00028504 9.52117e-05)
(0.000383839 -0.000252548 9.52117e-05)
(0.00040439 -0.000218133 9.52118e-05)
(0.000421863 -0.000182058 9.5212e-05)
(0.000436125 -0.000144597 9.52118e-05)
(0.000447068 -0.000106036 9.52117e-05)
(0.000454608 -6.66684e-05 9.52118e-05)
(0.000458689 -2.67931e-05 9.52119e-05)
(0.000459279 1.32862e-05 9.52119e-05)
(0.000456373 5.32645e-05 9.52118e-05)
(0.000449994 9.28375e-05 9.52119e-05)
(0.000440191 0.000131704 9.52119e-05)
(0.000427037 0.000169568 9.5212e-05)
(0.000410633 0.000206141 9.5212e-05)
(0.000391104 0.000241146 9.52119e-05)
(0.000368598 0.000274315 9.52119e-05)
(0.000343288 0.000305397 9.5212e-05)
(0.000315364 0.000334154 9.52118e-05)
(0.00028504 0.000360368 9.52117e-05)
(0.000252548 0.000383839 9.52117e-05)
(0.000218133 0.00040439 9.52118e-05)
(0.000182058 0.000421863 9.5212e-05)
(0.000144597 0.000436125 9.52118e-05)
(0.000106036 0.000447068 9.52117e-05)
(6.66684e-05 0.000454608 9.52118e-05)