/*--------------------------------*- C++ -*----------------------------------*\
| =========                 |                                                 |
| \\      /  F ield         | OpenFOAM: The Open Source CFD Toolbox           |
|  \\    /   O peration     | Version:  2312                                  |
|   \\  /    A nd           | Website:  www.openfoam.com                      |
|    \\/     M anipulation  |                                                 |
\*---------------------------------------------------------------------------*/
FoamFile
{
    version     2.0;
    format      ascii;
    arch        "LSB;label=32;scalar=64";
    class       volTensorField;
    location    "0.4";
    object      F;
}
// * * * * * * * * * * * * * * * * * * * * * * * * * * * * * * * * * * * * * //

dimensions      [0 0 0 0 0 0 0];

internalField   nonuniform List<tensor> 
12960
(
(1.02002 0.0131403 -0.148928 0.0227417 1.01075 0.248015 -0.0150156 -0.000655551 0.969852)
(1.01684 0.0136732 -0.169977 0.0232744 1.01393 0.234091 -0.0149014 -0.00196179 0.969852)
(1.01361 0.0136447 -0.189733 0.0232459 1.01716 0.218386 -0.0146736 -0.00325305 0.969852)
(1.01043 0.0130557 -0.208044 0.0226569 1.02034 0.201019 -0.0143343 -0.00451963 0.969852)
(1.0074 0.0119242 -0.224772 0.0215255 1.02336 0.182122 -0.013886 -0.00575173 0.969852)
(1.00462 0.0102845 -0.23979 0.0198859 1.02615 0.161839 -0.0133316 -0.00693994 0.969853)
(1.00217 0.0081865 -0.252983 0.0177878 1.0286 0.140324 -0.012676 -0.00807562 0.969852)
(1.00011 0.00569389 -0.26425 0.0152952 1.03066 0.117741 -0.011924 -0.00914981 0.969852)
(0.998521 0.00288244 -0.273506 0.0124837 1.03225 0.0942617 -0.0110814 -0.0101542 0.969853)
(0.997443 -0.00016248 -0.280681 0.00943873 1.03332 0.0700652 -0.0101542 -0.0110812 0.969853)
(0.99691 -0.00334844 -0.285719 0.00625284 1.03386 0.0453357 -0.00914975 -0.011924 0.969852)
(0.996938 -0.0065786 -0.288583 0.00302289 1.03383 0.0202611 -0.00807557 -0.0126759 0.969852)
(0.997527 -0.00975447 -0.289251 -0.000153165 1.03324 -0.00496767 -0.00693995 -0.0133315 0.969852)
(0.998659 -0.0127799 -0.287717 -0.00317859 1.03211 -0.0301586 -0.00575165 -0.0138858 0.969852)
(1.0003 -0.015563 -0.283994 -0.00596164 1.03047 -0.0551201 -0.00451952 -0.0143343 0.969852)
(1.0024 -0.018019 -0.278109 -0.00841763 1.02837 -0.0796621 -0.00325302 -0.0146737 0.969852)
(1.00489 -0.0200734 -0.270108 -0.010472 1.02588 -0.103598 -0.00196177 -0.0149015 0.969852)
(1.0077 -0.0216637 -0.260051 -0.0120624 1.02307 -0.126745 -0.000655615 -0.0150158 0.969852)
(1.01075 -0.0227417 -0.248015 -0.0131403 1.02002 -0.148928 0.000655551 -0.0150156 0.969852)
(1.01393 -0.0232744 -0.234091 -0.0136732 1.01684 -0.169977 0.00196179 -0.0149014 0.969852)
(1.01716 -0.0232459 -0.218386 -0.0136447 1.01361 -0.189733 0.00325305 -0.0146736 0.969852)
(1.02034 -0.0226569 -0.201019 -0.0130557 1.01043 -0.208044 0.00451963 -0.0143343 0.969852)
(1.02336 -0.0215255 -0.182122 -0.0119242 1.0074 -0.224772 0.00575173 -0.013886 0.969852)
(1.02615 -0.0198859 -0.161839 -0.0102845 1.00462 -0.23979 0.00693994 -0.0133316 0.969853)
(1.0286 -0.0177878 -0.140324 -0.0081865 1.00217 -0.252983 0.00807562 -0.012676 0.969852)
(1.03066 -0.0152952 -0.117741 -0.00569389 1.00011 -0.26425 0.00914981 -0.011924 0.969852)
(1.03225 -0.0124837 -0.0942617 -0.00288244 0.998521 -0.273506 0.0101542 -0.0110814 0.969853)
(1.03332 -0.00943873 -0.0700652 0.00016248 0.997443 -0.280681 0.0110812 -0.0101542 0.969853)
(1.03386 -0.00625284 -0.0453357 0.00334844 0.99691 -0.285719 0.011924 -0.00914975 0.969852)
(1.03383 -0.00302289 -0.0202611 0.0065786 0.996938 -0.288583 0.0126759 -0.00807557 0.969852)
(1.03324 0.000153165 0.00496767 0.00975447 0.997527 -0.289251 0.0133315 -0.00693995 0.969852)
(1.03211 0.00317859 0.0301586 0.0127799 0.998659 -0.287717 0.0138858 -0.00575165 0.969852)
(1.03047 0.00596164 0.0551201 0.015563 1.0003 -0.283994 0.0143343 -0.00451952 0.969852)
(1.02837 0.00841763 0.0796621 0.018019 1.0024 -0.278109 0.0146737 -0.00325302 0.969852)
(1.02588 0.010472 0.103598 0.0200734 1.00489 -0.270108 0.0149015 -0.00196177 0.969852)
(1.02307 0.0120624 0.126745 0.0216637 1.0077 -0.260051 0.0150158 -0.000655615 0.969852)
(1.02002 0.0131403 0.148928 0.0227417 1.01075 -0.248015 0.0150156 0.000655551 0.969852)
(1.01684 0.0136732 0.169977 0.0232744 1.01393 -0.234091 0.0149014 0.00196179 0.969852)
(1.01361 0.0136447 0.189733 0.0232459 1.01716 -0.218386 0.0146736 0.00325305 0.969852)
(1.01043 0.0130557 0.208044 0.0226569 1.02034 -0.201019 0.0143343 0.00451963 0.969852)
(1.0074 0.0119242 0.224772 0.0215255 1.02336 -0.182122 0.013886 0.00575173 0.969852)
(1.00462 0.0102845 0.23979 0.0198859 1.02615 -0.161839 0.0133316 0.00693994 0.969853)
(1.00217 0.0081865 0.252983 0.0177878 1.0286 -0.140324 0.012676 0.00807562 0.969852)
(1.00011 0.00569389 0.26425 0.0152952 1.03066 -0.117741 0.011924 0.00914981 0.969852)
(0.998521 0.00288244 0.273506 0.0124837 1.03225 -0.0942617 0.0110814 0.0101542 0.969853)
(0.997443 -0.00016248 0.280681 0.00943873 1.03332 -0.0700652 0.0101542 0.0110812 0.969853)
(0.99691 -0.00334844 0.285719 0.00625284 1.03386 -0.0453357 0.00914975 0.011924 0.969852)
(0.996938 -0.0065786 0.288583 0.00302289 1.03383 -0.0202611 0.00807557 0.0126759 0.969852)
(0.997527 -0.00975447 0.289251 -0.000153165 1.03324 0.00496767 0.00693995 0.0133315 0.969852)
(0.998659 -0.0127799 0.287717 -0.00317859 1.03211 0.0301586 0.00575165 0.0138858 0.969852)
(1.0003 -0.015563 0.283994 -0.00596164 1.03047 0.0551201 0.00451952 0.0143343 0.969852)
(1.0024 -0.018019 0.278109 -0.00841763 1.02837 0.0796621 0.00325302 0.0146737 0.969852)
(1.00489 -0.0200734 0.270108 -0.010472 1.02588 0.103598 0.00196177 0.0149015 0.969852)
(1.0077 -0.0216637 0.260051 -0.0120624 1.02307 0.126745 0.000655615 0.0150158 0.969852)
(1.01075 -0.0227417 0.248015 -0.0131403 1.02002 0.148928 -0.000655551 0.0150156 0.969852)
(1.01393 -0.0232744 0.234091 -0.0136732 1.01684 0.169977 -0.00196179 0.0149014 0.969852)
(1.01716 -0.0232459 0.218386 -0.0136447 1.01361 0.189733 -0.00325305 0.0146736 0.969852)
(1.02034 -0.0226569 0.201019 -0.0130557 1.01043 0.208044 -0.00451963 0.0143343 0.969852)
(1.02336 -0.0215255 0.182122 -0.0119242 1.0074 0.224772 -0.00575173 0.013886 0.969852)
(1.02615 -0.0198859 0.161839 -0.0102845 1.00462 0.23979 -0.00693994 0.0133316 0.969853)
(1.0286 -0.0177878 0.140324 -0.0081865 1.00217 0.252983 -0.00807562 0.012676 0.969852)
(1.03066 -0.0152952 0.117741 -0.00569389 1.00011 0.26425 -0.00914981 0.011924 0.969852)
(1.03225 -0.0124837 0.0942617 -0.00288244 0.998521 0.273506 -0.0101542 0.0110814 0.969853)
(1.03332 -0.00943873 0.0700652 0.00016248 0.997443 0.280681 -0.0110812 0.0101542 0.969853)
(1.03386 -0.00625284 0.0453357 0.00334844 0.99691 0.285719 -0.011924 0.00914975 0.969852)
(1.03383 -0.00302289 0.0202611 0.0065786 0.996938 0.288583 -0.0126759 0.00807557 0.969852)
(1.03324 0.000153165 -0.00496767 0.00975447 0.997527 0.289251 -0.0133315 0.00693995 0.969852)
(1.03211 0.00317859 -0.0301586 0.0127799 0.998659 0.287717 -0.0138858 0.00575165 0.969852)
(1.03047 0.00596164 -0.0551201 0.015563 1.0003 0.283994 -0.0143343 0.00451952 0.969852)
(1.02837 0.00841763 -0.0796621 0.018019 1.0024 0.278109 -0.0146737 0.00325302 0.969852)
(1.02588 0.010472 -0.103598 0.0200734 1.00489 0.270108 -0.0149015 0.00196177 0.969852)
(1.02307 0.0120624 -0.126745 0.0216637 1.0077 0.260051 -0.0150158 0.000655615 0.969852)
(1.02423 0.0153154 -0.134469 0.0223101 1.01013 0.267896 -0.0110983 -0.000484541 0.952559)
(1.02085 0.016253 -0.157306 0.0232476 1.01351 0.255156 -0.0110139 -0.00145 0.952559)
(1.01737 0.0165906 -0.178945 0.0235851 1.01699 0.240475 -0.0108455 -0.0024044 0.952559)
(1.01387 0.0163177 -0.199223 0.0233121 1.02048 0.223964 -0.0105947 -0.0033405 0.952559)
(1.01048 0.0154428 -0.217985 0.0224373 1.02388 0.205749 -0.0102633 -0.00425123 0.952559)
(1.0073 0.0139923 -0.235088 0.0209868 1.02706 0.185967 -0.00985363 -0.00512948 0.952559)
(1.00441 0.0120105 -0.250401 0.019005 1.02995 0.16477 -0.00936908 -0.00596884 0.952559)
(1.00191 0.00955751 -0.263809 0.016552 1.03245 0.142319 -0.00881334 -0.00676274 0.952559)
(0.999876 0.00670787 -0.275209 0.0137024 1.03448 0.118785 -0.00819044 -0.00750511 0.952559)
(0.998367 0.00354812 -0.284514 0.0105426 1.03599 0.0943472 -0.00750509 -0.00819033 0.952559)
(0.99743 0.000174231 -0.291655 0.00716876 1.03693 0.069191 -0.00676269 -0.00881328 0.952559)
(0.997092 -0.00331122 -0.296575 0.00368333 1.03727 0.0435082 -0.00596879 -0.00936904 0.952559)
(0.997365 -0.00680224 -0.299239 0.000192341 1.03699 0.0174945 -0.00512947 -0.00985359 0.952559)
(0.99824 -0.0101929 -0.299624 -0.00319828 1.03612 -0.00865246 -0.00425116 -0.0102632 0.952559)
(0.99969 -0.0133801 -0.29773 -0.00638544 1.03467 -0.0347336 -0.00334047 -0.0105947 0.952559)
(1.00167 -0.016267 -0.29357 -0.00927231 1.03269 -0.0605502 -0.00240441 -0.0108455 0.952559)
(1.00412 -0.0187659 -0.287176 -0.0117712 1.03023 -0.0859063 -0.00145 -0.0110139 0.952559)
(1.00697 -0.0208009 -0.278596 -0.0138062 1.02738 -0.110608 -0.000484524 -0.0110984 0.952559)
(1.01013 -0.0223101 -0.267896 -0.0153154 1.02423 -0.134469 0.000484541 -0.0110983 0.952559)
(1.01351 -0.0232476 -0.255156 -0.016253 1.02085 -0.157306 0.00145 -0.0110139 0.952559)
(1.01699 -0.0235851 -0.240475 -0.0165906 1.01737 -0.178945 0.0024044 -0.0108455 0.952559)
(1.02048 -0.0233121 -0.223964 -0.0163177 1.01387 -0.199223 0.0033405 -0.0105947 0.952559)
(1.02388 -0.0224373 -0.205749 -0.0154428 1.01048 -0.217985 0.00425123 -0.0102633 0.952559)
(1.02706 -0.0209868 -0.185967 -0.0139923 1.0073 -0.235088 0.00512948 -0.00985363 0.952559)
(1.02995 -0.019005 -0.16477 -0.0120105 1.00441 -0.250401 0.00596884 -0.00936908 0.952559)
(1.03245 -0.016552 -0.142319 -0.00955751 1.00191 -0.263809 0.00676274 -0.00881334 0.952559)
(1.03448 -0.0137024 -0.118785 -0.00670787 0.999876 -0.275209 0.00750511 -0.00819044 0.952559)
(1.03599 -0.0105426 -0.0943472 -0.00354812 0.998367 -0.284514 0.00819033 -0.00750509 0.952559)
(1.03693 -0.00716876 -0.069191 -0.000174231 0.99743 -0.291655 0.00881328 -0.00676269 0.952559)
(1.03727 -0.00368333 -0.0435082 0.00331122 0.997092 -0.296575 0.00936904 -0.00596879 0.952559)
(1.03699 -0.000192341 -0.0174945 0.00680224 0.997365 -0.299239 0.00985359 -0.00512947 0.952559)
(1.03612 0.00319828 0.00865246 0.0101929 0.99824 -0.299624 0.0102632 -0.00425116 0.952559)
(1.03467 0.00638544 0.0347336 0.0133801 0.99969 -0.29773 0.0105947 -0.00334047 0.952559)
(1.03269 0.00927231 0.0605502 0.016267 1.00167 -0.29357 0.0108455 -0.00240441 0.952559)
(1.03023 0.0117712 0.0859063 0.0187659 1.00412 -0.287176 0.0110139 -0.00145 0.952559)
(1.02738 0.0138062 0.110608 0.0208009 1.00697 -0.278596 0.0110984 -0.000484524 0.952559)
(1.02423 0.0153154 0.134469 0.0223101 1.01013 -0.267896 0.0110983 0.000484541 0.952559)
(1.02085 0.016253 0.157306 0.0232476 1.01351 -0.255156 0.0110139 0.00145 0.952559)
(1.01737 0.0165906 0.178945 0.0235851 1.01699 -0.240475 0.0108455 0.0024044 0.952559)
(1.01387 0.0163177 0.199223 0.0233121 1.02048 -0.223964 0.0105947 0.0033405 0.952559)
(1.01048 0.0154428 0.217985 0.0224373 1.02388 -0.205749 0.0102633 0.00425123 0.952559)
(1.0073 0.0139923 0.235088 0.0209868 1.02706 -0.185967 0.00985363 0.00512948 0.952559)
(1.00441 0.0120105 0.250401 0.019005 1.02995 -0.16477 0.00936908 0.00596884 0.952559)
(1.00191 0.00955751 0.263809 0.016552 1.03245 -0.142319 0.00881334 0.00676274 0.952559)
(0.999876 0.00670787 0.275209 0.0137024 1.03448 -0.118785 0.00819044 0.00750511 0.952559)
(0.998367 0.00354812 0.284514 0.0105426 1.03599 -0.0943472 0.00750509 0.00819033 0.952559)
(0.99743 0.000174231 0.291655 0.00716876 1.03693 -0.069191 0.00676269 0.00881328 0.952559)
(0.997092 -0.00331122 0.296575 0.00368333 1.03727 -0.0435082 0.00596879 0.00936904 0.952559)
(0.997365 -0.00680224 0.299239 0.000192341 1.03699 -0.0174945 0.00512947 0.00985359 0.952559)
(0.99824 -0.0101929 0.299624 -0.00319828 1.03612 0.00865246 0.00425116 0.0102632 0.952559)
(0.99969 -0.0133801 0.29773 -0.00638544 1.03467 0.0347336 0.00334047 0.0105947 0.952559)
(1.00167 -0.016267 0.29357 -0.00927231 1.03269 0.0605502 0.00240441 0.0108455 0.952559)
(1.00412 -0.0187659 0.287176 -0.0117712 1.03023 0.0859063 0.00145 0.0110139 0.952559)
(1.00697 -0.0208009 0.278596 -0.0138062 1.02738 0.110608 0.000484524 0.0110984 0.952559)
(1.01013 -0.0223101 0.267896 -0.0153154 1.02423 0.134469 -0.000484541 0.0110983 0.952559)
(1.01351 -0.0232476 0.255156 -0.016253 1.02085 0.157306 -0.00145 0.0110139 0.952559)
(1.01699 -0.0235851 0.240475 -0.0165906 1.01737 0.178945 -0.0024044 0.0108455 0.952559)
(1.02048 -0.0233121 0.223964 -0.0163177 1.01387 0.199223 -0.0033405 0.0105947 0.952559)
(1.02388 -0.0224373 0.205749 -0.0154428 1.01048 0.217985 -0.00425123 0.0102633 0.952559)
(1.02706 -0.0209868 0.185967 -0.0139923 1.0073 0.235088 -0.00512948 0.00985363 0.952559)
(1.02995 -0.019005 0.16477 -0.0120105 1.00441 0.250401 -0.00596884 0.00936908 0.952559)
(1.03245 -0.016552 0.142319 -0.00955751 1.00191 0.263809 -0.00676274 0.00881334 0.952559)
(1.03448 -0.0137024 0.118785 -0.00670787 0.999876 0.275209 -0.00750511 0.00819044 0.952559)
(1.03599 -0.0105426 0.0943472 -0.00354812 0.998367 0.284514 -0.00819033 0.00750509 0.952559)
(1.03693 -0.00716876 0.069191 -0.000174231 0.99743 0.291655 -0.00881328 0.00676269 0.952559)
(1.03727 -0.00368333 0.0435082 0.00331122 0.997092 0.296575 -0.00936904 0.00596879 0.952559)
(1.03699 -0.000192341 0.0174945 0.00680224 0.997365 0.299239 -0.00985359 0.00512947 0.952559)
(1.03612 0.00319828 -0.00865246 0.0101929 0.99824 0.299624 -0.0102632 0.00425116 0.952559)
(1.03467 0.00638544 -0.0347336 0.0133801 0.99969 0.29773 -0.0105947 0.00334047 0.952559)
(1.03269 0.00927231 -0.0605502 0.016267 1.00167 0.29357 -0.0108455 0.00240441 0.952559)
(1.03023 0.0117712 -0.0859063 0.0187659 1.00412 0.287176 -0.0110139 0.00145 0.952559)
(1.02738 0.0138062 -0.110608 0.0208009 1.00697 0.278596 -0.0110984 0.000484524 0.952559)
(1.03238 0.0178351 -0.114086 0.0202269 1.00886 0.287184 -0.00525528 -0.000229465 0.938623)
(1.0289 0.0195881 -0.138681 0.0219798 1.01235 0.276148 -0.00521521 -0.000686604 0.938623)
(1.02517 0.0207095 -0.162221 0.0231013 1.01608 0.263011 -0.00513559 -0.00113853 0.938622)
(1.02129 0.0211655 -0.184527 0.0235571 1.01995 0.247871 -0.00501688 -0.00158179 0.938622)
(1.0174 0.0209419 -0.205428 0.0233337 1.02385 0.230845 -0.00485996 -0.00201308 0.938622)
(1.0136 0.0200457 -0.224766 0.0224375 1.02764 0.212063 -0.00466601 -0.00242896 0.938622)
(1.01002 0.0185042 -0.242393 0.0208959 1.03122 0.191666 -0.00443658 -0.00282641 0.938622)
(1.00676 0.016364 -0.258176 0.0187558 1.03448 0.169811 -0.00417335 -0.00320237 0.938622)
(1.00392 0.0136903 -0.271993 0.016082 1.03732 0.146663 -0.00387829 -0.0035538 0.938622)
(1.00159 0.0105643 -0.283741 0.012956 1.03965 0.122399 -0.00355381 -0.00387827 0.938622)
(0.99984 0.00708086 -0.293329 0.00947268 1.04141 0.0972039 -0.00320232 -0.00417329 0.938622)
(0.998718 0.00334601 -0.300684 0.00573781 1.04253 0.0712688 -0.0028264 -0.00443655 0.938622)
(0.998262 -0.000526818 -0.305752 0.00186489 1.04299 0.0447912 -0.00242893 -0.00466599 0.938622)
(0.998486 -0.00441997 -0.308492 -0.00202827 1.04276 0.0179726 -0.00201301 -0.00485985 0.938622)
(0.999382 -0.00821524 -0.308884 -0.00582343 1.04187 -0.00898245 -0.0015818 -0.00501687 0.938622)
(1.00092 -0.0117973 -0.306926 -0.00940545 1.04032 -0.0358695 -0.00113854 -0.00513554 0.938622)
(1.00306 -0.015057 -0.302632 -0.0126652 1.03818 -0.0624835 -0.000686613 -0.00521521 0.938622)
(1.00574 -0.0178957 -0.296035 -0.0155039 1.03551 -0.0886218 -0.000229423 -0.00525527 0.938623)
(1.00886 -0.0202269 -0.287184 -0.0178351 1.03238 -0.114086 0.000229465 -0.00525528 0.938623)
(1.01235 -0.0219798 -0.276148 -0.0195881 1.0289 -0.138681 0.000686604 -0.00521521 0.938623)
(1.01608 -0.0231013 -0.263011 -0.0207095 1.02517 -0.162221 0.00113853 -0.00513559 0.938622)
(1.01995 -0.0235571 -0.247871 -0.0211655 1.02129 -0.184527 0.00158179 -0.00501688 0.938622)
(1.02385 -0.0233337 -0.230845 -0.0209419 1.0174 -0.205428 0.00201308 -0.00485996 0.938622)
(1.02764 -0.0224375 -0.212063 -0.0200457 1.0136 -0.224766 0.00242896 -0.00466601 0.938622)
(1.03122 -0.0208959 -0.191666 -0.0185042 1.01002 -0.242393 0.00282641 -0.00443658 0.938622)
(1.03448 -0.0187558 -0.169811 -0.016364 1.00676 -0.258176 0.00320237 -0.00417335 0.938622)
(1.03732 -0.016082 -0.146663 -0.0136903 1.00392 -0.271993 0.0035538 -0.00387829 0.938622)
(1.03965 -0.012956 -0.122399 -0.0105643 1.00159 -0.283741 0.00387827 -0.00355381 0.938622)
(1.04141 -0.00947268 -0.0972039 -0.00708086 0.99984 -0.293329 0.00417329 -0.00320232 0.938622)
(1.04253 -0.00573781 -0.0712688 -0.00334601 0.998718 -0.300684 0.00443655 -0.0028264 0.938622)
(1.04299 -0.00186489 -0.0447912 0.000526818 0.998262 -0.305752 0.00466599 -0.00242893 0.938622)
(1.04276 0.00202827 -0.0179726 0.00441997 0.998486 -0.308492 0.00485985 -0.00201301 0.938622)
(1.04187 0.00582343 0.00898245 0.00821524 0.999382 -0.308884 0.00501687 -0.0015818 0.938622)
(1.04032 0.00940545 0.0358695 0.0117973 1.00092 -0.306926 0.00513554 -0.00113854 0.938622)
(1.03818 0.0126652 0.0624835 0.015057 1.00306 -0.302632 0.00521521 -0.000686613 0.938622)
(1.03551 0.0155039 0.0886218 0.0178957 1.00574 -0.296035 0.00525527 -0.000229423 0.938623)
(1.03238 0.0178351 0.114086 0.0202269 1.00886 -0.287184 0.00525528 0.000229465 0.938623)
(1.0289 0.0195881 0.138681 0.0219798 1.01235 -0.276148 0.00521521 0.000686604 0.938623)
(1.02517 0.0207095 0.162221 0.0231013 1.01608 -0.263011 0.00513559 0.00113853 0.938622)
(1.02129 0.0211655 0.184527 0.0235571 1.01995 -0.247871 0.00501688 0.00158179 0.938622)
(1.0174 0.0209419 0.205428 0.0233337 1.02385 -0.230845 0.00485996 0.00201308 0.938622)
(1.0136 0.0200457 0.224766 0.0224375 1.02764 -0.212063 0.00466601 0.00242896 0.938622)
(1.01002 0.0185042 0.242393 0.0208959 1.03122 -0.191666 0.00443658 0.00282641 0.938622)
(1.00676 0.016364 0.258176 0.0187558 1.03448 -0.169811 0.00417335 0.00320237 0.938622)
(1.00392 0.0136903 0.271993 0.016082 1.03732 -0.146663 0.00387829 0.0035538 0.938622)
(1.00159 0.0105643 0.283741 0.012956 1.03965 -0.122399 0.00355381 0.00387827 0.938622)
(0.99984 0.00708086 0.293329 0.00947268 1.04141 -0.0972039 0.00320232 0.00417329 0.938622)
(0.998718 0.00334601 0.300684 0.00573781 1.04253 -0.0712688 0.0028264 0.00443655 0.938622)
(0.998262 -0.000526818 0.305752 0.00186489 1.04299 -0.0447912 0.00242893 0.00466599 0.938622)
(0.998486 -0.00441997 0.308492 -0.00202827 1.04276 -0.0179726 0.00201301 0.00485985 0.938622)
(0.999382 -0.00821524 0.308884 -0.00582343 1.04187 0.00898245 0.0015818 0.00501687 0.938622)
(1.00092 -0.0117973 0.306926 -0.00940545 1.04032 0.0358695 0.00113854 0.00513554 0.938622)
(1.00306 -0.015057 0.302632 -0.0126652 1.03818 0.0624835 0.000686613 0.00521521 0.938622)
(1.00574 -0.0178957 0.296035 -0.0155039 1.03551 0.0886218 0.000229423 0.00525527 0.938623)
(1.00886 -0.0202269 0.287184 -0.0178351 1.03238 0.114086 -0.000229465 0.00525528 0.938623)
(1.01235 -0.0219798 0.276148 -0.0195881 1.0289 0.138681 -0.000686604 0.00521521 0.938623)
(1.01608 -0.0231013 0.263011 -0.0207095 1.02517 0.162221 -0.00113853 0.00513559 0.938622)
(1.01995 -0.0235571 0.247871 -0.0211655 1.02129 0.184527 -0.00158179 0.00501688 0.938622)
(1.02385 -0.0233337 0.230845 -0.0209419 1.0174 0.205428 -0.00201308 0.00485996 0.938622)
(1.02764 -0.0224375 0.212063 -0.0200457 1.0136 0.224766 -0.00242896 0.00466601 0.938622)
(1.03122 -0.0208959 0.191666 -0.0185042 1.01002 0.242393 -0.00282641 0.00443658 0.938622)
(1.03448 -0.0187558 0.169811 -0.016364 1.00676 0.258176 -0.00320237 0.00417335 0.938622)
(1.03732 -0.016082 0.146663 -0.0136903 1.00392 0.271993 -0.0035538 0.00387829 0.938622)
(1.03965 -0.012956 0.122399 -0.0105643 1.00159 0.283741 -0.00387827 0.00355381 0.938622)
(1.04141 -0.00947268 0.0972039 -0.00708086 0.99984 0.293329 -0.00417329 0.00320232 0.938622)
(1.04253 -0.00573781 0.0712688 -0.00334601 0.998718 0.300684 -0.00443655 0.0028264 0.938622)
(1.04299 -0.00186489 0.0447912 0.000526818 0.998262 0.305752 -0.00466599 0.00242893 0.938622)
(1.04276 0.00202827 0.0179726 0.00441997 0.998486 0.308492 -0.00485985 0.00201301 0.938622)
(1.04187 0.00582343 -0.00898245 0.00821524 0.999382 0.308884 -0.00501687 0.0015818 0.938622)
(1.04032 0.00940545 -0.0358695 0.0117973 1.00092 0.306926 -0.00513554 0.00113854 0.938622)
(1.03818 0.0126652 -0.0624835 0.015057 1.00306 0.302632 -0.00521521 0.000686613 0.938622)
(1.03551 0.0155039 -0.0886218 0.0178957 1.00574 0.296035 -0.00525527 0.000229423 0.938623)
(1.04114 0.0204367 -0.0898488 0.0164298 1.00688 0.304444 -0.00418807 -0.000182857 0.927681)
(1.03768 0.0231315 -0.116041 0.0191246 1.01034 0.295455 -0.00415623 -0.000547175 0.927681)
(1.03381 0.0251843 -0.14135 0.0211773 1.01422 0.284217 -0.0040928 -0.000907294 0.927681)
(1.02963 0.0265328 -0.165583 0.0225259 1.01839 0.270816 -0.00399813 -0.0012605 0.927681)
(1.02529 0.0271359 -0.188556 0.0231291 1.02274 0.255354 -0.00387306 -0.00160429 0.927681)
(1.0209 0.0269754 -0.210094 0.0229686 1.02712 0.237949 -0.00371849 -0.00193576 0.927681)
(1.01661 0.0260563 -0.230033 0.0220492 1.03141 0.218732 -0.00353562 -0.00225246 0.927681)
(1.01255 0.0244063 -0.248222 0.0203992 1.03547 0.197851 -0.00332581 -0.00255212 0.927681)
(1.00883 0.0220756 -0.264521 0.0180685 1.03919 0.175464 -0.00309062 -0.00283211 0.927681)
(1.00558 0.0191349 -0.278807 0.015128 1.04245 0.151742 -0.00283214 -0.00309064 0.927681)
(1.00288 0.0156736 -0.290971 0.0116667 1.04514 0.126865 -0.00255207 -0.00332578 0.927681)
(1.00083 0.0117971 -0.300921 0.00779016 1.04719 0.101022 -0.00225247 -0.00353561 0.927681)
(0.999483 0.00762309 -0.308581 0.00361607 1.04854 0.0744108 -0.00193567 -0.00371844 0.927681)
(0.99888 0.00327824 -0.313892 -0.000728708 1.04915 0.0472332 -0.00160426 -0.00387298 0.927681)
(0.999041 -0.00110535 -0.316814 -0.0051123 1.04898 0.0196958 -0.00126052 -0.00399806 0.927681)
(0.99996 -0.00539458 -0.317325 -0.00940138 1.04807 -0.00799123 -0.000907306 -0.0040928 0.927681)
(1.00161 -0.00945892 -0.315421 -0.0134658 1.04642 -0.0356175 -0.000547186 -0.00415619 0.927681)
(1.00394 -0.0131749 -0.311117 -0.0171819 1.04408 -0.0629729 -0.00018284 -0.00418807 0.927681)
(1.00688 -0.0164298 -0.304444 -0.0204367 1.04114 -0.0898488 0.000182857 -0.00418807 0.927681)
(1.01034 -0.0191246 -0.295455 -0.0231315 1.03768 -0.116041 0.000547175 -0.00415623 0.927681)
(1.01422 -0.0211773 -0.284217 -0.0251843 1.03381 -0.14135 0.000907294 -0.0040928 0.927681)
(1.01839 -0.0225259 -0.270816 -0.0265328 1.02963 -0.165583 0.0012605 -0.00399813 0.927681)
(1.02274 -0.0231291 -0.255354 -0.0271359 1.02529 -0.188556 0.00160429 -0.00387306 0.927681)
(1.02712 -0.0229686 -0.237949 -0.0269754 1.0209 -0.210094 0.00193576 -0.00371849 0.927681)
(1.03141 -0.0220492 -0.218732 -0.0260563 1.01661 -0.230033 0.00225246 -0.00353562 0.927681)
(1.03547 -0.0203992 -0.197851 -0.0244063 1.01255 -0.248222 0.00255212 -0.00332581 0.927681)
(1.03919 -0.0180685 -0.175464 -0.0220756 1.00883 -0.264521 0.00283211 -0.00309062 0.927681)
(1.04245 -0.015128 -0.151742 -0.0191349 1.00558 -0.278807 0.00309064 -0.00283214 0.927681)
(1.04514 -0.0116667 -0.126865 -0.0156736 1.00288 -0.290971 0.00332578 -0.00255207 0.927681)
(1.04719 -0.00779016 -0.101022 -0.0117971 1.00083 -0.300921 0.00353561 -0.00225247 0.927681)
(1.04854 -0.00361607 -0.0744108 -0.00762309 0.999483 -0.308581 0.00371844 -0.00193567 0.927681)
(1.04915 0.000728708 -0.0472332 -0.00327824 0.99888 -0.313892 0.00387298 -0.00160426 0.927681)
(1.04898 0.0051123 -0.0196958 0.00110535 0.999041 -0.316814 0.00399806 -0.00126052 0.927681)
(1.04807 0.00940138 0.00799123 0.00539458 0.99996 -0.317325 0.0040928 -0.000907306 0.927681)
(1.04642 0.0134658 0.0356175 0.00945892 1.00161 -0.315421 0.00415619 -0.000547186 0.927681)
(1.04408 0.0171819 0.0629729 0.0131749 1.00394 -0.311117 0.00418807 -0.00018284 0.927681)
(1.04114 0.0204367 0.0898488 0.0164298 1.00688 -0.304444 0.00418807 0.000182857 0.927681)
(1.03768 0.0231315 0.116041 0.0191246 1.01034 -0.295455 0.00415623 0.000547175 0.927681)
(1.03381 0.0251843 0.14135 0.0211773 1.01422 -0.284217 0.0040928 0.000907294 0.927681)
(1.02963 0.0265328 0.165583 0.0225259 1.01839 -0.270816 0.00399813 0.0012605 0.927681)
(1.02529 0.0271359 0.188556 0.0231291 1.02274 -0.255354 0.00387306 0.00160429 0.927681)
(1.0209 0.0269754 0.210094 0.0229686 1.02712 -0.237949 0.00371849 0.00193576 0.927681)
(1.01661 0.0260563 0.230033 0.0220492 1.03141 -0.218732 0.00353562 0.00225246 0.927681)
(1.01255 0.0244063 0.248222 0.0203992 1.03547 -0.197851 0.00332581 0.00255212 0.927681)
(1.00883 0.0220756 0.264521 0.0180685 1.03919 -0.175464 0.00309062 0.00283211 0.927681)
(1.00558 0.0191349 0.278807 0.015128 1.04245 -0.151742 0.00283214 0.00309064 0.927681)
(1.00288 0.0156736 0.290971 0.0116667 1.04514 -0.126865 0.00255207 0.00332578 0.927681)
(1.00083 0.0117971 0.300921 0.00779016 1.04719 -0.101022 0.00225247 0.00353561 0.927681)
(0.999483 0.00762309 0.308581 0.00361607 1.04854 -0.0744108 0.00193567 0.00371844 0.927681)
(0.99888 0.00327824 0.313892 -0.000728708 1.04915 -0.0472332 0.00160426 0.00387298 0.927681)
(0.999041 -0.00110535 0.316814 -0.0051123 1.04898 -0.0196958 0.00126052 0.00399806 0.927681)
(0.99996 -0.00539458 0.317325 -0.00940138 1.04807 0.00799123 0.000907306 0.0040928 0.927681)
(1.00161 -0.00945892 0.315421 -0.0134658 1.04642 0.0356175 0.000547186 0.00415619 0.927681)
(1.00394 -0.0131749 0.311117 -0.0171819 1.04408 0.0629729 0.00018284 0.00418807 0.927681)
(1.00688 -0.0164298 0.304444 -0.0204367 1.04114 0.0898488 -0.000182857 0.00418807 0.927681)
(1.01034 -0.0191246 0.295455 -0.0231315 1.03768 0.116041 -0.000547175 0.00415623 0.927681)
(1.01422 -0.0211773 0.284217 -0.0251843 1.03381 0.14135 -0.000907294 0.0040928 0.927681)
(1.01839 -0.0225259 0.270816 -0.0265328 1.02963 0.165583 -0.0012605 0.00399813 0.927681)
(1.02274 -0.0231291 0.255354 -0.0271359 1.02529 0.188556 -0.00160429 0.00387306 0.927681)
(1.02712 -0.0229686 0.237949 -0.0269754 1.0209 0.210094 -0.00193576 0.00371849 0.927681)
(1.03141 -0.0220492 0.218732 -0.0260563 1.01661 0.230033 -0.00225246 0.00353562 0.927681)
(1.03547 -0.0203992 0.197851 -0.0244063 1.01255 0.248222 -0.00255212 0.00332581 0.927681)
(1.03919 -0.0180685 0.175464 -0.0220756 1.00883 0.264521 -0.00283211 0.00309062 0.927681)
(1.04245 -0.015128 0.151742 -0.0191349 1.00558 0.278807 -0.00309064 0.00283214 0.927681)
(1.04514 -0.0116667 0.126865 -0.0156736 1.00288 0.290971 -0.00332578 0.00255207 0.927681)
(1.04719 -0.00779016 0.101022 -0.0117971 1.00083 0.300921 -0.00353561 0.00225247 0.927681)
(1.04854 -0.00361607 0.0744108 -0.00762309 0.999483 0.308581 -0.00371844 0.00193567 0.927681)
(1.04915 0.000728708 0.0472332 -0.00327824 0.99888 0.313892 -0.00387298 0.00160426 0.927681)
(1.04898 0.0051123 0.0196958 0.00110535 0.999041 0.316814 -0.00399806 0.00126052 0.927681)
(1.04807 0.00940138 -0.00799123 0.00539458 0.99996 0.317325 -0.0040928 0.000907306 0.927681)
(1.04642 0.0134658 -0.0356175 0.00945892 1.00161 0.315421 -0.00415619 0.000547186 0.927681)
(1.04408 0.0171819 -0.0629729 0.0131749 1.00394 0.311117 -0.00418807 0.00018284 0.927681)
(1.05704 0.0233415 -0.0624142 0.0130282 1.004 0.31866 -0.00516731 -0.000225601 0.91864)
(1.05347 0.0276694 -0.0899498 0.0173563 1.00757 0.312007 -0.00512813 -0.000675062 0.91864)
(1.04922 0.0313135 -0.116801 0.0210003 1.01182 0.302981 -0.00504972 -0.00111945 0.91864)
(1.04439 0.0341628 -0.142763 0.0238497 1.01665 0.291648 -0.00493272 -0.00155525 0.91864)
(1.03914 0.0361306 -0.167638 0.0258175 1.0219 0.278095 -0.00477832 -0.00197922 0.91864)
(1.03363 0.0371572 -0.191238 0.0268443 1.02741 0.262426 -0.00458776 -0.00238821 0.91864)
(1.02803 0.0372116 -0.213382 0.0268985 1.03301 0.24476 -0.0043621 -0.00277897 0.91864)
(1.0225 0.0362922 -0.233902 0.0259789 1.03854 0.225231 -0.00410328 -0.0031488 0.91864)
(1.01722 0.0344268 -0.252642 0.0241137 1.04382 0.203988 -0.00381336 -0.00349445 0.91864)
(1.01234 0.0316719 -0.26946 0.0213587 1.04871 0.181193 -0.00349447 -0.00381336 0.91864)
(1.00801 0.028111 -0.284226 0.017798 1.05303 0.157018 -0.00314882 -0.00410335 0.91864)
(1.00436 0.0238529 -0.29683 0.0135398 1.05668 0.131649 -0.00277897 -0.00436215 0.91864)
(1.00151 0.0190269 -0.307174 0.0087137 1.05953 0.105278 -0.00238806 -0.00458767 0.91864)
(0.999546 0.0137794 -0.315181 0.00346633 1.06149 0.0781048 -0.0019792 -0.00477825 0.91864)
(0.998519 0.0082699 -0.320789 -0.00204322 1.06252 0.0503378 -0.00155528 -0.00493253 0.91864)
(0.998465 0.00266563 -0.323955 -0.00764757 1.06258 0.0221877 -0.00111949 -0.00504972 0.91864)
(0.999384 -0.00286283 -0.324657 -0.0131761 1.06166 -0.00613138 -0.000675058 -0.00512808 0.91864)
(1.00125 -0.00814781 -0.322887 -0.0184609 1.05979 -0.0344036 -0.000225596 -0.00516738 0.91864)
(1.004 -0.0130282 -0.31866 -0.0233415 1.05704 -0.0624142 0.000225601 -0.00516731 0.91864)
(1.00757 -0.0173563 -0.312007 -0.0276694 1.05347 -0.0899498 0.000675062 -0.00512813 0.91864)
(1.01182 -0.0210003 -0.302981 -0.0313135 1.04922 -0.116801 0.00111945 -0.00504972 0.91864)
(1.01665 -0.0238497 -0.291648 -0.0341628 1.04439 -0.142763 0.00155525 -0.00493272 0.91864)
(1.0219 -0.0258175 -0.278095 -0.0361306 1.03914 -0.167638 0.00197922 -0.00477832 0.91864)
(1.02741 -0.0268443 -0.262426 -0.0371572 1.03363 -0.191238 0.00238821 -0.00458776 0.91864)
(1.03301 -0.0268985 -0.24476 -0.0372116 1.02803 -0.213382 0.00277897 -0.0043621 0.91864)
(1.03854 -0.0259789 -0.225231 -0.0362922 1.0225 -0.233902 0.0031488 -0.00410328 0.91864)
(1.04382 -0.0241137 -0.203988 -0.0344268 1.01722 -0.252642 0.00349445 -0.00381336 0.91864)
(1.04871 -0.0213587 -0.181193 -0.0316719 1.01234 -0.26946 0.00381336 -0.00349447 0.91864)
(1.05303 -0.017798 -0.157018 -0.028111 1.00801 -0.284226 0.00410335 -0.00314882 0.91864)
(1.05668 -0.0135398 -0.131649 -0.0238529 1.00436 -0.29683 0.00436215 -0.00277897 0.91864)
(1.05953 -0.0087137 -0.105278 -0.0190269 1.00151 -0.307174 0.00458767 -0.00238806 0.91864)
(1.06149 -0.00346633 -0.0781048 -0.0137794 0.999546 -0.315181 0.00477825 -0.0019792 0.91864)
(1.06252 0.00204322 -0.0503378 -0.0082699 0.998519 -0.320789 0.00493253 -0.00155528 0.91864)