/*--------------------------------*- C++ -*----------------------------------*\
| =========                 |                                                 |
| \\      /  F ield         | OpenFOAM: The Open Source CFD Toolbox           |
|  \\    /   O peration     | Version:  2312                                  |
|   \\  /    A nd           | Website:  www.openfoam.com                      |
|    \\/     M anipulation  |                                                 |
\*---------------------------------------------------------------------------*/
FoamFile
{
    version     2.0;
    format      ascii;
    arch        "LSB;label=32;scalar=64";
    class       volVectorField;
    location    "0.4";
    object      U;
}
// * * * * * * * * * * * * * * * * * * * * * * * * * * * * * * * * * * * * * //

dimensions      [0 1 -1 0 0 0 0];

internalField   nonuniform List<vector> 
12960
(
(9.70918e-05 -0.000103658 -1.82319e-05)
(0.000105757 -9.48013e-05 -1.82319e-05)
(0.000113617 -8.52234e-05 -1.82319e-05)
(0.000120612 -7.49963e-05 -1.8232e-05)
(0.000126689 -6.4199e-05 -1.8232e-05)
(0.000131802 -5.2913e-05 -1.82319e-05)
(0.000135912 -4.12243e-05 -1.8232e-05)
(0.000138988 -2.92219e-05 -1.82322e-05)
(0.000141006 -1.69971e-05 -1.82323e-05)
(0.000141951 -4.64303e-06 -1.82322e-05)
(0.000141816 7.74665e-06 -1.82319e-05)
(0.000140601 2.00773e-05 -1.82317e-05)
(0.000138316 3.22549e-05 -1.82317e-05)
(0.000134978 4.41873e-05 -1.82318e-05)
(0.000130613 5.57834e-05 -1.8232e-05)
(0.000125254 6.69549e-05 -1.82319e-05)
(0.000118942 7.76166e-05 -1.82319e-05)
(0.000111725 8.7688e-05 -1.82322e-05)
(0.000103658 9.70918e-05 -1.82319e-05)
(9.48013e-05 0.000105757 -1.82319e-05)
(8.52234e-05 0.000113617 -1.82319e-05)
(7.49963e-05 0.000120612 -1.8232e-05)
(6.4199e-05 0.000126689 -1.8232e-05)
(5.2913e-05 0.000131802 -1.82319e-05)
(4.12243e-05 0.000135912 -1.8232e-05)
(2.92219e-05 0.000138988 -1.82322e-05)
(1.69971e-05 0.000141006 -1.82323e-05)
(4.64301e-06 0.000141951 -1.82322e-05)
(-7.74668e-06 0.000141816 -1.82319e-05)
(-2.00773e-05 0.000140601 -1.82317e-05)
(-3.2255e-05 0.000138316 -1.82317e-05)
(-4.41873e-05 0.000134978 -1.82318e-05)
(-5.57834e-05 0.000130613 -1.8232e-05)
(-6.69549e-05 0.000125254 -1.82319e-05)
(-7.76166e-05 0.000118942 -1.82319e-05)
(-8.7688e-05 0.000111725 -1.82322e-05)
(-9.70918e-05 0.000103658 -1.82319e-05)
(-0.000105757 9.48013e-05 -1.82319e-05)
(-0.000113617 8.52234e-05 -1.82319e-05)
(-0.000120612 7.49963e-05 -1.8232e-05)
(-0.000126689 6.4199e-05 -1.8232e-05)
(-0.000131802 5.2913e-05 -1.82319e-05)
(-0.000135912 4.12243e-05 -1.8232e-05)
(-0.000138988 2.92219e-05 -1.82322e-05)
(-0.000141006 1.69971e-05 -1.82323e-05)
(-0.000141951 4.643e-06 -1.82322e-05)
(-0.000141816 -7.74668e-06 -1.82319e-05)
(-0.000140601 -2.00774e-05 -1.82317e-05)
(-0.000138316 -3.2255e-05 -1.82317e-05)
(-0.000134978 -4.41873e-05 -1.82318e-05)
(-0.000130613 -5.57834e-05 -1.8232e-05)
(-0.000125255 -6.69549e-05 -1.82319e-05)
(-0.000118942 -7.76167e-05 -1.82319e-05)
(-0.000111725 -8.7688e-05 -1.82322e-05)
(-0.000103658 -9.70918e-05 -1.82319e-05)
(-9.48013e-05 -0.000105757 -1.82319e-05)
(-8.52234e-05 -0.000113617 -1.82319e-05)
(-7.49963e-05 -0.000120612 -1.8232e-05)
(-6.4199e-05 -0.000126689 -1.8232e-05)
(-5.2913e-05 -0.000131802 -1.82319e-05)
(-4.12243e-05 -0.000135912 -1.8232e-05)
(-2.92219e-05 -0.000138988 -1.82322e-05)
(-1.69971e-05 -0.000141006 -1.82323e-05)
(-4.64302e-06 -0.000141951 -1.82322e-05)
(7.74666e-06 -0.000141816 -1.82319e-05)
(2.00773e-05 -0.000140601 -1.82317e-05)
(3.22549e-05 -0.000138316 -1.82317e-05)
(4.41873e-05 -0.000134978 -1.82318e-05)
(5.57834e-05 -0.000130613 -1.8232e-05)
(6.69549e-05 -0.000125255 -1.82319e-05)
(7.76166e-05 -0.000118942 -1.82319e-05)
(8.7688e-05 -0.000111725 -1.82322e-05)
(8.9265e-05 -0.000140552 1.68131e-05)
(0.000101175 -0.000132238 1.68131e-05)
(0.000112316 -0.000122917 1.68132e-05)
(0.000122601 -0.00011266 1.68133e-05)
(0.000131954 -0.000101546 1.68132e-05)
(0.000140302 -8.96591e-05 1.68132e-05)
(0.000147582 -7.70898e-05 1.68131e-05)
(0.00015374 -6.39336e-05 1.6813e-05)
(0.000158727 -5.02911e-05 1.6813e-05)
(0.000162506 -3.62659e-05 1.68131e-05)
(0.000165048 -2.19646e-05 1.68133e-05)
(0.000166335 -7.4959e-06 1.68133e-05)
(0.000166355 7.02958e-06 1.68133e-05)
(0.000165109 2.15016e-05 1.68133e-05)
(0.000162607 3.581e-05 1.68133e-05)
(0.000158866 4.98458e-05 1.68133e-05)
(0.000153917 6.35021e-05 1.68132e-05)
(0.000147797 7.66754e-05 1.68131e-05)
(0.000140552 8.9265e-05 1.68131e-05)
(0.000132237 0.000101175 1.68131e-05)
(0.000122917 0.000112316 1.68132e-05)
(0.00011266 0.000122601 1.68133e-05)
(0.000101546 0.000131954 1.68132e-05)
(8.96591e-05 0.000140302 1.68132e-05)
(7.70897e-05 0.000147582 1.68131e-05)
(6.39336e-05 0.00015374 1.6813e-05)
(5.02911e-05 0.000158727 1.6813e-05)
(3.62659e-05 0.000162506 1.68131e-05)
(2.19646e-05 0.000165048 1.68133e-05)
(7.49588e-06 0.000166335 1.68133e-05)
(-7.0296e-06 0.000166355 1.68133e-05)
(-2.15016e-05 0.000165109 1.68133e-05)
(-3.581e-05 0.000162607 1.68133e-05)
(-4.98458e-05 0.000158866 1.68133e-05)
(-6.35022e-05 0.000153917 1.68132e-05)
(-7.66754e-05 0.000147797 1.68131e-05)
(-8.9265e-05 0.000140552 1.68131e-05)
(-0.000101175 0.000132237 1.68131e-05)
(-0.000112316 0.000122917 1.68132e-05)
(-0.000122601 0.00011266 1.68133e-05)
(-0.000131954 0.000101546 1.68132e-05)
(-0.000140302 8.9659e-05 1.68132e-05)
(-0.000147582 7.70897e-05 1.68131e-05)
(-0.00015374 6.39336e-05 1.6813e-05)
(-0.000158727 5.0291e-05 1.6813e-05)
(-0.000162506 3.62659e-05 1.68131e-05)
(-0.000165048 2.19646e-05 1.68133e-05)
(-0.000166335 7.49587e-06 1.68133e-05)
(-0.000166355 -7.02961e-06 1.68133e-05)
(-0.000165109 -2.15016e-05 1.68133e-05)
(-0.000162607 -3.581e-05 1.68133e-05)
(-0.000158866 -4.98458e-05 1.68133e-05)
(-0.000153917 -6.35022e-05 1.68132e-05)
(-0.000147797 -7.66754e-05 1.68131e-05)
(-0.000140552 -8.9265e-05 1.68131e-05)
(-0.000132238 -0.000101175 1.68131e-05)
(-0.000122917 -0.000112316 1.68132e-05)
(-0.00011266 -0.000122601 1.68133e-05)
(-0.000101546 -0.000131954 1.68132e-05)
(-8.96591e-05 -0.000140302 1.68132e-05)
(-7.70898e-05 -0.000147582 1.68131e-05)
(-6.39336e-05 -0.00015374 1.6813e-05)
(-5.02911e-05 -0.000158727 1.6813e-05)
(-3.62659e-05 -0.000162506 1.68131e-05)
(-2.19646e-05 -0.000165048 1.68133e-05)
(-7.49589e-06 -0.000166335 1.68133e-05)
(7.02958e-06 -0.000166355 1.68133e-05)
(2.15016e-05 -0.000165109 1.68133e-05)
(3.581e-05 -0.000162607 1.68133e-05)
(4.98458e-05 -0.000158866 1.68133e-05)
(6.35021e-05 -0.000153917 1.68132e-05)
(7.66754e-05 -0.000147797 1.68131e-05)
(6.25718e-05 -0.000175033 3.35983e-05)
(7.75889e-05 -0.000168914 3.35983e-05)
(9.20154e-05 -0.000161509 3.35983e-05)
(0.000105742 -0.000152874 3.35983e-05)
(0.000118663 -0.000143077 3.35985e-05)
(0.000130681 -0.00013219 3.35982e-05)
(0.000141705 -0.000120297 3.35982e-05)
(0.00015165 -0.000107489 3.35982e-05)
(0.000160441 -9.38627e-05 3.35982e-05)
(0.000168012 -7.95223e-05 3.35982e-05)
(0.000174303 -6.45764e-05 3.35984e-05)
(0.000179268 -4.91391e-05 3.35982e-05)
(0.000182869 -3.33279e-05 3.35983e-05)
(0.000185078 -1.72629e-05 3.35984e-05)
(0.000185878 -1.0667e-06 3.35983e-05)
(0.000185263 1.51378e-05 3.35983e-05)
(0.000183239 3.1227e-05 3.35984e-05)
(0.00017982 4.70786e-05 3.35983e-05)
(0.000175033 6.25718e-05 3.35983e-05)
(0.000168914 7.75889e-05 3.35983e-05)
(0.000161509 9.20154e-05 3.35983e-05)
(0.000152874 0.000105742 3.35983e-05)
(0.000143077 0.000118663 3.35985e-05)
(0.00013219 0.000130681 3.35982e-05)
(0.000120297 0.000141705 3.35982e-05)
(0.000107489 0.00015165 3.35982e-05)
(9.38627e-05 0.000160441 3.35982e-05)
(7.95222e-05 0.000168012 3.35982e-05)
(6.45764e-05 0.000174303 3.35984e-05)
(4.91391e-05 0.000179268 3.35982e-05)
(3.33279e-05 0.000182869 3.35983e-05)
(1.72629e-05 0.000185078 3.35984e-05)
(1.06668e-06 0.000185878 3.35983e-05)
(-1.51379e-05 0.000185264 3.35983e-05)
(-3.1227e-05 0.000183239 3.35984e-05)
(-4.70786e-05 0.00017982 3.35983e-05)
(-6.25719e-05 0.000175033 3.35983e-05)
(-7.75889e-05 0.000168914 3.35983e-05)
(-9.20154e-05 0.000161509 3.35983e-05)
(-0.000105742 0.000152874 3.35983e-05)
(-0.000118663 0.000143077 3.35985e-05)
(-0.000130681 0.00013219 3.35982e-05)
(-0.000141705 0.000120297 3.35982e-05)
(-0.00015165 0.000107489 3.35982e-05)
(-0.000160441 9.38627e-05 3.35982e-05)
(-0.000168012 7.95222e-05 3.35982e-05)
(-0.000174303 6.45764e-05 3.35984e-05)
(-0.000179268 4.91391e-05 3.35982e-05)
(-0.000182869 3.33279e-05 3.35983e-05)
(-0.000185078 1.72629e-05 3.35984e-05)
(-0.000185878 1.06668e-06 3.35983e-05)
(-0.000185264 -1.51379e-05 3.35983e-05)
(-0.000183239 -3.1227e-05 3.35984e-05)
(-0.00017982 -4.70786e-05 3.35983e-05)
(-0.000175033 -6.25719e-05 3.35983e-05)
(-0.000168914 -7.75889e-05 3.35983e-05)
(-0.000161509 -9.20154e-05 3.35983e-05)
(-0.000152874 -0.000105742 3.35983e-05)
(-0.000143077 -0.000118663 3.35985e-05)
(-0.00013219 -0.000130681 3.35982e-05)
(-0.000120297 -0.000141705 3.35982e-05)
(-0.000107489 -0.00015165 3.35982e-05)
(-9.38627e-05 -0.000160441 3.35982e-05)
(-7.95223e-05 -0.000168012 3.35982e-05)
(-6.45764e-05 -0.000174303 3.35984e-05)
(-4.91391e-05 -0.000179268 3.35982e-05)
(-3.33279e-05 -0.000182869 3.35983e-05)
(-1.72629e-05 -0.000185078 3.35984e-05)
(-1.0667e-06 -0.000185878 3.35983e-05)
(1.51378e-05 -0.000185264 3.35983e-05)
(3.1227e-05 -0.000183239 3.35984e-05)
(4.70786e-05 -0.00017982 3.35983e-05)
(2.41761e-05 -0.000202786 3.90451e-05)
(4.17581e-05 -0.000199908 3.90451e-05)
(5.90225e-05 -0.000195508 3.90453e-05)
(7.58371e-05 -0.000189619 3.90451e-05)
(9.20748e-05 -0.000182288 3.90452e-05)
(0.000107612 -0.00017357 3.90451e-05)
(0.00012233 -0.00016353 3.90452e-05)
(0.000136117 -0.000152246 3.90452e-05)
(0.000148868 -0.000139804 3.90451e-05)
(0.000160487 -0.000126297 3.90452e-05)
(0.000170883 -0.000111829 3.90452e-05)
(0.000179979 -9.65099e-05 3.90452e-05)
(0.000187706 -8.04564e-05 3.90452e-05)
(0.000194003 -6.37902e-05 3.90449e-05)
(0.000198825 -4.6639e-05 3.90451e-05)
(0.000202134 -2.91329e-05 3.90452e-05)
(0.000203904 -1.14048e-05 3.90451e-05)
(0.000204122 6.41006e-06 3.90451e-05)
(0.000202786 2.41761e-05 3.90451e-05)
(0.000199908 4.17581e-05 3.90451e-05)
(0.000195508 5.90225e-05 3.90453e-05)
(0.000189619 7.58371e-05 3.90451e-05)
(0.000182288 9.20748e-05 3.90452e-05)
(0.00017357 0.000107612 3.90451e-05)
(0.00016353 0.00012233 3.90452e-05)
(0.000152246 0.000136117 3.90452e-05)
(0.000139804 0.000148868 3.90451e-05)
(0.000126297 0.000160487 3.90452e-05)
(0.000111829 0.000170883 3.90452e-05)
(9.65099e-05 0.000179979 3.90452e-05)
(8.04564e-05 0.000187706 3.90452e-05)
(6.37901e-05 0.000194003 3.90449e-05)
(4.6639e-05 0.000198825 3.90451e-05)
(2.91329e-05 0.000202134 3.90452e-05)
(1.14048e-05 0.000203904 3.90451e-05)
(-6.41009e-06 0.000204122 3.90451e-05)
(-2.41761e-05 0.000202786 3.90451e-05)
(-4.17581e-05 0.000199908 3.90451e-05)
(-5.90225e-05 0.000195508 3.90453e-05)
(-7.58371e-05 0.000189619 3.90451e-05)
(-9.20748e-05 0.000182288 3.90452e-05)
(-0.000107612 0.00017357 3.90451e-05)
(-0.00012233 0.00016353 3.90452e-05)
(-0.000136117 0.000152246 3.90452e-05)
(-0.000148868 0.000139804 3.90451e-05)
(-0.000160487 0.000126297 3.90452e-05)
(-0.000170883 0.000111829 3.90452e-05)
(-0.000179979 9.65099e-05 3.90452e-05)
(-0.000187706 8.04564e-05 3.90452e-05)
(-0.000194003 6.37901e-05 3.90449e-05)
(-0.000198825 4.6639e-05 3.90451e-05)
(-0.000202134 2.91329e-05 3.90452e-05)
(-0.000203904 1.14048e-05 3.90451e-05)
(-0.000204122 -6.41008e-06 3.90451e-05)
(-0.000202786 -2.41761e-05 3.90451e-05)
(-0.000199908 -4.17581e-05 3.90451e-05)
(-0.000195508 -5.90225e-05 3.90453e-05)
(-0.000189619 -7.58371e-05 3.90451e-05)
(-0.000182288 -9.20748e-05 3.90452e-05)
(-0.00017357 -0.000107612 3.90451e-05)
(-0.00016353 -0.00012233 3.90452e-05)
(-0.000152246 -0.000136117 3.90452e-05)
(-0.000139804 -0.000148868 3.90451e-05)
(-0.000126297 -0.000160487 3.90452e-05)
(-0.000111829 -0.000170883 3.90452e-05)
(-9.65099e-05 -0.000179979 3.90452e-05)
(-8.04564e-05 -0.000187706 3.90452e-05)
(-6.37902e-05 -0.000194003 3.90449e-05)
(-4.6639e-05 -0.000198825 3.90451e-05)
(-2.91329e-05 -0.000202134 3.90452e-05)
(-1.14048e-05 -0.000203904 3.90451e-05)
(6.41006e-06 -0.000204122 3.90451e-05)
(-2.63067e-05 -0.000222419 4.35249e-05)
(-6.82146e-06 -0.000223866 4.35251e-05)
(1.27155e-05 -0.000223608 4.3525e-05)
(3.21559e-05 -0.000221649 4.3525e-05)
(5.13515e-05 -0.000218003 4.3525e-05)
(7.01563e-05 -0.000212698 4.3525e-05)
(8.84268e-05 -0.000205773 4.35249e-05)
(0.000106025 -0.000197283 4.35249e-05)
(0.000122816 -0.000187293 4.3525e-05)
(0.000138673 -0.000175877 4.35251e-05)
(0.000153473 -0.00016312 4.35248e-05)
(0.000167105 -0.000149123 4.35249e-05)
(0.000179467 -0.000133992 4.35248e-05)
(0.000190462 -0.00011784 4.35247e-05)
(0.000200008 -0.000100792 4.35249e-05)
(0.000208031 -8.29768e-05 4.3525e-05)
(0.000214472 -6.45299e-05 4.35251e-05)
(0.00021928 -4.55918e-05 4.35249e-05)
(0.000222419 -2.63067e-05 4.35249e-05)
(0.000223866 -6.82146e-06 4.35251e-05)
(0.000223608 1.27155e-05 4.3525e-05)
(0.000221649 3.21559e-05 4.3525e-05)
(0.000218003 5.13515e-05 4.3525e-05)
(0.000212698 7.01563e-05 4.3525e-05)
(0.000205773 8.84268e-05 4.35249e-05)
(0.000197283 0.000106025 4.35249e-05)
(0.000187293 0.000122816 4.3525e-05)
(0.000175877 0.000138673 4.35251e-05)
(0.00016312 0.000153473 4.35248e-05)
(0.000149123 0.000167105 4.35249e-05)
(0.000133992 0.000179467 4.35248e-05)
(0.00011784 0.000190462 4.35247e-05)
(0.000100792 0.000200008 4.3525e-05)
(8.29768e-05 0.000208031 4.3525e-05)
(6.45299e-05 0.000214472 4.35251e-05)
(4.55917e-05 0.00021928 4.35249e-05)
(2.63066e-05 0.000222419 4.35249e-05)
(6.82144e-06 0.000223866 4.35251e-05)
(-1.27155e-05 0.000223608 4.3525e-05)
(-3.21559e-05 0.000221649 4.3525e-05)
(-5.13515e-05 0.000218003 4.3525e-05)
(-7.01563e-05 0.000212698 4.3525e-05)
(-8.84268e-05 0.000205773 4.35249e-05)
(-0.000106025 0.000197283 4.35249e-05)
(-0.000122816 0.000187293 4.3525e-05)
(-0.000138673 0.000175877 4.35251e-05)
(-0.000153473 0.00016312 4.35248e-05)
(-0.000167105 0.000149123 4.35249e-05)
(-0.000179467 0.000133992 4.35248e-05)
(-0.000190462 0.00011784 4.35247e-05)
(-0.000200008 0.000100792 4.3525e-05)
(-0.000208031 8.29768e-05 4.3525e-05)
(-0.000214472 6.45299e-05 4.35251e-05)
(-0.00021928 4.55917e-05 4.35249e-05)
(-0.000222419 2.63066e-05 4.35249e-05)
(-0.000223866 6.82144e-06 4.35251e-05)
(-0.000223608 -1.27155e-05 4.3525e-05)
(-0.000221649 -3.21559e-05 4.3525e-05)
(-0.000218003 -5.13515e-05 4.3525e-05)
(-0.000212698 -7.01563e-05 4.3525e-05)
(-0.000205773 -8.84268e-05 4.35249e-05)
(-0.000197283 -0.000106025 4.35249e-05)
(-0.000187293 -0.000122816 4.3525e-05)
(-0.000175877 -0.000138673 4.35251e-05)
(-0.00016312 -0.000153473 4.35248e-05)
(-0.000149123 -0.000167105 4.35249e-05)
(-0.000133992 -0.000179467 4.35248e-05)
(-0.00011784 -0.000190462 4.35247e-05)
(-0.000100792 -0.000200008 4.35249e-05)
(-8.29768e-05 -0.000208031 4.3525e-05)
(-6.45299e-05 -0.000214472 4.35251e-05)
(-4.55918e-05 -0.00021928 4.35249e-05)
(-0.000100329 -0.000237278 4.92247e-05)
(-7.9267e-05 -0.000245119 4.92247e-05)
(-5.7602e-05 -0.000251095 4.92246e-05)
(-3.54983e-05 -0.000255162 4.92249e-05)
(-1.31242e-05 -0.000257284 4.92247e-05)
(9.34951e-06 -0.000257449 4.92246e-05)
(3.17518e-05 -0.000255654 4.92246e-05)
(5.39123e-05 -0.000251913 4.92245e-05)
(7.56629e-05 -0.000246256 4.92247e-05)
(9.68378e-05 -0.000238725 4.92248e-05)
(0.000117276 -0.000229376 4.92246e-05)
(0.000136821 -0.000218282 4.92247e-05)
(0.000155324 -0.000205527 4.92244e-05)
(0.000172647 -0.000191207 4.92243e-05)
(0.000188655 -0.000175433 4.92245e-05)
(0.000203226 -0.000158323 4.92246e-05)
(0.000216251 -0.000140008 4.92246e-05)
(0.000227632 -0.000120628 4.92249e-05)
(0.000237278 -0.000100329 4.92247e-05)
(0.000245119 -7.9267e-05 4.92247e-05)
(0.000251095 -5.7602e-05 4.92246e-05)
(0.000255162 -3.54983e-05 4.92249e-05)
(0.000257284 -1.31242e-05 4.92247e-05)
(0.000257449 9.34951e-06 4.92246e-05)
(0.000255654 3.17518e-05 4.92246e-05)
(0.000251913 5.39123e-05 4.92245e-05)
(0.000246256 7.56629e-05 4.92247e-05)
(0.000238725 9.68378e-05 4.92248e-05)
(0.000229376 0.000117276 4.92246e-05)
(0.000218282 0.000136821 4.92247e-05)
(0.000205527 0.000155324 4.92244e-05)
(0.000191207 0.000172647 4.92243e-05)
(0.000175433 0.000188655 4.92245e-05)
(0.000158323 0.000203226 4.92246e-05)
(0.000140008 0.000216251 4.92246e-05)
(0.000120628 0.000227632 4.92249e-05)
(0.000100329 0.000237278 4.92247e-05)
(7.9267e-05 0.000245119 4.92247e-05)
(5.7602e-05 0.000251095 4.92246e-05)
(3.54983e-05 0.000255162 4.92249e-05)
(1.31242e-05 0.000257284 4.92247e-05)
(-9.34953e-06 0.000257449 4.92246e-05)
(-3.17518e-05 0.000255654 4.92246e-05)
(-5.39123e-05 0.000251913 4.92245e-05)
(-7.56629e-05 0.000246256 4.92247e-05)
(-9.68378e-05 0.000238725 4.92248e-05)
(-0.000117276 0.000229376 4.92246e-05)
(-0.000136821 0.000218282 4.92247e-05)
(-0.000155325 0.000205527 4.92244e-05)
(-0.000172647 0.000191207 4.92243e-05)
(-0.000188655 0.000175433 4.92245e-05)
(-0.000203226 0.000158323 4.92246e-05)
(-0.000216251 0.000140008 4.92246e-05)
(-0.000227632 0.000120628 4.92249e-05)
(-0.000237278 0.000100329 4.92247e-05)
(-0.000245119 7.9267e-05 4.92247e-05)
(-0.000251095 5.7602e-05 4.92246e-05)
(-0.000255162 3.54983e-05 4.92249e-05)
(-0.000257284 1.31242e-05 4.92247e-05)
(-0.000257449 -9.34952e-06 4.92246e-05)
(-0.000255654 -3.17518e-05 4.92246e-05)
(-0.000251913 -5.39123e-05 4.92245e-05)
(-0.000246256 -7.56629e-05 4.92247e-05)
(-0.000238725 -9.68378e-05 4.92248e-05)
(-0.000229376 -0.000117276 4.92246e-05)
(-0.000218282 -0.000136821 4.92247e-05)
(-0.000205527 -0.000155325 4.92244e-05)
(-0.000191207 -0.000172647 4.92243e-05)
(-0.000175433 -0.000188655 4.92245e-05)
(-0.000158323 -0.000203226 4.92246e-05)
(-0.000140008 -0.000216251 4.92246e-05)
(-0.000120628 -0.000227632 4.92249e-05)
(0.000246391 -0.000332442 -2.21185e-05)
(0.000274428 -0.000309703 -2.21189e-05)
(0.000300376 -0.000284607 -2.21184e-05)
(0.000324038 -0.000257344 -2.21184e-05)
(0.000345234 -0.000228123 -2.21186e-05)
(0.000363803 -0.000197166 -2.21191e-05)
(0.000379602 -0.000164708 -2.2119e-05)
(0.000392513 -0.000130997 -2.21194e-05)
(0.000402437 -9.62884e-05 -2.21199e-05)
(0.000409298 -6.08472e-05 -2.21196e-05)
(0.000413042 -2.4943e-05 -2.21185e-05)
(0.000413644 1.11509e-05 -2.21185e-05)
(0.000411099 4.71598e-05 -2.21186e-05)
(0.000405424 8.281e-05 -2.21182e-05)
(0.000396663 0.00011783 -2.21182e-05)
(0.000384884 0.000151953 -2.21185e-05)
(0.000370177 0.00018492 -2.21187e-05)
(0.000352651 0.00021648 -2.21188e-05)
(0.000332442 0.000246391 -2.21185e-05)
(0.000309703 0.000274428 -2.21189e-05)
(0.000284607 0.000300376 -2.21184e-05)
(0.000257343 0.000324038 -2.21184e-05)
(0.000228123 0.000345234 -2.21186e-05)
(0.000197166 0.000363803 -2.21191e-05)
(0.000164708 0.000379602 -2.2119e-05)
(0.000130996 0.000392513 -2.21194e-05)
(9.62883e-05 0.000402437 -2.21199e-05)
(6.08471e-05 0.000409298 -2.21196e-05)
(2.49429e-05 0.000413042 -2.21185e-05)
(-1.1151e-05 0.000413644 -2.21185e-05)
(-4.71598e-05 0.000411099 -2.21186e-05)
(-8.28101e-05 0.000405424 -2.21182e-05)
(-0.00011783 0.000396663 -2.21182e-05)
(-0.000151953 0.000384884 -2.21185e-05)
(-0.00018492 0.000370177 -2.21187e-05)
(-0.00021648 0.000352651 -2.21188e-05)
(-0.000246391 0.000332442 -2.21185e-05)
(-0.000274428 0.000309703 -2.21189e-05)
(-0.000300376 0.000284607 -2.21184e-05)
(-0.000324038 0.000257343 -2.21183e-05)
(-0.000345234 0.000228123 -2.21186e-05)
(-0.000363803 0.000197166 -2.21191e-05)
(-0.000379602 0.000164708 -2.2119e-05)
(-0.000392513 0.000130996 -2.21194e-05)
(-0.000402437 9.62883e-05 -2.21199e-05)
(-0.000409298 6.08471e-05 -2.21195e-05)
(-0.000413042 2.49429e-05 -2.21185e-05)
(-0.000413644 -1.1151e-05 -2.21185e-05)
(-0.000411099 -4.71598e-05 -2.21186e-05)
(-0.000405424 -8.28101e-05 -2.21182e-05)
(-0.000396663 -0.00011783 -2.21182e-05)
(-0.000384884 -0.000151953 -2.21185e-05)
(-0.000370177 -0.00018492 -2.21187e-05)
(-0.000352651 -0.00021648 -2.21188e-05)
(-0.000332442 -0.000246391 -2.21185e-05)
(-0.000309703 -0.000274428 -2.21189e-05)
(-0.000284607 -0.000300376 -2.21184e-05)
(-0.000257344 -0.000324038 -2.21183e-05)
(-0.000228123 -0.000345234 -2.21186e-05)
(-0.000197166 -0.000363803 -2.21191e-05)
(-0.000164708 -0.000379602 -2.2119e-05)
(-0.000130996 -0.000392513 -2.21194e-05)
(-9.62884e-05 -0.000402437 -2.21199e-05)
(-6.08472e-05 -0.000409298 -2.21195e-05)
(-2.4943e-05 -0.000413042 -2.21185e-05)
(1.11509e-05 -0.000413644 -2.21185e-05)
(4.71598e-05 -0.000411099 -2.21186e-05)
(8.281e-05 -0.000405424 -2.21182e-05)
(0.00011783 -0.000396663 -2.21182e-05)
(0.000151953 -0.000384884 -2.21185e-05)
(0.00018492 -0.000370177 -2.21187e-05)
(0.00021648 -0.000352651 -2.21188e-05)
(0.000205716 -0.000428446 6.90843e-05)
(0.000242274 -0.000408887 6.90841e-05)
(0.000276989 -0.000386215 6.90846e-05)
(0.000309596 -0.000360604 6.90848e-05)
(0.000339846 -0.000332249 6.90843e-05)
(0.00036751 -0.000301365 6.90842e-05)
(0.000392378 -0.000268188 6.90845e-05)
(0.000414259 -0.000232969 6.90842e-05)
(0.000432987 -0.000195978 6.90842e-05)
(0.00044842 -0.000157495 6.90844e-05)
(0.00046044 -0.000117813 6.90846e-05)
(0.000468956 -7.72343e-05 6.90848e-05)
(0.000473902 -3.60684e-05 6.90846e-05)
(0.000475242 5.37238e-06 6.90845e-05)
(0.000472966 4.67721e-05 6.90848e-05)
(0.000467089 8.78157e-05 6.90848e-05)
(0.000457658 0.000128191 6.90843e-05)
(0.000444745 0.000167591 6.90842e-05)
(0.000428446 0.000205716 6.90843e-05)
(0.000408886 0.000242274 6.90841e-05)
(0.000386215 0.000276989 6.90846e-05)
(0.000360604 0.000309596 6.90848e-05)
(0.000332249 0.000339846 6.90843e-05)
(0.000301365 0.00036751 6.90842e-05)
(0.000268188 0.000392378 6.90845e-05)
(0.000232969 0.000414259 6.90842e-05)
(0.000195978 0.000432987 6.90842e-05)
(0.000157495 0.00044842 6.90844e-05)
(0.000117813 0.00046044 6.90846e-05)
(7.72342e-05 0.000468956 6.90848e-05)
(3.60683e-05 0.000473902 6.90846e-05)
(-5.37245e-06 0.000475242 6.90845e-05)
(-4.67721e-05 0.000472966 6.90848e-05)
(-8.78158e-05 0.00046709 6.90848e-05)
(-0.000128191 0.000457658 6.90843e-05)
(-0.000167591 0.000444745 6.90843e-05)
(-0.000205716 0.000428446 6.90843e-05)
(-0.000242274 0.000408886 6.90841e-05)
(-0.000276989 0.000386215 6.90846e-05)
(-0.000309596 0.000360604 6.90848e-05)
(-0.000339846 0.000332249 6.90843e-05)
(-0.00036751 0.000301365 6.90842e-05)
(-0.000392378 0.000268188 6.90845e-05)
(-0.000414259 0.000232969 6.90842e-05)
(-0.000432987 0.000195978 6.90843e-05)
(-0.00044842 0.000157495 6.90844e-05)
(-0.00046044 0.000117813 6.90846e-05)
(-0.000468956 7.72342e-05 6.90848e-05)
(-0.000473902 3.60683e-05 6.90846e-05)
(-0.000475242 -5.37246e-06 6.90845e-05)
(-0.000472966 -4.67721e-05 6.90848e-05)
(-0.00046709 -8.78158e-05 6.90849e-05)
(-0.000457659 -0.000128191 6.90844e-05)
(-0.000444745 -0.000167591 6.90843e-05)
(-0.000428446 -0.000205716 6.90843e-05)
(-0.000408887 -0.000242274 6.90841e-05)
(-0.000386215 -0.000276989 6.90846e-05)
(-0.000360604 -0.000309596 6.90848e-05)
(-0.000332249 -0.000339846 6.90843e-05)
(-0.000301365 -0.00036751 6.90842e-05)
(-0.000268188 -0.000392378 6.90845e-05)
(-0.000232969 -0.000414259 6.90842e-05)
(-0.000195978 -0.000432987 6.90843e-05)
(-0.000157495 -0.00044842 6.90844e-05)
(-0.000117813 -0.00046044 6.90846e-05)
(-7.72343e-05 -0.000468956 6.90848e-05)
(-3.60684e-05 -0.000473902 6.90846e-05)
(5.37239e-06 -0.000475242 6.90845e-05)
(4.67721e-05 -0.000472966 6.90848e-05)
(8.78158e-05 -0.00046709 6.90848e-05)
(0.000128191 -0.000457659 6.90843e-05)
(0.000167591 -0.000444745 6.90843e-05)
(0.000137843 -0.000519888 0.000131752)
(0.000182629 -0.000505896 0.000131752)
(0.000226026 -0.000488054 0.000131752)
(0.000267703 -0.000466497 0.000131753)
(0.000307342 -0.00044139 0.000131752)
(0.000344642 -0.000412925 0.000131753)
(0.000379319 -0.000381316 0.000131753)
(0.000411109 -0.000346804 0.000131753)
(0.000439771 -0.000309654 0.000131752)
(0.000465085 -0.000270147 0.000131752)
(0.00048686 -0.000228584 0.000131753)
(0.00050493 -0.000185283 0.000131753)
(0.000519157 -0.00014057 0.000131753)
(0.000529433 -9.47865e-05 0.000131752)
(0.000535679 -4.82831e-05 0.000131753)
(0.000537849 -1.41121e-06 0.000131752)
(0.000535925 4.54709e-05 0.000131752)
(0.000529923 9.20069e-05 0.000131752)
(0.000519888 0.000137843 0.000131752)
(0.000505896 0.000182629 0.000131752)
(0.000488054 0.000226026 0.000131752)
(0.000466497 0.000267703 0.000131753)
(0.00044139 0.000307342 0.000131752)
(0.000412925 0.000344642 0.000131753)
(0.000381316 0.000379319 0.000131753)
(0.000346804 0.000411109 0.000131753)
(0.000309654 0.000439771 0.000131752)
(0.000270147 0.000465085 0.000131752)
(0.000228584 0.00048686 0.000131753)
(0.000185282 0.00050493 0.000131753)
(0.000140569 0.000519157 0.000131753)
(9.47864e-05 0.000529433 0.000131752)
(4.8283e-05 0.000535679 0.000131753)
(1.41114e-06 0.000537849 0.000131752)
(-4.5471e-05 0.000535925 0.000131752)
(-9.20069e-05 0.000529923 0.000131752)
(-0.000137843 0.000519888 0.000131752)
(-0.00018263 0.000505896 0.000131752)
(-0.000226026 0.000488054 0.000131752)
(-0.000267703 0.000466497 0.000131753)
(-0.000307342 0.00044139 0.000131752)
(-0.000344642 0.000412925 0.000131753)
(-0.000379319 0.000381316 0.000131753)
(-0.000411109 0.000346804 0.000131753)
(-0.000439771 0.000309654 0.000131752)
(-0.000465085 0.000270147 0.000131752)
(-0.00048686 0.000228584 0.000131753)
(-0.000504931 0.000185282 0.000131753)
(-0.000519157 0.000140569 0.000131753)
(-0.000529433 9.47864e-05 0.000131752)
(-0.000535679 4.8283e-05 0.000131753)
(-0.000537849 1.41114e-06 0.000131752)
(-0.000535925 -4.5471e-05 0.000131752)
(-0.000529923 -9.20069e-05 0.000131752)
(-0.000519888 -0.000137843 0.000131752)
(-0.000505896 -0.00018263 0.000131752)
(-0.000488054 -0.000226026 0.000131752)
(-0.000466497 -0.000267703 0.000131753)
(-0.00044139 -0.000307342 0.000131752)
(-0.000412925 -0.000344642 0.000131753)
(-0.000381316 -0.000379319 0.000131753)
(-0.000346804 -0.000411109 0.000131753)
(-0.000309654 -0.000439771 0.000131752)
(-0.000270147 -0.000465085 0.000131752)
(-0.000228584 -0.00048686 0.000131753)
(-0.000185282 -0.000504931 0.000131753)
(-0.00014057 -0.000519157 0.000131753)
(-9.47865e-05 -0.000529433 0.000131752)
(-4.82831e-05 -0.000535679 0.000131753)
(-1.41121e-06 -0.000537849 0.000131752)
(4.54709e-05 -0.000535925 0.000131752)
(9.20069e-05 -0.000529923 0.000131752)
(4.98688e-05 -0.000597559 0.000168172)
(0.00010176 -0.000590939 0.000168173)
(0.000152876 -0.000579822 0.000168173)
(0.000202829 -0.000564291 0.000168173)
(0.000251238 -0.000544466 0.000168173)
(0.000297735 -0.000520498 0.000168173)
(0.000341966 -0.000492568 0.000168173)
(0.000383595 -0.000460889 0.000168173)
(0.000422305 -0.000425702 0.000168173)
(0.0004578 -0.000387276 0.000168173)
(0.000489811 -0.000345903 0.000168173)
(0.000518094 -0.000301897 0.000168173)
(0.000542435 -0.000255593 0.000168173)
(0.000562647 -0.000207343 0.000168173)
(0.000578577 -0.000157516 0.000168173)
(0.000590105 -0.000106491 0.000168173)
(0.000597141 -5.46543e-05 0.000168173)
(0.000599632 -2.40176e-06 0.000168172)
(0.000597559 4.98688e-05 0.000168172)
(0.000590939 0.00010176 0.000168173)
(0.000579822 0.000152876 0.000168173)
(0.000564291 0.000202829 0.000168173)
(0.000544466 0.000251238 0.000168173)
(0.000520498 0.000297735 0.000168173)
(0.000492568 0.000341966 0.000168173)
(0.000460889 0.000383595 0.000168173)
(0.000425702 0.000422305 0.000168173)
(0.000387276 0.0004578 0.000168173)
(0.000345903 0.000489811 0.000168173)
(0.000301897 0.000518095 0.000168173)
(0.000255593 0.000542435 0.000168173)
(0.000207343 0.000562647 0.000168173)
(0.000157516 0.000578577 0.000168173)
(0.000106491 0.000590105 0.000168173)
(5.46542e-05 0.000597141 0.000168173)
(2.4017e-06 0.000599632 0.000168172)
(-4.98688e-05 0.000597559 0.000168172)
(-0.00010176 0.000590939 0.000168173)
(-0.000152876 0.000579822 0.000168173)
(-0.000202829 0.000564291 0.000168173)
(-0.000251238 0.000544466 0.000168173)
(-0.000297735 0.000520498 0.000168173)
(-0.000341966 0.000492568 0.000168173)
(-0.000383595 0.000460889 0.000168173)
(-0.000422305 0.000425702 0.000168173)
(-0.0004578 0.000387276 0.000168173)
(-0.000489811 0.000345903 0.000168173)
(-0.000518095 0.000301897 0.000168173)
(-0.000542435 0.000255593 0.000168173)
(-0.000562647 0.000207343 0.000168173)
(-0.000578577 0.000157516 0.000168173)
(-0.000590105 0.000106491 0.000168173)
(-0.000597141 5.46542e-05 0.000168173)
(-0.000599632 2.4017e-06 0.000168172)
(-0.000597559 -4.98688e-05 0.000168172)
(-0.000590939 -0.00010176 0.000168173)
(-0.000579822 -0.000152876 0.000168173)
(-0.000564291 -0.000202829 0.000168173)
(-0.000544466 -0.000251238 0.000168173)
(-0.000520498 -0.000297735 0.000168173)
(-0.000492568 -0.000341966 0.000168173)
(-0.000460889 -0.000383595 0.000168173)
(-0.000425702 -0.000422305 0.000168173)
(-0.000387276 -0.0004578 0.000168173)
(-0.000345903 -0.000489811 0.000168173)
(-0.000301897 -0.000518095 0.000168173)
(-0.000255593 -0.000542435 0.000168173)
(-0.000207343 -0.000562647 0.000168173)
(-0.000157516 -0.000578577 0.000168173)
(-0.000106491 -0.000590105 0.000168173)
(-5.46543e-05 -0.000597141 0.000168173)
(-2.40176e-06 -0.000599632 0.000168172)
(-5.74529e-05 -0.000655658 0.000192391)
(-9.04082e-08 -0.000658171 0.000192391)
(5.72733e-05 -0.000655675 0.000192391)
(0.000114202 -0.000648187 0.000192391)
(0.00017026 -0.000635767 0.000192391)
(0.000225023 -0.000618508 0.000192391)
(0.000278073 -0.000596543 0.000192391)
(0.000329007 -0.000570037 0.000192391)
(0.000377436 -0.000539193 0.00019239)
(0.000422994 -0.000504245 0.00019239)
(0.000465332 -0.00046546 0.000192391)
(0.00050413 -0.000423134 0.000192391)
(0.000539089 -0.000377585 0.00019239)
(0.000569947 -0.000329163 0.00019239)
(0.000596466 -0.000278236 0.000192391)
(0.000618447 -0.000225193 0.000192391)
(0.000635721 -0.000170435 0.000192391)
(0.000648156 -0.000114379 0.000192391)
(0.000655658 -5.74529e-05 0.000192391)
(0.000658171 -9.03989e-08 0.000192391)
(0.000655675 5.72734e-05 0.000192391)
(0.000648187 0.000114202 0.000192391)
(0.000635767 0.00017026 0.000192391)
(0.000618508 0.000225023 0.000192391)
(0.000596543 0.000278073 0.000192391)
(0.000570037 0.000329007 0.000192391)
(0.000539193 0.000377436 0.00019239)
(0.000504245 0.000422994 0.00019239)