/*--------------------------------*- C++ -*----------------------------------*\
| =========                 |                                                 |
| \\      /  F ield         | OpenFOAM: The Open Source CFD Toolbox           |
|  \\    /   O peration     | Version:  2312                                  |
|   \\  /    A nd           | Website:  www.openfoam.com                      |
|    \\/     M anipulation  |                                                 |
\*---------------------------------------------------------------------------*/
FoamFile
{
    version     2.0;
    format      ascii;
    arch        "LSB;label=32;scalar=64";
    class       volVectorField;
    location    "0.5";
    object      D_0;
}
// * * * * * * * * * * * * * * * * * * * * * * * * * * * * * * * * * * * * * //

dimensions      [0 1 0 0 0 0 0];

internalField   nonuniform List<vector> 
1620
(
(-0.00012732 2.02601e-05 -0.000116214)
(-0.000100394 9.32441e-05 -0.000102563)
(-6.50565e-05 0.000148225 -7.82733e-05)
(-2.59977e-05 0.000187909 -4.59653e-05)
(1.54182e-05 0.000219584 -4.87957e-06)
(5.5795e-05 0.000251151 4.65618e-05)
(8.78993e-05 0.000288136 0.000110321)
(0.000102024 0.000329934 0.000185441)
(9.99158e-05 0.000363989 0.000252304)
(8.26143e-05 0.000381092 0.000249573)
(5.30235e-05 0.000376552 0.000187649)
(3.32546e-05 0.000356988 0.000124207)
(2.87049e-05 0.000333913 7.06859e-05)
(3.29805e-05 0.00031019 2.63237e-05)
(4.04347e-05 0.000282699 -1.07956e-05)
(4.83109e-05 0.000245884 -4.24069e-05)
(5.49612e-05 0.000194228 -6.96139e-05)
(5.43054e-05 0.000125279 -8.91647e-05)
(3.90239e-05 4.52691e-05 -8.77926e-05)
(1.18712e-05 -2.81979e-05 -6.65106e-05)
(-1.66319e-05 -8.73022e-05 -4.06564e-05)
(-4.12524e-05 -0.000132258 -1.36724e-05)
(-6.25487e-05 -0.000166968 1.58961e-05)
(-8.13774e-05 -0.000197672 5.13486e-05)
(-9.55954e-05 -0.000230874 9.80677e-05)
(-9.92821e-05 -0.000268966 0.00016083)
(-9.63699e-05 -0.000301525 0.00022606)
(-8.42869e-05 -0.000319407 0.00023047)
(-6.32868e-05 -0.000316674 0.000180151)
(-5.38482e-05 -0.00029971 0.000124562)
(-6.06469e-05 -0.000278574 7.40764e-05)
(-7.7367e-05 -0.000255772 2.92182e-05)
(-9.73771e-05 -0.000228059 -1.07151e-05)
(-0.000116472 -0.000189571 -4.68117e-05)
(-0.00013207 -0.000134618 -8.01113e-05)
(-0.000138112 -6.15313e-05 -0.000107788)
(-9.80381e-06 -1.09483e-06 -6.18171e-05)
(2.61595e-06 7.20528e-05 -4.00661e-05)
(1.21294e-05 0.000123243 -1.95163e-05)
(2.10025e-05 0.000156111 4.02336e-06)
(3.12046e-05 0.000174199 3.12908e-05)
(4.27693e-05 0.000183118 6.07128e-05)
(5.46629e-05 0.000187769 8.99138e-05)
(6.64463e-05 0.000191741 0.000115762)
(8.04696e-05 0.000198983 0.000133151)
(8.84889e-05 0.000212813 0.000133326)
(8.91286e-05 0.000231044 0.000118719)
(8.19216e-05 0.00024844 9.70875e-05)
(7.13417e-05 0.000262299 7.29244e-05)
(5.76949e-05 0.000269832 4.87265e-05)
(4.01988e-05 0.000266644 2.63633e-05)
(1.87555e-05 0.000247299 6.87048e-06)
(-4.79443e-06 0.000207831 -1.0834e-05)
(-2.80568e-05 0.000142155 -3.00314e-05)
(-4.48766e-05 6.01057e-05 -2.67114e-05)
(-5.33159e-05 -1.12034e-05 -3.31708e-06)
(-5.71026e-05 -6.25782e-05 1.43577e-05)
(-5.80813e-05 -9.71665e-05 3.12951e-05)
(-5.85297e-05 -0.000117528 4.94082e-05)
(-5.97413e-05 -0.000128248 6.86839e-05)
(-6.26027e-05 -0.00013352 8.88276e-05)
(-6.8583e-05 -0.000136622 0.000108831)
(-8.12087e-05 -0.000141773 0.000124189)
(-9.24237e-05 -0.000152766 0.000124327)
(-9.93047e-05 -0.00016929 0.000110674)
(-0.00010122 -0.000187114 8.96058e-05)
(-0.000100776 -0.000202978 6.4702e-05)
(-9.68501e-05 -0.000213159 3.83683e-05)
(-8.74363e-05 -0.000212207 1.26056e-05)
(-7.16249e-05 -0.000193751 -1.13885e-05)
(-5.10276e-05 -0.000153326 -3.45011e-05)
(-2.84568e-05 -8.55616e-05 -5.99438e-05)
(7.08813e-05 -2.75613e-05 3.88813e-06)
(6.81848e-05 4.20891e-05 1.60021e-05)
(5.21037e-05 8.8883e-05 2.88839e-05)
(3.31237e-05 0.00011209 4.20748e-05)
(1.70522e-05 0.00011574 5.49526e-05)
(7.53804e-06 0.000106291 6.43402e-05)
(8.17563e-06 9.08637e-05 6.53452e-05)
(2.32852e-05 7.71059e-05 5.43716e-05)
(5.76998e-05 7.322e-05 3.68227e-05)
(0.000102739 8.34571e-05 3.71138e-05)
(0.00013226 0.000109349 5.68354e-05)
(0.000140899 0.000146494 6.71032e-05)
(0.000131292 0.00018605 6.59748e-05)
(0.000106806 0.000219806 5.86452e-05)
(7.022e-05 0.000240023 5.01344e-05)
(2.4538e-05 0.00023905 4.36138e-05)
(-2.45223e-05 0.000210763 3.97571e-05)
(-6.46328e-05 0.00015311 3.78192e-05)
(-8.18537e-05 8.08452e-05 4.19479e-05)
(-7.5651e-05 1.60366e-05 5.00291e-05)
(-5.83124e-05 -2.68291e-05 5.63973e-05)
(-3.9797e-05 -4.83121e-05 6.26525e-05)
(-2.46662e-05 -5.29724e-05 6.94623e-05)
(-1.53517e-05 -4.65231e-05 7.43438e-05)
(-1.50534e-05 -3.42527e-05 7.24948e-05)
(-2.88148e-05 -2.19476e-05 5.95528e-05)
(-6.20928e-05 -1.74467e-05 3.95507e-05)
(-0.000106586 -2.64678e-05 3.5853e-05)
(-0.00013761 -5.21175e-05 5.10797e-05)
(-0.000151548 -9.02864e-05 5.73806e-05)
(-0.000148375 -0.000132523 5.28008e-05)
(-0.000128926 -0.000169897 4.19699e-05)
(-9.45512e-05 -0.000193298 2.93273e-05)
(-4.80706e-05 -0.000193863 1.76618e-05)
(4.11093e-06 -0.000164936 7.78522e-06)
(4.8834e-05 -0.000104689 6.41252e-07)
(-0.000264936 4.90319e-05 -0.00032051)
(-0.000210727 0.000276904 -0.000286371)
(-0.000147636 0.000444624 -0.000214029)
(-7.73951e-05 0.00055456 -0.000115113)
(6.97917e-07 0.000625763 9.12975e-06)
(8.20158e-05 0.000680275 0.000161123)
(0.000155581 0.000735522 0.000341686)
(0.000208589 0.000797899 0.000538364)
(0.000243407 0.00085537 0.000698575)
(0.000258108 0.000895396 0.000715905)
(0.000235207 0.000911278 0.000590902)
(0.000207704 0.00090857 0.000428065)
(0.000190527 0.000895987 0.000273258)
(0.000180302 0.000871084 0.000138057)
(0.000170493 0.00082232 2.22036e-05)
(0.000156904 0.000733322 -7.75948e-05)
(0.000137217 0.000587741 -0.000161605)
(0.000105655 0.000380571 -0.000217294)
(6.08491e-05 0.000140482 -0.000216648)
(8.94998e-06 -8.06618e-05 -0.000161396)
(-4.09786e-05 -0.000249005 -8.53485e-05)
(-8.41914e-05 -0.000364829 -3.1375e-06)
(-0.000122722 -0.000442492 8.6412e-05)
(-0.000158379 -0.000500497 0.000191994)
(-0.000189717 -0.000555974 0.000324555)
(-0.000213146 -0.000618066 0.000485144)
(-0.000238169 -0.000676994 0.000633941)
(-0.000261127 -0.000719907 0.000666966)
(-0.000260794 -0.000739778 0.000568504)
(-0.000263728 -0.000742897 0.000424718)
(-0.000280459 -0.000736513 0.000276821)
(-0.000304381 -0.000716547 0.000137995)
(-0.000324942 -0.000669419 1.09617e-05)
(-0.000334407 -0.000576829 -0.000105332)
(-0.000329369 -0.000421843 -0.000210523)
(-0.000305957 -0.000201571 -0.000292484)
(-6.91075e-05 -1.33448e-05 -0.00018863)
(-3.41739e-05 0.00020071 -0.000138435)
(-8.29785e-06 0.00035409 -6.88094e-05)
(1.67892e-05 0.00045197 1.55226e-05)
(4.7136e-05 0.000506873 0.000112546)
(8.3987e-05 0.000536107 0.000218287)
(0.000125659 0.000555352 0.000325722)
(0.000170896 0.000575647 0.000422824)
(0.000221089 0.000603342 0.000489431)
(0.000262241 0.000642275 0.000500753)
(0.000279768 0.000689817 0.000456185)
(0.000272655 0.000736723 0.000378951)
(0.000249026 0.000775492 0.00028915)
(0.000211651 0.00079649 0.000198753)
(0.000160971 0.000785852 0.000114491)
(9.86255e-05 0.000727306 3.96328e-05)
(3.03197e-05 0.000607492 -2.4692e-05)
(-3.55014e-05 0.000416484 -7.3581e-05)
(-8.40609e-05 0.000186915 -6.73135e-05)
(-0.000110665 -2.00669e-05 -1.11241e-05)
(-0.000123671 -0.000170684 5.05199e-05)
(-0.000129909 -0.000270181 0.000113979)
(-0.000135615 -0.000329359 0.000180587)
(-0.000144744 -0.0003631 0.000251317)
(-0.000160445 -0.000385083 0.00032559)
(-0.000186868 -0.000405302 0.000398287)
(-0.000229329 -0.000430134 0.00045357)
(-0.000275423 -0.000464876 0.000465062)
(-0.000309027 -0.0005107 0.0004255)
(-0.000326802 -0.000560567 0.000351833)
(-0.000331698 -0.00060601 0.000260681)
(-0.000321796 -0.000635041 0.000163298)
(-0.000293607 -0.000630779 6.68719e-05)
(-0.000246401 -0.000574208 -2.44685e-05)
(-0.000185645 -0.000450653 -0.000108355)
(-0.000121418 -0.000251839 -0.000178049)
(9.25738e-05 -8.19987e-05 -3.92729e-05)
(0.00010933 0.000111779 5.60064e-06)
(0.00010019 0.000252667 6.6927e-05)
(8.28658e-05 0.000337824 0.000134733)
(6.89723e-05 0.000376699 0.000202983)
(6.6622e-05 0.000384287 0.000262178)
(8.30437e-05 0.000377155 0.000299193)
(0.000124838 0.000372002 0.000304336)
(0.000198157 0.000384227 0.000289287)
(0.00027946 0.000421912 0.000296878)
(0.000334173 0.000485718 0.000320318)
(0.000348828 0.000566382 0.000320523)
(0.000323659 0.000647112 0.000292478)
(0.000264277 0.000709921 0.000246298)
(0.00017725 0.000736263 0.000194586)
(7.10188e-05 0.000707848 0.000146817)
(-4.04411e-05 0.00061076 0.00010866)
(-0.00013334 0.000443368 8.69933e-05)
(-0.000184327 0.000239804 9.70576e-05)
(-0.000191068 5.43841e-05 0.000132832)
(-0.000172017 -7.96821e-05 0.000175006)
(-0.000145474 -0.00016134 0.000218431)
(-0.000122378 -0.000200831 0.000261067)
(-0.000110124 -0.000211802 0.000296453)
(-0.000116466 -0.000207676 0.000313418)
(-0.000150037 -0.000202206 0.000302903)
(-0.000218714 -0.000210697 0.00027659)
(-0.000299147 -0.000244454 0.000274067)
(-0.000360991 -0.000307169 0.000286445)
(-0.000392163 -0.000390915 0.000276656)
(-0.000387463 -0.000479209 0.000239185)
(-0.000346808 -0.000552013 0.00018223)
(-0.00027313 -0.000587354 0.000116652)
(-0.00017383 -0.000563921 5.1362e-05)
(-6.34789e-05 -0.000466542 -6.34963e-06)
(3.35248e-05 -0.000294292 -4.438e-05)
(-0.000381775 4.14195e-05 -0.000468433)
(-0.000302877 0.000395984 -0.000424698)
(-0.000214822 0.00066281 -0.000309942)
(-0.000115826 0.00084206 -0.000141618)
(-4.91145e-06 0.000959059 7.55258e-05)
(0.000111152 0.00104387 0.000340528)
(0.000219266 0.00112067 0.000646125)
(0.000306358 0.00120121 0.000963266)
(0.000372602 0.00128023 0.00121897)
(0.000414495 0.00134777 0.00128576)
(0.000409381 0.00139322 0.0011301)
(0.00037792 0.00141535 0.000878236)
(0.000346094 0.00141714 0.000613344)
(0.000317635 0.00139068 0.000369406)
(0.000287831 0.00131944 0.000156934)
(0.000250564 0.00118108 -2.29749e-05)
(0.000201796 0.000953703 -0.000166993)
(0.000138197 0.000632968 -0.000256364)
(6.49525e-05 0.000263937 -0.000260033)
(-8.84896e-06 -7.83929e-05 -0.000181258)
(-7.70736e-05 -0.000341709 -6.04516e-05)
(-0.000137436 -0.000524428 7.91306e-05)
(-0.000192267 -0.000647422 0.000235752)
(-0.000242757 -0.000736892 0.000418866)
(-0.00028819 -0.000815925 0.000637996)
(-0.000328466 -0.000898074 0.000885122)
(-0.000373652 -0.000980495 0.00110817)
(-0.00042275 -0.00105321 0.00118945)
(-0.000452436 -0.00110526 0.00107195)
(-0.000468833 -0.00113598 0.000850259)
(-0.000490982 -0.00114793 0.000597006)
(-0.000516181 -0.00113065 0.000346725)
(-0.000533043 -0.00106399 0.000113972)
(-0.000530278 -0.000922474 -9.64373e-05)
(-0.000502823 -0.000683167 -0.000279539)
(-0.000450673 -0.000344399 -0.000415864)
(-0.000155879 -4.57927e-05 -0.000279789)
(-9.38285e-05 0.000279842 -0.000210636)
(-4.32031e-05 0.000519676 -9.19852e-05)
(7.4264e-06 0.000678873 6.03238e-05)
(6.56168e-05 0.000774985 0.000238979)
(0.000132356 0.000832357 0.000435279)
(0.000204635 0.000873627 0.000635017)
(0.000279265 0.000915042 0.000815159)
(0.000355125 0.000965484 0.000941929)
(0.000418406 0.00102897 0.000976712)
(0.000451813 0.00110364 0.000910659)
(0.000447054 0.00117818 0.000777614)
(0.000413614 0.00123861 0.000613887)
(0.000357317 0.00126877 0.000444286)
(0.000280724 0.00124797 0.000284005)
(0.00018693 0.00115317 0.000141911)
(8.38316e-05 0.000965913 2.48742e-05)
(-1.63408e-05 0.000676078 -5.10272e-05)
(-9.51491e-05 0.000333176 -4.46332e-05)
(-0.000145605 1.92709e-05 3.57559e-05)
(-0.000176433 -0.000214972 0.000141136)
(-0.000197634 -0.000374404 0.000256447)
(-0.000217634 -0.000474764 0.000379399)
(-0.000241619 -0.000537564 0.000509873)
(-0.000273462 -0.000582896 0.000644998)
(-0.000317634 -0.000625528 0.000774011)
(-0.000378934 -0.000673956 0.00087255)
(-0.000447453 -0.000733264 0.00090248)
(-0.000504825 -0.000806225 0.000843716)
(-0.000537795 -0.000885615 0.000717192)
(-0.00054834 -0.000956503 0.000551429)
(-0.000535025 -0.000999357 0.00036897)
(-0.000494151 -0.000988893 0.000185613)
(-0.000424955 -0.000897717 1.21553e-05)
(-0.000334947 -0.000705189 -0.000141618)
(-0.000238689 -0.000403335 -0.000255656)
(4.85775e-05 -0.000139527 -7.17914e-05)
(9.318e-05 0.00014989 3.52131e-06)
(0.000107399 0.000366647 0.000118885)
(0.00011101 0.000506282 0.000252947)
(0.000117928 0.000581403 0.00039139)
(0.000137905 0.000612562 0.00051776)
(0.000178251 0.000622707 0.000612201)
(0.000243908 0.000634099 0.000658915)
(0.000336007 0.000666268 0.00066461)
(0.000434303 0.000731161 0.000676449)
(0.000504051 0.000827823 0.000690109)
(0.000524091 0.000943191 0.000668068)
(0.000490929 0.00105503 0.000603381)
(0.000409609 0.00113827 0.000508566)
(0.000289035 0.00116629 0.000402142)
(0.000142073 0.00111328 0.000300885)
(-1.15144e-05 0.000960977 0.000219148)
(-0.000142619 0.000710051 0.000174646)
(-0.000225045 0.000408664 0.000188633)
(-0.000255071 0.000131215 0.000251586)
(-0.000251536 -7.69278e-05 0.000335058)
(-0.000235987 -0.000212364 0.000424515)
(-0.000223116 -0.000288231 0.000512568)
(-0.000223248 -0.000323399 0.000589151)
(-0.000245131 -0.000337156 0.000639635)
(-0.0002962 -0.000348166 0.00065139)
(-0.000380123 -0.000375258 0.000631652)
(-0.000478653 -0.000434141 0.000624315)
(-0.000560846 -0.000528332 0.000620386)
(-0.000605949 -0.00064789 0.00058257)
(-0.000604283 -0.000771029 0.000501583)
(-0.000553292 -0.000869629 0.000386381)
(-0.000456399 -0.00091177 0.000252939)
(-0.000324258 -0.000866641 0.000118114)
(-0.000176711 -0.00071364 1.65934e-07)
(-4.32626e-05 -0.00045436 -7.43812e-05)
(-0.000489747 -1.30258e-05 -0.000492352)
(-0.000387101 0.000426454 -0.000457078)
(-0.000274223 0.000770296 -0.000321347)
(-0.000148437 0.00101369 -0.000102395)
(-9.59495e-06 0.00118121 0.000190878)
(0.000134631 0.00130445 0.000550408)
(0.000271319 0.00141042 0.000958027)
(0.00038817 0.00151547 0.00137165)
(0.000481676 0.00162274 0.00171035)
(0.000551547 0.0017252 0.00184005)
(0.000577425 0.00180575 0.0016943)
(0.000546616 0.00185535 0.00139282)
(0.000499291 0.00187286 0.00104445)
(0.000448212 0.00184424 0.000706398)
(0.000393959 0.00175029 0.000406038)
(0.000331105 0.00156804 0.000154736)
(0.00025491 0.00127747 -3.83427e-05)
(0.000164007 0.000880095 -0.000153487)
(6.58498e-05 0.000429005 -0.000167236)
(-2.91281e-05 6.33021e-06 -8.47702e-05)
(-0.000115555 -0.000328707 5.85499e-05)
(-0.000193111 -0.000569981 0.000237106)
(-0.00026425 -0.0007387 0.000445196)
(-0.000329775 -0.000863477 0.000688386)
(-0.000389668 -0.000970195 0.00097056)
(-0.000445731 -0.00107645 0.00127672)
(-0.000505424 -0.00118802 0.00155315)
(-0.000575496 -0.00129891 0.00168353)
(-0.000641826 -0.00139111 0.00158233)
(-0.000672304 -0.00145357 0.00132021)
(-0.00069498 -0.00148565 0.000988513)
(-0.000713094 -0.00147071 0.000643148)
(-0.000719112 -0.00138521 0.000315048)
(-0.000701849 -0.00120247 2.00762e-05)
(-0.000655386 -0.000901013 -0.000229538)
(-0.000581553 -0.000484636 -0.00041131)
(-0.000269598 -0.000105283 -0.000270439)
(-0.000178203 0.000293952 -0.000199266)
(-9.63492e-05 0.000600069 -5.01541e-05)
(-1.2916e-05 0.000814602 0.000154555)
(7.8679e-05 0.000956428 0.000401828)
(0.000178016 0.0010521 0.000676892)
(0.000280372 0.00112692 0.000957813)
(0.000380608 0.00119962 0.0012124)
(0.000475946 0.0012807 0.00139779)
(0.000556606 0.0013723 0.00146519)
(0.000604885 0.00147209 0.00139759)
(0.000602927 0.00156909 0.00123036)
(0.000561675 0.00164351 0.00100962)
(0.000490717 0.00167509 0.000772319)
(0.000395325 0.00163992 0.00054427)
(0.000279848 0.00151281 0.0003428)
(0.000152704 0.0012746 0.000182402)
(2.71149e-05 0.00092047 8.65377e-05)
(-7.87704e-05 0.000507468 8.76553e-05)
(-0.000156515 0.000123798 0.00017515)
(-0.000212661 -0.00017364 0.000305906)
(-0.000257827 -0.000385542 0.000458037)
(-0.000300667 -0.000529082 0.00062479)
(-0.000346034 -0.000628363 0.00080303)
(-0.000396905 -0.00070641 0.000986334)
(-0.000456609 -0.000780533 0.00115932)
(-0.000529599 -0.000860944 0.00129317)
(-0.000612711 -0.000949836 0.00134376)
(-0.000688845 -0.00104925 0.00128207)
(-0.00073379 -0.0011535 0.00112336)
(-0.00074836 -0.00124185 0.00090053)
(-0.000732731 -0.00129008 0.000645661)
(-0.000684378 -0.00126888 0.000384543)
(-0.000602789 -0.00114776 0.000137235)
(-0.000495564 -0.000904724 -7.6983e-05)
(-0.000378045 -0.000536706 -0.000228001)
(-5.61956e-05 -0.000203457 -3.20389e-05)
(2.06048e-05 0.000148972 6.01066e-05)
(6.98183e-05 0.000421194 0.00021459)
(0.000109888 0.000607531 0.000402603)
(0.000153318 0.000722428 0.000602622)
(0.000207668 0.000788948 0.000792199)
(0.000276997 0.000832188 0.000946126)
(0.000362876 0.000874889 0.00104279)
(0.000463017 0.000935471 0.00108048)
(0.000569104 0.00102721 0.00109759)
(0.00064415 0.00114815 0.00110087)
(0.000666291 0.00128421 0.00106047)
(0.000629913 0.00141116 0.000965617)
(0.000538903 0.00150108 0.000829544)
(0.00040251 0.00152353 0.000675405)
(0.000235036 0.00144908 0.000527276)
(5.80388e-05 0.00125782 0.000408607)
(-9.89455e-05 0.000953569 0.000345235)
(-0.000209754 0.000591391 0.00035849)
(-0.000269459 0.000253619 0.000436461)
(-0.000295053 -9.00454e-06 0.000547766)
(-0.000307519 -0.000190851 0.000671792)
(-0.000321693 -0.000306223 0.000796422)
(-0.000347199 -0.000376457 0.000908783)
(-0.000390371 -0.000423266 0.000992311)
(-0.000455567 -0.000465774 0.00103133)
(-0.000543077 -0.000520972 0.00102548)
(-0.000650436 -0.000605594 0.00100995)
(-0.000741268 -0.000723261 0.000987964)
(-0.000794077 -0.000864262 0.000926932)
(-0.000797256 -0.00100493 0.000809791)
(-0.000745996 -0.00111378 0.000644235)
(-0.000642531 -0.001154 0.000450114)
(-0.000497673 -0.00108974 0.000252359)
(-0.000332269 -0.000897722 8.07044e-05)
(-0.000176001 -0.000582532 -2.66281e-05)
(-0.000596773 -0.000109514 -0.000367878)
(-0.000474093 0.000374062 -0.000357194)
(-0.000337054 0.000769413 -0.000226103)
(-0.00018463 0.00106649 1.40895e-05)
(-1.86289e-05 0.00128517 0.000352363)
(0.000152782 0.00145458 0.000773731)
(0.000317173 0.0016014 0.00125065)
(0.000462272 0.00174416 0.0017325)
(0.0005812 0.00189104 0.00213535)
(0.000676426 0.0020364 0.00233184)
(0.000730312 0.00215553 0.0022358)
(0.0007017 0.00223035 0.00192705)
(0.00064082 0.00226031 0.00153202)
(0.000566947 0.00222745 0.00112974)
(0.000487272 0.00211207 0.000765369)
(0.000400076 0.00189467 0.000462333)
(0.000301549 0.00156238 0.000235251)
(0.000190682 0.00112531 0.00010026)
(7.3441e-05 0.00063731 6.96347e-05)
(-4.1027e-05 0.000174819 0.000136849)
(-0.000147415 -0.000205574 0.000276681)
(-0.000245505 -0.000493167 0.000467159)
(-0.000337056 -0.000705399 0.000700099)
(-0.000422322 -0.000869427 0.000975787)
(-0.000500999 -0.0010116 0.00129176)
(-0.00057459 -0.00115206 0.00162848)
(-0.000648162 -0.00130217 0.00193377)
(-0.00073276 -0.00145879 0.00210705)
(-0.000821633 -0.00159674 0.00205418)
(-0.000864008 -0.00169209 0.00179136)
(-0.00088409 -0.00174223 0.00141886)
(-0.000890255 -0.00172818 0.00101128)
(-0.000881358 -0.00162623 0.000615363)
(-0.000850002 -0.00141311 0.000259095)
(-0.000790605 -0.00107392 -3.83803e-05)
(-0.000704019 -0.000619787 -0.000255702)
(-0.000403505 -0.000189361 -0.000134822)
(-0.000284696 0.000248474 -7.79744e-05)
(-0.000169717 0.000599373 7.65646e-05)
(-5.00441e-05 0.000860012 0.000306875)
(7.8231e-05 0.00104819 0.00059667)
(0.000212373 0.00118939 0.000926171)
(0.000345546 0.00130811 0.00126702)
(0.000470679 0.00142256 0.00158007)
(0.000583699 0.00154262 0.00181637)
(0.000678699 0.00166747 0.00192299)
(0.000737468 0.00179289 0.00187553)
(0.000737868 0.00190789 0.00170064)
(0.000691027 0.00198956 0.00144867)
(0.000609609 0.00201657 0.00116692)
(0.000501542 0.00196531 0.000891779)
(0.000372488 0.00181239 0.000649343)
(0.000230381 0.00154147 0.000460556)
(8.72704e-05 0.00115521 0.00035026)
(-4.10468e-05 0.000710659 0.000339683)
(-0.000145967 0.000291376 0.000417218)
(-0.000231531 -4.72642e-05 0.000549419)
(-0.000306916 -0.000301134 0.000714317)
(-0.000379347 -0.00048641 0.000902543)
(-0.000452016 -0.000626821 0.00110778)
(-0.000525813 -0.000745423 0.00131996)
(-0.000602079 -0.000859654 0.00152016)
(-0.0006846 -0.000979379 0.00167745)
(-0.000775505 -0.00110391 0.00174913)
(-0.000860788 -0.00123217 0.00170143)
(-0.000913422 -0.0013575 0.00153521)
(-0.00093049 -0.00145673 0.00128199)
(-0.000913356 -0.00150417 0.000980625)
(-0.000861403 -0.00147058 0.000665822)
(-0.000774974 -0.00132695 0.00036648)
(-0.000660508 -0.00105363 0.000109794)
(-0.000531248 -0.00065398 -6.99133e-05)
(-0.000203559 -0.000274566 0.00011083)
(-9.45421e-05 0.000112001 0.000202933)
(-6.27053e-06 0.000420855 0.00037321)
(7.70262e-05 0.000645237 0.000591164)
(0.000164474 0.000800503 0.000831869)
(0.00025919 0.00090975 0.00106918)
(0.000360516 0.000996525 0.00127382)
(0.000466553 0.00108033 0.00141851)
(0.000573802 0.00117553 0.00149144)
(0.000683183 0.00129389 0.00151711)
(0.000758796 0.0014348 0.00151732)
(0.000781499 0.00158373 0.00147022)
(0.000745415 0.00171548 0.00135908)
(0.000653592 0.00180265 0.00119763)
(0.000514352 0.0018154 0.00101279)
(0.000340905 0.00172453 0.000834522)
(0.000153459 0.00151058 0.000692635)
(-2.05321e-05 0.00118004 0.000616073)
(-0.000156153 0.000788756 0.000622918)
(-0.000247279 0.000418266 0.000700275)
(-0.000308275 0.000119985 0.000818497)
(-0.000357943 -9.89815e-05 0.000956249)
(-0.000408924 -0.000253337 0.00109963)
(-0.000467628 -0.000364698 0.00123431)
(-0.000536379 -0.000454006 0.0013425)
(-0.000616228 -0.000537644 0.00140575)
(-0.000706481 -0.000627886 0.00141504)
(-0.000814177 -0.000738166 0.00139065)
(-0.000905707 -0.000875059 0.00135599)
(-0.000962275 -0.0010294 0.00128331)
(-0.000971522 -0.00117655 0.00114501)
(-0.000926844 -0.00128511 0.000947338)
(-0.000828374 -0.00131828 0.000712701)
(-0.000684882 -0.00123978 0.00047193)
(-0.000515097 -0.00102606 0.000262779)
(-0.000346169 -0.000683992 0.000129813)
(-0.000706745 -0.000237486 -0.000100847)
(-0.000569761 0.000256655 -0.000125713)
(-0.00041099 0.000679099 -2.16675e-05)
(-0.000231868 0.00101638 0.000209291)
(-3.72729e-05 0.0012828 0.000557334)
(0.000163264 0.00150306 0.00100334)
(0.000357089 0.00170136 0.00151392)
(0.000531466 0.00189541 0.00203455)
(0.000676763 0.00209362 0.0024829)
(0.00079151 0.00228846 0.0027471)
(0.000857857 0.00244805 0.00272765)
(0.000834867 0.00254579 0.00244774)
(0.00076495 0.00258394 0.00204419)
(0.000671775 0.00254548 0.0016136)
(0.000569401 0.00241255 0.00121558)
(0.000461785 0.00217164 0.00088399)
(0.000347322 0.00181929 0.000637114)
(0.000224162 0.00137363 0.000485688)
(9.42949e-05 0.000884443 0.000432201)
(-3.70004e-05 0.00041538 0.0004698)
(-0.000165167 1.46228e-05 0.000583699)
(-0.000288602 -0.000304683 0.000759063)
(-0.000406924 -0.00055505 0.000987894)
(-0.000518724 -0.000760154 0.0012664)
(-0.000622129 -0.000944889 0.00158708)
(-0.000716835 -0.00112961 0.00192837)
(-0.000805431 -0.00132679 0.00224352)
(-0.000895376 -0.00153367 0.00245355)
(-0.000984323 -0.00172059 0.00246242)
(-0.00103728 -0.00185167 0.00223338)
(-0.00105318 -0.00191793 0.00186039)
(-0.00104641 -0.00190476 0.00142977)
(-0.00102247 -0.00179165 0.00100062)
(-0.000979443 -0.00156158 0.000611316)
(-0.000913003 -0.00120827 0.000285964)
(-0.000821576 -0.000749257 4.27287e-05)
(-0.000549544 -0.000291094 0.000126462)
(-0.000408399 0.000157157 0.000155808)
(-0.000262686 0.000532498 0.000292311)
(-0.000107129 0.000827835 0.000519756)
(5.87052e-05 0.0010588 0.000822002)
(0.000229048 0.00124822 0.0011767)
(0.000394474 0.00141756 0.00155154)
(0.000545721 0.001582 0.00190329)
(0.000676733 0.00174821 0.00218041)
(0.000782574 0.00191237 0.00233033)
(0.00084644 0.00206589 0.00231993)
(0.000849997 0.00219573 0.00216109)
(0.000800777 0.00228039 0.00190515)
(0.000713085 0.00230023 0.00160681)
(0.000597342 0.00223456 0.00131049)
(0.000460827 0.00206438 0.00104906)
(0.000310786 0.00177839 0.000847182)
(0.00015699 0.00138594 0.000726667)
(1.1736e-05 0.00093962 0.000698622)
(-0.00011765 0.000512163 0.000751963)
(-0.000233384 0.000153139 0.000863725)
(-0.000342235 -0.000130146 0.00101684)
(-0.000448864 -0.000351938 0.00120204)
(-0.000553741 -0.000534074 0.00141098)
(-0.000654784 -0.000697665 0.00163088)
(-0.000750522 -0.000858058 0.00184088)
(-0.000842703 -0.00102256 0.00201074)
(-0.00093479 -0.00118867 0.00210294)
(-0.0010195 -0.00134949 0.00208027)
(-0.00107627 -0.00149389 0.00192823)
(-0.00109472 -0.00160089 0.00167315)
(-0.00107664 -0.00164573 0.0013564)
(-0.00102364 -0.00160211 0.00101834)
(-0.000937359 -0.00144551 0.000694127)
(-0.000822742 -0.00116094 0.000415503)
(-0.000689512 -0.000757374 0.000216145)
(-0.000375519 -0.000349732 0.00036232)
(-0.000237998 4.7863e-05 0.000438419)
(-0.000112494 0.000376696 0.000600923)
(1.37373e-05 0.000629431 0.000822612)
(0.00014608 0.00082165 0.001079)
(0.00028272 0.000975104 0.00134277)
(0.000418037 0.00110974 0.0015822)
(0.000546596 0.00123988 0.00176548)
(0.000664122 0.00137425 0.00187207)
(0.000773241 0.00152024 0.00191187)
(0.000848561 0.00167997 0.00191731)
(0.000873227 0.00183873 0.00187476)
(0.000840766 0.00197093 0.00176332)
(0.000753783 0.00205158 0.00159616)
(0.00061938 0.00205439 0.00140199)
(0.000448665 0.00195332 0.00121394)
(0.000258964 0.00173094 0.00106423)
(7.45546e-05 0.00139532 0.000980312)
(-8.15657e-05 0.000999019 0.000975446)
(-0.000202244 0.000617756 0.0010374)
(-0.00029904 0.00030079 0.00114189)
(-0.000388245 5.55121e-05 0.00127149)
(-0.000479526 -0.000133065 0.00141354)
(-0.000575171 -0.000285698 0.00155369)
(-0.00067307 -0.000420698 0.00167349)
(-0.000770759 -0.00055009 0.00175247)
(-0.000867213 -0.000680161 0.0017753)
(-0.000967584 -0.000817611 0.00174886)
(-0.00105607 -0.000972638 0.00170769)
(-0.00111556 -0.00113685 0.00163183)
(-0.00113143 -0.00128591 0.00148906)
(-0.00109628 -0.00139021 0.00128227)
(-0.00100847 -0.00141589 0.00103335)
(-0.000874159 -0.00132953 0.000775263)
(-0.00070856 -0.00110923 0.000548758)
(-0.000534886 -0.000763326 0.00039918)
(-0.000821122 -0.000384562 0.000286651)
(-0.000674524 9.51998e-05 0.0002213)
(-0.000496607 0.000523954 0.000282791)
(-0.000291227 0.000887608 0.000479432)
(-6.69803e-05 0.00119558 0.000805734)
(0.000163964 0.00146753 0.00124211)
(0.000387357 0.00172341 0.0017535)
(0.000588926 0.00197738 0.00228648)
(0.000756257 0.00223444 0.00276581)
(0.000882568 0.00248304 0.00309379)
(0.000953057 0.00268548 0.00315733)
(0.000942395 0.00280717 0.00293277)
(0.000868462 0.00285122 0.00255593)
(0.000761445 0.00280791 0.0021324)
(0.000641938 0.00266375 0.00173072)
(0.000519828 0.00241243 0.00139226)
(0.000396229 0.00205953 0.00113735)
(0.000267723 0.00162885 0.000971855)
(0.000130608 0.00116347 0.000891705)
(-1.53407e-05 0.000712086 0.000890586)
(-0.000166842 0.000311831 0.000962524)
(-0.000320024 -2.45256e-05 0.00110103)
(-0.000471068 -0.000305398 0.00130083)
(-0.000615371 -0.000550312 0.0015564)
(-0.000747894 -0.000781042 0.00185755)
(-0.000864773 -0.00101558 0.00218341)
(-0.000964857 -0.00126404 0.00249544)
(-0.00105113 -0.00152234 0.00273133)
(-0.00112892 -0.00176008 0.00279689)
(-0.0011881 -0.00193248 0.00262971)
(-0.00119879 -0.00201657 0.00229348)
(-0.00118129 -0.00200748 0.00187697)
(-0.0011458 -0.00189113 0.00144817)
(-0.00109548 -0.00165831 0.00105295)
(-0.00102755 -0.00131131 0.000718225)
(-0.000937525 -0.00087179 0.000458802)
(-0.000699285 -0.000401312 0.000495667)
(-0.000542038 3.62029e-05 0.000489529)
(-0.000370416 0.000418177 0.000590675)
(-0.000182088 0.000736066 0.000791555)
(1.97545e-05 0.00100324 0.00107913)
(0.000225823 0.00123934 0.00143115)
(0.000423508 0.00146161 0.0018143)
(0.000600698 0.00168041 0.00218481)
(0.000748726 0.00189753 0.00249185)
(0.000862355 0.00210545 0.00268382)
(0.000929629 0.00228945 0.00271831)
(0.000938539 0.00243352 0.00259336)
(0.000889876 0.00252052 0.00235817)
(0.000799361 0.00253414 0.00207027)
(0.000679936 0.00245863 0.00177801)
(0.000540622 0.00228084 0.00151807)
(0.000388133 0.00199538 0.00131614)
(0.000229548 0.0016162 0.00118886)
(7.28652e-05 0.00118911 0.00113965)
(-7.70456e-05 0.00077401 0.00115918)
(-0.000221376 0.000412642 0.00123453)
(-0.000364286 0.000112978 0.00135623)
(-0.000507277 -0.000137508 0.00151746)
(-0.000647306 -0.000358246 0.00170942)
(-0.000778505 -0.000567246 0.00191816)
(-0.000895602 -0.000776229 0.00212287)
(-0.000997187 -0.000988594 0.0022959)
(-0.00108666 -0.00119932 0.00240419)
(-0.00116549 -0.00139478 0.0024098)
(-0.00122227 -0.00155953 0.00228897)
(-0.00124006 -0.00167578 0.00205766)
(-0.00122104 -0.00172075 0.00175487)
(-0.00116872 -0.001673 0.0014229)
(-0.00108588 -0.001514 0.00109994)
(-0.000975956 -0.00123448 0.000818822)
(-0.00084482 -0.000847253 0.000609413)
(-0.000554317 -0.000423 0.000709729)
(-0.000395163 -3.19441e-05 0.000758163)
(-0.000238506 0.000302215 0.0008942)
(-7.42884e-05 0.000572742 0.00109751)
(9.94619e-05 0.000795274 0.0013467)
(0.000276371 0.000989671 0.00161529)
(0.000446084 0.00117156 0.00187089)
(0.000599348 0.00134933 0.00207918)
(0.000730512 0.00152527 0.00221368)
(0.000840129 0.00170106 0.00227311)
(0.000916652 0.00188009 0.00228957)
(0.000944128 0.00204789 0.00225878)
(0.000916639 0.00218029 0.00216135)
(0.000836632 0.00225508 0.00200741)
(0.000710267 0.00225087 0.0018244)
(0.00054652 0.00214653 0.00164548)
(0.000359422 0.00192767 0.0015017)
(0.000169728 0.00160262 0.00141575)
(-1.73624e-06 0.00121863 0.00139566)
(-0.000147248 0.000843553 0.00143136)
(-0.000276091 0.000522906 0.00150647)
(-0.000402436 0.000262858 0.00161052)
(-0.000533038 4.7807e-05 0.00173417)
(-0.000666092 -0.000141749 0.00186403)
(-0.000795029 -0.00032078 0.00198181)
(-0.000913414 -0.000496299 0.00206627)
(-0.00101873 -0.000668172 0.00209901)
(-0.00111284 -0.000835916 0.00207817)
(-0.00119893 -0.00100995 0.00203441)
(-0.00125833 -0.00118309 0.0019608)
(-0.00127796 -0.00133394 0.00182881)
(-0.00125095 -0.00143515 0.00163468)
(-0.00117459 -0.00145692 0.00139661)
(-0.00105241 -0.00137011 0.00114611)
(-0.000895741 -0.00115558 0.000922133)
(-0.000723488 -0.000822359 0.00076593)
(-0.000937171 -0.000537468 0.00076519)
(-0.000782859 -8.88729e-05 0.000660303)
(-0.000587479 0.000330192 0.000672097)
(-0.00035752 0.000707607 0.000818371)
(-0.000105175 0.00104926 0.0010999)
(0.000154212 0.00136973 0.0014999)
(0.000403737 0.00168354 0.00198539)