/*--------------------------------*- C++ -*----------------------------------*\
| =========                 |                                                 |
| \\      /  F ield         | OpenFOAM: The Open Source CFD Toolbox           |
|  \\    /   O peration     | Version:  2312                                  |
|   \\  /    A nd           | Website:  www.openfoam.com                      |
|    \\/     M anipulation  |                                                 |
\*---------------------------------------------------------------------------*/
FoamFile
{
    version     2.0;
    format      ascii;
    arch        "LSB;label=32;scalar=64";
    class       volVectorField;
    location    "0.5";
    object      D_0;
}
// * * * * * * * * * * * * * * * * * * * * * * * * * * * * * * * * * * * * * //

dimensions      [0 1 0 0 0 0 0];

internalField   nonuniform List<vector> 
1620
(
(0.000422086 -0.000102514 9.47911e-05)
(0.00036472 -0.000137218 -1.96539e-06)
(0.000299449 -0.000185625 -7.10248e-05)
(0.000240727 -0.000217828 -0.0001074)
(0.000196213 -0.000227494 -0.000121337)
(0.000167881 -0.00021953 -0.000121604)
(0.000153886 -0.00019935 -0.000112821)
(0.000149343 -0.000169482 -9.77191e-05)
(0.000147128 -0.000130478 -7.83391e-05)
(0.000139066 -8.24995e-05 -5.58947e-05)
(0.000117133 -2.6215e-05 -3.03019e-05)
(7.43499e-05 3.66277e-05 1.07155e-07)
(5.71007e-06 0.000101956 3.83894e-05)
(-8.99031e-05 0.000161061 8.75155e-05)
(-0.000205883 0.000199183 0.000145986)
(-0.000323661 0.000200277 0.000200139)
(-0.000413811 0.000162168 0.000220666)
(-0.00044742 0.000114527 0.000181744)
(-0.000422086 0.000102514 9.47911e-05)
(-0.00036472 0.000137218 -1.96539e-06)
(-0.000299449 0.000185625 -7.10248e-05)
(-0.000240727 0.000217828 -0.0001074)
(-0.000196213 0.000227494 -0.000121337)
(-0.000167881 0.00021953 -0.000121604)
(-0.000153886 0.00019935 -0.000112821)
(-0.000149343 0.000169482 -9.77191e-05)
(-0.000147128 0.000130478 -7.83391e-05)
(-0.000139066 8.24995e-05 -5.58947e-05)
(-0.000117133 2.6215e-05 -3.03019e-05)
(-7.43499e-05 -3.66277e-05 1.07155e-07)
(-5.71007e-06 -0.000101956 3.83894e-05)
(8.99031e-05 -0.000161061 8.75155e-05)
(0.000205883 -0.000199183 0.000145986)
(0.000323661 -0.000200277 0.000200139)
(0.000413811 -0.000162168 0.000220666)
(0.00044742 -0.000114527 0.000181744)
(0.000342476 -0.000179137 6.34458e-05)
(0.000347265 -0.000198868 2.40441e-05)
(0.000337418 -0.000201966 -1.08071e-05)
(0.000314885 -0.000184241 -3.94106e-05)
(0.000283259 -0.000153149 -6.28907e-05)
(0.000247761 -0.000117788 -8.0127e-05)
(0.000213011 -8.33641e-05 -8.93151e-05)
(0.000180829 -5.09378e-05 -8.97092e-05)
(0.000149799 -1.95381e-05 -8.17254e-05)
(0.000116374 1.18386e-05 -6.63188e-05)
(7.65664e-05 4.32331e-05 -4.45072e-05)
(2.75149e-05 7.36156e-05 -1.72566e-05)
(-3.14198e-05 0.000101187 1.43185e-05)
(-9.81599e-05 0.000123677 4.83213e-05)
(-0.000167889 0.000138835 8.07816e-05)
(-0.000233501 0.000146088 0.000104421)
(-0.000286991 0.000149716 0.000110537)
(-0.000323114 0.000159854 9.56676e-05)
(-0.000342476 0.000179137 6.34458e-05)
(-0.000347265 0.000198868 2.40441e-05)
(-0.000337418 0.000201966 -1.08071e-05)
(-0.000314885 0.000184241 -3.94106e-05)
(-0.000283259 0.000153149 -6.28906e-05)
(-0.000247761 0.000117788 -8.0127e-05)
(-0.000213011 8.33641e-05 -8.93151e-05)
(-0.000180829 5.09378e-05 -8.97092e-05)
(-0.000149799 1.95381e-05 -8.17254e-05)
(-0.000116374 -1.18386e-05 -6.63188e-05)
(-7.65664e-05 -4.32331e-05 -4.45072e-05)
(-2.75149e-05 -7.36156e-05 -1.72566e-05)
(3.14198e-05 -0.000101187 1.43185e-05)
(9.81599e-05 -0.000123677 4.83213e-05)
(0.000167889 -0.000138835 8.07816e-05)
(0.000233501 -0.000146088 0.000104421)
(0.000286991 -0.000149716 0.000110537)
(0.000323114 -0.000159854 9.56676e-05)
(0.000244975 -0.000220707 3.10332e-05)
(0.000289991 -0.000238389 2.66841e-05)
(0.000324847 -0.000216725 1.56039e-05)
(0.000340633 -0.000166466 -5.81966e-06)
(0.000333701 -0.000104317 -3.42998e-05)
(0.000306866 -4.34768e-05 -6.22964e-05)
(0.000266247 8.66018e-06 -8.29704e-05)
(0.000217631 4.92203e-05 -9.24049e-05)
(0.00016488 7.77376e-05 -8.94569e-05)
(0.000110203 9.4589e-05 -7.50187e-05)
(5.52567e-05 0.000100406 -5.15992e-05)
(2.18977e-06 9.64465e-05 -2.31928e-05)
(-4.60304e-05 8.56479e-05 5.01195e-06)
(-8.63895e-05 7.37548e-05 2.75019e-05)
(-0.000117552 6.95088e-05 4.00381e-05)
(-0.000141815 8.28036e-05 4.19071e-05)
(-0.000166215 0.000119629 3.77499e-05)
(-0.000200242 0.000173345 3.39851e-05)
(-0.000244975 0.000220707 3.10332e-05)
(-0.000289991 0.000238389 2.66841e-05)
(-0.000324847 0.000216725 1.56039e-05)
(-0.000340633 0.000166466 -5.81966e-06)
(-0.000333701 0.000104317 -3.42998e-05)
(-0.000306866 4.34768e-05 -6.22964e-05)
(-0.000266247 -8.66018e-06 -8.29704e-05)
(-0.000217631 -4.92203e-05 -9.24049e-05)
(-0.00016488 -7.77376e-05 -8.94569e-05)
(-0.000110203 -9.4589e-05 -7.50187e-05)
(-5.52567e-05 -0.000100406 -5.15992e-05)
(-2.18977e-06 -9.64465e-05 -2.31928e-05)
(4.60304e-05 -8.56479e-05 5.01195e-06)
(8.63895e-05 -7.37548e-05 2.75019e-05)
(0.000117552 -6.95088e-05 4.00381e-05)
(0.000141815 -8.28036e-05 4.19071e-05)
(0.000166215 -0.000119629 3.77499e-05)
(0.000200242 -0.000173345 3.39851e-05)
(0.00111785 -0.000457271 0.000329096)
(0.00103751 -0.000545525 5.04284e-05)
(0.00091473 -0.000614392 -0.000172853)
(0.000785896 -0.000623514 -0.000321361)
(0.000669995 -0.000580748 -0.000406065)
(0.00057592 -0.000509308 -0.000440554)
(0.000506532 -0.000425693 -0.000436171)
(0.000457096 -0.000335202 -0.000402848)
(0.000415283 -0.000236664 -0.000348594)
(0.00036395 -0.000127691 -0.000277973)
(0.000284947 -7.51319e-06 -0.000191006)
(0.000162618 0.000121944 -8.32833e-05)
(-1.3064e-05 0.00025477 5.20326e-05)
(-0.000242652 0.00037813 0.000218827)
(-0.000511206 0.000469727 0.000407212)
(-0.000782116 0.000503995 0.000578107)
(-0.0010007 0.000476243 0.000656619)
(-0.00111699 0.000433344 0.000566861)
(-0.00111785 0.000457271 0.000329096)
(-0.00103751 0.000545525 5.04284e-05)
(-0.00091473 0.000614392 -0.000172853)
(-0.000785896 0.000623514 -0.000321361)
(-0.000669995 0.000580748 -0.000406065)
(-0.00057592 0.000509308 -0.000440554)
(-0.000506532 0.000425693 -0.000436171)
(-0.000457096 0.000335202 -0.000402848)
(-0.000415283 0.000236664 -0.000348594)
(-0.00036395 0.000127691 -0.000277973)
(-0.000284947 7.51319e-06 -0.000191006)
(-0.000162618 -0.000121944 -8.32833e-05)
(1.3064e-05 -0.00025477 5.20326e-05)
(0.000242652 -0.00037813 0.000218827)
(0.000511206 -0.000469727 0.000407212)
(0.000782116 -0.000503995 0.000578107)
(0.0010007 -0.000476243 0.000656619)
(0.00111699 -0.000433344 0.000566861)
(0.00097972 -0.000573074 0.000288201)
(0.000990635 -0.000631835 0.000142836)
(0.000963339 -0.000632821 4.48192e-06)
(0.000902901 -0.000574688 -0.000115932)
(0.000817669 -0.000479461 -0.000211702)
(0.000720758 -0.000371784 -0.000276971)
(0.000623485 -0.0002661 -0.000309028)
(0.000529953 -0.000166494 -0.000308855)
(0.00043637 -7.19315e-05 -0.000279477)
(0.000333917 1.90761e-05 -0.000224091)
(0.00021295 0.000106288 -0.000145189)
(6.69608e-05 0.000187763 -4.48997e-05)
(-0.000104626 0.000260955 7.3649e-05)
(-0.000295237 0.000323594 0.000203854)
(-0.000491328 0.000374032 0.000331699)
(-0.000674059 0.000413024 0.000431311)
(-0.000823872 0.000448672 0.00046623)
(-0.000926024 0.000501018 0.000410675)
(-0.00097972 0.000573074 0.000288201)
(-0.000990635 0.000631835 0.000142836)
(-0.000963339 0.000632821 4.48193e-06)
(-0.000902901 0.000574688 -0.000115932)
(-0.000817669 0.000479461 -0.000211702)
(-0.000720758 0.000371784 -0.000276971)
(-0.000623485 0.0002661 -0.000309028)
(-0.000529953 0.000166494 -0.000308855)
(-0.00043637 7.19315e-05 -0.000279477)
(-0.000333917 -1.90761e-05 -0.000224091)
(-0.00021295 -0.000106288 -0.000145189)
(-6.69608e-05 -0.000187763 -4.48997e-05)
(0.000104626 -0.000260955 7.3649e-05)
(0.000295237 -0.000323594 0.000203854)
(0.000491328 -0.000374032 0.000331699)
(0.000674059 -0.000413024 0.000431311)
(0.000823872 -0.000448672 0.00046623)
(0.000926024 -0.000501018 0.000410675)
(0.000788164 -0.000647652 0.000236158)
(0.000878649 -0.00069571 0.000197363)
(0.000941912 -0.00065465 0.000134997)
(0.000955029 -0.000548021 4.54329e-05)
(0.000914927 -0.000409577 -5.40511e-05)
(0.000833426 -0.000266531 -0.000141837)
(0.000725269 -0.000134309 -0.000202204)
(0.000600716 -1.93781e-05 -0.000227244)
(0.000464213 7.60483e-05 -0.000214989)
(0.000316605 0.00015074 -0.000167487)
(0.000158629 0.000203388 -9.01809e-05)
(-5.86598e-06 0.000233719 7.72673e-06)
(-0.000168382 0.000245344 0.000113002)
(-0.000317205 0.000248901 0.000209412)
(-0.000442054 0.000262719 0.000280608)
(-0.000539894 0.000308114 0.000314357)
(-0.000618598 0.000398927 0.000308087)
(-0.000696082 0.000529284 0.000275187)
(-0.000788164 0.000647652 0.000236158)
(-0.000878649 0.00069571 0.000197363)
(-0.000941912 0.00065465 0.000134997)
(-0.000955029 0.000548021 4.54329e-05)
(-0.000914927 0.000409577 -5.40511e-05)
(-0.000833426 0.000266531 -0.000141837)
(-0.000725269 0.000134309 -0.000202204)
(-0.000600716 1.93781e-05 -0.000227244)
(-0.000464213 -7.60483e-05 -0.000214989)
(-0.000316605 -0.00015074 -0.000167487)
(-0.000158629 -0.000203388 -9.01809e-05)
(5.86597e-06 -0.000233719 7.72673e-06)
(0.000168382 -0.000245344 0.000113002)
(0.000317205 -0.000248901 0.000209412)
(0.000442054 -0.000262719 0.000280608)
(0.000539893 -0.000308114 0.000314357)
(0.000618598 -0.000398927 0.000308087)
(0.000696082 -0.000529284 0.000275187)
(0.00171358 -0.000962006 0.00070943)
(0.00162517 -0.00105027 0.000226329)
(0.00146029 -0.00108172 -0.000203305)
(0.00127384 -0.00103859 -0.000522651)
(0.00109592 -0.000936207 -0.00072739)
(0.000942438 -0.000803599 -0.000832169)
(0.000819885 -0.000660902 -0.00085673)
(0.000723835 -0.000514093 -0.000820016)
(0.00063877 -0.000360545 -0.000736472)
(0.000541509 -0.000195774 -0.000613431)
(0.000406709 -1.75582e-05 -0.000450114)
(0.000212692 0.000172408 -0.000239076)
(-5.32575e-05 0.000367496 2.87204e-05)
(-0.000389784 0.000554044 0.000353612)
(-0.000775507 0.000709947 0.0007109)
(-0.0011639 0.000812019 0.00103213)
(-0.00148714 0.000858615 0.00119996)
(-0.00167741 0.000892356 0.00109346)
(-0.00171358 0.000962006 0.00070943)
(-0.00162517 0.00105027 0.000226329)
(-0.00146029 0.00108172 -0.000203305)
(-0.00127384 0.00103859 -0.000522651)
(-0.00109592 0.000936207 -0.00072739)
(-0.000942438 0.000803599 -0.000832169)
(-0.000819885 0.000660902 -0.00085673)
(-0.000723835 0.000514093 -0.000820016)
(-0.00063877 0.000360545 -0.000736472)
(-0.000541509 0.000195774 -0.000613431)
(-0.000406709 1.75582e-05 -0.000450114)
(-0.000212692 -0.000172408 -0.000239076)
(5.32575e-05 -0.000367496 2.87204e-05)
(0.000389784 -0.000554044 0.000353612)
(0.000775507 -0.000709947 0.0007109)
(0.0011639 -0.000812019 0.00103213)
(0.00148714 -0.000858615 0.00119996)
(0.00167741 -0.000892356 0.00109346)
(0.00152711 -0.0009922 0.000661656)
(0.00154952 -0.00106043 0.00037714)
(0.00150735 -0.00104395 8.63047e-05)
(0.00141264 -0.000947946 -0.000166588)
(0.00128202 -0.000800152 -0.000362331)
(0.00113473 -0.000632221 -0.000492894)
(0.000985346 -0.000463804 -0.000557994)
(0.000838394 -0.000301922 -0.000562357)
(0.000688192 -0.000146899 -0.000512132)
(0.000522607 2.10344e-06 -0.000412234)
(0.000328542 0.000144249 -0.000265702)
(9.74703e-05 0.000276894 -7.52604e-05)
(-0.000170397 0.000397099 0.000153139)
(-0.000464275 0.00050326 0.000405255)
(-0.000763472 0.000596201 0.000652875)
(-0.00104075 0.000681131 0.000850192)
(-0.0012698 0.000770085 0.000938955)
(-0.00143323 0.000876685 0.000871312)
(-0.00152711 0.0009922 0.000661656)
(-0.00154952 0.00106043 0.00037714)
(-0.00150735 0.00104395 8.63047e-05)
(-0.00141264 0.000947946 -0.000166588)
(-0.00128202 0.000800152 -0.000362331)
(-0.00113473 0.000632221 -0.000492894)
(-0.000985346 0.000463804 -0.000557994)
(-0.000838394 0.000301922 -0.000562357)
(-0.000688192 0.000146899 -0.000512132)
(-0.000522607 -2.10343e-06 -0.000412234)
(-0.000328542 -0.000144249 -0.000265702)
(-9.74703e-05 -0.000276894 -7.52604e-05)
(0.000170397 -0.000397099 0.000153139)
(0.000464275 -0.00050326 0.000405255)
(0.000763472 -0.000596201 0.000652875)
(0.00104075 -0.000681131 0.000850192)
(0.0012698 -0.000770085 0.000938955)
(0.00143323 -0.000876685 0.000871312)
(0.00126026 -0.00100253 0.000578406)
(0.00138534 -0.00107209 0.000470699)
(0.00146378 -0.00102985 0.000320494)
(0.0014682 -0.000896148 0.000142765)
(0.00140032 -0.000710383 -3.40545e-05)
(0.00127779 -0.00050785 -0.000181095)
(0.00111911 -0.000310401 -0.000278251)
(0.000935739 -0.000129058 -0.0003157)
(0.000731718 3.04737e-05 -0.000291154)
(0.00050711 0.00016412 -0.000207381)
(0.000262527 0.000268349 -7.18259e-05)
(3.32195e-06 0.000341583 0.000102031)
(-0.000258163 0.000387725 0.000293202)
(-0.000504134 0.000420149 0.000474035)
(-0.000717361 0.000462225 0.000615429)
(-0.000888875 0.000540005 0.000695609)
(-0.00102295 0.000667109 0.000707168)
(-0.00113661 0.000838739 0.000658082)
(-0.00126026 0.00100253 0.000578406)
(-0.00138534 0.00107209 0.000470699)
(-0.00146378 0.00102985 0.000320494)
(-0.0014682 0.000896148 0.000142765)
(-0.00140032 0.000710383 -3.40545e-05)
(-0.00127779 0.00050785 -0.000181095)
(-0.00111911 0.000310401 -0.000278251)
(-0.000935739 0.000129058 -0.0003157)
(-0.000731718 -3.04737e-05 -0.000291154)
(-0.00050711 -0.00016412 -0.000207381)
(-0.000262527 -0.000268349 -7.18259e-05)
(-3.32196e-06 -0.000341583 0.000102031)
(0.000258163 -0.000387725 0.000293202)
(0.000504134 -0.000420149 0.000474035)
(0.000717361 -0.000462225 0.000615429)
(0.000888875 -0.000540005 0.000695609)
(0.00102295 -0.000667109 0.000707168)
(0.00113661 -0.000838739 0.000658082)
(0.00215037 -0.00153957 0.00113403)
(0.00206791 -0.00159317 0.000494616)
(0.00188433 -0.00156989 -0.000128774)
(0.00166119 -0.00147231 -0.000631936)
(0.00144029 -0.00131798 -0.000978297)
(0.00124354 -0.00113368 -0.00117608)
(0.00107831 -0.000938733 -0.00125133)
(0.00093947 -0.00073952 -0.0012305)
(0.000810234 -0.000533604 -0.00113267)
(0.00066534 -0.000316078 -0.000966536)
(0.000476887 -8.41274e-05 -0.000730309)
(0.000221346 0.000160835 -0.000415042)
(-0.000113764 0.000412384 -1.31959e-05)
(-0.000524051 0.000658432 0.000466396)
(-0.000983089 0.000882576 0.000979345)
(-0.00144013 0.00107333 0.00143142)
(-0.00182658 0.00124023 0.00168377)
(-0.00207392 0.00140768 0.00159465)
(-0.00215037 0.00153957 0.00113403)
(-0.00206791 0.00159317 0.000494616)
(-0.00188433 0.00156989 -0.000128774)
(-0.00166119 0.00147231 -0.000631936)
(-0.00144029 0.00131798 -0.000978297)
(-0.00124354 0.00113368 -0.00117608)
(-0.00107831 0.000938733 -0.00125133)
(-0.00093947 0.00073952 -0.0012305)
(-0.000810234 0.000533604 -0.00113267)
(-0.00066534 0.000316078 -0.000966536)
(-0.000476887 8.41274e-05 -0.000730309)
(-0.000221346 -0.000160835 -0.000415042)
(0.000113764 -0.000412384 -1.3196e-05)
(0.000524051 -0.000658432 0.000466396)
(0.000983089 -0.000882576 0.000979345)
(0.00144013 -0.00107333 0.00143142)
(0.00182658 -0.00124023 0.00168377)
(0.00207392 -0.00140768 0.00159465)
(0.00195419 -0.00140422 0.0010589)
(0.00197982 -0.00147039 0.000655853)
(0.00191979 -0.00143282 0.000225495)
(0.0017958 -0.00130769 -0.000158793)
(0.00163152 -0.00112434 -0.000459189)
(0.00144909 -0.000914041 -0.000661919)
(0.00126273 -0.000697437 -0.000768153)
(0.00107555 -0.00048355 -0.000785683)
(0.000880392 -0.000274662 -0.000722932)
(0.000663708 -7.13126e-05 -0.00058585)
(0.000411191 0.000124833 -0.000377833)
(0.000113753 0.00031061 -0.000102714)
(-0.000227621 0.000482829 0.000229436)
(-0.000599467 0.000640306 0.000594947)
(-0.000976515 0.000785693 0.000950615)
(-0.00132607 0.000927515 0.00123429)
(-0.00161742 0.00107995 0.00137706)
(-0.0018313 0.00125051 0.00132326)
(-0.00195419 0.00140422 0.0010589)
(-0.00197982 0.00147039 0.000655853)
(-0.00191979 0.00143282 0.000225495)
(-0.0017958 0.00130769 -0.000158793)
(-0.00163152 0.00112434 -0.000459189)
(-0.00144909 0.000914041 -0.000661919)
(-0.00126273 0.000697437 -0.000768153)
(-0.00107555 0.00048355 -0.000785683)
(-0.000880392 0.000274662 -0.000722932)
(-0.000663708 7.13126e-05 -0.00058585)
(-0.000411191 -0.000124833 -0.000377833)
(-0.000113753 -0.00031061 -0.000102714)
(0.000227621 -0.000482829 0.000229436)
(0.000599467 -0.000640306 0.000594947)
(0.000976515 -0.000785693 0.000950615)
(0.00132607 -0.000927515 0.00123429)
(0.00161742 -0.00107995 0.00137706)
(0.0018313 -0.00125051 0.00132326)
(0.00169625 -0.00129115 0.000940288)
(0.00180921 -0.00137239 0.000760343)
(0.00186649 -0.00133251 0.000526888)
(0.00184657 -0.00118944 0.000270394)
(0.00175212 -0.000981161 2.58393e-05)
(0.00160021 -0.000744049 -0.000172884)
(0.00140808 -0.000502435 -0.000302193)
(0.00118553 -0.000270314 -0.000350721)
(0.000935153 -5.64409e-05 -0.000316001)
(0.000656133 0.000132435 -0.000201507)
(0.000348815 0.000290845 -1.64327e-05)
(1.88505e-05 0.000416071 0.000222097)
(-0.00032038 0.000511498 0.000486486)
(-0.000648882 0.000590281 0.000739398)
(-0.00094568 0.000675037 0.000941142)
(-0.00119638 0.000789279 0.00106248)
(-0.00139822 0.000943115 0.00109491)
(-0.00156033 0.00112401 0.00104977)
(-0.00169625 0.00129115 0.000940288)
(-0.00180921 0.00137239 0.000760343)
(-0.00186649 0.00133251 0.000526888)
(-0.00184657 0.00118944 0.000270394)
(-0.00175212 0.000981161 2.58393e-05)
(-0.00160021 0.000744049 -0.000172884)
(-0.00140808 0.000502435 -0.000302193)
(-0.00118553 0.000270314 -0.000350721)
(-0.000935153 5.64409e-05 -0.000316001)
(-0.000656133 -0.000132435 -0.000201507)
(-0.000348815 -0.000290845 -1.64327e-05)
(-1.88506e-05 -0.000416071 0.000222097)
(0.00032038 -0.000511498 0.000486486)
(0.000648882 -0.000590281 0.000739398)
(0.00094568 -0.000675037 0.000941142)
(0.00119638 -0.000789279 0.00106248)
(0.00139822 -0.000943115 0.00109491)
(0.00156033 -0.00112401 0.00104977)
(0.00241524 -0.00197787 0.00148734)
(0.00235636 -0.00205266 0.000792052)
(0.00217185 -0.00202027 3.62691e-05)
(0.00193041 -0.00190107 -0.000618532)
(0.00168515 -0.00171946 -0.00109571)
(0.00146255 -0.00150137 -0.0013894)
(0.00126846 -0.00126597 -0.00152612)
(0.00109565 -0.00102146 -0.00153583)
(0.000926977 -0.00076758 -0.00143977)
(0.000738056 -0.000500744 -0.00124721)
(0.000502424 -0.000218432 -0.000956323)
(0.000198331 7.84334e-05 -0.000559189)
(-0.000184324 0.000384593 -5.28665e-05)
(-0.000637843 0.000690665 0.000542356)
(-0.00113239 0.000986383 0.00116262)
(-0.00161653 0.001268 0.00169249)
(-0.00202597 0.00154023 0.00198595)
(-0.00230325 0.00179298 0.00192392)
(-0.00241524 0.00197787 0.00148734)
(-0.00235636 0.00205266 0.000792052)
(-0.00217185 0.00202027 3.62692e-05)
(-0.00193041 0.00190107 -0.000618532)
(-0.00168515 0.00171946 -0.00109571)
(-0.00146255 0.00150137 -0.0013894)
(-0.00126846 0.00126597 -0.00152612)
(-0.00109565 0.00102146 -0.00153583)
(-0.000926977 0.00076758 -0.00143977)
(-0.000738056 0.000500744 -0.00124721)
(-0.000502424 0.000218432 -0.000956323)
(-0.000198331 -7.84334e-05 -0.000559189)
(0.000184324 -0.000384592 -5.28665e-05)
(0.000637843 -0.000690665 0.000542356)
(0.00113239 -0.000986383 0.00116262)
(0.00161653 -0.001268 0.00169249)
(0.00202597 -0.00154023 0.00198595)
(0.00230325 -0.00179298 0.00192392)
(0.0022323 -0.00172669 0.00135075)
(0.00225646 -0.00180089 0.000907987)
(0.00218325 -0.00176574 0.000394717)
(0.00203923 -0.00163609 -8.81194e-05)
(0.00185436 -0.00144051 -0.000476777)
(0.00165168 -0.00120839 -0.000746354)
(0.00144312 -0.000960558 -0.000895785)
(0.00122948 -0.000707906 -0.000933444)
(0.0010026 -0.000454959 -0.000868582)
(0.000749071 -0.000203957 -0.000707816)
(0.000455201 4.25878e-05 -0.000455483)
(0.000112585 0.000281299 -0.000117602)
(-0.00027709 0.000508967 0.000290927)
(-0.000699151 0.000724449 0.000737771)
(-0.00112626 0.000930964 0.00116779)
(-0.00152336 0.00113723 0.00150678)
(-0.00185631 0.00135157 0.00167734)
(-0.00209833 0.00156239 0.00162528)
(-0.0022323 0.00172669 0.00135075)
(-0.00225646 0.00180089 0.000907987)
(-0.00218325 0.00176574 0.000394717)
(-0.00203923 0.00163609 -8.81194e-05)
(-0.00185436 0.00144051 -0.000476777)
(-0.00165168 0.00120839 -0.000746354)
(-0.00144312 0.000960558 -0.000895785)
(-0.00122948 0.000707906 -0.000933444)
(-0.0010026 0.000454959 -0.000868582)
(-0.000749071 0.000203957 -0.000707816)
(-0.000455201 -4.25878e-05 -0.000455483)
(-0.000112585 -0.000281299 -0.000117602)
(0.00027709 -0.000508967 0.000290927)
(0.000699151 -0.000724449 0.000737771)
(0.00112626 -0.000930964 0.00116779)
(0.00152336 -0.00113723 0.00150678)
(0.00185631 -0.00135157 0.00167734)
(0.00209833 -0.00156239 0.00162528)
(0.00202979 -0.00152148 0.00119348)
(0.00210929 -0.00158904 0.000981315)
(0.00212901 -0.00155286 0.000707027)
(0.00207943 -0.00141632 0.000402227)
(0.00196252 -0.00120744 0.000110522)
(0.0017914 -0.000958654 -0.000127085)
(0.00157978 -0.000694236 -0.000282327)
(0.00133496 -0.000429666 -0.000341489)
(0.00105794 -0.000175614 -0.000301548)
(0.000747131 5.94262e-05 -0.000166684)
(0.000402414 0.000268765 5.20842e-05)
(2.87541e-05 0.000448812 0.000334397)
(-0.000361514 0.000601657 0.00064763)
(-0.000749035 0.000737683 0.000948147)
(-0.00111162 0.000874472 0.0011905)
(-0.00143036 0.00102861 0.00134118)
(-0.00169312 0.00120334 0.0013869)
(-0.00189332 0.00138 0.00133235)
(-0.00202979 0.00152148 0.00119348)
(-0.00210929 0.00158904 0.000981315)
(-0.00212901 0.00155286 0.000707027)
(-0.00207943 0.00141632 0.000402227)
(-0.00196252 0.00120744 0.000110522)
(-0.0017914 0.000958654 -0.000127085)
(-0.00157978 0.000694236 -0.000282327)
(-0.00133496 0.000429666 -0.000341489)
(-0.00105794 0.000175614 -0.000301548)
(-0.000747131 -5.94262e-05 -0.000166684)
(-0.000402414 -0.000268765 5.20842e-05)
(-2.87542e-05 -0.000448812 0.000334397)
(0.000361514 -0.000601657 0.00064763)
(0.000749035 -0.000737683 0.000948147)
(0.00111162 -0.000874472 0.0011905)
(0.00143036 -0.00102861 0.00134118)
(0.00169312 -0.00120334 0.0013869)
(0.00189332 -0.00138 0.00133235)
(0.00251064 -0.0022657 0.001678)
(0.00247674 -0.00238645 0.00100785)
(0.00231109 -0.0023869 0.000220982)
(0.00207375 -0.00228514 -0.00051103)
(0.00182266 -0.00210679 -0.00107848)
(0.00158923 -0.00187761 -0.00145147)
(0.001379 -0.00161813 -0.00164702)
(0.00118292 -0.00134002 -0.00169278)
(0.000983931 -0.00104677 -0.00160971)
(0.000760168 -0.000737445 -0.0014076)
(0.000488979 -0.000410483 -0.00108635)
(0.000152625 -6.62878e-05 -0.000641782)
(-0.000255371 0.000291358 -7.78659e-05)
(-0.000724146 0.00065526 0.000574121)
(-0.00122202 0.00101786 0.00123761)
(-0.00169988 0.00137505 0.00179167)
(-0.00210257 0.00172082 0.00210196)
(-0.00238329 0.0020316 0.00207011)
(-0.00251064 0.0022657 0.001678)
(-0.00247674 0.00238645 0.00100785)
(-0.00231109 0.0023869 0.000220982)
(-0.00207375 0.00228514 -0.00051103)
(-0.00182266 0.00210679 -0.00107848)
(-0.00158923 0.00187761 -0.00145147)
(-0.001379 0.00161813 -0.00164702)
(-0.00118292 0.00134002 -0.00169278)
(-0.000983931 0.00104677 -0.00160971)
(-0.000760168 0.000737445 -0.0014076)
(-0.000488979 0.000410483 -0.00108635)
(-0.000152625 6.62878e-05 -0.000641782)
(0.000255371 -0.000291358 -7.78659e-05)
(0.000724146 -0.00065526 0.000574121)
(0.00122202 -0.00101786 0.00123761)
(0.00169988 -0.00137505 0.00179167)
(0.00210257 -0.00172082 0.00210196)
(0.00238329 -0.0020316 0.00207011)
(0.0023546 -0.00194884 0.00152071)
(0.00237735 -0.00203963 0.0010809)
(0.00229941 -0.0020257 0.000547345)
(0.00214852 -0.00191477 2.00426e-05)
(0.00195635 -0.00172947 -0.000422751)
(0.00174598 -0.00149561 -0.000741896)
(0.00152736 -0.00123383 -0.000928722)
(0.00129937 -0.000956984 -0.000988633)
(0.00105353 -0.000672072 -0.000930094)
(0.000777545 -0.000383201 -0.000760235)
(0.000459613 -9.37265e-05 -0.000485187)
(9.29646e-05 0.000192933 -0.000114264)
(-0.0003198 0.000473593 0.000332605)
(-0.00076353 0.000746394 0.000816541)
(-0.0012102 0.00101245 0.00127604)
(-0.00162365 0.00127548 0.00163431)
(-0.00196845 0.00153411 0.00181827)
(-0.00221745 0.00176973 0.00178139)
(-0.0023546 0.00194884 0.00152071)
(-0.00237735 0.00203963 0.0010809)
(-0.00229941 0.0020257 0.000547345)
(-0.00214852 0.00191477 2.00426e-05)
(-0.00195635 0.00172947 -0.000422751)
(-0.00174598 0.00149561 -0.000741896)
(-0.00152736 0.00123383 -0.000928722)
(-0.00129937 0.000956984 -0.000988633)
(-0.00105353 0.000672072 -0.000930094)
(-0.000777545 0.000383201 -0.000760235)
(-0.000459613 9.37265e-05 -0.000485187)
(-9.29646e-05 -0.000192933 -0.000114264)
(0.0003198 -0.000473593 0.000332605)
(0.00076353 -0.000746394 0.000816541)
(0.0012102 -0.00101245 0.00127604)
(0.00162365 -0.00127548 0.00163431)
(0.00196845 -0.00153411 0.00181827)
(0.00221745 -0.00176973 0.00178139)
(0.00220422 -0.00168346 0.00135099)
(0.00226168 -0.00173732 0.00112517)
(0.0022515 -0.00170508 0.000836599)
(0.0021775 -0.00158387 0.000514848)
(0.00204483 -0.00138971 0.000202335)
(0.00186339 -0.00114716 -5.6614e-05)
(0.0016432 -0.000878005 -0.000228916)
(0.0013892 -0.000597911 -0.000297461)
(0.00110132 -0.000318523 -0.00025792)
(0.000777539 -4.9248e-05 -0.000114896)
(0.000417452 0.000202601 0.000118853)
(2.5132e-05 0.000432705 0.000420205)
(-0.000388746 0.000641242 0.000753275)
(-0.000806465 0.000834131 0.00107184)
(-0.00120551 0.00102129 0.00132962)
(-0.00156233 0.00120993 0.00149306)
(-0.00185582 0.00139609 0.00154787)
(-0.00207105 0.00156204 0.00149652)
(-0.00220422 0.00168346 0.00135099)
(-0.00226168 0.00173732 0.00112517)
(-0.0022515 0.00170508 0.000836599)
(-0.0021775 0.00158387 0.000514848)
(-0.00204483 0.00138971 0.000202335)
(-0.00186339 0.00114716 -5.6614e-05)
(-0.0016432 0.000878005 -0.000228916)
(-0.0013892 0.000597911 -0.000297461)
(-0.00110132 0.000318523 -0.00025792)
(-0.000777539 4.92481e-05 -0.000114896)
(-0.000417452 -0.000202601 0.000118853)
(-2.5132e-05 -0.000432705 0.000420205)
(0.000388746 -0.000641242 0.000753275)
(0.000806465 -0.000834131 0.00107184)
(0.00120551 -0.00102129 0.00132962)
(0.00156233 -0.00120993 0.00149306)
(0.00185582 -0.00139609 0.00154787)
(0.00207105 -0.00156204 0.00149652)
(0.00245791 -0.00242415 0.00170868)
(0.00244227 -0.00259777 0.00110663)
(0.00230467 -0.00265163 0.00036548)
(0.00209048 -0.00259343 -0.000364612)
(0.00185126 -0.00244308 -0.000966086)
(0.00162007 -0.00222442 -0.00138702)
(0.00140442 -0.0019591 -0.00162735)
(0.00119554 -0.00166239 -0.00170627)
(0.000977496 -0.00134204 -0.00164182)
(0.000731651 -0.00100038 -0.00144414)
(0.000440068 -0.0006374 -0.00111617)
(8.99078e-05 -0.000253528 -0.000659331)
(-0.000321146 0.000148173 -8.54152e-05)
(-0.000779441 0.000561261 0.000566155)
(-0.00125334 0.000977983 0.00121563)
(-0.00169879 0.0013909 0.00175014)
(-0.0020706 0.0017878 0.00205363)
(-0.00233184 0.00214383 0.00204503)
(-0.00245791 0.00242415 0.00170868)
(-0.00244227 0.00259777 0.00110663)
(-0.00230467 0.00265163 0.00036548)
(-0.00209048 0.00259343 -0.000364612)
(-0.00185126 0.00244308 -0.000966086)
(-0.00162007 0.00222442 -0.00138702)
(-0.00140442 0.0019591 -0.00162735)
(-0.00119554 0.00166239 -0.00170627)
(-0.000977496 0.00134204 -0.00164182)
(-0.000731651 0.00100038 -0.00144414)
(-0.000440068 0.0006374 -0.00111617)
(-8.99078e-05 0.000253528 -0.000659331)
(0.000321146 -0.000148173 -8.54152e-05)
(0.000779441 -0.000561261 0.000566155)
(0.00125334 -0.000977983 0.00121563)
(0.00169879 -0.0013909 0.00175014)
(0.0020706 -0.0017878 0.00205363)
(0.00233184 -0.00214383 0.00204503)
(0.00232929 -0.00207496 0.00156543)
(0.00235267 -0.00219177 0.00116139)
(0.0022801 -0.00221057 0.000654646)
(0.00213602 -0.00213314 0.000133367)
(0.00194934 -0.00197451 -0.000323676)
(0.00174198 -0.0017555 -0.000667415)
(0.00152309 -0.00149554 -0.000879237)
(0.00129104 -0.00120902 -0.000958578)
(0.00103784 -0.000905265 -0.000911484)
(0.000753107 -0.00059024 -0.000745259)
(0.000427557 -0.000268238 -0.000468253)
(5.66981e-05 5.70601e-05 -9.35463e-05)
(-0.000355473 0.000382024 0.000354534)
(-0.000793349 0.000703181 0.000833837)
(-0.00122942 0.0010181 0.00128337)
(-0.00162925 0.00132468 0.00163231)
(-0.00196012 0.00161599 0.00181658)
(-0.00219791 0.00187466 0.00179577)
(-0.00232929 0.00207496 0.00156543)
(-0.00235267 0.00219177 0.00116139)
(-0.0022801 0.00221057 0.000654646)
(-0.00213602 0.00213314 0.000133367)
(-0.00194934 0.00197451 -0.000323676)
(-0.00174198 0.0017555 -0.000667415)
(-0.00152309 0.00149554 -0.000879237)
(-0.00129104 0.00120902 -0.000958578)
(-0.00103784 0.000905265 -0.000911484)
(-0.000753107 0.00059024 -0.000745259)
(-0.000427557 0.000268238 -0.000468253)
(-5.66981e-05 -5.70601e-05 -9.35464e-05)
(0.000355473 -0.000382024 0.000354534)
(0.000793349 -0.000703181 0.000833837)
(0.00122942 -0.0010181 0.00128337)
(0.00162925 -0.00132468 0.00163231)
(0.00196012 -0.00161599 0.00181658)
(0.00219791 -0.00187466 0.00179577)
(0.00222639 -0.00177731 0.00140917)
(0.00227155 -0.00182905 0.00119168)
(0.0022458 -0.00180612 0.000911609)
(0.002159 -0.00170511 0.000597341)
(0.00201956 -0.00153424 0.000287733)
(0.00183617 -0.00130989 2.593e-05)
(0.0016163 -0.00104955 -0.000152638)
(0.00136333 -0.000767879 -0.000227705)
(0.00107673 -0.000476748 -0.000193125)
(0.000754658 -0.000185931 -5.34209e-05)
(0.000396817 9.69097e-05 0.000177347)
(6.84682e-06 0.000366615 0.000474163)
(-0.000405718 0.000620985 0.000800021)
(-0.00082451 0.000860921 0.00111)
(-0.00122736 0.00108878 0.00136158)
(-0.00158902 0.00130409 0.00152486)
(-0.00188544 0.00149975 0.00158614)
(-0.00209961 0.0016626 0.00154498)
(-0.00222639 0.00177731 0.00140917)
(-0.00227155 0.00182905 0.00119168)
(-0.0022458 0.00180612 0.000911609)
(-0.002159 0.00170511 0.000597341)
(-0.00201956 0.00153424 0.000287733)
(-0.00183617 0.00130989 2.593e-05)
(-0.0016163 0.00104955 -0.000152638)
(-0.00136333 0.000767879 -0.000227705)
(-0.00107673 0.000476748 -0.000193125)
(-0.000754658 0.000185931 -5.34209e-05)
(-0.000396817 -9.69097e-05 0.000177347)
(-6.84685e-06 -0.000366615 0.000474163)
(0.000405718 -0.000620985 0.000800021)
(0.00082451 -0.000860921 0.00111)
(0.00122736 -0.00108878 0.00136158)
(0.00158902 -0.00130409 0.00152486)
(0.00188544 -0.00149975 0.00158614)
(0.00209961 -0.0016626 0.00154498)
(0.00228593 -0.00247923 0.00160277)
(0.00228069 -0.00270292 0.00109035)
(0.00217188 -0.00281278 0.000440136)
(0.00199106 -0.00280753 -0.000228381)
(0.00177725 -0.002699 -0.000809348)
(0.00155968 -0.00250689 -0.00124036)
(0.00134793 -0.00225237 -0.00150401)