/*--------------------------------*- C++ -*----------------------------------*\
| =========                 |                                                 |
| \\      /  F ield         | OpenFOAM: The Open Source CFD Toolbox           |
|  \\    /   O peration     | Version:  2312                                  |
|   \\  /    A nd           | Website:  www.openfoam.com                      |
|    \\/     M anipulation  |                                                 |
\*---------------------------------------------------------------------------*/
FoamFile
{
    version     2.0;
    format      ascii;
    arch        "LSB;label=32;scalar=64";
    class       volVectorField;
    location    "0.5";
    object      D_0_0_0;
}
// * * * * * * * * * * * * * * * * * * * * * * * * * * * * * * * * * * * * * //

dimensions      [0 1 0 0 0 0 0];

internalField   nonuniform List<vector> 
1620
(
(-0.000125442 1.66153e-05 -0.000111574)
(-9.88971e-05 8.71169e-05 -9.82006e-05)
(-6.39405e-05 0.000140646 -7.4597e-05)
(-2.52991e-05 0.00017978 -4.33468e-05)
(1.55249e-05 0.000211464 -3.72289e-06)
(5.51464e-05 0.000243247 4.58198e-05)
(8.65508e-05 0.000280379 0.000107198)
(0.00010039 0.000322141 0.00017951)
(9.8294e-05 0.000356245 0.000243993)
(8.12881e-05 0.000373545 0.000241862)
(5.24142e-05 0.00036951 0.000182825)
(3.28783e-05 0.000350598 0.00012199)
(2.80418e-05 0.000327954 7.03942e-05)
(3.1909e-05 0.000304467 2.74097e-05)
(3.90965e-05 0.000277279 -8.72561e-06)
(4.68839e-05 0.00024116 -3.96003e-05)
(5.35208e-05 0.000190899 -6.61745e-05)
(5.29612e-05 0.00012419 -8.52198e-05)
(3.79898e-05 4.69431e-05 -8.3983e-05)
(1.12449e-05 -2.41831e-05 -6.34769e-05)
(-1.69895e-05 -8.17532e-05 -3.84585e-05)
(-4.15186e-05 -0.000125947 -1.23155e-05)
(-6.27466e-05 -0.000160476 1.63225e-05)
(-8.1405e-05 -0.000191305 5.06427e-05)
(-9.53671e-05 -0.000224639 9.58156e-05)
(-9.89122e-05 -0.000262666 0.000156362)
(-9.58054e-05 -0.00029518 0.000219189)
(-8.3676e-05 -0.000313133 0.000223652)
(-6.30293e-05 -0.000310757 0.000175491)
(-5.35061e-05 -0.000294248 0.000122024)
(-5.97355e-05 -0.000273384 7.32315e-05)
(-7.57837e-05 -0.000250748 2.96769e-05)
(-9.53234e-05 -0.000223394 -9.25254e-06)
(-0.000114229 -0.00018581 -4.45052e-05)
(-0.000129807 -0.000132594 -7.69254e-05)
(-0.000135959 -6.21405e-05 -0.000103637)
(-1.20327e-05 -3.5559e-06 -5.89637e-05)
(3.56583e-07 6.73002e-05 -3.79982e-05)
(1.01151e-05 0.000117261 -1.82079e-05)
(1.93358e-05 0.000149757 4.43426e-06)
(2.98291e-05 0.000168154 3.06622e-05)
(4.15682e-05 0.000177815 5.89953e-05)
(5.35333e-05 0.000183392 8.7181e-05)
(6.53038e-05 0.00018825 0.000112222)
(7.91235e-05 0.000196082 0.000129177)
(8.70995e-05 0.000210015 0.00012956)
(8.7803e-05 0.000227937 0.000115653)
(8.07943e-05 0.000244819 9.49047e-05)
(7.04203e-05 0.00025807 7.16377e-05)
(5.70643e-05 0.000265052 4.82725e-05)
(4.00322e-05 0.000261591 2.66218e-05)
(1.92392e-05 0.000242503 7.69908e-06)
(-3.57713e-06 0.000204026 -9.5131e-06)
(-2.61728e-05 0.000140375 -2.81339e-05)
(-4.27142e-05 6.09598e-05 -2.50423e-05)
(-5.13458e-05 -8.24001e-06 -2.58341e-06)
(-5.55705e-05 -5.84108e-05 1.44201e-05)
(-5.70932e-05 -9.25337e-05 3.07439e-05)
(-5.80421e-05 -0.000113044 4.82311e-05)
(-5.96196e-05 -0.000124329 6.68743e-05)
(-6.26634e-05 -0.000130386 8.63866e-05)
(-6.86047e-05 -0.000134308 0.00010578)
(-8.08615e-05 -0.000140065 0.000120692)
(-9.17499e-05 -0.00015123 0.000120934)
(-9.83929e-05 -0.000167468 0.000107854)
(-0.000100174 -0.000184704 8.75696e-05)
(-9.96319e-05 -0.000199826 6.35281e-05)
(-9.57695e-05 -0.000209321 3.8053e-05)
(-8.67105e-05 -0.000208029 1.30799e-05)
(-7.15774e-05 -0.000189885 -1.02112e-05)
(-5.18598e-05 -0.000150633 -3.26229e-05)
(-3.01655e-05 -8.51387e-05 -5.71771e-05)
(6.52709e-05 -2.86913e-05 4.43119e-06)
(6.30573e-05 3.88848e-05 1.5974e-05)
(4.80833e-05 8.46224e-05 2.82606e-05)
(3.03893e-05 0.00010776 4.08681e-05)
(1.55192e-05 0.000112134 5.32189e-05)
(6.95521e-06 0.000103907 6.22651e-05)
(8.15137e-06 8.98669e-05 6.32962e-05)
(2.32705e-05 7.73248e-05 5.2835e-05)
(5.69441e-05 7.41662e-05 3.60451e-05)
(0.00010078 8.4522e-05 3.63748e-05)
(0.000129604 0.000109838 5.53617e-05)
(0.000138191 0.000145834 6.52933e-05)
(0.000129028 0.00018399 6.42893e-05)
(0.00010538 0.000216411 5.73174e-05)
(6.99737e-05 0.000235662 4.91858e-05)
(2.57417e-05 0.000234396 4.29272e-05)
(-2.17869e-05 0.000206751 3.91742e-05)
(-6.07604e-05 0.000150797 3.72238e-05)
(-7.7772e-05 8.06917e-05 4.10949e-05)
(-7.22939e-05 1.76916e-05 4.87917e-05)
(-5.61321e-05 -2.42781e-05 5.48597e-05)
(-3.88233e-05 -4.57104e-05 6.08348e-05)
(-2.47269e-05 -5.09695e-05 6.73636e-05)
(-1.6174e-05 -4.55305e-05 7.20534e-05)
(-1.626e-05 -3.44528e-05 7.02792e-05)
(-2.9869e-05 -2.32775e-05 5.78462e-05)
(-6.22685e-05 -1.95325e-05 3.86352e-05)
(-0.00010546 -2.87258e-05 3.50979e-05)
(-0.000135659 -5.38006e-05 4.97414e-05)
(-0.00014931 -9.07575e-05 5.58438e-05)
(-0.00014636 -0.000131453 5.15114e-05)
(-0.000127648 -0.000167311 4.11664e-05)
(-9.45202e-05 -0.000189604 2.90578e-05)
(-4.97206e-05 -0.000189847 1.78558e-05)
(5.90537e-07 -0.000161668 8.33575e-06)
(4.379e-05 -0.000103343 1.40865e-06)
(-0.000264282 3.89192e-05 -0.00030806)
(-0.000210288 0.000259303 -0.000274687)
(-0.0001469 0.000422611 -0.000204415)
(-7.63922e-05 0.000531014 -0.000108612)
(1.4435e-06 0.000602718 1.14677e-05)
(8.18835e-05 0.000658828 0.000158217)
(0.000154246 0.000715926 0.000332513)
(0.000206202 0.000779811 0.000522404)
(0.000240004 0.00083843 0.000677358)
(0.000253853 0.000879224 0.000695145)
(0.000231303 0.000895601 0.000575906)
(0.000204007 0.000893015 0.000419572)
(0.000186654 0.000880104 0.000270257)
(0.000176316 0.000854844 0.000139277)
(0.000166832 0.0008064 2.65497e-05)
(0.000154068 0.000719202 -7.08763e-05)
(0.000135477 0.000577682 -0.000152955)
(0.000105016 0.000377187 -0.000207349)
(6.08909e-05 0.000145146 -0.000207105)
(9.02444e-06 -6.90849e-05 -0.000153947)
(-4.13837e-05 -0.000233157 -8.03919e-05)
(-8.52967e-05 -0.000347226 -6.94052e-07)
(-0.000124364 -0.000424969 8.61746e-05)
(-0.000160155 -0.000484096 0.000188578)
(-0.000191186 -0.000540965 0.000317031)
(-0.000214002 -0.000604124 0.000472397)
(-0.000237782 -0.000663792 0.000616215)
(-0.00025921 -0.000707175 0.000648548)
(-0.000258249 -0.000727286 0.000554165)
(-0.000260365 -0.00073018 0.000415615)
(-0.000275937 -0.000723106 0.000272537)
(-0.000298915 -0.000702548 0.000137735)
(-0.00031931 -0.000655789 1.3968e-05)
(-0.000329584 -0.00056545 -9.95236e-05)
(-0.000326031 -0.000415361 -0.000201968)
(-0.000304244 -0.000202796 -0.000281303)
(-7.44133e-05 -2.02828e-05 -0.000179645)
(-3.9433e-05 0.000187246 -0.000131298)
(-1.26614e-05 0.000336954 -6.42406e-05)
(1.35726e-05 0.000433694 1.69674e-05)
(4.48303e-05 0.000489441 0.000110417)
(8.21276e-05 0.000520754 0.000212345)
(0.000123762 0.000542544 0.000316051)
(0.000168516 0.000565173 0.000409984)
(0.000217714 0.000594449 0.000474706)
(0.000257905 0.000633822 0.00048628)
(0.00027496 0.000680675 0.000443974)
(0.000267918 0.000726162 0.000369977)
(0.000244725 0.000763172 0.000283576)
(0.000208248 0.000782598 0.00019633)
(0.000159038 0.000771254 0.000114776)
(9.86708e-05 0.000713593 4.2144e-05)
(3.25192e-05 0.000596856 -2.0366e-05)
(-3.14804e-05 0.000411619 -6.79207e-05)
(-7.93182e-05 0.00018921 -6.22721e-05)
(-0.000106479 -1.17692e-05 -8.4334e-06)
(-0.000120783 -0.000158913 5.08405e-05)
(-0.000128557 -0.000257163 0.000112029)
(-0.000135609 -0.000316833 0.000176394)
(-0.000145627 -0.000352178 0.000244849)
(-0.000161602 -0.000376251 0.000316801)
(-0.00018757 -0.000398498 0.000387244)
(-0.00022874 -0.00042481 0.000440862)
(-0.000273285 -0.000460047 0.000452243)
(-0.000305649 -0.000505175 0.000414345)
(-0.000322598 -0.000553406 0.000343409)
(-0.000327068 -0.000596713 0.000255406)
(-0.000317413 -0.000623781 0.000161204)
(-0.000290405 -0.000618608 6.77765e-05)
(-0.000245311 -0.000563072 -2.0797e-05)
(-0.00018718 -0.00044314 -0.000102073)
(-0.000125388 -0.000250869 -0.000169416)
(8.18888e-05 -8.5546e-05 -3.43787e-05)
(9.90396e-05 0.000102802 8.34078e-06)
(9.15422e-05 0.000240608 6.68393e-05)
(7.64111e-05 0.000325029 0.000131645)
(6.47087e-05 0.000365109 0.00019703)
(6.41129e-05 0.000375186 0.000253887)
(8.14975e-05 0.000371033 0.000289584)
(0.000123175 0.000368542 0.000294773)
(0.000195001 0.000382404 0.000280638)
(0.000274279 0.000420329 0.000288269)
(0.000327672 0.000482872 0.000311145)
(0.000342132 0.000561083 0.000311698)
(0.000317855 0.000638824 0.000285052)
(0.000260323 0.000698845 0.000240896)
(0.000175955 0.000723375 0.000191335)
(7.29278e-05 0.000694878 0.000145471)
(-3.52918e-05 0.00060001 0.000108738)
(-0.000125792 0.000437279 8.77205e-05)
(-0.000176055 0.000239507 9.70296e-05)
(-0.000183819 5.89872e-05 0.000130985)
(-0.000166851 -7.22991e-05 0.000171148)
(-0.000142701 -0.000153268 0.000212658)
(-0.000121788 -0.00019375 0.000253571)
(-0.000111139 -0.000206833 0.000287631)
(-0.000118196 -0.000205339 0.000304035)
(-0.000151318 -0.000202383 0.000294029)
(-0.000218135 -0.000212571 0.000268824)
(-0.000296224 -0.000246666 0.000266448)
(-0.0003563 -0.000308096 0.00027841)
(-0.000386622 -0.000389165 0.000269111)
(-0.000382182 -0.00047403 0.000233214)
(-0.000342997 -0.00054352 0.000178577)
(-0.000271969 -0.000576662 0.000115642)
(-0.000176207 -0.000553099 5.29779e-05)
(-6.96536e-05 -0.000458286 -2.43019e-06)
(2.42684e-05 -0.00029132 -3.90224e-05)
(-0.000382294 2.6872e-05 -0.000450832)
(-0.000303616 0.000370546 -0.000407981)
(-0.000214918 0.00063073 -0.000296341)
(-0.000115335 0.000807417 -0.000133044)
(-4.54612e-06 0.000924909 7.72089e-05)
(0.000110573 0.00101207 0.000333573)
(0.000217242 0.00109197 0.000629193)
(0.000302855 0.00117542 0.000936129)
(0.000367577 0.00125666 0.001184)
(0.000408112 0.00132532 0.00124996)
(0.000402879 0.00137086 0.00110145)
(0.000371724 0.00139231 0.000859396)
(0.000340037 0.00139301 0.00060372)
(0.000311843 0.00136582 0.000367344)
(0.000282829 0.00129515 0.000160617)
(0.000247048 0.00115968 -1.50793e-05)
(0.000200225 0.000938469 -0.000156051)
(0.000138492 0.000627525 -0.000243761)
(6.62601e-05 0.000270068 -0.000248149)
(-7.73918e-06 -6.224e-05 -0.000172362)
(-7.70186e-05 -0.000319262 -5.53752e-05)
(-0.000138665 -0.000499321 8.01411e-05)
(-0.000194457 -0.000622361 0.000232333)
(-0.000245313 -0.000713507 0.000410262)
(-0.00029046 -0.000794842 0.000623058)
(-0.000329858 -0.000879119 0.000862821)
(-0.00037332 -0.000963098 0.00107908)
(-0.000420165 -0.00103651 0.00115828)
(-0.000448207 -0.00108838 0.00104545)
(-0.000463339 -0.00111801 0.000831412)
(-0.000484114 -0.00112837 0.000586085)
(-0.000508313 -0.00110997 0.000342919)
(-0.000525231 -0.00104386 0.000116149)
(-0.000523951 -0.000905742 -8.92217e-05)
(-0.000499054 -0.000673678 -0.000267792)
(-0.000449564 -0.000346119 -0.000400213)
(-0.00016225 -5.61655e-05 -0.000265849)
(-0.00010039 0.000260115 -0.000199298)
(-4.88232e-05 0.000494539 -8.49434e-05)
(3.06954e-06 0.000651863 6.19231e-05)
(6.22137e-05 0.000748935 0.000234262)
(0.00012931 0.000809093 0.000423761)
(0.00020133 0.0008539 0.000616812)
(0.000275176 0.000898634 0.000791247)
(0.000349746 0.000951397 0.000914461)
(0.000411722 0.00101565 0.000949139)
(0.000444291 0.00108941 0.000886539)
(0.00043949 0.00116184 0.000758995)
(0.000406632 0.00121969 0.000601363)
(0.000351605 0.00124766 0.000437575)
(0.000277064 0.00122603 0.000282366)
(0.000186001 0.00113279 0.000144423)
(8.58537e-05 0.00095022 3.05755e-05)
(-1.18451e-05 0.000668734 -4.35086e-05)
(-8.95587e-05 0.000335942 -3.81515e-05)
(-0.000140559 3.06146e-05 3.87638e-05)
(-0.000172995 -0.000198522 0.000140151)
(-0.000196146 -0.000355986 0.000251484)
(-0.000217825 -0.000456865 0.000370491)
(-0.000242838 -0.000521793 0.000496989)
(-0.000274858 -0.000569967 0.000628116)
(-0.000318262 -0.000615366 0.000753355)
(-0.000377831 -0.000665834 0.000849078)
(-0.000444184 -0.000725909 0.000878455)
(-0.00049958 -0.00079797 0.000822068)
(-0.000531205 -0.000875001 0.000700002)
(-0.000541066 -0.000942807 0.000539736)
(-0.000528038 -0.000982898 0.000363071)
(-0.000488755 -0.000971275 0.000185341)
(-0.000422457 -0.000881825 1.7111e-05)
(-0.000336063 -0.000694767 -0.000131958)
(-0.000243134 -0.000402431 -0.000242362)
(3.61789e-05 -0.000145477 -6.21298e-05)
(8.0786e-05 0.000136255 9.5339e-06)
(9.64458e-05 0.000348577 0.000119676)
(0.00010222 0.00048697 0.000247964)
(0.000111383 0.000563523 0.00038074)
(0.000133144 0.000597906 0.000502208)
(0.000174404 0.000611985 0.000593245)
(0.000239838 0.000626922 0.000638626)
(0.000330454 0.000661305 0.00064475)
(0.000426628 0.000726504 0.000656861)
(0.00049479 0.000821508 0.000670744)
(0.000514466 0.000933663 0.00065022)
(0.000482306 0.00104155 0.000588537)
(0.000403303 0.00112113 0.0004977)
(0.000286164 0.00114688 0.000395536)
(0.00014333 0.00109409 0.000298206)
(-6.16093e-06 0.00094522 0.000219497)
(-0.000134209 0.00070101 0.000176347)
(-0.000215505 0.000407832 0.00018909)
(-0.000246431 0.000137327 0.000248761)
(-0.000245127 -6.67016e-05 0.000328305)
(-0.000232299 -0.000200868 0.000413941)
(-0.000221942 -0.000277817 0.000498588)
(-0.000223836 -0.000315666 0.000572457)
(-0.00024634 -0.000332842 0.000621328)
(-0.000296678 -0.000347122 0.00063293)
(-0.000378505 -0.000376445 0.000614155)
(-0.000474298 -0.000435768 0.00060718)
(-0.000554167 -0.000528328 0.000603455)
(-0.000597973 -0.000644418 0.000567136)
(-0.000596394 -0.000763018 0.000489287)
(-0.000547111 -0.000857188 0.000378543)
(-0.00045353 -0.00089648 0.000250319)
(-0.000325872 -0.000851502 0.000120836)
(-0.000183109 -0.000702503 7.57725e-06)
(-5.36003e-05 -0.000450968 -6.41464e-05)
(-0.000490939 -2.96669e-05 -0.00047465)
(-0.000388652 0.0003975 -0.000439726)
(-0.000275185 0.000733455 -0.000307286)
(-0.000148823 0.000973388 -9.44045e-05)
(-1.00734e-05 0.00114096 0.00019017)
(0.000133255 0.0012666 0.000538751)
(0.000268465 0.0013761 0.000933954)
(0.000383636 0.00148473 0.00133518)
(0.0004754 0.0015947 0.00166414)
(0.000543521 0.00169826 0.00179128)
(0.000568475 0.00177843 0.00165238)
(0.000538202 0.00182669 0.00136222)
(0.00049164 0.0018426 0.0010255)
(0.000441506 0.00181321 0.000697587)
(0.000388615 0.00172035 0.000405113)
(0.000327723 0.00154203 0.000159422)
(0.000253889 0.001259 -3.00544e-05)
(0.000165137 0.000872857 -0.000143646)
(6.8101e-05 0.000434632 -0.000158293)
(-2.7194e-05 2.31491e-05 -7.88929e-05)
(-0.00011499 -0.000304589 6.0248e-05)
(-0.000194162 -0.000542521 0.000234056)
(-0.000266507 -0.000710977 0.000436784)
(-0.000332526 -0.000837457 0.000673703)
(-0.000392131 -0.000946779 0.000948463)
(-0.000447163 -0.00105562 0.00124636)
(-0.000505013 -0.00116906 0.00151514)
(-0.000572477 -0.00128052 0.0016422)
(-0.000636108 -0.00137201 0.00154488)
(-0.00066517 -0.00143276 0.00129114)
(-0.000686741 -0.00146269 0.00096913)
(-0.000704273 -0.00144647 0.000633057)
(-0.00071074 -0.00136188 0.000313051)
(-0.000695333 -0.00118345 2.485e-05)
(-0.000651803 -0.000890559 -0.000219054)
(-0.000580918 -0.000486909 -0.000396219)
(-0.000275198 -0.000117733 -0.000255555)
(-0.000184405 0.000270918 -0.000187081)
(-0.000102035 0.00057067 -4.31834e-05)
(-1.77565e-05 0.000782701 0.000154547)
(7.44054e-05 0.000925159 0.000393525)
(0.000173757 0.00102355 0.000659566)
(0.000275559 0.00110203 0.000931577)
(0.000374784 0.00117824 0.00117849)
(0.000468717 0.00126181 0.00135886)
(0.000547895 0.00135429 0.00142545)
(0.000595078 0.00145313 0.00136159)
(0.00059308 0.00154777 0.00120108)
(0.000552606 0.0016194 0.000988268)
(0.000483182 0.00164878 0.000758804)
(0.000390103 0.00161308 0.000537708)
(0.000277596 0.00148821 0.000341878)
(0.000153612 0.00125572 0.000185551)
(3.06786e-05 0.000911134 9.1582e-05)
(-7.38861e-05 0.000509391 9.14063e-05)
(-0.000151951 0.000135339 0.000175036)
(-0.000209575 -0.000156124 0.000301028)
(-0.000256591 -0.000365474 0.000448242)
(-0.000300975 -0.000509218 0.000610057)
(-0.000347167 -0.000610525 0.000783321)
(-0.000397956 -0.000691428 0.000961667)
(-0.00045664 -0.000768353 0.00113003)
(-0.000527716 -0.000850787 0.00126035)
(-0.000608347 -0.000940458 0.00130989)
(-0.000682036 -0.00103895 0.00125055)
(-0.00072538 -0.00114062 0.00109698)
(-0.000739209 -0.00122565 0.000881016)
(-0.000723919 -0.00127103 0.000633785)
(-0.000677265 -0.00124888 0.000380354)
(-0.00059874 -0.00113011 0.000140275)
(-0.000495343 -0.000893614 -6.76291e-05)
(-0.000381395 -0.000536473 -0.000214149)
(-6.71314e-05 -0.000211452 -2.04172e-05)
(9.10021e-06 0.000132218 6.71778e-05)
(5.90587e-05 0.000399329 0.000214787)
(0.000100541 0.000584054 0.000394956)
(0.000145494 0.00070021 0.000587094)
(0.000201012 0.000769897 0.000769602)
(0.000270826 0.000817048 0.000918175)
(0.000356321 0.000863268 0.00101195)
(0.00045521 0.000926069 0.00104922)
(0.000559271 0.00101812 0.00106678)
(0.000632742 0.00113745 0.00107098)
(0.00065444 0.00127031 0.00103296)
(0.000618987 0.00139325 0.000942283)
(0.000530283 0.00147945 0.000811675)
(0.000397393 0.00149972 0.000663461)
(0.000234164 0.00142585 0.000520864)
(6.13976e-05 0.00123876 0.000406419)
(-9.23339e-05 0.000942236 0.00034484)
(-0.000201713 0.000589364 0.000356534)
(-0.000261933 0.000259487 0.000430334)
(-0.000289337 1.70917e-06 0.000536505)
(-0.000304102 -0.000178374 0.000655471)
(-0.000320354 -0.000294543 0.000775584)
(-0.000347163 -0.000367306 0.000884283)
(-0.000390531 -0.000417415 0.000965375)
(-0.000454715 -0.000463063 0.00100355)
(-0.000540194 -0.000520419 0.000998314)
(-0.000644625 -0.000605478 0.000983465)
(-0.000732926 -0.000721596 0.000962177)
(-0.000784198 -0.000859176 0.000903194)
(-0.000787212 -0.000995261 0.00079018)
(-0.00073747 -0.00109958 0.000630646)
(-0.00063724 -0.00113696 0.000443822)
(-0.000496915 -0.0010732 0.000253726)
(-0.000336456 -0.000886031 8.87982e-05)
(-0.000184426 -0.000579837 -1.45323e-05)
(-0.000598342 -0.000126362 -0.000355644)
(-0.00047598 0.000345041 -0.000344239)
(-0.000338509 0.000732176 -0.000215673)
(-0.00018571 0.00102519 1.85621e-05)
(-1.99318e-05 0.00124326 0.000347629)
(0.000150511 0.00141445 0.000757123)
(0.000313329 0.00156434 0.00122053)
(0.000456572 0.00171036 0.00168887)
(0.000573609 0.00185966 0.00208075)
(0.000666793 0.00200574 0.00227292)
(0.000719157 0.00212408 0.00218198)
(0.000691419 0.00219735 0.00188448)
(0.000632021 0.00222568 0.00150211)
(0.000559924 0.00219236 0.00111133)
(0.000482284 0.00207875 0.000756013)
(0.000397421 0.00186611 0.000459216)
(0.000301326 0.00154201 0.000235729)
(0.000192455 0.0011162 0.000101984)
(7.61037e-05 0.00064058 7.05593e-05)
(-3.88676e-05 0.000188873 0.000135348)
(-0.000146729 -0.000184188 0.000271636)
(-0.000246454 -0.000468098 0.000457738)
(-0.000339155 -0.000679604 0.000685443)
(-0.000424789 -0.000844871 0.000954859)
(-0.000503013 -0.000989245 0.00126344)
(-0.000575412 -0.00113195 0.00159201)
(-0.000647116 -0.00128353 0.00188966)
(-0.000729024 -0.00144024 0.00205872)
(-0.000814804 -0.001577 0.00200787)
(-0.000855814 -0.00167044 0.00175271)
(-0.000875326 -0.00171842 0.0013902)
(-0.000881641 -0.00170332 0.000992722)
(-0.000873777 -0.00160275 0.000605826)
(-0.000844504 -0.00139449 0.000257067)
(-0.000787929 -0.00106421 -3.43015e-05)
(-0.000704002 -0.000622653 -0.000246755)
(-0.000407115 -0.000202647 -0.000124032)
(-0.000289264 0.000224633 -6.93141e-05)
(-0.000174359 0.000568891 8.01379e-05)
(-5.45311e-05 0.000826596 0.000303092)
(7.36427e-05 0.00101483 0.000583788)
(0.000207222 0.00115811 0.000903154)
(0.000339384 0.00127984 0.00123382)
(0.000463192 0.00139727 0.00153793)
(0.000574664 0.0015194 0.00176806)
(0.000668055 0.00164493 0.00187292)
(0.000725659 0.00176939 0.00182864)
(0.000726119 0.00188214 0.00166063)
(0.000680277 0.00196129 0.00141733)
(0.000600591 0.00198657 0.00114445)
(0.000494905 0.00193539 0.000877238)
(0.000368728 0.00178531 0.000641127)
(0.0002296 0.00152059 0.000456645)
(8.89931e-05 0.00114393 0.000348071)
(-3.79732e-05 0.000710386 0.000336228)
(-0.000142973 0.000300559 0.000410251)
(-0.000229639 -3.19462e-05 0.000537946)
(-0.000306413 -0.000282921 0.000698022)
(-0.00037988 -0.00046792 0.000881278)
(-0.000452862 -0.00060979 0.00108142)
(-0.000526128 -0.000730643 0.00128849)
(-0.00060107 -0.000847073 0.00148389)
(-0.000681563 -0.000968293 0.00163741)
(-0.000769903 -0.00109328 0.00170754)
(-0.000852638 -0.00122058 0.00166151)
(-0.000903637 -0.00134349 0.00150012)
(-0.000920054 -0.00143975 0.00125398)
(-0.000903348 -0.00148482 0.000960922)
(-0.000853051 -0.00145081 0.000654737)
(-0.000769459 -0.00131001 0.000363614)
(-0.000658508 -0.00104355 0.000114041)
(-0.00053258 -0.000654775 -6.06899e-05)
(-0.000210695 -0.000284011 0.000119936)
(-0.000102912 9.37073e-05 0.000207381)
(-1.48226e-05 0.000397299 0.000370236)
(6.87762e-05 0.000619825 0.000579455)
(0.000156596 0.000775917 0.000811125)
(0.000251459 0.000887714 0.00104003)
(0.000352531 0.000977693 0.00123788)
(0.000457828 0.00106437 0.00137831)
(0.000563887 0.00116136 0.00144988)
(0.000671369 0.00127994 0.00147602)
(0.000745533 0.00141937 0.00147745)
(0.00076777 0.00156543 0.00143302)
(0.000732432 0.00169366 0.00132657)
(0.000642599 0.00177765 0.00117131)
(0.000506449 0.00178869 0.000993225)
(0.000336817 0.00169879 0.000821257)
(0.000153267 0.0014893 0.000684094)
(-1.75754e-05 0.00116661 0.00060946)
(-0.000151547 0.000784675 0.000614691)
(-0.000242672 0.000422174 0.000687757)
(-0.000304755 0.000128952 0.000800673)
(-0.00035586 -8.79236e-05 0.000933157)
(-0.000407998 -0.000242598 0.00107179)
(-0.000467136 -0.000355863 0.00120253)
(-0.000535393 -0.000447742 0.00130791)
(-0.000613834 -0.0005338 0.00136984)
(-0.000702012 -0.000625691 0.00137941)
(-0.00080681 -0.000736295 0.00135602)
(-0.000895832 -0.000871821 0.00132222)
(-0.000950749 -0.00102317 0.00125152)
(-0.00095954 -0.00116633 0.00111753)
(-0.000915916 -0.00127098 0.000926468)
(-0.000820106 -0.00130184 0.000700141)
(-0.000680571 -0.00122423 0.000468315)
(-0.00051531 -0.00101561 0.000267129)
(-0.000350502 -0.000682685 0.000139013)
(-0.0007087 -0.000253279 -9.89329e-05)
(-0.00057171 0.000229847 -0.000121757)
(-0.000412547 0.000644442 -1.87686e-05)
(-0.000233302 0.000977382 0.000207399)
(-3.92099e-05 0.00124244 0.00054699)
(0.000160109 0.00146345 0.000981536)
(0.000352116 0.00166366 0.00147876)
(0.00052436 0.00185981 0.00198575)
(0.000667515 0.00205944 0.00242255)
(0.000780098 0.00225428 0.00268066)
(0.000844969 0.00241275 0.00266366)
(0.000823081 0.00250912 0.00239372)
(0.000755272 0.00254601 0.00200256)
(0.000664681 0.00250768 0.00158361)
(0.000565016 0.00237721 0.00119479)
(0.000460022 0.00214162 0.00086931)
(0.000347836 0.00179745 0.000625651)
(0.000226201 0.00136214 0.000475198)
(9.67125e-05 0.000883791 0.00042128)
(-3.53541e-05 0.000424124 0.00045753)
(-0.000164932 2.99999e-05 0.000569219)
(-0.000289707 -0.000285652 0.000741458)
(-0.000408782 -0.000534835 0.000966131)
(-0.000520538 -0.000740411 0.00123933)
(-0.000623136 -0.000926407 0.00155356)
(-0.000716426 -0.00111238 0.0018876)
(-0.000803139 -0.00131008 0.0021957)
(-0.000890686 -0.00151626 0.00240082)
(-0.000977027 -0.00170153 0.00240954)
(-0.00102864 -0.00183076 0.00218641)
(-0.00104457 -0.00189528 0.00182239)
(-0.00103876 -0.00188158 0.00140132)
(-0.00101651 -0.00177029 0.000980859)
(-0.000975774 -0.00154521 0.000598762)
(-0.00091187 -0.00120034 0.000279197)
(-0.000822524 -0.000752657 4.07508e-05)
(-0.000550642 -0.000304281 0.000128339)
(-0.000410617 0.000134291 0.000156631)
(-0.000265503 0.000503251 0.000289085)
(-0.000110534 0.000795442 0.000509913)
(5.43995e-05 0.00102582 0.000803442)
(0.000223434 0.00121634 0.00114804)
(0.000387222 0.00138756 0.00151242)
(0.000536683 0.00155384 0.0018547)
(0.000665907 0.00172122 0.00212487)
(0.000770074 0.0018855 0.00227191)
(0.000832888 0.00203796 0.0022635)
(0.000836608 0.00216584 0.00211084)
(0.000788566 0.00224858 0.00186336)
(0.000702748 0.0022674 0.00157388)
(0.000589364 0.00220251 0.0012855)
(0.000455482 0.00203562 0.00103025)
(0.000308038 0.00175585 0.000832356)
(0.000156382 0.00137232 0.000713295)
(1.23328e-05 0.000935886 0.000684294)
(-0.00011695 0.000516951 0.000735036)
(-0.000233307 0.000163663 0.000843375)
(-0.000342865 -0.000116669 0.000992675)
(-0.000449763 -0.000337714 0.00117377)
(-0.000554207 -0.000520517 0.00137832)
(-0.000654102 -0.000685363 0.00159367)
(-0.000748125 -0.000846903 0.00179929)
(-0.000838185 -0.00101197 0.00196553)
(-0.000927866 -0.00117786 0.00205571)
(-0.00101026 -0.00133754 0.00203367)
(-0.00106547 -0.00147989 0.00188541)
(-0.00108342 -0.00158456 0.0016366)
(-0.0010659 -0.00162778 0.00132761)
(-0.00101447 -0.00158437 0.000997854)
(-0.000930654 -0.00143087 0.000681695)
(-0.000818994 -0.00115292 0.00041011)
(-0.000688572 -0.000759299 0.00021583)
(-0.000377504 -0.000360018 0.000364088)
(-0.000241834 2.93461e-05 0.000436214)
(-0.000117476 0.000353173 0.000591834)
(7.85816e-06 0.000603949 0.00080508)
(0.00013927 0.000796476 0.00105241)
(0.000274831 0.000951592 0.00130741)
(0.00040892 0.00108835 0.00153934)
(0.000536133 0.00122031 0.00171742)
(0.000652258 0.00135571 0.0018218)
(0.000759646 0.00150158 0.00186181)
(0.000833625 0.00165984 0.0018684)
(0.000857761 0.0018161 0.00182835)
(0.000825797 0.00194546 0.00172143)
(0.000740345 0.00202371 0.00156034)
(0.0006084 0.00202546 0.00137283)
(0.000440809 0.00192571 0.00119095)
(0.000254437 0.00170774 0.00104577)
(7.29077e-05 0.00137952 0.000963654)
(-8.14095e-05 0.000991925 0.0009574)
(-0.000201541 0.000618159 0.00101566)
(-0.000298595 0.000306047 0.00111561)
(-0.000388198 6.29696e-05 0.00124069)
(-0.000479495 -0.000125453 0.00137862)
(-0.000574485 -0.000279175 0.00151525)
(-0.000671007 -0.000415708 0.0016324)
(-0.00076673 -0.000546452 0.00170995)
(-0.000860882 -0.000677331 0.00173281)
(-0.000958627 -0.000814778 0.00170744)
(-0.00104472 -0.000968509 0.00166706)
(-0.00110245 -0.0011302 0.00159271)
(-0.00111759 -0.00127609 0.00145366)
(-0.00108296 -0.00137741 0.00125299)
(-0.000997031 -0.00140154 0.00101213)
(-0.000865801 -0.00131641 0.000763008)
(-0.000703955 -0.00110108 0.000544709)
(-0.000533968 -0.0007637 0.000400405)
(-0.000823628 -0.000398625 0.000274667)
(-0.000676586 7.1856e-05 0.000212632)
(-0.000498234 0.000493607 0.000274874)
(-0.000292981 0.000852893 0.000468623)
(-6.9592e-05 0.00115878 0.00078821)
(0.000159791 0.00143023 0.0012146)
(0.000381072 0.00168646 0.0017138)
(0.000580268 0.00194094 0.00223382)
(0.000745324 0.00219796 0.00270143)
(0.000869642 0.00244557 0.00302164)
(0.000939043 0.0026465 0.00308485)
(0.000929411 0.00276706 0.0028682)
(0.000858072 0.00281047 0.00250245)
(0.000754332 0.00276794 0.00208966)
(0.0006381 0.00262683 0.00169646)
(0.000518778 0.00238106 0.00136346)
(0.000397137 0.00203586 0.00111122)
(0.000269509 0.00161412 0.000946547)
(0.000132163 0.00115759 0.00086651)
(-1.47849e-05 0.000713755 0.000865304)
(-0.000167458 0.000318989 0.000936729)
(-0.000321422 -1.4058e-05 0.00107392)
(-0.000472543 -0.000293405 0.0012713)
(-0.000616175 -0.000537938 0.0015232)
(-0.000747432 -0.000768746 0.00181948)
(-0.000862713 -0.00100321 0.00213949)
(-0.000961114 -0.00125094 0.00244534)
(-0.00104569 -0.0015076 0.00267596)
(-0.00112178 -0.00174313 0.00273962)
(-0.0011797 -0.0019136 0.00257588)
(-0.00119097 -0.00199655 0.00224656)
(-0.00117511 -0.00198751 0.00183795)
(-0.00114187 -0.00187329 0.00141649)
(-0.00109401 -0.00164523 0.00102733)
(-0.0010283 -0.00130565 0.000697536)
(-0.000939708 -0.000875626 0.000442525)
(-0.000697973 -0.000413796 0.000484824)
(-0.000541827 1.54061e-05 0.000478946)
(-0.000371187 0.000391649 0.000577662)
(-0.000184115 0.000706383 0.000773488)
(1.60257e-05 0.000972361 0.00105367)
(0.000219987 0.00120846 0.0013966)
(0.000415341 0.0014312 0.0017699)
(0.000590231 0.0016504 0.00213107)
(0.000736223 0.00186743 0.00243072)
(0.000848207 0.00207461 0.0026187)
(0.000914589 0.00225727 0.00265374)
(0.000923699 0.0023997 0.00253372)
(0.000876352 0.00248539 0.00230596)
(0.000787824 0.00249874 0.00202605)
(0.000670705 0.00242464 0.00174092)
(0.000533736 0.0022504 0.00148639)
(0.000383385 0.00197083 0.00128777)
(0.000226475 0.00159947 0.00116168)
(7.07595e-05 0.00118075 0.00111201)
(-7.88997e-05 0.000772831 0.00113015)
(-0.000223329 0.000416416 0.00120366)
(-0.000366161 0.0001195 0.00132315)
(-0.000508519 -0.000129889 0.00148177)
(-0.000647249 -0.000350471 0.00167067)
(-0.000776608 -0.000559573 0.001876)
(-0.000891592 -0.000768419 0.00207718)
(-0.000991046 -0.000980158 0.00224698)
(-0.00107847 -0.00118974 0.00235298)
(-0.0011554 -0.0013837 0.00235816)
(-0.00121082 -0.0015467 0.00223957)
(-0.00122835 -0.00166125 0.00201293)
(-0.00121003 -0.00170532 0.00171638)
(-0.00115921 -0.0016583 0.00139136)
(-0.00107844 -0.00150243 0.00107532)
(-0.000970857 -0.0012289 0.000800426)
(-0.000841886 -0.000850215 0.000595817)
(-0.000550928 -0.000433603 0.000700032)
(-0.000394043 -4.97441e-05 0.00074574)
(-0.000239346 0.000279959 0.000876255)
(-7.71251e-05 0.000548576 0.00107234)
(9.44316e-05 0.000770932 0.00131339)
(0.000268998 0.000966032 0.00157372)
(0.00043639 0.00114879 0.00182187)
(0.000587529 0.0013271 0.00202457)
(0.000716878 0.00150301 0.0021562)
(0.000824845 0.0016781 0.00221536)
(0.000900059 0.0018555 0.00223269)
(0.000926945 0.00202107 0.00220393)
(0.000899729 0.00215124 0.00211031)
(0.000820817 0.00222439 0.00196161)
(0.000696276 0.00221976 0.00178438)
(0.00053494 0.00211697 0.00161076)
(0.000350564 0.00190224 0.00147077)
(0.000163437 0.0015838 0.00138633)
(-6.12417e-06 0.00120751 0.00136527)
(-0.000150592 0.000839087 0.00139835)
(-0.000278901 0.000522782 0.00147031)
(-0.000404616 0.00026482 0.00157126)
(-0.000534078 5.02822e-05 0.00169202)
(-0.000665342 -0.000139553 0.00181937)
(-0.000791951 -0.000318986 0.00193515)
(-0.000907737 -0.000494616 0.00201844)
(-0.00101047 -0.000666224 0.0020511)
(-0.0011022 -0.000833349 0.00203112)
(-0.00118598 -0.00100597 0.00198799)
(-0.00124366 -0.00117696 0.00191525)
(-0.00126242 -0.00132534 0.00178579)
(-0.00123551 -0.00142444 0.00159641)
(-0.00116034 -0.00144535 0.00136508)
(-0.00104032 -0.00136001 0.00112244)
(-0.000886518 -0.00115007 0.000905956)
(-0.000717322 -0.000824358 0.000754967)
(-0.000940512 -0.000549611 0.000737152)
(-0.000785461 -0.000108327 0.000636591)
(-0.000589673 0.000304858 0.000650928)
(-0.000360093 0.000678084 0.000796527)
(-0.000108938 0.001017 0.00107365)
(0.000148588 0.00133572 0.00146584)
(0.000395806 0.00164824 0.00194099)