/*--------------------------------*- C++ -*----------------------------------*\
| =========                 |                                                 |
| \\      /  F ield         | OpenFOAM: The Open Source CFD Toolbox           |
|  \\    /   O peration     | Version:  2312                                  |
|   \\  /    A nd           | Website:  www.openfoam.com                      |
|    \\/     M anipulation  |                                                 |
\*---------------------------------------------------------------------------*/
FoamFile
{
    version     2.0;
    format      ascii;
    arch        "LSB;label=32;scalar=64";
    class       volVectorField;
    location    "0.5";
    object      D_0_0;
}
// * * * * * * * * * * * * * * * * * * * * * * * * * * * * * * * * * * * * * //

dimensions      [0 1 0 0 0 0 0];

internalField   nonuniform List<vector> 
1620
(
(0.000417551 -0.00010259 9.36255e-05)
(0.000360912 -0.000136666 -1.13578e-06)
(0.000296284 -0.000184258 -6.88966e-05)
(0.000238124 -0.000216119 -0.000104751)
(0.00019409 -0.000225943 -0.000118673)
(0.000166135 -0.000218379 -0.000119213)
(0.000152401 -0.000198633 -0.000110855)
(0.000148042 -0.000169142 -9.62254e-05)
(0.000146006 -0.000130441 -7.72819e-05)
(0.000138197 -8.27009e-05 -5.51929e-05)
(0.000116645 -2.66236e-05 -2.98768e-05)
(7.43983e-05 3.59701e-05 2.78892e-07)
(6.47078e-06 0.000100909 3.8216e-05)
(-8.82195e-05 0.000159462 8.67401e-05)
(-0.000203057 0.000197083 0.000144231)
(-0.000319621 0.000198182 0.000197201)
(-0.000408868 0.000160869 0.000217048)
(-0.000442331 0.000114283 0.000178778)
(-0.000417551 0.00010259 9.36255e-05)
(-0.000360912 0.000136666 -1.13577e-06)
(-0.000296284 0.000184258 -6.88966e-05)
(-0.000238124 0.000216119 -0.000104751)
(-0.00019409 0.000225943 -0.000118673)
(-0.000166135 0.000218379 -0.000119213)
(-0.000152401 0.000198633 -0.000110855)
(-0.000148042 0.000169142 -9.62254e-05)
(-0.000146006 0.000130441 -7.72819e-05)
(-0.000138197 8.27009e-05 -5.51929e-05)
(-0.000116645 2.66236e-05 -2.98768e-05)
(-7.43983e-05 -3.59701e-05 2.78892e-07)
(-6.47079e-06 -0.000100909 3.8216e-05)
(8.82195e-05 -0.000159462 8.67401e-05)
(0.000203057 -0.000197083 0.000144231)
(0.000319621 -0.000198182 0.000197201)
(0.000408868 -0.000160869 0.000217048)
(0.000442331 -0.000114283 0.000178778)
(0.000338572 -0.000178121 6.26942e-05)
(0.000343153 -0.000197546 2.41538e-05)
(0.000333223 -0.000200603 -1.00353e-05)
(0.000310809 -0.000183253 -3.8199e-05)
(0.000279521 -0.00015278 -6.13854e-05)
(0.000244506 -0.000118048 -7.84627e-05)
(0.000210281 -8.41364e-05 -8.76367e-05)
(0.000178609 -5.20868e-05 -8.81444e-05)
(0.000148078 -2.09555e-05 -8.03674e-05)
(0.000115183 1.02343e-05 -6.52335e-05)
(7.59732e-05 4.15108e-05 -4.37505e-05)
(2.75966e-05 7.18358e-05 -1.68881e-05)
(-3.06126e-05 9.93955e-05 1.42288e-05)
(-9.66213e-05 0.000121913 4.76995e-05)
(-0.000165655 0.000137175 7.95904e-05)
(-0.000230648 0.000144667 0.000102757)
(-0.000283656 0.000148637 0.000108722)
(-0.000319456 0.000158969 9.41765e-05)
(-0.000338572 0.000178121 6.26942e-05)
(-0.000343153 0.000197546 2.41538e-05)
(-0.000333223 0.000200603 -1.00353e-05)
(-0.000310809 0.000183253 -3.8199e-05)
(-0.000279521 0.00015278 -6.13854e-05)
(-0.000244506 0.000118048 -7.84627e-05)
(-0.000210281 8.41364e-05 -8.76367e-05)
(-0.000178609 5.20868e-05 -8.81444e-05)
(-0.000148078 2.09555e-05 -8.03674e-05)
(-0.000115183 -1.02343e-05 -6.52335e-05)
(-7.59732e-05 -4.15108e-05 -4.37505e-05)
(-2.75966e-05 -7.18358e-05 -1.68881e-05)
(3.06126e-05 -9.93955e-05 1.42288e-05)
(9.66213e-05 -0.000121913 4.76995e-05)
(0.000165655 -0.000137175 7.95904e-05)
(0.000230648 -0.000144667 0.000102757)
(0.000283656 -0.000148637 0.000108722)
(0.000319456 -0.000158969 9.41765e-05)
(0.000242233 -0.000219139 3.08438e-05)
(0.000286424 -0.000236619 2.66375e-05)
(0.000320562 -0.00021538 1.57482e-05)
(0.000335903 -0.000165987 -5.32888e-06)
(0.000328905 -0.000104831 -3.33335e-05)
(0.000302357 -4.48845e-05 -6.08671e-05)
(0.00026227 6.55539e-06 -8.12252e-05)
(0.000214321 4.66295e-05 -9.05567e-05)
(0.000162306 7.48605e-05 -8.77285e-05)
(0.000108397 9.16215e-05 -7.3615e-05)
(5.42236e-05 9.75558e-05 -5.06861e-05)
(1.88739e-06 9.3932e-05 -2.28655e-05)
(-4.57072e-05 8.36703e-05 4.76575e-06)
(-8.56013e-05 7.24319e-05 2.68185e-05)
(-0.000116467 6.87971e-05 3.91518e-05)
(-0.000140534 8.24441e-05 4.10765e-05)
(-0.000164697 0.000119177 3.71411e-05)
(-0.00019825 0.000172368 3.36082e-05)
(-0.000242233 0.000219139 3.08438e-05)
(-0.000286424 0.000236619 2.66375e-05)
(-0.000320562 0.00021538 1.57482e-05)
(-0.000335903 0.000165987 -5.32888e-06)
(-0.000328905 0.000104831 -3.33335e-05)
(-0.000302357 4.48845e-05 -6.08671e-05)
(-0.00026227 -6.55539e-06 -8.12252e-05)
(-0.000214321 -4.66295e-05 -9.05567e-05)
(-0.000162306 -7.48605e-05 -8.77285e-05)
(-0.000108397 -9.16215e-05 -7.3615e-05)
(-5.42236e-05 -9.75558e-05 -5.06861e-05)
(-1.88739e-06 -9.3932e-05 -2.28655e-05)
(4.57072e-05 -8.36703e-05 4.76575e-06)
(8.56013e-05 -7.24319e-05 2.68185e-05)
(0.000116467 -6.87971e-05 3.91518e-05)
(0.000140534 -8.24441e-05 4.10765e-05)
(0.000164697 -0.000119177 3.71411e-05)
(0.00019825 -0.000172368 3.36082e-05)
(0.00110589 -0.000454845 0.00032518)
(0.00102618 -0.000541517 5.19061e-05)
(0.000904253 -0.000609543 -0.000167401)
(0.000776538 -0.000619394 -0.000313728)
(0.000662012 -0.000578327 -0.000397683)
(0.000569401 -0.000508676 -0.000432441)
(0.000501348 -0.000426461 -0.000428956)
(0.000453037 -0.000336904 -0.000396802)
(0.000412233 -0.000238922 -0.000343706)
(0.000361971 -0.000130232 -0.000274094)
(0.000284258 -1.01661e-05 -0.000188011)
(0.000163515 0.000119194 -8.12298e-05)
(-1.02786e-05 0.000251707 5.27579e-05)
(-0.000237681 0.000374385 0.000217456)
(-0.000503798 0.000465186 0.000402803)
(-0.000772287 0.000499335 0.000570273)
(-0.000989074 0.000472703 0.000646712)
(-0.00110472 0.000431185 0.000558353)
(-0.00110589 0.000454845 0.00032518)
(-0.00102618 0.000541517 5.19061e-05)
(-0.000904253 0.000609543 -0.000167401)
(-0.000776538 0.000619394 -0.000313728)
(-0.000662012 0.000578327 -0.000397683)
(-0.000569401 0.000508676 -0.000432441)
(-0.000501348 0.000426461 -0.000428956)
(-0.000453037 0.000336904 -0.000396802)
(-0.000412233 0.000238922 -0.000343706)
(-0.000361971 0.000130232 -0.000274094)
(-0.000284258 1.01661e-05 -0.000188011)
(-0.000163515 -0.000119194 -8.12298e-05)
(1.02786e-05 -0.000251707 5.27579e-05)
(0.000237681 -0.000374385 0.000217456)
(0.000503798 -0.000465186 0.000402803)
(0.000772287 -0.000499335 0.000570273)
(0.000989074 -0.000472703 0.000646712)
(0.00110472 -0.000431185 0.000558353)
(0.000968811 -0.000568985 0.000284494)
(0.000979138 -0.000626906 0.000142158)
(0.000951618 -0.000628137 6.32525e-06)
(0.000891502 -0.0005714 -0.000112204)
(0.00080718 -0.000478116 -0.000206726)
(0.000711554 -0.000372317 -0.000271399)
(0.00061569 -0.000268155 -0.000303441)
(0.000523567 -0.000169681 -0.000303681)
(0.000431415 -7.59168e-05 -0.000274997)
(0.000330513 1.45855e-05 -0.000220509)
(0.000211299 0.000101573 -0.000142714)
(6.72635e-05 0.00018308 -4.37959e-05)
(-0.000102269 0.000256475 7.30519e-05)
(-0.000290866 0.000319364 0.000201217)
(-0.000485098 0.000370051 0.000326834)
(-0.000666207 0.000409372 0.000424503)
(-0.000814716 0.000445405 0.000458636)
(-0.000915896 0.000497708 0.000404259)
(-0.000968811 0.000568985 0.000284494)
(-0.000979138 0.000626906 0.000142158)
(-0.000951618 0.000628137 6.32525e-06)
(-0.000891502 0.0005714 -0.000112204)
(-0.00080718 0.000478116 -0.000206726)
(-0.000711554 0.000372317 -0.000271399)
(-0.00061569 0.000268155 -0.000303441)
(-0.000523567 0.000169681 -0.000303681)
(-0.000431415 7.59168e-05 -0.000274997)
(-0.000330513 -1.45855e-05 -0.000220509)
(-0.000211299 -0.000101573 -0.000142714)
(-6.72635e-05 -0.00018308 -4.37959e-05)
(0.000102269 -0.000256475 7.30519e-05)
(0.000290866 -0.000319364 0.000201217)
(0.000485098 -0.000370051 0.000326834)
(0.000666207 -0.000409372 0.000424503)
(0.000814716 -0.000445405 0.000458636)
(0.000915896 -0.000497708 0.000404259)
(0.000779554 -0.000642456 0.000233111)
(0.000868425 -0.000690104 0.000195383)
(0.00093033 -0.000649989 0.000134213)
(0.000942769 -0.000545203 4.61772e-05)
(0.000902789 -0.00040889 -5.17073e-05)
(0.00082205 -0.000267865 -0.000138202)
(0.000715085 -0.000137387 -0.000197811)
(0.00059202 -2.38781e-05 -0.000222683)
(0.000457244 7.04801e-05 -0.000210831)
(0.000311583 0.000144509 -0.000164279)
(0.000155736 0.00019697 -8.84376e-05)
(-6.55543e-06 0.000227655 7.58436e-06)
(-0.000166984 0.000240155 0.000110771)
(-0.00031406 0.000244921 0.000205235)
(-0.000437629 0.000259888 0.000275029)
(-0.000534574 0.000305877 0.000308249)
(-0.000612498 0.000396361 0.000302453)
(-0.000688963 0.000525453 0.000270782)
(-0.000779554 0.000642456 0.000233111)
(-0.000868425 0.000690104 0.000195383)
(-0.00093033 0.000649989 0.000134213)
(-0.000942769 0.000545203 4.61772e-05)
(-0.000902789 0.00040889 -5.17073e-05)
(-0.00082205 0.000267865 -0.000138202)
(-0.000715085 0.000137387 -0.000197811)
(-0.00059202 2.38781e-05 -0.000222683)
(-0.000457244 -7.04801e-05 -0.000210831)
(-0.000311583 -0.000144509 -0.000164279)
(-0.000155736 -0.00019697 -8.84376e-05)
(6.55542e-06 -0.000227655 7.58436e-06)
(0.000166984 -0.000240155 0.000110771)
(0.00031406 -0.000244921 0.000205235)
(0.000437629 -0.000259888 0.000275029)
(0.000534574 -0.000305877 0.000308249)
(0.000612498 -0.000396361 0.000302453)
(0.000688963 -0.000525453 0.000270782)
(0.00169546 -0.000954231 0.000700759)
(0.00160753 -0.00104082 0.000226529)
(0.00144378 -0.00107241 -0.000195933)
(0.00125897 -0.00103142 -0.00051085)
(0.00108312 -0.000932183 -0.000713642)
(0.000931915 -0.000802597 -0.00081828)
(0.000811545 -0.000662224 -0.000843802)
(0.000717453 -0.000516963 -0.000808565)
(0.000634191 -0.000364331 -0.00072661)
(0.000538788 -0.000200013 -0.000605091)
(0.000406114 -2.1949e-05 -0.000443309)
(0.000214597 0.000167949 -0.000234157)
(-4.84991e-05 0.000362738 3.08725e-05)
(-0.00038189 0.000548495 0.0003516)
(-0.000764296 0.000703299 0.000703269)
(-0.00114949 0.00080475 0.00101848)
(-0.00147024 0.000851751 0.00118253)
(-0.00165936 0.000885783 0.00107762)
(-0.00169546 0.000954231 0.000700759)
(-0.00160753 0.00104082 0.000226529)
(-0.00144378 0.00107241 -0.000195933)
(-0.00125897 0.00103142 -0.00051085)
(-0.00108312 0.000932183 -0.000713642)
(-0.000931915 0.000802597 -0.00081828)
(-0.000811545 0.000662224 -0.000843802)
(-0.000717453 0.000516963 -0.000808565)
(-0.000634191 0.000364331 -0.00072661)
(-0.000538788 0.000200013 -0.000605091)
(-0.000406115 2.1949e-05 -0.000443309)
(-0.000214597 -0.000167949 -0.000234157)
(4.84991e-05 -0.000362738 3.08725e-05)
(0.00038189 -0.000548495 0.0003516)
(0.000764296 -0.000703299 0.000703269)
(0.00114949 -0.00080475 0.00101848)
(0.00147024 -0.000851751 0.00118253)
(0.00165936 -0.000885783 0.00107762)
(0.00151027 -0.00098387 0.000652831)
(0.00153188 -0.00105132 0.000373874)
(0.00148959 -0.00103569 8.80827e-05)
(0.00139556 -0.000941987 -0.000161003)
(0.00126634 -0.000797152 -0.000354322)
(0.0011209 -0.000632087 -0.000483743)
(0.000973549 -0.000466075 -0.000548718)
(0.000828694 -0.000306061 -0.00055366)
(0.000680685 -0.000152396 -0.000504485)
(0.000517493 -4.27963e-06 -0.000406021)
(0.000326109 0.000137431 -0.000261369)
(9.79925e-05 0.000270038 -7.34095e-05)
(-0.000166781 0.000390464 0.00015177)
(-0.000457631 0.000496899 0.000399971)
(-0.000754041 0.000590027 0.000643371)
(-0.00102889 0.000675045 0.000837061)
(-0.00125594 0.000763878 0.000924145)
(-0.00141774 0.000869728 0.000858018)
(-0.00151027 0.00098387 0.000652831)
(-0.00153188 0.00105132 0.000373874)
(-0.00148959 0.00103569 8.80827e-05)
(-0.00139556 0.000941987 -0.000161003)
(-0.00126634 0.000797152 -0.000354322)
(-0.0011209 0.000632087 -0.000483743)
(-0.000973549 0.000466075 -0.000548718)
(-0.000828694 0.000306061 -0.00055366)
(-0.000680685 0.000152396 -0.000504485)
(-0.000517493 4.27964e-06 -0.000406021)
(-0.000326109 -0.000137431 -0.000261369)
(-9.79925e-05 -0.000270038 -7.34095e-05)
(0.000166781 -0.000390464 0.00015177)
(0.000457631 -0.000496899 0.000399971)
(0.000754041 -0.000590027 0.000643371)
(0.00102889 -0.000675045 0.000837061)
(0.00125594 -0.000763878 0.000924145)
(0.00141774 -0.000869728 0.000858018)
(0.00124661 -0.000994016 0.000570329)
(0.00136963 -0.00106321 0.000465157)
(0.00144651 -0.00102217 0.000317801)
(0.00145035 -0.000890796 0.000143078)
(0.00138283 -0.000707821 -3.10344e-05)
(0.00126139 -0.000508067 -0.000176109)
(0.00110433 -0.000313171 -0.000272218)
(0.000922992 -0.000134045 -0.000309512)
(0.0007214 2.37073e-05 -0.000285644)
(0.000499586 0.000156124 -0.000203376)
(0.0002581 0.000259778 -7.01755e-05)
(2.15581e-06 0.000333163 0.00010053)
(-0.00025614 0.000380148 0.000288027)
(-0.000499284 0.000413859 0.000465244)
(-0.000710247 0.000457141 0.000603845)
(-0.000880021 0.000535404 0.000682709)
(-0.00101262 0.000661913 0.000694689)
(-0.0011248 0.000831943 0.000647539)
(-0.00124661 0.000994016 0.000570329)
(-0.00136963 0.00106321 0.000465157)
(-0.00144651 0.00102217 0.000317801)
(-0.00145035 0.000890796 0.000143078)
(-0.00138283 0.000707821 -3.10344e-05)
(-0.00126139 0.000508067 -0.000176109)
(-0.00110433 0.000313171 -0.000272218)
(-0.000922992 0.000134045 -0.000309512)
(-0.0007214 -2.37073e-05 -0.000285644)
(-0.000499586 -0.000156124 -0.000203376)
(-0.0002581 -0.000259778 -7.01755e-05)
(-2.15582e-06 -0.000333163 0.00010053)
(0.00025614 -0.000380148 0.000288027)
(0.000499284 -0.000413859 0.000465244)
(0.000710247 -0.000457141 0.000603845)
(0.000880021 -0.000535404 0.000682709)
(0.00101262 -0.000661913 0.000694689)
(0.0011248 -0.000831943 0.000647539)
(0.0021274 -0.00152481 0.00111961)
(0.00204559 -0.00157774 0.000491276)
(0.00186363 -0.0015558 -0.000122265)
(0.00164273 -0.00146137 -0.000618835)
(0.00142435 -0.00131105 -0.000961973)
(0.00123026 -0.00113057 -0.00115896)
(0.00106766 -0.000938691 -0.00123482)
(0.000931325 -0.000741665 -0.00121532)
(0.000804516 -0.000537173 -0.00111909)
(0.000662137 -0.000320485 -0.00095471)
(0.00047648 -8.89733e-05 -0.00072051)
(0.00022411 0.00015571 -0.000407983)
(-0.000107491 0.000406805 -1.02243e-05)
(-0.000514035 0.000651923 0.000463421)
(-0.00096922 0.000874687 0.000968753)
(-0.00142256 0.00106403 0.00141304)
(-0.00180596 0.00122958 0.00166032)
(-0.00205147 0.00139501 0.00157217)
(-0.0021274 0.00152481 0.00111961)
(-0.00204559 0.00157774 0.000491276)
(-0.00186363 0.0015558 -0.000122265)
(-0.00164273 0.00146137 -0.000618835)
(-0.00142435 0.00131105 -0.000961973)
(-0.00123026 0.00113057 -0.00115896)
(-0.00106766 0.000938691 -0.00123482)
(-0.000931325 0.000741665 -0.00121532)
(-0.000804516 0.000537173 -0.00111909)
(-0.000662137 0.000320485 -0.00095471)
(-0.00047648 8.89733e-05 -0.00072051)
(-0.00022411 -0.00015571 -0.000407983)
(0.000107491 -0.000406805 -1.02244e-05)
(0.000514035 -0.000651923 0.000463421)
(0.00096922 -0.000874687 0.000968753)
(0.00142256 -0.00106403 0.00141304)
(0.00180596 -0.00122958 0.00166032)
(0.00205147 -0.00139501 0.00157217)
(0.00193275 -0.0013912 0.00104428)
(0.00195778 -0.00145699 0.000648598)
(0.0018981 -0.00142088 0.000225376)
(0.00177529 -0.00129863 -0.000153364)
(0.00161279 -0.00111881 -0.000450208)
(0.0014325 -0.000911987 -0.000651176)
(0.0012485 -0.00069842 -0.000756988)
(0.00106384 -0.000486993 -0.000775021)
(0.000871373 -0.000279973 -0.000713431)
(0.000657641 -7.79208e-05 -0.000578102)
(0.000408395 0.000117458 -0.000372546)
(0.000114529 0.000302912 -0.00010082)
(-0.000223088 0.000475082 0.000226834)
(-0.000591175 0.000632549 0.000586884)
(-0.000964656 0.000777774 0.000936789)
(-0.00131102 0.000919141 0.00121564)
(-0.00159968 0.00107058 0.00135601)
(-0.00181138 0.00123935 0.00130346)
(-0.00193275 0.0013912 0.00104428)
(-0.00195778 0.00145699 0.000648598)
(-0.0018981 0.00142088 0.000225376)
(-0.00177529 0.00129863 -0.000153364)
(-0.00161279 0.00111881 -0.000450208)
(-0.0014325 0.000911987 -0.000651176)
(-0.0012485 0.00069842 -0.000756988)
(-0.00106384 0.000486993 -0.000775021)
(-0.000871373 0.000279973 -0.000713431)
(-0.000657641 7.79208e-05 -0.000578102)
(-0.000408395 -0.000117458 -0.000372546)
(-0.000114529 -0.000302912 -0.00010082)
(0.000223088 -0.000475082 0.000226834)
(0.000591175 -0.000632549 0.000586884)
(0.000964656 -0.000777774 0.000936789)
(0.00131102 -0.000919141 0.00121564)
(0.00159968 -0.00107058 0.00135601)
(0.00181138 -0.00123935 0.00130346)
(0.00167785 -0.00127954 0.000926469)
(0.00178922 -0.00136052 0.000750361)
(0.00184545 -0.00132203 0.000521205)
(0.00182537 -0.00118155 0.000268998)
(0.00173162 -0.000976416 2.81158e-05)
(0.00158107 -0.000742529 -0.000168043)
(0.00139082 -0.000503976 -0.000296029)
(0.00117064 -0.000274602 -0.000344381)
(0.000923097 -6.30082e-05 -0.000310527)
(0.00064734 0.000124191 -0.000197938)
(0.000343632 0.000281621 -1.58764e-05)
(1.75049e-05 0.000406603 0.000218541)
(-0.000317842 0.00050246 0.000478025)
(-0.000642651 0.000582089 0.000726006)
(-0.000936172 0.00066758 0.000923872)
(-0.00118409 0.000781831 0.00104328)
(-0.00138357 0.000934685 0.001076)
(-0.00154366 0.00111393 0.00103289)
(-0.00167785 0.00127954 0.000926469)
(-0.00178922 0.00136052 0.000750361)
(-0.00184545 0.00132203 0.000521205)
(-0.00182537 0.00118155 0.000268998)
(-0.00173162 0.000976416 2.81158e-05)
(-0.00158107 0.000742529 -0.000168043)
(-0.00139082 0.000503976 -0.000296029)
(-0.00117064 0.000274602 -0.000344381)
(-0.000923097 6.30082e-05 -0.000310527)
(-0.00064734 -0.000124191 -0.000197938)
(-0.000343632 -0.000281621 -1.58764e-05)
(-1.75049e-05 -0.000406603 0.000218541)
(0.000317842 -0.00050246 0.000478025)
(0.000642651 -0.000582089 0.000726006)
(0.000936172 -0.00066758 0.000923872)
(0.00118409 -0.000781831 0.00104328)
(0.00138357 -0.000934685 0.001076)
(0.00154366 -0.00111393 0.00103289)
(0.00238894 -0.00195893 0.00146751)
(0.00233089 -0.00203317 0.000783395)
(0.00214865 -0.00200241 3.88904e-05)
(0.00191008 -0.00188651 -0.000607752)
(0.00166769 -0.00170901 -0.00108058)
(0.00144786 -0.00149499 -0.0013727)
(0.00125651 -0.00126307 -0.00150948)
(0.00108646 -0.00102125 -0.00152011)
(0.000920577 -0.000769307 -0.00142545)
(0.000734591 -0.000503793 -0.00123465)
(0.000502163 -0.000222361 -0.000946053)
(0.000201596 7.38235e-05 -0.000552137)
(-0.000177232 0.000379172 -5.05894e-05)
(-0.000626677 0.000683996 0.000537835)
(-0.001117 0.000977944 0.00114965)
(-0.00159703 0.00125735 0.00167117)
(-0.00200296 0.0015269 0.00195922)
(-0.00227787 0.00177654 0.00189736)
(-0.00238894 0.00195893 0.00146751)
(-0.00233089 0.00203317 0.000783395)
(-0.00214865 0.00200241 3.88904e-05)
(-0.00191008 0.00188651 -0.000607752)
(-0.00166769 0.00170901 -0.00108058)
(-0.00144786 0.00149499 -0.0013727)
(-0.00125651 0.00126307 -0.00150948)
(-0.00108646 0.00102125 -0.00152011)
(-0.000920577 0.000769307 -0.00142545)
(-0.000734591 0.000503793 -0.00123465)
(-0.000502163 0.000222361 -0.000946053)
(-0.000201596 -7.38235e-05 -0.000552137)
(0.000177232 -0.000379172 -5.05894e-05)
(0.000626677 -0.000683996 0.000537835)
(0.001117 -0.000977944 0.00114965)
(0.00159703 -0.00125735 0.00167117)
(0.00200296 -0.0015269 0.00195922)
(0.00227787 -0.00177654 0.00189736)
(0.00220791 -0.00171074 0.00133128)
(0.0022319 -0.00178466 0.00089598)
(0.0021596 -0.001751 0.000390787)
(0.00201726 -0.00162421 -8.53516e-05)
(0.00183446 -0.00143221 -0.000469541)
(0.00163406 -0.00120375 -0.000736727)
(0.00142798 -0.000959258 -0.000885326)
(0.00121703 -0.000709432 -0.000923255)
(0.000993102 -0.000458731 -0.000859502)
(0.000742801 -0.000209398 -0.000700622)
(0.000452467 3.60018e-05 -0.000451072)
(0.000113679 0.00027397 -0.000117094)
(-0.000271932 0.000501105 0.000286266)
(-0.000689794 0.000716042 0.000726879)
(-0.00111274 0.000921807 0.00115042)
(-0.00150598 0.00112692 0.00148409)
(-0.00183566 0.00133951 0.00165201)
(-0.00207528 0.00154815 0.00160102)
(-0.00220791 0.00171074 0.00133128)
(-0.0022319 0.00178466 0.00089598)
(-0.0021596 0.001751 0.000390787)
(-0.00201726 0.00162421 -8.53516e-05)
(-0.00183446 0.00143221 -0.000469541)
(-0.00163406 0.00120375 -0.000736727)
(-0.00142798 0.000959258 -0.000885326)
(-0.00121703 0.000709432 -0.000923255)
(-0.000993102 0.000458731 -0.000859502)
(-0.000742801 0.000209398 -0.000700622)
(-0.000452467 -3.60018e-05 -0.000451072)
(-0.000113679 -0.00027397 -0.000117094)
(0.000271932 -0.000501105 0.000286266)
(0.000689794 -0.000716042 0.000726879)
(0.00111274 -0.000921807 0.00115042)
(0.00150598 -0.00112692 0.00148409)
(0.00183566 -0.00133951 0.00165201)
(0.00207528 -0.00154815 0.00160102)
(0.00200788 -0.00150767 0.00117481)
(0.00208661 -0.00157527 0.000966863)
(0.00210608 -0.00154047 0.000697491)
(0.0020569 -0.00140644 0.000397742)
(0.00194105 -0.00120073 0.000110411)
(0.00177152 -0.000955283 -0.000124121)
(0.00156197 -0.000694123 -0.000277758)
(0.00131968 -0.00043254 -0.000336662)
(0.00104568 -0.000181033 -0.00029767)
(0.000738299 5.20378e-05 -0.00016494)
(0.000397349 0.00026004 5.04354e-05)
(2.77146e-05 0.000439364 0.000328094)
(-0.000358345 0.000592008 0.000635747)
(-0.000741615 0.000728132 0.000930635)
(-0.00110013 0.000864902 0.00116854)
(-0.0014152 0.00101846 0.00131693)
(-0.00167488 0.00119194 0.00136276)
(-0.0018728 0.00136714 0.00131032)
(-0.00200788 0.00150767 0.00117481)
(-0.00208661 0.00157527 0.000966863)
(-0.00210608 0.00154047 0.000697491)
(-0.0020569 0.00140644 0.000397742)
(-0.00194105 0.00120073 0.000110411)
(-0.00177152 0.000955283 -0.000124121)
(-0.00156197 0.000694123 -0.000277758)
(-0.00131968 0.00043254 -0.000336662)
(-0.00104568 0.000181033 -0.00029767)
(-0.000738299 -5.20378e-05 -0.00016494)
(-0.000397349 -0.00026004 5.04354e-05)
(-2.77146e-05 -0.000439364 0.000328094)
(0.000358345 -0.000592008 0.000635747)
(0.000741615 -0.000728132 0.000930635)
(0.00110013 -0.000864902 0.00116854)
(0.0014152 -0.00101846 0.00131693)
(0.00167488 -0.00119194 0.00136276)
(0.0018728 -0.00136714 0.00131032)
(0.00248312 -0.00224556 0.00165455)
(0.00245017 -0.00236547 0.000994047)
(0.00228711 -0.00236709 0.000217989)
(0.00205304 -0.00226804 -0.000505392)
(0.00180506 -0.00209327 -0.00106772)
(0.00157442 -0.0018679 -0.00143844)
(0.00136688 -0.00161193 -0.00163345)
(0.00117356 -0.00133676 -0.00167969)
(0.000977471 -0.00104583 -0.00159777)
(0.000756791 -0.000738236 -0.00139736)
(0.000488913 -0.000412582 -0.00107844)
(0.000156122 -6.94963e-05 -0.000637146)
(-0.000248031 0.000286918 -7.79711e-05)
(-0.000712643 0.000649183 0.000567393)
(-0.0012061 0.00100962 0.00122277)
(-0.00167959 0.00136412 0.00176885)
(-0.00207853 0.00170667 0.0020738)
(-0.0023567 0.00201408 0.00204144)
(-0.00248312 0.00224556 0.00165455)
(-0.00245017 0.00236547 0.000994047)
(-0.00228711 0.00236709 0.000217989)
(-0.00205304 0.00226804 -0.000505392)
(-0.00180506 0.00209327 -0.00106772)
(-0.00157442 0.0018679 -0.00143844)
(-0.00136688 0.00161193 -0.00163345)
(-0.00117356 0.00133676 -0.00167969)
(-0.000977471 0.00104583 -0.00159777)
(-0.000756791 0.000738236 -0.00139736)
(-0.000488913 0.000412582 -0.00107844)
(-0.000156122 6.94963e-05 -0.000637146)
(0.000248031 -0.000286918 -7.79711e-05)
(0.000712643 -0.000649183 0.000567393)
(0.0012061 -0.00100962 0.00122277)
(0.00167959 -0.00136412 0.00176885)
(0.00207853 -0.00170667 0.0020738)
(0.0023567 -0.00201408 0.00204144)
(0.00232898 -0.00193191 0.00149739)
(0.00235197 -0.00202236 0.00106432)
(0.00227543 -0.00200957 0.000538552)
(0.0021266 -0.00190104 1.821e-05)
(0.00193672 -0.00171891 -0.000419598)
(0.00172869 -0.00148849 -0.00073584)
(0.00151254 -0.00123001 -0.000921429)
(0.00128727 -0.000956107 -0.000981343)
(0.00104441 -0.00067365 -0.00092379)
(0.000771702 -0.000386718 -0.000755821)
(0.000457317 -9.87225e-05 -0.000483633)
(9.44817e-05 0.000186776 -0.000116694)
(-0.00031419 0.000466392 0.000324987)
(-0.000753561 0.000738079 0.000802776)
(-0.00119577 0.00100282 0.00125597)
(-0.00160501 0.00126421 0.00160907)
(-0.00194632 0.00152082 0.0017903)
(-0.00219292 0.00175434 0.00175402)
(-0.00232898 0.00193191 0.00149739)
(-0.00235197 0.00202236 0.00106432)
(-0.00227543 0.00200957 0.000538552)
(-0.0021266 0.00190104 1.821e-05)
(-0.00193672 0.00171891 -0.000419598)
(-0.00172869 0.00148849 -0.00073584)
(-0.00151254 0.00123001 -0.000921429)
(-0.00128727 0.000956107 -0.000981343)
(-0.00104441 0.00067365 -0.00092379)
(-0.000771702 0.000386718 -0.000755821)
(-0.000457317 9.87225e-05 -0.000483633)
(-9.44817e-05 -0.000186776 -0.000116694)
(0.00031419 -0.000466392 0.000324987)
(0.000753561 -0.000738079 0.000802776)
(0.00119577 -0.00100282 0.00125597)
(0.00160501 -0.00126421 0.00160907)
(0.00194632 -0.00152082 0.0017903)
(0.00219292 -0.00175434 0.00175402)
(0.00218054 -0.00166871 0.00132806)
(0.00223785 -0.00172286 0.00110642)
(0.00222813 -0.00169187 0.000822787)
(0.00215508 -0.00157287 0.000506241)
(0.00202383 -0.00138157 0.000198399)
(0.0018442 -0.00114218 -5.71511e-05)
(0.00162619 -0.000876198 -0.000227611)
(0.00137479 -0.000599091 -0.000295781)
(0.00108993 -0.000322324 -0.000257178)
(0.000769549 -5.51825e-05 -0.000116351)
(0.000413174 0.000195044 0.000113899)
(2.48419e-05 0.000423972 0.000410484)
(-0.000384765 0.000631672 0.00073789)
(-0.000798001 0.000823903 0.00105081)
(-0.00119257 0.00101034 0.00130415)
(-0.00154529 0.00119798 0.00146523)
(-0.00183544 0.00138293 0.00151995)
(-0.00204844 0.00154781 0.00147042)
(-0.00218054 0.00166871 0.00132806)
(-0.00223785 0.00172286 0.00110642)
(-0.00222813 0.00169187 0.000822787)
(-0.00215508 0.00157287 0.000506241)
(-0.00202383 0.00138157 0.000198399)
(-0.0018442 0.00114218 -5.71511e-05)
(-0.00162619 0.000876198 -0.000227611)
(-0.00137479 0.000599091 -0.000295781)
(-0.00108993 0.000322324 -0.000257178)
(-0.00076955 5.51825e-05 -0.000116351)
(-0.000413174 -0.000195044 0.000113899)
(-2.48419e-05 -0.000423972 0.000410484)
(0.000384765 -0.000631672 0.00073789)
(0.000798001 -0.000823903 0.00105081)
(0.00119257 -0.00101034 0.00130415)
(0.00154529 -0.00119798 0.00146523)
(0.00183544 -0.00138293 0.00151995)
(0.00204844 -0.00154781 0.00147042)
(0.00243113 -0.00240505 0.001683)
(0.00241657 -0.00257745 0.00108859)
(0.00228157 -0.0026317 0.000356607)
(0.0020707 -0.00257527 -0.000365466)
(0.00183466 -0.00242765 -0.000961605)
(0.00160625 -0.00221217 -0.00137978)
(0.00139318 -0.00195006 -0.00161909)
(0.00118694 -0.00165625 -0.00169814)
(0.000971691 -0.00133835 -0.00163461)
(0.000728828 -0.000998671 -0.0014385)
(0.000440404 -0.000637301 -0.00111274)
(9.3595e-05 -0.000254873 -0.00065891)
(-0.000313821 0.000145255 -8.92296e-05)
(-0.000768076 0.000556409 0.000556522)
(-0.0012376 0.00097075 0.00119891)
(-0.00167874 0.00138084 0.00172641)
(-0.00204692 0.00177451 0.00202504)
(-0.00230579 0.0021273 0.00201554)
(-0.00243113 0.00240505 0.001683)
(-0.00241657 0.00257745 0.00108859)
(-0.00228157 0.0026317 0.000356607)
(-0.0020707 0.00257527 -0.000365466)
(-0.00183466 0.00242765 -0.000961605)
(-0.00160625 0.00221217 -0.00137978)
(-0.00139318 0.00195006 -0.00161909)
(-0.00118694 0.00165625 -0.00169814)
(-0.000971691 0.00133835 -0.00163461)
(-0.000728828 0.000998671 -0.0014385)
(-0.000440404 0.000637301 -0.00111274)
(-9.3595e-05 0.000254873 -0.00065891)
(0.000313821 -0.000145255 -8.92296e-05)
(0.000768076 -0.000556409 0.000556522)
(0.0012376 -0.00097075 0.00119891)
(0.00167874 -0.00138084 0.00172641)
(0.00204692 -0.00177451 0.00202504)
(0.00230579 -0.0021273 0.00201554)
(0.00230412 -0.00205864 0.00153925)
(0.00232804 -0.00217497 0.00114078)
(0.00225711 -0.00219443 0.000640799)
(0.00211528 -0.00211871 0.000125983)
(0.00193101 -0.00196258 -0.000326057)
(0.00172602 -0.00174649 -0.000666628)
(0.00150955 -0.00148954 -0.000876917)
(0.0012801 -0.00120585 -0.00095603)
(0.00102977 -0.000904569 -0.000909772)
(0.000748176 -0.000591619 -0.000745336)
(0.000425999 -0.000271329 -0.000471065)
(5.87605e-05 5.24833e-05 -0.000100091)
(-0.000349484 0.000376006 0.000343258)
(-0.000783101 0.000695639 0.000817078)
(-0.00121476 0.0010089 0.00126105)
(-0.00161043 0.00131365 0.00160538)
(-0.00193793 0.00160299 0.00178706)
(-0.00217355 0.00185975 0.00176644)
(-0.00230412 0.00205864 0.00153925)
(-0.00232804 0.00217497 0.00114078)
(-0.00225711 0.00219443 0.000640799)
(-0.00211528 0.00211871 0.000125983)
(-0.00193101 0.00196258 -0.000326057)
(-0.00172602 0.00174649 -0.000666628)
(-0.00150955 0.00148954 -0.000876917)
(-0.0012801 0.00120585 -0.00095603)
(-0.00102977 0.000904569 -0.000909772)
(-0.000748177 0.000591619 -0.000745336)
(-0.000425999 0.000271329 -0.000471065)
(-5.87605e-05 -5.24833e-05 -0.000100091)
(0.000349484 -0.000376006 0.000343258)
(0.000783101 -0.000695639 0.000817078)
(0.00121476 -0.0010089 0.00126105)
(0.00161043 -0.00131365 0.00160538)
(0.00193793 -0.00160299 0.00178706)
(0.00217355 -0.00185975 0.00176644)
(0.00220249 -0.00176275 0.0013828)
(0.00224788 -0.00181487 0.00116904)
(0.00222307 -0.00179303 0.000893475)
(0.00213766 -0.00169382 0.000584084)
(0.00199995 -0.00152534 0.000279017)
(0.00181854 -0.00130373 2.06672e-05)
(0.00160091 -0.00104627 -0.000155931)
(0.0013505 -0.000767406 -0.000230507)
(0.00106682 -0.000478834 -0.00019678)
(0.000748001 -0.000190211 -5.91942e-05)
(0.000393701 9.0803e-05 0.000168204)
(7.56221e-06 0.000358972 0.000460494)
(-0.000400847 0.000612006 0.000781093)
(-0.000815218 0.000850732 0.00108594)
(-0.00121362 0.00107742 0.00133353)
(-0.00157121 0.00129157 0.00149463)
(-0.00186438 0.00148617 0.00155567)
(-0.00207649 0.00164828 0.00151591)
(-0.00220249 0.00176275 0.0013828)
(-0.00224788 0.00181487 0.00116904)
(-0.00222307 0.00179303 0.000893475)
(-0.00213766 0.00169382 0.000584084)
(-0.00199995 0.00152534 0.000279017)
(-0.00181854 0.00130373 2.06672e-05)
(-0.00160091 0.00104627 -0.000155931)
(-0.0013505 0.000767406 -0.000230507)
(-0.00106682 0.000478834 -0.00019678)
(-0.000748001 0.000190211 -5.91942e-05)
(-0.000393701 -9.0803e-05 0.000168204)
(-7.56224e-06 -0.000358972 0.000460494)
(0.000400847 -0.000612006 0.000781093)
(0.000815218 -0.000850732 0.00108594)
(0.00121362 -0.00107742 0.00133353)
(0.00157121 -0.00129157 0.00149463)
(0.00186438 -0.00148617 0.00155567)
(0.00207649 -0.00164828 0.00151591)
(0.00226152 -0.00246242 0.00157575)
(0.00225745 -0.00268458 0.00106905)
(0.00215107 -0.00279411 0.000425996)
(0.00197335 -0.0027897 -0.000235785)
(0.00176259 -0.00268296 -0.000811789)
(0.00154771 -0.00249327 -0.00123989)