/*--------------------------------*- C++ -*----------------------------------*\
| =========                 |                                                 |
| \\      /  F ield         | OpenFOAM: The Open Source CFD Toolbox           |
|  \\    /   O peration     | Version:  2312                                  |
|   \\  /    A nd           | Website:  www.openfoam.com                      |
|    \\/     M anipulation  |                                                 |
\*---------------------------------------------------------------------------*/
FoamFile
{
    version     2.0;
    format      ascii;
    arch        "LSB;label=32;scalar=64";
    class       volVectorField;
    location    "0.5";
    object      D_0_0;
}
// * * * * * * * * * * * * * * * * * * * * * * * * * * * * * * * * * * * * * //

dimensions      [0 1 0 0 0 0 0];

internalField   nonuniform List<vector> 
1620
(
(-0.000219988 0.000263213 -9.25264e-05)
(-0.000262352 0.000221013 -9.25266e-05)
(-0.000296745 0.000172098 -9.25265e-05)
(-0.000322122 0.000117955 -9.25263e-05)
(-0.000337711 6.02277e-05 -9.25264e-05)
(-0.000343039 6.6959e-07 -9.25266e-05)
(-0.000337943 -5.89087e-05 -9.25262e-05)
(-0.00032258 -0.000116697 -9.25261e-05)
(-0.000297415 -0.00017094 -9.25264e-05)
(-0.000263213 -0.000219988 -9.25264e-05)
(-0.000221013 -0.000262352 -9.25266e-05)
(-0.000172098 -0.000296745 -9.25265e-05)
(-0.000117955 -0.000322122 -9.25263e-05)
(-6.02277e-05 -0.000337711 -9.25264e-05)
(-6.69572e-07 -0.000343039 -9.25266e-05)
(5.89088e-05 -0.000337943 -9.25262e-05)
(0.000116697 -0.00032258 -9.25261e-05)
(0.00017094 -0.000297415 -9.25264e-05)
(0.000219988 -0.000263213 -9.25264e-05)
(0.000262352 -0.000221013 -9.25266e-05)
(0.000296745 -0.000172098 -9.25265e-05)
(0.000322122 -0.000117955 -9.25263e-05)
(0.000337711 -6.02277e-05 -9.25264e-05)
(0.000343039 -6.69574e-07 -9.25266e-05)
(0.000337943 5.89088e-05 -9.25262e-05)
(0.00032258 0.000116697 -9.25261e-05)
(0.000297415 0.00017094 -9.25263e-05)
(0.000263213 0.000219988 -9.25264e-05)
(0.000221013 0.000262352 -9.25266e-05)
(0.000172098 0.000296745 -9.25265e-05)
(0.000117955 0.000322122 -9.25263e-05)
(6.02277e-05 0.000337711 -9.25264e-05)
(6.696e-07 0.000343039 -9.25266e-05)
(-5.89087e-05 0.000337943 -9.25262e-05)
(-0.000116697 0.00032258 -9.25261e-05)
(-0.00017094 0.000297415 -9.25263e-05)
(-0.000157962 0.000307881 -6.25134e-05)
(-0.000209025 0.000275774 -6.25134e-05)
(-0.000253737 0.000235288 -6.25134e-05)
(-0.000290739 0.000187652 -6.25133e-05)
(-0.000318908 0.000134315 -6.25134e-05)
(-0.000337387 7.68967e-05 -6.25134e-05)
(-0.000345614 1.7142e-05 -6.25133e-05)
(-0.00034334 -4.31336e-05 -6.25133e-05)
(-0.000330634 -0.000102099 -6.25134e-05)
(-0.000307881 -0.000157962 -6.25134e-05)
(-0.000275774 -0.000209025 -6.25134e-05)
(-0.000235288 -0.000253737 -6.25134e-05)
(-0.000187652 -0.000290739 -6.25133e-05)
(-0.000134315 -0.000318908 -6.25134e-05)
(-7.68967e-05 -0.000337387 -6.25134e-05)
(-1.7142e-05 -0.000345614 -6.25133e-05)
(4.31336e-05 -0.00034334 -6.25133e-05)
(0.000102099 -0.000330634 -6.25134e-05)
(0.000157962 -0.000307881 -6.25134e-05)
(0.000209025 -0.000275774 -6.25134e-05)
(0.000253737 -0.000235288 -6.25134e-05)
(0.000290739 -0.000187652 -6.25133e-05)
(0.000318908 -0.000134315 -6.25134e-05)
(0.000337387 -7.68967e-05 -6.25134e-05)
(0.000345614 -1.7142e-05 -6.25133e-05)
(0.00034334 4.31336e-05 -6.25133e-05)
(0.000330634 0.000102099 -6.25134e-05)
(0.000307881 0.000157962 -6.25134e-05)
(0.000275774 0.000209025 -6.25134e-05)
(0.000235288 0.000253737 -6.25134e-05)
(0.000187652 0.000290739 -6.25133e-05)
(0.000134315 0.000318908 -6.25134e-05)
(7.68967e-05 0.000337387 -6.25134e-05)
(1.7142e-05 0.000345614 -6.25133e-05)
(-4.31336e-05 0.00034334 -6.25133e-05)
(-0.000102099 0.000330634 -6.25134e-05)
(-0.000118315 0.000350742 -3.26544e-05)
(-0.000177424 0.000324868 -3.26544e-05)
(-0.000231141 0.000289124 -3.26546e-05)
(-0.000277835 0.000244594 -3.26545e-05)
(-0.000316088 0.000192633 -3.26546e-05)
(-0.000344736 0.000134818 -3.26545e-05)
(-0.00036291 7.2907e-05 -3.26546e-05)
(-0.000370056 8.78072e-06 -3.26546e-05)
(-0.000365959 -5.56122e-05 -3.26545e-05)
(-0.000350742 -0.000118315 -3.26545e-05)
(-0.000324868 -0.000177424 -3.26544e-05)
(-0.000289124 -0.000231141 -3.26546e-05)
(-0.000244594 -0.000277835 -3.26545e-05)
(-0.000192633 -0.000316088 -3.26546e-05)
(-0.000134818 -0.000344736 -3.26545e-05)
(-7.29069e-05 -0.00036291 -3.26546e-05)
(-8.78071e-06 -0.000370056 -3.26547e-05)
(5.56122e-05 -0.000365959 -3.26545e-05)
(0.000118315 -0.000350742 -3.26545e-05)
(0.000177424 -0.000324868 -3.26545e-05)
(0.000231141 -0.000289124 -3.26546e-05)
(0.000277835 -0.000244594 -3.26545e-05)
(0.000316088 -0.000192633 -3.26546e-05)
(0.000344736 -0.000134818 -3.26545e-05)
(0.00036291 -7.29069e-05 -3.26546e-05)
(0.000370056 -8.7807e-06 -3.26546e-05)
(0.000365959 5.56122e-05 -3.26545e-05)
(0.000350742 0.000118315 -3.26544e-05)
(0.000324868 0.000177424 -3.26544e-05)
(0.000289124 0.000231141 -3.26546e-05)
(0.000244594 0.000277835 -3.26545e-05)
(0.000192633 0.000316088 -3.26546e-05)
(0.000134818 0.000344736 -3.26545e-05)
(7.29069e-05 0.00036291 -3.26546e-05)
(8.78071e-06 0.000370056 -3.26546e-05)
(-5.56122e-05 0.000365959 -3.26545e-05)
(-0.000525892 0.000803416 -0.000314349)
(-0.000657415 0.00069989 -0.000314349)
(-0.000768962 0.000575099 -0.000314349)
(-0.000857144 0.000432833 -0.000314348)
(-0.000919283 0.000277417 -0.000314348)
(-0.00095349 0.00011357 -0.000314348)
(-0.000958726 -5.37271e-05 -0.000314348)
(-0.000934831 -0.000219392 -0.000314348)
(-0.000882531 -0.000378391 -0.000314349)
(-0.000803416 -0.000525892 -0.000314349)
(-0.00069989 -0.000657415 -0.000314349)
(-0.000575099 -0.000768962 -0.000314349)
(-0.000432833 -0.000857144 -0.000314348)
(-0.000277417 -0.000919283 -0.000314348)
(-0.00011357 -0.00095349 -0.000314348)
(5.37272e-05 -0.000958726 -0.000314348)
(0.000219392 -0.000934831 -0.000314348)
(0.000378391 -0.000882531 -0.000314349)
(0.000525892 -0.000803416 -0.000314349)
(0.000657415 -0.00069989 -0.000314349)
(0.000768962 -0.000575099 -0.000314349)
(0.000857144 -0.000432833 -0.000314348)
(0.000919283 -0.000277417 -0.000314348)
(0.00095349 -0.00011357 -0.000314348)
(0.000958726 5.37272e-05 -0.000314348)
(0.000934831 0.000219392 -0.000314348)
(0.000882531 0.000378391 -0.000314349)
(0.000803416 0.000525892 -0.000314349)
(0.00069989 0.000657415 -0.000314349)
(0.000575099 0.000768962 -0.000314349)
(0.000432833 0.000857144 -0.000314348)
(0.000277417 0.000919283 -0.000314348)
(0.00011357 0.00095349 -0.000314348)
(-5.37271e-05 0.000958726 -0.000314348)
(-0.000219392 0.000934831 -0.000314348)
(-0.000378391 0.000882531 -0.000314348)
(-0.000475737 0.000916062 -0.000230879)
(-0.000627582 0.000819534 -0.00023088)
(-0.000760358 0.000698105 -0.00023088)
(-0.000870032 0.000555466 -0.000230879)
(-0.00095327 0.000395947 -0.000230879)
(-0.00100754 0.000224398 -0.000230879)
(-0.0010312 4.6031e-05 -0.000230879)
(-0.00102353 -0.000133735 -0.000230879)
(-0.000984756 -0.000309437 -0.000230879)
(-0.000916062 -0.000475737 -0.000230879)
(-0.000819534 -0.000627582 -0.00023088)
(-0.000698105 -0.000760358 -0.00023088)
(-0.000555466 -0.000870032 -0.00023088)
(-0.000395947 -0.00095327 -0.000230879)
(-0.000224398 -0.00100754 -0.000230879)
(-4.60309e-05 -0.0010312 -0.000230879)
(0.000133735 -0.00102353 -0.000230879)
(0.000309437 -0.000984756 -0.000230879)
(0.000475737 -0.000916062 -0.000230879)
(0.000627582 -0.000819534 -0.00023088)
(0.000760359 -0.000698105 -0.00023088)
(0.000870032 -0.000555466 -0.00023088)
(0.00095327 -0.000395947 -0.000230879)
(0.00100754 -0.000224398 -0.000230879)
(0.0010312 -4.60309e-05 -0.000230879)
(0.00102353 0.000133735 -0.000230879)
(0.000984756 0.000309437 -0.000230879)
(0.000916062 0.000475737 -0.000230879)
(0.000819534 0.000627582 -0.00023088)
(0.000698105 0.000760359 -0.00023088)
(0.000555466 0.000870032 -0.000230879)
(0.000395947 0.00095327 -0.000230879)
(0.000224398 0.00100754 -0.000230879)
(4.6031e-05 0.0010312 -0.000230879)
(-0.000133735 0.00102353 -0.000230879)
(-0.000309437 0.000984756 -0.000230879)
(-0.000454057 0.00102422 -0.000149144)
(-0.000625012 0.000929813 -0.000149144)
(-0.000776977 0.000807155 -0.000149144)
(-0.000905333 0.000659972 -0.000149144)
(-0.00100618 0.000492736 -0.000149144)
(-0.00107646 0.000310528 -0.000149144)
(-0.00111403 0.000118885 -0.000149144)
(-0.00111775 -7.63698e-05 -0.000149144)
(-0.00108751 -0.000269305 -0.000149144)
(-0.00102422 -0.000454057 -0.000149144)
(-0.000929813 -0.000625012 -0.000149144)
(-0.000807155 -0.000776977 -0.000149144)
(-0.000659972 -0.000905333 -0.000149144)
(-0.000492736 -0.00100618 -0.000149144)
(-0.000310528 -0.00107646 -0.000149144)
(-0.000118885 -0.00111403 -0.000149144)
(7.63698e-05 -0.00111775 -0.000149144)
(0.000269305 -0.00108751 -0.000149144)
(0.000454057 -0.00102422 -0.000149144)
(0.000625012 -0.000929813 -0.000149144)
(0.000776977 -0.000807155 -0.000149144)
(0.000905333 -0.000659972 -0.000149144)
(0.00100618 -0.000492736 -0.000149144)
(0.00107646 -0.000310528 -0.000149144)
(0.00111403 -0.000118885 -0.000149144)
(0.00111775 7.63698e-05 -0.000149144)
(0.00108751 0.000269305 -0.000149144)
(0.00102422 0.000454057 -0.000149144)
(0.000929813 0.000625012 -0.000149144)
(0.000807155 0.000776977 -0.000149144)
(0.000659972 0.000905333 -0.000149144)
(0.000492736 0.00100618 -0.000149144)
(0.000310528 0.00107646 -0.000149144)
(0.000118885 0.00111403 -0.000149144)
(-7.63698e-05 0.00111775 -0.000149144)
(-0.000269305 0.00108751 -0.000149144)
(-0.000821636 0.00135403 -0.00060212)
(-0.00104428 0.00119078 -0.00060212)
(-0.00123519 0.000991356 -0.00060212)
(-0.00138857 0.000761807 -0.000602119)
(-0.00149976 0.000509111 -0.000602119)
(-0.00156538 0.000240946 -0.000602119)
(-0.00158344 -3.45413e-05 -0.000602119)
(-0.00155339 -0.000308979 -0.000602119)
(-0.00147614 -0.000574028 -0.00060212)
(-0.00135403 -0.000821636 -0.00060212)
(-0.00119078 -0.00104428 -0.00060212)
(-0.000991356 -0.00123519 -0.00060212)
(-0.000761807 -0.00138857 -0.000602119)
(-0.000509111 -0.00149976 -0.000602119)
(-0.000240946 -0.00156538 -0.000602119)
(3.45414e-05 -0.00158344 -0.000602119)
(0.000308979 -0.00155339 -0.000602119)
(0.000574028 -0.00147614 -0.00060212)
(0.000821636 -0.00135403 -0.00060212)
(0.00104428 -0.00119078 -0.00060212)
(0.00123519 -0.000991356 -0.00060212)
(0.00138857 -0.000761807 -0.000602119)
(0.00149976 -0.000509111 -0.000602119)
(0.00156538 -0.000240946 -0.000602119)
(0.00158344 3.45414e-05 -0.000602119)
(0.00155339 0.000308979 -0.000602119)
(0.00147614 0.000574028 -0.00060212)
(0.00135403 0.000821636 -0.00060212)
(0.00119078 0.00104428 -0.00060212)
(0.000991356 0.00123519 -0.00060212)
(0.000761807 0.00138857 -0.000602119)
(0.000509111 0.00149976 -0.000602119)
(0.000240946 0.00156538 -0.000602119)
(-3.45413e-05 0.00158344 -0.000602119)
(-0.000308979 0.00155339 -0.000602119)
(-0.000574028 0.00147614 -0.00060212)
(-0.000787427 0.00151497 -0.000475123)
(-0.00103854 0.00135522 -0.000475123)
(-0.00125809 0.00115429 -0.000475123)
(-0.00143942 0.00091829 -0.000475123)
(-0.00157701 0.000654388 -0.000475123)
(-0.00166668 0.000370601 -0.000475123)
(-0.00170572 7.55541e-05 -0.000475123)
(-0.00169292 -0.000221789 -0.000475123)
(-0.00162869 -0.000512392 -0.000475123)
(-0.00151497 -0.000787427 -0.000475123)
(-0.00135522 -0.00103854 -0.000475123)
(-0.00115429 -0.00125809 -0.000475123)
(-0.00091829 -0.00143942 -0.000475123)
(-0.000654388 -0.00157701 -0.000475123)
(-0.000370601 -0.00166668 -0.000475123)
(-7.5554e-05 -0.00170572 -0.000475123)
(0.000221789 -0.00169292 -0.000475123)
(0.000512392 -0.00162869 -0.000475123)
(0.000787427 -0.00151497 -0.000475123)
(0.00103854 -0.00135522 -0.000475124)
(0.00125809 -0.00115429 -0.000475123)
(0.00143942 -0.00091829 -0.000475123)
(0.00157701 -0.000654388 -0.000475123)
(0.00166668 -0.000370601 -0.000475123)
(0.00170572 -7.5554e-05 -0.000475123)
(0.00169292 0.000221789 -0.000475123)
(0.00162869 0.000512392 -0.000475123)
(0.00151497 0.000787427 -0.000475123)
(0.00135522 0.00103854 -0.000475123)
(0.00115429 0.00125809 -0.000475123)
(0.00091829 0.00143942 -0.000475123)
(0.000654388 0.00157701 -0.000475122)
(0.000370601 0.00166668 -0.000475123)
(7.55541e-05 0.00170572 -0.000475123)
(-0.000221789 0.00169292 -0.000475123)
(-0.000512392 0.00162869 -0.000475123)
(-0.000785417 0.00166462 -0.000351771)
(-0.00106254 0.00150294 -0.000351771)
(-0.00130738 0.0012956 -0.000351771)
(-0.0015125 0.0010489 -0.000351771)
(-0.00167166 0.000770318 -0.000351772)
(-0.00178003 0.000468334 -0.000351772)
(-0.00183431 0.00015212 -0.000351771)
(-0.00183286 -0.000168716 -0.000351771)
(-0.00177572 -0.000484426 -0.000351771)
(-0.00166462 -0.000785417 -0.000351771)
(-0.00150294 -0.00106254 -0.000351771)
(-0.0012956 -0.00130738 -0.000351771)
(-0.0010489 -0.0015125 -0.000351772)
(-0.000770318 -0.00167166 -0.000351772)
(-0.000468334 -0.00178003 -0.000351772)
(-0.00015212 -0.00183431 -0.000351771)
(0.000168716 -0.00183286 -0.000351771)
(0.000484426 -0.00177572 -0.000351771)
(0.000785417 -0.00166462 -0.000351771)
(0.00106254 -0.00150294 -0.000351771)
(0.00130738 -0.0012956 -0.000351771)
(0.0015125 -0.0010489 -0.000351772)
(0.00167166 -0.000770318 -0.000351772)
(0.00178003 -0.000468334 -0.000351772)
(0.00183431 -0.00015212 -0.000351771)
(0.00183286 0.000168716 -0.000351771)
(0.00177572 0.000484426 -0.000351771)
(0.00166462 0.000785417 -0.000351771)
(0.00150294 0.00106254 -0.000351771)
(0.0012956 0.00130738 -0.000351771)
(0.0010489 0.0015125 -0.000351771)
(0.000770318 0.00167166 -0.000351772)
(0.000468334 0.00178003 -0.000351772)
(0.00015212 0.00183431 -0.000351771)
(-0.000168716 0.00183286 -0.000351771)
(-0.000484426 0.00177572 -0.000351771)
(-0.00110449 0.00191533 -0.000938498)
(-0.00142031 0.00169444 -0.000938498)
(-0.00169297 0.00142206 -0.000938498)
(-0.00191419 0.00110648 -0.000938498)
(-0.00207724 0.000757273 -0.000938498)
(-0.00217718 0.000385059 -0.000938497)
(-0.00221097 1.14533e-06 -0.000938497)
(-0.00217758 -0.000382804 -0.000938497)
(-0.00207802 -0.000755121 -0.000938497)
(-0.00191533 -0.00110449 -0.000938498)
(-0.00169444 -0.00142031 -0.000938498)
(-0.00142206 -0.00169297 -0.000938498)
(-0.00110648 -0.00191419 -0.000938498)
(-0.000757273 -0.00207724 -0.000938498)
(-0.000385059 -0.00217718 -0.000938497)
(-1.14523e-06 -0.00221097 -0.000938497)
(0.000382804 -0.00217758 -0.000938497)
(0.000755121 -0.00207802 -0.000938497)
(0.00110449 -0.00191533 -0.000938498)
(0.00142031 -0.00169444 -0.000938499)
(0.00169297 -0.00142206 -0.000938498)
(0.00191419 -0.00110648 -0.000938498)
(0.00207724 -0.000757273 -0.000938498)
(0.00217718 -0.000385059 -0.000938497)
(0.00221097 -1.14523e-06 -0.000938497)
(0.00217758 0.000382804 -0.000938497)
(0.00207802 0.000755121 -0.000938497)
(0.00191533 0.00110449 -0.000938498)
(0.00169444 0.00142031 -0.000938498)
(0.00142206 0.00169297 -0.000938498)
(0.00110648 0.00191419 -0.000938498)
(0.000757273 0.00207724 -0.000938497)
(0.000385059 0.00217718 -0.000938497)
(1.14533e-06 0.00221097 -0.000938497)
(-0.000382804 0.00217758 -0.000938497)
(-0.000755121 0.00207802 -0.000938497)
(-0.00108991 0.0020923 -0.000778156)
(-0.00143668 0.00187125 -0.000778156)
(-0.00173979 0.00159335 -0.000778156)
(-0.00199004 0.00126703 -0.000778155)
(-0.00217983 0.000902212 -0.000778155)
(-0.00230338 0.000509982 -0.000778155)
(-0.00235694 0.000102257 -0.000778155)
(-0.00233889 -0.000308576 -0.000778155)
(-0.00224978 -0.000710032 -0.000778155)
(-0.0020923 -0.00108991 -0.000778156)
(-0.00187125 -0.00143668 -0.000778156)
(-0.00159335 -0.00173979 -0.000778156)
(-0.00126703 -0.00199004 -0.000778155)
(-0.000902212 -0.00217983 -0.000778155)
(-0.000509982 -0.00230338 -0.000778155)
(-0.000102257 -0.00235694 -0.000778155)
(0.000308576 -0.00233889 -0.000778155)
(0.000710032 -0.00224978 -0.000778155)
(0.00108991 -0.0020923 -0.000778156)
(0.00143668 -0.00187125 -0.000778156)
(0.00173979 -0.00159335 -0.000778156)
(0.00199004 -0.00126703 -0.000778155)
(0.00217983 -0.000902212 -0.000778155)
(0.00230338 -0.000509982 -0.000778155)
(0.00235694 -0.000102257 -0.000778155)
(0.00233889 0.000308576 -0.000778155)
(0.00224978 0.000710032 -0.000778155)
(0.0020923 0.00108991 -0.000778156)
(0.00187125 0.00143668 -0.000778156)
(0.00159335 0.00173979 -0.000778155)
(0.00126703 0.00199004 -0.000778155)
(0.000902212 0.00217983 -0.000778155)
(0.000509982 0.00230338 -0.000778155)
(0.000102257 0.00235694 -0.000778155)
(-0.000308576 0.00233889 -0.000778155)
(-0.000710032 0.00224978 -0.000778155)
(-0.00111032 0.00224964 -0.000623899)
(-0.0014841 0.00202265 -0.000623899)
(-0.00181278 0.00173422 -0.000623899)
(-0.00208639 0.00139308 -0.000623899)
(-0.00229659 0.00100962 -0.000623899)
(-0.00243702 0.000595484 -0.000623899)
(-0.0025034 0.000163252 -0.000623899)
(-0.00249372 -0.00027394 -0.0006239)
(-0.00240827 -0.000702808 -0.000623899)
(-0.00224964 -0.00111032 -0.000623899)
(-0.00202265 -0.0014841 -0.000623899)
(-0.00173422 -0.00181278 -0.000623899)
(-0.00139308 -0.00208639 -0.000623899)
(-0.00100962 -0.00229659 -0.000623899)
(-0.000595484 -0.00243702 -0.000623899)
(-0.000163252 -0.0025034 -0.000623899)
(0.00027394 -0.00249372 -0.0006239)
(0.000702808 -0.00240827 -0.000623899)
(0.00111032 -0.00224964 -0.000623899)
(0.0014841 -0.00202265 -0.0006239)
(0.00181278 -0.00173422 -0.000623899)
(0.00208639 -0.00139308 -0.000623899)
(0.00229659 -0.00100962 -0.000623899)
(0.00243702 -0.000595484 -0.000623899)
(0.0025034 -0.000163252 -0.000623899)
(0.00249372 0.00027394 -0.0006239)
(0.00240827 0.000702808 -0.000623899)
(0.00224964 0.00111032 -0.000623899)
(0.00202265 0.0014841 -0.000623899)
(0.00173422 0.00181278 -0.000623899)
(0.00139308 0.00208639 -0.000623899)
(0.00100962 0.00229659 -0.000623899)
(0.000595484 0.00243702 -0.000623899)
(0.000163252 0.0025034 -0.000623899)
(-0.00027394 0.00249372 -0.000623899)
(-0.000702808 0.00240827 -0.000623899)
(-0.00138369 0.0024768 -0.00131077)
(-0.00179277 0.0021989 -0.00131077)
(-0.00214736 0.00185418 -0.00131077)
(-0.00243672 0.00145313 -0.00131077)
(-0.00265203 0.00100792 -0.00131077)
(-0.00278676 0.000532087 -0.00131077)
(-0.00283682 4.00878e-05 -0.00131077)
(-0.00280068 -0.000453131 -0.00131077)
(-0.00267945 -0.000932581 -0.00131077)
(-0.0024768 -0.00138369 -0.00131077)
(-0.0021989 -0.00179277 -0.00131077)
(-0.00185418 -0.00214736 -0.00131077)
(-0.00145313 -0.00243672 -0.00131077)
(-0.00100792 -0.00265203 -0.00131077)
(-0.000532087 -0.00278676 -0.00131077)
(-4.00876e-05 -0.00283682 -0.00131077)
(0.000453131 -0.00280068 -0.00131077)
(0.000932581 -0.00267945 -0.00131077)
(0.00138369 -0.0024768 -0.00131077)
(0.00179277 -0.0021989 -0.00131077)
(0.00214736 -0.00185418 -0.00131077)
(0.00243672 -0.00145313 -0.00131077)
(0.00265203 -0.00100792 -0.00131077)
(0.00278676 -0.000532087 -0.00131077)
(0.00283682 -4.00876e-05 -0.00131077)
(0.00280068 0.000453131 -0.00131077)
(0.00267945 0.000932581 -0.00131077)
(0.0024768 0.00138369 -0.00131077)
(0.0021989 0.00179277 -0.00131077)
(0.00185418 0.00214736 -0.00131077)
(0.00145313 0.00243672 -0.00131077)
(0.00100792 0.00265203 -0.00131077)
(0.000532087 0.00278676 -0.00131077)
(4.00878e-05 0.00283682 -0.00131077)
(-0.000453131 0.00280068 -0.00131077)
(-0.000932581 0.00267945 -0.00131077)
(-0.00138594 0.0026358 -0.00112667)
(-0.00182258 0.00235509 -0.00112667)
(-0.00220385 0.00200282 -0.00112667)
(-0.00251816 0.0015897 -0.00112667)
(-0.00275595 0.00112828 -0.00112667)
(-0.00291 0.000632572 -0.00112667)
(-0.00297564 0.000117644 -0.00112667)
(-0.00295086 -0.000400858 -0.00112667)
(-0.00283642 -0.00090718 -0.00112667)
(-0.0026358 -0.00138594 -0.00112667)
(-0.00235509 -0.00182258 -0.00112667)
(-0.00200282 -0.00220385 -0.00112667)
(-0.0015897 -0.00251816 -0.00112667)
(-0.00112828 -0.00275595 -0.00112667)
(-0.000632571 -0.00291 -0.00112667)
(-0.000117644 -0.00297564 -0.00112667)
(0.000400858 -0.00295086 -0.00112667)
(0.00090718 -0.00283642 -0.00112667)
(0.00138594 -0.0026358 -0.00112667)
(0.00182258 -0.00235509 -0.00112667)
(0.00220385 -0.00200282 -0.00112667)
(0.00251816 -0.0015897 -0.00112667)
(0.00275595 -0.00112828 -0.00112667)
(0.00291 -0.000632571 -0.00112667)
(0.00297564 -0.000117644 -0.00112667)
(0.00295086 0.000400858 -0.00112667)
(0.00283642 0.00090718 -0.00112667)
(0.0026358 0.00138594 -0.00112667)
(0.00235509 0.00182258 -0.00112667)
(0.00200282 0.00220385 -0.00112667)
(0.0015897 0.00251816 -0.00112667)
(0.00112828 0.00275595 -0.00112667)
(0.000632572 0.00291 -0.00112667)
(0.000117644 0.00297564 -0.00112667)
(-0.000400858 0.00295086 -0.00112667)
(-0.00090718 0.00283642 -0.00112667)
(-0.00142398 0.00276753 -0.000950934)
(-0.00188292 0.00247821 -0.000950934)
(-0.00228465 0.0021136 -0.000950934)
(-0.00261696 0.00168476 -0.000950934)
(-0.00286976 0.00120473 -0.000950934)
(-0.00303536 0.000688103 -0.000950934)
(-0.00310874 0.000150563 -0.000950934)
(-0.00308765 -0.000391551 -0.000950934)
(-0.00297275 -0.000921768 -0.000950934)
(-0.00276753 -0.00142398 -0.000950934)
(-0.00247821 -0.00188292 -0.000950934)
(-0.00211359 -0.00228465 -0.000950934)
(-0.00168476 -0.00261696 -0.000950934)
(-0.00120473 -0.00286976 -0.000950934)
(-0.000688102 -0.00303536 -0.000950934)
(-0.000150563 -0.00310874 -0.000950934)
(0.000391551 -0.00308765 -0.000950934)
(0.000921768 -0.00297275 -0.000950934)
(0.00142398 -0.00276753 -0.000950934)
(0.00188292 -0.00247821 -0.000950934)
(0.00228465 -0.00211359 -0.000950934)
(0.00261696 -0.00168476 -0.000950934)
(0.00286976 -0.00120473 -0.000950934)
(0.00303536 -0.000688102 -0.000950934)
(0.00310874 -0.000150563 -0.000950934)
(0.00308765 0.000391551 -0.000950934)
(0.00297275 0.000921768 -0.000950934)
(0.00276753 0.00142398 -0.000950934)
(0.00247821 0.00188292 -0.000950934)
(0.0021136 0.00228465 -0.000950934)
(0.00168476 0.00261696 -0.000950934)
(0.00120473 0.00286976 -0.000950934)
(0.000688103 0.00303536 -0.000950934)
(0.000150563 0.00310874 -0.000950934)
(-0.000391551 0.00308765 -0.000950934)
(-0.000921768 0.00297275 -0.000950934)
(-0.00166811 0.00301874 -0.00171016)
(-0.00216697 0.00268321 -0.00171016)
(-0.00259998 0.00226616 -0.00171016)
(-0.002954 0.00178025 -0.00171016)
(-0.00321826 0.00124025 -0.00171016)
(-0.00338473 0.00066256 -0.00171016)
(-0.00344836 6.47423e-05 -0.00171016)
(-0.00340722 -0.000535044 -0.00171016)
(-0.00326254 -0.00111857 -0.00171016)
(-0.00301874 -0.00166811 -0.00171016)
(-0.00268321 -0.00216697 -0.00171016)
(-0.00226616 -0.00259998 -0.00171016)
(-0.00178025 -0.002954 -0.00171016)
(-0.00124025 -0.00321826 -0.00171016)
(-0.00066256 -0.00338473 -0.00171016)
(-6.47421e-05 -0.00344836 -0.00171016)
(0.000535044 -0.00340722 -0.00171016)
(0.00111857 -0.00326254 -0.00171016)
(0.00166811 -0.00301874 -0.00171016)
(0.00216697 -0.00268321 -0.00171016)
(0.00259998 -0.00226616 -0.00171016)
(0.002954 -0.00178025 -0.00171016)
(0.00321826 -0.00124025 -0.00171016)
(0.00338473 -0.00066256 -0.00171016)
(0.00344836 -6.47421e-05 -0.00171016)
(0.00340722 0.000535044 -0.00171016)
(0.00326254 0.00111857 -0.00171016)
(0.00301874 0.00166811 -0.00171016)
(0.00268321 0.00216697 -0.00171016)
(0.00226616 0.00259998 -0.00171016)
(0.00178025 0.002954 -0.00171016)
(0.00124025 0.00321826 -0.00171016)
(0.00066256 0.00338473 -0.00171016)
(6.47423e-05 0.00344836 -0.00171016)
(-0.000535044 0.00340722 -0.00171016)
(-0.00111857 0.00326254 -0.00171016)
(-0.00167902 0.00313133 -0.00150826)
(-0.00219726 0.00279219 -0.00150826)
(-0.00264874 0.00236822 -0.00150826)
(-0.00301974 0.0018723 -0.00150826)
(-0.00329898 0.00131948 -0.00150826)
(-0.00347799 0.000726572 -0.00150826)
(-0.00355132 0.000111588 -0.00150826)
(-0.00351674 -0.000506787 -0.00150826)
(-0.00337531 -0.00110976 -0.00150826)
(-0.00313133 -0.00167902 -0.00150826)
(-0.00279219 -0.00219726 -0.00150826)
(-0.00236822 -0.00264874 -0.00150826)
(-0.0018723 -0.00301974 -0.00150826)
(-0.00131948 -0.00329898 -0.00150826)
(-0.000726572 -0.00347799 -0.00150826)
(-0.000111588 -0.00355132 -0.00150826)
(0.000506787 -0.00351674 -0.00150826)
(0.00110976 -0.00337531 -0.00150826)
(0.00167902 -0.00313133 -0.00150826)
(0.00219726 -0.00279219 -0.00150826)
(0.00264874 -0.00236822 -0.00150826)
(0.00301974 -0.0018723 -0.00150826)
(0.00329898 -0.00131948 -0.00150826)
(0.00347799 -0.000726572 -0.00150826)
(0.00355132 -0.000111588 -0.00150826)
(0.00351674 0.000506787 -0.00150826)
(0.00337531 0.00110976 -0.00150826)
(0.00313133 0.00167902 -0.00150826)
(0.00279219 0.00219726 -0.00150826)
(0.00236822 0.00264874 -0.00150826)
(0.0018723 0.00301974 -0.00150826)
(0.00131948 0.00329898 -0.00150826)
(0.000726572 0.00347799 -0.00150826)
(0.000111588 0.00355132 -0.00150826)
(-0.000506787 0.00351674 -0.00150826)
(-0.00110976 0.00337531 -0.00150826)
(-0.00172432 0.003211 -0.00131665)
(-0.00225571 0.00286279 -0.00131665)
(-0.00271856 0.0024276 -0.00131665)
(-0.00309881 0.00191865 -0.00131665)
(-0.0033849 0.00135139 -0.00131665)
(-0.00356814 0.000743082 -0.00131665)
(-0.00364297 0.000112192 -0.00131665)
(-0.00360711 -0.000522108 -0.00131665)
(-0.00346164 -0.00114054 -0.00131665)
(-0.003211 -0.00172432 -0.00131665)
(-0.00286279 -0.00225571 -0.00131665)
(-0.0024276 -0.00271856 -0.00131665)
(-0.00191865 -0.00309881 -0.00131665)
(-0.00135139 -0.0033849 -0.00131665)
(-0.000743081 -0.00356814 -0.00131665)
(-0.000112192 -0.00364297 -0.00131665)
(0.000522108 -0.00360711 -0.00131665)
(0.00114054 -0.00346164 -0.00131665)
(0.00172432 -0.003211 -0.00131665)
(0.00225571 -0.00286279 -0.00131665)
(0.00271856 -0.0024276 -0.00131665)
(0.00309881 -0.00191865 -0.00131665)
(0.0033849 -0.00135139 -0.00131665)
(0.00356814 -0.000743081 -0.00131665)
(0.00364297 -0.000112192 -0.00131665)
(0.00360711 0.000522108 -0.00131665)
(0.00346164 0.00114054 -0.00131665)
(0.003211 0.00172432 -0.00131665)
(0.00286279 0.00225571 -0.00131665)
(0.0024276 0.00271856 -0.00131665)
(0.00191865 0.00309881 -0.00131665)
(0.00135139 0.0033849 -0.00131665)
(0.000743082 0.00356814 -0.00131665)
(0.000112192 0.00364297 -0.00131665)
(-0.000522108 0.00360711 -0.00131665)
(-0.00114054 0.00346164 -0.00131665)
(-0.00196093 0.00351435 -0.00213006)
(-0.0025414 0.00312045 -0.00213006)
(-0.00304466 0.00263173 -0.00213006)
(-0.0034554 0.00206305 -0.00213006)
(-0.00376114 0.00143169 -0.00213006)
(-0.00395262 0.00075682 -0.00213006)
(-0.00402399 5.89585e-05 -0.00213006)
(-0.00397309 -0.000640696 -0.00213006)
(-0.00380148 -0.00132088 -0.00213006)
(-0.00351435 -0.00196093 -0.00213006)
(-0.00312045 -0.0025414 -0.00213006)
(-0.00263173 -0.00304466 -0.00213006)
(-0.00206305 -0.0034554 -0.00213006)
(-0.00143169 -0.00376114 -0.00213006)
(-0.00075682 -0.00395262 -0.00213006)
(-5.89583e-05 -0.00402399 -0.00213006)
(0.000640696 -0.00397309 -0.00213006)
(0.00132088 -0.00380148 -0.00213006)
(0.00196093 -0.00351435 -0.00213006)
(0.0025414 -0.00312045 -0.00213006)
(0.00304466 -0.00263173 -0.00213006)
(0.0034554 -0.00206305 -0.00213006)
(0.00376114 -0.00143169 -0.00213006)
(0.00395262 -0.00075682 -0.00213006)
(0.00402399 -5.89583e-05 -0.00213006)
(0.00397309 0.000640696 -0.00213006)
(0.00380148 0.00132088 -0.00213006)
(0.00351435 0.00196093 -0.00213006)
(0.00312045 0.0025414 -0.00213006)
(0.00263173 0.00304466 -0.00213006)
(0.00206305 0.0034554 -0.00213006)
(0.00143169 0.00376114 -0.00213006)
(0.00075682 0.00395262 -0.00213006)
(5.89585e-05 0.00402399 -0.00213006)
(-0.000640696 0.00397309 -0.00213006)
(-0.00132088 0.00380148 -0.00213006)
(-0.00196947 0.00356056 -0.00191235)
(-0.00255783 0.00316447 -0.00191235)
(-0.00306848 0.00267223 -0.00191235)
(-0.00348589 0.0020988 -0.00191235)
(-0.00379738 0.0014616 -0.00191235)
(-0.00399349 0.000779983 -0.00191235)
(-0.00406827 7.46695e-05 -0.00191235)
(-0.00401943 -0.000632912 -0.00191235)
(-0.00384846 -0.00132126 -0.00191235)
(-0.00356056 -0.00196947 -0.00191235)
(-0.00316447 -0.00255783 -0.00191235)
(-0.00267223 -0.00306848 -0.00191235)
(-0.0020988 -0.00348589 -0.00191235)
(-0.00146159 -0.00379738 -0.00191235)
(-0.000779983 -0.00399349 -0.00191235)
(-7.46693e-05 -0.00406827 -0.00191235)
(0.000632912 -0.00401943 -0.00191235)
(0.00132126 -0.00384846 -0.00191235)
(0.00196947 -0.00356056 -0.00191235)
(0.00255783 -0.00316447 -0.00191235)
(0.00306848 -0.00267223 -0.00191235)
(0.00348589 -0.0020988 -0.00191235)
(0.00379738 -0.0014616 -0.00191235)
(0.00399349 -0.000779983 -0.00191235)
(0.00406827 -7.46694e-05 -0.00191235)
(0.00401943 0.000632912 -0.00191235)
(0.00384846 0.00132126 -0.00191235)
(0.00356056 0.00196947 -0.00191235)
(0.00316447 0.00255783 -0.00191235)
(0.00267223 0.00306848 -0.00191235)
(0.0020988 0.00348589 -0.00191235)
(0.0014616 0.00379738 -0.00191235)
(0.000779983 0.00399349 -0.00191235)
(7.46695e-05 0.00406827 -0.00191235)
(-0.000632912 0.00401943 -0.00191235)
(-0.00132126 0.00384846 -0.00191235)
(-0.00200886 0.0035714 -0.00170661)
(-0.00259851 0.00316831 -0.00170661)
(-0.0031092 0.00266895 -0.00170661)
(-0.00352543 0.00208849 -0.00170661)
(-0.00383453 0.00144458 -0.00170661)
(-0.00402712 0.000756774 -0.00170661)
(-0.00409735 4.59743e-05 -0.00170661)
(-0.00404309 -0.000666222 -0.00170661)
(-0.00386598 -0.00135818 -0.00170661)
(-0.0035714 -0.00200886 -0.00170661)
(-0.00316831 -0.00259851 -0.00170661)
(-0.00266895 -0.0031092 -0.00170661)
(-0.00208849 -0.00352543 -0.00170661)
(-0.00144458 -0.00383453 -0.00170661)
(-0.000756774 -0.00402712 -0.00170661)
(-4.59741e-05 -0.00409735 -0.00170661)
(0.000666222 -0.00404309 -0.00170661)
(0.00135818 -0.00386598 -0.00170661)
(0.00200886 -0.0035714 -0.00170661)
(0.00259851 -0.00316831 -0.00170661)
(0.0031092 -0.00266895 -0.00170661)
(0.00352543 -0.00208849 -0.00170661)
(0.00383453 -0.00144458 -0.00170661)
(0.00402712 -0.000756774 -0.00170661)
(0.00409735 -4.59741e-05 -0.00170661)
(0.00404309 0.000666222 -0.00170661)
(0.00386598 0.00135818 -0.00170661)
(0.0035714 0.00200886 -0.00170661)
(0.00316831 0.00259851 -0.00170661)
(0.00266895 0.0031092 -0.00170661)
(0.00208849 0.00352543 -0.00170661)
(0.00144458 0.00383453 -0.00170661)
(0.000756774 0.00402712 -0.00170661)
(4.59743e-05 0.00409735 -0.00170661)
(-0.000666222 0.00404309 -0.00170661)
(-0.00135818 0.00386598 -0.00170661)
(-0.00225478 0.00393131 -0.00256211)
(-0.00290319 0.00348005 -0.00256211)
(-0.00346338 0.00292304 -0.00256211)
(-0.00391835 0.00227723 -0.00256211)
(-0.00425426 0.00156222 -0.00256212)