/*--------------------------------*- C++ -*----------------------------------*\
| =========                 |                                                 |
| \\      /  F ield         | OpenFOAM: The Open Source CFD Toolbox           |
|  \\    /   O peration     | Version:  2312                                  |
|   \\  /    A nd           | Website:  www.openfoam.com                      |
|    \\/     M anipulation  |                                                 |
\*---------------------------------------------------------------------------*/
FoamFile
{
    version     2.0;
    format      ascii;
    arch        "LSB;label=32;scalar=64";
    class       volTensorField;
    location    "0.5";
    object      F;
}
// * * * * * * * * * * * * * * * * * * * * * * * * * * * * * * * * * * * * * //

dimensions      [0 0 0 0 0 0 0];

internalField   nonuniform List<tensor> 
1620
(
(0.879615 0.001345 0.0615052 0.0178465 1.05074 -0.0148989 -0.0559514 -0.00330376 1.10309)
(0.893636 -0.00833126 0.048624 0.0113657 1.04488 -0.0960364 -0.0648567 -0.00501031 1.0918)
(0.918866 -0.0121676 0.0365026 0.0114325 1.03816 -0.154639 -0.0620474 -0.00921173 1.06695)
(0.946112 -0.00698662 0.0229441 0.0143991 1.03728 -0.190607 -0.0553263 -0.0103924 1.03275)
(0.970223 0.00649612 0.00654985 0.0190867 1.04685 -0.209831 -0.0470859 -0.00564223 0.990238)
(0.988802 0.0237061 -0.0123331 0.0223202 1.06895 -0.219566 -0.0384572 0.0087179 0.939227)
(1.00116 0.0368596 -0.032239 0.0208841 1.10271 -0.226033 -0.0312911 0.0370356 0.880684)
(1.00576 0.03608 -0.0522957 0.0135857 1.14183 -0.233279 -0.0250081 0.0804488 0.820863)
(1.00782 0.0195548 -0.0728406 -0.00118233 1.16857 -0.242969 -0.0093687 0.125021 0.775995)
(1.01515 -0.00399035 -0.0915881 -0.0187075 1.17024 -0.25438 0.010092 0.121631 0.765346)
(1.02442 -0.0312472 -0.0975203 -0.0308727 1.14488 -0.266703 0.0203848 0.0779102 0.79477)
(1.02765 -0.041422 -0.0945129 -0.0343771 1.1055 -0.278435 0.0222227 0.0401118 0.843745)
(1.0245 -0.0350399 -0.08748 -0.0297146 1.06799 -0.286916 0.0270152 0.0154055 0.894621)
(1.01457 -0.019886 -0.0785205 -0.0178941 1.04054 -0.288875 0.0346305 0.00173753 0.940646)
(0.99646 -0.00341654 -0.067529 -0.00236144 1.02626 -0.279768 0.0436343 -0.00412513 0.980671)
(0.970391 0.00879964 -0.0539548 0.0121999 1.02503 -0.253914 0.0533993 -0.00447788 1.01533)
(0.940409 0.014047 -0.0377385 0.0222372 1.03346 -0.205737 0.0617544 -0.00130756 1.04421)
(0.916535 0.0123378 -0.0197794 0.0205715 1.04549 -0.133596 0.0610621 0.000388091 1.06299)
(0.913554 0.00579272 -0.00436002 0.0110356 1.04968 -0.0495825 0.0631317 -0.00169815 1.06314)
(0.931472 -0.000337553 0.00681117 0.00655647 1.04507 0.0275506 0.0660256 0.00224814 1.04514)
(0.955744 -0.00234986 0.0157257 0.00969599 1.04062 0.0839774 0.0577714 0.00851532 1.01947)
(0.977677 0.00182894 0.0232721 0.0154916 1.04127 0.119979 0.0477908 0.011655 0.99133)
(0.993838 0.011536 0.0303871 0.0214226 1.0502 0.14096 0.0387983 0.00974901 0.960831)
(1.00398 0.0237125 0.0376136 0.0242348 1.06918 0.153247 0.0316471 -7.81784e-05 0.92539)
(1.00904 0.0327015 0.045556 0.0216135 1.09877 0.162249 0.0276871 -0.0225664 0.882528)
(1.00777 0.0301197 0.0560404 0.0135331 1.13544 0.17159 0.0254986 -0.061398 0.834685)
(1.00597 0.0151928 0.071903 -0.00147358 1.16304 0.182835 0.0127278 -0.107157 0.794989)
(1.01096 -0.00673332 0.0921459 -0.0193921 1.16838 0.19509 -0.00500807 -0.110584 0.78036)
(1.01861 -0.0327217 0.105263 -0.0327145 1.14624 0.208289 -0.0141774 -0.0769297 0.802692)
(1.02089 -0.0431131 0.112719 -0.0374346 1.10857 0.221549 -0.0155819 -0.0460412 0.846254)
(1.01691 -0.0372535 0.117413 -0.0327996 1.07078 0.232284 -0.0194207 -0.0247634 0.895295)
(1.00526 -0.0216717 0.119581 -0.0196856 1.04201 0.236495 -0.0256703 -0.0121211 0.943012)
(0.984096 -0.00383842 0.1175 -0.00184778 1.02666 0.228541 -0.0332477 -0.00592896 0.987412)
(0.953639 0.00967795 0.10957 0.0154406 1.02532 0.201838 -0.0418483 -0.00459158 1.02834)
(0.918283 0.0149439 0.0957203 0.0279475 1.03444 0.15057 -0.0497843 -0.00659226 1.06509)
(0.888652 0.0112856 0.0779036 0.0282105 1.04677 0.0738106 -0.0499816 -0.00713221 1.09331)
(0.897669 0.00201118 0.0221837 0.0197516 1.05776 0.00693135 -0.0618983 0.00165697 1.06256)
(0.914204 -0.0151161 0.0116967 0.0144375 1.04935 -0.0668621 -0.062453 -0.00119595 1.04762)
(0.942325 -0.0199392 0.00537793 0.0155 1.03985 -0.120006 -0.0564988 -0.00907363 1.02219)
(0.970699 -0.0125383 -0.000564991 0.0218964 1.03701 -0.15319 -0.0475073 -0.0112363 0.990911)
(0.993389 0.00399966 -0.00859529 0.0311445 1.04419 -0.171018 -0.0361085 -0.00764265 0.955273)
(1.00697 0.0241226 -0.0196523 0.0388422 1.0632 -0.179596 -0.022399 0.00427101 0.916735)
(1.00946 0.0397649 -0.0338317 0.0401586 1.09247 -0.184682 -0.00798683 0.0290196 0.878023)
(1.00156 0.0406835 -0.05126 0.0299257 1.12577 -0.190566 0.00264901 0.0689402 0.843931)
(0.994188 0.0220941 -0.0715256 0.00576505 1.14871 -0.199392 0.00352295 0.11096 0.821412)
(0.99786 -0.0100369 -0.0912357 -0.02442 1.15056 -0.212015 -0.00434167 0.109128 0.815523)
(1.01255 -0.0378156 -0.102365 -0.0474429 1.12855 -0.228467 -0.00483827 0.0679118 0.828213)
(1.02855 -0.0463849 -0.103524 -0.0554103 1.0926 -0.246176 0.00254487 0.0330368 0.854693)
(1.03639 -0.0371016 -0.0964983 -0.0495039 1.05735 -0.261779 0.0129327 0.011439 0.887242)
(1.0335 -0.0179781 -0.0829497 -0.0338416 1.0315 -0.271214 0.023684 -0.000354978 0.920638)
(1.01927 0.00330206 -0.0638339 -0.0135921 1.0191 -0.269297 0.0343446 -0.00596791 0.952061)
(0.994623 0.020064 -0.0402885 0.00515061 1.02045 -0.250236 0.0456477 -0.00677834 0.98016)
(0.964053 0.026764 -0.0146479 0.0172038 1.03386 -0.209055 0.0574063 -0.0018764 1.00373)
(0.939844 0.0194401 0.00916016 0.0183395 1.05088 -0.143738 0.0653196 -0.000101175 1.01861)
(0.936944 0.0033245 0.0257439 0.0135006 1.05565 -0.0666231 0.0670313 -0.00368549 1.01687)
(0.954953 -0.00778192 0.0337412 0.0109666 1.04779 0.00417563 0.0612637 0.00130853 1.00005)
(0.979279 -0.0080254 0.0365087 0.0155267 1.0406 0.0554404 0.0502873 0.00989469 0.977606)
(0.999649 0.00013473 0.0373016 0.0242928 1.04044 0.0883013 0.0392876 0.0123378 0.953918)
(1.0127 0.0133008 0.0383876 0.033617 1.04875 0.107131 0.0289292 0.0101983 0.929306)
(1.01775 0.0276543 0.041246 0.0398249 1.06617 0.117334 0.0183426 0.00187052 0.903467)
(1.0143 0.0379041 0.0472812 0.0399699 1.09195 0.123865 0.00745611 -0.0176152 0.876935)
(1.00283 0.035885 0.0583293 0.0300932 1.12244 0.130419 -0.00130993 -0.0531954 0.852226)
(0.993121 0.0180602 0.0753461 0.00718105 1.14502 0.138902 -0.00290777 -0.0958431 0.834616)
(0.994578 -0.0114881 0.0958232 -0.0226129 1.14826 0.15074 0.0038876 -0.0998389 0.829002)
(1.00664 -0.0368944 0.111895 -0.0466812 1.12739 0.167103 0.0051624 -0.0669251 0.840118)
(1.02026 -0.0447712 0.121167 -0.0560327 1.09184 0.186089 -0.000339701 -0.0378516 0.865402)
(1.02637 -0.0350351 0.123613 -0.0504383 1.05577 0.204198 -0.00877427 -0.0191154 0.898457)
(1.02117 -0.0145005 0.119074 -0.0335718 1.02877 0.216592 -0.0178126 -0.00826233 0.934471)
(1.00306 0.00879879 0.107059 -0.0110387 1.01598 0.21699 -0.0269793 -0.002589 0.970524)
(0.972964 0.0269004 0.0879384 0.0102335 1.01815 0.198597 -0.0369057 -0.00117017 1.00494)
(0.936077 0.033015 0.0641221 0.0242838 1.03314 0.155994 -0.0476459 -0.00503699 1.03597)
(0.905599 0.0229212 0.040232 0.0263652 1.05184 0.0876518 -0.0560846 -0.0048217 1.05844)
(0.918807 0.000602445 -0.0186395 0.0221594 1.06119 0.0295877 -0.0673781 0.000371577 1.01851)
(0.938166 -0.0245957 -0.0276411 0.018647 1.05337 -0.0353662 -0.0576392 -0.00495335 1.00186)
(0.969187 -0.0302145 -0.029182 0.0211372 1.04068 -0.0843785 -0.0490554 -0.0112197 0.976717)
(0.997788 -0.0190998 -0.0276911 0.0316034 1.03495 -0.115973 -0.0377403 -0.0135493 0.94853)
(1.01715 0.00220807 -0.0265604 0.0444685 1.04067 -0.133044 -0.0232675 -0.0105493 0.920293)
(1.02315 0.0263965 -0.0284602 0.0534541 1.05826 -0.140176 -0.00532145 -0.000310687 0.895474)
(1.01396 0.0444055 -0.0356897 0.0524579 1.08392 -0.14256 0.0144534 0.0214059 0.878608)
(0.991952 0.0462607 -0.0498312 0.0370529 1.10979 -0.145326 0.0273517 0.0574661 0.872924)
(0.970241 0.0251621 -0.0717326 0.00869838 1.1263 -0.152617 0.0153964 0.095759 0.874249)
(0.971408 -0.0161902 -0.093494 -0.0256741 1.12835 -0.166557 -0.0164402 0.0953887 0.870438)
(0.996268 -0.0450151 -0.108912 -0.0561584 1.11185 -0.186975 -0.0279911 0.057753 0.866021)
(1.02517 -0.0528848 -0.113286 -0.0715296 1.08034 -0.211371 -0.0163057 0.0263003 0.868977)
(1.04545 -0.0409286 -0.105174 -0.0686642 1.04651 -0.235083 -0.00125501 0.00779611 0.881492)
(1.05179 -0.0170341 -0.0859806 -0.051758 1.02089 -0.252512 0.0117623 -0.0026855 0.90078)
(1.04311 0.0102123 -0.0579724 -0.0275322 1.00967 -0.257669 0.0234471 -0.00899601 0.922594)
(1.02083 0.0323271 -0.024269 -0.00398601 1.01472 -0.244755 0.0357505 -0.0120561 0.94344)
(0.990001 0.0397731 0.0104519 0.0102698 1.03296 -0.209489 0.0503062 -0.0110845 0.960533)
(0.9659 0.0260303 0.039397 0.0148481 1.05111 -0.152447 0.068829 -0.00694525 0.969607)
(0.963201 0.00104765 0.0570682 0.0166205 1.05673 -0.0842105 0.070043 0.0011483 0.966344)
(0.98093 -0.01516 0.0626222 0.0167519 1.04918 -0.0213787 0.0537098 0.0083293 0.952796)
(1.0049 -0.0139104 0.0599089 0.0231734 1.03912 0.0257827 0.0408167 0.0133928 0.93463)
(1.02271 -0.000912595 0.0539518 0.035561 1.0374 0.0561837 0.0291322 0.013949 0.915732)
(1.03095 0.0167594 0.0483316 0.0475146 1.04605 0.0729704 0.0176878 0.0110092 0.897643)
(1.02869 0.0339407 0.0457904 0.0541683 1.06367 0.0804259 0.00414354 0.00378283 0.882642)
(1.01518 0.0450556 0.0489255 0.0517596 1.08687 0.0829545 -0.0126034 -0.0128994 0.874419)
(0.991949 0.0427023 0.0598965 0.0367413 1.10995 0.084991 -0.0258377 -0.0450378 0.875673)
(0.970532 0.0214217 0.0800656 0.00930842 1.12477 0.0907694 -0.0169284 -0.0836688 0.881655)
(0.97098 -0.0161752 0.101437 -0.0248147 1.12523 0.103421 0.0123478 -0.087794 0.881324)
(0.99236 -0.0411144 0.119506 -0.0552654 1.10725 0.123521 0.0240722 -0.0563121 0.880732)
(1.01716 -0.0469235 0.129511 -0.070669 1.07492 0.149078 0.0145353 -0.0295911 0.887168)
(1.03441 -0.0332054 0.1285 -0.0673694 1.0402 0.175455 0.00185303 -0.0135478 0.903011)
(1.03741 -0.00671941 0.116122 -0.0488804 1.01411 0.196359 -0.00934043 -0.00409767 0.926226)
(1.02364 0.0232355 0.0934634 -0.0222809 1.00367 0.204674 -0.0196105 0.00173411 0.95324)
(0.994439 0.0464729 0.0632508 0.00348877 1.01086 0.193604 -0.0304226 0.00459063 0.980695)
(0.956061 0.0521932 0.0301999 0.0190917 1.03199 0.158484 -0.0432422 0.00448812 1.00502)
(0.92509 0.0335082 0.00103291 0.0233462 1.05344 0.10012 -0.0618048 0.0038585 1.01993)
(0.800361 0.0119878 0.0550627 0.0512978 1.15402 -0.00351051 -0.134515 -0.00998037 1.08542)
(0.818344 -0.0115222 0.0426883 0.0454344 1.13941 -0.0763799 -0.153934 -0.00706231 1.0768)
(0.854848 -0.0227557 0.031164 0.0492761 1.11775 -0.130931 -0.156374 -0.0142041 1.0533)
(0.895363 -0.0178453 0.0181856 0.0548109 1.10625 -0.166612 -0.14905 -0.0196109 1.01843)
(0.931561 0.000810153 0.00282506 0.0588279 1.11279 -0.18778 -0.135986 -0.0143544 0.973676)
(0.959392 0.025212 -0.014363 0.0566696 1.13857 -0.199979 -0.119219 0.0103129 0.92007)
(0.977277 0.0437469 -0.0323524 0.0446976 1.1798 -0.208015 -0.100503 0.0624771 0.860509)
(0.983558 0.0436906 -0.0509087 0.0230598 1.22618 -0.215401 -0.0771764 0.141258 0.802423)
(0.986609 0.0240017 -0.0695168 -0.00723723 1.25623 -0.225141 -0.0361796 0.218571 0.758096)
(1.0027 -0.00276789 -0.0863249 -0.0391406 1.25326 -0.23799 0.0145978 0.222291 0.740187)
(1.02658 -0.0392326 -0.0949484 -0.0616253 1.21476 -0.252648 0.0520426 0.153521 0.760401)
(1.04013 -0.0536853 -0.0930151 -0.0688938 1.15874 -0.266228 0.0700812 0.0841729 0.805346)
(1.04052 -0.0433387 -0.0855614 -0.0602705 1.10589 -0.27554 0.0849176 0.0361184 0.857441)
(1.02626 -0.0175659 -0.0755797 -0.0374615 1.06934 -0.27734 0.100312 0.00997819 0.907465)
(0.995715 0.0119434 -0.0636771 -0.00654747 1.05645 -0.267974 0.116248 0.00022588 0.951757)
(0.950518 0.0346259 -0.0492694 0.0237755 1.06912 -0.243055 0.132568 0.000993118 0.989224)
(0.899306 0.0435591 -0.0321618 0.0459349 1.10117 -0.198469 0.146078 0.0056374 1.01865)
(0.859595 0.0360096 -0.0139006 0.0476198 1.13552 -0.13349 0.148198 0.00407458 1.0364)
(0.851387 0.0168047 0.00132202 0.0355848 1.14713 -0.0585099 0.153817 -0.00411799 1.03734)
(0.875193 -0.00126212 0.0119279 0.0304404 1.13335 0.0109787 0.158129 1.97826e-05 1.02224)
(0.912213 -0.00969244 0.020055 0.0370321 1.11425 0.0633195 0.14579 0.0136789 0.998136)
(0.947582 -0.00639907 0.0271658 0.0459606 1.10478 0.0982759 0.128341 0.0247129 0.969626)
(0.97434 0.00630473 0.0339709 0.0525197 1.11097 0.120104 0.111271 0.0255443 0.937547)
(0.990678 0.0224859 0.0406765 0.0517659 1.1338 0.133844 0.0963003 0.00852305 0.900705)
(0.996937 0.0334343 0.0479006 0.0406612 1.17143 0.14366 0.0841332 -0.0352371 0.858653)
(0.992071 0.0288149 0.0576011 0.0201285 1.21712 0.152526 0.0705979 -0.108388 0.815142)
(0.985693 0.00986528 0.0710862 -0.00910671 1.25132 0.163371 0.0402206 -0.18863 0.778995)
(0.993961 -0.0142459 0.0882913 -0.0415054 1.25521 0.177015 -0.00249057 -0.207414 0.759988)
(1.01161 -0.0472841 0.103476 -0.0666623 1.2216 0.19263 -0.035828 -0.158296 0.774305)
(1.02122 -0.0604973 0.111089 -0.0769252 1.16698 0.207622 -0.0521253 -0.103096 0.814092)
(1.01902 -0.049454 0.114505 -0.0691331 1.11243 0.219123 -0.0649564 -0.0625768 0.864247)
(1.00215 -0.0216649 0.114929 -0.0441093 1.07309 0.22326 -0.0776724 -0.0389662 0.915889)
(0.968126 0.0112103 0.111476 -0.00826751 1.05848 0.215402 -0.0903973 -0.0287407 0.964754)
(0.91836 0.0369623 0.102647 0.0283562 1.0716 0.190364 -0.103431 -0.0274977 1.00903)
(0.861669 0.046578 0.0882827 0.0564576 1.10578 0.143769 -0.115091 -0.0293198 1.04704)
(0.815857 0.0363223 0.0708085 0.0628115 1.14173 0.0753759 -0.119401 -0.0239582 1.07477)
(0.816429 0.0141428 0.0282514 0.0536751 1.1627 0.0140267 -0.143872 0.00128043 1.05065)
(0.837216 -0.0222331 0.0162697 0.0496725 1.14535 -0.0514423 -0.154296 0.00191288 1.03784)
(0.8779 -0.0380717 0.00749557 0.0530984 1.12058 -0.100231 -0.15264 -0.0119317 1.01214)
(0.921623 -0.0321433 -0.00101862 0.0611043 1.1067 -0.132612 -0.141129 -0.0216034 0.978839)
(0.958391 -0.00940561 -0.0110491 0.0698879 1.10991 -0.15201 -0.120609 -0.0206202 0.940195)
(0.981755 0.0206838 -0.023195 0.0733755 1.13233 -0.163169 -0.0911763 -0.000684874 0.898425)
(0.988038 0.0449416 -0.037422 0.0653521 1.17018 -0.170754 -0.0560144 0.0484089 0.85705)
(0.978955 0.0486136 -0.0535205 0.0407019 1.21275 -0.178405 -0.0244409 0.128737 0.821284)
(0.970493 0.0252016 -0.0706257 -0.00154634 1.23996 -0.188213 -0.00875565 0.209344 0.797021)
(0.980675 -0.012266 -0.0867515 -0.0504407 1.23644 -0.200967 -0.00675453 0.212742 0.788178)
(1.0094 -0.049089 -0.097389 -0.0873219 1.19957 -0.21698 0.00599415 0.142417 0.797926)
(1.0397 -0.0600278 -0.0991554 -0.100116 1.14401 -0.234227 0.0306841 0.0722322 0.823191)
(1.05563 -0.0426592 -0.0929553 -0.089199 1.09072 -0.249002 0.0583675 0.0261826 0.856864)
(1.05104 -0.00785602 -0.0804774 -0.0602042 1.05464 -0.257342 0.083324 0.00267965 0.893053)
(1.02445 0.030824 -0.0629408 -0.0219992 1.04436 -0.25475 0.104782 -0.00581988 0.92788)
(0.978766 0.0600191 -0.0415161 0.0142583 1.06147 -0.236542 0.124738 -0.00481674 0.958936)
(0.924129 0.068557 -0.0182332 0.038898 1.10131 -0.198976 0.143435 0.00225682 0.983965)
(0.881988 0.0500522 0.00352715 0.0446853 1.14285 -0.141087 0.156175 0.00110455 0.997981)
(0.873205 0.0147457 0.019883 0.0382079 1.15563 -0.0734827 0.161492 -0.00785586 0.996842)
(0.897741 -0.0137094 0.0296021 0.0358256 1.13802 -0.010695 0.155463 -0.000955875 0.982231)
(0.936214 -0.0230255 0.0347225 0.04284 1.11534 0.0363655 0.138965 0.0166601 0.959867)
(0.97145 -0.0156122 0.0380282 0.0543992 1.10455 0.068108 0.119069 0.0280691 0.934834)
(0.995852 0.00248995 0.0413945 0.065033 1.1095 0.0878916 0.0975285 0.0299472 0.908332)
(1.00647 0.0237143 0.0460058 0.0691265 1.13086 0.100045 0.0727053 0.0159264 0.880784)
(1.00206 0.0386252 0.0528911 0.0622849 1.16606 0.108666 0.0446611 -0.0251136 0.853451)
(0.984896 0.0359107 0.0631516 0.0403257 1.20772 0.116922 0.0193753 -0.0995368 0.829183)
(0.970115 0.0118445 0.0770094 0.000659243 1.23755 0.12665 0.0073072 -0.182189 0.811871)
(0.974019 -0.0215777 0.0935081 -0.0485363 1.23797 0.138877 0.00750544 -0.19917 0.804964)
(0.995784 -0.0536188 0.108458 -0.0888134 1.20334 0.154742 -0.00140556 -0.147452 0.813959)
(1.02021 -0.062238 0.117416 -0.105527 1.14755 0.173078 -0.0209682 -0.0909348 0.838317)
(1.03222 -0.0431144 0.119781 -0.0962163 1.09172 0.190129 -0.0437454 -0.0519459 0.872675)
(1.02407 -0.00530101 0.115638 -0.0653761 1.05268 0.201268 -0.0644956 -0.0308336 0.911827)
(0.992874 0.0371749 0.104883 -0.0224043 1.04113 0.201018 -0.0820704 -0.0222128 0.951903)
(0.941429 0.0689837 0.0879494 0.0199663 1.05961 0.183741 -0.0980631 -0.0214823 0.990097)
(0.880482 0.0772174 0.0668851 0.0503338 1.10258 0.145229 -0.113782 -0.0248333 1.0234)
(0.831702 0.055421 0.0455617 0.0601895 1.14751 0.0848708 -0.128129 -0.0168517 1.04565)
(0.836807 0.0154574 -0.0028244 0.0570102 1.16555 0.0322783 -0.153842 0.00653408 1.01314)
(0.860344 -0.0347736 -0.014446 0.0562063 1.15126 -0.0246743 -0.152429 0.00285549 0.996521)
(0.905255 -0.0563428 -0.0206959 0.0587742 1.12503 -0.0688589 -0.146835 -0.0118886 0.969458)
(0.952032 -0.0494292 -0.0244703 0.0693831 1.10724 -0.0988306 -0.130558 -0.025525 0.937879)
(0.988397 -0.0216179 -0.0282115 0.0822372 1.10671 -0.116683 -0.101069 -0.0296463 0.905708)
(1.00498 0.0156941 -0.0339126 0.089317 1.12599 -0.126032 -0.0569988 -0.0150212 0.876785)
(0.996979 0.0465625 -0.0430231 0.0813973 1.16065 -0.131145 -0.00385123 0.031076 0.855391)
(0.967983 0.0542932 -0.0561051 0.0511337 1.19816 -0.136215 0.0346655 0.113819 0.84461)
(0.941466 0.0272642 -0.0722989 0.000215364 1.22041 -0.14472 0.0204415 0.198345 0.842477)
(0.948225 -0.0213294 -0.0882182 -0.0586567 1.21631 -0.158953 -0.0298256 0.201489 0.839707)
(0.987571 -0.0587717 -0.100691 -0.107779 1.18282 -0.178418 -0.0441595 0.129169 0.838071)
(1.03569 -0.0665572 -0.104839 -0.130038 1.12815 -0.200823 -0.0144009 0.0572578 0.842838)
(1.06971 -0.0414255 -0.0985762 -0.120843 1.07349 -0.22215 0.0269498 0.0129109 0.856694)
(1.07744 0.00415684 -0.0824541 -0.087428 1.03723 -0.237479 0.062739 -0.00784389 0.877833)
(1.05627 0.0535492 -0.0584088 -0.0420854 1.03001 -0.241528 0.0904632 -0.0152291 0.902373)
(1.01057 0.0896695 -0.0294283 0.000858974 1.05381 -0.229372 0.114081 -0.0156695 0.926356)
(0.952486 0.0959668 0.000314366 0.027754 1.10023 -0.197787 0.137881 -0.0124781 0.945846)
(0.90838 0.0646663 0.0256303 0.0390733 1.14316 -0.148009 0.164294 -0.00986936 0.955746)
(0.899116 0.0135852 0.0429284 0.0419736 1.15732 -0.0889434 0.169025 -0.00357548 0.952867)
(0.923788 -0.0260144 0.0514872 0.0438184 1.14167 -0.0339867 0.149618 0.00799324 0.939228)
(0.963385 -0.0375798 0.0534717 0.0510411 1.11693 0.00874984 0.129398 0.0228356 0.919531)
(0.997927 -0.0260721 0.0525096 0.0656678 1.1033 0.0378211 0.107129 0.0333713 0.898246)
(1.01869 -0.00176053 0.0515577 0.0799846 1.10681 0.0554401 0.0802715 0.0366097 0.877744)
(1.02125 0.0255674 0.0529181 0.0870571 1.12733 0.0650278 0.0436803 0.026322 0.860424)
(1.00382 0.0447316 0.0582982 0.0802503 1.16088 0.0703074 -0.00262964 -0.0115779 0.849401)
(0.970181 0.0437996 0.0685255 0.0526507 1.1978 0.074915 -0.0387323 -0.0880917 0.84701)
(0.942347 0.0144672 0.0831054 0.00328184 1.22097 0.0822248 -0.0267102 -0.174053 0.851014)
(0.946255 -0.0284886 0.09902 -0.0567455 1.21692 0.0952178 0.0204474 -0.189229 0.852788)
(0.977966 -0.0592418 0.113979 -0.108513 1.18235 0.11413 0.0370529 -0.134464 0.855398)
(1.0179 -0.0629863 0.12293 -0.133738 1.12597 0.137394 0.0147672 -0.0760398 0.863948)
(1.0461 -0.0345783 0.122872 -0.125882 1.06846 0.161077 -0.0187751 -0.038425 0.881608)
(1.04867 0.015204 0.112964 -0.0905827 1.02969 0.17965 -0.0486404 -0.0200049 0.907439)
(1.02114 0.0686161 0.0940846 -0.0406053 1.02223 0.186755 -0.071721 -0.0130615 0.9382)
(0.967969 0.106293 0.0687545 0.00801163 1.04853 0.17642 -0.0906393 -0.0114895 0.969872)
(0.902589 0.110807 0.041036 0.0401883 1.09917 0.144937 -0.110101 -0.00974066 0.997469)
(0.851361 0.0746849 0.0159617 0.0548083 1.14736 0.0936883 -0.137447 -0.000998873 1.0138)
(0.770981 0.0253943 0.0571871 0.069991 1.23593 0.0155344 -0.190849 -0.0195752 1.04425)
(0.784517 -0.00520655 0.0446951 0.0668545 1.21645 -0.0396352 -0.222205 -0.008984 1.04397)
(0.81959 -0.021524 0.0319757 0.0752818 1.18644 -0.0855359 -0.237324 -0.0142395 1.02744)
(0.861271 -0.0192364 0.0178097 0.0837595 1.1691 -0.120269 -0.237015 -0.0205164 0.996073)
(0.900154 -0.00192287 0.00230553 0.0876334 1.17388 -0.145214 -0.224514 -0.0136195 0.951895)
(0.931029 0.0210768 -0.013782 0.0814496 1.20062 -0.162838 -0.202107 0.0191178 0.897715)
(0.951649 0.0379169 -0.0300037 0.061305 1.24258 -0.175641 -0.172011 0.0869249 0.838584)
(0.961296 0.0375642 -0.0465527 0.0275338 1.28728 -0.186282 -0.133427 0.186361 0.782291)
(0.968246 0.0194696 -0.0618543 -0.0166374 1.31563 -0.198865 -0.0748098 0.286364 0.736106)
(0.989004 -0.00511692 -0.0762994 -0.0616787 1.31257 -0.214959 0.000784621 0.312455 0.706759)
(1.02213 -0.0394195 -0.0892578 -0.094214 1.27177 -0.231916 0.0664015 0.241465 0.711783)
(1.04767 -0.056492 -0.0884817 -0.105654 1.20869 -0.245833 0.105536 0.152746 0.747746)
(1.0549 -0.0463347 -0.0805561 -0.0944413 1.14748 -0.253985 0.133671 0.0836005 0.79822)
(1.04154 -0.0162701 -0.0697428 -0.0629129 1.10493 -0.25326 0.157643 0.0417033 0.851198)
(1.00643 0.0208133 -0.0579382 -0.0196338 1.09227 -0.241622 0.178341 0.0227784 0.899371)
(0.953454 0.051151 -0.0448455 0.0236751 1.11329 -0.217354 0.195996 0.0186052 0.938851)
(0.894416 0.0642771 -0.0298756 0.0565178 1.16006 -0.179544 0.208336 0.0184458 0.967162)
(0.848915 0.0554429 -0.0142747 0.0635122 1.20843 -0.129935 0.212133 0.00999007 0.982488)
(0.835806 0.0306576 -0.000411917 0.0538465 1.22533 -0.074939 0.221543 -0.004154 0.986116)
(0.855925 0.00592221 0.0105966 0.051117 1.20708 -0.0224428 0.229309 -0.0025347 0.979001)
(0.892603 -0.00731262 0.0197891 0.0612982 1.17986 0.0209453 0.219891 0.0137626 0.961478)
(0.929675 -0.00687212 0.0284208 0.0722151 1.16462 0.0535362 0.201047 0.0291502 0.936371)
(0.958466 0.00350991 0.0366522 0.0780816 1.16914 0.0770867 0.179302 0.0310293 0.905485)
(0.975847 0.0163876 0.0442438 0.0733726 1.19311 0.0942218 0.157326 0.00823822 0.869685)
(0.981731 0.022973 0.0515858 0.054708 1.23176 0.107223 0.135974 -0.0490293 0.830887)
(0.976757 0.0152922 0.060108 0.0226995 1.27599 0.118318 0.112594 -0.140854 0.793335)
(0.970169 -0.00479097 0.0692059 -0.0199738 1.3093 0.131674 0.0730468 -0.242945 0.760547)
(0.977794 -0.0281082 0.0815771 -0.0655982 1.31507 0.149204 0.0137695 -0.288536 0.73525)
(1.00009 -0.0562554 0.0992084 -0.101659 1.28131 0.168126 -0.043078 -0.24533 0.735595)
(1.01927 -0.070073 0.10649 -0.11723 1.21969 0.183852 -0.0790897 -0.177994 0.76617)
(1.02212 -0.0573902 0.107973 -0.107753 1.15597 0.194193 -0.104595 -0.121754 0.813984)
(1.00524 -0.0235773 0.106272 -0.0737737 1.10976 0.195779 -0.124759 -0.0859251 0.867834)
(0.966395 0.0185601 0.102214 -0.0241815 1.095 0.185957 -0.140204 -0.0684947 0.920292)
(0.908888 0.0533076 0.0949285 0.02717 1.117 0.162532 -0.151987 -0.0628558 0.96689)
(0.844316 0.06762 0.0838133 0.0671481 1.16705 0.124351 -0.1607 -0.0589081 1.00451)
(0.792139 0.0558206 0.0704613 0.0791968 1.2181 0.0731926 -0.167357 -0.0439705 1.03046)
(0.779946 0.0305798 0.0519701 0.0728838 1.24323 0.023783 -0.201985 -0.00196387 1.02119)
(0.796955 -0.0148513 0.0370919 0.072137 1.2211 -0.0251122 -0.226911 0.00657366 1.01555)
(0.837412 -0.0382179 0.0224347 0.0793374 1.18815 -0.0654271 -0.237853 -0.00734466 0.99437)
(0.883951 -0.0365199 0.00720662 0.08967 1.16901 -0.0961819 -0.231604 -0.0222308 0.962345)
(0.924932 -0.015274 -0.00875898 0.0981924 1.17113 -0.119017 -0.207589 -0.0239722 0.922432)
(0.952377 0.0144098 -0.0250556 0.0976012 1.19601 -0.136349 -0.166449 0.00126732 0.877557)
(0.96244 0.0381106 -0.0409237 0.0809735 1.23742 -0.150729 -0.113996 0.0664232 0.831739)
(0.957834 0.0417465 -0.0553762 0.0441821 1.28187 -0.164231 -0.0638269 0.171431 0.790341)
(0.953871 0.0207071 -0.0672781 -0.0113319 1.30898 -0.178053 -0.0313183 0.27999 0.759247)
(0.967881 -0.0142781 -0.0777485 -0.0736565 1.30244 -0.191818 -0.0153166 0.303684 0.744479)
(1.00321 -0.0501869 -0.0860405 -0.12236 1.25855 -0.205674 0.0108309 0.227244 0.750277)
(1.04376 -0.062885 -0.0875228 -0.141193 1.19226 -0.219128 0.0513046 0.133617 0.773821)
(1.06802 -0.0433927 -0.0828554 -0.128101 1.1278 -0.228808 0.0956613 0.0646807 0.808362)
(1.06586 -0.00115628 -0.073865 -0.0895183 1.0843 -0.231829 0.134862 0.0265177 0.847254)
(1.03458 0.0475192 -0.0618669 -0.0373394 1.07432 -0.225499 0.165697 0.0115073 0.88537)
(0.979163 0.0846676 -0.0476171 0.0131745 1.10091 -0.20746 0.189782 0.0101733 0.918919)
(0.914007 0.0955666 -0.0318821 0.0489515 1.15723 -0.176205 0.208777 0.0129032 0.94432)
(0.86394 0.0736109 -0.0159889 0.0609142 1.21392 -0.133131 0.22221 0.00442419 0.956636)
(0.849852 0.0310754 -0.0008515 0.0568343 1.23248 -0.0847216 0.231509 -0.0101708 0.957883)
(0.871903 -0.00609934 0.0125441 0.0571931 1.2108 -0.0381084 0.230587 -0.00497906 0.949541)
(0.91155 -0.0224022 0.0237484 0.0669642 1.18033 0.000616784 0.216342 0.01653 0.931195)
(0.949921 -0.0187196 0.0338281 0.0800444 1.16423 0.0302267 0.193498 0.0348863 0.907693)
(0.977094 -0.00239604 0.0434645 0.0901286 1.16798 0.0523796 0.164224 0.0403982 0.881197)
(0.988805 0.0167781 0.0529225 0.0904401 1.1918 0.0694957 0.127619 0.0223809 0.85284)
(0.984509 0.0282298 0.0621729 0.075695 1.23084 0.084048 0.0854199 -0.0325383 0.824221)
(0.968394 0.0223521 0.0710026 0.0424733 1.27499 0.0979954 0.0466898 -0.129134 0.798077)
(0.954823 -0.00197986 0.0791233 -0.00951613 1.30615 0.112421 0.0235065 -0.239231 0.777736)
(0.959277 -0.0340766 0.0889833 -0.0719303 1.30569 0.126564 0.0144477 -0.28137 0.767567)
(0.984479 -0.0630539 0.100391 -0.12544 1.26575 0.140737 -0.00423205 -0.232283 0.773167)
(1.01649 -0.0712591 0.107692 -0.15027 1.19907 0.155303 -0.0368575 -0.160267 0.795362)
(1.03472 -0.0481079 0.110231 -0.140132 1.13091 0.166904 -0.074083 -0.104094 0.830034)
(1.02769 -0.00120224 0.108577 -0.0996233 1.08308 0.17223 -0.106782 -0.0719741 0.871683)
(0.991254 0.0527489 0.103021 -0.0412138 1.07118 0.167948 -0.130863 -0.0588218 0.915345)
(0.930044 0.0935961 0.0936638 0.0173994 1.09974 0.151003 -0.147632 -0.0558687 0.956738)
(0.85866 0.104696 0.0811255 0.0603642 1.16061 0.119464 -0.161165 -0.0526253 0.991315)
(0.80152 0.0794143 0.0668686 0.0768526 1.22204 0.074757 -0.176813 -0.0324614 1.01282)
(0.793212 0.0350846 0.0392192 0.0769259 1.2438 0.0322851 -0.21534 0.0121294 0.997481)
(0.813777 -0.0267222 0.0230806 0.0803035 1.22589 -0.0100975 -0.230861 0.0160224 0.984628)
(0.859842 -0.0585453 0.00744526 0.0854071 1.19258 -0.0452157 -0.237013 -0.0020723 0.959326)
(0.911584 -0.0580003 -0.0078797 0.0977236 1.16941 -0.0722435 -0.223628 -0.0256322 0.926737)
(0.954353 -0.0321011 -0.0231432 0.110799 1.16743 -0.0924991 -0.185154 -0.037881 0.891124)
(0.9765 0.00603531 -0.0382239 0.115104 1.1897 -0.108132 -0.121024 -0.021618 0.856047)
(0.972915 0.0382139 -0.0523029 0.099894 1.23041 -0.121444 -0.0420033 0.0408701 0.824794)
(0.949268 0.0467483 -0.0640502 0.0572482 1.27416 -0.134088 0.0199992 0.153414 0.800534)
(0.927677 0.0229731 -0.0711622 -0.010897 1.29885 -0.146909 0.0172081 0.272776 0.786705)
(0.936283 -0.0228195 -0.0778383 -0.0879518 1.28817 -0.16134 -0.0355352 0.294453 0.78433)
(0.979897 -0.0601071 -0.0833873 -0.150396 1.24202 -0.176678 -0.0528109 0.210868 0.789592)
(1.03749 -0.0681532 -0.0855174 -0.178724 1.17286 -0.191649 -0.0134276 0.10996 0.800159)
(1.08131 -0.0381155 -0.0825596 -0.166731 1.1045 -0.204238 0.04864 0.0400735 0.817842)
(1.09301 0.018563 -0.0740191 -0.122172 1.05993 -0.211734 0.106022 0.00592939 0.841883)
(1.06688 0.0807868 -0.0606362 -0.0608225 1.05387 -0.210892 0.14914 -0.0047686 0.869427)
(1.00914 0.125256 -0.0440371 -0.00220286 1.08912 -0.19869 0.180505 -0.00485516 0.896468)
(0.937428 0.131746 -0.0263191 0.0360587 1.15325 -0.173536 0.207118 -0.00423972 0.918116)
(0.882895 0.0936267 -0.00906005 0.0548667 1.21176 -0.137011 0.233545 -0.00859993 0.929201)
(0.867986 0.0319636 0.0070014 0.0611215 1.23221 -0.0947128 0.242329 -0.00944322 0.928246)
(0.891677 -0.0191118 0.0211831 0.0664087 1.21374 -0.0540524 0.229361 0.00158955 0.91686)
(0.934171 -0.0398917 0.0330909 0.0752179 1.18231 -0.0196797 0.209916 0.022699 0.898181)
(0.973576 -0.0331244 0.0434672 0.0909582 1.16312 0.00709101 0.182743 0.0427476 0.876433)
(0.998136 -0.00998007 0.0533917 0.105478 1.16494 0.0273191 0.144181 0.0527961 0.854397)
(1.002 0.0168533 0.0634941 0.110313 1.18833 0.0430554 0.0894375 0.0409217 0.833847)
(0.984807 0.0340126 0.0734025 0.0972967 1.22814 0.056539 0.0216934 -0.0110078 0.81626)
(0.95365 0.0301558 0.0819502 0.0588753 1.27228 0.0692383 -0.0338549 -0.113812 0.803383)
(0.928605 0.00144272 0.08702 -0.00646985 1.3001 0.0816335 -0.031233 -0.234274 0.798316)
(0.932573 -0.0396592 0.0943339 -0.0849614 1.29177 0.0952145 0.0194687 -0.273615 0.802081)
(0.966864 -0.0686113 0.102201 -0.15211 1.24564 0.109964 0.0412466 -0.217371 0.811215)
(1.01394 -0.0701024 0.108085 -0.186222 1.17438 0.125427 0.0132977 -0.138985 0.824666)
(1.04947 -0.0347112 0.110199 -0.177539 1.10154 0.139674 -0.036714 -0.0819621 0.845817)
(1.05417 0.0277599 0.107247 -0.131265 1.05256 0.149589 -0.0843254 -0.0538554 0.874925)
(1.02064 0.0951121 0.0990599 -0.0637268 1.04538 0.151128 -0.118881 -0.0454874 0.90958)
(0.955264 0.141749 0.0866078 0.00281467 1.08383 0.140339 -0.141294 -0.043767 0.945392)
(0.876552 0.146921 0.0716361 0.0481464 1.15395 0.115042 -0.160279 -0.0353817 0.976175)
(0.814716 0.104519 0.0555988 0.070873 1.21923 0.0768321 -0.188287 -0.0118089 0.994765)
(0.778206 0.0405751 0.0655904 0.0722584 1.28989 0.0345817 -0.225766 -0.0341554 0.983138)
(0.782981 0.00999667 0.0537284 0.0709275 1.27001 -0.000851585 -0.268195 -0.0171996 0.993577)
(0.808661 -0.00894361 0.0396137 0.081896 1.23811 -0.036107 -0.297702 -0.0176476 0.990063)
(0.842311 -0.0117771 0.0238334 0.0925825 1.21876 -0.0681823 -0.307563 -0.0214875 0.970687)