/*--------------------------------*- C++ -*----------------------------------*\
| =========                 |                                                 |
| \\      /  F ield         | OpenFOAM: The Open Source CFD Toolbox           |
|  \\    /   O peration     | Version:  2312                                  |
|   \\  /    A nd           | Website:  www.openfoam.com                      |
|    \\/     M anipulation  |                                                 |
\*---------------------------------------------------------------------------*/
FoamFile
{
    version     2.0;
    format      ascii;
    arch        "LSB;label=32;scalar=64";
    class       pointVectorField;
    location    "0.5";
    object      pointD;
}
// * * * * * * * * * * * * * * * * * * * * * * * * * * * * * * * * * * * * * //

dimensions      [0 1 0 0 0 0 0];

internalField   nonuniform List<vector> 
2164
(
(0 0 0)
(0 0 0)
(0 0 0)
(0 0 0)
(0 0 0)
(0 0 0)
(0 0 0)
(0 0 0)
(0 0 0)
(0 0 0)
(0 0 0)
(0 0 0)
(0 0 0)
(0 0 0)
(0 0 0)
(0 0 0)
(0 0 0)
(0 0 0)
(0 0 0)
(0 0 0)
(0 0 0)
(0 0 0)
(0 0 0)
(0 0 0)
(0 0 0)
(0 0 0)
(0 0 0)
(0 0 0)
(0 0 0)
(0 0 0)
(0 0 0)
(0 0 0)
(0 0 0)
(0 0 0)
(0 0 0)
(0 0 0)
(0.000800215 -0.000244046 9.20042e-05)
(0.000669761 -0.000345919 -0.000123301)
(0.000535795 -0.000425703 -0.00025661)
(0.000425383 -0.000453973 -0.000319567)
(0.000347806 -0.000441341 -0.000335571)
(0.000303052 -0.000404667 -0.000321255)
(0.000285294 -0.000353014 -0.000287695)
(0.000283003 -0.000287917 -0.000243122)
(0.0002805 -0.000208007 -0.000192918)
(0.000260551 -0.000112225 -0.000138541)
(0.0002067 -1.13036e-06 -7.67194e-05)
(0.000105105 0.00012174 4.02412e-07)
(-5.28043e-05 0.000246279 0.000103034)
(-0.000264425 0.000350307 0.000236653)
(-0.000506227 0.000399279 0.000386767)
(-0.000728166 0.000365077 0.000500404)
(-0.000866808 0.000268468 0.000494072)
(-0.000883561 0.000203495 0.000334688)
(-0.000800215 0.000244046 9.20042e-05)
(-0.000669761 0.000345919 -0.000123301)
(-0.000535795 0.000425703 -0.00025661)
(-0.000425383 0.000453973 -0.000319567)
(-0.000347806 0.000441341 -0.000335571)
(-0.000303052 0.000404667 -0.000321255)
(-0.000285294 0.000353014 -0.000287695)
(-0.000283003 0.000287917 -0.000243122)
(-0.0002805 0.000208007 -0.000192918)
(-0.000260551 0.000112225 -0.000138541)
(-0.0002067 1.13036e-06 -7.67194e-05)
(-0.000105105 -0.00012174 4.02413e-07)
(5.28043e-05 -0.000246279 0.000103034)
(0.000264425 -0.000350307 0.000236653)
(0.000506227 -0.000399279 0.000386767)
(0.000728166 -0.000365077 0.000500404)
(0.000866808 -0.000268468 0.000494072)
(0.000883561 -0.000203495 0.000334688)
(0.000732682 -0.000350019 0.0001094)
(0.000685658 -0.00040134 -2.06454e-05)
(0.000619568 -0.000414018 -0.000116039)
(0.000546214 -0.000385049 -0.000179862)
(0.000474395 -0.000331758 -0.000217939)
(0.000411302 -0.00027011 -0.000233279)
(0.000359669 -0.000206943 -0.000228602)
(0.000315858 -0.000142315 -0.000207378)
(0.000271092 -7.42212e-05 -0.000172868)
(0.000214409 -1.60712e-06 -0.000126917)
(0.000135732 7.46917e-05 -6.94466e-05)
(2.82942e-05 0.000151943 1.23745e-06)
(-0.000109485 0.000224937 8.6962e-05)
(-0.000271881 0.000284443 0.000185828)
(-0.000443096 0.000317653 0.000284706)
(-0.000596823 0.000316756 0.00035143)
(-0.000702975 0.000298091 0.000342876)
(-0.000745063 0.000302923 0.000248638)
(-0.000732682 0.000350019 0.0001094)
(-0.000685658 0.00040134 -2.06454e-05)
(-0.000619568 0.000414018 -0.000116039)
(-0.000546214 0.000385049 -0.000179862)
(-0.000474395 0.000331758 -0.000217939)
(-0.000411302 0.00027011 -0.000233279)
(-0.000359669 0.000206943 -0.000228602)
(-0.000315858 0.000142315 -0.000207378)
(-0.000271092 7.42212e-05 -0.000172868)
(-0.000214409 1.60712e-06 -0.000126917)
(-0.000135732 -7.46917e-05 -6.94466e-05)
(-2.82942e-05 -0.000151943 1.23745e-06)
(0.000109485 -0.000224937 8.6962e-05)
(0.000271881 -0.000284443 0.000185828)
(0.000443096 -0.000317653 0.000284706)
(0.000596823 -0.000316756 0.00035143)
(0.000702975 -0.000298091 0.000342876)
(0.000745063 -0.000302923 0.000248638)
(0 0 0)
(0 0 0)
(0 0 0)
(0 0 0)
(0 0 0)
(0 0 0)
(0 0 0)
(0 0 0)
(0 0 0)
(0 0 0)
(0 0 0)
(0 0 0)
(0 0 0)
(0 0 0)
(0 0 0)
(0 0 0)
(0 0 0)
(0 0 0)
(0 0 0)
(0 0 0)
(0 0 0)
(0 0 0)
(0 0 0)
(0 0 0)
(0 0 0)
(0 0 0)
(0 0 0)
(0 0 0)
(0 0 0)
(0 0 0)
(0 0 0)
(0 0 0)
(0 0 0)
(0 0 0)
(0 0 0)
(0 0 0)
(0.000635529 -0.000445714 0.000115115)
(0.000667245 -0.000456715 6.16604e-05)
(0.000670211 -0.000411758 1.54918e-06)
(0.00064033 -0.000331071 -6.24676e-05)
(0.00058372 -0.000238346 -0.000120456)
(0.00051184 -0.000149529 -0.000162604)
(0.000433901 -7.09656e-05 -0.000183464)
(0.00035343 -3.15155e-06 -0.000181773)
(0.000268983 5.50627e-05 -0.000158737)
(0.000176942 0.000104082 -0.000116812)
(7.46755e-05 0.000143189 -5.948e-05)
(-3.70639e-05 0.000171743 8.40552e-06)
(-0.000153359 0.000191074 8.02e-05)
(-0.000266372 0.000205869 0.000147127)
(-0.00036811 0.000224239 0.000197926)
(-0.000453739 0.000256395 0.00021999)
(-0.000524038 0.000312758 0.000206387)
(-0.000584755 0.000386331 0.000165517)
(-0.000635529 0.000445714 0.000115115)
(-0.000667245 0.000456715 6.16604e-05)
(-0.000670211 0.000411758 1.54918e-06)
(-0.00064033 0.000331071 -6.24676e-05)
(-0.00058372 0.000238346 -0.000120456)
(-0.00051184 0.000149529 -0.000162604)
(-0.000433901 7.09656e-05 -0.000183464)
(-0.00035343 3.15155e-06 -0.000181773)
(-0.000268983 -5.50627e-05 -0.000158737)
(-0.000176942 -0.000104082 -0.000116812)
(-7.46755e-05 -0.000143189 -5.948e-05)
(3.70639e-05 -0.000171743 8.40552e-06)
(0.000153359 -0.000191074 8.02e-05)
(0.000266372 -0.000205869 0.000147127)
(0.00036811 -0.000224239 0.000197926)
(0.000453739 -0.000256395 0.00021999)
(0.000524038 -0.000312758 0.000206387)
(0.000584755 -0.000386331 0.000165517)
(0 0 0)
(0 0 0)
(0 0 0)
(0 0 0)
(0 0 0)
(0 0 0)
(0 0 0)
(0 0 0)
(0 0 0)
(0 0 0)
(0 0 0)
(0 0 0)
(0 0 0)
(0 0 0)
(0 0 0)
(0 0 0)
(0 0 0)
(0 0 0)
(0 0 0)
(0 0 0)
(0 0 0)
(0 0 0)
(0 0 0)
(0 0 0)
(0 0 0)
(0 0 0)
(0 0 0)
(0 0 0)
(0 0 0)
(0 0 0)
(0 0 0)
(0 0 0)
(0 0 0)
(0 0 0)
(0 0 0)
(0 0 0)
(0.000511686 -0.000503641 0.000107502)
(0.000608327 -0.000493304 0.00011445)
(0.000675133 -0.000411349 8.76556e-05)
(0.000693299 -0.000292613 2.95042e-05)
(0.000662919 -0.000166512 -4.02199e-05)
(0.000595027 -5.08983e-05 -0.000101512)
(0.00050212 4.57603e-05 -0.000141309)
(0.000393623 0.000120114 -0.000153579)
(0.000275688 0.000170769 -0.000137496)
(0.000153083 0.000196904 -9.63388e-05)
(3.15225e-05 0.000198664 -3.7395e-05)
(-8.08742e-05 0.000179303 2.80438e-05)
(-0.000174334 0.000148452 8.59079e-05)
(-0.000241187 0.000124401 0.000122797)
(-0.000281579 0.000131766 0.000131448)
(-0.000307909 0.000191441 0.000116724)
(-0.000344525 0.000304222 9.77592e-05)
(-0.000414333 0.000429374 9.37643e-05)
(-0.000511686 0.000503641 0.000107502)
(-0.000608327 0.000493304 0.00011445)
(-0.000675133 0.000411349 8.76556e-05)
(-0.000693299 0.000292613 2.95042e-05)
(-0.000662919 0.000166512 -4.02199e-05)
(-0.000595027 5.08983e-05 -0.000101512)
(-0.00050212 -4.57603e-05 -0.000141309)
(-0.000393623 -0.000120114 -0.000153579)
(-0.000275688 -0.000170769 -0.000137496)
(-0.000153083 -0.000196904 -9.63388e-05)
(-3.15225e-05 -0.000198664 -3.7395e-05)
(8.08742e-05 -0.000179303 2.80438e-05)
(0.000174334 -0.000148452 8.59079e-05)
(0.000241187 -0.000124401 0.000122797)
(0.000281579 -0.000131766 0.000131448)
(0.000307909 -0.000191441 0.000116724)
(0.000344525 -0.000304222 9.77592e-05)
(0.000414333 -0.000429374 9.37643e-05)
(0 0 0)
(0 0 0)
(0 0 0)
(0 0 0)
(0 0 0)
(0 0 0)
(0 0 0)
(0 0 0)
(0 0 0)
(0 0 0)
(0 0 0)
(0 0 0)
(0 0 0)
(0 0 0)
(0 0 0)
(0 0 0)
(0 0 0)
(0 0 0)
(0 0 0)
(0 0 0)
(0 0 0)
(0 0 0)
(0 0 0)
(0 0 0)
(0 0 0)
(0 0 0)
(0 0 0)
(0 0 0)
(0 0 0)
(0 0 0)
(0 0 0)
(0 0 0)
(0 0 0)
(0 0 0)
(0 0 0)
(0 0 0)
(0.00149595 -0.000705232 0.000287278)
(0.00131251 -0.000822197 -0.000163962)
(0.00109962 -0.000876507 -0.000485521)
(0.000907341 -0.000852829 -0.00067648)
(0.00075442 -0.000776527 -0.000763964)
(0.000646644 -0.000676553 -0.000775313)
(0.000580646 -0.000566381 -0.000733843)
(0.000542154 -0.000445855 -0.000658017)
(0.000507533 -0.000309562 -0.000559482)
(0.000448428 -0.00015293 -0.000441035)
(0.000337014 2.50901e-05 -0.000295895)
(0.000150752 0.000220404 -0.000109523)
(-0.000122568 0.00042016 0.000133941)
(-0.000477042 0.000596698 0.000437277)
(-0.000877077 0.000707396 0.00076543)
(-0.00125071 0.000717881 0.00101901)
(-0.00150554 0.00065419 0.00104564)
(-0.00158135 0.000624836 0.000761635)
(-0.00149595 0.000705232 0.000287278)
(-0.00131251 0.000822197 -0.000163962)
(-0.00109962 0.000876507 -0.000485521)
(-0.000907341 0.000852829 -0.00067648)
(-0.00075442 0.000776527 -0.000763964)
(-0.000646644 0.000676553 -0.000775313)
(-0.000580646 0.000566381 -0.000733843)
(-0.000542154 0.000445855 -0.000658017)
(-0.000507533 0.000309562 -0.000559482)
(-0.000448428 0.00015293 -0.000441035)
(-0.000337014 -2.50901e-05 -0.000295895)
(-0.000150752 -0.000220404 -0.000109523)
(0.000122568 -0.00042016 0.000133941)
(0.000477042 -0.000596698 0.000437277)
(0.000877077 -0.000707396 0.00076543)
(0.00125071 -0.000717881 0.00101901)
(0.00150554 -0.00065419 0.00104564)
(0.00158135 -0.000624836 0.000761635)
(0.00138467 -0.000789297 0.000336993)
(0.00131691 -0.000851296 3.76279e-05)
(0.00120572 -0.000837029 -0.000205153)
(0.00107443 -0.000754565 -0.000379651)
(0.000939776 -0.000634684 -0.000489421)
(0.000815488 -0.000504578 -0.000540832)
(0.000707615 -0.000376067 -0.000542347)
(0.000611311 -0.000249593 -0.000503099)
(0.000512669 -0.000121781 -0.00043024)
(0.000393601 9.51461e-06 -0.000327041)
(0.000237372 0.000143528 -0.000192634)
(3.33293e-05 0.000276785 -2.37644e-05)
(-0.00021964 0.000403058 0.000180953)
(-0.000510257 0.000511957 0.000413009)
(-0.000812126 0.000589616 0.000641711)
(-0.00108477 0.000628956 0.000803108)
(-0.00128334 0.000650637 0.000811451)
(-0.00138136 0.000701356 0.00063195)
(-0.00138467 0.000789297 0.000336993)
(-0.00131691 0.000851296 3.76279e-05)
(-0.00120572 0.000837029 -0.000205153)
(-0.00107443 0.000754565 -0.000379651)
(-0.000939776 0.000634684 -0.000489421)
(-0.000815488 0.000504578 -0.000540832)
(-0.000707615 0.000376067 -0.000542347)
(-0.000611311 0.000249593 -0.000503099)
(-0.000512669 0.000121781 -0.00043024)
(-0.000393601 -9.5146e-06 -0.000327041)
(-0.000237372 -0.000143528 -0.000192634)
(-3.33293e-05 -0.000276785 -2.37644e-05)
(0.00021964 -0.000403058 0.000180953)
(0.000510257 -0.000511957 0.000413009)
(0.000812126 -0.000589616 0.000641711)
(0.00108477 -0.000628956 0.000803108)
(0.00128334 -0.000650637 0.000811451)
(0.00138136 -0.000701356 0.00063195)
(0.00122093 -0.000873521 0.000365274)
(0.00127182 -0.000892176 0.000213573)
(0.00126801 -0.000817951 5.04999e-05)
(0.00120645 -0.000680639 -0.000105791)
(0.00110076 -0.00051714 -0.000235832)
(0.000970262 -0.000353928 -0.00032492)
(0.000828683 -0.000202857 -0.000366459)
(0.000680054 -6.67729e-05 -0.000360089)
(0.00052071 5.42416e-05 -0.000308485)
(0.000343974 0.000159332 -0.000215614)
(0.000145352 0.000246362 -8.69885e-05)
(-7.33163e-05 0.000313876 6.87616e-05)
(-0.000302263 0.000364285 0.000238024)
(-0.000525758 0.000406263 0.000401044)
(-0.000727028 0.000454399 0.000532011)
(-0.000894549 0.000525048 0.000601581)
(-0.0010263 0.000632868 0.00058627)
(-0.00113355 0.000768094 0.000495771)
(-0.00122093 0.000873521 0.000365274)
(-0.00127182 0.000892176 0.000213573)
(-0.00126801 0.000817951 5.04999e-05)
(-0.00120645 0.000680639 -0.000105791)
(-0.00110076 0.00051714 -0.000235832)
(-0.000970262 0.000353928 -0.00032492)
(-0.000828683 0.000202857 -0.000366459)
(-0.000680054 6.67729e-05 -0.000360089)
(-0.00052071 -5.42416e-05 -0.000308485)
(-0.000343974 -0.000159332 -0.000215614)
(-0.000145352 -0.000246362 -8.69885e-05)
(7.33163e-05 -0.000313876 6.87616e-05)
(0.000302263 -0.000364285 0.000238024)
(0.000525757 -0.000406263 0.000401044)
(0.000727028 -0.000454399 0.000532011)
(0.000894549 -0.000525048 0.000601581)
(0.0010263 -0.000632868 0.00058627)
(0.00113355 -0.000768094 0.000495771)
(0.00101683 -0.000919697 0.000365037)
(0.00117149 -0.000917335 0.000343248)
(0.00126874 -0.000804645 0.000261958)
(0.00128179 -0.000626515 0.000134441)
(0.00121701 -0.000425929 -3.87626e-06)
(0.00109431 -0.00023084 -0.000120011)
(0.000932066 -5.57771e-05 -0.000192808)
(0.000742126 9.18588e-05 -0.000212342)
(0.000531328 0.000207196 -0.000176894)
(0.000305253 0.000286154 -9.14485e-05)
(7.22471e-05 0.000326282 3.18613e-05)
(-0.000153877 0.000330225 0.000172913)
(-0.000354605 0.000311076 0.000304852)
(-0.00051273 0.000296148 0.000399997)
(-0.000622026 0.000322631 0.000440512)
(-0.000694604 0.000420049 0.000429051)
(-0.000760729 0.000593242 0.000391233)
(-0.000864044 0.000792918 0.00036603)
(-0.00101683 0.000919697 0.000365037)
(-0.00117149 0.000917335 0.000343248)
(-0.00126874 0.000804645 0.000261958)
(-0.00128179 0.000626515 0.000134441)
(-0.00121701 0.000425929 -3.87626e-06)
(-0.00109431 0.00023084 -0.000120011)
(-0.000932066 5.57771e-05 -0.000192808)
(-0.000742126 -9.18588e-05 -0.000212342)
(-0.000531328 -0.000207196 -0.000176894)
(-0.000305253 -0.000286154 -9.14485e-05)
(-7.22471e-05 -0.000326282 3.18613e-05)
(0.000153877 -0.000330225 0.000172913)
(0.000354605 -0.000311076 0.000304852)
(0.00051273 -0.000296148 0.000399997)
(0.000622026 -0.000322631 0.000440512)
(0.000694604 -0.000420049 0.000429051)
(0.000760729 -0.000593242 0.000391233)
(0.000864044 -0.000792918 0.00036603)
(0.00204869 -0.00134573 0.000631687)
(0.00184038 -0.00139533 -6.72387e-05)
(0.00157707 -0.00137262 -0.000627225)
(0.00132391 -0.00127819 -0.00100553)
(0.00111061 -0.00113684 -0.00121547)
(0.000947814 -0.000976664 -0.00129241)
(0.000833306 -0.000810623 -0.00127295)
(0.000751681 -0.000637112 -0.0011856)
(0.000675543 -0.000448225 -0.00104692)
(0.000570556 -0.00023687 -0.000859707)
(0.000402565 -5.71427e-07 -0.00061338)
(0.000144888 0.000256671 -0.000288785)
(-0.000214723 0.000521809 0.000129825)
(-0.000666051 0.000769223 0.000633252)
(-0.00116689 0.000964301 0.00115882)
(-0.0016389 0.00108749 0.00156796)
(-0.00197953 0.00117074 0.00166198)
(-0.00211574 0.00125768 0.00130442)
(-0.00204869 0.00134573 0.000631687)
(-0.00184038 0.00139533 -6.72387e-05)
(-0.00157707 0.00137262 -0.000627225)
(-0.00132391 0.00127819 -0.00100553)
(-0.00111061 0.00113684 -0.00121547)
(-0.000947814 0.000976664 -0.00129241)
(-0.000833306 0.000810623 -0.00127295)
(-0.000751681 0.000637112 -0.0011856)
(-0.000675543 0.000448225 -0.00104692)
(-0.000570556 0.00023687 -0.000859707)
(-0.000402565 5.71437e-07 -0.00061338)
(-0.000144888 -0.000256671 -0.000288785)
(0.000214723 -0.000521809 0.000129825)
(0.000666051 -0.000769223 0.000633252)
(0.00116689 -0.000964301 0.00115882)
(0.0016389 -0.00108749 0.00156796)
(0.00197953 -0.00117074 0.00166198)
(0.00211574 -0.00125768 0.00130442)
(0.0019099 -0.00129629 0.000692346)
(0.00183045 -0.00132456 0.000201849)
(0.00168479 -0.00126263 -0.000226253)
(0.00150788 -0.00112812 -0.000549174)
(0.00132462 -0.000952837 -0.000760523)
(0.00115217 -0.00076534 -0.000870312)
(0.00099697 -0.000579081 -0.000894389)
(0.000852908 -0.000395508 -0.000847841)
(0.000703437 -0.000211402 -0.000740921)
(0.000526861 -2.43926e-05 -0.000577268)
(0.000303057 0.000164759 -0.00035471)
(1.98007e-05 0.000352231 -6.93928e-05)
(-0.000322502 0.000531741 0.000276157)
(-0.000707735 0.000694597 0.00066105)
(-0.00110265 0.000832359 0.00103306)
(-0.00146045 0.000947124 0.00130309)
(-0.00173189 0.00106222 0.00135967)
(-0.00188401 0.00119149 0.00113244)
(-0.0019099 0.00129629 0.000692346)
(-0.00183045 0.00132456 0.000201849)
(-0.00168479 0.00126263 -0.000226253)
(-0.00150788 0.00112812 -0.000549174)
(-0.00132462 0.000952837 -0.000760523)
(-0.00115217 0.00076534 -0.000870312)
(-0.00099697 0.000579081 -0.000894389)
(-0.000852908 0.000395508 -0.000847841)
(-0.000703437 0.000211402 -0.000740921)
(-0.000526861 2.43926e-05 -0.000577268)
(-0.000303057 -0.000164759 -0.00035471)
(-1.98007e-05 -0.000352231 -6.93929e-05)
(0.000322502 -0.000531741 0.000276157)
(0.000707735 -0.000694597 0.00066105)
(0.00110265 -0.000832359 0.00103306)
(0.00146045 -0.000947124 0.00130309)
(0.00173189 -0.00106222 0.00135967)
(0.00188401 -0.00119149 0.00113244)
(0.00171301 -0.00125749 0.000724552)
(0.0017643 -0.00127556 0.000444612)
(0.00174228 -0.00118257 0.000153818)
(0.00165054 -0.00101126 -0.000109534)
(0.00150788 -0.000801555 -0.000319234)
(0.00133591 -0.000583808 -0.000459216)
(0.00114832 -0.000373528 -0.000523959)
(0.000947892 -0.000176716 -0.000514738)
(0.000729393 3.99526e-06 -0.00043546)
(0.000484719 0.000165881 -0.00029087)
(0.000208671 0.000305528 -8.77226e-05)
(-9.61594e-05 0.000420838 0.00016185)
(-0.00041715 0.000514571 0.000436404)
(-0.000733501 0.000597188 0.000703329)
(-0.00102192 0.000686256 0.000921698)
(-0.00126466 0.000800655 0.00105071)
(-0.00145648 0.000952809 0.00105973)
(-0.00160491 0.00112846 0.000943688)
(-0.00171301 0.00125749 0.000724552)
(-0.0017643 0.00127556 0.000444612)
(-0.00174228 0.00118257 0.000153819)
(-0.00165054 0.00101126 -0.000109534)
(-0.00150788 0.000801555 -0.000319234)
(-0.00133591 0.000583808 -0.000459216)
(-0.00114832 0.000373528 -0.000523959)
(-0.000947892 0.000176716 -0.000514738)
(-0.000729393 -3.99525e-06 -0.00043546)
(-0.000484719 -0.000165881 -0.00029087)
(-0.000208671 -0.000305528 -8.77226e-05)
(9.61594e-05 -0.000420838 0.00016185)
(0.00041715 -0.000514571 0.000436404)
(0.000733501 -0.000597188 0.000703329)
(0.00102192 -0.000686256 0.000921698)
(0.00126466 -0.000800655 0.00105071)
(0.00145648 -0.000952809 0.00105973)
(0.00160491 -0.00112846 0.000943688)
(0.0014726 -0.00121008 0.000715993)
(0.0016368 -0.00122782 0.000631626)
(0.00173114 -0.00111703 0.00048148)
(0.00172859 -0.000918782 0.000288334)
(0.00163735 -0.000679651 9.26097e-05)
(0.00147869 -0.000433117 -6.65199e-05)
(0.00127106 -0.000198782 -0.000162918)
(0.00102558 1.13215e-05 -0.000184028)
(0.000748614 0.000188052 -0.000127518)
(0.000446176 0.000323835 3.87468e-07)
(0.000128111 0.000413954 0.000183865)
(-0.000189123 0.000460263 0.000395571)
(-0.000483069 0.000476747 0.000597576)
(-0.000731521 0.000492917 0.00074965)
(-0.000922829 0.000547203 0.000825554)
(-0.00106351 0.000666375 0.000828375)
(-0.0011778 0.000850323 0.000790013)
(-0.00130581 0.00106095 0.000753262)
(-0.0014726 0.00121008 0.000715993)
(-0.0016368 0.00122782 0.000631626)
(-0.00173114 0.00111703 0.00048148)
(-0.00172859 0.000918782 0.000288334)
(-0.00163735 0.000679651 9.26097e-05)
(-0.00147869 0.000433117 -6.65199e-05)
(-0.00127106 0.000198782 -0.000162918)
(-0.00102558 -1.13215e-05 -0.000184028)
(-0.000748614 -0.000188052 -0.000127518)
(-0.000446176 -0.000323835 3.87464e-07)
(-0.000128111 -0.000413954 0.000183865)
(0.000189123 -0.000460263 0.000395571)
(0.000483069 -0.000476747 0.000597576)
(0.000731521 -0.000492917 0.00074965)
(0.000922829 -0.000547203 0.000825554)
(0.00106351 -0.000666375 0.000828375)
(0.0011778 -0.000850323 0.000790013)
(0.00130581 -0.00106095 0.000753262)
(0.00242333 -0.00196097 0.00103261)
(0.00222207 -0.00196647 0.000159224)
(0.00193754 -0.00188736 -0.000618169)
(0.00164845 -0.00173989 -0.00118904)
(0.00139685 -0.00154828 -0.00153861)
(0.00119562 -0.00133708 -0.00170377)
(0.00104064 -0.0011188 -0.00173062)
(0.000915395 -0.000892832 -0.00165442)
(0.000792284 -0.000651773 -0.0014942)
(0.000636667 -0.000388157 -0.00125206)
(0.000414139 -9.87719e-05 -0.000915392)
(9.88497e-05 0.000213153 -0.000464603)
(-0.000318528 0.000536381 0.00010983)
(-0.000822943 0.000851454 0.000780227)
(-0.00136844 0.00113824 0.00145406)
(-0.00187857 0.00139424 0.00196673)
(-0.00226207 0.00163832 0.00211732)
(-0.00245082 0.00184802 0.00177455)
(-0.00242333 0.00196097 0.00103261)
(-0.00222207 0.00196647 0.000159224)
(-0.00193754 0.00188736 -0.000618169)
(-0.00164845 0.00173989 -0.00118904)
(-0.00139685 0.00154828 -0.00153861)
(-0.00119562 0.00133708 -0.00170377)
(-0.00104064 0.0011188 -0.00173062)
(-0.000915395 0.000892832 -0.00165442)
(-0.000792284 0.000651773 -0.0014942)
(-0.000636667 0.000388157 -0.00125206)
(-0.000414139 9.87719e-05 -0.000915392)
(-9.88497e-05 -0.000213153 -0.000464603)
(0.000318528 -0.000536381 0.00010983)
(0.000822943 -0.000851454 0.000780226)
(0.00136844 -0.00113824 0.00145406)
(0.00187857 -0.00139424 0.00196673)
(0.00226207 -0.00163832 0.00211732)
(0.00245082 -0.00184802 0.00177455)
(0.00227442 -0.00175767 0.00105051)
(0.00219203 -0.00176663 0.000431331)
(0.00202468 -0.00167548 -0.00015412)
(0.00181786 -0.00150904 -0.000618931)
(0.00160393 -0.00129799 -0.000936043)
(0.00140033 -0.00106889 -0.00111426)
(0.00121112 -0.000835849 -0.00117418)
(0.00102859 -0.000602244 -0.00113464)
(0.000835618 -0.000366444 -0.0010075)
(0.000610286 -0.000126809 -0.000796429)
(0.000332446 0.000115752 -0.000499025)
(-9.5798e-06 0.000357532 -0.000113057)
(-0.0004136 0.000592842 0.000352245)
(-0.000860153 0.00081563 0.000861506)
(-0.00131226 0.00102401 0.00134192)
(-0.00172115 0.00122715 0.00168668)
(-0.0020384 0.00143914 0.0017803)
(-0.00222829 0.00163721 0.00155192)
(-0.00227442 0.00175767 0.00105051)
(-0.00219203 0.00176663 0.000431331)
(-0.00202468 0.00167548 -0.00015412)
(-0.00181786 0.00150904 -0.000618931)
(-0.00160393 0.00129799 -0.000936043)
(-0.00140033 0.00106889 -0.00111426)
(-0.00121112 0.000835849 -0.00117418)
(-0.00102859 0.000602244 -0.00113464)
(-0.000835618 0.000366444 -0.0010075)
(-0.000610286 0.000126809 -0.000796429)
(-0.000332446 -0.000115752 -0.000499025)
(9.57978e-06 -0.000357532 -0.000113057)
(0.0004136 -0.000592842 0.000352245)
(0.000860153 -0.00081563 0.000861506)
(0.00131226 -0.00102401 0.00134192)
(0.00172115 -0.00122715 0.00168668)
(0.0020384 -0.00143914 0.0017803)
(0.00222829 -0.00163721 0.00155192)
(0.00208936 -0.00157526 0.00104331)
(0.00211749 -0.00159251 0.000679691)
(0.00206746 -0.00149457 0.000292235)
(0.0019487 -0.00131104 -6.13049e-05)
(0.00178074 -0.00107921 -0.000342454)
(0.00158304 -0.000828978 -0.000531069)
(0.00136654 -0.000577521 -0.000621269)
(0.001132 -0.000333363 -0.000615029)
(0.00087312 -0.000101503 -0.000516998)
(0.000581437 0.000113655 -0.000332747)
(0.000251642 0.000307812 -7.05766e-05)
(-0.000113726 0.000478383 0.00025371)
(-0.000501614 0.000627584 0.000611447)
(-0.000889487 0.000765052 0.000959237)
(-0.00125055 0.000907096 0.00124444)
(-0.00156155 0.00107036 0.00141743)
(-0.00180888 0.00125887 0.00144434)
(-0.00198556 0.00144691 0.00131455)
(-0.00208936 0.00157526 0.00104331)
(-0.00211749 0.00159251 0.000679691)
(-0.00206746 0.00149457 0.000292235)
(-0.0019487 0.00131104 -6.13049e-05)
(-0.00178074 0.00107921 -0.000342454)
(-0.00158304 0.000828978 -0.000531069)
(-0.00136654 0.000577521 -0.000621269)
(-0.001132 0.000333363 -0.000615029)
(-0.00087312 0.000101503 -0.000516998)
(-0.000581437 -0.000113655 -0.000332747)
(-0.000251642 -0.000307812 -7.05766e-05)
(0.000113726 -0.000478383 0.00025371)
(0.000501614 -0.000627584 0.000611447)
(0.000889487 -0.000765052 0.000959237)
(0.00125055 -0.000907096 0.00124444)
(0.00156155 -0.00107036 0.00141743)
(0.00180888 -0.00125887 0.00144434)
(0.00198556 -0.00144691 0.00131455)
(0.00187527 -0.00141347 0.00100644)
(0.00199337 -0.00143538 0.000878742)
(0.00204987 -0.00133475 0.000686278)
(0.00201986 -0.00113892 0.000451035)
(0.00190581 -0.000888741 0.000216661)
(0.00172423 -0.000617754 2.79524e-05)
(0.00149041 -0.000347712 -8.42174e-05)
(0.00121321 -9.33513e-05 -0.000105015)
(0.000897576 0.000133394 -3.18986e-05)
(0.000548894 0.000322618 0.000127462)
(0.000176586 0.000468055 0.00035408)
(-0.000203584 0.000570411 0.000615207)
(-0.000569859 0.000641924 0.000865444)
(-0.000899478 0.00070823 0.00105708)
(-0.00117728 0.000800513 0.00115948)
(-0.0014015 0.000937382 0.00117506)
(-0.00158214 0.00111028 0.00113678)
(-0.00173461 0.00128647 0.0010815)
(-0.00187527 0.00141347 0.00100644)
(-0.00199337 0.00143538 0.000878742)
(-0.00204987 0.00133475 0.000686278)
(-0.00201986 0.00113892 0.000451035)
(-0.00190581 0.000888741 0.000216661)
(-0.00172423 0.000617754 2.79524e-05)
(-0.00149041 0.000347712 -8.42174e-05)
(-0.00121321 9.33513e-05 -0.000105015)
(-0.000897576 -0.000133394 -3.18986e-05)
(-0.000548894 -0.000322618 0.000127462)
(-0.000176586 -0.000468055 0.00035408)
(0.000203584 -0.000570411 0.000615207)
(0.000569859 -0.000641924 0.000865444)
(0.000899478 -0.00070823 0.00105708)
(0.00117728 -0.000800513 0.00115948)
(0.0014015 -0.000937382 0.00117506)
(0.00158214 -0.00111028 0.00113678)
(0.00173461 -0.00128647 0.0010815)
(0.00261574 -0.00240102 0.00135508)
(0.00244572 -0.00243888 0.000427266)
(0.00216692 -0.00236304 -0.000481031)
(0.0018657 -0.00220382 -0.00119965)
(0.00159568 -0.00198957 -0.00167463)
(0.00137232 -0.00174475 -0.00193087)
(0.00118853 -0.00148413 -0.00201541)
(0.0010262 -0.00121099 -0.00196583)
(0.000859205 -0.000921082 -0.00180204)
(0.000656331 -0.000608432 -0.00152637)
(0.000387295 -0.000269608 -0.00112727)
(3.0462e-05 9.37052e-05 -0.000589057)
(-0.00041908 0.000473252 8.78873e-05)
(-0.000941956 0.000855639 0.000857457)
(-0.00149093 0.00122988 0.00160501)
(-0.00199639 0.00159399 0.00215765)
(-0.00238519 0.0019401 0.00234038)
(-0.00260167 0.00222798 0.00205738)
(-0.00261574 0.00240102 0.00135508)
(-0.00244572 0.00243888 0.000427266)
(-0.00216692 0.00236304 -0.000481031)
(-0.0018657 0.00220382 -0.00119965)
(-0.00159568 0.00198957 -0.00167463)
(-0.00137232 0.00174475 -0.00193087)
(-0.00118853 0.00148413 -0.00201541)
(-0.0010262 0.00121099 -0.00196583)
(-0.000859205 0.000921082 -0.00180204)
(-0.000656331 0.000608432 -0.00152637)
(-0.000387295 0.000269608 -0.00112727)
(-3.04621e-05 -9.37051e-05 -0.000589057)
(0.00041908 -0.000473252 8.78873e-05)
(0.000941956 -0.000855639 0.000857457)
(0.00149093 -0.00122988 0.00160501)
(0.00199639 -0.00159399 0.00215765)
(0.00238519 -0.0019401 0.00234038)
(0.00260167 -0.00222798 0.00205738)
(0.00246911 -0.00208973 0.00131611)
(0.00239343 -0.00211974 0.000658562)
(0.00222027 -0.00203856 -1.43813e-05)
(0.00200039 -0.0018721 -0.000580538)
(0.00177198 -0.00165028 -0.000986049)
(0.00155225 -0.00139864 -0.0012296)
(0.00134223 -0.00113302 -0.00133052)
(0.00113253 -0.000859823 -0.00130831)
(0.000906611 -0.000580089 -0.00117536)
(0.000644628 -0.000293623 -0.000936006)
(0.000328846 -1.48973e-06 -0.000589543)
(-5.03374e-05 0.000293244 -0.000137631)
(-0.000488906 0.000585912 0.000402785)
(-0.00096542 0.000872302 0.000983961)
(-0.0014415 0.00115287 0.00151933)
(-0.00186906 0.00143312 0.0018955)
(-0.00220257 0.00170802 0.00200724)
(-0.00240836 0.0019431 0.00180368)
(-0.00246911 0.00208973 0.00131611)
(-0.00239343 0.00211974 0.000658562)
(-0.00222027 0.00203856 -1.43813e-05)
(-0.00200039 0.0018721 -0.000580538)
(-0.00177198 0.00165028 -0.000986049)
(-0.00155225 0.00139864 -0.0012296)
(-0.00134223 0.00113302 -0.00133052)
(-0.00113253 0.000859823 -0.00130831)
(-0.000906611 0.000580089 -0.00117536)
(-0.000644628 0.000293623 -0.000936006)
(-0.000328846 1.48974e-06 -0.000589543)
(5.03374e-05 -0.000293244 -0.000137631)
(0.000488906 -0.000585912 0.000402785)
(0.00096542 -0.000872302 0.000983961)
(0.0014415 -0.00115287 0.00151933)
(0.00186906 -0.00143312 0.0018955)
(0.00220257 -0.00170802 0.00200724)
(0.00240836 -0.0019431 0.00180368)
(0.00231216 -0.00180545 0.0012595)
(0.00231682 -0.00182637 0.000869674)
(0.00224287 -0.00174094 0.000435922)
(0.00210526 -0.00156731 2.69472e-05)
(0.00192311 -0.0013358 -0.000305715)
(0.00171244 -0.00107384 -0.00053409)
(0.00148092 -0.000799481 -0.000648811)
(0.00122747 -0.000523293 -0.000650763)
(0.000945405 -0.000252207 -0.000544773)
(0.000626736 8.14289e-06 -0.000337536)
(0.000266585 0.000252991 -3.96261e-05)
(-0.000132801 0.000479434 0.000329304)
(-0.000559226 0.000688456 0.00073493)
(-0.000990391 0.000886728 0.00112727)
(-0.00139762 0.00108551 0.00144791)
(-0.00175238 0.00129368 0.00164316)
(-0.00203137 0.00150436 0.00167702)
(-0.00221911 0.00168771 0.0015424)
(-0.00231216 0.00180545 0.0012595)
(-0.00231682 0.00182637 0.000869674)
(-0.00224287 0.00174094 0.000435922)
(-0.00210526 0.00156731 2.69473e-05)
(-0.00192311 0.0013358 -0.000305715)
(-0.00171244 0.00107384 -0.00053409)
(-0.00148092 0.000799481 -0.000648811)
(-0.00122747 0.000523293 -0.000650763)
(-0.000945405 0.000252207 -0.000544773)
(-0.000626736 -8.14288e-06 -0.000337536)
(-0.000266585 -0.000252991 -3.96261e-05)
(0.000132801 -0.000479434 0.000329304)
(0.000559226 -0.000688456 0.00073493)
(0.000990391 -0.000886728 0.00112727)
(0.00139762 -0.00108551 0.00144791)
(0.00175238 -0.00129368 0.00164316)
(0.00203137 -0.00150436 0.00167702)
(0.00221911 -0.00168771 0.0015424)
(0.00214549 -0.00155456 0.00119145)
(0.00221176 -0.00156044 0.00104564)
(0.00222306 -0.00146899 0.000840175)
(0.0021637 -0.00128867 0.000589955)
(0.00203149 -0.00104737 0.00033821)
(0.00183671 -0.00077393 0.000133921)
(0.00159071 -0.000489654 1.26559e-05)
(0.00130012 -0.000210124 -8.15258e-06)
(0.000968451 5.16322e-05 7.43028e-05)
(0.000599938 0.000284771 0.000250957)
(0.000202433 0.000482227 0.000500187)
(-0.00021081 0.000643222 0.000785635)
(-0.000621051 0.000776199 0.00105823)
(-0.00100713 0.000899025 0.00126847)
(-0.00135083 0.00103142 0.00138599)
(-0.00164011 0.00118134 0.00141181)
(-0.00186807 0.00133656 0.00137136)
(-0.0020336 0.00147037 0.00129433)
(-0.00214549 0.00155456 0.00119145)
(-0.00221176 0.00156044 0.00104564)
(-0.00222306 0.00146899 0.000840175)
(-0.0021637 0.00128867 0.000589955)
(-0.00203149 0.00104737 0.00033821)
(-0.00183671 0.00077393 0.000133921)
(-0.00159071 0.000489654 1.26559e-05)
(-0.00130012 0.000210124 -8.15258e-06)
(-0.000968451 -5.16322e-05 7.43028e-05)
(-0.000599938 -0.000284771 0.000250957)
(-0.000202433 -0.000482227 0.000500187)
(0.00021081 -0.000643222 0.000785635)
(0.000621051 -0.000776199 0.00105823)
(0.00100713 -0.000899024 0.00126847)
(0.00135083 -0.00103142 0.00138599)
(0.00164011 -0.00118134 0.00141181)
(0.00186807 -0.00133656 0.00137136)
(0.0020336 -0.00147037 0.00129433)
(0.00263191 -0.00267588 0.00150786)
(0.00250073 -0.00277791 0.000630369)
(0.00225317 -0.00275061 -0.000293088)
(0.00196517 -0.0026193 -0.00107932)
(0.00169492 -0.00241255 -0.00163873)
(0.00146272 -0.00215631 -0.00197022)
(0.00126142 -0.00186934 -0.00211011)
(0.00107218 -0.00156046 -0.00209294)
(0.000871107 -0.00123028 -0.00193838)
(0.000632008 -0.000875514 -0.00165047)
(0.000330733 -0.000493106 -0.00122184)