/*--------------------------------*- C++ -*----------------------------------*\
| =========                 |                                                 |
| \\      /  F ield         | OpenFOAM: The Open Source CFD Toolbox           |
|  \\    /   O peration     | Version:  2312                                  |
|   \\  /    A nd           | Website:  www.openfoam.com                      |
|    \\/     M anipulation  |                                                 |
\*---------------------------------------------------------------------------*/
FoamFile
{
    version     2.0;
    format      ascii;
    arch        "LSB;label=32;scalar=64";
    class       pointVectorField;
    location    "0.5";
    object      pointD;
}
// * * * * * * * * * * * * * * * * * * * * * * * * * * * * * * * * * * * * * //

dimensions      [0 1 0 0 0 0 0];

internalField   nonuniform List<vector> 
2164
(
(0 0 0)
(0 0 0)
(0 0 0)
(0 0 0)
(0 0 0)
(0 0 0)
(0 0 0)
(0 0 0)
(0 0 0)
(0 0 0)
(0 0 0)
(0 0 0)
(0 0 0)
(0 0 0)
(0 0 0)
(0 0 0)
(0 0 0)
(0 0 0)
(0 0 0)
(0 0 0)
(0 0 0)
(0 0 0)
(0 0 0)
(0 0 0)
(0 0 0)
(0 0 0)
(0 0 0)
(0 0 0)
(0 0 0)
(0 0 0)
(0 0 0)
(0 0 0)
(0 0 0)
(0 0 0)
(0 0 0)
(0 0 0)
(-0.000256941 0.000152264 -0.000276445)
(-0.00019828 0.000294561 -0.000237658)
(-0.000128234 0.000391701 -0.000175086)
(-5.05934e-05 0.000456536 -9.29591e-05)
(3.16433e-05 0.00050842 1.23924e-05)
(0.000108464 0.000564264 0.000147659)
(0.000161958 0.000632777 0.000316859)
(0.000184908 0.000702036 0.000497715)
(0.000183935 0.000748652 0.000586483)
(0.00015134 0.000758095 0.000509649)
(0.000106784 0.000733759 0.000353191)
(8.62531e-05 0.000694768 0.000209646)
(8.88578e-05 0.000653633 9.23897e-05)
(0.000102751 0.000607565 -2.76887e-06)
(0.000119947 0.000545951 -8.25091e-05)
(0.0001363 0.000454735 -0.00015197)
(0.000143569 0.000323265 -0.000207577)
(0.000128107 0.000157337 -0.00023053)
(8.6068e-05 -1.34754e-05 -0.000207192)
(3.09673e-05 -0.000156479 -0.000153594)
(-2.16108e-05 -0.000260722 -9.23736e-05)
(-6.74731e-05 -0.000333627 -2.83415e-05)
(-0.000108521 -0.000389379 4.52242e-05)
(-0.000143819 -0.000443656 0.0001413)
(-0.000164984 -0.00050865 0.000274682)
(-0.00017293 -0.000577148 0.000437598)
(-0.000174648 -0.000626959 0.000534774)
(-0.000156723 -0.000641425 0.000484978)
(-0.000133661 -0.000622749 0.000354876)
(-0.000137523 -0.000589025 0.000225487)
(-0.000166229 -0.000551132 0.00011146)
(-0.000206363 -0.000505613 1.22142e-05)
(-0.000246779 -0.000440967 -7.61323e-05)
(-0.000280813 -0.000342411 -0.000157723)
(-0.000300268 -0.000199763 -0.000230084)
(-0.000293688 -2.38902e-05 -0.000275766)
(-9.67437e-05 0.000105342 -0.000173556)
(-6.45907e-05 0.000239568 -0.000128628)
(-3.11784e-05 0.000328234 -7.38017e-05)
(5.81993e-06 0.000382313 -7.27194e-06)
(4.72363e-05 0.00041535 7.14665e-05)
(8.92973e-05 0.000440995 0.000162317)
(0.000125093 0.000468413 0.000262943)
(0.000153607 0.000498369 0.000359427)
(0.000173334 0.000527416 0.000405155)
(0.000173818 0.000551892 0.000368851)
(0.000158636 0.000568217 0.000287317)
(0.000142327 0.000577308 0.000202528)
(0.000127963 0.000579606 0.000124994)
(0.0001116 0.000568976 5.65698e-05)
(9.03713e-05 0.000534613 -3.21357e-06)
(6.44531e-05 0.000464905 -5.60711e-05)
(3.41024e-05 0.000347774 -0.000103909)
(1.22349e-06 0.000187478 -0.000124587)
(-2.91709e-05 2.18071e-05 -9.6867e-05)
(-5.44686e-05 -0.000110587 -4.73907e-05)
(-7.41197e-05 -0.000202042 2.55028e-07)
(-8.97585e-05 -0.000261053 4.90282e-05)
(-0.000104538 -0.000298215 0.000102451)
(-0.000119659 -0.000325528 0.000165218)
(-0.000134017 -0.000352442 0.000241828)
(-0.000151615 -0.00038092 0.000325689)
(-0.000172497 -0.000408144 0.00037289)
(-0.000183833 -0.000431472 0.000347262)
(-0.000186326 -0.000449171 0.000276538)
(-0.000191545 -0.000462151 0.00019693)
(-0.000199643 -0.000469206 0.000118616)
(-0.000204139 -0.000462516 4.47522e-05)
(-0.000199579 -0.000429455 -2.38938e-05)
(-0.000184641 -0.000357016 -8.83211e-05)
(-0.000160099 -0.000233405 -0.000150558)
(-0.000129071 -6.5867e-05 -0.000187645)
(0 0 0)
(0 0 0)
(0 0 0)
(0 0 0)
(0 0 0)
(0 0 0)
(0 0 0)
(0 0 0)
(0 0 0)
(0 0 0)
(0 0 0)
(0 0 0)
(0 0 0)
(0 0 0)
(0 0 0)
(0 0 0)
(0 0 0)
(0 0 0)
(0 0 0)
(0 0 0)
(0 0 0)
(0 0 0)
(0 0 0)
(0 0 0)
(0 0 0)
(0 0 0)
(0 0 0)
(0 0 0)
(0 0 0)
(0 0 0)
(0 0 0)
(0 0 0)
(0 0 0)
(0 0 0)
(0 0 0)
(0 0 0)
(4.71893e-05 5.25014e-05 -6.57752e-05)
(5.17306e-05 0.000178315 -2.30695e-05)
(4.78566e-05 0.000258388 2.23104e-05)
(4.46146e-05 0.000300536 7.21979e-05)
(4.69257e-05 0.00031504 0.000124008)
(5.73948e-05 0.000313991 0.00017147)
(7.85762e-05 0.000308439 0.000206152)
(0.000116389 0.000309082 0.000222211)
(0.000165649 0.000324955 0.000227525)
(0.000204964 0.000359356 0.000230398)
(0.000219644 0.000406956 0.000220287)
(0.000210185 0.000457282 0.000191244)
(0.000181845 0.000500074 0.000151469)
(0.000137469 0.000524597 0.000109029)
(7.9351e-05 0.000518435 6.95964e-05)
(1.21516e-05 0.000469895 3.52906e-05)
(-5.41924e-05 0.000367488 4.03684e-06)
(-0.000102819 0.000218166 -7.48003e-06)
(-0.000122058 6.28522e-05 1.66898e-05)
(-0.000118755 -5.81198e-05 5.34822e-05)
(-0.000106367 -0.000136189 8.61072e-05)
(-9.31401e-05 -0.000179523 0.000119071)
(-8.37693e-05 -0.000197485 0.00015242)
(-8.18915e-05 -0.00020015 0.00018261)
(-9.24501e-05 -0.000196244 0.000203764)
(-0.000123849 -0.000195224 0.000211557)
(-0.000172141 -0.000207053 0.000212651)
(-0.000216552 -0.000238002 0.000212654)
(-0.000243372 -0.000285365 0.000199935)
(-0.000251069 -0.000339227 0.00016789)
(-0.00024022 -0.000388236 0.000123579)
(-0.000210233 -0.000419371 7.43351e-05)
(-0.000161492 -0.000417712 2.54791e-05)
(-9.83655e-05 -0.000369843 -2.06795e-05)
(-3.1608e-05 -0.000264412 -6.50372e-05)
(2.11418e-05 -0.000109328 -8.70208e-05)
(0 0 0)
(0 0 0)
(0 0 0)
(0 0 0)
(0 0 0)
(0 0 0)
(0 0 0)
(0 0 0)
(0 0 0)
(0 0 0)
(0 0 0)
(0 0 0)
(0 0 0)
(0 0 0)
(0 0 0)
(0 0 0)
(0 0 0)
(0 0 0)
(0 0 0)
(0 0 0)
(0 0 0)
(0 0 0)
(0 0 0)
(0 0 0)
(0 0 0)
(0 0 0)
(0 0 0)
(0 0 0)
(0 0 0)
(0 0 0)
(0 0 0)
(0 0 0)
(0 0 0)
(0 0 0)
(0 0 0)
(0 0 0)
(0.000159489 -6.08916e-06 4.28759e-05)
(0.000139954 0.000108882 7.47158e-05)
(0.00010271 0.000179736 0.000108979)
(6.36652e-05 0.000209285 0.000141068)
(3.26648e-05 0.000207063 0.000165156)
(1.86093e-05 0.000185606 0.000170811)
(3.07645e-05 0.000159398 0.000147227)
(8.01847e-05 0.000144637 9.92505e-05)
(0.000161943 0.000153479 7.35073e-05)
(0.000239277 0.000191446 0.000103866)
(0.000280896 0.000256722 0.000149739)
(0.000281369 0.000336432 0.000170206)
(0.00024465 0.000412728 0.000166788)
(0.000177828 0.000469091 0.000150867)
(8.83651e-05 0.000489969 0.000132868)
(-1.36051e-05 0.000461497 0.000118963)
(-0.000108264 0.000376001 0.000112249)
(-0.000168191 0.000246991 0.000115809)
(-0.000179305 0.00011111 0.000128753)
(-0.000153826 4.19267e-06 0.000145313)
(-0.000114745 -6.01216e-05 0.000162135)
(-7.72294e-05 -8.70462e-05 0.000178614)
(-4.87682e-05 -8.66571e-05 0.000190919)
(-3.6015e-05 -6.92857e-05 0.000188823)
(-4.77161e-05 -4.5714e-05 0.000159845)
(-9.55645e-05 -3.00232e-05 0.000106496)
(-0.000174435 -3.61014e-05 7.26915e-05)
(-0.00025023 -7.25931e-05 9.11015e-05)
(-0.000296857 -0.000138938 0.000124328)
(-0.000307974 -0.000222895 0.00013452)
(-0.00028198 -0.000306453 0.000122622)
(-0.000222002 -0.000370864 9.80282e-05)
(-0.000134203 -0.000397834 6.95073e-05)
(-2.94715e-05 -0.000371791 4.2927e-05)
(7.14084e-05 -0.000284874 2.41188e-05)
(0.000139839 -0.000150136 2.29269e-05)
(0 0 0)
(0 0 0)
(0 0 0)
(0 0 0)
(0 0 0)
(0 0 0)
(0 0 0)
(0 0 0)
(0 0 0)
(0 0 0)
(0 0 0)
(0 0 0)
(0 0 0)
(0 0 0)
(0 0 0)
(0 0 0)
(0 0 0)
(0 0 0)
(0 0 0)
(0 0 0)
(0 0 0)
(0 0 0)
(0 0 0)
(0 0 0)
(0 0 0)
(0 0 0)
(0 0 0)
(0 0 0)
(0 0 0)
(0 0 0)
(0 0 0)
(0 0 0)
(0 0 0)
(0 0 0)
(0 0 0)
(0 0 0)
(-0.000396028 0.000272324 -0.000507164)
(-0.000310909 0.000553948 -0.000436396)
(-0.000210297 0.000745017 -0.000312508)
(-9.55833e-05 0.000865873 -0.00014447)
(2.904e-05 0.000949573 7.1633e-05)
(0.000149474 0.00102537 0.000342258)
(0.000244505 0.00111043 0.000662378)
(0.00030629 0.00119845 0.000983508)
(0.000341563 0.00126812 0.00115947)
(0.000331105 0.00130222 0.00107049)
(0.000284893 0.00129948 0.000812609)
(0.000249894 0.00127464 0.000537305)
(0.000237434 0.00123574 0.00029417)
(0.000237977 0.00117438 9.01086e-05)
(0.000240694 0.00107197 -8.08752e-05)
(0.000237264 0.000903786 -0.000225207)
(0.000217163 0.000650788 -0.000335175)
(0.00017126 0.000328243 -0.000380729)
(0.000102733 -3.9807e-06 -0.000341223)
(2.50472e-05 -0.000280218 -0.000242015)
(-4.87457e-05 -0.00047592 -0.000121312)
(-0.00011473 -0.00060589 9.85682e-06)
(-0.000174259 -0.000696903 0.000161572)
(-0.000225812 -0.000775534 0.000353413)
(-0.000263238 -0.000861337 0.000600143)
(-0.000292403 -0.000952557 0.000877404)
(-0.000324868 -0.00102908 0.00105847)
(-0.00033897 -0.00107145 0.00101343)
(-0.0003347 -0.00107746 0.000801839)
(-0.000348062 -0.00106161 0.000552848)
(-0.000386399 -0.0010303 0.000315383)
(-0.000435061 -0.000972595 0.000101698)
(-0.00047713 -0.000867129 -8.89552e-05)
(-0.000500574 -0.000687466 -0.000260766)
(-0.000496398 -0.000415517 -0.000407465)
(-0.000460244 -7.3761e-05 -0.000499741)
(-0.000180028 0.00018188 -0.000329284)
(-0.000125099 0.000441055 -0.000245773)
(-6.91439e-05 0.000614137 -0.000129362)
(-5.7825e-06 0.000719478 1.51003e-05)
(6.66998e-05 0.00078178 0.000186483)
(0.000142845 0.000825852 0.000381933)
(0.000213667 0.000869398 0.000590894)
(0.000276844 0.000917966 0.000781824)
(0.000329717 0.000969314 0.000882078)
(0.000353707 0.00101947 0.000836434)
(0.00034424 0.00106286 0.000688991)
(0.000319471 0.00109572 0.000513727)
(0.000288718 0.00111252 0.000343259)
(0.000250193 0.00109989 0.000188926)
(0.000200924 0.001038 5.34085e-05)
(0.000141195 0.000905308 -6.37547e-05)
(7.34633e-05 0.00068144 -0.000158241)
(5.73416e-06 0.000379775 -0.000195894)
(-5.08763e-05 6.78187e-05 -0.000150267)
(-9.40428e-05 -0.000184711 -5.76047e-05)
(-0.000127135 -0.00035867 4.38925e-05)
(-0.000154835 -0.000469747 0.000150758)
(-0.000181943 -0.000538771 0.000267874)
(-0.000210628 -0.000587649 0.000402377)
(-0.000241631 -0.0006334 0.000557095)
(-0.000281445 -0.000682302 0.000714621)
(-0.000331954 -0.000732577 0.000810912)
(-0.000374006 -0.000781927 0.000783192)
(-0.000397599 -0.000828161 0.000656315)
(-0.000413647 -0.000868422 0.000491587)
(-0.000425602 -0.000894862 0.000319221)
(-0.000425955 -0.000890649 0.000152346)
(-0.000406629 -0.000832106 -3.80217e-06)
(-0.000365467 -0.000694895 -0.00014778)
(-0.000306498 -0.000459063 -0.000274518)
(-0.00024069 -0.000142677 -0.000347058)
(2.71924e-05 8.33571e-05 -0.000143505)
(5.06219e-05 0.000319957 -5.60142e-05)
(6.06789e-05 0.00047639 5.09157e-05)
(7.15897e-05 0.000565634 0.000170784)
(9.14221e-05 0.000606246 0.000296506)
(0.000124162 0.000619896 0.000415934)
(0.000172472 0.000626351 0.000512615)
(0.000241179 0.000642199 0.000572205)
(0.000321644 0.000679731 0.000599198)
(0.000386649 0.000743609 0.000599473)
(0.000414247 0.000826586 0.000561779)
(0.000400937 0.000912662 0.000486025)
(0.000353055 0.000983932 0.000388028)
(0.000275749 0.00102059 0.000283529)
(0.000174251 0.0010001 0.000184252)
(5.7787e-05 0.000901429 9.69424e-05)
(-5.68055e-05 0.000706747 2.74745e-05)
(-0.000144793 0.000432142 4.58302e-06)
(-0.000189483 0.000146694 4.80929e-05)
(-0.000198569 -8.13769e-05 0.000124908)
(-0.000190789 -0.000234039 0.000205124)
(-0.000179999 -0.000324491 0.000286953)
(-0.000174914 -0.000369893 0.000368923)
(-0.000182081 -0.000388897 0.000445214)
(-0.000208515 -0.000397907 0.000505749)
(-0.000263416 -0.000411551 0.000541212)
(-0.000340842 -0.000443219 0.000556394)
(-0.000415325 -0.000501893 0.000551643)
(-0.000465592 -0.000584961 0.000510501)
(-0.000484003 -0.000677945 0.000429698)
(-0.000469385 -0.000760985 0.000322095)
(-0.000420617 -0.00081017 0.000201845)
(-0.000339088 -0.000798245 8.03815e-05)
(-0.000233098 -0.000700804 -3.428e-05)
(-0.000120653 -0.000499984 -0.000132863)
(-2.78765e-05 -0.000214092 -0.000178996)
(0.000203843 -2.06565e-05 4.43744e-05)
(0.000200009 0.000191196 0.000125467)
(0.000169049 0.000331777 0.000219935)
(0.000132424 0.000405027 0.000313303)
(0.000105183 0.00042579 0.000391657)
(0.000100725 0.000414222 0.00043586)
(0.000131104 0.000393496 0.000427809)
(0.000207359 0.000388373 0.000373699)
(0.000318876 0.000418515 0.000340669)
(0.000423357 0.000491607 0.000376215)
(0.000482402 0.000601836 0.000429266)
(0.000481119 0.000729553 0.000444805)
(0.0004206 0.000847794 0.000418321)
(0.000310188 0.000929328 0.000365487)
(0.000162996 0.000947767 0.000304861)
(-2.33655e-06 0.000880563 0.000250816)
(-0.000155135 0.000717274 0.00021555)
(-0.000258517 0.000480865 0.000213174)
(-0.000294237 0.00023266 0.000246011)
(-0.000276213 3.1583e-05 0.000298348)
(-0.00023375 -0.000100562 0.00035562)
(-0.00018941 -0.000170139 0.000411087)
(-0.000156853 -0.000192587 0.000455918)
(-0.000147543 -0.00018513 0.000473321)
(-0.000172969 -0.000166014 0.000444553)
(-0.000244874 -0.000157137 0.000373371)
(-0.000352531 -0.000180761 0.000322689)
(-0.000457518 -0.000249489 0.00033602)
(-0.000527899 -0.000360443 0.000365527)
(-0.000547138 -0.000495549 0.000360955)
(-0.000508666 -0.000627083 0.000316349)
(-0.000415494 -0.000723716 0.00024354)
(-0.000278136 -0.000753927 0.000158415)
(-0.000115556 -0.000691768 7.60385e-05)
(4.11276e-05 -0.00052624 1.47874e-05)
(0.000154424 -0.000280756 8.01388e-07)
(-0.000499953 0.000312058 -0.000638516)
(-0.00039272 0.000701852 -0.000554606)
(-0.000267575 0.000977537 -0.000382133)
(-0.000124405 0.00115931 -0.000132643)
(3.08615e-05 0.00128463 0.000193566)
(0.000182512 0.00138763 0.000594666)
(0.000310543 0.00149029 0.0010497)
(0.000405735 0.00159585 0.00149268)
(0.00047297 0.00169329 0.00176639)
(0.000497228 0.00176392 0.00171273)
(0.000466237 0.00179542 0.00140038)
(0.000416998 0.00179392 0.00101406)
(0.000381903 0.00176143 0.000644363)
(0.000359195 0.00168451 0.000321397)
(0.000338606 0.00154171 5.0921e-05)
(0.000308258 0.00130567 -0.000168126)
(0.000257179 0.000957535 -0.000325045)
(0.000181631 0.000521066 -0.000391041)
(9.02027e-05 7.22305e-05 -0.000348656)
(-4.36919e-06 -0.00030653 -0.000223496)
(-9.31928e-05 -0.000581237 -5.62394e-05)
(-0.000173921 -0.000767635 0.000137205)
(-0.000246762 -0.000897987 0.000364768)
(-0.000309855 -0.00100376 0.000643709)
(-0.000360722 -0.00110814 0.000980703)
(-0.000405914 -0.00121824 0.00134244)
(-0.000458895 -0.00132536 0.00160211)
(-0.000511175 -0.00140904 0.00159828)
(-0.000538546 -0.00145376 0.00134981)
(-0.000558053 -0.00146516 0.00100227)
(-0.000594788 -0.00144488 0.000642223)
(-0.000638847 -0.00137577 0.000305439)
(-0.000672206 -0.00123244 4.12958e-06)
(-0.000678859 -0.000985296 -0.000259302)
(-0.000650208 -0.000616354 -0.000474686)
(-0.000587787 -0.000156302 -0.00061188)
(-0.000273125 0.00019863 -0.000408963)
(-0.000191443 0.000552312 -0.000302422)
(-0.000107769 0.000799144 -0.000132393)
(-1.4393e-05 0.000958659 8.88653e-05)
(8.9561e-05 0.00106 0.000355252)
(0.00019721 0.00113293 0.000656738)
(0.000298691 0.00119984 0.000971061)
(0.000389503 0.00127156 0.00125318)
(0.00046668 0.00134917 0.00141823)
(0.000514681 0.00142805 0.00138971)
(0.000517274 0.00150009 0.00120159)
(0.000485657 0.00155618 0.000947108)
(0.000438555 0.00158391 0.000682538)
(0.000379066 0.0015646 0.000435018)
(0.0003056 0.00147411 0.000216826)
(0.000217935 0.00128714 3.38087e-05)
(0.000119676 0.00098259 -0.000101583)
(2.19396e-05 0.000582147 -0.00015392)
(-6.12198e-05 0.000168296 -0.000102278)
(-0.000126234 -0.000174401 1.7897e-05)
(-0.000178159 -0.000418585 0.000164837)
(-0.000223624 -0.000581194 0.000327282)
(-0.000267619 -0.000687968 0.000507558)
(-0.000312274 -0.000765784 0.000710541)
(-0.000359271 -0.000835848 0.000933464)
(-0.000414625 -0.000909404 0.00115205)
(-0.000482664 -0.000987784 0.00129703)
(-0.000551786 -0.00106767 0.00128675)
(-0.000599132 -0.0011446 0.00112732)
(-0.000623865 -0.00121124 0.000889018)
(-0.000636173 -0.00125292 0.000622146)
(-0.000630895 -0.00124631 0.000355048)
(-0.000599617 -0.00116211 0.000103343)
(-0.000539019 -0.000971247 -0.000123758)
(-0.00045468 -0.000652751 -0.000311333)
(-0.000361224 -0.000233112 -0.000418258)
(-4.80349e-05 7.75456e-05 -0.000172179)
(5.75837e-06 0.000395155 -5.00225e-05)
(4.60078e-05 0.000614767 0.000115741)
(8.76833e-05 0.000751096 0.00030829)
(0.00013877 0.000826815 0.000514034)
(0.000202054 0.000868462 0.000714389)
(0.000277927 0.000900172 0.000885299)
(0.000366846 0.000940912 0.00100284)
(0.000462293 0.0010038 0.00106106)
(0.000541674 0.00109381 0.00106154)
(0.000578267 0.00120384 0.000997822)
(0.000563679 0.00131474 0.000875911)
(0.00050429 0.00140271 0.000717509)
(0.000406946 0.0014422 0.000546098)
(0.000279053 0.00140482 0.00038103)
(0.000132426 0.00126479 0.000236969)
(-1.33346e-05 0.00100335 0.000131149)
(-0.000131955 0.000644335 9.74951e-05)
(-0.00020562 0.000271084 0.000151938)
(-0.000239977 -3.50018e-05 0.000259532)
(-0.000253706 -0.000249388 0.000384105)
(-0.000262659 -0.000386158 0.000515107)
(-0.000277007 -0.000466475 0.000647563)
(-0.000303489 -0.000513823 0.000773308)
(-0.000347838 -0.000548872 0.000879065)
(-0.000415599 -0.000588225 0.000949639)
(-0.000505381 -0.000645305 0.00098194)
(-0.000597491 -0.000729337 0.000971812)
(-0.00066431 -0.00083963 0.000903568)
(-0.00069221 -0.000959863 0.000775052)
(-0.00067855 -0.00106374 0.000601743)
(-0.000621878 -0.00112042 0.000404289)
(-0.000524057 -0.00109516 0.000202046)
(-0.000395077 -0.000957301 1.26578e-05)
(-0.000255579 -0.000687481 -0.000140485)
(-0.000133543 -0.000312522 -0.000211972)
(0.000155875 -4.8624e-05 6.81591e-05)
(0.00018399 0.000231433 0.000194833)
(0.000183902 0.000425715 0.000351533)
(0.000177043 0.000539361 0.000512853)
(0.000178738 0.000590501 0.000656304)
(0.000201432 0.000603539 0.000756422)
(0.000254623 0.000605269 0.00079056)
(0.000343081 0.000622156 0.000759644)
(0.000460385 0.000677119 0.0007278)
(0.000572269 0.000779216 0.000751902)
(0.000637794 0.000919531 0.000793147)
(0.000637483 0.00107575 0.000793094)
(0.000567759 0.00121727 0.000738453)
(0.000436654 0.00131084 0.000644511)
(0.000259803 0.0013231 0.000535524)
(6.07089e-05 0.00122629 0.000435478)
(-0.000125769 0.0010095 0.000368393)
(-0.000261205 0.000702402 0.000357725)
(-0.000326667 0.000379699 0.000406965)
(-0.000334759 0.000112035 0.000493389)
(-0.000314456 -7.40722e-05 0.000592804)
(-0.000290097 -0.00018485 0.000690794)
(-0.000277549 -0.000238495 0.000773618)
(-0.000288494 -0.000256348 0.000821626)
(-0.000331946 -0.000260071 0.000814139)
(-0.000412739 -0.00027242 0.000749678)
(-0.000526543 -0.000318509 0.000686601)
(-0.000642744 -0.000413521 0.000677208)
(-0.000724256 -0.000553448 0.000685559)
(-0.000750949 -0.000718626 0.000656434)
(-0.00071177 -0.000877397 0.00057301)
(-0.000606973 -0.000991131 0.00044529)
(-0.000448058 -0.00101931 0.000294711)
(-0.000257756 -0.000928897 0.00014784)
(-7.07384e-05 -0.000707657 3.86423e-05)
(7.41808e-05 -0.000387103 7.20033e-06)
(-0.000588503 0.000267013 -0.00061682)
(-0.000461008 0.000726511 -0.000544914)
(-0.00031377 0.00107021 -0.00035276)
(-0.000147491 0.00131196 -5.07546e-05)
(3.10818e-05 0.001486 0.000354466)
(0.000207372 0.00162625 0.000849912)
(0.000363946 0.00175753 0.00140089)
(0.000489106 0.00189186 0.00193265)
(0.000586839 0.00202795 0.00229315)
(0.000652701 0.00214401 0.00230866)
(0.000645802 0.00221375 0.00200169)
(0.000584318 0.00223676 0.00155407)
(0.000522881 0.00221167 0.00109258)
(0.000468992 0.00211967 0.000673984)
(0.000417862 0.00193988 0.000321981)
(0.000358375 0.00164983 4.51896e-05)
(0.000280365 0.00123934 -0.00014493)
(0.000181715 0.000739569 -0.000229618)
(7.13282e-05 0.000227667 -0.000200426)
(-3.88568e-05 -0.000214569 -7.71323e-05)
(-0.000141876 -0.000549302 0.000107683)
(-0.000236507 -0.000787247 0.000337083)
(-0.000322698 -0.000959061 0.000613781)
(-0.000399068 -0.00109692 0.000947742)
(-0.000465282 -0.00122667 0.00133726)
(-0.000525724 -0.00136406 0.00174573)
(-0.000594991 -0.00151158 0.00206006)
(-0.000681728 -0.00164725 0.00211903)
(-0.00074096 -0.00173839 0.0018886)
(-0.000764735 -0.00178058 0.00149108)
(-0.000790675 -0.00177295 0.0010451)
(-0.000817524 -0.00169388 0.000611818)
(-0.000832815 -0.0015183 0.00022079)
(-0.000821387 -0.00122122 -0.000114887)
(-0.00077484 -0.000792628 -0.000382467)
(-0.000694852 -0.000268567 -0.000559019)
(-0.000378947 0.000153278 -0.000359223)
(-0.000268952 0.000567665 -0.000253552)
(-0.000154343 0.000873367 -5.65143e-05)
(-2.89654e-05 0.0010859 0.000216104)
(0.000106472 0.00123366 0.000552352)
(0.000244239 0.00134666 0.00093393)
(0.000374032 0.00144886 0.00132856)
(0.000489112 0.00155468 0.00168292)
(0.000587569 0.00166722 0.00190925)
(0.00065967 0.00177917 0.00192041)
(0.000676096 0.00187876 0.00172995)
(0.000638774 0.00195347 0.00143114)
(0.000576066 0.00198651 0.00109937)
(0.000496636 0.00195608 0.000778825)
(0.000402145 0.00183784 0.000494737)
(0.000292866 0.00160822 0.000261951)
(0.000172478 0.00125232 9.84713e-05)
(5.1652e-05 0.000798552 3.27703e-05)
(-5.60529e-05 0.00033015 7.58782e-05)
(-0.000145614 -6.88332e-05 0.00019876)
(-0.000221339 -0.000366906 0.000365337)
(-0.000289986 -0.000577207 0.000560347)
(-0.000355946 -0.00072555 0.000781844)
(-0.000420647 -0.000839862 0.00102985)
(-0.00048528 -0.000943242 0.00129599)
(-0.000554061 -0.00105075 0.00155245)
(-0.000634071 -0.00116607 0.00173367)
(-0.000723607 -0.00128283 0.00175524)
(-0.000790518 -0.00139153 0.00159793)
(-0.000821235 -0.00148079 0.00132038)
(-0.000830271 -0.00153194 0.000987689)
(-0.000816826 -0.00151842 0.000643314)
(-0.000775233 -0.00141027 0.000315413)
(-0.000702325 -0.00117969 2.33327e-05)
(-0.000603124 -0.000811129 -0.000210248)
(-0.000491003 -0.00033668 -0.000347735)
(-0.000164769 3.34214e-05 -9.71665e-05)
(-7.60824e-05 0.000402725 3.7388e-05)
(2.8423e-06 0.000671472 0.000237787)
(8.47376e-05 0.000853254 0.00048111)
(0.000174918 0.000971974 0.000748214)
(0.00027302 0.00105481 0.00101486)
(0.000376194 0.00112591 0.0012506)
(0.000481504 0.00120303 0.00142358)
(0.000587072 0.0012971 0.00151606)
(0.000675118 0.00141208 0.00152625)
(0.000716283 0.00154207 0.00145347)
(0.000700776 0.00166665 0.00130464)
(0.000635309 0.00175896 0.0011038)
(0.000528095 0.00179206 0.000881828)
(0.000387447 0.00173637 0.000666224)
(0.000225421 0.00156528 0.000480189)
(6.10592e-05 0.00126315 0.000349347)
(-8.10016e-05 0.000859006 0.000305752)
(-0.00018344 0.00043802 0.000358379)
(-0.000249397 8.27134e-05 0.000475428)
(-0.000295206 -0.000178936 0.00062201)
(-0.000335814 -0.000359116 0.000782597)
(-0.000380179 -0.000480212 0.000948861)
(-0.000432796 -0.000566985 0.00111019)
(-0.000496469 -0.000640759 0.00125063)
(-0.000573492 -0.000717061 0.00135041)
(-0.000668787 -0.00080623 0.0013972)
(-0.000769147 -0.000915794 0.0013863)
(-0.000844426 -0.00104696 0.00130635)
(-0.000878837 -0.00118293 0.00114992)
(-0.000868465 -0.00129422 0.000930554)
(-0.000811745 -0.00134795 0.00067448)
(-0.000710324 -0.00130745 0.000408908)
(-0.000573602 -0.00114041 0.000161318)
(-0.000421085 -0.000829723 -3.37091e-05)
(-0.000278781 -0.000407405 -0.000128702)
(3.88147e-05 -9.11745e-05 0.000168775)
(0.000105946 0.00023173 0.000321234)
(0.000149694 0.000465638 0.000519015)
(0.000188665 0.000617231 0.000730308)
(0.000234342 0.000706747 0.00092707)
(0.000293977 0.000759326 0.00107984)
(0.000371913 0.000800107 0.00116221)
(0.000468049 0.000851261 0.00116739)
(0.000584085 0.000933753 0.0011434)
(0.00069407 0.00105793 0.00115274)
(0.000758109 0.00121496 0.00118085)
(0.000758904 0.0013822 0.0011696)
(0.000689837 0.0015292 0.00109561)
(0.000556171 0.00162195 0.00097256)
(0.000372249 0.00162497 0.000828478)
(0.000161403 0.00150821 0.000695236)
(-4.23892e-05 0.00126083 0.000605456)
(-0.00020217 0.000915347 0.000586774)
(-0.000298689 0.000550465 0.000641942)
(-0.000342315 0.000240445 0.00074525)
(-0.000359476 1.37796e-05 0.000868441)
(-0.000372733 -0.000135953 0.000993154)
(-0.000395895 -0.0002284 0.00110301)
(-0.000436873 -0.000285995 0.00117758)
(-0.000500037 -0.000329325 0.00119545)
(-0.000584931 -0.000376368 0.00114853)
(-0.000696792 -0.000448593 0.00107646)
(-0.000813039 -0.000563021 0.0010386)
(-0.000895618 -0.00071814 0.00102548)
(-0.000927692 -0.000894691 0.000978035)
(-0.00089583 -0.0010608 0.000866152)
(-0.000796393 -0.00117644 0.000697216)
(-0.000638052 -0.00119786 0.000496222)
(-0.000442157 -0.00108849 0.000299102)
(-0.000241958 -0.000835362 0.000151792)
(-7.45724e-05 -0.000473891 0.00010269)
(-0.00067525 0.000152274 -0.000434718)
(-0.000531414 0.00064533 -0.000395408)
(-0.000363042 0.0010363 -0.000214347)
(-0.000173622 0.00133127 0.000103346)
(2.8753e-05 0.0015579 0.000546662)
(0.000230678 0.00174699 0.0010936)
(0.000416483 0.00192361 0.00170041)
(0.000572576 0.00210389 0.0022881)
(0.000699417 0.00229088 0.00271989)
(0.000794784 0.00245824 0.00282874)
(0.000805173 0.00256576 0.00257794)
(0.000736693 0.00260882 0.00211748)
(0.000651334 0.0025877 0.00160702)
(0.000565387 0.00248115 0.00112836)
(0.000482688 0.00227115 0.000722778)
(0.000396892 0.00194453 0.000408607)
(0.000299299 0.00150369 0.00019587)
(0.000186153 0.000984759 9.12034e-05)
(6.22456e-05 0.000455976 9.41407e-05)
(-6.33248e-05 -1.29764e-05 0.000192167)
(-0.000184089 -0.00038581 0.000364879)
(-0.000297983 -0.000666554 0.000598366)
(-0.000404052 -0.000880372 0.000890809)
(-0.000500732 -0.00105743 0.0012445)
(-0.000587627 -0.00122469 0.0016511)
(-0.000667054 -0.00140262 0.00207321)
(-0.000750486 -0.00159973 0.00241976)
(-0.000850137 -0.00179307 0.0025516)
(-0.000925892 -0.00193514 0.00238069)
(-0.000954721 -0.00200835 0.00198217)
(-0.000965844 -0.00201123 0.0014962)
(-0.000970027 -0.00192398 0.00100614)
(-0.000963798 -0.00172506 0.000558002)
(-0.000936635 -0.00139842 0.00017555)
(-0.000880103 -0.000945142 -0.00012779)
(-0.000792301 -0.000403523 -0.000338422)
(-0.000497246 5.76949e-05 -0.000170083)
(-0.000361624 0.000502127 -8.67861e-05)
(-0.000215798 0.000849142 0.000107376)
(-5.69436e-05 0.00110867 0.000398364)
(0.000111723 0.00130581 0.000770538)
(0.000281212 0.00146801 0.0011993)
(0.000440363 0.00161789 0.00164545)
(0.000580352 0.0017699 0.00205069)
(0.000698622 0.00192668 0.00233141)
(0.000787141 0.00207686 0.00239996)
(0.000812592 0.00220292 0.00224103)
(0.000772372 0.00229071 0.00193307)
(0.000697291 0.00232374 0.0015675)
(0.000600958 0.00228017 0.00120377)
(0.000489458 0.00213839 0.000879253)
(0.000364882 0.00188037 0.000616989)
(0.000230357 0.00150043 0.00043652)
(9.38769e-05 0.00103104 0.000356328)
(-3.40277e-05 0.000547057 0.000378534)
(-0.000148393 0.000122601 0.000481888)
(-0.000251812 -0.000210765 0.000640403)
(-0.000349286 -0.000461029 0.000839742)
(-0.000443473 -0.000651299 0.00107473)
(-0.00053412 -0.000807998 0.00134057)
(-0.000620608 -0.000953894 0.0016244)
(-0.000704876 -0.00110473 0.00189678)
(-0.000793707 -0.00126492 0.00210203)
(-0.000889664 -0.00142479 0.00216419)
(-0.000965387 -0.00156682 0.00203691)
(-0.00100071 -0.00167507 0.00175524)
(-0.00100488 -0.00173104 0.00139283)
(-0.000982659 -0.00170912 0.00100512)
(-0.00093286 -0.00158236 0.000631213)
(-0.000853782 -0.00132826 0.000299273)
(-0.000748665 -0.00093935 3.5652e-05)
(-0.000626793 -0.000450149 -0.000128802)
(-0.000309585 -4.17096e-05 9.6057e-05)
(-0.000187228 0.00035394 0.000220354)
(-6.81602e-05 0.000657121 0.000426567)
(5.68637e-05 0.000879115 0.000691399)
(0.000189288 0.00104324 0.000993036)
(0.0003247 0.00117459 0.00130347)
(0.00045674 0.0012942 0.00158747)
(0.000579969 0.00141594 0.0018069)
(0.000694391 0.00154661 0.00193419)
(0.000786435 0.00168843 0.00196479)
(0.000829731 0.00183589 0.00190091)
(0.000814848 0.00196786 0.00174674)
(0.000747851 0.00205743 0.00152681)
(0.000637951 0.00207964 0.00127807)
(0.00049372 0.00200754 0.00103483)
(0.000326175 0.00181698 0.000826754)
(0.000152017 0.00149716 0.000682717)
(-7.17357e-06 0.00107921 0.000628751)
(-0.000135488 0.000642247 0.0006675)
(-0.000234056 0.000262748 0.000772612)
(-0.000316243 -3.05596e-05 0.000915575)
(-0.000394586 -0.000247443 0.00108107)
(-0.000475216 -0.000409852 0.0012592)
(-0.000559094 -0.000541382 0.0014374)
(-0.000645407 -0.000661318 0.00159758)
(-0.000734089 -0.00078184 0.00171676)
(-0.000831146 -0.000908563 0.00177568)
(-0.00093027 -0.00104648 0.00177061)
(-0.001008 -0.00119658 0.00169364)
(-0.00104734 -0.00134192 0.00153039)
(-0.00104163 -0.00145341 0.00129071)
(-0.000989428 -0.00149939 0.00100394)
(-0.000892143 -0.00144562 0.000702797)
(-0.000757558 -0.00126196 0.00042156)
(-0.000601973 -0.000935378 0.000200296)
(-0.000447383 -0.000499586 8.40045e-05)
(-0.000123072 -0.000145756 0.000365732)
(-1.65599e-05 0.000199416 0.000520908)
(7.3831e-05 0.000460474 0.000732901)
(0.000163218 0.000645347 0.000968891)
(0.000257878 0.000775308 0.0011992)
(0.000358517 0.000873712 0.00139245)
(0.000463844 0.00096092 0.0015188)
(0.000570907 0.00105238 0.00156287)
(0.00068506 0.00116351 0.00155193)
(0.000789397 0.00130611 0.00155039)
(0.000851073 0.00147455 0.00157011)
(0.000854874 0.00164543 0.00155605)
(0.00079297 0.00178913 0.00147588)
(0.000667976 0.00187455 0.00134127)
(0.000490895 0.0018684 0.00118201)
(0.000281617 0.00174117 0.00103419)
(7.05698e-05 0.00148216 0.000933738)
(-0.000107884 0.00112339 0.000907644)
(-0.000234061 0.000741209 0.000957116)
(-0.000315358 0.000408662 0.00105724)
(-0.000375027 0.000154512 0.00118138)
(-0.000432749 -2.84577e-05 0.00131194)
(-0.000498348 -0.000160719 0.00143273)
(-0.000574442 -0.000263567 0.00152363)
(-0.000660387 -0.000353788 0.00156276)
(-0.000753436 -0.000442601 0.00153562)
(-0.000860143 -0.000542989 0.00145993)
(-0.000968094 -0.000672845 0.00139746)
(-0.00104909 -0.000836911 0.00136628)
(-0.00108715 -0.00101636 0.00130846)
(-0.0010674 -0.00117987 0.00118347)
(-0.000982915 -0.00128962 0.00099497)
(-0.000838046 -0.00130343 0.000768342)
(-0.000649903 -0.00118467 0.000543938)
(-0.000447657 -0.000920182 0.000373308)
(-0.000265131 -0.000545514 0.000307691)
(-0.000767896 -1.20437e-05 -0.000108806)
(-0.000611865 0.000484992 -0.000115117)
(-0.000422974 0.000902668 2.9254e-05)
(-0.000208368 0.00124092 0.000327475)
(2.10333e-05 0.0015202 0.000768095)
(0.000251356 0.0017665 0.00132438)
(0.000467328 0.0020025 0.00194897)
(0.000654053 0.00224349 0.00256515)
(0.000805119 0.002491 0.00305686)
(0.000912386 0.00271327 0.00326792)