/*--------------------------------*- C++ -*----------------------------------*\
| =========                 |                                                 |
| \\      /  F ield         | OpenFOAM: The Open Source CFD Toolbox           |
|  \\    /   O peration     | Version:  2312                                  |
|   \\  /    A nd           | Website:  www.openfoam.com                      |
|    \\/     M anipulation  |                                                 |
\*---------------------------------------------------------------------------*/
FoamFile
{
    version     2.0;
    format      ascii;
    arch        "LSB;label=32;scalar=64";
    class       volSymmTensorField;
    location    "0.5";
    object      sigma;
}
// * * * * * * * * * * * * * * * * * * * * * * * * * * * * * * * * * * * * * //

dimensions      [1 -1 -2 0 0 0 0];

internalField   nonuniform List<symmTensor> 
1620
(
(-5632.87 -15302.6 -1729.03 -1887.6 1332.83 -20169.6)
(13632.2 -14092.6 3265.96 15832.6 -4435.42 1974.73)
(26936.3 -12266.6 6615.12 25461.2 -6939.81 19773.8)
(35028.6 -10565.7 8765.95 30423.3 -7441.97 31679.3)
(38480.8 -9162.44 10257.3 31624.4 -7267.17 37822.6)
(38639.1 -8049.82 11348.3 30206.2 -6927.24 39688.5)
(36781.4 -7179.81 12135.1 27258.3 -6573.68 38767.8)
(33826.9 -6510.95 12671.4 23582.7 -6267.63 36199.1)
(30329.4 -6021.8 13018.9 19655.9 -6050.06 32736.4)
(26501.7 -5708.89 13244.2 15632.8 -5947.86 28736.6)
(22180.3 -5585.56 13398.6 11306.4 -5976.49 24109)
(16772.6 -5685.63 13504.4 6053.8 -6150.01 18267.5)
(9313.81 -6072.13 13554.1 -1107.75 -6493.14 10181.3)
(-1123.41 -6855.39 13511.2 -11109.7 -7045.75 -1259.14)
(-14311.6 -8206.4 13282.5 -23697.1 -7837.68 -16205.6)
(-27117.3 -10262.2 12609.4 -35482.4 -8775.5 -32030.3)
(-33366 -12764.8 10885.2 -39127.7 -9252.65 -42494.4)
(-25200.5 -14801.6 7211.04 -25524.5 -7293.14 -38355.5)
(-5632.88 -15302.6 1729.03 -1887.6 -1332.82 -20169.6)
(13632.2 -14092.6 -3265.96 15832.6 4435.42 1974.73)
(26936.3 -12266.6 -6615.12 25461.2 6939.81 19773.8)
(35028.6 -10565.7 -8765.95 30423.3 7441.97 31679.3)
(38480.8 -9162.44 -10257.3 31624.4 7267.17 37822.6)
(38639.1 -8049.82 -11348.3 30206.2 6927.24 39688.5)
(36781.4 -7179.81 -12135.1 27258.3 6573.68 38767.8)
(33826.9 -6510.95 -12671.4 23582.7 6267.63 36199.1)
(30329.4 -6021.8 -13018.9 19655.9 6050.06 32736.4)
(26501.7 -5708.89 -13244.2 15632.8 5947.86 28736.6)
(22180.3 -5585.56 -13398.6 11306.4 5976.49 24109)
(16772.6 -5685.63 -13504.4 6053.8 6150.01 18267.5)
(9313.81 -6072.13 -13554.1 -1107.75 6493.14 10181.3)
(-1123.41 -6855.39 -13511.2 -11109.7 7045.75 -1259.14)
(-14311.6 -8206.4 -13282.5 -23697.1 7837.68 -16205.6)
(-27117.3 -10262.2 -12609.4 -35482.4 8775.5 -32030.3)
(-33366 -12764.8 -10885.2 -39127.7 9252.65 -42494.4)
(-25200.5 -14801.6 -7211.04 -25524.5 7293.14 -38355.5)
(-28018.5 -2619.48 -259.937 -360.875 -3812.55 -28949.7)
(-18135.8 -2366.46 233.18 4207.77 -11023.9 -13541.9)
(-7866.29 -2234.12 470.995 8418.74 -13642.3 3436.94)
(568.153 -2100.25 585.56 12331 -13811 17246.4)
(6303.02 -1928.94 694.982 15060 -13226.5 26806.2)
(9658.89 -1731.64 856.558 16480.9 -12584.1 32726.7)
(11170.9 -1528.08 1071.61 16792.8 -12096.2 35781.1)
(11187.5 -1338.63 1317.14 16146.7 -11810.1 36509.7)
(9856.94 -1184.72 1571.79 14581.3 -11725.5 35252.8)
(7178.92 -1088.43 1821.94 12036.9 -11831.9 32185.5)
(3043.3 -1071.47 2054.87 8378.46 -12121.6 27313.2)
(-2741.22 -1155.46 2254.56 3429.38 -12597.5 20466.2)
(-10370.4 -1365.78 2405.06 -2932.73 -13266.1 11348.1)
(-19781.4 -1732.99 2490.69 -10487.1 -14095.4 -235.375)
(-30078.6 -2261.41 2477.69 -18061 -14897.1 -13823.7)
(-38920.9 -2826.95 2282.06 -22855.5 -15041.5 -27555.8)
(-42541.6 -3128.03 1796.09 -20754.6 -12921.5 -37569.8)
(-37080.2 -2985.48 1032.6 -9725.19 -6205.41 -37762.1)
(-28018.5 -2619.48 259.937 -360.876 3812.55 -28949.7)
(-18135.8 -2366.46 -233.18 4207.77 11023.9 -13541.9)
(-7866.29 -2234.12 -470.995 8418.74 13642.3 3436.94)
(568.153 -2100.25 -585.56 12331 13811 17246.4)
(6303.02 -1928.94 -694.982 15060 13226.5 26806.2)
(9658.89 -1731.64 -856.558 16480.9 12584.1 32726.7)
(11170.9 -1528.08 -1071.61 16792.8 12096.2 35781.1)
(11187.5 -1338.63 -1317.14 16146.7 11810.1 36509.7)
(9856.94 -1184.72 -1571.79 14581.3 11725.5 35252.8)
(7178.92 -1088.43 -1821.94 12036.9 11831.9 32185.5)
(3043.3 -1071.47 -2054.87 8378.46 12121.6 27313.2)
(-2741.22 -1155.46 -2254.56 3429.38 12597.5 20466.2)
(-10370.4 -1365.78 -2405.06 -2932.73 13266.1 11348.1)
(-19781.4 -1732.99 -2490.69 -10487.1 14095.4 -235.375)
(-30078.6 -2261.41 -2477.69 -18061 14897.1 -13823.7)
(-38920.9 -2826.95 -2282.06 -22855.5 15041.5 -27555.8)
(-42541.6 -3128.03 -1796.09 -20754.6 12921.5 -37569.8)
(-37080.2 -2985.48 -1032.6 -9725.19 6205.41 -37762.1)
(-24168.7 14223.6 -4343.9 -17345.1 -4669.5 -34993.9)
(-24690.2 12579.4 -8277.3 -21534.9 -8361.23 -31440.3)
(-21620.4 10493.5 -10889.8 -22114.3 -9467.8 -24074.9)
(-14942.9 8747.84 -12469.1 -18160.2 -9288.92 -14203.5)
(-6631.74 7554.51 -13424.6 -11749.4 -8800.2 -3787.94)
(1515.54 6871.56 -13991.8 -4904.33 -8410.49 5676.15)
(8219.54 6601.4 -14262.3 990.095 -8236.91 13131)
(12627.3 6638.6 -14260.9 5067.35 -8273.4 17852)
(14228 6875.77 -14006.1 6817.57 -8461.47 19414.5)
(12793.8 7218.55 -13540.4 5971.93 -8731.17 17657)
(8368.7 7610.81 -12926.7 2489.06 -9032.15 12658.2)
(1321.92 8048.21 -12213.4 -3341.98 -9343.05 4764.91)
(-7520.71 8568.61 -11399.1 -10720.6 -9646.46 -5294.75)
(-16708.1 9242.75 -10418.4 -18161 -9874.34 -16249)
(-24228.5 10187.9 -9127.86 -23559.2 -9816.83 -26317.4)
(-28190.3 11533.5 -7257.72 -24876.5 -8953.1 -33732.4)
(-28019.9 13175 -4398.18 -21718.1 -6307.35 -37461.1)
(-25621.3 14408.2 -319.994 -17478.2 -1206.6 -37582.7)
(-24168.7 14223.6 4343.9 -17345.1 4669.5 -34993.9)
(-24690.2 12579.4 8277.3 -21534.9 8361.23 -31440.3)
(-21620.4 10493.5 10889.8 -22114.3 9467.8 -24074.9)
(-14942.9 8747.84 12469.1 -18160.2 9288.92 -14203.5)
(-6631.74 7554.51 13424.6 -11749.4 8800.2 -3787.94)
(1515.54 6871.56 13991.8 -4904.33 8410.49 5676.15)
(8219.54 6601.4 14262.3 990.095 8236.91 13131)
(12627.3 6638.6 14260.9 5067.35 8273.4 17852)
(14228 6875.77 14006.1 6817.58 8461.47 19414.5)
(12793.8 7218.55 13540.4 5971.93 8731.17 17657)
(8368.7 7610.81 12926.7 2489.06 9032.15 12658.2)
(1321.92 8048.21 12213.4 -3341.98 9343.05 4764.91)
(-7520.71 8568.61 11399.1 -10720.6 9646.46 -5294.75)
(-16708.1 9242.75 10418.4 -18161 9874.34 -16249)
(-24228.5 10187.9 9127.86 -23559.2 9816.83 -26317.4)
(-28190.3 11533.5 7257.72 -24876.5 8953.1 -33732.4)
(-28019.9 13175 4398.18 -21718.1 6307.35 -37461.1)
(-25621.3 14408.2 319.994 -17478.2 1206.6 -37582.7)
(17463.6 -14859.2 -1673.77 21483.1 1350.47 2698.24)
(22245.8 -12654.6 6077.4 20411.4 -6894.67 12148.6)
(25823.1 -9979.87 9265.71 18628.6 -7340.69 21027.4)
(27105.4 -8157.4 10730.9 17214.7 -6309.15 25593.3)
(26576.1 -6860.99 11733.3 15074.7 -5395.53 27065.9)
(24980 -5829.42 12574.9 12324.6 -4720.39 26573.8)
(22880.3 -4961.55 13250.9 9373.9 -4189.43 24910.1)
(20813.2 -4229.88 13740.1 6713.26 -3757.92 22821.9)
(19202.6 -3626.13 14068.6 4723.98 -3424 20919.6)
(18280.6 -3147.08 14287.7 3594.77 -3190.69 19572.5)
(18047.5 -2798.31 14443.4 3288.6 -3053.2 18867.4)
(18265 -2601.99 14564.6 3527.43 -3005 18607.7)
(18487.8 -2603.79 14665.4 3799.29 -3050.77 18334)
(18174.2 -2888.21 14751.4 3428.52 -3221.61 17381.7)
(17044.5 -3604.67 14803.2 1866.44 -3594.92 15137.7)
(15749.5 -4945.34 14718.1 -490.487 -4373.16 11828.7)
(15529.6 -7154.14 14179.5 -787.297 -6222.87 9380.64)
(14659.6 -11408.7 11223.1 6708.31 -9393.62 5973.83)
(17463.6 -14859.2 1673.77 21483.1 -1350.47 2698.24)
(22245.8 -12654.6 -6077.4 20411.4 6894.67 12148.6)
(25823.1 -9979.87 -9265.71 18628.6 7340.69 21027.4)
(27105.4 -8157.4 -10730.9 17214.7 6309.15 25593.3)
(26576.1 -6860.99 -11733.3 15074.7 5395.53 27065.9)
(24980 -5829.42 -12574.9 12324.6 4720.39 26573.8)
(22880.3 -4961.55 -13250.9 9373.9 4189.43 24910.1)
(20813.2 -4229.88 -13740.1 6713.26 3757.92 22821.9)
(19202.6 -3626.13 -14068.6 4723.98 3424 20919.6)
(18280.6 -3147.08 -14287.7 3594.77 3190.69 19572.5)
(18047.5 -2798.31 -14443.4 3288.6 3053.2 18867.4)
(18265 -2601.99 -14564.6 3527.43 3005 18607.7)
(18487.8 -2603.79 -14665.4 3799.29 3050.77 18334)
(18174.2 -2888.21 -14751.4 3428.52 3221.61 17381.7)
(17044.5 -3604.67 -14803.2 1866.44 3594.92 15137.7)
(15749.5 -4945.34 -14718.1 -490.487 4373.16 11828.7)
(15529.6 -7154.14 -14179.5 -787.297 6222.87 9380.64)
(14659.6 -11408.7 -11223.1 6708.31 9393.62 5973.83)
(-14339 -2665.97 273.179 10116.2 -7426.52 -14843.2)
(-11353.6 -2124.14 1018.56 2051.45 -14146.1 470.846)
(-7745.6 -1963.28 1143.04 -636.247 -12831.3 12401)
(-6329.17 -1946.86 1156.27 -2155.38 -10786.4 18425.5)
(-5203.99 -1903.04 1254.88 -2655.09 -9252.11 22301.9)
(-4146.04 -1762 1471.36 -2650.75 -8230.32 24973.9)
(-3326.4 -1538.49 1757.91 -2525.18 -7592.37 26553.1)
(-2858.38 -1281.22 2064.72 -2458.93 -7246.87 27119.1)
(-2755.43 -1035.46 2365.58 -2504.69 -7135.57 26850.5)
(-2975.5 -835.615 2650.95 -2649.92 -7216.52 25974.5)
(-3431.3 -710.77 2913.83 -2828.21 -7463.22 24723.2)
(-3977.92 -691.954 3143.87 -2908.34 -7875.11 23308)
(-4436.52 -818.691 3328.52 -2719.17 -8489.02 21864.6)
(-4686.8 -1140.7 3450.09 -2139.07 -9386.64 20315.9)
(-4791.63 -1692.7 3469.08 -1166.66 -10700.7 18161.6)
(-5168.04 -2396.02 3292.67 305.712 -12590 14183.1)
(-7878.84 -2992.84 2758.54 2656.95 -14585.5 4775.51)
(-12235.7 -3202.84 1485.38 10243.3 -10425.5 -11254.5)
(-14339 -2665.97 -273.179 10116.2 7426.52 -14843.2)
(-11353.6 -2124.14 -1018.56 2051.45 14146.1 470.846)
(-7745.6 -1963.28 -1143.04 -636.247 12831.3 12401)
(-6329.17 -1946.86 -1156.27 -2155.38 10786.4 18425.5)
(-5203.99 -1903.04 -1254.88 -2655.09 9252.11 22301.9)
(-4146.04 -1762 -1471.36 -2650.75 8230.32 24973.9)
(-3326.4 -1538.49 -1757.91 -2525.18 7592.37 26553.1)
(-2858.38 -1281.22 -2064.72 -2458.93 7246.87 27119.1)
(-2755.43 -1035.46 -2365.58 -2504.69 7135.57 26850.5)
(-2975.5 -835.615 -2650.95 -2649.92 7216.52 25974.5)
(-3431.3 -710.77 -2913.83 -2828.21 7463.22 24723.2)
(-3977.92 -691.954 -3143.87 -2908.34 7875.11 23308)
(-4436.52 -818.691 -3328.52 -2719.17 8489.02 21864.6)
(-4686.8 -1140.7 -3450.09 -2139.07 9386.64 20315.9)
(-4791.63 -1692.7 -3469.08 -1166.66 10700.7 18161.6)
(-5168.04 -2396.01 -3292.67 305.712 12590 14183.1)
(-7878.84 -2992.84 -2758.54 2656.95 14585.5 4775.51)
(-12235.7 -3202.84 -1485.38 10243.3 10425.5 -11254.5)
(-17686.2 13984 -7656.99 -15792.1 -8485.81 -27915.9)
(-19393.6 9870.86 -13098.6 -24385.3 -10069.1 -20241.3)
(-21209.7 6599.3 -15024.1 -28812.2 -8233.48 -16567.9)
(-20619.7 4548.97 -15691.3 -29329.3 -6576.9 -13466.6)
(-16451.3 3339.32 -15991.1 -26020.4 -5490.61 -8275.94)
(-10303 2750.33 -16187.3 -20751.7 -4893.61 -1812.88)
(-4155.88 2660.16 -16313.3 -15410.5 -4697.26 4314.68)
(639.993 2960.55 -16307.8 -11143.2 -4833.22 8922.3)
(3402.94 3521.82 -16092.4 -8441.35 -5218.7 11406.9)
(3974.66 4191.99 -15630.9 -7370.59 -5745.23 11659.5)
(2634.72 4829.77 -14960.7 -7708.17 -6308.1 9981.66)
(33.5357 5355.63 -14175.1 -8988.36 -6854.84 6988.02)
(-2962.14 5784.26 -13365.7 -10560.9 -7409.45 3414.9)
(-5576.17 6236.45 -12570.1 -11796.1 -8053.09 -226.718)
(-7593.92 6983.95 -11726 -12425.5 -8867.91 -4184)
(-9732.47 8522.04 -10515.6 -12561 -9735.38 -9930.15)
(-13918.6 11400.5 -7870.05 -12594.9 -9284.79 -20458)
(-16891 14723.9 -1502.51 -10378.6 -2364.56 -30725.6)
(-17686.2 13984 7656.99 -15792.1 8485.81 -27915.9)
(-19393.6 9870.86 13098.6 -24385.3 10069.1 -20241.3)
(-21209.7 6599.3 15024.1 -28812.2 8233.48 -16567.9)
(-20619.7 4548.97 15691.3 -29329.3 6576.9 -13466.6)
(-16451.3 3339.32 15991.1 -26020.4 5490.61 -8275.94)
(-10303 2750.33 16187.3 -20751.7 4893.61 -1812.88)
(-4155.88 2660.16 16313.3 -15410.5 4697.26 4314.68)
(639.993 2960.55 16307.8 -11143.2 4833.22 8922.3)
(3402.94 3521.82 16092.4 -8441.35 5218.7 11406.9)
(3974.66 4191.99 15630.9 -7370.59 5745.23 11659.5)
(2634.72 4829.77 14960.7 -7708.17 6308.1 9981.66)
(33.5358 5355.63 14175.1 -8988.36 6854.84 6988.02)
(-2962.14 5784.26 13365.7 -10560.9 7409.45 3414.9)
(-5576.17 6236.45 12570.1 -11796.1 8053.09 -226.718)
(-7593.92 6983.95 11726 -12425.5 8867.91 -4184)
(-9732.47 8522.04 10515.6 -12561 9735.38 -9930.15)
(-13918.6 11400.5 7870.05 -12594.9 9284.79 -20458)
(-16891 14723.9 1502.51 -10378.6 2364.56 -30725.6)
(9437.45 -8595.91 6783.85 16469.7 -11955.5 11495)
(22133.7 -6788.34 11678.3 12631.3 -7095.79 22419.6)
(27238 -5012.58 12174.7 15100.5 -4658.04 28442.7)
(28303.1 -4227.16 12220.9 15522.6 -3416.33 31137.1)
(28064.1 -3722.12 12500.9 14746.6 -2684 32411.4)
(27154.1 -3141.97 13063.9 13121.2 -2166.74 32313.9)
(25935.5 -2450.55 13695.7 11190 -1724.41 31129.6)
(24784.1 -1735.67 14225.2 9480.07 -1319.74 29460.8)
(24040.4 -1059.01 14597 8358.96 -954.106 27884.3)
(23883.4 -436.887 14819.1 7984.09 -625.9 26742)
(24254 133.653 14915.5 8276.39 -317.816 26085.4)
(24831.6 655.192 14910.9 8892.47 4.32318 25674)
(25035.7 1127.03 14830.4 9184.39 390.129 24959.9)
(24080.8 1552.28 14689 8186.37 905.468 23056.4)
(21330.2 1960.28 14437.7 4868.31 1655.91 18933.8)
(17087.3 2567.11 13899.8 -945.425 2867.38 12343)
(11521.9 4244.18 12995.9 -6798.78 5119.41 5568.8)
(3372.95 5308.62 9574.79 -1377.72 10060.9 10551.1)
(9437.45 -8595.91 -6783.85 16469.7 11955.5 11495)
(22133.7 -6788.34 -11678.3 12631.3 7095.79 22419.6)
(27238 -5012.58 -12174.7 15100.5 4658.04 28442.7)
(28303.1 -4227.16 -12220.9 15522.6 3416.33 31137.1)
(28064.1 -3722.12 -12500.9 14746.6 2684 32411.4)
(27154.1 -3141.97 -13063.9 13121.2 2166.74 32313.9)
(25935.5 -2450.55 -13695.7 11190 1724.41 31129.6)
(24784.1 -1735.67 -14225.2 9480.07 1319.74 29460.8)
(24040.4 -1059.01 -14597 8358.96 954.106 27884.3)
(23883.4 -436.887 -14819.1 7984.09 625.9 26742)
(24254 133.653 -14915.5 8276.39 317.816 26085.4)
(24831.6 655.192 -14910.9 8892.47 -4.3232 25674)
(25035.7 1127.03 -14830.4 9184.39 -390.129 24959.9)
(24080.8 1552.28 -14689 8186.37 -905.468 23056.4)
(21330.2 1960.28 -14437.7 4868.31 -1655.91 18933.8)
(17087.3 2567.11 -13899.8 -945.425 -2867.38 12343)
(11521.9 4244.18 -12995.9 -6798.78 -5119.41 5568.8)
(3372.95 5308.62 -9574.79 -1377.72 -10060.9 10551.1)
(-24835.1 -618.503 1682.86 -24812.3 -8955.68 -3531.26)
(-14820.7 -540.038 1939.19 -16281.4 -3925.52 11032.8)
(-8688.75 -782.326 1492.17 -9676.37 -2555.51 19502.1)
(-6536.1 -1148.73 1123.48 -7257.41 -1916.98 23767)
(-5008.42 -1425.1 1037.62 -5828.33 -1558.85 27052.6)
(-3679.46 -1448.23 1241.16 -4875.78 -1337.22 29400.2)
(-2660.23 -1234.13 1595.92 -4268.88 -1214.87 30629.4)
(-2031.13 -898.849 1984.9 -3922.5 -1188.14 30843.8)
(-1803.09 -542.4 2353.43 -3806.06 -1239.67 30261.3)
(-1967.82 -219.984 2682.27 -3926.5 -1333.97 29089.1)
(-2494.11 38.9038 2966.83 -4275.32 -1428.45 27511.5)
(-3287.44 205.451 3207.53 -4785.78 -1479.33 25718.3)
(-4189.39 239.434 3397.91 -5369.85 -1444.23 23896.1)
(-5108.16 101.53 3506.53 -6104.8 -1295.51 22079.1)
(-6263.73 -209.719 3461.94 -7515.77 -1044.41 19858.6)
(-8560.69 -583.858 3170.95 -10890.5 -775.259 16046.7)
(-14286.8 -703.837 2722.9 -18357.2 -793.562 8591.42)
(-24329.9 -529.436 2045.31 -28331 -3559.78 -1662.53)
(-24835.1 -618.503 -1682.86 -24812.3 8955.68 -3531.26)
(-14820.7 -540.038 -1939.19 -16281.4 3925.52 11032.8)
(-8688.75 -782.326 -1492.17 -9676.37 2555.51 19502.1)
(-6536.1 -1148.73 -1123.48 -7257.41 1916.98 23767)
(-5008.42 -1425.1 -1037.62 -5828.33 1558.85 27052.6)
(-3679.46 -1448.23 -1241.16 -4875.78 1337.22 29400.2)
(-2660.23 -1234.13 -1595.92 -4268.88 1214.87 30629.4)
(-2031.13 -898.849 -1984.9 -3922.5 1188.14 30843.8)
(-1803.09 -542.4 -2353.43 -3806.06 1239.67 30261.3)
(-1967.82 -219.984 -2682.27 -3926.5 1333.97 29089.1)
(-2494.11 38.9038 -2966.83 -4275.32 1428.45 27511.5)
(-3287.44 205.451 -3207.53 -4785.78 1479.33 25718.3)
(-4189.39 239.434 -3397.91 -5369.85 1444.23 23896.1)
(-5108.16 101.53 -3506.53 -6104.8 1295.51 22079.1)
(-6263.73 -209.719 -3461.94 -7515.77 1044.41 19858.6)
(-8560.69 -583.858 -3170.95 -10890.5 775.259 16046.7)
(-14286.8 -703.837 -2722.9 -18357.2 793.562 8591.42)
(-24329.9 -529.436 -2045.31 -28331 3559.78 -1662.53)
(-34805.1 -1573.41 -12440.5 -45596.1 3451.75 -22487.7)
(-28691.7 -1511.98 -16255.5 -41892.3 2306.17 -20938.4)
(-28788.1 -1427.03 -17059.6 -40877.9 1491.1 -19442.2)
(-27234.3 -1786.41 -17310.2 -38641.1 1165.05 -16835.3)
(-22333.4 -2202.94 -17355 -33832.2 988.777 -11783.1)
(-15526.7 -2370.36 -17392.5 -27830.5 829.434 -5451.2)
(-8971.14 -2132.68 -17496.2 -22428.8 575.056 401.349)
(-4078.53 -1488.05 -17584 -18585.5 133.424 4636.4)
(-1540.52 -544.719 -17500 -16595.5 -507.877 6692.77)
(-1513.18 504.027 -17115.1 -16358.9 -1258.26 6465.25)
(-3659.71 1414.66 -16400.7 -17517.6 -1955.36 4294.6)
(-7175.34 1971.37 -15466.7 -19551.1 -2444.81 925.16)
(-10972.9 2097.95 -14539.3 -21905.2 -2680.66 -2712.22)
(-14133.7 1928.64 -13864.6 -24204.1 -2779.89 -5939.42)
(-16501.9 1764.77 -13601.8 -26591.2 -2987.18 -8870.23)
(-18591.6 2040.57 -13769.8 -29588 -3679.12 -12288.2)
(-24004 3669.71 -13828.1 -35635.6 -5805.08 -19755.1)
(-35524 7999.16 -8923.17 -34889.5 -11946.5 -33448.2)
(-34805.1 -1573.41 12440.5 -45596.1 -3451.75 -22487.7)
(-28691.7 -1511.98 16255.5 -41892.3 -2306.17 -20938.4)
(-28788.1 -1427.03 17059.6 -40877.9 -1491.1 -19442.2)
(-27234.3 -1786.41 17310.2 -38641.1 -1165.05 -16835.3)
(-22333.4 -2202.94 17355 -33832.2 -988.777 -11783.1)
(-15526.7 -2370.36 17392.5 -27830.5 -829.434 -5451.2)
(-8971.14 -2132.68 17496.2 -22428.8 -575.056 401.349)
(-4078.53 -1488.05 17584 -18585.5 -133.424 4636.4)
(-1540.52 -544.719 17500 -16595.5 507.877 6692.77)
(-1513.18 504.027 17115.1 -16358.9 1258.26 6465.25)
(-3659.71 1414.66 16400.7 -17517.6 1955.36 4294.6)
(-7175.34 1971.37 15466.7 -19551.1 2444.81 925.161)
(-10972.9 2097.95 14539.3 -21905.2 2680.66 -2712.22)
(-14133.7 1928.64 13864.6 -24204.1 2779.89 -5939.42)
(-16501.9 1764.77 13601.8 -26591.2 2987.18 -8870.23)
(-18591.6 2040.57 13769.8 -29588 3679.12 -12288.2)
(-24004 3669.71 13828.1 -35635.6 5805.08 -19755.1)
(-35524 7999.16 8923.17 -34889.5 11946.5 -33448.2)
(12213.1 8185.83 10904.6 6038.82 8623.25 9861.82)
(21082.6 3175.25 12888.2 8766.49 3916.75 22308.4)
(24888.9 1140.25 12692.7 11972.8 1886.97 27123.9)
(26127.5 -31.7062 12339 13324.8 1005.87 30235.4)
(26102.7 -652.654 12340.3 13059.5 665.748 32141.4)
(25572.3 -635.626 12776.7 11807.1 682.337 32549.5)
(24923.2 -138.305 13410.5 10313.3 894.648 31720.8)
(24416.7 572.197 13999.1 9114.47 1195.3 30326.3)
(24287.6 1338.55 14420.2 8503.78 1536.53 28935)
(24660.1 2121.6 14629.1 8590.23 1907.63 27831.3)
(25450.8 2934.95 14610.2 9297.81 2322.83 27014.6)
(26323.1 3800.71 14366.2 10320.3 2823.73 26222.5)
(26673.7 4744.16 13917.5 11045.4 3483 24896)
(25673.2 5818.02 13257 10538.9 4390.11 22080.2)
(22603.2 7138.1 12214.7 7925.43 5615.29 16530.3)
(17416.2 8982.73 10269.8 3457.2 7080.82 7246.22)
(10382.3 11893.5 6543.57 934.178 7531.48 -5196.21)
(7436.49 14088.5 -1341.96 10093 -585.829 -8861.23)
(12213.1 8185.83 -10904.6 6038.82 -8623.25 9861.82)
(21082.6 3175.25 -12888.2 8766.49 -3916.75 22308.4)
(24888.9 1140.25 -12692.7 11972.8 -1886.97 27123.9)
(26127.5 -31.7062 -12339 13324.8 -1005.87 30235.4)
(26102.7 -652.654 -12340.3 13059.5 -665.748 32141.4)
(25572.3 -635.626 -12776.7 11807.1 -682.337 32549.5)
(24923.2 -138.305 -13410.5 10313.3 -894.648 31720.8)
(24416.7 572.197 -13999.1 9114.47 -1195.3 30326.3)
(24287.6 1338.55 -14420.2 8503.78 -1536.53 28935)
(24660.1 2121.6 -14629.1 8590.23 -1907.63 27831.3)
(25450.8 2934.95 -14610.2 9297.81 -2322.83 27014.6)
(26323.1 3800.71 -14366.2 10320.3 -2823.73 26222.5)
(26673.7 4744.16 -13917.5 11045.4 -3483 24896)
(25673.2 5818.02 -13257 10538.9 -4390.11 22080.2)
(22603.2 7138.1 -12214.7 7925.43 -5615.29 16530.3)
(17416.2 8982.73 -10269.8 3457.2 -7080.82 7246.22)
(10382.3 11893.5 -6543.57 934.178 -7531.48 -5196.21)
(7436.49 14088.5 1341.96 10093 585.829 -8861.23)
(-22130.5 2578.09 1364 -1823.65 11378.6 -19235.2)
(-13568.2 1418.13 2006.66 -5587.06 13226.9 3421.96)
(-8066.22 401.111 1732.29 -4514.05 10097 15251.9)
(-5465.38 -486.276 1267.62 -3557.91 7795.23 21639.2)
(-3511.59 -1137.18 1041.67 -2655.22 6351.99 26416)
(-2025.73 -1336.13 1172.55 -2181.11 5518.96 29566.7)
(-1026.63 -1117.42 1502.43 -2050.59 5040.44 31075.6)
(-453.849 -681.599 1871.05 -2061.06 4729.99 31350.5)
(-237.952 -189.84 2204.01 -2135.8 4513.5 30775.1)
(-363.87 284.282 2478.6 -2302.85 4396.23 29553.3)
(-857.302 714.848 2698.05 -2599.89 4432.84 27766.7)
(-1720.52 1072.25 2878.75 -3001.97 4728.12 25482.7)
(-2858.99 1303.32 3021 -3413.99 5431.44 22849.3)
(-4085.83 1374.34 3066.54 -3724.51 6678.15 20027.8)
(-5281.02 1328.74 2889.55 -3822.92 8546.39 16806.8)
(-6824.38 1295.01 2338.93 -3588.75 11095 11830.3)
(-10917.9 1579.42 1454.35 -2754.69 13744.7 802.785)
(-19920.6 2546.47 423.099 1584.83 8934.68 -20819.3)
(-22130.5 2578.09 -1364 -1823.65 -11378.6 -19235.2)
(-13568.2 1418.13 -2006.66 -5587.06 -13226.9 3421.96)
(-8066.22 401.111 -1732.29 -4514.05 -10097 15251.9)
(-5465.38 -486.276 -1267.62 -3557.91 -7795.23 21639.2)
(-3511.59 -1137.18 -1041.67 -2655.22 -6351.99 26416)
(-2025.73 -1336.13 -1172.55 -2181.11 -5518.96 29566.7)
(-1026.63 -1117.42 -1502.43 -2050.59 -5040.44 31075.6)
(-453.849 -681.599 -1871.05 -2061.06 -4729.99 31350.5)
(-237.952 -189.84 -2204.01 -2135.8 -4513.5 30775.1)
(-363.87 284.282 -2478.6 -2302.85 -4396.23 29553.3)
(-857.302 714.848 -2698.05 -2599.89 -4432.84 27766.7)
(-1720.52 1072.25 -2878.75 -3001.97 -4728.12 25482.7)
(-2858.99 1303.32 -3021 -3413.99 -5431.44 22849.3)
(-4085.83 1374.34 -3066.54 -3724.51 -6678.15 20027.8)
(-5281.02 1328.74 -2889.55 -3822.92 -8546.39 16806.8)
(-6824.38 1295.01 -2338.93 -3588.75 -11095 11830.3)
(-10917.9 1579.42 -1454.35 -2754.69 -13744.7 802.786)
(-19920.6 2546.47 -423.099 1584.83 -8934.68 -20819.3)
(-22552.8 -14348.7 -2091.94 -14874.3 3139.02 -35211.2)
(-23860.4 -11452.5 -10213.7 -23606.9 10384.1 -27269.8)
(-24950.2 -9086.67 -13762.9 -29678 9784.81 -21830.7)
(-24656.1 -8118.09 -15545.6 -31643.7 8254.54 -18129.2)
(-20613.5 -7928.39 -16430.3 -29244.8 6978.69 -12630.9)
(-14253.3 -7786.44 -16869.4 -24870.2 6096.3 -6267.68)
(-7965.17 -7253.72 -17220.3 -20828.7 5458.17 -690.37)
(-3324.75 -6253.93 -17546.8 -18210.7 4822.73 3168.68)
(-1092.22 -4905.59 -17702.1 -17300.3 4056.91 4873.24)
(-1470.89 -3440.9 -17494.4 -17945.4 3204.35 4323.26)
(-4142.14 -2192.1 -16799.7 -19685.7 2472.81 1825.41)
(-8221.28 -1537.53 -15674.7 -21892.4 2164.62 -1856.03)
(-12355.4 -1703.02 -14448.2 -23963.2 2495.72 -5629.62)
(-15226.6 -2561.2 -13570.7 -25394.2 3413.24 -8503.74)
(-16249.7 -3840.78 -13262.9 -25811 4748.23 -10180.3)
(-15525.8 -5596.38 -13434.8 -24958.5 6581.76 -11207.8)
(-14406.6 -8333.91 -13361.1 -22786.7 9125.75 -13998.5)
(-18153.8 -12475.1 -9153.82 -18408.2 9726.66 -26029)
(-22552.8 -14348.7 2091.94 -14874.3 -3139.02 -35211.2)
(-23860.4 -11452.5 10213.7 -23606.9 -10384.1 -27269.8)
(-24950.2 -9086.67 13762.9 -29678 -9784.81 -21830.7)
(-24656.1 -8118.09 15545.6 -31643.7 -8254.54 -18129.2)
(-20613.5 -7928.39 16430.3 -29244.8 -6978.69 -12630.9)
(-14253.3 -7786.44 16869.4 -24870.2 -6096.3 -6267.68)
(-7965.17 -7253.72 17220.3 -20828.7 -5458.17 -690.37)
(-3324.75 -6253.93 17546.8 -18210.7 -4822.73 3168.68)
(-1092.22 -4905.59 17702.1 -17300.3 -4056.91 4873.24)
(-1470.89 -3440.9 17494.4 -17945.4 -3204.35 4323.26)
(-4142.14 -2192.1 16799.7 -19685.7 -2472.81 1825.41)
(-8221.28 -1537.53 15674.7 -21892.4 -2164.62 -1856.03)
(-12355.4 -1703.02 14448.2 -23963.2 -2495.72 -5629.62)
(-15226.6 -2561.2 13570.7 -25394.2 -3413.24 -8503.74)
(-16249.7 -3840.78 13262.9 -25811 -4748.23 -10180.3)
(-15525.8 -5596.38 13434.8 -24958.5 -6581.76 -11207.8)
(-14406.6 -8333.91 13361.1 -22786.7 -9125.75 -13998.5)
(-18153.8 -12475.1 9153.82 -18408.2 -9726.66 -26029)
(8789.85 11751.8 7325.66 5398.7 6286.82 -3445.76)
(14153.9 8398.09 10228.9 6919.14 7086.88 8113.52)
(19409.5 5464.62 11273.3 10016.1 5680.01 17799.7)
(21769 3220.03 11493 11424.9 4226.53 23960.4)
(22348.7 1819.47 11632.7 11152.1 3374.3 27637.1)
(22202 1408.01 12023.1 9871.04 3108.5 28978.2)
(21973.3 1753.08 12601.8 8468.37 3166.76 28626.5)
(21944.9 2475.08 13167.2 7478.52 3371.29 27507)
(22273.2 3341.78 13564.9 7106.91 3651.58 26258.4)
(23025.4 4291.18 13702 7398.23 3984.16 25129.5)
(24091.3 5343.01 13513.7 8273.57 4366.8 24049.9)
(25103.9 6522.99 12964.1 9466.15 4820.68 22693.2)
(25405.7 7832.9 12064.8 10403.9 5389.55 20480.1)
(24142.9 9260.13 10830.7 10224.7 6085.49 16554.1)
(20690 10781.3 9127.15 8298.16 6752.86 10034.6)
(15508.2 12340.1 6559.45 5447.41 6810.39 1090.85)
(11371.2 13721.2 2731.21 5358.42 4787.62 -6537.82)
(9664.84 13953.2 -2324.17 7714.33 -827.726 -8093.85)
(8789.85 11751.8 -7325.66 5398.7 -6286.82 -3445.76)
(14153.9 8398.09 -10228.9 6919.14 -7086.88 8113.52)
(19409.5 5464.62 -11273.3 10016.1 -5680.01 17799.7)
(21769 3220.03 -11493 11424.9 -4226.53 23960.4)
(22348.7 1819.47 -11632.7 11152.1 -3374.3 27637.1)
(22202 1408.01 -12023.1 9871.04 -3108.5 28978.2)
(21973.3 1753.08 -12601.8 8468.37 -3166.76 28626.5)
(21944.9 2475.08 -13167.2 7478.52 -3371.29 27507)
(22273.2 3341.78 -13564.9 7106.91 -3651.58 26258.4)
(23025.4 4291.18 -13702 7398.23 -3984.16 25129.5)
(24091.3 5343.01 -13513.7 8273.57 -4366.8 24049.9)
(25103.9 6522.99 -12964.1 9466.15 -4820.68 22693.2)
(25405.7 7832.9 -12064.8 10403.9 -5389.55 20480.1)
(24142.9 9260.13 -10830.7 10224.7 -6085.49 16554.1)
(20690 10781.3 -9127.15 8298.16 -6752.86 10034.6)
(15508.2 12340.1 -6559.45 5447.41 -6810.39 1090.85)
(11371.2 13721.2 -2731.21 5358.42 -4787.62 -6537.82)
(9664.84 13953.2 2324.17 7714.33 827.726 -8093.84)
(-12673 2691.58 1081.92 12225 6198.48 -13381)
(-12721.3 2022.88 1623.79 5974.62 12546.9 -5892.34)
(-8842.82 991.987 1695.87 3783.57 13438.3 5362.09)
(-5217.51 -187.922 1450.24 3278.64 12188.2 14737)
(-2485.09 -1164.96 1259.88 3060.2 10739.2 21863)
(-612.814 -1546.61 1321.94 2571.05 9748.46 26481.3)
(557.284 -1336.98 1543.66 1944.99 9174.91 28818.8)
(1218.81 -805.2 1787.23 1411.29 8819.32 29569.1)
(1523.02 -166.593 1983.8 1043.15 8578.3 29276.7)
(1507.4 489.924 2114.28 800.231 8449.33 28144.2)
(1083.18 1139.54 2193.48 624.317 8505.26 26121.3)
(93.4316 1738.39 2262.75 504.963 8897.42 23084.2)
(-1539 2191.56 2341.99 496.55 9799.04 19075.9)
(-3610.47 2436.35 2355.28 803.79 11200.5 14395.4)
(-5648.97 2528.85 2148.02 1981.2 12742.8 9186.82)
(-7427.52 2575.86 1589.34 4736.09 13620.4 2810.59)
(-8806.06 2668.72 709.933 9763.4 11946.7 -5073.79)
(-10082.6 2821.9 -234.001 14848.1 4697.65 -12121.3)
(-12673 2691.58 -1081.92 12225 -6198.48 -13381)
(-12721.3 2022.88 -1623.79 5974.62 -12546.9 -5892.34)
(-8842.82 991.987 -1695.87 3783.57 -13438.3 5362.09)
(-5217.51 -187.922 -1450.24 3278.64 -12188.2 14737)
(-2485.09 -1164.96 -1259.88 3060.2 -10739.2 21863)
(-612.814 -1546.61 -1321.94 2571.05 -9748.46 26481.2)
(557.284 -1336.98 -1543.66 1944.99 -9174.91 28818.8)
(1218.81 -805.2 -1787.23 1411.29 -8819.32 29569.1)
(1523.02 -166.593 -1983.8 1043.15 -8578.3 29276.7)
(1507.4 489.924 -2114.28 800.231 -8449.33 28144.2)
(1083.18 1139.54 -2193.48 624.317 -8505.26 26121.3)
(93.4316 1738.39 -2262.75 504.963 -8897.42 23084.2)
(-1539 2191.56 -2341.99 496.55 -9799.04 19075.9)
(-3610.47 2436.35 -2355.28 803.79 -11200.5 14395.4)
(-5648.97 2528.85 -2148.02 1981.2 -12742.8 9186.82)
(-7427.52 2575.86 -1589.34 4736.09 -13620.4 2810.59)
(-8806.06 2668.72 -709.933 9763.4 -11946.7 -5073.79)
(-10082.6 2821.9 234.001 14848.1 -4697.65 -12121.3)
(-3906.54 -15325.4 -491.803 4321.72 1092.2 -16454.1)
(-9689.27 -14279.7 -5994.89 -3420.59 7328.99 -18432)
(-14374 -13029.6 -9864.85 -11901 9951.01 -18031.4)
(-15788.2 -12456.7 -12467.9 -16604.5 10175.2 -15265.5)
(-13208.2 -12551.5 -14057.6 -16980.8 9449.75 -10060.6)
(-7943.72 -12591.2 -14953 -15057.7 8706.02 -3997.04)
(-2361.13 -11988.6 -15623 -13030.4 8200.62 1187.59)
(1791.76 -10712.3 -16244.8 -12006.2 7726.41 4658.3)
(3644.53 -8986 -16691.8 -12319.4 7086.62 6057.44)
(2926.17 -7106.03 -16729.7 -13841.6 6287.41 5257.71)
(-127.532 -5468.88 -16141 -16067 5563.31 2436.03)
(-4678.9 -4582.83 -14894.7 -18268 5333.34 -1791.9)
(-9236.24 -4802.7 -13369.8 -19754.1 5920.38 -6291.23)
(-12122.8 -5962.15 -12149.5 -19820.9 7157.48 -9704.28)
(-12341.5 -7647.89 -11382.3 -17601.6 8557.69 -11305.1)
(-9872 -9775.26 -10687.8 -12492.7 9683.8 -11549.8)
(-5712.53 -12430.4 -9278.52 -4800.28 9620.14 -11919.1)
(-2671.55 -14791.2 -5533.93 2859.66 6154.17 -13973.9)
(-3906.54 -15325.4 491.803 4321.72 -1092.2 -16454.1)
(-9689.27 -14279.7 5994.89 -3420.59 -7328.99 -18432)
(-14374 -13029.6 9864.85 -11901 -9951.01 -18031.4)
(-15788.2 -12456.7 12467.9 -16604.5 -10175.2 -15265.5)
(-13208.2 -12551.5 14057.6 -16980.8 -9449.75 -10060.6)
(-7943.72 -12591.2 14953 -15057.7 -8706.02 -3997.04)
(-2361.13 -11988.6 15623 -13030.4 -8200.62 1187.59)
(1791.76 -10712.3 16244.8 -12006.2 -7726.41 4658.3)
(3644.53 -8986 16691.8 -12319.4 -7086.62 6057.44)
(2926.17 -7106.03 16729.7 -13841.6 -6287.41 5257.71)
(-127.532 -5468.88 16141 -16067 -5563.31 2436.03)
(-4678.9 -4582.83 14894.7 -18268 -5333.34 -1791.9)
(-9236.24 -4802.7 13369.8 -19754.1 -5920.38 -6291.23)
(-12122.8 -5962.15 12149.5 -19820.9 -7157.48 -9704.28)
(-12341.5 -7647.89 11382.3 -17601.6 -8557.69 -11305.1)
(-9872 -9775.26 10687.8 -12492.7 -9683.8 -11549.8)
(-5712.53 -12430.4 9278.52 -4800.28 -9620.14 -11919.1)
(-2671.55 -14791.2 5533.93 2859.66 -6154.17 -13973.9)
(7303.42 12336.5 5701.48 4860.79 4204.07 -6944.01)
(9833.76 10224.2 8168.62 5650.23 6188.93 -142.415)
(13817.4 7807.76 9671.96 7721.92 6356.46 8321.85)
(16682.8 5517.81 10395.1 9085.79 5700.14 15728.1)
(17973 3865.22 10753 8982.1 5133.91 20944.8)
(18318.9 3195.18 11108.9 7823.05 4935.02 23434.9)
(18466.8 3373.52 11559.9 6497.91 4955.7 23776)
(18804.1 4043.91 11997.8 5579.1 5072.29 23023.4)
(19471.1 4954.46 12274.7 5251.02 5243.37 21913.1)
(20489.3 6021.27 12265.9 5519.54 5446.64 20715.5)
(21716.2 7253 11865.9 6294.91 5660.84 19331)
(22744.8 8656 11006.7 7338.41 5877.49 17397.2)
(22868 10166.9 9714.07 8150.68 6105.39 14400.8)
(21283.5 11638.7 8097.72 8041.08 6307.74 9845.06)
(17671.6 12883.8 6188.99 6676.97 6261.94 3605.98)
(12962.3 13752.8 3815.2 4885.13 5455.95 -3346.72)
(9214.85 14110 838.988 4363.58 3230.31 -8520.47)
(7318.89 13704.6 -2506.07 4826.27 -478.662 -9896.25)
(7303.42 12336.5 -5701.48 4860.79 -4204.07 -6944.01)