/*--------------------------------*- C++ -*----------------------------------*\
| =========                 |                                                 |
| \\      /  F ield         | OpenFOAM: The Open Source CFD Toolbox           |
|  \\    /   O peration     | Version:  2312                                  |
|   \\  /    A nd           | Website:  www.openfoam.com                      |
|    \\/     M anipulation  |                                                 |
\*---------------------------------------------------------------------------*/
FoamFile
{
    version     2.0;
    format      ascii;
    arch        "LSB;label=32;scalar=64";
    class       volScalarField;
    location    "0.5";
    object      sigmaHyd;
}
// * * * * * * * * * * * * * * * * * * * * * * * * * * * * * * * * * * * * * //

dimensions      [1 -1 -2 0 0 0 0];

internalField   nonuniform List<scalar> 
1620
(
-19230
479.828
14057.1
22377.1
25975.9
26177.9
24269.2
21202.9
17573.9
13623.7
9198.6
3697.97
-3870.88
-14497.4
-28071.5
-41543.3
-48329.4
-39693.5
-19230
479.827
14057.1
22377.1
25975.9
26177.9
24269.2
21202.9
17573.9
13623.7
9198.6
3697.97
-3870.88
-14497.4
-28071.5
-41543.3
-48329.4
-39693.5
-29109.7
-19156.7
-8670.2
48.508
6056.39
9622.15
11248.3
11281.3
9897.01
7133.74
2911.66
-2948.54
-10651.7
-20168
-30654.4
-39777.4
-43622
-38189.2
-29109.7
-19156.7
-8670.2
48.5079
6056.39
9622.15
11248.3
11281.3
9897.01
7133.74
2911.66
-2948.54
-10651.7
-20168
-30654.4
-39777.4
-43622
-38189.2
-35502.6
-35888.5
-32603.2
-25768.8
-17389.7
-9237.54
-2553.12
1848.9
3486.69
2140.9
-2161.34
-9085.05
-17845.4
-27039.4
-34701.7
-38933.1
-39066.4
-36894.1
-35502.6
-35888.5
-32603.2
-25768.8
-17389.7
-9237.54
-2553.12
1848.9
3486.69
2140.9
-2161.34
-9085.05
-17845.4
-27039.4
-34701.7
-38933.1
-39066.4
-36894.1
3881.66
8268.6
11826.4
13304.4
12905.6
11292.8
9054.76
6782.8
4948.72
3815.96
3401.17
3466.7
3540.35
2994.84
1349.55
-970.754
-1959.03
-886.091
3881.66
8268.6
11826.4
13304.4
12905.6
11292.8
9054.76
6782.8
4948.72
3815.96
3401.17
3466.7
3540.35
2994.84
1349.55
-970.754
-1959.03
-886.091
-16355.3
-12943.8
-8660.28
-6686.34
-5185.72
-3940.98
-3099.48
-2732.72
-2803.21
-3216.97
-3845.45
-4526.1
-5097.04
-5503.34
-5932.22
-6893.06
-10148.8
-14415.6
-16355.3
-12943.8
-8660.28
-6686.34
-5185.72
-3940.98
-3099.48
-2732.72
-2803.21
-3216.97
-3845.45
-4526.1
-5097.04
-5503.34
-5932.22
-6893.06
-10148.8
-14415.6
-30464.7
-31340.1
-32196.6
-31138.6
-26915.9
-20955.9
-15083.9
-10527
-7877.17
-7245.49
-8363.93
-10655.6
-13369.4
-15866.3
-18067.8
-20741.2
-25657.2
-29331.8
-30464.7
-31340.1
-32196.6
-31138.6
-26915.9
-20955.9
-15083.9
-10527
-7877.17
-7245.49
-8363.93
-10655.6
-13369.4
-15866.3
-18067.8
-20741.2
-25657.2
-29331.8
2467.39
9061.52
13593.7
14987.6
15074
14196.4
12751.7
11241.7
10094.6
9536.48
9538.61
9799.35
9726.65
8441.19
5044.08
-505.018
-6569.35
-5817.88
2467.39
9061.52
13593.7
14987.6
15074
14196.4
12751.7
11241.7
10094.6
9536.48
9538.61
9799.35
9726.65
8441.19
5044.08
-505.018
-6569.35
-5817.88
-27726.2
-16689.8
-9621
-6675.52
-4594.71
-3051.69
-2099.9
-1703.28
-1782.61
-2268.42
-3085.97
-4118.29
-5221.06
-6377.94
-7973.65
-11134.8
-18017.5
-28107.8
-27726.2
-16689.8
-9621
-6675.52
-4594.71
-3051.69
-2099.9
-1703.28
-1782.61
-2268.42
-3085.97
-4118.29
-5221.06
-6377.94
-7973.65
-11134.8
-18017.5
-28107.8
-44296.3
-40507.5
-39702.7
-37570.3
-32649.6
-26269.5
-20332.9
-16009.2
-13814.4
-13802.3
-15627.6
-18600.4
-21863.4
-24759.1
-27321.1
-30156
-36464.9
-44620.6
-44296.3
-40507.5
-39702.7
-37570.3
-32649.6
-26269.5
-20332.9
-16009.2
-13814.4
-13802.3
-15627.6
-18600.4
-21863.4
-24759.1
-27321.1
-30156
-36464.9
-44620.6
-628.756
7385.82
11328.5
13229.3
13767.8
13309.6
12319.1
11285.8
10575.5
10360.6
10587.7
10955.3
10871.7
9430.78
5686.29
-626.782
-7959.92
-7110.59
-628.756
7385.82
11328.5
13229.3
13767.8
13309.6
12319.1
11285.8
10575.5
10360.6
10587.7
10955.3
10871.7
9430.78
5686.29
-626.782
-7959.92
-7110.59
-24396.5
-15244.4
-9109.45
-5794.69
-3250.26
-1546.72
-667.198
-388.15
-532.871
-1037.79
-1896.83
-3079.94
-4474.55
-5927.52
-7432.4
-9527.6
-14289.9
-23051.7
-24396.5
-15244.4
-9109.45
-5794.69
-3250.26
-1546.72
-667.198
-388.15
-532.871
-1037.79
-1896.83
-3079.94
-4474.55
-5927.52
-7432.4
-9527.6
-14289.9
-23051.7
-34212.8
-34912.4
-35486.3
-34809.7
-30829.7
-25130.4
-19828.1
-16122.3
-14506.4
-15031
-17334.2
-20656.6
-23982.7
-26374.9
-27413.7
-27230.7
-27063.9
-30863.7
-34212.8
-34912.4
-35486.3
-34809.7
-30829.7
-25130.4
-19828.1
-16122.3
-14506.4
-15031
-17334.2
-20656.6
-23982.7
-26374.9
-27413.7
-27230.7
-27063.9
-30863.7
-6419.07
-271.131
5741.78
9051.41
10379.3
10350.4
9689.42
8976.81
8546.18
8517.74
8804.92
9087.76
8763.21
6973.91
3007.59
-2651.19
-6602.75
-6904.89
-6419.07
-271.131
5741.78
9051.41
10379.3
10350.4
9689.42
8976.81
8546.18
8517.74
8804.92
9087.76
8763.21
6973.91
3007.59
-2651.19
-6602.75
-6904.89
-14609.7
-14213
-9899.05
-5733.97
-2520.64
-520.17
440.371
733.069
614.275
150.605
-723.724
-2105.81
-3988.86
-6137.09
-8160.32
-9960.28
-11372.2
-12451.9
-14609.7
-14213
-9899.05
-5733.97
-2520.64
-520.17
440.371
733.069
614.275
150.605
-723.724
-2105.81
-3988.86
-6137.09
-8160.32
-9960.28
-11372.2
-12451.9
-15346.3
-20514
-24768.8
-25886
-23416.5
-18999.5
-14734.7
-11852
-10872.5
-11885.9
-14586.2
-18246.3
-21760.5
-23882.7
-23749.4
-21304.8
-17477.3
-14595.3
-15346.3
-20514
-24768.8
-25886
-23416.5
-18999.5
-14734.7
-11852
-10872.5
-11885.9
-14586.2
-18246.3
-21760.5
-23882.7
-23749.4
-21304.8
-17477.3
-14595.3
-8259.93
-4886.14
-46.2637
3832.23
5966.64
6525.64
6246.92
5802.18
5545.09
5574.78
5780.69
5826.8
5139.81
3056.53
-681.833
-5166.42
-8314.01
-9250.36
-8259.93
-4886.14
-46.2637
3832.23
5966.64
6525.64
6246.92
5802.18
5545.09
5574.78
5780.69
5826.8
5139.81
3056.53
-681.833
-5166.42
-8314.01
-9250.36
-12671.7
-12359.3
-9665.7
-5887.18
-2506.62
-274.837
871.963
1319.44
1353.09
1048.17
294.012
-1110.15
-3253.53
-5839.39
-8150.07
-9567.9
-10317.4
-11576.3
-12671.7
-12359.3
-9665.7
-5887.18
-2506.62
-274.837
871.963
1319.44
1353.09
1048.17
294.012
-1110.15
-3253.53
-5839.39
-8150.07
-9567.9
-10317.4
-11576.3
-5641.56
-9140.54
-13182.1
-15130.9
-14060.4
-11034.4
-7865.86
-5779.08
-5338.41
-6673.63
-9539.96
-13279.7
-16760.7
-18554.6
-17576
-13736.2
-8597.48
-5304.95
-5641.56
-9140.54
-13182.1
-15130.9
-14060.4
-11034.4
-7865.86
-5779.08
-5338.41
-6673.63
-9539.96
-13279.7
-16760.7
-18554.6
-17576
-13736.2
-8597.48
-5304.95
-11000.5
-8660.01
-5041.91
-1444.19
1134.26
2331.96
2551.23
2408.67
2275.62
2251.17
2215.28
1844.88
678.578
-1642.16
-4972.23
-8407.17
-10762.7
-11609.8
-11000.5
-8660.01
-5041.91
-1444.19
1134.26
2331.96
2551.23
2408.67
2275.62
2251.17
2215.28
1844.88
678.578
-1642.16
-4972.23
-8407.17
-10762.7
-11609.8
-11347.8
-10943.7
-8897.9
-5776.51
-2662.51
-387.457
915.781
1552.36
1791.15
1696.88
1124.41
-187.638
-2353.84
-5016.65
-7385.1
-8863.26
-9730.49
-10658.3
-11347.8
-10943.7
-8897.9
-5776.51
-2662.51
-387.457
915.781
1552.36
1791.15
1696.88
1124.41
-187.638
-2353.84
-5016.65
-7385.1
-8863.26
-9730.49
-10658.3
3025.17
457.943
-3058.94
-5376.35
-5387.19
-3594.65
-1420.43
-12.4087
46.9174
-1392.74
-4128.23
-7564.22
-10596.2
-11806
-10193.4
-5928.73
-771.037
2720.07
3025.17
457.943
-3058.94
-5376.35
-5387.19
-3594.65
-1420.43
-12.4087
46.9174
-1392.74
-4128.23
-7564.22
-10596.2
-11806
-10193.4
-5928.73
-771.037
2720.07
-14195.7
-12444.9
-9671.09
-6574.81
-3919.67
-2246.66
-1537.55
-1384.93
-1457.48
-1654.62
-2080.22
-2988.48
-4649.75
-7107.21
-9983.43
-12553.3
-14189
-14734.5
-14195.7
-12444.9
-9671.09
-6574.81
-3919.67
-2246.66
-1537.55
-1384.93
-1457.48
-1654.62
-2080.22
-2988.48
-4649.75
-7107.21
-9983.43
-12553.3
-14189
-14734.5
-10233.8
-9605.3
-7840.42
-5293.13
-2617.4
-467.793
903.62
1680.91
2090.68
2170.71
1746.89
552.575
-1473.98
-3941.97
-6192.98
-7823.36
-8973.54
-9872.65
-10233.8
-9605.3
-7840.42
-5293.13
-2617.4
-467.793
903.62
1680.91
2090.68
2170.71
1746.89
552.575
-1473.98
-3941.97
-6192.98
-7823.36
-8973.54
-9872.65
10662.7
8618.39
5475.05
2937.64
2099.59
2840.61
4126.79
4949.21
4751.6
3386.15
1035.61
-1747.92
-3943.47
-4321.68
-2151.3
2166.78
6978.66
10205.6
10662.7
8618.39
5475.05
2937.64
2099.59
2840.61
4126.79
4949.21
4751.6
3386.15
1035.61
-1747.92
-3943.47
-4321.68
-2151.3
2166.78
6978.66
10205.6
-17873.2
-16444.1
-14250
-11669.6
-9206.78
-7353.85
-6330.78
-5988.32
-6096.75
-6558.9
-7428.92
-8838.06
-10838.4
-13236.8
-15585
-17370.5
-18317.2
-18468
-17873.2
-16444.1
-14250
-11669.6
-9206.78
-7353.85
-6330.78
-5988.32
-6096.75
-6558.9
-7428.92
-8838.06
-10838.4
-13236.8
-15585
-17370.5
-18317.2
-18468
-9323.99
-8523.85
-6877.32
-4717.35
-2445.8
-492.595
883.553
1751.1
2272.52
2452.84
2107.39
1015.96
-805.924
-2999.71
-5102.67
-6857.87
-8240.11
-9161.81
-9323.99
-8523.85
-6877.32
-4717.35
-2445.8
-492.595
883.553
1751.1
2272.52
2452.84
2107.39
1015.96
-805.924
-2999.71
-5102.67
-6857.87
-8240.11
-9161.81
17758
15853.7
12893.8
10231.1
8812.11
8704.47
9215.06
9534.39
9176.03
8012.86
6221.24
4313.62
3161.07
3689.83
6315.07
10498.3
14778.1
17492.1
17758
15853.7
12893.8
10231.1
8812.11
8704.47
9215.06
9534.39
9176.03
8012.86
6221.24
4313.62
3161.07
3689.83
6315.07
10498.3
14778.1
17492.1
-21659.7
-20476.3
-18784.3
-16770.7
-14734.6
-13042.2
-11989.6
-11631.9
-11866
-12601.1
-13814.4
-15492.4
-17507.3
-19551.8
-21228.8
-22240.7
-22553.2
-22330.8
-21659.7
-20476.3
-18784.3
-16770.7
-14734.6
-13042.2
-11989.6
-11631.9
-11866
-12601.1
-13814.4
-15492.4
-17507.3
-19551.8
-21228.8
-22240.7
-22553.2
-22330.8
-8886.4
-7986.64
-6409.08
-4488.8
-2505.9
-728.344
635.037
1570.1
2159.86
2376.01
2048.63
1029.53
-614.766
-2600.86
-4616.73
-6455.82
-7955.87
-8860.24
-8886.4
-7986.64
-6409.08
-4488.8
-2505.9
-728.344
635.037
1570.1
2159.86
2376.01
2048.63
1029.53
-614.766
-2600.86
-4616.73
-6455.82
-7955.87
-8860.24
24582.6
22658.7
19818
17131.1
15349.8
14601.7
14464.9
14370.1
13944.1
13092.5
11980.9
11049.7
10955.6
12291.1
15187.8
19042.4
22625
24671.2
24582.6
22658.7
19818
17131.1
15349.8
14601.7
14464.9
14370.1
13944.1
13092.5
11980.9
11049.7
10955.6
12291.1
15187.8
19042.4
22625
24671.2
-25045.2
-24167.6
-23036.4
-21710.2
-20329.8
-19120.2
-18339
-18140.4
-18524.7
-19410.7
-20701.2
-22268.5
-23894.2
-25276.5
-26147.6
-26411.4
-26192.5
-25705.1
-25045.2
-24167.6
-23036.4
-21710.2
-20329.8
-19120.2
-18339
-18140.4
-18524.7
-19410.7
-20701.2
-22268.5
-23894.2
-25276.5
-26147.6
-26411.4
-26192.5
-25705.1
-9333.47
-8407.27
-6911.7
-5149.22
-3337.92
-1662.12
-287.793
715.769
1349.79
1553.74
1190.33
180.004
-1388.53
-3290.88
-5280.35
-7135.59
-8612.46
-9416.28
-9333.47
-8407.27
-6911.7
-5149.22
-3337.92
-1662.12
-287.794
715.768
1349.79
1553.74
1190.33
180.004
-1388.53
-3290.88
-5280.35
-7135.59
-8612.46
-9416.28
31250.9
29373.7
26754.6
24198.6
22263.6
21087.3
20462.9
20071.8
19687.1
19249.9
18884.1
18896.9
19690.2
21547.1
24386.3
27629.9
30344.3
31668.8
31250.9
29373.7
26754.6
24198.6
22263.6
21087.3
20462.9
20071.8
19687.1
19249.9
18884.1
18896.9
19690.2
21547.1
24386.3
27629.9
30344.3
31668.8
-27499.4
-27037.8
-26557.9
-26024.5
-25449.8
-24917.3
-24585
-24610.9
-25054.6
-25855.4
-26882.2
-27964.3
-28890.1
-29447.4
-29521.4
-29169.8
-28594.5
-28007.5
-27499.4
-27037.8
-26557.9
-26024.5
-25449.8
-24917.3
-24585
-24610.9
-25054.6
-25855.4
-26882.2
-27964.3
-28890.1
-29447.4
-29521.4
-29169.8
-28594.5
-28007.5
-11098.6
-10235.7
-8876.09
-7248.72
-5529.33
-3875.08
-2445.09
-1364.17
-714.702
-586.26
-1067.6
-2166.09
-3762.4
-5644.35
-7572.7
-9309.83
-10612.2
-11248.3
-11098.6
-10235.7
-8876.09
-7248.72
-5529.33
-3875.08
-2445.09
-1364.18
-714.705
-586.258
-1067.6
-2166.09
-3762.4
-5644.35
-7572.7
-9309.83
-10612.2
-11248.3
37787.5
36169.9
34009.1
31834.4
30019.9
28704.7
27856.7
27376.5
27172.7
27200.8
27501.2
28207
29474.1
31354.5
33672.7
35991.2
37723.1
38377.9
37787.5
36169.9
34009.1
31834.4
30019.9
28704.7
27856.7
27376.5
27172.7
27200.8
27501.2
28207
29474.1
31354.5
33672.7
35991.2
37723.1
38377.9
-28764.5
-28764.3
-28930.7
-29161.1
-29355
-29460.5
-29526.5
-29679.8
-30013.5
-30510.4
-31049.7
-31473.9
-31643.3
-31467.2
-30954.8
-30240.2
-29532.6
-29013.4
-28764.5
-28764.3
-28930.7
-29161.1
-29355
-29460.5
-29526.5
-29679.8
-30013.5
-30510.4
-31049.7
-31473.9
-31643.3
-31467.2
-30954.8
-30240.2
-29532.6
-29013.4
-14294.3
-13564.4
-12426.6
-11015
-9454.2
-7886.02
-6487.21
-5454.72
-4950.83
-5065.33
-5789.28
-7017.1
-8578.97
-10266.4
-11873.8
-13210.7
-14124
-14498.4
-14294.3
-13564.4
-12426.6
-11015
-9454.2
-7886.02
-6487.21
-5454.72
-4950.83
-5065.33
-5789.28
-7017.1
-8578.97
-10266.5
-11873.8
-13210.7
-14124
-14498.4
44097.1
43023.8
41624.1
40164.1
38857.2
37840.4
37190.9
36923
36989.2
37320.6
37885.1
38696.3
39765.6
41049.3
42411.6
43626.9
44427.4
44603.9
44097.1
43023.8
41624.1
40164.1
38857.2
37840.4
37190.9
36923
36989.2
37320.6
37885.1
38696.3
39765.6
41049.3
42411.6
43626.9
44427.4
44603.9
-28047.3
-28460.6
-29074.5
-29722.2
-30213.3
-30433.8
-30429
-30357.9
-30353.7
-30437.5
-30502.1
-30428.8
-30181.2
-29766
-29217.3
-28630
-28156.8
-27939
-28047.3
-28460.6
-29074.5
-29722.2
-30213.3
-30433.8
-30429
-30357.9
-30353.7
-30437.5
-30502.1
-30428.8
-30181.2
-29766
-29217.3
-28630
-28156.8
-27939
-18161.2
-17713.6
-17023.4
-16114.6
-15018.5
-13833.4
-12757.1
-12043.2
-11864.2
-12235.7
-13020.5
-14031.1
-15124.3
-16185.2
-17110.2
-17806.4
-18222.4
-18338.4
-18161.2
-17713.6
-17023.4
-16114.6
-15018.5
-13833.4
-12757.1
-12043.2
-11864.2
-12235.7
-13020.5
-14031.1
-15124.3
-16185.2
-17110.2
-17806.4
-18222.4
-18338.4
51961.2
51402.4
50694.4
49951.8
49306.4
48876.2
48713.3
48771.6
48958.3
49216
49556.1
50006.7
50552.8
51138
51684.5
52109.6
52329.6
52284.4
51961.2
51402.4
50694.4
49951.8
49306.4
48876.2
48713.3
48771.6
48958.3
49216
49556.1
50006.7
50552.8
51138
51684.4
52109.6
52329.6
52284.4
-29225.6
-29286
-29504
-29839.9
-30327.1
-31041.5
-31970.5
-32953.9
-33793.7
-34372.3
-34566.4
-34267.3
-33504.5
-32469.8
-31409.9
-30496.4
-29812.9
-29389.1
-29225.6
-29286
-29504
-29839.9
-30327.1
-31041.5
-31970.5
-32953.9
-33793.7
-34372.3
-34566.4
-34267.3
-33504.5
-32469.8
-31409.9
-30496.4
-29812.9
-29389.1
-19197.8
-18847.2
-18455.7
-18019.6
-17619.7
-17406.7
-17516.4
-17955.7
-18641.8
-19454.5
-20230
-20781.6
-20999.9
-20909.8
-20628.2
-20267.6
-19897
-19540.3
-19197.8
-18847.2
-18455.7
-18019.6
-17619.7
-17406.7
-17516.4
-17955.7
-18641.8
-19454.5
-20230
-20781.6
-20999.9
-20909.8
-20628.2
-20267.6
-19897
-19540.3
51835.6
51852.1
51901.5
52048.9
52325.6
52654.6
52922.9
52997.6
52848.8
52495.9
52031.6
51608.6
51346
51291.9
51386.9
51548.2
51696
51793.2
51835.6
51852.1
51901.5
52048.9
52325.6
52654.6
52922.9
52997.6
52848.8
52495.9
52031.6
51608.6
51346
51291.9
51386.9
51548.2
51696
51793.2
)
;

boundaryField
{
    fixed
    {
        type            zeroGradient;
    }
    inside
    {
        type            zeroGradient;
    }
    outside
    {
        type            zeroGradient;
    }
}


// ************************************************************************* //
