/*--------------------------------*- C++ -*----------------------------------*\
| =========                 |                                                 |
| \\      /  F ield         | OpenFOAM: The Open Source CFD Toolbox           |
|  \\    /   O peration     | Version:  2312                                  |
|   \\  /    A nd           | Website:  www.openfoam.com                      |
|    \\/     M anipulation  |                                                 |
\*---------------------------------------------------------------------------*/
FoamFile
{
    version     2.0;
    format      ascii;
    arch        "LSB;label=32;scalar=64";
    class       volScalarField;
    location    "0.5";
    object      sigmaEq;
}
// * * * * * * * * * * * * * * * * * * * * * * * * * * * * * * * * * * * * * //

dimensions      [1 -1 -2 0 0 0 0];

internalField   nonuniform List<scalar> 
1620
(
31568.9
29209.8
27750.3
27360.1
27728.2
28386.2
28976.3
29353
29537.8
29623.5
29702.8
29844.7
30110.4
30593.5
31456.2
32817.2
34132.8
33789.4
31568.9
29209.8
27750.3
27360.1
27728.2
28386.2
28976.3
29353
29537.8
29623.5
29702.8
29844.7
30110.4
30593.5
31456.2
32817.2
34132.8
33789.4
29256.8
28270.8
27979.7
28404.9
29239.5
30125.9
30794.8
31132.6
31166.9
30999
30739.5
30476.3
30271.9
30173.2
30213.1
30381.1
30512.2
30213.8
29256.8
28270.8
27979.7
28404.9
29239.5
30125.9
30794.8
31132.6
31166.9
30999
30739.5
30476.3
30271.9
30173.2
30213.1
30381.1
30512.2
30213.8
31089.7
31093.6
30985
31114.9
31512.5
32037.7
32502.4
32735.8
32640.1
32224.5
31591.2
30876.6
30192
29621.1
29268.6
29285.2
29773.6
30565.5
31089.7
31093.6
30985
31114.9
31512.5
32037.7
32502.4
32735.8
32640.1
32224.5
31591.2
30876.6
30192
29621.1
29268.6
29285.2
29773.6
30565.5
31141.4
28646.5
27536.7
27380
27923.5
28741.1
29448.6
29892.7
30097.1
30149.3
30131.3
30102.4
30116.4
30254.8
30663.1
31560.1
32811.8
33206.6
31141.4
28646.5
27536.7
27380
27923.5
28741.1
29448.6
29892.7
30097.1
30149.3
30131.3
30102.4
30116.4
30254.8
30663.1
31560.1
32811.8
33206.6
28242.6
27892.5
28681.1
29854.9
31070.2
32026.3
32539.1
32589.9
32278.5
31752.1
31147.1
30555.2
30016.1
29527.4
29068.9
28701.5
28735.4
29114.9
28242.6
27892.5
28681.1
29854.9
31070.2
32026.3
32539.1
32589.9
32278.5
31752.1
31147.1
30555.2
30016.1
29527.4
29068.9
28701.5
28735.4
29114.9
33259.4
33653.9
33553.4
33463.8
33580.9
33920.3
34344.4
34630
34568.2
34054
33132.5
31973.6
30787.4
29763
29089.3
29007.3
29791.3
31588.4
33259.4
33653.9
33553.4
33463.8
33580.9
33920.3
34344.4
34630
34568.2
34054
33132.5
31973.6
30787.4
29763
29089.3
29007.3
29791.3
31588.4
28770.7
28134.3
27359.3
27281.3
28038.1
29183
30177
30805.7
31085
31096.1
30914
30602.1
30235.1
29906.3
29704.9
29768.8
30022.7
27774.7
28770.7
28134.3
27359.3
27281.3
28038.1
29183
30177
30805.7
31085
31096.1
30914
30602.1
30235.1
29906.3
29704.9
29768.8
30022.7
27774.7
26526
27689.1
29183
30974.6
32733.5
33934.4
34365.4
34132
33443.6
32500.2
31456.1
30407.2
29400.8
28446.3
27495.6
26481.5
25665.6
25921.4
26526
27689.1
29183
30974.6
32733.5
33934.4
34365.4
34132
33443.6
32500.2
31456.1
30407.2
29400.8
28446.3
27495.6
26481.5
25665.6
25921.4
30142.2
33944.9
35105.2
35629.4
35859.8
36101
36442.8
36703.1
36589.7
35871.9
34495.8
32653.9
30773.3
29361.6
28778
29187.1
30297.1
29366.4
30142.2
33944.9
35105.2
35629.4
35859.8
36101
36442.8
36703.1
36589.7
35871.9
34495.8
32653.9
30773.3
29361.6
28778
29187.1
30297.1
29366.4
28460
27255.6
26430.7
26328
27291.3
28749.8
30015.9
30865.9
31310.8
31396
31161.3
30674.2
30077
29566.7
29295.6
29414.4
30129
30296.1
28460
27255.6
26430.7
26328
27291.3
28749.8
30015.9
30865.9
31310.8
31396
31161.3
30674.2
30077
29566.7
29295.6
29414.4
30129
30296.1
27854.9
27563.2
28086.6
29570.6
31606.1
33224.5
33929.5
33826.4
33167.3
32147.5
30896.2
29527.8
28221.8
27213.1
26594.3
26245.9
26247.1
27241.4
27854.9
27563.2
28086.6
29570.6
31606.1
33224.5
33929.5
33826.4
33167.3
32147.5
30896.2
29527.8
28221.8
27213.1
26594.3
26245.9
26247.1
27241.4
31252.8
32287.4
33911.8
35555
36765
37528.4
38063.2
38356.2
38166
37214.6
35347.1
32751.7
30194.2
28706.4
28738.4
30228.3
32673.7
32590.9
31252.8
32287.4
33911.8
35555
36765
37528.4
38063.2
38356.2
38166
37214.6
35347.1
32751.7
30194.2
28706.4
28738.4
30228.3
32673.7
32590.9
28523.7
26856.6
25364.1
24807.9
25740.8
27388.4
28848.3
29887.7
30526.5
30783.4
30663.7
30236.1
29720.4
29427
29504
29817.5
30085.8
29780.4
28523.7
26856.6
25364.1
24807.9
25740.8
27388.4
28848.3
29887.7
30526.5
30783.4
30663.7
30236.1
29720.4
29427
29504
29817.5
30085.8
29780.4
27902.5
27585.5
27114.5
27439
29041.1
30910.8
32038.6
32298.4
31882
30938
29562.8
27950
26572.2
25981.1
26178
26688.4
27212
27690.8
27902.5
27585.5
27114.5
27439
29041.1
30910.8
32038.6
32298.4
31882
30938
29562.8
27950
26572.2
25981.1
26178
26688.4
27212
27690.8
32207.2
32422.6
33568.8
35267.9
37005
38314.9
39108.2
39410.5
39088.9
37886.9
35576.3
32343.9
29340.8
28051.5
28601.3
30264.9
32318.3
32904.3
32207.2
32422.6
33568.8
35267.9
37005
38314.9
39108.2
39410.5
39088.9
37886.9
35576.3
32343.9
29340.8
28051.5
28601.3
30264.9
32318.3
32904.3
27951.1
26532.7
24871.6
23756.2
24231.4
25767.2
27270.8
28400.6
29172.4
29608.3
29716.5
29587.5
29473.6
29617.3
29909.9
29998
29710.7
29028.2
27951.1
26532.7
24871.6
23756.2
24231.4
25767.2
27270.8
28400.6
29172.4
29608.3
29716.5
29587.5
29473.6
29617.3
29909.9
29998
29710.7
29028.2
27725.9
27401.7
26652.2
26080.8
26853
28627
30052.4
30628.8
30415
29499.3
27964.2
26152.4
24909.5
24932.1
25804.4
26723.5
27351.3
27675.1
27725.9
27401.7
26652.2
26080.8
26853
28627
30052.4
30628.8
30415
29499.3
27964.2
26152.4
24909.5
24932.1
25804.4
26723.5
27351.3
27675.1
32824.5
33325.2
34421
36039.6
37825.5
39254.9
40002.5
40081.3
39471.5
37954.3
35264.8
31646.3
28548
27522.9
28245.6
29691.8
31328.5
32463.5
32824.5
33325.2
34421
36039.6
37825.5
39254.9
40002.5
40081.3
39471.5
37954.3
35264.8
31646.3
28548
27522.9
28245.6
29691.8
31328.5
32463.5
27402.8
26210.8
24740.8
23403.3
23246.4
24338.5
25707.8
26841.9
27693.5
28299
28702.5
29018.8
29420.3
29886.8
30101.3
29852
29231.4
28393.5
27402.8
26210.8
24740.8
23403.3
23246.4
24338.5
25707.8
26841.9
27693.5
28299
28702.5
29018.8
29420.3
29886.8
30101.3
29852
29231.4
28393.5
27317.7
27019.3
26299.1
25429.4
25509.3
26898.6
28398.7
29170.3
29073.6
28131.8
26454.5
24585.8
23649.5
24187.2
25392.2
26425.8
27047.6
27313
27317.7
27019.3
26299.1
25429.4
25509.3
26898.6
28398.7
29170.3
29073.6
28131.8
26454.5
24585.8
23649.5
24187.2
25392.2
26425.8
27047.6
27313
33131.4
34264
35694.5
37401.5
39094.4
40335.2
40777.7
40441.6
39404.8
37505.8
34518.8
30825.8
27979.7
27208.3
27922.9
29189.6
30620.6
31999
33131.4
34264
35694.5
37401.5
39094.4
40335.2
40777.7
40441.6
39404.8
37505.8
34518.8
30825.8
27979.7
27208.3
27922.9
29189.6
30620.6
31999
26926.3
25923.5
24694.4
23400.6
22795.9
23317.1
24390.5
25447.6
26342.7
27103.3
27798.8
28517.5
29261
29795
29838.5
29395
28666.2
27821.4
26926.3
25923.5
24694.4
23400.6
22795.9
23317.1
24390.5
25447.6
26342.7
27103.3
27798.8
28517.5
29261
29795
29838.5
29395
28666.2
27821.4
26701.6
26446.5
25836.8
24997.4
24705.1
25579.3
26879.2
27661.3
27586
26619.8
24958.6
23336.7
22868.8
23719.6
24963.9
25930
26480.2
26704.4
26701.6
26446.5
25836.8
24997.4
24705.1
25579.3
26879.2
27661.3
27586
26619.8
24958.6
23336.7
22868.8
23719.6
24963.9
25930
26480.2
26704.4
33087.9
34741
36603.2
38483.9
40041.2
40956.7
41020.2
40270.3
38819.6
36584.7
33475.9
30050.3
27708.9
27177.3
27820.2
28925.5
30204.2
31599
33087.9
34741
36603.2
38483.9
40041.2
40956.7
41020.2
40270.3
38819.6
36584.7
33475.9
30050.3
27708.9
27177.3
27820.2
28925.5
30204.2
31599
26477
25623.4
24587
23434.7
22648.6
22706.3
23416.4
24322.9
25215.9
26085.7
26983.5
27921.5
28758.1
29219.4
29161.4
28692.6
28009.5
27254.1
26477
25623.4
24587
23434.7
22648.6
22706.3
23416.4
24322.9
25215.9
26085.7
26983.5
27921.5
28758.1
29219.4
29161.4
28692.6
28009.5
27254.1
25915
25688.3
25173.6
24450.4
24013.6
24402.2
25284.3
25871.2
25728.3
24806.7
23419.7
22360.1
22410.7
23379.2
24489.9
25298.9
25746.4
25926
25915
25688.3
25173.6
24450.4
24013.6
24402.2
25284.3
25871.2
25728.3
24806.7
23419.7
22360.1
22410.7
23379.2
24489.9
25298.9
25746.4
25926
32807.1
34641.2
36715.5
38673.2
40075.1
40673.4
40412.3
39367.9
37649.4
35267.6
32330.8
29494.9
27778.5
27458.7
28004.7
28927.4
30025.2
31293.3
32807.1
34641.2
36715.5
38673.2
40075.1
40673.4
40412.3
39367.9
37649.4
35267.6
32330.8
29494.9
27778.5
27458.7
28004.7
28927.4
30025.2
31293.3
25961
25229.3
24353.4
23382.6
22615.7
22416.2
22803.3
23511.7
24341.4
25241.9
26213.5
27185.9
27959.8
28322.8
28233.8
27820.4
27245.4
26616.8
25961
25229.3
24353.4
23382.6
22615.7
22416.2
22803.3
23511.7
24341.4
25241.9
26213.5
27185.9
27959.8
28322.8
28233.8
27820.4
27245.4
26616.8
24977.8
24746.9
24285.3
23662.4
23178.7
23182.6
23568
23830
23598.7
22865
22000.1
21625.5
22068.2
22998.8
23907.4
24542.5
24887.8
25017.1
24977.8
24746.9
24285.3
23662.4
23178.7
23182.6
23568
23830
23598.7
22865
22000.1
21625.5
22068.2
22998.8
23907.4
24542.5
24887.8
25017.1
32420.9
34129.5
36083.3
37885.3
39073.2
39424.4
38958.1
37784.8
36023.6
33791.4
31358.2
29302.2
28182.4
28013.8
28434.1
29141.2
30013.6
31073.6
32420.9
34129.5
36083.3
37885.3
39073.2
39424.4
38958.1
37784.8
36023.6
33791.4
31358.2
29302.2
28182.4
28013.8
28434.1
29141.2
30013.6
31073.6
25289.5
24689.1
23996.9
23259.6
22653
22398.8
22574.4
23076.5
23776.4
24609.7
25523
26389.4
27017.8
27273.9
27167.9
26813.9
26340.6
25828.5
25289.5
24689.1
23996.9
23259.6
22653
22398.8
22574.4
23076.5
23776.4
24609.7
25523
26389.4
27017.8
27273.9
27167.9
26813.9
26340.6
25828.5
23876.7
23624.1
23196.2
22655.6
22169.2
21916.6
21883.5
21840.9
21595.2
21192.4
20917.4
21072.8
21676.6
22462.3
23156.1
23632.1
23886.4
23960.3
23876.7
23624.1
23196.2
22655.6
22169.2
21916.6
21883.5
21840.9
21595.2
21192.4
20917.4
21072.8
21676.6
22462.3
23156.1
23632.1
23886.4
23960.3
31992.6
33388.8
34966.6
36391.8
37285.5
37457.1
36930.5
35824.5
34287.5
32513.7
30797.8
29498.5
28827.8
28721.3
28979.8
29449.6
30078.8
30901.3
31992.6
33388.8
34966.6
36391.8
37285.5
37457.1
36930.5
35824.5
34287.5
32513.7
30797.8
29498.5
28827.8
28721.3
28979.8
29449.6
30078.8
30901.3
24482.1
24066.3
23625.2
23186.3
22833.1
22671.2
22760.1
23086
23604.9
24271.6
25003.4
25655.3
26075.9
26193
26037.8
25705.4
25299.1
24886.6
24482.1
24066.3
23625.2
23186.3
22833.1
22671.2
22760.1
23086
23604.9
24271.6
25003.4
25655.3
26075.9
26193
26037.8
25705.4
25299.1
24886.6
22572.8
22330.1
21975
21551.2
21134.3
20799.4
20565.3
20385
20222.7
20135.1
20243.5
20608.6
21153.3
21724.9
22198.3
22516.2
22674.3
22689.1
22572.8
22330.1
21975
21551.2
21134.3
20799.4
20565.3
20385
20222.7
20135.1
20243.5
20608.6
21153.3
21724.9
22198.3
22516.2
22674.3
22689.1
31543
32547.2
33643.5
34604.9
35185.9
35251.1
34809.1
33963
32868.8
31714.8
30695.4
29957.9
29548.9
29422.8
29506.5
29752.9
30156.6
30742.9
31543
32547.2
33643.5
34604.9
35185.9
35251.1
34809.1
33963
32868.8
31714.8
30695.4
29957.9
29548.9
29422.8
29506.5
29752.9
30156.6
30742.9
23776.2
23607.4
23466.1
23344.6
23259.5
23240.6
23316.2
23508.9
23835.7
24279.9
24755.4
25129.6
25298.6
25236.6
24989.3
24643.5
24291.8
23997.6
23776.2
23607.4
23466.1
23344.6
23259.5
23240.6
23316.2
23508.9
23835.7
24279.9
24755.4
25129.6
25298.6
25236.6
24989.3
24643.5
24291.8
23997.6
21077.1
20925.3
20731.5
20507.9
20273.7
20052.4
19863.8
19721.9
19648.9
19685.1
19861.1
20156.8
20501.2
20815.2
21047
21178.9
21217.2
21178
21077.1
20925.3
20731.5
20507.9
20273.7
20052.4
19863.8
19721.9
19648.9
19685.1
19861.1
20156.8
20501.2
20815.2
21047
21178.9
21217.2
21178
31128.6
31755.2
32417.1
32986.5
33331.7
33372.2
33109.3
32618
32014.7
31413.2
30891.4
30484.2
30197.3
30026.7
29973.3
30046.1
30257.7
30618.9
31128.6
31755.2
32417.1
32986.5
33331.7
33372.2
33109.3
32618
32014.7
31413.2
30891.4
30484.2
30197.3
30026.7
29973.3
30046.1
30257.7
30618.9
23566.8
23636.5
23738.9
23841.4
23924.3
23982.3
24031.6
24114.9
24278.7
24517.8
24747.1
24856.8
24790.4
24565.1
24249.5
23932.1
23692.7
23572.9
23566.8
23636.5
23738.9
23841.4
23924.3
23982.3
24031.6
24114.9
24278.7
24517.8
24747.1
24856.8
24790.4
24565.1
24249.5
23932.1
23692.7
23572.9
19611.3
19599.2
19616.1
19645.9
19672.6
19682.7
19665.5
19621.2
19574
19565.6
19622.9
19730.2
19838.3
19899.4
19893.6
19831.3
19742.7
19661.5
19611.4
19599.2
19616.1
19645.9
19672.6
19682.7
19665.5
19621.2
19574
19565.6
19622.9
19730.2
19838.3
19899.4
19893.6
19831.3
19742.7
19661.5
31001.4
31333.2
31683.2
31985.3
32175.2
32216.4
32118.2
31928.6
31703.7
31477.6
31257.2
31040
30833.3
30658.1
30541.2
30506.5
30570.1
30737.8
31001.4
31333.2
31683.2
31985.3
32175.2
32216.4
32118.2
31928.6
31703.7
31477.6
31257.2
31040
30833.3
30658.1
30541.2
30506.5
30570.1
30737.8
25097.4
25335.5
25557.9
25705.8
25736.2
25651.5
25503.7
25367.9
25305.7
25337.5
25419.2
25456
25374
25182.8
24965.2
24816.8
24794.4
24900.1
25097.4
25335.5
25557.9
25705.8
25736.2
25651.5
25503.7
25367.9
25305.7
25337.5
25419.2
25456
25374
25182.8
24965.2
24816.8
24794.4
24900.1
18614.2
18671.2
18813.7
19020.7
19257.9
19483.3
19658.6
19758.5
19776.9
19727.5
19636.3
19526.3
19404.9
19265.1
19100.9
18922.8
18759.9
18647.8
18614.2
18671.2
18813.7
19020.7
19257.9
19483.3
19658.6
19758.5
19776.9
19727.5
19636.3
19526.3
19404.9
19265.1
19100.9
18922.8
18759.9
18647.8
31221.4
31351
31495.2
31615.6
31685.2
31704.9
31699.7
31696.6
31702.9
31701
31664
31576.5
31449.1
31312.4
31197.9
31125.3
31103
31135
31221.4
31351
31495.2
31615.6
31685.2
31704.9
31699.7
31696.6
31702.9
31701
31664
31576.5
31449.1
31312.4
31197.9
31125.3
31103
31135
)
;

boundaryField
{
    fixed
    {
        type            calculated;
        value           nonuniform List<scalar> 
108
(
31595.6
29578.2
28147.3
27596
27789.9
28326
28850
29202.1
29389.2
29494.3
29606.2
29795.5
30129.2
30711.5
31709.2
33163.7
34279.8
33602.7
31595.6
29578.2
28147.3
27596
27789.9
28326
28850
29202.1
29389.2
29494.3
29606.2
29795.5
30129.2
30711.5
31709.2
33163.7
34279.8
33602.7
29382.2
28576.5
28157.5
28314.5
28903
29633.1
30248.7
30619.8
30745.7
30700
30573.4
30444
30372.9
30403
30534.4
30664
30570.6
30129.7
29382.2
28576.5
28157.5
28314.5
28903
29633.1
30248.7
30619.8
30745.7
30700
30573.4
30444
30372.9
30403
30534.4
30664
30570.6
30129.7
31125
31077.9
30769.2
30660.4
30876.3
31311.8
31785.2
32117.8
32188.2
31967.4
31516.1
30942.2
30348.2
29817
29451.7
29407.7
29820.8
30578
31125
31077.9
30769.2
30660.4
30876.3
31311.8
31785.2
32117.8
32188.2
31967.4
31516.1
30942.2
30348.2
29817
29451.7
29407.7
29820.8
30578
)
;
    }
    inside
    {
        type            calculated;
        value           nonuniform List<scalar> 
540
(
33299.4
32933.6
32348.4
32049
32087.9
32321.2
32572.2
32685.9
32559.1
32168.7
31581.5
30922.9
30327.7
29929
29889.1
30389.7
31492.8
32765.6
33299.4
32933.6
32348.4
32049
32087.9
32321.2
32572.2
32685.9
32559.1
32168.7
31581.5
30922.9
30327.7
29929
29889.1
30389.7
31492.8
32765.6
39948.5
37236.8
34912.1
33824.6
33654.9
34065.8
34723.8
35308.4
35534.2
35195.8
34265.7
32957.2
31641.4
30699.3
30493.5
31479.5
34277.1
38689.8
39948.5
37236.8
34912.1
33824.6
33654.9
34065.8
34723.8
35308.4
35534.2
35195.8
34265.7
32957.2
31641.4
30699.3
30493.5
31479.5
34277.1
38689.8
35315.8
37886
36338
35582.8
35651.1
36486.4
37804.8
39126.5
39897.4
39604.7
38022.7
35522
33011.5
31404.8
31274.5
33252.1
37536.6
35265.1
35315.8
37886
36338
35582.8
35651.1
36486.4
37804.8
39126.5
39897.4
39604.7
38022.7
35522
33011.5
31404.8
31274.5
33252.1
37536.6
35265.1
36855.4
35097.4
35278.5
36159.3
37465.3
39322
41624.5
43842.9
45182.1
44810.3
42308.5
38274
34339.2
32069.5
32052.9
34805.2
40875.8
42278.6
36855.4
35097.4
35278.5
36159.3
37465.3
39322
41624.5
43842.9
45182.1
44810.3
42308.5
38274
34339.2
32069.5
32052.9
34805.2
40875.8
42278.6
36908.9
35092.2
35379.8
37049.8
39641.7
42855.5
46257.2
49162.8
50654.9
49796.9
46206.8
40777.9
35687.2
32843.2
32517.9
34429.4
38249.5
39770.7
36908.9
35092.2
35379.8
37049.8
39641.7
42855.5
46257.2
49162.8
50654.9
49796.9
46206.8
40777.9
35687.2
32843.2
32517.9
34429.4
38249.5
39770.7
36746.9
36200.6
37014.4
39350.1
43011.9
47419.7
51609.9
54646.5
55655.7
53879.4
49206.4
42822.1
37083.3
33769.6
32822.4
33584.3
35589.2
37182.2
36746.9
36200.6
37014.4
39350.1
43011.9
47419.7
51609.9
54646.5
55655.7
53879.4
49206.4
42822.1
37083.3
33769.6
32822.4
33584.3
35589.2
37182.2
36740.4
37631.9
39486
42740.7
47289.6
52388.9
56764.8
59331.6
59400.6
56567
51058.7
44240.3
38328.6
34729.2
33238.5
33247.8
34348.5
35808.8
36740.4
37631.9
39486
42740.7
47289.6
52388.9
56764.8
59331.6
59400.6
56567
51058.7
44240.3
38328.6
34729.2
33238.5
33247.8
34348.5
35808.8
36741.6
38754
41808.2
46098.4
51267.5
56442
60391.5
62117.7
61171.4
57505.2
51628.7
44929.2
39268.6
35654.4
33877.3
33456
34039.7
35243.5
36741.6
38754
41808.2
46098.4
51267.5
56442
60391.5
62117.7
61171.4
57505.2
51628.7
44929.2
39268.6
35654.4
33877.3
33456
34039.7
35243.5
36804.3
39371.5
43229.2
48231.8
53625.2
58405.9
61585.6
62441.8
60755.3
56739.5
51077.5
45031.3
39995.7
36633.3
34792.2
34114.2
34318.2
35214.1
36804.3
39371.5
43229.2
48231.8
53625.2
58405.9
61585.6
62441.8
60755.3
56739.5
51077.5
45031.3
39995.7
36633.3
34792.2
34114.2
34318.2
35214.1
37005.1
39641.4
43646.8
48672.9
53753.3
57850.5
60226.5
60458.7
58511.4
54740.3
49864.8
44889
40726
37776.5
35968.4
35082.9
34952.7
35542.7
37005.1
39641.4
43646.8
48672.9
53753.3
57850.5
60226.5
60458.7
58511.4
54740.3
49864.8
44889
40726
37776.5
35968.4
35082.9
34952.7
35542.7
37371.3
39759.5
43342.9
47708.9
51966.5
55225.8
56945.8
56907.2
55190.7
52183.3
48492.4
44781.8
41558
39050.3
37277.7
36192.2
35781.5
36117.9
37371.3
39759.5
43342.9
47708.9
51966.5
55225.8
56945.8
56907.2
55190.7
52183.3
48492.4
44781.8
41558
39050.3
37277.7
36192.2
35781.5
36117.9
37960.3
39901.4
42719.5
46044
49230
51644.1
52895.7
52866.4
51687.2
49688.6
47267.7
44758.1
42382
40281.3
38573.1
37374.6
36799.4
36956.5
37960.3
39901.4
42719.5
46044
49230
51644.1
52895.7
52866.4
51687.2
49688.6
47267.7
44758.1
42382
40281.3
38573.1
37374.6
36799.4
36956.5
38988.9
40383.1
42342.9
44598.5
46750.7
48398.5
49278.2
49337.5
48717.4
47641.2
46284.5
44738.9
43073.8
41408.8
39924.7
38814.6
38230.6
38270.9
38988.9
40383.1
42342.9
44598.5
46750.7
48398.5
49278.2
49337.5
48717.4
47641.2
46284.5
44738.8
43073.8
41408.8
39924.7
38814.6
38230.6
38270.9
41205.4
42053
43209.5
44493.7
45673.6
46534.2
46966.8
47011
46795
46415.9
45873.3
45116.5
44146.1
43063.2
42036.2
41235.5
40789.3
40772.2
41205.4
42053
43209.5
44493.7
45673.6
46534.2
46966.8
47011
46795
46415.9
45873.3
45116.5
44146.1
43063.2
42036.2
41235.5
40789.3
40772.2
44631.4
44967.7
45406
45830.1
46119.4
46220.3
46184.8
46125.6
46128.8
46188.5
46214.3
46097.7
45799.6
45383
44963.7
44640.2
44464.9
44459.2
44631.4
44967.7
45406
45830.1
46119.4
46220.3
46184.8
46125.6
46128.8
46188.5
46214.3
46097.7
45799.6
45383
44963.7
44640.2
44464.9
44459.2
)
;
    }
    outside
    {
        type            calculated;
        value           nonuniform List<scalar> 
540
(
33803.3
31114.6
29171.1
28171.6
27959.6
28195.6
28562.3
28885.7
29123
29305.9
29492.8
29746.4
30141.6
30802.1
31952.7
33814.1
35856.5
36077.1
33803.3
31114.6
29171.1
28171.6
27959.6
28195.6
28562.3
28885.7
29123
29305.9
29492.8
29746.4
30141.6
30802.1
31952.7
33814.1
35856.5
36077.1
33390.8
30334.6
28567
27745.1
27701.8
28121.6
28654.9
29112.2
29452.1
29701.7
29904.1
30106.3
30378.2
30859.3
31835.1
33719
35929.1
35859.5
33390.8
30334.6
28567
27745.1
27701.8
28121.6
28654.9
29112.2
29452.1
29701.7
29904.1
30106.3
30378.2
30859.3
31835.1
33719
35929.1
35859.5
29954.9
29526.5
28100.5
27226.3
27186.9
27778.4
28561
29265.2
29816.9
30224.3
30509.5
30700.8
30867.5
31173.1
31947.1
33777
35392.6
29564.9
29954.9
29526.5
28100.5
27226.3
27186.9
27778.4
28561
29265.2
29816.9
30224.3
30509.5
30700.8
30867.5
31173.1
31947.1
33777
35392.6
29564.9
30049.7
28864.8
27515.8
26560.1
26521.8
27272.5
28292.1
29252.8
30047.1
30658.9
31089.2
31354.7
31545.8
31883.1
32740.4
34683.7
36514
33212.6
30049.7
28864.8
27515.8
26560.1
26521.8
27272.5
28292.1
29252.8
30047.1
30658.9
31089.2
31354.7
31545.8
31883.1
32740.4
34683.7
36514
33212.6
31179
28874.6
27109.7
25907.5
25771.8
26587.2
27774.2
28967.2
30028.8
30921.5
31633.1
32176.1
32654.1
33284.2
34272.1
35572.1
36070.3
34087.8
31179
28874.6
27109.7
25907.5
25771.8
26587.2
27774.2
28967.2
30028.8
30921.5
31633.1
32176.1
32654.1
33284.2
34272.1
35572.1
36070.3
34087.8
31045.7
28983.8
27167
25714.9
25267.6
25927.8
27145
28502.5
29830.6
31080.8
32243.4
33321.3
34338.7
35264.1
35893.2
35962.8
35186.7
33349.9
31045.7
28983.8
27167
25714.9
25267.6
25927.8
27145
28502.5
29830.6
31080.8
32243.4
33321.3
34338.7
35264.1
35893.2
35962.8
35186.7
33349.9
30898.2
29142.1
27504.7
26012.1
25240.7
25582.1
26679.3
28100.6
29646.9
31263.8
32937.3
34605.6
36068.6
36939.1
36881.2
35987.5
34574.6
32803.4
30898.2
29142.1
27504.7
26012.1
25240.7
25582.1
26679.3
28100.6
29646.9
31263.8
32937.3
34605.6
36068.6
36939.1
36881.2
35987.5
34574.6
32803.4
30909.5
29377.3
27923.5
26533.6
25619.1
25664.8
26560.5
27945.9
29611.1
31481.5
33495.1
35457.6
36940.7
37446.3
36871.3
35625.3
34136.9
32540.6
30909.5
29377.3
27923.5
26533.6
25619.1
25664.8
26560.5
27945.9
29611.1
31481.5
33495.1
35457.6
36940.7
37446.3
36871.3
35625.3
34136.9
32540.6
30964.7
29607.1
28302.9
27069.3
26189.8
26074.9
26771.3
28039.4
29681.3
31585.9
33613.3
35454.9
36625.3
36777.9
36055.7
34915.3
33666.7
32348.5
30964.7
29607.1
28302.9
27069.3
26189.8
26074.9
26771.3
28039.4
29681.3
31585.9
33613.3
35454.9
36625.3
36777.9
36055.7
34915.3
33666.7
32348.5
30869.7
29695.8
28553.1
27512.4
26778
26632.7
27165.6
28244
29703.6
31406.4
33159
34629.6
35433.9
35420.7
34809.8
33949.1
33018.8
32001.2
30869.7
29695.8
28553.1
27512.4
26778
26632.7
27165.6
28244
29703.6
31406.4
33159
34629.6
35433.9
35420.7
34809.8
33949.1
33018.8
32001.2
30437.4
29497.4
28578.5
27779.3
27246.9
27145.7
27542.6
28373.7
29525.4
30867.7
32204.5
33257.6
33783.9
33746.7
33323.2
32730
32066.5
31310.8
30437.4
29497.4
28578.5
27779.3
27246.9
27145.7
27542.6
28373.7
29525.4
30867.7
32204.5
33257.6
33783.9
33746.7
33323.2
32730
32066.5
31310.8
29530.1
28883.8
28263
27750
27435.3
27398.8
27675.1
28242.7
29045.4
29986.1
30898.2
31578.4
31892.3
31847.1
31556.1
31142.6
30669.4
30135.3
29530.1
28883.8
28263
27750
27435.3
27398.8
27675.1
28242.7
29045.4
29986.1
30898.2
31578.4
31892.3
31847.1
31556.1
31142.6
30669.4
30135.3
28107.7
27795
27508.6
27286
27166.2
27181.8
27354.3
27696
28197.1
28788.9
29332.8
29686.2
29786.3
29663.7
29398.8
29074.3
28744.3
28424.4
28107.7
27795
27508.6
27286
27166.2
27181.8
27354.3
27696
28197.1
28788.9
29332.8
29686.2
29786.3
29663.7
29398.8
29074.3
28744.3
28424.4
26407.1
26408.5
26415.1
26420.6
26428.9
26452.9
26520.2
26672.3
26930.6
27245.9
27500.1
27588.3
27488.4
27253.3
26965.9
26705.5
26524.5
26433.7
26407.1
26408.5
26415.1
26420.6
26428.9
26452.9
26520.2
26672.3
26930.6
27245.9
27500.1
27588.3
27488.4
27253.3
26965.9
26705.5
26524.5
26433.7
25203.8
25441.2
25660.9
25804
25828.9
25739.5
25588.9
25452.5
25392.3
25427.5
25512.7
25551.9
25470.7
25279.6
25062.9
24916.5
24896.8
25005.1
25203.8
25441.2
25660.9
25804
25828.9
25739.5
25588.9
25452.5
25392.3
25427.5
25512.7
25551.9
25470.7
25279.6
25062.9
24916.5
24896.8
25005.1
)
;
    }
}


// ************************************************************************* //
