/*--------------------------------*- C++ -*----------------------------------*\
| =========                 |                                                 |
| \\      /  F ield         | OpenFOAM: The Open Source CFD Toolbox           |
|  \\    /   O peration     | Version:  2312                                  |
|   \\  /    A nd           | Website:  www.openfoam.com                      |
|    \\/     M anipulation  |                                                 |
\*---------------------------------------------------------------------------*/
FoamFile
{
    version     2.0;
    format      ascii;
    arch        "LSB;label=32;scalar=64";
    class       volScalarField;
    location    "0.5";
    object      sigmaEq;
}
// * * * * * * * * * * * * * * * * * * * * * * * * * * * * * * * * * * * * * //

dimensions      [1 -1 -2 0 0 0 0];

internalField   nonuniform List<scalar> 
1620
(
32622.2
33128.6
33323.7
32699.6
31549.1
30350.9
29350.5
28641.8
28900.6
29662.7
29662.2
30404.6
31378.8
32418.4
33213.2
33352.3
32739.9
31867.8
31254.6
31011.7
30920
30684.8
30229.9
29633.5
28995.8
28441.6
28857.3
29759.4
29843.8
30465.9
31306.5
32268.2
33090.8
33364.2
32977.7
32530.3
31067.9
31223.9
30971.8
30624.4
30273.3
29979.3
29759.7
29599.5
29573.8
29821.1
30087.9
30382.1
30705.8
31095.6
31549.5
32023.4
32525.5
32753.9
29987.6
30659.2
30591.3
30382.7
30162.3
29973.7
29815.1
29665.7
29613.2
29809.3
30014.2
30254.8
30544
30906.5
31323.7
31734.7
32118.5
32345.7
30486.7
30056.5
29489.8
29099.5
28900.8
28829.9
28846.8
28969.5
29395.9
28393
28008.8
27872
27790.1
27744.8
27795.9
28059.7
28633.3
29378.3
29808.9
29739
29490.5
29302.6
29210.8
29182.3
29190
29253.5
29517.8
28348.5
28000.2
27903.7
27890.1
27955.9
28168.7
28640.1
29421.6
30245.4
32150
32913.1
33146
32323.1
30892.4
29403.1
28115.2
27174.9
27672.8
28419.6
28228.7
28982.5
29984.7
31059.3
31963.5
32337.9
31984.2
31236.3
30714.2
30582.8
30522.6
30221.8
29618.6
28805.8
27904.1
27087
27690.6
28581.3
28500
29132.1
29994.6
30969
31872.2
32360.4
32209.8
31881.4
32744.9
33706.1
32402.1
31212.4
30304.4
29646.1
29168.7
28781.1
28614.1
28958.7
29463.2
29968.5
30477.1
31120.6
32020.8
33295.6
35060.6
34665.6
30880.1
32534.8
31785.7
30953.4
30300
29813.3
29414.5
29001.2
28712.6
28860.4
29198.4
29617.2
30098.6
30727.6
31593.8
32797.6
34389.4
34013
30421.1
30280
29857.9
29430.2
29078.7
28769.1
28476.6
28265.5
28480.9
27365.2
27258
27476.8
27740.1
27964.6
28156.3
28368
28671.6
29139.6
29675.5
29931.6
29837.5
29606.8
29365.4
29117.8
28845.1
28596.9
28576.4
27254.8
27174.7
27458.5
27833.9
28210
28588.6
29029.5
29570.6
30115.9
30844.1
31845
32233.2
31445.7
29938.1
28272.4
26761.2
25616.4
25986.1
27434.2
26734.8
27430.3
28404.2
29414.9
30262.5
30674.8
30444.5
29793.8
29405.9
29489
29577.7
29314.7
28659.4
27728.6
26672.1
25674.9
25959
27732
27124.9
27704.3
28584.7
29511.2
30318.6
30783.5
30713.6
30445.5
32687.8
36465.5
34141.4
31941.4
30413.5
29366
28609
27954.7
27507.5
27881.7
28642.8
29431
30147.6
31013.3
32290.5
34345.5
37271
33733.2
30213.2
34059.5
32998.1
31529
30430.3
29649.2
29027.7
28365.4
27711.9
27711.9
28158.9
28859.5
29594.4
30457.8
31648.9
33524.1
36153
33273.1
29874.9
30440.6
30386.3
29921.4
29367.3
28801.3
28222
27671
27479
26303.6
26473
27102.5
27720.6
28222.3
28558.3
28665
28477.4
28316
29000.8
30019.7
30314.1
30053.7
29618.4
29132
28604.9
28060.1
27723.9
26125.2
26270.5
27013.2
27810.8
28506.2
29062.9
29462.4
29592
29502.4
28989.6
30066.4
30688.7
30193
28841.7
27178.4
25628.1
24480
24546.3
27283
25824.8
26244.8
27100.3
28003.5
28718.8
28997.7
28681.7
28012.2
27709.7
28000.1
28303.7
28187.5
27610.7
26721.1
25704.8
24741.6
24535.9
27475
26362.7
26621.4
27424.6
28288.4
28956.8
29231.6
29000
28624
30905.8
37215.5
35323.4
32551.8
30565.4
29219.9
28265.7
27430.2
26706.2
26963
27872.7
28953.2
29864.3
30874.4
32338.4
34694
37239.5
31215.9
28644.4
34116.9
33708.5
31947.5
30544.8
29564.7
28818.4
28031.1
27080.6
26808
27187
28133.8
29119.2
30156.1
31484.3
33522.7
35716
30880.6
28808.1
30489.7
31127.8
30674.8
29896.2
29111.3
28366.5
27644.6
27069.9
25710.6
26012.6
26931.6
27791.3
28497.3
28976.5
29012
28257.3
27203.7
27989.5
30130.9
31045.4
30758.6
30106
29421.8
28754.6
28080.1
27439.5
25589.2
25712.6
26766
27873.2
28818.3
29550.7
29922.3
29490.3
28433.9
27319.6
28381.8
29131.8
28891.8
27757.8
26223.4
24791.5
23800
23781.6
26662
25587.4
25452.4
26047.6
26779.3
27349.7
27489.5
27062.9
26365
26132.7
26564.2
27038.9
27084.3
26658.4
25930
25101.9
24332.3
23995.4
26092.6
26267.9
25905.5
26452.6
27199.4
27752.2
27871.5
27481.3
27005
28877.2
35573.5
35256
32701.8
30585
29104.2
28070.6
27176.6
26293.8
26313.4
27237.7
28524.2
29601.6
30691.9
32165.4
34280.1
35321.6
28794.1
26963.7
32680.1
33457.7
31953.4
30510.1
29477.1
28718.9
27938
26879.5
26258
26451.8
27446.8
28622.8
29778.5
31101.5
32830.3
33646.2
28574.5
27664.9
30554.8
32031.9
31646.4
30666.8
29705.9
28867.3
28076.3
27268.3
25717.6
25892.3
26960.5
27953.2
28774.7
29365.7
29374.2
28102.6
26090.6
26941.9
30381.5
32041.5
31717.9
30838.1
29989.2
29248
28539.8
27767
26036.5
25528
26722.3
28008.4
29122.7
30010
30377.4
29380.7
27317.2
26080.5
27074.9
27825.8
27725.3
26790.7
25445.3
24199.3
23397.5
23405.4
25182.9
25976.4
25082.6
25275.2
25740.4
26120.9
26137.9
25674.7
25059.2
24949.4
25459.5
26015.2
26177.7
25912.7
25389.4
24793.8
24241.2
23930.2
24620.6
26598.3
25583
25692
26223.4
26650.3
26674.8
26230.8
25770
27240.5
32932.7
33975.3
32197
30297.8
28863
27854.4
26992
26085.5
25859.3
26740.8
28090.9
29302.1
30416.1
31740
33228.8
32737.3
26867.7
25558.2
30569.3
32262.6
31395.7
30187.9
29255.4
28578.5
27893
26901.1
25985.4
26010.8
26784.4
28046
29261.8
30471.5
31636.8
31186.7
26815
26730.9
30725.3
32988.4
32697.4
31568.1
30459.7
29526.7
28662.8
27706.4
26112.6
25931.7
27103.8
28174.8
29058.6
29730.9
29757.1
28090.3
25174.6
26088.8
30861.9
33258.1
32859.8
31744.8
30730.7
29907.3
29160.5
28357.7
27117.1
25470.7
26806.1
28181.6
29411.8
30431
30822.2
29350.5
26386.1
25288.8
26179.6
26841.6
26776.7
25985.2
24821.8
23757.6
23120.8
23191.9
24493.2
26764.4
25151.9
24827.8
24960
25108.7
25019.9
24611.8
24192.6
24250
24793.2
25342.8
25548.7
25397
25044.9
24646.5
24274.5
24044.9
24382.6
26518.8
25639.1
25193.4
25416.2
25690.1
25665.2
25276
24942.2
26084.7
30438.9
32067.7
31138.3
29663.5
28414.9
27516.3
26761
25934.9
25535.1
26337.2
27608
28918.4
30006.4
31053.8
31768.1
30271.4
25487.1
24574.4
28513.5
30559.9
30364.8
29550.4
28830.5
28306.6
27783.6
26968
25936.7
25796.8
26166.2
27354.8
28567.8
29596.5
30178.5
29004.6
25595.5
26115.9
31080
33925.2
33677.5
32439.4
31209
30169.3
29215.1
28175.9
26626.5
25891.5
27300.1
28434.8
29371.3
30118.7
30219.2
28309.7
24575.2
25566.4
31645.1
34628
34067.2
32708.3
31519.4
30586.5
29777.6
28971.7
28039.2
25202.3
26908
28367.2
29699.5
30844.9
31306.7
29482.7
25715.3
24875.3
25627.9
26138.1
26028.6
25312.4
24290.8
23379.4
22884.1
23032.7
24232.2
26976.7
25687
24743.9
24532.1
24452
24283.1
23989.6
23807.6
24019.1
24544.7
25012.6
25180.8
25066.7
24816.7
24555.9
24327.2
24198.6
24487.8
25309.2
26045.1
25014.7
24855.5
24960.8
24918.6
24651.8
24493.1
25356.1
28510.2
30125.8
29797.3
28765.7
27765.1
27028.5
26432.4
25754.8
25267
25945.8
27073.5
28433.3
29459.6
30171.4
30194.1
28298.3
24685.4
24071.9
26914.7
28844.2
29103.1
28675.4
28205.7
27871.4
27546.8
26961.3
25996.2
25596.7
25678.1
26563.7
27704.4
28546.3
28697
27316.1
24851.9
25881.9
31788.7
34900.9
34537.3
33186.8
31852.7
30710
29670.3
28586.5
27118.8
25500.1
27523.9
28748.2
29769
30624.4
30889.9
28930.3
24412.9
25485.2
32887.2
36144.6
35256.4
33639.5
32273.2
31216.6
30332
29500.1
28674.6
24945.9
26902.3
28563
30034
31340.7
31981.3
29956.5
25341
24743.5
25304.7
25609.6
25397.8
24706.6
23795.8
23018.3
22648
22883.8
24030.7
25552.8
26862.7
25101.5
24530.3
24259.4
24042.9
23873.7
23886.5
24177.2
24615.7
24935
24997.7
24855.3
24647.3
24476.3
24358.3
24317.5
24589.5
24944.7
26440.6
25205.9
24597
24528.8
24501.3
24382.3
24377.8
24991.8
27171.2
28469.3
28424.4
27729.3
26965
26394
25954.5
25442.3
24985.9
25484.3
26552.8
27854.9
28810.5
29225.6
28809.9
27005.3
24475.8
24058.6
25926.5
27440
27852.8
27686.1
27431.6
27278.3
27146.8
26801.8
26046.8
25368.8
25458.6
25772.1
26723.4
27436.3
27401.3
26185.1
24534.2
26173.7
33233.3
36126.9
35371.4
33837.6
32380.8
31126.3
29993.8
28847.7
27417.8
24898.8
27797.1
29182.3
30347.3
31388.9
31975.8
30270.4
24870.6
25983.8
34969.4
37885.8
36403
34493.1
32940.6
31749.9
30782.5
29900.6
29085.6
26867.7
26619.2
28795
30497.6
32062.4
33123.9
31193.3
25357.4
24751.4
25059.1
25121.2
24787.2
24115.9
23325.7
22695.2
22446.9
22765.1
23929.5
25386.3
28843.8
26137.6
25012.6
24548.3
24288
24194.6
24300.1
24566.4
24851.9
24984
24913.3
24716.3
24522.7
24414.7
24386.4
24427.8
24727.6
25488
25542
25760.4
24682.5
24393.9
24388.5
24402.4
24486.6
24909
26304.5
27166.8
27165.6
26676.6
26102.2
25665.9
25340.1
24968.5
24629.2
25022.6
26147.6
27232.5
28129.4
28361.5
27805.8
26394.6
24759.5
24446.7
25516.1
26473.5
26791.4
26727.4
26610.1
26590.6
26613.2
26486
26001.2
25284.6
25352.7
25227.2
25742.7
26372.1
26394.4
25567.3
24552.5
27491.5
36282.8
37926.3
36383.9
34512.7
32851
31436
30173.4
28922.1
27498
25067.6
28071.3
29865.6
31231.7
32591.6
33775.6
32992.6
26379.7
27357
38829.7
39919.5
37506
35232.6
33464.2
32128
31074.6
30145.3
29333.4
28774.9
25580.2
28995.4
31166.7
33174.4
35129
34282.1
26024.8
24695.2
24730.5
24563.9
24145
23542.6
22920.6
22473.2
22371.7
22804.3
24055.4
25908.6
28431.1
28451.5
26122.1
25308.7
24920.1
24775.9
24825.2
24978.2
25091.2
25054
24879.1
24649.2
24477.3
24429
24491.4
24644.7
25037.6
26045.2
25840.8
26117.3
25164.8
24547.3
24467.9
24525.2
24601.1
24980
25726.9
26145.8
26083.5
25721
25292.3
24947.2
24683.3
24418.3
24227.5
24596.3
25734.5
26707.9
27520.2
27678.2
27180.2
26242.8
25302.6
25045.5
25494.4
25912.6
26029.7
25962.5
25898.7
25938.4
26042.6
26068.9
25840.6
25310.9
25059.9
25156.4
25013.6
25438.6
25610.3
25247.9
24746.4
33276.8
42512.9
40528.2
37680
35258.8
33291.1
31656.4
30219.4
28833.7
27399.2
25495.1
27516.1
30863.1
32466.1
34324.4
36586.1
38438.6
31896.3
32023.4
45642.1
41909.4
38423.5
35725.6
33740
32282.9
31172
30230.1
29380.1
28891.6
24902.5
28518.7
31661.1
34417.2
37875.1
41820.2
29464.8
24477.9
24284.2
23973.5
23560.8
23112.7
22723.6
22506
22601.5
23209.1
24528.5
26267.3
25580
34525.1
28680.1
26736.8
25961.8
25571.6
25400.1
25340.8
25274.3
25124.4
24912.6
24710.7
24604.6
24642.8
24817.6
25116.2
25651.4
26813.8
28557.4
25323.3
25797.7
25109.7
24756.6
24664.6
24590.5
24957
25219
25329.6
25220.6
24953.9
24634.2
24341.6
24097.7
23905.4
23875.1
24309.3
25355.8
26541.9
27100.4
27244.9
26873.1
26274
25768.6
25542.2
25576.1
25647.1
25614.9
25516.4
25446
25468.1
25567.2
25657.9
25624.5
25387.4
25147.9
25151.6
24922.6
24882
25022.8
24945.1
24820.4
51305.8
46486.3
41715.7
38190.3
35542.6
33437.3
31659.9
30071
28549.6
27036.9
25450
25265.8
31781
33573.7
35738.1
38777.2
42991.1
48207.3
39213
45201
41287.1
38050.9
35468
33539.3
32106.3
31009.2
30097
29250.9
28585.1
28604.8
26064.7
30404.8
33590.5
37044.6
41887.5
36834.2
24422
24057.7
23709.2
23403.6
23165
23012.6
22990.7
23199.3
23759.1
24632.2
25314.1
25111.3
41852.9
36287.2
29794.3
27747.4
26764
26161.8
25747.8
25448
25223.9
25059.3
24970.6
24990.7
25143.7
25432.2
25859.2
26497
27607.6
29666.9
31077.1
25332.8
25890.5
25538.1
25126.5
24777.1
24770.4
24757.5
24713.7
24588
24397.1
24170.6
23938.6
23737.5
23630.7
23742.3
24230.5
25179.7
26705.9
27180.5
27159.8
26882.3
26440.7
26011
25707.6
25560.8
25491.9
25410.2
25311.7
25234.4
25219.1
25277.8
25385.3
25492.8
25551.8
25588.4
25589.7
25406.6
25166.9
25030.1
24940.2
24832.7
28052.5
33178
34769
34501.9
33507.7
32217.2
30811.3
29371.2
27918.9
26492.6
25245.1
24768.7
30514.4
33145
34246.6
35085.4
34236.7
29256.5
25871.6
30259.4
33425.4
33956.1
33289.8
32288.2
31301.6
30429.1
29664.4
28964.6
28332.7
28134.4
26459.4
26623
28508.5
29019
27527.1
24928.5
25209.6
24678.2
24205.7
23814
23497.2
23228.2
23011.5
22952.1
23251.5
24121.6
26275.8
33594
55906.4
57107
40499.7
32113.8
28666.4
26839.9
25758.7
25138.1
24820.6
24688.6
24667.1
24726.9
24871.3
25119.1
25489.5
26000.5
26715.4
27915.3
30314.1
30499.4
26692.6
26599.5
26287.6
25765.1
24980.2
24608.1
24315.1
24107.3
23967.8
23870.8
23796.7
23754.3
23791.2
23985.1
24426.5
25216.5
26883.8
28877.8
27616.5
27068.2
26550.2
26005.3
25519
25174.9
24983.9
24892.9
24852.6
24848.2
24888.8
24991.6
25168.7
25420.2
25732.5
26080.9
26508.9
26278
26285.9
26061.1
25747.5
25382
26055.1
26891.4
27825
28531.9
28866.3
28785
28348.4
27673.4
26874.4
26061.6
25390
25118.3
26568.7
30918.8
30387.7
29771.6
28525.1
26794.8
25664.4
25967.4
27219.3
28456.7
29205.7
29447
29344.2
29064.8
28720.1
28371.2
28058.8
27941.1
29036
26095.7
25752.9
25814.6
25694.6
25668.2
27680
26213.6
25820.6
26130.1
26577.6
26723
26471.8
25996.2
25487.7
25066.1
25200.2
26998.1
30771.2
33767.1
29677.4
28077.9
27570.4
27170.6
27115.7
27572.5
28472.3
29679.5
31022.1
32282.7
33282.6
34097.9
35181.9
37559.5
42734.6
51587.8
60307.2
60895
69499.6
51484.5
36864.2
30627.6
25710.8
24717.7
23830.7
23295.4
23170.3
23329.5
23608.6
23912
24230.1
24613.9
25162.5
26111.1
28706.8
33337.4
29236.9
27937.8
27151.3
26268.4
25261.1
24328.2
23689.6
23361.6
23234.1
23244.8
23393.8
23683.4
24096.1
24608.3
25199.7
25814.3
26363.3
26658.9
27073.1
27317.1
27112.7
26553.8
26336.9
25854.6
25471.7
25395.6
25594
25853.6
25992.9
25956
25782.9
25565.7
25443.8
25609.1
26336
28747.1
27814.1
27568.8
27403.1
26916.9
26124.9
25307.4
24890
25109.5
25802.3
26588
27180.1
27488.1
27561.1
27500.9
27432.4
27545.8
28591.8
29197.3
26627.2
26612.9
26737.8
26667.5
)
;

boundaryField
{
    fixed
    {
        type            calculated;
        value           nonuniform List<scalar> 
108
(
32621.4
33070.8
33233.8
32619.5
31482
30280.8
29256.7
28472.4
28277.4
29326.3
29591.6
30391.8
31372.1
32415.7
33225.4
33378.7
32756.8
31859.1
31230.2
30987.7
30900.1
30664.8
30211.4
29621.9
28987.8
28380.9
28226.3
29493.7
29699.2
30360.6
31210.6
32167.1
32977.1
33254.5
32917
32531.1
31076.6
31291.8
31044.6
30674
30299.6
29989.2
29760
29593.3
29540.7
29840
30103.2
30406
30748
31167.9
31666.6
32198.6
32743.1
32653.1
29893
30608.5
30591.4
30390.2
30166.1
29972.6
29810.2
29656.1
29573.6
29825.9
30028.1
30277.1
30583.6
30974.3
31433.2
31896.4
32318
32371
30457.6
30026.9
29465.3
29092
28907.7
28841.9
28853.2
28953
29272.2
28273.9
27940.7
27820.1
27748.9
27710.2
27760.4
28014.7
28574.9
29311
29751.1
29699
29460
29275.5
29181.3
29146.1
29144.5
29192.7
29425.6
28289.4
28004.3
27923.6
27910.4
27963.5
28150
28590.3
29359.4
30199.4
)
;
    }
    inside
    {
        type            calculated;
        value           nonuniform List<scalar> 
540
(
30440.7
30069.2
29555.1
29083.3
28714.2
28460.7
28343.5
28410.4
28742.5
27762.4
27432.1
27354.5
27447.8
27676.2
28037
28529.4
29093.7
29555.5
29678.7
29487.3
29192
28920.4
28716.1
28587.8
28548.7
28639.2
28963
27819.3
27608
27618
27791.4
28104.8
28561.7
29164.6
29843.6
30373.6
30331.7
30069.8
29622.1
29141
28680.1
28236.4
27836.7
27605.9
27774
26723
26580.5
26804
27193.7
27625.1
28055.2
28487.9
28916.9
29292.8
29464.2
29375.8
29146.8
28867.9
28586.3
28303.9
28030
27855.9
28024.1
26755.9
26753.3
27093.5
27590.9
28122.2
28650
29193.6
29747
30202.5
29700.9
29756.4
29518.6
29073.2
28519.3
27885.1
27222
26688.3
26644.4
25450.7
25590.1
26106.5
26764.1
27383.2
27864.6
28174
28319.5
28428
28667.6
28877.1
28864.3
28652.9
28327.6
27919
27452.6
27030.3
26980.9
25470.5
25761.3
26441.1
27267
28019.9
28613.2
29049.8
29334
29507.4
28519.8
29091.9
29307.4
29052
28498.8
27787.2
27046.1
26452.3
26400.7
24987.3
25231
25757
26483.7
27167.6
27639.6
27774.3
27532.9
27229.9
27510.2
28160.6
28525.3
28497
28221.5
27802.2
27310.1
26853
26768.7
25018.1
25460.4
26139.4
27079.4
27937.2
28536.9
28797.1
28654.3
28326.2
27241.8
28300.1
29033.1
29077.9
28639.2
27971.9
27292.3
26789.1
26846
25305.1
25556.5
25791.7
26378.4
26978.4
27361.4
27304.4
26692.9
25993.8
26298.7
27395.9
28195.6
28432.6
28299.6
27975.9
27578.5
27213.1
27189.6
25261.7
25930.3
26271.8
27050.3
27859.2
28398.4
28466.6
27907.3
27091.9
26156.6
27567.5
28747.1
29136.3
28911.3
28375.7
27800.2
27386.5
27488.4
25885.1
26385.1
26179.3
26464.1
26857.8
27068.1
26807.4
25899.2
24919.3
25268.9
26746.3
27956.9
28495.4
28564.1
28385.7
28105.4
27827.7
27823.1
25587.6
26866.5
26876.9
27226.9
27814.7
28210.1
28084.3
27200.4
26041.1
25361.2
26992.2
28496.3
29205.4
29239.2
28878.2
28403.5
28042.3
28158.6
26344.9
27484.9
26903.2
26754.4
26861
26837.7
26363
25241.3
24122.9
24552.8
26316.8
27860.1
28682.1
28964.4
28932.4
28742.1
28507
28479.6
25705.6
27777.1
27952.7
27700
27878.9
28030.1
27695.3
26582.7
25242.2
24867.1
26622
28326.9
29285.7
29568.8
29393.9
29017.8
28697.1
28832.2
26614.9
28672.7
28015.9
27311.2
27068.6
26784.1
26101.5
24845.4
23707.3
24232.9
26174.8
27936.5
28981.9
29455.4
29551
29421
29192.1
29097.7
25727.6
28435.5
29537
28686.4
28220.4
27987.4
27402.8
26120.9
24712.9
24676.6
26489.4
28289.1
29418.1
29913.6
29915
29636.7
29351.7
29463.6
26801.3
29928.7
29717.7
28309.6
27609.6
27039.4
26171.3
24853.7
23763
24359.5
26364.2
28219.1
29413
30040.3
30233
30132.5
29881.7
29689.2
25807.5
28725.2
31526.6
30604.1
29181
28302.1
27372.9
25930
24486.7
24773.8
26616
28437.2
29700.2
30382.1
30536.7
30341
30074.4
30091.4
27132.2
31310.4
32230.2
30075.1
28693.2
27742.8
26668
25330.2
24285.8
24892.9
26896
28754.9
30057
30800.6
31039.3
30919.1
30608.3
30299.2
25972.9
28618.1
33172.5
33867.7
31404.2
29367.8
27820.4
26132.1
24568.3
25111.3
26962.7
28872.8
30348.2
31221.5
31498.8
31350.3
31065.3
30857.6
27830.2
32681.7
35301.7
32966.7
30669.3
29136.6
27682.8
26203.9
25168.4
25703
27689.1
29635.6
31130.1
31950.3
32145
31925
31503.2
31059.7
26236.7
28603.5
33921.7
38032.6
35703.9
32011.2
29134.2
26810
24962.6
25482.6
27684.4
30013.6
31856
32951.7
33314.4
33136.6
32714.8
31790.7
29065.7
33780.3
38061.7
37039.6
34092.8
31843.4
29730.8
27637.1
26057.4
26394.7
28818.4
31333.3
33174.2
33978.8
33963.5
33492.7
32850.8
32229.6
26629.6
29067.9
33487.9
39873.9
41419.7
37558.1
32634
28415
25413.6
25801.5
29557.8
33150.3
35669.2
36981.4
37190.5
36582.6
35447.1
32059.6
31007.1
34831.5
39274.4
40702.5
39259.3
37369
34830.9
30874.4
26662.7
26449.7
30958.7
35624.8
38042.1
38387
37595.6
36410.6
35235.7
34349.7
26957.8
29787.6
33210.1
38669.3
44006.1
45019.2
40628.3
32187
25597.5
31271
41670.1
47714.7
49164
47776.2
44934.2
41458.3
37429.6
28462.4
33391.6
35140.8
38006.7
40365
41966.8
44353.4
48339.4
50438.1
36478.2
27680.4
47664.3
57851.9
55667.1
50340.5
45531.4
41936.6
39524.5
38739.8
26465.3
29559.9
32110.7
35422.6
39593.3
44433.2
49312.1
47060.9
26980.6
28368.9
33434.4
39456.2
43532.4
43923.3
41172
36876.7
31723.3
25254.8
34391.9
32897.2
32832.6
32634
32622.5
33082.5
33500.6
33085.3
30118.1
25962
28887.7
39374.2
48565.4
51731.6
50102.8
46834.7
44443.4
46613.6
26288.8
27048.8
28149.1
28977.4
29376
29327.6
28849.8
27775
26700.9
)
;
    }
    outside
    {
        type            calculated;
        value           nonuniform List<scalar> 
540
(
32603.5
32822.3
32807.8
32247.7
31210.5
29993.6
28821.3
27816.9
27375.6
28183.2
28392.9
29252
30232.6
31173.1
31879.1
32168.6
32043.1
31705.2
31320.5
30986.9
30716.2
30381.2
29897.9
29261
28507.2
27725.9
27335.9
28565.2
28740.7
29477.3
30356.9
31251.3
31974.8
32339.1
32385.4
32422.6
32099.7
32499.2
32522
31846.4
30606
29130.8
27661.5
26385.5
25925.9
26940.3
27038.4
27992.7
29087.8
30134
30963.6
31403.1
31394.2
31087.1
30760.9
30531.2
30302.9
29930.6
29329.8
28500.5
27498
26455.8
25937.1
27439.1
27458.9
28262.7
29233.1
30193.7
31004.2
31510.1
31690.5
31794.9
30775.4
31380.5
31555.1
30937.7
29642.1
27987.5
26266.9
24784.6
24384
25750.6
25458.2
26392.6
27553.9
28637.7
29477.1
29937.5
29955.8
29666.8
29455.6
29436.9
29353.1
29017.3
28360.2
27400.7
26229.8
25027.5
24434.8
26516.4
26011
26771.6
27837
28838.8
29624.7
30110.2
30290.6
30381
28917.6
29630.5
30035.5
29670.8
28528
26900
25188.7
23841.4
23691.1
25965.5
24770.6
25254
26274.2
27299
28068.1
28418.9
28300
27913.9
27756.9
27950.7
28092
27903.3
27323.8
26415.5
25326.1
24284.9
23845
27061.2
25498
25721.4
26670.9
27652.1
28366.5
28705.2
28685.3
28584.9
27247.6
27987.3
28540.4
28404.1
27479.1
26024.7
24516.2
23473.3
23497.2
27304
25015.7
24653.7
25284.2
26117.3
26769.3
27003.1
26752.9
26290.2
26172.8
26511.9
26848.4
26840.7
26431.1
25719.3
24887.9
24172.8
23925.6
28700.3
26083.9
25228.5
25731.8
26567.5
27204
27427.9
27241.3
26988.1
26010.8
26719.8
27309.5
27311.3
26599.2
25391.2
24159.7
23410
23452.8
29082.8
26029.8
24612.4
24644.9
25130.5
25584.4
25707.7
25415.4
25004.1
24979.4
25403.8
25856.3
26002.4
25790.3
25332.1
24804.1
24403.8
24296.8
30837.9
27707.6
25389.9
25095.5
25603.3
26113.5
26272.1
26038.4
25771.1
25225.8
25868.5
26406
26452.3
25899.9
24929.3
23958.1
23430.3
23403
31268.2
27730.6
25095.9
24402.4
24438.9
24622.5
24638.6
24397.3
24154.4
24270.8
24742.8
25229.2
25460.5
25403.3
25164.7
24890.6
24732
24753.9
33439.3
30253.8
26291
24874.2
24863
25171.4
25291.5
25119.1
24957.1
24823.5
25368.2
25784.5
25789.7
25320.1
24532.5
23777.1
23426.2
23293.3
34181.2
30165.5
26056.3
24575
24151.4
24046.3
23962.1
23820.2
23783
24034.9
24511.3
24954.8
25186.4
25205
25110.2
25017.8
25046.2
25216.3
36423.1
33659.3
28236.6
25244.8
24484.9
24508.2
24590
24530.2
24517.5
24704.8
25100.9
25335.9
25232.9
24780.3
24127
23560.7
23373.7
23107.6
37486.7
33099.1
27609.1
25215.3
24344.8
23977.8
23804.7
23752.5
23872.8
24192.4
24607.5
24937.8
25095.6
25117.1
25099
25134.4
25316.8
25648.2
39524.6
38152.9
31830.1
26502.2
24618.7
24242.1
24262
24306.1
24409.2
24726.2
24911.6
24926
24689.1
24235.3
23709.1
23337.8
23312.7
22851.6
41476.6
37012
30206.5
26446.8
25042.5
24426.9
24155.5
24125.8
24295.4
24583
24871
25046.6
25097.8
25088.6
25113
25248.7
25574.6
26115.5
42516.2
44111
37496.6
29253.3
25509.7
24451.2
24314.1
24392.7
24526.2
24682.5
24637.4
24451.5
24123
23714.4
23354.5
23204.5
23340.2
22585
48523
44529.1
34852.3
28377.5
26244.6
25333.4
24895.4
24757.4
24826.8
24994
25132.3
25168.9
25138.7
25114.2
25186.2
25429.1
25932.7
26820.3
43682.6
51059.5
46314.2
35304.7
27792.7
25285.5
24681.1
24617.3
24654.9
24480.1
24246.5
23959.6
23650.4
23390.3
23268.4
23366.9
23606.7
22492.4
62706.1
57839.7
42962.1
31830.7
28177.1
26721.9
25980.1
25578.7
25400.4
25348.5
25324.3
25272.1
25220.7
25238.4
25409
25814.1
26593.2
28126.7
39161.5
58723.6
59021.1
46805
33353.6
27375.4
25506.9
24931.2
24680.1
24486.4
24120.4
23848.4
23676.3
23623.5
23698
23855.6
23697.5
26826.5
106734
91440.8
59843.2
38275
31253.5
28825.2
27541.2
26719.3
26156.2
25765.5
25514.8
25387.2
25375
25502.5
25825.2
26440.5
27617.8
30483.8
26876.6
54788.8
66093
61636.1
44832.7
32297.2
27501.3
25761.7
24976.4
25592.8
25096.6
24650.1
24237.1
23843.6
23467.7
23363.3
27044.8
148832
272323
145186
72661.9
42723.5
34617.3
31561.1
29349.6
27799.6
26656.9
25831.6
25283.5
24958.9
24793.2
24749.6
24850.7
25233.4
26449
31876
28099.3
25694.1
29296.4
33306.8
34197.1
31143.3
28422.9
27019.8
26188.6
24002
24010.5
24485
25112.2
25496.7
25535.8
25453.6
25561.1
25868.8
51795.4
33858.1
25964.7
23556.3
23333.8
23071.3
22682.8
22313.6
22719.7
24666
27495.3
29728.6
30346.2
29222.1
27117.2
25237.1
24379.9
24065.3
31930.4
27630.9
25964.4
25596.5
25163.1
24755.5
24758.2
24690
24355.3
)
;
    }
}


// ************************************************************************* //
