/*--------------------------------*- C++ -*----------------------------------*\
| =========                 |                                                 |
| \\      /  F ield         | OpenFOAM: The Open Source CFD Toolbox           |
|  \\    /   O peration     | Version:  2312                                  |
|   \\  /    A nd           | Website:  www.openfoam.com                      |
|    \\/     M anipulation  |                                                 |
\*---------------------------------------------------------------------------*/
FoamFile
{
    version     2.0;
    format      ascii;
    arch        "LSB;label=32;scalar=64";
    class       volSymmTensorField;
    location    "0.5";
    object      sigma;
}
// * * * * * * * * * * * * * * * * * * * * * * * * * * * * * * * * * * * * * //

dimensions      [1 -1 -2 0 0 0 0];

internalField   nonuniform List<symmTensor> 
1620
(
(21615.6 37.238 -12.9309 22698.3 -3671.23 54139.6)
(20955.5 -676.366 1998.94 24738.5 -9975.03 50684.2)
(18460.5 -2611.29 5093.72 24613.6 -13204.7 43000.7)
(15076.7 -5038.6 8073.69 20683.6 -13498.1 32959)
(10627.3 -6893.19 10391.9 12561.3 -11966.8 21413)
(3671.14 -7521.4 11997.4 58.7945 -9589.6 7694.56)
(-7298.86 -6764.07 12986.8 -16811.9 -6896.16 -9284.49)
(-23537.6 -4865.68 13344.9 -38364.1 -4088.31 -31185)
(-33241.8 -2292.37 10476.7 -56377.8 -1095.35 -54037)
(-38012.1 2388.72 -13102.7 -58589.4 -1446.62 -53186.1)
(-30665.3 4532.85 -14400.6 -43338.8 -4493.24 -33124.1)
(-17337.2 6005.3 -13678.4 -25093 -7322.44 -14216.4)
(-6876.68 6472.2 -12341.8 -9483.81 -9918.99 1906.46)
(599.322 5772.17 -10364.2 2609.98 -12008.4 15501)
(6129.24 4108.85 -7722.02 11003.4 -13054.8 27126.5)
(11000.6 2091.02 -4597.34 16139.2 -12287 37300.3)
(15279 572.188 -1594.99 18495.2 -9095.8 45300.7)
(18396.4 36.8472 322.265 19483.8 -3744.06 50121.8)
(18712.6 50.077 442.086 19485.3 2395.63 50060.1)
(16243 -337.436 -1234.96 18587.3 7575.54 45352.9)
(12463.9 -1638.69 -4017.97 16448.2 10683.3 37806.7)
(8572.31 -3494.93 -7009.45 12393.5 11625.7 28951.7)
(4736.21 -5121.26 -9629.8 6029.88 10916 19462.6)
(-363.492 -5876.06 -11649.8 -3326.17 9164.7 8588.34)
(-8468.03 -5501.04 -13038.1 -16295.1 6827.64 -5019.55)
(-21821.8 -4154.24 -13780.8 -34472 4166.14 -24231.1)
(-28582.5 -2248.45 -11067.3 -51152.4 1101.52 -47894.4)
(-34570.8 2329.6 12580 -56248.8 1283.67 -51507.3)
(-28849.5 5034.32 14023 -44021.4 4161.75 -36148.1)
(-17361.6 7004.46 13584.1 -27365.9 6937.76 -19545.2)
(-7652.64 7822.74 12577.6 -11777.3 9610 -4048.94)
(-277.668 7260.82 10975.1 1171.98 11970.5 9948.37)
(5491.76 5447.95 8654.9 10716.2 13499.1 22735.9)
(10818.9 2989.25 5624.49 16764 13245.9 34734)
(15867.5 943.336 2386.78 19611.3 10125.5 45119.8)
(19783.3 120.747 132.066 20879 3940.36 52121.8)
(9652.66 -1143.84 951.394 27872.5 -15158.6 23262.4)
(6939.04 -6813.31 1983.83 32396.9 -8288.92 8193.32)
(5663.11 -11144.9 2200.16 25623 -5374.35 1981.09)
(5190.33 -13871.6 2313.4 16302.1 -3883.99 -3630.06)
(3614.46 -14790.2 2373.98 4457.7 -2885.88 -10721.8)
(540.184 -13850.3 2397.97 -8866.78 -2110.97 -19205.8)
(-4124.94 -11205.2 2388.14 -22446.8 -1446.94 -28576.9)
(-9404.96 -7234.36 2276.45 -34194.6 -822.141 -37312.8)
(-11202.1 -2467.6 1310.15 -39493.3 -208.201 -41183.3)
(-12447.4 2629.66 -2166.89 -40795.9 -289.59 -42480)
(-12728.5 7390.94 -2827.47 -37693.1 -970.405 -40932.5)
(-8920.54 11375.3 -2914.81 -27460.7 -1681.84 -33782.2)
(-5125.42 14059 -2900.4 -14766.9 -2446.02 -25340.2)
(-2496.94 15056.4 -2835.62 -1843.13 -3332.22 -17306)
(-1118.34 14193.5 -2713.81 9927.49 -4453.2 -10357.1)
(-697.524 11493.2 -2512.45 19389.3 -6079.45 -4682.14)
(1123.49 7136.64 -2176.6 26957.8 -9164.16 2276.39)
(3948.98 1291.24 -937.708 22661.3 -16139 17905.2)
(3446.54 -1085.02 -794.463 20879.6 14673.9 16626.5)
(-53.5727 -6743.74 -1876.17 24890.8 7985.5 798.798)
(-1299.87 -11070.1 -2089.91 18245.1 5068.87 -5365.81)
(-1052.92 -13799.1 -2206.9 9717.35 3612.56 -10197.3)
(-1103.64 -14735.4 -2285.87 -529.392 2672.45 -15683.4)
(-2015.23 -13823.9 -2336.34 -11631.8 1956.81 -21920)
(-4306.72 -11208.4 -2349.45 -22797.2 1339.82 -28838.7)
(-7701.17 -7259.46 -2244.25 -32631.7 743.113 -35627.3)
(-8898.45 -2497.8 -1227.87 -37307.6 132.585 -38861.8)
(-10040.8 2588.44 2221.25 -38461.6 205.915 -39991.5)
(-10092.7 7341.94 2823.41 -35122.9 848.16 -38202.1)
(-6679.86 11316.4 2902.96 -25304.5 1520.89 -31445)
(-2958.2 14002.9 2899.4 -12739 2252.07 -23096.9)
(3.92039 15023.4 2855.11 456.593 3109.05 -14752.8)
(2029.63 14198.9 2757.63 12830.9 4199.07 -7169.08)
(3276.22 11543.5 2581.21 23107.6 5783.19 -666.283)
(5751.84 7235.79 2278.24 31357 8800.86 6940.95)
(9281.4 1458.1 1155.19 27937.6 15844.9 23261)
(-8681.05 -110.255 -1472.32 -7842.84 3253.59 21581.2)
(-11289.2 -963.293 -3325.87 -8738.76 8111.85 15776.3)
(-15415.4 -2735.01 -6047.49 -11621 10549.7 6301.11)
(-18931 -4835.44 -8685.14 -16200.3 10788 -3579.6)
(-21039.9 -6385.83 -10804.2 -21901.3 9617.95 -12269.5)
(-21259.6 -6786.99 -12330.3 -27263.5 7714.34 -18667.2)
(-18767.3 -5882.99 -13323.5 -30109.6 5491.53 -21471.4)
(-13782.9 -3927.33 -13807.9 -29724 3157.8 -21062.7)
(-5302.05 -1628.51 -10972 -29058.3 718.576 -25557.9)
(-10490.4 1483.42 11950.3 -31765.8 786.096 -26586.8)
(-16981 4328.22 12708.8 -33854.8 2969.14 -27357.7)
(-21688.8 6507.18 12355.4 -33908.1 5158.95 -27941.1)
(-24418.8 7565.11 11584.8 -30950.2 7320.05 -25397.5)
(-25263.5 7231.9 10334.3 -26163.7 9277.96 -19914.1)
(-24784.6 5604.52 8501.54 -21597.6 10639.8 -12499.1)
(-23267.8 3258.12 6074.56 -18776.7 10651.4 -4012.94)
(-21082.1 1176.5 3413.38 -18082.7 8230.46 4308.85)
(-20340 156.93 1561 -19526.6 2835.82 8895.1)
(-20825.2 -208.908 1636.91 -19980.3 -3977.46 8448.66)
(-22288.9 -1238.04 3635.62 -19216.7 -9261.83 3241.71)
(-25017.2 -3347.83 6426.57 -20455 -11550.1 -5521.65)
(-26583.9 -5741.35 8964.74 -23367.5 -11410 -14006)
(-26500.5 -7426.18 10882.6 -27472.9 -9909.97 -20887.3)
(-24487.7 -7803.21 12181.7 -31274.3 -7803.9 -25329.7)
(-19839.3 -6748.38 12951.4 -32577.2 -5493.28 -26218.2)
(-12780.5 -4543.93 13172.6 -30600.4 -3155.47 -23978.9)
(-3302.17 -1867.7 9570.23 -28508.9 -742.777 -26292)
(-9124.63 1356.47 -12679.4 -29175.4 -928.34 -22570.9)
(-13196.4 3935.14 -13229 -28749.2 -3200.36 -20348.3)
(-16045 5889.64 -12715.5 -27243.9 -5437.27 -19046.8)
(-17200.1 6794.67 -11749.1 -23190.9 -7565.39 -15037)
(-16642.6 6426.26 -10275.5 -17574.3 -9376.93 -8364.69)
(-14791.5 4920.2 -8233.77 -12145.5 -10466.5 80.3396)
(-11988.7 2848.79 -5693.36 -8243.95 -10160.8 9336.78)
(-8919 1083.1 -3090.28 -6380.95 -7657.79 17898.2)
(-7709.46 224.916 -1386.97 -6869.84 -2745.25 22471.4)
(8776.51 193.17 -665.844 10846.9 -3548.25 41294.9)
(9811.75 -343.52 1162.72 14404.3 -9659.29 40092.6)
(10069.7 -1991.83 4140.58 16927.6 -12953.2 35785.3)
(10622.5 -4181.12 7163.23 17111 -13408.8 30220.2)
(11822 -5943.94 9639.73 15060.2 -12031.2 24731.3)
(12780.9 -6629.15 11449.2 11005.3 -9725.88 19194.4)
(12361.5 -6050.56 12646.6 5242 -6976.15 12902.6)
(8277.91 -4459.69 13222 -3654.83 -3956.03 3088.01)
(9101.45 -2354.77 10319.9 -11961.8 -636.797 -11212.1)
(4948.79 2139.47 -13663.6 -12216.9 -1083.17 -6690.79)
(6742.49 3834.35 -14063.2 -3212.57 -4225.43 7381.7)
(10053.5 5014.11 -13044.8 4164.41 -7071.3 15943.1)
(10807.3 5362.53 -11489.2 9248.73 -9536.49 21950.7)
(10366.8 4725.64 -9358.44 12713.2 -11391 27081.8)
(9749.11 3313.82 -6676.89 14523.1 -12210.6 31899.5)
(9869.83 1667.24 -3657.62 14947.2 -11392.3 36669.1)
(10346.8 474.523 -852.782 13954.9 -8443.76 40372.8)
(10729.9 86.8446 917.524 12639.1 -3574.43 42214.7)
(10898.5 149.583 1066.65 12493.6 2047.98 42116.3)
(11034.8 -92.4018 -437.097 13875 6939.4 40458.3)
(10528.5 -1114.73 -3053.17 14796.7 10050.8 36812.5)
(10357.4 -2688.12 -5991.8 14629.6 11187.4 32363.3)
(11057.6 -4153.01 -8682.13 13313 10718.4 28025.5)
(11921 -4918.98 -10852 10601.6 9139.31 23590)
(11922.1 -4725.89 -12433.2 6453.14 6843.98 18403.3)
(8418.38 -3738.3 -13443.2 -1245.92 4063.36 9066.8)
(11136.4 -2423.56 -10744.1 -9644.12 688.025 -8059.81)
(5721.61 1980.08 13338.8 -12565 918.786 -7667.42)
(6838.62 4330.84 14009.9 -5691.02 3918.82 2400.56)
(9138.7 6074.24 13303.7 986.768 6769.29 9503.09)
(9245.94 6791.91 12066.9 6237.28 9372.71 15098.3)
(8272.55 6260.34 10259.6 10187.9 11539.8 20342.1)
(7239.13 4644.49 7810.82 12483.3 12832.9 25780.4)
(7110.77 2534.08 4786.68 13039.6 12448.6 31706.8)
(7628.15 839.938 1676.93 11759.9 9437.46 37023.8)
(7953.16 200.818 -465.767 9914.63 3619.29 40134.4)
(-339.809 -412.594 375.217 18484.7 -15952.1 15562.4)
(-1050.04 -6450.67 1961.88 27050.7 -9513.61 1340.1)
(1025.91 -10987.7 2288.21 23034.3 -6181.16 -1902.06)
(5402.93 -13735.1 2454.19 18041.6 -4483.1 -2772.17)
(9944.55 -14630.9 2574.81 12075.2 -3371.66 -3781.05)
(14289.9 -13676.3 2686.36 6137.4 -2496.57 -4872)
(18005.1 -11047.4 2794.43 1063.73 -1674.09 -5879.64)
(21059.5 -7152.42 2775.48 -2089.2 -770.065 -6265.88)
(25379.1 -2534.71 1299.3 -1165.31 226.359 -4197.12)
(26064.3 2447.47 -2884.4 -618.006 92.5478 -3453.8)
(23146.1 7055.09 -3429.43 -681.169 -880.867 -4746.95)
(20620.2 11017.4 -3355.74 2682.74 -1818.02 -4126.46)
(16815.1 13789.7 -3196.52 7455.41 -2702.99 -3360.38)
(12108.9 14935.6 -3038.77 12969.6 -3661.52 -2652.65)
(7115.93 14253 -2877.86 18572.6 -4893.19 -2014.11)
(2268.81 11728.9 -2669.01 23357.6 -6780.36 -1436.61)
(218.571 7402.61 -2281.19 28035.2 -10429.9 2186.71)
(224.838 1053.14 -488.781 19665.4 -17046 16464.8)
(72.3078 -366.554 -195.319 17352.1 15095.8 15455.7)
(-865.483 -6373.83 -1858.73 26094.6 9069.14 1021.79)
(1251.82 -10929.4 -2204.53 22489.5 5834.59 -2164.45)
(5810.52 -13707.4 -2391.32 17872.9 4212.33 -2818.67)
(10614.1 -14638.5 -2536.41 12273.8 3170.59 -3512.98)
(15215.8 -13720.2 -2666.99 6654.38 2355.86 -4268.11)
(19044.4 -11125.7 -2773.84 1742.9 1584.18 -5057.81)
(21858.5 -7255.66 -2708.99 -1595.52 716.811 -5584.98)
(25164.2 -2633.04 -1043.32 -1581.19 -281.812 -4444.95)
(25391.1 2342.91 3054.58 -1253.5 -180.812 -3928.57)
(22892.3 6947.88 3484.43 -798.117 721.045 -4726.96)
(20245.1 10901.6 3383.55 2451.51 1607.72 -4178.6)
(16379.7 13668.9 3218.18 7089.58 2451.17 -3483.17)
(11710.6 14824.3 3061.24 12520.7 3364.93 -2795.17)
(6847.11 14175.4 2908.51 18117.4 4537.65 -2109.83)
(2156.94 11723.8 2722.11 22944.7 6338.48 -1466.4)
(-53.0176 7520.24 2393.55 27403.1 9861.08 1898.87)
(-116.867 1313.38 794.606 19079.4 16622.7 16151.9)
(-14350.8 -73.9156 -2300.59 -12546.5 3248.56 16139.3)
(-13907.1 -1120.42 -4101.37 -10643.3 8077.54 13394.2)
(-12910.1 -2941.44 -6732.64 -8805.91 10427.9 8908.01)
(-10785.8 -4966.34 -9268.46 -8053.72 10576.4 4481.73)
(-7031.61 -6365.08 -11270.2 -8026.98 9331.07 1472.32)
(-1777.43 -6583.57 -12633.3 -7829.24 7397.04 412.923)
(5033.18 -5538.05 -13403.3 -6013.58 5251.52 1897.12)
(11595.1 -3589.25 -13640.3 -3562.09 3151.51 3886.42)
(22757.6 -1778.71 -8561.73 -1435.1 979.631 -1167.46)
(17133.2 990.394 11910.6 -2355.8 1146.72 1775.34)
(11094.2 3693.84 12507.4 -5117.48 3055.5 224.839)
(4675.56 5904.18 12379.6 -7676.7 5014.58 -2373.48)
(-1282.56 7177.02 11860.9 -8499.8 7088.76 -3123.55)
(-6487.26 7139.1 10798.8 -8265.06 9066.51 -1871.62)
(-10737.2 5781.36 9085.19 -8292.08 10472.1 1040.32)
(-13822 3615.28 6749 -9688.92 10494.6 5146.18)
(-15953.7 1572.83 4188.45 -12749.8 8052.05 9308.48)
(-18087.6 405.489 2432.75 -16514.7 2643.7 11125)
(-18456.7 -243.268 2522.23 -16647.6 -4132.01 10867.8)
(-16673.3 -1481.89 4425.32 -12897.4 -9316.39 8868.1)
(-14897.9 -3630.74 7083.06 -10065.8 -11487.7 4453.43)
(-12212.6 -5934.44 9492.58 -9061.37 -11248.3 19.7724)
(-8163.39 -7464.39 11277.3 -9357.23 -9667.87 -3088.18)
(-2781.72 -7673.6 12403.2 -9725.17 -7521.44 -4304.21)
(4202.13 -6509.52 12935.6 -8396.6 -5265.25 -2942.15)
(11288.4 -4349.14 12832.1 -6036.87 -3128.12 -920.034)
(22616.4 -2124.42 6306.88 -2954.61 -920.893 -3981.79)
(16362.3 809.531 -12649.2 -1693.59 -1284 3958.57)
(12485.4 3299.81 -13013.9 -2323.88 -3325.87 4876.15)
(7590.3 5336.56 -12707.8 -3640.16 -5353.73 3842.01)
(2852.89 6481.05 -11982.6 -3666.38 -7404.37 4243.11)
(-1450.97 6395.8 -10701.4 -3059.6 -9242.64 6188.9)
(-5088.24 5127.76 -8794.91 -2979.87 -10396.3 9337.17)
(-7921.85 3209.21 -6360.05 -4363.81 -10151.3 13139.8)
(-10308.1 1477.93 -3849.16 -7454.24 -7694.03 16411.5)
(-12926.7 500.886 -2206.66 -11285.9 -2783.47 17327.5)
(5078.43 271.514 -304.876 8280.53 -3351.94 36836.8)
(6610.72 -319.752 1343.38 12016.2 -9173.28 36406.3)
(7314.17 -1867.91 4105.43 14607.6 -12405.2 32787.1)
(7983.58 -3892.53 6977.6 14787.2 -12930.8 27540.2)
(9177.69 -5516.34 9379.33 12886.8 -11636.7 22191.5)
(10272.2 -6124.25 11163.1 9310.54 -9342.79 16891)
(10422.1 -5543.31 12358.4 4615.75 -6487.96 11290.1)
(8078.9 -4022.58 12949.3 -1791.56 -3232.11 3587.58)
(8753.89 -2089.45 11201.6 -8277.33 157.05 -8016.01)
(5119.22 1501.69 -13101 -11264.6 47.0137 -8516.49)
(2596.52 3010.84 -13854 -6024.29 -3179.38 3354.96)
(5809.71 4204.32 -12773.6 345.286 -6178.18 11621.4)
(6686.06 4691.38 -11204.9 4884.31 -8642.56 17515.7)
(6720.87 4259.72 -9120.34 8453.65 -10397.7 22906.2)
(6484.43 3090.71 -6557.29 10573.5 -11121.2 27883.2)
(6664.03 1692.12 -3726.62 11353 -10344 32528.8)
(6746.72 670.269 -1125.58 10610.9 -7668.76 35772.9)
(6502.75 285.243 527.145 9323.7 -3251.48 37049.3)
(6558.57 232.28 689.76 9254.99 1939.37 36999.4)
(7310.38 -89.0855 -699.909 10963.2 6569.42 36129.9)
(7402.81 -1072.06 -3159.42 12105 9581.67 33194)
(7446.98 -2529.57 -5953.67 11953.7 10708.6 29053.9)
(8173.57 -3866.56 -8534.18 10702.6 10263.1 24840)
(9168.61 -4542.85 -10631.7 8367.88 8683.24 20650.4)
(9770.93 -4326.94 -12165.7 5257.07 6312.77 16253.9)
(8365.75 -3378.12 -13129.4 438.91 3352.53 9595.89)
(10700.3 -2181.06 -11970.2 -5381.5 21.3401 -3321.35)
(7551.56 1219.28 12472.7 -10467.7 -214.297 -8822.93)
(3393.14 3500.18 13853 -8009.87 2901.25 -1592.78)
(5615.31 5313.11 13130.5 -2085.14 5955.62 5603.02)
(5745.43 6186.41 11875.2 2611.82 8611.15 11206.2)
(5147.27 5842.4 10084.2 6590.48 10704.8 16736.2)
(4434.57 4436.74 7709.05 9107.47 11885.7 22317.4)
(4345.83 2560.27 4841.14 9954.93 11493.4 28073.1)
(4491.44 1045.12 1939.52 8936.18 8716.72 32905.4)
(4325.8 405.285 -70.2069 7252.49 3348.62 35560.9)
(-1260.84 -236.045 598.945 13170.2 -15226 20636.8)
(-1843.74 -5886.85 2609.89 27196.8 -12836.7 3817.58)
(323.348 -10667 3086.32 23836.7 -8356.65 -1017.64)
(4598.24 -13471.2 3205.9 18440.3 -5844.33 -2581.47)
(8693.1 -14368.8 3221.04 11924.9 -4221.57 -4291.35)
(12332.1 -13429.3 3210.25 5381.1 -2972.52 -6231.87)
(15210.5 -10856.8 3196.97 -281.159 -1809.67 -8167.99)
(17399.1 -7066.29 3076.72 -3904.84 -536.778 -9439.65)
(20975.2 -2641.99 1995.35 -3195.81 820.453 -7950.06)
(22164.3 1998.48 -2770.2 -2461.81 867.764 -7039.37)
(19948.1 6518.13 -3811.49 -2571.17 -489.262 -7691.87)
(18369.8 10501 -3832.58 966.576 -1808.26 -6279.9)
(15373.8 13369.3 -3742.12 6043 -3007.5 -4726)
(11308.1 14651.2 -3678.93 11922.6 -4296.98 -3269.95)
(6772.28 14132.3 -3631.97 17885.2 -5997.46 -1933.26)
(2174.81 11819.8 -3520.82 23013 -8667.19 -531.279)
(-55.611 7652.33 -3089.95 27303.8 -13461.1 4690.87)
(-526.988 1368.46 -810.211 14194.1 -15928.8 21208.1)
(-676.614 -189.116 -361.745 12132.9 13934.5 20107.5)
(-1438.3 -5733.45 -2466.99 25379.5 11998.3 3490.9)
(499.384 -10557.4 -3006.92 22683.2 7915.08 -1460.05)
(4820.52 -13435 -3180.24 17797.7 5571.72 -2931.77)
(9204.57 -14398.6 -3238.72 11764.5 4041.09 -4302.85)
(13241.1 -13516.8 -3257.84 5693.25 2863.88 -5757.42)
(16439 -10998.2 -3253.53 384.15 1776.56 -7246.84)
(18614.8 -7253.65 -3114.43 -3212.52 583.506 -8401.9)
(21162.8 -2855.5 -1964.28 -3349.42 -761.259 -7812.64)
(21559.7 1756.54 2822.36 -2965.58 -974.891 -7460.84)
(19455.4 6296.44 3823.21 -2679.85 233.049 -7813.88)
(17678.7 10312.3 3846.08 667.35 1510.58 -6498.01)
(14643.7 13202.3 3758.76 5600.01 2680.46 -4965.98)
(10704.9 14485.5 3690.4 11437.3 3916.46 -3451.82)
(6375.99 13974.4 3635.15 17382.6 5519.07 -2046.15)
(1914.01 11731.3 3535.94 22407.2 8021.33 -703.444)
(-525.574 7758.57 3202.62 26326.3 12601.6 4039.5)
(-1063.28 1651.57 1195.62 13524.6 15562.9 20666.9)
(-9957.08 222.542 -1017.05 -6577.1 3865.12 20644.3)
(-10008.1 -892.882 -3162.57 -4495.83 9358.65 17419.7)
(-9604.55 -3001.89 -6164.11 -2943.94 11696.6 12126.9)
(-8270.67 -5318.22 -8916.83 -3100.47 11535.6 6669.81)
(-5918.34 -6907.34 -10998.7 -4782.71 10001.8 2086.99)
(-2919.61 -7223.95 -12356.7 -7117.9 7919.63 -1342.88)
(589.49 -6231.37 -13076.8 -8732.53 5804.79 -3219.92)
(3623.54 -4305.24 -13291.6 -9619.12 3928.4 -4500.25)
(8910.48 -2091.36 -11621.3 -9773.89 2077.68 -8307.88)
(9226.33 1427.32 10667.3 -9254.91 2188.68 -8608.19)
(5483.76 3948.12 12013.9 -8991.74 3951.38 -5884.66)
(2065.54 6147.4 11978.5 -8960.6 5622.81 -5613.58)
(-1432.01 7488.95 11545.7 -7501.64 7582.27 -4055.21)
(-4605.06 7516.07 10522.7 -5137.26 9631.79 -831.938)
(-7325.56 6138.46 8759.74 -3383.86 11254 3630.07)
(-9351.99 3846.58 6249.53 -3572.52 11537 8892.47)
(-10802.4 1678.7 3368.36 -6111.43 9135.11 13939.8)
(-12804 569.022 1272.83 -9979.08 3177.27 16171)
(-13613 77.5796 1324.1 -10218.6 -4598.45 15719.1)
(-12754.5 -1216.57 3525.16 -6683.99 -10398.5 12807)
(-11829.8 -3631.17 6495.29 -4394.04 -12528.9 7393.88)
(-10281.3 -6187.52 9083.67 -4670.58 -12006.1 1731.98)
(-7861.85 -7865.45 10951.6 -6891.52 -10194.9 -2980.7)
(-4803.93 -8143.07 12120.6 -9787.21 -7949.13 -6386.31)
(-1133.06 -7022.98 12706.4 -11751.8 -5737.75 -8050.66)
(2272.99 -4891.86 12821.5 -12573.7 -3806.37 -8841.06)
(8026.29 -2382.87 11009.7 -11707.8 -2020.98 -10984.5)
(8677.11 1252.97 -11231.1 -8817.7 -2386.21 -7334.69)
(6495.61 3556.02 -12449.7 -6462.13 -4393.43 -1823.11)
(4527.91 5600.22 -12259.7 -5201.9 -6150.36 153.398)
(2254.68 6818.66 -11629.4 -2920.26 -8100.41 3028.19)
(72.7277 6748.3 -10375.8 -101.896 -10024.4 7163.22)
(-2000.01 5388.11 -8396.41 1691.21 -11384 11972.1)
(-3903.1 3315.18 -5757.27 1233.6 -11341.2 16830.2)
(-5781.83 1498.64 -2904.98 -1575.45 -8814.01 20761.2)
(-8339.61 630.485 -930.714 -5507.29 -3235.65 21872)
(2018.08 306.568 826.277 6188.48 -2924.99 32376.2)
(4038.2 -432.711 2230.1 9788.5 -8117.56 32720.8)
(5300.96 -1884.22 4644.61 12303.4 -11196.1 30100)
(6396.71 -3679.23 7231.26 12727.3 -11887.3 25691.3)
(8066.5 -5091.15 9454.68 11508.2 -10788.9 21093.5)
(9999.76 -5580.58 11136.8 9166.68 -8576.27 16792.5)
(11499 -4984.2 12260.1 6288.85 -5672.89 12693.7)
(11496.9 -3493.22 12790.1 2868.4 -2285.85 7807.31)
(11872.5 -1520.37 12093.1 -1051.01 1149.26 153.951)
(13722.5 791.267 -10510.5 -5307.31 1263.85 -7397.67)
(3262.32 1923.27 -13902.6 -4477.72 -1728.85 4091.06)
(6267.31 3206.37 -12791.2 835.689 -4882.4 12122.5)
(5904.82 3905.54 -11258.9 3371.07 -7388.57 16461.2)
(5262.17 3769.03 -9281.27 5833.29 -9072.23 20909.9)
(4544.34 2932.58 -6908.74 7417.66 -9692.55 25157.8)
(4206.43 1842.24 -4347.51 8059.5 -8911.17 29037.5)
(3737.48 1007.73 -2041 7572.58 -6494.11 31530.6)
(2952.77 591.776 -586.289 6635.68 -2656.7 32203.2)
(3004.43 327.984 -434.258 6882.31 1842.72 32246.7)
(4335.3 -177.976 -1655.2 8758.55 5949.17 32136.7)
(5263.55 -1165.12 -3853.12 10109 8714.37 30204.2)
(6038.39 -2481.33 -6394.21 10281.6 9785.34 26938.8)
(7397.71 -3637.3 -8774 9579.36 9358.67 23501.5)
(9203.23 -4174.79 -10723.7 8226.73 7790.65 20288.2)
(10974.2 -3889.7 -12134.7 6628 5384.46 17312.8)
(11838 -2897.84 -12959 4741.52 2340.44 13669.9)
(13251.7 -1549 -12840.5 1976.45 -975.88 6208.63)
(17404 499.277 8110.99 -3829.12 -1465.95 -7779.06)
(5024.24 2509.14 13794.9 -6322.34 1527.24 -1932.69)
(6727.66 4450.28 13226 -1170.8 4804.28 5689.1)
(5506.28 5542.28 12024.7 1652.71 7572.82 10136.7)
(4095.45 5464.12 10321.1 4469.51 9635.61 14886.7)
(2848.99 4346.73 8094.89 6390.71 10705.4 19851.5)
(2251.68 2744.24 5458.12 7070.34 10253 24902.9)
(1860.32 1394.73 2850.19 6301.76 7685.7 28956.5)
(1287.05 685.85 1063.99 5048.25 2942.35 31059.3)
(-1446.97 -310.554 1364.44 9940.11 -12832.9 23167.3)
(-2357.62 -5300.29 3293.63 25449.7 -14875.4 6606.4)
(-322.667 -10196.9 3927.89 23875.4 -10248.3 144.975)
(3814.65 -13108.2 4022.75 18576.5 -7123.7 -2217.94)
(7889.09 -14079.9 3936.9 12139.7 -5030.06 -4253.07)
(11589.9 -13240 3790.01 5804.4 -3399.68 -6304.18)
(14706 -10811.8 3611.29 538.847 -1895.25 -8120.3)
(17177.1 -7178.85 3309.33 -2620.17 -307.401 -9175.21)
(20523.9 -2874.46 2400.21 -1726.95 1351.27 -7758.13)
(22244 1498.34 -2194.86 -556.032 1703.9 -6683.82)
(19973.3 6023.41 -4193.44 -1270.71 -1.74571 -7286.12)
(18217.2 10049.3 -4381.81 1341.09 -1741.32 -6190.27)
(15222.1 12966.3 -4391.61 5874.62 -3293.64 -4669.09)
(11273.6 14323.3 -4422.18 11453.8 -4932.35 -2991.81)
(6902.44 13920.3 -4460.98 17219.8 -7044.82 -1206.22)
(2565.05 11788.1 -4394.11 22191.7 -10217.6 1119.47)
(108.685 7771.88 -3866.93 24909.6 -15016.4 7721.73)
(-463.145 1867.5 -1556.79 10897.6 -13176.3 23630.6)
(-817.076 -193.271 -1028.05 9462.38 11636.9 22535.8)
(-1768.64 -5060.55 -3082.77 23309.7 13751.2 6338.53)
(15.0723 -10019.5 -3827.47 22422.6 9727.22 -214.163)
(4198.65 -13040.1 -4016.14 17808.2 6855.44 -2495.22)
(8602.89 -14107 -3998.2 11962.8 4868.73 -4154.11)
(12726.7 -13347.3 -3894.71 6132.77 3321.75 -5683.09)
(16152.4 -10986.9 -3737.69 1178.81 1923.51 -7056.88)
(18602.5 -7411.69 -3446.23 -2014.98 463.418 -8011.31)
(20883.7 -3165.32 -2561.23 -1986.14 -1147.73 -7504.03)
(21547 1093.91 2009.18 -1198.55 -1807.84 -7294.05)
(19318.5 5613.63 4122.72 -1291.02 -401.303 -7555.99)
(17276.1 9730.01 4355.88 1055.35 1313.97 -6584.18)
(14194.9 12723.8 4385.61 5349.43 2868.33 -5099.95)
(10376.1 14095.6 4417.7 10848.7 4456.93 -3352.73)
(6246.01 13677.6 4439.89 16573.2 6442.82 -1488.94)
(2052.81 11582.3 4369.4 21347.5 9378.96 703.194)
(-516.549 7775.06 3955.53 23707.6 13949.1 6748.12)
(-1129.45 2060.39 1943.92 10096.4 12862.6 22886.8)
(-5154.96 621.818 264.263 -312.469 4447.81 24681.6)
(-6283.86 -508.506 -2207.64 1720.19 10672.2 20619.9)
(-7181.28 -2969.4 -5590.28 2443.74 13005.9 14117.4)
(-6867.97 -5646.84 -8559.82 1089.66 12490.7 7595.26)
(-5571.42 -7483.68 -10707.9 -2039.77 10643.4 1903.12)
(-3820.61 -7970.9 -12062.9 -5986.68 8414.72 -2811.22)
(-1829.39 -7109.37 -12779.5 -9397.26 6318.02 -6229.69)
(325.512 -5252.48 -13038.1 -11211.2 4610.35 -8252.03)
(2129.99 -2931.86 -12392.5 -13001.3 3134.86 -12148.8)
(7846.15 1722.9 7802.54 -11169.8 2818.18 -14870.2)
(4440.14 4345.14 11492.2 -8343.52 4877.73 -7416.02)
(1855.76 6558.95 11530.5 -7717.08 6255.82 -6286.36)
(-541.206 7908.33 11144.6 -5244.05 8056.51 -3797.08)
(-2451.32 7916.16 10164 -1527.69 10120.6 513.056)
(-4030.08 6474.07 8398.24 1565.47 11928.9 5973.42)
(-5097.4 4047.5 5774.35 2463.93 12504.5 12120.2)
(-5632.11 1754.63 2607.86 625.686 10234.8 18117.5)
(-7084.28 747.64 153.944 -3077.13 3802.16 21051.3)
(-8340.58 538.244 124.819 -3362.86 -4998.86 20396.1)
(-9004.15 -774.062 2623.52 -280.963 -11498.7 16134.7)
(-9431.09 -3531.27 5917.09 1105.29 -13591.4 9399.32)
(-8901.93 -6419.29 8669.93 -413.531 -12753.9 2754.85)
(-7532.54 -8319.83 10600.4 -4074.41 -10710.9 -2893.65)
(-5754.17 -8758.27 11813.4 -8576.24 -8382.78 -7414.54)
(-3770.94 -7774.4 12482.1 -12443.3 -6209.6 -10558.4)
(-1411.96 -5745.42 12787.9 -14239.8 -4422.71 -11921.8)
(-133.367 -3251.17 12440.6 -15771 -3004.96 -14765.3)
(7614.14 1469.03 -7407.37 -11579.9 -2840.69 -15518.3)
(4977.7 3889.64 -11817.8 -6173.42 -5492.11 -4206.64)
(3615.81 5952.24 -11751.8 -4435.92 -6984.82 -1320.34)
(2306.2 7201.91 -11201.8 -1310.12 -8776.34 2496.54)
(1334.23 7091.18 -9984.8 2787.96 -10738.2 7809.23)
(435.983 5606.95 -7970.1 5882.44 -12295.9 13768)
(-466.371 3360.59 -5171.73 6415.35 -12502.9 19609.9)
(-1379.3 1441.34 -2000.84 4249.56 -9966.11 24450.4)
(-3367.04 725.879 311.566 505.816 -3737.5 26018.5)
(-714.163 361.245 2068.91 4113.55 -2545.55 28085.4)
(1705.56 -513.833 3269.64 7538.26 -7069.5 29059.8)
(3618.42 -1893.73 5362.13 10107.9 -9895.93 27509.6)
(5263.48 -3488.38 7649.33 10892.9 -10676.5 24108.1)
(7386.33 -4714.38 9663.18 10296.6 -9757.73 20317.4)
(9887.02 -5110.9 11212.5 8838.65 -7659.84 16799.1)
(12165.9 -4511.33 12233.4 7047.66 -4790.65 13619)
(13630 -3039.29 12667.3 5432.34 -1418.14 10486.4)
(14090.9 -994.312 12274.4 3315.5 2027.14 5355.86)
(20162.3 1022.14 -2608.32 -1695.57 2227.69 -8489.6)
(3346.4 865.674 -14081.7 -3924.45 -275.475 3918.95)
(6539.41 2216.65 -12909.6 1159.8 -3468.48 12527.8)
(5331.59 3120.16 -11417.7 2138.48 -6033.08 15623.5)
(4115.09 3266.94 -9548.04 3587.33 -7691.35 19146.2)
(2873.28 2762.97 -7364.62 4580.9 -8260.25 22582)
(1935.49 1980.91 -5065.2 4972.07 -7509.51 25608.6)
(911.521 1332.19 -3036.81 4637.3 -5341.03 27339)
(-199.593 905.81 -1773.75 4124.43 -2030.6 27591)
(-29.3306 465.297 -1648.09 4776.69 1801.68 27811)
(1787.02 -216.267 -2723.69 6805.67 5343.1 28353)
(3516.02 -1231.55 -4674.88 8383.55 7791.61 27422.8)
(5045.03 -2439.32 -6965.93 8895.28 8756.5 25108.2)
(6986.94 -3447.63 -9142.32 8632.09 8325.79 22447.7)
(9378.18 -3871.82 -10935.9 7924.58 6779.78 20014.9)
(11850 -3521.72 -12210.2 7188.23 4397.25 17964.4)
(14009.8 -2471.88 -12888.1 6913.8 1392.24 16104.7)
(15304.4 -989.989 -12873.1 6116.94 -1919.28 11863.6)
(22030 876.085 -1999.5 562.998 -2670.79 -6009.78)
(7688.32 1679.2 13535.4 -4642.2 258.107 -2682.47)
(7662.24 3624.57 13393.4 -633.508 3607.47 5210.46)
(5573.48 4897.04 12271.4 983.832 6477.99 9138.93)
(3403.67 5066.54 10664.1 2724.84 8537.57 13194.3)
(1558.59 4242.49 8596.05 3990.65 9535.35 17515.9)
(335.41 2914.57 6193.03 4366.33 9052.48 21799.5)
(-653.004 1717.86 3863.51 3685.61 6682.16 25043.2)
(-1497.81 950.36 2289.62 2845.63 2511.9 26707.7)
(-1254.37 -378.61 2381.45 8183.94 -10426.5 24043.9)
(-2242.26 -4790.44 4051.72 21971.2 -15356.6 9433.97)
(-604.481 -9574 4798.72 22677.1 -11617.9 1683.78)
(3177.77 -12603.2 4891.64 18125.1 -8217.8 -1634.42)
(7191.74 -13718.6 4718.24 12089.8 -5739.45 -4042.88)
(10936.2 -13048.8 4435.27 6025.23 -3757.77 -6242.48)
(14143.4 -10810.5 4074.74 921.658 -1960.5 -8117.02)
(16618.3 -7343.43 3559.55 -2264.55 -170.851 -9293.39)
(19228.3 -3120.46 2614.45 -1976.32 1624.94 -8593.21)
(21136.6 1161.72 -1058.5 -370.953 2345.26 -7549)
(19532.2 5555.26 -4578.36 -630.365 486.917 -7306.68)
(17422.4 9619.45 -5009.77 1015.25 -1639.62 -6617.11)
(14598.8 12547.7 -5140.71 5174.53 -3542.74 -4958.32)
(10900.5 13928.3 -5254.3 10466.5 -5519.55 -2941.42)
(6818.2 13597.9 -5342.55 15919.1 -7955.32 -560.05)
(2900.52 11580.6 -5264.51 20414.5 -11290.1 2871.35)
(447.277 7661.52 -4606.66 21188.5 -15112.2 10552)
(-266.505 2328.64 -2482.78 8984.41 -10496.6 24349.4)
(-838.397 -153.911 -1934.31 8090.9 9485.65 23273.5)
(-1861.88 -4458.53 -3748.38 20024.9 14223.4 8971.54)
(-349.546 -9330.52 -4653.43 21026.8 11071.5 1237.24)
(3546.62 -12495.3 -4885.98 17149.6 7969.44 -1967.8)
(7929.27 -13727.7 -4814.55 11733.7 5609.93 -3978.28)
(12124 -13154.1 -4594.84 6187.39 3722.44 -5625.05)
(15685.7 -10989.3 -4270.29 1403.57 2055.96 -7015.38)
(18228.4 -7579.04 -3789.91 -1794.28 428.702 -8027.36)
(19964.7 -3429.1 -2919.47 -2256.67 -1277.35 -8069.99)
(20652.9 671.652 553.236 -1015.1 -2377.19 -8017.31)
(18919.9 4926.17 4357.08 -471.88 -1043.2 -7647.49)
(16410.1 9117.88 4911.12 929.654 1048.14 -7095)
(13442.6 12181.7 5084.57 4741.72 2995.75 -5496.38)
(9844.17 13609.5 5217.19 9886.23 4938.77 -3411.5)
(6005.9 13257.7 5297.37 15273.6 7241.12 -940.492)
(2261.13 11240.1 5213.82 19548.3 10326 2346.49)
(-158.872 7508.02 4673.15 20095.6 14018.7 9538.39)
(-821.151 2372.95 2854.7 8229.3 10215.7 23720.2)
(-1049.62 1092.83 1437.43 4935.34 4970.54 27527.6)
(-3508.91 28.6707 -1311.68 6989.41 11878.4 22294.5)
(-5860.17 -2826.24 -5023.47 6984.03 14221.1 14559.4)
(-6783.61 -5941.81 -8177.49 4216.64 13375.9 6930.47)
(-6561.22 -8090.43 -10378.6 -483.549 11242.6 226.346)
(-5820.92 -8796.16 -11738.8 -5964.72 8883.32 -5479.26)
(-4905.09 -8091.52 -12483.4 -10946.4 6777.44 -9980.08)
(-3446.73 -6307.74 -12824.5 -13816.6 5127.4 -12630.7)
(-3571.62 -3913.87 -12596.7 -16823.7 3864.95 -16909.5)
(6463.73 1294.79 1107.38 -14265.4 2567.2 -21525.8)
(2412.25 4872.15 10917 -8945.02 5703.22 -10146.4)
(278.373 7085.48 11033.4 -7799.38 6867.57 -8301.1)
(-1280.68 8407.39 10656.7 -4482.95 8480.14 -5163.67)
(-2087.01 8339.76 9714.31 459.063 10499.5 -10.9824)
(-2500.23 6793.66 7993.42 4904.95 12443.9 6352.29)
(-2432.39 4213.82 5333.44 7055.76 13324.9 13450)
(-1910.25 1776.95 1943.49 5965.09 11283.4 20479.8)
(-2528.36 902.86 -860.103 2456.09 4481.64 24400.8)
(-4236.73 1111.22 -1004.33 2071.49 -5312.09 23506.7)
(-6620.78 -143.504 1765.76 4891.28 -12522.9 17675.9)
(-8574.4 -3312.33 5358.26 5443.47 -14573.5 9528.47)
(-9107.77 -6623.74 8241.12 2590.05 -13426.1 1961.39)
(-8611.76 -8822.39 10210 -2467.34 -11181.8 -4382.24)
(-7724.44 -9483.35 11466.9 -8371.52 -8799.64 -9619.21)
(-6837.23 -8671.3 12236.3 -13816 -6652.13 -13704.4)
(-5362.97 -6748.85 12721.5 -16850.1 -4910.21 -15697.2)
(-6162.3 -4284.54 12932.7 -19761.9 -3649.57 -18920.5)
(5531.31 445.79 2302.86 -15595 -2248.27 -22680.9)
(1978.06 4326.39 -11078.3 -7808.5 -6403.52 -8615.39)
(1080.59 6353.07 -11175.6 -5192.17 -7805.23 -4513.34)
(708.182 7595.46 -10691.9 -1176.75 -9409.19 193.605)
(810.606 7414.14 -9525.92 4068.6 -11355.1 6467.09)
(1144.96 5787.56 -7520.31 8532.17 -13082.8 13558.7)
(1546.93 3341.82 -4618.5 10360.1 -13559.2 20633)
(1895.96 1286.75 -1172.45 8985.92 -11054.5 26650)
(877.592 761.281 1447.26 5527.83 -4219.16 29059.7)
(-2762.73 404.685 3341.06 2243.1 -2241.71 24485.7)
(-107.651 -562.499 4380.7 5442.29 -6145.45 25864.9)
(2409.57 -1871.88 6200.56 8112.04 -8657.65 25240)
(4636.15 -3286.39 8207.89 9294.49 -9423.34 22824.3)
(7195.23 -4342.2 9998.7 9275.8 -8627.37 19842.2)
(10108.9 -4646.62 11384 8517.49 -6658.21 16994.7)
(12830.9 -4023.47 12269.8 7447.62 -3894.1 14401.5)
(14860.8 -2536.45 12584 6671.71 -642.948 12004.3)
(15076.5 -418.322 12226 5310.51 2705.32 7874.95)
(19149.6 2094.74 6332.82 1223.09 3642.48 -4641.94)
(5906.28 -119.403 -14366.9 -1698.25 1017.89 5108.79)
(7167.96 1194.55 -13098.6 1886.53 -1968.82 13335.7)
(5582.12 2318.99 -11659.7 1823.29 -4586.91 15583)
(3748.39 2736.36 -9902.68 2202.06 -6254.64 18033.9)
(1936.52 2549.39 -7896.89 2520.67 -6826.96 20549.2)
(352.199 2062.83 -5838.62 2539.05 -6161.86 22674.5)
(-1199.7 1586.99 -4062.3 2209.51 -4258.97 23721.2)
(-2441.81 1157.22 -2977.74 2053.56 -1419.11 23809)
(-2100.21 586.369 -2896.22 3042.42 1827.65 24270.7)
(36.8183 -225.001 -3866.98 5174.64 4824.78 25267.1)
(2415.63 -1261.28 -5608.92 6984.61 6908.36 25164.9)