/*--------------------------------*- C++ -*----------------------------------*\
| =========                 |                                                 |
| \\      /  F ield         | OpenFOAM: The Open Source CFD Toolbox           |
|  \\    /   O peration     | Version:  2312                                  |
|   \\  /    A nd           | Website:  www.openfoam.com                      |
|    \\/     M anipulation  |                                                 |
\*---------------------------------------------------------------------------*/
FoamFile
{
    version     2.0;
    format      ascii;
    arch        "LSB;label=32;scalar=64";
    class       volVectorField;
    location    "0.5";
    object      traction;
}
// * * * * * * * * * * * * * * * * * * * * * * * * * * * * * * * * * * * * * //

dimensions      [1 -1 -2 0 0 0 0];

internalField   uniform (0 0 0);

boundaryField
{
    fixed
    {
        type            calculated;
        value           nonuniform List<vector> 
108
(
(-2334.72 1742.88 -20000.9)
(1643.53 -2636.31 1141.22)
(5814.81 -5119.4 18111.2)
(8825.55 -5970.61 29795)
(10499 -6262.31 36019.8)
(11375.3 -6534.82 38066.7)
(11951.3 -6823.91 37347.1)
(12430.4 -7032.39 34970.2)
(12834.6 -7129.1 31671.8)
(13137.9 -7163.08 27789.6)
(13321.1 -7221.04 23219.4)
(13368.4 -7396.22 17377.3)
(13220.9 -7769.12 9255.7)
(12680.3 -8364.69 -2223.44)
(11380.5 -9051.75 -17190.7)
(9161.15 -9404.14 -32989.2)
(6656.57 -8688.14 -43234.6)
(4795.36 -6164.93 -38446.7)
(2334.72 -1742.88 -20000.9)
(-1643.53 2636.31 1141.22)
(-5814.81 5119.4 18111.2)
(-8825.55 5970.61 29795)
(-10499 6262.31 36019.8)
(-11375.3 6534.82 38066.7)
(-11951.3 6823.91 37347.1)
(-12430.4 7032.39 34970.2)
(-12834.6 7129.1 31671.8)
(-13137.9 7163.08 27789.6)
(-13321.1 7221.04 23219.4)
(-13368.4 7396.22 17377.3)
(-13220.9 7769.12 9255.7)
(-12680.3 8364.69 -2223.44)
(-11380.5 9051.75 -17190.7)
(-9161.15 9404.14 -32989.2)
(-6656.57 8688.14 -43234.6)
(-4795.36 6164.93 -38446.7)
(530.912 -2821.91 -29241.1)
(-113.142 -9211.18 -15691.4)
(-4.39121 -12368 -144.671)
(427.918 -13232.6 13175.6)
(738.106 -13221.6 22856.8)
(910.725 -13119.4 29181)
(1081.38 -13136.1 32695.7)
(1315.66 -13239.1 33810.4)
(1589.38 -13366.1 32804.1)
(1838.22 -13508.1 29831.4)
(2003.62 -13716.6 24906.1)
(2053.42 -14063.1 17893.9)
(1953.16 -14553.1 8559.14)
(1585.92 -15019.8 -3211.38)
(733.155 -15057.3 -16833.2)
(-630.347 -14022.9 -30202.9)
(-1747.71 -11002.2 -39128.7)
(-1478.27 -5073.53 -37879.1)
(-530.912 2821.91 -29241.1)
(113.142 9211.18 -15691.4)
(4.39123 12368 -144.671)
(-427.918 13232.6 13175.6)
(-738.106 13221.6 22856.8)
(-910.725 13119.4 29181)
(-1081.38 13136.1 32695.7)
(-1315.66 13239.1 33810.4)
(-1589.38 13366.1 32804.1)
(-1838.22 13508.1 29831.4)
(-2003.62 13716.6 24906.1)
(-2053.42 14063.1 17893.9)
(-1953.16 14553.1 8559.14)
(-1585.92 15019.8 -3211.38)
(-733.155 15057.3 -16833.2)
(630.347 14022.9 -30202.9)
(1747.71 11002.2 -39128.7)
(1478.27 5073.53 -37879.1)
(-2825.29 -4163.45 -35363.8)
(-6871.51 -7355.23 -33130.8)
(-9562.06 -9178.73 -26759)
(-10975.2 -9801.38 -17176.2)
(-11847.4 -9655.43 -6559.6)
(-12594.8 -9317.3 3286.93)
(-13152.4 -9168.01 11071.8)
(-13328.3 -9248.64 15960.2)
(-13080.5 -9410.65 17522.5)
(-12547.9 -9537.07 15652.1)
(-11916.8 -9643.7 10501.7)
(-11272.7 -9792.4 2484.4)
(-10584.1 -9893.07 -7631.85)
(-9830.59 -9622.95 -18553.7)
(-9020.43 -8629.7 -28443.8)
(-7860.55 -6771.6 -35383.5)
(-5557.63 -3943.12 -38219.8)
(-1725.84 -33.8623 -37544.9)
(2825.29 4163.45 -35363.8)
(6871.51 7355.23 -33130.8)
(9562.06 9178.73 -26759)
(10975.2 9801.38 -17176.2)
(11847.4 9655.43 -6559.6)
(12594.8 9317.3 3286.93)
(13152.4 9168.01 11071.8)
(13328.3 9248.64 15960.2)
(13080.5 9410.65 17522.5)
(12547.9 9537.07 15652.1)
(11916.8 9643.7 10501.7)
(11272.7 9792.4 2484.4)
(10584.1 9893.07 -7631.85)
(9830.59 9622.95 -18553.7)
(9020.43 8629.7 -28443.8)
(7860.55 6771.6 -35383.5)
(5557.63 3943.12 -38219.8)
(1725.84 33.8623 -37544.9)
)
;
    }
    inside
    {
        type            calculated;
        value           nonuniform List<vector> 
540
(
(11877.2 -9595.13 19208.1)
(11726.4 -2201.81 21058.2)
(7982.74 4293.91 19932.2)
(1211.98 7430.13 16852.3)
(-5800.85 6814.44 13426.9)
(-10732.9 3578.13 10413.8)
(-12497.4 -494.895 7869.45)
(-11179.2 -3633.34 5623.22)
(-7737.56 -4489.83 3562.78)
(-3655.69 -2356.95 1735.07)
(-578.621 2709.35 370.209)
(102.204 9827.03 -127.886)
(-2261.79 17342.5 731.042)
(-7079.42 23166.6 3236.35)
(-12402.1 25584.7 7035.8)
(-15749.5 24275.7 11034.1)
(-15734.8 20462.9 14190.5)
(-13523.3 15557.8 16688.6)
(-11877.2 9595.13 19208.1)
(-11726.4 2201.81 21058.2)
(-7982.74 -4293.91 19932.2)
(-1211.98 -7430.13 16852.3)
(5800.85 -6814.44 13426.9)
(10732.9 -3578.13 10413.8)
(12497.4 494.895 7869.45)
(11179.2 3633.34 5623.22)
(7737.56 4489.83 3562.78)
(3655.69 2356.95 1735.07)
(578.621 -2709.35 370.209)
(-102.204 -9827.03 -127.886)
(2261.79 -17342.5 731.042)
(7079.42 -23166.6 3236.35)
(12402.1 -25584.7 7035.8)
(15749.5 -24275.7 11034.1)
(15734.8 -20462.9 14190.5)
(13523.3 -15557.8 16688.6)
(5827.64 -10100.4 20340.5)
(8292.24 -134.534 22342.5)
(9486.6 8427.06 20972.9)
(7844.62 14646.7 18096.1)
(3467.86 17193.7 14654.3)
(-1298.09 16369.7 11455.3)
(-4515.04 13712.2 8711.21)
(-5500.85 10873.7 6299.99)
(-4581.79 9047.77 4084.04)
(-2629.32 8783.29 2039.73)
(-610.129 9977.91 262.78)
(803.886 12012.8 -1086.06)
(1465.78 14042.8 -1851.41)
(1679.88 15439.3 -1935.43)
(1705.53 16227.6 -1218.07)
(1124.83 17047.2 769.223)
(-1672.95 18423.1 5482.86)
(-4050.96 17342.8 13101.5)
(-5827.64 10100.4 20340.5)
(-8292.24 134.534 22342.5)
(-9486.6 -8427.06 20972.9)
(-7844.62 -14646.7 18096.1)
(-3467.86 -17193.7 14654.3)
(1298.09 -16369.7 11455.3)
(4515.04 -13712.2 8711.21)
(5500.85 -10873.7 6299.99)
(4581.79 -9047.77 4084.04)
(2629.32 -8783.29 2039.73)
(610.129 -9977.91 262.78)
(-803.886 -12012.8 -1086.06)
(-1465.78 -14042.8 -1851.41)
(-1679.88 -15439.3 -1935.43)
(-1705.53 -16227.6 -1218.07)
(-1124.83 -17047.2 769.222)
(1672.95 -18423.1 5482.86)
(4050.96 -17342.8 13101.5)
(28214.7 5650.24 24247)
(19559.9 12130.1 23092.1)
(18596.9 18392.6 19837.4)
(15617.3 23388.9 16150.9)
(10289.5 25177.9 12591.9)
(4722.21 23977.4 9587.85)
(752.085 21344.2 7103.77)
(-1075.07 18798.4 4895.93)
(-1165.59 17346.9 2793.13)
(-409.924 17351.3 792.302)
(274.18 18529 -966.112)
(337.655 20149.5 -2290.47)
(-224.432 21373.6 -3042.81)
(-1027.28 21634.9 -3213.77)
(-1780.72 20979.1 -2913.01)
(-2498.93 19904 -2307.67)
(-6401.13 20490.2 -263.123)
(-23408.6 21714.6 9032.83)
(-28214.7 -5650.24 24247)
(-19559.9 -12130.1 23092.1)
(-18596.9 -18392.6 19837.4)
(-15617.3 -23388.9 16150.9)
(-10289.5 -25177.9 12591.9)
(-4722.21 -23977.4 9587.85)
(-752.085 -21344.2 7103.77)
(1075.07 -18798.4 4895.93)
(1165.59 -17346.9 2793.13)
(409.924 -17351.3 792.302)
(-274.18 -18529 -966.112)
(-337.655 -20149.5 -2290.47)
(224.432 -21373.6 -3042.81)
(1027.28 -21634.9 -3213.77)
(1780.72 -20979.1 -2913.01)
(2498.93 -19904 -2307.67)
(6401.13 -20490.2 -263.123)
(23408.6 -21714.6 9032.83)
(8126.84 15704.4 5882.18)
(14148.7 18518.7 11882)
(15975.1 22113.4 12023.3)
(15127.9 25855.9 10511.5)
(11318.1 27184.3 8522.57)
(6784.11 25972.2 6578.29)
(3457.56 23619.5 4739.57)
(1924.93 21487.1 2879.4)
(1817.82 20401.5 917.461)
(2317.55 20559.5 -1076.9)
(2631.84 21542.5 -2905.98)
(2389.65 22560.5 -4354.81)
(1765.6 22779.6 -5314.84)
(1334.65 21514.8 -5876.35)
(1797.79 18353.3 -6415.85)
(3946.58 13012.6 -7654.5)
(7383.81 5198.86 -9811.02)
(3189.34 -6002.5 -6838.1)
(-8126.84 -15704.4 5882.18)
(-14148.7 -18518.7 11882)
(-15975.1 -22113.4 12023.3)
(-15127.9 -25855.9 10511.5)
(-11318.1 -27184.3 8522.57)
(-6784.11 -25972.2 6578.29)
(-3457.56 -23619.5 4739.57)
(-1924.93 -21487.1 2879.4)
(-1817.82 -20401.5 917.461)
(-2317.55 -20559.5 -1076.9)
(-2631.84 -21542.5 -2905.98)
(-2389.65 -22560.5 -4354.81)
(-1765.6 -22779.6 -5314.84)
(-1334.65 -21514.8 -5876.35)
(-1797.79 -18353.3 -6415.86)
(-3946.58 -13012.6 -7654.5)
(-7383.81 -5198.86 -9811.02)
(-3189.34 6002.5 -6838.1)
(-10414.7 15709 -683.805)
(-431.274 17458.7 3995.83)
(6136.11 20387.9 5543.98)
(8407.76 23369.6 5641.21)
(7437.16 24623.8 5199.06)
(5267.3 23800.1 4395.91)
(3651.06 21913.1 3227.05)
(3261.16 20148.5 1694.21)
(3877.68 19245 -158.996)
(4826.04 19342 -2185.38)
(5456.18 20021.9 -4147.17)
(5510.35 20554.2 -5812.62)
(5219.19 20142.7 -7040.64)
(5229.11 17945.3 -7838.64)
(6453.85 13226.7 -8462.64)
(9731.99 5787.65 -9319.54)
(14686.8 -3660.09 -10045.3)
(16420.7 -12143.6 -7322.42)
(10414.7 -15709 -683.805)
(431.274 -17458.7 3995.83)
(-6136.11 -20387.9 5543.98)
(-8407.76 -23369.6 5641.21)
(-7437.16 -24623.8 5199.06)
(-5267.3 -23800.1 4395.91)
(-3651.06 -21913.1 3227.05)
(-3261.16 -20148.5 1694.21)
(-3877.68 -19245 -158.996)
(-4826.04 -19342 -2185.38)
(-5456.18 -20021.9 -4147.17)
(-5510.35 -20554.2 -5812.62)
(-5219.19 -20142.7 -7040.64)
(-5229.11 -17945.3 -7838.64)
(-6453.85 -13226.7 -8462.64)
(-9731.99 -5787.65 -9319.54)
(-14686.8 3660.09 -10045.3)
(-16420.7 12143.6 -7322.42)
(-19372.2 15740.1 -2728.79)
(-11720 15946.1 792.067)
(-4630.51 17362.4 2460.51)
(-303.05 19446.6 3196.91)
(1479.62 20693.1 3599.66)
(1984.27 20379.5 3574.57)
(2447.38 18961.9 2936.86)
(3511.62 17393 1696.28)
(5134.62 16387.7 -32.9112)
(6830.09 16116.9 -2059.97)
(8094.78 16249 -4146.33)
(8733.04 16183.1 -6069.01)
(8959.6 15208.9 -7623.27)
(9439.01 12449.3 -8639.33)
(11212 7130.19 -9162.95)
(15164.7 -561.351 -9419.92)
(20545.2 -8686.45 -9205.1)
(23087.9 -14186.8 -7067.61)
(19372.2 -15740.1 -2728.79)
(11720 -15946.1 792.067)
(4630.51 -17362.4 2460.51)
(303.05 -19446.6 3196.91)
(-1479.62 -20693.1 3599.66)
(-1984.27 -20379.5 3574.57)
(-2447.38 -18961.9 2936.86)
(-3511.62 -17393 1696.28)
(-5134.62 -16387.7 -32.9112)
(-6830.09 -16116.9 -2059.97)
(-8094.78 -16249 -4146.33)
(-8733.04 -16183.1 -6069.01)
(-8959.6 -15208.9 -7623.27)
(-9439.01 -12449.3 -8639.33)
(-11212 -7130.19 -9162.95)
(-15164.7 561.351 -9419.92)
(-20545.2 8686.45 -9205.1)
(-23087.9 14186.8 -7067.61)
(-27073.1 15635.3 -2142.04)
(-20831 14601.3 451.844)
(-13780.7 14796.2 1858.25)
(-8157.33 16118.6 2626.48)
(-4299 17307.2 3216.29)
(-1566.56 17377.5 3511.2)
(777.314 16300.8 3221.78)
(3216.9 14760.1 2265.76)
(5821.52 13443.2 735.617)
(8286.06 12586 -1183.89)
(10241.6 11961.4 -3280.45)
(11534.9 11098.6 -5349.86)
(12373.7 9403.27 -7118.77)
(13455.9 6115.31 -8244.66)
(15865.5 678.031 -8582.93)
(20344.7 -6283.02 -8248.75)
(25896.7 -12517.8 -7267.11)
(29111.1 -15713 -5220.69)
(27073.1 -15635.3 -2142.04)
(20831 -14601.3 451.844)
(13780.7 -14796.2 1858.25)
(8157.33 -16118.6 2626.48)
(4299 -17307.2 3216.29)
(1566.56 -17377.5 3511.2)
(-777.314 -16300.8 3221.78)
(-3216.9 -14760.1 2265.76)
(-5821.52 -13443.2 735.617)
(-8286.06 -12586 -1183.89)
(-10241.6 -11961.4 -3280.45)
(-11534.9 -11098.6 -5349.86)
(-12373.7 -9403.27 -7118.77)
(-13455.9 -6115.31 -8244.66)
(-15865.5 -678.031 -8582.93)
(-20344.7 6283.02 -8248.75)
(-25896.7 12517.8 -7267.11)
(-29111.1 15713 -5220.69)
(-33376.8 15415.1 200.76)
(-27993.9 13332.7 1935.29)
(-21058.3 12671.7 2806.8)
(-14600.9 13419.5 3226.17)
(-9300.83 14429.8 3570.22)
(-4947.24 14613.5 3803.84)
(-1122.54 13665.6 3652.44)
(2488.52 12029.8 2934.29)
(5975.91 10315.8 1655.88)
(9164.63 8801.32 -46.0212)
(11801.1 7355.57 -1991.51)
(13784.1 5624.12 -3978.47)
(15359.6 3140.84 -5678.55)
(17259 -632.429 -6659.58)
(20491.7 -5898.71 -6678.54)
(25547.2 -11728.4 -5806.94)
(31261.2 -16012.8 -4244.16)
(34669.2 -17078 -2122.77)
(33376.8 -15415.1 200.76)
(27993.9 -13332.7 1935.29)
(21058.3 -12671.7 2806.8)
(14600.9 -13419.5 3226.17)
(9300.83 -14429.8 3570.22)
(4947.24 -14613.5 3803.84)
(1122.54 -13665.6 3652.44)
(-2488.52 -12029.8 2934.29)
(-5975.91 -10315.8 1655.88)
(-9164.63 -8801.32 -46.0212)
(-11801.1 -7355.57 -1991.51)
(-13784.1 -5624.12 -3978.47)
(-15359.6 -3140.84 -5678.55)
(-17259 632.429 -6659.58)
(-20491.7 5898.71 -6678.54)
(-25547.2 11728.4 -5806.94)
(-31261.2 16012.8 -4244.15)
(-34669.2 17078 -2122.77)
(-38783.2 15113.3 3700.1)
(-33759.3 11978.5 4661.77)
(-26874.6 10545.7 4869.78)
(-19913.2 10707.3 4749.54)
(-13677.2 11324.4 4646.67)
(-8209.01 11310 4600.73)
(-3281.26 10263.1 4404.54)
(1294.82 8444.67 3830.41)
(5575.18 6333.59 2796.59)
(9457.06 4202.63 1375.16)
(12786 2009.57 -281.866)
(15536.3 -483.103 -1958.44)
(18012.3 -3604.71 -3306.16)
(20925.7 -7644.64 -3906.35)
(25103.2 -12461.3 -3514.68)
(30742.3 -16958.3 -2191.43)
(36550 -19292 -233.016)
(39883.3 -18343.4 1919.69)
(38783.2 -15113.3 3700.1)
(33759.3 -11978.5 4661.77)
(26874.6 -10545.7 4869.78)
(19913.2 -10707.3 4749.54)
(13677.2 -11324.4 4646.67)
(8209.01 -11310 4600.73)
(3281.26 -10263.1 4404.54)
(-1294.82 -8444.67 3830.41)
(-5575.18 -6333.59 2796.59)
(-9457.06 -4202.63 1375.16)
(-12786 -2009.57 -281.866)
(-15536.3 483.103 -1958.44)
(-18012.3 3604.71 -3306.16)
(-20925.7 7644.64 -3906.35)
(-25103.2 12461.3 -3514.68)
(-30742.3 16958.3 -2191.43)
(-36550 19292 -233.016)
(-39883.3 18343.4 1919.69)
(-43508.5 14714.3 8111.17)
(-38603.3 10476.9 8396.5)
(-31753.5 8130.46 7964.46)
(-24524.8 7472.36 7284.52)
(-17712.6 7400.94 6699.17)
(-11485.5 6905.32 6293.45)
(-5741.23 5572.11 5928.68)
(-380.743 3514.65 5391.66)
(4609.88 1049.1 4556.99)
(9172.03 -1594.13 3441.79)
(13241.9 -4378.68 2171.89)
(16880.5 -7424.66 966.719)
(20424.2 -10917.5 148.71)
(24487 -14914.7 62.1807)
(29646 -18997.3 904.02)
(35810 -21986.1 2602.96)
(41603 -22332.7 4787.23)
(44686.8 -19448.9 6832.61)
(43508.5 -14714.3 8111.17)
(38603.3 -10476.9 8396.5)
(31753.5 -8130.46 7964.46)
(24524.8 -7472.36 7284.52)
(17712.6 -7400.94 6699.17)
(11485.5 -6905.32 6293.45)
(5741.23 -5572.11 5928.68)
(380.743 -3514.65 5391.66)
(-4609.88 -1049.1 4556.99)
(-9172.03 1594.13 3441.79)
(-13241.9 4378.68 2171.89)
(-16880.5 7424.66 966.719)
(-20424.2 10917.5 148.71)
(-24487 14914.7 62.1807)
(-29646 18997.3 904.02)
(-35810 21986.1 2602.96)
(-41603 22332.7 4787.23)
(-44686.8 19448.9 6832.61)
(-47412.5 14136.8 13483.6)
(-42657.5 8788.19 13188)
(-35971.4 5330.2 12225.5)
(-28703.7 3538.38 11074.4)
(-21589.5 2465.35 10063.6)
(-14862.8 1248.3 9299.01)
(-8524.38 -520.96 8704.56)
(-2547.61 -2869.77 8127.08)
(3063.61 -5645.7 7451.42)
(8298.96 -8675.55 6662.91)
(13179.2 -11863.4 5853.64)
(17827.7 -15216.6 5213.49)
(22550.2 -18764.5 5003.02)
(27787.2 -22345.4 5476.5)
(33835 -25337.6 6763.12)
(40352.3 -26582.1 8742.47)
(45967.1 -24901.8 10961.4)
(48704.1 -20224.1 12726)
(47412.5 -14136.8 13483.6)
(42657.5 -8788.19 13188)
(35971.4 -5330.2 12225.5)
(28703.7 -3538.38 11074.4)
(21589.5 -2465.35 10063.6)
(14862.9 -1248.3 9299.01)
(8524.38 520.961 8704.56)
(2547.61 2869.78 8127.08)
(-3063.61 5645.7 7451.42)
(-8298.96 8675.55 6662.91)
(-13179.2 11863.4 5853.64)
(-17827.7 15216.6 5213.49)
(-22550.2 18764.5 5003.02)
(-27787.2 22345.4 5476.5)
(-33835 25337.6 6763.12)
(-40352.3 26582.1 8742.47)
(-45967.1 24901.8 10961.4)
(-48704.1 20224.1 12726)
(-49870 13235 20152.9)
(-45525.1 6883.82 19386.3)
(-39320.5 2203.83 18043.4)
(-32349.7 -954.14 16562.3)
(-25257.1 -3275.66 15234.8)
(-18320.4 -5424.55 14178.1)
(-11634.9 -7798.39 13381.4)
(-5230.52 -10542.2 12770.5)
(897.098 -13624.4 12267.9)
(6792.51 -16912.9 11840.9)
(12528.4 -20268.4 11538.3)
(18229.4 -23593 11493.7)
(24094.2 -26751.9 11889.5)
(30342.8 -29402.5 12887.4)
(37000.8 -30845.6 14526.3)
(43559.2 -30114.9 16603)
(48776.8 -26505.6 18615.4)
(51131.7 -20364.2 19927.7)
(49870 -13235 20152.9)
(45525.1 -6883.82 19386.3)
(39320.5 -2203.83 18043.4)
(32349.7 954.14 16562.3)
(25257.1 3275.66 15234.8)
(18320.4 5424.55 14178.1)
(11634.9 7798.39 13381.4)
(5230.52 10542.2 12770.5)
(-897.097 13624.4 12267.9)
(-6792.51 16912.9 11840.9)
(-12528.4 20268.4 11538.3)
(-18229.4 23593 11493.7)
(-24094.2 26751.9 11889.5)
(-30342.8 29402.5 12887.4)
(-37000.8 30845.6 14526.3)
(-43559.2 30114.9 16603)
(-48776.8 26505.6 18615.4)
(-51131.7 20364.2 19927.7)
(-49186.2 11723.7 28774.7)
(-45736.7 4799.56 27736.3)
(-40581.4 -897.522 26244.9)
(-34487.5 -5372.58 24653.5)
(-27973.2 -9002.16 23209.5)
(-21335.4 -12226.9 22049)
(-14731.4 -15382.5 21224.1)
(-8216.86 -18631.9 20714.1)
(-1772.91 -21959 20453.3)
(4651.5 -25231.9 20389.3)
(11098.4 -28294.6 20539.2)
(17605.9 -30989.9 20988.6)
(24217.1 -33086.1 21841.9)
(30936.7 -34186.9 23158.8)
(37589.2 -33718.1 24872.9)
(43633.5 -31091.3 26721)
(48131.6 -26083.3 28249.5)
(50114.9 -19226.8 28999.5)
(49186.2 -11723.7 28774.7)
(45736.7 -4799.56 27736.3)
(40581.4 897.522 26244.9)
(34487.5 5372.58 24653.5)
(27973.2 9002.16 23209.5)
(21335.4 12226.9 22049)
(14731.4 15382.5 21224.1)
(8216.86 18631.9 20714.1)
(1772.91 21959 20453.3)
(-4651.5 25231.9 20389.3)
(-11098.4 28294.6 20539.2)
(-17605.9 30989.9 20988.6)
(-24217.1 33086.1 21841.9)
(-30936.7 34186.9 23158.8)
(-37589.2 33718.1 24872.9)
(-43633.5 31091.3 26721)
(-48131.6 26083.3 28249.5)
(-50114.9 19226.8 28999.5)
(-42031.6 8848.04 41707.9)
(-39935.5 2412.22 40664.3)
(-36448.1 -3331.2 39315.5)
(-31991.4 -8290.71 37918.8)
(-26922 -12593.7 36695)
(-21490.8 -16454.8 35796.2)
(-15837.4 -20040.9 35272.8)
(-10007.6 -23390.1 35063.6)
(-4001.05 -26433.8 35066)
(2158.41 -29062.8 35232.8)
(8417.71 -31179.2 35609)
(14694.9 -32654.5 36273.3)
(20907.6 -33274.3 37258)
(26926.9 -32739.9 38512.6)
(32517.7 -30741.3 39889.9)
(37283.6 -27089.5 41148.6)
(40709 -21877.6 41994.6)
(42347.7 -15559.8 42198.3)
(42031.6 -8848.04 41707.9)
(39935.5 -2412.22 40664.3)
(36448.1 3331.2 39315.5)
(31991.4 8290.71 37918.8)
(26922 12593.7 36695)
(21490.8 16454.8 35796.2)
(15837.4 20040.9 35272.8)
(10007.6 23390.1 35063.6)
(4001.05 26433.8 35066)
(-2158.41 29062.8 35232.8)
(-8417.71 31179.2 35609)
(-14694.9 32654.5 36273.3)
(-20907.6 33274.3 37258)
(-26926.9 32739.9 38512.6)
(-32517.7 30741.3 39889.9)
(-37283.6 27089.5 41148.6)
(-40709 21877.6 41994.6)
(-42347.7 15559.8 42198.3)
(-15998.9 2782.84 48413.6)
(-15201.3 88.6347 48248.8)
(-13789.9 -2245.09 48096.6)
(-11943.8 -4135.17 48077.4)
(-9849.14 -5602.35 48257.9)
(-7664.21 -6731.56 48565.6)
(-5507.42 -7651.57 48863)
(-3429.55 -8505.96 48979.2)
(-1404.4 -9419.74 48853.3)
(641.597 -10423.9 48497.1)
(2781.49 -11440.3 48020.8)
(5034.17 -12307.8 47610.5)
(7373.2 -12824.9 47415.9)
(9725.28 -12792.6 47494.9)
(11963.9 -12047.1 47768.3)
(13902.8 -10525 48105.7)
(15325 -8308.48 48368.2)
(16051.7 -5622.8 48474.4)
(15998.9 -2782.84 48413.6)
(15201.3 -88.6347 48248.8)
(13789.9 2245.09 48096.6)
(11943.8 4135.17 48077.4)
(9849.15 5602.35 48257.9)
(7664.21 6731.56 48565.6)
(5507.42 7651.57 48863)
(3429.55 8505.97 48979.2)
(1404.4 9419.74 48853.3)
(-641.596 10423.9 48497.1)
(-2781.49 11440.3 48020.8)
(-5034.17 12307.8 47610.5)
(-7373.2 12824.9 47415.9)
(-9725.28 12792.6 47494.9)
(-11963.9 12047.1 47768.3)
(-13902.8 10525 48105.7)
(-15325 8308.48 48368.2)
(-16051.7 5622.8 48474.4)
)
;
    }
    outside
    {
        type            calculated;
        value           nonuniform List<vector> 
540
(
(-1119.5 -12716.3 -13184.9)
(15723.5 -9913.89 40.6862)
(25809.3 -1784.46 6352.9)
(29322 7142.57 7921.08)
(27327.9 14124.4 7197.95)
(21790.7 18348.8 5634.78)
(14544.5 19951.4 3825.91)
(6972.92 19432.3 1964.43)
(-3.93696 17372.6 107.577)
(-5812.79 14238.6 -1717.28)
(-10018.2 10223.1 -3515.94)
(-12035.4 5210.38 -5421.36)
(-10890.9 -974.568 -7888.58)
(-5386.6 -7868.9 -11909.6)
(4707.24 -13356 -18711)
(16441.7 -13573.4 -27761.5)
(23443 -6028.96 -33874.3)
(17850.2 5962.32 -28389.9)
(1119.5 12716.3 -13184.9)
(-15723.5 9913.89 40.6862)
(-25809.3 1784.46 6352.9)
(-29322 -7142.57 7921.08)
(-27327.9 -14124.4 7197.95)
(-21790.7 -18348.8 5634.78)
(-14544.5 -19951.4 3825.91)
(-6972.92 -19432.3 1964.43)
(3.93699 -17372.6 107.577)
(5812.79 -14238.6 -1717.28)
(10018.2 -10223.1 -3515.94)
(12035.4 -5210.38 -5421.36)
(10890.9 974.568 -7888.58)
(5386.6 7868.9 -11909.6)
(-4707.24 13356 -18711)
(-16441.7 13573.4 -27761.5)
(-23443 6028.96 -33874.3)
(-17850.2 -5962.32 -28389.9)
(16864.7 -9337.45 -3338.58)
(21817.3 -6770.61 4028.7)
(23656.1 -1372.86 6581.7)
(22376.5 2792.17 6661.73)
(19020.4 5221.09 5884.19)
(14550.1 6146.83 4758.53)
(9700.41 5893.31 3414.35)
(5057.52 4978.93 1899.76)
(926.675 3985.58 265.474)
(-2675.17 3347.88 -1401.95)
(-5887.79 3197.98 -2981.67)
(-8812.68 3330.57 -4346.68)
(-11353.2 3294.88 -5425.42)
(-13173.3 2607.01 -6313.3)
(-13941.4 1174.09 -7388.93)
(-14016.6 -109.328 -9077.19)
(-14323.9 504.947 -10733.1)
(-13408.4 4348.59 -10391.3)
(-16864.7 9337.45 -3338.58)
(-21817.3 6770.61 4028.7)
(-23656.1 1372.86 6581.7)
(-22376.5 -2792.17 6661.73)
(-19020.4 -5221.09 5884.19)
(-14550.1 -6146.83 4758.53)
(-9700.41 -5893.31 3414.35)
(-5057.52 -4978.93 1899.76)
(-926.675 -3985.58 265.474)
(2675.17 -3347.88 -1401.95)
(5887.79 -3197.98 -2981.67)
(8812.68 -3330.57 -4346.68)
(11353.2 -3294.88 -5425.42)
(13173.3 -2607.01 -6313.3)
(13941.4 -1174.09 -7388.93)
(14016.6 109.328 -9077.19)
(14323.9 -504.947 -10733.1)
(13408.4 -4348.59 -10391.3)
(10125.6 -9798.41 4652.05)
(23562.7 -4701.75 9080.34)
(26390.9 1681.8 8593.79)
(24636.6 5339.33 7221.31)
(21337.2 7528.5 5893.86)
(17227.3 8673.65 4668.59)
(12718.2 8986.23 3422.14)
(8154.58 8770.31 2065.6)
(3773.66 8416.72 603.03)
(-344.094 8222.32 -872.204)
(-4210.15 8230.56 -2203.68)
(-7789.99 8172.3 -3220.44)
(-10871.4 7485.76 -3817.4)
(-12994.8 5421.02 -4091.47)
(-13627.6 1465.64 -4521.55)
(-12835.9 -3704.98 -5924.83)
(-9763 -7603.74 -8500.49)
(-1200.47 -4583.78 -6134.36)
(-10125.6 9798.41 4652.05)
(-23562.7 4701.75 9080.34)
(-26390.9 -1681.8 8593.79)
(-24636.6 -5339.33 7221.31)
(-21337.2 -7528.5 5893.86)
(-17227.3 -8673.65 4668.59)
(-12718.2 -8986.23 3422.14)
(-8154.58 -8770.31 2065.6)
(-3773.66 -8416.72 603.03)
(344.094 -8222.32 -872.204)
(4210.15 -8230.56 -2203.68)
(7789.99 -8172.3 -3220.44)
(10871.4 -7485.76 -3817.4)
(12994.8 -5421.02 -4091.47)
(13627.6 -1465.64 -4521.55)
(12835.9 3704.98 -5924.83)
(9763 7603.74 -8500.49)
(1200.47 4583.78 -6134.36)
(19710.4 5002.2 15315.3)
(26350.9 2018.08 13047)
(26874.3 4296.23 9753.08)
(24722 6407.69 7188.15)
(21344.8 7740.3 5286.05)
(17514.8 8458.9 3923.5)
(13529.3 8717.61 2789.53)
(9492.18 8670.81 1626.04)
(5490.69 8534.95 355.44)
(1588.97 8489.69 -945.788)
(-2172.78 8536.71 -2106.47)
(-5712.27 8414.86 -2924.84)
(-8814.18 7554.66 -3250.58)
(-11061 5116.73 -3096.11)
(-12002.5 410.102 -2734.7)
(-11750.1 -6215.11 -2618.96)
(-10257.4 -12267.7 -2744.32)
(-12053.6 -13865 3486.32)
(-19710.4 -5002.2 15315.3)
(-26350.9 -2018.08 13047)
(-26874.3 -4296.23 9753.08)
(-24722 -6407.69 7188.15)
(-21344.8 -7740.3 5286.05)
(-17514.8 -8458.9 3923.5)
(-13529.3 -8717.61 2789.53)
(-9492.18 -8670.81 1626.04)
(-5490.69 -8534.95 355.44)
(-1588.97 -8489.69 -945.788)
(2172.78 -8536.71 -2106.47)
(5712.27 -8414.86 -2924.84)
(8814.18 -7554.66 -3250.58)
(11061 -5116.73 -3096.11)
(12002.5 -410.102 -2734.7)
(11750.1 6215.11 -2618.96)
(10257.4 12267.7 -2744.32)
(12053.6 13865 3486.32)
(17023.7 8692.91 10300.8)
(21532.3 5313.23 11335.7)
(23863.2 5397.25 9367.55)
(22749.9 6242.1 6815.91)
(19904.7 6758.62 4673.56)
(16526.5 6882 3222.03)
(13119.5 6783.71 2180.43)
(9731.74 6573.91 1186.46)
(6338.73 6351.09 86.4019)
(2957.33 6193.84 -1069.12)
(-363.155 6060.65 -2099.09)
(-3520.68 5692.73 -2765.73)
(-6299.52 4534.04 -2870.35)
(-8322.81 1802.34 -2377.58)
(-9265.85 -2957.87 -1468.8)
(-9594.06 -8760.61 -338.268)
(-11471.3 -12306.3 1408.19)
(-15163.6 -12348.2 5291.85)
(-17023.7 -8692.91 10300.8)
(-21532.3 -5313.23 11335.7)
(-23863.2 -5397.25 9367.55)
(-22749.9 -6242.1 6815.91)
(-19904.7 -6758.62 4673.56)
(-16526.5 -6882 3222.03)
(-13119.5 -6783.71 2180.43)
(-9731.74 -6573.91 1186.46)
(-6338.73 -6351.09 86.4019)
(-2957.33 -6193.84 -1069.12)
(363.155 -6060.65 -2099.09)
(3520.68 -5692.73 -2765.73)
(6299.52 -4534.04 -2870.35)
(8322.81 -1802.34 -2377.58)
(9265.85 2957.87 -1468.8)
(9594.06 8760.61 -338.268)
(11471.3 12306.3 1408.19)
(15163.6 12348.2 5291.85)
(14675.9 9269.22 8950.37)
(17433.7 6339.33 9988.54)
(19642.3 5241.78 8935.22)
(19656.7 5206.15 6771.71)
(17831.8 5180.97 4600.62)
(15175.5 4864.3 3067.05)
(12370.5 4381.22 2046.36)
(9578.36 3853.68 1151.83)
(6772.03 3338.23 177.291)
(3944.59 2851.5 -851.201)
(1140.87 2320.8 -1743.81)
(-1536.61 1508.36 -2225.73)
(-3894.58 -40.1665 -2061.94)
(-5642.81 -2843.03 -1228.67)
(-6617.37 -6902.25 57.8014)
(-7345.71 -11000.1 1627.3)
(-9142.89 -13015.6 3637.89)
(-11989.6 -12179.5 6293.01)
(-14675.9 -9269.22 8950.37)
(-17433.7 -6339.33 9988.54)
(-19642.3 -5241.78 8935.22)
(-19656.7 -5206.15 6771.71)
(-17831.8 -5180.97 4600.62)
(-15175.5 -4864.3 3067.05)
(-12370.5 -4381.22 2046.36)
(-9578.36 -3853.68 1151.83)
(-6772.03 -3338.23 177.291)
(-3944.59 -2851.5 -851.201)
(-1140.87 -2320.8 -1743.81)
(1536.61 -1508.36 -2225.73)
(3894.58 40.1664 -2061.94)
(5642.81 2843.03 -1228.67)
(6617.37 6902.25 57.8014)
(7345.71 11000.1 1627.3)
(9142.89 13015.6 3637.89)
(11989.6 12179.5 6293.01)
(11142.9 9377.9 9403.58)
(13519.5 6401.95 9997.36)
(15535.8 4597.7 9215.73)
(16251.2 3790.75 7378.61)
(15479.4 3290.94 5263.86)
(13730.3 2686.1 3623.05)
(11604.4 1931.57 2533.85)
(9375.39 1098.69 1665.53)
(7087.88 223.492 790.094)
(4757.14 -707.227 -86.7274)
(2438.75 -1772.14 -775.255)
(238.375 -3141.47 -992.552)
(-1677.34 -5064.39 -527.469)
(-3108.34 -7704.86 564.298)
(-4022.19 -10770 2014.27)
(-4892.06 -13262.3 3682.94)
(-6497.89 -13937.2 5638.41)
(-8807.89 -12384 7731.41)
(-11142.9 -9377.9 9403.58)
(-13519.5 -6401.95 9997.36)
(-15535.8 -4597.7 9215.73)
(-16251.2 -3790.75 7378.61)
(-15479.4 -3290.94 5263.86)
(-13730.3 -2686.1 3623.05)
(-11604.4 -1931.57 2533.85)
(-9375.39 -1098.69 1665.53)
(-7087.88 -223.492 790.094)
(-4757.14 707.227 -86.7274)
(-2438.75 1772.14 -775.255)
(-238.375 3141.47 -992.552)
(1677.34 5064.39 -527.469)
(3108.34 7704.86 564.298)
(4022.19 10770 2014.27)
(4892.06 13262.3 3682.94)
(6497.89 13937.2 5638.41)
(8807.89 12384 7731.41)
(7547.19 9432.39 10799.4)
(9684.5 6131.21 11029.4)
(11624.4 3734.09 10261.9)
(12789.4 2225.28 8641.38)
(12877.8 1199.51 6647.39)
(12042 291.509 4932)
(10663.6 -695.569 3734.42)
(9031.62 -1809.49 2853.7)
(7265.51 -3055.04 2083.11)
(5428.25 -4453.36 1411.64)
(3600.51 -6050.94 1003.42)
(1898.09 -7904.18 1092.62)
(471.84 -10035 1799.33)
(-550.179 -12342.6 2989.1)
(-1245.53 -14452.4 4429.57)
(-2055.62 -15642.7 6062.1)
(-3479.1 -15161.2 7900.59)
(-5446.41 -12842.8 9653.1)
(-7547.19 -9432.39 10799.4)
(-9684.5 -6131.21 11029.4)
(-11624.4 -3734.09 10261.9)
(-12789.4 -2225.28 8641.38)
(-12877.8 -1199.51 6647.39)
(-12042 -291.509 4932)
(-10663.6 695.569 3734.42)
(-9031.62 1809.49 2853.7)
(-7265.51 3055.04 2083.11)
(-5428.25 4453.36 1411.64)
(-3600.51 6050.94 1003.42)
(-1898.09 7904.18 1092.62)
(-471.84 10035 1799.33)
(550.179 12342.6 2989.1)
(1245.53 14452.4 4429.57)
(2055.62 15642.7 6062.1)
(3479.1 15161.2 7900.59)
(5446.41 12842.8 9653.1)
(3981.69 9386.66 12761.5)
(5988.39 5641.79 12724.4)
(7894.16 2684.63 11913.9)
(9330.79 530.932 10459.9)
(10029.5 -1064.74 8657.4)
(9969.34 -2379.44 6980.48)
(9328.65 -3673.05 5729.65)
(8334.71 -5104.47 4855.82)
(7144.98 -6728.81 4216.26)
(5864.7 -8555.88 3787.21)
(4597.22 -10570.4 3677.23)
(3467.03 -12710 4024.78)
(2608.9 -14833.1 4844.13)
(2077.92 -16701.1 5984)
(1694.69 -17935.4 7310.01)
(1029.93 -18003 8829.55)
(-255.624 -16449.3 10500)
(-2034.45 -13326 11965.8)
(-3981.69 -9386.66 12761.5)
(-5988.39 -5641.79 12724.4)
(-7894.16 -2684.63 11913.9)
(-9330.79 -530.932 10459.9)
(-10029.5 1064.74 8657.4)
(-9969.34 2379.44 6980.48)
(-9328.65 3673.05 5729.65)
(-8334.71 5104.47 4855.82)
(-7144.98 6728.81 4216.26)
(-5864.7 8555.88 3787.21)
(-4597.22 10570.4 3677.23)
(-3467.03 12710 4024.78)
(-2608.9 14833.1 4844.13)
(-2077.92 16701.1 5984)
(-1694.69 17935.4 7310.01)
(-1029.93 18003 8829.55)
(255.624 16449.3 10500)
(2034.45 13326 11965.8)
(757.439 9074.32 14984.9)
(2635.61 4880.3 14774.1)
(4442.97 1410.74 13964.7)
(5961.8 -1326.88 12701.4)
(7007.43 -3499.7 11175.9)
(7507.37 -5315.16 9692.48)
(7510.5 -7024.21 8520.43)
(7157.67 -8835.26 7723.01)
(6599.03 -10834.3 7239.86)
(5955.85 -13004.1 7041.45)
(5335.86 -15259 7165.94)
(4852.71 -17447 7649.09)
(4601 -19340 8438.12)
(4551.63 -20641.7 9422.57)
(4453.16 -20991.2 10561.3)
(3917.35 -19999.3 11886.2)
(2732.53 -17440.2 13307.9)
(1074.99 -13546 14469.3)
(-757.439 -9074.32 14984.9)
(-2635.61 -4880.3 14774.1)
(-4442.97 -1410.74 13964.7)
(-5961.8 1326.88 12701.4)
(-7007.43 3499.7 11175.9)
(-7507.37 5315.16 9692.48)
(-7510.5 7024.21 8520.43)
(-7157.67 8835.26 7723.01)
(-6599.03 10834.3 7239.86)
(-5955.85 13004.1 7041.45)
(-5335.86 15259 7165.94)
(-4852.71 17447 7649.09)
(-4601 19340 8438.12)
(-4551.63 20641.7 9422.57)
(-4453.16 20991.2 10561.3)
(-3917.35 19999.3 11886.2)
(-2732.53 17440.2 13307.9)
(-1074.99 13546 14469.3)
(-1757.9 8341 17193.7)
(-101.709 3812.01 16908.7)
(1470.2 -62.4244 16203.3)
(2864.91 -3293.31 15215.2)
(3997.44 -6007 14066.9)
(4812.81 -8357.16 12927.9)
(5304.53 -10541.7 11986.2)
(5536.3 -12749.8 11349.6)
(5613.7 -15061.9 11026.9)
(5636.84 -17426 10992.6)
(5688.57 -19697.3 11227.1)
(5842.31 -21673.2 11696.3)
(6127.41 -23099.4 12333.8)
(6441.06 -23678.4 13087.7)
(6516.16 -23103.4 13973.4)
(6050.64 -21125.9 15015.6)
(4949.71 -17707.3 16098.7)
(3422.9 -13204.7 16916.6)
(1757.9 -8341 17193.7)
(101.709 -3812.01 16908.7)
(-1470.2 62.4242 16203.3)
(-2864.91 3293.31 15215.2)
(-3997.44 6007 14066.9)
(-4812.81 8357.16 12927.9)
(-5304.53 10541.7 11986.2)
(-5536.3 12749.8 11349.6)
(-5613.7 15061.9 11026.9)
(-5636.84 17426 10992.6)
(-5688.57 19697.3 11227.1)
(-5842.31 21673.2 11696.3)
(-6127.41 23099.4 12333.8)
(-6441.06 23678.4 13087.7)
(-6516.16 23103.4 13973.4)
(-6050.64 21125.9 15015.6)
(-4949.71 17707.3 16098.7)
(-3422.9 13204.7 16916.6)
(-3216.11 7116.13 19142.2)
(-1913.05 2522.18 18897.9)
(-715.213 -1537.3 18428.3)
(383.721 -5082.48 17825.3)
(1389.98 -8201.08 17143.7)
(2295.82 -10986 16446.6)
(3083.44 -13555.2 15833.1)
(3756.45 -16034.6 15404.8)
(4353.97 -18474 15213.5)
(4926.48 -20791.7 15249.8)
(5513.12 -22809.9 15467.5)
(6133.96 -24316.7 15807.2)
(6756.12 -25082.4 16218.8)
(7240.96 -24864.8 16693)
(7359.62 -23448.7 17262.3)
(6918.8 -20721 17933.3)
(5922.29 -16781 18598.3)
(4598.47 -12039.6 19049.8)
(3216.11 -7116.13 19142.2)
(1913.05 -2522.18 18897.9)
(715.213 1537.3 18428.3)
(-383.721 5082.48 17825.3)
(-1389.98 8201.08 17143.7)
(-2295.82 10986 16446.6)
(-3083.44 13555.2 15833.1)
(-3756.45 16034.6 15404.8)
(-4353.97 18474 15213.5)
(-4926.48 20791.7 15249.8)
(-5513.12 22809.9 15467.5)