/*--------------------------------*- C++ -*----------------------------------*\
| =========                 |                                                 |
| \\      /  F ield         | OpenFOAM: The Open Source CFD Toolbox           |
|  \\    /   O peration     | Version:  2312                                  |
|   \\  /    A nd           | Website:  www.openfoam.com                      |
|    \\/     M anipulation  |                                                 |
\*---------------------------------------------------------------------------*/
FoamFile
{
    version     2.0;
    format      ascii;
    arch        "LSB;label=32;scalar=64";
    class       volVectorField;
    location    "0.5";
    object      traction;
}
// * * * * * * * * * * * * * * * * * * * * * * * * * * * * * * * * * * * * * //

dimensions      [1 -1 -2 0 0 0 0];

internalField   uniform (0 0 0);

boundaryField
{
    fixed
    {
        type            calculated;
        value           nonuniform List<vector> 
108
(
(-80.2343 13272.9 33299.5)
(-2383.81 13057.3 33299.5)
(-4614.97 12445 33299.5)
(-6705.94 11454.5 33299.4)
(-8593.1 10116 33299.4)
(-10219.2 8470.21 33299.5)
(-11534.7 6566.96 33299.4)
(-12499.9 4464.2 33299.5)
(-13085.2 2225.82 33299.5)
(-13272.9 -80.2343 33299.5)
(-13057.3 -2383.81 33299.5)
(-12445 -4614.98 33299.5)
(-11454.5 -6705.94 33299.4)
(-10116 -8593.1 33299.4)
(-8470.21 -10219.2 33299.5)
(-6566.96 -11534.7 33299.4)
(-4464.2 -12499.9 33299.5)
(-2225.82 -13085.2 33299.5)
(80.2342 -13272.9 33299.5)
(2383.81 -13057.3 33299.5)
(4614.97 -12445 33299.5)
(6705.94 -11454.5 33299.4)
(8593.1 -10116 33299.4)
(10219.2 -8470.21 33299.5)
(11534.7 -6566.96 33299.4)
(12499.9 -4464.2 33299.5)
(13085.2 -2225.82 33299.5)
(13272.9 80.2343 33299.5)
(13057.3 2383.81 33299.5)
(12445 4614.98 33299.5)
(11454.5 6705.94 33299.4)
(10116 8593.1 33299.4)
(8470.21 10219.2 33299.5)
(6566.96 11534.7 33299.4)
(4464.2 12499.9 33299.5)
(2225.82 13085.2 33299.5)
(720.981 772.422 11374.7)
(575.9 885.885 11374.7)
(413.321 972.411 11374.6)
(238.137 1029.48 11374.7)
(55.7019 1055.24 11374.6)
(-128.332 1048.85 11374.6)
(-308.432 1010.59 11374.6)
(-479.248 941.682 11374.7)
(-635.49 844.155 11374.6)
(-772.422 720.981 11374.7)
(-885.885 575.9 11374.7)
(-972.412 413.321 11374.6)
(-1029.48 238.137 11374.7)
(-1055.24 55.7019 11374.6)
(-1048.85 -128.332 11374.6)
(-1010.59 -308.432 11374.6)
(-941.682 -479.248 11374.7)
(-844.155 -635.49 11374.6)
(-720.981 -772.422 11374.7)
(-575.9 -885.885 11374.7)
(-413.321 -972.411 11374.6)
(-238.137 -1029.48 11374.7)
(-55.702 -1055.24 11374.6)
(128.332 -1048.85 11374.6)
(308.432 -1010.59 11374.6)
(479.247 -941.682 11374.7)
(635.49 -844.155 11374.6)
(772.422 -720.981 11374.7)
(885.884 -575.9 11374.7)
(972.411 -413.321 11374.6)
(1029.48 -238.137 11374.7)
(1055.24 -55.7019 11374.6)
(1048.85 128.332 11374.6)
(1010.59 308.432 11374.6)
(941.682 479.248 11374.7)
(844.155 635.49 11374.6)
(3091.79 -19378.5 12698.3)
(6409.85 -18547.2 12698.3)
(9533.19 -17152.4 12698.2)
(12366.9 -15236.4 12698.2)
(14824.7 -12857.4 12698.2)
(16832.2 -10087.8 12698.3)
(18328.2 -7011.7 12698.3)
(19267.3 -3722.49 12698.2)
(19621 -320.215 12698.3)
(19378.5 3091.79 12698.3)
(18547.2 6409.85 12698.3)
(17152.4 9533.19 12698.2)
(15236.4 12366.9 12698.2)
(12857.4 14824.7 12698.2)
(10087.8 16832.2 12698.3)
(7011.7 18328.2 12698.3)
(3722.49 19267.3 12698.2)
(320.215 19621 12698.3)
(-3091.79 19378.5 12698.3)
(-6409.85 18547.2 12698.3)
(-9533.19 17152.4 12698.2)
(-12366.9 15236.4 12698.2)
(-14824.7 12857.4 12698.2)
(-16832.2 10087.8 12698.3)
(-18328.2 7011.7 12698.3)
(-19267.3 3722.49 12698.2)
(-19621 320.215 12698.3)
(-19378.5 -3091.79 12698.3)
(-18547.2 -6409.85 12698.3)
(-17152.4 -9533.19 12698.2)
(-15236.4 -12366.9 12698.2)
(-12857.4 -14824.7 12698.2)
(-10087.8 -16832.2 12698.3)
(-7011.7 -18328.2 12698.3)
(-3722.49 -19267.3 12698.2)
(-320.215 -19621 12698.3)
)
;
    }
    inside
    {
        type            calculated;
        value           nonuniform List<vector> 
540
(
(1954.93 496.172 552.371)
(1839.07 828.082 552.367)
(1667.46 1134.9 552.432)
(1445.05 1407.24 552.367)
(1178.69 1636.7 552.417)
(876.567 1816.51 552.416)
(547.787 1941.11 552.365)
(202.431 2006.83 552.425)
(-149.182 2011.42 552.33)
(-496.171 1954.92 552.371)
(-828.081 1839.07 552.367)
(-1134.9 1667.46 552.432)
(-1407.24 1445.05 552.368)
(-1636.7 1178.69 552.417)
(-1816.51 876.566 552.416)
(-1941.1 547.787 552.365)
(-2006.83 202.431 552.425)
(-2011.42 -149.182 552.33)
(-1954.92 -496.171 552.371)
(-1839.07 -828.081 552.367)
(-1667.46 -1134.9 552.432)
(-1445.05 -1407.24 552.368)
(-1178.69 -1636.7 552.417)
(-876.567 -1816.51 552.416)
(-547.787 -1941.11 552.366)
(-202.431 -2006.84 552.425)
(149.182 -2011.42 552.33)
(496.171 -1954.92 552.371)
(828.082 -1839.07 552.367)
(1134.9 -1667.46 552.432)
(1407.24 -1445.05 552.368)
(1636.7 -1178.69 552.417)
(1816.52 -876.568 552.416)
(1941.11 -547.788 552.365)
(2006.84 -202.432 552.425)
(2011.42 149.182 552.33)
(17871.2 3918.81 1950.94)
(16919.3 6962.48 1950.82)
(15453.2 9794.72 1950.85)
(13517.7 12329.5 1950.85)
(11171.2 14489.4 1950.86)
(8485.38 16209 1950.87)
(5541.84 17436.3 1950.86)
(2429.87 18133.7 1950.89)
(-755.816 18280.1 1950.8)
(-3918.81 17871.2 1950.94)
(-6962.48 16919.3 1950.82)
(-9794.72 15453.2 1950.85)
(-12329.5 13517.7 1950.85)
(-14489.4 11171.2 1950.86)
(-16209 8485.38 1950.87)
(-17436.3 5541.84 1950.86)
(-18133.7 2429.87 1950.89)
(-18280.1 -755.816 1950.8)
(-17871.2 -3918.81 1950.94)
(-16919.3 -6962.48 1950.82)
(-15453.2 -9794.72 1950.85)
(-13517.7 -12329.5 1950.85)
(-11171.2 -14489.4 1950.86)
(-8485.38 -16209 1950.87)
(-5541.84 -17436.3 1950.86)
(-2429.87 -18133.7 1950.89)
(755.816 -18280.1 1950.8)
(3918.81 -17871.2 1950.94)
(6962.48 -16919.3 1950.82)
(9794.72 -15453.2 1950.85)
(12329.5 -13517.7 1950.85)
(14489.4 -11171.2 1950.86)
(16209 -8485.38 1950.87)
(17436.3 -5541.84 1950.86)
(18133.7 -2429.87 1950.89)
(18280.1 755.816 1950.8)
(20675 7548.21 1848.07)
(19050.3 11023.8 1848.01)
(16846.5 14164.2 1848.05)
(14131 16874.3 1848.04)
(10986.1 19071.9 1848.06)
(7507.39 20689.8 1848.07)
(3800.58 21679.3 1848.04)
(-21.7886 22009.7 1848.06)
(-3843.3 21671.6 1848.03)
(-7548.21 20675 1848.07)
(-11023.8 19050.3 1848.01)
(-14164.2 16846.5 1848.05)
(-16874.3 14131 1848.04)
(-19071.9 10986.1 1848.06)
(-20689.8 7507.39 1848.07)
(-21679.3 3800.58 1848.03)
(-22009.7 -21.7884 1848.06)
(-21671.6 -3843.3 1848.03)
(-20675 -7548.21 1848.07)
(-19050.3 -11023.8 1848.01)
(-16846.5 -14164.2 1848.05)
(-14131 -16874.3 1848.04)
(-10986.1 -19071.9 1848.06)
(-7507.39 -20689.8 1848.07)
(-3800.58 -21679.3 1848.03)
(21.7885 -22009.7 1848.06)
(3843.3 -21671.6 1848.03)
(7548.21 -20675 1848.07)
(11023.8 -19050.3 1848.01)
(14164.2 -16846.5 1848.05)
(16874.3 -14131 1848.04)
(19071.9 -10986.1 1848.06)
(20689.8 -7507.39 1848.07)
(21679.3 -3800.58 1848.03)
(22009.7 21.7886 1848.06)
(21671.6 3843.3 1848.03)
(23854.7 12266.4 1755.9)
(21362.3 16222.5 1756.03)
(18220.7 19685.5 1755.97)
(14525.6 22550.5 1755.97)
(10389.1 24730.3 1755.96)
(5936.84 26158.5 1755.96)
(1304.28 26792.1 1755.95)
(-3367.86 26611.5 1755.96)
(-7937.87 25622.3 1756.02)
(-12266.4 23854.7 1755.9)
(-16222.5 21362.3 1756.03)
(-19685.5 18220.7 1755.97)
(-22550.5 14525.6 1755.97)
(-24730.3 10389.1 1755.96)
(-26158.5 5936.84 1755.96)
(-26792.1 1304.28 1755.95)
(-26611.5 -3367.86 1755.96)
(-25622.3 -7937.87 1756.02)
(-23854.7 -12266.4 1755.9)
(-21362.3 -16222.5 1756.03)
(-18220.7 -19685.5 1755.97)
(-14525.6 -22550.5 1755.97)
(-10389.1 -24730.3 1755.96)
(-5936.84 -26158.5 1755.96)
(-1304.28 -26792.1 1755.95)
(3367.86 -26611.5 1755.96)
(7937.87 -25622.3 1756.02)
(12266.4 -23854.7 1755.9)
(16222.5 -21362.3 1756.03)
(19685.5 -18220.7 1755.97)
(22550.5 -14525.6 1755.97)
(24730.3 -10389.1 1755.96)
(26158.5 -5936.84 1755.96)
(26792.1 -1304.28 1755.95)
(26611.5 3367.86 1755.96)
(25622.3 7937.87 1756.02)
(25889.7 17289.2 1792.03)
(22493.9 21522.3 1792.15)
(18415 25101.3 1792.05)
(13776.4 27917.8 1792.08)
(8719.22 29885.8 1792.08)
(3397.19 30945.9 1792.06)
(-2028.15 31065.6 1792.1)
(-7391.81 30241.6 1792.03)
(-12531 28498.5 1792.16)
(-17289.2 25889.7 1792.03)
(-21522.3 22493.9 1792.15)
(-25101.3 18415 1792.05)
(-27917.8 13776.4 1792.08)
(-29885.8 8719.22 1792.08)
(-30945.9 3397.19 1792.06)
(-31065.6 -2028.15 1792.1)
(-30241.6 -7391.81 1792.03)
(-28498.5 -12531 1792.16)
(-25889.7 -17289.2 1792.03)
(-22493.9 -21522.3 1792.15)
(-18415 -25101.3 1792.05)
(-13776.4 -27917.8 1792.08)
(-8719.22 -29885.8 1792.08)
(-3397.19 -30945.9 1792.06)
(2028.15 -31065.6 1792.1)
(7391.81 -30241.6 1792.03)
(12531 -28498.5 1792.16)
(17289.2 -25889.7 1792.03)
(21522.3 -22493.9 1792.15)
(25101.3 -18415 1792.05)
(27917.8 -13776.4 1792.08)
(29885.8 -8719.22 1792.08)
(30945.9 -3397.19 1792.06)
(31065.6 2028.15 1792.1)
(30241.6 7391.81 1792.03)
(28498.5 12531 1792.16)
(26682.6 22020.3 1956.86)
(22453.3 26319.1 1956.93)
(17542 29818.5 1956.94)
(12097.6 32411.3 1956.89)
(6285.69 34019.8 1956.88)
(282.696 34594.6 1956.88)
(-5728.78 34117.9 1956.82)
(-11566.4 32604.9 1956.84)
(-17052.5 30101 1956.94)
(-22020.3 26682.6 1956.86)
(-26319.1 22453.3 1956.93)
(-29818.5 17542 1956.94)
(-32411.3 12097.6 1956.89)
(-34019.8 6285.69 1956.88)
(-34594.6 282.697 1956.88)
(-34117.9 -5728.78 1956.82)
(-32604.9 -11566.4 1956.84)
(-30101 -17052.5 1956.93)
(-26682.6 -22020.3 1956.86)
(-22453.3 -26319.1 1956.93)
(-17542 -29818.5 1956.94)
(-12097.6 -32411.3 1956.89)
(-6285.69 -34019.8 1956.88)
(-282.697 -34594.6 1956.88)
(5728.78 -34117.9 1956.82)
(11566.4 -32604.9 1956.84)
(17052.5 -30101 1956.93)
(22020.3 -26682.6 1956.86)
(26319.1 -22453.3 1956.93)
(29818.5 -17542 1956.94)
(32411.3 -12097.6 1956.89)
(34019.8 -6285.69 1956.88)
(34594.6 -282.697 1956.88)
(34117.9 5728.78 1956.82)
(32604.9 11566.4 1956.84)
(30101 17052.5 1956.94)
(26079 25673.1 2277.8)
(21224.6 29811.4 2277.81)
(15725.5 33044.3 2277.79)
(9748.39 35272.9 2277.83)
(3475.28 36429.8 2277.8)
(-2903.48 36479.9 2277.75)
(-9194.05 35421.5 2277.81)
(-15205.2 33287 2277.73)
(-20754.2 30140.6 2277.81)
(-25673.1 26079 2277.8)
(-29811.4 21224.6 2277.81)
(-33044.3 15725.5 2277.79)
(-35272.9 9748.39 2277.83)
(-36429.8 3475.28 2277.8)
(-36479.9 -2903.48 2277.75)
(-35421.5 -9194.05 2277.81)
(-33287 -15205.2 2277.73)
(-30140.6 -20754.2 2277.81)
(-26079 -25673.1 2277.8)
(-21224.6 -29811.4 2277.81)
(-15725.5 -33044.3 2277.79)
(-9748.39 -35272.9 2277.83)
(-3475.28 -36429.8 2277.8)
(2903.48 -36479.9 2277.75)
(9194.05 -35421.5 2277.81)
(15205.2 -33287 2277.73)
(20754.2 -30140.6 2277.81)
(25673.1 -26079 2277.8)
(29811.4 -21224.6 2277.81)
(33044.3 -15725.5 2277.79)
(35272.9 -9748.39 2277.83)
(36429.8 -3475.28 2277.8)
(36479.9 2903.48 2277.75)
(35421.5 9194.05 2277.81)
(33287 15205.2 2277.73)
(30140.6 20754.2 2277.81)
(23946 27191.3 2854.61)
(18860.4 30936.4 2854.7)
(13202 33741.3 2854.62)
(7142.22 35521.3 2854.7)
(865.529 36221.9 2854.65)
(-5437.44 35822 2854.61)
(-11575.4 34333.6 2854.72)
(-17361.4 31801.9 2854.6)
(-22620.1 28304 2854.66)
(-27191.3 23946 2854.61)
(-30936.4 18860.4 2854.7)
(-33741.3 13202 2854.62)
(-35521.3 7142.22 2854.7)
(-36221.9 865.529 2854.65)
(-35822 -5437.44 2854.61)
(-34333.6 -11575.4 2854.72)
(-31801.9 -17361.4 2854.59)
(-28304 -22620.1 2854.66)
(-23946 -27191.3 2854.61)
(-18860.4 -30936.4 2854.7)
(-13202 -33741.3 2854.62)
(-7142.22 -35521.3 2854.7)
(-865.529 -36221.9 2854.65)
(5437.44 -35822 2854.61)
(11575.4 -34333.6 2854.72)
(17361.4 -31801.9 2854.59)
(22620.1 -28304 2854.66)
(27191.3 -23946 2854.61)
(30936.4 -18860.4 2854.7)
(33741.3 -13202 2854.62)
(35521.3 -7142.22 2854.7)
(36221.9 -865.529 2854.65)
(35822 5437.44 2854.61)
(34333.6 11575.4 2854.72)
(31801.9 17361.4 2854.6)
(28304 22620.1 2854.66)
(20343 25389 3800.36)
(15625.2 28536.2 3800.53)
(10432.5 30815.8 3800.48)
(4922.98 32159.4 3800.43)
(-736.166 32525.7 3800.43)
(-6372.97 31903.6 3800.41)
(-11816.2 30312.3 3800.44)
(-16900.3 27799.9 3800.41)
(-21471.3 24443 3800.5)
(-25389 20343 3800.36)
(-28536.2 15625.2 3800.53)
(-30815.8 10432.5 3800.48)
(-32159.4 4922.98 3800.43)
(-32525.7 -736.165 3800.43)
(-31903.6 -6372.97 3800.41)
(-30312.3 -11816.2 3800.44)
(-27799.9 -16900.3 3800.41)
(-24443 -21471.3 3800.5)
(-20343 -25389 3800.36)
(-15625.2 -28536.2 3800.53)
(-10432.5 -30815.8 3800.48)
(-4922.98 -32159.4 3800.43)
(736.166 -32525.7 3800.43)
(6372.97 -31903.6 3800.41)
(11816.2 -30312.3 3800.44)
(16900.3 -27799.9 3800.41)
(21471.3 -24443 3800.5)
(25389 -20343 3800.36)
(28536.2 -15625.2 3800.53)
(30815.8 -10432.5 3800.48)
(32159.4 -4922.98 3800.43)
(32525.7 736.166 3800.43)
(31903.6 6372.97 3800.41)
(30312.3 11816.2 3800.44)
(27799.9 16900.3 3800.41)
(24443 21471.3 3800.5)
(15787.4 19627.2 5154.85)
(12139.3 22070.6 5154.92)
(8122.29 23843.3 5154.95)
(3858.59 24891.5 5154.89)
(-522.439 25183.4 5154.89)
(-4887.48 24710 5154.94)
(-9104.01 23485.9 5154.88)
(-13044 21548.2 5154.92)
(-16587.8 18955.8 5154.94)
(-19627.2 15787.4 5154.85)
(-22070.6 12139.3 5154.92)
(-23843.3 8122.29 5154.95)
(-24891.5 3858.59 5154.89)
(-25183.4 -522.439 5154.89)
(-24710 -4887.48 5154.94)
(-23485.9 -9104.01 5154.88)
(-21548.2 -13044 5154.92)
(-18955.8 -16587.8 5154.94)
(-15787.4 -19627.2 5154.85)
(-12139.3 -22070.6 5154.92)
(-8122.29 -23843.3 5154.95)
(-3858.59 -24891.5 5154.89)
(522.44 -25183.4 5154.89)
(4887.49 -24710 5154.94)
(9104.01 -23485.9 5154.88)
(13044 -21548.2 5154.92)
(16587.8 -18955.8 5154.94)
(19627.2 -15787.4 5154.85)
(22070.6 -12139.3 5154.92)
(23843.3 -8122.29 5154.95)
(24891.5 -3858.59 5154.89)
(25183.4 522.439 5154.89)
(24710 4887.48 5154.94)
(23485.9 9104.01 5154.88)
(21548.2 13044 5154.92)
(18955.8 16587.8 5154.94)
(11159.6 10093.6 7141.6)
(9237.35 11878.3 7141.57)
(7034.34 13301.7 7141.63)
(4617.67 14321.3 7141.57)
(2060.67 14905.5 7141.61)
(-559 15037 7141.62)
(-3161.72 14711.5 7141.53)
(-5668.11 13938.8 7141.61)
(-8002.61 12742.9 7141.59)
(-10093.6 11159.6 7141.6)
(-11878.3 9237.35 7141.57)
(-13301.7 7034.34 7141.63)
(-14321.3 4617.67 7141.57)
(-14905.5 2060.67 7141.61)
(-15037 -559.001 7141.62)
(-14711.5 -3161.72 7141.53)
(-13938.8 -5668.11 7141.61)
(-12742.9 -8002.61 7141.59)
(-11159.6 -10093.6 7141.6)
(-9237.35 -11878.3 7141.57)
(-7034.34 -13301.7 7141.63)
(-4617.67 -14321.3 7141.57)
(-2060.67 -14905.5 7141.61)
(559.002 -15037 7141.62)
(3161.73 -14711.5 7141.53)
(5668.11 -13938.8 7141.61)
(8002.61 -12742.9 7141.59)
(10093.6 -11159.6 7141.6)
(11878.3 -9237.35 7141.57)
(13301.7 -7034.34 7141.63)
(14321.3 -4617.67 7141.57)
(14905.5 -2060.67 7141.61)
(15037 559 7141.62)
(14711.5 3161.72 7141.53)
(13938.8 5668.11 7141.61)
(12742.9 8002.61 7141.59)
(7488.17 -2560.02 10732.1)
(7818.95 -1220.67 10731.9)
(7912.16 155.566 10732)
(7764.91 1527.2 10732)
(7381.75 2852.36 10732)
(6774.29 4090.92 10732)
(5961.05 5204.94 10732)
(4966.78 6160.95 10732.1)
(3821.49 6929.76 10732)
(2560.02 7488.17 10732.1)
(1220.67 7818.95 10731.9)
(-155.568 7912.16 10732)
(-1527.21 7764.91 10732)
(-2852.36 7381.75 10732)
(-4090.92 6774.29 10732)
(-5204.94 5961.05 10732)
(-6160.95 4966.78 10732.1)
(-6929.76 3821.49 10732)
(-7488.17 2560.02 10732.1)
(-7818.95 1220.67 10731.9)
(-7912.16 -155.569 10732)
(-7764.91 -1527.21 10732)
(-7381.75 -2852.36 10732)
(-6774.28 -4090.92 10732)
(-5961.05 -5204.94 10732)
(-4966.78 -6160.95 10732.1)
(-3821.49 -6929.76 10732)
(-2560.02 -7488.17 10732.1)
(-1220.67 -7818.94 10731.9)
(155.566 -7912.16 10732)
(1527.21 -7764.91 10732)
(2852.36 -7381.75 10732)
(4090.92 -6774.29 10732)
(5204.94 -5961.05 10732)
(6160.95 -4966.78 10732.1)
(6929.76 -3821.49 10732)
(5754.97 -16991.4 18112)
(8618.04 -15733.6 18111.8)
(11219.3 -13998.2 18111.9)
(13479.5 -11837.2 18111.8)
(15330.3 -9316.67 18111.8)
(16715.4 -6513.33 18112)
(17592.3 -3511.6 18111.8)
(17935.2 -403.621 18112.1)
(17732.6 2717 18112)
(16991.4 5754.97 18112)
(15733.6 8618.04 18111.8)
(13998.2 11219.3 18111.9)
(11837.2 13479.5 18111.8)
(9316.66 15330.3 18111.8)
(6513.32 16715.4 18112)
(3511.6 17592.3 18111.8)
(403.621 17935.2 18112.1)
(-2717 17732.6 18112)
(-5754.97 16991.4 18112)
(-8618.04 15733.6 18111.8)
(-11219.3 13998.2 18111.9)
(-13479.5 11837.2 18111.8)
(-15330.3 9316.66 18111.8)
(-16715.4 6513.32 18112)
(-17592.3 3511.6 18111.8)
(-17935.2 403.622 18112.1)
(-17732.6 -2716.99 18112)
(-16991.4 -5754.97 18112)
(-15733.6 -8618.04 18111.8)
(-13998.2 -11219.3 18111.9)
(-11837.2 -13479.5 18111.8)
(-9316.66 -15330.3 18111.8)
(-6513.32 -16715.4 18112)
(-3511.6 -17592.3 18111.8)
(-403.619 -17935.2 18112.1)
(2717 -17732.6 18112)
(6941.98 -25563.3 28990.6)
(11276.2 -23969.4 28990.5)
(15266.6 -21647.2 28990.4)
(18794 -18667.3 28990.7)
(21750 -15120.2 28990.7)
(24045.1 -11113.7 28990.6)
(25610.1 -6769.42 28991)
(26396.2 -2219.77 28990.8)
(26380.8 2398.19 28990.8)
(25563.3 6941.98 28990.5)
(23969.4 11276.2 28990.5)
(21647.1 15266.6 28990.4)
(18667.3 18794 28990.7)
(15120.2 21750 28990.7)
(11113.6 24045.1 28990.6)
(6769.42 25610.1 28991)
(2219.77 26396.2 28990.8)
(-2398.19 26380.8 28990.8)
(-6941.98 25563.3 28990.5)
(-11276.2 23969.4 28990.5)
(-15266.6 21647.1 28990.4)
(-18794 18667.3 28990.7)
(-21750 15120.2 28990.7)
(-24045.1 11113.7 28990.6)
(-25610.1 6769.42 28991)
(-26396.2 2219.77 28990.8)
(-26380.8 -2398.19 28990.8)
(-25563.3 -6941.98 28990.6)
(-23969.4 -11276.2 28990.5)
(-21647.2 -15266.6 28990.4)
(-18667.3 -18794 28990.7)
(-15120.2 -21750 28990.7)
(-11113.6 -24045.1 28990.6)
(-6769.42 -25610.1 28991)
(-2219.77 -26396.2 28990.8)
(2398.19 -26380.8 28990.8)
(8908.06 -15887.3 27261.4)
(11531.9 -14098.7 27260.7)
(13804.5 -11881.2 27258.2)
(15659.2 -9306.8 27267.6)
(17034.2 -6440.61 27251.1)
(17899.2 -3390.82 27270.9)
(18210.5 -226.934 27254.2)
(17977 2936.77 27264.1)
(17192.5 6014.52 27260.3)
(15887.3 8908.06 27261.4)
(14098.7 11531.9 27260.7)
(11881.2 13804.5 27258.2)
(9306.79 15659.1 27267.6)
(6440.61 17034.2 27251.1)
(3390.82 17899.2 27270.8)
(226.934 18210.5 27254.2)
(-2936.77 17977 27264.1)
(-6014.52 17192.5 27260.3)
(-8908.06 15887.3 27261.4)
(-11531.9 14098.7 27260.7)
(-13804.5 11881.2 27258.2)
(-15659.2 9306.8 27267.6)
(-17034.2 6440.62 27251.1)
(-17899.2 3390.83 27270.9)
(-18210.6 226.936 27254.2)
(-17977 -2936.77 27264.2)
(-17192.5 -6014.52 27260.3)
(-15887.3 -8908.06 27261.4)
(-14098.7 -11531.9 27260.7)
(-11881.2 -13804.5 27258.2)
(-9306.8 -15659.2 27267.6)
(-6440.62 -17034.2 27251.1)
(-3390.83 -17899.2 27270.8)
(-226.936 -18210.5 27254.1)
(2936.77 -17977 27264.1)
(6014.52 -17192.5 27260.3)
)
;
    }
    outside
    {
        type            calculated;
        value           nonuniform List<vector> 
540
(
(18443.5 1596.2 -273.962)
(17886.2 4774.76 -273.847)
(16785.4 7808.02 -273.991)
(15174.4 10604 -273.931)
(13102.4 13078 -273.778)
(10632.4 15154.6 -273.795)
(7839.4 16770.6 -273.974)
(4808.18 17877.2 -273.971)
(1630.71 18440.6 -273.935)
(-1596.2 18443.5 -273.963)
(-4774.76 17886.2 -273.848)
(-7808.02 16785.4 -273.992)
(-10604 15174.4 -273.931)
(-13078 13102.4 -273.779)
(-15154.6 10632.4 -273.795)
(-16770.6 7839.4 -273.974)
(-17877.2 4808.18 -273.971)
(-18440.6 1630.71 -273.935)
(-18443.5 -1596.2 -273.963)
(-17886.2 -4774.76 -273.848)
(-16785.4 -7808.02 -273.992)
(-15174.4 -10604 -273.931)
(-13102.4 -13078 -273.779)
(-10632.4 -15154.6 -273.795)
(-7839.4 -16770.6 -273.974)
(-4808.18 -17877.2 -273.971)
(-1630.71 -18440.6 -273.935)
(1596.2 -18443.5 -273.963)
(4774.76 -17886.2 -273.848)
(7808.02 -16785.4 -273.992)
(10604 -15174.4 -273.931)
(13078 -13102.4 -273.779)
(15154.6 -10632.4 -273.795)
(16770.6 -7839.4 -273.974)
(17877.2 -4808.18 -273.971)
(18440.6 -1630.71 -273.935)
(5143.51 204.309 -326.081)
(5029.87 1094.49 -325.884)
(4763.5 1951.32 -325.904)
(4352.19 2748.66 -326.035)
(3808.79 3462.69 -326.056)
(3149.59 4071.58 -325.89)
(2394.72 4556.53 -325.91)
(1567.15 4903.26 -325.96)
(691.849 5100.87 -325.93)
(-204.308 5143.51 -326.081)
(-1094.49 5029.87 -325.884)
(-1951.32 4763.5 -325.904)
(-2748.66 4352.19 -326.036)
(-3462.69 3808.79 -326.056)
(-4071.58 3149.59 -325.89)
(-4556.53 2394.72 -325.911)
(-4903.26 1567.15 -325.961)
(-5100.87 691.849 -325.93)
(-5143.51 -204.308 -326.082)
(-5029.87 -1094.49 -325.884)
(-4763.5 -1951.32 -325.904)
(-4352.19 -2748.66 -326.036)
(-3808.79 -3462.69 -326.056)
(-3149.59 -4071.58 -325.89)
(-2394.72 -4556.53 -325.911)
(-1567.15 -4903.26 -325.961)
(-691.849 -5100.87 -325.93)
(204.308 -5143.51 -326.082)
(1094.49 -5029.87 -325.884)
(1951.32 -4763.5 -325.904)
(2748.66 -4352.19 -326.036)
(3462.69 -3808.79 -326.056)
(4071.58 -3149.59 -325.89)
(4556.53 -2394.72 -325.91)
(4903.26 -1567.15 -325.96)
(5100.87 -691.849 -325.93)
(5028.52 712.592 32.9521)
(4828.18 1574.84 32.8735)
(4481.5 2389.47 32.9281)
(3998.39 3131.23 32.8708)
(3394.01 3778.06 32.8193)
(2686.42 4310.1 32.8364)
(1897.11 4710.88 32.8753)
(1050.24 4968.86 32.8929)
(171.382 5075.64 33.0427)
(-712.592 5028.52 32.952)
(-1574.84 4828.18 32.8734)
(-2389.47 4481.5 32.9277)
(-3131.23 3998.39 32.8704)
(-3778.06 3394.01 32.8189)
(-4310.1 2686.42 32.8361)
(-4710.88 1897.11 32.875)
(-4968.86 1050.24 32.8926)
(-5075.64 171.382 33.0424)
(-5028.52 -712.592 32.9518)
(-4828.18 -1574.84 32.8731)
(-4481.5 -2389.47 32.9275)
(-3998.39 -3131.23 32.8703)
(-3394.01 -3778.06 32.8188)
(-2686.42 -4310.1 32.836)
(-1897.11 -4710.88 32.875)
(-1050.24 -4968.86 32.8926)
(-171.382 -5075.64 33.0426)
(712.592 -5028.52 32.9519)
(1574.84 -4828.18 32.8733)
(2389.47 -4481.5 32.9278)
(3131.23 -3998.39 32.8706)
(3778.06 -3394.01 32.8191)
(4310.1 -2686.42 32.8363)
(4710.88 -1897.11 32.8751)
(4968.86 -1050.24 32.8928)
(5075.64 -171.382 33.0428)
(4513.78 1349.46 948.712)
(4210.88 2112.82 948.76)
(3779.96 2811.87 948.747)
(3234.34 3425.6 948.733)
(2590.32 3935.23 948.866)
(1867.66 4325.24 948.766)
(1088.24 4583.84 948.713)
(275.763 4703.03 948.643)
(-545.192 4679.55 948.759)
(-1349.46 4513.78 948.712)
(-2112.82 4210.88 948.76)
(-2811.87 3779.96 948.747)
(-3425.6 3234.34 948.732)
(-3935.23 2590.32 948.865)
(-4325.24 1867.66 948.765)
(-4583.84 1088.24 948.712)
(-4703.03 275.764 948.643)
(-4679.55 -545.191 948.758)
(-4513.78 -1349.46 948.712)
(-4210.88 -2112.82 948.76)
(-3779.96 -2811.87 948.747)
(-3234.34 -3425.6 948.732)
(-2590.32 -3935.23 948.865)
(-1867.66 -4325.24 948.765)
(-1088.24 -4583.84 948.713)
(-275.764 -4703.03 948.643)
(545.191 -4679.55 948.758)
(1349.46 -4513.78 948.712)
(2112.82 -4210.88 948.76)
(2811.87 -3779.96 948.747)
(3425.6 -3234.34 948.732)
(3935.23 -2590.32 948.866)
(4325.24 -1867.66 948.766)
(4583.84 -1088.24 948.713)
(4703.03 -275.763 948.643)
(4679.55 545.192 948.759)
(3944.36 1823.7 1841.4)
(3567.84 2481.08 1841.49)
(3082.67 3062.77 1841.48)
(2504.13 3551.66 1841.38)
(1849.29 3932.47 1841.45)
(1138.29 4193.8 1841.47)
(392.783 4327.98 1841.47)
(-364.667 4330.12 1841.4)
(-1111.14 4201.19 1841.45)
(-1823.7 3944.36 1841.4)
(-2481.08 3567.84 1841.49)
(-3062.77 3082.67 1841.48)
(-3551.66 2504.13 1841.38)
(-3932.47 1849.29 1841.45)
(-4193.8 1138.29 1841.47)
(-4327.98 392.783 1841.47)
(-4330.12 -364.666 1841.4)
(-4201.19 -1111.14 1841.45)
(-3944.36 -1823.7 1841.4)
(-3567.84 -2481.08 1841.49)
(-3082.67 -3062.77 1841.48)
(-2504.13 -3551.66 1841.38)
(-1849.29 -3932.47 1841.45)
(-1138.29 -4193.8 1841.47)
(-392.783 -4327.98 1841.47)
(364.667 -4330.12 1841.4)
(1111.14 -4201.2 1841.45)
(1823.7 -3944.36 1841.4)
(2481.08 -3567.84 1841.49)
(3062.77 -3082.67 1841.48)
(3551.66 -2504.13 1841.38)
(3932.47 -1849.29 1841.45)
(4193.8 -1138.29 1841.47)
(4327.98 -392.783 1841.47)
(4330.12 364.667 1841.4)
(4201.19 1111.14 1841.45)
(3169.91 1979.76 2664.61)
(2778.09 2500.29 2664.7)
(2301.6 2944.59 2664.71)
(1755.4 3299.57 2664.6)
(1155.72 3554.18 2664.6)
(520.961 3700.86 2664.66)
(-129.584 3735.18 2664.66)
(-776.223 3655.81 2664.72)
(-1399.31 3465.66 2664.64)
(-1979.76 3169.91 2664.61)
(-2500.28 2778.09 2664.7)
(-2944.59 2301.6 2664.71)
(-3299.57 1755.4 2664.6)
(-3554.18 1155.72 2664.6)
(-3700.86 520.961 2664.66)
(-3735.18 -129.584 2664.66)
(-3655.81 -776.223 2664.72)
(-3465.66 -1399.31 2664.64)
(-3169.91 -1979.76 2664.61)
(-2778.09 -2500.28 2664.7)
(-2301.6 -2944.59 2664.71)
(-1755.4 -3299.57 2664.6)
(-1155.72 -3554.18 2664.6)
(-520.961 -3700.86 2664.66)
(129.584 -3735.18 2664.66)
(776.223 -3655.81 2664.72)
(1399.31 -3465.66 2664.64)
(1979.76 -3169.91 2664.61)
(2500.29 -2778.09 2664.7)
(2944.59 -2301.6 2664.71)
(3299.57 -1755.4 2664.6)
(3554.18 -1155.72 2664.6)
(3700.86 -520.96 2664.66)
(3735.18 129.584 2664.66)
(3655.81 776.223 2664.72)
(3465.66 1399.31 2664.64)
(2194.62 1698.68 3436.25)
(1866.43 2054.08 3436.2)
(1481.17 2346.71 3436.29)
(1051.35 2568.62 3436.23)
(589.257 2711.83 3436.2)
(109.395 2772.91 3436.22)
(-373.785 2750.05 3436.18)
(-845.626 2643.11 3436.3)
(-1291.82 2456.31 3436.26)
(-1698.68 2194.62 3436.25)
(-2054.08 1866.43 3436.19)
(-2346.71 1481.17 3436.29)
(-2568.62 1051.35 3436.23)
(-2711.83 589.257 3436.2)
(-2772.91 109.395 3436.22)
(-2750.05 -373.785 3436.18)
(-2643.11 -845.625 3436.3)
(-2456.31 -1291.82 3436.26)
(-2194.62 -1698.68 3436.25)
(-1866.43 -2054.08 3436.19)
(-1481.17 -2346.71 3436.29)
(-1051.35 -2568.62 3436.23)
(-589.257 -2711.83 3436.2)
(-109.395 -2772.91 3436.22)
(373.785 -2750.05 3436.18)
(845.626 -2643.11 3436.3)
(1291.82 -2456.31 3436.26)
(1698.68 -2194.62 3436.25)
(2054.08 -1866.43 3436.2)
(2346.71 -1481.17 3436.29)
(2568.62 -1051.35 3436.23)
(2711.83 -589.257 3436.2)
(2772.91 -109.394 3436.22)
(2750.05 373.785 3436.18)
(2643.11 845.626 3436.3)
(2456.31 1291.82 3436.26)
(1074.9 856.816 4228.31)
(909.77 1030.45 4228.42)
(716.936 1172.63 4228.4)
(502.471 1279.49 4228.48)
(272.628 1347.14 4228.46)
(34.552 1374.04 4228.44)
(-204.574 1359.23 4228.38)
(-437.484 1303 4228.47)
(-657.046 1207.16 4228.37)
(-856.815 1074.9 4228.31)
(-1030.45 909.77 4228.42)
(-1172.63 716.936 4228.4)
(-1279.49 502.471 4228.48)
(-1347.14 272.628 4228.46)
(-1374.04 34.5521 4228.44)
(-1359.23 -204.574 4228.38)
(-1303 -437.484 4228.47)
(-1207.16 -657.045 4228.37)
(-1074.9 -856.815 4228.31)
(-909.77 -1030.45 4228.42)
(-716.936 -1172.63 4228.4)
(-502.471 -1279.49 4228.48)
(-272.628 -1347.14 4228.46)
(-34.5519 -1374.04 4228.44)
(204.575 -1359.23 4228.38)
(437.485 -1303 4228.47)
(657.046 -1207.16 4228.37)
(856.816 -1074.9 4228.31)
(1030.45 -909.77 4228.42)
(1172.63 -716.936 4228.4)
(1279.49 -502.471 4228.48)
(1347.14 -272.628 4228.46)
(1374.04 -34.5518 4228.44)
(1359.23 204.575 4228.38)
(1303 437.485 4228.47)
(1207.16 657.046 4228.37)
(-67.4343 -656.798 5228.12)
(47.6937 -658.487 5228.1)
(161.299 -640.236 5228.11)
(270.023 -602.512 5228.09)
(370.544 -546.482 5228.08)
(459.813 -473.841 5228.08)
(535.112 -386.864 5228.08)
(594.13 -287.971 5228.14)
(635.071 -180.368 5228.15)
(656.799 -67.4346 5228.12)
(658.488 47.6934 5228.1)
(640.237 161.299 5228.11)
(602.513 270.023 5228.09)
(546.483 370.544 5228.08)
(473.842 459.813 5228.08)
(386.864 535.112 5228.08)
(287.971 594.131 5228.14)
(180.368 635.072 5228.15)
(67.4347 656.799 5228.12)
(-47.6934 658.487 5228.1)
(-161.299 640.237 5228.11)
(-270.023 602.512 5228.09)
(-370.544 546.482 5228.08)
(-459.812 473.841 5228.08)
(-535.112 386.864 5228.08)
(-594.13 287.97 5228.14)
(-635.071 180.368 5228.15)
(-656.798 67.4344 5228.12)
(-658.487 -47.6936 5228.1)
(-640.236 -161.299 5228.11)
(-602.512 -270.023 5228.09)
(-546.482 -370.544 5228.08)
(-473.841 -459.812 5228.08)
(-386.864 -535.112 5228.08)
(-287.97 -594.13 5228.14)
(-180.368 -635.071 5228.15)
(-1088.11 -2998.81 6756.05)
(-550.913 -3142.3 6756.03)
(3.13835 -3190.16 6756.04)
(557.092 -3141.05 6756.04)
(1094.05 -2996.65 6756.03)
(1597.8 -2761.21 6756.08)
(2053 -2441.81 6756.04)
(2445.78 -2048.1 6755.97)
(2764.3 -1592.31 6756.05)
(2998.81 -1088.11 6756.05)
(3142.3 -550.913 6756.03)
(3190.16 3.13833 6756.04)
(3141.05 557.092 6756.04)
(2996.65 1094.05 6756.03)
(2761.21 1597.8 6756.08)
(2441.81 2053 6756.04)
(2048.1 2445.78 6755.97)
(1592.31 2764.3 6756.05)
(1088.11 2998.81 6756.05)
(550.913 3142.3 6756.03)
(-3.13825 3190.16 6756.04)
(-557.092 3141.05 6756.04)
(-1094.05 2996.65 6756.03)
(-1597.8 2761.21 6756.08)
(-2053 2441.8 6756.04)
(-2445.78 2048.1 6755.97)
(-2764.3 1592.31 6756.05)
(-2998.81 1088.11 6756.05)
(-3142.3 550.913 6756.03)
(-3190.16 -3.13832 6756.04)
(-3141.05 -557.092 6756.04)
(-2996.65 -1094.05 6756.03)
(-2761.21 -1597.8 6756.08)
(-2441.8 -2053 6756.04)
(-2048.1 -2445.78 6755.97)
(-1592.31 -2764.3 6756.05)
(-1717.91 -6127.72 9059.85)
(-627.869 -6333.11 9059.85)
(481.411 -6345.8 9059.83)
(1576.07 -6165.71 9059.8)
(2622.77 -5798.34 9059.8)
(3589.81 -5254.87 9059.83)
(4447.76 -4551.58 9059.81)
(5170.6 -3710.21 9059.8)
(5736.36 -2755.98 9059.88)
(6127.73 -1717.91 9059.85)
(6333.11 -627.869 9059.85)
(6345.8 481.411 9059.83)
(6165.71 1576.07 9059.8)
(5798.34 2622.77 9059.8)
(5254.87 3589.81 9059.83)
(4551.58 4447.76 9059.81)
(3710.21 5170.6 9059.8)
(2755.98 5736.36 9059.88)
(1717.91 6127.73 9059.85)
(627.869 6333.11 9059.85)
(-481.411 6345.8 9059.83)
(-1576.07 6165.71 9059.8)
(-2622.77 5798.34 9059.8)
(-3589.81 5254.87 9059.83)
(-4447.76 4551.58 9059.81)
(-5170.6 3710.21 9059.8)
(-5736.36 2755.98 9059.88)
(-6127.73 1717.91 9059.85)
(-6333.11 627.869 9059.85)
(-6345.8 -481.412 9059.83)
(-6165.71 -1576.07 9059.8)
(-5798.34 -2622.77 9059.8)
(-5254.88 -3589.81 9059.83)
(-4551.58 -4447.76 9059.81)
(-3710.21 -5170.6 9059.8)
(-2755.98 -5736.36 9059.88)
(-1392.38 -8782.83 11905.6)
(153.802 -8891.18 11905.6)
(1695.51 -8729.15 11905.6)
(3185.48 -8302.32 11905.6)
(4578.73 -7622.86 11905.6)
(5832.84 -6712 11905.6)
(6909.73 -5597.02 11905.6)
(7776.78 -4312.25 11905.6)
(8407.63 -2896.51 11905.8)
(8782.83 -1392.38 11905.6)
(8891.18 153.802 11905.6)
(8729.15 1695.51 11905.6)
(8302.32 3185.48 11905.6)
(7622.86 4578.73 11905.6)
(6712 5832.84 11905.6)
(5597.02 6909.73 11905.6)
(4312.25 7776.78 11905.6)
(2896.51 8407.63 11905.8)
(1392.38 8782.83 11905.6)
(-153.802 8891.18 11905.6)
(-1695.51 8729.15 11905.6)
(-3185.48 8302.32 11905.6)
(-4578.73 7622.86 11905.6)
(-5832.84 6712 11905.6)
(-6909.73 5597.02 11905.6)
(-7776.78 4312.25 11905.6)
(-8407.63 2896.51 11905.8)
(-8782.83 1392.38 11905.6)
(-8891.18 -153.802 11905.6)
(-8729.15 -1695.51 11905.6)
(-8302.32 -3185.49 11905.6)
(-7622.86 -4578.73 11905.6)
(-6712 -5832.84 11905.6)
(-5597.02 -6909.73 11905.6)
(-4312.25 -7776.78 11905.6)
(-2896.51 -8407.63 11905.8)
(585.379 -7867.73 13940.1)
(1942.7 -7646.34 13940.2)
(3241.02 -7192.76 13940)
(4440.77 -6520.75 13940)