/*--------------------------------*- C++ -*----------------------------------*\
| =========                 |                                                 |
| \\      /  F ield         | OpenFOAM: The Open Source CFD Toolbox           |
|  \\    /   O peration     | Version:  2312                                  |
|   \\  /    A nd           | Website:  www.openfoam.com                      |
|    \\/     M anipulation  |                                                 |
\*---------------------------------------------------------------------------*/
FoamFile
{
    version     2.0;
    format      ascii;
    arch        "LSB;label=32;scalar=64";
    class       volVectorField;
    location    "0.5";
    object      traction;
}
// * * * * * * * * * * * * * * * * * * * * * * * * * * * * * * * * * * * * * //

dimensions      [1 -1 -2 0 0 0 0];

internalField   uniform (0 0 0);

boundaryField
{
    fixed
    {
        type            calculated;
        value           nonuniform List<vector> 
108
(
(1767.96 -3285.86 54108.9)
(3757.26 -9245.06 51037.8)
(6395.45 -12494.7 43851.9)
(8920.74 -13101.6 34173.6)
(10907.5 -11934.7 22854.3)
(12290 -9692.31 9309.05)
(13119 -6393.66 -7440.29)
(13353.2 -1400.5 -28746.2)
(13143.4 4705.61 -48652.5)
(-13958 4590.61 -49468.3)
(-14043.6 -1409.44 -32043.3)
(-13604 -6304.27 -13890.2)
(-12471.3 -9761.74 1932.23)
(-10724.6 -12101.8 15383.3)
(-8392.72 -13188.2 26956.7)
(-5658.24 -12418.4 37148.6)
(-3056.69 -9206.58 45183.8)
(-1339.42 -3756.35 50008.2)
(-1293.96 2557.77 49915.1)
(-2859.1 7755.16 45154.8)
(-5237.35 10795.6 37536.7)
(-7819.66 11692.6 28627.5)
(-10105.2 10977.8 19163.4)
(-11866 9179.87 8435.68)
(-13027.4 6422.36 -4819.91)
(-13467 2188.44 -23086.9)
(-13400.7 -3428.54 -42123.4)
(13837.9 -3984.49 -48197.8)
(14111 1161.23 -34199)
(13714.2 5753.18 -17979.6)
(12702.6 9287.69 -2612.98)
(11113.8 11877 11298.6)
(8923.22 13300.4 23939)
(6225.74 12857.1 35642)
(3517.81 9732.15 45561.6)
(1658.66 3874.65 52132.9)
(1845.37 -15378.8 26641.1)
(2858.23 -10121.1 9415.7)
(2876.86 -6729.24 2510)
(2832.12 -4971.27 -3320.06)
(2776.84 -3760.61 -10507)
(2795.27 -2601.76 -19044.9)
(2923.06 -1065.34 -28440.7)
(3004.76 1202.72 -37137.2)
(2397.84 3524.45 -40862.8)
(-2907.62 3528.58 -42194.5)
(-3543.37 1244.37 -40754.6)
(-3483.27 -1009.17 -33642.4)
(-3305.25 -2675.54 -25183.6)
(-3149.46 -4040.04 -17101.3)
(-3009.79 -5457.27 -10060.9)
(-2838.03 -7386.9 -4172.52)
(-2632.77 -10911.4 3458.04)
(-1432.73 -16249.6 21104.5)
(-1262.25 14843.8 19768.6)
(-2257.45 9718.08 1979.78)
(-2344.23 6347.88 -4865.88)
(-2411.06 4606.85 -9918.92)
(-2482.06 3451.27 -15501.4)
(-2595.82 2433.73 -21788.7)
(-2768.68 1176.07 -28730.1)
(-2883.95 -725.648 -35491.6)
(-2356.59 -2906.44 -38595.2)
(2868.71 -3097.1 -39764.5)
(3513.68 -1190.77 -38043.8)
(3539.69 781.817 -31306.2)
(3448.57 2366.34 -22933.7)
(3360.42 3750.57 -14534.6)
(3277.53 5213.1 -6849.29)
(3169.22 7177.17 -117.452)
(3029.06 10728.6 8196.25)
(1971.62 16128.7 26650.7)
(-1246.83 3642.48 21424)
(-3383.98 8771.89 15214.7)
(-6431.56 11026.3 5367.53)
(-9136.36 10956.1 -4672.95)
(-11041.7 9662.59 -13329.1)
(-12146.9 7996.02 -19545.1)
(-12688.2 6444.34 -22021)
(-13094.1 5072.71 -20956.8)
(-13333.2 3557.92 -21097.3)
(12385 3747.72 -24903.4)
(12147.9 5115.19 -26556.5)
(11817.3 6366.37 -27574.3)
(11319.3 7860.51 -25293.5)
(10329.3 9435.95 -19968.5)
(8684.51 10631 -12637.1)
(6370.9 10627.6 -4172.15)
(3774.37 8259.22 4184.36)
(2141.55 2848.02 8831.68)
(2264.05 -3979.26 8398.52)
(4103.89 -9242.84 3167.89)
(6890.27 -11427.3 -5588.66)
(9350.55 -11238.2 -14022.9)
(11099.4 -9818.79 -20799)
(12133.8 -7996.49 -25051.6)
(12625.9 -6289.74 -25607.4)
(12964 -4840.58 -22668.1)
(13093 -3310.48 -21131)
(-12772.4 -3483.35 -21593.5)
(-12571.2 -5017.93 -20411.6)
(-12095 -6529.34 -19570.1)
(-11353.1 -8176.17 -15836.2)
(-10099.5 -9770.78 -9312.81)
(-8193.47 -10874.1 -875.687)
(-5635.18 -10709.9 8558.34)
(-2843.19 -8227.95 17480.9)
(-1033.19 -2935.26 22380.5)
)
;
    }
    inside
    {
        type            calculated;
        value           nonuniform List<vector> 
540
(
(8754.71 478.54 -981.79)
(11399.7 2517.74 -981.645)
(15620.9 6313.99 -507.958)
(19081 11751.6 490.614)
(20561.1 18092.7 1867.78)
(19394.1 23998.9 3211.55)
(15531.6 27455.3 3851.85)
(10368.9 27660.1 3533.77)
(5788.49 27492.1 3408.72)
(-5854.35 30021 4587.55)
(-11159.7 31587.8 5146.87)
(-16860.3 31097.3 5372.02)
(-21375 27506.4 4644.08)
(-23721.8 21837.9 3294.64)
(-23976.4 15695.3 1873.62)
(-22725.6 10108.4 740.117)
(-20783.5 5499.81 52.2933)
(-20275.6 1987.91 -21.4292)
(-20747.7 -1389.57 97.8432)
(-21959 -5187.66 368.128)
(-24429.9 -10286.9 1153.21)
(-25729.6 -16359 2187.7)
(-25036.3 -22685 3268.56)
(-21938.5 -28012.1 4075.23)
(-16530.3 -30421.5 4153.19)
(-10283.8 -29155.9 3411.47)
(-5167.18 -27510.1 2930.77)
(4648 -28169.5 2567.45)
(9107.13 -27560.5 2420.48)
(13501.5 -25903.4 2254.42)
(16428.1 -21750.1 1550.76)
(17047.9 -16053.5 556.001)
(15489.2 -10325 -342.678)
(12465 -5620.94 -914.159)
(9139.72 -2453.75 -1119.19)
(7809.97 -824.131 -1018.79)
(14405.5 505.433 1385.43)
(14007.4 2903.57 1191.87)
(13536.3 5215.54 919.819)
(12666.3 7324.25 648.1)
(10910.3 8697.34 312.721)
(8358.61 8717.88 -247.652)
(5345.91 6525.79 -1331.21)
(3308.22 3496.97 -2628.98)
(2612.1 1189.81 -3493.71)
(-2957.36 1960.97 -3700.94)
(-3735.11 4915.84 -2837.57)
(-5826.84 8137.24 -1601.13)
(-8434.8 9693.71 -813.113)
(-10879.1 9659.83 -403.83)
(-12890.5 8568.32 -128.268)
(-14502.6 6847.45 184.914)
(-16056.8 4742.68 607.3)
(-18182.8 2269.14 1102.46)
(-18536.3 -826.388 1264.53)
(-16755 -3613.08 1086.29)
(-15567.4 -6196.94 961.556)
(-14265.5 -8615.09 888.213)
(-12263.4 -10446.3 788.025)
(-9462.06 -11015.7 517.183)
(-6050.82 -9235.65 -177.413)
(-3446.81 -6174.63 -1096.24)
(-2106.08 -2790.65 -1858.83)
(1705.71 -1434.68 -3093.82)
(2057.98 -2508.91 -2773.29)
(3362.8 -4782.02 -2009.31)
(4986.94 -5909.55 -1406.95)
(6461.45 -5963.51 -908.418)
(7684.66 -5369.02 -390.234)
(8857.95 -4451.06 183.969)
(10488.4 -3337.34 765.526)
(12985.4 -1805.77 1241.19)
(9864.92 -23.8955 1571.28)
(9843.42 1602.49 1384.18)
(10060.8 3370.19 1018.35)
(10211.4 5307.36 633.737)
(9859.94 7208.59 301.245)
(8855.88 8747.66 -32.9195)
(7145.45 9267.12 -591.643)
(5437.07 9173.99 -1395.82)
(4028.68 8842.58 -2074.95)
(-2961.41 8135.23 -3409.84)
(-4252.81 8421.84 -2998.92)
(-6099.08 9446.62 -2128.35)
(-7898.79 9320.7 -1613.26)
(-9107.58 8095.78 -1356.38)
(-9738.53 6464.7 -1057.76)
(-10131.2 4855.39 -568.299)
(-10859 3382.07 73.9101)
(-12823.3 1901.4 669.268)
(-13523.7 -190.471 928.74)
(-12535.6 -2238.37 876.458)
(-12257.4 -4394.26 728.545)
(-12204.2 -6878.18 603.106)
(-11649.8 -9463.09 532.102)
(-10284.7 -11663 442.28)
(-8037 -12619.3 136.46)
(-5658.72 -12507 -458.874)
(-3507.32 -11145 -1207.98)
(1643.11 -8089.31 -3306.64)
(2607.54 -6472.13 -3213.41)
(3778.23 -6483.53 -2524.65)
(4674.88 -5833.08 -1922.54)
(4891.77 -4535.34 -1338.53)
(4725.31 -3330.47 -614.525)
(4834.75 -2561.53 215.498)
(5867.47 -2076.66 974.554)
(8321.46 -1439.92 1448.69)
(5075.2 -338.353 2430.1)
(5830.44 601.201 2195.19)
(7253.4 2062.08 1679.66)
(8533.15 4018.32 1121.71)
(9284.41 6313.78 614.286)
(9291.45 8678.21 139.943)
(8357.17 10469.2 -454.804)
(6688.16 10990.8 -1410)
(5188.27 11940.3 -2294.78)
(-2436.82 9485.23 -4821.23)
(-3883.21 7750.88 -4464.33)
(-5606.27 8589.88 -3293.16)
(-6890.86 7976.41 -2546.85)
(-7160.86 6190.42 -2039.92)
(-6660.82 4312.4 -1428.51)
(-5948.78 2870.55 -598.362)
(-5688.66 1929.64 331.927)
(-7144.77 1353.13 1024.79)
(-8170.32 280.105 1343.42)
(-8411.58 -1067.97 1330.38)
(-9408.67 -2942.56 1074.01)
(-10476.5 -5467.41 754.583)
(-10988.3 -8453.34 463.801)
(-10615.9 -11502 189.523)
(-9185.96 -13873.7 -192.625)
(-6853.31 -14503.3 -909.851)
(-4724.81 -15272 -1892.18)
(994.363 -10444.3 -4850.25)
(2168.81 -6308.49 -4687.9)
(3391.17 -6192.56 -3505.39)
(4009.64 -5153.39 -2429.57)
(3482.44 -3250.99 -1394.57)
(2294.36 -1656.16 -238.28)
(1381.86 -904.75 943.4)
(1479.43 -791.641 1912.47)
(3464.61 -894.751 2364.22)
(1211.26 -454.987 3825.16)
(2851.4 16.354 3414.9)
(5444.15 1355.29 2612.59)
(7913.51 3572.7 1746.15)
(9679.17 6459.64 933.864)
(10464 9709.51 178.497)
(10043 12696.2 -595.835)
(8296.22 14095.1 -1633.08)
(6458.89 16064.9 -2801.62)
(-1657.83 12068.3 -6398.64)
(-3677.31 8496.31 -5964.3)
(-5612.15 9135.52 -4416.44)
(-6736.92 8042.93 -3306.14)
(-6385.06 5591.17 -2407.05)
(-4961.78 3223.96 -1368.5)
(-3203.57 1620.37 -118.186)
(-1996.18 911.37 1157.78)
(-2795.08 912.079 1991.36)
(-4161.37 586.538 2311.9)
(-5668.62 -321.283 2182.21)
(-7934.15 -2167.76 1678.13)
(-10039.9 -4974.8 1045.91)
(-11373.5 -8490.13 409.584)
(-11660.7 -12351.1 -202.982)
(-10723 -15934.8 -841.356)
(-8355.17 -17641.1 -1658.29)
(-5933.81 -19639.9 -2988.23)
(65.929 -14064.9 -6650.26)
(1918.72 -8244.92 -6404.13)
(3491.26 -7522.57 -4708)
(4126.75 -5907.82 -3003.3)
(3222.03 -3324.03 -1359.08)
(1251.7 -1073.9 362.939)
(-711.284 72.4001 2023.05)
(-1655.07 160.752 3318.88)
(-425.645 -370.797 3838.66)
(-1157.32 -419.891 5411.55)
(1164.32 -171.848 4735.86)
(4559.23 1163.47 3543.49)
(7878.32 3641.95 2237.85)
(10369.8 7026.41 991.887)
(11677.5 10967.1 -157.427)
(11557 14832.5 -1220.21)
(9763.23 17169.3 -2342.69)
(7366.22 19200.1 -3750.86)
(-701.338 14999.8 -8197.5)
(-3604.7 10922.9 -7739.55)
(-5894.69 10624.4 -5819.31)
(-7044.78 8914.48 -4240.84)
(-6395.49 5870.97 -2852.96)
(-4380.96 2993.78 -1310.88)
(-1864.23 1096.55 425.038)
(53.8055 403.778 2096.66)
(-158.791 670.536 3129.81)
(-1774.6 765.19 3418.7)
(-4246.97 53.3027 3062.56)
(-7437.71 -1878.15 2213.13)
(-10273.6 -4975.58 1183.6)
(-12126 -8918.97 132.125)
(-12787.9 -13364.6 -891.756)
(-12094.9 -17760.5 -1881.54)
(-9788.5 -20696.3 -2877.56)
(-6716.91 -22306 -4340.84)
(-1083.5 -18179.1 -8672.66)
(1790.78 -12647 -8733.49)
(3812.29 -9951.31 -6557.96)
(4581.87 -7382.9 -4061.21)
(3669.26 -4251.62 -1686.35)
(1322.61 -1373.6 710.17)
(-1386.21 319.422 2980.54)
(-3179.06 635.429 4742.04)
(-2736.92 2.76089 5477.95)
(-2106.67 -267.142 6784.82)
(556.951 -48.2126 5866.11)
(4375.28 1351.63 4265.53)
(8144.8 4009.58 2481.72)
(11065.9 7707.94 749.998)
(12724 12109.6 -848.179)
(12810.1 16587.5 -2263.73)
(11042.2 19800.5 -3554.44)
(8030.66 21545.5 -5055.05)
(522.739 18345.8 -10282.8)
(-3424.58 14248.3 -10072.9)
(-6146.72 12247.5 -7704.78)
(-7560.74 10154 -5555.49)
(-6938.97 6715.59 -3632.86)
(-4641.91 3370.7 -1570.99)
(-1650.54 1121.15 657.413)
(782.889 278.938 2739.81)
(1057.66 568.18 4022.44)
(-635.233 812.947 4311.68)
(-3718.35 139.523 3720.39)
(-7531.49 -1906.88 2505.19)
(-10832.5 -5219.81 1064.31)
(-12980 -9432.56 -403.959)
(-13845.5 -14232.7 -1847.13)
(-13278.2 -19133.5 -3225.02)
(-11066.8 -23070.2 -4530.69)
(-7413.95 -24462.9 -5947.21)
(-2558.11 -22858.9 -11168.2)
(1292.77 -17200.9 -11628)
(3693.45 -11694.1 -8999.2)
(4923.82 -8780.83 -5754.93)
(4404.13 -5512.23 -2615.99)
(2092.71 -2205.91 498.786)
(-987.276 19.1689 3439.46)
(-3342.93 701.434 5746.2)
(-3545.61 217.088 6822.61)
(-2225.54 4.96948 7729.27)
(526.058 284.029 6661.31)
(4543.57 1753.75 4688.15)
(8462.88 4477.43 2469.37)
(11567.1 8272.62 275.901)
(13461.4 12884.5 -1789.2)
(13766.8 17765.5 -3632.24)
(12161 21793.5 -5256.24)
(8729.01 23778.6 -6878.36)
(2045.65 21988 -12876.7)
(-2946.77 17137.8 -12935.1)
(-6091.52 13050.3 -10027.4)
(-8032.33 11233.5 -7326.45)
(-7774.47 7787.65 -4876.38)
(-5454.06 4070.81 -2309.42)
(-2175.56 1428.94 382.333)
(751.336 282.747 2889.74)
(1527.04 432.797 4484.15)
(-21.3239 685.605 4880.59)
(-3466.19 25.7739 4118.28)
(-7771.35 -2082.74 2551.29)
(-11375.8 -5480.1 733.02)
(-13678.7 -9764.33 -1109.21)
(-14672.3 -14684.3 -2952.03)
(-14228.3 -19850 -4747.97)
(-12183.4 -24518.9 -6493.37)
(-8270.62 -26483.6 -8004.84)
(-4272.69 -26858.8 -14258.2)
(407.404 -20942.4 -14856.5)
(3200.55 -12788.9 -11944.9)
(5049.11 -9811.39 -8154.51)
(5145.24 -6690.8 -4229.12)
(3152.19 -3183.09 -359.951)
(-33.3562 -507.521 3272.11)
(-2774.12 599.651 6155.63)
(-3489.75 395.219 7649.04)
(-2430.18 439.127 8425.09)
(421.912 733.685 7226.02)
(4723.75 2232.29 4832.02)
(8640.82 4909.15 2242.61)
(11759.5 8609.28 -350.834)
(13778.5 13180.6 -2869.37)
(14281 18196.3 -5200.56)
(12903.6 22770.9 -7319.98)
(9237.48 25202.2 -9206.57)
(3580.26 24446.6 -15850.5)
(-2307.98 19210.2 -16203.9)
(-6048.4 13684.8 -12971.2)
(-8574.07 12179.1 -9699.47)
(-8856.83 8948.33 -6702.73)
(-6655.29 4913.88 -3609.55)
(-3140.59 1811.83 -445.593)
(537.196 155.156 2607.04)
(2092.97 54.9044 4664.57)
(1020.59 316.167 5368.47)
(-2788.98 -217.189 4461.26)
(-7776.21 -2290.56 2462.23)
(-11624.8 -5626.8 307.684)
(-14016.9 -9794.99 -1849.91)
(-15107.1 -14611.4 -4057.6)
(-14809.4 -19794.8 -6287.17)
(-12966.8 -24800 -8531.07)
(-9210.53 -27839.2 -10497.1)
(-5825.91 -27911 -17215.8)
(-643.393 -23727.8 -18191.2)
(3056.38 -15466.7 -16153.8)
(5363.61 -11090.8 -11731.9)
(5826.88 -7568.28 -6645.11)
(4242.17 -4003.74 -1860.28)
(1055.92 -966.987 2558.54)
(-2188.28 636.115 6151.42)
(-3582.27 767.114 8213.03)
(-3860.03 1115.07 9554.49)
(-641.949 1231.96 8073.72)
(4670.87 2712.39 4773.4)
(8589.51 5268.69 1807.65)
(11631.1 8754.8 -1147.37)
(13617.5 13061.7 -4074.19)
(14186.1 17871.7 -6885.91)
(12959.8 22470.3 -9537.18)
(9257.18 25214.7 -11878.1)
(4731.02 24061.4 -18647.5)
(-1622.7 20068.6 -19771.5)
(-6306.19 14832.3 -16984.9)
(-9337.49 13047.6 -12942.5)
(-10209.3 10129.6 -9327.53)
(-8195.95 5831.99 -5617.18)
(-4373.94 2185.65 -1843.93)
(818.452 -345.686 2250.16)
(3758.36 -762.89 5095.06)
(3700.65 -383.341 6458.92)
(-546.103 -537.08 5412.04)
(-7230.97 -2484.77 2409.48)
(-11378.5 -5653.23 -100.929)
(-13860.9 -9584.59 -2545.8)
(-14995.3 -14099.7 -5068.1)
(-14810.9 -19010.6 -7699.83)
(-13167.6 -23901 -10417.3)
(-9845.35 -27726.7 -13069.4)
(-7013.24 -26631.3 -19910.2)
(-1783.67 -26086 -21889.1)
(2884.79 -18548.3 -21020.1)
(5119.72 -10959.3 -15713.6)
(6046.72 -7412.93 -9674.38)
(5011.27 -4234.93 -3877.33)
(1905.05 -1088.74 1515.26)
(-2597.23 1234.12 6463.37)
(-4680.34 1522.94 9091.63)
(-11637.3 2589.07 15387.3)
(-1013.16 1841.7 8348.9)
(5184.25 3350.88 3926.57)
(8781.21 5782.61 717.745)
(11451.8 8979.11 -2494.87)
(13081.3 12807.6 -5708.05)
(13444.5 17043.2 -8894.27)
(12207 21131.4 -12011.8)
(8577.1 23809.6 -14989.5)
(5377.37 21889.3 -21324.8)
(-1046.7 20420.9 -23832.7)
(-6637.65 15645.1 -21773.9)
(-9926.46 12942.3 -16870.3)
(-11643.8 11028.4 -13004.4)
(-10186.2 6905.07 -8778.85)
(-6074.04 2707.19 -4153.98)
(521.038 -703.425 1365.02)
(11876.5 -3372.94 9546.19)
(13215.4 -2026.25 11874.6)
(1576.7 -1009.98 6380.9)
(-7422.86 -2905.96 1640.06)
(-11249.9 -5880.38 -932.253)
(-13488.9 -9497.25 -3515.86)
(-14369.2 -13497 -6191.18)
(-14097.8 -17786.7 -9078.28)
(-12589 -22106.5 -12145.9)
(-9745.24 -25892.4 -15314)
(-7829.18 -24405.5 -22872.7)
(-2947.86 -25671.9 -24903.3)
(2399.51 -20307 -25374.2)
(5163.38 -11174.4 -20655.4)
(6441.41 -6911.6 -13970.8)
(5922.72 -4131.61 -7061.62)
(3373.52 -1365.24 -716.731)
(-3216.03 2087.15 6965.61)
(-12543.7 4150.54 15228)
(-8034 2917.74 13924.6)
(594.872 2591.03 6962.49)
(5834.92 4175.12 2314.83)
(9138.58 6574.23 -1494.48)
(11197.6 9436.08 -5043.74)
(12149.1 12597.4 -8463.74)
(11955.6 15882.1 -11816.7)
(10416.6 18882 -15113.3)
(6731.14 20718.1 -18473.3)
(5187.89 18349 -23545.9)
(-780.833 18394.6 -26877.8)
(-6772.18 15193.4 -26346.6)
(-10642.3 12627 -22107.4)
(-13061.7 11512 -18369.6)
(-12581.4 8071.09 -13965.9)
(-8489.69 3495.31 -8245.22)
(-1820.36 -264.113 -1532.34)
(8921.05 -3220.49 7992.43)
(10797.6 -2366.14 11105.8)
(943.311 -1588.64 5748.77)
(-7536.06 -3495.57 475.552)
(-11205.5 -6465.06 -2544.25)
(-12914.7 -9750.61 -5292.03)
(-13234 -13069.8 -7992.5)
(-12611.1 -16419.6 -10895)
(-11132.5 -19758.6 -14057.9)
(-8796.43 -22821.6 -17362.5)
(-7949.6 -20892.8 -26127.9)
(-3779.26 -21825.4 -26510)
(1568.44 -19804.5 -28017.4)
(5971.87 -14010.9 -26980.5)
(7775.2 -7822.13 -20744.3)
(7429.61 -4194.73 -12704.7)
(5504.68 -1721.22 -5242.69)
(-555.886 1760.92 4222.48)
(-8511.07 3896.88 13438.2)
(7330.75 1709.73 -1159.32)
(8519.98 3789.66 -2305.6)
(10890.6 6133.33 -6165.97)
(11649.6 8422.03 -9085.13)
(11703.1 10566.8 -11930.2)
(11169.2 12640.3 -14806.7)
(9914.63 14581.2 -17632)
(7751.24 16122.9 -20336.1)
(3854.83 16535.1 -23024)
(4170.42 14572.6 -25831.8)
(-887.437 14428.5 -28591.1)
(-6366.09 13777.5 -30421.2)
(-10907.2 12431 -28965.6)
(-13979.4 11315.1 -26324.6)
(-15527.6 9388.89 -23611.1)
(-14160.2 6055.66 -19102.2)
(-9756.96 2569.83 -12296.1)
(-5363.99 578.368 -5399.17)
(-3700.39 -602.012 -724.297)
(-7440.63 -2214.04 -1979.97)
(-12555.3 -5121.5 -6394.7)
(-13866.4 -8221.26 -8881.78)
(-13363.7 -10847 -10715.6)
(-12131.1 -13068.1 -12553.2)
(-10558.8 -15052.7 -14638.9)
(-8762.17 -16934.9 -17060)
(-6898.58 -18765.7 -19714.4)
(-6114.54 -14425.7 -27708.1)
(-4162.78 -16807.6 -28829.9)
(268.939 -16608.1 -29996.9)
(4977.13 -14532.9 -31141.3)
(9024.52 -11284.4 -30629.4)
(11366.5 -8113.02 -26801.3)
(11561.9 -5332.17 -20042.7)
(9232.11 -2394.1 -10535.9)
(7225.76 -197.762 -3323.93)
(15300.1 2963.5 -22612)
(13266.2 6078.39 -23188.9)
(12150.6 7639.45 -24490.3)
(11096.8 8757.42 -25808.7)
(9670.39 9625.19 -26628.7)
(7895.64 10294.2 -27032.5)
(5881.78 10797.4 -27314.9)
(3615.4 11060.5 -27604.8)
(849.757 10195.7 -27366.1)
(2533.36 10071.8 -27819.3)
(-860.445 9582.28 -29571.6)
(-4516.48 9595.76 -32215.3)
(-8188.88 9009.98 -33141.5)
(-11381.8 7894.13 -32729.3)
(-14375.9 6498.74 -33122.4)
(-16132.9 3827.06 -32514.3)
(-15783.9 949.075 -30273.8)
(-13452.8 1090.71 -25449.6)
(-14601.2 847.961 -18172.5)
(-16954 -5339.31 -20434.1)
(-16990.7 -8516.51 -23742.6)
(-15302.7 -10158.9 -24679.8)
(-12738 -11210.9 -24220.8)
(-9976.54 -11906.2 -23336.1)
(-7430.69 -12374.9 -22667.5)
(-5314.95 -12789.4 -22526.8)
(-4118.66 -13463.1 -23020.6)
(-1449.13 -6625.26 -26082.1)
(-2997.45 -8064.37 -28368.2)
(-853.782 -8404.91 -29101.4)
(1892.51 -8421.52 -30880.6)
(5317.78 -8791.35 -35325.4)
(8993.68 -8144.77 -38626.7)
(11664 -6128.85 -38430.6)
(13253.1 -4681.64 -35162.9)
(15323.8 -3582.65 -25825.6)
(9445.68 -1006.33 -37743.9)
(7212.15 92.0909 -42616.7)
(5362.66 2128.57 -47227)
(3796.02 3822.07 -50584.3)
(2438.2 4898.87 -52184)
(1335.4 5535.82 -52163.5)
(473.687 5952.63 -50990.4)
(-145.299 6137.9 -49046.2)
(1126.37 5632.99 -45711.5)
(2521.11 8730.97 -44580.9)
(943.864 7309.02 -44141.4)
(-981.49 6525.56 -44074.7)
(-3233.19 6187.13 -45871.4)
(-5346.74 4688.24 -42297.6)
(-7190.01 2830.93 -38412.3)
(-9417.07 1476.22 -39251)
(-10927.7 -389.55 -37038.5)
(-12483.9 -1125.38 -35611.3)
(-12439.2 -18.7346 -35158.5)
(-10574 -510.029 -38761)
(-9186.2 -2950.34 -43507.7)
(-8124.96 -5087.12 -47106.2)
(-6919.06 -6320.39 -48538.9)
(-5654.66 -6957.78 -48113)
(-4529.91 -7489.03 -46629.9)
(-3716.6 -8329.34 -44819.5)
(-4080.78 -10353.3 -43447.5)
(-1354.87 -3504.49 -39106.3)
(-3902.94 -1497.97 -38493.2)
(-2936.89 -1139.42 -36674.8)
(-935.035 -448.673 -33508.7)
(889.356 -108.185 -34017.1)
(3017.51 353.069 -36104)
(5647.69 1276.26 -36987.7)
(8526.04 1933.44 -34848.9)
(10524.7 510.006 -34770.8)
)
;
    }
    outside
    {
        type            calculated;
        value           nonuniform List<vector> 
540
(
(21556 1599.14 1137.5)
(20319 4678.19 2711.03)
(16276.9 6241.84 4696.7)
(10709.4 5291 6091.83)
(4763.58 1282.66 6167.46)
(-878.713 -6538.08 4253.51)
(-5066.57 -18839.5 -353.367)
(-6056.32 -36159.2 -8577.85)
(253.159 -50879 -17775.7)
(-544.614 -53059.2 -18119.6)
(7176.77 -40498.1 -9994.84)
(8463.04 -25368.4 -2732.19)
(6015.7 -13078.6 2077.05)
(1513.79 -4364.92 4666.04)
(-3917.7 977.514 5495.21)
(-9711.37 3473.87 5103.56)
(-14811.7 3393.6 4082.03)
(-18265.4 1457.03 3328.58)
(-18549.8 -1302.31 3358.45)
(-15681.8 -3495.31 4136.28)
(-11016.8 -4032.65 5104.42)
(-5947.44 -2459.64 5561.37)
(-1361.53 1261.38 5171.31)
(2601.15 7673.58 3653.49)
(5470.99 17705.3 583.35)
(6219.07 33133.8 -5126.96)
(571.496 47618.5 -12219.3)
(274.275 52556.4 -15141.4)
(-7611.45 42184 -9341.83)
(-9827.69 28025 -3494.42)
(-7972.09 15497.3 671.439)
(-3495.84 5975.82 2890.81)
(2445.35 -266.05 3371.16)
(9118.86 -3428.29 2616.05)
(15329.3 -3647.38 1373.6)
(19725.2 -1589.47 674.119)
(8797.59 729.55 -1319.75)
(9664.03 2412.14 -279.122)
(8944.36 3671.72 1353.54)
(7504.7 4075.07 3086.1)
(6136.71 3716.13 4588.33)
(4831.07 2470.5 5606.55)
(3598.39 2.30263 5874.07)
(2236.48 -5505.19 4435.3)
(3398.46 -11013.6 1473.18)
(-3521.8 -11441.5 1461.93)
(-2284.15 -4790.95 5052.09)
(-3150.93 -110.702 6318.57)
(-4343.36 2316.49 6240.96)
(-5675.12 3527.9 5438.87)
(-7097.34 3883.64 4163.68)
(-8778.23 3614.97 2689.63)
(-10070.5 2548.42 1333.11)
(-10662 993.308 570.995)
(-10825.1 -695.118 592.252)
(-10780.2 -2417.71 1348.17)
(-9549.16 -3732.26 2516.89)
(-7863.8 -4357.5 3665.81)
(-6376.15 -4449.34 4599.84)
(-4974.78 -3859.4 5250.89)
(-3599.18 -2196.04 5568.43)
(-1804.73 2925.99 4753.17)
(-2319.94 9086.15 2585.81)
(2905.76 12093.9 612.672)
(1337.69 7115.67 2911.31)
(1403.02 2975.72 3815.81)
(1960.1 405.488 3750.79)
(2857.34 -1268.3 3016.34)
(4092.71 -2247.7 1787.21)
(5816.64 -2591.66 337.943)
(7343.93 -2017.63 -936.575)
(7933.28 -743.877 -1540.68)
(5117.23 647.989 -2414.11)
(6546.42 2045.52 -1767.73)
(6382.57 3205.01 -546.293)
(5226.84 3570.08 915.771)
(4063.28 3214.93 2326.39)
(3044.7 2160.15 3503.45)
(2221.98 373.386 4323.63)
(1386.09 -3160.03 4368.67)
(2342.64 -7249.08 3192.66)
(-3065.84 -10054.6 2070.58)
(-1014.91 -6470.63 3768.94)
(-1257.81 -2283.41 4434.03)
(-1886.53 78.9898 4175.91)
(-2966.54 1732.08 3436.92)
(-4260.77 2560.52 2298.44)
(-5723.54 2657.72 1000.88)
(-6522.56 1882.98 -131.247)
(-6475.83 683.597 -756.103)
(-6547.83 -538.177 -800.724)
(-7181.82 -1882.13 -336.813)
(-6651.22 -3022.08 471.781)
(-5336.7 -3529.34 1346.86)
(-4095.89 -3521.61 2137.32)
(-3015.07 -3013.42 2837.5)
(-2106.78 -1989.61 3514.57)
(-992.741 767.836 3955.61)
(-1193.3 4744.31 3734.84)
(2466.97 9756.65 1522.96)
(82.0174 8513.19 2201.51)
(-434.398 4630.67 2510.92)
(-398.399 2159.4 2226.4)
(315.361 142.432 1526.06)
(1502.02 -1201.63 422.027)
(3072.33 -1810.93 -866.168)
(4174.49 -1448.61 -1952.62)
(4289.96 -459.233 -2471.01)
(1945.3 648.518 -2675.18)
(3830.92 1754.25 -2410.31)
(4240.51 2835.34 -1614.06)
(3576.97 3360.92 -498.326)
(2890.78 3429.13 731.864)
(2434.39 3207 2035.01)
(2143.84 2788.89 3421.11)
(1765.46 1744.88 4793.07)
(2117.14 -281.433 5418.62)
(-3206.32 -3883.97 4384.42)
(-1107.21 -4151.66 4415.65)
(-1361.85 -603.384 4133.52)
(-1290.63 226.256 3274.04)
(-1698.05 1158.5 2351.09)
(-2366.73 1704.76 1284.73)
(-3192.62 1776.51 176.797)
(-3413.39 1185.47 -740.738)
(-2871.46 288.22 -1260.63)
(-2964.4 -554.182 -1406.87)
(-4153.91 -1585.74 -1270.07)
(-4417.01 -2645.5 -852.303)
(-3782.14 -3317.02 -279.929)
(-3062.9 -3688.65 351.186)
(-2457.53 -3892.34 1093.13)
(-1939.44 -4045.85 2067.14)
(-1250.15 -3798.82 3360.63)
(-813.175 -2385.64 4727.43)
(2522 3148.6 3178.69)
(180.677 6210.69 3041.17)
(-347.967 2718.63 2409.65)
(-969.182 1724.36 1600.28)
(-901.182 508.679 781.104)
(-274.033 -491.654 -188.012)
(742.874 -1033.23 -1255.52)
(1329.98 -817.867 -2139.52)
(1115.04 -113.968 -2579.04)
(-1037.82 722.518 -2758.1)
(1171.4 1542.01 -2871.71)
(2189.42 2540.31 -2485.62)
(2085.33 3230.3 -1699.99)
(1821.05 3634.79 -665.306)
(1726.9 3912.95 651.745)
(1726.89 4158.83 2306.89)
(1708.83 4452.88 4273.77)
(1876.39 3767.96 5919.1)
(-3187.58 -636.793 5262.8)
(-1038.06 -3108.55 4925.64)
(-1289.45 672.807 3804.11)
(-714.358 382.331 2525.71)
(-543.23 680.177 1450.02)
(-576.268 904.766 457.449)
(-708.707 885.683 -463.313)
(-353.518 435.187 -1183.23)
(474.463 -178.291 -1603.37)
(249.166 -689.816 -1863.07)
(-1364.57 -1437.04 -2051.76)
(-2332.45 -2395.42 -1994.58)
(-2344.29 -3180.13 -1694.86)
(-2060.24 -3792.46 -1224.79)
(-1765.2 -4372.33 -530.429)
(-1461 -5056.71 506.435)
(-1059.1 -6015.08 2008.92)
(-423.017 -6118.98 4059.57)
(2277.75 -382.429 3440.79)
(396.987 4274.06 3818.39)
(-448.822 1407.92 2325.42)
(-1456.65 1229.48 1118.6)
(-1957.33 723.905 199.859)
(-1918.03 110.847 -636.982)
(-1538.66 -285.447 -1475.87)
(-1512.3 -162.044 -2149.13)
(-1926.27 272.812 -2508.18)
(-3491.19 826.259 -2767.24)
(-1157.29 1395.97 -3206.66)
(379.325 2290.82 -3186.31)
(832.514 3096.82 -2684.18)
(970.115 3750.74 -1821.29)
(1154.07 4348.62 -541.416)
(1332.75 4927.47 1222.27)
(1474.93 5675.4 3398.31)
(1624.09 5379.56 5539.07)
(-2974.3 993.415 5363.71)
(-1369.42 -761.26 5424.12)
(-1280.51 1977.39 3515.39)
(-504.039 1002.42 1954.76)
(160.629 577.518 753.876)
(718.441 379.95 -195.546)
(1269.02 161.029 -960.36)
(2148.09 -236.314 -1502.48)
(3067.27 -619.224 -1841.4)
(2676.66 -871.617 -2210.51)
(842.204 -1379.42 -2671.35)
(-638.018 -2219.71 -2912.71)
(-1199.69 -3065.65 -2837.6)
(-1297.01 -3838.07 -2512.93)
(-1240.89 -4635.77 -1914.69)
(-1073.01 -5564.04 -945.248)
(-758.329 -6812.23 491.46)
(-92.7285 -7532.16 2679.67)
(1726.94 -3018.58 2865.27)
(1029.02 561.071 4037.35)
(-569.647 548.05 2389.95)
(-1584.61 360.883 782.101)
(-2563.79 569.374 -226.035)
(-3098.54 419.696 -977.734)
(-3395.94 276.392 -1613.35)
(-3922.48 394.769 -2077.91)
(-4437.25 620.753 -2370.81)
(-5217.47 898.032 -2732.11)
(-2944.51 1272.29 -3394.8)
(-1112.4 2034.47 -3646.41)
(-229.937 2868.66 -3371.23)
(245.11 3665.41 -2669.41)
(656.713 4463.01 -1484.03)
(983.61 5257.48 256.905)
(1207.53 6184.68 2454.54)
(1407.41 6161.12 4854.18)
(-2691.56 2718.63 5149.15)
(-1856.64 2357.65 5517.03)
(-1208.41 2938.29 3270.16)
(-534.435 1925.4 1465.5)
(507.001 759.015 240.607)
(1496.53 131.289 -658.499)
(2586.86 -336.647 -1279.85)
(3837.29 -736.952 -1666.99)
(4730.68 -949.963 -1958.48)
(4235.12 -1015.61 -2418.77)
(2401.53 -1326.83 -3054.44)
(665.811 -2022.71 -3505.01)
(-283.283 -2857.16 -3612.57)
(-687.004 -3703.85 -3436.7)
(-830.597 -4615.69 -2986.51)
(-788.877 -5683.78 -2193.44)
(-531.017 -7042.73 -978.814)
(72.749 -8405.18 959.822)
(1027.95 -5907.31 1639.22)
(1554.37 -2999.07 3493.65)
(-674.487 276.84 2784.78)
(-1479.51 -645.845 605.229)
(-2773.26 132.037 -480.174)
(-3756.45 430.369 -1193.06)
(-4629.1 583.389 -1669.14)
(-5593.19 757.346 -1960.2)
(-6163.71 854.027 -2215.02)
(-6282.89 896.71 -2601.65)
(-4220.43 1125.64 -3358.82)
(-2315.65 1738.18 -3772.05)
(-1154.63 2531.75 -3684.3)
(-414.806 3392.86 -3161.6)
(196.592 4330.31 -2144.96)
(690.074 5355.04 -563.773)
(1049.04 6623.51 1472.92)
(1472.49 7651.69 3775.12)
(-2415.6 5595.07 4490.77)
(-2258.57 4824.01 5289.76)
(-839.038 2840.79 3353.98)
(-778.284 3175.06 946.328)
(580.014 1200.01 -161.416)
(1839.01 155.424 -962.267)
(3306.5 -586.885 -1405.04)
(4782.75 -1025.46 -1639.32)
(5625.23 -1126.65 -1901.86)
(5120.73 -1069.46 -2413.73)
(3442.76 -1223.83 -3112.72)
(1647.63 -1763.21 -3684.54)
(458.108 -2531.78 -3950.09)
(-172.608 -3384.64 -3943.31)
(-478.751 -4336.98 -3693.94)
(-556.784 -5483.11 -3165.92)
(-372.146 -6934.08 -2290.02)
(105.103 -8924.11 -883.527)
(292.092 -7683.78 236.522)
(1763.01 -5006.47 2779.63)
(-268.49 -788.54 3284.48)
(-1273.48 -1569.39 698.171)
(-2668.48 -540.376 -567.316)
(-3974.39 180.011 -1265.51)
(-5252.33 624.378 -1626.22)
(-6511.22 891.195 -1788.03)
(-7135.88 936.881 -2020.29)
(-6932.87 822.922 -2204.47)
(-5187.49 937.872 -2928.37)
(-3346.62 1394.67 -3438.59)
(-2018.99 2103.44 -3548.28)
(-1088.88 2961.02 -3245.8)
(-328.312 3954.05 -2454.34)
(301.103 5108.01 -1102.17)
(778.674 6544.24 729.213)
(1523.93 8308.99 2770.81)
(-2251.45 6389.18 4027.77)
(-2316.55 5203.62 5313.41)
(-722.274 3261.47 3649.99)
(-1167.34 4694.98 304.656)
(409.732 1947.66 -585.625)
(1866.56 439.023 -1178.37)
(3598.62 -606.03 -1339.05)
(5236.79 -1123.71 -1353.59)
(6059.84 -1162.82 -1549.21)
(5625.1 -1028.57 -2042.97)
(4187.87 -1054.73 -2701.3)
(2431.52 -1434.79 -3348.65)
(1107.21 -2095.68 -3780.68)
(332.245 -2885.69 -3971.31)
(-86.0915 -3789.45 -3955.67)
(-255.267 -4892.58 -3720.43)
(-141.8 -6280.9 -3198.72)
(272.932 -8213.99 -2233.56)
(-380.341 -7502.69 -520.352)
(1859.96 -6773.31 1937.33)
(818.641 -3587.35 3197.96)
(-1280.8 -1822.31 1489.21)
(-2428.16 -1328.15 -429.399)
(-3942.81 -256.814 -1153.35)
(-5457.65 445.852 -1435.51)
(-6911.8 837.788 -1470.45)
(-7596.3 890.899 -1656.32)
(-7522.85 730.461 -1181.09)
(-6050.65 734.369 -1862.3)
(-4292.24 1030.72 -2522.96)
(-2869.28 1616.39 -2893.68)
(-1817.74 2400.96 -2853.88)
(-960.296 3354.9 -2310.15)
(-242.496 4493.68 -1188.41)
(323.095 5862.05 482.155)
(1328.4 7473.8 2464.08)
(-2322.73 5009.65 4841.55)
(-2283.22 5324.1 5963.83)
(-1409.77 6047.29 3309.48)
(-1583.71 6223 -427.099)
(12.2814 2987.39 -1137.66)
(1672.71 921.063 -1324.44)
(3588.68 -448.067 -1043.88)
(5425.95 -1114.62 -652.489)
(6434 -1163.14 -572.459)
(6090.08 -947.774 -977.893)
(4828.3 -849.861 -1599.77)
(3106.37 -1067.74 -2382.88)
(1723.9 -1579.2 -3032.88)
(890.231 -2231.27 -3443.27)
(408.226 -2996.08 -3668.3)
(161.998 -3953.35 -3725.92)
(174.537 -5202.35 -3585.54)
(506.722 -6922.87 -3083.49)
(-1004.34 -6767.83 -682.443)
(1892.27 -7913.69 1333.89)
(1711.8 -5520.48 3350.01)
(-1186.71 -1906.19 3111.19)
(-2196.06 -2094.93 137.246)
(-3793.52 -830.927 -775.239)
(-5449.28 124.503 -979.633)
(-7108.34 707.519 -769.787)
(-7970.7 824.316 -753.514)
(-7767.76 642.65 571.079)
(-6734.39 563.538 -8.61593)
(-5070.31 681.848 -948.236)
(-3661.43 1090.79 -1610.1)
(-2547.07 1739.52 -1850.57)
(-1604.28 2610.83 -1581.79)
(-785.705 3720.4 -741.895)
(-71.0911 5115.7 637.894)
(1257.46 6706.19 2330.97)
(-2646.26 5240.1 6718.42)
(-2702.83 7021.81 7609.99)
(-1979.31 8112.08 3736.22)
(-1413.03 6454.29 -241.646)
(-710.888 4296.75 -1808.82)
(1273.88 1473.49 -1197.85)
(3229.13 -168.939 -358.937)
(5294.55 -1065.98 689.164)
(6398.36 -1143.95 1143.22)
(6197.52 -877.383 892.686)
(5296.91 -686.819 363.047)
(3625.59 -724.7 -691.231)
(2294.85 -1034.35 -1595.51)
(1485.98 -1480.53 -2213.17)
(976.475 -2038.54 -2652.64)
(657.131 -2778.81 -2973.2)
(545.566 -3806.52 -3195)
(731.921 -5237.43 -3175.45)
(-1684.3 -5365.19 -31.8071)
(1722.02 -7216.21 2023.82)
(2534.57 -6973.56 4124.85)
(41.6727 -3776.91 4616.33)
(-2405.25 -2152.05 2181.63)
(-3586.2 -1468.92 126.53)
(-5322.58 -256.783 18.9264)
(-7160.74 572.741 636.411)
(-8000.34 739.143 829.914)
(-7218.55 517.351 3014.45)
(-6373.76 374.522 2231.15)
(-5179.86 364.422 1258.56)
(-4024.1 586.281 479.786)
(-2926.88 1088.42 -10.3537)
(-1910.28 1897.15 -68.8622)
(-992.925 3013.7 405.696)
(-127.293 4440.45 1387.31)
(1383.99 5497.92 2800.51)
(-3653.25 6417.06 11932.1)
(-3274.63 7347.96 13056.8)
(-1885.57 7764.47 7485.6)
(-2140.79 7873.84 149.253)