/*--------------------------------*- C++ -*----------------------------------*\
| =========                 |                                                 |
| \\      /  F ield         | OpenFOAM: The Open Source CFD Toolbox           |
|  \\    /   O peration     | Version:  2312                                  |
|   \\  /    A nd           | Website:  www.openfoam.com                      |
|    \\/     M anipulation  |                                                 |
\*---------------------------------------------------------------------------*/
FoamFile
{
    version     2.0;
    format      ascii;
    arch        "LSB;label=32;scalar=64";
    class       volVectorField;
    location    "0.5";
    object      U;
}
// * * * * * * * * * * * * * * * * * * * * * * * * * * * * * * * * * * * * * //

dimensions      [0 1 -1 0 0 0 0];

internalField   nonuniform List<vector> 
1620
(
(-9.98936e-05 0.000195102 -0.000232293)
(-8.18404e-05 0.000317131 -0.000219962)
(-6.39866e-05 0.000387561 -0.000186707)
(-4.42175e-05 0.000413372 -0.00013439)
(-1.54715e-05 0.000411749 -6.15129e-05)
(2.16491e-05 0.00039981 3.35698e-05)
(5.60375e-05 0.000390933 0.000153113)
(6.96588e-05 0.000390705 0.000294395)
(6.83522e-05 0.000386508 0.000414543)
(5.32145e-05 0.000376162 0.000385023)
(1.68972e-05 0.00035139 0.000240304)
(5.43747e-06 0.000319352 0.00010915)
(2.06868e-05 0.000298293 1.205e-05)
(4.23348e-05 0.000286989 -5.75446e-05)
(5.68143e-05 0.00027275 -0.000107175)
(6.20992e-05 0.000239396 -0.000144133)
(6.34017e-05 0.000171658 -0.000175646)
(5.9297e-05 6.1754e-05 -0.000200426)
(4.49664e-05 -7.47685e-05 -0.000192516)
(2.61804e-05 -0.000189947 -0.000152474)
(1.4406e-05 -0.000264843 -0.000110112)
(1.12796e-05 -0.000301315 -6.82308e-05)
(9.02271e-06 -0.000308842 -2.25748e-05)
(1.35101e-06 -0.000300796 3.24597e-05)
(-1.09742e-05 -0.000291914 0.000107467)
(-1.8068e-05 -0.000292597 0.000215522)
(-2.82995e-05 -0.000292626 0.000333056)
(-3.14934e-05 -0.000287702 0.000328849)
(-1.52911e-05 -0.000269731 0.000221279)
(-2.14111e-05 -0.000248106 0.000116973)
(-5.15387e-05 -0.000236391 3.491e-05)
(-8.61724e-05 -0.000230023 -2.75134e-05)
(-0.000109929 -0.000213834 -7.50191e-05)
(-0.00011892 -0.000170139 -0.000114953)
(-0.000119231 -8.48113e-05 -0.000157663)
(-0.000113334 4.51954e-05 -0.000206234)
(0.000103603 0.000136793 -0.000146023)
(0.000104816 0.000249433 -0.000107332)
(9.24164e-05 0.000308968 -6.94016e-05)
(7.49875e-05 0.000326127 -2.42583e-05)
(6.03407e-05 0.000309652 2.81479e-05)
(5.13328e-05 0.000271851 8.30603e-05)
(4.70891e-05 0.000224826 0.000134217)
(4.65491e-05 0.00017972 0.000174801)
(5.51306e-05 0.000149276 0.000196681)
(5.55337e-05 0.000143212 0.000186631)
(5.12607e-05 0.000157867 0.000151931)
(4.10922e-05 0.000182927 0.000107951)
(3.13865e-05 0.000212851 6.30959e-05)
(1.79941e-05 0.000240153 2.12549e-05)
(-3.7399e-06 0.00025391 -1.46188e-05)
(-3.46449e-05 0.000241658 -4.33208e-05)
(-6.96435e-05 0.000193429 -6.7988e-05)
(-0.000101257 9.38659e-05 -9.65953e-05)
(-0.000113284 -3.59354e-05 -8.4832e-05)
(-0.000101828 -0.00013935 -3.7839e-05)
(-7.85139e-05 -0.000197618 -4.28061e-06)
(-5.0383e-05 -0.000219232 2.60871e-05)
(-2.48916e-05 -0.000210403 5.6762e-05)
(-6.51844e-06 -0.000180944 8.75201e-05)
(2.48345e-06 -0.00014055 0.000118085)
(4.8559e-07 -9.84438e-05 0.000147637)
(-1.76571e-05 -6.71733e-05 0.000169196)
(-3.35381e-05 -5.76972e-05 0.000163523)
(-4.53673e-05 -7.14123e-05 0.000134868)
(-5.28674e-05 -0.000100611 9.60123e-05)
(-5.90695e-05 -0.000137873 5.35228e-05)
(-5.74309e-05 -0.000172579 1.13584e-05)
(-4.10844e-05 -0.000190144 -2.7305e-05)
(-8.29503e-06 -0.00017532 -6.17183e-05)
(3.48449e-05 -0.000117671 -9.63321e-05)
(7.80382e-05 -5.62539e-06 -0.000140951)
(0.000276006 7.1471e-05 -3.30008e-05)
(0.000251425 0.000174009 -3.9606e-06)
(0.000195693 0.000225523 2.65121e-05)
(0.000131013 0.000227856 5.64409e-05)
(7.04262e-05 0.000190771 8.3466e-05)
(2.21149e-05 0.000128933 0.000101084)
(-7.08148e-06 5.89599e-05 0.00010019)
(-9.37088e-06 -2.34405e-06 7.48315e-05)
(2.55999e-05 -3.94091e-05 3.70369e-05)
(8.38124e-05 -4.65495e-05 3.51869e-05)
(0.000117335 -1.93696e-05 7.20411e-05)
(0.000119445 3.65711e-05 8.91119e-05)
(9.76335e-05 0.0001053 8.32199e-05)
(5.67095e-05 0.00017118 6.5608e-05)
(-7.38681e-07 0.000218986 4.6785e-05)
(-7.13589e-05 0.000233545 3.37073e-05)
(-0.000145805 0.000202063 2.84945e-05)
(-0.000200433 0.000118277 2.90318e-05)
(-0.000208889 1.21136e-05 4.16466e-05)
(-0.000171053 -7.6495e-05 6.04469e-05)
(-0.000111086 -0.000119564 7.50265e-05)
(-5.01497e-05 -0.000120669 8.8618e-05)
(1.67618e-06 -8.96404e-05 0.000102321)
(3.95425e-05 -3.83299e-05 0.000111749)
(5.85695e-05 2.19033e-05 0.000108188)
(5.12564e-05 7.89782e-05 8.32813e-05)
(8.48409e-06 0.000117525 4.43564e-05)
(-5.48774e-05 0.000126937 3.6513e-05)
(-9.48026e-05 9.89707e-05 6.53275e-05)
(-0.000108732 3.91815e-05 7.45542e-05)
(-9.81647e-05 -3.72029e-05 6.1387e-05)
(-6.25312e-05 -0.000112599 3.63488e-05)
(-1.58335e-06 -0.000167834 9.01215e-06)
(8.10368e-05 -0.000184072 -1.47123e-05)
(0.000173261 -0.000146974 -3.30361e-05)
(0.000248403 -5.1469e-05 -4.42714e-05)
(-4.84803e-05 0.000542813 -0.000622412)
(-4.01348e-05 0.000910248 -0.000587618)
(-5.78828e-05 0.00112483 -0.000487129)
(-7.38751e-05 0.00119754 -0.000333522)
(-6.33083e-05 0.00117013 -0.00012644)
(-2.1559e-05 0.00108804 0.000135498)
(3.62402e-05 0.000992238 0.000449)
(8.58769e-05 0.000912403 0.000788835)
(0.000133442 0.000850884 0.00105264)
(0.000173142 0.000810599 0.0010306)
(0.00015339 0.000785991 0.000742191)
(0.000143004 0.000780653 0.000415965)
(0.000153896 0.00079778 0.000140007)
(0.000162743 0.000816388 -7.21432e-05)
(0.000149759 0.000801916 -0.000228847)
(0.000111247 0.000715017 -0.000346846)
(5.88824e-05 0.000516958 -0.000441935)
(6.82906e-06 0.000189286 -0.000504359)
(-2.28567e-05 -0.000207242 -0.000481024)
(-1.93199e-05 -0.000546714 -0.000373422)
(9.35166e-06 -0.000754486 -0.000247702)
(4.77191e-05 -0.00083761 -0.000123029)
(7.66268e-05 -0.000829793 8.09416e-06)
(8.43967e-05 -0.000770007 0.000162161)
(6.95905e-05 -0.000696201 0.000360849)
(3.92203e-05 -0.00063816 0.000613979)
(-2.24358e-05 -0.0005968 0.000855596)
(-9.84359e-05 -0.000570301 0.000886192)
(-0.000130801 -0.000557406 0.000682951)
(-0.000174589 -0.000570058 0.000425669)
(-0.000236205 -0.000607362 0.000191293)
(-0.000286627 -0.000640103 -2.70907e-06)
(-0.000296854 -0.000624617 -0.000158786)
(-0.000256769 -0.000515395 -0.000292439)
(-0.000181792 -0.000274814 -0.000425555)
(-0.000100329 0.000105087 -0.000556322)
(0.000244176 0.00038779 -0.000459737)
(0.000240558 0.000707964 -0.00036862)
(0.000194852 0.000886208 -0.00024065)
(0.000136708 0.000939422 -8.41314e-05)
(9.02094e-05 0.000894623 9.54057e-05)
(6.64489e-05 0.000788466 0.000287188)
(6.60376e-05 0.000658742 0.000474645)
(8.66241e-05 0.000539119 0.000633919)
(0.0001319 0.000456982 0.000728918)
(0.00017556 0.000432068 0.000717014)
(0.000196481 0.00046424 0.000604348)
(0.000192525 0.000533516 0.000442495)
(0.000172524 0.000620106 0.000272109)
(0.000130958 0.000697902 0.00011404)
(6.16715e-05 0.000733386 -2.17557e-05)
(-3.26531e-05 0.00069076 -0.000133091)
(-0.000135484 0.000540532 -0.000223409)
(-0.0002215 0.000257259 -0.000289193)
(-0.000252339 -9.46934e-05 -0.000256994)
(-0.000219613 -0.000388569 -0.000138538)
(-0.000150951 -0.000556556 -2.00768e-05)
(-7.16547e-05 -0.000614208 9.22036e-05)
(-3.13943e-06 -0.000585644 0.000201963)
(4.14866e-05 -0.000502044 0.000312264)
(5.48844e-05 -0.000394195 0.000424335)
(3.22548e-05 -0.000289549 0.000532937)
(-3.11804e-05 -0.000212437 0.000612935)
(-0.000107022 -0.000185029 0.000616752)
(-0.000168381 -0.000217959 0.000533462)
(-0.000211313 -0.000299006 0.000398625)
(-0.000235833 -0.000406134 0.000243849)
(-0.000227474 -0.000505377 8.79611e-05)
(-0.000172117 -0.000552521 -5.87974e-05)
(-6.94707e-05 -0.000502823 -0.000194438)
(5.94152e-05 -0.000324725 -0.000323294)
(0.000179077 -2.01176e-06 -0.000440863)
(0.000514172 0.000222103 -0.000265846)
(0.00049336 0.000489025 -0.000156748)
(0.000410751 0.000638791 -1.312e-05)
(0.000300522 0.000672106 0.000139405)
(0.000189915 0.000608976 0.000285099)
(0.0001003 0.000482077 0.000404272)
(4.90657e-05 0.000330808 0.000472094)
(5.05321e-05 0.000195438 0.000471252)
(0.000120229 0.000110939 0.00042663)
(0.000217086 9.5407e-05 0.000425153)
(0.000280289 0.000154414 0.00045359)
(0.000289435 0.000273114 0.000436565)
(0.000246355 0.000419283 0.000366924)
(0.000157157 0.000556366 0.000265925)
(2.89074e-05 0.000645772 0.000158287)
(-0.000125521 0.000650211 6.25616e-05)
(-0.000281076 0.000541525 -9.30851e-06)
(-0.000394583 0.000312811 -4.23773e-05)
(-0.000425274 2.89389e-05 -5.16643e-06)
(-0.000369877 -0.000210268 8.52365e-05)
(-0.000262727 -0.000343977 0.000184956)
(-0.000141158 -0.000373915 0.000279367)
(-3.12574e-05 -0.000320468 0.000363685)
(4.88431e-05 -0.000211559 0.0004281)
(8.42039e-05 -7.6987e-05 0.000454834)
(6.21075e-05 5.15603e-05 0.000428885)
(-2.89654e-05 0.000139389 0.000373633)
(-0.000143464 0.0001592 0.000366186)
(-0.00022992 9.74041e-05 0.000386484)
(-0.000272589 -3.44301e-05 0.000361321)
(-0.000261986 -0.000204689 0.000282015)
(-0.00019225 -0.000370262 0.000165571)
(-6.40171e-05 -0.000480784 3.27287e-05)
(0.000108623 -0.000488364 -9.95932e-05)
(0.000294451 -0.000361745 -0.000216082)
(0.000445084 -0.000100177 -0.000289112)
(-2.92062e-06 0.000787115 -0.000879535)
(4.72738e-06 0.00131926 -0.000840396)
(-3.09368e-05 0.00164182 -0.000689776)
(-6.34015e-05 0.00176439 -0.000442274)
(-5.99509e-05 0.00173673 -0.000100001)
(-1.60124e-05 0.00161609 0.000330638)
(5.21275e-05 0.00145688 0.000828389)
(0.000120955 0.00130469 0.0013373)
(0.000191293 0.00118703 0.00172766)
(0.000253898 0.00112741 0.00176984)
(0.00025618 0.00112233 0.00141251)
(0.000240711 0.0011577 0.000921889)
(0.000236983 0.00121295 0.000460238)
(0.000229017 0.00125006 8.15209e-05)
(0.000195383 0.00122308 -0.000205156)
(0.000126466 0.00108261 -0.000413303)
(3.43948e-05 0.000781834 -0.000561284)
(-5.30049e-05 0.000302375 -0.000638945)
(-9.64141e-05 -0.000265143 -0.000597417)
(-7.87814e-05 -0.00075483 -0.000444391)
(-1.91789e-05 -0.00105956 -0.000253084)
(4.97077e-05 -0.00118491 -5.28113e-05)
(0.000100327 -0.00117668 0.000162439)
(0.000119674 -0.00108758 0.000412136)
(0.000105799 -0.00096675 0.000716214)
(6.22817e-05 -0.000854015 0.00106994)
(-2.2845e-05 -0.00076989 0.00139558)
(-0.000133691 -0.000730098 0.00149241)
(-0.000215922 -0.000737818 0.00126)
(-0.000282185 -0.000792854 0.000885009)
(-0.000355803 -0.000875031 0.000500078)
(-0.000411107 -0.000934675 0.000156902)
(-0.000412546 -0.000911732 -0.000129537)
(-0.000340471 -0.000746788 -0.000369917)
(-0.000213415 -0.000392374 -0.000587917)
(-8.172e-05 0.000157965 -0.000779802)
(0.000282447 0.000585946 -0.000715459)
(0.000289636 0.00104338 -0.000587011)
(0.000241109 0.00130524 -0.000373261)
(0.000176793 0.00139322 -0.00010125)
(0.00012765 0.00134144 0.000215362)
(0.000107418 0.00119884 0.000556599)
(0.00011652 0.00101823 0.000891966)
(0.000150227 0.00084777 0.00117804)
(0.000208138 0.000726623 0.00135634)
(0.000266967 0.000683177 0.00136227)
(0.000304919 0.000724972 0.00119019)
(0.000306592 0.000827182 0.000915387)
(0.000280591 0.00095326 0.000610576)
(0.000222724 0.00106122 0.000319726)
(0.000127245 0.0011022 6.63483e-05)
(-1.4828e-06 0.00102684 -0.00014025)
(-0.000140663 0.000798182 -0.000297891)
(-0.000255785 0.000389554 -0.000386337)
(-0.000302277 -0.000105499 -0.000332018)
(-0.000267819 -0.000523752 -0.000157044)
(-0.00018177 -0.000769761 4.17964e-05)
(-8.05869e-05 -0.00086071 0.000237609)
(5.16259e-06 -0.000828809 0.000429498)
(5.69378e-05 -0.000717301 0.000621057)
(6.53915e-05 -0.000570355 0.000812558)
(2.70558e-05 -0.000427291 0.000992754)
(-5.81631e-05 -0.000320705 0.00112672)
(-0.000164383 -0.000277954 0.00115076)
(-0.000262167 -0.000319416 0.00103209)
(-0.000331488 -0.000435264 0.000812824)
(-0.000370457 -0.000588748 0.000543845)
(-0.000362245 -0.000727766 0.000260769)
(-0.000288837 -0.000787847 -1.41702e-05)
(-0.000149132 -0.000704916 -0.000270161)
(2.71124e-05 -0.000436786 -0.000501644)
(0.000189533 3.15272e-05 -0.000682237)
(0.000583462 0.000372248 -0.000520948)
(0.000580998 0.000749062 -0.000336309)
(0.000508081 0.00096359 -7.19091e-05)
(0.000399175 0.00101998 0.000220506)
(0.000285511 0.000943903 0.000507589)
(0.000193558 0.000778817 0.000756259)
(0.000143394 0.000578646 0.000929512)
(0.000148313 0.000398022 0.00099875)
(0.000215467 0.000283248 0.000979298)
(0.000315282 0.000262347 0.000966808)
(0.000390686 0.000338297 0.000956018)
(0.000408381 0.000491939 0.000880563)
(0.000361117 0.000683482 0.000730895)
(0.000250964 0.000862855 0.000532333)
(8.70887e-05 0.000974022 0.000319286)
(-0.000109841 0.00096362 0.000122511)
(-0.000304258 0.000795707 -2.95374e-05)
(-0.000446933 0.000467056 -9.7801e-05)
(-0.000494747 6.56984e-05 -3.61067e-05)
(-0.000443024 -0.000272152 0.000127371)
(-0.00032672 -0.000469555 0.000322251)
(-0.000187447 -0.0005261 0.000510442)
(-6.01976e-05 -0.000466069 0.000676658)
(2.80468e-05 -0.000326977 0.000807622)
(5.86474e-05 -0.000151641 0.000884063)
(2.22132e-05 1.5859e-05 0.000888762)
(-8.07781e-05 0.000131596 0.000839285)
(-0.000214704 0.000158203 0.000820763)
(-0.000329059 8.16649e-05 0.000810382)
(-0.000394922 -8.72531e-05 0.000735777)
(-0.000394711 -0.000311243 0.000579663)
(-0.00031546 -0.000531807 0.00035751)
(-0.000156742 -0.000674958 9.67616e-05)
(6.04576e-05 -0.000669173 -0.00017131)
(0.000293057 -0.000471912 -0.000407444)
(0.000484443 -8.89836e-05 -0.000550011)
(1.58109e-05 0.00091366 -0.000885859)
(2.94021e-05 0.00151281 -0.000874108)
(-3.75067e-06 0.00189505 -0.000716151)
(-3.55871e-05 0.00206124 -0.000417678)
(-3.42089e-05 0.00205494 1.40343e-05)
(6.24741e-06 0.00193206 0.000559034)
(7.44238e-05 0.00175024 0.0011769)
(0.000151639 0.00156393 0.00179294)
(0.000231594 0.00142032 0.00227619)
(0.000312754 0.00135875 0.00240259)
(0.000354914 0.00137514 0.00206025)
(0.000328101 0.00144193 0.00149453)
(0.000294184 0.00152175 0.000912141)
(0.000253897 0.00156053 0.000406309)
(0.000193963 0.00150759 1.44962e-05)
(0.000104036 0.00131596 -0.000260946)
(-5.84023e-06 0.000948053 -0.000433291)
(-0.00010441 0.000400126 -0.000501987)
(-0.000150605 -0.000226802 -0.00044944)
(-0.000124875 -0.000769912 -0.000292538)
(-4.80134e-05 -0.00112089 -8.47733e-05)
(3.84486e-05 -0.00127743 0.000146926)
(0.000101664 -0.00128272 0.00040488)
(0.000127333 -0.00119095 0.000703949)
(0.00011305 -0.00105421 0.00105636)
(6.16395e-05 -0.000917613 0.00144913)
(-2.94498e-05 -0.000817197 0.00181264)
(-0.000157811 -0.000781958 0.00196732)
(-0.000291995 -0.000813322 0.00177339)
(-0.000365303 -0.000897863 0.00136413)
(-0.000425838 -0.00100655 0.000895508)
(-0.000461605 -0.00107405 0.000448949)
(-0.000445581 -0.00103341 6.24768e-05)
(-0.000357646 -0.000825436 -0.000259103)
(-0.000214585 -0.000408652 -0.000531225)
(-7.0998e-05 0.000212528 -0.000754605)
(0.000228103 0.000715409 -0.000770736)
(0.000254766 0.00123119 -0.000637276)
(0.000226828 0.00153834 -0.000377875)
(0.000183033 0.00165611 -2.93461e-05)
(0.000152651 0.00161967 0.000385843)
(0.000148524 0.00147955 0.000837708)
(0.000171106 0.00129223 0.00128353)
(0.000214958 0.00111086 0.0016667)
(0.000277677 0.00097985 0.00191742)
(0.000344677 0.000928801 0.00195772)
(0.000395359 0.000970479 0.00177086)
(0.000397354 0.00108304 0.00143529)
(0.000362737 0.00121805 0.00103978)
(0.000293581 0.00132531 0.000648767)
(0.000187643 0.00135033 0.000302703)
(5.00602e-05 0.00124121 2.34581e-05)
(-9.64258e-05 0.000962401 -0.000176238)
(-0.000217604 0.000497052 -0.00026654)
(-0.000272799 -5.16371e-05 -0.000198124)
(-0.000247432 -0.000518075 -3.66953e-06)
(-0.000166308 -0.000804279 0.000232411)
(-6.89421e-05 -0.000922032 0.000472757)
(1.07816e-05 -0.00090407 0.0007109)
(5.26282e-05 -0.000796312 0.000948229)
(4.8069e-05 -0.000647615 0.00118289)
(-3.28554e-06 -0.000501867 0.00140086)
(-9.83229e-05 -0.000394868 0.00156653)
(-0.000220727 -0.000349974 0.00161316)
(-0.00034227 -0.000390772 0.00149616)
(-0.000424703 -0.000515576 0.00124466)
(-0.000467475 -0.000678976 0.000910424)
(-0.000458303 -0.000821089 0.000539184)
(-0.000381638 -0.000870599 0.000165095)
(-0.00023614 -0.000757958 -0.000187735)
(-5.15694e-05 -0.000438874 -0.000497221)
(0.000120773 9.4089e-05 -0.00071915)
(0.000493202 0.000503703 -0.000634211)
(0.000518195 0.000931856 -0.000403502)
(0.000479301 0.00117779 -5.55765e-05)
(0.00040744 0.00125071 0.000341094)
(0.000329334 0.00118174 0.000739552)
(0.000267447 0.00101846 0.00109684)
(0.000237807 0.000818517 0.00136797)
(0.000249834 0.000638216 0.00151523)
(0.000304615 0.000522092 0.00153872)
(0.000399168 0.000499018 0.00151733)
(0.000473948 0.00057015 0.00147204)
(0.000496195 0.000720436 0.0013537)
(0.000454143 0.000912019 0.00114543)
(0.000346624 0.00109225 0.000873019)
(0.000182066 0.0011984 0.00057743)
(-1.75746e-05 0.00116966 0.000301168)
(-0.000215401 0.000966392 8.99378e-05)
(-0.000364865 0.000589455 1.98116e-07)
(-0.000424962 0.000135839 7.82228e-05)
(-0.000390183 -0.000246843 0.000286095)
(-0.000293107 -0.000478366 0.00054027)
(-0.000173634 -0.000557585 0.000788394)
(-6.72101e-05 -0.000510222 0.00100726)
(-1.38441e-06 -0.000377334 0.00118211)
(7.88851e-06 -0.000206824 0.00129588)
(-4.31527e-05 -4.49819e-05 0.00133192)
(-0.000144023 6.79056e-05 0.00129749)
(-0.000288585 9.58209e-05 0.00126221)
(-0.000414308 2.56842e-05 0.00122793)
(-0.000493382 -0.000138108 0.00112754)
(-0.000507266 -0.00036188 0.000924373)
(-0.000439595 -0.000585742 0.000626463)
(-0.000287085 -0.00072768 0.000263471)
(-6.98772e-05 -0.000704729 -0.000119553)
(0.000168554 -0.000466789 -0.00045743)
(0.000373136 -2.30056e-05 -0.000658885)
(2.09787e-05 0.00094643 -0.000616921)
(3.11293e-05 0.00153662 -0.000657888)
(5.16175e-06 0.00193417 -0.00053812)
(-1.70366e-05 0.00212933 -0.000245358)
(-9.98108e-06 0.00215577 0.000211423)
(3.27995e-05 0.0020628 0.000801683)
(0.000104494 0.00190411 0.00147284)
(0.000189626 0.00173313 0.00214266)
(0.000276588 0.00160261 0.00268434)
(0.000372513 0.00155715 0.00289597)
(0.000445391 0.00159088 0.00263816)
(0.000402591 0.00166556 0.00207583)
(0.000333942 0.00174565 0.0014437)
(0.000253677 0.00176748 0.000871095)
(0.000161916 0.00168013 0.000423048)
(5.56876e-05 0.00144651 0.000119069)
(-5.52478e-05 0.00104766 -4.97446e-05)
(-0.000143637 0.000500708 -0.000100215)
(-0.000175931 -9.82956e-05 -5.10618e-05)
(-0.000138979 -0.000617197 7.38613e-05)
(-5.56894e-05 -0.00096657 0.000248718)
(3.23836e-05 -0.00113758 0.000459479)
(9.3029e-05 -0.00116416 0.00070781)
(0.000112489 -0.0010945 0.00100285)
(8.97623e-05 -0.000977587 0.00134969)
(2.99876e-05 -0.00085789 0.00173247)
(-6.28718e-05 -0.000775851 0.0020915)
(-0.000195989 -0.000763196 0.00228698)
(-0.000349828 -0.000815566 0.00218347)
(-0.000420381 -0.000906481 0.00181025)
(-0.000454449 -0.00101348 0.00132941)
(-0.000454469 -0.00106816 0.000846884)
(-0.000410835 -0.00100441 0.000419221)
(-0.000313917 -0.000771286 6.57969e-05)
(-0.000178924 -0.000341187 -0.000221454)
(-5.19768e-05 0.00026826 -0.000454113)
(0.000113529 0.000782475 -0.000573911)
(0.000156588 0.00129493 -0.000468066)
(0.000157251 0.00161446 -0.000214596)
(0.000147288 0.00175251 0.000152929)
(0.000149479 0.00174375 0.000608038)
(0.000173195 0.00163515 0.00111482)
(0.000217716 0.00147875 0.00162322)
(0.00027679 0.00132387 0.00206872)
(0.000346738 0.001212 0.00237509)
(0.00042078 0.00116892 0.00246122)
(0.000475696 0.00120876 0.00230116)
(0.000473652 0.00131429 0.00195747)
(0.000429309 0.00143319 0.00152419)
(0.000351954 0.0015154 0.00108285)
(0.000244657 0.00150969 0.000689656)
(0.00011403 0.00137043 0.000378227)
(-2.0995e-05 0.00106866 0.000169199)
(-0.000132256 0.000602097 8.9584e-05)
(-0.00018684 6.86446e-05 0.000157788)
(-0.000171647 -0.000386933 0.000334508)
(-0.000107811 -0.000678683 0.000556534)
(-3.25093e-05 -0.000811493 0.000789902)
(2.2461e-05 -0.000815893 0.00102655)
(3.90799e-05 -0.000735063 0.00126596)
(1.20838e-05 -0.000615622 0.0015045)
(-5.50816e-05 -0.000499047 0.0017272)
(-0.000156889 -0.000417392 0.00190107)
(-0.000284788 -0.00038711 0.00196982)
(-0.000412465 -0.000427588 0.00188609)
(-0.000497266 -0.000541459 0.00165142)
(-0.000536301 -0.000685436 0.00130883)
(-0.000523811 -0.000802044 0.000908364)
(-0.00045102 -0.000824609 0.000491897)
(-0.000318933 -0.000689565 9.33214e-05)
(-0.000152178 -0.000356365 -0.000253252)
(6.37446e-06 0.000173373 -0.000496959)
(0.000285249 0.000604065 -0.000520102)
(0.000342672 0.00103483 -0.000283079)
(0.000349456 0.00128649 9.30938e-05)
(0.000332563 0.00136992 0.000534825)
(0.000311415 0.00132125 0.000990816)
(0.000299929 0.00118769 0.00141473)
(0.000306673 0.00102194 0.00175732)
(0.000336451 0.000872809 0.00197241)
(0.000388485 0.00077664 0.00204175)
(0.00047732 0.000757925 0.00201929)
(0.000546797 0.000820771 0.00195896)
(0.000571267 0.000952227 0.00182575)
(0.000539501 0.00111714 0.0015919)
(0.000449592 0.00126893 0.00128393)
(0.000307943 0.00135008 0.00094777)
(0.000132339 0.00130216 0.000634251)
(-4.62947e-05 0.00108526 0.000399379)
(-0.000188171 0.000703024 0.000304139)
(-0.000257101 0.000249016 0.000385546)
(-0.000246255 -0.000136506 0.000599275)
(-0.000183737 -0.000376815 0.000860967)
(-0.00010626 -0.000470737 0.0011175)
(-4.50236e-05 -0.000445765 0.0013451)
(-2.21471e-05 -0.000342763 0.00153024)
(-4.73689e-05 -0.000207422 0.00165888)
(-0.000119091 -8.03894e-05 0.0017152)
(-0.000223711 8.06124e-06 0.00169457)
(-0.000368808 3.14929e-05 0.00164172)
(-0.000495071 -2.79893e-05 0.00159976)
(-0.000581231 -0.00016854 0.00150489)
(-0.000611038 -0.000359875 0.00129555)
(-0.000568236 -0.000550116 0.000971668)
(-0.000446629 -0.000664557 0.000561165)
(-0.000260459 -0.000623075 0.000115902)
(-4.51789e-05 -0.000373033 -0.000282829)
(0.000151743 7.63536e-05 -0.000526269)
(2.97127e-05 0.000917673 -0.000109099)
(2.24171e-05 0.0014495 -0.000213491)
(-2.72943e-06 0.00182864 -0.000165279)
(-1.36148e-05 0.00203767 7.02675e-05)
(6.03792e-06 0.00210083 0.000489664)
(5.98987e-05 0.0020592 0.00105894)
(0.000142712 0.00195852 0.0017214)
(0.000241178 0.00184426 0.00239555)
(0.000340919 0.00176249 0.00296403)
(0.000443922 0.00175042 0.00326051)
(0.000516154 0.00179722 0.00313178)
(0.000463429 0.00185981 0.00263089)
(0.000364992 0.00191803 0.00201094)
(0.000245903 0.00190945 0.00143195)
(0.000121971 0.00178651 0.000978992)
(2.93475e-06 0.00152514 0.000683316)
(-9.84997e-05 0.00112678 0.000535604)
(-0.000161639 0.000626534 0.000500612)
(-0.000166854 0.000106466 0.000532635)
(-0.000115346 -0.00034094 0.000604436)
(-3.45265e-05 -0.000653215 0.000712552)
(3.91421e-05 -0.000820736 0.000859764)
(8.02309e-05 -0.00086851 0.00105219)
(7.94014e-05 -0.000835966 0.00129641)
(3.92306e-05 -0.00076513 0.0015933)
(-3.17948e-05 -0.000694751 0.00192782)
(-0.000125862 -0.000659575 0.00225431)
(-0.000245356 -0.000684021 0.00248088)
(-0.000375691 -0.000756125 0.00248247)
(-0.000445444 -0.000841056 0.0021952)
(-0.000450435 -0.000923277 0.00176556)
(-0.000410889 -0.000950487 0.00131352)
(-0.000335398 -0.000864877 0.000906616)
(-0.00022944 -0.000626916 0.000572783)
(-0.000110103 -0.000222969 0.000305546)
(-1.32194e-05 0.000320901 8.05688e-05)
(-2.52423e-05 0.000802825 -0.000135805)
(2.47745e-05 0.00127064 -8.22057e-05)
(5.06173e-05 0.00157658 0.000120564)
(7.66939e-05 0.0017244 0.000451801)
(0.000117792 0.00174694 0.000887814)
(0.000177813 0.00168622 0.0013923)
(0.000252948 0.00158601 0.00191329)
(0.000335016 0.00148594 0.00238395)
(0.00041766 0.00141797 0.00272741)
(0.000496274 0.00140103 0.00286731)
(0.000546963 0.00144407 0.00276434)
(0.00054138 0.00153238 0.00245356)
(0.000489508 0.00162077 0.00203072)
(0.000406568 0.0016655 0.00158971)
(0.000301942 0.00162406 0.00119757)
(0.000185092 0.00146176 0.000894925)
(7.07391e-05 0.00115939 0.000703894)
(-2.0887e-05 0.000727688 0.000639452)
(-6.67291e-05 0.000251233 0.000693249)
(-5.93953e-05 -0.000156172 0.00082476)
(-1.85408e-05 -0.000426309 0.000992264)
(2.34653e-05 -0.000560307 0.00117399)
(4.0663e-05 -0.000586534 0.00136546)
(2.04818e-05 -0.000543914 0.00156656)
(-3.71498e-05 -0.000473015 0.00177324)
(-0.000124175 -0.000407902 0.00197184)
(-0.000231586 -0.000371509 0.00213586)
(-0.000353067 -0.000373468 0.00222521)
(-0.000471011 -0.000421244 0.00219171)
(-0.000552751 -0.000514392 0.00200968)
(-0.00058461 -0.000623826 0.00170969)
(-0.000567027 -0.000701522 0.00133959)
(-0.000499572 -0.000692209 0.000942772)
(-0.000387545 -0.000544305 0.000556157)
(-0.00025015 -0.000225018 0.000216483)
(-0.000119084 0.000256838 -2.97014e-05)
(9.93019e-06 0.000672709 -0.000160157)
(9.77613e-05 0.00107093 4.32228e-05)
(0.000152281 0.00130848 0.000393133)
(0.000194968 0.00139581 0.000820399)
(0.000238478 0.00137187 0.00127688)
(0.000287835 0.00128153 0.00171839)
(0.000343211 0.00116887 0.00209519)
(0.000403685 0.00107078 0.0023555)
(0.000467283 0.00101198 0.00246628)
(0.00054909 0.00100846 0.00245515)
(0.000614628 0.00106975 0.00239717)
(0.000643844 0.00118191 0.00227239)
(0.000626005 0.0013119 0.00204638)
(0.000560494 0.00142306 0.00174433)
(0.000452141 0.00147027 0.00141383)
(0.000312812 0.00140467 0.00110864)
(0.000164328 0.00118998 0.000885467)
(3.75534e-05 0.000830986 0.00079789)
(-3.75499e-05 0.000410175 0.00086897)
(-5.28e-05 5.03794e-05 0.0010532)
(-3.07063e-05 -0.000178451 0.00127582)
(-4.35783e-06 -0.000276427 0.0014932)
(4.85851e-07 -0.000273714 0.00168724)
(-3.06418e-05 -0.00020996 0.00184803)
(-9.99736e-05 -0.000125038 0.00196482)
(-0.000200254 -4.99847e-05 0.00202333)
(-0.000317878 -2.32096e-06 0.00201245)
(-0.00045139 5.77825e-06 0.00195502)
(-0.000573814 -4.91033e-05 0.00191683)
(-0.000666424 -0.000164365 0.00184653)
(-0.000711754 -0.000313447 0.00166947)
(-0.000697134 -0.000455483 0.00137362)
(-0.000615716 -0.000530563 0.000979513)
(-0.000475529 -0.000470928 0.000536693)
(-0.000300913 -0.000228128 0.0001282)
(-0.000127453 0.00018888 -0.000135144)
(5.02427e-05 0.000857251 0.000573485)
(2.04537e-05 0.00130266 0.000409807)
(-8.07229e-06 0.00163992 0.00037101)
(-8.14264e-06 0.00185015 0.00051377)
(2.74259e-05 0.00194951 0.00084741)
(9.68235e-05 0.00196951 0.00134273)
(0.000193125 0.00194548 0.00194623)
(0.000303108 0.00191132 0.00258481)
(0.000409922 0.00190012 0.00315949)
(0.000505714 0.00193533 0.00353667)
(0.000560281 0.00199848 0.00354354)
(0.000512923 0.00204558 0.00314143)
(0.000391727 0.00207127 0.00258439)
(0.000239429 0.00202751 0.00204982)
(8.85012e-05 0.00187421 0.00163317)
(-3.76991e-05 0.00160074 0.00137144)
(-0.000122123 0.00122594 0.00125178)
(-0.00015209 0.000795922 0.00122518)
(-0.000126394 0.000375426 0.00123126)
(-6.33872e-05 2.0789e-05 0.00124148)
(5.45684e-06 -0.000233168 0.00126598)
(5.13263e-05 -0.000382053 0.0013233)
(5.91423e-05 -0.000445367 0.00142819)
(2.7507e-05 -0.000454041 0.00158906)
(-3.50066e-05 -0.000441058 0.00180633)
(-0.00011466 -0.000435682 0.00206947)
(-0.000198875 -0.000461386 0.00235027)
(-0.000283798 -0.000531473 0.0025916)
(-0.000370675 -0.00062878 0.00267675)
(-0.000437231 -0.00071388 0.00251003)
(-0.000415456 -0.000764121 0.0021828)
(-0.000342542 -0.00075983 0.00181366)
(-0.000239901 -0.000658634 0.00147662)
(-0.000126476 -0.000433692 0.00120224)
(-2.33213e-05 -8.2e-05 0.000981211)
(4.14826e-05 0.000369071 0.000778713)
(-0.000155705 0.000793137 0.000491925)
(-0.000107519 0.00119248 0.000482455)
(-6.35895e-05 0.00146586 0.000606211)
(-5.24457e-06 0.00161372 0.000860423)
(7.4639e-05 0.00166618 0.0012302)
(0.000173511 0.00165973 0.00168407)
(0.000282762 0.00162853 0.00217353)
(0.000390494 0.0016001 0.00263565)
(0.0004863 0.00159342 0.00299882)
(0.00056503 0.00161798 0.0031916)
(0.000609404 0.00167259 0.00315799)
(0.000603641 0.00174345 0.00290762)
(0.000546314 0.00179925 0.00253438)
(0.000458938 0.00180571 0.00213648)
(0.000358041 0.00173202 0.00178477)
(0.000256602 0.00155615 0.00152176)
(0.000166001 0.00126981 0.00136568)
(9.82334e-05 0.000892373 0.00131607)
(6.47963e-05 0.00049182 0.00134617)
(6.5095e-05 0.000151659 0.00141783)
(8.01167e-05 -7.85159e-05 0.0015074)
(8.32112e-05 -0.000200982 0.00160845)
(5.59813e-05 -0.000243281 0.00172406)
(-6.78801e-06 -0.000240396 0.00185713)
(-9.85084e-05 -0.000225596 0.0020054)
(-0.000205288 -0.000223262 0.00215905)
(-0.000313675 -0.000245081 0.00230023)
(-0.000418405 -0.00029191 0.00240168)
(-0.00051662 -0.000355981 0.00241868)
(-0.000589587 -0.000432323 0.00231235)
(-0.000611057 -0.000508386 0.00209362)
(-0.000586912 -0.000548766 0.0018011)
(-0.000524231 -0.000512931 0.00147439)
(-0.000432362 -0.000363257 0.0011477)
(-0.000326479 -7.64299e-05 0.000852413)
(-0.000228172 0.000334654 0.000623152)
(-0.000273938 0.000713452 0.000409583)
(-0.000165832 0.001059 0.000551197)
(-7.08001e-05 0.00126829 0.000833349)
(2.6549e-05 0.00135245 0.00119967)
(0.00013283 0.00135184 0.00160952)
(0.000245122 0.00130844 0.00202412)
(0.000355241 0.00125721 0.00239688)
(0.000455251 0.001222 0.00267504)
(0.000540648 0.00121409 0.00281676)
(0.000619956 0.00123905 0.00282831)
(0.0006856 0.00130823 0.00278246)
(0.000719376 0.00140637 0.00267924)
(0.000714148 0.00150503 0.00248827)
(0.000671687 0.00157723 0.0022278)
(0.000596075 0.00159222 0.00194169)
(0.000493492 0.00151406 0.00168123)
(0.000376318 0.00131284 0.00149607)
(0.00026608 0.000992725 0.00142484)
(0.0001866 0.000622432 0.00147609)
(0.000146998 0.000304974 0.00160752)
(0.000129831 0.000102475 0.00176025)
(0.000105255 1.12254e-05 0.00190618)
(5.27324e-05 -2.70377e-06 0.00203613)
(-3.45845e-05 2.1981e-05 0.00214508)
(-0.000151161 5.18144e-05 0.00222624)
(-0.000283205 6.6408e-05 0.00226861)
(-0.000415615 6.17246e-05 0.0022607)
(-0.000538319 4.00022e-05 0.00221183)
(-0.000658359 -2.01263e-05 0.00218173)
(-0.000750931 -0.00011621 0.00214466)
(-0.000803722 -0.000228826 0.00202875)
(-0.000810468 -0.000326808 0.00180436)
(-0.000765712 -0.000365781 0.00148028)
(-0.000672313 -0.000293315 0.00109715)
(-0.000544078 -6.94155e-05 0.000727506)
(-0.00040377 0.00029613 0.000469508)
(8.79865e-05 0.000789461 0.00135962)
(4.37705e-05 0.00113704 0.00115103)
(1.59424e-05 0.00141839 0.00102724)
(2.6958e-05 0.00161974 0.00106211)
(7.72666e-05 0.00175102 0.00128179)
(0.000159963 0.00183342 0.00166874)
(0.000264807 0.00189026 0.00217909)