/*--------------------------------*- C++ -*----------------------------------*\
| =========                 |                                                 |
| \\      /  F ield         | OpenFOAM: The Open Source CFD Toolbox           |
|  \\    /   O peration     | Version:  2312                                  |
|   \\  /    A nd           | Website:  www.openfoam.com                      |
|    \\/     M anipulation  |                                                 |
\*---------------------------------------------------------------------------*/
FoamFile
{
    version     2.0;
    format      ascii;
    arch        "LSB;label=32;scalar=64";
    class       volVectorField;
    location    "0.5";
    object      U;
}
// * * * * * * * * * * * * * * * * * * * * * * * * * * * * * * * * * * * * * //

dimensions      [0 1 -1 0 0 0 0];

internalField   nonuniform List<vector> 
1620
(
(-0.000131389 -0.000107177 -0.00013828)
(-0.000110782 -0.000128364 -0.00013828)
(-8.68093e-05 -0.000145651 -0.00013828)
(-6.01986e-05 -0.000158512 -0.000138279)
(-3.17584e-05 -0.000166556 -0.00013828)
(-2.35378e-06 -0.000169541 -0.00013828)
(2.7122e-05 -0.000167374 -0.000138279)
(5.57741e-05 -0.000160121 -0.000138279)
(8.27324e-05 -0.000148004 -0.00013828)
(0.000107177 -0.000131389 -0.00013828)
(0.000128364 -0.000110782 -0.000138281)
(0.000145651 -8.68095e-05 -0.00013828)
(0.000158512 -6.01987e-05 -0.00013828)
(0.000166556 -3.17586e-05 -0.00013828)
(0.000169541 -2.35392e-06 -0.00013828)
(0.000167374 2.71219e-05 -0.000138279)
(0.000160121 5.5774e-05 -0.000138279)
(0.000148004 8.27323e-05 -0.00013828)
(0.000131389 0.000107177 -0.00013828)
(0.000110782 0.000128364 -0.000138281)
(8.68096e-05 0.000145651 -0.00013828)
(6.01988e-05 0.000158512 -0.000138279)
(3.17586e-05 0.000166556 -0.00013828)
(2.35397e-06 0.000169541 -0.00013828)
(-2.71218e-05 0.000167374 -0.000138279)
(-5.57739e-05 0.000160121 -0.000138279)
(-8.27322e-05 0.000148004 -0.00013828)
(-0.000107176 0.000131389 -0.00013828)
(-0.000128364 0.000110782 -0.00013828)
(-0.000145651 8.68094e-05 -0.00013828)
(-0.000158512 6.01986e-05 -0.000138279)
(-0.000166556 3.17585e-05 -0.00013828)
(-0.000169541 2.35383e-06 -0.00013828)
(-0.000167374 -2.71219e-05 -0.000138279)
(-0.000160121 -5.5774e-05 -0.000138279)
(-0.000148004 -8.27323e-05 -0.00013828)
(-4.43101e-05 1.84486e-05 -8.92912e-05)
(-4.68404e-05 1.04737e-05 -8.92914e-05)
(-4.79475e-05 2.18089e-06 -8.92912e-05)
(-4.7598e-05 -6.17807e-06 -8.92909e-05)
(-4.58024e-05 -1.43493e-05 -8.92911e-05)
(-4.26149e-05 -2.20847e-05 -8.9291e-05)
(-3.81326e-05 -2.91492e-05 -8.9291e-05)
(-3.24917e-05 -3.53279e-05 -8.9291e-05)
(-2.58629e-05 -4.04335e-05 -8.92912e-05)
(-1.84485e-05 -4.43102e-05 -8.92913e-05)
(-1.04737e-05 -4.68405e-05 -8.92914e-05)
(-2.1808e-06 -4.79476e-05 -8.92913e-05)
(6.17816e-06 -4.75981e-05 -8.9291e-05)
(1.43494e-05 -4.58025e-05 -8.92911e-05)
(2.20847e-05 -4.2615e-05 -8.92911e-05)
(2.91493e-05 -3.81327e-05 -8.9291e-05)
(3.5328e-05 -3.24918e-05 -8.9291e-05)
(4.04335e-05 -2.5863e-05 -8.92913e-05)
(4.43103e-05 -1.84486e-05 -8.92913e-05)
(4.68405e-05 -1.04737e-05 -8.92914e-05)
(4.79477e-05 -2.18089e-06 -8.92913e-05)
(4.75982e-05 6.17806e-06 -8.9291e-05)
(4.58026e-05 1.43493e-05 -8.92911e-05)
(4.26151e-05 2.20846e-05 -8.9291e-05)
(3.81328e-05 2.91492e-05 -8.92909e-05)
(3.24918e-05 3.53279e-05 -8.92909e-05)
(2.58631e-05 4.04334e-05 -8.92912e-05)
(1.84487e-05 4.43102e-05 -8.92912e-05)
(1.04738e-05 4.68404e-05 -8.92913e-05)
(2.18098e-06 4.79476e-05 -8.92912e-05)
(-6.17797e-06 4.75981e-05 -8.92909e-05)
(-1.43492e-05 4.58025e-05 -8.9291e-05)
(-2.20846e-05 4.2615e-05 -8.9291e-05)
(-2.91491e-05 3.81327e-05 -8.92909e-05)
(-3.53278e-05 3.24917e-05 -8.92909e-05)
(-4.04333e-05 2.5863e-05 -8.92911e-05)
(8.22617e-06 0.000146342 -3.96833e-05)
(-1.73106e-05 0.000145547 -3.96833e-05)
(-4.23218e-05 0.00014033 -3.96836e-05)
(-6.60468e-05 0.000130849 -3.96834e-05)
(-8.77655e-05 0.000117393 -3.96835e-05)
(-0.000106817 0.000100369 -3.96833e-05)
(-0.000122623 8.02952e-05 -3.96836e-05)
(-0.000134704 5.7782e-05 -3.96837e-05)
(-0.00014269 3.35131e-05 -3.96835e-05)
(-0.000146342 8.22614e-06 -3.96834e-05)
(-0.000145547 -1.73107e-05 -3.96834e-05)
(-0.00014033 -4.23218e-05 -3.96837e-05)
(-0.000130849 -6.60469e-05 -3.96834e-05)
(-0.000117393 -8.77656e-05 -3.96836e-05)
(-0.000100369 -0.000106817 -3.96834e-05)
(-8.02951e-05 -0.000122623 -3.96836e-05)
(-5.77819e-05 -0.000134704 -3.96837e-05)
(-3.3513e-05 -0.000142691 -3.96835e-05)
(-8.22607e-06 -0.000146342 -3.96834e-05)
(1.73108e-05 -0.000145547 -3.96834e-05)
(4.23219e-05 -0.00014033 -3.96836e-05)
(6.6047e-05 -0.000130849 -3.96834e-05)
(8.77657e-05 -0.000117393 -3.96835e-05)
(0.000106817 -0.000100369 -3.96833e-05)
(0.000122623 -8.02951e-05 -3.96835e-05)
(0.000134704 -5.77819e-05 -3.96837e-05)
(0.000142691 -3.35131e-05 -3.96834e-05)
(0.000146342 -8.2261e-06 -3.96833e-05)
(0.000145547 1.73107e-05 -3.96833e-05)
(0.00014033 4.23219e-05 -3.96836e-05)
(0.000130849 6.60469e-05 -3.96833e-05)
(0.000117393 8.77656e-05 -3.96835e-05)
(0.000100369 0.000106817 -3.96833e-05)
(8.02952e-05 0.000122623 -3.96835e-05)
(5.7782e-05 0.000134704 -3.96836e-05)
(3.35131e-05 0.000142691 -3.96834e-05)
(-0.0002 -0.000275885 -0.000450627)
(-0.000149054 -0.000306425 -0.000450628)
(-9.35806e-05 -0.000327652 -0.000450627)
(-3.52636e-05 -0.000338923 -0.000450625)
(2.41253e-05 -0.000339896 -0.000450624)
(8.27815e-05 -0.000330543 -0.000450625)
(0.000138922 -0.000311146 -0.000450625)
(0.000190842 -0.000282296 -0.000450626)
(0.000236964 -0.000244868 -0.000450627)
(0.000275886 -0.0002 -0.000450627)
(0.000306425 -0.000149055 -0.000450628)
(0.000327653 -9.3581e-05 -0.000450628)
(0.000338923 -3.5264e-05 -0.000450625)
(0.000339896 2.41249e-05 -0.000450624)
(0.000330543 8.27812e-05 -0.000450625)
(0.000311147 0.000138922 -0.000450626)
(0.000282296 0.000190842 -0.000450626)
(0.000244869 0.000236964 -0.000450627)
(0.0002 0.000275885 -0.000450627)
(0.000149055 0.000306424 -0.000450628)
(9.35812e-05 0.000327652 -0.000450628)
(3.52642e-05 0.000338923 -0.000450625)
(-2.41247e-05 0.000339896 -0.000450624)
(-8.2781e-05 0.000330543 -0.000450625)
(-0.000138922 0.000311146 -0.000450625)
(-0.000190841 0.000282296 -0.000450626)
(-0.000236964 0.000244868 -0.000450626)
(-0.000275885 0.0002 -0.000450627)
(-0.000306424 0.000149054 -0.000450628)
(-0.000327652 9.35809e-05 -0.000450627)
(-0.000338923 3.52638e-05 -0.000450625)
(-0.000339895 -2.4125e-05 -0.000450624)
(-0.000330542 -8.27813e-05 -0.000450625)
(-0.000311146 -0.000138922 -0.000450625)
(-0.000282295 -0.000190842 -0.000450626)
(-0.000244868 -0.000236964 -0.000450626)
(-0.000140695 5.97429e-05 -0.000307385)
(-0.000148932 3.44029e-05 -0.000307385)
(-0.000152643 8.01862e-06 -0.000307385)
(-0.000151717 -1.86086e-05 -0.000307385)
(-0.000146181 -4.46705e-05 -0.000307384)
(-0.000136204 -6.93764e-05 -0.000307384)
(-0.000122087 -9.19742e-05 -0.000307384)
(-0.000104261 -0.000111777 -0.000307385)
(-8.3267e-05 -0.000128184 -0.000307385)
(-5.97426e-05 -0.000140696 -0.000307385)
(-3.44026e-05 -0.000148932 -0.000307386)
(-8.01836e-06 -0.000152644 -0.000307386)
(1.86089e-05 -0.000151717 -0.000307385)
(4.46707e-05 -0.000146182 -0.000307384)
(6.93766e-05 -0.000136204 -0.000307384)
(9.19745e-05 -0.000122088 -0.000307385)
(0.000111777 -0.000104262 -0.000307385)
(0.000128184 -8.32673e-05 -0.000307385)
(0.000140696 -5.97429e-05 -0.000307385)
(0.000148932 -3.44029e-05 -0.000307385)
(0.000152644 -8.01864e-06 -0.000307385)
(0.000151718 1.86086e-05 -0.000307385)
(0.000146182 4.46704e-05 -0.000307384)
(0.000136204 6.93763e-05 -0.000307384)
(0.000122088 9.19742e-05 -0.000307384)
(0.000104262 0.000111777 -0.000307384)
(8.32675e-05 0.000128184 -0.000307385)
(5.97432e-05 0.000140696 -0.000307385)
(3.44032e-05 0.000148932 -0.000307385)
(8.0189e-06 0.000152644 -0.000307385)
(-1.86083e-05 0.000151717 -0.000307384)
(-4.46702e-05 0.000146182 -0.000307384)
(-6.93761e-05 0.000136204 -0.000307384)
(-9.19739e-05 0.000122087 -0.000307384)
(-0.000111777 0.000104262 -0.000307384)
(-0.000128184 8.32673e-05 -0.000307385)
(-0.000129074 0.000394128 -0.0001667)
(-0.000195552 0.000365727 -0.0001667)
(-0.000256088 0.000326213 -0.0001667)
(-0.000308844 0.000276788 -0.0001667)
(-0.000352216 0.000218953 -0.0001667)
(-0.000384886 0.000154465 -0.0001667)
(-0.000405862 8.52828e-05 -0.000166701)
(-0.000414505 1.35101e-05 -0.000166701)
(-0.000410554 -5.86735e-05 -0.000166701)
(-0.000394128 -0.000129074 -0.000166701)
(-0.000365726 -0.000195552 -0.0001667)
(-0.000326213 -0.000256088 -0.0001667)
(-0.000276788 -0.000308844 -0.0001667)
(-0.000218953 -0.000352216 -0.000166701)
(-0.000154465 -0.000384886 -0.0001667)
(-8.52825e-05 -0.000405862 -0.000166701)
(-1.35099e-05 -0.000414506 -0.000166701)
(5.86737e-05 -0.000410554 -0.000166701)
(0.000129074 -0.000394128 -0.000166701)
(0.000195552 -0.000365727 -0.0001667)
(0.000256088 -0.000326213 -0.0001667)
(0.000308844 -0.000276788 -0.0001667)
(0.000352216 -0.000218953 -0.0001667)
(0.000384887 -0.000154465 -0.0001667)
(0.000405862 -8.52828e-05 -0.000166701)
(0.000414506 -1.35101e-05 -0.0001667)
(0.000410554 5.86735e-05 -0.0001667)
(0.000394128 0.000129074 -0.0001667)
(0.000365727 0.000195552 -0.0001667)
(0.000326213 0.000256088 -0.0001667)
(0.000276789 0.000308844 -0.0001667)
(0.000218953 0.000352216 -0.0001667)
(0.000154465 0.000384886 -0.0001667)
(8.5283e-05 0.000405862 -0.0001667)
(1.35103e-05 0.000414506 -0.0001667)
(-5.86733e-05 0.000410554 -0.0001667)
(-0.000238637 -0.000350815 -0.00079929)
(-0.000174093 -0.000386925 -0.00079929)
(-0.00010426 -0.000411278 -0.00079929)
(-3.12596e-05 -0.000423132 -0.000799288)
(4.26906e-05 -0.000422131 -0.000799287)
(0.000115345 -0.000408304 -0.000799286)
(0.000184494 -0.000382072 -0.000799287)
(0.000248039 -0.00034423 -0.000799288)
(0.000304047 -0.00029593 -0.00079929)
(0.000350816 -0.000238638 -0.000799291)
(0.000386926 -0.000174094 -0.000799291)
(0.000411278 -0.000104261 -0.00079929)
(0.000423133 -3.12602e-05 -0.000799288)
(0.000422131 4.269e-05 -0.000799287)
(0.000408305 0.000115344 -0.000799287)
(0.000382072 0.000184494 -0.000799287)
(0.000344231 0.000248038 -0.000799288)
(0.00029593 0.000304046 -0.00079929)
(0.000238638 0.000350815 -0.000799291)
(0.000174094 0.000386925 -0.00079929)
(0.000104261 0.000411278 -0.00079929)
(3.12606e-05 0.000423132 -0.000799288)
(-4.26897e-05 0.000422131 -0.000799287)
(-0.000115344 0.000408304 -0.000799286)
(-0.000184493 0.000382072 -0.000799287)
(-0.000248038 0.00034423 -0.000799287)
(-0.000304046 0.00029593 -0.000799289)
(-0.000350815 0.000238637 -0.00079929)
(-0.000386925 0.000174094 -0.00079929)
(-0.000411277 0.000104261 -0.00079929)
(-0.000423132 3.126e-05 -0.000799288)
(-0.00042213 -4.26902e-05 -0.000799286)
(-0.000408304 -0.000115344 -0.000799286)
(-0.000382071 -0.000184494 -0.000799286)
(-0.00034423 -0.000248038 -0.000799287)
(-0.000295929 -0.000304046 -0.000799289)
(-0.000233803 0.000127894 -0.000587247)
(-0.000252459 8.53513e-05 -0.000587248)
(-0.000263445 4.02158e-05 -0.000587248)
(-0.000266426 -6.141e-06 -0.000587247)
(-0.000261313 -5.2311e-05 -0.000587246)
(-0.000248259 -9.68935e-05 -0.000587246)
(-0.000227662 -0.000138532 -0.000587247)
(-0.000200147 -0.000175961 -0.000587247)
(-0.000166551 -0.000208043 -0.000587248)
(-0.000127894 -0.000233804 -0.000587248)
(-8.53509e-05 -0.00025246 -0.000587248)
(-4.02153e-05 -0.000263445 -0.000587248)
(6.14143e-06 -0.000266427 -0.000587247)
(5.23114e-05 -0.000261313 -0.000587246)
(9.68939e-05 -0.000248259 -0.000587247)
(0.000138532 -0.000227662 -0.000587247)
(0.000175961 -0.000200148 -0.000587247)
(0.000208043 -0.000166551 -0.000587248)
(0.000233804 -0.000127894 -0.000587248)
(0.00025246 -8.53514e-05 -0.000587248)
(0.000263446 -4.02158e-05 -0.000587248)
(0.000266427 6.14094e-06 -0.000587247)
(0.000261314 5.23109e-05 -0.000587246)
(0.000248259 9.68934e-05 -0.000587246)
(0.000227662 0.000138531 -0.000587246)
(0.000200148 0.00017596 -0.000587247)
(0.000166551 0.000208043 -0.000587247)
(0.000127895 0.000233803 -0.000587247)
(8.53518e-05 0.00025246 -0.000587248)
(4.02162e-05 0.000263445 -0.000587248)
(-6.14052e-06 0.000266426 -0.000587247)
(-5.23105e-05 0.000261313 -0.000587246)
(-9.6893e-05 0.000248259 -0.000587246)
(-0.000138531 0.000227662 -0.000587246)
(-0.00017596 0.000200148 -0.000587247)
(-0.000208042 0.000166551 -0.000587247)
(-0.000289565 0.000588486 -0.000382714)
(-0.000387354 0.000529263 -0.000382714)
(-0.000473375 0.00045396 -0.000382714)
(-0.000545012 0.000364863 -0.000382714)
(-0.00060009 0.00026468 -0.000382714)
(-0.000636935 0.000156453 -0.000382714)
(-0.000654426 4.3473e-05 -0.000382714)
(-0.000652033 -7.08277e-05 -0.000382714)
(-0.000629828 -0.000182977 -0.000382714)
(-0.000588486 -0.000289565 -0.000382714)
(-0.000529263 -0.000387355 -0.000382714)
(-0.000453959 -0.000473375 -0.000382714)
(-0.000364863 -0.000545013 -0.000382715)
(-0.000264679 -0.000600091 -0.000382715)
(-0.000156453 -0.000636936 -0.000382715)
(-4.34727e-05 -0.000654427 -0.000382715)
(7.08281e-05 -0.000652034 -0.000382714)
(0.000182977 -0.000629829 -0.000382714)
(0.000289566 -0.000588486 -0.000382714)
(0.000387355 -0.000529263 -0.000382714)
(0.000473375 -0.00045396 -0.000382714)
(0.000545013 -0.000364863 -0.000382714)
(0.000600091 -0.00026468 -0.000382714)
(0.000636936 -0.000156453 -0.000382714)
(0.000654427 -4.34731e-05 -0.000382714)
(0.000652034 7.08276e-05 -0.000382714)
(0.000629829 0.000182976 -0.000382714)
(0.000588487 0.000289565 -0.000382714)
(0.000529264 0.000387355 -0.000382714)
(0.00045396 0.000473375 -0.000382714)
(0.000364864 0.000545013 -0.000382714)
(0.00026468 0.000600091 -0.000382714)
(0.000156454 0.000636936 -0.000382714)
(4.34735e-05 0.000654427 -0.000382714)
(-7.08273e-05 0.000652034 -0.000382714)
(-0.000182976 0.000629829 -0.000382714)
(-0.000258327 -0.000295194 -0.00114026)
(-0.000203143 -0.000335568 -0.00114026)
(-0.000141787 -0.000365744 -0.00114026)
(-7.61222e-05 -0.000384807 -0.00114026)
(-8.14474e-06 -0.000392179 -0.00114026)
(6.00801e-05 -0.000387636 -0.00114026)
(0.00012648 -0.000371314 -0.00114026)
(0.000189038 -0.00034371 -0.00114026)
(0.000245852 -0.000305662 -0.00114026)
(0.000295195 -0.000258328 -0.00114026)
(0.000335569 -0.000203144 -0.00114026)
(0.000365745 -0.000141787 -0.00114026)
(0.000384808 -7.6123e-05 -0.00114026)
(0.00039218 -8.14551e-06 -0.00114026)
(0.000387636 6.00794e-05 -0.00114026)
(0.000371315 0.000126479 -0.00114026)
(0.000343711 0.000189037 -0.00114026)
(0.000305663 0.000245851 -0.00114026)
(0.000258328 0.000295194 -0.00114026)
(0.000203144 0.000335568 -0.00114026)
(0.000141788 0.000365744 -0.00114026)
(7.61235e-05 0.000384807 -0.00114026)
(8.146e-06 0.000392179 -0.00114026)
(-6.00789e-05 0.000387636 -0.00114026)
(-0.000126479 0.000371314 -0.00114026)
(-0.000189037 0.00034371 -0.00114026)
(-0.00024585 0.000305662 -0.00114026)
(-0.000295193 0.000258327 -0.00114026)
(-0.000335567 0.000203144 -0.00114026)
(-0.000365743 0.000141787 -0.00114026)
(-0.000384807 7.61228e-05 -0.00114026)
(-0.000392179 8.14526e-06 -0.00114026)
(-0.000387635 -6.00796e-05 -0.00114026)
(-0.000371314 -0.00012648 -0.00114026)
(-0.000343709 -0.000189037 -0.00114026)
(-0.000305662 -0.000245851 -0.00114026)
(-0.000317849 0.000232914 -0.000890692)
(-0.000353465 0.000174182 -0.000890693)
(-0.000378342 0.000110158 -0.000890692)
(-0.000391722 4.27861e-05 -0.000890692)
(-0.0003932 -2.58857e-05 -0.000890692)
(-0.000382732 -9.3771e-05 -0.000890692)
(-0.000360634 -0.000158808 -0.000890692)
(-0.000327578 -0.000219019 -0.000890692)
(-0.000284569 -0.000272575 -0.000890693)
(-0.000232913 -0.00031785 -0.000890693)
(-0.000174181 -0.000353466 -0.000890693)
(-0.000110157 -0.000378342 -0.000890693)
(-4.27855e-05 -0.000391723 -0.000890693)
(2.58862e-05 -0.000393201 -0.000890693)
(9.37716e-05 -0.000382733 -0.000890692)
(0.000158808 -0.000360635 -0.000890692)
(0.00021902 -0.000327579 -0.000890692)
(0.000272576 -0.00028457 -0.000890693)
(0.00031785 -0.000232914 -0.000890693)
(0.000353466 -0.000174182 -0.000890693)
(0.000378343 -0.000110158 -0.000890693)
(0.000391723 -4.27862e-05 -0.000890692)
(0.000393202 2.58855e-05 -0.000890692)
(0.000382733 9.37709e-05 -0.000890692)
(0.000360636 0.000158807 -0.000890691)
(0.00032758 0.000219019 -0.000890691)
(0.00028457 0.000272575 -0.000890692)
(0.000232915 0.000317849 -0.000890692)
(0.000174182 0.000353466 -0.000890692)
(0.000110158 0.000378342 -0.000890692)
(4.27868e-05 0.000391723 -0.000890692)
(-2.58849e-05 0.000393201 -0.000890692)
(-9.37703e-05 0.000382733 -0.000890691)
(-0.000158807 0.000360635 -0.000890691)
(-0.000219018 0.000327579 -0.000890691)
(-0.000272575 0.00028457 -0.000890692)
(-0.000445401 0.000721203 -0.000655915)
(-0.00056387 0.000632903 -0.000655916)
(-0.000665206 0.000525373 -0.000655916)
(-0.00074633 0.00040188 -0.000655916)
(-0.000804776 0.000266176 -0.000655916)
(-0.000838772 0.000122384 -0.000655916)
(-0.00084728 -2.51273e-05 -0.000655916)
(-0.000830045 -0.000171875 -0.000655917)
(-0.000787589 -0.0003134 -0.000655916)
(-0.000721202 -0.000445402 -0.000655916)
(-0.000632902 -0.000563871 -0.000655917)
(-0.000525373 -0.000665206 -0.000655916)
(-0.00040188 -0.00074633 -0.000655916)
(-0.000266175 -0.000804777 -0.000655916)
(-0.000122384 -0.000838772 -0.000655916)
(2.51278e-05 -0.000847281 -0.000655917)
(0.000171875 -0.000830045 -0.000655917)
(0.000313401 -0.00078759 -0.000655916)
(0.000445403 -0.000721203 -0.000655916)
(0.000563871 -0.000632903 -0.000655916)
(0.000665207 -0.000525373 -0.000655916)
(0.000746331 -0.00040188 -0.000655916)
(0.000804777 -0.000266176 -0.000655916)
(0.000838773 -0.000122384 -0.000655916)
(0.000847282 2.51271e-05 -0.000655916)
(0.000830046 0.000171875 -0.000655916)
(0.00078759 0.0003134 -0.000655916)
(0.000721203 0.000445402 -0.000655915)
(0.000632903 0.000563871 -0.000655916)
(0.000525374 0.000665206 -0.000655915)
(0.000401881 0.00074633 -0.000655915)
(0.000266177 0.000804777 -0.000655915)
(0.000122385 0.000838772 -0.000655915)
(-2.51266e-05 0.000847281 -0.000655916)
(-0.000171874 0.000830045 -0.000655916)
(-0.000313399 0.00078759 -0.000655916)
(-0.000284671 -0.000117044 -0.00145341)
(-0.000260022 -0.000164699 -0.00145342)
(-0.000227473 -0.000207348 -0.00145342)
(-0.000188011 -0.000243698 -0.00145341)
(-0.000142837 -0.000272643 -0.00145341)
(-9.33223e-05 -0.000293305 -0.00145341)
(-4.09726e-05 -0.000305055 -0.00145341)
(1.26228e-05 -0.000307535 -0.00145341)
(6.58338e-05 -0.000300672 -0.00145341)
(0.000117045 -0.000284672 -0.00145342)
(0.0001647 -0.000260023 -0.00145342)
(0.000207349 -0.000227474 -0.00145342)
(0.000243699 -0.000188012 -0.00145342)
(0.000272644 -0.000142838 -0.00145342)
(0.000293305 -9.33232e-05 -0.00145342)
(0.000305055 -4.09735e-05 -0.00145341)
(0.000307536 1.26219e-05 -0.00145341)
(0.000300672 6.58329e-05 -0.00145341)
(0.000284673 0.000117044 -0.00145342)
(0.000260024 0.000164699 -0.00145342)
(0.000227475 0.000207348 -0.00145342)
(0.000188013 0.000243698 -0.00145342)
(0.000142838 0.000272643 -0.00145341)
(9.33238e-05 0.000293304 -0.00145341)
(4.09741e-05 0.000305054 -0.00145341)
(-1.26212e-05 0.000307535 -0.00145341)
(-6.58322e-05 0.000300671 -0.00145341)
(-0.000117043 0.000284672 -0.00145341)
(-0.000164698 0.000260023 -0.00145342)
(-0.000207347 0.000227474 -0.00145341)
(-0.000243697 0.000188012 -0.00145341)
(-0.000272642 0.000142837 -0.00145341)
(-0.000293304 9.33229e-05 -0.00145341)
(-0.000305054 4.09733e-05 -0.00145341)
(-0.000307534 -1.2622e-05 -0.00145341)
(-0.000300671 -6.58331e-05 -0.00145341)
(-0.000397747 0.000384613 -0.00119036)
(-0.000458492 0.000309701 -0.00119036)
(-0.000505306 0.000225381 -0.00119036)
(-0.000536766 0.000134212 -0.00119036)
(-0.000551917 3.89649e-05 -0.00119036)
(-0.000550298 -5.74669e-05 -0.00119036)
(-0.000531958 -0.000152153 -0.00119036)
(-0.000497454 -0.000242215 -0.00119036)
(-0.000447838 -0.000324918 -0.00119036)
(-0.000384612 -0.000397748 -0.00119036)
(-0.0003097 -0.000458493 -0.00119037)
(-0.00022538 -0.000505307 -0.00119036)
(-0.000134212 -0.000536767 -0.00119036)
(-3.89642e-05 -0.000551918 -0.00119036)
(5.74676e-05 -0.000550299 -0.00119036)
(0.000152153 -0.000531959 -0.00119036)
(0.000242216 -0.000497455 -0.00119036)
(0.000324919 -0.000447838 -0.00119036)
(0.000397749 -0.000384613 -0.00119036)
(0.000458494 -0.000309701 -0.00119036)
(0.000505308 -0.000225381 -0.00119036)
(0.000536768 -0.000134212 -0.00119036)
(0.000551919 -3.89651e-05 -0.00119036)
(0.0005503 5.74666e-05 -0.00119036)
(0.00053196 0.000152152 -0.00119036)
(0.000497456 0.000242215 -0.00119036)
(0.000447839 0.000324918 -0.00119036)
(0.000384614 0.000397748 -0.00119036)
(0.000309702 0.000458493 -0.00119036)
(0.000225382 0.000505307 -0.00119036)
(0.000134213 0.000536767 -0.00119036)
(3.89658e-05 0.000551918 -0.00119036)
(-5.74659e-05 0.000550299 -0.00119036)
(-0.000152152 0.000531959 -0.00119036)
(-0.000242214 0.000497455 -0.00119036)
(-0.000324917 0.000447838 -0.00119036)
(-0.000579019 0.00082647 -0.000949663)
(-0.000713738 0.000713368 -0.000949663)
(-0.00082677 0.000578592 -0.000949663)
(-0.00091468 0.000426235 -0.000949663)
(-0.000974799 0.000260927 -0.000949664)
(-0.0010053 8.76907e-05 -0.000949664)
(-0.00100525 -8.82104e-05 -0.000949664)
(-0.000974663 -0.000261431 -0.000949664)
(-0.000914459 -0.000426708 -0.000949664)
(-0.000826469 -0.00057902 -0.000949664)
(-0.000713368 -0.000713739 -0.000949664)
(-0.000578591 -0.000826771 -0.000949664)
(-0.000426234 -0.000914681 -0.000949664)
(-0.000260926 -0.0009748 -0.000949664)
(-8.76901e-05 -0.0010053 -0.000949664)
(8.82111e-05 -0.00100525 -0.000949664)
(0.000261432 -0.000974664 -0.000949664)
(0.000426709 -0.00091446 -0.000949664)
(0.000579021 -0.00082647 -0.000949664)
(0.000713739 -0.000713369 -0.000949664)
(0.000826771 -0.000578592 -0.000949664)
(0.000914682 -0.000426235 -0.000949663)
(0.000974801 -0.000260927 -0.000949664)
(0.0010053 -8.7691e-05 -0.000949663)
(0.00100525 8.82102e-05 -0.000949664)
(0.000974664 0.000261431 -0.000949664)
(0.000914461 0.000426708 -0.000949663)
(0.000826471 0.00057902 -0.000949663)
(0.000713369 0.000713738 -0.000949663)
(0.000578593 0.00082677 -0.000949663)
(0.000426236 0.000914681 -0.000949663)
(0.000260928 0.0009748 -0.000949663)
(8.76917e-05 0.0010053 -0.000949663)
(-8.82095e-05 0.00100525 -0.000949663)
(-0.00026143 0.000974664 -0.000949663)
(-0.000426707 0.00091446 -0.000949663)
(-0.000341377 0.000148453 -0.00174611)
(-0.000361969 8.69175e-05 -0.00174611)
(-0.000371563 2.27423e-05 -0.00174611)
(-0.000369868 -4.21243e-05 -0.00174611)
(-0.000356933 -0.000105711 -0.00174611)
(-0.000333153 -0.000166086 -0.00174611)
(-0.000299251 -0.000221414 -0.00174611)
(-0.000256257 -0.000270015 -0.00174611)
(-0.000205476 -0.000310412 -0.00174611)
(-0.000148452 -0.000341378 -0.00174611)
(-8.69166e-05 -0.00036197 -0.00174611)
(-2.27413e-05 -0.000371564 -0.00174611)
(4.21253e-05 -0.000369869 -0.00174611)
(0.000105712 -0.000356934 -0.00174611)
(0.000166087 -0.000333154 -0.00174611)
(0.000221415 -0.000299252 -0.00174611)
(0.000270016 -0.000256258 -0.00174611)
(0.000310413 -0.000205477 -0.00174611)
(0.000341379 -0.000148453 -0.00174611)
(0.000361971 -8.69177e-05 -0.00174611)
(0.000371565 -2.27424e-05 -0.00174611)
(0.00036987 4.21241e-05 -0.00174611)
(0.000356935 0.000105711 -0.00174611)
(0.000333155 0.000166085 -0.00174611)
(0.000299253 0.000221414 -0.00174611)
(0.000256258 0.000270015 -0.00174611)
(0.000205478 0.000310412 -0.00174611)
(0.000148454 0.000341377 -0.00174611)
(8.69186e-05 0.00036197 -0.00174611)
(2.27434e-05 0.000371564 -0.00174611)
(-4.21232e-05 0.000369868 -0.00174611)
(-0.00010571 0.000356934 -0.00174611)
(-0.000166084 0.000333154 -0.00174611)
(-0.000221413 0.000299252 -0.00174611)
(-0.000270014 0.000256257 -0.00174611)
(-0.000310411 0.000205477 -0.00174611)
(-0.000485909 0.000583455 -0.00147727)
(-0.000579843 0.000490213 -0.00147727)
(-0.000656158 0.000382078 -0.00147727)
(-0.000712537 0.000262333 -0.00147727)
(-0.000747265 0.000134617 -0.00147727)
(-0.000759288 2.81055e-06 -0.00147727)
(-0.00074824 -0.000129081 -0.00147727)
(-0.000714457 -0.000257052 -0.00147727)
(-0.000658967 -0.000377212 -0.00147727)
(-0.000583454 -0.00048591 -0.00147727)
(-0.000490212 -0.000579844 -0.00147727)
(-0.000382077 -0.000656159 -0.00147727)
(-0.000262332 -0.000712538 -0.00147727)
(-0.000134616 -0.000747266 -0.00147727)
(-2.8097e-06 -0.000759289 -0.00147727)
(0.000129082 -0.000748241 -0.00147727)
(0.000257052 -0.000714458 -0.00147727)
(0.000377212 -0.000658968 -0.00147727)
(0.000485911 -0.000583455 -0.00147727)
(0.000579844 -0.000490214 -0.00147727)
(0.00065616 -0.000382078 -0.00147727)
(0.000712539 -0.000262333 -0.00147727)
(0.000747267 -0.000134617 -0.00147727)
(0.00075929 -2.81086e-06 -0.00147727)
(0.000748242 0.000129081 -0.00147727)
(0.000714459 0.000257051 -0.00147727)
(0.000658969 0.000377211 -0.00147727)
(0.000583456 0.000485909 -0.00147727)
(0.000490214 0.000579843 -0.00147727)
(0.000382079 0.000656159 -0.00147727)
(0.000262334 0.000712538 -0.00147727)
(0.000134618 0.000747266 -0.00147727)
(2.81176e-06 0.000759289 -0.00147727)
(-0.00012908 0.000748241 -0.00147727)
(-0.00025705 0.000714458 -0.00147727)
(-0.00037721 0.000658968 -0.00147727)
(-0.000693937 0.000942947 -0.00123759)
(-0.000847136 0.00080812 -0.00123759)
(-0.000974595 0.00064874 -0.00123759)
(-0.00107244 0.000469649 -0.00123759)
(-0.0011377 0.000276286 -0.00123759)
(-0.00116839 7.45282e-05 -0.00123759)
(-0.00116358 -0.000129493 -0.00123759)
(-0.00112342 -0.000329581 -0.00123759)
(-0.00104912 -0.000519655 -0.00123759)
(-0.000942946 -0.000693938 -0.00123759)
(-0.00080812 -0.000847137 -0.00123759)
(-0.000648739 -0.000974596 -0.00123759)
(-0.000469648 -0.00107244 -0.00123759)
(-0.000276285 -0.0011377 -0.00123759)
(-7.45274e-05 -0.0011684 -0.00123759)
(0.000129494 -0.00116359 -0.00123759)
(0.000329582 -0.00112342 -0.00123759)
(0.000519655 -0.00104912 -0.00123759)
(0.000693939 -0.000942947 -0.00123759)
(0.000847138 -0.000808121 -0.00123759)
(0.000974597 -0.00064874 -0.00123759)
(0.00107244 -0.000469649 -0.00123759)
(0.0011377 -0.000276286 -0.00123759)
(0.0011684 -7.45285e-05 -0.00123759)
(0.00116359 0.000129493 -0.00123759)
(0.00112342 0.000329581 -0.00123759)
(0.00104912 0.000519654 -0.00123759)
(0.000942948 0.000693938 -0.00123759)
(0.000808121 0.000847137 -0.00123759)
(0.000648741 0.000974596 -0.00123759)
(0.00046965 0.00107244 -0.00123759)
(0.000276287 0.0011377 -0.00123759)
(7.45293e-05 0.00116839 -0.00123759)
(-0.000129492 0.00116359 -0.00123759)
(-0.00032958 0.00112342 -0.00123759)
(-0.000519653 0.00104912 -0.00123759)
(-0.000447701 0.000455556 -0.00203876)
(-0.000520006 0.000370892 -0.00203876)
(-0.000576511 0.00027496 -0.00203876)
(-0.0006155 0.000170673 -0.00203876)
(-0.000635785 6.11991e-05 -0.00203876)
(-0.000636754 -5.01329e-05 -0.00203876)
(-0.000618373 -0.000159942 -0.00203876)
(-0.000581205 -0.000264893 -0.00203876)
(-0.000526377 -0.000361794 -0.00203876)
(-0.000455555 -0.000447702 -0.00203876)
(-0.000370891 -0.000520007 -0.00203876)
(-0.000274959 -0.000576513 -0.00203876)
(-0.000170672 -0.000615501 -0.00203876)
(-6.11981e-05 -0.000635786 -0.00203876)
(5.01339e-05 -0.000636755 -0.00203876)
(0.000159943 -0.000618375 -0.00203876)
(0.000264893 -0.000581206 -0.00203876)
(0.000361795 -0.000526378 -0.00203876)
(0.000447703 -0.000455556 -0.00203876)
(0.000520008 -0.000370892 -0.00203876)
(0.000576513 -0.00027496 -0.00203876)
(0.000615502 -0.000170673 -0.00203876)
(0.000635787 -6.11995e-05 -0.00203876)
(0.000636756 5.01325e-05 -0.00203876)
(0.000618376 0.000159942 -0.00203876)
(0.000581207 0.000264892 -0.00203876)
(0.000526379 0.000361793 -0.00203876)
(0.000455557 0.000447702 -0.00203876)
(0.000370893 0.000520007 -0.00203876)
(0.000274961 0.000576512 -0.00203876)
(0.000170674 0.000615501 -0.00203876)
(6.12006e-05 0.000635786 -0.00203876)
(-5.01314e-05 0.000636755 -0.00203876)
(-0.000159941 0.000618374 -0.00203876)
(-0.000264891 0.000581205 -0.00203876)
(-0.000361792 0.000526378 -0.00203876)
(-0.000599053 0.000813807 -0.00175891)
(-0.000731268 0.000697418 -0.00175892)
(-0.000841265 0.00055984 -0.00175892)
(-0.000925699 0.00040525 -0.00175892)
(-0.000982006 0.000238348 -0.00175892)
(-0.00100848 6.42035e-05 -0.00175892)
(-0.0010043 -0.000111892 -0.00175892)
(-0.000969615 -0.000284588 -0.00175892)
(-0.000905467 -0.000448638 -0.00175892)
(-0.000813806 -0.000599055 -0.00175892)
(-0.000697417 -0.00073127 -0.00175892)
(-0.000559839 -0.000841266 -0.00175892)
(-0.000405249 -0.000925701 -0.00175892)
(-0.000238347 -0.000982007 -0.00175892)
(-6.42026e-05 -0.00100848 -0.00175892)
(0.000111893 -0.0010043 -0.00175892)
(0.000284589 -0.000969616 -0.00175892)
(0.000448639 -0.000905468 -0.00175892)
(0.000599056 -0.000813807 -0.00175892)
(0.000731271 -0.000697418 -0.00175892)
(0.000841267 -0.00055984 -0.00175892)
(0.000925701 -0.00040525 -0.00175892)
(0.000982008 -0.000238348 -0.00175892)
(0.00100848 -6.4204e-05 -0.00175892)
(0.00100431 0.000111892 -0.00175892)
(0.000969617 0.000284588 -0.00175892)
(0.000905469 0.000448637 -0.00175891)
(0.000813808 0.000599054 -0.00175891)
(0.000697419 0.000731269 -0.00175892)
(0.000559841 0.000841265 -0.00175892)
(0.000405252 0.0009257 -0.00175892)
(0.000238349 0.000982006 -0.00175892)
(6.4205e-05 0.00100848 -0.00175891)
(-0.000111891 0.0010043 -0.00175891)
(-0.000284587 0.000969616 -0.00175891)
(-0.000448636 0.000905468 -0.00175891)
(-0.000806525 0.00108651 -0.00151331)
(-0.000982942 0.000929951 -0.00151331)
(-0.00112949 0.000745137 -0.00151331)
(-0.00124173 0.000537682 -0.00151331)
(-0.00131623 0.000313891 -0.00151331)
(-0.00135074 8.05616e-05 -0.00151331)
(-0.00134421 -0.000155216 -0.00151331)
(-0.00129683 -0.000386277 -0.00151331)
(-0.00121005 -0.000605602 -0.00151331)
(-0.00108651 -0.000806526 -0.00151331)
(-0.00092995 -0.000982943 -0.00151331)
(-0.000745136 -0.00112949 -0.00151331)
(-0.000537681 -0.00124173 -0.00151331)
(-0.00031389 -0.00131623 -0.00151331)
(-8.05606e-05 -0.00135074 -0.00151331)
(0.000155217 -0.00134421 -0.00151331)
(0.000386278 -0.00129683 -0.00151331)
(0.000605603 -0.00121005 -0.00151331)
(0.000806527 -0.00108651 -0.00151331)
(0.000982944 -0.000929951 -0.00151331)
(0.0011295 -0.000745138 -0.00151331)
(0.00124173 -0.000537683 -0.00151331)
(0.00131623 -0.000313891 -0.00151331)