/*--------------------------------*- C++ -*----------------------------------*\
| =========                 |                                                 |
| \\      /  F ield         | OpenFOAM: The Open Source CFD Toolbox           |
|  \\    /   O peration     | Version:  2312                                  |
|   \\  /    A nd           | Website:  www.openfoam.com                      |
|    \\/     M anipulation  |                                                 |
\*---------------------------------------------------------------------------*/
FoamFile
{
    version     2.0;
    format      ascii;
    arch        "LSB;label=32;scalar=64";
    class       volVectorField;
    location    "0.5";
    object      U;
}
// * * * * * * * * * * * * * * * * * * * * * * * * * * * * * * * * * * * * * //

dimensions      [0 1 -1 0 0 0 0];

internalField   nonuniform List<vector> 
1620
(
(0.000437354 1.36955e-05 0.000112097)
(0.000366879 -4.92524e-05 -8.61203e-05)
(0.000305422 -0.000130098 -0.00021459)
(0.000251674 -0.000163381 -0.000265751)
(0.00020515 -0.000147329 -0.000266384)
(0.000168492 -0.000107847 -0.000238265)
(0.000143108 -6.58583e-05 -0.000194929)
(0.000125474 -2.97539e-05 -0.000147181)
(0.000108196 -9.06128e-07 -0.0001035)
(8.3516e-05 2.15551e-05 -6.84184e-05)
(4.6121e-05 4.06423e-05 -4.16321e-05)
(-6.40686e-06 6.35617e-05 -1.75469e-05)
(-7.56902e-05 0.000100404 1.54149e-05)
(-0.000164856 0.00015398 7.39524e-05)
(-0.000274964 0.000203427 0.000170625)
(-0.000392228 0.000202802 0.000288631)
(-0.000479219 0.000123119 0.000356739)
(-0.000492273 1.76645e-05 0.000291652)
(-0.000437354 -1.36955e-05 0.000112097)
(-0.000366879 4.92524e-05 -8.61203e-05)
(-0.000305422 0.000130098 -0.00021459)
(-0.000251674 0.000163381 -0.000265751)
(-0.00020515 0.000147329 -0.000266384)
(-0.000168492 0.000107847 -0.000238265)
(-0.000143108 6.58583e-05 -0.000194929)
(-0.000125474 2.97539e-05 -0.000147181)
(-0.000108196 9.06124e-07 -0.0001035)
(-8.3516e-05 -2.15551e-05 -6.84184e-05)
(-4.6121e-05 -4.06423e-05 -4.16321e-05)
(6.40686e-06 -6.35617e-05 -1.75469e-05)
(7.56902e-05 -0.000100404 1.54149e-05)
(0.000164856 -0.00015398 7.39524e-05)
(0.000274964 -0.000203427 0.000170625)
(0.000392228 -0.000202802 0.000288631)
(0.000479219 -0.000123119 0.000356739)
(0.000492273 -1.76645e-05 0.000291652)
(0.000378002 -9.30843e-05 7.22556e-05)
(0.000399501 -0.000124141 -1.37557e-05)
(0.000408806 -0.000129079 -7.95231e-05)
(0.000397999 -9.25851e-05 -0.000122829)
(0.000365305 -3.21383e-05 -0.000151385)
(0.000318219 2.91739e-05 -0.000166354)
(0.000266943 7.89006e-05 -0.000166944)
(0.000217133 0.000115352 -0.000155118)
(0.000168294 0.000141334 -0.000134452)
(0.000116464 0.000159414 -0.000107616)
(5.79009e-05 0.000170685 -7.5457e-05)
(-8.15464e-06 0.000175851 -3.74439e-05)
(-7.88617e-05 0.000176323 7.58157e-06)
(-0.000149666 0.000172784 6.01701e-05)
(-0.000216637 0.000161689 0.000116747)
(-0.000276007 0.000136561 0.000163945)
(-0.000322294 0.000100851 0.000178929)
(-0.000353513 8.02938e-05 0.000146389)
(-0.000378002 9.30843e-05 7.22556e-05)
(-0.000399501 0.000124141 -1.37557e-05)
(-0.000408806 0.000129079 -7.95231e-05)
(-0.000397999 9.25851e-05 -0.000122829)
(-0.000365305 3.21383e-05 -0.000151385)
(-0.000318219 -2.91739e-05 -0.000166354)
(-0.000266943 -7.89006e-05 -0.000166944)
(-0.000217133 -0.000115352 -0.000155118)
(-0.000168294 -0.000141334 -0.000134452)
(-0.000116464 -0.000159414 -0.000107616)
(-5.79009e-05 -0.000170685 -7.5457e-05)
(8.15464e-06 -0.000175851 -3.74439e-05)
(7.88617e-05 -0.000176323 7.58157e-06)
(0.000149666 -0.000172784 6.01701e-05)
(0.000216637 -0.000161689 0.000116747)
(0.000276007 -0.000136561 0.000163945)
(0.000322294 -0.000100851 0.000178929)
(0.000353513 -8.02938e-05 0.000146389)
(0.000265699 -0.000146561 1.70397e-05)
(0.000347745 -0.000167159 2.30657e-06)
(0.000419428 -0.000126142 -1.68768e-05)
(0.000464128 -4.17441e-05 -5.12164e-05)
(0.000471357 5.49658e-05 -9.81333e-05)
(0.000443577 0.000141877 -0.000143616)
(0.000391585 0.000209734 -0.000174454)
(0.000326101 0.000257221 -0.000184325)
(0.000253871 0.000285405 -0.00017234)
(0.000178435 0.00029451 -0.000140205)
(0.000102737 0.000283209 -9.16055e-05)
(3.13414e-05 0.000250059 -3.33934e-05)
(-2.94166e-05 0.000196603 2.3788e-05)
(-7.41433e-05 0.000130812 6.74864e-05)
(-0.000102385 6.85627e-05 8.78038e-05)
(-0.000120908 3.135e-05 8.22519e-05)
(-0.000144072 3.82031e-05 5.98913e-05)
(-0.000191071 8.84759e-05 3.63301e-05)
(-0.000265699 0.000146561 1.70397e-05)
(-0.000347745 0.000167159 2.30657e-06)
(-0.000419428 0.000126142 -1.68768e-05)
(-0.000464128 4.17441e-05 -5.12164e-05)
(-0.000471357 -5.49658e-05 -9.81333e-05)
(-0.000443577 -0.000141877 -0.000143616)
(-0.000391585 -0.000209734 -0.000174454)
(-0.000326101 -0.000257221 -0.000184325)
(-0.000253871 -0.000285405 -0.00017234)
(-0.000178435 -0.00029451 -0.000140205)
(-0.000102737 -0.000283209 -9.16055e-05)
(-3.13414e-05 -0.000250059 -3.33934e-05)
(2.94166e-05 -0.000196603 2.3788e-05)
(7.41433e-05 -0.000130812 6.74864e-05)
(0.000102385 -6.85627e-05 8.78038e-05)
(0.000120908 -3.135e-05 8.22519e-05)
(0.000144072 -3.82031e-05 5.98913e-05)
(0.000191071 -8.84759e-05 3.63301e-05)
(0.0011528 -0.000222558 0.000377352)
(0.00109584 -0.00038083 -0.000157799)
(0.00101672 -0.00046328 -0.000550439)
(0.000910175 -0.000388886 -0.000764179)
(0.00077626 -0.000220099 -0.000835301)
(0.000632549 -4.50722e-05 -0.00080517)
(0.00050178 8.98583e-05 -0.000712859)
(0.000392011 0.000178497 -0.000595069)
(0.000293739 0.000230476 -0.000479739)
(0.000189071 0.000255973 -0.000380676)
(6.24332e-05 0.000264317 -0.000295507)
(-9.32087e-05 0.000270336 -0.000205555)
(-0.000277449 0.000297195 -7.77468e-05)
(-0.000488546 0.000361406 0.000126818)
(-0.00072228 0.000438357 0.000426656)
(-0.000953535 0.000448569 0.000767315)
(-0.00112439 0.000334375 0.000974512)
(-0.00118387 0.000194941 0.000834653)
(-0.0011528 0.000222558 0.000377352)
(-0.00109584 0.00038083 -0.000157799)
(-0.00101672 0.00046328 -0.000550439)
(-0.000910175 0.000388886 -0.000764179)
(-0.00077626 0.000220099 -0.000835301)
(-0.000632549 4.50722e-05 -0.00080517)
(-0.00050178 -8.98583e-05 -0.000712859)
(-0.000392011 -0.000178497 -0.000595069)
(-0.000293739 -0.000230476 -0.000479739)
(-0.000189071 -0.000255974 -0.000380676)
(-6.24332e-05 -0.000264317 -0.000295507)
(9.32087e-05 -0.000270336 -0.000205555)
(0.000277449 -0.000297195 -7.77467e-05)
(0.000488546 -0.000361406 0.000126818)
(0.00072228 -0.000438357 0.000426656)
(0.000953535 -0.000448569 0.000767315)
(0.00112439 -0.000334375 0.000974512)
(0.00118387 -0.000194941 0.000834653)
(0.00105483 -0.000384564 0.000358906)
(0.00111561 -0.000469251 5.69676e-05)
(0.00114085 -0.000446168 -0.000192882)
(0.00111145 -0.000309218 -0.000378356)
(0.0010235 -0.000119119 -0.000499702)
(0.000898323 6.3466e-05 -0.000555735)
(0.000761128 0.000210773 -0.000554459)
(0.000623968 0.000320249 -0.000511871)
(0.00048443 0.000397519 -0.00044286)
(0.000332861 0.000446391 -0.000354871)
(0.000161316 0.000467486 -0.000247035)
(-2.96338e-05 0.00046267 -0.000113092)
(-0.000229627 0.000440201 5.38895e-05)
(-0.000424291 0.00041273 0.000255281)
(-0.000602689 0.000385214 0.000476444)
(-0.000757632 0.000348946 0.000670133)
(-0.000882661 0.000306533 0.000748447)
(-0.000976771 0.000307696 0.000630032)
(-0.00105483 0.000384564 0.000358906)
(-0.00111561 0.000469251 5.69676e-05)
(-0.00114085 0.000446168 -0.000192882)
(-0.00111145 0.000309218 -0.000378356)
(-0.0010235 0.000119118 -0.000499702)
(-0.000898323 -6.3466e-05 -0.000555735)
(-0.000761128 -0.000210773 -0.000554459)
(-0.000623968 -0.000320249 -0.000511871)
(-0.00048443 -0.000397519 -0.00044286)
(-0.000332861 -0.000446391 -0.000354871)
(-0.000161316 -0.000467486 -0.000247035)
(2.96338e-05 -0.00046267 -0.000113092)
(0.000229627 -0.000440201 5.38895e-05)
(0.000424291 -0.00041273 0.000255281)
(0.000602689 -0.000385214 0.000476444)
(0.000757632 -0.000348946 0.000670133)
(0.000882661 -0.000306533 0.000748447)
(0.000976771 -0.000307696 0.000630032)
(0.000832179 -0.000492375 0.000294564)
(0.000992529 -0.000533868 0.000186557)
(0.00112792 -0.000442878 6.6932e-05)
(0.00119651 -0.000264236 -8.43048e-05)
(0.00118672 -5.77415e-05 -0.000241283)
(0.0011141 0.000137913 -0.000366773)
(0.000998985 0.000307499 -0.000439431)
(0.000854451 0.000446456 -0.000454706)
(0.000686028 0.000551481 -0.000414702)
(0.000495896 0.000617067 -0.000321429)
(0.000288087 0.00063557 -0.000177303)
(7.33245e-05 0.000600325 9.11355e-06)
(-0.000129334 0.000512579 0.000216759)
(-0.000298111 0.000390415 0.000411019)
(-0.000421147 0.000272548 0.000551463)
(-0.000506945 0.000208605 0.000604598)
(-0.000582996 0.000236211 0.000556704)
(-0.00068387 0.000358214 0.000432407)
(-0.000832179 0.000492375 0.000294564)
(-0.000992529 0.000533868 0.000186557)
(-0.00112792 0.000442878 6.69321e-05)
(-0.00119651 0.000264236 -8.43048e-05)
(-0.00118672 5.77415e-05 -0.000241283)
(-0.0011141 -0.000137913 -0.000366773)
(-0.000998985 -0.000307499 -0.000439431)
(-0.000854451 -0.000446456 -0.000454706)
(-0.000686028 -0.000551481 -0.000414702)
(-0.000495896 -0.000617067 -0.000321429)
(-0.000288087 -0.00063557 -0.000177303)
(-7.33245e-05 -0.000600325 9.11355e-06)
(0.000129334 -0.000512579 0.000216759)
(0.000298111 -0.000390415 0.000411019)
(0.000421147 -0.000272548 0.000551463)
(0.000506945 -0.000208605 0.000604598)
(0.000582996 -0.000236211 0.000556704)
(0.00068387 -0.000358214 0.000432407)
(0.00174541 -0.000744602 0.000838456)
(0.00170453 -0.000912358 -4.03114e-05)
(0.00160077 -0.000897411 -0.000746696)
(0.00144391 -0.000682707 -0.00117837)
(0.00124278 -0.000371581 -0.00136326)
(0.00102114 -7.62221e-05 -0.00137075)
(0.000807798 0.00014838 -0.00127149)
(0.000616773 0.000296587 -0.00112353)
(0.000440797 0.000383172 -0.000966636)
(0.000258979 0.000424791 -0.000818266)
(5.03774e-05 0.000436527 -0.000670564)
(-0.000194751 0.000438819 -0.000489781)
(-0.000472958 0.000462886 -0.000222458)
(-0.000775537 0.000535976 0.000184032)
(-0.00109237 0.000641249 0.000737558)
(-0.00139644 0.00069952 0.00133405)
(-0.00163105 0.00065436 0.00171013)
(-0.00173823 0.000622826 0.00155206)
(-0.00174541 0.000744602 0.000838456)
(-0.00170453 0.000912358 -4.03114e-05)
(-0.00160077 0.000897411 -0.000746696)
(-0.00144391 0.000682707 -0.00117837)
(-0.00124278 0.000371581 -0.00136326)
(-0.00102114 7.62221e-05 -0.00137075)
(-0.000807798 -0.00014838 -0.00127149)
(-0.000616773 -0.000296587 -0.00112353)
(-0.000440797 -0.000383172 -0.000966636)
(-0.000258979 -0.000424791 -0.000818266)
(-5.03774e-05 -0.000436527 -0.000670564)
(0.000194751 -0.000438819 -0.000489781)
(0.000472958 -0.000462886 -0.000222458)
(0.000775537 -0.000535976 0.000184032)
(0.00109237 -0.000641249 0.000737558)
(0.00139644 -0.00069952 0.00133405)
(0.00163105 -0.00065436 0.00171013)
(0.00173823 -0.000622826 0.00155206)
(0.00162655 -0.000797181 0.000857675)
(0.00170902 -0.000875136 0.000304778)
(0.00172455 -0.000792304 -0.000193937)
(0.00166099 -0.000566836 -0.000567139)
(0.00152568 -0.000277718 -0.000801603)
(0.00134659 9.54877e-07 -0.000908875)
(0.00114954 0.000234284 -0.000916997)
(0.000945689 0.000415265 -0.00085775)
(0.000732137 0.000547004 -0.000754268)
(0.000498668 0.000632706 -0.00061471)
(0.00023696 0.000673876 -0.000432159)
(-5.11786e-05 0.000675014 -0.000190267)
(-0.00035149 0.000649722 0.000125441)
(-0.000643631 0.000618755 0.000511766)
(-0.000910754 0.000596231 0.00092991)
(-0.00114261 0.00058268 0.00129025)
(-0.00133475 0.000589679 0.00145675)
(-0.00149302 0.000660928 0.00130436)
(-0.00162655 0.000797181 0.000857675)
(-0.00170902 0.000875136 0.000304778)
(-0.00172455 0.000792304 -0.000193937)
(-0.00166099 0.000566836 -0.000567139)
(-0.00152568 0.000277718 -0.000801603)
(-0.00134659 -9.54895e-07 -0.000908875)
(-0.00114954 -0.000234284 -0.000916997)
(-0.000945689 -0.000415266 -0.00085775)
(-0.000732137 -0.000547004 -0.000754268)
(-0.000498668 -0.000632706 -0.00061471)
(-0.00023696 -0.000673876 -0.000432159)
(5.11786e-05 -0.000675014 -0.000190267)
(0.00035149 -0.000649722 0.000125441)
(0.000643631 -0.000618755 0.000511766)
(0.000910754 -0.000596231 0.00092991)
(0.00114261 -0.00058268 0.00129025)
(0.00133475 -0.000589679 0.00145675)
(0.00149302 -0.000660928 0.00130436)
(0.00131825 -0.00081346 0.000786166)
(0.00152145 -0.000850091 0.000531219)
(0.001676 -0.000734571 0.0002473)
(0.00173688 -0.000509007 -4.97743e-05)
(0.00170407 -0.000239359 -0.000314444)
(0.00160047 2.94938e-05 -0.000504201)
(0.00144552 0.000277601 -0.000603605)
(0.0012482 0.000494114 -0.000616659)
(0.00101194 0.000668405 -0.000549739)
(0.000739907 0.000789044 -0.000402957)
(0.000438823 0.000845216 -0.000172578)
(0.000122571 0.000829505 0.000137802)
(-0.000185783 0.000744485 0.000502094)
(-0.000458337 0.000613898 0.000862907)
(-0.000676409 0.000489518 0.00114258)
(-0.000844751 0.000435798 0.00127454)
(-0.000988752 0.000489571 0.00123139)
(-0.00113545 0.000644727 0.00103548)
(-0.00131825 0.00081346 0.000786166)
(-0.00152145 0.000850091 0.000531219)
(-0.001676 0.000734571 0.0002473)
(-0.00173688 0.000509007 -4.97743e-05)
(-0.00170407 0.000239359 -0.000314443)
(-0.00160047 -2.94939e-05 -0.000504201)
(-0.00144552 -0.000277601 -0.000603605)
(-0.0012482 -0.000494114 -0.000616659)
(-0.00101194 -0.000668405 -0.000549739)
(-0.000739907 -0.000789044 -0.000402957)
(-0.000438823 -0.000845216 -0.000172578)
(-0.000122571 -0.000829505 0.000137802)
(0.000185783 -0.000744485 0.000502094)
(0.000458337 -0.000613898 0.000862907)
(0.000676409 -0.000489518 0.00114258)
(0.000844751 -0.000435798 0.00127454)
(0.000988752 -0.000489571 0.00123139)
(0.00113545 -0.000644727 0.00103548)
(0.00221481 -0.00143341 0.00139938)
(0.0021571 -0.00150034 0.000303631)
(0.00200367 -0.00136538 -0.000664158)
(0.00178939 -0.00105187 -0.00130385)
(0.0015447 -0.000657531 -0.00160964)
(0.00128711 -0.000284594 -0.00167951)
(0.00103131 1.231e-05 -0.00161426)
(0.000786988 0.00022309 -0.00148293)
(0.000550165 0.000359682 -0.0013254)
(0.000304128 0.000439318 -0.00115584)
(3.02857e-05 0.000479402 -0.000960711)
(-0.000279734 0.000502487 -0.000697305)
(-0.000620629 0.000541494 -0.000302442)
(-0.000980982 0.000627694 0.000276509)
(-0.00134861 0.000759441 0.00102353)
(-0.00170012 0.00089553 0.00179227)
(-0.00199011 0.00102473 0.00229401)
(-0.00216281 0.00122421 0.00219796)
(-0.00221481 0.00143341 0.00139938)
(-0.0021571 0.00150034 0.000303631)
(-0.00200367 0.00136538 -0.000664158)
(-0.00178939 0.00105187 -0.00130385)
(-0.0015447 0.000657531 -0.00160964)
(-0.00128711 0.000284594 -0.00167951)
(-0.00103131 -1.23101e-05 -0.00161426)
(-0.000786988 -0.00022309 -0.00148293)
(-0.000550165 -0.000359682 -0.0013254)
(-0.000304128 -0.000439318 -0.00115584)
(-3.02857e-05 -0.000479402 -0.000960711)
(0.000279734 -0.000502487 -0.000697305)
(0.000620629 -0.000541494 -0.000302442)
(0.000980982 -0.000627694 0.000276509)
(0.00134861 -0.000759441 0.00102353)
(0.00170012 -0.00089553 0.00179227)
(0.00199011 -0.00102473 0.00229401)
(0.00216281 -0.00122421 0.00219796)
(0.00207105 -0.00125946 0.00142496)
(0.00213203 -0.00129736 0.000693724)
(0.00210061 -0.00115384 -1.03193e-05)
(0.00198886 -0.000871459 -0.000552578)
(0.00181787 -0.000526456 -0.000895382)
(0.00161095 -0.000188162 -0.00106213)
(0.00138287 0.000106607 -0.00109897)
(0.00113884 0.000345311 -0.00104764)
(0.000876416 0.000526435 -0.000933819)
(0.000588741 0.000651829 -0.000763717)
(0.000270427 0.000724839 -0.00052514)
(-7.62608e-05 0.000753462 -0.000194795)
(-0.000439401 0.000754538 0.000245203)
(-0.000801195 0.000751337 0.000782604)
(-0.0011434 0.000763313 0.0013518)
(-0.00144978 0.000803985 0.00182961)
(-0.00170906 0.000898389 0.00206589)
(-0.0019207 0.00107485 0.00193989)
(-0.00207105 0.00125946 0.00142496)
(-0.00213203 0.00129736 0.000693724)
(-0.00210061 0.00115384 -1.03193e-05)
(-0.00198886 0.000871459 -0.000552578)
(-0.00181787 0.000526456 -0.000895382)
(-0.00161095 0.000188162 -0.00106213)
(-0.00138287 -0.000106607 -0.00109897)
(-0.00113884 -0.000345311 -0.00104764)
(-0.000876416 -0.000526435 -0.000933819)
(-0.000588741 -0.000651829 -0.000763717)
(-0.000270427 -0.000724839 -0.00052514)
(7.62608e-05 -0.000753462 -0.000194795)
(0.000439401 -0.000754538 0.000245203)
(0.000801195 -0.000751337 0.000782604)
(0.0011434 -0.000763313 0.0013518)
(0.00144978 -0.000803985 0.00182961)
(0.00170906 -0.000898389 0.00206589)
(0.0019207 -0.00107485 0.00193989)
(0.00177516 -0.00111784 0.00134922)
(0.00193292 -0.00114379 0.00096524)
(0.00203655 -0.00100876 0.000537795)
(0.00205504 -0.000757636 0.000114576)
(0.00199041 -0.000453362 -0.000244385)
(0.00186137 -0.000141053 -0.000491973)
(0.00168078 0.000156454 -0.000617358)
(0.00145206 0.000423959 -0.000632047)
(0.00117684 0.00064627 -0.000546869)
(0.000859969 0.000809516 -0.000361452)
(0.000510326 0.000904124 -6.74873e-05)
(0.000140242 0.000926407 0.000336469)
(-0.000233444 0.000881868 0.000821925)
(-0.00058863 0.000795087 0.00131316)
(-0.000904815 0.000717938 0.00170101)
(-0.00117492 0.000712338 0.00189325)
(-0.00140563 0.000806415 0.0018634)
(-0.00160498 0.000968158 0.00165727)
(-0.00177516 0.00111784 0.00134922)
(-0.00193292 0.00114379 0.00096524)
(-0.00203655 0.00100876 0.000537795)
(-0.00205504 0.000757636 0.000114576)
(-0.00199041 0.000453362 -0.000244385)
(-0.00186137 0.000141053 -0.000491973)
(-0.00168078 -0.000156454 -0.000617358)
(-0.00145206 -0.000423959 -0.000632047)
(-0.00117684 -0.00064627 -0.000546869)
(-0.000859969 -0.000809516 -0.000361452)
(-0.000510326 -0.000904124 -6.74873e-05)
(-0.000140242 -0.000926407 0.000336469)
(0.000233444 -0.000881868 0.000821925)
(0.00058863 -0.000795087 0.00131316)
(0.000904815 -0.000717938 0.00170101)
(0.00117492 -0.000712338 0.00189325)
(0.00140563 -0.000806415 0.0018634)
(0.00160498 -0.000968158 0.00165727)
(0.00253991 -0.00184437 0.00193073)
(0.00246165 -0.00189859 0.000828612)
(0.00224301 -0.00173514 -0.000277337)
(0.00196522 -0.00140915 -0.00106791)
(0.00168817 -0.00100616 -0.00148259)
(0.0014207 -0.000609599 -0.00162681)
(0.00115448 -0.000272282 -0.00161764)
(0.000886973 -1.20754e-05 -0.00152706)
(0.000614756 0.000175254 -0.00139046)
(0.000327949 0.000302662 -0.00121834)
(1.53062e-05 0.000386404 -0.000997314)
(-0.000327712 0.000449218 -0.000687247)
(-0.000697666 0.00052364 -0.00022716)
(-0.0010887 0.000641032 0.000431144)
(-0.00149232 0.000811058 0.00125512)
(-0.00188589 0.00102542 0.00207465)
(-0.00222262 0.00128913 0.00260916)
(-0.00245018 0.00159637 0.00259397)
(-0.00253991 0.00184437 0.00193073)
(-0.00246165 0.00189859 0.000828612)
(-0.00224301 0.00173514 -0.000277337)
(-0.00196522 0.00140915 -0.00106791)
(-0.00168817 0.00100616 -0.00148259)
(-0.0014207 0.000609599 -0.00162681)
(-0.00115448 0.000272282 -0.00161764)
(-0.000886973 1.20754e-05 -0.00152706)
(-0.000614756 -0.000175254 -0.00139046)
(-0.000327949 -0.000302663 -0.00121834)
(-1.53062e-05 -0.000386404 -0.000997314)
(0.000327712 -0.000449219 -0.000687247)
(0.000697666 -0.00052364 -0.00022716)
(0.0010887 -0.000641032 0.000431144)
(0.00149232 -0.000811058 0.00125512)
(0.00188589 -0.00102542 0.00207465)
(0.00222262 -0.00128913 0.00260916)
(0.00245018 -0.00159637 0.00259397)
(0.00235535 -0.00154721 0.00190053)
(0.00237353 -0.00157566 0.00116265)
(0.00228505 -0.00142918 0.000367504)
(0.00212341 -0.00114839 -0.000286632)
(0.00192521 -0.000799497 -0.000718354)
(0.00170643 -0.000443774 -0.000946473)
(0.00146765 -0.000119664 -0.00102388)
(0.00120621 0.000154504 -0.00099556)
(0.000919604 0.000372178 -0.000887008)
(0.000605284 0.000533265 -0.000703685)
(0.000262149 0.000642747 -0.000433418)
(-0.000107666 0.00071222 -5.3686e-05)
(-0.000498744 0.000760803 0.000451146)
(-0.00090211 0.000810789 0.00106183)
(-0.00130202 0.00088144 0.00169849)
(-0.00167432 0.000991925 0.00222309)
(-0.00199055 0.00116318 0.002483)
(-0.00222475 0.00137847 0.0023756)
(-0.00235535 0.00154721 0.00190053)
(-0.00237353 0.00157566 0.00116265)
(-0.00228505 0.00142918 0.000367504)
(-0.00212341 0.00114839 -0.000286632)
(-0.00192521 0.000799497 -0.000718354)
(-0.00170643 0.000443774 -0.000946473)
(-0.00146765 0.000119664 -0.00102388)
(-0.00120621 -0.000154504 -0.00099556)
(-0.000919604 -0.000372178 -0.000887008)
(-0.000605284 -0.000533265 -0.000703685)
(-0.000262149 -0.000642748 -0.000433418)
(0.000107666 -0.00071222 -5.3686e-05)
(0.000498744 -0.000760803 0.000451146)
(0.00090211 -0.000810789 0.00106183)
(0.00130202 -0.00088144 0.00169849)
(0.00167432 -0.000991925 0.00222309)
(0.00199055 -0.00116318 0.002483)
(0.00222475 -0.00137847 0.0023756)
(0.00211176 -0.0013364 0.00182679)
(0.00218678 -0.00133177 0.00140607)
(0.00221327 -0.00119792 0.000918106)
(0.00217771 -0.000953851 0.000419498)
(0.0020785 -0.000647808 -8.69636e-06)
(0.00192654 -0.000323467 -0.000306253)
(0.00172829 -7.08543e-06 -0.00045908)
(0.00148304 0.000283147 -0.000481495)
(0.0011912 0.000530231 -0.000387951)
(0.000858786 0.000720789 -0.000180066)
(0.00049526 0.000849112 0.000150694)
(0.000108641 0.000917391 0.00060703)
(-0.000294664 0.00093459 0.0011582)
(-0.000702939 0.000922147 0.00171782)
(-0.0010961 0.000920965 0.00216196)
(-0.00145258 0.000976063 0.0023901)
(-0.00175308 0.00109851 0.00237578)
(-0.00197626 0.00124249 0.00216344)
(-0.00211176 0.0013364 0.00182679)
(-0.00218678 0.00133177 0.00140607)
(-0.00221327 0.00119792 0.000918106)
(-0.00217771 0.000953851 0.000419498)
(-0.0020785 0.000647808 -8.69634e-06)
(-0.00192654 0.000323467 -0.000306253)
(-0.00172829 7.0854e-06 -0.00045908)
(-0.00148304 -0.000283147 -0.000481495)
(-0.0011912 -0.000530231 -0.000387951)
(-0.000858786 -0.000720789 -0.000180066)
(-0.00049526 -0.000849112 0.000150694)
(-0.000108641 -0.000917391 0.00060703)
(0.000294664 -0.00093459 0.0011582)
(0.000702939 -0.000922147 0.00171782)
(0.0010961 -0.000920965 0.00216196)
(0.00145258 -0.000976063 0.0023901)
(0.00175308 -0.00109851 0.00237578)
(0.00197626 -0.00124249 0.00216344)
(0.0026621 -0.00195918 0.0022867)
(0.00256907 -0.00204115 0.00133996)
(0.00231714 -0.0019247 0.000283372)
(0.0019989 -0.00165839 -0.000552766)
(0.00169841 -0.00130803 -0.00104318)
(0.00142958 -0.000937816 -0.00125817)
(0.00116916 -0.000597373 -0.00130744)
(0.000900822 -0.000312552 -0.00125982)
(0.000618392 -8.8894e-05 -0.00114723)
(0.000317786 7.93896e-05 -0.00098049)
(-4.23787e-06 0.000205054 -0.000753279)
(-0.000348836 0.000309997 -0.00043735)
(-0.00071801 0.000425806 1.7681e-05)
(-0.00111652 0.000581628 0.00065489)
(-0.0015406 0.000789733 0.00144143)
(-0.00196112 0.00105238 0.00221899)
(-0.00232336 0.00136829 0.00274491)
(-0.00257113 0.00170116 0.00279786)
(-0.0026621 0.00195918 0.0022867)
(-0.00256907 0.00204115 0.00133996)
(-0.00231714 0.0019247 0.000283372)
(-0.0019989 0.00165839 -0.000552766)
(-0.00169841 0.00130803 -0.00104318)
(-0.00142958 0.000937816 -0.00125817)
(-0.00116916 0.000597373 -0.00130744)
(-0.000900822 0.000312552 -0.00125982)
(-0.000618392 8.8894e-05 -0.00114723)
(-0.000317786 -7.93896e-05 -0.00098049)
(4.23787e-06 -0.000205054 -0.000753279)
(0.000348836 -0.000309997 -0.00043735)
(0.00071801 -0.000425806 1.7681e-05)
(0.00111652 -0.000581628 0.00065489)
(0.0015406 -0.000789733 0.00144143)
(0.00196112 -0.00105238 0.00221899)
(0.00232336 -0.00136829 0.00274491)
(0.00257113 -0.00170116 0.00279786)
(0.0024744 -0.00164299 0.00228076)
(0.0024493 -0.00167666 0.00161737)
(0.00231385 -0.00156473 0.000852651)
(0.0021137 -0.00133087 0.000173087)
(0.00189411 -0.00102256 -0.000309859)
(0.00166956 -0.000689087 -0.00058867)
(0.00143126 -0.000368147 -0.000706104)
(0.00116905 -8.29446e-05 -0.000703988)
(0.000878817 0.000154745 -0.000606984)
(0.000560929 0.000341854 -0.000422514)
(0.000217736 0.000483567 -0.000143861)
(-0.000149298 0.000593716 0.000243765)
(-0.000541767 0.00069242 0.000749023)
(-0.00095984 0.000798766 0.00134907)
(-0.00138974 0.000925969 0.00196589)
(-0.00179673 0.00108594 0.00247317)
(-0.00213533 0.00128412 0.00274037)
(-0.00236839 0.00149124 0.0026806)
(-0.0024744 0.00164299 0.00228076)
(-0.0024493 0.00167666 0.00161737)
(-0.00231385 0.00156473 0.000852651)
(-0.0021137 0.00133087 0.000173087)
(-0.00189411 0.00102256 -0.000309859)
(-0.00166956 0.000689087 -0.00058867)
(-0.00143126 0.000368147 -0.000706104)
(-0.00116905 8.29446e-05 -0.000703988)
(-0.000878817 -0.000154745 -0.000606984)
(-0.000560929 -0.000341854 -0.000422514)
(-0.000217736 -0.000483567 -0.000143861)
(0.000149298 -0.000593716 0.000243765)
(0.000541767 -0.00069242 0.000749023)
(0.00095984 -0.000798766 0.00134907)
(0.00138974 -0.000925969 0.00196589)
(0.00179673 -0.00108594 0.00247317)
(0.00213533 -0.00128412 0.00274037)
(0.00236839 -0.00149124 0.0026806)
(0.00228068 -0.00142948 0.00224902)
(0.00229516 -0.0014022 0.00183315)
(0.00225162 -0.00127983 0.00134383)
(0.00216097 -0.00106585 0.000829884)
(0.00202621 -0.000788417 0.000371825)
(0.00185332 -0.000482593 4.2066e-05)
(0.00164384 -0.000174796 -0.000134075)
(0.00139357 0.00011493 -0.000167658)
(0.00110125 0.000368703 -7.47448e-05)
(0.000772453 0.000574298 0.000139759)
(0.00041533 0.000729614 0.000480887)
(3.32716e-05 0.000841566 0.000948006)
(-0.000375303 0.000921081 0.00150647)
(-0.00080565 0.000983586 0.00206687)
(-0.00123712 0.0010531 0.00250898)
(-0.00163538 0.00115113 0.00274289)
(-0.00196008 0.00127215 0.00274908)
(-0.00217738 0.00137831 0.00256631)
(-0.00228068 0.00142948 0.00224902)
(-0.00229516 0.0014022 0.00183315)
(-0.00225162 0.00127983 0.00134383)
(-0.00216097 0.00106585 0.000829884)
(-0.00202621 0.000788417 0.000371825)
(-0.00185332 0.000482593 4.20661e-05)
(-0.00164384 0.000174796 -0.000134075)
(-0.00139357 -0.00011493 -0.000167658)
(-0.00110125 -0.000368703 -7.47448e-05)
(-0.000772453 -0.000574298 0.000139759)
(-0.00041533 -0.000729614 0.000480887)
(-3.32716e-05 -0.000841566 0.000948006)
(0.000375303 -0.000921081 0.00150647)
(0.00080565 -0.000983586 0.00206687)
(0.00123712 -0.0010531 0.00250898)
(0.00163538 -0.00115113 0.00274289)
(0.00196008 -0.00127215 0.00274908)
(0.00217738 -0.00137831 0.00256631)
(0.00259057 -0.00185449 0.00251022)
(0.00248461 -0.00197263 0.00176403)
(0.00222968 -0.00193311 0.000871051)
(0.00190597 -0.00175962 9.44749e-05)
(0.0015978 -0.00149464 -0.000417997)
(0.0013305 -0.00118525 -0.000682192)
(0.00108106 -0.00087491 -0.000778208)
(0.000825018 -0.00059392 -0.000765433)
(0.000552381 -0.000356559 -0.000674029)
(0.000262165 -0.000164688 -0.000518612)
(-4.37674e-05 -9.92662e-06 -0.00030271)
(-0.000366105 0.000127623 -1.16732e-05)
(-0.000713737 0.000276689 0.000392959)
(-0.00109974 0.00046155 0.000949199)
(-0.00152029 0.000691474 0.0016322)
(-0.00193738 0.00096751 0.00231233)
(-0.00228976 0.00128298 0.00278974)
(-0.00252043 0.00160191 0.00288103)
(-0.00259057 0.00185449 0.00251022)
(-0.00248461 0.00197263 0.00176403)
(-0.00222968 0.00193311 0.000871051)
(-0.00190597 0.00175962 9.44749e-05)
(-0.0015978 0.00149464 -0.000417997)
(-0.0013305 0.00118525 -0.000682192)
(-0.00108106 0.00087491 -0.000778208)
(-0.000825018 0.00059392 -0.000765433)
(-0.000552381 0.000356559 -0.000674029)
(-0.000262165 0.000164688 -0.000518612)
(4.37674e-05 9.92658e-06 -0.00030271)
(0.000366105 -0.000127623 -1.16732e-05)
(0.000713737 -0.000276689 0.000392959)
(0.00109974 -0.00046155 0.000949199)
(0.00152029 -0.000691474 0.0016322)
(0.00193738 -0.00096751 0.00231233)
(0.00228976 -0.00128298 0.00278974)
(0.00252043 -0.00160191 0.00288103)
(0.00243076 -0.00158165 0.00256729)
(0.00237638 -0.00162958 0.00202079)
(0.00221622 -0.00156567 0.00135799)
(0.00199679 -0.00139861 0.000727334)
(0.00176438 -0.00115608 0.000241579)
(0.00153691 -0.000872868 -6.41408e-05)
(0.00130447 -0.000581792 -0.000210839)
(0.00105235 -0.000308175 -0.000231164)
(0.000773923 -6.81138e-05 -0.000148087)
(0.000470204 0.000131986 2.75736e-05)
(0.000144702 0.000296067 0.000294746)
(-0.0002027 0.000437792 0.000658017)
(-0.000578462 0.000575357 0.00111783)
(-0.000986869 0.000722219 0.001651)
(-0.00141281 0.000883559 0.00219259)
(-0.00181517 0.00106209 0.00264243)
(-0.00214204 0.00125575 0.00289582)
(-0.00235347 0.00144291 0.00287697)
(-0.00243076 0.00158165 0.00256729)
(-0.00237638 0.00162958 0.00202079)
(-0.00221622 0.00156567 0.00135799)
(-0.00199679 0.00139861 0.000727334)
(-0.00176438 0.00115608 0.000241579)
(-0.00153691 0.000872868 -6.41408e-05)
(-0.00130447 0.000581792 -0.000210839)
(-0.00105235 0.000308175 -0.000231164)
(-0.000773923 6.81138e-05 -0.000148087)
(-0.000470204 -0.000131986 2.75736e-05)
(-0.000144702 -0.000296067 0.000294746)
(0.0002027 -0.000437792 0.000658017)
(0.000578462 -0.000575357 0.00111783)
(0.000986869 -0.000722219 0.001651)
(0.00141281 -0.000883559 0.00219259)
(0.00181517 -0.00106209 0.00264243)
(0.00214204 -0.00125575 0.00289582)
(0.00235347 -0.00144291 0.00287697)
(0.00230315 -0.00141154 0.00259334)
(0.00227861 -0.00137531 0.00222315)
(0.00218743 -0.00127011 0.00177649)
(0.00205293 -0.00109551 0.00129498)
(0.00188697 -0.000864652 0.000849097)
(0.0016967 -0.000599142 0.000513126)
(0.00148172 -0.000320391 0.000324086)
(0.00123528 -4.82965e-05 0.000279341)
(0.00095368 0.000199007 0.000364465)
(0.000640197 0.000410184 0.000571727)
(0.000300085 0.000584969 0.00090075)
(-6.67149e-05 0.000731785 0.00134419)
(-0.00046447 0.000860171 0.0018625)
(-0.000889135 0.000977556 0.00237065)
(-0.00131839 0.00109193 0.0027668)
(-0.0017134 0.00120713 0.00298249)
(-0.00202834 0.00131262 0.00300529)
(-0.00222734 0.00138687 0.00286314)
(-0.00230315 0.00141154 0.00259334)
(-0.00227861 0.00137531 0.00222315)
(-0.00218743 0.00127011 0.00177649)
(-0.00205293 0.00109551 0.00129498)
(-0.00188697 0.000864652 0.000849097)
(-0.0016967 0.000599142 0.000513126)
(-0.00148172 0.000320391 0.000324086)
(-0.00123528 4.82965e-05 0.000279342)
(-0.00095368 -0.000199007 0.000364465)
(-0.000640197 -0.000410184 0.000571727)
(-0.000300085 -0.000584969 0.00090075)
(6.67149e-05 -0.000731785 0.00134419)
(0.00046447 -0.000860171 0.0018625)
(0.000889135 -0.000977556 0.00237065)
(0.00131839 -0.00109193 0.0027668)
(0.0017134 -0.00120713 0.00298249)
(0.00202834 -0.00131262 0.00300529)
(0.00222734 -0.00138687 0.00286314)
(0.00236172 -0.00162638 0.0026491)
(0.00224595 -0.001774 0.00209364)
(0.00200587 -0.00180551 0.00139754)
(0.0017037 -0.00172392 0.000745688)
(0.00140747 -0.00155016 0.000267826)
(0.00114762 -0.00131646 -1.17814e-05)
(0.000911022 -0.00105831 -0.000135093)