/*--------------------------------*- C++ -*----------------------------------*\
| =========                 |                                                 |
| \\      /  F ield         | OpenFOAM: The Open Source CFD Toolbox           |
|  \\    /   O peration     | Version:  2312                                  |
|   \\  /    A nd           | Website:  www.openfoam.com                      |
|    \\/     M anipulation  |                                                 |
\*---------------------------------------------------------------------------*/
FoamFile
{
    version     2.0;
    format      ascii;
    arch        "LSB;label=32;scalar=64";
    class       volVectorField;
    location    "0.9";
    object      D;
}
// * * * * * * * * * * * * * * * * * * * * * * * * * * * * * * * * * * * * * //

dimensions      [0 1 0 0 0 0 0];

internalField   nonuniform List<vector> 
1620
(
(0.000131972 0.000323055 4.42195e-05)
(7.3869e-05 0.000341063 4.42191e-05)
(1.35221e-05 0.000348709 4.42193e-05)
(-4.72358e-05 0.00034576 4.42199e-05)
(-0.000106559 0.000332305 4.42201e-05)
(-0.000162644 0.000308753 4.42198e-05)
(-0.000213788 0.000275819 4.422e-05)
(-0.000258435 0.000234504 4.422e-05)
(-0.00029523 0.000186065 4.42196e-05)
(-0.000323055 0.000131972 4.42194e-05)
(-0.000341063 7.3869e-05 4.42191e-05)
(-0.000348709 1.3522e-05 4.42193e-05)
(-0.00034576 -4.72358e-05 4.42199e-05)
(-0.000332305 -0.000106559 4.422e-05)
(-0.000308753 -0.000162644 4.42198e-05)
(-0.000275819 -0.000213788 4.422e-05)
(-0.000234504 -0.000258435 4.422e-05)
(-0.000186065 -0.00029523 4.42195e-05)
(-0.000131972 -0.000323055 4.42194e-05)
(-7.3869e-05 -0.000341063 4.42191e-05)
(-1.3522e-05 -0.000348709 4.42193e-05)
(4.72358e-05 -0.00034576 4.42199e-05)
(0.000106559 -0.000332305 4.42201e-05)
(0.000162644 -0.000308753 4.42198e-05)
(0.000213788 -0.000275819 4.422e-05)
(0.000258435 -0.000234504 4.422e-05)
(0.00029523 -0.000186065 4.42196e-05)
(0.000323055 -0.000131972 4.42195e-05)
(0.000341063 -7.3869e-05 4.42191e-05)
(0.000348709 -1.3522e-05 4.42193e-05)
(0.00034576 4.72358e-05 4.42199e-05)
(0.000332305 0.000106559 4.42201e-05)
(0.000308753 0.000162644 4.42198e-05)
(0.000275819 0.000213788 4.422e-05)
(0.000234504 0.000258435 4.422e-05)
(0.000186065 0.00029523 4.42196e-05)
(6.21279e-05 0.000367962 8.43115e-05)
(-2.7118e-06 0.00037316 8.43114e-05)
(-6.74688e-05 0.00036702 8.43115e-05)
(-0.000130176 0.000349728 8.43118e-05)
(-0.000188928 0.000321811 8.4312e-05)
(-0.00024194 0.000284114 8.43117e-05)
(-0.0002876 0.000237785 8.43117e-05)
(-0.000324522 0.000184231 8.43117e-05)
(-0.000351583 0.00012508 8.43114e-05)
(-0.000367962 6.21279e-05 8.43115e-05)
(-0.00037316 -2.71182e-06 8.43114e-05)
(-0.00036702 -6.74688e-05 8.43115e-05)
(-0.000349728 -0.000130176 8.43118e-05)
(-0.000321811 -0.000188928 8.4312e-05)
(-0.000284114 -0.00024194 8.43117e-05)
(-0.000237785 -0.0002876 8.43117e-05)
(-0.000184231 -0.000324522 8.43117e-05)
(-0.00012508 -0.000351583 8.43114e-05)
(-6.21279e-05 -0.000367962 8.43115e-05)
(2.71183e-06 -0.00037316 8.43114e-05)
(6.74688e-05 -0.00036702 8.43115e-05)
(0.000130176 -0.000349728 8.43118e-05)
(0.000188928 -0.000321811 8.4312e-05)
(0.00024194 -0.000284114 8.43117e-05)
(0.0002876 -0.000237785 8.43117e-05)
(0.000324522 -0.000184231 8.43117e-05)
(0.000351583 -0.00012508 8.43114e-05)
(0.000367962 -6.21279e-05 8.43115e-05)
(0.00037316 2.71182e-06 8.43114e-05)
(0.00036702 6.74688e-05 8.43115e-05)
(0.000349728 0.000130176 8.43118e-05)
(0.000321811 0.000188928 8.4312e-05)
(0.000284114 0.00024194 8.43117e-05)
(0.000237785 0.0002876 8.43117e-05)
(0.000184232 0.000324522 8.43117e-05)
(0.00012508 0.000351583 8.43114e-05)
(-4.741e-05 0.000397145 0.000106744)
(-0.000115653 0.000382879 0.000106744)
(-0.000180382 0.000356979 0.000106744)
(-0.000239631 0.000320232 0.000106744)
(-0.000291598 0.000273757 0.000106744)
(-0.000334705 0.000218961 0.000106744)
(-0.000367643 0.000157514 0.000106744)
(-0.000389409 9.12804e-05 0.000106743)
(-0.000399344 2.22735e-05 0.000106743)
(-0.000397145 -4.741e-05 0.000106744)
(-0.000382879 -0.000115653 0.000106744)
(-0.000356979 -0.000180382 0.000106744)
(-0.000320232 -0.000239631 0.000106744)
(-0.000273757 -0.000291598 0.000106744)
(-0.000218961 -0.000334705 0.000106744)
(-0.000157514 -0.000367643 0.000106744)
(-9.12804e-05 -0.000389409 0.000106743)
(-2.22735e-05 -0.000399344 0.000106743)
(4.74101e-05 -0.000397145 0.000106744)
(0.000115653 -0.000382879 0.000106744)
(0.000180382 -0.000356979 0.000106744)
(0.000239631 -0.000320232 0.000106744)
(0.000291598 -0.000273757 0.000106744)
(0.000334705 -0.000218961 0.000106744)
(0.000367643 -0.000157514 0.000106744)
(0.000389409 -9.12804e-05 0.000106743)
(0.000399344 -2.22735e-05 0.000106743)
(0.000397145 4.74101e-05 0.000106744)
(0.000382879 0.000115653 0.000106744)
(0.000356979 0.000180382 0.000106744)
(0.000320232 0.000239631 0.000106744)
(0.000273757 0.000291598 0.000106744)
(0.000218961 0.000334705 0.000106744)
(0.000157514 0.000367643 0.000106744)
(9.12804e-05 0.000389409 0.000106743)
(2.22735e-05 0.000399344 0.000106743)
(0.000250185 0.000963948 0.00018827)
(7.89965e-05 0.000992748 0.00018827)
(-9.45923e-05 0.000991384 0.00018827)
(-0.000265307 0.000959896 0.000188272)
(-0.00042796 0.000899244 0.000188273)
(-0.00057761 0.000811268 0.000188272)
(-0.000709711 0.000698642 0.000188272)
(-0.000820247 0.000564787 0.000188272)
(-0.000905859 0.000413772 0.000188271)
(-0.000963948 0.000250185 0.00018827)
(-0.000992748 7.89965e-05 0.00018827)
(-0.000991384 -9.45923e-05 0.00018827)
(-0.000959896 -0.000265307 0.000188272)
(-0.000899244 -0.00042796 0.000188273)
(-0.000811268 -0.00057761 0.000188272)
(-0.000698642 -0.000709711 0.000188272)
(-0.000564787 -0.000820247 0.000188272)
(-0.000413772 -0.000905859 0.000188271)
(-0.000250185 -0.000963948 0.00018827)
(-7.89964e-05 -0.000992748 0.00018827)
(9.45924e-05 -0.000991384 0.00018827)
(0.000265307 -0.000959896 0.000188272)
(0.00042796 -0.000899244 0.000188273)
(0.000577611 -0.000811268 0.000188272)
(0.000709711 -0.000698642 0.000188272)
(0.000820247 -0.000564787 0.000188272)
(0.00090586 -0.000413772 0.000188271)
(0.000963948 -0.000250185 0.00018827)
(0.000992748 -7.89965e-05 0.00018827)
(0.000991384 9.45923e-05 0.00018827)
(0.000959896 0.000265307 0.000188272)
(0.000899244 0.00042796 0.000188273)
(0.000811268 0.00057761 0.000188272)
(0.000698642 0.000709711 0.000188272)
(0.000564787 0.000820247 0.000188272)
(0.000413772 0.000905859 0.000188271)
(0.000126193 0.00107926 0.000293789)
(-6.3134e-05 0.00108477 0.000293789)
(-0.000250543 0.00105733 0.000293789)
(-0.00043034 0.000997761 0.00029379)
(-0.000597062 0.000907875 0.000293791)
(-0.000745642 0.000790403 0.000293791)
(-0.000871566 0.000648915 0.00029379)
(-0.000971008 0.00048771 0.00029379)
(-0.00104095 0.000311687 0.000293789)
(-0.00107926 0.000126193 0.000293789)
(-0.00108477 -6.3134e-05 0.000293789)
(-0.00105733 -0.000250543 0.000293789)
(-0.000997761 -0.00043034 0.00029379)
(-0.000907875 -0.000597062 0.000293791)
(-0.000790403 -0.000745642 0.000293791)
(-0.000648915 -0.000871566 0.00029379)
(-0.00048771 -0.000971008 0.00029379)
(-0.000311687 -0.00104095 0.000293789)
(-0.000126193 -0.00107926 0.000293789)
(6.3134e-05 -0.00108477 0.000293789)
(0.000250543 -0.00105733 0.000293789)
(0.00043034 -0.000997761 0.00029379)
(0.000597062 -0.000907875 0.000293791)
(0.000745642 -0.000790403 0.000293791)
(0.000871566 -0.000648915 0.00029379)
(0.000971008 -0.00048771 0.00029379)
(0.00104095 -0.000311687 0.000293789)
(0.00107926 -0.000126193 0.000293789)
(0.00108477 6.3134e-05 0.000293789)
(0.00105733 0.000250543 0.000293789)
(0.000997761 0.00043034 0.00029379)
(0.000907875 0.000597062 0.000293791)
(0.000790403 0.000745642 0.000293791)
(0.000648915 0.000871566 0.00029379)
(0.00048771 0.000971008 0.00029379)
(0.000311687 0.00104095 0.000293789)
(-4.41295e-05 0.00117587 0.000373861)
(-0.000247647 0.00115035 0.000373861)
(-0.000443639 0.00108987 0.000373861)
(-0.000626153 0.000996272 0.000373861)
(-0.000789641 0.000872406 0.000373861)
(-0.000929136 0.000722031 0.000373861)
(-0.0010404 0.000549719 0.000373861)
(-0.00112005 0.000360704 0.000373861)
(-0.00116567 0.000160729 0.000373861)
(-0.00117587 -4.41295e-05 0.000373861)
(-0.00115035 -0.000247647 0.000373861)
(-0.00108987 -0.000443639 0.000373861)
(-0.000996272 -0.000626153 0.000373861)
(-0.000872406 -0.000789641 0.000373861)
(-0.000722031 -0.000929136 0.000373861)
(-0.000549719 -0.0010404 0.000373861)
(-0.000360704 -0.00112005 0.000373861)
(-0.000160729 -0.00116567 0.000373861)
(4.41296e-05 -0.00117587 0.000373861)
(0.000247647 -0.00115035 0.000373861)
(0.000443639 -0.00108987 0.000373861)
(0.000626153 -0.000996272 0.000373861)
(0.000789641 -0.000872406 0.000373861)
(0.000929136 -0.000722031 0.000373861)
(0.0010404 -0.000549719 0.000373861)
(0.00112005 -0.000360704 0.000373861)
(0.00116567 -0.000160729 0.000373861)
(0.00117587 4.41296e-05 0.000373861)
(0.00115035 0.000247647 0.000373861)
(0.00108987 0.000443639 0.000373861)
(0.000996272 0.000626153 0.000373861)
(0.000872406 0.000789641 0.000373861)
(0.000722031 0.000929136 0.000373861)
(0.000549719 0.0010404 0.000373861)
(0.000360704 0.00112005 0.000373861)
(0.000160729 0.00116567 0.000373861)
(0.000291725 0.00161624 0.000431007)
(6.63645e-06 0.00164234 0.000431007)
(-0.000278654 0.00161855 0.000431007)
(-0.000555479 0.00154557 0.000431009)
(-0.000815424 0.00142563 0.00043101)
(-0.00105059 0.00126238 0.00043101)
(-0.00125384 0.00106076 0.00043101)
(-0.00141899 0.00082692 0.000431009)
(-0.00154103 0.000567951 0.000431007)
(-0.00161624 0.000291725 0.000431007)
(-0.00164234 6.63636e-06 0.000431007)
(-0.00161855 -0.000278654 0.000431007)
(-0.00154557 -0.000555479 0.000431009)
(-0.00142563 -0.000815424 0.00043101)
(-0.00126238 -0.00105059 0.00043101)
(-0.00106076 -0.00125384 0.00043101)
(-0.00082692 -0.00141899 0.000431009)
(-0.000567951 -0.00154103 0.000431007)
(-0.000291725 -0.00161624 0.000431007)
(-6.63628e-06 -0.00164234 0.000431007)
(0.000278654 -0.00161855 0.000431007)
(0.000555479 -0.00154557 0.000431009)
(0.000815424 -0.00142563 0.00043101)
(0.00105059 -0.00126238 0.00043101)
(0.00125384 -0.00106076 0.00043101)
(0.00141899 -0.00082692 0.000431009)
(0.00154103 -0.000567951 0.000431008)
(0.00161624 -0.000291725 0.000431007)
(0.00164234 -6.63635e-06 0.000431007)
(0.00161855 0.000278654 0.000431007)
(0.00154557 0.000555479 0.000431009)
(0.00142563 0.000815424 0.00043101)
(0.00126238 0.00105059 0.00043101)
(0.00106076 0.00125384 0.00043101)
(0.00082692 0.00141899 0.000431009)
(0.000567951 0.00154103 0.000431008)
(0.000125904 0.00176335 0.000569153)
(-0.00018221 0.00175842 0.000569153)
(-0.000484789 0.00170007 0.000569153)
(-0.000772637 0.00159006 0.000569154)
(-0.00103701 0.00143173 0.000569154)
(-0.00126987 0.00122991 0.000569154)
(-0.00146415 0.000990711 0.000569154)
(-0.00161394 0.000721412 0.000569154)
(-0.0017147 0.000430194 0.000569153)
(-0.00176335 0.000125904 0.000569153)
(-0.00175842 -0.000182211 0.000569153)
(-0.00170007 -0.000484789 0.000569153)
(-0.00159006 -0.000772637 0.000569154)
(-0.00143173 -0.00103701 0.000569154)
(-0.00122991 -0.00126987 0.000569154)
(-0.000990711 -0.00146415 0.000569154)
(-0.000721412 -0.00161394 0.000569154)
(-0.000430194 -0.0017147 0.000569153)
(-0.000125904 -0.00176335 0.000569153)
(0.000182211 -0.00175842 0.000569153)
(0.000484789 -0.00170007 0.000569153)
(0.000772637 -0.00159006 0.000569154)
(0.00103701 -0.00143173 0.000569154)
(0.00126987 -0.00122991 0.000569154)
(0.00146415 -0.000990711 0.000569154)
(0.00161394 -0.000721412 0.000569154)
(0.0017147 -0.000430194 0.000569153)
(0.00176335 -0.000125904 0.000569153)
(0.00175842 0.000182211 0.000569153)
(0.00170007 0.000484789 0.000569153)
(0.00159006 0.000772637 0.000569154)
(0.00143173 0.00103701 0.000569154)
(0.00122991 0.00126987 0.000569154)
(0.000990711 0.00146415 0.000569154)
(0.000721412 0.00161394 0.000569154)
(0.000430194 0.0017147 0.000569153)
(-8.07727e-05 0.00188845 0.000682886)
(-0.000407471 0.00184574 0.000682885)
(-0.000721789 0.00174694 0.000682886)
(-0.00101418 0.00159506 0.000682886)
(-0.00127575 0.00139472 0.000682886)
(-0.00149856 0.001152 0.000682886)
(-0.00167583 0.000874275 0.000682886)
(-0.00180219 0.000569988 0.000682886)
(-0.00187379 0.000248381 0.000682886)
(-0.00188845 -8.07727e-05 0.000682885)
(-0.00184574 -0.000407471 0.000682885)
(-0.00174694 -0.000721789 0.000682885)
(-0.00159506 -0.00101418 0.000682886)
(-0.00139472 -0.00127575 0.000682886)
(-0.001152 -0.00149856 0.000682886)
(-0.000874275 -0.00167583 0.000682886)
(-0.000569988 -0.00180219 0.000682886)
(-0.000248381 -0.00187379 0.000682886)
(8.07728e-05 -0.00188845 0.000682885)
(0.000407471 -0.00184574 0.000682885)
(0.000721789 -0.00174694 0.000682885)
(0.00101418 -0.00159506 0.000682886)
(0.00127575 -0.00139472 0.000682886)
(0.00149856 -0.001152 0.000682886)
(0.00167583 -0.000874275 0.000682886)
(0.00180219 -0.000569988 0.000682886)
(0.00187379 -0.000248381 0.000682886)
(0.00188845 8.07727e-05 0.000682886)
(0.00184574 0.000407471 0.000682885)
(0.00174694 0.000721789 0.000682886)
(0.00159506 0.00101418 0.000682886)
(0.00139472 0.00127575 0.000682886)
(0.001152 0.00149856 0.000682886)
(0.000874276 0.00167583 0.000682886)
(0.000569988 0.00180219 0.000682886)
(0.000248381 0.00187379 0.000682886)
(0.000227065 0.0022574 0.000710953)
(-0.000168379 0.00226254 0.000710952)
(-0.000558706 0.00219892 0.000710953)
(-0.000932056 0.0020685 0.000710954)
(-0.00127709 0.00187522 0.000710955)
(-0.00158331 0.00162497 0.000710955)
(-0.00184143 0.00132534 0.000710955)
(-0.0020436 0.000985447 0.000710955)
(-0.00218368 0.000615608 0.000710953)
(-0.0022574 0.000227064 0.000710953)
(-0.00226254 -0.000168379 0.000710952)
(-0.00219892 -0.000558706 0.000710953)
(-0.0020685 -0.000932056 0.000710954)
(-0.00187522 -0.00127709 0.000710955)
(-0.00162497 -0.00158331 0.000710955)
(-0.00132534 -0.00184143 0.000710955)
(-0.000985447 -0.0020436 0.000710955)
(-0.000615608 -0.00218368 0.000710953)
(-0.000227064 -0.0022574 0.000710953)
(0.000168379 -0.00226254 0.000710952)
(0.000558706 -0.00219892 0.000710953)
(0.000932057 -0.0020685 0.000710954)
(0.00127709 -0.00187522 0.000710955)
(0.00158331 -0.00162497 0.000710955)
(0.00184143 -0.00132534 0.000710955)
(0.0020436 -0.000985447 0.000710955)
(0.00218368 -0.000615608 0.000710953)
(0.0022574 -0.000227064 0.000710953)
(0.00226254 0.000168379 0.000710952)
(0.00219892 0.000558706 0.000710953)
(0.0020685 0.000932057 0.000710954)
(0.00187522 0.00127709 0.000710955)
(0.00162497 0.00158331 0.000710956)
(0.00132534 0.00184143 0.000710955)
(0.000985447 0.0020436 0.000710955)
(0.000615608 0.00218368 0.000710953)
(4.95769e-05 0.00239827 0.000860791)
(-0.000367632 0.00237044 0.000860791)
(-0.00077367 0.00227059 0.000860791)
(-0.0011562 0.00210175 0.000860791)
(-0.0015036 0.00186905 0.000860792)
(-0.00180531 0.00157956 0.000860792)
(-0.00205217 0.00124207 0.000860792)
(-0.00223668 0.000866844 0.000860792)
(-0.00235323 0.000465279 0.000860792)
(-0.00239827 4.95768e-05 0.000860791)
(-0.00237044 -0.000367632 0.000860791)
(-0.00227059 -0.00077367 0.000860791)
(-0.00210175 -0.0011562 0.000860791)
(-0.00186905 -0.0015036 0.000860792)
(-0.00157956 -0.00180531 0.000860792)
(-0.00124207 -0.00205217 0.000860792)
(-0.000866844 -0.00223668 0.000860792)
(-0.000465279 -0.00235323 0.000860792)
(-4.95767e-05 -0.00239827 0.000860791)
(0.000367632 -0.00237044 0.000860791)
(0.00077367 -0.00227059 0.000860791)
(0.0011562 -0.00210175 0.000860791)
(0.0015036 -0.00186905 0.000860792)
(0.00180531 -0.00157956 0.000860792)
(0.00205217 -0.00124207 0.000860792)
(0.00223668 -0.000866844 0.000860792)
(0.00235323 -0.000465279 0.000860792)
(0.00239827 -4.95768e-05 0.000860791)
(0.00237044 0.000367632 0.000860791)
(0.00227059 0.00077367 0.000860791)
(0.00210175 0.0011562 0.000860791)
(0.00186905 0.0015036 0.000860792)
(0.00157956 0.00180531 0.000860792)
(0.00124207 0.00205217 0.000860792)
(0.000866844 0.00223668 0.000860792)
(0.000465279 0.00235323 0.000860792)
(-0.00016352 0.00251684 0.000987265)
(-0.000598079 0.00245021 0.000987265)
(-0.00101447 0.00230913 0.000987265)
(-0.00140003 0.00209788 0.000987265)
(-0.00174305 0.0018229 0.000987265)
(-0.00203312 0.00149253 0.000987265)
(-0.0022614 0.00111681 0.000987265)
(-0.00242098 0.000707151 0.000987265)
(-0.00250699 0.000276009 0.000987265)
(-0.00251684 -0.00016352 0.000987265)
(-0.00245021 -0.000598079 0.000987265)
(-0.00230913 -0.00101447 0.000987265)
(-0.00209788 -0.00140003 0.000987265)
(-0.0018229 -0.00174305 0.000987264)
(-0.00149253 -0.00203312 0.000987265)
(-0.00111681 -0.0022614 0.000987265)
(-0.000707151 -0.00242098 0.000987265)
(-0.000276009 -0.00250699 0.000987265)
(0.00016352 -0.00251684 0.000987265)
(0.000598079 -0.00245021 0.000987265)
(0.00101447 -0.00230913 0.000987265)
(0.00140003 -0.00209788 0.000987265)
(0.00174305 -0.0018229 0.000987265)
(0.00203312 -0.00149253 0.000987265)
(0.0022614 -0.00111681 0.000987265)
(0.00242098 -0.000707151 0.000987265)
(0.00250699 -0.000276009 0.000987265)
(0.00251684 0.00016352 0.000987265)
(0.00245021 0.000598079 0.000987265)
(0.00230913 0.00101447 0.000987265)
(0.00209789 0.00140003 0.000987265)
(0.0018229 0.00174305 0.000987265)
(0.00149253 0.00203312 0.000987265)
(0.00111681 0.0022614 0.000987265)
(0.000707151 0.00242098 0.000987265)
(0.000276009 0.00250699 0.000987265)
(7.49195e-05 0.00285232 0.000995303)
(-0.000421518 0.00282199 0.000995302)
(-0.000905149 0.00270592 0.000995302)
(-0.00136127 0.00250764 0.000995303)
(-0.00177604 0.00223316 0.000995304)
(-0.00213684 0.00189083 0.000995304)
(-0.00243272 0.00149104 0.000995304)
(-0.00265467 0.00104595 0.000995304)
(-0.00279597 0.000569081 0.000995304)
(-0.00285232 7.49194e-05 0.000995303)
(-0.00282199 -0.000421518 0.000995302)
(-0.00270592 -0.000905149 0.000995302)
(-0.00250764 -0.00136128 0.000995303)
(-0.00223316 -0.00177604 0.000995304)
(-0.00189082 -0.00213684 0.000995304)
(-0.00149104 -0.00243272 0.000995304)
(-0.00104595 -0.00265467 0.000995304)
(-0.000569081 -0.00279597 0.000995304)
(-7.49192e-05 -0.00285232 0.000995303)
(0.000421518 -0.00282199 0.000995302)
(0.000905149 -0.00270592 0.000995302)
(0.00136128 -0.00250764 0.000995303)
(0.00177604 -0.00223316 0.000995304)
(0.00213684 -0.00189083 0.000995304)
(0.00243272 -0.00149104 0.000995304)
(0.00265467 -0.00104595 0.000995304)
(0.00279597 -0.000569081 0.000995304)
(0.00285232 -7.49193e-05 0.000995303)
(0.00282199 0.000421518 0.000995302)
(0.00270593 0.000905149 0.000995302)
(0.00250764 0.00136128 0.000995303)
(0.00223316 0.00177604 0.000995304)
(0.00189083 0.00213684 0.000995304)
(0.00149104 0.00243272 0.000995304)
(0.00104595 0.00265467 0.000995304)
(0.000569081 0.00279597 0.000995304)
(-9.54307e-05 0.00296298 0.00114422)
(-0.000608497 0.00290139 0.00114422)
(-0.00110307 0.00275165 0.00114422)
(-0.00156413 0.0025183 0.00114422)
(-0.00197767 0.00220843 0.00114422)
(-0.00233111 0.00183146 0.00114422)
(-0.00261373 0.00139884 0.00114422)
(-0.00281693 0.000923724 0.00114422)
(-0.00293454 0.000420535 0.00114422)
(-0.00296298 -9.54308e-05 0.00114422)
(-0.00290139 -0.000608497 0.00114422)
(-0.00275165 -0.00110307 0.00114422)
(-0.0025183 -0.00156413 0.00114422)
(-0.00220843 -0.00197767 0.00114422)
(-0.00183146 -0.00233111 0.00114422)
(-0.00139884 -0.00261373 0.00114422)
(-0.000923724 -0.00281693 0.00114422)
(-0.000420535 -0.00293454 0.00114422)
(9.54309e-05 -0.00296298 0.00114422)
(0.000608497 -0.00290139 0.00114422)
(0.00110307 -0.00275165 0.00114422)
(0.00156414 -0.0025183 0.00114422)
(0.00197767 -0.00220843 0.00114422)
(0.00233111 -0.00183146 0.00114422)
(0.00261373 -0.00139884 0.00114422)
(0.00281693 -0.000923724 0.00114422)
(0.00293454 -0.000420535 0.00114422)
(0.00296298 9.54308e-05 0.00114422)
(0.00290139 0.000608497 0.00114422)
(0.00275165 0.00110307 0.00114422)
(0.0025183 0.00156413 0.00114422)
(0.00220843 0.00197767 0.00114422)
(0.00183146 0.00233111 0.00114422)
(0.00139885 0.00261373 0.00114422)
(0.000923724 0.00281693 0.00114422)
(0.000420536 0.00293454 0.00114422)
(-0.000296566 0.00305273 0.00127073)
(-0.000822161 0.00295485 0.00127073)
(-0.00132278 0.00276719 0.00127073)
(-0.0017832 0.00249546 0.00127073)
(-0.00218944 0.0021479 0.00127073)
(-0.00252915 0.00173507 0.00127073)
(-0.00279202 0.00126953 0.00127073)
(-0.00297005 0.000765413 0.00127073)
(-0.00305785 0.00023804 0.00127073)
(-0.00305273 -0.000296566 0.00127073)
(-0.00295485 -0.000822161 0.00127073)
(-0.00276719 -0.00132278 0.00127073)
(-0.00249545 -0.0017832 0.00127073)
(-0.0021479 -0.00218944 0.00127073)
(-0.00173507 -0.00252915 0.00127073)
(-0.00126953 -0.00279202 0.00127073)
(-0.000765413 -0.00297005 0.00127073)
(-0.00023804 -0.00305785 0.00127073)
(0.000296567 -0.00305273 0.00127073)
(0.000822161 -0.00295485 0.00127073)
(0.00132278 -0.00276719 0.00127073)
(0.0017832 -0.00249545 0.00127073)
(0.00218944 -0.0021479 0.00127073)
(0.00252915 -0.00173507 0.00127073)
(0.00279202 -0.00126953 0.00127073)
(0.00297005 -0.000765413 0.00127073)
(0.00305785 -0.00023804 0.00127073)
(0.00305273 0.000296567 0.00127073)
(0.00295485 0.000822161 0.00127073)
(0.00276719 0.00132278 0.00127073)
(0.00249546 0.0017832 0.00127073)
(0.0021479 0.00218944 0.00127073)
(0.00173507 0.00252915 0.00127073)
(0.00126953 0.00279202 0.00127073)
(0.000765413 0.00297005 0.00127073)
(0.00023804 0.00305785 0.00127073)
(-0.000134555 0.00336774 0.00127004)
(-0.000717312 0.00329321 0.00127004)
(-0.00127827 0.00311862 0.00127004)
(-0.0018004 0.00284927 0.00127004)
(-0.00226781 0.00249335 0.00127004)
(-0.00266632 0.00206166 0.00127004)
(-0.00298382 0.00156734 0.00127004)
(-0.00321066 0.00102539 0.00127004)
(-0.00333994 0.00045229 0.00127004)
(-0.00336774 -0.000134555 0.00127004)
(-0.00329321 -0.000717313 0.00127004)
(-0.00311862 -0.00127827 0.00127004)
(-0.00284927 -0.0018004 0.00127004)
(-0.00249335 -0.00226781 0.00127004)
(-0.00206166 -0.00266632 0.00127004)
(-0.00156734 -0.00298382 0.00127004)
(-0.00102539 -0.00321066 0.00127004)
(-0.00045229 -0.00333994 0.00127004)
(0.000134556 -0.00336774 0.00127004)
(0.000717313 -0.00329321 0.00127004)
(0.00127827 -0.00311862 0.00127004)
(0.0018004 -0.00284927 0.00127004)
(0.00226781 -0.00249335 0.00127004)
(0.00266632 -0.00206166 0.00127004)
(0.00298382 -0.00156734 0.00127004)
(0.00321066 -0.00102539 0.00127004)
(0.00333994 -0.00045229 0.00127004)
(0.00336774 0.000134556 0.00127004)
(0.00329321 0.000717313 0.00127004)
(0.00311862 0.00127827 0.00127004)
(0.00284927 0.0018004 0.00127004)
(0.00249335 0.00226781 0.00127004)
(0.00206166 0.00266632 0.00127004)
(0.00156734 0.00298382 0.00127004)
(0.00102539 0.00321066 0.00127004)
(0.00045229 0.00333994 0.00127004)
(-0.000291217 0.00343598 0.00141035)
(-0.000883446 0.00333321 0.00141035)
(-0.00144883 0.00312917 0.00141035)
(-0.00197019 0.00283004 0.00141035)
(-0.00243169 0.00244492 0.00141035)
(-0.0028193 0.00198552 0.00141035)
(-0.00312125 0.00146579 0.00141035)
(-0.00332837 0.000901521 0.00141035)
(-0.00343435 0.000309859 0.00141035)
(-0.00343598 -0.000291217 0.00141035)
(-0.00333321 -0.000883446 0.00141035)
(-0.00312916 -0.00144883 0.00141035)
(-0.00283004 -0.00197019 0.00141035)
(-0.00244492 -0.00243169 0.00141035)
(-0.00198552 -0.0028193 0.00141035)
(-0.00146579 -0.00312125 0.00141035)
(-0.000901521 -0.00332837 0.00141035)
(-0.000309859 -0.00343435 0.00141035)
(0.000291218 -0.00343598 0.00141035)
(0.000883446 -0.00333321 0.00141035)
(0.00144883 -0.00312916 0.00141035)
(0.00197019 -0.00283004 0.00141035)
(0.00243169 -0.00244492 0.00141035)
(0.0028193 -0.00198552 0.00141035)
(0.00312125 -0.00146579 0.00141035)
(0.00332837 -0.000901521 0.00141035)
(0.00343435 -0.000309859 0.00141035)
(0.00343598 0.000291217 0.00141035)
(0.00333321 0.000883446 0.00141035)
(0.00312917 0.00144883 0.00141035)
(0.00283004 0.00197019 0.00141035)
(0.00244492 0.00243169 0.00141035)
(0.00198552 0.0028193 0.00141035)
(0.00146579 0.00312125 0.00141035)
(0.000901521 0.00332837 0.00141035)
(0.000309859 0.00343435 0.00141035)
(-0.000473148 0.00348621 0.00152856)
(-0.00107133 0.00335109 0.00152856)
(-0.00163697 0.00311414 0.00152856)
(-0.00215286 0.00278257 0.00152856)
(-0.00260335 0.00236646 0.00152856)
(-0.00297473 0.00187844 0.00152856)
(-0.00325572 0.00133335 0.00152856)
(-0.00343779 0.000747742 0.00152856)
(-0.00351541 0.000139415 0.00152856)
(-0.00348621 -0.000473148 0.00152856)
(-0.00335109 -0.00107134 0.00152856)
(-0.00311414 -0.00163697 0.00152856)
(-0.00278257 -0.00215286 0.00152856)
(-0.00236646 -0.00260335 0.00152856)
(-0.00187844 -0.00297473 0.00152856)
(-0.00133335 -0.00325572 0.00152856)
(-0.000747741 -0.00343779 0.00152856)
(-0.000139414 -0.00351541 0.00152856)
(0.000473148 -0.00348621 0.00152856)
(0.00107134 -0.00335109 0.00152856)
(0.00163697 -0.00311414 0.00152856)
(0.00215286 -0.00278257 0.00152856)
(0.00260335 -0.00236646 0.00152856)
(0.00297473 -0.00187844 0.00152856)
(0.00325572 -0.00133335 0.00152856)
(0.00343779 -0.000747741 0.00152856)
(0.00351541 -0.000139415 0.00152856)
(0.00348621 0.000473148 0.00152856)
(0.00335109 0.00107134 0.00152856)
(0.00311414 0.00163697 0.00152856)
(0.00278257 0.00215286 0.00152856)
(0.00236646 0.00260335 0.00152856)
(0.00187844 0.00297473 0.00152856)
(0.00133335 0.00325572 0.00152856)
(0.000747742 0.00343779 0.00152856)
(0.000139415 0.00351541 0.00152856)
(-0.00036704 0.00377804 0.00153911)
(-0.00101751 0.0036569 0.00153911)
(-0.00163707 0.00342466 0.0015391)
(-0.00220688 0.00308835 0.0015391)
(-0.00270964 0.00265821 0.0015391)
(-0.00313007 0.0021473 0.0015391)
(-0.00345539 0.00157115 0.00153911)
(-0.00367573 0.000947258 0.00153911)
(-0.00378437 0.000294583 0.00153911)
(-0.00377803 -0.000367041 0.00153911)
(-0.0036569 -0.00101751 0.00153911)
(-0.00342466 -0.00163707 0.0015391)
(-0.00308835 -0.00220688 0.0015391)
(-0.00265821 -0.00270964 0.0015391)
(-0.0021473 -0.00313007 0.0015391)
(-0.00157115 -0.00345539 0.00153911)
(-0.000947257 -0.00367573 0.00153911)
(-0.000294583 -0.00378437 0.00153911)
(0.000367041 -0.00377803 0.00153911)
(0.00101751 -0.0036569 0.00153911)
(0.00163707 -0.00342466 0.0015391)
(0.00220688 -0.00308835 0.0015391)
(0.00270964 -0.00265821 0.0015391)
(0.00313007 -0.0021473 0.0015391)
(0.00345539 -0.00157115 0.00153911)
(0.00367573 -0.000947258 0.00153911)
(0.00378437 -0.000294583 0.00153911)
(0.00377804 0.000367041 0.00153911)
(0.0036569 0.00101751 0.00153911)
(0.00342466 0.00163707 0.0015391)
(0.00308835 0.00220688 0.0015391)
(0.00265821 0.00270964 0.0015391)
(0.0021473 0.00313007 0.00153911)
(0.00157115 0.00345539 0.00153911)
(0.000947258 0.00367573 0.00153911)
(0.000294583 0.00378437 0.00153911)
(-0.000512169 0.00379669 0.00166404)
(-0.00116368 0.00365007 0.00166404)
(-0.00177983 0.00339255 0.00166404)
(-0.0023419 0.00303195 0.00166404)
(-0.00283281 0.00257922 0.00166404)
(-0.00323765 0.00204812 0.00166404)
(-0.00354411 0.00145479 0.00166404)
(-0.00374289 0.000817264 0.00166404)
(-0.00382795 0.000154899 0.00166404)
(-0.00379669 -0.000512169 0.00166404)
(-0.00365007 -0.00116368 0.00166404)
(-0.00339255 -0.00177983 0.00166404)
(-0.00303195 -0.0023419 0.00166404)
(-0.00257922 -0.00283281 0.00166404)
(-0.00204812 -0.00323765 0.00166404)
(-0.00145479 -0.00354412 0.00166404)
(-0.000817263 -0.00374289 0.00166404)
(-0.000154899 -0.00382795 0.00166404)
(0.00051217 -0.00379669 0.00166404)
(0.00116368 -0.00365007 0.00166404)
(0.00177983 -0.00339255 0.00166404)
(0.0023419 -0.00303195 0.00166404)
(0.00283281 -0.00257922 0.00166404)
(0.00323765 -0.00204812 0.00166404)
(0.00354412 -0.00145479 0.00166404)
(0.00374289 -0.000817264 0.00166404)
(0.00382795 -0.000154899 0.00166404)
(0.00379669 0.000512169 0.00166404)
(0.00365007 0.00116368 0.00166404)
(0.00339255 0.00177983 0.00166404)
(0.00303195 0.0023419 0.00166404)
(0.00257922 0.00283281 0.00166404)
(0.00204812 0.00323765 0.00166404)
(0.00145479 0.00354412 0.00166404)
(0.000817264 0.00374289 0.00166404)
(0.000154899 0.00382795 0.00166404)
(-0.000675478 0.00380284 0.0017662)
(-0.00132557 0.00362777 0.0017662)
(-0.00193539 0.00334247 0.0017662)
(-0.0024864 0.00295561 0.0017662)
(-0.00296186 0.00247895 0.0017662)
(-0.00334733 0.00192697 0.0017662)
(-0.00363109 0.00131644 0.0017662)
(-0.00380452 0.000665907 0.0017662)
(-0.00386236 -4.85867e-06 0.0017662)
(-0.00380284 -0.000675478 0.0017662)
(-0.00362777 -0.00132557 0.0017662)
(-0.00334247 -0.00193539 0.0017662)
(-0.00295561 -0.0024864 0.0017662)
(-0.00247895 -0.00296186 0.0017662)
(-0.00192697 -0.00334733 0.0017662)
(-0.00131644 -0.00363109 0.0017662)
(-0.000665906 -0.00380452 0.0017662)
(4.85891e-06 -0.00386236 0.0017662)
(0.000675478 -0.00380284 0.0017662)
(0.00132557 -0.00362777 0.0017662)
(0.00193539 -0.00334247 0.0017662)
(0.0024864 -0.00295561 0.0017662)
(0.00296186 -0.00247895 0.0017662)
(0.00334733 -0.00192697 0.0017662)
(0.00363109 -0.00131644 0.0017662)
(0.00380452 -0.000665907 0.0017662)
(0.00386236 4.85875e-06 0.0017662)
(0.00380284 0.000675478 0.0017662)
(0.00362777 0.00132557 0.0017662)
(0.00334247 0.00193539 0.0017662)
(0.00295561 0.0024864 0.0017662)
(0.00247895 0.00296186 0.0017662)
(0.00192697 0.00334733 0.0017662)
(0.00131644 0.00363109 0.0017662)
(0.000665907 0.00380452 0.0017662)
(-4.85849e-06 0.00386236 0.0017662)
(-0.000585781 0.00406321 0.00181876)
(-0.00128245 0.00389976 0.00181876)
(-0.00194015 0.00361782 0.00181876)
(-0.00253891 0.00322595 0.00181876)
(-0.00306051 0.00273607 0.00181876)
(-0.00348913 0.00216305 0.00181876)
(-0.00381173 0.0015243 0.00181876)
(-0.00401852 0.000839244 0.00181876)
(-0.0041032 0.000128685 0.00181876)
(-0.00406321 -0.000585781 0.00181876)
(-0.00389976 -0.00128245 0.00181876)
(-0.00361782 -0.00194015 0.00181876)
(-0.00322595 -0.00253891 0.00181876)
(-0.00273607 -0.00306051 0.00181876)
(-0.00216305 -0.00348913 0.00181876)
(-0.0015243 -0.00381173 0.00181876)
(-0.000839243 -0.00401852 0.00181876)
(-0.000128685 -0.0041032 0.00181876)
(0.000585782 -0.00406321 0.00181876)
(0.00128245 -0.00389976 0.00181876)
(0.00194015 -0.00361782 0.00181876)
(0.00253891 -0.00322595 0.00181876)
(0.00306052 -0.00273607 0.00181876)
(0.00348913 -0.00216305 0.00181876)
(0.00381173 -0.0015243 0.00181876)
(0.00401852 -0.000839243 0.00181876)
(0.0041032 -0.000128685 0.00181876)
(0.00406321 0.000585781 0.00181876)