/*--------------------------------*- C++ -*----------------------------------*\
| =========                 |                                                 |
| \\      /  F ield         | OpenFOAM: The Open Source CFD Toolbox           |
|  \\    /   O peration     | Version:  2312                                  |
|   \\  /    A nd           | Website:  www.openfoam.com                      |
|    \\/     M anipulation  |                                                 |
\*---------------------------------------------------------------------------*/
FoamFile
{
    version     2.0;
    format      ascii;
    arch        "LSB;label=32;scalar=64";
    class       volVectorField;
    location    "0.9";
    object      D_0_0_0;
}
// * * * * * * * * * * * * * * * * * * * * * * * * * * * * * * * * * * * * * //

dimensions      [0 1 0 0 0 0 0];

internalField   nonuniform List<vector> 
1620
(
(0.000130272 0.000320995 4.4694e-05)
(7.25527e-05 0.000338739 4.46937e-05)
(1.26293e-05 0.000346192 4.46938e-05)
(-4.76778e-05 0.000343126 4.46944e-05)
(-0.000106537 0.000329634 4.46945e-05)
(-0.000162159 0.000306127 4.46943e-05)
(-0.000212853 0.000273317 4.46945e-05)
(-0.000257081 0.000232202 4.46945e-05)
(-0.000293497 0.000184033 4.4694e-05)
(-0.000320995 0.000130272 4.46939e-05)
(-0.000338739 7.25527e-05 4.46936e-05)
(-0.000346192 1.26293e-05 4.46938e-05)
(-0.000343126 -4.76779e-05 4.46944e-05)
(-0.000329634 -0.000106537 4.46945e-05)
(-0.000306126 -0.000162159 4.46942e-05)
(-0.000273317 -0.000212853 4.46945e-05)
(-0.000232202 -0.000257081 4.46945e-05)
(-0.000184033 -0.000293497 4.4694e-05)
(-0.000130272 -0.000320995 4.46939e-05)
(-7.25527e-05 -0.000338739 4.46936e-05)
(-1.26293e-05 -0.000346192 4.46938e-05)
(4.76779e-05 -0.000343126 4.46944e-05)
(0.000106537 -0.000329634 4.46945e-05)
(0.000162159 -0.000306127 4.46943e-05)
(0.000212853 -0.000273317 4.46945e-05)
(0.000257081 -0.000232202 4.46945e-05)
(0.000293497 -0.000184033 4.46941e-05)
(0.000320995 -0.000130272 4.4694e-05)
(0.000338739 -7.25527e-05 4.46937e-05)
(0.000346192 -1.26293e-05 4.46938e-05)
(0.000343126 4.76779e-05 4.46944e-05)
(0.000329634 0.000106537 4.46945e-05)
(0.000306127 0.000162159 4.46943e-05)
(0.000273317 0.000212853 4.46945e-05)
(0.000232202 0.000257081 4.46945e-05)
(0.000184033 0.000293497 4.46941e-05)
(6.10411e-05 0.000364039 8.2996e-05)
(-3.10093e-06 0.000369108 8.29959e-05)
(-6.71484e-05 0.000362962 8.2996e-05)
(-0.000129156 0.000345787 8.29963e-05)
(-0.000187239 0.000318107 8.29965e-05)
(-0.000239633 0.00028076 8.29963e-05)
(-0.000284746 0.000234883 8.29962e-05)
(-0.000321207 0.000181869 8.29962e-05)
(-0.000347909 0.000123328 8.29959e-05)
(-0.000364039 6.10411e-05 8.2996e-05)
(-0.000369108 -3.10095e-06 8.29959e-05)
(-0.000362962 -6.71484e-05 8.2996e-05)
(-0.000345787 -0.000129156 8.29963e-05)
(-0.000318107 -0.000187239 8.29965e-05)
(-0.00028076 -0.000239633 8.29962e-05)
(-0.000234883 -0.000284746 8.29962e-05)
(-0.000181868 -0.000321207 8.29962e-05)
(-0.000123328 -0.000347909 8.29959e-05)
(-6.10411e-05 -0.000364039 8.2996e-05)
(3.10096e-06 -0.000369108 8.29959e-05)
(6.71484e-05 -0.000362962 8.2996e-05)
(0.000129156 -0.000345787 8.29963e-05)
(0.000187239 -0.000318107 8.29965e-05)
(0.000239633 -0.00028076 8.29962e-05)
(0.000284746 -0.000234883 8.29962e-05)
(0.000321208 -0.000181869 8.29962e-05)
(0.000347909 -0.000123328 8.2996e-05)
(0.000364039 -6.10411e-05 8.2996e-05)
(0.000369108 3.10095e-06 8.29959e-05)
(0.000362962 6.71484e-05 8.2996e-05)
(0.000345787 0.000129156 8.29963e-05)
(0.000318107 0.000187239 8.29965e-05)
(0.00028076 0.000239633 8.29963e-05)
(0.000234883 0.000284746 8.29962e-05)
(0.000181869 0.000321208 8.29962e-05)
(0.000123328 0.000347909 8.2996e-05)
(-4.67355e-05 0.000391935 0.000104357)
(-0.000114084 0.000377866 0.000104358)
(-0.000177967 0.000352314 0.000104358)
(-0.000236442 0.000316058 0.000104358)
(-0.000287733 0.000270199 0.000104358)
(-0.000330281 0.000216129 0.000104358)
(-0.000362794 0.000155493 0.000104358)
(-0.000384283 9.01324e-05 0.000104357)
(-0.000394096 2.20331e-05 0.000104357)
(-0.000391935 -4.67355e-05 0.000104357)
(-0.000377866 -0.000114084 0.000104358)
(-0.000352314 -0.000177967 0.000104358)
(-0.000316058 -0.000236442 0.000104358)
(-0.000270199 -0.000287733 0.000104358)
(-0.000216129 -0.000330281 0.000104358)
(-0.000155493 -0.000362794 0.000104358)
(-9.01324e-05 -0.000384283 0.000104357)
(-2.20331e-05 -0.000394096 0.000104357)
(4.67356e-05 -0.000391935 0.000104357)
(0.000114084 -0.000377866 0.000104358)
(0.000177967 -0.000352314 0.000104358)
(0.000236442 -0.000316058 0.000104358)
(0.000287733 -0.000270199 0.000104358)
(0.000330281 -0.000216129 0.000104358)
(0.000362794 -0.000155493 0.000104358)
(0.000384283 -9.01324e-05 0.000104357)
(0.000394096 -2.20331e-05 0.000104357)
(0.000391935 4.67356e-05 0.000104357)
(0.000377866 0.000114084 0.000104358)
(0.000352314 0.000177967 0.000104358)
(0.000316058 0.000236442 0.000104358)
(0.000270199 0.000287733 0.000104358)
(0.000216129 0.000330281 0.000104358)
(0.000155493 0.000362794 0.000104358)
(9.01324e-05 0.000384283 0.000104357)
(2.20331e-05 0.000394096 0.000104357)
(0.000246962 0.00095725 0.000188833)
(7.69861e-05 0.000985592 0.000188833)
(-9.53294e-05 0.000983987 0.000188833)
(-0.000264748 0.000952484 0.000188835)
(-0.000426123 0.000892041 0.000188836)
(-0.00057455 0.000804494 0.000188835)
(-0.000705521 0.000692502 0.000188835)
(-0.000815055 0.000559468 0.000188834)
(-0.000899822 0.000409435 0.000188833)
(-0.00095725 0.000246962 0.000188833)
(-0.000985592 7.69861e-05 0.000188833)
(-0.000983987 -9.53295e-05 0.000188833)
(-0.000952484 -0.000264748 0.000188835)
(-0.000892041 -0.000426123 0.000188836)
(-0.000804493 -0.00057455 0.000188835)
(-0.000692502 -0.000705521 0.000188835)
(-0.000559468 -0.000815055 0.000188834)
(-0.000409435 -0.000899822 0.000188833)
(-0.000246962 -0.00095725 0.000188833)
(-7.6986e-05 -0.000985592 0.000188833)
(9.53295e-05 -0.000983987 0.000188833)
(0.000264748 -0.000952484 0.000188835)
(0.000426123 -0.000892041 0.000188836)
(0.000574551 -0.000804494 0.000188835)
(0.000705521 -0.000692502 0.000188835)
(0.000815055 -0.000559468 0.000188834)
(0.000899822 -0.000409435 0.000188833)
(0.00095725 -0.000246962 0.000188833)
(0.000985592 -7.69861e-05 0.000188833)
(0.000983987 9.53295e-05 0.000188833)
(0.000952484 0.000264748 0.000188835)
(0.000892041 0.000426123 0.000188836)
(0.000804494 0.00057455 0.000188835)
(0.000692502 0.000705521 0.000188835)
(0.000559468 0.000815055 0.000188834)
(0.000409435 0.000899822 0.000188833)
(0.000124602 0.00106805 0.000290255)
(-6.27563e-05 0.00107346 0.000290255)
(-0.000248208 0.00104626 0.000290255)
(-0.000426117 0.000987263 0.000290256)
(-0.000591081 0.00089827 0.000290257)
(-0.000738084 0.000781983 0.000290257)
(-0.00086266 0.000641935 0.000290256)
(-0.000961025 0.000482383 0.000290256)
(-0.00103019 0.000308174 0.000290255)
(-0.00106805 0.000124602 0.000290255)
(-0.00107346 -6.27563e-05 0.000290255)
(-0.00104626 -0.000248208 0.000290255)
(-0.000987263 -0.000426117 0.000290256)
(-0.00089827 -0.000591081 0.000290257)
(-0.000781983 -0.000738084 0.000290257)
(-0.000641935 -0.00086266 0.000290256)
(-0.000482383 -0.000961025 0.000290256)
(-0.000308174 -0.00103019 0.000290255)
(-0.000124602 -0.00106805 0.000290255)
(6.27564e-05 -0.00107346 0.000290255)
(0.000248208 -0.00104626 0.000290255)
(0.000426117 -0.000987263 0.000290256)
(0.000591081 -0.00089827 0.000290257)
(0.000738084 -0.000781983 0.000290257)
(0.00086266 -0.000641935 0.000290256)
(0.000961025 -0.000482383 0.000290256)
(0.00103019 -0.000308174 0.000290255)
(0.00106805 -0.000124602 0.000290255)
(0.00107346 6.27564e-05 0.000290255)
(0.00104626 0.000248208 0.000290255)
(0.000987263 0.000426117 0.000290256)
(0.00089827 0.000591081 0.000290257)
(0.000781983 0.000738084 0.000290257)
(0.000641936 0.00086266 0.000290256)
(0.000482383 0.000961025 0.000290256)
(0.000308174 0.00103019 0.000290255)
(-4.27423e-05 0.00116085 0.000367234)
(-0.000243672 0.00113579 0.000367234)
(-0.000437197 0.00107622 0.000367234)
(-0.000617439 0.000983954 0.000367234)
(-0.00077892 0.000861788 0.000367234)
(-0.000916735 0.000713437 0.000367234)
(-0.00102669 0.000543408 0.000367234)
(-0.00110546 0.000356869 0.000367234)
(-0.00115064 0.000159487 0.000367234)
(-0.00116085 -4.27423e-05 0.000367234)
(-0.00113579 -0.000243672 0.000367234)
(-0.00107622 -0.000437197 0.000367234)
(-0.000983954 -0.000617439 0.000367234)
(-0.000861788 -0.00077892 0.000367234)
(-0.000713436 -0.000916735 0.000367234)
(-0.000543408 -0.00102669 0.000367234)
(-0.000356869 -0.00110546 0.000367234)
(-0.000159487 -0.00115064 0.000367234)
(4.27423e-05 -0.00116085 0.000367234)
(0.000243672 -0.00113579 0.000367234)
(0.000437197 -0.00107622 0.000367234)
(0.000617439 -0.000983954 0.000367234)
(0.00077892 -0.000861788 0.000367234)
(0.000916735 -0.000713437 0.000367234)
(0.00102669 -0.000543408 0.000367234)
(0.00110546 -0.000356869 0.000367234)
(0.00115064 -0.000159487 0.000367234)
(0.00116085 4.27423e-05 0.000367234)
(0.00113579 0.000243672 0.000367234)
(0.00107622 0.000437197 0.000367234)
(0.000983954 0.000617439 0.000367234)
(0.000861788 0.00077892 0.000367234)
(0.000713437 0.000916735 0.000367234)
(0.000543408 0.00102669 0.000367234)
(0.000356869 0.00110546 0.000367234)
(0.000159487 0.00115064 0.000367234)
(0.000289752 0.00160409 0.000431222)
(6.80262e-06 0.00163004 0.000431222)
(-0.000276353 0.00160645 0.000431222)
(-0.000551113 0.00153406 0.000431224)
(-0.000809126 0.00141505 0.000431225)
(-0.00104255 0.00125305 0.000431225)
(-0.00124431 0.00105298 0.000431225)
(-0.00140825 0.000820909 0.000431224)
(-0.00152941 0.000563897 0.000431222)
(-0.00160409 0.000289752 0.000431222)
(-0.00163004 6.80253e-06 0.000431222)
(-0.00160645 -0.000276353 0.000431222)
(-0.00153406 -0.000551113 0.000431224)
(-0.00141505 -0.000809126 0.000431225)
(-0.00125305 -0.00104255 0.000431225)
(-0.00105298 -0.00124431 0.000431225)
(-0.000820909 -0.00140825 0.000431224)
(-0.000563897 -0.00152941 0.000431222)
(-0.000289752 -0.00160409 0.000431222)
(-6.80245e-06 -0.00163004 0.000431222)
(0.000276353 -0.00160645 0.000431222)
(0.000551113 -0.00153406 0.000431224)
(0.000809126 -0.00141505 0.000431225)
(0.00104255 -0.00125305 0.000431225)
(0.00124431 -0.00105298 0.000431225)
(0.00140825 -0.000820909 0.000431224)
(0.00152941 -0.000563897 0.000431222)
(0.00160409 -0.000289752 0.000431222)
(0.00163004 -6.80252e-06 0.000431222)
(0.00160645 0.000276353 0.000431222)
(0.00153406 0.000551113 0.000431224)
(0.00141505 0.000809126 0.000431225)
(0.00125305 0.00104255 0.000431225)
(0.00105298 0.00124431 0.000431225)
(0.00082091 0.00140825 0.000431224)
(0.000563897 0.00152941 0.000431222)
(0.000125664 0.00174521 0.000564146)
(-0.000179297 0.00174052 0.000564146)
(-0.000478812 0.00168295 0.000564146)
(-0.000763777 0.00157423 0.000564147)
(-0.00102554 0.00141769 0.000564147)
(-0.00125613 0.00121807 0.000564147)
(-0.00144857 0.000981437 0.000564147)
(-0.00159699 0.000714985 0.000564147)
(-0.00169688 0.000426809 0.000564146)
(-0.00174521 0.000125664 0.000564146)
(-0.00174052 -0.000179297 0.000564146)
(-0.00168295 -0.000478812 0.000564146)
(-0.00157423 -0.000763777 0.000564147)
(-0.00141769 -0.00102554 0.000564147)
(-0.00121807 -0.00125613 0.000564147)
(-0.000981437 -0.00144857 0.000564147)
(-0.000714985 -0.00159699 0.000564147)
(-0.000426809 -0.00169688 0.000564146)
(-0.000125664 -0.00174521 0.000564146)
(0.000179298 -0.00174052 0.000564146)
(0.000478812 -0.00168295 0.000564146)
(0.000763777 -0.00157423 0.000564147)
(0.00102554 -0.00141769 0.000564147)
(0.00125614 -0.00121807 0.000564147)
(0.00144857 -0.000981437 0.000564147)
(0.00159699 -0.000714985 0.000564147)
(0.00169688 -0.000426809 0.000564146)
(0.00174521 -0.000125664 0.000564146)
(0.00174052 0.000179297 0.000564146)
(0.00168295 0.000478812 0.000564146)
(0.00157423 0.000763777 0.000564147)
(0.00141769 0.00102554 0.000564147)
(0.00121807 0.00125614 0.000564147)
(0.000981437 0.00144857 0.000564147)
(0.000714985 0.00159699 0.000564147)
(0.000426809 0.00169688 0.000564146)
(-7.80622e-05 0.00186509 0.000673563)
(-0.000400745 0.0018232 0.000673563)
(-0.000711251 0.00172591 0.000673563)
(-0.00100015 0.00157619 0.000673564)
(-0.00125865 0.00137857 0.000673564)
(-0.00147892 0.00113906 0.000673564)
(-0.00165424 0.000864941 0.000673564)
(-0.00177931 0.000564544 0.000673563)
(-0.00185031 0.000246993 0.000673563)
(-0.00186509 -7.80623e-05 0.000673563)
(-0.0018232 -0.000400745 0.000673563)
(-0.00172591 -0.000711251 0.000673563)
(-0.00157619 -0.00100015 0.000673564)
(-0.00137857 -0.00125865 0.000673564)
(-0.00113906 -0.00147892 0.000673564)
(-0.000864941 -0.00165424 0.000673563)
(-0.000564544 -0.00177931 0.000673563)
(-0.000246993 -0.00185031 0.000673563)
(7.80623e-05 -0.00186509 0.000673563)
(0.000400745 -0.0018232 0.000673563)
(0.000711251 -0.00172591 0.000673563)
(0.00100015 -0.00157619 0.000673564)
(0.00125865 -0.00137857 0.000673564)
(0.00147892 -0.00113906 0.000673564)
(0.00165424 -0.000864941 0.000673564)
(0.00177931 -0.000564544 0.000673563)
(0.00185031 -0.000246993 0.000673563)
(0.00186509 7.80623e-05 0.000673563)
(0.0018232 0.000400745 0.000673563)
(0.00172591 0.000711251 0.000673563)
(0.00157619 0.00100015 0.000673564)
(0.00137857 0.00125865 0.000673564)
(0.00113906 0.00147892 0.000673564)
(0.000864941 0.00165424 0.000673564)
(0.000564544 0.00177931 0.000673563)
(0.000246993 0.00185031 0.000673563)
(0.000229429 0.00223966 0.000712173)
(-0.00016297 0.00224548 0.000712172)
(-0.000550417 0.00218306 0.000712173)
(-0.000921139 0.00205432 0.000712174)
(-0.00126387 0.00186315 0.000712174)
(-0.0015682 0.00161538 0.000712175)
(-0.00182489 0.00131852 0.000712175)
(-0.00202612 0.000981601 0.000712175)
(-0.00216579 0.000614856 0.000712173)
(-0.00223966 0.000229429 0.000712172)
(-0.00224548 -0.00016297 0.000712172)
(-0.00218306 -0.000550417 0.000712172)
(-0.00205432 -0.000921139 0.000712174)
(-0.00186315 -0.00126387 0.000712174)
(-0.00161538 -0.0015682 0.000712175)
(-0.00131852 -0.00182489 0.000712175)
(-0.000981601 -0.00202612 0.000712175)
(-0.000614856 -0.00216579 0.000712173)
(-0.000229429 -0.00223966 0.000712172)
(0.00016297 -0.00224548 0.000712172)
(0.000550417 -0.00218306 0.000712173)
(0.000921139 -0.00205432 0.000712174)
(0.00126387 -0.00186315 0.000712174)
(0.0015682 -0.00161538 0.000712175)
(0.00182489 -0.00131852 0.000712175)
(0.00202612 -0.000981601 0.000712175)
(0.00216579 -0.000614856 0.000712173)
(0.00223966 -0.000229429 0.000712173)
(0.00224548 0.00016297 0.000712172)
(0.00218306 0.000550417 0.000712173)
(0.00205432 0.000921139 0.000712174)
(0.00186315 0.00126387 0.000712175)
(0.00161538 0.0015682 0.000712175)
(0.00131852 0.00182489 0.000712175)
(0.000981601 0.00202612 0.000712175)
(0.000614856 0.00216579 0.000712173)
(5.27819e-05 0.0023739 0.000856207)
(-0.000360242 0.002347 0.000856207)
(-0.000762321 0.00224878 0.000856207)
(-0.00114124 0.00208224 0.000856208)
(-0.00148548 0.00185244 0.000856208)
(-0.00178458 0.00156634 0.000856208)
(-0.00202946 0.00123266 0.000856209)
(-0.00221268 0.000861519 0.000856208)
(-0.00232866 0.000464203 0.000856208)
(-0.0023739 5.27818e-05 0.000856207)
(-0.002347 -0.000360243 0.000856207)
(-0.00224878 -0.000762321 0.000856207)
(-0.00208224 -0.00114124 0.000856208)
(-0.00185244 -0.00148548 0.000856208)
(-0.00156634 -0.00178458 0.000856208)
(-0.00123266 -0.00202946 0.000856209)
(-0.000861519 -0.00221268 0.000856208)
(-0.000464203 -0.00232866 0.000856208)
(-5.27817e-05 -0.0023739 0.000856207)
(0.000360243 -0.002347 0.000856207)
(0.000762321 -0.00224878 0.000856207)
(0.00114124 -0.00208224 0.000856208)
(0.00148548 -0.00185244 0.000856208)
(0.00178458 -0.00156634 0.000856208)
(0.00202946 -0.00123266 0.000856209)
(0.00221268 -0.000861519 0.000856208)
(0.00232866 -0.000464203 0.000856208)
(0.0023739 -5.27818e-05 0.000856207)
(0.002347 0.000360243 0.000856207)
(0.00224878 0.000762321 0.000856207)
(0.00208224 0.00114124 0.000856208)
(0.00185244 0.00148548 0.000856208)
(0.00156634 0.00178458 0.000856208)
(0.00123266 0.00202946 0.000856209)
(0.000861519 0.00221268 0.000856208)
(0.000464203 0.00232866 0.000856208)
(-0.000158318 0.0024866 0.000977671)
(-0.000587706 0.00242133 0.000977671)
(-0.000999237 0.00228249 0.000977671)
(-0.00138041 0.0020743 0.000977671)
(-0.00171963 0.00180308 0.000977671)
(-0.00200661 0.00147708 0.000977671)
(-0.00223262 0.00110619 0.000977671)
(-0.00239079 0.000701698 0.000977671)
(-0.00247631 0.000275881 0.000977671)
(-0.0024866 -0.000158318 0.000977671)
(-0.00242133 -0.000587706 0.000977671)
(-0.00228249 -0.000999237 0.000977671)
(-0.0020743 -0.00138041 0.000977671)
(-0.00180308 -0.00171963 0.00097767)
(-0.00147708 -0.00200661 0.000977671)
(-0.00110619 -0.00223262 0.000977671)
(-0.000701698 -0.00239079 0.000977671)
(-0.000275881 -0.00247631 0.000977671)
(0.000158318 -0.0024866 0.000977671)
(0.000587706 -0.00242133 0.000977671)
(0.000999237 -0.00228249 0.000977671)
(0.00138041 -0.0020743 0.000977671)
(0.00171963 -0.00180308 0.000977671)
(0.00200661 -0.00147708 0.000977671)
(0.00223262 -0.00110619 0.000977671)
(0.00239079 -0.000701698 0.000977671)
(0.00247631 -0.000275881 0.000977671)
(0.0024866 0.000158318 0.000977671)
(0.00242133 0.000587706 0.000977671)
(0.00228249 0.000999237 0.000977671)
(0.0020743 0.00138041 0.000977671)
(0.00180308 0.00171963 0.000977671)
(0.00147708 0.00200661 0.000977671)
(0.00110619 0.00223262 0.000977671)
(0.000701698 0.00239079 0.000977671)
(0.000275881 0.00247631 0.000977671)
(8.37161e-05 0.00282989 0.000999933)
(-0.000408961 0.00280143 0.000999932)
(-0.000889212 0.00268786 0.000999932)
(-0.00134244 0.00249262 0.000999933)
(-0.00175489 0.00222163 0.000999934)
(-0.00211401 0.00188315 0.000999934)
(-0.0024089 0.00148745 0.000999934)
(-0.00263059 0.00104655 0.000999934)
(-0.00277236 0.000573849 0.000999934)
(-0.00282989 8.3716e-05 0.000999933)
(-0.00280143 -0.000408961 0.000999932)
(-0.00268786 -0.000889212 0.000999932)
(-0.00249261 -0.00134244 0.000999933)
(-0.00222163 -0.00175489 0.000999934)
(-0.00188315 -0.00211401 0.000999934)
(-0.00148744 -0.0024089 0.000999934)
(-0.00104655 -0.00263059 0.000999934)
(-0.000573849 -0.00277236 0.000999934)
(-8.37159e-05 -0.00282989 0.000999933)
(0.000408961 -0.00280143 0.000999932)
(0.000889212 -0.00268786 0.000999932)
(0.00134244 -0.00249261 0.000999933)
(0.00175489 -0.00222163 0.000999934)
(0.00211401 -0.00188315 0.000999934)
(0.0024089 -0.00148745 0.000999934)
(0.00263059 -0.00104655 0.000999934)
(0.00277236 -0.000573849 0.000999934)
(0.00282989 -8.3716e-05 0.000999933)
(0.00280144 0.000408961 0.000999932)
(0.00268786 0.000889212 0.000999932)
(0.00249262 0.00134244 0.000999933)
(0.00222163 0.00175489 0.000999934)
(0.00188315 0.00211401 0.000999934)
(0.00148745 0.0024089 0.000999934)
(0.00104655 0.00263059 0.000999934)
(0.00057385 0.00277236 0.000999934)
(-8.69854e-05 0.00293339 0.00114257)
(-0.000595041 0.00287372 0.00114257)
(-0.00108502 0.00272673 0.00114257)
(-0.00154202 0.0024969 0.00114257)
(-0.00195218 0.00219119 0.00114257)
(-0.00230302 0.00181891 0.00114257)
(-0.00258388 0.00139136 0.00114257)
(-0.00278623 0.000921539 0.00114257)
(-0.00290393 0.000423714 0.00114257)
(-0.00293339 -8.69855e-05 0.00114257)
(-0.00287372 -0.000595041 0.00114257)
(-0.00272673 -0.00108502 0.00114257)
(-0.00249689 -0.00154202 0.00114257)
(-0.00219119 -0.00195218 0.00114257)
(-0.00181891 -0.00230302 0.00114257)
(-0.00139136 -0.00258388 0.00114257)
(-0.000921538 -0.00278623 0.00114257)
(-0.000423713 -0.00290393 0.00114257)
(8.69857e-05 -0.00293339 0.00114257)
(0.000595042 -0.00287372 0.00114257)
(0.00108502 -0.00272673 0.00114257)
(0.00154202 -0.0024969 0.00114257)
(0.00195218 -0.00219119 0.00114257)
(0.00230302 -0.00181891 0.00114257)
(0.00258388 -0.00139136 0.00114257)
(0.00278623 -0.000921539 0.00114257)
(0.00290393 -0.000423714 0.00114257)
(0.00293339 8.69856e-05 0.00114257)
(0.00287372 0.000595041 0.00114257)
(0.00272673 0.00108502 0.00114257)
(0.0024969 0.00154202 0.00114257)
(0.00219119 0.00195218 0.00114257)
(0.00181891 0.00230302 0.00114257)
(0.00139136 0.00258388 0.00114257)
(0.000921539 0.00278623 0.00114257)
(0.000423714 0.00290393 0.00114257)
(-0.000287349 0.0030168 0.00126351)
(-0.000806845 0.00292107 0.00126351)
(-0.00130183 0.00273658 0.00126351)
(-0.00175725 0.00246895 0.00126351)
(-0.00215928 0.0021263 0.00126351)
(-0.0024957 0.00171904 0.00126351)
(-0.0027563 0.00125955 0.00126351)
(-0.00293314 0.000761786 0.00126351)
(-0.00302086 0.000240879 0.00126351)
(-0.0030168 -0.000287349 0.00126351)
(-0.00292107 -0.000806845 0.00126351)
(-0.00273658 -0.00130183 0.00126351)
(-0.00246895 -0.00175725 0.00126351)
(-0.0021263 -0.00215928 0.00126351)
(-0.00171904 -0.0024957 0.00126351)
(-0.00125955 -0.0027563 0.00126351)
(-0.000761786 -0.00293314 0.00126351)
(-0.000240878 -0.00302086 0.00126351)
(0.000287349 -0.0030168 0.00126351)
(0.000806845 -0.00292107 0.00126351)
(0.00130183 -0.00273658 0.00126351)
(0.00175725 -0.00246895 0.00126351)
(0.00215928 -0.0021263 0.00126351)
(0.0024957 -0.00171904 0.00126351)
(0.0027563 -0.00125955 0.00126351)
(0.00293314 -0.000761786 0.00126351)
(0.00302086 -0.000240879 0.00126351)
(0.0030168 0.000287349 0.00126351)
(0.00292107 0.000806845 0.00126351)
(0.00273658 0.00130183 0.00126351)
(0.00246895 0.00175725 0.00126351)
(0.0021263 0.00215928 0.00126351)
(0.00171904 0.0024957 0.00126351)
(0.00125955 0.0027563 0.00126351)
(0.000761787 0.00293314 0.00126351)
(0.000240879 0.00302086 0.00126351)
(-0.00011827 0.00334219 0.00128079)
(-0.000696837 0.00327087 0.00128079)
(-0.00125423 0.00310018 0.00128079)
(-0.00177352 0.00283528 0.00128079)
(-0.00223891 0.00248424 0.00128079)
(-0.00263628 0.00205772 0.00128079)
(-0.00295355 0.00156867 0.00128079)
(-0.00318108 0.00103196 0.00128079)
(-0.00331195 0.000463892 0.00128079)
(-0.00334219 -0.00011827 0.00128079)
(-0.00327087 -0.000696837 0.00128079)
(-0.00310018 -0.00125423 0.00128079)
(-0.00283528 -0.00177352 0.00128079)
(-0.00248424 -0.00223891 0.00128079)
(-0.00205772 -0.00263628 0.00128079)
(-0.00156867 -0.00295355 0.00128079)
(-0.00103196 -0.00318108 0.00128079)
(-0.000463892 -0.00331195 0.00128079)
(0.00011827 -0.00334219 0.00128079)
(0.000696838 -0.00327087 0.00128079)
(0.00125423 -0.00310018 0.00128079)
(0.00177352 -0.00283528 0.00128079)
(0.00223891 -0.00248424 0.00128079)
(0.00263628 -0.00205772 0.00128079)
(0.00295355 -0.00156867 0.00128079)
(0.00318108 -0.00103196 0.00128079)
(0.00331195 -0.000463892 0.00128079)
(0.00334219 0.00011827 0.00128079)
(0.00327088 0.000696838 0.00128079)
(0.00310018 0.00125423 0.00128079)
(0.00283528 0.00177352 0.00128079)
(0.00248424 0.00223891 0.00128079)
(0.00205772 0.00263628 0.00128079)
(0.00156867 0.00295355 0.00128079)
(0.00103196 0.00318108 0.00128079)
(0.000463892 0.00331195 0.00128079)
(-0.000276231 0.00340255 0.00141426)
(-0.000862881 0.00330289 0.00141426)
(-0.00142331 0.00310287 0.00141426)
(-0.0019405 0.00280858 0.00141426)
(-0.00239872 0.00242895 0.00141426)
(-0.00278406 0.00197551 0.00141426)
(-0.00308481 0.00146205 0.00141426)
(-0.00329182 0.000904169 0.00141426)
(-0.00339882 0.000318812 0.00141426)
(-0.00340255 -0.000276231 0.00141426)
(-0.00330289 -0.000862881 0.00141426)
(-0.00310287 -0.00142331 0.00141426)
(-0.00280858 -0.0019405 0.00141426)
(-0.00242895 -0.00239872 0.00141426)
(-0.00197551 -0.00278406 0.00141426)
(-0.00146205 -0.00308481 0.00141426)
(-0.000904169 -0.00329182 0.00141426)
(-0.000318812 -0.00339882 0.00141426)
(0.000276231 -0.00340255 0.00141426)
(0.000862881 -0.00330289 0.00141426)
(0.00142331 -0.00310287 0.00141426)
(0.0019405 -0.00280858 0.00141426)
(0.00239872 -0.00242895 0.00141426)
(0.00278406 -0.00197551 0.00141426)
(0.00308481 -0.00146205 0.00141426)
(0.00329182 -0.000904169 0.00141426)
(0.00339882 -0.000318812 0.00141426)
(0.00340255 0.000276231 0.00141426)
(0.00330289 0.000862881 0.00141426)
(0.00310287 0.00142331 0.00141426)
(0.00280858 0.0019405 0.00141426)
(0.00242895 0.00239872 0.00141426)
(0.00197551 0.00278406 0.00141426)
(0.00146205 0.00308481 0.00141426)
(0.000904169 0.00329182 0.00141426)
(0.000318812 0.00339882 0.00141426)
(-0.000458423 0.0034458 0.00152627)
(-0.00104982 0.00331384 0.00152627)
(-0.00160931 0.0030812 0.00152627)
(-0.0021199 0.00275494 0.00152627)
(-0.00256609 0.00234496 0.00152627)
(-0.0029343 0.00186374 0.00152627)
(-0.00321336 0.00132589 0.00152627)
(-0.00339478 0.000747756 0.00152627)
(-0.00347305 0.000146898 0.00152627)
(-0.0034458 -0.000458423 0.00152627)
(-0.00331384 -0.00104982 0.00152627)
(-0.0030812 -0.00160931 0.00152627)
(-0.00275494 -0.0021199 0.00152627)
(-0.00234496 -0.00256609 0.00152627)
(-0.00186374 -0.0029343 0.00152627)
(-0.00132589 -0.00321336 0.00152627)
(-0.000747756 -0.00339478 0.00152627)
(-0.000146898 -0.00347305 0.00152627)
(0.000458423 -0.0034458 0.00152627)
(0.00104982 -0.00331384 0.00152627)
(0.00160931 -0.0030812 0.00152627)
(0.0021199 -0.00275494 0.00152627)
(0.00256609 -0.00234496 0.00152627)
(0.0029343 -0.00186374 0.00152627)
(0.00321336 -0.00132589 0.00152627)
(0.00339478 -0.000747756 0.00152627)
(0.00347305 -0.000146898 0.00152627)
(0.0034458 0.000458423 0.00152627)
(0.00331384 0.00104982 0.00152627)
(0.0030812 0.00160931 0.00152627)
(0.00275494 0.0021199 0.00152627)
(0.00234496 0.00256609 0.00152627)
(0.00186374 0.0029343 0.00152627)
(0.00132589 0.00321336 0.00152627)
(0.000747756 0.00339478 0.00152627)
(0.000146898 0.00347305 0.00152627)
(-0.000343141 0.00375115 0.00155828)
(-0.000989308 0.00363457 0.00155828)
(-0.00160542 0.00340757 0.00155828)
(-0.00217274 0.00307702 0.00155828)
(-0.00267405 0.00265298 0.00155828)
(-0.00309411 0.00214833 0.00155828)
(-0.00342016 0.0015784 0.00155828)
(-0.00364229 0.00096052 0.00155828)
(-0.00375374 0.00031345 0.00155828)
(-0.00375115 -0.000343141 0.00155828)
(-0.00363457 -0.000989308 0.00155828)
(-0.00340757 -0.00160542 0.00155828)
(-0.00307702 -0.00217274 0.00155828)
(-0.00265298 -0.00267405 0.00155828)
(-0.00214833 -0.00309411 0.00155828)
(-0.0015784 -0.00342016 0.00155828)
(-0.000960519 -0.00364229 0.00155828)
(-0.00031345 -0.00375375 0.00155828)
(0.000343142 -0.00375115 0.00155828)
(0.000989308 -0.00363457 0.00155828)
(0.00160542 -0.00340757 0.00155828)
(0.00217274 -0.00307702 0.00155828)
(0.00267405 -0.00265298 0.00155828)
(0.00309411 -0.00214833 0.00155828)
(0.00342016 -0.0015784 0.00155828)
(0.00364229 -0.00096052 0.00155828)
(0.00375375 -0.00031345 0.00155828)
(0.00375115 0.000343142 0.00155828)
(0.00363458 0.000989308 0.00155828)
(0.00340757 0.00160542 0.00155828)
(0.00307702 0.00217274 0.00155828)
(0.00265298 0.00267405 0.00155828)
(0.00214833 0.00309411 0.00155828)
(0.0015784 0.00342016 0.00155828)
(0.00096052 0.00364229 0.00155828)
(0.000313451 0.00375375 0.00155828)
(-0.000489987 0.00376109 0.00167574)
(-0.00113565 0.00361886 0.00167574)
(-0.00174681 0.00336668 0.00167574)
(-0.00230489 0.0030122 0.00167574)
(-0.00279293 0.0025662 0.00167574)
(-0.00319612 0.00204223 0.00167574)
(-0.00350219 0.0014562 0.00167574)
(-0.00370185 0.000825931 0.00167574)
(-0.00378903 0.000170562 0.00167574)
(-0.00376109 -0.000489987 0.00167574)
(-0.00361886 -0.00113565 0.00167574)
(-0.00336668 -0.00174681 0.00167574)
(-0.0030122 -0.00230489 0.00167574)
(-0.0025662 -0.00279293 0.00167574)
(-0.00204223 -0.00319612 0.00167574)
(-0.0014562 -0.00350219 0.00167574)
(-0.000825931 -0.00370185 0.00167574)
(-0.000170562 -0.00378903 0.00167574)
(0.000489987 -0.00376109 0.00167574)
(0.00113565 -0.00361886 0.00167574)
(0.00174681 -0.00336668 0.00167574)
(0.00230489 -0.0030122 0.00167574)
(0.00279293 -0.0025662 0.00167574)
(0.00319612 -0.00204223 0.00167574)
(0.00350219 -0.0014562 0.00167574)
(0.00370185 -0.000825931 0.00167574)
(0.00378903 -0.000170562 0.00167574)
(0.00376109 0.000489987 0.00167574)
(0.00361886 0.00113565 0.00167574)
(0.00336668 0.00174681 0.00167574)
(0.0030122 0.00230489 0.00167574)
(0.0025662 0.00279293 0.00167574)
(0.00204223 0.00319612 0.00167574)
(0.0014562 0.00350219 0.00167574)
(0.000825931 0.00370185 0.00167574)
(0.000170562 0.00378903 0.00167574)
(-0.00065418 0.0037594 0.00177109)
(-0.00129705 0.00358869 0.00177109)
(-0.00190052 0.00330894 0.00177109)
(-0.00244624 0.00292864 0.00177109)
(-0.00291762 0.00245937 0.00177109)
(-0.00330036 0.00191536 0.00177109)
(-0.00358282 0.00131316 0.00177109)
(-0.00375642 0.000671062 0.00177109)
(-0.00381588 8.57188e-06 0.00177109)
(-0.0037594 -0.000654181 0.00177109)
(-0.00358869 -0.00129705 0.00177109)
(-0.00330894 -0.00190052 0.00177109)
(-0.00292864 -0.00244624 0.00177109)
(-0.00245937 -0.00291762 0.00177109)
(-0.00191536 -0.00330036 0.00177109)
(-0.00131316 -0.00358282 0.00177109)
(-0.000671062 -0.00375642 0.00177109)
(-8.57164e-06 -0.00381588 0.00177109)
(0.000654181 -0.0037594 0.00177109)
(0.00129705 -0.00358869 0.00177109)
(0.00190052 -0.00330894 0.00177109)
(0.00244624 -0.00292864 0.00177109)
(0.00291762 -0.00245937 0.00177109)
(0.00330036 -0.00191536 0.00177109)
(0.00358282 -0.00131316 0.00177109)
(0.00375642 -0.000671062 0.00177109)
(0.00381588 -8.5718e-06 0.00177109)
(0.0037594 0.000654181 0.00177109)
(0.00358869 0.00129705 0.00177109)
(0.00330894 0.00190052 0.00177109)
(0.00292864 0.00244624 0.00177109)
(0.00245937 0.00291762 0.00177109)
(0.00191536 0.00330036 0.00177109)
(0.00131316 0.00358282 0.00177109)
(0.000671063 0.00375642 0.00177109)
(8.57206e-06 0.00381588 0.00177109)
(-0.000555167 0.00403682 0.00184768)
(-0.00124772 0.00387909 0.00184768)
(-0.00190236 0.00360349 0.00184767)
(-0.0024992 0.00321841 0.00184767)
(-0.0030201 0.00273553 0.00184767)
(-0.00344924 0.00216954 0.00184767)
(-0.00377357 0.00153762 0.00184767)
(-0.00398325 0.000858986 0.00184767)
(-0.0040719 0.000154252 0.00184768)
(-0.00403682 -0.000555167 0.00184768)
(-0.00387909 -0.00124772 0.00184768)
(-0.00360349 -0.00190236 0.00184767)
(-0.00321841 -0.0024992 0.00184767)
(-0.00273553 -0.0030201 0.00184767)
(-0.00216954 -0.00344924 0.00184767)
(-0.00153762 -0.00377357 0.00184767)
(-0.000858986 -0.00398325 0.00184767)
(-0.000154252 -0.0040719 0.00184768)
(0.000555167 -0.00403682 0.00184768)
(0.00124772 -0.00387909 0.00184768)
(0.00190236 -0.00360349 0.00184767)
(0.0024992 -0.00321841 0.00184767)
(0.0030201 -0.00273553 0.00184767)
(0.00344924 -0.00216954 0.00184767)