/*--------------------------------*- C++ -*----------------------------------*\
| =========                 |                                                 |
| \\      /  F ield         | OpenFOAM: The Open Source CFD Toolbox           |
|  \\    /   O peration     | Version:  2312                                  |
|   \\  /    A nd           | Website:  www.openfoam.com                      |
|    \\/     M anipulation  |                                                 |
\*---------------------------------------------------------------------------*/
FoamFile
{
    version     2.0;
    format      ascii;
    arch        "LSB;label=32;scalar=64";
    class       volTensorField;
    location    "0.9";
    object      F;
}
// * * * * * * * * * * * * * * * * * * * * * * * * * * * * * * * * * * * * * //

dimensions      [0 0 0 0 0 0 0];

internalField   nonuniform List<tensor> 
1620
(
(1.07262 -0.0286807 -0.0556149 -0.0449199 1.01038 -0.333953 -0.0396717 -0.00347096 0.922638)
(1.08333 -0.0158184 0.00322022 -0.0320578 0.999672 -0.338537 -0.0384665 -0.0103071 0.922638)
(1.08899 -6.87872e-05 0.0619577 -0.0163083 0.994007 -0.332835 -0.0360924 -0.0168299 0.922638)
(1.08893 0.0166685 0.118813 0.000429087 0.994071 -0.31702 -0.0326214 -0.0228415 0.922637)
(1.08315 0.0323747 0.172058 0.0161354 0.999855 -0.291572 -0.0281593 -0.0281593 0.922637)
(1.07234 0.0451551 0.220074 0.0289162 1.01066 -0.257265 -0.0228418 -0.0326214 0.922637)
(1.05781 0.0534685 0.261405 0.0372298 1.02519 -0.215141 -0.01683 -0.0360918 0.922637)
(1.04132 0.0563122 0.294792 0.0400735 1.04168 -0.16648 -0.0103068 -0.0384659 0.922638)
(1.02484 0.0533434 0.319222 0.0371045 1.05815 -0.11276 -0.00347064 -0.0396716 0.922638)
(1.01038 0.0449199 0.333953 0.0286807 1.07262 -0.0556149 0.00347096 -0.0396717 0.922638)
(0.999672 0.0320578 0.338537 0.0158184 1.08333 0.00322024 0.0103071 -0.0384665 0.922638)
(0.994007 0.0163083 0.332835 6.87896e-05 1.08899 0.0619578 0.0168299 -0.0360924 0.922638)
(0.994071 -0.000429083 0.31702 -0.0166685 1.08893 0.118813 0.0228415 -0.0326214 0.922637)
(0.999855 -0.0161354 0.291572 -0.0323747 1.08315 0.172058 0.0281593 -0.0281593 0.922637)
(1.01066 -0.0289162 0.257265 -0.0451551 1.07234 0.220074 0.0326214 -0.0228418 0.922637)
(1.02519 -0.0372298 0.215141 -0.0534685 1.05781 0.261405 0.0360918 -0.01683 0.922637)
(1.04168 -0.0400735 0.16648 -0.0563122 1.04132 0.294792 0.0384659 -0.0103068 0.922638)
(1.05815 -0.0371045 0.11276 -0.0533434 1.02484 0.319222 0.0396716 -0.00347064 0.922638)
(1.07262 -0.0286807 0.0556149 -0.0449199 1.01038 0.333953 0.0396717 0.00347096 0.922638)
(1.08333 -0.0158184 -0.00322025 -0.0320578 0.999672 0.338537 0.0384665 0.0103071 0.922638)
(1.08899 -6.87889e-05 -0.0619578 -0.0163083 0.994007 0.332835 0.0360924 0.0168299 0.922638)
(1.08893 0.0166685 -0.118813 0.000429088 0.994071 0.31702 0.0326214 0.0228415 0.922637)
(1.08315 0.0323747 -0.172058 0.0161354 0.999855 0.291572 0.0281593 0.0281593 0.922637)
(1.07234 0.0451551 -0.220074 0.0289162 1.01066 0.257265 0.0228418 0.0326214 0.922637)
(1.05781 0.0534685 -0.261405 0.0372298 1.02519 0.215141 0.01683 0.0360918 0.922637)
(1.04132 0.0563122 -0.294792 0.0400735 1.04168 0.16648 0.0103068 0.0384659 0.922638)
(1.02484 0.0533434 -0.319222 0.0371045 1.05815 0.11276 0.00347064 0.0396716 0.922638)
(1.01038 0.0449199 -0.333953 0.0286807 1.07262 0.0556149 -0.00347096 0.0396716 0.922638)
(0.999672 0.0320578 -0.338537 0.0158184 1.08333 -0.00322024 -0.0103071 0.0384665 0.922638)
(0.994007 0.0163083 -0.332835 6.87865e-05 1.08899 -0.0619578 -0.0168299 0.0360924 0.922638)
(0.994071 -0.000429092 -0.31702 -0.0166685 1.08893 -0.118813 -0.0228415 0.0326214 0.922637)
(0.999855 -0.0161354 -0.291572 -0.0323747 1.08315 -0.172058 -0.0281593 0.0281593 0.922637)
(1.01066 -0.0289162 -0.257265 -0.0451551 1.07234 -0.220074 -0.0326214 0.0228418 0.922637)
(1.02519 -0.0372298 -0.215141 -0.0534685 1.05781 -0.261405 -0.0360918 0.01683 0.922637)
(1.04168 -0.0400735 -0.16648 -0.0563122 1.04132 -0.294792 -0.0384659 0.0103068 0.922638)
(1.05815 -0.0371045 -0.11276 -0.0533434 1.02484 -0.319222 -0.0396716 0.00347064 0.922638)
(1.09271 -0.0365922 -0.0264412 -0.0372747 1.00429 -0.370597 -0.031411 -0.00274812 0.889279)
(1.10268 -0.0192432 0.0383138 -0.0199261 0.994321 -0.369558 -0.0304568 -0.00816082 0.889279)
(1.10611 0.000467759 0.101905 -0.000215049 0.99089 -0.35729 -0.0285769 -0.0133254 0.889279)
(1.10259 0.0201633 0.162399 0.0194808 0.994407 -0.334167 -0.0258286 -0.0180853 0.889279)
(1.09255 0.0374684 0.21796 0.0367857 1.00445 -0.30089 -0.0222957 -0.0222957 0.889278)
(1.07719 0.0502953 0.266897 0.0496127 1.0198 -0.25847 -0.0180855 -0.0258287 0.889279)
(1.05838 0.0570968 0.307725 0.0564145 1.03862 -0.208197 -0.0133254 -0.0285766 0.889279)
(1.03837 0.0570527 0.339203 0.0563705 1.05863 -0.151598 -0.00816057 -0.0304562 0.889279)
(1.01959 0.0501686 0.360375 0.0494862 1.07741 -0.0903929 -0.00274804 -0.0314109 0.889279)
(1.00429 0.0372747 0.370597 0.0365922 1.09271 -0.0264412 0.00274812 -0.031411 0.889279)
(0.994321 0.0199261 0.369558 0.0192432 1.10268 0.0383138 0.00816082 -0.0304568 0.889279)
(0.99089 0.000215054 0.35729 -0.000467756 1.10611 0.101905 0.0133254 -0.0285769 0.889279)
(0.994407 -0.0194808 0.334167 -0.0201633 1.10259 0.162399 0.0180853 -0.0258286 0.889279)
(1.00445 -0.0367857 0.30089 -0.0374684 1.09255 0.21796 0.0222957 -0.0222957 0.889279)
(1.0198 -0.0496127 0.25847 -0.0502953 1.07719 0.266897 0.0258287 -0.0180855 0.889279)
(1.03862 -0.0564145 0.208197 -0.0570968 1.05838 0.307725 0.0285766 -0.0133254 0.889279)
(1.05863 -0.0563705 0.151598 -0.0570527 1.03837 0.339203 0.0304562 -0.00816057 0.889279)
(1.07741 -0.0494862 0.0903929 -0.0501686 1.01959 0.360375 0.0314109 -0.00274804 0.889279)
(1.09271 -0.0365922 0.0264412 -0.0372747 1.00429 0.370597 0.031411 0.00274812 0.889279)
(1.10268 -0.0192432 -0.0383138 -0.0199261 0.994321 0.369558 0.0304568 0.00816082 0.889279)
(1.10611 0.000467757 -0.101905 -0.00021505 0.99089 0.35729 0.0285769 0.0133254 0.889279)
(1.10259 0.0201633 -0.162399 0.0194808 0.994407 0.334167 0.0258286 0.0180853 0.889279)
(1.09255 0.0374684 -0.21796 0.0367857 1.00445 0.30089 0.0222957 0.0222957 0.889278)
(1.07719 0.0502953 -0.266897 0.0496127 1.0198 0.25847 0.0180855 0.0258287 0.889279)
(1.05838 0.0570968 -0.307725 0.0564145 1.03862 0.208197 0.0133254 0.0285766 0.889279)
(1.03837 0.0570527 -0.339203 0.0563705 1.05863 0.151598 0.00816058 0.0304562 0.889279)
(1.01959 0.0501686 -0.360375 0.0494862 1.07741 0.0903929 0.00274804 0.0314109 0.889279)
(1.00429 0.0372747 -0.370597 0.0365922 1.09271 0.0264412 -0.00274812 0.031411 0.889279)
(0.994321 0.0199261 -0.369558 0.0192432 1.10268 -0.0383138 -0.00816082 0.0304568 0.889279)
(0.99089 0.000215044 -0.35729 -0.00046776 1.10611 -0.101905 -0.0133254 0.0285769 0.889279)
(0.994407 -0.0194808 -0.334167 -0.0201633 1.10259 -0.162399 -0.0180853 0.0258286 0.889279)
(1.00445 -0.0367857 -0.30089 -0.0374684 1.09255 -0.21796 -0.0222957 0.0222957 0.889278)
(1.0198 -0.0496127 -0.25847 -0.0502953 1.07719 -0.266897 -0.0258287 0.0180855 0.889279)
(1.03862 -0.0564145 -0.208197 -0.0570968 1.05838 -0.307725 -0.0285766 0.0133254 0.889279)
(1.05863 -0.0563705 -0.151598 -0.0570527 1.03837 -0.339203 -0.0304562 0.00816057 0.889279)
(1.07741 -0.0494862 -0.0903929 -0.0501686 1.01959 -0.360375 -0.0314109 0.00274804 0.889279)
(1.11344 -0.0449074 0.0065533 -0.0275944 0.99104 -0.40635 -0.0222028 -0.00194242 0.859663)
(1.12215 -0.0217892 0.0770155 -0.00447635 0.982332 -0.399039 -0.0215283 -0.00576851 0.859663)
(1.12243 0.00291324 0.145138 0.0202261 0.982057 -0.379603 -0.0201992 -0.00941908 0.859662)
(1.11424 0.02622 0.20885 0.0435326 0.990246 -0.348633 -0.0182567 -0.0127834 0.859662)
(1.09857 0.0453201 0.266216 0.0626331 1.00591 -0.30707 -0.0157596 -0.0157595 0.859662)
(1.07731 0.0579099 0.315494 0.0752232 1.02717 -0.256177 -0.0127836 -0.0182568 0.859662)
(1.05303 0.0624709 0.355186 0.0797839 1.05145 -0.1975 -0.00941886 -0.0201993 0.859663)
(1.02866 0.0584526 0.384085 0.0757656 1.07582 -0.132822 -0.00576829 -0.0215278 0.859662)
(1.00713 0.0463402 0.401315 0.0636531 1.09735 -0.0641082 -0.00194257 -0.0222028 0.859663)
(0.99104 0.0275944 0.40635 0.0449074 1.11344 0.00655331 0.00194242 -0.0222028 0.859663)
(0.982332 0.00447636 0.399039 0.0217892 1.12215 0.0770155 0.00576851 -0.0215283 0.859663)
(0.982057 -0.0202261 0.379603 -0.00291324 1.12243 0.145138 0.00941908 -0.0201992 0.859662)
(0.990246 -0.0435326 0.348633 -0.02622 1.11424 0.20885 0.0127834 -0.0182567 0.859662)
(1.00591 -0.0626331 0.30707 -0.0453201 1.09857 0.266216 0.0157595 -0.0157596 0.859662)
(1.02717 -0.0752232 0.256177 -0.0579099 1.07731 0.315494 0.0182568 -0.0127836 0.859662)
(1.05145 -0.0797839 0.1975 -0.0624709 1.05303 0.355186 0.0201993 -0.00941887 0.859663)
(1.07582 -0.0757656 0.132822 -0.0584526 1.02866 0.384085 0.0215278 -0.00576829 0.859662)
(1.09735 -0.0636531 0.0641082 -0.0463402 1.00713 0.401315 0.0222028 -0.00194257 0.859663)
(1.11344 -0.0449074 -0.00655332 -0.0275944 0.99104 0.40635 0.0222028 0.00194242 0.859663)
(1.12215 -0.0217892 -0.0770155 -0.00447635 0.982332 0.399039 0.0215283 0.00576851 0.859663)
(1.12243 0.00291324 -0.145138 0.0202261 0.982057 0.379603 0.0201992 0.00941908 0.859662)
(1.11424 0.02622 -0.20885 0.0435326 0.990246 0.348633 0.0182567 0.0127834 0.859662)
(1.09857 0.0453201 -0.266216 0.0626331 1.00591 0.30707 0.0157596 0.0157595 0.859662)
(1.07731 0.0579099 -0.315494 0.0752232 1.02717 0.256177 0.0127836 0.0182568 0.859662)
(1.05303 0.0624709 -0.355186 0.0797839 1.05145 0.1975 0.00941886 0.0201993 0.859663)
(1.02866 0.0584526 -0.384085 0.0757656 1.07582 0.132822 0.00576829 0.0215278 0.859662)
(1.00713 0.0463401 -0.401315 0.0636531 1.09735 0.0641082 0.00194257 0.0222028 0.859663)
(0.99104 0.0275944 -0.40635 0.0449074 1.11344 -0.00655331 -0.00194242 0.0222028 0.859663)
(0.982332 0.00447635 -0.399039 0.0217892 1.12215 -0.0770155 -0.00576851 0.0215283 0.859663)
(0.982057 -0.0202261 -0.379603 -0.00291324 1.12243 -0.145138 -0.00941908 0.0201992 0.859662)
(0.990246 -0.0435326 -0.348633 -0.02622 1.11424 -0.20885 -0.0127834 0.0182567 0.859662)
(1.00591 -0.0626331 -0.30707 -0.0453201 1.09857 -0.266216 -0.0157595 0.0157596 0.859662)
(1.02717 -0.0752232 -0.256177 -0.0579099 1.07731 -0.315494 -0.0182568 0.0127836 0.859662)
(1.05145 -0.0797839 -0.1975 -0.0624709 1.05303 -0.355186 -0.0201993 0.00941886 0.859663)
(1.07582 -0.0757656 -0.132822 -0.0584526 1.02866 -0.384085 -0.0215278 0.00576829 0.859662)
(1.09735 -0.0636531 -0.0641083 -0.0463402 1.00713 -0.401315 -0.0222028 0.00194257 0.859663)
(1.13228 -0.0913092 -0.0346102 -0.116543 1.01651 -0.33978 -0.105385 -0.00922032 0.894428)
(1.16434 -0.0652427 0.0249179 -0.0904771 0.984452 -0.340628 -0.102184 -0.0273801 0.894428)
(1.18554 -0.0297853 0.0836887 -0.05502 0.963247 -0.331126 -0.0958772 -0.0447074 0.894428)
(1.19334 0.0107866 0.139917 -0.0144479 0.955447 -0.311563 -0.0866563 -0.0606763 0.894428)
(1.18679 0.0515793 0.191893 0.0263451 0.961995 -0.282533 -0.0748025 -0.0748025 0.894427)
(1.16669 0.0876726 0.238039 0.0624388 0.9821 -0.244919 -0.0606769 -0.0866561 0.894427)
(1.13545 0.114713 0.276953 0.0894793 1.01334 -0.199863 -0.0447074 -0.0958759 0.894427)
(1.09685 0.129439 0.307451 0.104206 1.05194 -0.148734 -0.0273793 -0.102183 0.894428)
(1.05554 0.130075 0.328608 0.104841 1.09325 -0.0930866 -0.00921964 -0.105385 0.894428)
(1.01651 0.116543 0.33978 0.0913092 1.13228 -0.0346102 0.00922032 -0.105385 0.894428)
(0.984452 0.0904771 0.340628 0.0652427 1.16434 0.0249179 0.0273801 -0.102184 0.894428)
(0.963247 0.05502 0.331126 0.0297853 1.18554 0.0836888 0.0447074 -0.0958772 0.894428)
(0.955447 0.0144479 0.311563 -0.0107866 1.19334 0.139917 0.0606763 -0.0866563 0.894428)
(0.961995 -0.0263451 0.282533 -0.0515793 1.18679 0.191893 0.0748025 -0.0748025 0.894427)
(0.9821 -0.0624388 0.244919 -0.0876726 1.16669 0.238039 0.0866561 -0.0606769 0.894427)
(1.01334 -0.0894793 0.199863 -0.114713 1.13545 0.276953 0.0958759 -0.0447074 0.894427)
(1.05194 -0.104205 0.148734 -0.129439 1.09685 0.307451 0.102183 -0.0273793 0.894428)
(1.09325 -0.104841 0.0930866 -0.130075 1.05554 0.328608 0.105385 -0.00921965 0.894428)
(1.13228 -0.0913092 0.0346102 -0.116543 1.01651 0.33978 0.105385 0.00922032 0.894428)
(1.16434 -0.0652427 -0.0249179 -0.0904771 0.984452 0.340628 0.102184 0.0273801 0.894428)
(1.18554 -0.0297853 -0.0836888 -0.05502 0.963247 0.331126 0.0958772 0.0447074 0.894428)
(1.19334 0.0107866 -0.139917 -0.0144479 0.955447 0.311563 0.0866563 0.0606763 0.894428)
(1.18679 0.0515793 -0.191893 0.0263451 0.961995 0.282533 0.0748025 0.0748025 0.894427)
(1.16669 0.0876725 -0.238039 0.0624388 0.9821 0.244919 0.0606769 0.0866561 0.894427)
(1.13545 0.114713 -0.276953 0.0894793 1.01334 0.199863 0.0447074 0.0958759 0.894427)
(1.09685 0.129439 -0.307451 0.104206 1.05194 0.148734 0.0273793 0.102183 0.894428)
(1.05554 0.130075 -0.328608 0.104841 1.09325 0.0930866 0.00921965 0.105385 0.894428)
(1.01651 0.116543 -0.33978 0.0913092 1.13228 0.0346102 -0.00922032 0.105385 0.894428)
(0.984452 0.0904771 -0.340628 0.0652427 1.16434 -0.0249179 -0.0273801 0.102184 0.894428)
(0.963247 0.05502 -0.331126 0.0297853 1.18554 -0.0836888 -0.0447074 0.0958772 0.894428)
(0.955447 0.0144479 -0.311563 -0.0107866 1.19334 -0.139917 -0.0606763 0.0866563 0.894428)
(0.961995 -0.0263452 -0.282533 -0.0515793 1.18679 -0.191893 -0.0748025 0.0748025 0.894427)
(0.9821 -0.0624388 -0.244919 -0.0876726 1.16669 -0.238039 -0.0866561 0.0606769 0.894427)
(1.01334 -0.0894793 -0.199863 -0.114713 1.13545 -0.276953 -0.0958759 0.0447074 0.894427)
(1.05194 -0.104206 -0.148735 -0.129439 1.09685 -0.307451 -0.102183 0.0273793 0.894428)
(1.09325 -0.104841 -0.0930866 -0.130075 1.05554 -0.328608 -0.105385 0.00921964 0.894428)
(1.15716 -0.115091 -0.00888522 -0.10829 1.00559 -0.368013 -0.0937809 -0.00820488 0.868853)
(1.19079 -0.0824358 0.0551545 -0.0756351 0.971961 -0.363965 -0.0909319 -0.024365 0.868853)
(1.21122 -0.0402477 0.117518 -0.0334471 0.951527 -0.348858 -0.0853195 -0.0397846 0.868853)
(1.21599 0.00638423 0.176311 0.0131856 0.946756 -0.323151 -0.077114 -0.0539952 0.868853)
(1.20453 0.0518365 0.229747 0.0586381 0.958221 -0.287626 -0.0665657 -0.0665656 0.868853)
(1.17821 0.0906263 0.276202 0.097428 0.984541 -0.243361 -0.0539955 -0.0771138 0.868853)
(1.14021 0.118075 0.314265 0.124877 1.02254 -0.191701 -0.0397844 -0.0853186 0.868853)
(1.09511 0.130872 0.34278 0.137673 1.06763 -0.134217 -0.0243645 -0.090931 0.868853)
(1.04836 0.127474 0.360879 0.134275 1.11439 -0.0726549 -0.00820457 -0.0937808 0.868853)
(1.00559 0.10829 0.368013 0.115091 1.15716 -0.00888521 0.00820488 -0.0937809 0.868853)
(0.971961 0.0756351 0.363965 0.0824358 1.19079 0.0551545 0.024365 -0.0909319 0.868853)
(0.951527 0.0334471 0.348858 0.0402477 1.21122 0.117518 0.0397846 -0.0853195 0.868853)
(0.946756 -0.0131856 0.323151 -0.00638422 1.21599 0.176311 0.0539952 -0.077114 0.868853)
(0.958221 -0.0586381 0.287626 -0.0518365 1.20453 0.229747 0.0665656 -0.0665657 0.868853)
(0.984541 -0.097428 0.243361 -0.0906263 1.17821 0.276202 0.0771138 -0.0539955 0.868853)
(1.02254 -0.124877 0.191701 -0.118075 1.14021 0.314265 0.0853186 -0.0397844 0.868853)
(1.06763 -0.137673 0.134217 -0.130872 1.09511 0.34278 0.090931 -0.0243645 0.868853)
(1.11439 -0.134275 0.0726549 -0.127473 1.04836 0.360879 0.0937808 -0.00820457 0.868853)
(1.15716 -0.115091 0.00888519 -0.10829 1.00559 0.368013 0.0937809 0.00820487 0.868853)
(1.19079 -0.0824358 -0.0551545 -0.0756351 0.971961 0.363965 0.0909319 0.024365 0.868853)
(1.21122 -0.0402477 -0.117518 -0.0334471 0.951527 0.348858 0.0853195 0.0397846 0.868853)
(1.21599 0.00638422 -0.176311 0.0131856 0.946756 0.323151 0.077114 0.0539952 0.868853)
(1.20453 0.0518365 -0.229747 0.0586381 0.958221 0.287626 0.0665657 0.0665656 0.868853)
(1.17821 0.0906263 -0.276202 0.097428 0.984541 0.243361 0.0539955 0.0771138 0.868853)
(1.14021 0.118075 -0.314265 0.124877 1.02254 0.191701 0.0397844 0.0853186 0.868853)
(1.09511 0.130872 -0.34278 0.137673 1.06763 0.134217 0.0243645 0.090931 0.868853)
(1.04836 0.127473 -0.360879 0.134275 1.11439 0.0726549 0.00820457 0.0937808 0.868853)
(1.00559 0.10829 -0.368013 0.115091 1.15716 0.0088852 -0.00820487 0.0937809 0.868853)
(0.971961 0.075635 -0.363965 0.0824358 1.19079 -0.0551545 -0.024365 0.0909319 0.868853)
(0.951527 0.0334471 -0.348858 0.0402477 1.21122 -0.117518 -0.0397846 0.0853195 0.868853)
(0.946756 -0.0131856 -0.323151 -0.00638423 1.21599 -0.176311 -0.0539952 0.077114 0.868853)
(0.958221 -0.0586381 -0.287626 -0.0518365 1.20453 -0.229747 -0.0665656 0.0665657 0.868853)
(0.984541 -0.0974281 -0.243361 -0.0906263 1.17821 -0.276202 -0.0771138 0.0539955 0.868853)
(1.02254 -0.124877 -0.191701 -0.118075 1.14021 -0.314265 -0.0853186 0.0397844 0.868853)
(1.06763 -0.137673 -0.134217 -0.130872 1.09511 -0.34278 -0.090931 0.0243645 0.868853)
(1.11439 -0.134275 -0.0726549 -0.127473 1.04836 -0.360879 -0.0937808 0.00820457 0.868853)
(1.18313 -0.143136 0.0177496 -0.0959876 0.985629 -0.395248 -0.0807982 -0.00706889 0.844604)
(1.21806 -0.102152 0.0861139 -0.0550038 0.950692 -0.386161 -0.0783435 -0.0209919 0.844604)
(1.23688 -0.0516898 0.151862 -0.00454175 0.931879 -0.365341 -0.0735079 -0.0342771 0.844604)
(1.23729 0.00216331 0.212995 0.0493115 0.931459 -0.33342 -0.0664383 -0.0465205 0.844605)
(1.21927 0.0529119 0.267657 0.100061 0.949484 -0.291369 -0.0573506 -0.0573504 0.844605)
(1.18498 0.0944353 0.314186 0.141584 0.98378 -0.240464 -0.0465204 -0.0664382 0.844605)
(1.13855 0.121725 0.351169 0.168874 1.03021 -0.182253 -0.0342767 -0.0735072 0.844604)
(1.08558 0.131489 0.377482 0.178638 1.08317 -0.118504 -0.0209917 -0.0783427 0.844604)
(1.03248 0.122551 0.392325 0.1697 1.13628 -0.051154 -0.00706889 -0.0807981 0.844604)
(0.985629 0.0959876 0.395248 0.143136 1.18313 0.0177497 0.00706889 -0.0807982 0.844604)
(0.950692 0.0550038 0.386161 0.102152 1.21806 0.0861139 0.0209919 -0.0783435 0.844604)
(0.931879 0.00454176 0.365341 0.0516898 1.23688 0.151862 0.0342771 -0.0735079 0.844604)
(0.931459 -0.0493115 0.33342 -0.00216331 1.23729 0.212995 0.0465205 -0.0664383 0.844605)
(0.949484 -0.100061 0.291369 -0.0529119 1.21927 0.267657 0.0573504 -0.0573506 0.844605)
(0.98378 -0.141584 0.240464 -0.0944353 1.18498 0.314186 0.0664382 -0.0465204 0.844605)
(1.03021 -0.168874 0.182252 -0.121725 1.13855 0.351169 0.0735072 -0.0342767 0.844604)
(1.08317 -0.178638 0.118504 -0.131489 1.08558 0.377482 0.0783427 -0.0209917 0.844604)
(1.13628 -0.1697 0.051154 -0.122551 1.03248 0.392325 0.0807981 -0.00706889 0.844604)
(1.18313 -0.143136 -0.0177497 -0.0959876 0.985629 0.395248 0.0807982 0.00706889 0.844604)
(1.21806 -0.102152 -0.0861139 -0.0550038 0.950692 0.386161 0.0783435 0.0209919 0.844604)
(1.23688 -0.0516898 -0.151862 -0.00454175 0.931879 0.365341 0.0735079 0.0342771 0.844604)
(1.23729 0.0021633 -0.212995 0.0493115 0.931459 0.33342 0.0664383 0.0465204 0.844605)
(1.21927 0.0529119 -0.267657 0.100061 0.949484 0.291369 0.0573506 0.0573504 0.844605)
(1.18498 0.0944353 -0.314186 0.141584 0.98378 0.240464 0.0465204 0.0664382 0.844605)
(1.13855 0.121725 -0.351169 0.168874 1.03021 0.182252 0.0342767 0.0735072 0.844604)
(1.08558 0.131489 -0.377482 0.178638 1.08317 0.118504 0.0209917 0.0783427 0.844604)
(1.03248 0.122551 -0.392325 0.1697 1.13628 0.051154 0.0070689 0.0807981 0.844604)
(0.985629 0.0959875 -0.395248 0.143136 1.18313 -0.0177497 -0.00706889 0.0807982 0.844604)
(0.950692 0.0550038 -0.386161 0.102152 1.21806 -0.0861139 -0.0209919 0.0783435 0.844604)
(0.931879 0.00454174 -0.365341 0.0516898 1.23688 -0.151862 -0.0342771 0.0735079 0.844604)
(0.931459 -0.0493115 -0.33342 -0.00216331 1.23729 -0.212995 -0.0465205 0.0664383 0.844605)
(0.949484 -0.100061 -0.291369 -0.0529119 1.21927 -0.267657 -0.0573504 0.0573506 0.844605)
(0.98378 -0.141584 -0.240464 -0.0944353 1.18498 -0.314186 -0.0664382 0.0465204 0.844605)
(1.03021 -0.168874 -0.182253 -0.121725 1.13855 -0.351169 -0.0735072 0.0342767 0.844604)
(1.08317 -0.178638 -0.118504 -0.131489 1.08558 -0.377482 -0.0783427 0.0209917 0.844604)
(1.13628 -0.1697 -0.051154 -0.122551 1.03248 -0.392325 -0.0807981 0.00706889 0.844604)
(1.17992 -0.15578 0.00670905 -0.154385 1.01745 -0.335257 -0.140013 -0.0122497 0.864177)
(1.22806 -0.118644 0.064824 -0.117249 0.969309 -0.328999 -0.135759 -0.0363763 0.864177)
(1.2606 -0.0672821 0.120969 -0.0658878 0.936772 -0.312744 -0.12738 -0.0593973 0.864177)
(1.27361 -0.00788892 0.173439 -0.00649477 0.923762 -0.286987 -0.115129 -0.0806135 0.864177)
(1.26552 0.0523714 0.220638 0.0537658 0.931852 -0.252509 -0.0993812 -0.0993807 0.864178)
(1.23731 0.106231 0.261134 0.107626 0.960064 -0.21036 -0.080614 -0.115129 0.864177)
(1.19237 0.147193 0.293696 0.148589 1.005 -0.161818 -0.059397 -0.127378 0.864177)
(1.13614 0.170318 0.317333 0.171713 1.06123 -0.10836 -0.0363753 -0.135758 0.864177)
(1.07539 0.172816 0.331329 0.174211 1.12198 -0.0516097 -0.0122488 -0.140013 0.864177)
(1.01745 0.154385 0.335257 0.15578 1.17992 0.00670906 0.0122497 -0.140013 0.864177)
(0.969309 0.117249 0.328999 0.118644 1.22806 0.0648241 0.0363763 -0.135759 0.864177)
(0.936772 0.0658878 0.312744 0.0672821 1.2606 0.120969 0.0593973 -0.12738 0.864177)
(0.923762 0.00649478 0.286987 0.00788892 1.27361 0.173439 0.0806135 -0.115129 0.864177)
(0.931852 -0.0537658 0.252509 -0.0523714 1.26552 0.220638 0.0993807 -0.0993812 0.864178)
(0.960064 -0.107626 0.21036 -0.106231 1.23731 0.261134 0.115129 -0.0806139 0.864177)
(1.005 -0.148589 0.161818 -0.147193 1.19237 0.293696 0.127378 -0.059397 0.864177)
(1.06123 -0.171713 0.10836 -0.170318 1.13614 0.317333 0.135758 -0.0363753 0.864177)
(1.12198 -0.174211 0.0516097 -0.172816 1.07539 0.331329 0.140013 -0.0122488 0.864177)
(1.17992 -0.15578 -0.00670908 -0.154385 1.01745 0.335257 0.140013 0.0122497 0.864177)
(1.22806 -0.118644 -0.0648241 -0.117249 0.969309 0.328999 0.135759 0.0363763 0.864177)
(1.2606 -0.0672821 -0.120969 -0.0658878 0.936772 0.312744 0.12738 0.0593973 0.864177)
(1.27361 -0.00788893 -0.173439 -0.00649477 0.923762 0.286987 0.115129 0.0806135 0.864177)
(1.26552 0.0523714 -0.220638 0.0537658 0.931852 0.252509 0.0993812 0.0993807 0.864178)
(1.23731 0.106231 -0.261134 0.107626 0.960064 0.21036 0.080614 0.115129 0.864177)
(1.19237 0.147193 -0.293696 0.148589 1.005 0.161818 0.059397 0.127378 0.864177)
(1.13614 0.170318 -0.317333 0.171713 1.06123 0.10836 0.0363753 0.135758 0.864177)
(1.07539 0.172816 -0.331329 0.174211 1.12198 0.0516097 0.0122488 0.140013 0.864177)
(1.01745 0.154385 -0.335257 0.15578 1.17992 -0.00670907 -0.0122497 0.140013 0.864177)
(0.969309 0.117249 -0.328999 0.118644 1.22806 -0.0648241 -0.0363763 0.135759 0.864177)
(0.936772 0.0658878 -0.312744 0.0672821 1.2606 -0.120969 -0.0593973 0.12738 0.864177)
(0.923762 0.00649476 -0.286987 0.00788892 1.27361 -0.173439 -0.0806135 0.115129 0.864177)
(0.931852 -0.0537659 -0.252509 -0.0523714 1.26552 -0.220638 -0.0993807 0.0993812 0.864178)
(0.960064 -0.107626 -0.21036 -0.106231 1.23731 -0.261134 -0.115129 0.080614 0.864177)
(1.005 -0.148589 -0.161818 -0.147193 1.19237 -0.293696 -0.127378 0.059397 0.864177)
(1.06123 -0.171713 -0.10836 -0.170318 1.13614 -0.317333 -0.135758 0.0363753 0.864177)
(1.12198 -0.174211 -0.0516097 -0.172816 1.07539 -0.331329 -0.140013 0.0122488 0.864177)
(1.20376 -0.191374 0.0209496 -0.145423 1.00221 -0.346989 -0.12999 -0.0113728 0.850398)
(1.25528 -0.146751 0.0808854 -0.1008 0.950696 -0.33808 -0.12604 -0.0337722 0.850398)
(1.28843 -0.0871991 0.138363 -0.0412485 0.917547 -0.318898 -0.118261 -0.0551455 0.850398)
(1.29921 -0.019901 0.191637 0.0260498 0.906764 -0.290026 -0.106887 -0.0748428 0.850398)
(1.28633 0.0470265 0.239088 0.0929775 0.91965 -0.252343 -0.0922667 -0.0922663 0.850398)
(1.25133 0.105511 0.279275 0.151462 0.954649 -0.206992 -0.0748429 -0.106887 0.850398)
(1.19844 0.148497 0.310976 0.194449 1.00754 -0.155352 -0.055145 -0.118259 0.850398)
(1.13404 0.170802 0.333228 0.216754 1.07194 -0.098991 -0.0337716 -0.126039 0.850397)
(1.06589 0.169734 0.345355 0.215686 1.14009 -0.0396227 -0.0113722 -0.129989 0.850398)
(1.00221 0.145423 0.346989 0.191374 1.20376 0.0209496 0.0113728 -0.12999 0.850398)
(0.950696 0.1008 0.33808 0.146751 1.25528 0.0808854 0.0337722 -0.12604 0.850398)
(0.917547 0.0412485 0.318898 0.0871991 1.28843 0.138363 0.0551455 -0.118261 0.850398)
(0.906764 -0.0260498 0.290026 0.019901 1.29921 0.191637 0.0748428 -0.106887 0.850398)
(0.91965 -0.0929775 0.252343 -0.0470265 1.28633 0.239088 0.0922663 -0.0922666 0.850398)
(0.954649 -0.151462 0.206992 -0.105511 1.25133 0.279275 0.106887 -0.0748429 0.850398)
(1.00754 -0.194449 0.155352 -0.148497 1.19844 0.310976 0.118259 -0.055145 0.850398)
(1.07194 -0.216754 0.098991 -0.170802 1.13404 0.333228 0.126039 -0.0337716 0.850397)
(1.14009 -0.215686 0.0396226 -0.169734 1.06589 0.345355 0.129989 -0.0113722 0.850398)
(1.20376 -0.191374 -0.0209497 -0.145423 1.00221 0.346989 0.12999 0.0113728 0.850398)
(1.25528 -0.146751 -0.0808855 -0.1008 0.950696 0.33808 0.12604 0.0337722 0.850398)
(1.28843 -0.0871991 -0.138363 -0.0412485 0.917547 0.318898 0.118261 0.0551454 0.850398)
(1.29921 -0.019901 -0.191637 0.0260498 0.906764 0.290026 0.106887 0.0748428 0.850398)
(1.28633 0.0470265 -0.239088 0.0929775 0.91965 0.252343 0.0922667 0.0922663 0.850398)
(1.25133 0.105511 -0.279275 0.151462 0.954649 0.206992 0.0748429 0.106887 0.850398)
(1.19844 0.148497 -0.310976 0.194449 1.00754 0.155352 0.055145 0.118259 0.850398)
(1.13404 0.170802 -0.333228 0.216754 1.07194 0.098991 0.0337716 0.126039 0.850397)
(1.06589 0.169734 -0.345355 0.215686 1.14009 0.0396227 0.0113722 0.129989 0.850397)
(1.00221 0.145423 -0.346989 0.191374 1.20376 -0.0209496 -0.0113728 0.12999 0.850398)
(0.950696 0.1008 -0.33808 0.146751 1.25528 -0.0808854 -0.0337722 0.12604 0.850398)
(0.917547 0.0412485 -0.318898 0.0871991 1.28843 -0.138363 -0.0551455 0.118261 0.850398)
(0.906764 -0.0260498 -0.290026 0.019901 1.29921 -0.191637 -0.0748428 0.106887 0.850398)
(0.91965 -0.0929775 -0.252343 -0.0470265 1.28633 -0.239088 -0.0922663 0.0922667 0.850398)
(0.954649 -0.151462 -0.206992 -0.105511 1.25133 -0.279275 -0.106887 0.0748429 0.850398)
(1.00754 -0.194449 -0.155352 -0.148497 1.19844 -0.310976 -0.118259 0.055145 0.850398)
(1.07194 -0.216754 -0.098991 -0.170802 1.13404 -0.333228 -0.126039 0.0337716 0.850397)
(1.14009 -0.215686 -0.0396227 -0.169734 1.06589 -0.345355 -0.129989 0.0113722 0.850397)
(1.22846 -0.233796 0.0331492 -0.130855 0.977697 -0.358357 -0.11789 -0.010314 0.835569)
(1.28326 -0.179917 0.0948736 -0.0769768 0.9229 -0.347157 -0.114308 -0.0306286 0.835569)
(1.31632 -0.110545 0.153715 -0.0076053 0.889834 -0.325408 -0.107252 -0.0500125 0.835569)
(1.32367 -0.0340486 0.207886 0.0688916 0.882489 -0.293772 -0.0969376 -0.0678764 0.835569)
(1.30441 0.040347 0.255741 0.143288 0.901751 -0.25321 -0.083678 -0.0836779 0.835569)
(1.26086 0.103668 0.295825 0.206609 0.945296 -0.204954 -0.0678761 -0.0969372 0.835569)
(1.19829 0.148277 0.326921 0.251218 1.00787 -0.150471 -0.050012 -0.107251 0.835569)
(1.12423 0.168793 0.348083 0.271735 1.08193 -0.0914155 -0.0306283 -0.114307 0.835569)
(1.04762 0.162743 0.358669 0.265684 1.15854 -0.0295825 -0.0103139 -0.117889 0.835569)
(0.977697 0.130855 0.358357 0.233796 1.22846 0.0331492 0.010314 -0.11789 0.835569)
(0.9229 0.0769769 0.347157 0.179917 1.28326 0.0948736 0.0306286 -0.114308 0.835569)
(0.889834 0.00760532 0.325408 0.110545 1.31632 0.153715 0.0500125 -0.107252 0.835569)
(0.882489 -0.0688916 0.293772 0.0340486 1.32367 0.207887 0.0678764 -0.0969376 0.835569)
(0.901751 -0.143288 0.25321 -0.040347 1.30441 0.255741 0.0836779 -0.083678 0.835569)
(0.945296 -0.206609 0.204954 -0.103668 1.26086 0.295825 0.0969372 -0.0678761 0.835569)
(1.00787 -0.251218 0.150471 -0.148277 1.19829 0.326921 0.107251 -0.050012 0.835569)
(1.08193 -0.271735 0.0914155 -0.168793 1.12423 0.348083 0.114307 -0.0306283 0.835569)
(1.15854 -0.265684 0.0295825 -0.162743 1.04762 0.358669 0.117889 -0.0103139 0.835569)
(1.22846 -0.233796 -0.0331492 -0.130855 0.977697 0.358357 0.11789 0.010314 0.835569)
(1.28326 -0.179917 -0.0948737 -0.0769768 0.9229 0.347157 0.114308 0.0306286 0.835569)
(1.31632 -0.110545 -0.153715 -0.00760531 0.889834 0.325408 0.107252 0.0500125 0.835569)
(1.32367 -0.0340486 -0.207887 0.0688916 0.882489 0.293772 0.0969376 0.0678763 0.835569)
(1.30441 0.040347 -0.255741 0.143288 0.901751 0.25321 0.083678 0.0836779 0.835569)
(1.26086 0.103668 -0.295825 0.206609 0.945296 0.204954 0.0678761 0.0969372 0.835569)
(1.19829 0.148277 -0.326921 0.251218 1.00787 0.150471 0.050012 0.107251 0.835569)
(1.12423 0.168793 -0.348083 0.271735 1.08193 0.0914155 0.0306283 0.114307 0.835569)
(1.04762 0.162743 -0.358669 0.265684 1.15854 0.0295825 0.0103139 0.117889 0.835569)
(0.977697 0.130855 -0.358357 0.233796 1.22846 -0.0331492 -0.010314 0.11789 0.835569)
(0.9229 0.0769768 -0.347157 0.179917 1.28326 -0.0948736 -0.0306286 0.114308 0.835569)
(0.889834 0.00760529 -0.325408 0.110545 1.31632 -0.153715 -0.0500125 0.107252 0.835569)
(0.882489 -0.0688916 -0.293772 0.0340486 1.32367 -0.207887 -0.0678763 0.0969376 0.835569)
(0.901751 -0.143288 -0.25321 -0.040347 1.30441 -0.255741 -0.0836779 0.083678 0.835569)
(0.945296 -0.206609 -0.204954 -0.103668 1.26086 -0.295825 -0.0969372 0.0678761 0.835569)
(1.00787 -0.251218 -0.150471 -0.148277 1.19829 -0.326921 -0.107251 0.050012 0.835569)
(1.08193 -0.271735 -0.0914155 -0.168793 1.12423 -0.348083 -0.114307 0.0306283 0.835569)
(1.15854 -0.265684 -0.0295825 -0.162743 1.04762 -0.358669 -0.117889 0.0103139 0.835569)
(1.20047 -0.223015 0.0483311 -0.158115 1.01036 -0.314378 -0.15694 -0.0137309 0.86028)
(1.25991 -0.179013 0.102188 -0.114113 0.950918 -0.30121 -0.152171 -0.0407742 0.86028)
(1.30072 -0.117333 0.15294 -0.0524337 0.910108 -0.278889 -0.142779 -0.0665786 0.86028)
(1.31798 -0.0454149 0.199045 0.0194841 0.892854 -0.248094 -0.129048 -0.0903602 0.86028)
(1.30959 0.0280667 0.239102 0.092966 0.901239 -0.209761 -0.111397 -0.111396 0.86028)
(1.27658 0.0942494 0.271894 0.159149 0.93425 -0.165054 -0.0903603 -0.129047 0.86028)
(1.22292 0.14515 0.296425 0.21005 0.987906 -0.115333 -0.0665784 -0.142778 0.86028)
(1.15509 0.17463 0.311949 0.239529 1.05574 -0.0621069 -0.0407733 -0.15217 0.86028)