/*--------------------------------*- C++ -*----------------------------------*\
| =========                 |                                                 |
| \\      /  F ield         | OpenFOAM: The Open Source CFD Toolbox           |
|  \\    /   O peration     | Version:  2312                                  |
|   \\  /    A nd           | Website:  www.openfoam.com                      |
|    \\/     M anipulation  |                                                 |
\*---------------------------------------------------------------------------*/
FoamFile
{
    version     2.0;
    format      ascii;
    arch        "LSB;label=32;scalar=64";
    class       volScalarField;
    location    "0.9";
    object      sigmaHyd;
}
// * * * * * * * * * * * * * * * * * * * * * * * * * * * * * * * * * * * * * //

dimensions      [1 -1 -2 0 0 0 0];

internalField   nonuniform List<scalar> 
1620
(
-5151.35
-5151.29
-5151.26
-5151.49
-5151.54
-5151.44
-5151.41
-5151.4
-5151.37
-5151.35
-5151.29
-5151.26
-5151.48
-5151.54
-5151.44
-5151.41
-5151.4
-5151.37
-5151.35
-5151.29
-5151.26
-5151.49
-5151.54
-5151.44
-5151.41
-5151.4
-5151.37
-5151.35
-5151.29
-5151.26
-5151.49
-5151.54
-5151.44
-5151.41
-5151.4
-5151.37
-28092.7
-28092.6
-28092.6
-28092.7
-28092.8
-28092.8
-28092.7
-28092.7
-28092.8
-28092.7
-28092.6
-28092.6
-28092.7
-28092.8
-28092.8
-28092.7
-28092.7
-28092.8
-28092.7
-28092.6
-28092.6
-28092.7
-28092.8
-28092.8
-28092.7
-28092.7
-28092.8
-28092.7
-28092.6
-28092.6
-28092.7
-28092.8
-28092.8
-28092.7
-28092.7
-28092.8
-55113.8
-55113.8
-55114
-55113.8
-55113.9
-55113.7
-55113.8
-55113.9
-55113.8
-55113.7
-55113.8
-55114
-55113.8
-55113.9
-55113.7
-55113.8
-55113.9
-55113.8
-55113.7
-55113.8
-55114
-55113.8
-55113.9
-55113.7
-55113.8
-55113.9
-55113.8
-55113.8
-55113.8
-55114
-55113.8
-55113.9
-55113.8
-55113.8
-55113.9
-55113.8
9338.48
9338.38
9338.52
9338.52
9338.57
9338.53
9338.31
9338.44
9338.5
9338.48
9338.38
9338.52
9338.52
9338.57
9338.53
9338.31
9338.44
9338.5
9338.48
9338.38
9338.52
9338.52
9338.57
9338.53
9338.31
9338.44
9338.5
9338.48
9338.38
9338.52
9338.52
9338.57
9338.53
9338.31
9338.44
9338.5
-8152.66
-8152.57
-8152.68
-8152.68
-8152.67
-8152.87
-8152.59
-8152.62
-8152.65
-8152.66
-8152.57
-8152.68
-8152.68
-8152.67
-8152.87
-8152.59
-8152.62
-8152.65
-8152.66
-8152.57
-8152.68
-8152.68
-8152.67
-8152.87
-8152.59
-8152.62
-8152.65
-8152.66
-8152.57
-8152.68
-8152.68
-8152.67
-8152.87
-8152.59
-8152.62
-8152.65
-33710.9
-33710.9
-33710.9
-33710.9
-33710.8
-33710.6
-33710.8
-33710.8
-33710.9
-33710.9
-33710.9
-33710.9
-33710.9
-33710.8
-33710.6
-33710.8
-33710.8
-33710.9
-33710.9
-33710.9
-33710.9
-33710.9
-33710.8
-33710.6
-33710.8
-33710.8
-33710.9
-33710.9
-33710.9
-33710.9
-33710.9
-33710.8
-33710.6
-33710.8
-33710.8
-33710.9
5464.8
5464.66
5464.78
5464.75
5464.9
5464.87
5464.65
5464.76
5464.62
5464.8
5464.66
5464.78
5464.75
5464.9
5464.87
5464.65
5464.76
5464.62
5464.8
5464.66
5464.78
5464.75
5464.9
5464.87
5464.65
5464.76
5464.62
5464.8
5464.66
5464.78
5464.75
5464.9
5464.87
5464.65
5464.76
5464.62
-8374.7
-8374.62
-8374.68
-8374.5
-8374.53
-8374.71
-8374.59
-8374.81
-8374.6
-8374.7
-8374.62
-8374.68
-8374.5
-8374.53
-8374.71
-8374.59
-8374.81
-8374.6
-8374.7
-8374.62
-8374.68
-8374.5
-8374.53
-8374.71
-8374.59
-8374.81
-8374.6
-8374.7
-8374.62
-8374.68
-8374.5
-8374.53
-8374.71
-8374.59
-8374.81
-8374.6
-33090.8
-33090.9
-33090.7
-33090.8
-33090.9
-33090.9
-33091
-33090.7
-33090.8
-33090.8
-33090.9
-33090.7
-33090.8
-33090.9
-33090.9
-33091
-33090.7
-33090.8
-33090.8
-33090.9
-33090.7
-33090.8
-33090.9
-33090.9
-33091
-33090.7
-33090.8
-33090.8
-33090.9
-33090.7
-33090.8
-33090.9
-33090.9
-33091
-33090.7
-33090.8
4677.16
4677.19
4677.1
4677.26
4677.29
4677.28
4677.35
4677.15
4677.21
4677.16
4677.19
4677.1
4677.26
4677.29
4677.28
4677.35
4677.15
4677.21
4677.16
4677.19
4677.1
4677.26
4677.29
4677.28
4677.35
4677.15
4677.21
4677.16
4677.19
4677.1
4677.26
4677.29
4677.28
4677.35
4677.15
4677.21
-7861.9
-7861.93
-7861.95
-7861.87
-7861.99
-7861.9
-7861.96
-7861.94
-7861.92
-7861.9
-7861.93
-7861.95
-7861.87
-7861.99
-7861.9
-7861.96
-7861.94
-7861.92
-7861.9
-7861.93
-7861.95
-7861.87
-7861.99
-7861.9
-7861.96
-7861.94
-7861.92
-7861.91
-7861.93
-7861.95
-7861.87
-7861.99
-7861.9
-7861.96
-7861.94
-7861.92
-30646.3
-30646.4
-30646.3
-30646.4
-30646.4
-30646.3
-30646.4
-30646.3
-30646.3
-30646.3
-30646.4
-30646.3
-30646.4
-30646.4
-30646.3
-30646.4
-30646.3
-30646.3
-30646.3
-30646.4
-30646.3
-30646.4
-30646.4
-30646.3
-30646.4
-30646.3
-30646.3
-30646.3
-30646.4
-30646.3
-30646.4
-30646.4
-30646.3
-30646.4
-30646.3
-30646.3
3653.27
3653.37
3653.16
3653.3
3653.2
3653.25
3653.46
3653.18
3653.31
3653.27
3653.37
3653.16
3653.3
3653.2
3653.25
3653.46
3653.18
3653.31
3653.27
3653.37
3653.16
3653.3
3653.2
3653.25
3653.46
3653.18
3653.31
3653.27
3653.37
3653.16
3653.3
3653.2
3653.25
3653.46
3653.18
3653.31
-7997.49
-7997.7
-7997.47
-7997.62
-7997.59
-7997.5
-7997.67
-7997.49
-7997.58
-7997.49
-7997.7
-7997.47
-7997.62
-7997.59
-7997.5
-7997.66
-7997.49
-7997.58
-7997.49
-7997.7
-7997.47
-7997.62
-7997.59
-7997.5
-7997.67
-7997.49
-7997.58
-7997.49
-7997.7
-7997.47
-7997.62
-7997.59
-7997.5
-7997.67
-7997.5
-7997.58
-28875.3
-28875.1
-28875.2
-28875.2
-28875.1
-28875.2
-28875.2
-28875.3
-28875.1
-28875.3
-28875.1
-28875.2
-28875.2
-28875.1
-28875.2
-28875.2
-28875.3
-28875.1
-28875.3
-28875.1
-28875.2
-28875.2
-28875.1
-28875.2
-28875.2
-28875.3
-28875.1
-28875.3
-28875.1
-28875.2
-28875.2
-28875.1
-28875.2
-28875.2
-28875.3
-28875.1
2289.22
2289.33
2289.19
2289.31
2289.22
2289.23
2289.29
2289.16
2289.3
2289.22
2289.33
2289.19
2289.31
2289.22
2289.23
2289.29
2289.16
2289.3
2289.22
2289.33
2289.19
2289.31
2289.22
2289.23
2289.29
2289.16
2289.3
2289.22
2289.33
2289.19
2289.31
2289.22
2289.23
2289.29
2289.16
2289.3
-8350.34
-8350.51
-8350.38
-8350.43
-8350.42
-8350.43
-8350.47
-8350.24
-8350.5
-8350.34
-8350.5
-8350.38
-8350.43
-8350.42
-8350.43
-8350.47
-8350.24
-8350.5
-8350.34
-8350.5
-8350.38
-8350.43
-8350.42
-8350.43
-8350.47
-8350.24
-8350.5
-8350.34
-8350.5
-8350.38
-8350.43
-8350.42
-8350.43
-8350.47
-8350.24
-8350.5
-27080.1
-27079.9
-27080.2
-27080.1
-27080.2
-27080.3
-27080.2
-27080.3
-27080.1
-27080.1
-27079.9
-27080.2
-27080.1
-27080.2
-27080.3
-27080.2
-27080.3
-27080.1
-27080.1
-27079.9
-27080.2
-27080.1
-27080.2
-27080.3
-27080.2
-27080.3
-27080.2
-27080.1
-27079.9
-27080.2
-27080.1
-27080.2
-27080.3
-27080.2
-27080.3
-27080.2
116.672
116.753
116.477
116.864
116.652
116.507
116.749
116.509
116.646
116.672
116.753
116.477
116.865
116.652
116.508
116.75
116.509
116.647
116.673
116.755
116.478
116.866
116.653
116.509
116.751
116.51
116.647
116.673
116.755
116.478
116.866
116.653
116.508
116.75
116.509
116.646
-8892.2
-8892.57
-8892.27
-8892.51
-8892.42
-8892.19
-8892.46
-8892.26
-8892.5
-8892.2
-8892.57
-8892.27
-8892.51
-8892.42
-8892.18
-8892.46
-8892.26
-8892.5
-8892.2
-8892.57
-8892.27
-8892.51
-8892.42
-8892.18
-8892.46
-8892.26
-8892.5
-8892.2
-8892.57
-8892.27
-8892.51
-8892.42
-8892.19
-8892.46
-8892.26
-8892.5
-24957.1
-24956.9
-24957.1
-24957
-24957
-24957.1
-24957
-24957.1
-24956.8
-24957.1
-24956.9
-24957.1
-24957
-24957
-24957.1
-24957
-24957.1
-24956.8
-24957.1
-24956.9
-24957.1
-24957
-24957
-24957.1
-24957
-24957.1
-24956.8
-24957.1
-24956.9
-24957.1
-24957
-24957
-24957.1
-24957
-24957.1
-24956.8
-3017.47
-3017.58
-3017.65
-3017.47
-3017.66
-3017.66
-3017.6
-3017.66
-3017.68
-3017.47
-3017.58
-3017.65
-3017.47
-3017.66
-3017.66
-3017.6
-3017.66
-3017.67
-3017.47
-3017.58
-3017.65
-3017.47
-3017.66
-3017.66
-3017.6
-3017.66
-3017.67
-3017.47
-3017.58
-3017.65
-3017.47
-3017.66
-3017.66
-3017.6
-3017.66
-3017.68
-9531.93
-9531.92
-9531.78
-9531.99
-9531.86
-9531.72
-9531.88
-9531.87
-9531.72
-9531.93
-9531.92
-9531.78
-9531.99
-9531.86
-9531.72
-9531.88
-9531.87
-9531.71
-9531.93
-9531.92
-9531.78
-9531.99
-9531.86
-9531.72
-9531.88
-9531.87
-9531.72
-9531.93
-9531.92
-9531.78
-9531.99
-9531.86
-9531.72
-9531.88
-9531.87
-9531.72
-22094.4
-22094.3
-22094.3
-22094.3
-22094.4
-22094.5
-22094.5
-22094.4
-22094.4
-22094.4
-22094.3
-22094.3
-22094.3
-22094.4
-22094.5
-22094.5
-22094.4
-22094.4
-22094.4
-22094.3
-22094.3
-22094.3
-22094.4
-22094.5
-22094.5
-22094.4
-22094.4
-22094.4
-22094.3
-22094.3
-22094.3
-22094.4
-22094.5
-22094.5
-22094.4
-22094.4
-6940.49
-6940.44
-6940.35
-6940.4
-6940.49
-6940.53
-6940.54
-6940.44
-6940.35
-6940.49
-6940.44
-6940.35
-6940.4
-6940.49
-6940.53
-6940.53
-6940.44
-6940.35
-6940.49
-6940.44
-6940.34
-6940.39
-6940.49
-6940.53
-6940.53
-6940.44
-6940.35
-6940.49
-6940.44
-6940.34
-6940.4
-6940.49
-6940.53
-6940.53
-6940.44
-6940.35
-10129.3
-10129.3
-10129.4
-10129.1
-10129.3
-10129.3
-10129.2
-10129.4
-10129.3
-10129.3
-10129.3
-10129.4
-10129.1
-10129.3
-10129.3
-10129.2
-10129.4
-10129.3
-10129.3
-10129.3
-10129.4
-10129.1
-10129.3
-10129.3
-10129.2
-10129.4
-10129.3
-10129.3
-10129.3
-10129.4
-10129.1
-10129.3
-10129.3
-10129.2
-10129.4
-10129.3
-18183.6
-18183.8
-18183.7
-18183.9
-18183.9
-18183.8
-18183.8
-18183.7
-18183.9
-18183.6
-18183.8
-18183.7
-18183.9
-18183.9
-18183.8
-18183.8
-18183.7
-18183.9
-18183.6
-18183.8
-18183.7
-18183.9
-18183.9
-18183.8
-18183.8
-18183.7
-18183.9
-18183.6
-18183.8
-18183.7
-18183.9
-18183.9
-18183.8
-18183.8
-18183.7
-18183.9
-11020.2
-11020.2
-11020.1
-11020
-11020.1
-11020.2
-11020.2
-11020
-11020
-11020.2
-11020.2
-11020.1
-11020
-11020.1
-11020.2
-11020.2
-11020
-11020
-11020.1
-11020.2
-11020.1
-11020
-11020.1
-11020.2
-11020.2
-11020
-11020
-11020.1
-11020.2
-11020.1
-11020
-11020.1
-11020.2
-11020.2
-11020
-11020
-10463.4
-10463.3
-10463.5
-10463.5
-10463.4
-10463.5
-10463.4
-10463.4
-10463.5
-10463.4
-10463.3
-10463.5
-10463.5
-10463.4
-10463.5
-10463.4
-10463.4
-10463.5
-10463.4
-10463.3
-10463.5
-10463.5
-10463.4
-10463.5
-10463.4
-10463.4
-10463.5
-10463.4
-10463.3
-10463.5
-10463.5
-10463.4
-10463.5
-10463.4
-10463.4
-10463.5
-13251.3
-13251.4
-13251.4
-13251.5
-13251.4
-13251.3
-13251.3
-13251.4
-13251.5
-13251.3
-13251.4
-13251.4
-13251.5
-13251.4
-13251.3
-13251.3
-13251.4
-13251.5
-13251.3
-13251.4
-13251.4
-13251.5
-13251.4
-13251.3
-13251.3
-13251.4
-13251.5
-13251.3
-13251.4
-13251.4
-13251.5
-13251.4
-13251.3
-13251.3
-13251.4
-13251.5
-14027.2
-14027.2
-14027
-14027.1
-14027.1
-14027.2
-14027.1
-14027.3
-14027.3
-14027.2
-14027.2
-14027
-14027.1
-14027.1
-14027.2
-14027.1
-14027.3
-14027.2
-14027.2
-14027.2
-14027
-14027.1
-14027.1
-14027.2
-14027.1
-14027.3
-14027.2
-14027.2
-14027.2
-14027
-14027.1
-14027.1
-14027.2
-14027.1
-14027.3
-14027.2
-10201.5
-10201.3
-10201.5
-10201.5
-10201.5
-10201.4
-10201.4
-10201.6
-10201.4
-10201.5
-10201.3
-10201.5
-10201.5
-10201.5
-10201.4
-10201.4
-10201.6
-10201.4
-10201.5
-10201.3
-10201.5
-10201.5
-10201.5
-10201.4
-10201.4
-10201.6
-10201.4
-10201.5
-10201.3
-10201.5
-10201.5
-10201.5
-10201.4
-10201.4
-10201.6
-10201.4
-8039.69
-8039.89
-8039.74
-8039.89
-8039.81
-8039.81
-8039.94
-8039.72
-8039.84
-8039.69
-8039.89
-8039.74
-8039.89
-8039.81
-8039.82
-8039.94
-8039.73
-8039.84
-8039.7
-8039.9
-8039.74
-8039.89
-8039.81
-8039.82
-8039.95
-8039.73
-8039.84
-8039.7
-8039.9
-8039.74
-8039.89
-8039.81
-8039.82
-8039.94
-8039.73
-8039.84
-13892.7
-13892.5
-13892.4
-13892.6
-13892.6
-13892.6
-13892.5
-13892.7
-13893
-13892.7
-13892.5
-13892.4
-13892.6
-13892.6
-13892.6
-13892.5
-13892.7
-13893
-13892.7
-13892.5
-13892.4
-13892.6
-13892.6
-13892.6
-13892.5
-13892.7
-13893
-13892.7
-13892.5
-13892.4
-13892.6
-13892.6
-13892.6
-13892.5
-13892.7
-13893
-8712.44
-8712.35
-8712.49
-8712.6
-8712.5
-8712.54
-8712.54
-8712.61
-8712.47
-8712.44
-8712.35
-8712.49
-8712.6
-8712.5
-8712.54
-8712.54
-8712.61
-8712.47
-8712.44
-8712.35
-8712.49
-8712.6
-8712.5
-8712.54
-8712.54
-8712.61
-8712.47
-8712.44
-8712.35
-8712.49
-8712.6
-8712.5
-8712.54
-8712.54
-8712.61
-8712.47
-4080
-4080.2
-4080.07
-4080.1
-4080.06
-4080.14
-4080
-4079.86
-4079.89
-4079.99
-4080.21
-4080.08
-4080.1
-4080.06
-4080.15
-4080
-4079.86
-4079.9
-4080
-4080.21
-4080.08
-4080.11
-4080.06
-4080.15
-4080.01
-4079.86
-4079.9
-4080
-4080.21
-4080.08
-4080.11
-4080.06
-4080.15
-4080.01
-4079.86
-4079.9
-7608.7
-7608.33
-7608.6
-7608.9
-7608.39
-7608.34
-7608.91
-7609.02
-7609.18
-7608.7
-7608.32
-7608.59
-7608.89
-7608.39
-7608.33
-7608.91
-7609.01
-7609.18
-7608.7
-7608.32
-7608.59
-7608.89
-7608.39
-7608.33
-7608.91
-7609.02
-7609.19
-7608.71
-7608.33
-7608.6
-7608.9
-7608.39
-7608.33
-7608.91
-7609.01
-7609.18
-5569.68
-5569.59
-5569.64
-5569.61
-5569.66
-5569.62
-5569.57
-5569.64
-5569.59
-5569.68
-5569.6
-5569.65
-5569.62
-5569.66
-5569.63
-5569.57
-5569.64
-5569.59
-5569.69
-5569.6
-5569.65
-5569.62
-5569.66
-5569.63
-5569.57
-5569.64
-5569.59
-5569.68
-5569.6
-5569.65
-5569.62
-5569.66
-5569.62
-5569.57
-5569.64
-5569.59
-4538.51
-4538.91
-4538.76
-4538.81
-4538.69
-4538.69
-4538.7
-4538.31
-4538.44
-4538.51
-4538.91
-4538.77
-4538.82
-4538.7
-4538.7
-4538.7
-4538.31
-4538.44
-4538.51
-4538.91
-4538.77
-4538.82
-4538.7
-4538.7
-4538.71
-4538.31
-4538.44
-4538.51
-4538.91
-4538.77
-4538.81
-4538.7
-4538.7
-4538.71
-4538.31
-4538.44
525.177
526.276
531.301
529.112
523.385
527.828
531.633
526.413
524.233
525.123
526.22
531.259
529.09
523.381
527.828
531.627
526.397
524.217
525.107
526.208
531.252
529.085
523.37
527.815
531.615
526.391
524.213
525.101
526.199
531.236
529.065
523.357
527.809
531.62
526.427
524.276
1867.44
1867.19
1866.48
1866.91
1866.98
1867.05
1866.38
1866.98
1867.21
1867.44
1867.19
1866.48
1866.91
1866.97
1867.05
1866.38
1866.97
1867.2
1867.43
1867.19
1866.47
1866.9
1866.97
1867.05
1866.38
1866.97
1867.21
1867.44
1867.19
1866.48
1866.91
1866.98
1867.05
1866.38
1866.97
1867.21
-8204.09
-8204.56
-8204.54
-8204.31
-8204.47
-8204.52
-8204.35
-8203.81
-8203.96
-8204.09
-8204.55
-8204.54
-8204.31
-8204.47
-8204.53
-8204.36
-8203.81
-8203.96
-8204.09
-8204.55
-8204.54
-8204.31
-8204.47
-8204.52
-8204.35
-8203.8
-8203.95
-8204.07
-8204.54
-8204.52
-8204.3
-8204.46
-8204.52
-8204.36
-8203.82
-8203.97
46695.1
46703.7
46653.7
46666.3
46714.4
46682.2
46648.8
46687
46687.4
46695.3
46704
46653.9
46666.4
46714.5
46682.2
46648.8
46687
46687.5
46695.4
46704.1
46653.9
46666.4
46714.5
46682.2
46648.8
46687
46687.4
46695.4
46704
46653.9
46666.4
46714.5
46682.2
46648.9
46686.9
46687.3
26349.7
26346.4
26344.6
26344.8
26350.6
26343.4
26345
26347.2
26349.4
26349.7
26346.4
26344.6
26344.8
26350.6
26343.4
26345
26347.2
26349.4
26349.8
26346.4
26344.7
26344.8
26350.6
26343.5
26345
26347.2
26349.4
26349.8
26346.4
26344.7
26344.8
26350.7
26343.5
26345
26347.1
26349.3
-62795.4
-62794.5
-62797.3
-62794.6
-62796.4
-62794.8
-62796.6
-62793.7
-62795.3
-62795.4
-62794.5
-62797.3
-62794.6
-62796.4
-62794.8
-62796.6
-62793.7
-62795.3
-62795.4
-62794.5
-62797.3
-62794.6
-62796.4
-62794.8
-62796.6
-62793.7
-62795.3
-62795.4
-62794.5
-62797.3
-62794.6
-62796.4
-62794.8
-62796.6
-62793.7
-62795.3
)
;

boundaryField
{
    fixed
    {
        type            zeroGradient;
    }
    inside
    {
        type            zeroGradient;
    }
    outside
    {
        type            zeroGradient;
    }
}


// ************************************************************************* //
