/*--------------------------------*- C++ -*----------------------------------*\
| =========                 |                                                 |
| \\      /  F ield         | OpenFOAM: The Open Source CFD Toolbox           |
|  \\    /   O peration     | Version:  2312                                  |
|   \\  /    A nd           | Website:  www.openfoam.com                      |
|    \\/     M anipulation  |                                                 |
\*---------------------------------------------------------------------------*/
FoamFile
{
    version     2.0;
    format      ascii;
    arch        "LSB;label=32;scalar=64";
    class       volSymmTensorField;
    location    "0.9";
    object      sigma;
}
// * * * * * * * * * * * * * * * * * * * * * * * * * * * * * * * * * * * * * //

dimensions      [1 -1 -2 0 0 0 0];

internalField   nonuniform List<symmTensor> 
1620
(
(-4331.93 -1418.22 -2857.78 6942.74 20608 35935.1)
(-3506.84 -3260.76 -6392.89 6117.75 19798.7 35935.2)
(-2101.32 -4710.05 -9733.82 4712.36 18387.8 35935.2)
(-285.237 -5591.1 -12778.9 2895.62 16418.1 35935.2)
(1722.85 -5797.86 -15435.6 887.388 13949.6 35935.1)
(3680.76 -5305.37 -17623.5 -1070.26 11057.4 35935.2)
(5352.26 -4173 -19276 -2741.5 7829.14 35935)
(6535.39 -2537.22 -20342.6 -3924.69 4362.97 35935.1)
(7087.82 -595.412 -20791.2 -4477.02 764.206 35935.1)
(6942.74 1418.22 -20608 -4331.92 -2857.78 35935.1)
(6117.76 3260.76 -19798.7 -3506.84 -6392.89 35935.2)
(4712.36 4710.05 -18387.8 -2101.32 -9733.82 35935.2)
(2895.62 5591.1 -16418.1 -285.236 -12778.9 35935.2)
(887.389 5797.86 -13949.6 1722.86 -15435.6 35935.1)
(-1070.26 5305.37 -11057.4 3680.76 -17623.5 35935.2)
(-2741.5 4173 -7829.14 5352.26 -19276 35935)
(-3924.69 2537.22 -4362.97 6535.39 -20342.6 35935.1)
(-4477.02 595.412 -764.206 7087.82 -20791.2 35935.1)
(-4331.92 -1418.22 2857.78 6942.74 -20608 35935.1)
(-3506.84 -3260.76 6392.89 6117.75 -19798.7 35935.2)
(-2101.32 -4710.05 9733.82 4712.36 -18387.8 35935.2)
(-285.238 -5591.1 12778.9 2895.62 -16418.1 35935.2)
(1722.85 -5797.86 15435.6 887.388 -13949.6 35935.1)
(3680.75 -5305.37 17623.5 -1070.26 -11057.4 35935.2)
(5352.25 -4173 19276 -2741.5 -7829.14 35935)
(6535.38 -2537.22 20342.6 -3924.69 -4362.97 35935.1)
(7087.82 -595.412 20791.2 -4477.03 -764.206 35935.1)
(6942.74 1418.22 20608 -4331.93 2857.78 35935.1)
(6117.75 3260.76 19798.7 -3506.84 6392.89 35935.2)
(4712.36 4710.05 18387.8 -2101.33 9733.82 35935.2)
(2895.62 5591.1 16418.1 -285.239 12778.9 35935.2)
(887.387 5797.86 13949.6 1722.85 15435.6 35935.1)
(-1070.26 5305.37 11057.4 3680.75 17623.5 35935.2)
(-2741.5 4173 7829.14 5352.25 19276 35935)
(-3924.69 2537.22 4362.97 6535.38 20342.6 35935.1)
(-4477.03 595.412 764.206 7087.82 20791.2 35935.1)
(-27439.9 -5180.59 -666.042 25067.9 5743.23 -27906.1)
(-24084.6 -13847.5 -1653.22 21712.8 5540.33 -27906)
(-17967.5 -20844.3 -2590.18 15595.7 5169.07 -27906)
(-9826.33 -25326.8 -3448.56 7454.32 4640.93 -27906)
(-643.161 -26754.6 -4202.16 -1729.06 3971.71 -27906)
(8474.63 -24955.4 -4827.87 -10846.9 3181.59 -27906.1)
(16427.4 -20146.3 -5306.81 -18799.4 2294.82 -27906)
(22255.7 -12907.1 -5624.67 -24627.7 1338.43 -27906.1)
(25256.4 -4111.18 -5771.64 -27628.5 341.379 -27906.1)
(25067.9 5180.6 -5743.23 -27439.9 -666.042 -27906.1)
(21712.8 13847.5 -5540.33 -24084.6 -1653.22 -27906)
(15595.7 20844.3 -5169.07 -17967.5 -2590.18 -27906)
(7454.33 25326.8 -4640.93 -9826.32 -3448.56 -27906)
(-1729.06 26754.6 -3971.71 -643.158 -4202.16 -27906)
(-10846.9 24955.4 -3181.59 8474.63 -4827.87 -27906.1)
(-18799.4 20146.3 -2294.82 16427.5 -5306.81 -27906)
(-24627.7 12907.1 -1338.43 22255.7 -5624.67 -27906.1)
(-27628.5 4111.18 -341.379 25256.4 -5771.64 -27906.1)
(-27439.9 -5180.6 666.042 25067.9 -5743.23 -27906.1)
(-24084.6 -13847.5 1653.22 21712.8 -5540.33 -27906)
(-17967.5 -20844.3 2590.18 15595.7 -5169.07 -27906)
(-9826.32 -25326.8 3448.56 7454.33 -4640.93 -27906)
(-643.16 -26754.6 4202.16 -1729.06 -3971.71 -27906)
(8474.63 -24955.4 4827.87 -10846.9 -3181.59 -27906.1)
(16427.4 -20146.3 5306.81 -18799.4 -2294.82 -27906)
(22255.7 -12907.1 5624.67 -24627.7 -1338.43 -27906.1)
(25256.4 -4111.18 5771.64 -27628.5 -341.379 -27906.2)
(25067.9 5180.6 5743.23 -27439.9 666.042 -27906.1)
(21712.8 13847.5 5540.33 -24084.6 1653.22 -27906)
(15595.7 20844.3 5169.07 -17967.5 2590.18 -27906)
(7454.32 25326.8 4640.93 -9826.33 3448.56 -27906)
(-1729.06 26754.6 3971.71 -643.162 4202.16 -27906)
(-10846.9 24955.4 3181.59 8474.63 4827.87 -27906.1)
(-18799.4 20146.3 2294.82 16427.4 5306.81 -27906.1)
(-24627.7 12907.1 1338.43 22255.7 5624.67 -27906.1)
(-27628.5 4111.18 341.379 25256.4 5771.64 -27906.2)
(-55919.6 -1463.81 1420.65 -34371.1 -28275.7 -21050.6)
(-54769.2 -5060.52 6309.09 -35521.6 -27599.5 -21050.6)
(-52458.2 -8046.87 11005.9 -37833 -26084.6 -21050.8)
(-49264.8 -10062.7 15368.2 -41026 -23777.2 -21050.6)
(-45574.7 -10864.8 19263.6 -44716 -20747.3 -21050.9)
(-41832.9 -10356.3 22573.6 -48457.8 -17087 -21050.6)
(-38490.6 -8598.81 25197.8 -51800.2 -12907.5 -21050.6)
(-35951 -5804.13 27056.4 -54340 -8335.81 -21050.7)
(-34520.3 -2309.45 28092.9 -55770.5 -3510.95 -21050.6)
(-34371.1 1463.81 28275.7 -55919.6 1420.65 -21050.5)
(-35521.6 5060.52 27599.5 -54769.2 6309.09 -21050.6)
(-37833 8046.87 26084.6 -52458.2 11005.9 -21050.8)
(-41026 10062.7 23777.2 -49264.8 15368.2 -21050.6)
(-44716 10864.8 20747.3 -45574.7 19263.6 -21050.9)
(-48457.8 10356.3 17087 -41832.9 22573.6 -21050.6)
(-51800.2 8598.81 12907.5 -38490.6 25197.8 -21050.6)
(-54340 5804.13 8335.81 -35951 27056.4 -21050.7)
(-55770.5 2309.45 3510.95 -34520.3 28092.9 -21050.6)
(-55919.6 -1463.81 -1420.65 -34371.1 28275.7 -21050.5)
(-54769.2 -5060.52 -6309.09 -35521.6 27599.5 -21050.6)
(-52458.2 -8046.87 -11005.9 -37833 26084.6 -21050.8)
(-49264.8 -10062.7 -15368.2 -41026 23777.2 -21050.6)
(-45574.7 -10864.8 -19263.6 -44716 20747.3 -21050.9)
(-41832.9 -10356.3 -22573.6 -48457.8 17087 -21050.6)
(-38490.6 -8598.81 -25197.8 -51800.2 12907.5 -21050.6)
(-35951 -5804.13 -27056.4 -54340 8335.81 -21050.7)
(-34520.3 -2309.45 -28092.9 -55770.5 3510.95 -21050.6)
(-34371.1 1463.81 -28275.7 -55919.6 -1420.65 -21050.6)
(-35521.6 5060.52 -27599.5 -54769.2 -6309.09 -21050.6)
(-37833 8046.87 -26084.6 -52458.2 -11005.9 -21050.8)
(-41026 10062.7 -23777.2 -49264.8 -15368.2 -21050.6)
(-44716 10864.8 -20747.3 -45574.7 -19263.6 -21050.9)
(-48457.8 10356.3 -17087 -41832.9 -22573.6 -21050.6)
(-51800.2 8598.81 -12907.5 -38490.6 -25197.8 -21050.6)
(-54340 5804.13 -8335.81 -35951 -27056.4 -21050.7)
(-55770.5 2309.45 -3510.95 -34520.3 -28092.9 -21050.6)
(10758.5 -1957.69 -3363.77 18222.7 17937.7 53034.2)
(11653 -3116.02 -6427.41 17327.9 17081 53034.3)
(12890 -3898.62 -9295.94 16091.2 15705.5 53034.3)
(14319.9 -4210.82 -11881.8 14661.1 13852.5 53034.6)
(15770.4 -4015.24 -14106.8 13210.7 11578.7 53034.6)
(17066.4 -3335.37 -15903 11914.6 8953.32 53034.6)
(18051.9 -2253.27 -17216.4 10929 6055.82 53034.1)
(18607.8 -899.278 -18006.3 10373.2 2974.2 53034.3)
(18667.3 563.137 -18249.4 10314 -197.731 53034.2)
(18222.7 1957.69 -17937.7 10758.5 -3363.77 53034.2)
(17327.9 3116.02 -17081 11653 -6427.41 53034.3)
(16091.2 3898.62 -15705.5 12890 -9295.94 53034.3)
(14661.1 4210.82 -13852.5 14319.9 -11881.8 53034.6)
(13210.7 4015.24 -11578.7 15770.4 -14106.8 53034.6)
(11914.6 3335.37 -8953.32 17066.4 -15903 53034.6)
(10929 2253.27 -6055.82 18051.9 -17216.4 53034.1)
(10373.2 899.278 -2974.2 18607.8 -18006.3 53034.3)
(10314 -563.137 197.73 18667.3 -18249.4 53034.2)
(10758.5 -1957.69 3363.77 18222.7 -17937.7 53034.2)
(11653 -3116.02 6427.41 17327.9 -17081 53034.3)
(12890 -3898.62 9295.94 16091.2 -15705.5 53034.3)
(14319.9 -4210.82 11881.8 14661.1 -13852.5 53034.6)
(15770.4 -4015.24 14106.8 13210.7 -11578.7 53034.6)
(17066.4 -3335.37 15903 11914.6 -8953.32 53034.6)
(18051.9 -2253.27 17216.4 10929 -6055.82 53034.1)
(18607.8 -899.278 18006.3 10373.2 -2974.2 53034.3)
(18667.3 563.137 18249.4 10314 197.73 53034.2)
(18222.7 1957.69 17937.7 10758.5 3363.77 53034.2)
(17327.9 3116.02 17081 11653 6427.41 53034.3)
(16091.2 3898.62 15705.5 12890 9295.94 53034.3)
(14661.1 4210.82 13852.5 14319.9 11881.8 53034.6)
(13210.7 4015.24 11578.7 15770.4 14106.8 53034.6)
(11914.6 3335.37 8953.32 17066.4 15903 53034.6)
(10929 2253.27 6055.82 18051.9 17216.4 53034.1)
(10373.2 899.278 2974.2 18607.8 18006.3 53034.3)
(10314 -563.137 -197.731 18667.3 18249.4 53034.2)
(-6628.28 -6973.44 -1024.32 44232.5 7917.4 -8062.17)
(-2709.54 -15250.5 -2383.65 40313.8 7619.45 -8062)
(3803.68 -21688.3 -3670.5 33800.4 7089.68 -8062.15)
(12126 -25510 -4845.93 25478.1 6344.72 -8062.09)
(21253.6 -26254.9 -5874.02 16350.5 5406.81 -8062.1)
(30085.2 -23833.1 -6723.71 7518.51 4304.69 -8062.28)
(37556.4 -18536.7 -7368.92 47.8571 3071.67 -8062.07)
(42765.3 -11004.4 -7790.45 -5161.07 1745.42 -8062.05)
(45083.9 -2144.94 -7974.98 -7479.67 366.103 -8062.16)
(44232.5 6973.44 -7917.4 -6628.28 -1024.32 -8062.17)
(40313.8 15250.5 -7619.45 -2709.54 -2383.65 -8062)
(33800.4 21688.3 -7089.68 3803.68 -3670.5 -8062.15)
(25478.1 25510 -6344.72 12126 -4845.93 -8062.09)
(16350.5 26254.9 -5406.81 21253.6 -5874.02 -8062.1)
(7518.51 23833.1 -4304.69 30085.2 -6723.71 -8062.28)
(47.8575 18536.7 -3071.67 37556.4 -7368.92 -8062.07)
(-5161.07 11004.4 -1745.42 42765.3 -7790.45 -8062.05)
(-7479.67 2144.94 -366.103 45083.9 -7974.98 -8062.16)
(-6628.28 -6973.44 1024.32 44232.5 -7917.4 -8062.17)
(-2709.54 -15250.5 2383.65 40313.8 -7619.45 -8062)
(3803.68 -21688.3 3670.5 33800.4 -7089.68 -8062.15)
(12126 -25510 4845.93 25478.1 -6344.72 -8062.09)
(21253.6 -26254.9 5874.02 16350.5 -5406.81 -8062.1)
(30085.2 -23833.1 6723.71 7518.51 -4304.69 -8062.28)
(37556.4 -18536.7 7368.92 47.8574 -3071.67 -8062.07)
(42765.3 -11004.4 7790.45 -5161.07 -1745.42 -8062.05)
(45083.9 -2144.94 7974.98 -7479.67 -366.103 -8062.16)
(44232.5 6973.44 7917.4 -6628.28 1024.32 -8062.17)
(40313.8 15250.5 7619.45 -2709.54 2383.65 -8062)
(33800.4 21688.3 7089.68 3803.68 3670.5 -8062.15)
(25478.1 25510 6344.72 12126 4845.93 -8062.09)
(16350.5 26254.9 5406.81 21253.6 5874.02 -8062.1)
(7518.51 23833.1 4304.69 30085.2 6723.71 -8062.28)
(47.857 18536.7 3071.67 37556.4 7368.92 -8062.07)
(-5161.07 11004.4 1745.42 42765.3 7790.45 -8062.05)
(-7479.67 2144.94 366.103 45083.9 7974.98 -8062.16)
(-33722.8 -2533.73 1102.85 -12073.5 -28633.3 -1336.34)
(-32203.5 -6083.16 6058.18 -13592.9 -28006.8 -1336.43)
(-29561.7 -8898.87 10829.5 -16234.7 -26529.3 -1336.41)
(-26116.3 -10641.2 15271.7 -19680.1 -24245.8 -1336.34)
(-22282.5 -11100.2 19249.9 -23513.5 -21225.5 -1336.32)
(-18523 -10220.2 22643.2 -27272.7 -17560.3 -1335.99)
(-15291.4 -8107.56 25348.6 -30504.7 -13361.5 -1336.29)
(-12977.2 -5017 27283.7 -32818.9 -8756.8 -1336.34)
(-11859.7 -1321.36 28389.8 -33936.6 -3886.08 -1336.34)
(-12073.5 2533.73 28633.3 -33722.8 1102.85 -1336.34)
(-13592.9 6083.16 28006.8 -32203.4 6058.18 -1336.43)
(-16234.7 8898.87 26529.3 -29561.7 10829.5 -1336.41)
(-19680.1 10641.2 24245.8 -26116.3 15271.7 -1336.34)
(-23513.5 11100.2 21225.5 -22282.5 19249.9 -1336.32)
(-27272.7 10220.2 17560.3 -18523 22643.2 -1335.99)
(-30504.7 8107.56 13361.5 -15291.4 25348.6 -1336.29)
(-32818.9 5017 8756.8 -12977.2 27283.7 -1336.34)
(-33936.6 1321.36 3886.08 -11859.7 28389.8 -1336.34)
(-33722.8 -2533.73 -1102.85 -12073.5 28633.3 -1336.34)
(-32203.4 -6083.16 -6058.18 -13592.9 28006.8 -1336.43)
(-29561.7 -8898.87 -10829.5 -16234.7 26529.3 -1336.41)
(-26116.3 -10641.2 -15271.7 -19680.1 24245.8 -1336.34)
(-22282.5 -11100.2 -19249.9 -23513.5 21225.5 -1336.32)
(-18523 -10220.2 -22643.2 -27272.7 17560.3 -1335.99)
(-15291.4 -8107.56 -25348.6 -30504.7 13361.5 -1336.29)
(-12977.2 -5017 -27283.7 -32818.9 8756.8 -1336.34)
(-11859.7 -1321.36 -28389.8 -33936.6 3886.08 -1336.34)
(-12073.5 2533.73 -28633.3 -33722.8 -1102.85 -1336.34)
(-13592.9 6083.16 -28006.8 -32203.5 -6058.18 -1336.43)
(-16234.7 8898.87 -26529.3 -29561.7 -10829.5 -1336.41)
(-19680.1 10641.2 -24245.8 -26116.3 -15271.7 -1336.34)
(-23513.5 11100.2 -21225.5 -22282.5 -19249.9 -1336.32)
(-27272.7 10220.2 -17560.3 -18523 -22643.2 -1335.99)
(-30504.7 8107.56 -13361.5 -15291.5 -25348.6 -1336.29)
(-32818.9 5017 -8756.8 -12977.2 -27283.7 -1336.34)
(-33936.6 1321.36 -3886.08 -11859.7 -28389.8 -1336.34)
(7733.2 -2619.95 -2565.42 14475 18031.1 48186.2)
(8832.46 -3614.91 -5657.65 13375.5 17311.6 48186.1)
(10205.9 -4173.79 -8577.79 12002.2 16066.2 48186.2)
(11687.5 -4229.2 -11237.2 10520.4 14332.5 48186.3)
(13099.1 -3774.69 -13555.5 9109.41 12163.6 48186.2)
(14269.6 -2864.65 -15461.6 7938.58 9624.8 48186.5)
(15058.4 -1609.29 -16898.1 7149.53 6793.77 48186.1)
(15370.4 -159.72 -17821.1 6837.71 3756.18 48186.2)
(15167.6 1309.03 -18202.7 7040.23 604.632 48186)
(14475 2619.95 -18031.1 7733.2 -2565.42 48186.2)
(13375.5 3614.91 -17311.6 8832.46 -5657.65 48186.1)
(12002.2 4173.79 -16066.2 10205.9 -8577.79 48186.2)
(10520.4 4229.2 -14332.5 11687.5 -11237.2 48186.3)
(9109.41 3774.69 -12163.6 13099.1 -13555.5 48186.2)
(7938.58 2864.65 -9624.8 14269.6 -15461.6 48186.5)
(7149.53 1609.29 -6793.77 15058.4 -16898.1 48186.1)
(6837.71 159.72 -3756.18 15370.4 -17821.1 48186.2)
(7040.23 -1309.03 -604.632 15167.6 -18202.7 48186)
(7733.2 -2619.95 2565.42 14475 -18031.1 48186.2)
(8832.46 -3614.91 5657.65 13375.5 -17311.6 48186.1)
(10205.9 -4173.79 8577.79 12002.2 -16066.2 48186.2)
(11687.5 -4229.2 11237.2 10520.4 -14332.5 48186.3)
(13099.1 -3774.69 13555.5 9109.41 -12163.6 48186.2)
(14269.6 -2864.65 15461.6 7938.58 -9624.8 48186.5)
(15058.4 -1609.29 16898.1 7149.53 -6793.77 48186.1)
(15370.4 -159.72 17821.1 6837.71 -3756.18 48186.2)
(15167.6 1309.03 18202.7 7040.23 -604.632 48186)
(14475 2619.95 18031.1 7733.2 2565.42 48186.2)
(13375.5 3614.91 17311.6 8832.46 5657.65 48186.1)
(12002.2 4173.79 16066.2 10205.9 8577.79 48186.2)
(10520.4 4229.2 14332.5 11687.5 11237.2 48186.3)
(9109.41 3774.69 12163.6 13099.1 13555.5 48186.2)
(7938.58 2864.65 9624.8 14269.6 15461.6 48186.5)
(7149.53 1609.29 6793.77 15058.4 16898.1 48186.1)
(6837.71 159.72 3756.18 15370.4 17821.1 48186.2)
(7040.23 -1309.03 604.632 15167.6 18202.7 48186)
(-5539.26 -8962.8 -1142.97 43879.1 8347.84 -9463.96)
(-983.614 -16873.2 -2575.21 39323.6 8022.65 -9463.83)
(6002.76 -22748.6 -3929.21 32337.1 7453.58 -9463.89)
(14577.4 -25880.1 -5163.84 23762.8 6658.1 -9463.68)
(23706 -25890.2 -6241.37 14634.2 5660.07 -9463.83)
(32287.2 -22777.4 -7129.63 6052.54 4490.42 -9463.9)
(39286.6 -16917.4 -7801.01 -946.546 3184.14 -9463.81)
(43859.3 -9016.86 -8235.42 -5519.69 1781.13 -9464.03)
(45454.5 -28.85 -8419.49 -7114.46 324.004 -9463.86)
(43879.1 8962.8 -8347.84 -5539.26 -1142.97 -9463.96)
(39323.6 16873.2 -8022.65 -983.614 -2575.21 -9463.83)
(32337.1 22748.6 -7453.58 6002.76 -3929.21 -9463.89)
(23762.8 25880.1 -6658.1 14577.4 -5163.84 -9463.68)
(14634.2 25890.2 -5660.07 23706 -6241.37 -9463.83)
(6052.54 22777.4 -4490.42 32287.2 -7129.63 -9463.9)
(-946.546 16917.4 -3184.14 39286.6 -7801.01 -9463.81)
(-5519.68 9016.86 -1781.13 43859.3 -8235.42 -9464.03)
(-7114.46 28.8504 -324.004 45454.5 -8419.49 -9463.86)
(-5539.26 -8962.8 1142.97 43879.1 -8347.84 -9463.96)
(-983.614 -16873.2 2575.21 39323.6 -8022.65 -9463.83)
(6002.76 -22748.6 3929.21 32337.1 -7453.58 -9463.89)
(14577.4 -25880.1 5163.84 23762.8 -6658.1 -9463.68)
(23706 -25890.2 6241.37 14634.2 -5660.07 -9463.83)
(32287.2 -22777.4 7129.63 6052.54 -4490.42 -9463.9)
(39286.6 -16917.4 7801.01 -946.546 -3184.14 -9463.81)
(43859.3 -9016.86 8235.42 -5519.69 -1781.13 -9464.03)
(45454.5 -28.8503 8419.49 -7114.46 -324.004 -9463.86)
(43879.1 8962.8 8347.84 -5539.26 1142.97 -9463.96)
(39323.6 16873.2 8022.65 -983.614 2575.21 -9463.83)
(32337.1 22748.6 7453.58 6002.76 3929.21 -9463.89)
(23762.8 25880.1 6658.1 14577.4 5163.84 -9463.68)
(14634.2 25890.2 5660.07 23706 6241.37 -9463.83)
(6052.54 22777.4 4490.42 32287.2 7129.63 -9463.9)
(-946.546 16917.4 3184.14 39286.6 7801.01 -9463.81)
(-5519.69 9016.86 1781.13 43859.3 8235.42 -9464.03)
(-7114.46 28.8501 324.004 45454.5 8419.49 -9463.86)
(-31421.7 -5967.11 3206.04 -11599.7 -28497.1 -2251.11)
(-28783.2 -8997 8105.77 -14238.2 -27507.5 -2251.21)
(-25267.3 -10941.8 12759.3 -17753.8 -25682 -2251.05)
(-21298.5 -11566.8 17025.1 -21722.8 -23076.2 -2251.1)
(-17355.3 -10796.7 20773.6 -25666.2 -19769.3 -2251.27)
(-13913.3 -8724.26 23890.9 -29108.3 -15861.6 -2251.18)
(-11387.6 -5599.65 26282.3 -31634 -11472 -2251.31)
(-10082.7 -1799.65 27875.1 -32938.4 -6733.93 -2251.05)
(-10156.4 2217.46 28620.9 -32864.8 -1791.16 -2251.04)
(-11599.7 5967.11 28497.1 -31421.7 3206.04 -2251.11)
(-14238.2 8997 27507.5 -28783.2 8105.77 -2251.21)
(-17753.8 10941.8 25682 -25267.3 12759.3 -2251.05)
(-21722.8 11566.8 23076.2 -21298.5 17025.1 -2251.1)
(-25666.2 10796.7 19769.3 -17355.3 20773.6 -2251.26)
(-29108.3 8724.26 15861.6 -13913.3 23890.9 -2251.18)
(-31634 5599.65 11472 -11387.6 26282.3 -2251.3)
(-32938.4 1799.65 6733.93 -10082.7 27875.1 -2251.05)
(-32864.8 -2217.46 1791.16 -10156.4 28620.9 -2251.03)
(-31421.7 -5967.11 -3206.04 -11599.7 28497.1 -2251.11)
(-28783.2 -8997 -8105.77 -14238.2 27507.5 -2251.21)
(-25267.3 -10941.8 -12759.3 -17753.8 25682 -2251.05)
(-21298.5 -11566.8 -17025.1 -21722.8 23076.2 -2251.1)
(-17355.3 -10796.7 -20773.6 -25666.2 19769.3 -2251.26)
(-13913.3 -8724.26 -23890.9 -29108.3 15861.6 -2251.18)
(-11387.6 -5599.65 -26282.3 -31634 11472 -2251.31)
(-10082.7 -1799.65 -27875.1 -32938.4 6733.93 -2251.06)
(-10156.4 2217.46 -28620.9 -32864.8 1791.16 -2251.04)
(-11599.7 5967.11 -28497.1 -31421.7 -3206.04 -2251.11)
(-14238.2 8997 -27507.5 -28783.2 -8105.77 -2251.21)
(-17753.8 10941.8 -25682 -25267.3 -12759.3 -2251.06)
(-21722.8 11566.8 -23076.2 -21298.5 -17025.1 -2251.1)
(-25666.2 10796.7 -19769.3 -17355.3 -20773.6 -2251.27)
(-29108.3 8724.26 -15861.6 -13913.3 -23890.9 -2251.18)
(-31634 5599.65 -11472 -11387.6 -26282.3 -2251.31)
(-32938.4 1799.65 -6733.93 -10082.7 -27875.1 -2251.06)
(-32864.8 -2217.46 -1791.16 -10156.4 -28620.9 -2251.04)
(7629.77 -2674.7 -591.164 14004 18410.4 46397.7)
(8736.83 -3603.5 -3779.19 12897.2 18028.1 46397.6)
(10094.7 -4097.66 -6852.37 11539.2 17098 46397.5)
(11539.8 -4097.52 -9717.28 10094.2 15648.2 46397.8)
(12897.7 -3603.2 -12286.8 8736.46 13723.2 46397.7)
(14004.6 -2674.25 -14483.2 7629.47 11381 46397.8)
(14727.1 -1422.84 -16239.5 6907.19 8693.27 46397.7)
(14977.8 0.295963 -17502.4 6656.13 5741.14 46397.5)
(14726.7 1423.36 -18233.3 6907.23 2614.7 46397.7)
(14004 2674.7 -18410.4 7629.77 -591.163 46397.7)
(12897.2 3603.5 -18028.1 8736.83 -3779.19 46397.6)
(11539.2 4097.66 -17098 10094.7 -6852.37 46397.5)
(10094.2 4097.52 -15648.2 11539.8 -9717.28 46397.8)
(8736.46 3603.2 -13723.2 12897.7 -12286.8 46397.7)
(7629.47 2674.25 -11381 14004.6 -14483.2 46397.8)
(6907.19 1422.84 -8693.27 14727.1 -16239.5 46397.7)
(6656.13 -0.295638 -5741.14 14977.8 -17502.4 46397.5)
(6907.23 -1423.36 -2614.7 14726.7 -18233.3 46397.7)
(7629.77 -2674.7 591.163 14004 -18410.4 46397.7)
(8736.83 -3603.5 3779.19 12897.2 -18028.1 46397.6)
(10094.7 -4097.66 6852.37 11539.2 -17098 46397.5)
(11539.8 -4097.52 9717.28 10094.2 -15648.2 46397.8)
(12897.7 -3603.2 12286.8 8736.46 -13723.2 46397.7)
(14004.6 -2674.25 14483.2 7629.47 -11381 46397.8)
(14727.1 -1422.84 16239.5 6907.19 -8693.27 46397.7)
(14977.8 0.295766 17502.4 6656.13 -5741.14 46397.5)
(14726.7 1423.36 18233.3 6907.23 -2614.7 46397.7)
(14004 2674.7 18410.4 7629.77 591.163 46397.7)
(12897.2 3603.5 18028.1 8736.83 3779.19 46397.6)
(11539.2 4097.66 17098 10094.7 6852.37 46397.5)
(10094.2 4097.52 15648.2 11539.8 9717.28 46397.8)
(8736.46 3603.2 13723.2 12897.7 12286.8 46397.7)
(7629.47 2674.25 11381 14004.6 14483.2 46397.8)
(6907.19 1422.84 8693.27 14727.1 16239.5 46397.7)
(6656.13 -0.295951 5741.14 14977.8 17502.4 46397.5)
(6907.23 -1423.36 2614.7 14726.7 18233.3 46397.7)
(-3505.37 -10801.1 -1203.81 44100.7 8605.92 -10181)
(1624.3 -18290.9 -2679.91 38971 8266.09 -10181.1)
(9006.34 -23574.5 -4074.58 31588.9 7675.1 -10181.1)
(17750.3 -26014.6 -5345.5 22845.1 6851.04 -10181)
(26801.2 -25317 -6453.99 13793.9 5818.77 -10181.1)
(35068 -21565.8 -7366.3 5527.28 4609.62 -10181)
(41553.2 -15213.5 -8054.75 -957.975 3260.4 -10181.1)
(45474.7 -7026.08 -8498.59 -4879.43 1812.18 -10181.1)
(46359.4 2008.69 -8684.21 -5764.1 308.879 -10181.1)
(44100.7 10801.1 -8605.92 -3505.37 -1203.81 -10181)
(38971 18290.9 -8266.09 1624.3 -2679.91 -10181.1)
(31588.9 23574.5 -7675.1 9006.34 -4074.58 -10181.1)
(22845.1 26014.6 -6851.05 17750.3 -5345.5 -10181)
(13793.9 25317 -5818.77 26801.2 -6453.99 -10181.1)
(5527.28 21565.8 -4609.62 35068 -7366.3 -10181)
(-957.975 15213.5 -3260.4 41553.2 -8054.75 -10181.1)
(-4879.43 7026.08 -1812.18 45474.7 -8498.59 -10181.1)
(-5764.1 -2008.69 -308.879 46359.4 -8684.21 -10181.1)
(-3505.37 -10801.1 1203.81 44100.7 -8605.92 -10181)
(1624.3 -18290.9 2679.91 38971 -8266.09 -10181.1)
(9006.34 -23574.5 4074.58 31588.9 -7675.1 -10181.1)
(17750.3 -26014.6 5345.5 22845.1 -6851.05 -10181)
(26801.2 -25317 6453.99 13793.9 -5818.77 -10181.1)
(35068 -21565.8 7366.3 5527.28 -4609.62 -10181)
(41553.2 -15213.5 8054.75 -957.975 -3260.4 -10181.1)
(45474.7 -7026.08 8498.59 -4879.43 -1812.18 -10181.1)
(46359.4 2008.69 8684.21 -5764.1 -308.879 -10181.1)
(44100.7 10801.1 8605.92 -3505.37 1203.81 -10181)
(38971 18290.9 8266.09 1624.3 2679.91 -10181.1)
(31588.9 23574.5 7675.1 9006.34 4074.58 -10181.1)
(22845.1 26014.6 6851.04 17750.3 5345.5 -10181)
(13793.9 25317 5818.77 26801.2 6453.99 -10181.1)
(5527.28 21565.8 4609.62 35068 7366.3 -10181)
(-957.975 15213.5 3260.4 41553.2 8054.75 -10181.1)
(-4879.43 7026.08 1812.18 45474.7 8498.59 -10181.1)
(-5764.1 -2008.69 308.879 46359.4 8684.21 -10181.1)
(-26781.2 -9478.39 5341.46 -9625.72 -28383.4 -1531.95)
(-23022.1 -11840.5 10189 -13384.8 -27024.7 -1532.1)
(-18681.7 -12774.5 14727 -17725.1 -24844.8 -1531.97)
(-14283.9 -12167.7 18817.5 -22123.2 -21910 -1532)
(-10358.6 -10093.3 22336.3 -26048.4 -18309.5 -1532.18)
(-7379.56 -6801.49 25176.4 -29027.4 -14152.7 -1531.97)
(-5706.19 -2689.31 27251.5 -30701 -9565.83 -1532.11)
(-5539.87 1747.21 28498.6 -30867 -4688.37 -1532.07)
(-6901.18 5973.05 28879.7 -29505.6 331.619 -1531.95)
(-9625.72 9478.39 28383.4 -26781.2 5341.46 -1531.95)
(-13384.8 11840.5 27024.7 -23022.1 10189 -1532.1)
(-17725.1 12774.5 24844.8 -18681.7 14727 -1531.97)
(-22123.2 12167.7 21910 -14283.9 18817.5 -1532)
(-26048.4 10093.3 18309.5 -10358.6 22336.3 -1532.18)
(-29027.4 6801.49 14152.7 -7379.56 25176.4 -1531.97)
(-30701 2689.31 9565.83 -5706.19 27251.5 -1532.11)
(-30867 -1747.21 4688.37 -5539.87 28498.6 -1532.07)
(-29505.6 -5973.05 -331.619 -6901.18 28879.7 -1531.95)
(-26781.2 -9478.39 -5341.46 -9625.72 28383.4 -1531.95)
(-23022.1 -11840.5 -10189 -13384.8 27024.7 -1532.1)
(-18681.7 -12774.5 -14727 -17725.1 24844.8 -1531.97)
(-14283.9 -12167.7 -18817.5 -22123.2 21910 -1532)
(-10358.6 -10093.3 -22336.3 -26048.4 18309.5 -1532.18)
(-7379.57 -6801.49 -25176.4 -29027.4 14152.7 -1531.97)
(-5706.19 -2689.31 -27251.5 -30701 9565.83 -1532.11)
(-5539.87 1747.21 -28498.6 -30867 4688.37 -1532.07)
(-6901.18 5973.05 -28879.7 -29505.6 -331.619 -1531.95)
(-9625.72 9478.39 -28383.4 -26781.2 -5341.46 -1531.95)
(-13384.8 11840.5 -27024.7 -23022.1 -10189 -1532.1)
(-17725.1 12774.5 -24844.8 -18681.7 -14727 -1531.97)
(-22123.2 12167.7 -21910 -14283.9 -18817.5 -1532)
(-26048.4 10093.3 -18309.5 -10358.6 -22336.3 -1532.18)
(-29027.4 6801.49 -14152.7 -7379.57 -25176.4 -1531.98)
(-30701 2689.31 -9565.83 -5706.19 -27251.5 -1532.11)
(-30867 -1747.21 -4688.37 -5539.87 -28498.6 -1532.07)
(-29505.6 -5973.05 331.619 -6901.18 -28879.7 -1531.95)
(7247.84 -2170.79 1599.47 13095.5 18778.9 44616.4)
(8166.73 -3039.89 -1685.77 12176.9 18771.4 44616.5)
(9327.13 -3542.34 -4919.78 11016.1 18193.5 44616.3)
(10589.8 -3617.59 -8004.46 9753.71 17062.8 44616.4)
(11801.7 -3256.34 -10845.6 8541.48 15413.6 44616.4)
(12817.3 -2502.52 -13357.5 7526.14 13296.1 44616.3)
(13513.8 -1446.76 -15463.3 6830.02 10774.7 44616.6)
(13806.8 -216.52 -17099.5 6536.44 7925.78 44616.2)
(13661.7 1039.9 -18215.9 6681.74 4836.03 44616.5)
(13095.5 2170.79 -18778.9 7247.84 1599.48 44616.4)
(12176.9 3039.89 -18771.4 8166.73 -1685.77 44616.5)
(11016.1 3542.34 -18193.5 9327.13 -4919.78 44616.3)
(9753.71 3617.59 -17062.8 10589.8 -8004.46 44616.4)
(8541.48 3256.34 -15413.6 11801.7 -10845.6 44616.4)
(7526.14 2502.52 -13296.1 12817.3 -13357.5 44616.3)
(6830.02 1446.76 -10774.7 13513.8 -15463.3 44616.6)
(6536.44 216.52 -7925.78 13806.8 -17099.5 44616.2)
(6681.74 -1039.9 -4836.03 13661.7 -18215.9 44616.5)
(7247.84 -2170.79 -1599.48 13095.5 -18778.9 44616.4)
(8166.73 -3039.89 1685.77 12176.9 -18771.4 44616.5)
(9327.13 -3542.34 4919.78 11016.1 -18193.5 44616.3)
(10589.8 -3617.59 8004.46 9753.71 -17062.8 44616.4)
(11801.7 -3256.34 10845.6 8541.48 -15413.6 44616.4)
(12817.3 -2502.52 13357.5 7526.14 -13296.1 44616.3)
(13513.8 -1446.76 15463.3 6830.02 -10774.7 44616.6)
(13806.8 -216.52 17099.5 6536.44 -7925.78 44616.2)
(13661.7 1039.9 18215.9 6681.74 -4836.03 44616.5)
(13095.5 2170.79 18778.9 7247.84 -1599.48 44616.4)
(12176.9 3039.89 18771.4 8166.73 1685.77 44616.5)
(11016.1 3542.34 18193.5 9327.13 4919.78 44616.3)
(9753.71 3617.59 17062.8 10589.8 8004.46 44616.4)
(8541.48 3256.34 15413.6 11801.7 10845.6 44616.4)
(7526.14 2502.52 13296.1 12817.3 13357.5 44616.3)
(6830.02 1446.76 10774.7 13513.8 15463.3 44616.6)
(6536.44 216.52 7925.78 13806.8 17099.5 44616.2)
(6681.74 -1039.9 4836.03 13661.7 18215.9 44616.5)
(-2159.43 -11868.6 -1246.52 43296.9 9011.16 -11129.9)
(3270.36 -18926.4 -2792.37 37866.7 8657.8 -11130.1)
(10787 -23701.3 -4253.32 30350.5 8041.29 -11129.9)
(19483.2 -25617.5 -5585.06 21654 7180.53 -11130.1)
(28310.2 -24443.8 -6747.19 12827 6101.74 -11130)
(36203.7 -20321.9 -7704.1 4933.75 4837.33 -11130)
(42211.2 -13748.8 -8427.06 -1074.08 3426.02 -11130.1)
(45608.5 -5517.46 -8894.05 -4471.08 1910.66 -11129.9)
(45985.5 3379.47 -9090.71 -4848.17 337.18 -11130)
(43296.9 11868.6 -9011.16 -2159.43 -1246.52 -11129.9)
(37866.7 18926.4 -8657.8 3270.36 -2792.37 -11130.1)
(30350.5 23701.3 -8041.29 10787 -4253.32 -11129.9)
(21654 25617.5 -7180.53 19483.2 -5585.06 -11130.1)
(12827 24443.8 -6101.74 28310.2 -6747.19 -11130)
(4933.75 20321.9 -4837.33 36203.7 -7704.1 -11130)
(-1074.08 13748.8 -3426.02 42211.2 -8427.06 -11130.1)
(-4471.08 5517.46 -1910.66 45608.5 -8894.05 -11129.9)
(-4848.17 -3379.47 -337.18 45985.5 -9090.71 -11130)
(-2159.43 -11868.6 1246.52 43296.9 -9011.16 -11129.9)
(3270.36 -18926.4 2792.37 37866.7 -8657.8 -11130.1)
(10787 -23701.3 4253.32 30350.5 -8041.29 -11129.9)
(19483.2 -25617.5 5585.06 21654 -7180.53 -11130.1)
(28310.2 -24443.8 6747.19 12827 -6101.74 -11130)
(36203.7 -20321.9 7704.1 4933.75 -4837.33 -11130)
(42211.2 -13748.8 8427.06 -1074.08 -3426.02 -11130.1)
(45608.5 -5517.46 8894.05 -4471.08 -1910.66 -11129.9)
(45985.5 3379.47 9090.71 -4848.17 -337.18 -11130)
(43296.9 11868.6 9011.16 -2159.43 1246.52 -11129.9)
(37866.7 18926.4 8657.8 3270.36 2792.37 -11130.1)
(30350.5 23701.3 8041.29 10787 4253.32 -11129.9)
(21654 25617.5 7180.53 19483.2 5585.06 -11130.1)
(12827 24443.8 6101.74 28310.2 6747.19 -11130)
(4933.75 20321.9 4837.33 36203.7 7704.1 -11130)
(-1074.08 13748.8 3426.02 42211.2 8427.06 -11130.1)
(-4471.08 5517.46 1910.66 45608.5 8894.05 -11129.9)
(-4848.17 -3379.47 337.18 45985.5 9090.71 -11130)
(-22398.1 -12610 7442.2 -8656.66 -28204.1 -1571.07)
(-17670.7 -14199.4 12226.8 -13383.9 -26483.2 -1570.74)
(-12685 -14076.2 16639.8 -18369.7 -23957.7 -1570.93)
(-8042.11 -12255.1 20547.2 -23012.7 -20704.3 -1570.89)
(-4301.89 -8955.98 23830.3 -26752.7 -16821.8 -1570.85)
(-1915.85 -4576.55 26389.3 -29138.9 -12428.1 -1570.9)
(-1171.39 354.845 28146.6 -29883.3 -7656.88 -1571)
(-2158.68 5243.48 29048.5 -28896.3 -2652.95 -1570.96)
(-4757.96 9499.71 29067.9 -26296.5 2431.62 -1570.94)
(-8656.66 12610 28204.1 -22398.1 7442.2 -1571.07)
(-13383.9 14199.4 26483.2 -17670.7 12226.8 -1570.74)
(-18369.7 14076.2 23957.7 -12685 16639.8 -1570.93)
(-23012.7 12255.1 20704.3 -8042.11 20547.2 -1570.89)
(-26752.7 8955.98 16821.8 -4301.88 23830.3 -1570.85)
(-29138.9 4576.55 12428.1 -1915.85 26389.3 -1570.9)
(-29883.3 -354.845 7656.88 -1171.39 28146.6 -1571)
(-28896.3 -5243.48 2652.95 -2158.67 29048.5 -1570.96)
(-26296.5 -9499.71 -2431.62 -4757.96 29067.9 -1570.94)
(-22398.1 -12610 -7442.2 -8656.66 28204.1 -1571.07)
(-17670.7 -14199.4 -12226.8 -13383.9 26483.2 -1570.74)
(-12685 -14076.2 -16639.8 -18369.7 23957.7 -1570.93)
(-8042.11 -12255.1 -20547.2 -23012.7 20704.3 -1570.89)
(-4301.89 -8955.98 -23830.3 -26752.7 16821.8 -1570.86)
(-1915.85 -4576.55 -26389.3 -29138.9 12428.1 -1570.9)
(-1171.39 354.845 -28146.6 -29883.3 7656.88 -1571)
(-2158.68 5243.48 -29048.5 -28896.3 2652.95 -1570.97)
(-4757.97 9499.71 -29067.9 -26296.5 -2431.62 -1570.94)
(-8656.66 12610 -28204.1 -22398.1 -7442.2 -1571.07)
(-13383.9 14199.4 -26483.2 -17670.7 -12226.8 -1570.74)
(-18369.7 14076.2 -23957.7 -12685 -16639.8 -1570.93)
(-23012.7 12255.1 -20704.3 -8042.11 -20547.2 -1570.9)
(-26752.7 8955.98 -16821.8 -4301.89 -23830.3 -1570.86)
(-29138.9 4576.55 -12428.1 -1915.86 -26389.3 -1570.9)
(-29883.3 -354.845 -7656.88 -1171.39 -28146.6 -1571)
(-28896.3 -5243.47 -2652.95 -2158.68 -29048.5 -1570.97)
(-26296.5 -9499.71 2431.62 -4757.97 -29067.9 -1570.94)
(6640.33 -1206.42 3832.16 11672.9 19105.9 42554.4)
(7204.8 -1994.25 456.282 11108.6 19481.1 42554.6)
(8004.43 -2541.53 -2933.45 10308.6 19264.3 42554.5)
(8943.33 -2782.39 -6234.26 9370.14 18462.4 42554.5)
(9907.75 -2687.55 -9345.49 8405.44 17099.2 42554.5)
(10781.7 -2268.6 -12172.8 7531.62 15216.7 42554.4)
(11459.5 -1575.92 -14630 6853.75 12871.7 42554.6)
(11859.6 -693.295 -16643 6453.53 10135.7 42554.4)
(11933.8 273.047 -18150.2 6379.54 7091.64 42554.5)
(11672.9 1206.42 -19105.9 6640.33 3832.16 42554.4)
(11108.6 1994.25 -19481.1 7204.8 456.282 42554.6)
(10308.6 2541.53 -19264.3 8004.43 -2933.45 42554.5)
(9370.14 2782.39 -18462.4 8943.33 -6234.26 42554.5)
(8405.44 2687.55 -17099.2 9907.74 -9345.49 42554.5)
(7531.62 2268.6 -15216.7 10781.7 -12172.8 42554.4)
(6853.75 1575.92 -12871.7 11459.5 -14630 42554.6)
(6453.53 693.296 -10135.7 11859.6 -16643 42554.4)
(6379.54 -273.047 -7091.64 11933.8 -18150.2 42554.5)
(6640.33 -1206.42 -3832.16 11672.9 -19105.9 42554.4)
(7204.8 -1994.25 -456.282 11108.6 -19481.1 42554.6)