/*--------------------------------*- C++ -*----------------------------------*\
| =========                 |                                                 |
| \\      /  F ield         | OpenFOAM: The Open Source CFD Toolbox           |
|  \\    /   O peration     | Version:  2312                                  |
|   \\  /    A nd           | Website:  www.openfoam.com                      |
|    \\/     M anipulation  |                                                 |
\*---------------------------------------------------------------------------*/
FoamFile
{
    version     2.0;
    format      ascii;
    arch        "LSB;label=32;scalar=64";
    class       volVectorField;
    location    "0.9";
    object      U;
}
// * * * * * * * * * * * * * * * * * * * * * * * * * * * * * * * * * * * * * //

dimensions      [0 1 -1 0 0 0 0];

internalField   nonuniform List<vector> 
1620
(
(5.695e-05 6.65174e-05 -1.64827e-05)
(4.45342e-05 7.53958e-05 -1.64832e-05)
(3.07653e-05 8.19835e-05 -1.64831e-05)
(1.60619e-05 8.60807e-05 -1.64824e-05)
(8.70153e-07 8.75626e-05 -1.64823e-05)
(-1.43485e-05 8.63835e-05 -1.64826e-05)
(-2.9131e-05 8.25792e-05 -1.64821e-05)
(-4.30283e-05 7.6266e-05 -1.6482e-05)
(-5.56177e-05 6.76354e-05 -1.64825e-05)
(-6.65174e-05 5.695e-05 -1.64827e-05)
(-7.53958e-05 4.45342e-05 -1.64832e-05)
(-8.19835e-05 3.07653e-05 -1.64831e-05)
(-8.60807e-05 1.60619e-05 -1.64824e-05)
(-8.75626e-05 8.70166e-07 -1.64823e-05)
(-8.63835e-05 -1.43485e-05 -1.64826e-05)
(-8.25792e-05 -2.9131e-05 -1.64821e-05)
(-7.6266e-05 -4.30283e-05 -1.6482e-05)
(-6.76354e-05 -5.56177e-05 -1.64825e-05)
(-5.695e-05 -6.65174e-05 -1.64827e-05)
(-4.45342e-05 -7.53958e-05 -1.64832e-05)
(-3.07653e-05 -8.19835e-05 -1.64831e-05)
(-1.60619e-05 -8.60807e-05 -1.64824e-05)
(-8.70163e-07 -8.75626e-05 -1.64823e-05)
(1.43485e-05 -8.63835e-05 -1.64826e-05)
(2.9131e-05 -8.25792e-05 -1.64821e-05)
(4.30283e-05 -7.6266e-05 -1.6482e-05)
(5.56177e-05 -6.76354e-05 -1.64825e-05)
(6.65174e-05 -5.695e-05 -1.64827e-05)
(7.53958e-05 -4.45342e-05 -1.64832e-05)
(8.19835e-05 -3.07653e-05 -1.64831e-05)
(8.60807e-05 -1.60619e-05 -1.64824e-05)
(8.75626e-05 -8.70156e-07 -1.64823e-05)
(8.63835e-05 1.43485e-05 -1.64826e-05)
(8.25792e-05 2.9131e-05 -1.64821e-05)
(7.6266e-05 4.30283e-05 -1.6482e-05)
(6.76354e-05 5.56177e-05 -1.64825e-05)
(3.74162e-05 0.000128355 4.32712e-05)
(1.45593e-05 0.000132902 4.3271e-05)
(-8.73982e-06 0.000133411 4.32711e-05)
(-3.17735e-05 0.000129867 4.32714e-05)
(-5.38423e-05 0.000122376 4.32715e-05)
(-7.4275e-05 0.000111168 4.32714e-05)
(-9.24506e-05 9.65809e-05 4.32714e-05)
(-0.000107817 7.90597e-05 4.32715e-05)
(-0.000119908 5.91364e-05 4.32712e-05)
(-0.000128355 3.74162e-05 4.32712e-05)
(-0.000132902 1.45593e-05 4.3271e-05)
(-0.000133411 -8.7398e-06 4.3271e-05)
(-0.000129867 -3.17735e-05 4.32714e-05)
(-0.000122376 -5.38423e-05 4.32715e-05)
(-0.000111168 -7.42749e-05 4.32714e-05)
(-9.65809e-05 -9.24505e-05 4.32714e-05)
(-7.90597e-05 -0.000107817 4.32715e-05)
(-5.91364e-05 -0.000119908 4.32712e-05)
(-3.74162e-05 -0.000128355 4.32712e-05)
(-1.45594e-05 -0.000132902 4.3271e-05)
(8.7398e-06 -0.000133411 4.3271e-05)
(3.17735e-05 -0.000129867 4.32714e-05)
(5.38423e-05 -0.000122376 4.32715e-05)
(7.4275e-05 -0.000111168 4.32714e-05)
(9.24505e-05 -9.65809e-05 4.32714e-05)
(0.000107817 -7.90597e-05 4.32715e-05)
(0.000119908 -5.91363e-05 4.32712e-05)
(0.000128355 -3.74162e-05 4.32712e-05)
(0.000132902 -1.45593e-05 4.3271e-05)
(0.000133411 8.73981e-06 4.32711e-05)
(0.000129867 3.17735e-05 4.32714e-05)
(0.000122376 5.38423e-05 4.32715e-05)
(0.000111168 7.4275e-05 4.32714e-05)
(9.65809e-05 9.24506e-05 4.32714e-05)
(7.90597e-05 0.000107817 4.32715e-05)
(5.91363e-05 0.000119908 4.32712e-05)
(-2.00463e-05 0.000170934 7.89141e-05)
(-4.94241e-05 0.000164857 7.89142e-05)
(-7.73002e-05 0.00015377 7.89141e-05)
(-0.000102828 0.00013801 7.89142e-05)
(-0.000125231 0.000118058 7.89144e-05)
(-0.000143829 9.45181e-05 7.89144e-05)
(-0.000158057 6.81065e-05 7.89143e-05)
(-0.000167482 3.96254e-05 7.8914e-05)
(-0.000171819 9.94056e-06 7.89141e-05)
(-0.000170934 -2.00463e-05 7.89141e-05)
(-0.000164857 -4.94241e-05 7.89142e-05)
(-0.00015377 -7.73002e-05 7.89141e-05)
(-0.000138011 -0.000102828 7.89142e-05)
(-0.000118058 -0.000125231 7.89144e-05)
(-9.45181e-05 -0.000143829 7.89144e-05)
(-6.81065e-05 -0.000158057 7.89143e-05)
(-3.96254e-05 -0.000167482 7.8914e-05)
(-9.94056e-06 -0.000171819 7.89141e-05)
(2.00463e-05 -0.000170934 7.89141e-05)
(4.94241e-05 -0.000164857 7.89142e-05)
(7.73002e-05 -0.00015377 7.89141e-05)
(0.000102828 -0.00013801 7.89142e-05)
(0.000125231 -0.000118058 7.89144e-05)
(0.000143829 -9.45181e-05 7.89144e-05)
(0.000158057 -6.81064e-05 7.89143e-05)
(0.000167482 -3.96254e-05 7.8914e-05)
(0.000171819 -9.94055e-06 7.89141e-05)
(0.000170934 2.00463e-05 7.89141e-05)
(0.000164857 4.94241e-05 7.89142e-05)
(0.00015377 7.73002e-05 7.89141e-05)
(0.00013801 0.000102828 7.89142e-05)
(0.000118058 0.000125231 7.89144e-05)
(9.45181e-05 0.000143829 7.89144e-05)
(6.81064e-05 0.000158057 7.89143e-05)
(3.96254e-05 0.000167482 7.8914e-05)
(9.94054e-06 0.000171819 7.89141e-05)
(0.000109258 0.0002171 -2.12336e-05)
(6.98995e-05 0.000232774 -2.12344e-05)
(2.84168e-05 0.000241375 -2.12343e-05)
(-1.39293e-05 0.000242643 -2.12321e-05)
(-5.58523e-05 0.000236538 -2.12311e-05)
(-9.60784e-05 0.000223246 -2.12318e-05)
(-0.000133385 0.000203171 -2.12318e-05)
(-0.000166639 0.000176922 -2.12321e-05)
(-0.000194829 0.000145297 -2.12332e-05)
(-0.0002171 0.000109258 -2.12336e-05)
(-0.000232774 6.98996e-05 -2.12344e-05)
(-0.000241375 2.84168e-05 -2.12343e-05)
(-0.000242643 -1.39293e-05 -2.12321e-05)
(-0.000236538 -5.58523e-05 -2.12311e-05)
(-0.000223246 -9.60784e-05 -2.12318e-05)
(-0.000203171 -0.000133385 -2.12318e-05)
(-0.000176922 -0.000166639 -2.12321e-05)
(-0.000145297 -0.000194829 -2.12332e-05)
(-0.000109258 -0.0002171 -2.12336e-05)
(-6.98996e-05 -0.000232774 -2.12344e-05)
(-2.84168e-05 -0.000241375 -2.12343e-05)
(1.39293e-05 -0.000242643 -2.12321e-05)
(5.58523e-05 -0.000236538 -2.12311e-05)
(9.60784e-05 -0.000223246 -2.12318e-05)
(0.000133385 -0.000203171 -2.12318e-05)
(0.000166639 -0.000176922 -2.12321e-05)
(0.000194829 -0.000145297 -2.12331e-05)
(0.0002171 -0.000109258 -2.12335e-05)
(0.000232774 -6.98995e-05 -2.12344e-05)
(0.000241375 -2.84168e-05 -2.12343e-05)
(0.000242643 1.39293e-05 -2.12321e-05)
(0.000236538 5.58523e-05 -2.12311e-05)
(0.000223246 9.60784e-05 -2.12318e-05)
(0.000203171 0.000133385 -2.12318e-05)
(0.000176922 0.000166639 -2.12321e-05)
(0.000145297 0.000194829 -2.12331e-05)
(5.67879e-05 0.000366221 0.000115177)
(-7.66789e-06 0.000370518 0.000115176)
(-7.18909e-05 0.000363558 0.000115177)
(-0.00013393 0.000345551 0.000115178)
(-0.0001919 0.000317045 0.000115178)
(-0.000244039 0.000278905 0.000115178)
(-0.000288762 0.00023229 0.000115178)
(-0.000324712 0.000178618 0.000115178)
(-0.000350796 0.000119519 0.000115177)
(-0.000366221 5.67879e-05 0.000115177)
(-0.000370518 -7.66786e-06 0.000115176)
(-0.000363558 -7.18908e-05 0.000115177)
(-0.000345551 -0.00013393 0.000115178)
(-0.000317044 -0.0001919 0.000115178)
(-0.000278905 -0.000244039 0.000115178)
(-0.00023229 -0.000288762 0.000115178)
(-0.000178618 -0.000324712 0.000115178)
(-0.000119519 -0.000350796 0.000115177)
(-5.67879e-05 -0.000366221 0.000115177)
(7.66786e-06 -0.000370518 0.000115176)
(7.18908e-05 -0.000363558 0.000115177)
(0.00013393 -0.000345551 0.000115178)
(0.0001919 -0.000317044 0.000115178)
(0.000244039 -0.000278905 0.000115178)
(0.000288762 -0.00023229 0.000115178)
(0.000324712 -0.000178618 0.000115178)
(0.000350796 -0.000119519 0.000115177)
(0.000366221 -5.67879e-05 0.000115177)
(0.000370518 7.66789e-06 0.000115176)
(0.000363558 7.18908e-05 0.000115177)
(0.000345551 0.00013393 0.000115178)
(0.000317044 0.0001919 0.000115178)
(0.000278905 0.000244039 0.000115178)
(0.00023229 0.000288762 0.000115178)
(0.000178618 0.000324712 0.000115178)
(0.000119519 0.000350796 0.000115177)
(-4.01568e-05 0.000492602 0.000218058)
(-0.000125086 0.000478145 0.000218058)
(-0.000206214 0.00044916 0.000218058)
(-0.000281076 0.000406528 0.000218058)
(-0.000347399 0.000351543 0.000218058)
(-0.000403166 0.000285876 0.000218058)
(-0.000446684 0.000211524 0.000218058)
(-0.000476629 0.000130744 0.000218058)
(-0.000492091 4.59926e-05 0.000218058)
(-0.000492602 -4.01568e-05 0.000218058)
(-0.000478145 -0.000125086 0.000218058)
(-0.00044916 -0.000206214 0.000218058)
(-0.000406528 -0.000281076 0.000218058)
(-0.000351543 -0.000347399 0.000218058)
(-0.000285876 -0.000403166 0.000218058)
(-0.000211524 -0.000446683 0.000218058)
(-0.000130744 -0.000476629 0.000218058)
(-4.59926e-05 -0.000492091 0.000218058)
(4.01568e-05 -0.000492602 0.000218058)
(0.000125086 -0.000478145 0.000218058)
(0.000206214 -0.00044916 0.000218058)
(0.000281076 -0.000406527 0.000218058)
(0.000347399 -0.000351543 0.000218058)
(0.000403166 -0.000285876 0.000218058)
(0.000446683 -0.000211524 0.000218058)
(0.000476629 -0.000130744 0.000218058)
(0.000492091 -4.59926e-05 0.000218058)
(0.000492602 4.01568e-05 0.000218058)
(0.000478145 0.000125086 0.000218058)
(0.00044916 0.000206214 0.000218058)
(0.000406527 0.000281076 0.000218058)
(0.000351543 0.000347399 0.000218058)
(0.000285876 0.000403166 0.000218058)
(0.000211524 0.000446684 0.000218058)
(0.000130744 0.000476629 0.000218058)
(4.59926e-05 0.000492091 0.000218058)
(6.87891e-05 0.000394609 -1.26503e-05)
(-7.78705e-07 0.000400558 -1.26505e-05)
(-7.03231e-05 0.000394338 -1.26503e-05)
(-0.000137731 0.000376135 -1.26483e-05)
(-0.000200954 0.000346504 -1.2647e-05)
(-0.000258071 0.000306345 -1.26469e-05)
(-0.000307347 0.000256878 -1.26468e-05)
(-0.000347284 0.000199605 -1.26477e-05)
(-0.000376669 0.000136267 -1.26495e-05)
(-0.000394609 6.87891e-05 -1.26504e-05)
(-0.000400558 -7.78657e-07 -1.26506e-05)
(-0.000394338 -7.0323e-05 -1.26503e-05)
(-0.000376135 -0.000137731 -1.26484e-05)
(-0.000346504 -0.000200954 -1.26471e-05)
(-0.000306345 -0.000258071 -1.26469e-05)
(-0.000256878 -0.000307347 -1.26468e-05)
(-0.000199605 -0.000347284 -1.26477e-05)
(-0.000136267 -0.000376669 -1.26495e-05)
(-6.87891e-05 -0.000394609 -1.26503e-05)
(7.78654e-07 -0.000400558 -1.26505e-05)
(7.0323e-05 -0.000394338 -1.26503e-05)
(0.000137731 -0.000376135 -1.26483e-05)
(0.000200954 -0.000346504 -1.2647e-05)
(0.000258071 -0.000306345 -1.26468e-05)
(0.000307347 -0.000256878 -1.26467e-05)
(0.000347284 -0.000199605 -1.26477e-05)
(0.000376669 -0.000136267 -1.26494e-05)
(0.000394609 -6.87891e-05 -1.26503e-05)
(0.000400558 7.78689e-07 -1.26505e-05)
(0.000394338 7.0323e-05 -1.26503e-05)
(0.000376135 0.000137731 -1.26483e-05)
(0.000346504 0.000200954 -1.2647e-05)
(0.000306345 0.000258071 -1.26468e-05)
(0.000256878 0.000307347 -1.26467e-05)
(0.000199605 0.000347284 -1.26477e-05)
(0.000136267 0.000376669 -1.26494e-05)
(1.41249e-05 0.000592605 0.000161082)
(-8.89939e-05 0.000586055 0.000161081)
(-0.000189409 0.000561698 0.000161081)
(-0.000284069 0.000520274 0.000161082)
(-0.000370098 0.000463042 0.000161083)
(-0.000444882 0.00039174 0.000161083)
(-0.000506148 0.000308535 0.000161083)
(-0.000552036 0.000215956 0.000161083)
(-0.000581149 0.000116815 0.000161082)
(-0.000592605 1.4125e-05 0.000161082)
(-0.000586055 -8.89939e-05 0.000161081)
(-0.000561698 -0.000189409 0.000161081)
(-0.000520274 -0.000284069 0.000161082)
(-0.000463042 -0.000370098 0.000161083)
(-0.00039174 -0.000444882 0.000161083)
(-0.000308535 -0.000506148 0.000161083)
(-0.000215956 -0.000552035 0.000161083)
(-0.000116815 -0.000581149 0.000161082)
(-1.4125e-05 -0.000592605 0.000161082)
(8.89939e-05 -0.000586055 0.000161081)
(0.000189409 -0.000561698 0.000161081)
(0.000284069 -0.000520274 0.000161082)
(0.000370098 -0.000463042 0.000161083)
(0.000444882 -0.00039174 0.000161083)
(0.000506148 -0.000308535 0.000161083)
(0.000552036 -0.000215956 0.000161083)
(0.000581149 -0.000116815 0.000161082)
(0.000592605 -1.4125e-05 0.000161082)
(0.000586055 8.89939e-05 0.000161081)
(0.000561698 0.000189409 0.000161081)
(0.000520274 0.000284069 0.000161082)
(0.000463042 0.000370098 0.000161083)
(0.00039174 0.000444882 0.000161083)
(0.000308535 0.000506148 0.000161083)
(0.000215956 0.000552036 0.000161083)
(0.000116815 0.000581149 0.000161082)
(-8.06906e-05 0.000765532 0.000304667)
(-0.000212397 0.00073989 0.000304667)
(-0.000337651 0.000691768 0.000304667)
(-0.000452645 0.000622627 0.000304667)
(-0.000553886 0.000534566 0.000304667)
(-0.000638298 0.000430263 0.000304668)
(-0.000703315 0.000312886 0.000304668)
(-0.000746962 0.000186003 0.000304668)
(-0.000767913 5.34685e-05 0.000304668)
(-0.000765532 -8.06905e-05 0.000304667)
(-0.00073989 -0.000212397 0.000304667)
(-0.000691768 -0.00033765 0.000304667)
(-0.000622627 -0.000452645 0.000304667)
(-0.000534566 -0.000553886 0.000304667)
(-0.000430263 -0.000638298 0.000304668)
(-0.000312886 -0.000703315 0.000304668)
(-0.000186003 -0.000746962 0.000304668)
(-5.34685e-05 -0.000767913 0.000304668)
(8.06905e-05 -0.000765532 0.000304667)
(0.000212397 -0.00073989 0.000304667)
(0.00033765 -0.000691768 0.000304667)
(0.000452645 -0.000622627 0.000304667)
(0.000553886 -0.000534566 0.000304667)
(0.000638298 -0.000430263 0.000304668)
(0.000703315 -0.000312886 0.000304668)
(0.000746962 -0.000186003 0.000304668)
(0.000767913 -5.34685e-05 0.000304668)
(0.000765532 8.06905e-05 0.000304667)
(0.00073989 0.000212397 0.000304667)
(0.000691768 0.000337651 0.000304667)
(0.000622627 0.000452645 0.000304667)
(0.000534566 0.000553886 0.000304667)
(0.000430263 0.000638298 0.000304668)
(0.000312886 0.000703315 0.000304668)
(0.000186003 0.000746962 0.000304668)
(5.34684e-05 0.000767913 0.000304668)
(-7.45925e-05 0.000576425 -5.01798e-05)
(-0.000173555 0.000554715 -5.01807e-05)
(-0.000267243 0.00051615 -5.01802e-05)
(-0.000352811 0.000461902 -5.01793e-05)
(-0.00042766 0.00039362 -5.01786e-05)
(-0.000489514 0.000313377 -5.01775e-05)
(-0.000536495 0.000223613 -5.0177e-05)
(-0.000567174 0.000127055 -5.01775e-05)
(-0.00058062 2.6636e-05 -5.0179e-05)
(-0.000576425 -7.45924e-05 -5.01799e-05)
(-0.000554715 -0.000173555 -5.01808e-05)
(-0.00051615 -0.000267243 -5.01803e-05)
(-0.000461902 -0.000352811 -5.01793e-05)
(-0.00039362 -0.00042766 -5.01786e-05)
(-0.000313377 -0.000489514 -5.01775e-05)
(-0.000223613 -0.000536495 -5.0177e-05)
(-0.000127055 -0.000567174 -5.01775e-05)
(-2.6636e-05 -0.00058062 -5.01789e-05)
(7.45924e-05 -0.000576425 -5.01799e-05)
(0.000173555 -0.000554715 -5.01808e-05)
(0.000267243 -0.00051615 -5.01802e-05)
(0.000352811 -0.000461902 -5.01792e-05)
(0.00042766 -0.00039362 -5.01785e-05)
(0.000489514 -0.000313377 -5.01774e-05)
(0.000536495 -0.000223613 -5.01769e-05)
(0.000567174 -0.000127054 -5.01774e-05)
(0.00058062 -2.66359e-05 -5.01788e-05)
(0.000576425 7.45924e-05 -5.01798e-05)
(0.000554715 0.000173555 -5.01807e-05)
(0.00051615 0.000267243 -5.01801e-05)
(0.000461902 0.000352811 -5.01792e-05)
(0.00039362 0.00042766 -5.01785e-05)
(0.000313377 0.000489514 -5.01774e-05)
(0.000223613 0.000536495 -5.0177e-05)
(0.000127054 0.000567174 -5.01775e-05)
(2.66359e-05 0.00058062 -5.01789e-05)
(-9.84669e-05 0.000796253 0.00014303)
(-0.000235239 0.000767058 0.000143029)
(-0.000364863 0.000714556 0.00014303)
(-0.0004834 0.000640342 0.00014303)
(-0.00058725 0.000546672 0.00014303)
(-0.000673258 0.000436392 0.000143031)
(-0.000738808 0.000312852 0.000143031)
(-0.00078191 0.000179806 0.000143031)
(-0.000801255 4.1297e-05 0.000143031)
(-0.000796253 -9.84669e-05 0.00014303)
(-0.000767058 -0.000235239 0.000143029)
(-0.000714556 -0.000364863 0.00014303)
(-0.000640342 -0.0004834 0.00014303)
(-0.000546672 -0.00058725 0.00014303)
(-0.000436392 -0.000673258 0.000143031)
(-0.000312852 -0.000738808 0.000143031)
(-0.000179806 -0.00078191 0.000143031)
(-4.1297e-05 -0.000801255 0.000143031)
(9.84669e-05 -0.000796253 0.00014303)
(0.000235239 -0.000767057 0.000143029)
(0.000364863 -0.000714556 0.00014303)
(0.0004834 -0.000640342 0.00014303)
(0.00058725 -0.000546672 0.00014303)
(0.000673258 -0.000436392 0.000143031)
(0.000738808 -0.000312852 0.000143031)
(0.00078191 -0.000179806 0.000143031)
(0.000801255 -4.1297e-05 0.000143031)
(0.000796253 9.84669e-05 0.00014303)
(0.000767058 0.000235239 0.00014303)
(0.000714556 0.000364863 0.00014303)
(0.000640342 0.0004834 0.00014303)
(0.000546672 0.00058725 0.00014303)
(0.000436392 0.000673258 0.000143031)
(0.000312852 0.000738808 0.000143031)
(0.000179806 0.00078191 0.000143031)
(4.12969e-05 0.000801255 0.000143031)
(-0.000160712 0.000990328 0.000309993)
(-0.000330239 0.000947376 0.000309992)
(-0.000489732 0.000875638 0.000309992)
(-0.000634344 0.000777294 0.000309992)
(-0.000759682 0.000655333 0.000309992)
(-0.000861938 0.000513459 0.000309992)
(-0.000938005 0.000355984 0.000309992)
(-0.00098557 0.000187693 0.000309992)
(-0.00100319 1.36985e-05 0.000309993)
(-0.000990328 -0.000160712 0.000309992)
(-0.000947376 -0.000330239 0.000309992)
(-0.000875638 -0.000489731 0.000309992)
(-0.000777294 -0.000634344 0.000309992)
(-0.000655333 -0.000759682 0.000309992)
(-0.000513459 -0.000861938 0.000309992)
(-0.000355984 -0.000938005 0.000309992)
(-0.000187693 -0.00098557 0.000309992)
(-1.36985e-05 -0.00100319 0.000309993)
(0.000160712 -0.000990328 0.000309992)
(0.000330239 -0.000947376 0.000309992)
(0.000489731 -0.000875638 0.000309992)
(0.000634344 -0.000777294 0.000309992)
(0.000759682 -0.000655333 0.000309992)
(0.000861938 -0.000513459 0.000309992)
(0.000938005 -0.000355984 0.000309992)
(0.00098557 -0.000187693 0.000309992)
(0.00100319 -1.36984e-05 0.000309993)
(0.000990328 0.000160712 0.000309993)
(0.000947376 0.000330239 0.000309992)
(0.000875638 0.000489731 0.000309992)
(0.000777294 0.000634344 0.000309992)
(0.000655333 0.000759682 0.000309992)
(0.000513459 0.000861938 0.000309992)
(0.000355984 0.000938005 0.000309992)
(0.000187693 0.00098557 0.000309992)
(1.36984e-05 0.00100319 0.000309993)
(-0.000287795 0.000728098 -0.000169076)
(-0.000409856 0.000667061 -0.000169078)
(-0.000519463 0.000585757 -0.000169077)
(-0.000613286 0.000486654 -0.000169077)
(-0.000688475 0.000372764 -0.000169076)
(-0.000742745 0.000247548 -0.000169075)
(-0.000774448 0.000114811 -0.000169075)
(-0.000782619 -2.14149e-05 -0.000169075)
(-0.000767011 -0.00015699 -0.000169076)
(-0.000728098 -0.000287795 -0.000169077)
(-0.000667061 -0.000409855 -0.000169078)
(-0.000585757 -0.000519463 -0.000169077)
(-0.000486654 -0.000613286 -0.000169077)
(-0.000372764 -0.000688475 -0.000169076)
(-0.000247548 -0.000742745 -0.000169075)
(-0.000114811 -0.000774448 -0.000169075)
(2.14149e-05 -0.000782619 -0.000169075)
(0.00015699 -0.000767011 -0.000169076)
(0.000287795 -0.000728098 -0.000169076)
(0.000409855 -0.000667061 -0.000169078)
(0.000519463 -0.000585756 -0.000169077)
(0.000613286 -0.000486654 -0.000169076)
(0.000688475 -0.000372764 -0.000169076)
(0.000742745 -0.000247548 -0.000169075)
(0.000774448 -0.000114811 -0.000169075)
(0.000782619 2.1415e-05 -0.000169075)
(0.000767011 0.00015699 -0.000169075)
(0.000728098 0.000287795 -0.000169076)
(0.000667061 0.000409856 -0.000169078)
(0.000585757 0.000519463 -0.000169077)
(0.000486654 0.000613286 -0.000169076)
(0.000372764 0.000688475 -0.000169076)
(0.000247548 0.000742745 -0.000169075)
(0.000114811 0.000774448 -0.000169075)
(-2.1415e-05 0.000782619 -0.000169075)
(-0.00015699 0.000767011 -0.000169076)
(-0.000271308 0.000966254 4.03438e-05)
(-0.000434975 0.000904462 4.0343e-05)
(-0.000585425 0.000815189 4.03433e-05)
(-0.000718087 0.000701147 4.03438e-05)
(-0.00082893 0.000565801 4.03439e-05)
(-0.000914587 0.000413263 4.03442e-05)
(-0.000972454 0.000248168 4.03444e-05)
(-0.00100077 7.55323e-05 4.03442e-05)
(-0.000998687 -9.93978e-05 4.03443e-05)
(-0.000966254 -0.000271308 4.03437e-05)
(-0.000904462 -0.000434975 4.03429e-05)
(-0.000815189 -0.000585425 4.03432e-05)
(-0.000701147 -0.000718087 4.03437e-05)
(-0.0005658 -0.00082893 4.03439e-05)
(-0.000413263 -0.000914586 4.03441e-05)
(-0.000248168 -0.000972454 4.03444e-05)
(-7.55323e-05 -0.00100077 4.03442e-05)
(9.93978e-05 -0.000998687 4.03443e-05)
(0.000271308 -0.000966254 4.03438e-05)
(0.000434975 -0.000904462 4.0343e-05)
(0.000585425 -0.000815189 4.03433e-05)
(0.000718087 -0.000701147 4.03438e-05)
(0.00082893 -0.0005658 4.0344e-05)
(0.000914586 -0.000413262 4.03443e-05)
(0.000972454 -0.000248168 4.03445e-05)
(0.00100077 -7.55322e-05 4.03443e-05)
(0.000998687 9.93979e-05 4.03444e-05)
(0.000966254 0.000271308 4.03439e-05)
(0.000904462 0.000434975 4.03431e-05)
(0.000815189 0.000585425 4.03434e-05)
(0.000701147 0.000718087 4.03439e-05)
(0.0005658 0.00082893 4.0344e-05)
(0.000413262 0.000914587 4.03443e-05)
(0.000248168 0.000972454 4.03445e-05)
(7.55322e-05 0.00100077 4.03443e-05)
(-9.93979e-05 0.000998687 4.03444e-05)
(-0.000292383 0.00117663 0.000226855)
(-0.00049226 0.00110798 0.000226855)
(-0.00067718 0.00100567 0.000226855)
(-0.000841525 0.000872799 0.000226855)
(-0.0009803 0.00071341 0.000226854)
(-0.00108929 0.000532344 0.000226855)
(-0.00116518 0.000335104 0.000226855)
(-0.00120567 0.000127681 0.000226855)
(-0.00120952 -8.36209e-05 0.000226855)
(-0.00117663 -0.000292382 0.000226855)
(-0.00110798 -0.00049226 0.000226855)
(-0.00100567 -0.00067718 0.000226855)
(-0.000872799 -0.000841525 0.000226855)
(-0.00071341 -0.0009803 0.000226854)
(-0.000532344 -0.00108929 0.000226854)
(-0.000335104 -0.00116518 0.000226855)
(-0.000127681 -0.00120567 0.000226855)
(8.36209e-05 -0.00120952 0.000226855)
(0.000292382 -0.00117663 0.000226855)
(0.00049226 -0.00110798 0.000226855)
(0.00067718 -0.00100567 0.000226855)
(0.000841525 -0.000872798 0.000226855)
(0.0009803 -0.00071341 0.000226854)
(0.00108929 -0.000532344 0.000226855)
(0.00116518 -0.000335104 0.000226855)
(0.00120567 -0.000127681 0.000226855)
(0.00120952 8.3621e-05 0.000226855)
(0.00117663 0.000292382 0.000226855)
(0.00110798 0.00049226 0.000226855)
(0.00100567 0.00067718 0.000226855)
(0.000872798 0.000841525 0.000226855)
(0.00071341 0.0009803 0.000226855)
(0.000532344 0.00108929 0.000226855)
(0.000335104 0.00116518 0.000226855)
(0.000127681 0.00120567 0.000226855)
(-8.3621e-05 0.00120952 0.000226855)
(-0.000536796 0.000828304 -0.000379672)
(-0.000672474 0.000722507 -0.000379674)
(-0.00078772 0.000594756 -0.000379674)
(-0.000879031 0.000448934 -0.000379673)
(-0.000943632 0.000289472 -0.000379672)
(-0.000979562 0.000121214 -0.000379672)
(-0.00098573 -5.07268e-05 -0.000379673)
(-0.000961946 -0.000221127 -0.000379672)
(-0.000908934 -0.000384807 -0.000379671)
(-0.000828304 -0.000536795 -0.000379672)
(-0.000722507 -0.000672474 -0.000379674)
(-0.000594756 -0.00078772 -0.000379674)
(-0.000448934 -0.000879031 -0.000379673)
(-0.000289472 -0.000943632 -0.000379672)
(-0.000121214 -0.000979562 -0.000379672)
(5.07269e-05 -0.000985729 -0.000379673)
(0.000221127 -0.000961945 -0.000379672)
(0.000384807 -0.000908934 -0.000379671)
(0.000536795 -0.000828304 -0.000379672)
(0.000672474 -0.000722506 -0.000379674)
(0.00078772 -0.000594756 -0.000379674)
(0.000879031 -0.000448934 -0.000379673)
(0.000943632 -0.000289472 -0.000379672)
(0.000979562 -0.000121214 -0.000379672)
(0.000985729 5.07269e-05 -0.000379672)
(0.000961946 0.000221127 -0.000379672)
(0.000908934 0.000384807 -0.000379671)
(0.000828304 0.000536796 -0.000379672)
(0.000722507 0.000672474 -0.000379674)
(0.000594756 0.00078772 -0.000379674)
(0.000448934 0.000879031 -0.000379673)
(0.000289472 0.000943632 -0.000379672)
(0.000121214 0.000979562 -0.000379672)
(-5.07269e-05 0.00098573 -0.000379673)
(-0.000221127 0.000961946 -0.000379672)
(-0.000384807 0.000908934 -0.000379671)
(-0.00048834 0.00109113 -0.00015036)
(-0.000670394 0.00098975 -0.000150361)
(-0.000832077 0.000858301 -0.000150361)
(-0.000968478 0.000700773 -0.000150361)
(-0.00107545 0.000521952 -0.00015036)
(-0.00114975 0.000327272 -0.000150361)
(-0.00118911 0.000122648 -0.00015036)
(-0.00119234 -8.57023e-05 -0.00015036)
(-0.00115935 -0.000291449 -0.00015036)
(-0.00109113 -0.00048834 -0.00015036)
(-0.00098975 -0.000670394 -0.000150361)
(-0.000858301 -0.000832077 -0.000150361)
(-0.000700773 -0.000968478 -0.000150361)
(-0.000521952 -0.00107545 -0.00015036)
(-0.000327272 -0.00114975 -0.000150361)
(-0.000122648 -0.00118911 -0.000150361)
(8.57023e-05 -0.00119234 -0.000150361)
(0.000291449 -0.00115935 -0.00015036)
(0.00048834 -0.00109113 -0.00015036)
(0.000670394 -0.00098975 -0.000150361)
(0.000832077 -0.000858301 -0.000150361)
(0.000968478 -0.000700773 -0.000150361)
(0.00107545 -0.000521952 -0.00015036)
(0.00114975 -0.000327272 -0.00015036)
(0.00118911 -0.000122648 -0.00015036)
(0.00119234 8.57023e-05 -0.00015036)
(0.00115935 0.000291449 -0.00015036)
(0.00109113 0.00048834 -0.00015036)
(0.00098975 0.000670394 -0.000150361)
(0.000858301 0.000832077 -0.000150361)
(0.000700773 0.000968478 -0.000150361)
(0.000521952 0.00107545 -0.00015036)
(0.000327272 0.00114975 -0.00015036)
(0.000122648 0.00118911 -0.00015036)
(-8.57024e-05 0.00119234 -0.00015036)
(-0.000291449 0.00115935 -0.00015036)
(-0.000474839 0.00132345 5.78091e-05)
(-0.000697442 0.00122089 5.7809e-05)
(-0.000898852 0.00108124 5.78093e-05)
(-0.00107295 0.000908726 5.78089e-05)
(-0.00121445 0.000708605 5.78088e-05)
(-0.00131905 0.000486953 5.78087e-05)
(-0.00138356 0.000250505 5.7809e-05)
(-0.00140604 6.44557e-06 5.78087e-05)
(-0.0013858 -0.00023781 5.7809e-05)
(-0.00132345 -0.000474839 5.7809e-05)
(-0.00122089 -0.000697442 5.78089e-05)
(-0.00108124 -0.000898852 5.78091e-05)
(-0.000908726 -0.00107295 5.78088e-05)
(-0.000708605 -0.00121445 5.78086e-05)
(-0.000486953 -0.00131905 5.78086e-05)
(-0.000250505 -0.00138356 5.7809e-05)
(-6.44558e-06 -0.00140604 5.78087e-05)
(0.00023781 -0.0013858 5.7809e-05)
(0.000474839 -0.00132345 5.7809e-05)
(0.000697442 -0.00122089 5.78089e-05)
(0.000898852 -0.00108124 5.78092e-05)
(0.00107295 -0.000908726 5.78089e-05)
(0.00121445 -0.000708605 5.78088e-05)
(0.00131905 -0.000486953 5.78087e-05)
(0.00138356 -0.000250505 5.78091e-05)
(0.00140604 -6.44552e-06 5.78088e-05)
(0.0013858 0.00023781 5.78092e-05)
(0.00132345 0.000474839 5.78092e-05)
(0.00122089 0.000697442 5.78091e-05)
(0.00108124 0.000898852 5.78094e-05)
(0.000908726 0.00107295 5.7809e-05)
(0.000708605 0.00121445 5.78089e-05)
(0.000486953 0.00131905 5.78088e-05)
(0.000250505 0.00138356 5.78092e-05)
(6.44549e-06 0.00140604 5.78088e-05)
(-0.00023781 0.0013858 5.78091e-05)
(-0.000791327 0.000870188 -0.000668427)
(-0.000930411 0.000719555 -0.000668428)
(-0.00104123 0.000547059 -0.000668428)
(-0.0011204 0.000357941 -0.000668429)
(-0.00116554 0.000157947 -0.000668429)
(-0.00117526 -4.68459e-05 -0.000668429)
(-0.00114927 -0.000250215 -0.000668428)
(-0.00108836 -0.000445982 -0.000668428)
(-0.00099438 -0.000628198 -0.000668427)
(-0.000870188 -0.000791326 -0.000668427)
(-0.000719555 -0.000930411 -0.000668428)
(-0.000547059 -0.00104123 -0.000668429)
(-0.000357941 -0.0011204 -0.000668429)
(-0.000157947 -0.00116554 -0.000668429)
(4.6846e-05 -0.00117526 -0.000668429)
(0.000250215 -0.00114927 -0.000668428)
(0.000445982 -0.00108836 -0.000668428)
(0.000628198 -0.00099438 -0.000668427)
(0.000791326 -0.000870188 -0.000668427)
(0.000930411 -0.000719555 -0.000668428)
(0.00104123 -0.000547059 -0.000668428)
(0.0011204 -0.000357941 -0.000668429)
(0.00116554 -0.000157947 -0.000668429)
(0.00117526 4.68461e-05 -0.000668428)
(0.00114927 0.000250215 -0.000668428)
(0.00108836 0.000445982 -0.000668427)
(0.00099438 0.000628198 -0.000668427)
(0.000870188 0.000791327 -0.000668427)
(0.000719555 0.000930411 -0.000668428)
(0.000547059 0.00104123 -0.000668428)
(0.000357941 0.0011204 -0.000668429)
(0.000157947 0.00116554 -0.000668429)
(-4.6846e-05 0.00117526 -0.000668428)
(-0.000250215 0.00114927 -0.000668428)
(-0.000445982 0.00108836 -0.000668428)
(-0.000628198 0.00099438 -0.000668427)
(-0.000728551 0.00116138 -0.000416728)
(-0.000919155 0.00101723 -0.000416728)
(-0.00108183 0.000842162 -0.000416729)
(-0.00121164 0.000641509 -0.000416729)
(-0.00130462 0.000421365 -0.000416729)
(-0.00135797 0.000188419 -0.000416729)
(-0.00137006 -5.02532e-05 -0.000416729)
(-0.00134052 -0.000287398 -0.000416729)
(-0.00127025 -0.000515811 -0.000416728)
(-0.00116138 -0.000728551 -0.000416728)
(-0.00101723 -0.000919155 -0.000416729)
(-0.000842162 -0.00108183 -0.000416729)
(-0.000641509 -0.00121164 -0.000416729)
(-0.000421365 -0.00130462 -0.000416729)
(-0.000188419 -0.00135797 -0.000416729)
(5.02532e-05 -0.00137006 -0.000416729)
(0.000287398 -0.00134052 -0.000416729)
(0.000515811 -0.00127025 -0.000416728)
(0.000728551 -0.00116138 -0.000416728)
(0.000919155 -0.00101723 -0.000416728)
(0.00108183 -0.000842162 -0.000416729)
(0.00121164 -0.000641509 -0.000416729)
(0.00130462 -0.000421365 -0.000416729)
(0.00135797 -0.000188419 -0.000416729)
(0.00137006 5.02533e-05 -0.000416729)
(0.00134052 0.000287398 -0.000416728)
(0.00127025 0.000515811 -0.000416728)
(0.00116138 0.000728551 -0.000416728)
(0.00101723 0.000919155 -0.000416728)
(0.000842162 0.00108183 -0.000416729)
(0.000641509 0.00121164 -0.000416729)
(0.000421365 0.00130462 -0.000416729)
(0.000188419 0.00135797 -0.000416729)
(-5.02533e-05 0.00137006 -0.000416729)
(-0.000287398 0.00134052 -0.000416728)
(-0.000515811 0.00127025 -0.000416728)
(-0.000694045 0.00142243 -0.000186426)
(-0.000930503 0.0012803 -0.000186425)
(-0.00113869 0.00109927 -0.000186426)
(-0.00131228 0.000884839 -0.000186426)
(-0.00144599 0.000643522 -0.000186426)
(-0.00153577 0.000382652 -0.000186426)
(-0.00157888 0.000110156 -0.000186426)
(-0.00157402 -0.000165688 -0.000186426)
(-0.00152134 -0.000436497 -0.000186426)
(-0.00142243 -0.000694045 -0.000186426)
(-0.0012803 -0.000930503 -0.000186426)
(-0.00109927 -0.00113869 -0.000186426)
(-0.000884839 -0.00131228 -0.000186426)
(-0.000643522 -0.00144599 -0.000186426)
(-0.000382652 -0.00153577 -0.000186426)
(-0.000110155 -0.00157888 -0.000186426)
(0.000165688 -0.00157402 -0.000186426)
(0.000436497 -0.00152134 -0.000186426)
(0.000694045 -0.00142243 -0.000186426)
(0.000930503 -0.0012803 -0.000186425)
(0.00113869 -0.00109927 -0.000186426)
(0.00131228 -0.000884839 -0.000186426)
(0.00144599 -0.000643522 -0.000186426)
(0.00153577 -0.000382652 -0.000186426)
(0.00157888 -0.000110155 -0.000186426)
(0.00157402 0.000165688 -0.000186426)
(0.00152134 0.000436498 -0.000186425)
(0.00142243 0.000694045 -0.000186426)