/*--------------------------------*- C++ -*----------------------------------*\
| =========                 |                                                 |
| \\      /  F ield         | OpenFOAM: The Open Source CFD Toolbox           |
|  \\    /   O peration     | Version:  2312                                  |
|   \\  /    A nd           | Website:  www.openfoam.com                      |
|    \\/     M anipulation  |                                                 |
\*---------------------------------------------------------------------------*/
FoamFile
{
    version     2.0;
    format      ascii;
    arch        "LSB;label=32;scalar=64";
    class       volVectorField;
    location    "0.3";
    object      D_0;
}
// * * * * * * * * * * * * * * * * * * * * * * * * * * * * * * * * * * * * * //

dimensions      [0 1 0 0 0 0 0];

internalField   nonuniform List<vector> 
1620
(
(0.00042428 0.000290791 -0.00125995)
(0.000559989 0.000374004 -0.00113624)
(0.000573207 0.000459637 -0.000870158)
(0.000477889 0.000478508 -0.000524611)
(0.000321506 0.0004083 -0.000176331)
(0.000148944 0.000266961 0.000118006)
(-1.27826e-05 8.78526e-05 0.000331657)
(-0.000152046 -9.79655e-05 0.000463246)
(-0.00026541 -0.000268424 0.000527679)
(-0.000352126 -0.000410584 0.000548152)
(-0.000411278 -0.000518384 0.000550518)
(-0.000441015 -0.000589581 0.000559393)
(-0.000438935 -0.000622327 0.000595278)
(-0.000402238 -0.000612764 0.000672153)
(-0.000326005 -0.000556956 0.00079454)
(-0.000200856 -0.000460233 0.000952474)
(-1.81759e-05 -0.000350166 0.00111597)
(0.000208481 -0.000278562 0.00123715)
(0.00042428 -0.000290791 0.00125995)
(0.000559989 -0.000374004 0.00113624)
(0.000573207 -0.000459637 0.000870158)
(0.000477889 -0.000478508 0.000524611)
(0.000321506 -0.0004083 0.000176331)
(0.000148944 -0.000266961 -0.000118006)
(-1.27826e-05 -8.78526e-05 -0.000331657)
(-0.000152046 9.79655e-05 -0.000463246)
(-0.00026541 0.000268424 -0.000527679)
(-0.000352126 0.000410584 -0.000548152)
(-0.000411278 0.000518384 -0.000550518)
(-0.000441015 0.000589581 -0.000559393)
(-0.000438935 0.000622327 -0.000595278)
(-0.000402238 0.000612764 -0.000672153)
(-0.000326005 0.000556956 -0.00079454)
(-0.000200856 0.000460233 -0.000952474)
(-1.81759e-05 0.000350166 -0.00111597)
(0.000208481 0.000278562 -0.00123715)
(0.000200247 0.000466906 -0.00105564)
(0.000246524 0.000441966 -0.000924984)
(0.000236072 0.000425326 -0.000738527)
(0.000168602 0.000403276 -0.000518111)
(5.9441e-05 0.00036404 -0.000290413)
(-6.90786e-05 0.000305227 -7.75265e-05)
(-0.000196821 0.000230933 0.000107452)
(-0.000309058 0.000147309 0.000260895)
(-0.000395965 5.96245e-05 0.000386928)
(-0.000451237 -2.91865e-05 0.000494632)
(-0.000471096 -0.00011879 0.000594669)
(-0.000454215 -0.000210292 0.000695698)
(-0.000402582 -0.000303477 0.000801252)
(-0.000322401 -0.000393255 0.000908095)
(-0.000223146 -0.000467916 0.00100691)
(-0.000113664 -0.000512756 0.0010848)
(7.47864e-07 -0.000519792 0.00112754)
(0.000111945 -0.000497603 0.00112137)
(0.000200247 -0.000466906 0.00105564)
(0.000246524 -0.000441966 0.000924984)
(0.000236072 -0.000425326 0.000738527)
(0.000168602 -0.000403276 0.000518111)
(5.9441e-05 -0.00036404 0.000290413)
(-6.90786e-05 -0.000305227 7.75265e-05)
(-0.000196821 -0.000230933 -0.000107452)
(-0.000309058 -0.000147309 -0.000260895)
(-0.000395965 -5.96245e-05 -0.000386928)
(-0.000451237 2.91865e-05 -0.000494632)
(-0.000471096 0.00011879 -0.000594669)
(-0.000454215 0.000210292 -0.000695698)
(-0.000402582 0.000303477 -0.000801252)
(-0.000322401 0.000393255 -0.000908095)
(-0.000223146 0.000467916 -0.00100691)
(-0.000113664 0.000512756 -0.0010848)
(7.47864e-07 0.000519792 -0.00112754)
(0.000111945 0.000497603 -0.00112137)
(2.8839e-05 0.000559292 -0.000905083)
(1.29177e-05 0.000469596 -0.000781412)
(-1.73747e-05 0.000392736 -0.00066202)
(-6.77322e-05 0.000355296 -0.000540095)
(-0.000144125 0.000356912 -0.00040507)
(-0.000242597 0.000381313 -0.000251377)
(-0.000349801 0.000408357 -7.993e-05)
(-0.000448544 0.000421027 0.000104259)
(-0.000522801 0.000407546 0.000295004)
(-0.000560474 0.000360716 0.000486502)
(-0.000554509 0.000276652 0.00067297)
(-0.000503641 0.000154516 0.000846951)
(-0.000413572 -1.98842e-06 0.000997595)
(-0.000298152 -0.000181605 0.0011107)
(-0.000178351 -0.000362725 0.00117211)
(-7.65109e-05 -0.0005143 0.00117412)
(-7.39813e-06 -0.000604335 0.00112038)
(2.57985e-05 -0.000615802 0.00102446)
(2.8839e-05 -0.000559292 0.000905083)
(1.29177e-05 -0.000469596 0.000781412)
(-1.73747e-05 -0.000392736 0.00066202)
(-6.77322e-05 -0.000355296 0.000540095)
(-0.000144125 -0.000356912 0.00040507)
(-0.000242597 -0.000381313 0.000251377)
(-0.000349801 -0.000408357 7.993e-05)
(-0.000448544 -0.000421027 -0.000104259)
(-0.000522801 -0.000407546 -0.000295004)
(-0.000560474 -0.000360716 -0.000486502)
(-0.000554509 -0.000276652 -0.00067297)
(-0.000503641 -0.000154516 -0.000846951)
(-0.000413572 1.98842e-06 -0.000997595)
(-0.000298152 0.000181605 -0.0011107)
(-0.000178351 0.000362725 -0.00117211)
(-7.65109e-05 0.0005143 -0.00117412)
(-7.39813e-06 0.000604335 -0.00112038)
(2.57985e-05 0.000615802 -0.00102446)
(0.00134508 0.00120834 -0.00330327)
(0.00166142 0.00125993 -0.00286024)
(0.00159191 0.00129719 -0.0021557)
(0.00120922 0.00123172 -0.00133144)
(0.000661378 0.00103984 -0.00052147)
(7.79944e-05 0.000745599 0.000178045)
(-0.000460111 0.000392164 0.000720082)
(-0.000914162 2.18281e-05 0.00110171)
(-0.00127034 -0.000333461 0.00135145)
(-0.00152471 -0.000654717 0.00151564)
(-0.00167358 -0.000934413 0.00164634)
(-0.0017094 -0.00117157 0.00179108)
(-0.0016215 -0.00136369 0.00198495)
(-0.00139992 -0.00149806 0.0022453)
(-0.00103963 -0.00155016 0.00256906)
(-0.00054321 -0.00150065 0.00292694)
(7.25725e-05 -0.00137047 0.00324742)
(0.000750236 -0.00124013 0.00340939)
(0.00134508 -0.00120834 0.00330327)
(0.00166142 -0.00125993 0.00286024)
(0.00159191 -0.00129719 0.0021557)
(0.00120922 -0.00123172 0.00133144)
(0.000661378 -0.00103984 0.00052147)
(7.79944e-05 -0.000745599 -0.000178045)
(-0.000460111 -0.000392164 -0.000720082)
(-0.000914162 -2.18281e-05 -0.00110171)
(-0.00127034 0.000333461 -0.00135145)
(-0.00152471 0.000654717 -0.00151564)
(-0.00167358 0.000934413 -0.00164634)
(-0.0017094 0.00117157 -0.00179108)
(-0.0016215 0.00136369 -0.00198495)
(-0.00139992 0.00149806 -0.0022453)
(-0.00103963 0.00155016 -0.00256906)
(-0.00054321 0.00150065 -0.00292694)
(7.25725e-05 0.00137047 -0.00324742)
(0.000750236 0.00124013 -0.00340939)
(0.000853922 0.00142804 -0.00304066)
(0.00100444 0.00131037 -0.00267223)
(0.000943904 0.0012172 -0.00215055)
(0.000683656 0.00111933 -0.00153621)
(0.000293348 0.00099326 -0.000894786)
(-0.000147863 0.000828859 -0.000282485)
(-0.000575893 0.000627466 0.000263465)
(-0.000946355 0.000397165 0.000728449)
(-0.00123103 0.000147699 0.00111834)
(-0.00141257 -0.000113689 0.00145321)
(-0.00148031 -0.000384039 0.00175872)
(-0.00142862 -0.000662862 0.00205682)
(-0.00125856 -0.000946292 0.00235756)
(-0.000981866 -0.00121876 0.00265412)
(-0.000624188 -0.00144757 0.00292352)
(-0.000222823 -0.00159006 0.00313315)
(0.000182788 -0.0016184 0.00324739)
(0.000557691 -0.00154517 0.00322748)
(0.000853922 -0.00142804 0.00304066)
(0.00100444 -0.00131037 0.00267223)
(0.000943904 -0.0012172 0.00215055)
(0.000683656 -0.00111933 0.00153621)
(0.000293348 -0.00099326 0.000894786)
(-0.000147863 -0.000828859 0.000282485)
(-0.000575893 -0.000627466 -0.000263465)
(-0.000946355 -0.000397165 -0.000728449)
(-0.00123103 -0.000147699 -0.00111834)
(-0.00141257 0.000113689 -0.00145321)
(-0.00148031 0.000384039 -0.00175872)
(-0.00142862 0.000662862 -0.00205682)
(-0.00125856 0.000946292 -0.00235756)
(-0.000981866 0.00121876 -0.00265412)
(-0.000624188 0.00144757 -0.00292352)
(-0.000222823 0.00159006 -0.00313315)
(0.000182788 0.0016184 -0.00324739)
(0.000557691 0.00154517 -0.00322748)
(0.000424059 0.00154404 -0.00275761)
(0.000438138 0.00130712 -0.00246532)
(0.000382776 0.0011198 -0.00212057)
(0.000230854 0.00100822 -0.00170768)
(-1.63103e-05 0.000955095 -0.0012283)
(-0.000328359 0.000923181 -0.000700591)
(-0.000658946 0.000875223 -0.000150993)
(-0.000959132 0.000784611 0.0003955)
(-0.0011867 0.000636972 0.000921829)
(-0.00131075 0.00042673 0.00141979)
(-0.00131324 0.000153432 0.00188605)
(-0.00119013 -0.000179094 0.00231563)
(-0.000953831 -0.000559663 0.00269532)
(-0.000636811 -0.000963283 0.00300009)
(-0.000292506 -0.00134448 0.00319667)
(1.41789e-05 -0.00163806 0.00325799)
(0.000233201 -0.0017775 0.00318393)
(0.000359654 -0.00173094 0.00300616)
(0.000424059 -0.00154404 0.00275761)
(0.000438138 -0.00130712 0.00246532)
(0.000382776 -0.0011198 0.00212057)
(0.000230854 -0.00100822 0.00170768)
(-1.63103e-05 -0.000955095 0.0012283)
(-0.000328359 -0.000923181 0.000700591)
(-0.000658946 -0.000875223 0.000150993)
(-0.000959132 -0.000784611 -0.0003955)
(-0.0011867 -0.000636972 -0.000921829)
(-0.00131075 -0.00042673 -0.00141979)
(-0.00131324 -0.000153432 -0.00188605)
(-0.00119013 0.000179094 -0.00231563)
(-0.000953831 0.000559663 -0.00269532)
(-0.000636811 0.000963283 -0.00300009)
(-0.000292506 0.00134448 -0.00319667)
(1.41789e-05 0.00163806 -0.00325799)
(0.000233201 0.0017775 -0.00318393)
(0.000359654 0.00173094 -0.00300616)
(0.00261906 0.002468 -0.00496953)
(0.00291545 0.00235855 -0.00426102)
(0.00254798 0.00217661 -0.00322321)
(0.00171997 0.00189571 -0.00204621)
(0.000672639 0.00151361 -0.000897775)
(-0.000396864 0.00104902 0.000107979)
(-0.00136185 0.000535215 0.000914622)
(-0.00215856 9.18188e-06 0.00151776)
(-0.00276401 -0.00049866 0.00195248)
(-0.00317283 -0.00097008 0.00227749)
(-0.00338014 -0.00139917 0.00255904)
(-0.00337231 -0.00178714 0.00285654)
(-0.00312592 -0.00213266 0.00321132)
(-0.00261448 -0.00242093 0.00363979)
(-0.00182284 -0.00261996 0.0041306)
(-0.000770644 -0.00269712 0.00463863)
(0.000455627 -0.00265666 0.00506441)
(0.00167245 -0.00255553 0.00522884)
(0.00261906 -0.002468 0.00496953)
(0.00291545 -0.00235855 0.00426102)
(0.00254798 -0.00217661 0.00322321)
(0.00171997 -0.00189571 0.00204621)
(0.000672639 -0.00151361 0.000897775)
(-0.000396864 -0.00104902 -0.000107979)
(-0.00136185 -0.000535215 -0.000914622)
(-0.00215856 -9.18188e-06 -0.00151776)
(-0.00276401 0.00049866 -0.00195248)
(-0.00317283 0.00097008 -0.00227749)
(-0.00338014 0.00139917 -0.00255904)
(-0.00337231 0.00178714 -0.00285654)
(-0.00312592 0.00213266 -0.00321132)
(-0.00261448 0.00242093 -0.00363979)
(-0.00182284 0.00261996 -0.0041306)
(-0.000770644 0.00269712 -0.00463863)
(0.000455627 0.00265666 -0.00506441)
(0.00167245 0.00255553 -0.00522884)
(0.0018638 0.00241913 -0.00464693)
(0.00202357 0.00219096 -0.00407672)
(0.00179214 0.00197064 -0.00329606)
(0.00124859 0.00175342 -0.00238079)
(0.000519367 0.00151762 -0.00141611)
(-0.000270635 0.00124206 -0.000480407)
(-0.00102064 0.000918304 0.000370048)
(-0.00166007 0.00055078 0.00110909)
(-0.00214466 0.000150396 0.0017397)
(-0.0024483 -0.000272339 0.00228591)
(-0.00255513 -0.000710782 0.00278074)
(-0.00245511 -0.00116053 0.00325326)
(-0.00214467 -0.00161255 0.00371742)
(-0.00163211 -0.00204318 0.00416479)
(-0.000945679 -0.002407 0.00456396)
(-0.000141676 -0.00264444 0.00486699)
(0.00068659 -0.00271301 0.00501841)
(0.00139768 -0.00261892 0.00496062)
(0.0018638 -0.00241913 0.00464693)
(0.00202357 -0.00219096 0.00407672)
(0.00179214 -0.00197064 0.00329606)
(0.00124859 -0.00175342 0.00238079)
(0.000519367 -0.00151762 0.00141611)
(-0.000270635 -0.00124206 0.000480407)
(-0.00102064 -0.000918304 -0.000370048)
(-0.00166007 -0.00055078 -0.00110909)
(-0.00214466 -0.000150396 -0.0017397)
(-0.0024483 0.000272339 -0.00228591)
(-0.00255513 0.000710782 -0.00278074)
(-0.00245511 0.00116053 -0.00325326)
(-0.00214467 0.00161255 -0.00371742)
(-0.00163211 0.00204318 -0.00416479)
(-0.000945679 0.002407 -0.00456396)
(-0.000141676 0.00264444 -0.00486699)
(0.00068659 0.00271301 -0.00501841)
(0.00139768 0.00261892 -0.00496062)
(0.00118945 0.0023301 -0.00426711)
(0.0012351 0.00200598 -0.00384777)
(0.00112257 0.00174927 -0.00331096)
(0.000842728 0.00158028 -0.00264442)
(0.000416392 0.00147222 -0.00186313)
(-0.000105099 0.0013734 -0.00100812)
(-0.000650013 0.00123507 -0.00013)
(-0.00114308 0.00102575 0.000727493)
(-0.00151965 0.000732377 0.00153648)
(-0.00173284 0.000354745 0.00228498)
(-0.00175548 -0.000100055 0.00297036)
(-0.0015809 -0.000619282 0.00358978)
(-0.00122529 -0.00118124 0.00413086)
(-0.00073155 -0.00174754 0.00456531)
(-0.000170266 -0.00225477 0.00485083)
(0.00036803 -0.00261665 0.00494735)
(0.000792912 -0.00275158 0.00484744)
(0.00104867 -0.00263151 0.00460027)
(0.00118945 -0.0023301 0.00426711)
(0.0012351 -0.00200598 0.00384777)
(0.00112257 -0.00174927 0.00331096)
(0.000842728 -0.00158028 0.00264442)
(0.000416392 -0.00147222 0.00186313)
(-0.000105099 -0.0013734 0.00100812)
(-0.000650013 -0.00123507 0.00013)
(-0.00114308 -0.00102575 -0.000727493)
(-0.00151965 -0.000732377 -0.00153648)
(-0.00173284 -0.000354745 -0.00228498)
(-0.00175548 0.000100055 -0.00297036)
(-0.0015809 0.000619282 -0.00358978)
(-0.00122529 0.00118124 -0.00413086)
(-0.00073155 0.00174754 -0.00456531)
(-0.000170266 0.00225477 -0.00485083)
(0.00036803 0.00261665 -0.00494735)
(0.000792912 0.00275158 -0.00484744)
(0.00104867 0.00263151 -0.00460027)
(0.00371553 0.00371589 -0.00603406)
(0.00385924 0.00327323 -0.00518037)
(0.0031551 0.0027871 -0.00399158)
(0.00188597 0.00226212 -0.00264944)
(0.000362274 0.00168776 -0.00131653)
(-0.00115868 0.00106608 -0.000112496)
(-0.00250698 0.000415333 0.000896709)
(-0.00359676 -0.000239415 0.00169871)
(-0.00439902 -0.000876368 0.00232366)
(-0.00490957 -0.00148261 0.00282777)
(-0.00512408 -0.00205447 0.00327594)
(-0.00502396 -0.00259269 0.00372618)
(-0.00457349 -0.00309365 0.00421773)
(-0.00372973 -0.00354003 0.00476352)
(-0.0024707 -0.00389777 0.00534428)
(-0.000844604 -0.00412488 0.00589932)
(0.000973321 -0.00418559 0.00631423)
(0.00264509 -0.00405037 0.0064163)
(0.00371553 -0.00371589 0.00603406)
(0.00385924 -0.00327323 0.00518037)
(0.0031551 -0.0027871 0.00399158)
(0.00188597 -0.00226212 0.00264944)
(0.000362274 -0.00168776 0.00131653)
(-0.00115868 -0.00106608 0.000112496)
(-0.00250698 -0.000415333 -0.000896709)
(-0.00359676 0.000239415 -0.00169871)
(-0.00439902 0.000876368 -0.00232366)
(-0.00490957 0.00148261 -0.00282777)
(-0.00512408 0.00205447 -0.00327594)
(-0.00502396 0.00259269 -0.00372618)
(-0.00457349 0.00309365 -0.00421773)
(-0.00372973 0.00354003 -0.00476352)
(-0.0024707 0.00389777 -0.00534428)
(-0.000844604 0.00412488 -0.00589932)
(0.000973321 0.00418559 -0.00631423)
(0.00264509 0.00405037 -0.0064163)
(0.0028037 0.00332358 -0.00572482)
(0.00286662 0.00293429 -0.00502647)
(0.00242426 0.002559 -0.00409025)
(0.0016047 0.00220266 -0.00298923)
(0.000567257 0.00183799 -0.00181469)
(-0.000530054 0.00143717 -0.000657156)
(-0.00155651 0.000986191 0.000414241)
(-0.00241997 0.000485894 0.00136319)
(-0.00306366 -5.38206e-05 0.00218629)
(-0.00345524 -0.00062092 0.00290464)
(-0.00357531 -0.00120523 0.00355065)
(-0.00341031 -0.00179739 0.00415415)
(-0.00295241 -0.00238288 0.00473018)
(-0.00220702 -0.00293294 0.00527072)
(-0.00120715 -0.00339785 0.00574189)
(-3.18949e-05 -0.00371122 0.00608803)
(0.00117551 -0.00380975 0.00624104)
(0.00219849 -0.00366237 0.00613415)
(0.0028037 -0.00332358 0.00572482)
(0.00286662 -0.00293429 0.00502647)
(0.00242426 -0.002559 0.00409025)
(0.0016047 -0.00220266 0.00298923)
(0.000567257 -0.00183799 0.00181469)
(-0.000530054 -0.00143717 0.000657156)
(-0.00155651 -0.000986191 -0.000414241)
(-0.00241997 -0.000485894 -0.00136319)
(-0.00306366 5.38206e-05 -0.00218629)
(-0.00345524 0.00062092 -0.00290464)
(-0.00357531 0.00120523 -0.00355065)
(-0.00341031 0.00179739 -0.00415415)
(-0.00295241 0.00238288 -0.00473018)
(-0.00220702 0.00293294 -0.00527072)
(-0.00120715 0.00339785 -0.00574189)
(-3.18948e-05 0.00371122 -0.00608803)
(0.00117551 0.00380975 -0.00624104)
(0.00219849 0.00366237 -0.00613415)
(0.00191957 0.0030308 -0.00542516)
(0.00194504 0.00267719 -0.00488392)
(0.00176539 0.00237321 -0.00417152)
(0.00138044 0.00213782 -0.00328768)
(0.000815051 0.00194267 -0.00226604)
(0.000130779 0.00173806 -0.00116504)
(-0.000582869 0.00147693 -4.9396e-05)
(-0.00122963 0.00113009 0.00102671)
(-0.00172606 0.000688973 0.00202895)
(-0.00201188 0.000160064 0.00294278)
(-0.00205236 -0.000441475 0.00376613)
(-0.0018388 -0.00109461 0.0044989)
(-0.0013913 -0.00177 0.00513249)
(-0.000763177 -0.00242269 0.00564237)
(-4.02154e-05 -0.00298433 0.00598951)
(0.000672965 -0.00336769 0.00613592)
(0.00127671 -0.00349584 0.00606931)
(0.00169916 -0.00335439 0.00581764)
(0.00191957 -0.0030308 0.00542516)
(0.00194504 -0.00267719 0.00488392)
(0.00176539 -0.00237321 0.00417152)
(0.00138044 -0.00213782 0.00328768)
(0.000815051 -0.00194267 0.00226604)
(0.000130779 -0.00173806 0.00116504)
(-0.000582869 -0.00147693 4.9396e-05)
(-0.00122963 -0.00113009 -0.00102671)
(-0.00172606 -0.000688973 -0.00202895)
(-0.00201188 -0.000160064 -0.00294278)
(-0.00205236 0.000441475 -0.00376613)
(-0.0018388 0.00109461 -0.0044989)
(-0.0013913 0.00177 -0.00513249)
(-0.000763177 0.00242269 -0.00564237)
(-4.02154e-05 0.00298433 -0.00598951)
(0.000672965 0.00336769 -0.00613592)
(0.00127671 0.00349584 -0.00606931)
(0.00169916 0.00335439 -0.00581764)
(0.00402666 0.00463891 -0.00647395)
(0.00407756 0.0039162 -0.00561369)
(0.00320087 0.00313512 -0.00444491)
(0.00166351 0.00234987 -0.00310082)
(-0.000181927 0.00156938 -0.00171991)
(-0.0020195 0.000788976 -0.000418418)
(-0.00363479 9.3488e-06 0.00072833)
(-0.00491994 -0.00076206 0.00169327)
(-0.00584021 -0.00151666 0.00249118)
(-0.00639189 -0.00224874 0.00316394)
(-0.00657042 -0.00295546 0.00376403)
(-0.00635323 -0.00363252 0.00433993)
(-0.00569668 -0.00426637 0.00492522)
(-0.00455189 -0.00482592 0.00552998)
(-0.00291163 -0.00525955 0.00612947)
(-0.000888227 -0.00550243 0.00664912)
(0.00122668 -0.00549316 0.00696305)
(0.00300225 -0.00519675 0.0069315)
(0.00402666 -0.00463891 0.00647395)
(0.00407756 -0.0039162 0.00561369)
(0.00320087 -0.00313512 0.00444491)
(0.00166351 -0.00234987 0.00310082)
(-0.000181927 -0.00156938 0.00171991)
(-0.0020195 -0.000788976 0.000418418)
(-0.00363479 -9.3488e-06 -0.00072833)
(-0.00491994 0.00076206 -0.00169327)
(-0.00584021 0.00151666 -0.00249118)
(-0.00639189 0.00224874 -0.00316394)
(-0.00657042 0.00295546 -0.00376403)
(-0.00635323 0.00363252 -0.00433993)
(-0.00569668 0.00426637 -0.00492522)
(-0.00455189 0.00482592 -0.00552998)
(-0.00291163 0.00525955 -0.00612947)
(-0.000888227 0.00550243 -0.00664912)
(0.00122668 0.00549316 -0.00696305)
(0.00300225 0.00519675 -0.0069315)
(0.0030513 0.00407192 -0.00626621)
(0.00308854 0.00353826 -0.00552139)
(0.00254892 0.00298568 -0.00452812)
(0.00156479 0.00245065 -0.00335417)
(0.000325626 0.00192277 -0.00208639)
(-0.000977788 0.0013761 -0.00081544)
(-0.00218865 0.000791726 0.000384226)
(-0.0031976 0.000164676 0.00146813)
(-0.00393823 -0.000498995 0.00242397)
(-0.00437317 -0.0011879 0.00326448)
(-0.00447998 -0.00188907 0.00401532)
(-0.00424276 -0.00258747 0.00470198)
(-0.0036524 -0.00326096 0.00533812)
(-0.00271733 -0.00387234 0.00591665)
(-0.00148627 -0.00436397 0.00640472)
(-7.7301e-05 -0.00466451 0.00674536)
(0.00130845 -0.00471346 0.00686956)
(0.00242187 -0.00449693 0.00671897)
(0.0030513 -0.00407192 0.00626621)
(0.00308854 -0.00353826 0.00552139)
(0.00254892 -0.00298568 0.00452812)
(0.00156479 -0.00245065 0.00335417)
(0.000325626 -0.00192277 0.00208639)
(-0.000977788 -0.0013761 0.00081544)
(-0.00218865 -0.000791726 -0.000384226)
(-0.0031976 -0.000164676 -0.00146813)
(-0.00393823 0.000498995 -0.00242397)
(-0.00437317 0.0011879 -0.00326448)
(-0.00447998 0.00188907 -0.00401532)
(-0.00424276 0.00258747 -0.00470198)
(-0.0036524 0.00326096 -0.00533812)
(-0.00271733 0.00387234 -0.00591665)
(-0.00148627 0.00436397 -0.00640472)
(-7.7301e-05 0.00466451 -0.00674536)
(0.00130845 0.00471346 -0.00686956)
(0.00242187 0.00449693 -0.00671897)
(0.00210242 0.00363198 -0.00614721)
(0.00214904 0.00328509 -0.00551344)
(0.00194962 0.00293129 -0.00466497)
(0.00150995 0.00260002 -0.00363)
(0.000865141 0.00227985 -0.00245945)
(8.52607e-05 0.00193586 -0.00121902)
(-0.000730247 0.00153147 2.4086e-05)
(-0.00147192 0.00104443 0.00121434)
(-0.00204282 0.000471402 0.00231593)
(-0.00237231 -0.000176009 0.00331297)
(-0.00241998 -0.000877181 0.00420294)
(-0.0021766 -0.00160562 0.0049869)
(-0.00166757 -0.00232737 0.00565935)
(-0.000957535 -0.00299506 0.00620135)
(-0.000146648 -0.00354332 0.00658283)
(0.0006497 -0.00389958 0.00677619)
(0.00132943 -0.00401612 0.00676946)
(0.00182414 -0.00390405 0.00656198)
(0.00210242 -0.00363198 0.00614721)
(0.00214904 -0.00328509 0.00551344)
(0.00194962 -0.00293129 0.00466497)
(0.00150995 -0.00260002 0.00363)
(0.000865141 -0.00227985 0.00245945)
(8.52607e-05 -0.00193586 0.00121902)
(-0.000730247 -0.00153147 -2.4086e-05)
(-0.00147192 -0.00104443 -0.00121434)
(-0.00204282 -0.000471402 -0.00231593)
(-0.00237231 0.000176009 -0.00331297)
(-0.00241998 0.000877181 -0.00420294)
(-0.0021766 0.00160562 -0.0049869)
(-0.00166757 0.00232737 -0.00565935)
(-0.000957535 0.00299506 -0.00620135)
(-0.000146648 0.00354332 -0.00658283)
(0.0006497 0.00389958 -0.00677619)
(0.00132943 0.00401612 -0.00676946)
(0.00182414 0.00390405 -0.00656198)
(0.00353279 0.0051943 -0.00646477)
(0.00351418 0.00423634 -0.0056672)
(0.00259615 0.00321042 -0.00460528)
(0.00100199 0.00219336 -0.00336309)
(-0.00093898 0.00121519 -0.00203917)
(-0.00289778 0.00027569 -0.000733135)
(-0.00463027 -0.000633484 0.000475334)
(-0.00600375 -0.00151849 0.0015429)
(-0.00697006 -0.00238228 0.00246425)
(-0.00751935 -0.00322501 0.00326173)
(-0.00764351 -0.00404239 0.00397104)
(-0.00731783 -0.00482117 0.00462842)
(-0.00650095 -0.00553214 0.00526009)
(-0.00515993 -0.00612422 0.005871)
(-0.0033302 -0.00652662 0.00642971)
(-0.0011895 -0.00666415 0.00685943)
(0.00092682 -0.00648292 0.0070568)
(0.00261377 -0.00597573 0.00693601)
(0.00353279 -0.0051943 0.00646477)
(0.00351418 -0.00423634 0.0056672)
(0.00259615 -0.00321042 0.00460528)
(0.00100199 -0.00219336 0.00336309)
(-0.00093898 -0.00121519 0.00203917)
(-0.00289778 -0.00027569 0.000733135)
(-0.00463027 0.000633484 -0.000475334)
(-0.00600375 0.00151849 -0.0015429)
(-0.00697006 0.00238228 -0.00246425)
(-0.00751935 0.00322501 -0.00326173)
(-0.00764351 0.00404239 -0.00397104)
(-0.00731783 0.00482117 -0.00462842)
(-0.00650095 0.00553214 -0.00526009)
(-0.00515993 0.00612422 -0.005871)
(-0.0033302 0.00652662 -0.00642971)
(-0.0011895 0.00666415 -0.00685943)
(0.00092682 0.00648292 -0.0070568)
(0.00261377 0.00597573 -0.00693601)
(0.00263624 0.00455462 -0.00633385)
(0.00263954 0.00388643 -0.00560913)
(0.00207132 0.00317181 -0.00464759)
(0.00104791 0.00246072 -0.00350195)
(-0.000250277 0.00176282 -0.0022453)
(-0.00162651 0.00106401 -0.000960298)
(-0.00290996 0.000347204 0.000279051)
(-0.00397763 -0.000396202 0.00142236)
(-0.00475329 -0.00116445 0.00244768)
(-0.00519335 -0.00194792 0.00335682)
(-0.00527192 -0.00273144 0.0041655)
(-0.00497256 -0.0034938 0.00489194)
(-0.00429032 -0.0042036 0.00554602)
(-0.00324626 -0.00481348 0.0061201)
(-0.00191368 -0.00525976 0.00658349)
(-0.000440953 -0.00547604 0.00688524)
(0.000956263 -0.00541931 0.00696846)
(0.00204425 -0.00509379 0.00679018)
(0.00263624 -0.00455462 0.00633385)
(0.00263954 -0.00388643 0.00560913)
(0.00207132 -0.00317181 0.00464759)
(0.00104791 -0.00246072 0.00350195)
(-0.000250277 -0.00176282 0.0022453)
(-0.00162651 -0.00106401 0.000960298)
(-0.00290996 -0.000347204 -0.000279051)
(-0.00397763 0.000396202 -0.00142236)
(-0.00475329 0.00116445 -0.00244768)
(-0.00519335 0.00194792 -0.00335682)
(-0.00527192 0.00273144 -0.0041655)
(-0.00497256 0.0034938 -0.00489194)
(-0.00429032 0.0042036 -0.00554602)
(-0.00324626 0.00481348 -0.0061201)
(-0.00191368 0.00525976 -0.00658349)
(-0.000440953 0.00547604 -0.00688524)
(0.000956263 0.00541931 -0.00696846)
(0.00204425 0.00509379 -0.00679018)
(0.0017551 0.00405481 -0.00635347)
(0.0017987 0.00368784 -0.00569481)
(0.00158479 0.0032701 -0.00480425)
(0.00112564 0.0028307 -0.00372216)
(0.000458883 0.00237366 -0.00250957)
(-0.000346052 0.00188348 -0.00123511)
(-0.00119016 0.00133902 3.64434e-05)
(-0.00196078 0.000727266 0.00125262)
(-0.00255469 4.95728e-05 0.00237842)
(-0.00289515 -0.000679704 0.00339654)
(-0.00293866 -0.00143737 0.00430224)
(-0.00267719 -0.00219403 0.0050952)
(-0.00214191 -0.00291334 0.0057709)
(-0.00140567 -0.00354873 0.00631525)
(-0.000573953 -0.00404417 0.00670701)
(0.000240265 -0.00434799 0.00692531)
(0.000941516 -0.00443565 0.00695234)
(0.00146122 -0.00432257 0.00676874)
(0.0017551 -0.00405481 0.00635347)
(0.0017987 -0.00368784 0.00569481)
(0.00158479 -0.0032701 0.00480425)
(0.00112564 -0.0028307 0.00372216)
(0.000458883 -0.00237366 0.00250957)
(-0.000346052 -0.00188348 0.00123511)
(-0.00119016 -0.00133902 -3.64434e-05)
(-0.00196078 -0.000727266 -0.00125262)
(-0.00255469 -4.95728e-05 -0.00237842)
(-0.00289515 0.000679704 -0.00339654)
(-0.00293866 0.00143737 -0.00430224)
(-0.00267719 0.00219403 -0.0050952)
(-0.00214191 0.00291334 -0.0057709)
(-0.00140567 0.00354873 -0.00631525)
(-0.000573953 0.00404417 -0.00670701)
(0.000240265 0.00434799 -0.00692531)
(0.000941516 0.00443565 -0.00695234)
(0.00146122 0.00432257 -0.00676874)
(0.00233892 0.00545833 -0.00614181)
(0.00229273 0.00429736 -0.00545232)
(0.00143576 0.0030707 -0.00454004)
(-5.51001e-05 0.00186022 -0.00345305)
(-0.00190241 0.000706938 -0.00225417)
(-0.00380557 -0.000382916 -0.00102013)
(-0.00551791 -0.00141931 0.000173262)
(-0.00688709 -0.00241411 0.00127112)
(-0.00784459 -0.00337542 0.00224957)
(-0.00836668 -0.00430499 0.00311174)
(-0.00843879 -0.0051946 0.00387686)
(-0.00803806 -0.00602088 0.00456878)
(-0.00713756 -0.0067398 0.00520499)
(-0.00573682 -0.00728524 0.00578383)
(-0.00391662 -0.0075784 0.00627242)
(-0.0018833 -0.00755025 0.00660858)
(5.02988e-05 -0.00716761 0.00672391)
(0.00154697 -0.00644814 0.00657201)
(0.00233892 -0.00545833 0.00614181)
(0.00229273 -0.00429736 0.00545232)
(0.00143576 -0.0030707 0.00454004)
(-5.51001e-05 -0.00186022 0.00345305)
(-0.00190241 -0.000706938 0.00225417)
(-0.00380557 0.000382916 0.00102013)
(-0.00551791 0.00141931 -0.000173262)
(-0.00688709 0.00241411 -0.00127112)
(-0.00784459 0.00337542 -0.00224957)
(-0.00836668 0.00430499 -0.00311174)
(-0.00843879 0.0051946 -0.00387686)
(-0.00803806 0.00602088 -0.00456878)
(-0.00713756 0.0067398 -0.00520499)
(-0.00573682 0.00728524 -0.00578383)
(-0.00391662 0.0075784 -0.00627242)
(-0.0018833 0.00755025 -0.00660858)
(5.02988e-05 0.00716761 -0.00672391)
(0.00154697 0.00644814 -0.00657201)
(0.00163488 0.00479921 -0.00604421)
(0.00161784 0.0039871 -0.00538948)
(0.00107599 0.00311797 -0.00452244)
(0.000106653 0.00224516 -0.00347916)
(-0.00113384 0.00138988 -0.0023143)
(-0.00246524 0.000548959 -0.00109629)
(-0.00372034 -0.000289575 0.000106465)
(-0.00477027 -0.00113434 0.00124049)
(-0.00553001 -0.00198556 0.00227513)
(-0.00594864 -0.00283444 0.00320116)
(-0.00599673 -0.0036636 0.00402367)
(-0.00565967 -0.00444602 0.00475237)
(-0.0049416 -0.00514204 0.00539177)
(-0.00388078 -0.00569724 0.0059327)
(-0.00257049 -0.00604789 0.00634861)
(-0.00116776 -0.00613826 0.00660038)
(0.000126823 -0.00594245 0.00664861)
(0.00111256 -0.00547728 0.00646625)
(0.00163488 -0.00479921 0.00604421)
(0.00161784 -0.0039871 0.00538948)
(0.00107599 -0.00311797 0.00452244)
(0.000106653 -0.00224516 0.00347916)
(-0.00113384 -0.00138988 0.0023143)
(-0.00246524 -0.000548959 0.00109629)
(-0.00372034 0.000289575 -0.000106465)
(-0.00477027 0.00113434 -0.00124049)
(-0.00553001 0.00198556 -0.00227513)
(-0.00594864 0.00283444 -0.00320116)
(-0.00599673 0.0036636 -0.00402367)
(-0.00565967 0.00444602 -0.00475237)
(-0.0049416 0.00514204 -0.00539177)
(-0.00388078 0.00569724 -0.0059327)
(-0.00257049 0.00604789 -0.00634861)
(-0.00116776 0.00613826 -0.00660038)
(0.000126823 0.00594245 -0.00664861)
(0.00111256 0.00547728 -0.00646625)
(0.000927998 0.0042901 -0.00615029)
(0.000956593 0.00384994 -0.00552203)
(0.000736494 0.00333717 -0.00467048)
(0.000285244 0.0027801 -0.00363531)
(-0.000358038 0.00219125 -0.00247487)
(-0.00112866 0.00156885 -0.00125322)
(-0.00193625 0.000904611 -2.98861e-05)
(-0.00267533 0.00019385 0.00114652)
(-0.00324525 -0.000558294 0.00224174)
(-0.00356866 -0.00133613 0.00323622)
(-0.00360166 -0.0021156 0.00412152)
(-0.00333806 -0.00286614 0.00489406)
(-0.00281239 -0.00355069 0.00554838)
(-0.00209892 -0.00412539 0.00607332)
(-0.00129888 -0.00454396 0.0064534)
(-0.000517185 -0.00476978 0.0066716)
(0.000156263 -0.00478951 0.00670882)
(0.000653285 -0.00461779 0.0065424)
(0.000927998 -0.0042901 0.00615029)
(0.000956593 -0.00384994 0.00552203)
(0.000736494 -0.00333717 0.00467048)
(0.000285244 -0.0027801 0.00363531)
(-0.000358038 -0.00219125 0.00247487)
(-0.00112866 -0.00156885 0.00125322)
(-0.00193625 -0.000904611 2.98861e-05)
(-0.00267533 -0.00019385 -0.00114652)
(-0.00324525 0.000558294 -0.00224174)
(-0.00356866 0.00133613 -0.00323622)
(-0.00360166 0.0021156 -0.00412152)
(-0.00333806 0.00286614 -0.00489406)
(-0.00281239 0.00355069 -0.00554838)
(-0.00209892 0.00412539 -0.00607332)
(-0.00129888 0.00454396 -0.0064534)
(-0.000517185 0.00476978 -0.0066716)
(0.000156263 0.00478951 -0.00670882)
(0.000653285 0.00461779 -0.0065424)
(0.000609808 0.00552444 -0.00562935)
(0.000575152 0.00420308 -0.00507525)
(-0.000148983 0.002819 -0.00433202)
(-0.00143351 0.00145359 -0.00342389)
(-0.00306236 0.000152962 -0.00238807)
(-0.00478422 -0.0010707 -0.00127998)
(-0.00637201 -0.00222432 -0.000165855)
(-0.00766476 -0.00331865 0.000895181)
(-0.00857323 -0.00436008 0.00186604)
(-0.00905615 -0.00534697 0.00273431)
(-0.00909177 -0.0062654 0.00350526)
(-0.00866349 -0.00708412 0.00419155)
(-0.00776606 -0.00775099 0.0048021)
(-0.00643289 -0.00819602 0.00533099)
(-0.00477234 -0.00834534 0.00575158)
(-0.00298287 -0.00814463 0.00602307)
(-0.00132424 -0.00757954 0.00610611)
(-5.84666e-05 -0.0066822 0.00597641)
(0.000609808 -0.00552444 0.00562935)
(0.000575152 -0.00420308 0.00507525)
(-0.000148983 -0.002819 0.00433202)
(-0.00143351 -0.00145359 0.00342389)
(-0.00306236 -0.000152962 0.00238807)
(-0.00478422 0.0010707 0.00127998)
(-0.00637201 0.00222432 0.000165855)
(-0.00766476 0.00331865 -0.000895181)