/*--------------------------------*- C++ -*----------------------------------*\
| =========                 |                                                 |
| \\      /  F ield         | OpenFOAM: The Open Source CFD Toolbox           |
|  \\    /   O peration     | Version:  2312                                  |
|   \\  /    A nd           | Website:  www.openfoam.com                      |
|    \\/     M anipulation  |                                                 |
\*---------------------------------------------------------------------------*/
FoamFile
{
    version     2.0;
    format      ascii;
    arch        "LSB;label=32;scalar=64";
    class       volVectorField;
    location    "0.3";
    object      D_0_0;
}
// * * * * * * * * * * * * * * * * * * * * * * * * * * * * * * * * * * * * * //

dimensions      [0 1 0 0 0 0 0];

internalField   nonuniform List<vector> 
1620
(
(0.000398821 0.000251723 -0.00122701)
(0.000532513 0.000329711 -0.00111446)
(0.000548185 0.000412545 -0.000862606)
(0.000458004 0.000432534 -0.000531851)
(0.000307151 0.000366676 -0.000196576)
(0.000139192 0.000231345 8.76539e-05)
(-1.91663e-05 5.87051e-05 0.000294094)
(-0.000156105 -0.000120656 0.000420824)
(-0.000267883 -0.000284645 0.000482116)
(-0.000353501 -0.000420129 0.000500631)
(-0.000411915 -0.000520889 0.000501827)
(-0.000441254 -0.000584693 0.000510071)
(-0.0004392 -0.000609984 0.000545754)
(-0.000403165 -0.000593543 0.000622862)
(-0.000328688 -0.000532247 0.000745993)
(-0.000207126 -0.000431839 0.000905364)
(-3.03648e-05 -0.000319208 0.0010714)
(0.000188966 -0.000244413 0.00119693)
(0.000398821 -0.000251723 0.00122701)
(0.000532513 -0.000329711 0.00111446)
(0.000548185 -0.000412545 0.000862606)
(0.000458004 -0.000432534 0.000531851)
(0.000307151 -0.000366676 0.000196576)
(0.000139192 -0.000231345 -8.76539e-05)
(-1.91663e-05 -5.87051e-05 -0.000294094)
(-0.000156105 0.000120656 -0.000420824)
(-0.000267883 0.000284645 -0.000482116)
(-0.000353501 0.000420129 -0.000500631)
(-0.000411915 0.000520889 -0.000501827)
(-0.000441254 0.000584693 -0.000510071)
(-0.0004392 0.000609984 -0.000545754)
(-0.000403165 0.000593543 -0.000622862)
(-0.000328688 0.000532247 -0.000745993)
(-0.000207126 0.000431839 -0.000905364)
(-3.03648e-05 0.000319208 -0.0010714)
(0.000188966 0.000244413 -0.00119693)
(0.000183939 0.000426691 -0.00103297)
(0.000229853 0.000401041 -0.000912178)
(0.000220835 0.000384578 -0.000736317)
(0.000156212 0.000363833 -0.000526465)
(5.0562e-05 0.000327014 -0.000308545)
(-7.45152e-05 0.000271525 -0.000104169)
(-0.000199366 0.000201294 7.37522e-05)
(-0.000309503 0.00012242 0.000221564)
(-0.000395172 4.02031e-05 0.000343246)
(-0.000450042 -4.23708e-05 0.000447688)
(-0.000470267 -0.000124931 0.000545392)
(-0.000454431 -0.00020862 0.000644971)
(-0.000404395 -0.00029344 0.000750075)
(-0.000326194 -0.000374822 0.00085772)
(-0.000229165 -0.000441859 0.000958861)
(-0.000122182 -0.000480668 0.00104073)
(-1.0647e-05 -0.000483621 0.00108909)
(9.76254e-05 -0.000458925 0.00109011)
(0.000183939 -0.000426691 0.00103297)
(0.000229853 -0.000401041 0.000912178)
(0.000220835 -0.000384578 0.000736317)
(0.000156212 -0.000363833 0.000526465)
(5.0562e-05 -0.000327014 0.000308545)
(-7.45152e-05 -0.000271525 0.000104169)
(-0.000199366 -0.000201294 -7.37522e-05)
(-0.000309503 -0.00012242 -0.000221564)
(-0.000395172 -4.02031e-05 -0.000343246)
(-0.000450042 4.23708e-05 -0.000447688)
(-0.000470267 0.000124931 -0.000545392)
(-0.000454431 0.00020862 -0.000644971)
(-0.000404395 0.00029344 -0.000750075)
(-0.000326194 0.000374822 -0.00085772)
(-0.000229165 0.000441859 -0.000958861)
(-0.000122182 0.000480668 -0.00104073)
(-1.0647e-05 0.000483621 -0.00108909)
(9.76254e-05 0.000458925 -0.00109011)
(1.9931e-05 0.000520625 -0.000893019)
(4.48819e-06 0.000433679 -0.000777694)
(-2.52574e-05 0.000359255 -0.00066589)
(-7.45462e-05 0.000323249 -0.000551138)
(-0.000149004 0.000325612 -0.000423203)
(-0.00024485 0.000350853 -0.000276555)
(-0.000349292 0.000379565 -0.000111879)
(-0.00044575 0.000395185 6.61506e-05)
(-0.000518648 0.000386107 0.000251642)
(-0.00055611 0.000345123 0.000438993)
(-0.000551107 0.000268246 0.000622572)
(-0.000502239 0.000154461 0.000795111)
(-0.000414909 7.15787e-06 0.000946036)
(-0.000302472 -0.000162973 0.00106146)
(-0.00018528 -0.000335208 0.0011274)
(-8.51689e-05 -0.000479636 0.00113601)
(-1.67849e-05 -0.000565319 0.00109042)
(1.64515e-05 -0.00057565 0.00100344)
(1.9931e-05 -0.000520625 0.000893019)
(4.48819e-06 -0.000433679 0.000777694)
(-2.52574e-05 -0.000359255 0.00066589)
(-7.45462e-05 -0.000323249 0.000551138)
(-0.000149004 -0.000325612 0.000423203)
(-0.00024485 -0.000350853 0.000276555)
(-0.000349292 -0.000379565 0.000111879)
(-0.00044575 -0.000395185 -6.61506e-05)
(-0.000518648 -0.000386107 -0.000251642)
(-0.00055611 -0.000345123 -0.000438993)
(-0.000551107 -0.000268246 -0.000622572)
(-0.000502239 -0.000154461 -0.000795111)
(-0.000414909 -7.15787e-06 -0.000946036)
(-0.000302472 0.000162973 -0.00106146)
(-0.00018528 0.000335208 -0.0011274)
(-8.51689e-05 0.000479636 -0.00113601)
(-1.67849e-05 0.000565319 -0.00109042)
(1.64515e-05 0.00057565 -0.00100344)
(0.00126785 0.00108645 -0.00323103)
(0.00158226 0.0011324 -0.00282083)
(0.00152381 0.00116936 -0.00215288)
(0.00115907 0.00111004 -0.00136432)
(0.000629524 0.000929211 -0.000585563)
(6.10863e-05 0.000648675 8.89134e-05)
(-0.000466404 0.000310228 0.000612076)
(-0.000913641 -4.41858e-05 0.000980109)
(-0.0012658 -0.000382395 0.0012204)
(-0.00151809 -0.000685031 0.00137822)
(-0.00166637 -0.000944251 0.00150479)
(-0.00170313 -0.00115903 0.00164725)
(-0.00161814 -0.00132741 0.00184072)
(-0.00140217 -0.00143822 0.00210304)
(-0.00105102 -0.00146943 0.0024317)
(-0.000568186 -0.00140414 0.00279789)
(2.94503e-05 -0.00126363 0.00313098)
(0.000687232 -0.00112579 0.0033116)
(0.00126785 -0.00108645 0.00323103)
(0.00158226 -0.0011324 0.00282083)
(0.00152381 -0.00116936 0.00215288)
(0.00115907 -0.00111004 0.00136432)
(0.000629524 -0.000929211 0.000585563)
(6.10863e-05 -0.000648675 -8.89134e-05)
(-0.000466404 -0.000310228 -0.000612076)
(-0.000913641 4.41858e-05 -0.000980109)
(-0.0012658 0.000382395 -0.0012204)
(-0.00151809 0.000685031 -0.00137822)
(-0.00166637 0.000944251 -0.00150479)
(-0.00170313 0.00115903 -0.00164725)
(-0.00161814 0.00132741 -0.00184072)
(-0.00140217 0.00143822 -0.00210304)
(-0.00105102 0.00146943 -0.0024317)
(-0.000568186 0.00140414 -0.00279789)
(2.94503e-05 0.00126363 -0.00313098)
(0.000687232 0.00112579 -0.0033116)
(0.000793235 0.0013093 -0.00297806)
(0.000942773 0.00119205 -0.00263817)
(0.000888232 0.00110147 -0.00214671)
(0.000639051 0.00100853 -0.00156224)
(0.000261623 0.000889564 -0.000948609)
(-0.000167529 0.000734316 -0.000360855)
(-0.000585829 0.000544189 0.000164438)
(-0.00094947 0.000327424 0.000612799)
(-0.00123023 9.38883e-05 0.000989868)
(-0.00141053 -0.000149135 0.00131529)
(-0.00147941 -0.000398732 0.00161434)
(-0.0014311 -0.000654634 0.0019088)
(-0.00126655 -0.00091361 0.00220899)
(-0.000997263 -0.00116145 0.00250869)
(-0.000648442 -0.00136768 0.0027856)
(-0.000256867 -0.00149214 0.00300744)
(0.000138485 -0.00150853 0.00313844)
(0.000503638 -0.00142898 0.00313968)
(0.000793235 -0.0013093 0.00297806)
(0.000942773 -0.00119205 0.00263817)
(0.000888232 -0.00110147 0.00214671)
(0.000639051 -0.00100853 0.00156224)
(0.000261623 -0.000889564 0.000948609)
(-0.000167529 -0.000734316 0.000360855)
(-0.000585829 -0.000544189 -0.000164438)
(-0.00094947 -0.000327424 -0.000612799)
(-0.00123023 -9.38883e-05 -0.000989868)
(-0.00141053 0.000149135 -0.00131529)
(-0.00147941 0.000398732 -0.00161434)
(-0.0014311 0.000654634 -0.0019088)
(-0.00126655 0.00091361 -0.00220899)
(-0.000997263 0.00116145 -0.00250869)
(-0.000648442 0.00136768 -0.0027856)
(-0.000256867 0.00149214 -0.00300744)
(0.000138485 0.00150853 -0.00313844)
(0.000503638 0.00142898 -0.00313968)
(0.000378374 0.00143183 -0.0027077)
(0.000391701 0.00120002 -0.00243918)
(0.000337562 0.0010175 -0.00211819)
(0.00019025 0.00090968 -0.00172941)
(-4.91562e-05 0.000860052 -0.00127434)
(-0.000351799 0.00083294 -0.000770377)
(-0.000673256 0.000792519 -0.000242783)
(-0.000966225 0.000712959 0.000284525)
(-0.0011895 0.00058004 0.000795158)
(-0.00131256 0.000387956 0.00128119)
(-0.00131733 0.000135833 0.00173941)
(-0.00119943 -0.000173106 0.002165)
(-0.000970628 -0.000528568 0.00254511)
(-0.000662269 -0.00090694 0.00285526)
(-0.000326171 -0.00126479 0.0030627)
(-2.55672e-05 -0.00153955 0.00314035)
(0.000190186 -0.0016671 0.00308697)
(0.000315164 -0.00161659 0.00293227)
(0.000378374 -0.00143183 0.0027077)
(0.000391701 -0.00120002 0.00243918)
(0.000337562 -0.0010175 0.00211819)
(0.00019025 -0.00090968 0.00172941)
(-4.91562e-05 -0.000860052 0.00127434)
(-0.000351799 -0.00083294 0.000770377)
(-0.000673256 -0.000792519 0.000242783)
(-0.000966225 -0.000712959 -0.000284525)
(-0.0011895 -0.00058004 -0.000795158)
(-0.00131256 -0.000387956 -0.00128119)
(-0.00131733 -0.000135833 -0.00173941)
(-0.00119943 0.000173106 -0.002165)
(-0.000970628 0.000528568 -0.00254511)
(-0.000662269 0.00090694 -0.00285526)
(-0.000326171 0.00126479 -0.0030627)
(-2.55672e-05 0.00153955 -0.00314035)
(0.000190186 0.0016671 -0.00308697)
(0.000315164 0.00161659 -0.00293227)
(0.00247489 0.00226274 -0.00486799)
(0.00277761 0.00215269 -0.00421089)
(0.00243673 0.00197755 -0.00322794)
(0.00164378 0.0017099 -0.00210324)
(0.000629919 0.00134541 -0.00100039)
(-0.000413231 0.000901064 -3.18805e-05)
(-0.00136033 0.000409428 0.000745744)
(-0.00214647 -9.23946e-05 0.00132707)
(-0.00274667 -0.000573532 0.0017459)
(-0.00315395 -0.00101529 0.00205969)
(-0.00336258 -0.00141145 0.00233381)
(-0.00335913 -0.00176327 0.00262733)
(-0.0031212 -0.00207024 0.00298191)
(-0.00262382 -0.00231966 0.00341478)
(-0.00185332 -0.00248307 0.00391535)
(-0.000829727 -0.00253162 0.00443898)
(0.000362753 -0.00247131 0.00488726)
(0.00154743 -0.00235771 0.00508405)
(0.00247489 -0.00226274 0.00486799)
(0.00277761 -0.00215269 0.00421089)
(0.00243673 -0.00197755 0.00322794)
(0.00164378 -0.0017099 0.00210324)
(0.000629919 -0.00134541 0.00100039)
(-0.000413231 -0.000901064 3.18805e-05)
(-0.00136033 -0.000409428 -0.000745744)
(-0.00214647 9.23946e-05 -0.00132707)
(-0.00274667 0.000573532 -0.0017459)
(-0.00315395 0.00101529 -0.00205969)
(-0.00336258 0.00141145 -0.00233381)
(-0.00335913 0.00176327 -0.00262733)
(-0.0031212 0.00207024 -0.00298191)
(-0.00262382 0.00231966 -0.00341478)
(-0.00185332 0.00248307 -0.00391535)
(-0.000829727 0.00253162 -0.00443898)
(0.000362753 0.00247131 -0.00488726)
(0.00154743 0.00235771 -0.00508405)
(0.00174302 0.00222899 -0.00455477)
(0.00190469 0.00200332 -0.00402937)
(0.00168753 0.00178899 -0.00329525)
(0.00116585 0.00158053 -0.00242584)
(0.000460491 0.00135627 -0.00150402)
(-0.000307976 0.00109541 -0.000606394)
(-0.00104118 0.000789916 0.000211866)
(-0.0016693 0.00044452 0.000924947)
(-0.00214778 7.01735e-05 0.00153559)
(-0.00244986 -0.000322742 0.00206728)
(-0.00255915 -0.00072786 0.00255255)
(-0.00246541 -0.0011413 0.00302032)
(-0.00216515 -0.0015551 0.00348484)
(-0.00166674 -0.00194756 0.00393839)
(-0.000998136 -0.00227635 0.00435037)
(-0.000214626 -0.00248554 0.00467333)
(0.000592609 -0.00253513 0.0048518)
(0.00128617 -0.0024313 0.00482797)
(0.00174302 -0.00222899 0.00455477)
(0.00190469 -0.00200332 0.00402937)
(0.00168753 -0.00178899 0.00329525)
(0.00116585 -0.00158053 0.00242584)
(0.000460491 -0.00135627 0.00150402)
(-0.000307976 -0.00109541 0.000606394)
(-0.00104118 -0.000789916 -0.000211866)
(-0.0016693 -0.00044452 -0.000924947)
(-0.00214778 -7.01735e-05 -0.00153559)
(-0.00244986 0.000322742 -0.00206728)
(-0.00255915 0.00072786 -0.00255255)
(-0.00246541 0.0011413 -0.00302032)
(-0.00216515 0.0015551 -0.00348484)
(-0.00166674 0.00194756 -0.00393839)
(-0.000998136 0.00227635 -0.00435037)
(-0.000214626 0.00248554 -0.00467333)
(0.000592609 0.00253513 -0.0048518)
(0.00128617 0.0024313 -0.00482797)
(0.00109024 0.00215693 -0.0041874)
(0.00113306 0.00183793 -0.0038054)
(0.00102329 0.00158684 -0.00330723)
(0.000752705 0.00142332 -0.00268036)
(0.000340808 0.00132172 -0.00193889)
(-0.000163908 0.00123241 -0.00112208)
(-0.000692974 0.00110835 -0.000278485)
(-0.00117371 0.000918797 0.000549722)
(-0.00154287 0.000650538 0.00133547)
(-0.00175394 0.000302724 0.00206697)
(-0.00177955 -0.000118419 0.00274159)
(-0.00161248 -0.000601248 0.00335653)
(-0.00126809 -0.0011255 0.00389963)
(-0.000787894 -0.00165475 0.00434306)
(-0.000240459 -0.0021284 0.0046451)
(0.000285927 -0.00246367 0.00476589)
(0.00070243 -0.00258197 0.00469691)
(0.000953394 -0.00245607 0.00448446)
(0.00109024 -0.00215693 0.0041874)
(0.00113306 -0.00183793 0.0038054)
(0.00102329 -0.00158684 0.00330723)
(0.000752705 -0.00142332 0.00268036)
(0.000340808 -0.00132172 0.00193889)
(-0.000163908 -0.00123241 0.00112208)
(-0.000692974 -0.00110835 0.000278485)
(-0.00117371 -0.000918797 -0.000549722)
(-0.00154287 -0.000650538 -0.00133547)
(-0.00175394 -0.000302724 -0.00206697)
(-0.00177955 0.000118419 -0.00274159)
(-0.00161248 0.000601248 -0.00335653)
(-0.00126809 0.0011255 -0.00389963)
(-0.000787894 0.00165475 -0.00434306)
(-0.000240459 0.0021284 -0.0046451)
(0.000285927 0.00246367 -0.00476589)
(0.00070243 0.00258197 -0.00469691)
(0.000953394 0.00245607 -0.00448446)
(0.0035077 0.00344865 -0.00591688)
(0.0036703 0.00301387 -0.00512756)
(0.00300825 0.0025407 -0.00400555)
(0.00178952 0.00203326 -0.0027269)
(0.000311946 0.00148051 -0.00145018)
(-0.00117421 0.00088387 -0.000293115)
(-0.00250044 0.000261403 0.000678453)
(-0.00357872 -0.000361527 0.00145129)
(-0.00437688 -0.000962674 0.00205439)
(-0.0048883 -0.00152884 0.00254295)
(-0.00510761 -0.00205639 0.00298122)
(-0.00501662 -0.0025466 0.00342717)
(-0.00458122 -0.00299728 0.00392048)
(-0.00376091 -0.00339378 0.00447473)
(-0.00253581 -0.00370592 0.00507112)
(-0.000953453 -0.00389582 0.00564955)
(0.000817214 -0.00393082 0.00609693)
(0.00245083 -0.00378309 0.0062428)
(0.0035077 -0.00344865 0.00591688)
(0.0036703 -0.00301387 0.00512756)
(0.00300825 -0.0025407 0.00400555)
(0.00178952 -0.00203326 0.0027269)
(0.000311946 -0.00148051 0.00145018)
(-0.00117421 -0.00088387 0.000293115)
(-0.00250044 -0.000261403 -0.000678453)
(-0.00357872 0.000361527 -0.00145129)
(-0.00437688 0.000962674 -0.00205439)
(-0.0048883 0.00152884 -0.00254295)
(-0.00510761 0.00205639 -0.00298122)
(-0.00501662 0.0025466 -0.00342717)
(-0.00458122 0.00299728 -0.00392048)
(-0.00376091 0.00339378 -0.00447473)
(-0.00253581 0.00370592 -0.00507112)
(-0.000953453 0.00389582 -0.00564955)
(0.000817214 0.00393082 -0.00609693)
(0.00245083 0.00378309 -0.0062428)
(0.00262206 0.00307974 -0.00561475)
(0.00269354 0.00269561 -0.00497302)
(0.00227444 0.00232863 -0.00409566)
(0.00148642 0.00198376 -0.00305282)
(0.000481924 0.00163449 -0.00193275)
(-0.000586496 0.0012537 -0.000823527)
(-0.00159115 0.000827801 0.000207169)
(-0.00244063 0.000357755 0.00112344)
(-0.00307745 -0.000146718 0.00192162)
(-0.00346822 -0.000674001 0.00262223)
(-0.00359277 -0.00121454 0.00325728)
(-0.0034374 -0.00175995 0.00385648)
(-0.00299457 -0.00229723 0.00443513)
(-0.00227006 -0.00280005 0.0049857)
(-0.00129664 -0.00322211 0.00547488)
(-0.000151639 -0.00350094 0.00584749)
(0.00102584 -0.00357639 0.00603572)
(0.00202585 -0.00341857 0.00597262)
(0.00262206 -0.00307974 0.00561475)
(0.00269354 -0.00269561 0.00497302)
(0.00227444 -0.00232863 0.00409566)
(0.00148642 -0.00198376 0.00305282)
(0.000481924 -0.00163449 0.00193275)
(-0.000586496 -0.0012537 0.000823527)
(-0.00159115 -0.000827801 -0.000207169)
(-0.00244063 -0.000357755 -0.00112344)
(-0.00307745 0.000146718 -0.00192162)
(-0.00346822 0.000674001 -0.00262223)
(-0.00359277 0.00121454 -0.00325728)
(-0.0034374 0.00175995 -0.00385648)
(-0.00299457 0.00229723 -0.00443513)
(-0.00227006 0.00280005 -0.0049857)
(-0.00129664 0.00322211 -0.00547488)
(-0.000151639 0.00350094 -0.00584749)
(0.00102584 0.00357639 -0.00603572)
(0.00202585 0.00341857 -0.00597262)
(0.0017635 0.00280723 -0.00532191)
(0.0017866 0.00245735 -0.00482998)
(0.00161184 0.00215935 -0.00416963)
(0.00124004 0.00193169 -0.00333912)
(0.000694556 0.00174718 -0.00236991)
(3.32524e-05 0.00155803 -0.0013178)
(-0.000658813 0.00131861 -0.000245082)
(-0.0012889 0.00100009 0.000795625)
(-0.00177535 0.000593313 0.00177057)
(-0.0020582 0.000103758 0.00266518)
(-0.00210231 -0.000454662 0.00347721)
(-0.00189828 -0.00106236 0.00420644)
(-0.0014652 -0.00169175 0.00484425)
(-0.000854693 -0.00230011 0.0053663)
(-0.000150068 -0.00282212 0.00573388)
(0.000546601 -0.00317411 0.005909)
(0.00113714 -0.00328189 0.00587853)
(0.00154983 -0.00313134 0.00566866)
(0.0017635 -0.00280723 0.00532191)
(0.0017866 -0.00245735 0.00482998)
(0.00161184 -0.00215935 0.00416963)
(0.00124004 -0.00193169 0.00333912)
(0.000694556 -0.00174718 0.00236991)
(3.32524e-05 -0.00155803 0.0013178)
(-0.000658813 -0.00131861 0.000245082)
(-0.0012889 -0.00100009 -0.000795625)
(-0.00177535 -0.000593313 -0.00177057)
(-0.0020582 -0.000103758 -0.00266518)
(-0.00210231 0.000454662 -0.00347721)
(-0.00189828 0.00106236 -0.00420644)
(-0.0014652 0.00169175 -0.00484425)
(-0.000854693 0.00230011 -0.0053663)
(-0.000150068 0.00282212 -0.00573388)
(0.000546601 0.00317411 -0.005909)
(0.00113714 0.00328189 -0.00587853)
(0.00154983 0.00313134 -0.00566866)
(0.00377454 0.0043401 -0.0063545)
(0.00385361 0.00362958 -0.00556523)
(0.00302789 0.00286495 -0.0044693)
(0.00154953 0.00209976 -0.00319532)
(-0.000243149 0.00134356 -0.0018778)
(-0.0020426 0.000592013 -0.000630421)
(-0.00363562 -0.00015401 0.000472271)
(-0.00491104 -0.000886817 0.00140268)
(-0.00582988 -0.00159761 0.00217467)
(-0.00638557 -0.00228081 0.00282942)
(-0.00657263 -0.00293422 0.0034191)
(-0.00636924 -0.00355491 0.00399231)
(-0.00573387 -0.00413163 0.00458286)
(-0.00462066 -0.00463675 0.00520083)
(-0.00302424 -0.00502295 0.00582147)
(-0.00105366 -0.00522948 0.00637112)
(0.00101063 -0.00519774 0.00672597)
(0.00275338 -0.00489347 0.00674773)
(0.00377454 -0.0043401 0.0063545)
(0.00385361 -0.00362958 0.00556523)
(0.00302789 -0.00286495 0.0044693)
(0.00154953 -0.00209976 0.00319532)
(-0.000243149 -0.00134356 0.0018778)
(-0.0020426 -0.000592013 0.000630421)
(-0.00363562 0.00015401 -0.000472271)
(-0.00491104 0.000886817 -0.00140268)
(-0.00582988 0.00159761 -0.00217467)
(-0.00638557 0.00228081 -0.00282942)
(-0.00657263 0.00293422 -0.0034191)
(-0.00636924 0.00355491 -0.00399231)
(-0.00573387 0.00413163 -0.00458286)
(-0.00462066 0.00463675 -0.00520083)
(-0.00302424 0.00502295 -0.00582147)
(-0.00105366 0.00522948 -0.00637112)
(0.00101063 0.00519774 -0.00672597)
(0.00275338 0.00489347 -0.00674773)
(0.00282461 0.00379665 -0.0061492)
(0.00287544 0.00326896 -0.00546821)
(0.00236437 0.00272616 -0.00454176)
(0.0014172 0.00220483 -0.00343417)
(0.000215737 0.00169575 -0.00222854)
(-0.0010554 0.00117389 -0.00101247)
(-0.00224267 0.00062055 0.000141279)
(-0.00323724 3.05719e-05 0.00118862)
(-0.00397168 -0.000590488 0.00211691)
(-0.00440734 -0.00123199 0.00293839)
(-0.00452102 -0.00188201 0.00367845)
(-0.00429677 -0.002527 0.00436252)
(-0.00372593 -0.00314694 0.00500433)
(-0.00281738 -0.00370752 0.00559688)
(-0.00161918 -0.00415474 0.00610748)
(-0.000246123 -0.00442092 0.00647957)
(0.00110721 -0.00444791 0.00664461)
(0.00219953 -0.00422174 0.00654401)
(0.00282461 -0.00379665 0.0061492)
(0.00287544 -0.00326896 0.00546821)
(0.00236437 -0.00272616 0.00454176)
(0.0014172 -0.00220483 0.00343417)
(0.000215737 -0.00169575 0.00222854)
(-0.0010554 -0.00117389 0.00101247)
(-0.00224267 -0.00062055 -0.000141279)
(-0.00323724 -3.05719e-05 -0.00118862)
(-0.00397168 0.000590488 -0.00211691)
(-0.00440734 0.00123199 -0.00293839)
(-0.00452102 0.00188201 -0.00367845)
(-0.00429677 0.002527 -0.00436252)
(-0.00372593 0.00314694 -0.00500433)
(-0.00281738 0.00370752 -0.00559688)
(-0.00161918 0.00415474 -0.00610748)
(-0.000246123 0.00442092 -0.00647957)
(0.00110721 0.00444791 -0.00664461)
(0.00219953 0.00422174 -0.00654401)
(0.00190045 0.00337538 -0.00602964)
(0.00194604 0.0030294 -0.00545394)
(0.00175317 0.00268115 -0.00466774)
(0.00132878 0.00235978 -0.00369601)
(0.000706733 0.00205466 -0.00258617)
(-4.67675e-05 0.00173207 -0.00140078)
(-0.000837377 0.00135615 -0.000204777)
(-0.0015599 0.000904398 0.00094748)
(-0.00211955 0.000372553 0.00202041)
(-0.00244606 -0.000229047 0.00299787)
(-0.00249847 -0.000881248 0.0038771)
(-0.00226671 -0.00155925 0.00465893)
(-0.00177497 -0.00223108 0.00533769)
(-0.0010858 -0.00285174 0.00589437)
(-0.000296386 -0.00335882 0.00629886)
(0.000480709 -0.00368263 0.00652326)
(0.00114504 -0.00377699 0.00655491)
(0.0016287 -0.00365237 0.00639258)
(0.00190045 -0.00337538 0.00602964)
(0.00194604 -0.0030294 0.00545394)
(0.00175317 -0.00268115 0.00466774)
(0.00132878 -0.00235978 0.00369601)
(0.000706733 -0.00205466 0.00258617)
(-4.67675e-05 -0.00173207 0.00140078)
(-0.000837377 -0.00135615 0.000204777)
(-0.0015599 -0.000904398 -0.00094748)
(-0.00211955 -0.000372553 -0.00202041)
(-0.00244606 0.000229047 -0.00299787)
(-0.00249847 0.000881248 -0.0038771)
(-0.00226671 0.00155925 -0.00465893)
(-0.00177497 0.00223108 -0.00533769)
(-0.0010858 0.00285174 -0.00589437)
(-0.000296386 0.00335882 -0.00629886)
(0.000480709 0.00368263 -0.00652326)
(0.00114504 0.00377699 -0.00655491)
(0.0016287 0.00365237 -0.00639258)
(0.00325316 0.00489095 -0.00635163)
(0.00326837 0.00394729 -0.0056272)
(0.00240432 0.0029393 -0.00464025)
(0.000870562 0.00194355 -0.00347107)
(-0.0010173 0.000991293 -0.00221435)
(-0.00293884 8.33649e-05 -0.000966442)
(-0.00465111 -0.000788239 0.000194467)
(-0.00601752 -0.00162966 0.00122492)
(-0.00698517 -0.00244401 0.00211888)
(-0.0075413 -0.0032321 0.00289817)
(-0.00767718 -0.00399101 0.00359839)
(-0.00736915 -0.00470974 0.00425584)
(-0.00657818 -0.00536233 0.00489652)
(-0.00527398 -0.00590185 0.00552482)
(-0.00349222 -0.00626172 0.0061092)
(-0.00140453 -0.00636988 0.00657415)
(0.000666382 -0.00617354 0.00681807)
(0.0023291 -0.00566435 0.00675539)
(0.00325316 -0.00489095 0.00635163)
(0.00326837 -0.00394729 0.0056272)
(0.00240432 -0.0029393 0.00464025)
(0.000870562 -0.00194355 0.00347107)
(-0.0010173 -0.000991293 0.00221435)
(-0.00293884 -8.33649e-05 0.000966442)
(-0.00465111 0.000788239 -0.000194467)
(-0.00601752 0.00162966 -0.00122492)
(-0.00698517 0.00244401 -0.00211888)
(-0.0075413 0.0032321 -0.00289817)
(-0.00767718 0.00399101 -0.00359839)
(-0.00736915 0.00470974 -0.00425584)
(-0.00657818 0.00536233 -0.00489652)
(-0.00527398 0.00590185 -0.00552482)
(-0.00349222 0.00626172 -0.0061092)
(-0.00140453 0.00636988 -0.00657415)
(0.000666382 0.00617354 -0.00681807)
(0.0023291 0.00566435 -0.00675539)
(0.00237854 0.00427145 -0.00621955)
(0.00239948 0.00360932 -0.00556172)
(0.00186229 0.00290495 -0.00467039)
(0.000876965 0.00220887 -0.00359476)
(-0.000383268 0.0015321 -0.00240381)
(-0.00172759 0.000861448 -0.0011767)
(-0.0029883 0.000179833 1.4517e-05)
(-0.00404278 -0.000521904 0.00111987)
(-0.00481369 -0.00124283 0.00211705)
(-0.00525625 -0.00197442 0.00300749)
(-0.00534392 -0.00270301 0.0038067)
(-0.00506033 -0.00340944 0.00453283)
(-0.00440093 -0.00406499 0.00519559)
(-0.00338682 -0.00462558 0.00578702)
(-0.00208957 -0.00503099 0.00627632)
(-0.000652894 -0.00521746 0.00661285)
(0.000714586 -0.00514279 0.00674013)
(0.00178599 -0.00480997 0.00661494)
(0.00237854 -0.00427145 0.00621955)
(0.00239948 -0.00360932 0.00556172)
(0.00186229 -0.00290495 0.00467039)
(0.000876965 -0.00220887 0.00359476)
(-0.000383268 -0.0015321 0.00240381)
(-0.00172759 -0.000861448 0.0011767)
(-0.0029883 -0.000179833 -1.4517e-05)
(-0.00404278 0.000521904 -0.00111987)
(-0.00481369 0.00124283 -0.00211705)
(-0.00525625 0.00197442 -0.00300749)
(-0.00534392 0.00270301 -0.0038067)
(-0.00506033 0.00340944 -0.00453283)
(-0.00440093 0.00406499 -0.00519559)
(-0.00338682 0.00462558 -0.00578702)
(-0.00208957 0.00503099 -0.00627632)
(-0.000652894 0.00521746 -0.00661285)
(0.000714586 0.00514279 -0.00674013)
(0.00178599 0.00480997 -0.00661494)
(0.00151916 0.00378578 -0.00623327)
(0.00156412 0.00341761 -0.00563722)
(0.00135859 0.00300469 -0.00481393)
(0.000915522 0.00257647 -0.00379966)
(0.000271688 0.00213761 -0.00265121)
(-0.000506751 0.00167311 -0.00143392)
(-0.00132566 0.00116176 -0.000210528)
(-0.00207689 0.000589775 0.000967328)
(-0.00265973 -4.2752e-05 0.00206467)
(-0.00299798 -0.000722911 0.00306385)
(-0.00304757 -0.00142915 0.00395987)
(-0.00279954 -0.00213398 0.00475215)
(-0.0022835 -0.00280323 0.00543586)
(-0.00156981 -0.00339276 0.00599662)
(-0.000760619 -0.003849 0.0064128)
(3.39976e-05 -0.00412208 0.00666315)
(0.000720168 -0.00418784 0.00672965)
(0.00122988 -0.0040608 0.00659325)
(0.00151916 -0.00378578 0.00623327)
(0.00156412 -0.00341761 0.00563722)
(0.00135859 -0.00300469 0.00481393)
(0.000915522 -0.00257647 0.00379966)
(0.000271688 -0.00213761 0.00265121)
(-0.000506751 -0.00167311 0.00143392)
(-0.00132566 -0.00116176 0.000210528)
(-0.00207689 -0.000589775 -0.000967328)
(-0.00265973 4.2752e-05 -0.00206467)
(-0.00299798 0.000722911 -0.00306385)
(-0.00304757 0.00142915 -0.00395987)
(-0.00279954 0.00213398 -0.00475215)
(-0.0022835 0.00280323 -0.00543586)
(-0.00156981 0.00339276 -0.00599662)
(-0.000760619 0.003849 -0.0064128)
(3.39976e-05 0.00412208 -0.00666315)
(0.000720168 0.00418784 -0.00672965)
(0.00122988 0.0040608 -0.00659325)
(0.00204495 0.00516972 -0.00604012)
(0.00203309 0.00402521 -0.00542228)
(0.00122755 0.00281778 -0.00458364)
(-0.00020663 0.0016295 -0.00356908)
(-0.00200415 0.000503058 -0.00243775)
(-0.00387245 -0.000553828 -0.00126275)
(-0.0055665 -0.00155062 -0.000117667)
(-0.00693049 -0.00249942 0.000942983)
(-0.0078913 -0.0034089 0.00189474)
(-0.00842241 -0.00428194 0.00274025)
(-0.0085087 -0.0051123 0.0034986)
(-0.00812839 -0.0058796 0.00419345)
(-0.00725652 -0.00654369 0.00484169)
(-0.00589404 -0.00704277 0.00544092)
(-0.00412005 -0.00730163 0.00595826)
(-0.00213371 -0.00725301 0.00633266)
(-0.000236919 -0.00686324 0.00649673)
(0.00124341 -0.00614772 0.00640361)
(0.00204495 -0.00516972 0.00604012)
(0.00203309 -0.00402521 0.00542228)
(0.00122755 -0.00281778 0.00458364)
(-0.00020663 -0.0016295 0.00356908)
(-0.00200415 -0.000503058 0.00243775)
(-0.00387245 0.000553828 0.00126275)
(-0.0055665 0.00155062 0.000117667)
(-0.00693049 0.00249942 -0.000942983)
(-0.0078913 0.0034089 -0.00189474)
(-0.00842241 0.00428194 -0.00274025)
(-0.0085087 0.0051123 -0.0034986)
(-0.00812839 0.0058796 -0.00419345)
(-0.00725652 0.00654369 -0.00484169)
(-0.00589404 0.00704277 -0.00544092)
(-0.00412005 0.00730163 -0.00595826)
(-0.00213371 0.00725301 -0.00633266)
(-0.000236919 0.00686324 -0.00649673)
(0.00124341 0.00614772 -0.00640361)
(0.00135881 0.00452656 -0.00593945)
(0.00136086 0.00372175 -0.00535099)
(0.000849377 0.00286375 -0.00455348)
(-8.40003e-05 0.00200688 -0.00357968)
(-0.00128921 0.00117389 -0.00248028)
(-0.00259122 0.00036265 -0.0013201)
(-0.00382567 -0.000438847 -0.000165319)
(-0.00486415 -0.00124001 0.00093126)
(-0.00562071 -0.0020422 0.00193873)
(-0.00604344 -0.00283806 0.00284751)
(-0.00610238 -0.00361213 0.00366249)
(-0.00578293 -0.00433989 0.00439317)
(-0.00508928 -0.0049848 0.00504366)
(-0.00405893 -0.00549573 0.00560425)
(-0.0027825 -0.00581183 0.00604815)
(-0.00141201 -0.00587885 0.00633636)
(-0.000141899 -0.00567051 0.0064297)
(0.000832354 -0.00520176 0.00630079)
(0.00135881 -0.00452656 0.00593945)
(0.00136086 -0.00372175 0.00535099)
(0.000849377 -0.00286375 0.00455348)
(-8.40003e-05 -0.00200688 0.00357968)
(-0.00128921 -0.00117389 0.00248028)
(-0.00259122 -0.00036265 0.0013201)
(-0.00382567 0.000438847 0.000165319)
(-0.00486415 0.00124001 -0.00093126)
(-0.00562071 0.0020422 -0.00193873)
(-0.00604344 0.00283806 -0.00284751)
(-0.00610238 0.00361213 -0.00366249)
(-0.00578293 0.00433989 -0.00439317)
(-0.00508928 0.0049848 -0.00504366)
(-0.00405893 0.00549573 -0.00560425)
(-0.0027825 0.00581183 -0.00604815)
(-0.00141201 0.00587885 -0.00633636)
(-0.000141899 0.00567051 -0.0064297)
(0.000832354 0.00520176 -0.00630079)
(0.000670454 0.00402634 -0.00603618)
(0.000702638 0.00358504 -0.00547111)
(0.000491944 0.00307733 -0.00468711)
(5.61804e-05 0.00253228 -0.00371962)
(-0.000566207 0.00196311 -0.00262276)
(-0.00131294 0.00136831 -0.00145743)
(-0.00209764 0.000739193 -0.000281268)
(-0.00281901 6.9927e-05 0.000857871)
(-0.00337908 -0.000635852 0.00192576)
(-0.00370136 -0.00136411 0.00290255)
(-0.00374151 -0.00209261 0.0037795)
(-0.00349224 -0.00279285 0.00455274)
(-0.00298625 -0.00343008 0.00521637)
(-0.00229501 -0.0039627 0.00575875)
(-0.0015164 -0.00434627 0.00616387)
(-0.000752582 -0.00454503 0.00641437)
(-9.19868e-05 -0.00454534 0.00649123)
(0.000397656 -0.00436089 0.0063724)
(0.000670454 -0.00402634 0.00603618)
(0.000702638 -0.00358504 0.00547111)
(0.000491944 -0.00307733 0.00468711)
(5.61804e-05 -0.00253228 0.00371962)
(-0.000566207 -0.00196311 0.00262276)
(-0.00131294 -0.00136831 0.00145743)
(-0.00209764 -0.000739193 0.000281268)
(-0.00281901 -6.9927e-05 -0.000857871)
(-0.00337908 0.000635852 -0.00192576)
(-0.00370136 0.00136411 -0.00290255)
(-0.00374151 0.00209261 -0.0037795)
(-0.00349224 0.00279285 -0.00455274)
(-0.00298625 0.00343008 -0.00521637)
(-0.00229501 0.0039627 -0.00575875)
(-0.0015164 0.00434627 -0.00616387)
(-0.000752582 0.00454503 -0.00641437)
(-9.19868e-05 0.00454534 -0.00649123)
(0.000397656 0.00436089 -0.0063724)
(0.00031128 0.00526158 -0.0055411)
(0.000306896 0.00395954 -0.0050542)
(-0.000372715 0.00259678 -0.0043802)
(-0.00160766 0.00125498 -0.00354069)
(-0.00319186 -1.80513e-05 -0.00256959)
(-0.00488134 -0.00120839 -0.00151869)
(-0.00645151 -0.00232229 -0.000451472)
(-0.00773934 -0.00337081 0.000573895)
(-0.00865183 -0.00436127 0.00152002)
(-0.00914499 -0.00529348 0.00237394)
(-0.0091963 -0.0061559 0.00314054)
(-0.00878979 -0.00692056 0.00383199)
(-0.00792128 -0.00753933 0.00445647)
(-0.00662417 -0.00794613 0.00500734)
(-0.00500399 -0.00806986 0.00545795)
(-0.00325283 -0.00785691 0.00576812)
(-0.0016223 -0.00729164 0.00589889)
(-0.000367268 -0.00640361 0.00582535)
(0.00031128 -0.00526158 0.0055411)
(0.000306896 -0.00395954 0.0050542)
(-0.000372715 -0.00259678 0.0043802)
(-0.00160766 -0.00125498 0.00354069)
(-0.00319186 1.80513e-05 0.00256959)
(-0.00488134 0.00120839 0.00151869)
(-0.00645151 0.00232229 0.000451472)