/*--------------------------------*- C++ -*----------------------------------*\
| =========                 |                                                 |
| \\      /  F ield         | OpenFOAM: The Open Source CFD Toolbox           |
|  \\    /   O peration     | Version:  2312                                  |
|   \\  /    A nd           | Website:  www.openfoam.com                      |
|    \\/     M anipulation  |                                                 |
\*---------------------------------------------------------------------------*/
FoamFile
{
    version     2.0;
    format      ascii;
    arch        "LSB;label=32;scalar=64";
    class       volTensorField;
    location    "0.3";
    object      F;
}
// * * * * * * * * * * * * * * * * * * * * * * * * * * * * * * * * * * * * * //

dimensions      [0 0 0 0 0 0 0];

internalField   nonuniform List<tensor> 
1620
(
(0.900889 0.0377562 -0.0645632 -0.103973 1.00523 0.0518195 0.214982 0.00427337 1.06465)
(0.883282 0.0371168 -0.087338 -0.0992516 1.01093 0.0217562 0.180002 0.0180111 1.07282)
(0.892942 0.035182 -0.0941383 -0.0927031 1.01445 -0.00731247 0.133818 0.0336437 1.06131)
(0.923587 0.0331589 -0.0878545 -0.0832057 1.01068 -0.0229697 0.0841824 0.0501227 1.03956)
(0.96485 0.032735 -0.0752342 -0.0708256 0.997556 -0.0245723 0.0363967 0.0645512 1.01881)
(1.00802 0.0342179 -0.0610228 -0.0559053 0.976191 -0.0187404 -0.00590019 0.0730359 1.00576)
(1.04753 0.0364723 -0.0470601 -0.0390065 0.950247 -0.0132713 -0.0407899 0.0723994 1.00133)
(1.0805 0.0375816 -0.033697 -0.0208932 0.924727 -0.0133124 -0.0680923 0.0615092 1.00243)
(1.1058 0.0355779 -0.0212613 -0.00231304 0.904576 -0.0202892 -0.0890964 0.0415289 1.0046)
(1.12305 0.0291369 -0.0107151 0.0162787 0.893653 -0.0324443 -0.106042 0.0154861 1.00392)
(1.13195 0.0181012 -0.00353881 0.0348392 0.89414 -0.0458051 -0.121466 -0.0123469 0.998186)
(1.13188 0.00372207 -0.00112536 0.0535689 0.906105 -0.0550933 -0.13753 -0.0370973 0.987528)
(1.122 -0.0114751 -0.00385523 0.0724165 0.927125 -0.0547772 -0.155471 -0.0541211 0.974782)
(1.10163 -0.024398 -0.00996981 0.0903711 0.952265 -0.0407842 -0.175324 -0.0602059 0.965316)
(1.07092 -0.0327857 -0.0148052 0.105009 0.975166 -0.0130318 -0.196024 -0.0549187 0.965531)
(1.0314 -0.0366011 -0.0116977 0.113247 0.990676 0.0222476 -0.215473 -0.0412301 0.979717)
(0.985986 -0.0377243 0.00447185 0.113728 0.998031 0.0527288 -0.229537 -0.0244679 1.00663)
(0.93939 -0.0378244 0.0328145 0.108846 1.00131 0.0647728 -0.230998 -0.00912977 1.03878)
(0.900889 -0.0377562 0.0645632 0.103973 1.00523 0.0518195 -0.214982 0.00427337 1.06465)
(0.883282 -0.0371168 0.087338 0.0992516 1.01093 0.0217562 -0.180002 0.0180111 1.07282)
(0.892942 -0.035182 0.0941383 0.0927031 1.01445 -0.00731247 -0.133818 0.0336437 1.06131)
(0.923587 -0.0331589 0.0878545 0.0832057 1.01068 -0.0229697 -0.0841824 0.0501227 1.03956)
(0.96485 -0.032735 0.0752342 0.0708256 0.997556 -0.0245723 -0.0363967 0.0645512 1.01881)
(1.00802 -0.0342179 0.0610228 0.0559053 0.976191 -0.0187404 0.00590019 0.0730359 1.00576)
(1.04753 -0.0364723 0.0470601 0.0390065 0.950247 -0.0132713 0.0407899 0.0723994 1.00133)
(1.0805 -0.0375816 0.033697 0.0208932 0.924727 -0.0133124 0.0680923 0.0615092 1.00243)
(1.1058 -0.0355779 0.0212613 0.00231304 0.904576 -0.0202892 0.0890964 0.0415289 1.0046)
(1.12305 -0.0291369 0.0107151 -0.0162787 0.893653 -0.0324443 0.106042 0.0154861 1.00392)
(1.13195 -0.0181012 0.00353881 -0.0348392 0.89414 -0.0458051 0.121466 -0.0123469 0.998186)
(1.13188 -0.00372207 0.00112536 -0.0535689 0.906105 -0.0550933 0.13753 -0.0370973 0.987528)
(1.122 0.0114751 0.00385523 -0.0724165 0.927125 -0.0547772 0.155471 -0.0541211 0.974782)
(1.10163 0.024398 0.00996981 -0.0903711 0.952265 -0.0407842 0.175324 -0.0602059 0.965316)
(1.07092 0.0327857 0.0148052 -0.105009 0.975166 -0.0130318 0.196024 -0.0549187 0.965531)
(1.0314 0.0366011 0.0116977 -0.113247 0.990676 0.0222476 0.215473 -0.0412301 0.979717)
(0.985986 0.0377243 -0.00447185 -0.113728 0.998031 0.0527288 0.229537 -0.0244679 1.00663)
(0.93939 0.0378244 -0.0328145 -0.108846 1.00131 0.0647728 0.230998 -0.00912977 1.03878)
(0.928797 0.0188517 -0.0583896 -0.108036 0.991562 0.0383419 0.209814 0.0157595 1.05745)
(0.918882 0.0246714 -0.0783665 -0.0970478 0.993135 0.0111962 0.183616 0.0174661 1.06223)
(0.924753 0.0298778 -0.0831523 -0.0878041 1.00184 -0.0123951 0.148237 0.0239754 1.04814)
(0.945234 0.0314933 -0.0764885 -0.0794369 1.00693 -0.0203433 0.10728 0.0378221 1.02653)
(0.974845 0.0312609 -0.0655031 -0.0708735 1.00027 -0.0141654 0.0641953 0.0545359 1.00961)
(1.00779 0.0319313 -0.0541366 -0.0609973 0.980771 -0.00298057 0.0221308 0.0667216 1.00326)
(1.03947 0.0341578 -0.0427703 -0.049056 0.953193 0.00407876 -0.0165407 0.0684678 1.00651)
(1.0667 0.0363136 -0.0305987 -0.0348434 0.924879 0.00194403 -0.0506137 0.0576211 1.01437)
(1.08745 0.0357937 -0.0175615 -0.0185483 0.902858 -0.00981195 -0.080105 0.0358081 1.02105)
(1.10049 0.030466 -0.00495077 -0.000461045 0.89221 -0.0281072 -0.105955 0.00734893 1.0221)
(1.10505 0.0196706 0.00496956 0.0192208 0.8954 -0.0477537 -0.129506 -0.0219683 1.01544)
(1.10068 0.0046787 0.00983673 0.0403481 0.912046 -0.0626143 -0.151907 -0.0459626 1.00178)
(1.08734 -0.0113613 0.00833336 0.0625009 0.938765 -0.0666996 -0.173581 -0.0591916 0.984759)
(1.0657 -0.0241686 0.00153605 0.0844612 0.969257 -0.0557279 -0.193893 -0.0584609 0.970669)
(1.0377 -0.0300812 -0.00602331 0.103772 0.995289 -0.0294785 -0.211215 -0.0445544 0.966845)
(1.00661 -0.0284291 -0.00701193 0.117058 1.00939 0.00576782 -0.223468 -0.0230026 0.978226)
(0.97626 -0.0225419 0.00492781 0.121648 1.00908 0.0371188 -0.228676 -0.00220133 1.00346)
(0.949442 -0.0178616 0.0297438 0.117403 0.99964 0.0500932 -0.224698 0.0110513 1.03407)
(0.928797 -0.0188517 0.0583896 0.108036 0.991562 0.0383419 -0.209814 0.0157595 1.05745)
(0.918882 -0.0246714 0.0783665 0.0970478 0.993135 0.0111962 -0.183616 0.0174661 1.06223)
(0.924753 -0.0298778 0.0831523 0.0878041 1.00184 -0.0123951 -0.148237 0.0239754 1.04814)
(0.945234 -0.0314933 0.0764885 0.0794369 1.00693 -0.0203433 -0.10728 0.0378221 1.02653)
(0.974845 -0.0312609 0.0655031 0.0708735 1.00027 -0.0141654 -0.0641953 0.0545359 1.00961)
(1.00779 -0.0319313 0.0541366 0.0609973 0.980771 -0.00298057 -0.0221308 0.0667216 1.00326)
(1.03947 -0.0341578 0.0427703 0.049056 0.953193 0.00407876 0.0165407 0.0684678 1.00651)
(1.0667 -0.0363136 0.0305987 0.0348434 0.924879 0.00194403 0.0506137 0.0576211 1.01437)
(1.08745 -0.0357937 0.0175615 0.0185483 0.902858 -0.00981195 0.080105 0.0358081 1.02105)
(1.10049 -0.030466 0.00495077 0.000461045 0.89221 -0.0281072 0.105955 0.00734893 1.0221)
(1.10505 -0.0196706 -0.00496956 -0.0192208 0.8954 -0.0477537 0.129506 -0.0219683 1.01544)
(1.10068 -0.0046787 -0.00983673 -0.0403481 0.912046 -0.0626143 0.151907 -0.0459626 1.00178)
(1.08734 0.0113613 -0.00833336 -0.0625009 0.938765 -0.0666996 0.173581 -0.0591916 0.984759)
(1.0657 0.0241686 -0.00153605 -0.0844612 0.969257 -0.0557279 0.193893 -0.0584609 0.970669)
(1.0377 0.0300812 0.00602331 -0.103772 0.995289 -0.0294785 0.211215 -0.0445544 0.966845)
(1.00661 0.0284291 0.00701193 -0.117058 1.00939 0.00576782 0.223468 -0.0230026 0.978226)
(0.97626 0.0225419 -0.00492781 -0.121648 1.00908 0.0371188 0.228676 -0.00220133 1.00346)
(0.949442 0.0178616 -0.0297438 -0.117403 0.99964 0.0500932 0.224698 0.0110513 1.03407)
(0.955859 0.00302173 -0.0513563 -0.109965 0.980911 0.0239362 0.196885 0.0245758 1.0496)
(0.953417 0.0129021 -0.068245 -0.0934591 0.979705 0.0013119 0.178244 0.0160963 1.05075)
(0.956291 0.0232961 -0.0715399 -0.0809476 0.992817 -0.0156896 0.154458 0.0151334 1.03473)
(0.966923 0.0279152 -0.0650836 -0.0730132 1.00586 -0.0153672 0.124132 0.0268694 1.01419)
(0.984834 0.0278068 -0.0562046 -0.0680025 1.00531 -0.00091693 0.0879989 0.0457919 1.00197)
(1.00742 0.0276336 -0.0482729 -0.0634022 0.987494 0.016021 0.0481898 0.0614736 1.00325)
(1.03119 0.0299235 -0.0401596 -0.0569499 0.957886 0.0245519 0.00728481 0.0653233 1.01516)
(1.05267 0.0334655 -0.0296202 -0.0472266 0.926275 0.0193593 -0.0325183 0.0540424 1.0305)
(1.06896 0.0349399 -0.0159987 -0.0336817 0.902172 0.00113172 -0.0698704 0.0297752 1.04172)
(1.07795 0.0312213 -0.000911476 -0.0163388 0.892152 -0.0251738 -0.104269 -0.00151505 1.04356)
(1.07844 0.0210013 0.0124437 0.00448238 0.898859 -0.0524485 -0.13571 -0.0320757 1.03422)
(1.07014 0.00553515 0.0205343 0.0282518 0.920944 -0.0732045 -0.164199 -0.0542146 1.01561)
(1.05382 -0.0113628 0.0209542 0.0540796 0.953396 -0.0810009 -0.189253 -0.0620228 0.993022)
(1.03163 -0.0242173 0.0140406 0.0803556 0.988143 -0.0718921 -0.209545 -0.0531938 0.974228)
(1.00722 -0.0281098 0.00416754 0.104316 1.01532 -0.0463223 -0.222956 -0.0307083 0.967359)
(0.985394 -0.0219186 -0.000798981 0.121982 1.02614 -0.0111701 -0.227514 -0.00300667 0.977162)
(0.970067 -0.0102871 0.00653192 0.129214 1.01786 0.0202956 -0.223142 0.0191828 1.00119)
(0.96126 -0.00174696 0.0268975 0.123994 0.997793 0.0337257 -0.212266 0.028414 1.02966)
(0.955859 -0.00302173 0.0513563 0.109965 0.980911 0.0239362 -0.196885 0.0245758 1.0496)
(0.953417 -0.0129021 0.068245 0.0934591 0.979705 0.0013119 -0.178244 0.0160963 1.05075)
(0.956291 -0.0232961 0.0715399 0.0809476 0.992817 -0.0156896 -0.154458 0.0151334 1.03473)
(0.966923 -0.0279152 0.0650836 0.0730132 1.00586 -0.0153672 -0.124132 0.0268694 1.01419)
(0.984834 -0.0278068 0.0562046 0.0680025 1.00531 -0.00091693 -0.0879989 0.0457919 1.00197)
(1.00742 -0.0276336 0.0482729 0.0634022 0.987494 0.016021 -0.0481898 0.0614736 1.00325)
(1.03119 -0.0299235 0.0401596 0.0569499 0.957886 0.0245519 -0.00728481 0.0653233 1.01516)
(1.05267 -0.0334655 0.0296202 0.0472266 0.926275 0.0193593 0.0325183 0.0540424 1.0305)
(1.06896 -0.0349399 0.0159987 0.0336817 0.902172 0.00113172 0.0698704 0.0297752 1.04172)
(1.07795 -0.0312213 0.000911476 0.0163388 0.892152 -0.0251738 0.104269 -0.00151505 1.04356)
(1.07844 -0.0210013 -0.0124437 -0.00448238 0.898859 -0.0524485 0.13571 -0.0320757 1.03422)
(1.07014 -0.00553515 -0.0205343 -0.0282518 0.920944 -0.0732045 0.164199 -0.0542146 1.01561)
(1.05382 0.0113628 -0.0209542 -0.0540796 0.953396 -0.0810009 0.189253 -0.0620228 0.993022)
(1.03163 0.0242173 -0.0140406 -0.0803556 0.988143 -0.0718921 0.209545 -0.0531938 0.974228)
(1.00722 0.0281098 -0.00416754 -0.104316 1.01532 -0.0463223 0.222956 -0.0307083 0.967359)
(0.985394 0.0219186 0.000798981 -0.121982 1.02614 -0.0111701 0.227514 -0.00300667 0.977162)
(0.970067 0.0102871 -0.00653192 -0.129214 1.01786 0.0202956 0.223142 0.0191828 1.00119)
(0.96126 0.00174696 -0.0268975 -0.123994 0.997793 0.0337257 0.212266 0.028414 1.02966)
(0.882933 0.0937785 -0.138213 -0.12185 0.998049 0.0642575 0.195155 0.0438702 1.08541)
(0.876551 0.0707653 -0.182294 -0.109937 1.00573 0.0149539 0.164034 0.0858957 1.08369)
(0.897334 0.042558 -0.189791 -0.0943667 1.0097 -0.0246236 0.124235 0.123917 1.06203)
(0.935618 0.0183643 -0.172895 -0.0781322 1.00227 -0.0425365 0.0816581 0.154518 1.03671)
(0.981795 0.00240791 -0.14597 -0.0623161 0.981252 -0.0423213 0.0403948 0.172869 1.01967)
(1.02825 -0.00570175 -0.118255 -0.0465631 0.949309 -0.0349309 0.00304365 0.173844 1.01496)
(1.06988 -0.00883858 -0.0932833 -0.030376 0.913033 -0.0307141 -0.0289436 0.155302 1.01966)
(1.10391 -0.0112505 -0.0714625 -0.0136632 0.880397 -0.0352356 -0.0552911 0.119021 1.02744)
(1.12922 -0.0173669 -0.0528703 0.00339988 0.858343 -0.0488275 -0.0768292 0.0699165 1.0319)
(1.14548 -0.030366 -0.0386335 0.0206774 0.85141 -0.0679385 -0.0951546 0.0147655 1.02857)
(1.15242 -0.050999 -0.0307599 0.0382375 0.861212 -0.086643 -0.112113 -0.0388465 1.01577)
(1.14944 -0.0770383 -0.0309658 0.0562715 0.88617 -0.0977526 -0.12925 -0.083306 0.994972)
(1.13549 -0.103522 -0.0389754 0.0747772 0.9212 -0.0939167 -0.147361 -0.111853 0.971202)
(1.1095 -0.124046 -0.050638 0.0930997 0.957813 -0.069653 -0.166279 -0.119998 0.953056)
(1.07119 -0.133378 -0.0566441 0.109585 0.986003 -0.0250263 -0.184923 -0.107283 0.951118)
(1.02244 -0.130794 -0.0438034 0.12186 0.998967 0.0302139 -0.201399 -0.0779259 0.972754)
(0.968634 -0.121058 -0.00154787 0.12807 0.998512 0.0763155 -0.21243 -0.0389899 1.01404)
(0.918749 -0.109025 0.0669168 0.127708 0.995437 0.090947 -0.21194 0.00199262 1.05729)
(0.882933 -0.0937785 0.138213 0.12185 0.998049 0.0642575 -0.195155 0.0438702 1.08541)
(0.876551 -0.0707653 0.182294 0.109937 1.00573 0.0149539 -0.164034 0.0858957 1.08369)
(0.897334 -0.042558 0.189791 0.0943667 1.0097 -0.0246236 -0.124235 0.123917 1.06203)
(0.935618 -0.0183643 0.172895 0.0781322 1.00227 -0.0425365 -0.0816581 0.154518 1.03671)
(0.981795 -0.00240791 0.14597 0.0623161 0.981252 -0.0423213 -0.0403948 0.172869 1.01967)
(1.02825 0.00570175 0.118255 0.0465631 0.949309 -0.0349309 -0.00304365 0.173844 1.01496)
(1.06988 0.00883858 0.0932833 0.030376 0.913033 -0.0307141 0.0289436 0.155302 1.01966)
(1.10391 0.0112505 0.0714625 0.0136632 0.880397 -0.0352356 0.0552911 0.119021 1.02744)
(1.12922 0.0173669 0.0528703 -0.00339988 0.858343 -0.0488275 0.0768292 0.0699165 1.0319)
(1.14548 0.030366 0.0386335 -0.0206774 0.85141 -0.0679385 0.0951546 0.0147655 1.02857)
(1.15242 0.050999 0.0307599 -0.0382375 0.861212 -0.086643 0.112113 -0.0388465 1.01577)
(1.14944 0.0770383 0.0309658 -0.0562715 0.88617 -0.0977526 0.12925 -0.083306 0.994972)
(1.13549 0.103522 0.0389754 -0.0747772 0.9212 -0.0939167 0.147361 -0.111853 0.971202)
(1.1095 0.124046 0.050638 -0.0930997 0.957813 -0.069653 0.166279 -0.119998 0.953056)
(1.07119 0.133378 0.0566441 -0.109585 0.986003 -0.0250263 0.184923 -0.107283 0.951118)
(1.02244 0.130794 0.0438034 -0.12186 0.998967 0.0302139 0.201399 -0.0779259 0.972754)
(0.968634 0.121058 0.00154787 -0.12807 0.998512 0.0763155 0.21243 -0.0389899 1.01404)
(0.918749 0.109025 -0.0669168 -0.127708 0.995437 0.090947 0.21194 0.00199262 1.05729)
(0.910168 0.056449 -0.131904 -0.109719 0.973729 0.0469581 0.190077 0.0502551 1.08695)
(0.905832 0.0550515 -0.17187 -0.097496 0.979241 0.000365241 0.166567 0.0724485 1.08131)
(0.917909 0.0452302 -0.174144 -0.0855175 0.995323 -0.0331412 0.135966 0.10183 1.05475)
(0.942565 0.0276746 -0.153774 -0.0749392 1.00234 -0.0412819 0.100314 0.135152 1.02871)
(0.97454 0.00966996 -0.127613 -0.0652535 0.990305 -0.0307553 0.0620293 0.162086 1.01718)
(1.0088 -0.00294597 -0.104036 -0.0550863 0.959971 -0.0163246 0.0237088 0.171512 1.02276)
(1.0412 -0.00900381 -0.0836796 -0.043297 0.920243 -0.0104608 -0.0124374 0.157428 1.03928)
(1.06868 -0.0119215 -0.0643314 -0.0294021 0.882813 -0.0186536 -0.0450762 0.120682 1.05709)
(1.08929 -0.017302 -0.0450173 -0.013447 0.857724 -0.039634 -0.0738977 0.0675061 1.06758)
(1.10186 -0.0299127 -0.0274682 0.00429416 0.851181 -0.0676701 -0.0994048 0.0071012 1.06544)
(1.10569 -0.0513955 -0.0153874 0.0235213 0.865021 -0.0948297 -0.122488 -0.0503459 1.04927)
(1.10034 -0.0791822 -0.0125329 0.0439136 0.896808 -0.112568 -0.143945 -0.095034 1.02166)
(1.0856 -0.106661 -0.0203087 0.0649352 0.939967 -0.112974 -0.164054 -0.118766 0.989118)
(1.06178 -0.124791 -0.0352492 0.0854959 0.984092 -0.0905717 -0.182296 -0.116681 0.961925)
(1.03017 -0.1257 -0.0472223 0.103631 1.01651 -0.0456396 -0.197314 -0.0898298 0.952638)
(0.993633 -0.108194 -0.0406934 0.116626 1.02672 0.0114856 -0.207245 -0.047346 0.970734)
(0.957124 -0.0818666 -0.00261797 0.122095 1.01326 0.059411 -0.210286 -0.00414553 1.01303)
(0.927644 -0.0621376 0.0636851 0.119257 0.989016 0.0739561 -0.204943 0.0280733 1.05917)
(0.910168 -0.056449 0.131904 0.109719 0.973729 0.0469581 -0.190077 0.0502551 1.08695)
(0.905832 -0.0550515 0.17187 0.097496 0.979241 0.000365241 -0.166567 0.0724485 1.08131)
(0.917909 -0.0452302 0.174144 0.0855175 0.995323 -0.0331412 -0.135966 0.10183 1.05475)
(0.942565 -0.0276746 0.153774 0.0749392 1.00234 -0.0412819 -0.100314 0.135152 1.02871)
(0.97454 -0.00966996 0.127613 0.0652535 0.990305 -0.0307553 -0.0620293 0.162086 1.01718)
(1.0088 0.00294597 0.104036 0.0550863 0.959971 -0.0163246 -0.0237088 0.171512 1.02276)
(1.0412 0.00900381 0.0836796 0.043297 0.920243 -0.0104608 0.0124374 0.157428 1.03928)
(1.06868 0.0119215 0.0643314 0.0294021 0.882813 -0.0186536 0.0450762 0.120682 1.05709)
(1.08929 0.017302 0.0450173 0.013447 0.857724 -0.039634 0.0738977 0.0675061 1.06758)
(1.10186 0.0299127 0.0274682 -0.00429416 0.851181 -0.0676701 0.0994048 0.0071012 1.06544)
(1.10569 0.0513955 0.0153874 -0.0235213 0.865021 -0.0948297 0.122488 -0.0503459 1.04927)
(1.10034 0.0791822 0.0125329 -0.0439136 0.896808 -0.112568 0.143945 -0.095034 1.02166)
(1.0856 0.106661 0.0203087 -0.0649352 0.939967 -0.112974 0.164054 -0.118766 0.989118)
(1.06178 0.124791 0.0352492 -0.0854959 0.984092 -0.0905717 0.182296 -0.116681 0.961925)
(1.03017 0.1257 0.0472223 -0.103631 1.01651 -0.0456396 0.197314 -0.0898298 0.952638)
(0.993633 0.108194 0.0406934 -0.116626 1.02672 0.0114856 0.207245 -0.047346 0.970734)
(0.957124 0.0818666 0.00261797 -0.122095 1.01326 0.059411 0.210286 -0.00414553 1.01303)
(0.927644 0.0621376 -0.0636851 -0.119257 0.989016 0.0739561 0.204943 0.0280733 1.05917)
(0.93614 0.0202191 -0.124989 -0.0995157 0.950077 0.0281687 0.17905 0.0557749 1.08988)
(0.934033 0.0387339 -0.160927 -0.0860197 0.954699 -0.0141129 0.163242 0.0554814 1.07933)
(0.938365 0.0479478 -0.157682 -0.075632 0.982421 -0.040799 0.141887 0.0749223 1.04676)
(0.949703 0.037964 -0.132933 -0.06862 1.00476 -0.0381357 0.113931 0.111755 1.01967)
(0.96728 0.0174896 -0.10725 -0.0636221 1.00294 -0.0157992 0.0800948 0.149145 1.01454)
(0.988995 -0.00077108 -0.0885552 -0.0584099 0.974682 0.00695704 0.0425166 0.168983 1.03249)
(1.01182 -0.0106219 -0.0740453 -0.0510028 0.930962 0.0146364 0.00379909 0.160591 1.0635)
(1.03254 -0.0142659 -0.0581282 -0.0402431 0.887768 0.00140447 -0.0338314 0.12349 1.09369)
(1.04836 -0.0186577 -0.0383314 -0.0258144 0.859064 -0.0295523 -0.0689471 0.0654612 1.11131)
(1.05728 -0.0305305 -0.0170052 -0.00797603 0.853238 -0.069455 -0.100906 -0.00113095 1.1097)
(1.05815 -0.0526583 8.94048e-05 0.0126884 0.872254 -0.107356 -0.129562 -0.0626252 1.088)
(1.05072 -0.0820695 0.00667837 0.0353757 0.912146 -0.132647 -0.154874 -0.106487 1.0507)
(1.03566 -0.11016 -0.000651249 0.0589991 0.963906 -0.13678 -0.176519 -0.123213 1.00693)
(1.01476 -0.124896 -0.019108 0.0819573 1.01447 -0.11487 -0.193566 -0.108433 0.969557)
(0.990982 -0.115902 -0.0373492 0.101827 1.04841 -0.0683206 -0.204412 -0.0659117 0.953248)
(0.968298 -0.0826645 -0.0370705 0.115361 1.05229 -0.00876258 -0.207392 -0.0103896 0.968879)
(0.950899 -0.041105 -0.00300085 0.119461 1.02335 0.0406001 -0.202299 0.0355061 1.01318)
(0.941343 -0.016472 0.0606432 0.113087 0.979276 0.0546728 -0.19184 0.0562547 1.06267)
(0.93614 -0.0202191 0.124989 0.0995157 0.950077 0.0281687 -0.17905 0.0557749 1.08988)
(0.934033 -0.0387339 0.160927 0.0860197 0.954699 -0.0141129 -0.163242 0.0554814 1.07933)
(0.938365 -0.0479478 0.157682 0.075632 0.982421 -0.040799 -0.141887 0.0749223 1.04676)
(0.949703 -0.037964 0.132933 0.06862 1.00476 -0.0381357 -0.113931 0.111755 1.01967)
(0.96728 -0.0174896 0.10725 0.0636221 1.00294 -0.0157992 -0.0800948 0.149145 1.01454)
(0.988995 0.00077108 0.0885552 0.0584099 0.974682 0.00695704 -0.0425166 0.168983 1.03249)
(1.01182 0.0106219 0.0740453 0.0510028 0.930962 0.0146364 -0.00379908 0.160591 1.0635)
(1.03254 0.0142659 0.0581282 0.0402431 0.887768 0.00140447 0.0338314 0.12349 1.09369)
(1.04836 0.0186577 0.0383314 0.0258144 0.859064 -0.0295523 0.0689471 0.0654612 1.11131)
(1.05728 0.0305305 0.0170052 0.00797603 0.853238 -0.069455 0.100906 -0.00113095 1.1097)
(1.05815 0.0526583 -8.94048e-05 -0.0126884 0.872254 -0.107356 0.129562 -0.0626252 1.088)
(1.05072 0.0820695 -0.00667837 -0.0353757 0.912146 -0.132647 0.154874 -0.106487 1.0507)
(1.03566 0.11016 0.000651249 -0.0589991 0.963906 -0.13678 0.176519 -0.123213 1.00693)
(1.01476 0.124896 0.019108 -0.0819573 1.01447 -0.11487 0.193566 -0.108433 0.969557)
(0.990982 0.115902 0.0373492 -0.101827 1.04841 -0.0683206 0.204412 -0.0659117 0.953248)
(0.968298 0.0826645 0.0370705 -0.115361 1.05229 -0.00876258 0.207392 -0.0103896 0.968879)
(0.950899 0.041105 0.00300085 -0.119461 1.02335 0.0406001 0.202299 0.0355061 1.01318)
(0.941343 0.016472 -0.0606432 -0.113087 0.979276 0.0546728 0.19184 0.0562547 1.06267)
(0.868019 0.129041 -0.211893 -0.136515 0.985884 -0.0128619 0.145555 0.0806198 1.10296)
(0.877827 0.0598044 -0.254046 -0.110069 0.98923 -0.0528297 0.123113 0.138775 1.09367)
(0.912138 -0.0058344 -0.24377 -0.0822278 0.989625 -0.0720814 0.0969488 0.189922 1.06491)
(0.959731 -0.0611878 -0.205948 -0.0579342 0.97722 -0.0687509 0.0690699 0.227448 1.03936)
(1.01193 -0.104804 -0.16221 -0.0377918 0.94802 -0.0536298 0.0409152 0.243753 1.02948)
(1.0619 -0.136112 -0.125199 -0.0205367 0.906651 -0.0403192 0.0136964 0.233411 1.03497)
(1.10493 -0.156799 -0.0988285 -0.00477741 0.863167 -0.0380418 -0.0115858 0.196162 1.04821)
(1.13857 -0.171185 -0.0822017 0.0104444 0.828201 -0.0494414 -0.034414 0.13716 1.06004)
(1.16208 -0.184702 -0.0735426 0.0256895 0.809601 -0.0716654 -0.0548438 0.0650499 1.0633)
(1.17549 -0.201676 -0.07213 0.0412838 0.81118 -0.0985652 -0.0733561 -0.010179 1.05431)
(1.17878 -0.223576 -0.0781172 0.0574198 0.832704 -0.122601 -0.0905826 -0.0786848 1.03302)
(1.17135 -0.248277 -0.0909805 0.0741653 0.870203 -0.136081 -0.107025 -0.131678 1.00292)
(1.15184 -0.270486 -0.107424 0.0914224 0.916179 -0.132233 -0.122861 -0.162212 0.970981)
(1.11847 -0.283386 -0.119647 0.108903 0.960118 -0.107104 -0.137832 -0.166312 0.947625)
(1.0703 -0.281314 -0.11536 0.126063 0.990791 -0.0631029 -0.151081 -0.144362 0.945258)
(1.0098 -0.262377 -0.0812701 0.14165 1.00164 -0.0127578 -0.160942 -0.101414 0.972889)
(0.945573 -0.228686 -0.00962962 0.152539 0.996217 0.022686 -0.165148 -0.0442465 1.02599)
(0.892758 -0.185442 0.0965074 0.152683 0.98796 0.0240658 -0.161075 0.0185675 1.07812)
(0.868019 -0.129041 0.211893 0.136515 0.985884 -0.0128619 -0.145555 0.0806198 1.10296)
(0.877827 -0.0598044 0.254046 0.110069 0.98923 -0.0528297 -0.123113 0.138775 1.09367)
(0.912138 0.0058344 0.24377 0.0822278 0.989625 -0.0720814 -0.0969488 0.189922 1.06491)
(0.959731 0.0611878 0.205948 0.0579342 0.97722 -0.0687509 -0.0690699 0.227448 1.03936)
(1.01193 0.104804 0.16221 0.0377918 0.94802 -0.0536298 -0.0409152 0.243753 1.02948)
(1.0619 0.136112 0.125199 0.0205367 0.906651 -0.0403192 -0.0136964 0.233411 1.03497)
(1.10493 0.156799 0.0988285 0.00477741 0.863167 -0.0380418 0.0115858 0.196162 1.04821)
(1.13857 0.171185 0.0822017 -0.0104444 0.828201 -0.0494414 0.034414 0.13716 1.06004)
(1.16208 0.184702 0.0735426 -0.0256895 0.809601 -0.0716654 0.0548438 0.0650499 1.0633)
(1.17549 0.201676 0.07213 -0.0412838 0.81118 -0.0985652 0.0733561 -0.010179 1.05431)
(1.17878 0.223576 0.0781172 -0.0574198 0.832704 -0.122601 0.0905826 -0.0786848 1.03302)
(1.17135 0.248277 0.0909805 -0.0741653 0.870203 -0.136081 0.107025 -0.131678 1.00292)
(1.15184 0.270486 0.107424 -0.0914224 0.916179 -0.132233 0.122861 -0.162212 0.970981)
(1.11847 0.283386 0.119647 -0.108903 0.960118 -0.107104 0.137832 -0.166312 0.947625)
(1.0703 0.281314 0.11536 -0.126063 0.990791 -0.0631029 0.151081 -0.144362 0.945258)
(1.0098 0.262377 0.0812701 -0.14165 1.00164 -0.0127578 0.160942 -0.101414 0.972889)
(0.945573 0.228686 0.00962962 -0.152539 0.996217 0.022686 0.165148 -0.0442465 1.02599)
(0.892758 0.185442 -0.0965074 -0.152683 0.98796 0.0240658 0.161075 0.0185675 1.07812)
(0.888895 0.0801671 -0.202027 -0.105167 0.961219 -0.0214941 0.145285 0.082061 1.10846)
(0.894048 0.0557356 -0.2378 -0.0905837 0.971666 -0.059991 0.126901 0.117531 1.0922)
(0.914899 0.0159602 -0.218775 -0.0754988 0.988245 -0.0744901 0.104103 0.161465 1.05921)
(0.945264 -0.0334658 -0.174351 -0.0617427 0.99081 -0.0635644 0.0774475 0.205998 1.03581)
(0.980342 -0.0839818 -0.130346 -0.0490365 0.969664 -0.0405244 0.0482684 0.23518 1.03488)
(1.01586 -0.125767 -0.0989143 -0.0363653 0.928622 -0.0223192 0.0184083 0.235947 1.05367)
(1.04818 -0.154366 -0.0800905 -0.0228645 0.880548 -0.0202507 -0.0103998 0.204111 1.08078)
(1.07475 -0.172472 -0.0689626 -0.00812592 0.840057 -0.036884 -0.0369686 0.144405 1.10352)
(1.09402 -0.186946 -0.0618216 0.0078462 0.818212 -0.0675723 -0.0607751 0.0674177 1.11248)
(1.10522 -0.204313 -0.0585103 0.0247868 0.820392 -0.103677 -0.0818406 -0.0138563 1.10328)
(1.10788 -0.227258 -0.0614794 0.0422904 0.846265 -0.135397 -0.100492 -0.0865278 1.07656)
(1.10158 -0.253003 -0.0730333 0.0598552 0.890545 -0.153609 -0.117113 -0.139375 1.03736)
(1.08584 -0.273696 -0.0919491 0.0768748 0.943768 -0.151111 -0.131945 -0.163941 0.994607)
(1.06029 -0.278958 -0.110518 0.09261 0.99307 -0.124284 -0.144909 -0.155848 0.960761)
(1.02535 -0.260684 -0.113783 0.106121 1.02427 -0.0763378 -0.155412 -0.117052 0.950417)
(0.983318 -0.218503 -0.0837133 0.116098 1.02746 -0.0213149 -0.162205 -0.058391 0.97486)
(0.939922 -0.161584 -0.00949452 0.12055 1.0049 0.0168002 -0.16355 0.00177485 1.03019)
(0.905089 -0.10924 0.0999247 0.11699 0.974558 0.0165324 -0.158043 0.0479885 1.08615)
(0.888895 -0.0801671 0.202027 0.105167 0.961219 -0.0214941 -0.145285 0.082061 1.10846)
(0.894048 -0.0557356 0.2378 0.0905837 0.971666 -0.059991 -0.126901 0.117531 1.0922)
(0.914899 -0.0159602 0.218775 0.0754988 0.988245 -0.0744901 -0.104103 0.161465 1.05921)
(0.945264 0.0334658 0.174351 0.0617427 0.99081 -0.0635644 -0.0774475 0.205998 1.03581)
(0.980342 0.0839818 0.130346 0.0490365 0.969664 -0.0405244 -0.0482684 0.23518 1.03488)
(1.01586 0.125767 0.0989143 0.0363653 0.928622 -0.0223192 -0.0184083 0.235947 1.05367)
(1.04818 0.154366 0.0800905 0.0228645 0.880548 -0.0202507 0.0103998 0.204111 1.08078)
(1.07475 0.172472 0.0689626 0.00812592 0.840057 -0.036884 0.0369686 0.144405 1.10352)
(1.09402 0.186946 0.0618216 -0.0078462 0.818212 -0.0675723 0.0607751 0.0674177 1.11248)
(1.10522 0.204313 0.0585103 -0.0247868 0.820392 -0.103677 0.0818406 -0.0138563 1.10328)
(1.10788 0.227258 0.0614794 -0.0422904 0.846265 -0.135397 0.100492 -0.0865278 1.07656)
(1.10158 0.253003 0.0730333 -0.0598552 0.890545 -0.153609 0.117113 -0.139375 1.03736)
(1.08584 0.273696 0.0919491 -0.0768748 0.943768 -0.151111 0.131945 -0.163941 0.994607)
(1.06029 0.278958 0.110518 -0.09261 0.99307 -0.124284 0.144909 -0.155848 0.960761)
(1.02535 0.260684 0.113783 -0.106121 1.02427 -0.0763378 0.155412 -0.117052 0.950417)
(0.983318 0.218503 0.0837133 -0.116098 1.02746 -0.0213149 0.162205 -0.058391 0.97486)
(0.939922 0.161584 0.00949452 -0.12055 1.0049 0.0168002 0.16355 0.00177485 1.03019)
(0.905089 0.10924 -0.0999247 -0.11699 0.974558 0.0165324 0.158043 0.0479885 1.08615)
(0.912034 0.0386993 -0.192869 -0.0841507 0.933623 -0.03071 0.146886 0.0781928 1.11593)
(0.911481 0.0524805 -0.222089 -0.0781663 0.951801 -0.0672042 0.132639 0.0901665 1.09161)
(0.918225 0.0413388 -0.192401 -0.0720358 0.984557 -0.0772128 0.111909 0.127691 1.05379)
(0.930916 -6.46225e-05 -0.138771 -0.0654018 1.00417 -0.0583915 0.0855493 0.179897 1.0321)
(0.948345 -0.0583068 -0.0932461 -0.0576713 0.994054 -0.0259088 0.0553237 0.223609 1.04047)
(0.968814 -0.112949 -0.0681042 -0.0481708 0.955221 -0.000974157 0.02344 0.237801 1.07431)
(0.98991 -0.151594 -0.058663 -0.036354 0.902755 0.00165143 -0.0080049 0.21319 1.11804)
(1.00899 -0.174514 -0.0547745 -0.0220698 0.855979 -0.0212125 -0.0374101 0.153365 1.15432)
(1.02376 -0.190149 -0.0500307 -0.0056322 0.830272 -0.0628351 -0.0638197 0.0709866 1.17037)
(1.03261 -0.207746 -0.044789 0.0122893 0.833285 -0.111121 -0.0868624 -0.0171566 1.16052)
(1.03463 -0.231542 -0.0443137 0.0308184 0.864571 -0.152883 -0.106574 -0.0941463 1.1262)
(1.02958 -0.257958 -0.0544588 0.0489799 0.916863 -0.176783 -0.123194 -0.145659 1.07485)
(1.0179 -0.275941 -0.0765708 0.0657436 0.977739 -0.175076 -0.136963 -0.161727 1.01856)
(1.00075 -0.270771 -0.102954 0.0799848 1.03114 -0.145026 -0.147919 -0.13838 0.972823)
(0.979967 -0.231587 -0.115193 0.0904306 1.0597 -0.0915396 -0.155775 -0.0805797 0.954824)
(0.957745 -0.161011 -0.0890996 0.095874 1.05079 -0.030893 -0.159977 -0.00640317 0.977603)
(0.936767 -0.0818618 -0.00952301 0.0957655 1.00705 0.00994136 -0.159904 0.0538313 1.03668)
(0.920556 -0.0359743 0.105144 0.0910989 0.955034 0.00772531 -0.155339 0.0774645 1.09699)
(0.912034 -0.0386993 0.192869 0.0841507 0.933623 -0.03071 -0.146886 0.0781928 1.11593)
(0.911481 -0.0524805 0.222089 0.0781663 0.951801 -0.0672042 -0.132639 0.0901665 1.09161)
(0.918225 -0.0413388 0.192401 0.0720358 0.984557 -0.0772128 -0.111909 0.127691 1.05379)
(0.930916 6.46225e-05 0.138771 0.0654018 1.00417 -0.0583915 -0.0855493 0.179897 1.0321)
(0.948345 0.0583068 0.0932461 0.0576713 0.994054 -0.0259088 -0.0553237 0.223609 1.04047)
(0.968814 0.112949 0.0681042 0.0481708 0.955221 -0.000974157 -0.02344 0.237801 1.07431)
(0.98991 0.151594 0.058663 0.036354 0.902755 0.00165143 0.0080049 0.21319 1.11804)
(1.00899 0.174514 0.0547745 0.0220698 0.855979 -0.0212125 0.0374101 0.153365 1.15432)
(1.02376 0.190149 0.0500307 0.0056322 0.830272 -0.0628351 0.0638197 0.0709866 1.17037)
(1.03261 0.207746 0.044789 -0.0122893 0.833285 -0.111121 0.0868624 -0.0171566 1.16052)
(1.03463 0.231542 0.0443137 -0.0308184 0.864571 -0.152883 0.106574 -0.0941463 1.1262)
(1.02958 0.257958 0.0544588 -0.0489799 0.916863 -0.176783 0.123194 -0.145659 1.07485)
(1.0179 0.275941 0.0765708 -0.0657436 0.977739 -0.175076 0.136963 -0.161727 1.01856)
(1.00075 0.270771 0.102954 -0.0799848 1.03114 -0.145026 0.147919 -0.13838 0.972823)
(0.979967 0.231587 0.115193 -0.0904306 1.0597 -0.0915396 0.155775 -0.0805797 0.954824)
(0.957745 0.161011 0.0890996 -0.095874 1.05079 -0.030893 0.159977 -0.00640317 0.977603)
(0.936767 0.0818618 0.00952301 -0.0957655 1.00705 0.00994136 0.159904 0.0538313 1.03668)
(0.920556 0.0359743 -0.105144 -0.0910989 0.955034 0.00772531 0.155339 0.0774645 1.09699)
(0.910573 0.13021 -0.257958 -0.121106 0.94273 -0.112062 0.0828724 0.106279 1.09917)
(0.923424 0.0243638 -0.293425 -0.0879902 0.946331 -0.111334 0.0729093 0.168665 1.08999)
(0.953398 -0.0730046 -0.266398 -0.0551467 0.947152 -0.0958027 0.0632374 0.22111 1.06839)
(0.995721 -0.160736 -0.20833 -0.0268571 0.931206 -0.0703769 0.0517662 0.256453 1.05488)
(1.04298 -0.23642 -0.148803 -0.0037828 0.896486 -0.0460978 0.0375862 0.266216 1.05715)
(1.08786 -0.295815 -0.10483 0.0151088 0.8508 -0.0335314 0.0210951 0.245597 1.07141)