/*--------------------------------*- C++ -*----------------------------------*\
| =========                 |                                                 |
| \\      /  F ield         | OpenFOAM: The Open Source CFD Toolbox           |
|  \\    /   O peration     | Version:  2312                                  |
|   \\  /    A nd           | Website:  www.openfoam.com                      |
|    \\/     M anipulation  |                                                 |
\*---------------------------------------------------------------------------*/
FoamFile
{
    version     2.0;
    format      ascii;
    arch        "LSB;label=32;scalar=64";
    class       volScalarField;
    location    "0.3";
    object      sigmaEq;
}
// * * * * * * * * * * * * * * * * * * * * * * * * * * * * * * * * * * * * * //

dimensions      [1 -1 -2 0 0 0 0];

internalField   nonuniform List<scalar> 
1620
(
18914.7
19081.7
18687.4
18137.7
17704.8
17448.4
17344.2
17350.3
17416.6
17484.3
17491.8
17395.8
17199.7
16974.2
16847.2
16965.1
17433.3
18200.9
18914.7
19081.7
18687.4
18137.7
17704.8
17448.4
17344.2
17350.3
17416.6
17484.3
17491.8
17395.8
17199.7
16974.2
16847.2
16965.1
17433.3
18200.9
18023
18187.9
18208.3
18156.9
18120.8
18142.1
18221.5
18333.5
18434.6
18472.3
18401.4
18204.4
17909.1
17589.1
17345.2
17273.1
17417.4
17720.3
18023
18187.9
18208.3
18156.9
18120.8
18142.1
18221.5
18333.5
18434.6
18472.3
18401.4
18204.4
17909.1
17589.1
17345.2
17273.1
17417.4
17720.3
18505.2
18175.4
18002.1
18079.6
18357.4
18732.2
19097.3
19360
19453.8
19354.6
19090.6
18738.3
18404.6
18199.1
18199
18400.4
18660.1
18730.9
18505.2
18175.4
18002.1
18079.6
18357.4
18732.2
19097.3
19360
19453.8
19354.6
19090.6
18738.3
18404.6
18199.1
18199
18400.4
18660.1
18730.9
18265.7
17874.8
17369.3
17104.5
17069
17202.3
17445.3
17741.7
18033.1
18255.8
18342.5
18237.8
17930.2
17489.9
17077.8
16892.1
17105.8
17788.3
18265.7
17874.8
17369.3
17104.5
17069
17202.3
17445.3
17741.7
18033.1
18255.8
18342.5
18237.8
17930.2
17489.9
17077.8
16892.1
17105.8
17788.3
17588.2
17492.3
17441.3
17569.9
17836.3
18196.5
18615
19049.8
19448.1
19748.6
19893.1
19839.3
19570.3
19101.4
18493.2
17866.5
17424.1
17420.1
17588.2
17492.3
17441.3
17569.9
17836.3
18196.5
18615
19049.8
19448.1
19748.6
19893.1
19839.3
19570.3
19101.4
18493.2
17866.5
17424.1
17420.1
18947.4
18561.6
18405.2
18580.7
19092.4
19831.8
20583.9
21109.2
21261.3
21043.3
20573.5
20020
19548.5
19279.4
19244
19359.8
19450
19321.8
18947.4
18561.6
18405.2
18580.7
19092.4
19831.8
20583.9
21109.2
21261.3
21043.3
20573.5
20020
19548.5
19279.4
19244
19359.8
19450
19321.8
17540.9
17025.8
16852.2
16947.5
17235.9
17667.5
18174.5
18669.5
19064.1
19279.3
19249
18926
18314.2
17538.4
16881.7
16634.4
16899.8
17752.5
17540.9
17025.8
16852.2
16947.5
17235.9
17667.5
18174.5
18669.5
19064.1
19279.3
19249
18926
18314.2
17538.4
16881.7
16634.4
16899.8
17752.5
16577.2
16521.2
16759.8
17106.4
17588.2
18236.3
19005.3
19796.6
20508.9
21057.5
21366.8
21357.6
20951.5
20126.3
19022.5
17933.4
17102.5
16702.2
16577.2
16521.2
16759.8
17106.4
17588.2
18236.3
19005.3
19796.6
20508.9
21057.5
21366.8
21357.6
20951.5
20126.3
19022.5
17933.4
17102.5
16702.2
18979.2
18968.1
18555.2
18363.2
18766.4
19790
21138.1
22317.8
22961.8
23010
22631.9
22067.7
21513.9
21052.7
20623.6
20089.2
19355.1
18473.9
18979.2
18968.1
18555.2
18363.2
18766.4
19790
21138.1
22317.8
22961.8
23010
22631.9
22067.7
21513.9
21052.7
20623.6
20089.2
19355.1
18473.9
18158.6
17559.5
17225.2
17246.1
17495.4
17925
18445.2
18907.2
19169.8
19150
18810.8
18131.7
17132.3
16016.7
15300.4
15420
16295.5
17638.8
18158.6
17559.5
17225.2
17246.1
17495.4
17925
18445.2
18907.2
19169.8
19150
18810.8
18131.7
17132.3
16016.7
15300.4
15420
16295.5
17638.8
16989.8
16831.5
16660.3
16529.9
16632.8
17125.1
17981
18979.2
19867.3
20476.8
20700.8
20436.2
19602.7
18326.8
17128.2
16558.9
16647.6
16991.4
16989.8
16831.5
16660.3
16529.9
16632.8
17125.1
17981
18979.2
19867.3
20476.8
20700.8
20436.2
19602.7
18326.8
17128.2
16558.9
16647.6
16991.4
18537.9
19057.5
18288
17471
17390.9
18359.1
20166.7
22084.9
23468
24113.2
24141.3
23757.9
23092.4
22158.6
20982.8
19748.5
18682.1
18037.1
18537.9
19057.5
18288
17471
17390.9
18359.1
20166.7
22084.9
23468
24113.2
24141.3
23757.9
23092.4
22158.6
20982.8
19748.5
18682.1
18037.1
17382.1
17542.5
17596.7
17649.1
17730.1
17891.3
18119.1
18286
18244.6
17924.6
17314.1
16398.8
15199.1
14056
13765.8
14577.5
15802.2
16832.3
17382.1
17542.5
17596.7
17649.1
17730.1
17891.3
18119.1
18286
18244.6
17924.6
17314.1
16398.8
15199.1
14056
13765.8
14577.5
15802.2
16832.3
16701.1
16661.6
16367.2
15834.9
15337.6
15291.3
15964.8
17104.6
18181.8
18844.2
18942.8
18394.7
17236.4
15965.3
15454.9
15811.1
16348.5
16633.6
16701.1
16661.6
16367.2
15834.9
15337.6
15291.3
15964.8
17104.6
18181.8
18844.2
18942.8
18394.7
17236.4
15965.3
15454.9
15811.1
16348.5
16633.6
18507.5
18325.2
17505.7
16540.8
16076.1
16763.6
18691.9
21037.9
22939.8
24099
24595.8
24565.7
24031.1
22972.2
21565.6
20186.2
19132
18562.2
18507.5
18325.2
17505.7
16540.8
16076.1
16763.6
18691.9
21037.9
22939.8
24099
24595.8
24565.7
24031.1
22972.2
21565.6
20186.2
19132
18562.2
16742.7
17216.3
17632
17946.6
18070.2
17986.3
17773.4
17477.2
17059.6
16480.7
15720.2
14742.8
13602.4
12805.4
13081.2
14170.6
15292.3
16140.4
16742.7
17216.3
17632
17946.6
18070.2
17986.3
17773.4
17477.2
17059.6
16480.7
15720.2
14742.8
13602.4
12805.4
13081.2
14170.6
15292.3
16140.4
16178.3
16111.2
15784.3
15108.2
14223.7
13647.3
14065.4
15388.4
16757.9
17554.8
17584.5
16826.1
15520.4
14520.7
14609.2
15303.2
15861.3
16113.5
16178.3
16111.2
15784.3
15108.2
14223.7
13647.3
14065.4
15388.4
16757.9
17554.8
17584.5
16826.1
15520.4
14520.7
14609.2
15303.2
15861.3
16113.5
18345.7
17672
16766.6
15804.3
15201.6
15619.8
17388
19848.4
22047.5
23600.4
24552.2
24971.2
24782.1
23913.7
22534.2
21041.8
19804.3
18946.1
18345.7
17672
16766.6
15804.3
15201.6
15619.8
17388
19848.4
22047.5
23600.4
24552.2
24971.2
24782.1
23913.7
22534.2
21041.8
19804.3
18946.1
16208.4
16788.6
17370.5
17878.4
18149.7
18029.6
17537.5
16847.2
16091
15300.2
14449.9
13509.8
12617.4
12294.5
12894.6
13935.8
14876.7
15604.4
16208.4
16788.6
17370.5
17878.4
18149.7
18029.6
17537.5
16847.2
16091
15300.2
14449.9
13509.8
12617.4
12294.5
12894.6
13935.8
14876.7
15604.4
15460.7
15379.6
15064.9
14388.6
13393.7
12533.2
12670.5
13985.6
15510.8
16408.9
16421.7
15605.6
14394.7
13721.9
14043.3
14727.7
15211.4
15418.7
15460.7
15379.6
15064.9
14388.6
13393.7
12533.2
12670.5
13985.6
15510.8
16408.9
16421.7
15605.6
14394.7
13721.9
14043.3
14727.7
15211.4
15418.7
18068.7
17204.3
16294.6
15399.9
14804.7
15032
16494.7
18823.3
21135.3
22955.7
24244.7
25002.5
25113.7
24474.4
23175.9
21585.6
20131
18985.7
18068.7
17204.3
16294.6
15399.9
14804.7
15032
16494.7
18823.3
21135.3
22955.7
24244.7
25002.5
25113.7
24474.4
23175.9
21585.6
20131
18985.7
15739.2
16295.2
16874.1
17409.1
17741.7
17675.7
17142.5
16299.2
15368.7
14465.7
13599.5
12782.2
12197.5
12208.6
12869.8
13761.5
14549
15183
15739.2
16295.2
16874.1
17409.1
17741.7
17675.7
17142.5
16299.2
15368.7
14465.7
13599.5
12782.2
12197.5
12208.6
12869.8
13761.5
14549
15183
14620.2
14540.1
14266.6
13672.6
12752
11828.5
11646.3
12605.6
13996.4
14921.6
15018.6
14368.3
13472.7
13097.4
13448.3
14021.5
14421.6
14593
14620.2
14540.1
14266.6
13672.6
12752
11828.5
11646.3
12605.6
13996.4
14921.6
15018.6
14368.3
13472.7
13097.4
13448.3
14021.5
14421.6
14593
17791.5
16954.3
16149.3
15390.5
14870.1
14966.3
16056.6
18026.4
20226.8
22141.5
23602.2
24534.5
24811.4
24313.1
23091.8
21500
19985
18760
17791.5
16954.3
16149.3
15390.5
14870.1
14966.3
16056.6
18026.4
20226.8
22141.5
23602.2
24534.5
24811.4
24313.1
23091.8
21500
19985
18760
15260.3
15732.9
16225.2
16688.2
16989.7
16959.8
16503.7
15711.8
14794.3
13911.2
13122.6
12481
12141
12283.9
12853.1
13570.2
14226.8
14777.4
15260.3
15732.9
16225.2
16688.2
16989.7
16959.8
16503.7
15711.8
14794.3
13911.2
13122.6
12481
12141
12283.9
12853.1
13570.2
14226.8
14777.4
13699.4
13628
13401.9
12923
12167.4
11329.5
10906
11335.2
12331.9
13169.1
13403.5
13059.1
12555
12411.3
12725.3
13181.9
13516.2
13671.8
13699.4
13628
13401.9
12923
12167.4
11329.5
10906
11335.2
12331.9
13169.1
13403.5
13059.1
12555
12411.3
12725.3
13181.9
13516.2
13671.8
17592.1
16897.6
16278.4
15713.6
15313
15325.3
16040.4
17509.3
19381
21198.7
22675.6
23646.8
23968.5
23536.8
22424.9
20971.4
19580.7
18455.9
17592.1
16897.6
16278.4
15713.6
15313
15325.3
16040.4
17509.3
19381
21198.7
22675.6
23646.8
23968.5
23536.8
22424.9
20971.4
19580.7
18455.9
14691.5
15078.3
15474.9
15846.7
16091.3
16080.8
15735.8
15099.8
14326.5
13573.2
12931.2
12463.8
12261
12390.3
12794.4
13318.2
13832.9
14288.3
14691.5
15078.3
15474.9
15846.7
16091.3
16080.8
15735.8
15099.8
14326.5
13573.2
12931.2
12463.8
12261
12390.3
12794.4
13318.2
13832.9
14288.3
12688.1
12629.5
12448.7
12089.2
11530.4
10870.2
10377.2
10369.9
10861.5
11462.3
11779.7
11740.2
11582.1
11602.3
11867.3
12220.8
12501.2
12651.3
12688.1
12629.5
12448.7
12089.2
11530.4
10870.2
10377.2
10369.9
10861.5
11462.3
11779.7
11740.2
11582.1
11602.3
11867.3
12220.8
12501.2
12651.3
17490
16968.7
16561.1
16221.5
15983
15979.6
16404.7
17375.9
18781.2
20311.4
21641.3
22529.9
22818.4
22442.5
21506.7
20300.1
19139.7
18196.4
17490
16968.7
16561.1
16221.5
15983
15979.6
16404.7
17375.9
18781.2
20311.4
21641.3
22529.9
22818.4
22442.5
21506.7
20300.1
19139.7
18196.4
14006.1
14321.4
14646.6
14951.2
15159.1
15180.9
14961
14519.9
13956.8
13396.2
12927.3
12599.4
12448.2
12492.5
12704.8
13016.9
13359
13690.7
14006.1
14321.4
14646.6
14951.2
15159.1
15180.9
14961
14519.9
13956.8
13396.2
12927.3
12599.4
12448.2
12492.5
12704.8
13016.9
13359
13690.7
11535.7
11491
11356.3
11112.7
10751.6
10312.1
9908.66
9707.8
9804.75
10097
10368.2
10503.3
10564
10676.1
10887.7
11144.2
11362.9
11495.5
11535.7
11491
11356.3
11112.7
10751.6
10312.1
9908.66
9707.8
9804.75
10097
10368.2
10503.3
10564
10676.1
10887.7
11144.2
11362.9
11495.5
17463.5
17098.9
16877.8
16751.3
16694.8
16746.9
17012.3
17602.4
18529
19637.8
20663.7
21356.2
21563.4
21259.4
20549.7
19641.5
18750.2
18010
17463.5
17098.9
16877.8
16751.3
16694.8
16746.9
17012.3
17602.4
18529
19637.8
20663.7
21356.2
21563.4
21259.4
20549.7
19641.5
18750.2
18010
13276.7
13522.9
13799.5
14071.6
14278.7
14356.5
14265.6
14014.7
13666.2
13307.7
13006.4
12787.3
12652.8
12603.5
12637
12738.9
12887.4
13067
13276.7
13522.9
13799.5
14071.6
14278.7
14356.5
14265.6
14014.7
13666.2
13307.7
13006.4
12787.3
12652.8
12603.5
12637
12738.9
12887.4
13067
10188.7
10154.9
10068.7
9933.66
9750.2
9526.92
9295.68
9117.49
9056.57
9125.3
9264.52
9402.55
9519.05
9638.06
9780.63
9936.88
10074.5
10162.8
10188.7
10154.9
10068.7
9933.66
9750.2
9526.92
9295.68
9117.49
9056.57
9125.3
9264.52
9402.55
9519.05
9638.06
9780.63
9936.88
10074.5
10162.8
17422.9
17181.3
17087.3
17108.8
17200.2
17337.7
17548.9
17898.5
18428.2
19087.5
19723.2
20153.8
20264.7
20046.5
19574.3
18968.3
18352.2
17819.6
17422.9
17181.3
17087.3
17108.8
17200.2
17337.7
17548.9
17898.5
18428.2
19087.5
19723.2
20153.8
20264.7
20046.5
19574.3
18968.3
18352.2
17819.6
12653.9
12821.7
13056.5
13320.7
13556.8
13706.5
13730.3
13626.9
13440.9
13241.5
13077.3
12951.5
12842.2
12736.5
12641.2
12571.5
12541.3
12563.7
12653.9
12821.7
13056.5
13320.7
13556.8
13706.5
13730.3
13626.9
13440.9
13241.5
13077.3
12951.5
12842.2
12736.5
12641.2
12571.5
12541.3
12563.7
8682.82
8667.48
8637.66
8599.42
8552.83
8495.3
8430.67
8375.25
8350.45
8365.3
8406.71
8451.54
8487.54
8519.49
8557.42
8603.09
8647.22
8676.47
8682.82
8667.48
8637.66
8599.42
8552.83
8495.3
8430.67
8375.25
8350.45
8365.3
8406.71
8451.54
8487.54
8519.49
8557.42
8603.09
8647.22
8676.47
17054.8
16899.3
16857
16918.9
17054.7
17225.8
17410.6
17615.5
17861.1
18146.6
18426.2
18623.3
18675.2
18565.8
18321.6
17993.2
17638.2
17310.9
17054.8
16899.3
16857
16918.9
17054.7
17225.8
17410.6
17615.5
17861.1
18146.6
18426.2
18623.3
18675.2
18565.8
18321.6
17993.2
17638.2
17310.9
12285.9
12355.9
12523.6
12762
13018.2
13226.5
13330
13310.6
13207.5
13094.9
13023.4
12986.1
12941
12853.6
12719.7
12562
12414.7
12312.5
12285.9
12355.9
12523.6
12762
13018.2
13226.5
13330
13310.6
13207.5
13094.9
13023.4
12986.1
12941
12853.6
12719.7
12562
12414.7
12312.5
7443.29
7502.5
7566.93
7624.72
7666.04
7689.08
7705.35
7735.42
7789.73
7850.32
7877.41
7839.55
7738.53
7608.13
7491
7415.34
7387.82
7401.08
7443.29
7502.5
7566.93
7624.72
7666.04
7689.08
7705.35
7735.42
7789.73
7850.32
7877.41
7839.55
7738.53
7608.13
7491
7415.34
7387.82
7401.08
15652.2
15560.2
15519.2
15537.5
15609.9
15716.9
15830.5
15926.1
15994.6
16043
16084.2
16123.3
16152.4
16155.1
16116.2
16032.1
15912.3
15777.4
15652.2
15560.2
15519.2
15537.5
15609.9
15716.9
15830.5
15926.1
15994.6
16043
16084.2
16123.3
16152.4
16155.1
16116.2
16032.1
15912.3
15777.4
12459.2
12343
12359.7
12489.6
12678
12848.1
12937.3
12936.6
12898.9
12901.4
12993.9
13169.1
13364.2
13489.8
13471.4
13290.9
13000.8
12695
12459.2
12343
12359.7
12489.6
12678
12848.1
12937.3
12936.6
12898.9
12901.4
12993.9
13169.1
13364.2
13489.8
13471.4
13290.9
13000.8
12695
7120.4
7280.93
7451.19
7604.4
7724.56
7806.06
7852.72
7874.37
7879.65
7867.88
7827.67
7743.53
7605.61
7421.01
7220.69
7056.97
6979.27
7006.83
7120.4
7280.93
7451.19
7604.4
7724.56
7806.06
7852.72
7874.37
7879.65
7867.88
7827.67
7743.53
7605.61
7421.01
7220.69
7056.97
6979.27
7006.83
12316.6
12319.6
12331.1
12364.3
12427.3
12513.7
12600.3
12656.9
12662
12611.9
12521.4
12418.3
12331.6
12280.2
12266.6
12278.1
12297.1
12311
12316.6
12319.6
12331.1
12364.3
12427.3
12513.7
12600.3
12656.9
12662
12611.9
12521.4
12418.3
12331.6
12280.2
12266.6
12278.1
12297.1
12311
)
;

boundaryField
{
    fixed
    {
        type            calculated;
        value           nonuniform List<scalar> 
108
(
18867.2
19058.2
18742.8
18210.3
17737.7
17421.7
17259.8
17219.6
17257
17317.4
17343.7
17295.5
17175.1
17044.7
17013.2
17190
17629.7
18268.6
18867.2
19058.2
18742.8
18210.3
17737.7
17421.7
17259.8
17219.6
17257
17317.4
17343.7
17295.5
17175.1
17044.7
17013.2
17190
17629.7
18268.6
17985.7
18159.3
18250.9
18234.1
18159.7
18089.1
18051.5
18043.8
18041.8
18011.6
17924.4
17773.1
17584.2
17415.2
17334.2
17385.5
17553.8
17773.2
17985.7
18159.3
18250.9
18234.1
18159.7
18089.1
18051.5
18043.8
18041.8
18011.6
17924.4
17773.1
17584.2
17415.2
17334.2
17385.5
17553.8
17773.2
18509.2
18191.3
18039
18138.5
18416.5
18750.2
19027.8
19169.4
19134.6
18929.5
18605.6
18250.6
17970.7
17864.4
17986.3
18299.4
18629.3
18726
18509.2
18191.3
18039
18138.5
18416.5
18750.2
19027.8
19169.4
19134.6
18929.5
18605.6
18250.6
17970.7
17864.4
17986.3
18299.4
18629.3
18726
)
;
    }
    inside
    {
        type            calculated;
        value           nonuniform List<scalar> 
540
(
19224.5
18794.9
18359.6
18175.9
18292.3
18624.6
19036.8
19388.4
19569.5
19530.8
19295.3
18943.6
18589.5
18356.5
18351.3
18612.8
19031.2
19322.6
19224.5
18794.9
18359.6
18175.9
18292.3
18624.6
19036.8
19388.4
19569.5
19530.8
19295.3
18943.6
18589.5
18356.5
18351.3
18612.8
19031.2
19322.6
20346.5
19688.2
19086.8
18946.9
19349.8
20182.1
21164.6
21929.9
22201.7
21926.7
21246.4
20382.7
19565.3
19009.8
18881
19224.5
19893.7
20436.6
20346.5
19688.2
19086.8
18946.9
19349.8
20182.1
21164.6
21929.9
22201.7
21926.7
21246.4
20382.7
19565.3
19009.8
18881
19224.5
19893.7
20436.6
20959.1
20613.5
19656
19256.7
19801.6
21247.5
23176.9
24849.6
25636.5
25389.5
24377.7
23009.9
21665.9
20646.4
20104.5
19986.7
20113.3
20261.8
20959.1
20613.5
19656
19256.7
19801.6
21247.5
23176.9
24849.6
25636.5
25389.5
24377.7
23009.9
21665.9
20646.4
20104.5
19986.7
20113.3
20261.8
20338
20529.5
19456
18874.2
19442.6
21326.5
24150.9
26928.9
28670.9
28989.3
28104.6
26485.6
24577.8
22724.3
21147.2
19959.9
19253.1
19296.1
20338
20529.5
19456
18874.2
19442.6
21326.5
24150.9
26928.9
28670.9
28989.3
28104.6
26485.6
24577.8
22724.3
21147.2
19959.9
19253.1
19296.1
19732.3
19550.5
18882.2
18595.3
19300.9
21357.9
24593.1
28087.5
30713
31855.4
31532.6
30058.8
27776.5
25091
22562.3
20698.8
19687
19476.3
19732.3
19550.5
18882.2
18595.3
19300.9
21357.9
24593.1
28087.5
30713
31855.4
31532.6
30058.8
27776.5
25091
22562.3
20698.8
19687
19476.3
19396.5
18971.9
18578.1
18651.8
19602.5
21739.8
25048.2
28828.8
31996.3
33830.3
34170.7
33115.5
30832.2
27720
24532.5
22035
20507.9
19765.1
19396.5
18971.9
18578.1
18651.8
19602.5
21739.8
25048.2
28828.8
31996.3
33830.3
34170.7
33115.5
30832.2
27720
24532.5
22035
20507.9
19765.1
19284
18819.3
18629.6
18958.8
20082.2
22231.7
25428.2
29147
32470
34697.7
35550.8
34952.7
32925.6
29770.2
26225.5
23209.8
21177.5
19985.5
19284
18819.3
18629.6
18958.8
20082.2
22231.7
25428.2
29147
32470
34697.7
35550.8
34952.7
32925.6
29770.2
26225.5
23209.8
21177.5
19985.5
19408.5
19042.5
19024.4
19484.5
20623.2
22626.1
25508.9
28890.2
32073.7
34430.6
35584.1
35325.1
33580.1
30564.2
26971.7
23772
21522.6
20162.7
19408.5
19042.5
19024.4
19484.5
20623.2
22626.1
25508.9
28890.2
32073.7
34430.6
35584.1
35325.1
33580.1
30564.2
26971.7
23772
21522.6
20162.7
19758.6
19559.1
19717.1
20261.9
21318.6
23028.5
25422.8
28279.7
31122.4
33398.4
34648
34562.5
33027.8
30251.5
26902.5
23879.5
21716.3
20413.7
19758.6
19559.1
19717.1
20261.9
21318.6
23028.5
25422.8
28279.7
31122.4
33398.4
34648
34562.5
33027.8
30251.5
26902.5
23879.5
21716.3
20413.7
20324.2
20297.8
20645.8
21304.9
22292.5
23684.8
25538.7
27781.9
30133.1
32131.6
33280.8
33221.3
31854
29422.9
26532.8
23909.3
21994.5
20842
20324.2
20297.8
20645.8
21304.9
22292.5
23684.8
25538.7
27781.9
30133.1
32131.6
33280.8
33221.3
31854
29422.9
26532.8
23909.3
21994.5
20842
21151.4
21264.5
21784.9
22591.4
23585.8
24750.1
26138.6
27779.7
29545.3
31092.3
31965.1
31822.2
30612.9
28601.5
26272.2
24137.1
22529.1
21546.6
21151.4
21264.5
21784.9
22591.4
23585.8
24750.1
26138.6
27779.7
29545.3
31092.3
31965.1
31822.2
30612.9
28601.5
26272.2
24137.1
22529.1
21546.6
22365.2
22558.3
23177.3
24092.8
25138.7
26198.2
27265.2
28389.3
29543.7
30528.9
31019.2
30756.7
29727.3
28158.9
26392.6
24753.1
23470.9
22663.8
22365.2
22558.3
23177.3
24092.8
25138.7
26198.2
27265.2
28389.3
29543.7
30528.9
31019.2
30756.7
29727.3
28158.9
26392.6
24753.1
23470.9
22663.8
24193.9
24381.8
24963.6
25839.3
26848.2
27824.7
28674.3
29390.5
29991.1
30429.4
30571
30278.9
29529.6
28442.2
27211
26032
25066.4
24430.2
24193.9
24381.8
24963.6
25839.3
26848.2
27824.7
28674.3
29390.5
29991.1
30429.4
30571
30278.9
29529.6
28442.2
27211
26032
25066.4
24430.2
27244.7
27299.2
27651.6
28244.7
28961.7
29650.4
30176.9
30484.9
30611.2
30633.5
30595.4
30476.9
30225.2
29805.9
29235.7
28585.9
27963.8
27484.9
27244.7
27299.2
27651.6
28244.7
28961.7
29650.4
30176.9
30484.9
30611.2
30633.5
30595.4
30476.9
30225.2
29805.9
29235.7
28585.9
27963.8
27484.9
30900.9
30607.6
30453.7
30455.3
30580
30755.9
30905.8
30992.5
31036
31092
31215.6
31427.6
31689.6
31916
32010.5
31917.8
31648.5
31276.8
30900.9
30607.6
30453.7
30455.3
30580
30755.9
30905.8
30992.5
31036
31092
31215.6
31427.6
31689.6
31916
32010.5
31917.8
31648.5
31276.8
)
;
    }
    outside
    {
        type            calculated;
        value           nonuniform List<scalar> 
540
(
19534.1
19620.7
19090
18411.2
17877.9
17543.2
17372.2
17315.7
17323.7
17345.3
17335
17267.6
17157.6
17070
17110.2
17390.5
17982.4
18815.4
19534.1
19620.7
19090
18411.2
17877.9
17543.2
17372.2
17315.7
17323.7
17345.3
17335
17267.6
17157.6
17070
17110.2
17390.5
17982.4
18815.4
19059.7
18726.4
18103
17650.6
17430.8
17389.3
17458.2
17577.4
17695.8
17767.1
17749.3
17613.4
17367.8
17087.9
16923.2
17041.7
17556.1
18438.1
19059.7
18726.4
18103
17650.6
17430.8
17389.3
17458.2
17577.4
17695.8
17767.1
17749.3
17613.4
17367.8
17087.9
16923.2
17041.7
17556.1
18438.1
18932.1
18437.9
17973.7
17757.5
17757.4
17887.5
18062.9
18210.4
18275.8
18220.5
18016.1
17648.9
17152
16661.8
16424.8
16645.7
17364.3
18600.5
18932.1
18437.9
17973.7
17757.5
17757.4
17887.5
18062.9
18210.4
18275.8
18220.5
18016.1
17648.9
17152
16661.8
16424.8
16645.7
17364.3
18600.5
19505.6
19148.2
18720.9
18579.4
18623.8
18746.5
18852.5
18853.8
18690.6
18339.6
17799
17086.5
16279.5
15601.8
15426.6
15956.8
17064.4
18607
19505.6
19148.2
18720.9
18579.4
18623.8
18746.5
18852.5
18853.8
18690.6
18339.6
17799
17086.5
16279.5
15601.8
15426.6
15956.8
17064.4
18607
18912.6
19343.7
19569.2
19781.9
19953.8
20007.5
19882.6
19534.3
18954.5
18175.6
17243.5
16216.4
15223.1
14585.2
14733.6
15639.8
16848.1
18036.4
18912.6
19343.7
19569.2
19781.9
19953.8
20007.5
19882.6
19534.3
18954.5
18175.6
17243.5
16216.4
15223.1
14585.2
14733.6
15639.8
16848.1
18036.4
18586.3
19363.8
20103.5
20835.5
21391
21534.5
21168.9
20368.8
19286.9
18067.2
16810.1
15600.7
14610.3
14211.2
14673.6
15659.1
16710.9
17695.5
18586.3
19363.8
20103.5
20835.5
21391
21534.5
21168.9
20368.8
19286.9
18067.2
16810.1
15600.7
14610.3
14211.2
14673.6
15659.1
16710.9
17695.5
18479.5
19336.2
20252.6
21255.9
22144.2
22528.2
22146.5
21092.7
19674
18165
16726.1
15468.2
14587.8
14401.5
14956.2
15841
16739.4
17614
18479.5
19336.2
20252.6
21255.9
22144.2
22528.2
22146.5
21092.7
19674
18165
16726.1
15468.2
14587.8
14401.5
14956.2
15841
16739.4
17614
18464.5
19230.8
20062.6
21021.1
21958.2
22494.6
22274.2
21291.3
19858.5
18315.5
16878
15691.3
14948.2
14854
15343.5
16091
16882
17679.1
18464.5
19230.8
20062.6
21021.1
21958.2
22494.6
22274.2
21291.3
19858.5
18315.5
16878
15691.3
14948.2
14854
15343.5
16091
16882
17679.1
18401.7
19019.6
19669.1
20423.7
21192.6
21695.4
21618.4
20877.2
19680.5
18333.4
17069
16051.9
15443.6
15358.4
15723.2
16328.2
17020
17730.1
18401.7
19019.6
19669.1
20423.7
21192.6
21695.4
21618.4
20877.2
19680.5
18333.4
17069
16051.9
15443.6
15358.4
15723.2
16328.2
17020
17730.1
18186
18673.5
19156.9
19693
20228.8
20587.1
20558.4
20054
19180.6
18153.9
17173.4
16386.8
15909.4
15804.1
16032.1
16481.2
17043.3
17635.4
18186
18673.5
19156.9
19693
20228.8
20587.1
20558.4
20054
19180.6
18153.9
17173.4
16386.8
15909.4
15804.1
16032.1
16481.2
17043.3
17635.4
17749.6
18138.5
18507.8
18880.8
19223.3
19435.1
19400.7
19065.7
18483
17785.4
17113.8
16571.2
16223.6
16104.4
16206.6
16485.8
16879.7
17321
17749.6
18138.5
18507.8
18880.8
19223.3
19435.1
19400.7
19065.7
18483
17785.4
17113.8
16571.2
16223.6
16104.4
16206.6
16485.8
16879.7
17321
17050.4
17350.2
17646.8
17931.1
18170.7
18307.1
18279.8
18062.4
17689.8
17248.9
16833.8
16502.6
16277
16164.1
16167.7
16282.7
16489.1
16755.9
17050.4
17350.2
17646.8
17931.1
18170.7
18307.1
18279.8
18062.4
17689.8
17248.9
16833.8
16502.6
16277
16164.1
16167.7
16282.7
16489.1
16755.9
16098.7
16292.9
16530.8
16787.7
17022.4
17181.3
17213.1
17094.3
16854.6
16571.7
16324
16143.8
16019.1
15929.1
15869
15847.7
15875.8
15958.9
16098.7
16292.9
16530.8
16787.7
17022.4
17181.3
17213.1
17094.3
16854.6
16571.7
16324
16143.8
16019.1
15929.1
15869
15847.7
15875.8
15958.9
15133.8
15183.9
15329.2
15555.2
15817.1
16046.5
16169.2
16142
15990.6
15802.6
15663
15597.1
15572.5
15540.8
15472.9
15370.7
15258
15167.8
15133.8
15183.9
15329.2
15555.2
15817.1
16046.5
16169.2
16142
15990.6
15802.6
15663
15597.1
15572.5
15540.8
15472.9
15370.7
15258
15167.8
14770.3
14566.3
14516.8
14610.6
14793.9
14982.5
15101.2
15130.5
15121.1
15156.2
15293.2
15527.4
15790.4
15979
16000.2
15819.4
15484.5
15099.7
14770.3
14566.3
14516.8
14610.6
14793.9
14982.5
15101.2
15130.5
15121.1
15156.2
15293.2
15527.4
15790.4
15979
16000.2
15819.4
15484.5
15099.7
)
;
    }
}


// ************************************************************************* //
