/*--------------------------------*- C++ -*----------------------------------*\
| =========                 |                                                 |
| \\      /  F ield         | OpenFOAM: The Open Source CFD Toolbox           |
|  \\    /   O peration     | Version:  2312                                  |
|   \\  /    A nd           | Website:  www.openfoam.com                      |
|    \\/     M anipulation  |                                                 |
\*---------------------------------------------------------------------------*/
FoamFile
{
    version     2.0;
    format      ascii;
    arch        "LSB;label=32;scalar=64";
    class       volScalarField;
    location    "0.3";
    object      sigmaHyd;
}
// * * * * * * * * * * * * * * * * * * * * * * * * * * * * * * * * * * * * * //

dimensions      [1 -1 -2 0 0 0 0];

internalField   nonuniform List<scalar> 
1620
(
-17623.4
-22490.7
-22143.9
-18075.2
-12541.8
-7125.42
-2512.9
1216.85
4229.99
6700.09
8696.5
10139.9
10786.7
10241
8026.7
3791.06
-2378.21
-9997.72
-17623.4
-22490.7
-22143.9
-18075.2
-12541.8
-7125.42
-2512.9
1216.85
4229.99
6700.09
8696.5
10139.9
10786.7
10241
8026.7
3791.06
-2378.21
-9997.72
-12210.7
-13893.3
-13544.7
-11302.3
-8133.69
-4833.03
-1872.7
531.726
2304.73
3426.36
3890.15
3685.87
2792.07
1172.66
-1199.69
-4204.99
-7337.69
-10051.1
-12210.7
-13893.3
-13544.7
-11302.3
-8133.69
-4833.03
-1872.7
531.726
2304.73
3426.36
3890.15
3685.87
2792.07
1172.66
-1199.69
-4204.99
-7337.69
-10051.1
-6044.27
-5271.06
-4432.1
-2946.72
-896.924
1318.45
3237.77
4484.33
4802.42
4063.87
2284.68
-348.121
-3452.93
-6465.69
-8728.83
-9647.05
-8971.89
-7334.44
-6044.27
-5271.06
-4432.1
-2946.72
-896.924
1318.45
3237.77
4484.33
4802.42
4063.87
2284.68
-348.121
-3452.93
-6465.69
-8728.83
-9647.05
-8971.89
-7334.44
-4787.49
-5383.63
-4873.23
-4028.08
-2977.55
-2002.48
-1165.43
-365.281
528.98
1593.04
2808.16
4045.38
5071.18
5588.61
5295.01
3859.38
1013.05
-2262.09
-4787.49
-5383.63
-4873.23
-4028.08
-2977.55
-2002.48
-1165.43
-365.281
528.98
1593.04
2808.16
4045.38
5071.18
5588.61
5295.01
3859.38
1013.05
-2262.09
-6472.85
-5835.59
-4311.86
-3818.35
-3669.76
-3526.53
-3289.99
-3000.31
-2743.69
-2604.17
-2645.79
-2901.91
-3351.82
-3894.06
-4408.81
-5078.04
-6739.83
-8310.43
-6472.85
-5835.59
-4311.86
-3818.35
-3669.76
-3526.53
-3289.99
-3000.31
-2743.69
-2604.17
-2645.79
-2901.91
-3351.82
-3894.06
-4408.81
-5078.04
-6739.83
-8310.43
-7909.93
-7478.76
-5782.98
-4235.98
-2756.49
-1392.63
-303.08
271.236
101.232
-957.779
-2912.11
-5578.13
-8522.67
-11032
-12274.7
-11899.1
-10826.9
-9399.41
-7909.93
-7478.76
-5782.98
-4235.98
-2756.49
-1392.63
-303.08
271.236
101.232
-957.779
-2912.11
-5578.13
-8522.67
-11032
-12274.7
-11899.1
-10826.9
-9399.41
-3304.58
-2219.67
479.083
3007.23
4764.73
5749.65
6196.75
6426.64
6704.33
7169.31
7821.64
8527.43
9039.38
9053.48
8282.38
6396.94
2555.01
-2610.96
-3304.58
-2219.67
479.083
3007.23
4764.73
5749.65
6196.75
6426.64
6704.33
7169.31
7821.64
8527.43
9039.38
9053.48
8282.38
6396.94
2555.01
-2610.96
-12361.4
-7969.95
-5006.48
-3890.19
-3393.9
-2910.79
-2344.51
-1812.32
-1434.68
-1279.67
-1383.21
-1775.07
-2472.82
-3430.21
-4514.29
-5730.85
-8067
-12631.9
-12361.4
-7969.95
-5006.48
-3890.19
-3393.9
-2910.79
-2344.51
-1812.32
-1434.68
-1279.67
-1383.21
-1775.07
-2472.82
-3430.21
-4514.29
-5730.85
-8067
-12631.9
-16562.2
-13936.3
-12605
-11934.2
-10789.3
-9153.34
-7374.32
-5937.55
-5279.53
-5679.12
-7208.59
-9712.33
-12769.7
-15632
-17298.9
-17114.1
-15983.3
-16271.8
-16562.2
-13936.3
-12605
-11934.2
-10789.3
-9153.34
-7374.32
-5937.55
-5279.53
-5679.12
-7208.59
-9712.33
-12769.7
-15632
-17298.9
-17114.1
-15983.3
-16271.8
-6021.28
-3427.22
314.6
3579.35
5867.74
7067.31
7449.84
7441.38
7392.28
7492.75
7772.92
8120.3
8296.87
7978.23
6846.08
4629.16
710.183
-4519.6
-6021.28
-3427.22
314.6
3579.35
5867.74
7067.31
7449.84
7441.38
7392.28
7492.75
7772.92
8120.3
8296.87
7978.23
6846.08
4629.16
710.183
-4519.6
-11430
-6562.7
-4788.54
-4341.02
-3851.34
-3006.76
-2023.18
-1171.98
-602.38
-344.865
-397.595
-802.252
-1657.29
-3024.86
-4772.42
-6708.39
-9110.18
-11432.1
-11430
-6562.7
-4788.54
-4341.02
-3851.34
-3006.76
-2023.18
-1171.98
-602.38
-344.865
-397.595
-802.252
-1657.29
-3024.86
-4772.42
-6708.39
-9110.18
-11432.1
-8469.71
-8419.62
-10402.7
-11954.9
-12131.6
-11014.5
-9143.27
-7232.78
-5947.73
-5718.78
-6689.38
-8726.23
-11389.5
-13820.5
-14812.5
-13600.3
-10762.5
-8609.14
-8469.71
-8419.62
-10402.7
-11954.9
-12131.6
-11014.5
-9143.27
-7232.78
-5947.73
-5718.78
-6689.38
-8726.23
-11389.5
-13820.5
-14812.5
-13600.3
-10762.5
-8609.14
-7370.63
-6521.27
-3818.33
-417.059
2407.64
4148.14
4926.83
5126.68
5114.98
5126.29
5233.91
5345.37
5197.78
4393.28
2566.36
-399.91
-4060.49
-6760.16
-7370.63
-6521.27
-3818.33
-417.059
2407.64
4148.14
4926.83
5126.68
5114.98
5126.29
5233.91
5345.37
5197.78
4393.28
2566.36
-399.91
-4060.49
-6760.16
-6800.25
-6118.07
-5644.75
-5103.74
-4223.93
-2985.69
-1691.55
-654.605
-7.83195
266.868
202.305
-261.957
-1285.17
-2963.85
-5074.41
-7069.32
-8188.28
-7769.54
-6800.25
-6118.07
-5644.75
-5103.74
-4223.93
-2985.69
-1691.55
-654.605
-7.83195
266.868
202.305
-261.957
-1285.17
-2963.85
-5074.41
-7069.32
-8188.28
-7769.54
3841.32
1140.43
-2982.72
-6390.24
-8043.15
-7839.26
-6303.42
-4304.81
-2690.45
-2006.23
-2450.04
-3908.44
-5900.92
-7427.97
-7170.17
-4499.85
-278.107
3310.91
3841.32
1140.43
-2982.72
-6390.24
-8043.15
-7839.26
-6303.42
-4304.81
-2690.45
-2006.23
-2450.04
-3908.44
-5900.92
-7427.97
-7170.17
-4499.85
-278.107
3310.91
-10322.4
-9628.33
-7711
-4971.18
-2201.64
-35.8241
1329.13
2023.07
2306.13
2409.08
2429.44
2275.22
1656.66
221.846
-2113.21
-4993.15
-7770.88
-9704.85
-10322.4
-9628.33
-7711
-4971.18
-2201.64
-35.8241
1329.13
2023.07
2306.13
2409.08
2429.44
2275.22
1656.66
221.846
-2113.21
-4993.15
-7770.88
-9704.85
-6587.92
-5807.34
-5275.46
-4686.21
-3708.37
-2395.58
-1085.64
-98.8054
450.666
612.192
438.038
-126.586
-1215.44
-2844.05
-4709.56
-6304.21
-7184.97
-7204.82
-6587.92
-5807.34
-5275.46
-4686.21
-3708.37
-2395.58
-1085.64
-98.8054
450.666
612.192
438.038
-126.586
-1215.44
-2844.05
-4709.56
-6304.21
-7184.97
-7204.82
11155
8595.62
4286
157.715
-2370.68
-2886.66
-1788.93
32.0156
1663.38
2520.8
2396.79
1423.95
149.082
-390.468
886.138
4105.17
8065.78
10893.7
11155
8595.62
4286
157.715
-2370.68
-2886.66
-1788.93
32.0156
1663.38
2520.8
2396.79
1423.95
149.082
-390.468
886.138
4105.17
8065.78
10893.7
-13272
-12879.4
-11557.3
-9417.81
-6874.64
-4453.45
-2537.44
-1270.86
-581.947
-310.032
-366.715
-839.447
-1970.44
-3920.3
-6469.42
-9105.57
-11321.6
-12755.8
-13272
-12879.4
-11557.3
-9417.81
-6874.64
-4453.45
-2537.44
-1270.86
-581.947
-310.032
-366.715
-839.447
-1970.44
-3920.3
-6469.42
-9105.57
-11321.6
-12755.8
-6109.49
-5360.59
-4596.08
-3820.3
-2843.33
-1660.81
-522.943
289.803
676.202
698.745
425.139
-169.843
-1161.07
-2513.07
-3995.24
-5318.81
-6224.65
-6495.35
-6109.49
-5360.59
-4596.08
-3820.3
-2843.33
-1660.81
-522.943
289.803
676.202
698.745
425.139
-169.843
-1161.07
-2513.07
-3995.24
-5318.81
-6224.65
-6495.35
17277.4
14784.3
10520
6130.95
3070.23
1935.84
2472.07
3881.75
5296.96
6147.41
6233.61
5713.36
5160.33
5504.5
7487.76
10922.4
14640.2
17137.8
17277.4
14784.3
10520
6130.95
3070.23
1935.84
2472.07
3881.75
5296.96
6147.41
6233.61
5713.36
5160.33
5504.5
7487.76
10922.4
14640.2
17137.8
-16137.4
-16025.3
-15231.3
-13663
-11472.6
-9037.38
-6789.07
-5056.51
-3966.38
-3485.2
-3571.05
-4288.22
-5758.26
-7926.13
-10419.2
-12750.2
-14551.6
-15665.5
-16137.4
-16025.3
-15231.3
-13663
-11472.6
-9037.38
-6789.07
-5056.51
-3966.38
-3485.2
-3571.05
-4288.22
-5758.26
-7926.13
-10419.2
-12750.2
-14551.6
-15665.5
-5828.6
-5026.21
-4031.63
-3063.44
-2094.53
-1088.64
-170.6
464.432
729.966
677.704
377.179
-171.277
-1003.16
-2086.74
-3308.13
-4537.17
-5562.15
-6060.02
-5828.6
-5026.21
-4031.63
-3063.44
-2094.53
-1088.64
-170.6
464.432
729.966
677.704
377.179
-171.277
-1003.16
-2086.74
-3308.13
-4537.17
-5562.15
-6060.02
22561.9
20273.7
16197.5
11738
8279.17
6523.4
6380.72
7232.29
8327.97
9124.23
9413.33
9351.51
9474.64
10532.3
12983.3
16505
20059.4
22397.5
22561.9
20273.7
16197.5
11738
8279.17
6523.4
6380.72
7232.29
8327.97
9124.23
9413.33
9351.51
9474.64
10532.3
12983.3
16505
20059.4
22397.5
-18438.1
-18575.7
-18284.9
-17344.7
-15707.8
-13584.8
-11354.1
-9416.41
-8048.91
-7364.09
-7392.86
-8167.31
-9672.79
-11705.5
-13868.7
-15765
-17152.4
-17997.4
-18438.1
-18575.7
-18284.9
-17344.7
-15707.8
-13584.8
-11354.1
-9416.41
-8048.91
-7364.09
-7392.86
-8167.31
-9672.79
-11705.5
-13868.7
-15765
-17152.4
-17997.4
-6081.97
-5248.27
-4068.51
-2892.13
-1837.97
-898.514
-114.796
412.283
626.419
561.792
275.702
-221.46
-950.693
-1905.53
-3052.43
-4324.17
-5500.7
-6188.86
-6081.97
-5248.27
-4068.51
-2892.13
-1837.97
-898.514
-114.796
412.283
626.419
561.792
275.702
-221.46
-950.693
-1905.53
-3052.43
-4324.17
-5500.7
-6188.86
27159.1
25216.7
21542.2
17252.7
13573.9
11264.7
10423.3
10656.7
11378.9
12093.6
12570.9
12924.7
13595
15138.5
17823.4
21300.2
24672.3
26891.3
27159.1
25216.7
21542.2
17252.7
13573.9
11264.7
10423.3
10656.7
11378.9
12093.6
12570.9
12924.7
13595
15138.5
17823.4
21300.2
24672.3
26891.3
-19776.6
-20107
-20275.3
-20006.7
-19110.4
-17623.8
-15801
-14011.3
-12597.6
-11783.9
-11673.9
-12278.7
-13492
-15056.3
-16629.7
-17932.1
-18838.1
-19395.1
-19776.6
-20107
-20275.3
-20006.7
-19110.4
-17623.8
-15801
-14011.3
-12597.6
-11783.9
-11673.9
-12278.7
-13492
-15056.3
-16629.7
-17932.1
-18838.1
-19395.1
-7116.51
-6323.62
-5041.25
-3660
-2404.25
-1343.84
-516.465
24.3338
252.393
199.503
-84.8187
-588.588
-1331.11
-2320.78
-3543.44
-4927.86
-6243.83
-7088.37
-7116.51
-6323.62
-5041.25
-3660
-2404.25
-1343.84
-516.465
24.3338
252.393
199.503
-84.8187
-588.588
-1331.11
-2320.78
-3543.44
-4927.86
-6243.83
-7088.37
30825.7
29335.7
26303.6
22529.5
18976.8
16361.4
14936.5
14546.9
14817.6
15357.3
15935.8
16594.6
17631
19415.2
22089.9
25335.6
28407.8
30448.6
30825.7
29335.7
26303.6
22529.5
18976.8
16361.4
14936.5
14546.9
14817.6
15357.3
15935.8
16594.6
17631
19415.2
22089.9
25335.6
28407.8
30448.6
-19963.9
-20410.7
-20944.4
-21295.2
-21195.9
-20541.7
-19435.2
-18138.1
-16962.7
-16166.8
-15895.2
-16157.6
-16828.1
-17681.2
-18481.2
-19076.9
-19445.6
-19683.9
-19963.9
-20410.7
-20944.4
-21295.2
-21195.9
-20541.7
-19435.2
-18138.1
-16962.7
-16166.8
-15895.2
-16157.6
-16828.1
-17681.2
-18481.2
-19076.9
-19445.6
-19683.9
-9004.02
-8336.03
-7077.9
-5571.56
-4077.46
-2746.33
-1679.72
-961.225
-627.531
-650.697
-975.967
-1578.09
-2463.23
-3623.66
-5010.81
-6514.45
-7908.86
-8843.59
-9004.02
-8336.03
-7077.9
-5571.56
-4077.46
-2746.33
-1679.72
-961.225
-627.531
-650.697
-975.967
-1578.09
-2463.23
-3623.66
-5010.81
-6514.45
-7908.86
-8843.59
33209.7
32227.9
30024.8
27119.2
24154.9
21672.1
19960.1
19050.6
18801.7
19007.3
19508.2
20284.7
21467.3
23233
25627.3
28398.1
30988.7
32749.7
33209.7
32227.9
30024.8
27119.2
24154.9
21672.1
19960.1
19050.6
18801.7
19007.3
19508.2
20284.7
21467.3
23233
25627.3
28398.1
30988.7
32749.7
-19035.8
-19499.6
-20237.8
-21023.3
-21580.4
-21728.6
-21446.2
-20857.5
-20168.9
-19583.9
-19230
-19122
-19172.2
-19248
-19244.6
-19136.4
-18981.2
-18898.1
-19035.8
-19499.6
-20237.8
-21023.3
-21580.4
-21728.6
-21446.2
-20857.5
-20168.9
-19583.9
-19230
-19122
-19172.2
-19248
-19244.6
-19136.4
-18981.2
-18898.1
-11643.1
-11151.2
-10054.9
-8588.49
-6973.96
-5395.52
-4020.93
-3003.55
-2446.12
-2371.01
-2739.17
-3499.91
-4608.04
-5994.8
-7547.35
-9109.78
-10478
-11397.3
-11643.1
-11151.2
-10054.9
-8588.49
-6973.96
-5395.52
-4020.93
-3003.55
-2446.12
-2371.01
-2739.17
-3499.91
-4608.04
-5994.8
-7547.35
-9109.78
-10478
-11397.3
34304.6
33850.2
32560.9
30735.5
28730.6
26850.2
25292.1
24151.9
23462.5
23225.9
23430.1
24062.7
25116.1
26587.5
28433.5
30488
32412.5
33791.5
34304.6
33850.2
32560.9
30735.5
28730.6
26850.2
25292.1
24151.9
23462.5
23225.9
23430.1
24062.7
25116.1
26587.5
28433.5
30488
32412.5
33791.5
-17284.8
-17665.5
-18389.9
-19295.3
-20164.6
-20824.6
-21194.3
-21280.7
-21161.5
-20938.8
-20669
-20346.3
-19938.1
-19416.2
-18796
-18156.2
-17613.9
-17288.2
-17284.8
-17665.5
-18389.9
-19295.3
-20164.6
-20824.6
-21194.3
-21280.7
-21161.5
-20938.8
-20669
-20346.3
-19938.1
-19416.2
-18796
-18156.2
-17613.9
-17288.2
-14909.2
-14657.8
-13897.3
-12742.4
-11329.2
-9812.14
-8354.26
-7131.16
-6305.79
-6000.74
-6257.02
-7028.56
-8204.66
-9632.66
-11146.2
-12582.4
-13785.8
-14602.8
-14909.2
-14657.8
-13897.3
-12742.4
-11329.2
-9812.14
-8354.26
-7131.16
-6305.79
-6000.74
-6257.02
-7028.56
-8204.66
-9632.66
-11146.2
-12582.4
-13785.8
-14602.8
34809.4
34707.5
34208.9
33442.2
32543.1
31610.4
30708.4
29885.9
29207.5
28765.9
28660.7
28942.5
29578.1
30477.9
31540.5
32659.6
33689.3
34453.8
34809.4
34707.5
34208.9
33442.2
32543.1
31610.4
30708.4
29885.9
29207.5
28765.9
28660.7
28942.5
29578.1
30477.9
31540.5
32659.6
33689.3
34453.8
-14209.3
-14273
-14668.6
-15294.7
-16053
-16873.8
-17680.9
-18373.6
-18882
-19206.9
-19348.1
-19256.9
-18891.9
-18227.2
-17290.9
-16224
-15242.8
-14536.9
-14209.3
-14273
-14668.6
-15294.7
-16053
-16873.8
-17680.9
-18373.6
-18882
-19206.9
-19348.1
-19256.9
-18891.9
-18227.2
-17290.9
-16224
-15242.8
-14536.9
-18568.8
-18452.8
-18108.4
-17569.2
-16904.6
-16197.1
-15496.8
-14835.5
-14284.6
-13990.9
-14086.6
-14586.6
-15381.1
-16267.4
-17068.6
-17703.2
-18167.6
-18463.7
-18568.8
-18452.8
-18108.4
-17569.2
-16904.6
-16197.1
-15496.8
-14835.5
-14284.6
-13990.9
-14086.6
-14586.6
-15381.1
-16267.4
-17068.6
-17703.2
-18167.6
-18463.7
37149.2
37225.6
37107.7
36825
36402.4
35872.1
35296.3
34750.3
34290.4
33942.7
33735.9
33715.9
33922.8
34363.5
34989.9
35696
36353
36855.9
37149.2
37225.6
37107.7
36825
36402.4
35872.1
35296.3
34750.3
34290.4
33942.7
33735.9
33715.9
33922.8
34363.5
34989.9
35696
36353
36855.9
-14811.3
-15288.8
-15887.2
-16590.2
-17282.9
-17758.3
-17827.5
-17450.1
-16741.5
-15875.7
-14977.8
-14124.7
-13475.7
-13189.6
-13282.5
-13616
-14020.4
-14410.5
-14811.3
-15288.8
-15887.2
-16590.2
-17282.9
-17758.3
-17827.5
-17450.1
-16741.5
-15875.7
-14977.8
-14124.7
-13475.7
-13189.6
-13282.5
-13616
-14020.4
-14410.5
-21523.1
-21963.1
-22350
-22660.5
-22805.7
-22650.5
-22094.9
-21181.9
-20097.2
-19073
-18277.3
-17817.6
-17775.6
-18176
-18876.9
-19677.5
-20409.9
-21017.8
-21523.1
-21963.1
-22350
-22660.5
-22805.7
-22650.5
-22094.9
-21181.9
-20097.2
-19073
-18277.3
-17817.6
-17775.6
-18176
-18876.9
-19677.5
-20409.9
-21017.8
34428.3
34219.2
34032.2
33907.4
33942.9
34240.8
34837.8
35641
36470.6
37130.1
37503.7
37550.5
37249.9
36701.4
36042.7
35444.5
34987.4
34667.7
34428.3
34219.2
34032.2
33907.4
33942.9
34240.8
34837.8
35641
36470.6
37130.1
37503.7
37550.5
37249.9
36701.4
36042.7
35444.5
34987.4
34667.7
)
;

boundaryField
{
    fixed
    {
        type            zeroGradient;
    }
    inside
    {
        type            zeroGradient;
    }
    outside
    {
        type            zeroGradient;
    }
}


// ************************************************************************* //
