/*--------------------------------*- C++ -*----------------------------------*\
| =========                 |                                                 |
| \\      /  F ield         | OpenFOAM: The Open Source CFD Toolbox           |
|  \\    /   O peration     | Version:  2312                                  |
|   \\  /    A nd           | Website:  www.openfoam.com                      |
|    \\/     M anipulation  |                                                 |
\*---------------------------------------------------------------------------*/
FoamFile
{
    version     2.0;
    format      ascii;
    arch        "LSB;label=32;scalar=64";
    class       volSymmTensorField;
    location    "0.3";
    object      sigma;
}
// * * * * * * * * * * * * * * * * * * * * * * * * * * * * * * * * * * * * * //

dimensions      [1 -1 -2 0 0 0 0];

internalField   nonuniform List<symmTensor> 
1620
(
(-17515.2 -2669.22 2770.26 -8705.07 -8855.53 -8649.84)
(-20793.5 -4323.94 4696.24 -15223.9 -8121.06 -13454.7)
(-18600.7 -4894.62 5961.17 -16557.7 -7049.06 -13273.2)
(-13026.4 -4850.72 6683.21 -13762.4 -6009.01 -9436.78)
(-6430.46 -4605.57 7063.44 -9115.07 -5199.66 -4080.02)
(-296.003 -4356.16 7249.47 -4311.1 -4664.39 1230.84)
(4797.43 -4172.39 7328.28 -117.433 -4378.95 5781.29)
(8831.78 -4072.81 7343.92 3352.09 -4303.48 9466.68)
(11989.7 -4058.34 7308.61 6261.37 -4400.41 12438.9)
(14431.8 -4120.45 7209.12 8802.12 -4637.6 14866.4)
(16197.1 -4238.23 7014.84 11072.6 -4987.07 16819.8)
(17168.8 -4374.59 6689.56 13023.6 -5424.03 18227.2)
(17069.6 -4475.59 6201.88 14433.8 -5929.95 18856.9)
(15480 -4467.64 5524.09 14916.3 -6497.97 18326.6)
(11916.2 -4235.57 4612.67 13989.4 -7131.53 16174.5)
(6071.1 -3569.77 3381.16 11239.4 -7823.95 12062.7)
(-1717.34 -2152.51 1706.36 6491.95 -8505.43 6090.75)
(-10302.6 148.09 -444.792 -420.792 -8956.05 -1269.78)
(-17515.2 2669.22 -2770.26 -8705.07 -8855.53 -8649.84)
(-20793.5 4323.94 -4696.24 -15223.9 -8121.06 -13454.7)
(-18600.7 4894.62 -5961.17 -16557.7 -7049.06 -13273.2)
(-13026.4 4850.72 -6683.21 -13762.4 -6009.01 -9436.78)
(-6430.46 4605.57 -7063.44 -9115.07 -5199.66 -4080.02)
(-296.003 4356.16 -7249.47 -4311.1 -4664.39 1230.84)
(4797.43 4172.39 -7328.28 -117.433 -4378.95 5781.29)
(8831.78 4072.81 -7343.92 3352.09 -4303.48 9466.68)
(11989.7 4058.34 -7308.61 6261.37 -4400.41 12438.9)
(14431.8 4120.45 -7209.12 8802.12 -4637.6 14866.4)
(16197.1 4238.23 -7014.84 11072.6 -4987.07 16819.8)
(17168.8 4374.59 -6689.56 13023.6 -5424.03 18227.2)
(17069.6 4475.59 -6201.88 14433.8 -5929.95 18856.9)
(15480 4467.64 -5524.09 14916.3 -6497.97 18326.6)
(11916.2 4235.57 -4612.67 13989.4 -7131.53 16174.5)
(6071.1 3569.77 -3381.16 11239.4 -7823.95 12062.7)
(-1717.34 2152.51 -1706.36 6491.95 -8505.43 6090.75)
(-10302.6 -148.09 444.792 -420.792 -8956.05 -1269.78)
(-12133.3 -2720.91 537.946 5206.98 -1663 -11705.7)
(-11864 -6212.58 843.012 1592.75 -1695.45 -13408.6)
(-8824.17 -8158.85 1068.81 -654.11 -1582.32 -13155.8)
(-4086.57 -8907.24 1189.75 -791.759 -1352.73 -11028.6)
(1066.54 -9020.02 1220.71 474.216 -1102.5 -7941.83)
(5856.81 -8870.46 1189.88 2328.02 -907.395 -4683.91)
(9906.87 -8649.23 1123.95 4222.88 -798.375 -1747.85)
(13073 -8446.19 1045.39 5890.64 -776.485 631.579)
(15303.4 -8306.3 970.688 7238.38 -827.969 2372.43)
(16560.5 -8254.05 906.382 8257.56 -931.723 3461.03)
(16795.5 -8297.03 847.863 8970.63 -1063.51 3904.35)
(15948.3 -8418.96 783.441 9404.48 -1199.24 3704.79)
(13949.5 -8567.32 701.191 9580.1 -1318.1 2846.62)
(10715.3 -8630.75 593.044 9511.74 -1405.83 1290.99)
(6178.69 -8392.36 452.93 9220.06 -1456.74 -997.83)
(508.866 -7460.58 273.981 8785.94 -1477.34 -3909.78)
(-5404.97 -5291.01 50.4706 8342.84 -1497.59 -6950.94)
(-10030.2 -1625.99 -221.881 7466.13 -1563.23 -9589.25)
(-12133.3 2720.91 -537.946 5206.98 -1663 -11705.7)
(-11864 6212.58 -843.012 1592.75 -1695.45 -13408.6)
(-8824.17 8158.85 -1068.81 -654.11 -1582.32 -13155.8)
(-4086.57 8907.24 -1189.75 -791.759 -1352.73 -11028.6)
(1066.54 9020.02 -1220.71 474.216 -1102.5 -7941.83)
(5856.81 8870.46 -1189.88 2328.02 -907.395 -4683.91)
(9906.87 8649.23 -1123.95 4222.88 -798.375 -1747.85)
(13073 8446.19 -1045.39 5890.64 -776.485 631.579)
(15303.4 8306.3 -970.688 7238.38 -827.969 2372.43)
(16560.5 8254.05 -906.382 8257.56 -931.723 3461.03)
(16795.5 8297.03 -847.863 8970.63 -1063.51 3904.35)
(15948.3 8418.96 -783.441 9404.48 -1199.24 3704.79)
(13949.5 8567.32 -701.191 9580.1 -1318.1 2846.62)
(10715.3 8630.75 -593.044 9511.74 -1405.83 1290.99)
(6178.69 8392.36 -452.93 9220.06 -1456.74 -997.83)
(508.866 7460.58 -273.981 8785.94 -1477.34 -3909.78)
(-5404.97 5291.01 -50.4706 8342.84 -1497.59 -6950.94)
(-10030.2 1625.99 221.881 7466.13 -1563.23 -9589.25)
(-6335.58 -766.683 -142.173 5592.93 8811.71 609.836)
(-4732.89 -3056.41 -2001.66 5614.79 8351.61 1304.92)
(-2491.28 -4615.34 -3470.25 5209.29 7728.22 1985.71)
(454.452 -5503.2 -4579.1 5379.24 7182.28 3326.14)
(3791.46 -5948.49 -5440.78 6204.46 6771.73 5313.3)
(7075.59 -6128.65 -6144.41 7316.41 6449.15 7563.35)
(9859.26 -6144.03 -6729.21 8270.2 6149.52 9583.87)
(11778 -6053.49 -7194.17 8728.51 5835.3 10946.5)
(12569.4 -5905.66 -7518.41 8491.61 5510.76 11346.3)
(12082.5 -5751.69 -7682.7 7482.84 5218.69 10626.2)
(10305.4 -5640.49 -7683.23 5747.4 5024.19 8801.21)
(7398 -5604.17 -7530.52 3477.41 4994.56 6080.22)
(3712.53 -5640.85 -7235.31 1050 5185.18 2878.67)
(-227.124 -5693.78 -6787.86 -966.356 5632.05 -203.605)
(-3809.52 -5619.37 -6136.35 -1899.95 6341.12 -2477.03)
(-6426.83 -5150.62 -5173.73 -1188.63 7254.3 -3325.7)
(-7591.7 -3936.58 -3769.43 1187.73 8181.27 -2511.69)
(-7336.19 -1823.88 -1911 4065.05 8786.45 -732.186)
(-6335.58 766.683 142.173 5592.93 8811.71 609.836)
(-4732.89 3056.41 2001.66 5614.79 8351.61 1304.92)
(-2491.28 4615.34 3470.25 5209.29 7728.22 1985.71)
(454.452 5503.2 4579.1 5379.24 7182.28 3326.14)
(3791.46 5948.49 5440.78 6204.46 6771.73 5313.3)
(7075.59 6128.65 6144.41 7316.41 6449.15 7563.35)
(9859.26 6144.03 6729.21 8270.2 6149.52 9583.87)
(11778 6053.49 7194.17 8728.51 5835.3 10946.5)
(12569.4 5905.66 7518.41 8491.61 5510.76 11346.3)
(12082.5 5751.69 7682.7 7482.84 5218.69 10626.2)
(10305.4 5640.49 7683.23 5747.4 5024.19 8801.21)
(7398 5604.17 7530.52 3477.41 4994.56 6080.22)
(3712.53 5640.85 7235.31 1050 5185.18 2878.67)
(-227.124 5693.78 6787.86 -966.356 5632.05 -203.605)
(-3809.52 5619.37 6136.35 -1899.95 6341.12 -2477.03)
(-6426.83 5150.62 5173.73 -1188.63 7254.3 -3325.7)
(-7591.7 3936.58 3769.43 1187.73 8181.27 -2511.69)
(-7336.19 1823.88 1911 4065.05 8786.45 -732.186)
(-3915.36 -3418.15 3542.86 3071.29 -8170.52 4481.58)
(-997.391 -4692.99 6323.87 -1021.31 -6046.4 3867.8)
(1721.42 -4061.73 7400.43 -2475 -4256.31 4133.88)
(3684.64 -3361.39 7811.47 -2518.99 -3129.47 4750.1)
(5362.39 -2895.42 7993.54 -1963.14 -2484.12 5668.11)
(6763.17 -2628.76 8096.16 -1347.96 -2177.57 6577.36)
(7937.8 -2507.46 8171.58 -801.878 -2115.68 7367.77)
(9013.19 -2501.54 8231.45 -220.794 -2233.69 8111.76)
(10104.6 -2599.22 8265.39 551.65 -2486.8 8930.7)
(11253.4 -2793.43 8248.4 1624.74 -2842.42 9901)
(12397.5 -3070.1 8147.36 3016.62 -3272.04 11010.3)
(13361.6 -3402.45 7931.47 4631.12 -3745.76 12143.4)
(13869 -3755.66 7585.41 6252.18 -4237.05 13092.3)
(13582.4 -4101.94 7113.36 7585.66 -4745.73 13597.7)
(12128.9 -4422.88 6507.37 8362.33 -5334.7 13393.8)
(8991.02 -4616.1 5646.52 8419.51 -6151.87 12167.6)
(3584.75 -4107.47 4087.36 7817.36 -7369.92 9637.04)
(-2413.36 -1199.47 896.943 6912.58 -8651.19 6714.5)
(-3915.36 3418.15 -3542.86 3071.29 -8170.52 4481.58)
(-997.391 4692.99 -6323.87 -1021.31 -6046.4 3867.8)
(1721.42 4061.73 -7400.43 -2475 -4256.31 4133.88)
(3684.64 3361.39 -7811.47 -2518.99 -3129.47 4750.1)
(5362.39 2895.42 -7993.54 -1963.14 -2484.12 5668.11)
(6763.17 2628.76 -8096.16 -1347.96 -2177.57 6577.36)
(7937.8 2507.46 -8171.58 -801.878 -2115.68 7367.77)
(9013.19 2501.54 -8231.45 -220.794 -2233.69 8111.76)
(10104.6 2599.22 -8265.39 551.65 -2486.8 8930.7)
(11253.4 2793.43 -8248.4 1624.74 -2842.42 9901)
(12397.5 3070.1 -8147.36 3016.62 -3272.04 11010.3)
(13361.6 3402.45 -7931.47 4631.12 -3745.76 12143.4)
(13869 3755.66 -7585.41 6252.18 -4237.05 13092.3)
(13582.4 4101.94 -7113.36 7585.66 -4745.73 13597.7)
(12128.9 4422.88 -6507.37 8362.33 -5334.7 13393.8)
(8991.02 4616.1 -5646.52 8419.51 -6151.87 12167.6)
(3584.75 4107.47 -4087.36 7817.36 -7369.92 9637.04)
(-2413.36 1199.47 -896.943 6912.58 -8651.19 6714.5)
(-5582.71 -4467.42 580.877 9849.12 -1705.74 -5684.95)
(289.57 -8470.57 1129.08 5283.96 -1450 -5080.29)
(6002.16 -8595.63 1388.49 2761.91 -1091.08 -3699.65)
(8935.93 -7822.96 1493.68 965.511 -765.252 -3356.5)
(10562.9 -7096.25 1507.43 -263.888 -515.512 -3308.33)
(11719 -6544.09 1463.37 -1073.5 -371.358 -3225.07)
(12722.1 -6140.64 1394.55 -1550.85 -341.586 -3041.24)
(13606.4 -5863.74 1329.19 -1785.04 -412.215 -2822.28)
(14288.2 -5716.99 1282.91 -1858.57 -555.922 -2660.67)
(14650.7 -5719.49 1255.69 -1832.84 -741.877 -2630.37)
(14581.3 -5890.91 1233.81 -1741.43 -939.319 -2777.26)
(13991.5 -6239.73 1196.63 -1582.89 -1116.38 -3114.37)
(12837 -6757.85 1127.63 -1294.96 -1240.9 -3597.53)
(11121.5 -7420.86 1025.76 -707.847 -1292.29 -4095.84)
(8773.61 -8171.39 905.961 462.733 -1285.37 -4462.77)
(5207.85 -8773.89 774.626 2438.98 -1284.77 -4880.95)
(-992.667 -8196.62 576.618 5018.06 -1386.09 -6244.88)
(-7673.8 -3650.63 138.022 8346.75 -1619.87 -7604.25)
(-5582.71 4467.42 -580.877 9849.12 -1705.74 -5684.95)
(289.57 8470.57 -1129.08 5283.96 -1450 -5080.29)
(6002.16 8595.63 -1388.49 2761.91 -1091.08 -3699.65)
(8935.93 7822.96 -1493.68 965.511 -765.252 -3356.5)
(10562.9 7096.25 -1507.43 -263.888 -515.512 -3308.33)
(11719 6544.09 -1463.37 -1073.5 -371.358 -3225.07)
(12722.1 6140.64 -1394.55 -1550.85 -341.586 -3041.24)
(13606.4 5863.74 -1329.19 -1785.04 -412.215 -2822.28)
(14288.2 5716.99 -1282.91 -1858.57 -555.922 -2660.67)
(14650.7 5719.49 -1255.69 -1832.84 -741.877 -2630.37)
(14581.3 5890.91 -1233.81 -1741.43 -939.319 -2777.26)
(13991.5 6239.73 -1196.63 -1582.89 -1116.38 -3114.37)
(12837 6757.85 -1127.63 -1294.96 -1240.9 -3597.53)
(11121.5 7420.86 -1025.76 -707.847 -1292.29 -4095.84)
(8773.61 8171.39 -905.961 462.733 -1285.37 -4462.77)
(5207.85 8773.89 -774.626 2438.98 -1284.77 -4880.95)
(-992.667 8196.62 -576.618 5018.06 -1386.09 -6244.88)
(-7673.8 3650.63 -138.022 8346.75 -1619.87 -7604.25)
(-8119.02 -2013.88 -1353.49 3463 8928.58 -1073.78)
(-4886.14 -5247.33 -4377.49 1283.63 7636.69 -833.755)
(-388.556 -6041.94 -5996.64 440.296 6338.1 599.333)
(2995.49 -5955.97 -6882.49 319.925 5514.95 1976.65)
(5642.11 -5723.85 -7531.21 635.39 5072.02 3453.02)
(7823.65 -5488.4 -8142.08 1015.42 4794.75 4983.05)
(9549.97 -5214.48 -8725.2 1199.27 4490.85 6341.52)
(10631.2 -4871.46 -9195.95 1011.92 4061.58 7170.59)
(10829.7 -4497.15 -9469.94 341.882 3532.93 7132.12)
(9982.98 -4180.08 -9525.95 -889.91 3016.27 6033.59)
(8079.49 -4010.3 -9407.28 -2703.26 2638.87 3887.45)
(5301.99 -4047.88 -9184.86 -4972.36 2502.95 935.986)
(2060.13 -4318.18 -8917.74 -7317.21 2681.61 -2310.94)
(-1020.98 -4815.49 -8618.59 -9023.37 3228.04 -5051.74)
(-3321.79 -5482.68 -8209.9 -9137.69 4185.58 -6364.53)
(-4874.65 -6089.22 -7447.31 -6989.05 5592.11 -5833.49)
(-6983.57 -5837.75 -5806.96 -3092.07 7374.37 -4405.1)
(-9110.94 -3044.45 -2670.29 1550.04 8899.16 -2637.34)
(-8119.02 2013.88 1353.49 3463 8928.58 -1073.78)
(-4886.14 5247.33 4377.49 1283.63 7636.69 -833.755)
(-388.556 6041.94 5996.64 440.296 6338.1 599.333)
(2995.49 5955.97 6882.49 319.925 5514.95 1976.65)
(5642.11 5723.85 7531.21 635.39 5072.02 3453.02)
(7823.65 5488.4 8142.08 1015.42 4794.75 4983.05)
(9549.97 5214.48 8725.2 1199.27 4490.85 6341.52)
(10631.2 4871.46 9195.95 1011.92 4061.58 7170.59)
(10829.7 4497.15 9469.94 341.882 3532.93 7132.12)
(9982.98 4180.08 9525.95 -889.91 3016.27 6033.59)
(8079.49 4010.3 9407.28 -2703.26 2638.87 3887.45)
(5301.99 4047.88 9184.86 -4972.36 2502.95 935.986)
(2060.13 4318.18 8917.74 -7317.21 2681.61 -2310.94)
(-1020.98 4815.49 8618.59 -9023.37 3228.04 -5051.74)
(-3321.79 5482.68 8209.9 -9137.69 4185.58 -6364.53)
(-4874.65 6089.22 7447.31 -6989.05 5592.11 -5833.49)
(-6983.57 5837.75 5806.96 -3092.07 7374.37 -4405.1)
(-9110.94 3044.45 2670.29 1550.04 8899.16 -2637.34)
(5188.94 -1098.9 8504.61 -3377.76 -1033.21 6275.07)
(6455.93 318.773 8247.98 -2336 540.102 7221.06)
(9325.05 462.099 8175.88 503.846 899.635 9608.35)
(12068.1 388.638 8232.71 3035.8 1030.42 11917.8)
(14096.6 239.104 8344.4 4624.66 997.521 13572.9)
(15442.2 59.9852 8491.01 5315.62 820.285 14491.1)
(16325.5 -138.216 8649.78 5420.25 526.54 14844.5)
(17014.9 -363.735 8787.07 5333.73 147.049 14931.3)
(17713.5 -627.732 8866.99 5380.36 -289.426 15019.1)
(18503.6 -931.996 8858.77 5743.98 -754.853 15260.4)
(19332.6 -1261.56 8742.25 6458.1 -1215.14 15674.2)
(20015.2 -1580.82 8516.86 7407.76 -1620.85 16159.4)
(20258.5 -1836.32 8218.99 8329.53 -1907.16 16530.1)
(19754.8 -1979.58 7937.73 8838.51 -2023.89 16567.2)
(18305.1 -2013.63 7789.84 8509.02 -1992.96 16033)
(15732.9 -2021.35 7839.17 6902.54 -1925.52 14555.3)
(11254.8 -2166.88 8058.66 3196.67 -2007.25 11213.5)
(4898.93 -3292.5 8149.09 -1290.75 -3269.22 6558.93)
(5188.94 1098.9 -8504.61 -3377.76 -1033.21 6275.07)
(6455.93 -318.773 -8247.98 -2336 540.102 7221.06)
(9325.05 -462.099 -8175.88 503.846 899.635 9608.35)
(12068.1 -388.638 -8232.71 3035.8 1030.42 11917.8)
(14096.6 -239.104 -8344.4 4624.66 997.521 13572.9)
(15442.2 -59.9852 -8491.01 5315.62 820.285 14491.1)
(16325.5 138.216 -8649.78 5420.25 526.54 14844.5)
(17014.9 363.735 -8787.07 5333.73 147.049 14931.3)
(17713.5 627.732 -8866.99 5380.36 -289.426 15019.1)
(18503.6 931.996 -8858.77 5743.98 -754.853 15260.4)
(19332.6 1261.56 -8742.25 6458.1 -1215.14 15674.2)
(20015.2 1580.82 -8516.86 7407.76 -1620.85 16159.4)
(20258.5 1836.32 -8218.99 8329.53 -1907.16 16530.1)
(19754.8 1979.58 -7937.73 8838.51 -2023.89 16567.2)
(18305.1 2013.63 -7789.84 8509.02 -1992.96 16033)
(15732.9 2021.35 -7839.17 6902.54 -1925.52 14555.3)
(11254.8 2166.88 -8058.66 3196.67 -2007.25 11213.5)
(4898.93 3292.5 -8149.09 -1290.75 -3269.22 6558.93)
(2918.98 -4918.01 1593.29 -10746.2 -466.041 -11256.8)
(8739.58 -1655.92 1444.23 -7688.13 -54.8038 -6961.31)
(11963.2 -1059.05 1474.62 -4761.84 103.172 -4220.76)
(13311.5 -961.558 1547.32 -3710.46 260.445 -3271.58)
(14118.5 -1035.69 1556.55 -3424 379.097 -2876.14)
(15031.8 -1144.69 1496.59 -3289.22 411.109 -2474.99)
(16119.8 -1218.73 1401.52 -3141.54 334.877 -2011.79)
(17193.9 -1245.5 1305.29 -3009.99 162.821 -1620.83)
(18058.6 -1253.62 1222.89 -2944.16 -72.3389 -1418.46)
(18584.1 -1283.54 1150.74 -2966.35 -334.627 -1456.76)
(18682.2 -1363.32 1075.51 -3081.45 -587.035 -1750.35)
(18272 -1491.9 985.142 -3299.1 -782.51 -2298.13)
(17289.5 -1630.75 886.16 -3643.45 -862.008 -3064.49)
(15773.3 -1723.24 823.748 -4131.74 -783.756 -3932.23)
(13944.5 -1762.75 871.549 -4751.77 -579.205 -4735.59)
(11955.9 -1868.27 1071.95 -5607.08 -357.43 -5541.33)
(8872.81 -2381.26 1414.6 -7638.22 -238.481 -7435.57)
(2318.98 -5391.64 1803.11 -10584.7 -552.466 -11629.8)
(2918.98 4918.01 -1593.29 -10746.2 -466.041 -11256.8)
(8739.58 1655.92 -1444.23 -7688.13 -54.8038 -6961.31)
(11963.2 1059.05 -1474.62 -4761.84 103.172 -4220.76)
(13311.5 961.558 -1547.32 -3710.46 260.445 -3271.58)
(14118.5 1035.69 -1556.55 -3424 379.097 -2876.14)
(15031.8 1144.69 -1496.59 -3289.22 411.109 -2474.99)
(16119.8 1218.73 -1401.52 -3141.54 334.877 -2011.79)
(17193.9 1245.5 -1305.29 -3009.99 162.821 -1620.83)
(18058.6 1253.62 -1222.89 -2944.16 -72.3389 -1418.46)
(18584.1 1283.54 -1150.74 -2966.35 -334.627 -1456.76)
(18682.2 1363.32 -1075.51 -3081.45 -587.035 -1750.35)
(18272 1491.9 -985.142 -3299.1 -782.51 -2298.13)
(17289.5 1630.75 -886.16 -3643.45 -862.008 -3064.49)
(15773.3 1723.24 -823.748 -4131.74 -783.756 -3932.23)
(13944.5 1762.75 -871.549 -4751.77 -579.205 -4735.59)
(11955.9 1868.27 -1071.95 -5607.08 -357.43 -5541.33)
(8872.81 2381.26 -1414.6 -7638.22 -238.481 -7435.57)
(2318.98 5391.64 -1803.11 -10584.7 -552.466 -11629.8)
(-7652.54 -4991.96 -8069.98 -14487.4 4192 -9546.52)
(-2882.67 -2436.84 -8953.22 -13821.9 1842.83 -7104.41)
(-1267.03 -1812.93 -8821.96 -12484.8 1404.19 -6063.26)
(-533.596 -1697.36 -8713.36 -11748 1424.5 -5521.05)
(658.87 -1787.12 -8877.65 -10753.3 1620.79 -4273.54)
(2413.14 -1903.81 -9343.16 -9565.16 1795.21 -2308.01)
(4398.57 -1879.84 -9986.57 -8462.63 1738.97 -58.8818)
(6080.09 -1626.56 -10576.1 -7698.51 1336.45 1805.77)
(6949.34 -1201.82 -10915.2 -7456.24 660.512 2668.33)
(6692.16 -754.376 -10957.3 -7904.85 -89.4083 2175.32)
(5250.65 -415.343 -10788 -9168.7 -715.154 292.286)
(2814.13 -240.688 -10539.2 -11227 -1083.36 -2724.08)
(-184.38 -212.959 -10315.4 -13808.3 -1127.99 -6316.35)
(-3035.55 -274.114 -10149 -16290.3 -857.84 -9570.22)
(-4821.22 -381.092 -9989.75 -17735.7 -374.428 -11339.7)
(-4946.23 -574.93 -9746.71 -17457.8 195.09 -10938.4)
(-4326.89 -1121.01 -9324.19 -16252.4 916.285 -9370.54)
(-6389.91 -3856.42 -8241.63 -15231.8 3247.76 -9193.63)
(-7652.54 4991.96 8069.98 -14487.4 4192 -9546.52)
(-2882.67 2436.84 8953.22 -13821.9 1842.83 -7104.41)
(-1267.03 1812.93 8821.96 -12484.8 1404.19 -6063.26)
(-533.596 1697.36 8713.36 -11748 1424.5 -5521.05)
(658.87 1787.12 8877.65 -10753.3 1620.79 -4273.54)
(2413.14 1903.81 9343.16 -9565.16 1795.21 -2308.01)
(4398.57 1879.84 9986.57 -8462.63 1738.97 -58.8818)
(6080.09 1626.56 10576.1 -7698.51 1336.45 1805.77)
(6949.34 1201.82 10915.2 -7456.24 660.512 2668.33)
(6692.16 754.376 10957.3 -7904.85 -89.4083 2175.32)
(5250.65 415.343 10788 -9168.7 -715.154 292.286)
(2814.13 240.688 10539.2 -11227 -1083.36 -2724.08)
(-184.38 212.959 10315.4 -13808.3 -1127.99 -6316.35)
(-3035.55 274.114 10149 -16290.3 -857.84 -9570.22)
(-4821.22 381.092 9989.75 -17735.7 -374.428 -11339.7)
(-4946.23 574.93 9746.71 -17457.8 195.09 -10938.4)
(-4326.89 1121.01 9324.19 -16252.4 916.285 -9370.54)
(-6389.91 3856.42 8241.63 -15231.8 3247.76 -9193.63)
(-6096.94 1714.11 999.973 2483.56 8831.99 3549.55)
(-471.604 4266.68 4375.96 2014.79 7358.46 6175.15)
(5601.21 4177.18 5918.56 3598.97 6050.13 9743.63)
(10214.5 3596.71 6762.81 5613.74 5182.71 12909.9)
(13471.2 3023.16 7345.12 6963.23 4492.04 15168.8)
(15574.1 2519.5 7823.2 7324.12 3831.48 16303.7)
(16871.6 2071.45 8219.21 6959.1 3151.87 16518.8)
(17738.6 1656.63 8492.83 6354.2 2459.51 16231.3)
(18447.9 1263.86 8601.26 5909.41 1786.71 15819.5)
(19136.2 899.699 8530.03 5832.04 1169.3 15510)
(19790.3 590.823 8294.96 6157.88 646.831 15370.6)
(20223.8 392.305 7943.29 6788.9 286.011 15348.1)
(20077.4 399.17 7568.5 7495.61 201.534 15317.6)
(18935.6 735.182 7303.45 7905.4 530.557 15093.6)
(16562.5 1488.94 7219.51 7597.7 1358.04 14378.1)
(12790.7 2645.5 7154.21 6374.23 2738.28 12722.5)
(6474.28 3931.45 6540.98 4310.3 4888.01 9345.97)
(-3006.02 3334.84 3973.94 2804.22 7800.93 4642.99)
(-6096.94 -1714.11 -999.973 2483.56 8831.99 3549.55)
(-471.604 -4266.68 -4375.96 2014.79 7358.46 6175.15)
(5601.21 -4177.18 -5918.56 3598.97 6050.13 9743.63)
(10214.5 -3596.71 -6762.81 5613.74 5182.71 12909.9)
(13471.2 -3023.16 -7345.12 6963.23 4492.04 15168.8)
(15574.1 -2519.5 -7823.2 7324.12 3831.48 16303.7)
(16871.6 -2071.45 -8219.21 6959.1 3151.87 16518.8)
(17738.6 -1656.63 -8492.83 6354.2 2459.51 16231.3)
(18447.9 -1263.86 -8601.26 5909.41 1786.71 15819.5)
(19136.2 -899.699 -8530.03 5832.04 1169.3 15510)
(19790.3 -590.823 -8294.96 6157.88 646.831 15370.6)
(20223.8 -392.305 -7943.29 6788.9 286.011 15348.1)
(20077.4 -399.17 -7568.5 7495.61 201.534 15317.6)
(18935.6 -735.182 -7303.45 7905.4 530.557 15093.6)
(16562.5 -1488.94 -7219.51 7597.7 1358.04 14378.1)
(12790.7 -2645.5 -7154.21 6374.23 2738.28 12722.5)
(6474.28 -3931.45 -6540.98 4310.3 4888.01 9345.97)
(-3006.02 -3334.84 -3973.94 2804.22 7800.93 4642.99)
(-10152.2 4577.37 70.8574 4359.62 1831.15 -10497.4)
(866.017 8424.17 630.493 3120.35 1483.63 -5674.48)
(6728.66 7817.04 1013.54 850.664 1345.18 -3944.95)
(9289.64 6505.54 1265.45 -842.816 1326.7 -3469.87)
(11093.7 5318.08 1361.9 -1714.02 1303.25 -2933.67)
(13021 4372.16 1333.33 -1945.55 1200.42 -2095.71)
(15023 3696.76 1232.21 -1881.15 980.273 -1211.44)
(16786.8 3285.06 1105.76 -1757.23 655.317 -545.488)
(18072.9 3084.96 975.03 -1668.6 271.433 -211.463)
(18787.7 3032.93 837.934 -1619.19 -124.027 -203.13)
(18881 3096.81 687.712 -1584.63 -485.665 -489.207)
(18230.3 3304.76 534.001 -1564.29 -748.382 -1072.77)
(16622.5 3756.18 426.6 -1609.81 -816.786 -1984.56)
(13922.5 4579.43 456.918 -1778.04 -611.226 -3219.06)
(10289.9 5816.52 674.647 -1930.31 -157.043 -4676.84)
(5734.49 7311.72 971.57 -1548.88 437.39 -6310.78)
(-1034.47 8240.17 1107.67 182.598 1125.99 -8478.65)
(-9841.56 4845.72 749.837 4147.3 1795.78 -10602)
(-10152.2 -4577.37 -70.8574 4359.62 1831.15 -10497.4)
(866.017 -8424.17 -630.493 3120.35 1483.63 -5674.48)
(6728.66 -7817.04 -1013.54 850.664 1345.18 -3944.95)
(9289.64 -6505.54 -1265.45 -842.816 1326.7 -3469.87)
(11093.7 -5318.08 -1361.9 -1714.02 1303.25 -2933.67)
(13021 -4372.16 -1333.33 -1945.55 1200.42 -2095.71)
(15023 -3696.76 -1232.21 -1881.15 980.273 -1211.44)
(16786.8 -3285.06 -1105.76 -1757.23 655.317 -545.488)
(18072.9 -3084.96 -975.03 -1668.6 271.433 -211.463)
(18787.7 -3032.93 -837.934 -1619.19 -124.027 -203.13)
(18881 -3096.81 -687.712 -1584.63 -485.665 -489.207)
(18230.3 -3304.76 -534.001 -1564.29 -748.382 -1072.77)
(16622.5 -3756.18 -426.6 -1609.81 -816.786 -1984.56)
(13922.5 -4579.43 -456.918 -1778.04 -611.226 -3219.06)
(10289.9 -5816.52 -674.647 -1930.31 -157.043 -4676.84)
(5734.49 -7311.72 -971.57 -1548.88 437.39 -6310.78)
(-1034.47 -8240.17 -1107.67 182.598 1125.99 -8478.65)
(-9841.56 -4845.72 -749.837 4147.3 1795.78 -10602)
(-7329.05 3766.61 -3459.55 1611.15 -8243.72 -1691.23)
(-2908.14 6032.52 -6639.77 -2560.4 -6344.85 -1790.33)
(-2201.34 5287.11 -7586.24 -7123.13 -4440.88 -3883.6)
(-2547.63 4079.3 -7863.57 -9965.52 -3039.7 -5351.42)
(-2114.53 3006.17 -8198.71 -11044.3 -2005.44 -5236.06)
(-561.385 2179.51 -8818.32 -10877.3 -1320.75 -3604.91)
(1711.79 1733.63 -9662.98 -10065.3 -1143.67 -1076.31)
(3957.92 1743.79 -10456.6 -9075.31 -1568.35 1419.06)
(5438.93 2102.48 -10938.4 -8272.2 -2458 2990.09)
(5706.07 2598.23 -11039.6 -7967.75 -3530.93 3105.35)
(4648.37 3070.68 -10857.2 -8372.89 -4521.46 1656.39)
(2419.32 3489.36 -10534.2 -9499.05 -5244.38 -1098.95)
(-596.781 3944.33 -10144.4 -11050.9 -5603.33 -4520.77)
(-3690.8 4550.96 -9616.41 -12269.5 -5657.38 -7501.2)
(-5842.76 5292.28 -8778.07 -11901.5 -5701.7 -8693.13)
(-6524.72 5931.55 -7475.91 -8848.63 -6128.31 -7427.41)
(-6763.97 5723.96 -5377.27 -3104.21 -7157.11 -4419.42)
(-8281.57 2413.41 -1619.86 2446.1 -8422.6 -1991.96)
(-7329.05 -3766.61 3459.55 1611.15 -8243.72 -1691.23)
(-2908.14 -6032.52 6639.77 -2560.4 -6344.85 -1790.33)
(-2201.34 -5287.11 7586.24 -7123.13 -4440.88 -3883.6)
(-2547.63 -4079.3 7863.57 -9965.52 -3039.7 -5351.42)
(-2114.53 -3006.17 8198.71 -11044.3 -2005.44 -5236.06)
(-561.385 -2179.51 8818.32 -10877.3 -1320.75 -3604.91)
(1711.79 -1733.63 9662.98 -10065.3 -1143.67 -1076.31)
(3957.92 -1743.79 10456.6 -9075.31 -1568.35 1419.06)
(5438.93 -2102.48 10938.4 -8272.2 -2458 2990.09)
(5706.07 -2598.23 11039.6 -7967.75 -3530.93 3105.35)
(4648.37 -3070.68 10857.2 -8372.89 -4521.46 1656.39)
(2419.32 -3489.36 10534.2 -9499.05 -5244.38 -1098.95)
(-596.781 -3944.33 10144.4 -11050.9 -5603.33 -4520.77)
(-3690.8 -4550.96 9616.41 -12269.5 -5657.38 -7501.2)
(-5842.76 -5292.28 8778.07 -11901.5 -5701.7 -8693.13)
(-6524.72 -5931.55 7475.91 -8848.63 -6128.31 -7427.41)
(-6763.97 -5723.96 5377.27 -3104.21 -7157.11 -4419.42)
(-8281.57 -2413.41 1619.86 2446.1 -8422.6 -1991.96)
(-7208.72 311.67 -853.226 1162.53 8612.53 1934.3)
(-5628.23 2422.29 1294.6 1038.82 8630.66 3025.61)
(-1536.44 3493.98 3036.18 2179.81 8243.64 5901.63)
(3246.45 3785.62 4333.48 4015.06 7690.26 9487.31)
(7382.86 3695.83 5349.06 5372.99 7010.37 12467.1)
(10480.7 3440.85 6210.17 5751.13 6189.72 14212.5)
(12666.1 3109.81 6912.26 5351.68 5251.01 14762.7)
(14194.7 2745.11 7376.28 4672.62 4271.77 14512.8)
(15303.9 2381.06 7551.17 4131.44 3346.88 13909.6)
(16167.3 2053.55 7455.03 3939.23 2542.99 13272.4)
(16812.5 1804.17 7155.59 4144.46 1906.97 12744.7)
(17023.8 1691.54 6757.96 4682.48 1518.15 12329.8)
(16313.5 1800.36 6403.28 5353.19 1526.43 11926.6)
(14131.5 2212.84 6198.89 5757.71 2097.7 11290.7)
(10303.5 2888.66 6060.51 5403.49 3250.24 9992.06)
(5075.82 3506.32 5678.11 4093.93 4792.33 7630.53)
(-962.988 3452.39 4715.25 2308.88 6449.41 4472.64)
(-5773.21 2095.88 3029.71 1298.17 7862.69 2194.54)
(-7208.72 -311.67 853.226 1162.53 8612.53 1934.3)
(-5628.23 -2422.29 -1294.6 1038.82 8630.66 3025.61)
(-1536.44 -3493.98 -3036.18 2179.81 8243.64 5901.63)
(3246.45 -3785.62 -4333.48 4015.06 7690.26 9487.31)
(7382.86 -3695.83 -5349.06 5372.99 7010.37 12467.1)
(10480.7 -3440.85 -6210.17 5751.13 6189.72 14212.5)
(12666.1 -3109.81 -6912.26 5351.68 5251.01 14762.7)
(14194.7 -2745.11 -7376.28 4672.62 4271.77 14512.8)
(15303.9 -2381.06 -7551.17 4131.44 3346.88 13909.6)
(16167.3 -2053.55 -7455.03 3939.23 2542.99 13272.4)
(16812.5 -1804.17 -7155.59 4144.46 1906.97 12744.7)
(17023.8 -1691.54 -6757.96 4682.48 1518.15 12329.8)
(16313.5 -1800.36 -6403.28 5353.19 1526.43 11926.6)
(14131.5 -2212.84 -6198.89 5757.71 2097.7 11290.7)
(10303.5 -2888.66 -6060.51 5403.49 3250.24 9992.06)
(5075.82 -3506.32 -5678.11 4093.93 4792.33 7630.53)
(-962.988 -3452.39 -4715.25 2308.88 6449.41 4472.64)
(-5773.21 -2095.88 -3029.71 1298.17 7862.69 2194.54)
(-6153.6 2291.55 -433.48 9815.37 1736.46 -6062.53)
(-3320.13 5931.74 -24.9664 8277.48 1869.51 -5311.55)
(-4.22118 7607.3 410.001 5753.4 1981.78 -4683.44)
(3053.96 7849.74 723.038 3525.93 2048.25 -3891.11)
(6030.35 7367.46 871.44 2039.77 2021.21 -2741.91)
(9167.62 6616.18 884.222 1213.07 1833.4 -1337.76)
(12248.8 5895.99 811.312 749.161 1442.63 -72.662)
(14811.7 5386.24 701.143 476.297 889.842 748.163)
(16537.9 5123.38 578.188 364.813 272.191 1073.74)
(17365.9 5058.8 444.405 433.76 -325.447 1000.91)
(17294.9 5150.53 302.926 702.283 -839.239 609.762)
(16170.5 5415.2 183.866 1159.13 -1182.15 -115.493)
(13678 5918.2 159.73 1728.63 -1221.01 -1262.13)
(9686.69 6654.55 305.974 2294.58 -859.503 -2872.82)
(4669.86 7342.55 580.317 2902.61 -194.581 -4795.69)
(-549.213 7361.09 801.398 3964.35 525.351 -6623.09)
(-4976.51 5886.47 839.957 6035.69 1121.58 -7624)
(-7007.53 2363.96 706.878 8801.96 1522.42 -7103.04)
(-6153.6 -2291.55 433.48 9815.37 1736.46 -6062.53)
(-3320.13 -5931.74 24.9664 8277.48 1869.51 -5311.55)
(-4.22118 -7607.3 -410.001 5753.4 1981.78 -4683.44)
(3053.96 -7849.74 -723.038 3525.93 2048.25 -3891.11)
(6030.35 -7367.46 -871.44 2039.77 2021.21 -2741.91)
(9167.62 -6616.18 -884.222 1213.07 1833.4 -1337.76)
(12248.8 -5895.99 -811.312 749.161 1442.63 -72.662)
(14811.7 -5386.24 -701.143 476.297 889.842 748.163)
(16537.9 -5123.38 -578.188 364.813 272.191 1073.74)
(17365.9 -5058.8 -444.405 433.76 -325.447 1000.91)
(17294.9 -5150.53 -302.926 702.283 -839.239 609.762)
(16170.5 -5415.2 -183.866 1159.13 -1182.15 -115.493)
(13678 -5918.2 -159.73 1728.63 -1221.01 -1262.13)
(9686.69 -6654.55 -305.974 2294.58 -859.503 -2872.82)
(4669.86 -7342.55 -580.317 2902.61 -194.581 -4795.69)
(-549.213 -7361.09 -801.398 3964.35 525.351 -6623.09)
(-4976.51 -5886.47 -839.957 6035.69 1121.58 -7624)
(-7007.53 -2363.96 -706.878 8801.96 1522.42 -7103.04)
(4477.25 2584.31 -2495.65 14878.7 -8610.5 10168)
(3548.42 4690.84 -4423.17 10378.6 -7655.91 7494.29)
(1274.61 5382.17 -5484.92 4246.32 -6379.02 3530.9)
(-630.854 5185.49 -6129.31 -993.996 -5116.02 454.133)
(-1087.97 4570.73 -6720.27 -4359.07 -4003.7 -682.42)
(150.93 3859.11 -7480.77 -5886.59 -3245.29 217.869)
(2583.32 3369.36 -8413 -6025.1 -3126.82 2531.52)
(5202.42 3307.37 -9260.75 -5294.18 -3767.27 5177.33)
(7057.89 3603.67 -9756.3 -4216.59 -4975.7 7087.34)
(7636.05 4030.85 -9836.87 -3268.92 -6404.28 7614.17)
(6819.93 4423.02 -9610.41 -2760.31 -7736.34 6590.25)
(4739.23 4771.55 -9213.85 -2725.31 -8719.88 4260.75)
(1786.2 5172.86 -8673.23 -2839.41 -9164.69 1350.44)
(-1135.36 5606.98 -7831.46 -2307.52 -9084.91 -841.048)
(-2633.47 5734.27 -6519.59 8.04179 -8822.27 -885.079)
(-1867.53 5094.4 -4771.42 4666.57 -8740.93 1701.4)
(617.214 3366.98 -2638.21 10611.6 -8871.76 5936.89)
(3309.18 541.915 -106.61 15027.6 -8952.93 9595.96)
(4477.25 -2584.31 2495.65 14878.7 -8610.5 10168)
(3548.42 -4690.84 4423.17 10378.6 -7655.91 7494.29)
(1274.61 -5382.17 5484.92 4246.32 -6379.02 3530.9)
(-630.854 -5185.49 6129.31 -993.996 -5116.02 454.133)
(-1087.97 -4570.73 6720.27 -4359.07 -4003.7 -682.42)
(150.93 -3859.11 7480.77 -5886.59 -3245.29 217.869)
(2583.32 -3369.36 8413 -6025.1 -3126.82 2531.52)
(5202.42 -3307.37 9260.75 -5294.18 -3767.27 5177.33)
(7057.89 -3603.67 9756.3 -4216.59 -4975.7 7087.34)
(7636.05 -4030.85 9836.87 -3268.92 -6404.28 7614.17)
(6819.93 -4423.02 9610.41 -2760.31 -7736.34 6590.25)
(4739.23 -4771.55 9213.85 -2725.31 -8719.88 4260.75)
(1786.2 -5172.86 8673.23 -2839.41 -9164.69 1350.44)
(-1135.36 -5606.98 7831.46 -2307.52 -9084.91 -841.048)
(-2633.47 -5734.27 6519.59 8.04178 -8822.27 -885.079)
(-1867.53 -5094.4 4771.42 4666.57 -8740.93 1701.4)
(617.214 -3366.98 2638.21 10611.6 -8871.76 5936.89)
(3309.18 -541.915 106.61 15027.6 -8952.93 9595.96)
(-9598.29 -96.0714 -1731.87 -2186.82 8324.77 -1181.96)
(-8801.52 1267 -335.432 -1943.5 8729.12 -139.979)
(-6353.21 2276.19 1028.95 -960.219 8874.72 2180.43)
(-2818.04 2883.15 2236.62 517.417 8775.96 5387.08)
(1003.88 3174.99 3323.92 1814.76 8392.12 8576.44)
(4533.62 3255.44 4352.97 2447.45 7671.05 10911.5)
(7491.95 3195.52 5259.55 2443.63 6657.67 12051.8)
(9768.68 3045.61 5898.79 2143.79 5513.24 12156.7)
(11403.3 2855.39 6190.1 1876.95 4418.74 11638.2)
(12521 2674.58 6167.87 1825.85 3487.78 10880.4)
(13143.8 2547.58 5938.05 2046.68 2783.84 10097.8)
(13014.4 2513.62 5643.26 2483.81 2394.22 9327.49)
(11602.6 2605.61 5430 2918.12 2464.75 8449.23)
(8507.3 2829.26 5342.51 2947.62 3106.63 7210.62)
(4050.29 3084.19 5219.77 2229.57 4216.49 5380.49)
(-863.62 3107.67 4822.66 854.371 5496.55 3029.8)
(-5326.42 2616.2 4061.53 -664.056 6684.28 677.844)
(-8449.85 1530.47 3001.8 -1764.47 7642.73 -900.237)
(-9598.29 96.0714 1731.87 -2186.82 8324.77 -1181.96)
(-8801.52 -1267 335.432 -1943.5 8729.12 -139.979)