/*--------------------------------*- C++ -*----------------------------------*\
| =========                 |                                                 |
| \\      /  F ield         | OpenFOAM: The Open Source CFD Toolbox           |
|  \\    /   O peration     | Version:  2312                                  |
|   \\  /    A nd           | Website:  www.openfoam.com                      |
|    \\/     M anipulation  |                                                 |
\*---------------------------------------------------------------------------*/
FoamFile
{
    version     2.0;
    format      ascii;
    arch        "LSB;label=32;scalar=64";
    class       volVectorField;
    location    "0.9";
    object      D;
}
// * * * * * * * * * * * * * * * * * * * * * * * * * * * * * * * * * * * * * //

dimensions      [0 1 0 0 0 0 0];

internalField   nonuniform List<vector> 
1620
(
(0.00084165 -0.000121882 -0.00235222)
(0.00117355 0.000164986 -0.00219452)
(0.00120941 0.000486609 -0.00176122)
(0.00102433 0.000703909 -0.00117542)
(0.000739965 0.000789534 -0.000589656)
(0.000437372 0.000775087 -0.000101511)
(0.000154021 0.000695938 0.000255049)
(-9.74111e-05 0.00058035 0.00048712)
(-0.000316353 0.000452978 0.000624337)
(-0.000506828 0.000332384 0.000707709)
(-0.000671697 0.000225689 0.000780498)
(-0.00080786 0.000128479 0.000879794)
(-0.000902922 3.42009e-05 0.00102923)
(-0.000933711 -4.7885e-05 0.0012343)
(-0.000865433 -7.90494e-05 0.00148371)
(-0.000651152 -1.30057e-05 0.00175736)
(-0.000249669 0.00013214 0.00202944)
(0.00030435 0.00022497 0.00225698)
(0.00084165 0.000121882 0.00235222)
(0.00117355 -0.000164986 0.00219452)
(0.00120941 -0.000486609 0.00176122)
(0.00102433 -0.000703909 0.00117542)
(0.000739965 -0.000789534 0.000589656)
(0.000437372 -0.000775087 0.000101511)
(0.000154021 -0.000695938 -0.000255049)
(-9.74111e-05 -0.00058035 -0.00048712)
(-0.000316353 -0.000452978 -0.000624337)
(-0.000506828 -0.000332384 -0.000707709)
(-0.000671697 -0.000225689 -0.000780498)
(-0.00080786 -0.000128479 -0.000879794)
(-0.000902922 -3.42009e-05 -0.00102923)
(-0.000933711 4.7885e-05 -0.0012343)
(-0.000865433 7.90494e-05 -0.00148371)
(-0.000651152 1.30057e-05 -0.00175736)
(-0.000249669 -0.00013214 -0.00202944)
(0.00030435 -0.00022497 -0.00225698)
(0.000370872 0.000362343 -0.00209843)
(0.000501841 0.000421327 -0.00190007)
(0.000509771 0.000544657 -0.00160601)
(0.000397299 0.0007035 -0.00124138)
(0.000198411 0.000860281 -0.000848725)
(-4.08384e-05 0.000987613 -0.000466166)
(-0.000279382 0.00106899 -0.000115659)
(-0.00048867 0.0010986 0.000197515)
(-0.000653456 0.00107869 0.000480607)
(-0.000767871 0.00101318 0.000747606)
(-0.000829961 0.000901885 0.00101258)
(-0.000837927 0.000739953 0.00128323)
(-0.000789922 0.000524207 0.00155543)
(-0.000687082 0.000266048 0.00181054)
(-0.000535786 3.77884e-06 0.00202019)
(-0.000342675 -0.000203324 0.00215969)
(-0.000108512 -0.000312569 0.00221916)
(0.000149522 -0.000343283 0.00219919)
(0.000370872 -0.000362343 0.00209843)
(0.000501841 -0.000421327 0.00190007)
(0.000509771 -0.000544657 0.00160601)
(0.000397299 -0.0007035 0.00124138)
(0.000198411 -0.000860281 0.000848725)
(-4.08384e-05 -0.000987613 0.000466166)
(-0.000279382 -0.00106899 0.000115659)
(-0.00048867 -0.0010986 -0.000197515)
(-0.000653456 -0.00107869 -0.000480607)
(-0.000767871 -0.00101318 -0.000747606)
(-0.000829961 -0.000901885 -0.00101258)
(-0.000837927 -0.000739953 -0.00128323)
(-0.000789922 -0.000524207 -0.00155543)
(-0.000687082 -0.000266048 -0.00181054)
(-0.000535786 -3.77884e-06 -0.00202019)
(-0.000342675 0.000203324 -0.00215969)
(-0.000108512 0.000312569 -0.00221916)
(0.000149522 0.000343283 -0.00219919)
(1.80871e-05 0.000609746 -0.00187257)
(2.78146e-05 0.000526082 -0.00166614)
(2.04965e-05 0.000528135 -0.00148387)
(-3.75856e-05 0.00067156 -0.00129004)
(-0.000173746 0.000923954 -0.00104842)
(-0.000376208 0.0012132 -0.000744506)
(-0.000603942 0.0014727 -0.000383469)
(-0.000812214 0.00165875 2.0692e-05)
(-0.000968599 0.00174776 0.000452143)
(-0.00105463 0.00172861 0.000893984)
(-0.00106107 0.00159751 0.00132653)
(-0.000984882 0.00135654 0.00172588)
(-0.000831573 0.00101553 0.00206321)
(-0.000622048 0.000597698 0.00230643)
(-0.00039687 0.000147981 0.0024276)
(-0.000205066 -0.00026157 0.00241704)
(-7.64541e-05 -0.000544962 0.00229355)
(-8.75867e-06 -0.000650476 0.00209619)
(1.80871e-05 -0.000609746 0.00187257)
(2.78146e-05 -0.000526082 0.00166614)
(2.04965e-05 -0.000528135 0.00148387)
(-3.75856e-05 -0.00067156 0.00129004)
(-0.000173746 -0.000923954 0.00104842)
(-0.000376208 -0.0012132 0.000744506)
(-0.000603942 -0.0014727 0.000383469)
(-0.000812214 -0.00165875 -2.0692e-05)
(-0.000968599 -0.00174776 -0.000452143)
(-0.00105463 -0.00172861 -0.000893984)
(-0.00106107 -0.00159751 -0.00132653)
(-0.000984882 -0.00135654 -0.00172588)
(-0.000831573 -0.00101553 -0.00206321)
(-0.000622048 -0.000597698 -0.00230643)
(-0.00039687 -0.000147981 -0.0024276)
(-0.000205066 0.00026157 -0.00241704)
(-7.64541e-05 0.000544962 -0.00229355)
(-8.75867e-06 0.000650476 -0.00209619)
(0.00259243 0.000438147 -0.00620041)
(0.00335877 0.000862307 -0.00554111)
(0.00320174 0.00136945 -0.00441555)
(0.00240718 0.00180081 -0.00309332)
(0.00135716 0.00212279 -0.0018064)
(0.000305586 0.00231996 -0.000687676)
(-0.000629138 0.00237861 0.000212894)
(-0.00141218 0.00231248 0.000902575)
(-0.0020477 0.0021592 0.00143213)
(-0.00255033 0.00195272 0.00187971)
(-0.00292742 0.00170088 0.00232872)
(-0.00316816 0.00138275 0.00284492)
(-0.0032383 0.000969084 0.00345634)
(-0.00307971 0.000464924 0.0041414)
(-0.00261454 -3.88474e-05 0.00483768)
(-0.00175804 -0.000363345 0.00547645)
(-0.000463781 -0.000390461 0.00599628)
(0.00114077 -0.00029074 0.00628234)
(0.00259243 -0.000438147 0.00620041)
(0.00335877 -0.000862307 0.00554111)
(0.00320174 -0.00136945 0.00441555)
(0.00240718 -0.00180081 0.00309332)
(0.00135716 -0.00212279 0.0018064)
(0.000305586 -0.00231996 0.000687676)
(-0.000629138 -0.00237861 -0.000212894)
(-0.00141218 -0.00231248 -0.000902575)
(-0.0020477 -0.0021592 -0.00143213)
(-0.00255033 -0.00195272 -0.00187971)
(-0.00292742 -0.00170088 -0.00232872)
(-0.00316816 -0.00138275 -0.00284492)
(-0.0032383 -0.000969084 -0.00345634)
(-0.00307971 -0.000464924 -0.0041414)
(-0.00261454 3.88474e-05 -0.00483768)
(-0.00175804 0.000363345 -0.00547645)
(-0.000463781 0.000390461 -0.00599628)
(0.00114077 0.00029074 -0.00628234)
(0.00174612 0.00117396 -0.00590141)
(0.00219799 0.00123942 -0.00534348)
(0.00214696 0.00149829 -0.00453502)
(0.00164161 0.00189362 -0.00354632)
(0.000866972 0.00233467 -0.00246751)
(1.04911e-05 0.00271747 -0.00138852)
(-0.00079426 0.00296583 -0.000374114)
(-0.0014745 0.00305278 0.000549323)
(-0.00200111 0.00298614 0.00138987)
(-0.00236634 0.0027817 0.00217534)
(-0.00256648 0.00244589 0.00293587)
(-0.00259245 0.00197382 0.00368887)
(-0.00242869 0.00136199 0.00442714)
(-0.00206109 0.000634103 0.00511225)
(-0.00149299 -0.000125703 0.0056794)
(-0.000759037 -0.000760638 0.0060636)
(8.62635e-05 -0.00111511 0.00623597)
(0.000974623 -0.00118544 0.00618812)
(0.00174612 -0.00117396 0.00590141)
(0.00219799 -0.00123942 0.00534348)
(0.00214696 -0.00149829 0.00453502)
(0.00164161 -0.00189362 0.00354632)
(0.000866972 -0.00233467 0.00246751)
(1.04911e-05 -0.00271747 0.00138852)
(-0.00079426 -0.00296583 0.000374114)
(-0.0014745 -0.00305278 -0.000549323)
(-0.00200111 -0.00298614 -0.00138987)
(-0.00236634 -0.0027817 -0.00217534)
(-0.00256648 -0.00244589 -0.00293587)
(-0.00259245 -0.00197382 -0.00368887)
(-0.00242869 -0.00136199 -0.00442714)
(-0.00206109 -0.000634103 -0.00511225)
(-0.00149299 0.000125703 -0.0056794)
(-0.000759037 0.000760638 -0.0060636)
(8.62635e-05 0.00111511 -0.00623597)
(0.000974623 0.00118544 -0.00618812)
(0.00101771 0.00163054 -0.00547384)
(0.00124603 0.00144756 -0.00504868)
(0.00130268 0.00152231 -0.00454837)
(0.00106735 0.00190489 -0.00387635)
(0.00054819 0.00247993 -0.00300312)
(-0.000137384 0.00306833 -0.00197376)
(-0.000844623 0.00352935 -0.000860261)
(-0.00146303 0.00378943 0.000281896)
(-0.00192839 0.00381974 0.00141822)
(-0.00220801 0.00361373 0.00252125)
(-0.00228471 0.00317854 0.00356075)
(-0.002149 0.0025337 0.00450093)
(-0.00180205 0.00171307 0.00530053)
(-0.00127156 0.000770625 0.00591268)
(-0.000636588 -0.000205473 0.00628636)
(-3.31715e-05 -0.00107116 0.00638273)
(0.0004186 -0.00163752 0.00621962)
(0.000735694 -0.0017827 0.00588928)
(0.00101771 -0.00163054 0.00547384)
(0.00124603 -0.00144756 0.00504868)
(0.00130268 -0.00152231 0.00454837)
(0.00106735 -0.00190489 0.00387635)
(0.00054819 -0.00247993 0.00300312)
(-0.000137384 -0.00306833 0.00197376)
(-0.000844623 -0.00352935 0.000860261)
(-0.00146303 -0.00378943 -0.000281896)
(-0.00192839 -0.00381974 -0.00141822)
(-0.00220801 -0.00361373 -0.00252125)
(-0.00228471 -0.00317854 -0.00356075)
(-0.002149 -0.0025337 -0.00450093)
(-0.00180205 -0.00171307 -0.00530053)
(-0.00127156 -0.000770625 -0.00591268)
(-0.000636588 0.000205473 -0.00628636)
(-3.31715e-05 0.00107116 -0.00638273)
(0.0004186 0.00163752 -0.00621962)
(0.000735694 0.0017827 -0.00588928)
(0.00529458 0.00195161 -0.00925597)
(0.00598779 0.00221195 -0.00823122)
(0.00507388 0.00253191 -0.00663924)
(0.00327122 0.00288661 -0.00484267)
(0.00123286 0.00324611 -0.00309652)
(-0.000659018 0.00351577 -0.00152467)
(-0.00225563 0.00361861 -0.000176297)
(-0.00353379 0.00354414 0.000950844)
(-0.00451544 0.00332603 0.00190611)
(-0.00522661 0.00299638 0.0027711)
(-0.00567858 0.00255772 0.00363288)
(-0.00585925 0.00198298 0.00455532)
(-0.00572762 0.0012406 0.0055558)
(-0.00520446 0.000340164 0.00659628)
(-0.00415635 -0.000611995 0.00760093)
(-0.00241134 -0.00138907 0.00849638)
(7.66791e-05 -0.00176865 0.00921233)
(0.00292693 -0.00181585 0.00954542)
(0.00529458 -0.00195161 0.00925597)
(0.00598779 -0.00221195 0.00823122)
(0.00507388 -0.00253191 0.00663924)
(0.00327122 -0.00288661 0.00484267)
(0.00123286 -0.00324611 0.00309652)
(-0.000659018 -0.00351577 0.00152467)
(-0.00225563 -0.00361861 0.000176297)
(-0.00353379 -0.00354414 -0.000950844)
(-0.00451544 -0.00332603 -0.00190611)
(-0.00522661 -0.00299638 -0.0027711)
(-0.00567858 -0.00255772 -0.00363288)
(-0.00585925 -0.00198298 -0.00455532)
(-0.00572762 -0.0012406 -0.0055558)
(-0.00520446 -0.000340164 -0.00659628)
(-0.00415635 0.000611995 -0.00760093)
(-0.00241134 0.00138907 -0.00849638)
(7.66791e-05 0.00176865 -0.00921233)
(0.00292693 0.00181585 -0.00954542)
(0.00409267 0.00223122 -0.00882895)
(0.00460585 0.00226489 -0.00799458)
(0.0041575 0.00252964 -0.00681548)
(0.0030047 0.0030149 -0.00537368)
(0.0015096 0.00359164 -0.00379056)
(-1.78273e-05 0.00408695 -0.00219268)
(-0.00138424 0.0043835 -0.000667102)
(-0.0025023 0.00444473 0.000750281)
(-0.00334554 0.00428149 0.00206231)
(-0.00390989 0.00391425 0.00329298)
(-0.00419161 0.003354 0.00446931)
(-0.0041772 0.002602 0.00560476)
(-0.00384074 0.00166465 0.00668656)
(-0.00314707 0.000580145 0.00767082)
(-0.00206275 -0.000546107 0.00848838)
(-0.000588863 -0.00151673 0.00906327)
(0.00116195 -0.0021113 0.00934052)
(0.00285881 -0.00227851 0.00928259)
(0.00409267 -0.00223122 0.00882895)
(0.00460585 -0.00226489 0.00799458)
(0.0041575 -0.00252964 0.00681548)
(0.0030047 -0.0030149 0.00537368)
(0.0015096 -0.00359164 0.00379056)
(-1.78273e-05 -0.00408695 0.00219268)
(-0.00138424 -0.0043835 0.000667102)
(-0.0025023 -0.00444473 -0.000750281)
(-0.00334554 -0.00428149 -0.00206231)
(-0.00390989 -0.00391425 -0.00329298)
(-0.00419161 -0.003354 -0.00446931)
(-0.0041772 -0.002602 -0.00560476)
(-0.00384074 -0.00166465 -0.00668656)
(-0.00314707 -0.000580145 -0.00767082)
(-0.00206275 0.000546107 -0.00848838)
(-0.000588863 0.00151673 -0.00906327)
(0.00116195 0.0021113 -0.00934052)
(0.00285881 0.00227851 -0.00928259)
(0.00306781 0.00238428 -0.00822286)
(0.00346933 0.00225058 -0.00764941)
(0.00344203 0.00244358 -0.00683728)
(0.00289781 0.00300207 -0.00571253)
(0.00192342 0.00375813 -0.00430029)
(0.000741609 0.00446958 -0.0027129)
(-0.000419149 0.00496979 -0.00105859)
(-0.0014107 0.00518601 0.000600029)
(-0.00215767 0.00509455 0.00222435)
(-0.00262296 0.0046964 0.00377806)
(-0.00278469 0.00401114 0.00522196)
(-0.00262576 0.003075 0.00651475)
(-0.00213517 0.00194058 0.0076135)
(-0.00132451 0.00068039 0.00847132)
(-0.000264285 -0.000597198 0.00903199)
(0.000875388 -0.00171367 0.00923484)
(0.00185588 -0.00243074 0.00907265)
(0.00252893 -0.002602 0.00868289)
(0.00306781 -0.00238428 0.00822286)
(0.00346933 -0.00225058 0.00764941)
(0.00344203 -0.00244358 0.00683728)
(0.00289781 -0.00300207 0.00571253)
(0.00192342 -0.00375813 0.00430029)
(0.000741609 -0.00446958 0.0027129)
(-0.000419149 -0.00496979 0.00105859)
(-0.0014107 -0.00518601 -0.000600029)
(-0.00215767 -0.00509455 -0.00222435)
(-0.00262296 -0.0046964 -0.00377806)
(-0.00278469 -0.00401114 -0.00522196)
(-0.00262576 -0.003075 -0.00651475)
(-0.00213517 -0.00194058 -0.0076135)
(-0.00132451 -0.00068039 -0.00847132)
(-0.000264285 0.000597198 -0.00903199)
(0.000875388 0.00171367 -0.00923484)
(0.00185588 0.00243074 -0.00907265)
(0.00252893 0.002602 -0.00868289)
(0.00777438 0.0037171 -0.011076)
(0.00804148 0.00340211 -0.00985738)
(0.00634649 0.00335349 -0.00811599)
(0.00365246 0.00353428 -0.00616379)
(0.00081118 0.00378662 -0.00421595)
(-0.00171483 0.00396283 -0.00238712)
(-0.0037891 0.00397581 -0.000724153)
(-0.0054145 0.00380147 0.000765809)
(-0.00662251 0.00345492 0.00210897)
(-0.00743712 0.00295435 0.00335822)
(-0.00786515 0.00229841 0.00457405)
(-0.00789104 0.00146661 0.00579936)
(-0.00746939 0.000441212 0.00703889)
(-0.00650702 -0.000755874 0.00825643)
(-0.00483104 -0.00202151 0.00939794)
(-0.0022055 -0.00315114 0.0104137)
(0.00138032 -0.0038854 0.0112056)
(0.00518714 -0.00403929 0.011534)
(0.00777438 -0.0037171 0.011076)
(0.00804148 -0.00340211 0.00985738)
(0.00634649 -0.00335349 0.00811599)
(0.00365246 -0.00353428 0.00616379)
(0.00081118 -0.00378662 0.00421595)
(-0.00171483 -0.00396283 0.00238712)
(-0.0037891 -0.00397581 0.000724153)
(-0.0054145 -0.00380147 -0.000765809)
(-0.00662251 -0.00345492 -0.00210897)
(-0.00743712 -0.00295435 -0.00335822)
(-0.00786515 -0.00229841 -0.00457405)
(-0.00789104 -0.00146661 -0.00579936)
(-0.00746939 -0.000441212 -0.00703889)
(-0.00650702 0.000755874 -0.00825643)
(-0.00483104 0.00202151 -0.00939794)
(-0.0022055 0.00315114 -0.0104137)
(0.00138032 0.0038854 -0.0112056)
(0.00518714 0.00403929 -0.011534)
(0.00644795 0.00327503 -0.0106693)
(0.00671037 0.0031758 -0.00968195)
(0.00578492 0.00338135 -0.00827954)
(0.00405108 0.00384338 -0.00655944)
(0.00197093 0.00436986 -0.004682)
(-7.25046e-05 0.00478255 -0.00279036)
(-0.00185947 0.00497919 -0.000961056)
(-0.00330012 0.00492556 0.000775313)
(-0.00436764 0.00462537 0.00241018)
(-0.00505487 0.00409458 0.00394861)
(-0.00535385 0.00334717 0.00540109)
(-0.00524641 0.00239394 0.00677083)
(-0.00469998 0.00125392 0.0080418)
(-0.00366733 -2.43811e-05 0.00917552)
(-0.00209419 -0.0013352 0.0101207)
(3.47055e-05 -0.00249201 0.0108235)
(0.00254623 -0.00325479 0.0112114)
(0.00491539 -0.00346428 0.0111866)
(0.00644795 -0.00327503 0.0106693)
(0.00671037 -0.0031758 0.00968195)
(0.00578492 -0.00338135 0.00827954)
(0.00405108 -0.00384338 0.00655944)
(0.00197093 -0.00436986 0.004682)
(-7.25046e-05 -0.00478255 0.00279036)
(-0.00185947 -0.00497919 0.000961056)
(-0.00330012 -0.00492556 -0.000775313)
(-0.00436764 -0.00462537 -0.00241018)
(-0.00505487 -0.00409458 -0.00394861)
(-0.00535385 -0.00334717 -0.00540109)
(-0.00524641 -0.00239394 -0.00677083)
(-0.00469998 -0.00125392 -0.0080418)
(-0.00366733 2.43811e-05 -0.00917552)
(-0.00209419 0.0013352 -0.0101207)
(3.47056e-05 0.00249201 -0.0108235)
(0.00254623 0.00325479 -0.0112114)
(0.00491539 0.00346428 -0.0111866)
(0.00519598 0.00311891 -0.0103052)
(0.00556092 0.00317613 -0.00955686)
(0.00539414 0.00350039 -0.00839419)
(0.00458939 0.00410543 -0.0068423)
(0.00325181 0.00481892 -0.00503095)
(0.00167541 0.00542793 -0.00310774)
(0.000154778 0.00579847 -0.00116072)
(-0.00113117 0.00587197 0.000770215)
(-0.00209643 0.00562768 0.00264943)
(-0.00269905 0.00507127 0.00443421)
(-0.00291282 0.00423059 0.00608157)
(-0.00271489 0.00315061 0.00755225)
(-0.00208583 0.00189089 0.00880905)
(-0.0010276 0.000528021 0.00981369)
(0.000389457 -0.000831176 0.0105247)
(0.00196343 -0.00201866 0.0109037)
(0.00339538 -0.00281998 0.0109499)
(0.00447496 -0.00313028 0.0107293)
(0.00519598 -0.00311891 0.0103052)
(0.00556092 -0.00317613 0.00955686)
(0.00539414 -0.00350039 0.00839419)
(0.00458939 -0.00410543 0.0068423)
(0.00325181 -0.00481892 0.00503095)
(0.00167541 -0.00542793 0.00310774)
(0.000154778 -0.00579847 0.00116072)
(-0.00113117 -0.00587197 -0.000770215)
(-0.00209643 -0.00562768 -0.00264943)
(-0.00269905 -0.00507127 -0.00443421)
(-0.00291282 -0.00423059 -0.00608157)
(-0.00271489 -0.00315061 -0.00755225)
(-0.00208583 -0.00189089 -0.00880905)
(-0.0010276 -0.000528021 -0.00981369)
(0.000389457 0.000831176 -0.0105247)
(0.00196343 0.00201866 -0.0109037)
(0.00339538 0.00281998 -0.0109499)
(0.00447496 0.00313028 -0.0107293)
(0.00867343 0.0048107 -0.0116158)
(0.00871696 0.00422983 -0.0104317)
(0.00676522 0.00389196 -0.00878171)
(0.00372066 0.0037906 -0.00688536)
(0.00052791 0.00376344 -0.00493609)
(-0.00229896 0.00369197 -0.00304035)
(-0.00462609 0.00350652 -0.0012355)
(-0.00645653 0.00316684 0.000466362)
(-0.00780528 0.00265888 0.00206478)
(-0.0086747 0.00198141 0.00357327)
(-0.00905403 0.00113213 0.00501433)
(-0.00891594 0.000106575 0.00640435)
(-0.00820631 -0.00108567 0.0077405)
(-0.00682361 -0.00239111 0.00900477)
(-0.00459626 -0.00368051 0.0101824)
(-0.00135825 -0.00474129 0.0112347)
(0.00265247 -0.00533028 0.0119872)
(0.0064202 -0.00530968 0.0121616)
(0.00867343 -0.0048107 0.0116158)
(0.00871696 -0.00422983 0.0104317)
(0.00676522 -0.00389196 0.00878171)
(0.00372066 -0.0037906 0.00688536)
(0.00052791 -0.00376344 0.00493609)
(-0.00229896 -0.00369197 0.00304035)
(-0.00462609 -0.00350652 0.0012355)
(-0.00645653 -0.00316684 -0.000466362)
(-0.00780528 -0.00265888 -0.00206478)
(-0.0086747 -0.00198141 -0.00357327)
(-0.00905403 -0.00113213 -0.00501433)
(-0.00891594 -0.000106575 -0.00640435)
(-0.00820631 0.00108567 -0.0077405)
(-0.00682361 0.00239111 -0.00900477)
(-0.00459626 0.00368051 -0.0101824)
(-0.00135825 0.00474129 -0.0112347)
(0.00265247 0.00533028 -0.0119872)
(0.0064202 0.00530968 -0.0121616)
(0.0074752 0.00405951 -0.0114937)
(0.00765647 0.00398026 -0.010474)
(0.0065734 0.00409585 -0.00897283)
(0.00460065 0.00437273 -0.00713867)
(0.00225473 0.00465843 -0.00516266)
(-4.40144e-05 0.00483163 -0.00317791)
(-0.00206214 0.0048242 -0.00123599)
(-0.00369707 0.00460073 0.000643022)
(-0.00490478 0.00414932 0.00243981)
(-0.00566175 0.00347573 0.00413738)
(-0.00594798 0.0025959 0.00572509)
(-0.0057378 0.00153297 0.0071935)
(-0.00499445 0.000324129 0.00852598)
(-0.00366976 -0.000963215 0.00969782)
(-0.00172084 -0.00221342 0.0106854)
(0.00080564 -0.00325775 0.0114566)
(0.00358914 -0.00391904 0.0119253)
(0.00601141 -0.0041339 0.0119682)
(0.0074752 -0.00405951 0.0114937)
(0.00765647 -0.00398026 0.010474)
(0.0065734 -0.00409585 0.00897283)
(0.00460065 -0.00437273 0.00713867)
(0.00225473 -0.00465843 0.00516266)
(-4.40144e-05 -0.00483163 0.00317791)
(-0.00206214 -0.0048242 0.00123599)
(-0.00369707 -0.00460073 -0.000643022)
(-0.00490478 -0.00414932 -0.00243981)
(-0.00566175 -0.00347573 -0.00413738)
(-0.00594798 -0.0025959 -0.00572509)
(-0.0057378 -0.00153297 -0.0071935)
(-0.00499445 -0.000324129 -0.00852598)
(-0.00366976 0.000963215 -0.00969782)
(-0.00172084 0.00221342 -0.0106854)
(0.00080564 0.00325775 -0.0114566)
(0.00358914 0.00391904 -0.0119253)
(0.00601141 0.0041339 -0.0119682)
(0.00635412 0.00367888 -0.0116215)
(0.00672253 0.0040697 -0.0107217)
(0.00650325 0.00452484 -0.00925705)
(0.00558878 0.00504276 -0.00740718)
(0.00408278 0.00553465 -0.00538121)
(0.00229908 0.00588691 -0.0033206)
(0.000568511 0.00602412 -0.00127663)
(-0.000900389 0.00590375 0.000737079)
(-0.00200319 0.00550474 0.00269253)
(-0.00268684 0.00483197 0.00454561)
(-0.00291848 0.00391568 0.00625182)
(-0.00267212 0.0028053 0.00777399)
(-0.00192868 0.0015662 0.00908109)
(-0.000695782 0.000281366 0.0101478)
(0.000936898 -0.000946028 0.0109614)
(0.00272488 -0.00199508 0.0115273)
(0.00433154 -0.00276968 0.0118632)
(0.00554874 -0.00328644 0.0119438)
(0.00635412 -0.00367888 0.0116215)
(0.00672253 -0.0040697 0.0107217)
(0.00650325 -0.00452484 0.00925705)
(0.00558878 -0.00504276 0.00740718)
(0.00408278 -0.00553465 0.00538121)
(0.00229908 -0.00588691 0.0033206)
(0.000568511 -0.00602412 0.00127663)
(-0.000900389 -0.00590375 -0.000737079)
(-0.00200319 -0.00550474 -0.00269253)
(-0.00268684 -0.00483197 -0.00454561)
(-0.00291848 -0.00391568 -0.00625182)
(-0.00267212 -0.0028053 -0.00777399)
(-0.00192868 -0.0015662 -0.00908109)
(-0.000695782 -0.000281366 -0.0101478)
(0.000936898 0.000946027 -0.0109614)
(0.00272488 0.00199508 -0.0115273)
(0.00433154 0.00276968 -0.0118632)
(0.00554874 0.00328644 -0.0119438)
(0.00839366 0.00517861 -0.0113193)
(0.00828901 0.00449801 -0.0102923)
(0.00638296 0.00396778 -0.00883741)
(0.00343854 0.00358306 -0.00711056)
(0.000302187 0.00323909 -0.00528215)
(-0.00252812 0.00287326 -0.00345813)
(-0.00490541 0.00244771 -0.00167094)
(-0.00680944 0.0019202 7.10863e-05)
(-0.00822288 0.00125584 0.00175537)
(-0.00911508 0.000436757 0.00336701)
(-0.00944939 -0.000538703 0.00489519)
(-0.00918317 -0.00165477 0.00633159)
(-0.00825898 -0.00286665 0.00766824)
(-0.00659065 -0.00408138 0.0089044)
(-0.00406823 -0.00514636 0.0100443)
(-0.000683529 -0.00586829 0.0110329)
(0.00315063 -0.00609066 0.0116872)
(0.00650609 -0.00580294 0.0118044)
(0.00839366 -0.00517861 0.0113193)
(0.00828901 -0.00449801 0.0102923)
(0.00638296 -0.00396778 0.00883741)
(0.00343854 -0.00358306 0.00711056)
(0.000302187 -0.00323909 0.00528215)
(-0.00252812 -0.00287326 0.00345813)
(-0.00490541 -0.00244771 0.00167094)
(-0.00680944 -0.0019202 -7.10863e-05)
(-0.00822288 -0.00125584 -0.00175537)
(-0.00911508 -0.000436757 -0.00336701)
(-0.00944939 0.000538703 -0.00489519)
(-0.00918317 0.00165477 -0.00633159)
(-0.00825898 0.00286665 -0.00766824)
(-0.00659065 0.00408138 -0.0089044)
(-0.00406823 0.00514636 -0.0100443)
(-0.000683529 0.00586829 -0.0110329)
(0.00315063 0.00609066 -0.0116872)
(0.00650609 0.00580294 -0.0118044)
(0.00746771 0.00437685 -0.0114546)
(0.0075548 0.00435346 -0.0105146)
(0.00648393 0.00439904 -0.00907363)
(0.00457526 0.00446219 -0.00729045)
(0.00227451 0.00445942 -0.00536102)
(-2.89882e-05 0.0043456 -0.00341593)
(-0.00209628 0.00409644 -0.00149937)
(-0.00380108 0.00368527 0.000376818)
(-0.00507057 0.00309081 0.00219204)
(-0.00585633 0.00230933 0.00391673)
(-0.00612132 0.00135724 0.0055236)
(-0.00583181 0.000269976 0.00699155)
(-0.00495329 -0.00089456 0.00830427)
(-0.00345475 -0.00204808 0.009452)
(-0.00134091 -0.00307128 0.0104322)
(0.00125051 -0.0038371 0.0112209)
(0.00393837 -0.00426927 0.0117324)
(0.00617498 -0.00440188 0.0118448)
(0.00746771 -0.00437685 0.0114546)
(0.0075548 -0.00435346 0.0105146)
(0.00648393 -0.00439904 0.00907363)
(0.00457526 -0.00446219 0.00729045)
(0.00227451 -0.00445942 0.00536102)
(-2.89882e-05 -0.0043456 0.00341593)
(-0.00209628 -0.00409644 0.00149937)
(-0.00380108 -0.00368527 -0.000376818)
(-0.00507057 -0.00309081 -0.00219204)
(-0.00585633 -0.00230933 -0.00391673)
(-0.00612132 -0.00135724 -0.0055236)
(-0.00583181 -0.000269976 -0.00699155)
(-0.00495329 0.00089456 -0.00830427)
(-0.00345475 0.00204808 -0.009452)
(-0.00134091 0.00307128 -0.0104322)
(0.00125051 0.0038371 -0.0112209)
(0.00393837 0.00426927 -0.0117324)
(0.00617498 0.00440188 -0.0118448)
(0.00656608 0.00397848 -0.0119761)
(0.00689585 0.00460752 -0.0110609)
(0.00666901 0.00514123 -0.00951615)
(0.00578983 0.00553009 -0.00758876)
(0.00432176 0.00575984 -0.00552226)
(0.00253421 0.00581924 -0.00345766)
(0.00075717 0.00569735 -0.00143596)
(-0.000775115 0.00537516 0.000541827)
(-0.00193362 0.00483545 0.00245812)
(-0.0026489 0.00408098 0.00427379)
(-0.00287942 0.00314053 0.005946)
(-0.00259771 0.00206557 0.00743966)
(-0.00179175 0.000926449 0.00873061)
(-0.000487838 -0.000190933 0.00980963)
(0.00119306 -0.00119894 0.0106904)
(0.00298596 -0.00204027 0.0113996)
(0.004577 -0.00272643 0.0119379)
(0.00578335 -0.00334381 0.0122061)
(0.00656608 -0.00397848 0.0119761)
(0.00689585 -0.00460752 0.0110609)
(0.00666901 -0.00514123 0.00951615)
(0.00578983 -0.00553009 0.00758876)
(0.00432176 -0.00575984 0.00552226)
(0.00253421 -0.00581924 0.00345766)
(0.00075717 -0.00569735 0.00143596)
(-0.000775115 -0.00537516 -0.000541827)
(-0.00193362 -0.00483545 -0.00245812)
(-0.0026489 -0.00408098 -0.00427379)
(-0.00287942 -0.00314053 -0.005946)
(-0.00259771 -0.00206557 -0.00743966)
(-0.00179175 -0.000926449 -0.00873061)
(-0.000487838 0.000190933 -0.00980963)
(0.00119306 0.00119894 -0.0106904)
(0.00298596 0.00204027 -0.0113996)
(0.004577 0.00272643 -0.0119379)
(0.00578335 0.00334381 -0.0122061)
(0.00725621 0.00515508 -0.0105164)
(0.00715671 0.00433776 -0.00973655)
(0.00550003 0.00360498 -0.00855511)
(0.00287869 0.00294904 -0.00707336)
(-2.66229e-06 0.00231419 -0.00543572)
(-0.00267515 0.00167535 -0.0037605)
(-0.00496833 0.0010196 -0.0020931)
(-0.00683815 0.000314973 -0.000439113)
(-0.00824215 -0.000478517 0.00119117)
(-0.00912215 -0.00138672 0.00277304)
(-0.00941886 -0.00240914 0.00427632)
(-0.0090795 -0.00351225 0.00567485)
(-0.00805527 -0.00462234 0.00695503)
(-0.00629655 -0.00562068 0.00812238)
(-0.00377476 -0.00635278 0.00918293)
(-0.000599322 -0.00666885 0.0100815)
(0.00279522 -0.00650625 0.010678)
(0.005665 -0.00594243 0.0108382)
(0.00725621 -0.00515508 0.0105164)
(0.00715671 -0.00433776 0.00973655)
(0.00550003 -0.00360498 0.00855511)
(0.00287869 -0.00294904 0.00707336)
(-2.66228e-06 -0.00231419 0.00543572)
(-0.00267515 -0.00167535 0.0037605)
(-0.00496833 -0.0010196 0.0020931)
(-0.00683815 -0.000314974 0.000439113)
(-0.00824215 0.000478517 -0.00119117)
(-0.00912215 0.00138672 -0.00277304)
(-0.00941886 0.00240914 -0.00427632)
(-0.0090795 0.00351225 -0.00567485)
(-0.00805527 0.00462234 -0.00695503)
(-0.00629655 0.00562068 -0.00812238)
(-0.00377476 0.00635278 -0.00918293)
(-0.000599322 0.00666885 -0.0100815)
(0.00279522 0.00650625 -0.010678)
(0.005665 0.00594243 -0.0108382)
(0.00661422 0.00442029 -0.0108)
(0.00668537 0.00432591 -0.0100267)
(0.00575649 0.00423069 -0.00877574)
(0.00407373 0.00407208 -0.00717701)
(0.00199112 0.00380516 -0.00540353)
(-0.000156719 0.00342924 -0.00358847)
(-0.0021368 0.00295382 -0.00178868)
(-0.00380502 0.00236961 -1.75836e-05)
(-0.00506387 0.00165736 0.00170854)
(-0.00584188 0.00080956 0.00335881)
(-0.0060861 -0.000157108 0.00489831)
(-0.00575801 -0.00119813 0.00629858)
(-0.00483288 -0.00224048 0.00754378)
(-0.00330946 -0.0031854 0.00863376)
(-0.00124664 -0.0039246 0.00957547)
(0.00116386 -0.0043794 0.0103494)
(0.00356193 -0.00455001 0.0108821)
(0.00550591 -0.00452251 0.011066)
(0.00661422 -0.00442029 0.0108)
(0.00668537 -0.00432591 0.0100267)
(0.00575649 -0.00423069 0.00877574)
(0.00407373 -0.00407208 0.00717701)
(0.00199112 -0.00380516 0.00540353)
(-0.000156719 -0.00342924 0.00358847)
(-0.0021368 -0.00295382 0.00178868)
(-0.00380502 -0.00236961 1.75836e-05)
(-0.00506387 -0.00165736 -0.00170854)
(-0.00584188 -0.00080956 -0.00335881)
(-0.0060861 0.000157108 -0.00489831)
(-0.00575801 0.00119813 -0.00629858)
(-0.00483288 0.00224048 -0.00754378)
(-0.00330946 0.0031854 -0.00863376)
(-0.00124664 0.0039246 -0.00957547)
(0.00116386 0.0043794 -0.0103494)
(0.00356193 0.00455001 -0.0108821)
(0.00550591 0.00452251 -0.011066)
(0.00593398 0.00410403 -0.0115756)
(0.00623123 0.00475662 -0.0107501)
(0.00605471 0.00523678 -0.00930911)
(0.00531337 0.00546706 -0.00749231)
(0.00402836 0.005461 -0.00553105)
(0.00239759 0.00526292 -0.00356548)
(0.000715143 0.00490996 -0.00164695)
(-0.000773225 0.0044102 0.000219228)
(-0.00191493 0.00375652 0.00202215)
(-0.00262264 0.00295227 0.00373089)
(-0.00284554 0.00202437 0.00530776)
(-0.00255599 0.00102402 0.00672184)
(-0.0017527 2.23045e-05 0.00795637)
(-0.000485528 -0.000900501 0.00901493)
(0.00109795 -0.00168085 0.00992271)
(0.00273891 -0.00231109 0.0107059)
(0.00416955 -0.00286005 0.0113464)
(0.00524274 -0.00343985 0.0117163)
(0.00593398 -0.00410403 0.0115756)
(0.00623123 -0.00475662 0.0107501)
(0.00605471 -0.00523678 0.00930911)
(0.00531337 -0.00546706 0.00749231)
(0.00402836 -0.005461 0.00553105)
(0.00239759 -0.00526292 0.00356548)
(0.000715143 -0.00490996 0.00164695)
(-0.000773225 -0.0044102 -0.000219228)
(-0.00191493 -0.00375652 -0.00202215)
(-0.00262264 -0.00295227 -0.00373089)
(-0.00284554 -0.00202437 -0.00530776)
(-0.00255599 -0.00102402 -0.00672184)
(-0.0017527 -2.23045e-05 -0.00795637)
(-0.000485528 0.000900501 -0.00901493)
(0.00109795 0.00168085 -0.00992271)
(0.00273891 0.00231109 -0.0107059)
(0.00416955 0.00286005 -0.0113464)
(0.00524274 0.00343985 -0.0117163)
(0.00550038 0.00502095 -0.00941295)
(0.00552922 0.00399057 -0.00893156)
(0.00424987 0.0030081 -0.00808663)
(0.00206937 0.00207922 -0.00692555)
(-0.000460407 0.00118011 -0.00554999)
(-0.00290113 0.000302547 -0.00407934)
(-0.00504153 -0.00055491 -0.00258606)
(-0.00680777 -0.00141205 -0.00108925)
(-0.00814459 -0.0023027 0.000402943)
(-0.00898253 -0.00325142 0.00186773)
(-0.00925251 -0.00425409 0.00327007)
(-0.00890154 -0.00526716 0.00457606)
(-0.00789807 -0.0062044 0.00576778)
(-0.0062327 -0.00694367 0.00684934)
(-0.00393868 -0.00734858 0.00782539)
(-0.00117009 -0.00731531 0.0086565)
(0.00170085 -0.00683699 0.00925094)
(0.00411267 -0.00601859 0.00951768)
(0.00550038 -0.00502095 0.00941295)
(0.00552922 -0.00399057 0.00893156)
(0.00424987 -0.0030081 0.00808663)
(0.00206937 -0.00207922 0.00692555)
(-0.000460407 -0.00118011 0.00554999)
(-0.00290113 -0.000302547 0.00407934)
(-0.00504153 0.00055491 0.00258606)
(-0.00680777 0.00141205 0.00108925)
(-0.00814459 0.0023027 -0.000402943)
(-0.00898253 0.00325142 -0.00186773)
(-0.00925251 0.00425409 -0.00327007)
(-0.00890154 0.00526716 -0.00457606)
(-0.00789807 0.0062044 -0.00576778)
(-0.0062327 0.00694367 -0.00684934)
(-0.00393868 0.00734858 -0.00782539)
(-0.00117009 0.00731531 -0.0086565)
(0.00170085 0.00683699 -0.00925094)
(0.00411267 0.00601859 -0.00951768)
(0.00514813 0.00435718 -0.00973572)
(0.00526576 0.00405928 -0.009186)