/*--------------------------------*- C++ -*----------------------------------*\
| =========                 |                                                 |
| \\      /  F ield         | OpenFOAM: The Open Source CFD Toolbox           |
|  \\    /   O peration     | Version:  2312                                  |
|   \\  /    A nd           | Website:  www.openfoam.com                      |
|    \\/     M anipulation  |                                                 |
\*---------------------------------------------------------------------------*/
FoamFile
{
    version     2.0;
    format      ascii;
    arch        "LSB;label=32;scalar=64";
    class       volVectorField;
    location    "0.9";
    object      D_0;
}
// * * * * * * * * * * * * * * * * * * * * * * * * * * * * * * * * * * * * * //

dimensions      [0 1 0 0 0 0 0];

internalField   nonuniform List<vector> 
1620
(
(0.000837532 -9.72636e-05 -0.00233719)
(0.00116642 0.000187364 -0.00217568)
(0.00120071 0.000504848 -0.00174042)
(0.00101491 0.000716989 -0.00115447)
(0.000730397 0.00079711 -0.000569634)
(0.000428302 0.000777358 -8.27827e-05)
(0.000146084 0.000693522 0.000272518)
(-0.000103809 0.000573986 0.000503501)
(-0.000321049 0.000443222 0.000639755)
(-0.000509776 0.000319516 0.000722106)
(-0.000672838 0.000209828 0.000793567)
(-0.000807086 0.000109809 0.000890984)
(-0.000900186 1.32174e-05 0.00103783)
(-0.00092926 -7.02962e-05 0.00123961)
(-0.000860021 -0.000101962 0.00148532)
(-0.00064607 -3.61633e-05 0.00175518)
(-0.000246558 0.000108216 0.00202336)
(0.00030403 0.000200128 0.00224657)
(0.000837532 9.72636e-05 0.00233719)
(0.00116642 -0.000187364 0.00217568)
(0.00120071 -0.000504848 0.00174042)
(0.00101491 -0.000716989 0.00115447)
(0.000730397 -0.00079711 0.000569634)
(0.000428302 -0.000777358 8.27827e-05)
(0.000146084 -0.000693522 -0.000272518)
(-0.000103809 -0.000573986 -0.000503501)
(-0.000321049 -0.000443222 -0.000639755)
(-0.000509776 -0.000319516 -0.000722106)
(-0.000672838 -0.000209828 -0.000793567)
(-0.000807086 -0.000109809 -0.000890984)
(-0.000900186 -1.32174e-05 -0.00103783)
(-0.00092926 7.02962e-05 -0.00123961)
(-0.000860021 0.000101962 -0.00148532)
(-0.00064607 3.61633e-05 -0.00175518)
(-0.000246558 -0.000108216 -0.00202336)
(0.00030403 -0.000200128 -0.00224657)
(0.00036874 0.00038306 -0.00208462)
(0.000498174 0.000440946 -0.00188354)
(0.000504966 0.000561508 -0.00158734)
(0.000391784 0.000716115 -0.00122148)
(0.000192699 0.000867794 -0.00082845)
(-4.6178e-05 0.000989793 -0.000446163)
(-0.000283863 0.0010661 -9.64381e-05)
(-0.000492008 0.00109115 0.000215492)
(-0.000655555 0.00106729 0.000496883)
(-0.000768743 0.000998399 0.000761727)
(-0.000829652 0.000884283 0.00102412)
(-0.000836503 0.000720112 0.00129178)
(-0.000787529 0.000502841 0.00156062)
(-0.000684055 0.000244023 0.00181213)
(-0.000532677 -1.80516e-05 0.0020182)
(-0.000340144 -0.00022453 0.00215443)
(-0.000107189 -0.000333379 0.00221101)
(0.000149154 -0.000364121 0.00218827)
(0.00036874 -0.00038306 0.00208462)
(0.000498174 -0.000440946 0.00188354)
(0.000504966 -0.000561508 0.00158734)
(0.000391784 -0.000716115 0.00122148)
(0.000192699 -0.000867794 0.00082845)
(-4.6178e-05 -0.000989793 0.000446163)
(-0.000283863 -0.0010661 9.64381e-05)
(-0.000492008 -0.00109115 -0.000215492)
(-0.000655555 -0.00106729 -0.000496883)
(-0.000768743 -0.000998399 -0.000761727)
(-0.000829652 -0.000884283 -0.00102412)
(-0.000836503 -0.000720112 -0.00129178)
(-0.000787529 -0.000502841 -0.00156062)
(-0.000684055 -0.000244023 -0.00181213)
(-0.000532677 1.80516e-05 -0.0020182)
(-0.000340144 0.00022453 -0.00215443)
(-0.000107189 0.000333379 -0.00221101)
(0.000149154 0.000364121 -0.00218827)
(1.73871e-05 0.000629032 -0.00186092)
(2.62161e-05 0.000545129 -0.00165264)
(1.79301e-05 0.000545436 -0.00146809)
(-4.09395e-05 0.000685231 -0.00127207)
(-0.000177394 0.000932543 -0.0010288)
(-0.000379528 0.00121599 -0.000724106)
(-0.000606409 0.00146962 -0.000363338)
(-0.000813514 0.00165019 3.94385e-05)
(-0.000968616 0.00173446 0.000468462)
(-0.00105339 0.00171153 0.000907058)
(-0.00105873 0.00157767 0.00133587)
(-0.000981721 0.00133494 0.00173131)
(-0.000828002 0.000993084 0.00206484)
(-0.000618605 0.000575232 0.00230458)
(-0.000394071 0.000126218 0.00242275)
(-0.000203177 -0.000282158 0.00240984)
(-7.54686e-05 -0.00056449 0.00228464)
(-8.61965e-06 -0.000669628 0.00208593)
(1.73871e-05 -0.000629032 0.00186092)
(2.62161e-05 -0.000545129 0.00165264)
(1.79301e-05 -0.000545436 0.00146809)
(-4.09395e-05 -0.000685231 0.00127207)
(-0.000177394 -0.000932543 0.0010288)
(-0.000379528 -0.00121599 0.000724106)
(-0.000606409 -0.00146962 0.000363338)
(-0.000813514 -0.00165019 -3.94385e-05)
(-0.000968616 -0.00173446 -0.000468462)
(-0.00105339 -0.00171153 -0.000907058)
(-0.00105873 -0.00157767 -0.00133587)
(-0.000981721 -0.00133494 -0.00173131)
(-0.000828002 -0.000993084 -0.00206484)
(-0.000618605 -0.000575232 -0.00230458)
(-0.000394071 -0.000126218 -0.00242275)
(-0.000203177 0.000282158 -0.00240984)
(-7.54686e-05 0.00056449 -0.00228464)
(-8.61965e-06 0.000669628 -0.00208593)
(0.00258082 0.000505814 -0.00615974)
(0.00333775 0.000924835 -0.00549205)
(0.00317637 0.00142244 -0.00436198)
(0.00238116 0.00184106 -0.00303786)
(0.0013328 0.00214804 -0.00175059)
(0.000284586 0.00232969 -0.00063259)
(-0.000645624 0.00237398 0.000266387)
(-0.00142363 0.00229526 0.000953785)
(-0.00205412 0.00213091 0.00148037)
(-0.002552 0.00191442 0.0019241)
(-0.00292464 0.00165339 0.00236803)
(-0.00316113 0.00132708 0.00287762)
(-0.00322724 0.000906894 0.00348063)
(-0.00306517 0.000398825 0.00415565)
(-0.00259801 -0.000105737 0.00484101)
(-0.00174255 -0.00042922 0.00546901)
(-0.000453819 -0.000456544 0.00597823)
(0.00114076 -0.000358798 0.00625317)
(0.00258082 -0.000505814 0.00615974)
(0.00333775 -0.000924835 0.00549205)
(0.00317637 -0.00142244 0.00436198)
(0.00238116 -0.00184106 0.00303786)
(0.0013328 -0.00214804 0.00175059)
(0.000284586 -0.00232969 0.00063259)
(-0.000645624 -0.00237398 -0.000266387)
(-0.00142363 -0.00229526 -0.000953785)
(-0.00205412 -0.00213091 -0.00148037)
(-0.002552 -0.00191442 -0.0019241)
(-0.00292464 -0.00165339 -0.00236803)
(-0.00316113 -0.00132708 -0.00287762)
(-0.00322724 -0.000906894 -0.00348063)
(-0.00306517 -0.000398825 -0.00415565)
(-0.00259801 0.000105737 -0.00484101)
(-0.00174255 0.00042922 -0.00546901)
(-0.000453819 0.000456544 -0.00597823)
(0.00114076 0.000358798 -0.00625317)
(0.00173499 0.00123361 -0.00586495)
(0.00218024 0.00129608 -0.00529913)
(0.00212523 0.00154739 -0.00448415)
(0.00161884 0.00193104 -0.00349107)
(0.000845599 0.00235767 -0.00241018)
(-7.83809e-06 0.00272524 -0.0013312)
(-0.00080865 0.00295918 -0.000318585)
(-0.00148464 0.00303327 0.000601506)
(-0.00200706 0.00295545 0.0014373)
(-0.00236833 0.00274141 0.00221674)
(-0.00256481 0.0023975 0.00297015)
(-0.00258746 0.00191891 0.00371504)
(-0.0024209 0.00130235 0.00444438)
(-0.00205148 0.000571902 0.0051199)
(-0.00148331 -0.000188062 0.00567728)
(-0.000751659 -0.000821494 0.00605221)
(8.89844e-05 -0.00117479 0.0062161)
(0.000970799 -0.00124537 0.00616003)
(0.00173499 -0.00123361 0.00586495)
(0.00218024 -0.00129608 0.00529913)
(0.00212523 -0.00154739 0.00448415)
(0.00161884 -0.00193104 0.00349107)
(0.000845599 -0.00235767 0.00241018)
(-7.83809e-06 -0.00272524 0.0013312)
(-0.00080865 -0.00295918 0.000318585)
(-0.00148464 -0.00303327 -0.000601506)
(-0.00200706 -0.00295545 -0.0014373)
(-0.00236833 -0.00274141 -0.00221674)
(-0.00256481 -0.0023975 -0.00297015)
(-0.00258746 -0.00191891 -0.00371504)
(-0.0024209 -0.00130235 -0.00444438)
(-0.00205148 -0.000571902 -0.0051199)
(-0.00148331 0.000188062 -0.00567728)
(-0.000751659 0.000821494 -0.00605221)
(8.89844e-05 0.00117479 -0.0062161)
(0.000970799 0.00124537 -0.00616003)
(0.00100656 0.00168474 -0.00544284)
(0.00122983 0.00150035 -0.00500996)
(0.00128255 0.00156929 -0.00450144)
(0.00104569 0.00194121 -0.0038228)
(0.000527598 0.00250214 -0.0029457)
(-0.000155128 0.00307519 -0.0019154)
(-0.000858698 0.00352132 -0.000803619)
(-0.00147319 0.0037679 0.000334353)
(-0.00193465 0.00378662 0.00146429)
(-0.00221052 0.00357127 0.00255926)
(-0.00228374 0.00312908 0.00358971)
(-0.00214504 0.00247945 0.00452057)
(-0.00179598 0.00165596 0.0053111)
(-0.00126485 0.000712303 0.00591465)
(-0.000631278 -0.000263431 0.00628034)
(-3.11087e-05 -0.00112743 0.00636955)
(0.000416695 -0.00169197 0.00620031)
(0.000729531 -0.00183671 0.00586432)
(0.00100656 -0.00168474 0.00544284)
(0.00122983 -0.00150035 0.00500996)
(0.00128255 -0.00156929 0.00450144)
(0.00104569 -0.00194121 0.0038228)
(0.000527598 -0.00250214 0.0029457)
(-0.000155128 -0.00307519 0.0019154)
(-0.000858698 -0.00352132 0.000803619)
(-0.00147319 -0.0037679 -0.000334353)
(-0.00193465 -0.00378662 -0.00146429)
(-0.00221052 -0.00357127 -0.00255926)
(-0.00228374 -0.00312908 -0.00358971)
(-0.00214504 -0.00247945 -0.00452057)
(-0.00179598 -0.00165596 -0.0053111)
(-0.00126485 -0.000712303 -0.00591465)
(-0.000631278 0.000263431 -0.00628034)
(-3.11087e-05 0.00112743 -0.00636955)
(0.000416695 0.00169197 -0.00620031)
(0.000729531 0.00183671 -0.00586432)
(0.00526448 0.00205012 -0.00919721)
(0.00594213 0.00230309 -0.00815913)
(0.00502475 0.00261004 -0.00655911)
(0.00322584 0.00294705 -0.00475759)
(0.00119432 0.00328529 -0.00300842)
(-0.000689572 0.00353275 -0.00143564)
(-0.00227777 0.00361467 -8.86021e-05)
(-0.0035476 0.0035214 0.00103513)
(-0.00452149 0.0032865 0.00198513)
(-0.00522573 0.00294174 0.00284308)
(-0.00567165 0.00248955 0.00369595)
(-0.005847 0.00190316 0.00460745)
(-0.00571057 0.00115169 0.00559491)
(-0.00518302 0.000245599 0.0066206)
(-0.00413159 -0.00070827 0.0076095)
(-0.00238725 -0.00148444 0.00848916)
(9.10208e-05 -0.00186431 0.00918885)
(0.00292116 -0.0019148 0.00950435)
(0.00526448 -0.00205012 0.00919721)
(0.00594213 -0.00230309 0.00815913)
(0.00502475 -0.00261004 0.00655911)
(0.00322584 -0.00294705 0.00475759)
(0.00119432 -0.00328529 0.00300842)
(-0.000689572 -0.00353275 0.00143564)
(-0.00227777 -0.00361467 8.86021e-05)
(-0.0035476 -0.0035214 -0.00103513)
(-0.00452149 -0.0032865 -0.00198513)
(-0.00522573 -0.00294174 -0.00284308)
(-0.00567165 -0.00248955 -0.00369595)
(-0.005847 -0.00190316 -0.00460745)
(-0.00571057 -0.00115169 -0.00559491)
(-0.00518302 -0.000245599 -0.0066206)
(-0.00413159 0.00070827 -0.0076095)
(-0.00238725 0.00148444 -0.00848916)
(9.10208e-05 0.00186431 -0.00918885)
(0.00292116 0.0019148 -0.00950435)
(0.00406303 0.00231998 -0.00877739)
(0.00456548 0.00234878 -0.00793003)
(0.004113 0.00260267 -0.00674024)
(0.00296168 0.00307124 -0.00529088)
(0.00147168 0.00362733 -0.00370349)
(-4.89708e-05 0.00410091 -0.00210436)
(-0.00140818 0.00437678 -0.000580398)
(-0.00251917 0.00441924 0.000832644)
(-0.00335575 0.00423936 0.00213788)
(-0.003914 0.00385765 0.00335967)
(-0.00419025 0.00328514 0.0045254)
(-0.00417106 0.00252326 0.00564883)
(-0.0038307 0.00157865 0.00671755)
(-0.00313448 0.000489838 0.00768803)
(-0.0020501 -0.000637592 0.00849158)
(-0.00058052 -0.00160699 0.00905268)
(0.00116022 -0.00220023 0.00931644)
(0.00284307 -0.00236768 0.00924477)
(0.00406303 -0.00231998 0.00877739)
(0.00456548 -0.00234878 0.00793003)
(0.004113 -0.00260267 0.00674024)
(0.00296168 -0.00307124 0.00529088)
(0.00147168 -0.00362733 0.00370349)
(-4.89708e-05 -0.00410091 0.00210436)
(-0.00140818 -0.00437678 0.000580398)
(-0.00251917 -0.00441924 -0.000832644)
(-0.00335575 -0.00423936 -0.00213788)
(-0.003914 -0.00385765 -0.00335967)
(-0.00419025 -0.00328514 -0.0045254)
(-0.00417106 -0.00252326 -0.00564883)
(-0.0038307 -0.00157865 -0.00671755)
(-0.00313448 -0.000489838 -0.00768803)
(-0.0020501 0.000637592 -0.00849158)
(-0.00058052 0.00160699 -0.00905268)
(0.00116022 0.00220023 -0.00931644)
(0.00284307 0.00236768 -0.00924477)
(0.00303758 0.00246423 -0.00818059)
(0.00343178 0.00232745 -0.00759337)
(0.00339981 0.00251182 -0.00676847)
(0.00285503 0.00305514 -0.00563417)
(0.00188412 0.00379142 -0.00421646)
(0.000707989 0.0044817 -0.00262724)
(-0.000446531 0.00496141 -0.000974373)
(-0.00143191 0.00515875 0.000679464)
(-0.00217288 0.00505063 0.00229588)
(-0.00263239 0.00463855 0.00383922)
(-0.0027887 0.00394234 0.00527114)
(-0.00262504 0.00299818 0.00655124)
(-0.00213097 0.00185842 0.0076373)
(-0.00131919 0.000595282 0.00848288)
(-0.000261618 -0.000682905 0.00903197)
(0.000871021 -0.00179769 0.00922412)
(0.0018422 -0.00251217 0.0090523)
(0.0025068 -0.0026821 0.00865269)
(0.00303758 -0.00246423 0.00818059)
(0.00343178 -0.00232745 0.00759337)
(0.00339981 -0.00251182 0.00676847)
(0.00285503 -0.00305514 0.00563417)
(0.00188412 -0.00379142 0.00421646)
(0.000707989 -0.0044817 0.00262724)
(-0.000446531 -0.00496141 0.000974373)
(-0.00143191 -0.00515875 -0.000679464)
(-0.00217288 -0.00505063 -0.00229588)
(-0.00263239 -0.00463855 -0.00383922)
(-0.0027887 -0.00394234 -0.00527114)
(-0.00262504 -0.00299818 -0.00655124)
(-0.00213097 -0.00185842 -0.0076373)
(-0.00131919 -0.000595282 -0.00848288)
(-0.000261618 0.000682905 -0.00903197)
(0.000871021 0.00179769 -0.00922412)
(0.0018422 0.00251217 -0.0090523)
(0.0025068 0.0026821 -0.00865269)
(0.00772328 0.00382527 -0.0110092)
(0.00797075 0.00350635 -0.009774)
(0.00627273 0.00344566 -0.00802068)
(0.00358627 0.00360722 -0.00605945)
(0.00075619 0.00383642 -0.004105)
(-0.00175834 0.00398843 -0.00227262)
(-0.00382144 0.00397782 -0.000609707)
(-0.0054362 0.00378137 0.000876701)
(-0.00663441 0.00341446 0.00221329)
(-0.00744036 0.00289538 0.00345336)
(-0.00786095 0.00222299 0.00465764)
(-0.00788062 0.00137727 0.00586909)
(-0.00745377 0.000341175 0.00709263)
(-0.00648688 -0.000862603 0.00829259)
(-0.00480702 -0.00213058 0.00941572)
(-0.00218148 -0.00325911 0.0104124)
(0.00139158 -0.00399166 0.0111831)
(0.00516921 -0.00414609 0.0114885)
(0.00772328 -0.00382527 0.0110092)
(0.00797075 -0.00350635 0.009774)
(0.00627273 -0.00344566 0.00802068)
(0.00358627 -0.00360722 0.00605945)
(0.00075619 -0.00383642 0.004105)
(-0.00175834 -0.00398843 0.00227262)
(-0.00382144 -0.00397782 0.000609707)
(-0.0054362 -0.00378137 -0.000876701)
(-0.00663441 -0.00341446 -0.00221329)
(-0.00744036 -0.00289538 -0.00345336)
(-0.00786095 -0.00222299 -0.00465764)
(-0.00788062 -0.00137727 -0.00586909)
(-0.00745377 -0.000341175 -0.00709263)
(-0.00648688 0.000862603 -0.00829259)
(-0.00480702 0.00213058 -0.00941572)
(-0.00218148 0.00325911 -0.0104124)
(0.00139158 0.00399166 -0.0111831)
(0.00516921 0.00414609 -0.0114885)
(0.00639725 0.00338 -0.0106105)
(0.00664718 0.00327597 -0.00960617)
(0.00571785 0.00346921 -0.00818969)
(0.00398761 0.00391193 -0.00645944)
(0.00191554 0.00441525 -0.00457547)
(-0.000118307 0.00480383 -0.00268059)
(-0.00189562 0.00497701 -0.000851619)
(-0.00332706 0.00490138 0.000880715)
(-0.00438603 0.00458111 0.0025082)
(-0.00506552 0.0040325 0.00403647)
(-0.00535769 0.0032698 0.00547654)
(-0.00524451 0.00230412 0.00683206)
(-0.00469364 0.00115482 0.00808749)
(-0.00365834 -0.000129347 0.00920499)
(-0.0020855 -0.00144263 0.0101339)
(3.75772e-05 -0.00259905 0.0108199)
(0.00253506 -0.00336031 0.01119)
(0.00488408 -0.00356931 0.0111463)
(0.00639725 -0.00338 0.0106105)
(0.00664718 -0.00327597 0.00960617)
(0.00571785 -0.00346921 0.00818969)
(0.00398761 -0.00391193 0.00645944)
(0.00191554 -0.00441525 0.00457547)
(-0.000118307 -0.00480383 0.00268059)
(-0.00189562 -0.00497701 0.000851619)
(-0.00332706 -0.00490138 -0.000880715)
(-0.00438603 -0.00458111 -0.0025082)
(-0.00506552 -0.0040325 -0.00403647)
(-0.00535769 -0.0032698 -0.00547654)
(-0.00524451 -0.00230412 -0.00683206)
(-0.00469364 -0.00115482 -0.00808749)
(-0.00365834 0.000129347 -0.00920499)
(-0.0020855 0.00144263 -0.0101339)
(3.75772e-05 0.00259905 -0.0108199)
(0.00253506 0.00336031 -0.01119)
(0.00488408 0.00356931 -0.0111463)
(0.00514549 0.0032178 -0.0102557)
(0.00550312 0.00326928 -0.00948845)
(0.00533142 0.00358166 -0.0083104)
(0.00452652 0.00416846 -0.00674813)
(0.003194 0.00485965 -0.00493062)
(0.00162546 0.0054453 -0.00300439)
(0.000113204 0.00579292 -0.0010576)
(-0.00116464 0.00584474 0.000869337)
(-0.00212218 0.00558075 0.0027409)
(-0.00271755 0.00500724 0.00451501)
(-0.00292468 0.00415248 0.00614954)
(-0.00272106 0.00306162 0.00760608)
(-0.00208797 0.00179412 0.00884827)
(-0.00102875 0.0004263 0.00983858)
(0.000384044 -0.000935228 0.010536)
(0.00194729 -0.00212249 0.0109019)
(0.00336534 -0.00292211 0.0109348)
(0.00443316 -0.00323092 0.0106987)
(0.00514549 -0.0032178 0.0102557)
(0.00550312 -0.00326928 0.00948845)
(0.00533142 -0.00358166 0.0083104)
(0.00452652 -0.00416846 0.00674813)
(0.003194 -0.00485965 0.00493062)
(0.00162546 -0.0054453 0.00300439)
(0.000113204 -0.00579292 0.0010576)
(-0.00116464 -0.00584474 -0.000869337)
(-0.00212218 -0.00558075 -0.0027409)
(-0.00271755 -0.00500724 -0.00451501)
(-0.00292468 -0.00415248 -0.00614954)
(-0.00272106 -0.00306162 -0.00760608)
(-0.00208797 -0.00179412 -0.00884827)
(-0.00102875 -0.0004263 -0.00983858)
(0.000384044 0.000935228 -0.010536)
(0.00194729 0.00212249 -0.0109019)
(0.00336534 0.00292211 -0.0109348)
(0.00443316 0.00323092 -0.0106987)
(0.00860867 0.00492127 -0.0115501)
(0.00862874 0.00433683 -0.0103465)
(0.00667114 0.00398737 -0.00868109)
(0.00363411 0.00386739 -0.00677236)
(0.000453608 0.00381847 -0.00481335)
(-0.00236066 0.00372403 -0.00291125)
(-0.00467536 0.00351515 -0.00110434)
(-0.00649364 0.00315238 0.000595159)
(-0.00783091 0.00262237 0.00218725)
(-0.00868998 0.00192452 0.00368602)
(-0.0090604 0.00105707 0.00511441)
(-0.00891504 1.62259e-05 0.00648914)
(-0.00819977 -0.00118766 0.00780785)
(-0.00681262 -0.00250047 0.00905334)
(-0.00458166 -0.00379289 0.0102115)
(-0.00134429 -0.00485331 0.0112425)
(0.00265202 -0.00544097 0.0119705)
(0.00638947 -0.00542012 0.0121192)
(0.00860867 -0.00492127 0.0115501)
(0.00862874 -0.00433683 0.0103465)
(0.00667114 -0.00398737 0.00868109)
(0.00363411 -0.00386739 0.00677236)
(0.000453608 -0.00381847 0.00481335)
(-0.00236066 -0.00372403 0.00291125)
(-0.00467536 -0.00351515 0.00110434)
(-0.00649364 -0.00315238 -0.000595159)
(-0.00783091 -0.00262237 -0.00218725)
(-0.00868998 -0.00192452 -0.00368602)
(-0.0090604 -0.00105707 -0.00511441)
(-0.00891504 -1.62259e-05 -0.00648914)
(-0.00819977 0.00118766 -0.00780785)
(-0.00681262 0.00250047 -0.00905334)
(-0.00458166 0.00379289 -0.0102115)
(-0.00134429 0.00485331 -0.0112425)
(0.00265202 0.00544097 -0.0119705)
(0.00638947 0.00542012 -0.0121192)
(0.00740879 0.00417257 -0.011434)
(0.00757484 0.00408664 -0.0103939)
(0.00648625 0.0041884 -0.00887639)
(0.00451698 0.00444549 -0.00703044)
(0.00217988 0.00470859 -0.0050462)
(-0.000108106 0.00485832 -0.00305636)
(-0.00211512 0.00482735 -0.00111311)
(-0.00373921 0.00458097 0.000763061)
(-0.00493673 0.004108 0.0025531)
(-0.00568449 0.00341484 0.00424061)
(-0.00596271 0.00251796 0.00581554)
(-0.00574595 0.00144098 0.00726903)
(-0.00499782 0.000221462 0.00858508)
(-0.00367061 -0.00107309 0.00973979)
(-0.0017226 -0.00232734 0.0107101)
(0.000796861 -0.00337324 0.011463)
(0.00356495 -0.00403468 0.0119111)
(0.00596607 -0.00424908 0.0119314)
(0.00740879 -0.00417257 0.011434)
(0.00757484 -0.00408664 0.0103939)
(0.00648625 -0.0041884 0.00887639)
(0.00451698 -0.00444549 0.00703044)
(0.00217988 -0.00470859 0.0050462)
(-0.000108106 -0.00485832 0.00305636)
(-0.00211512 -0.00482735 0.00111311)
(-0.00373921 -0.00458097 -0.000763061)
(-0.00493673 -0.004108 -0.0025531)
(-0.00568449 -0.00341484 -0.00424061)
(-0.00596271 -0.00251796 -0.00581554)
(-0.00574595 -0.00144098 -0.00726903)
(-0.00499782 -0.000221462 -0.00858508)
(-0.00367061 0.00107309 -0.00973979)
(-0.0017226 0.00232734 -0.0107101)
(0.000796861 0.00337324 -0.011463)
(0.00356495 0.00403468 -0.0119111)
(0.00596607 0.00424908 -0.0119314)
(0.0062856 0.00379134 -0.0115678)
(0.00664591 0.00417183 -0.0106452)
(0.00642113 0.00461112 -0.00916411)
(0.00550615 0.00510903 -0.00730405)
(0.00400552 0.00557857 -0.00527182)
(0.00223087 0.00590782 -0.00320744)
(0.000510348 0.00602213 -0.00116257)
(-0.000948703 0.00587955 0.000848325)
(-0.00204222 0.0054598 0.00279719)
(-0.00271734 0.00476847 0.00464039)
(-0.00294143 0.00383634 0.00633418)
(-0.00268884 0.00271321 0.00784218)
(-0.0019412 0.00146449 0.00913427)
(-0.00070767 0.000172875 0.010186)
(0.000919582 -0.00105912 0.0109853)
(0.00269493 -0.00211107 0.0115368)
(0.004286 -0.00288712 0.0118559)
(0.00549011 -0.00340339 0.0119151)
(0.0062856 -0.00379134 0.0115678)
(0.00664591 -0.00417183 0.0106452)
(0.00642113 -0.00461112 0.00916411)
(0.00550615 -0.00510903 0.00730405)
(0.00400552 -0.00557857 0.00527182)
(0.00223087 -0.00590782 0.00320744)
(0.000510348 -0.00602213 0.00116257)
(-0.000948703 -0.00587955 -0.000848325)
(-0.00204222 -0.0054598 -0.00279719)
(-0.00271734 -0.00476847 -0.00464039)
(-0.00294143 -0.00383634 -0.00633418)
(-0.00268884 -0.00271321 -0.00784218)
(-0.0019412 -0.00146449 -0.00913427)
(-0.00070767 -0.000172875 -0.010186)
(0.000919582 0.00105912 -0.0109853)
(0.00269493 0.00211107 -0.0115368)
(0.004286 0.00288712 -0.0118559)
(0.00549011 0.00340339 -0.0119151)
(0.00831585 0.00528887 -0.0112596)
(0.00818675 0.00460274 -0.0102106)
(0.0062726 0.00406038 -0.00873738)
(0.00333379 0.00365823 -0.0069959)
(0.000208679 0.00329464 -0.00515597)
(-0.0026095 0.00290805 -0.0033237)
(-0.00497434 0.00246065 -0.00153237)
(-0.00686555 0.0019107 0.000209226)
(-0.00826635 0.00122419 0.00188858)
(-0.0091468 0.00038418 0.00349123)
(-0.00947087 -0.000610051 0.00500685)
(-0.00919637 -0.00174184 0.00642772)
(-0.00826594 -0.00296561 0.0077467)
(-0.00659292 -0.00418798 0.00896415)
(-0.00406716 -0.00525657 0.0100845)
(-0.000684301 -0.0059793 0.0110511)
(0.00313492 -0.00620184 0.0116796)
(0.00646147 -0.0059144 0.0117699)
(0.00831585 -0.00528887 0.0112596)
(0.00818675 -0.00460274 0.0102106)
(0.0062726 -0.00406038 0.00873738)
(0.00333379 -0.00365823 0.0069959)
(0.000208679 -0.00329464 0.00515597)
(-0.0026095 -0.00290805 0.0033237)
(-0.00497434 -0.00246065 0.00153237)
(-0.00686555 -0.0019107 -0.000209226)
(-0.00826635 -0.00122419 -0.00188858)
(-0.0091468 -0.00038418 -0.00349123)
(-0.00947087 0.000610051 -0.00500685)
(-0.00919637 0.00174184 -0.00642772)
(-0.00826594 0.00296561 -0.0077467)
(-0.00659292 0.00418798 -0.00896415)
(-0.00406716 0.00525657 -0.0100845)
(-0.000684301 0.0059793 -0.0110511)
(0.00313492 0.00620184 -0.0116796)
(0.00646147 0.0059144 -0.0117699)
(0.00738647 0.00449293 -0.0113982)
(0.00745761 0.00446008 -0.010435)
(0.00637981 0.00448993 -0.00897581)
(0.00447308 0.0045334 -0.00717969)
(0.00218018 0.00450954 -0.00524123)
(-0.000112737 0.00437414 -0.00329013)
(-0.0021684 0.00410295 -0.00137096)
(-0.00386135 0.00366969 0.000503839)
(-0.00511941 0.00305383 0.0023136)
(-0.00589471 0.0022525 0.00402916)
(-0.00615061 0.00128288 0.00562381)
(-0.0058538 0.00018102 0.00707713)
(-0.00497013 -0.000994782 0.00837364)
(-0.00346911 -0.00215626 0.00950445)
(-0.00135665 -0.00318472 0.0104673)
(0.00122703 -0.00395402 0.011237)
(0.00389936 -0.00438849 0.0117266)
(0.00611504 -0.00452146 0.011814)
(0.00738647 -0.00449293 0.0113982)
(0.00745761 -0.00446008 0.010435)
(0.00637981 -0.00448993 0.00897581)
(0.00447308 -0.0045334 0.00717969)
(0.00218018 -0.00450954 0.00524123)
(-0.000112737 -0.00437414 0.00329013)
(-0.0021684 -0.00410295 0.00137096)
(-0.00386135 -0.00366969 -0.000503839)
(-0.00511941 -0.00305383 -0.0023136)
(-0.00589471 -0.0022525 -0.00402916)
(-0.00615061 -0.00128288 -0.00562381)
(-0.0058538 -0.00018102 -0.00707713)
(-0.00497013 0.000994782 -0.00837364)
(-0.00346911 0.00215626 -0.00950445)
(-0.00135665 0.00318472 -0.0104673)
(0.00122703 0.00395402 -0.011237)
(0.00389936 0.00438849 -0.0117266)
(0.00611504 0.00452146 -0.011814)
(0.00648155 0.00409749 -0.011922)
(0.00680281 0.00471223 -0.0109809)
(0.00656965 0.00522654 -0.00941866)
(0.00568871 0.00559431 -0.0074812)
(0.00422504 0.00580268 -0.00540876)
(0.00244661 0.00584073 -0.00334044)
(0.00068056 0.00569747 -0.00131735)
(-0.000840598 0.00535415 0.000658592)
(-0.00198855 0.00479424 0.00256945)
(-0.00269422 0.00402124 0.00437637)
(-0.00291637 0.00306462 0.00603711)
(-0.00262799 0.00197629 0.00751735)
(-0.00181781 0.000826751 0.00879379)
(-0.000513693 -0.000298446 0.00985816)
(0.00116102 -0.0013126 0.0107245)
(0.00294086 -0.00215935 0.0114185)
(0.00451625 -0.00285002 0.011938)
(0.00570915 -0.00346869 0.0121812)
(0.00648155 -0.00409749 0.011922)
(0.00680281 -0.00471223 0.0109809)
(0.00656965 -0.00522654 0.00941866)
(0.00568871 -0.00559431 0.0074812)
(0.00422504 -0.00580268 0.00540876)
(0.00244661 -0.00584073 0.00334044)
(0.00068056 -0.00569747 0.00131735)
(-0.000840598 -0.00535415 -0.000658592)
(-0.00198855 -0.00479424 -0.00256945)
(-0.00269422 -0.00402124 -0.00437637)
(-0.00291637 -0.00306462 -0.00603711)
(-0.00262799 -0.00197629 -0.00751735)
(-0.00181781 -0.000826751 -0.00879379)
(-0.000513693 0.000298446 -0.00985816)
(0.00116102 0.0013126 -0.0107245)
(0.00294086 0.00215935 -0.0114185)
(0.00451625 0.00285002 -0.011938)
(0.00570915 0.00346869 -0.0121812)
(0.0071656 0.00525986 -0.0104644)
(0.00704212 0.00443578 -0.00966073)
(0.00537565 0.00369091 -0.00845903)
(0.00275756 0.00301915 -0.00696111)
(-0.000114009 0.00236692 -0.00531107)
(-0.00277513 0.00170973 -0.00362675)
(-0.00505632 0.00103435 -0.00195383)
(-0.00691335 0.000308988 -0.000298514)
(-0.00830419 -0.000505549 0.00132856)
(-0.00917157 -0.00143401 0.00290276)
(-0.00945709 -0.00247473 0.00439435)
(-0.00910861 -0.00359308 0.00577795)
(-0.00807749 -0.00471455 0.00704115)
(-0.00631371 -0.00572017 0.00819061)
(-0.00378901 -0.00645595 0.00923216)
(-0.000616758 -0.00677363 0.0101087)
(0.00276268 -0.00661232 0.0106795)
(0.00560543 -0.00604921 0.0108125)
(0.0071656 -0.00525986 0.0104644)
(0.00704212 -0.00443578 0.00966073)
(0.00537565 -0.00369091 0.00845903)
(0.00275756 -0.00301915 0.00696111)
(-0.000114009 -0.00236692 0.00531107)
(-0.00277513 -0.00170973 0.00362675)
(-0.00505632 -0.00103435 0.00195383)
(-0.00691335 -0.000308988 0.000298514)
(-0.00830419 0.000505549 -0.00132856)
(-0.00917157 0.00143401 -0.00290276)
(-0.00945709 0.00247473 -0.00439435)
(-0.00910861 0.00359308 -0.00577795)
(-0.00807749 0.00471455 -0.00704115)
(-0.00631371 0.00572017 -0.00819061)
(-0.00378901 0.00645595 -0.00923216)
(-0.000616758 0.00677363 -0.0101087)
(0.00276268 0.00661232 -0.0106795)
(0.00560543 0.00604921 -0.0108125)
(0.00651935 0.00453245 -0.0107486)
(0.00657469 0.00442713 -0.00995076)
(0.00563778 0.00431553 -0.0086803)
(0.00395518 0.00413801 -0.0070677)
(0.00187891 0.00385184 -0.00528481)
(-0.000259142 0.00345662 -0.00346348)
(-0.00222775 0.00296144 -0.00166037)
(-0.00388379 0.00235699 0.000110547)
(-0.00513051 0.00162467 0.00183258)
(-0.00589719 0.000757889 0.00347499)
(-0.00613155 -0.000225741 0.00500331)
(-0.00579558 -0.00128096 0.00638986)
(-0.00486501 -0.00233434 0.00761973)
(-0.00333917 -0.00328727 0.00869362)
(-0.00127821 -0.00403221 0.00961844)
(0.00112411 -0.00449154 0.0103733)
(0.00350711 -0.00466566 0.0108833)
(0.00543129 -0.00463898 0.0110414)
(0.00651935 -0.00453245 0.0107486)
(0.00657469 -0.00442713 0.00995076)
(0.00563778 -0.00431553 0.0086803)
(0.00395518 -0.00413801 0.0070677)
(0.00187891 -0.00385184 0.00528481)
(-0.000259142 -0.00345662 0.00346348)
(-0.00222775 -0.00296144 0.00166037)
(-0.00388379 -0.00235699 -0.000110547)
(-0.00513051 -0.00162467 -0.00183258)
(-0.00589719 -0.000757889 -0.00347499)
(-0.00613155 0.000225741 -0.00500331)
(-0.00579558 0.00128096 -0.00638986)
(-0.00486501 0.00233434 -0.00761973)
(-0.00333917 0.00328727 -0.00869362)
(-0.00127821 0.00403221 -0.00961844)
(0.00112411 0.00449154 -0.0103733)
(0.00350711 0.00466566 -0.0108833)
(0.00543129 0.00463898 -0.0110414)
(0.00583557 0.00422111 -0.0115232)
(0.00612431 0.00485733 -0.0106705)
(0.00594076 0.00531641 -0.00921126)
(0.00519626 0.0055255 -0.00738419)
(0.00391406 0.00549947 -0.00541727)
(0.00229154 0.00528226 -0.0034484)
(0.000620165 0.00491022 -0.00152844)
(-0.000856468 0.00439133 0.000336528)
(-0.00198684 0.00371897 0.00213502)
(-0.0026842 0.00289729 0.00383616)
(-0.00289817 0.00195391 0.0054027)
(-0.00260168 0.00094058 0.00680443)
(-0.0017943 -7.14808e-05 0.00802544)
(-0.000527475 -0.00100241 0.00907011)
(0.00104931 -0.00178973 0.00996375)
(0.00267758 -0.00242677 0.0107313)
(0.00409357 -0.00298181 0.0113519)
(0.00515417 -0.0035637 0.011695)
(0.00583557 -0.00422111 0.0115232)
(0.00612431 -0.00485733 0.0106705)
(0.00594076 -0.00531641 0.00921126)
(0.00519626 -0.0055255 0.00738419)
(0.00391406 -0.00549947 0.00541727)
(0.00229154 -0.00528226 0.0034484)
(0.000620165 -0.00491022 0.00152844)
(-0.000856468 -0.00439133 -0.000336528)
(-0.00198684 -0.00371897 -0.00213502)
(-0.0026842 -0.00289729 -0.00383616)
(-0.00289817 -0.00195391 -0.0054027)
(-0.00260168 -0.00094058 -0.00680443)
(-0.0017943 7.14808e-05 -0.00802544)
(-0.000527475 0.00100241 -0.00907011)
(0.00104931 0.00178973 -0.00996375)
(0.00267758 0.00242677 -0.0107313)
(0.00409357 0.00298181 -0.0113519)
(0.00515417 0.0035637 -0.011695)
(0.00539831 0.00511437 -0.00936967)
(0.00540455 0.0040774 -0.00886402)
(0.00411409 0.00308408 -0.00799774)
(0.00193424 0.00214157 -0.00681912)
(-0.000587566 0.00122759 -0.00543019)
(-0.00301771 0.000334234 -0.00394987)
(-0.00514668 -0.000540282 -0.00245032)
(-0.00690055 -0.00141576 -0.000950998)
(-0.00822432 -0.0023254 0.000539415)
(-0.00904941 -0.00329266 0.00199795)
(-0.00930776 -0.00431215 0.00338986)
(-0.00894721 -0.00533915 0.00468211)
(-0.00793647 -0.00628664 0.00585808)
(-0.00626599 -0.00703233 0.00692287)
(-0.00396979 -0.00744048 0.00788065)
(-0.00120539 -0.00740886 0.00869048)
(0.00165102 -0.00693199 0.00926021)
(0.00403849 -0.00611423 0.0095005)
(0.00539831 -0.00511437 0.00936967)
(0.00540455 -0.0040774 0.00886402)
(0.00411409 -0.00308408 0.00799774)
(0.00193424 -0.00214157 0.00681912)
(-0.000587566 -0.00122759 0.00543019)
(-0.00301771 -0.000334234 0.00394987)
(-0.00514668 0.000540281 0.00245032)
(-0.00690055 0.00141576 0.000950998)
(-0.00822432 0.0023254 -0.000539415)
(-0.00904941 0.00329266 -0.00199795)
(-0.00930776 0.00431215 -0.00338986)
(-0.00894721 0.00533915 -0.00468211)
(-0.00793647 0.00628664 -0.00585808)
(-0.00626599 0.00703233 -0.00692287)
(-0.00396979 0.00744048 -0.00788065)
(-0.00120539 0.00740886 -0.00869048)
(0.00165102 0.00693199 -0.00926021)
(0.00403849 0.00611423 -0.0095005)
(0.00504136 0.00445869 -0.0096907)
(0.00514406 0.00414984 -0.00911657)