/*--------------------------------*- C++ -*----------------------------------*\
| =========                 |                                                 |
| \\      /  F ield         | OpenFOAM: The Open Source CFD Toolbox           |
|  \\    /   O peration     | Version:  2312                                  |
|   \\  /    A nd           | Website:  www.openfoam.com                      |
|    \\/     M anipulation  |                                                 |
\*---------------------------------------------------------------------------*/
FoamFile
{
    version     2.0;
    format      ascii;
    arch        "LSB;label=32;scalar=64";
    class       volVectorField;
    location    "0.9";
    object      D_0_0_0;
}
// * * * * * * * * * * * * * * * * * * * * * * * * * * * * * * * * * * * * * //

dimensions      [0 1 0 0 0 0 0];

internalField   nonuniform List<vector> 
1620
(
(0.000853534 -1.76365e-05 -0.00231196)
(0.00117301 0.000264682 -0.00213845)
(0.00119891 0.000572082 -0.00169467)
(0.00100742 0.000768508 -0.00110457)
(0.000720724 0.000830923 -0.000518531)
(0.000419803 0.000794382 -3.15439e-05)
(0.000140962 0.000696047 0.000323903)
(-0.00010477 0.000564225 0.000555244)
(-0.000318002 0.000422522 0.000691697)
(-0.000503086 0.000288342 0.000773472)
(-0.00066256 0.000168256 0.000842962)
(-0.000792852 5.82211e-05 0.000936489)
(-0.000881514 -4.69831e-05 0.00107716)
(-0.000906136 -0.00013634 0.00127052)
(-0.000833334 -0.000170588 0.00150624)
(-0.000617567 -0.000105855 0.00176549)
(-0.000218808 3.61015e-05 0.00202271)
(0.000327571 0.000123709 0.00223413)
(0.000853534 1.76365e-05 0.00231196)
(0.00117301 -0.000264682 0.00213845)
(0.00119891 -0.000572082 0.00169467)
(0.00100742 -0.000768508 0.00110457)
(0.000720724 -0.000830923 0.000518531)
(0.000419803 -0.000794382 3.15439e-05)
(0.000140962 -0.000696047 -0.000323903)
(-0.00010477 -0.000564225 -0.000555244)
(-0.000318002 -0.000422522 -0.000691697)
(-0.000503086 -0.000288342 -0.000773472)
(-0.00066256 -0.000168256 -0.000842962)
(-0.000792852 -5.82211e-05 -0.000936489)
(-0.000881514 4.69831e-05 -0.00107716)
(-0.000906136 0.00013634 -0.00127052)
(-0.000833334 0.000170588 -0.00150624)
(-0.000617567 0.000105855 -0.00176549)
(-0.000218808 -3.61015e-05 -0.00202271)
(0.000327571 -0.000123709 -0.00223413)
(0.000383181 0.000449053 -0.00204998)
(0.000508094 0.000504005 -0.00183973)
(0.000510436 0.000616625 -0.00153583)
(0.000394043 0.000758433 -0.00116461)
(0.000193823 0.000894451 -0.000768542)
(-4.40892e-05 0.00100016 -0.000385047)
(-0.000279387 0.00106106 -3.56059e-05)
(-0.000484581 0.00107225 0.000274587)
(-0.000645208 0.00103613 0.000552714)
(-0.000755696 0.000956413 0.000812745)
(-0.000814055 0.000832788 0.00106883)
(-0.000818432 0.000660521 0.00132873)
(-0.000767218 0.000437014 0.00158835)
(-0.000662187 0.000174546 0.00182933)
(-0.000510378 -8.81923e-05 0.00202415)
(-0.000318464 -0.000293178 0.0021494)
(-8.68617e-05 -0.000400355 0.00219578)
(0.000167154 -0.000430544 0.00216331)
(0.000383181 -0.000449053 0.00204998)
(0.000508094 -0.000504005 0.00183973)
(0.000510436 -0.000616625 0.00153583)
(0.000394043 -0.000758433 0.00116461)
(0.000193823 -0.000894451 0.000768542)
(-4.40892e-05 -0.00100016 0.000385047)
(-0.000279387 -0.00106106 3.56059e-05)
(-0.000484581 -0.00107225 -0.000274587)
(-0.000645208 -0.00103613 -0.000552714)
(-0.000755696 -0.000956413 -0.000812745)
(-0.000814055 -0.000832788 -0.00106883)
(-0.000818432 -0.000660521 -0.00132873)
(-0.000767218 -0.000437014 -0.00158835)
(-0.000662187 -0.000174546 -0.00182933)
(-0.000510378 8.81923e-05 -0.00202415)
(-0.000318464 0.000293178 -0.0021494)
(-8.68617e-05 0.000400355 -0.00219578)
(0.000167154 0.000430544 -0.00216331)
(2.88692e-05 0.000686584 -0.00181695)
(3.61402e-05 0.00059838 -0.00160152)
(2.61904e-05 0.000591397 -0.00140959)
(-3.39478e-05 0.000719631 -0.00120699)
(-0.000170611 0.000951755 -0.000959128)
(-0.000371657 0.0012181 -0.000652586)
(-0.000596404 0.00145447 -0.000293082)
(-0.000800775 0.00161897 0.000105257)
(-0.000952926 0.00168927 0.000526954)
(-0.0010348 0.00165491 0.000955958)
(-0.00103751 0.0015123 0.0013737)
(-0.000958475 0.00126335 0.00175729)
(-0.000803839 0.000917691 0.00207861)
(-0.000595144 0.00049853 0.00230611)
(-0.000372975 5.09367e-05 0.00241254)
(-0.000185243 -0.000353448 0.00238914)
(-6.03134e-05 -0.000630524 0.00225509)
(4.48271e-06 -0.000730957 0.00204887)
(2.88692e-05 -0.000686584 0.00181695)
(3.61402e-05 -0.00059838 0.00160152)
(2.61904e-05 -0.000591397 0.00140959)
(-3.39478e-05 -0.000719631 0.00120699)
(-0.000170611 -0.000951755 0.000959128)
(-0.000371657 -0.0012181 0.000652586)
(-0.000596404 -0.00145447 0.000293082)
(-0.000800775 -0.00161897 -0.000105257)
(-0.000952926 -0.00168927 -0.000526954)
(-0.0010348 -0.00165491 -0.000955958)
(-0.00103751 -0.0015123 -0.0013737)
(-0.000958475 -0.00126335 -0.00175729)
(-0.000803839 -0.000917691 -0.00207861)
(-0.000595144 -0.00049853 -0.00230611)
(-0.000372975 -5.09367e-05 -0.00241254)
(-0.000185243 0.000353448 -0.00238914)
(-6.03134e-05 0.000630524 -0.00225509)
(4.48271e-06 0.000730957 -0.00204887)
(0.00262557 0.000726871 -0.00607115)
(0.00335338 0.00113419 -0.00537625)
(0.0031699 0.00160325 -0.00422776)
(0.0023637 0.00197988 -0.00289133)
(0.00131521 0.00223788 -0.00159579)
(0.000274919 0.00237106 -0.000472571)
(-0.000643234 0.00237183 0.000429024)
(-0.00140855 0.00225514 0.00111653)
(-0.00202772 0.00205683 0.00164037)
(-0.00251602 0.00180867 0.00207784)
(-0.00288008 0.00151739 0.00251129)
(-0.00310791 0.00116275 0.00300534)
(-0.00316447 0.000718131 0.00358699)
(-0.00299215 0.000192795 0.00423475)
(-0.00251573 -0.000319222 0.00488862)
(-0.00165524 -0.000642611 0.00548372)
(-0.000369583 -0.000670623 0.00595938)
(0.0012106 -0.000578294 0.00619924)
(0.00262557 -0.000726871 0.00607115)
(0.00335338 -0.00113419 0.00537625)
(0.0031699 -0.00160325 0.00422776)
(0.0023637 -0.00197988 0.00289133)
(0.00131521 -0.00223788 0.00159579)
(0.000274919 -0.00237106 0.000472571)
(-0.000643234 -0.00237183 -0.000429024)
(-0.00140855 -0.00225514 -0.00111653)
(-0.00202772 -0.00205683 -0.00164037)
(-0.00251602 -0.00180867 -0.00207784)
(-0.00288008 -0.00151739 -0.00251129)
(-0.00310791 -0.00116275 -0.00300534)
(-0.00316447 -0.000718131 -0.00358699)
(-0.00299215 -0.000192795 -0.00423475)
(-0.00251573 0.000319222 -0.00488862)
(-0.00165524 0.000642611 -0.00548372)
(-0.000369583 0.000670623 -0.00595938)
(0.0012106 0.000578294 -0.00619924)
(0.00177268 0.00142658 -0.00577037)
(0.00220029 0.0014781 -0.00517715)
(0.00213061 0.00170474 -0.00433916)
(0.00161676 0.00205117 -0.00332937)
(0.000843927 0.00243304 -0.00223831)
(-3.32414e-06 0.00275462 -0.00115479)
(-0.000795046 0.00294551 -0.000142489)
(-0.00146129 0.00298092 0.000772735)
(-0.0019745 0.00286864 0.00159918)
(-0.0023274 0.00262388 0.002365)
(-0.00251609 0.00225273 0.00310084)
(-0.00253128 0.00175055 0.00382452)
(-0.00235774 0.00111498 0.00452901)
(-0.00198284 0.000371799 0.00517619)
(-0.00141244 -0.000392922 0.00570269)
(-0.00068304 -0.00102398 0.00604642)
(0.000151428 -0.00137295 0.00618035)
(0.0010232 -0.00144154 0.0060948)
(0.00177268 -0.00142658 0.00577037)
(0.00220029 -0.0014781 0.00517715)
(0.00213061 -0.00170474 0.00433916)
(0.00161676 -0.00205117 0.00332937)
(0.000843927 -0.00243304 0.00223831)
(-3.32414e-06 -0.00275462 0.00115479)
(-0.000795046 -0.00294551 0.000142489)
(-0.00146129 -0.00298092 -0.000772735)
(-0.0019745 -0.00286864 -0.00159918)
(-0.0023274 -0.00262388 -0.002365)
(-0.00251609 -0.00225273 -0.00310084)
(-0.00253128 -0.00175055 -0.00382452)
(-0.00235774 -0.00111498 -0.00452901)
(-0.00198284 -0.000371799 -0.00517619)
(-0.00141244 0.000392922 -0.00570269)
(-0.00068304 0.00102398 -0.00604642)
(0.000151428 0.00137295 -0.00618035)
(0.0010232 0.00144154 -0.0060948)
(0.0010352 0.00185487 -0.00534186)
(0.00124943 0.00165906 -0.00488131)
(0.00129402 0.00170609 -0.00434604)
(0.001053 0.00204437 -0.00364677)
(0.000535905 0.00256338 -0.00275749)
(-0.000141972 0.00309155 -0.00172311)
(-0.000838663 0.00349396 -0.000614502)
(-0.00144538 0.00370027 0.00051348)
(-0.00189866 0.00368352 0.0016271)
(-0.00216619 0.00343831 0.00270057)
(-0.00223123 0.00297213 0.00370596)
(-0.0020851 0.00230418 0.00460972)
(-0.00173055 0.00146767 0.00537213)
(-0.00119774 0.000516309 0.00594689)
(-0.000568021 -0.000461149 0.00628336)
(2.34576e-05 -0.00132055 0.00634409)
(0.000461751 -0.00187677 0.00614873)
(0.000766535 -0.00201397 0.00578831)
(0.0010352 -0.00185487 0.00534186)
(0.00124943 -0.00165906 0.00488131)
(0.00129402 -0.00170609 0.00434604)
(0.001053 -0.00204437 0.00364677)
(0.000535905 -0.00256338 0.00275749)
(-0.000141972 -0.00309155 0.00172311)
(-0.000838663 -0.00349396 0.000614502)
(-0.00144538 -0.00370027 -0.00051348)
(-0.00189866 -0.00368352 -0.0016271)
(-0.00216619 -0.00343831 -0.00270057)
(-0.00223123 -0.00297213 -0.00370596)
(-0.0020851 -0.00230418 -0.00460972)
(-0.00173055 -0.00146767 -0.00537213)
(-0.00119774 -0.000516309 -0.00594689)
(-0.000568021 0.000461149 -0.00628336)
(2.34576e-05 0.00132055 -0.00634409)
(0.000461751 0.00187677 -0.00614873)
(0.000766535 0.00201397 -0.00578831)
(0.0053173 0.00237834 -0.00906168)
(0.0059484 0.00260979 -0.00797966)
(0.00500782 0.00287463 -0.00634827)
(0.00320538 0.00315135 -0.00452317)
(0.00118331 0.00341924 -0.00275618)
(-0.000684156 0.00359651 -0.00117166)
(-0.00225345 0.00361414 0.00018062)
(-0.00350506 0.0034633 0.00130315)
(-0.00446306 0.00317606 0.00224569)
(-0.00515392 0.00278269 0.00309)
(-0.00558809 0.00228504 0.0039229)
(-0.00575193 0.00165708 0.00480763)
(-0.00560278 0.00087011 0.00576095)
(-0.00506011 -6.20116e-05 0.00674543)
(-0.00399196 -0.00102944 0.00768797)
(-0.00223629 -0.00180828 0.00851884)
(0.000233784 -0.00218934 0.00916659)
(0.00302882 -0.00224583 0.00942498)
(0.0053173 -0.00237834 0.00906168)
(0.0059484 -0.00260979 0.00797966)
(0.00500782 -0.00287463 0.00634827)
(0.00320538 -0.00315135 0.00452317)
(0.00118331 -0.00341924 0.00275618)
(-0.000684156 -0.00359651 0.00117166)
(-0.00225345 -0.00361414 -0.00018062)
(-0.00350506 -0.0034633 -0.00130315)
(-0.00446306 -0.00317606 -0.00224569)
(-0.00515392 -0.00278269 -0.00309)
(-0.00558809 -0.00228504 -0.0039229)
(-0.00575193 -0.00165708 -0.00480763)
(-0.00560278 -0.00087011 -0.00576095)
(-0.00506011 6.20116e-05 -0.00674543)
(-0.00399196 0.00102944 -0.00768797)
(-0.00223629 0.00180828 -0.00851884)
(0.000233784 0.00218934 -0.00916659)
(0.00302882 0.00224583 -0.00942498)
(0.00410488 0.00261397 -0.00864193)
(0.00458021 0.00262304 -0.00774877)
(0.00411161 0.00283889 -0.006521)
(0.00295664 0.00325216 -0.00504381)
(0.00147306 0.00374274 -0.00343851)
(-3.54689e-05 0.00414959 -0.00182999)
(-0.00138046 0.00436274 -0.000304491)
(-0.00247721 0.00434792 0.00110235)
(-0.00330043 0.00411605 0.00239392)
(-0.00384637 0.00368739 0.0035952)
(-0.00411112 0.00307304 0.00473435)
(-0.0040809 0.00227499 0.00582582)
(-0.00373001 0.00130103 0.00685764)
(-0.00302472 0.000191486 0.00778691)
(-0.00193535 -0.000946197 0.00854601)
(-0.000469455 -0.00191571 0.00906106)
(0.00125533 -0.0025045 0.00927814)
(0.00291303 -0.00266834 0.00915824)
(0.00410488 -0.00261397 0.00864193)
(0.00458021 -0.00262304 0.00774877)
(0.00411161 -0.00283889 0.006521)
(0.00295664 -0.00325216 0.00504381)
(0.00147306 -0.00374274 0.00343851)
(-3.54689e-05 -0.00414959 0.00182999)
(-0.00138046 -0.00436274 0.000304491)
(-0.00247721 -0.00434792 -0.00110235)
(-0.00330043 -0.00411605 -0.00239392)
(-0.00384637 -0.00368739 -0.0035952)
(-0.00411112 -0.00307304 -0.00473435)
(-0.0040809 -0.00227499 -0.00582582)
(-0.00373001 -0.00130103 -0.00685764)
(-0.00302472 -0.000191486 -0.00778691)
(-0.00193535 0.000946197 -0.00854601)
(-0.000469455 0.00191571 -0.00906106)
(0.00125533 0.0025045 -0.00927814)
(0.00291303 0.00266834 -0.00915824)
(0.00306419 0.00272504 -0.00804688)
(0.0034476 0.00256895 -0.00741095)
(0.00340708 0.00271903 -0.00654328)
(0.00285935 0.0032122 -0.00537825)
(0.00189233 0.00388771 -0.00394259)
(0.000724566 0.00451445 -0.00234585)
(-0.00041979 0.0049327 -0.000694458)
(-0.00139415 0.00507263 0.00094875)
(-0.00212343 0.00491257 0.00254558)
(-0.00257076 0.00445524 0.0040616)
(-0.00271481 0.00372124 0.0054604)
(-0.00253959 0.00274701 0.0067036)
(-0.00203634 0.00158476 0.00775055)
(-0.00122078 0.000306732 0.00855575)
(-0.000168925 -0.000977736 0.0090635)
(0.000947084 -0.0020891 0.00921444)
(0.00189721 -0.00279355 0.00900321)
(0.00254568 -0.00295303 0.0085641)
(0.00306419 -0.00272504 0.00804688)
(0.0034476 -0.00256895 0.00741095)
(0.00340708 -0.00271903 0.00654328)
(0.00285935 -0.0032122 0.00537825)
(0.00189233 -0.00388771 0.00394259)
(0.000724566 -0.00451445 0.00234585)
(-0.00041979 -0.0049327 0.000694458)
(-0.00139415 -0.00507263 -0.00094875)
(-0.00212343 -0.00491257 -0.00254558)
(-0.00257076 -0.00445524 -0.0040616)
(-0.00271481 -0.00372124 -0.0054604)
(-0.00253959 -0.00274701 -0.0067036)
(-0.00203634 -0.00158476 -0.00775055)
(-0.00122078 -0.000306732 -0.00855575)
(-0.000168925 0.000977736 -0.0090635)
(0.000947084 0.0020891 -0.00921444)
(0.00189721 0.00279355 -0.00900321)
(0.00254568 0.00295303 -0.0085641)
(0.00777147 0.00420124 -0.0108542)
(0.00796132 0.00386383 -0.0095605)
(0.00624249 0.00375881 -0.0077605)
(0.00356274 0.00385293 -0.00576185)
(0.000751634 0.00400396 -0.00377866)
(-0.00174092 0.0040772 -0.00192706)
(-0.0037821 0.00399177 -0.000255282)
(-0.00537619 0.00372545 0.00122981)
(-0.00655565 0.00329324 0.00255574)
(-0.0073448 0.00271305 0.00377667)
(-0.00774998 0.00198398 0.0049537)
(-0.00775471 0.00108736 0.00612977)
(-0.00731209 8.68362e-06 0.00730991)
(-0.0063266 -0.00122612 0.0084597)
(-0.00462418 -0.0025109 0.00952829)
(-0.00198064 -0.00364286 0.0104666)
(0.00157934 -0.00437235 0.0111714)
(0.00529744 -0.00452497 0.0114036)
(0.00777147 -0.00420124 0.0108542)
(0.00796132 -0.00386383 0.0095605)
(0.00624249 -0.00375881 0.0077605)
(0.00356274 -0.00385293 0.00576185)
(0.000751634 -0.00400396 0.00377866)
(-0.00174092 -0.0040772 0.00192706)
(-0.0037821 -0.00399177 0.000255282)
(-0.00537619 -0.00372545 -0.00122981)
(-0.00655565 -0.00329324 -0.00255574)
(-0.0073448 -0.00271305 -0.00377667)
(-0.00774998 -0.00198398 -0.0049537)
(-0.00775471 -0.00108736 -0.00612977)
(-0.00731209 -8.68362e-06 -0.00730991)
(-0.0063266 0.00122612 -0.0084597)
(-0.00462418 0.0025109 -0.00952829)
(-0.00198064 0.00364286 -0.0104666)
(0.00157934 0.00437235 -0.0111714)
(0.00529744 0.00452497 -0.0114036)
(0.0064329 0.00373844 -0.0104575)
(0.00665192 0.00361035 -0.0093925)
(0.00570818 0.00375717 -0.00792512)
(0.00397936 0.00413374 -0.00615702)
(0.00191912 0.00456142 -0.00424722)
(-9.85354e-05 0.00487362 -0.00233673)
(-0.00185866 0.00497361 -0.000502392)
(-0.00327318 0.00482913 0.00122482)
(-0.00431595 0.00444482 0.00283725)
(-0.00498006 0.00383742 0.00434157)
(-0.00525758 0.00302193 0.00574986)
(-0.00513034 0.00201054 0.00706672)
(-0.00456622 0.000824105 0.00827763)
(-0.00351936 -0.00048701 0.00934624)
(-0.00193936 -0.00181566 0.0102234)
(0.000179586 -0.00297585 0.0108547)
(0.00265333 -0.0037332 0.0111652)
(0.00496195 -0.00393646 0.0110577)
(0.0064329 -0.00373844 0.0104575)
(0.00665192 -0.00361035 0.0093925)
(0.00570818 -0.00375717 0.00792512)
(0.00397936 -0.00413375 0.00615702)
(0.00191912 -0.00456142 0.00424722)
(-9.85354e-05 -0.00487362 0.00233673)
(-0.00185866 -0.00497361 0.000502392)
(-0.00327318 -0.00482913 -0.00122482)
(-0.00431595 -0.00444482 -0.00283725)
(-0.00498006 -0.00383742 -0.00434157)
(-0.00525758 -0.00302193 -0.00574986)
(-0.00513034 -0.00201054 -0.00706672)
(-0.00456622 -0.000824105 -0.00827763)
(-0.00351936 0.00048701 -0.00934624)
(-0.00193936 0.00181566 -0.0102234)
(0.000179586 0.00297585 -0.0108547)
(0.00265333 0.0037332 -0.0111652)
(0.00496195 0.00393646 -0.0110577)
(0.00516672 0.0035516 -0.0101036)
(0.00551519 0.00357277 -0.00927141)
(0.00533526 0.00383725 -0.00804124)
(0.00452756 0.00436096 -0.00644345)
(0.00320044 0.00498074 -0.00460404)
(0.00164285 0.00549368 -0.00266587)
(0.00014361 0.00577061 -0.000716653)
(-0.00112038 0.00575511 0.00120213)
(-0.00206349 0.00542865 0.00305494)
(-0.00264405 0.00479905 0.00480092)
(-0.00283641 0.00389583 0.00639972)
(-0.00261882 0.00276502 0.00781498)
(-0.0019744 0.00146642 0.00901238)
(-0.00091042 7.62941e-05 0.00995611)
(0.000494316 -0.00129822 0.010606)
(0.00203342 -0.002488 0.0109234)
(0.00342085 -0.0032817 0.0109056)
(0.00446626 -0.00358049 0.0106125)
(0.00516672 -0.0035516 0.0101036)
(0.00551519 -0.00357277 0.00927141)
(0.00533526 -0.00383725 0.00804124)
(0.00452756 -0.00436096 0.00644345)
(0.00320044 -0.00498074 0.00460404)
(0.00164285 -0.00549368 0.00266587)
(0.00014361 -0.00577061 0.000716653)
(-0.00112038 -0.00575511 -0.00120213)
(-0.00206349 -0.00542865 -0.00305494)
(-0.00264405 -0.00479905 -0.00480092)
(-0.00283641 -0.00389583 -0.00639972)
(-0.00261882 -0.00276502 -0.00781498)
(-0.0019744 -0.00146642 -0.00901238)
(-0.00091042 -7.62941e-05 -0.00995611)
(0.000494316 0.00129822 -0.010606)
(0.00203342 0.002488 -0.0109234)
(0.00342085 0.0032817 -0.0109056)
(0.00446626 0.00358049 -0.0106125)
(0.00866497 0.0053136 -0.0114002)
(0.00861588 0.00470774 -0.0101259)
(0.00663116 0.00431294 -0.00840005)
(0.00360219 0.00412661 -0.00644227)
(0.000443888 0.00400246 -0.0044452)
(-0.00234641 0.00383081 -0.00251663)
(-0.00463782 0.00354505 -0.000695815)
(-0.00643342 0.003107 0.001005)
(-0.00774876 0.0025044 0.00258667)
(-0.00858686 0.00173767 0.00406437)
(-0.00893734 0.000806498 0.0054618)
(-0.00877287 -0.000290753 0.0067962)
(-0.0080385 -0.00154084 0.00806637)
(-0.00663 -0.00288656 0.00925764)
(-0.00437353 -0.0041967 0.0103583)
(-0.00111675 -0.0052612 0.0113259)
(0.00286231 -0.00584598 0.0119797)
(0.0065334 -0.00582061 0.0120477)
(0.00866497 -0.0053136 0.0114002)
(0.00861588 -0.00470774 0.0101259)
(0.00663116 -0.00431294 0.00840005)
(0.00360219 -0.00412661 0.00644227)
(0.000443888 -0.00400246 0.0044452)
(-0.00234641 -0.00383081 0.00251663)
(-0.00463782 -0.00354505 0.000695815)
(-0.00643342 -0.003107 -0.001005)
(-0.00774876 -0.0025044 -0.00258667)
(-0.00858686 -0.00173767 -0.00406437)
(-0.00893734 -0.000806498 -0.0054618)
(-0.00877287 0.000290753 -0.0067962)
(-0.0080385 0.00154084 -0.00806637)
(-0.00663 0.00288656 -0.00925764)
(-0.00437353 0.0041967 -0.0103583)
(-0.00111675 0.0052612 -0.0113259)
(0.00286231 0.00584598 -0.0119797)
(0.0065334 0.00582061 -0.0120477)
(0.00744902 0.00456368 -0.0112807)
(0.00757616 0.00444623 -0.010169)
(0.0064691 0.0044954 -0.00859195)
(0.00450098 0.00468345 -0.00670121)
(0.00217701 0.00487061 -0.00468486)
(-9.30694e-05 0.00494347 -0.00267378)
(-0.00208079 0.00483672 -0.000720664)
(-0.0036853 0.00451671 0.00115338)
(-0.00486347 0.00397348 0.00292975)
(-0.00559239 0.00321477 0.00459318)
(-0.00585247 0.00225852 0.00613481)
(-0.00561852 0.00113002 0.00754702)
(-0.00485455 -0.00013142 0.00881542)
(-0.0035138 -0.00145698 0.00991832)
(-0.00155733 -0.00273088 0.0108343)
(0.000957511 -0.00378563 0.0115284)
(0.00369918 -0.00444744 0.0119094)
(0.00605563 -0.00465557 0.011855)
(0.00744902 -0.00456368 0.0112807)
(0.00757616 -0.00444623 0.010169)
(0.0064691 -0.0044954 0.00859195)
(0.00450098 -0.00468345 0.00670121)
(0.00217701 -0.00487061 0.00468486)
(-9.30694e-05 -0.00494347 0.00267378)
(-0.00208079 -0.00483672 0.000720664)
(-0.0036853 -0.00451671 -0.00115338)
(-0.00486347 -0.00397348 -0.00292975)
(-0.00559239 -0.00321477 -0.00459318)
(-0.00585247 -0.00225852 -0.00613481)
(-0.00561852 -0.00113002 -0.00754702)
(-0.00485455 0.00013142 -0.00881542)
(-0.0035138 0.00145698 -0.00991832)
(-0.00155733 0.00273088 -0.0108343)
(0.000957511 0.00378563 -0.0115284)
(0.00369918 0.00444744 -0.0119094)
(0.00605563 0.00465557 -0.011855)
(0.00630834 0.00417445 -0.0114069)
(0.0066565 0.00451037 -0.0104085)
(0.00642108 0.00488894 -0.00887157)
(0.00550103 0.00531665 -0.00697468)
(0.00400489 0.00571218 -0.00491841)
(0.0022425 0.00596735 -0.00283883)
(0.000537815 0.00600884 -0.000787927)
(-0.000904114 0.0057956 0.00121819)
(-0.00198007 0.00530885 0.00315112)
(-0.00263763 0.0045559 0.00496819)
(-0.00284456 0.00356916 0.00662721)
(-0.00257599 0.00239976 0.00809374)
(-0.00181542 0.00111392 0.00933991)
(-0.000576237 -0.000205933 0.0103437)
(0.00104225 -0.00145814 0.011094)
(0.00279105 -0.00252238 0.0115935)
(0.00434912 -0.00330199 0.0118523)
(0.00552832 -0.00381078 0.0118374)
(0.00630834 -0.00417445 0.0114069)
(0.0066565 -0.00451037 0.0104085)
(0.00642108 -0.00488894 0.00887157)
(0.00550103 -0.00531665 0.00697468)
(0.00400489 -0.00571218 0.00491841)
(0.0022425 -0.00596735 0.00283883)
(0.000537815 -0.00600884 0.000787927)
(-0.000904114 -0.0057956 -0.00121819)
(-0.00198007 -0.00530885 -0.00315112)
(-0.00263763 -0.0045559 -0.00496819)
(-0.00284456 -0.00356916 -0.00662721)
(-0.00257599 -0.00239976 -0.00809374)
(-0.00181542 -0.00111392 -0.00933991)
(-0.000576237 0.000205933 -0.0103437)
(0.00104225 0.00145814 -0.011094)
(0.00279105 0.00252238 -0.0115935)
(0.00434912 0.00330199 -0.0118523)
(0.00552832 0.00381078 -0.0118374)
(0.00837998 0.00567773 -0.0111266)
(0.00817702 0.00496433 -0.00999866)
(0.00622861 0.00437521 -0.00845586)
(0.00329274 0.00391074 -0.00665768)
(0.000187948 0.00347832 -0.0047741)
(-0.00260676 0.00302043 -0.0029105)
(-0.004948 0.00249962 -0.00110042)
(-0.00681486 0.00187496 0.000646832)
(-0.00819055 0.00111419 0.00231883)
(-0.00904583 0.000202614 0.00390169)
(-0.00934543 -0.000857868 0.00538597)
(-0.00904763 -0.00204756 0.00676517)
(-0.00809458 -0.00331768 0.00803457)
(-0.00639739 -0.00457222 0.009198)
(-0.00384508 -0.00565802 0.0102613)
(-0.000445769 -0.00638588 0.0111629)
(0.00335301 -0.0066077 0.0117146)
(0.00661377 -0.00631578 0.0117208)
(0.00837998 -0.00567773 0.0111266)
(0.00817702 -0.00496433 0.00999866)
(0.00622861 -0.00437521 0.00845586)
(0.00329274 -0.00391074 0.00665768)
(0.000187948 -0.00347832 0.0047741)
(-0.00260676 -0.00302043 0.0029105)
(-0.004948 -0.00249962 0.00110042)
(-0.00681486 -0.00187496 -0.000646832)
(-0.00819055 -0.00111419 -0.00231883)
(-0.00904583 -0.000202614 -0.00390169)
(-0.00934543 0.000857868 -0.00538597)
(-0.00904763 0.00204756 -0.00676517)
(-0.00809458 0.00331768 -0.00803457)
(-0.00639739 0.00457222 -0.009198)
(-0.00384508 0.00565802 -0.0102613)
(-0.000445769 0.00638588 -0.0111629)
(0.00335301 0.0066077 -0.0117146)
(0.00661377 0.00631578 -0.0117208)
(0.00743337 0.004892 -0.0112558)
(0.00746122 0.00482013 -0.0102134)
(0.00635925 0.00479257 -0.00868863)
(0.00444861 0.00476757 -0.0068434)
(0.00216601 0.00467178 -0.00486967)
(-0.000109511 0.00446398 -0.00289438)
(-0.00214465 0.00412008 -0.000961924)
(-0.00381555 0.00361426 0.000914336)
(-0.00505096 0.00292745 0.00271352)
(-0.00580375 0.00205884 0.00440714)
(-0.00603792 0.00102781 0.00596963)
(-0.00572076 -0.000127339 0.00738215)
(-0.00481872 -0.00134639 0.00863137)
(-0.00330234 -0.00254009 0.00971106)
(-0.00118084 -0.00359022 0.01062)
(0.00139738 -0.0043724 0.0113298)
(0.00404297 -0.00481205 0.011749)
(0.00621361 -0.00494021 0.011756)
(0.00743337 -0.004892 0.0112558)
(0.00746122 -0.00482013 0.0102134)
(0.00635925 -0.00479257 0.00868863)
(0.00444861 -0.00476757 0.0068434)
(0.00216601 -0.00467178 0.00486967)
(-0.000109511 -0.00446398 0.00289438)
(-0.00214465 -0.00412008 0.000961924)
(-0.00381555 -0.00361426 -0.000914336)
(-0.00505096 -0.00292745 -0.00271352)
(-0.00580375 -0.00205884 -0.00440714)
(-0.00603792 -0.00102781 -0.00596963)
(-0.00572076 0.000127339 -0.00738215)
(-0.00481872 0.00134639 -0.00863137)
(-0.00330234 0.00254009 -0.00971106)
(-0.00118084 0.00359022 -0.01062)
(0.00139738 0.0043724 -0.0113298)
(0.00404297 0.00481205 -0.011749)
(0.00621361 0.00494021 -0.011756)
(0.00651161 0.00450116 -0.0117643)
(0.00681726 0.00506077 -0.010739)
(0.00656847 0.00550516 -0.00911753)
(0.00567699 0.00579977 -0.00714273)
(0.00421384 0.00593598 -0.00504621)
(0.00244696 0.00590339 -0.002962)
(0.000698687 0.00569035 -0.000931009)
(-0.000802269 0.00527824 0.00104302)
(-0.00192938 0.00465184 0.00294118)
(-0.00261443 0.00381656 0.00472506)
(-0.0028168 0.00280381 0.0063537)
(-0.00251036 0.00166718 0.00779462)
(-0.00168583 0.000478211 0.0090268)
(-0.000375468 -0.000677854 0.0100446)
(0.00129056 -0.00171619 0.0108628)
(0.00304481 -0.00258206 0.0115041)
(0.00458869 -0.00328476 0.0119588)
(0.00575659 -0.00390068 0.0121184)
(0.00651161 -0.00450116 0.0117643)
(0.00681726 -0.00506077 0.010739)
(0.00656847 -0.00550516 0.00911753)
(0.00567699 -0.00579977 0.00714273)
(0.00421384 -0.00593598 0.00504621)
(0.00244696 -0.00590339 0.002962)
(0.000698687 -0.00569035 0.000931009)
(-0.000802269 -0.00527824 -0.00104302)
(-0.00192938 -0.00465184 -0.00294118)
(-0.00261443 -0.00381656 -0.00472506)
(-0.0028168 -0.00280381 -0.0063537)
(-0.00251036 -0.00166718 -0.00779462)
(-0.00168583 -0.000478211 -0.0090268)
(-0.000375468 0.000677854 -0.0100446)
(0.00129056 0.00171619 -0.0108628)
(0.00304481 0.00258206 -0.0115041)
(0.00458869 0.00328476 -0.0119588)
(0.00575659 0.00390068 -0.0121184)
(0.00723494 0.00562357 -0.0103521)
(0.00703809 0.00476999 -0.00946613)
(0.0053318 0.00397993 -0.00819031)
(0.00270935 0.00325189 -0.00663131)
(-0.00014604 0.00253853 -0.00493473)
(-0.00278507 0.00181769 -0.00321671)
(-0.00504281 0.00107552 -0.00152185)
(-0.00687444 0.000280315 0.000143119)
(-0.00823778 -0.000605379 0.00176676)
(-0.00907661 -0.00160342 0.00332424)
(-0.00933394 -0.00270858 0.00478648)
(-0.00895867 -0.00388251 0.00612997)
(-0.00790196 -0.00504735 0.00734567)
(-0.00611216 -0.00608208 0.00844383)
(-0.00356219 -0.00683302 0.00943018)
(-0.000378568 -0.00715586 0.0102424)
(0.00297785 -0.00699503 0.0107368)
(0.00575816 -0.00642749 0.0107858)
(0.00723494 -0.00562357 0.0103521)
(0.00703809 -0.00476999 0.00946613)
(0.0053318 -0.00397993 0.00819031)
(0.00270935 -0.00325189 0.00663131)
(-0.00014604 -0.00253853 0.00493473)
(-0.00278507 -0.00181769 0.00321671)
(-0.00504281 -0.00107552 0.00152185)
(-0.00687444 -0.000280315 -0.000143119)
(-0.00823778 0.000605379 -0.00176676)
(-0.00907661 0.00160342 -0.00332424)
(-0.00933394 0.00270858 -0.00478648)
(-0.00895867 0.00388251 -0.00612997)
(-0.00790196 0.00504735 -0.00734567)
(-0.00611216 0.00608208 -0.00844383)
(-0.00356219 0.00683302 -0.00943018)
(-0.000378568 0.00715586 -0.0102424)
(0.00297785 0.00699503 -0.0107368)
(0.00575816 0.00642749 -0.0107858)
(0.00657226 0.00491345 -0.0106222)
(0.00658314 0.00476646 -0.0097423)
(0.00561737 0.00459729 -0.00840323)
(0.00392484 0.00435491 -0.0067389)
(0.0018543 0.00400284 -0.00491931)
(-0.000268403 0.00354205 -0.0030728)
(-0.00221643 0.00298052 -0.0012545)
(-0.00384885 0.00230857 0.000520892)
(-0.00507036 0.00150892 0.00223581)
(-0.00581147 0.000577361 0.00385947)
(-0.00602104 -0.000465701 0.00535837)
(-0.00566206 -0.00157233 0.00670663)
(-0.00471116 -0.00266709 0.00789193)
(-0.00316906 -0.00365071 0.00891758)
(-0.00109981 -0.00441686 0.00979055)
(0.00129579 -0.00489038 0.0104861)
(0.00365266 -0.00507186 0.0109253)
(0.0055341 -0.00504129 0.0110017)
(0.00657226 -0.00491345 0.0106222)
(0.00658314 -0.00476646 0.0097423)
(0.00561737 -0.00459729 0.00840323)
(0.00392484 -0.00435491 0.0067389)
(0.0018543 -0.00400284 0.00491931)
(-0.000268403 -0.00354205 0.0030728)
(-0.00221643 -0.00298052 0.0012545)
(-0.00384885 -0.00230857 -0.000520892)
(-0.00507036 -0.00150892 -0.00223581)
(-0.00581147 -0.000577361 -0.00385947)
(-0.00602104 0.000465701 -0.00535837)
(-0.00566206 0.00157233 -0.00670663)
(-0.00471116 0.00266709 -0.00789193)
(-0.00316906 0.00365071 -0.00891758)
(-0.00109981 0.00441686 -0.00979055)
(0.00129579 0.00489038 -0.0104861)
(0.00365266 0.00507186 -0.0109253)
(0.0055341 0.00504129 -0.0110017)
(0.005874 0.0046156 -0.0113763)
(0.00614508 0.00519279 -0.0104356)
(0.00594167 0.00557911 -0.00891476)
(0.00518114 0.00571586 -0.00704958)
(0.00389423 0.00562198 -0.00505908)
(0.0022804 0.0053402 -0.00307495)
(0.000626863 0.00490457 -0.00114659)
(-0.000827753 0.0043222 0.000718444)
(-0.00193478 0.00358746 0.00250718)
(-0.00260893 0.00270652 0.00418859)
(-0.00280082 0.00170918 0.00572644)
(-0.00248457 0.00064909 0.0070922)
(-0.00166207 -0.000401438 0.00827226)
(-0.000389213 -0.00136305 0.0092733)
(0.00117881 -0.00217562 0.010121)
(0.00278367 -0.0028346 0.0108364)
(0.00417165 -0.00340568 0.0113909)
(0.00520963 -0.00398755 0.0116472)
(0.005874 -0.0046156 0.0113763)
(0.00614508 -0.00519279 0.0104356)
(0.00594167 -0.00557911 0.00891476)
(0.00518114 -0.00571586 0.00704958)
(0.00389423 -0.00562198 0.00505908)
(0.0022804 -0.0053402 0.00307495)
(0.000626863 -0.00490457 0.00114659)
(-0.000827753 -0.0043222 -0.000718444)
(-0.00193478 -0.00358746 -0.00250718)
(-0.00260893 -0.00270652 -0.00418859)
(-0.00280082 -0.00170918 -0.00572644)
(-0.00248457 -0.00064909 -0.0070922)
(-0.00166207 0.000401438 -0.00827226)
(-0.000389213 0.00136305 -0.0092733)
(0.00117881 0.00217562 -0.010121)
(0.00278367 0.0028346 -0.0108364)
(0.00417165 0.00340568 -0.0113909)
(0.00520963 0.00398755 -0.0116472)
(0.00547105 0.00543371 -0.00928092)
(0.00540871 0.00436933 -0.00869439)
(0.00407544 0.00333621 -0.00775331)
(0.0018838 0.0023456 -0.00651098)
(-0.000627639 0.00137949 -0.00507276)
(-0.00303794 0.00043131 -0.00355699)
(-0.00514399 -0.000501544 -0.00203372)
(-0.00687224 -0.00143916 -0.000522062)
(-0.00816744 -0.00241321 0.000968268)
(-0.00896213 -0.00344411 0.00241354)
(-0.0091901 -0.00452251 0.00377944)
(-0.00880073 -0.00559964 0.0050351)
(-0.00776301 -0.00658527 0.00616748)
(-0.00606682 -0.00735559 0.00718469)
(-0.0037489 -0.00777581 0.00808991)
(-0.000978301 -0.0077479 0.00883784)
(0.0018544 -0.00727075 0.00933462)
(0.00418565 -0.00644799 0.00949448)
(0.00547105 -0.00543371 0.00928092)
(0.00540871 -0.00436933 0.00869439)
(0.00407544 -0.00333621 0.00775331)
(0.0018838 -0.0023456 0.00651098)
(-0.000627639 -0.00137949 0.00507276)
(-0.00303794 -0.00043131 0.00355699)
(-0.00514399 0.000501544 0.00203372)
(-0.00687224 0.00143916 0.000522062)
(-0.00816744 0.00241321 -0.000968268)
(-0.00896213 0.00344411 -0.00241354)
(-0.0091901 0.00452251 -0.00377944)
(-0.00880073 0.00559964 -0.0050351)
(-0.00776301 0.00658527 -0.00616748)
(-0.00606682 0.00735559 -0.00718469)
(-0.0037489 0.00777581 -0.00808991)
(-0.000978301 0.0077479 -0.00883784)
(0.0018544 0.00727075 -0.00933462)
(0.00418565 0.00644799 -0.00949448)
(0.0050983 0.00479938 -0.00958396)
(0.00515873 0.00445094 -0.00892993)
(0.00440855 0.0040569 -0.00786618)