/*--------------------------------*- C++ -*----------------------------------*\
| =========                 |                                                 |
| \\      /  F ield         | OpenFOAM: The Open Source CFD Toolbox           |
|  \\    /   O peration     | Version:  2312                                  |
|   \\  /    A nd           | Website:  www.openfoam.com                      |
|    \\/     M anipulation  |                                                 |
\*---------------------------------------------------------------------------*/
FoamFile
{
    version     2.0;
    format      ascii;
    arch        "LSB;label=32;scalar=64";
    class       pointVectorField;
    location    "0.9";
    object      pointD;
}
// * * * * * * * * * * * * * * * * * * * * * * * * * * * * * * * * * * * * * //

dimensions      [0 1 0 0 0 0 0];

internalField   nonuniform List<vector> 
2164
(
(0 0 0)
(0 0 0)
(0 0 0)
(0 0 0)
(0 0 0)
(0 0 0)
(0 0 0)
(0 0 0)
(0 0 0)
(0 0 0)
(0 0 0)
(0 0 0)
(0 0 0)
(0 0 0)
(0 0 0)
(0 0 0)
(0 0 0)
(0 0 0)
(0 0 0)
(0 0 0)
(0 0 0)
(0 0 0)
(0 0 0)
(0 0 0)
(0 0 0)
(0 0 0)
(0 0 0)
(0 0 0)
(0 0 0)
(0 0 0)
(0 0 0)
(0 0 0)
(0 0 0)
(0 0 0)
(0 0 0)
(0 0 0)
(0.00243631 -4.12001e-05 -0.00439557)
(0.00280156 0.000560612 -0.00368224)
(0.00247424 0.00106495 -0.00260573)
(0.00178918 0.00135116 -0.00146778)
(0.00102827 0.00145264 -0.000482441)
(0.000325969 0.00141863 0.000259256)
(-0.000279682 0.00128923 0.000750902)
(-0.000793937 0.00111019 0.00103594)
(-0.00123562 0.000927052 0.00118962)
(-0.00162064 0.000765505 0.0013021)
(-0.00195102 0.000619979 0.00145903)
(-0.00220702 0.00046135 0.00172256)
(-0.00234265 0.000267356 0.00211533)
(-0.00228466 7.08114e-05 0.00261579)
(-0.00193407 -1.31129e-05 0.00317659)
(-0.00118073 0.000127896 0.00374731)
(5.95607e-06 0.000394378 0.00424625)
(0.00137202 0.000430484 0.00454239)
(0.00243631 4.12001e-05 0.00439557)
(0.00280156 -0.000560612 0.00368224)
(0.00247424 -0.00106495 0.00260573)
(0.00178918 -0.00135116 0.00146778)
(0.00102827 -0.00145264 0.000482441)
(0.000325969 -0.00141863 -0.000259256)
(-0.000279682 -0.00128923 -0.000750902)
(-0.000793937 -0.00111019 -0.00103594)
(-0.00123562 -0.000927052 -0.00118962)
(-0.00162064 -0.000765505 -0.0013021)
(-0.00195102 -0.000619979 -0.00145903)
(-0.00220702 -0.00046135 -0.00172256)
(-0.00234265 -0.000267356 -0.00211533)
(-0.00228466 -7.08114e-05 -0.00261579)
(-0.00193407 1.31129e-05 -0.00317659)
(-0.00118073 -0.000127896 -0.00374731)
(5.95607e-06 -0.000394378 -0.00424625)
(0.00137202 -0.000430484 -0.00454239)
(0.00157492 0.000497272 -0.00410991)
(0.00181669 0.000785742 -0.0035443)
(0.00161333 0.00112837 -0.00275248)
(0.00112133 0.00143595 -0.00187708)
(0.000518356 0.00167189 -0.00103675)
(-7.69785e-05 0.00181233 -0.000301232)
(-0.000603569 0.00184925 0.000306026)
(-0.00103901 0.00179661 0.000797987)
(-0.00138133 0.00167788 0.00121274)
(-0.00163416 0.00150748 0.0015991)
(-0.00179608 0.00128146 0.00200115)
(-0.00185539 0.000983054 0.00244415)
(-0.00179074 0.000604154 0.00292332)
(-0.00157787 0.000179821 0.00340102)
(-0.00119698 -0.000187472 0.00382274)
(-0.000630719 -0.000373749 0.00414602)
(0.000119966 -0.000370332 0.0043385)
(0.000933963 -0.000357945 0.00435791)
(0.00157492 -0.000497272 0.00410991)
(0.00181669 -0.000785742 0.0035443)
(0.00161333 -0.00112837 0.00275248)
(0.00112133 -0.00143595 0.00187708)
(0.000518356 -0.00167189 0.00103675)
(-7.69785e-05 -0.00181233 0.000301232)
(-0.000603569 -0.00184925 -0.000306026)
(-0.00103901 -0.00179661 -0.000797987)
(-0.00138133 -0.00167788 -0.00121274)
(-0.00163416 -0.00150748 -0.0015991)
(-0.00179608 -0.00128146 -0.00200115)
(-0.00185539 -0.000983054 -0.00244415)
(-0.00179074 -0.000604154 -0.00292332)
(-0.00157787 -0.000179821 -0.00340102)
(-0.00119698 0.000187472 -0.00382274)
(-0.000630719 0.000373749 -0.00414602)
(0.000119966 0.000370332 -0.0043385)
(0.000933963 0.000357945 -0.00435791)
(0 0 0)
(0 0 0)
(0 0 0)
(0 0 0)
(0 0 0)
(0 0 0)
(0 0 0)
(0 0 0)
(0 0 0)
(0 0 0)
(0 0 0)
(0 0 0)
(0 0 0)
(0 0 0)
(0 0 0)
(0 0 0)
(0 0 0)
(0 0 0)
(0 0 0)
(0 0 0)
(0 0 0)
(0 0 0)
(0 0 0)
(0 0 0)
(0 0 0)
(0 0 0)
(0 0 0)
(0 0 0)
(0 0 0)
(0 0 0)
(0 0 0)
(0 0 0)
(0 0 0)
(0 0 0)
(0 0 0)
(0 0 0)
(0.000787427 0.00093175 -0.00379521)
(0.000924656 0.000938313 -0.00339217)
(0.000839214 0.0011408 -0.00288536)
(0.000527142 0.00148873 -0.00226751)
(6.47968e-05 0.00188084 -0.00156702)
(-0.000445753 0.00221809 -0.000831597)
(-0.000919343 0.00244003 -0.000100786)
(-0.00130396 0.00252506 0.00060718)
(-0.00157507 0.00247162 0.00129022)
(-0.0017224 0.00228261 0.00195079)
(-0.00173971 0.00195936 0.00258642)
(-0.00162184 0.00150436 0.0031833)
(-0.00137069 0.000931513 0.00371188)
(-0.00100951 0.000284158 0.0041266)
(-0.000594681 -0.0003452 0.00437791)
(-0.000194062 -0.000821233 0.0044428)
(0.000170639 -0.00103621 0.00434294)
(0.000508313 -0.00102458 0.0041156)
(0.000787427 -0.00093175 0.00379521)
(0.000924656 -0.000938313 0.00339217)
(0.000839214 -0.0011408 0.00288536)
(0.000527142 -0.00148873 0.00226751)
(6.47968e-05 -0.00188084 0.00156702)
(-0.000445753 -0.00221809 0.000831597)
(-0.000919343 -0.00244003 0.000100786)
(-0.00130396 -0.00252506 -0.00060718)
(-0.00157507 -0.00247162 -0.00129022)
(-0.0017224 -0.00228261 -0.00195079)
(-0.00173971 -0.00195936 -0.00258642)
(-0.00162184 -0.00150436 -0.0031833)
(-0.00137069 -0.000931513 -0.00371188)
(-0.00100951 -0.000284158 -0.0041266)
(-0.000594681 0.0003452 -0.00437791)
(-0.000194062 0.000821233 -0.0044428)
(0.000170639 0.00103621 -0.00434294)
(0.000508313 0.00102458 -0.0041156)
(0 0 0)
(0 0 0)
(0 0 0)
(0 0 0)
(0 0 0)
(0 0 0)
(0 0 0)
(0 0 0)
(0 0 0)
(0 0 0)
(0 0 0)
(0 0 0)
(0 0 0)
(0 0 0)
(0 0 0)
(0 0 0)
(0 0 0)
(0 0 0)
(0 0 0)
(0 0 0)
(0 0 0)
(0 0 0)
(0 0 0)
(0 0 0)
(0 0 0)
(0 0 0)
(0 0 0)
(0 0 0)
(0 0 0)
(0 0 0)
(0 0 0)
(0 0 0)
(0 0 0)
(0 0 0)
(0 0 0)
(0 0 0)
(0.000151601 0.00119099 -0.00347837)
(0.00021883 0.00101755 -0.00322239)
(0.000236487 0.0011304 -0.0029558)
(8.61748e-05 0.00152782 -0.00255898)
(-0.000245738 0.00207239 -0.00198409)
(-0.000681325 0.00260436 -0.00125181)
(-0.00111806 0.00301181 -0.000409989)
(-0.00147587 0.00323442 0.000495548)
(-0.00170646 0.00324375 0.00142255)
(-0.00178403 0.00303183 0.00232572)
(-0.00169623 0.00260837 0.00315518)
(-0.00144345 0.00199947 0.00385961)
(-0.00104939 0.00124617 0.00438959)
(-0.000580617 0.00040728 0.00470054)
(-0.000156746 -0.000424883 0.0047614)
(9.5e-05 -0.00110262 0.00458135)
(0.000152967 -0.00145431 0.00423557)
(0.00013372 -0.00143281 0.00382868)
(0.000151601 -0.00119099 0.00347837)
(0.00021883 -0.00101755 0.00322239)
(0.000236487 -0.0011304 0.0029558)
(8.61748e-05 -0.00152782 0.00255898)
(-0.000245738 -0.00207239 0.00198409)
(-0.000681325 -0.00260436 0.00125181)
(-0.00111806 -0.00301181 0.000409989)
(-0.00147587 -0.00323442 -0.000495548)
(-0.00170646 -0.00324375 -0.00142255)
(-0.00178403 -0.00303183 -0.00232572)
(-0.00169623 -0.00260837 -0.00315518)
(-0.00144345 -0.00199947 -0.00385961)
(-0.00104939 -0.00124617 -0.00438959)
(-0.000580617 -0.00040728 -0.00470054)
(-0.000156746 0.000424883 -0.0047614)
(9.5e-05 0.00110262 -0.00458135)
(0.000152967 0.00145431 -0.00423557)
(0.00013372 0.00143281 -0.00382868)
(0 0 0)
(0 0 0)
(0 0 0)
(0 0 0)
(0 0 0)
(0 0 0)
(0 0 0)
(0 0 0)
(0 0 0)
(0 0 0)
(0 0 0)
(0 0 0)
(0 0 0)
(0 0 0)
(0 0 0)
(0 0 0)
(0 0 0)
(0 0 0)
(0 0 0)
(0 0 0)
(0 0 0)
(0 0 0)
(0 0 0)
(0 0 0)
(0 0 0)
(0 0 0)
(0 0 0)
(0 0 0)
(0 0 0)
(0 0 0)
(0 0 0)
(0 0 0)
(0 0 0)
(0 0 0)
(0 0 0)
(0 0 0)
(0.00517335 0.00104337 -0.00784536)
(0.00529295 0.00164066 -0.00650301)
(0.00410251 0.00214584 -0.00472193)
(0.00236957 0.00251828 -0.00293521)
(0.000625898 0.00276922 -0.0013783)
(-0.000895026 0.00286926 -0.00013392)
(-0.00214299 0.00281117 0.000794925)
(-0.00314288 0.00263713 0.0014621)
(-0.00393577 0.0024041 0.00196921)
(-0.00455139 0.00213981 0.0024412)
(-0.00499426 0.00182439 0.002993)
(-0.00523583 0.00140425 0.00369708)
(-0.00520727 0.000837126 0.00455945)
(-0.00478596 0.00016413 0.00551933)
(-0.00378173 -0.000426149 0.00649056)
(-0.00199317 -0.0006738 0.00740672)
(0.000558782 -0.0005694 0.00811834)
(0.00334024 -0.000597588 0.00836636)
(0.00517335 -0.00104337 0.00784536)
(0.00529295 -0.00164066 0.00650301)
(0.00410251 -0.00214584 0.00472193)
(0.00236957 -0.00251828 0.00293521)
(0.000625898 -0.00276922 0.0013783)
(-0.000895026 -0.00286926 0.00013392)
(-0.00214299 -0.00281117 -0.000794925)
(-0.00314288 -0.00263713 -0.0014621)
(-0.00393577 -0.0024041 -0.00196921)
(-0.00455139 -0.00213981 -0.0024412)
(-0.00499426 -0.00182439 -0.002993)
(-0.00523583 -0.00140425 -0.00369708)
(-0.00520727 -0.000837126 -0.00455945)
(-0.00478596 -0.00016413 -0.00551933)
(-0.00378173 0.000426149 -0.00649056)
(-0.00199317 0.0006738 -0.00740672)
(0.000558782 0.0005694 -0.00811834)
(0.00334024 0.000597588 -0.00836636)
(0.00386433 0.00147242 -0.00751572)
(0.00402394 0.00178509 -0.00646946)
(0.00326059 0.00222095 -0.00509579)
(0.00199821 0.00270745 -0.00360227)
(0.000608429 0.00315326 -0.00214442)
(-0.000683327 0.0034573 -0.000818583)
(-0.00177719 0.00357115 0.000334575)
(-0.00264814 0.00350647 0.00132564)
(-0.00330234 0.00329774 0.00220391)
(-0.00374935 0.00296591 0.00303563)
(-0.00398691 0.00250476 0.00387931)
(-0.00399438 0.00189076 0.00476368)
(-0.00373194 0.0011138 0.00567234)
(-0.00314341 0.000226219 0.00654206)
(-0.00216478 -0.000607905 0.0072872)
(-0.000758442 -0.00115211 0.00784206)
(0.000978868 -0.00131139 0.0081387)
(0.00270396 -0.00132908 0.00806971)
(0.00386433 -0.00147242 0.00751572)
(0.00402394 -0.00178509 0.00646946)
(0.00326059 -0.00222095 0.00509579)
(0.00199821 -0.00270745 0.00360227)
(0.000608429 -0.00315326 0.00214442)
(-0.000683327 -0.0034573 0.000818583)
(-0.00177719 -0.00357115 -0.000334575)
(-0.00264814 -0.00350647 -0.00132564)
(-0.00330234 -0.00329774 -0.00220391)
(-0.00374935 -0.00296591 -0.00303563)
(-0.00398691 -0.00250476 -0.00387931)
(-0.00399438 -0.00189076 -0.00476368)
(-0.00373194 -0.0011138 -0.00567234)
(-0.00314341 -0.000226219 -0.00654206)
(-0.00216478 0.000607905 -0.0072872)
(-0.000758442 0.00115211 -0.00784206)
(0.000978868 0.00131139 -0.0081387)
(0.00270396 0.00132908 -0.00806971)
(0.00264089 0.00181084 -0.0070801)
(0.00284898 0.00184352 -0.00636248)
(0.00249984 0.00220231 -0.00540542)
(0.0016945 0.00280283 -0.00421407)
(0.000642666 0.00345701 -0.00286658)
(-0.000439682 0.00398498 -0.00146974)
(-0.00140239 0.00429105 -9.91769e-05)
(-0.00216986 0.0043508 0.00121383)
(-0.00271212 0.00417024 0.00246382)
(-0.00301675 0.00376137 0.00365182)
(-0.00307305 0.00313541 0.00477302)
(-0.00286699 0.0023068 0.00580904)
(-0.00238714 0.00130571 0.00672232)
(-0.00164407 0.000200653 0.00745306)
(-0.00070127 -0.00086621 0.00792507)
(0.000315128 -0.00167369 0.00808373)
(0.00125551 -0.00203194 0.00795396)
(0.0020417 -0.00198006 0.00760503)
(0.00264089 -0.00181084 0.0070801)
(0.00284898 -0.00184352 0.00636248)
(0.00249984 -0.00220231 0.00540542)
(0.0016945 -0.00280283 0.00421407)
(0.000642666 -0.00345701 0.00286658)
(-0.000439682 -0.00398498 0.00146974)
(-0.00140239 -0.00429105 9.91769e-05)
(-0.00216986 -0.0043508 -0.00121383)
(-0.00271212 -0.00417024 -0.00246382)
(-0.00301675 -0.00376137 -0.00365182)
(-0.00307305 -0.00313541 -0.00477302)
(-0.00286699 -0.0023068 -0.00580904)
(-0.00238714 -0.00130571 -0.00672232)
(-0.00164407 -0.000200653 -0.00745306)
(-0.00070127 0.00086621 -0.00792507)
(0.000315128 0.00167369 -0.00808373)
(0.00125551 0.00203194 -0.00795396)
(0.0020417 0.00198006 -0.00760503)
(0.0016348 0.00201334 -0.00659496)
(0.00188508 0.00186157 -0.00617101)
(0.00189876 0.00215764 -0.00556754)
(0.00152008 0.00284496 -0.00464916)
(0.000798375 0.00368192 -0.00342243)
(-7.84718e-05 0.0044227 -0.00198667)
(-0.000921639 0.00492074 -0.000440069)
(-0.00160744 0.00510969 0.00114938)
(-0.00206841 0.00496348 0.00272329)
(-0.00226823 0.00448441 0.00421794)
(-0.00218648 0.00370257 0.00556578)
(-0.0018158 0.00267266 0.00670281)
(-0.00117504 0.00146728 0.00757275)
(-0.000342946 0.000176075 0.0081226)
(0.000500885 -0.00106823 0.00829717)
(0.00110614 -0.00204763 0.00807651)
(0.00133816 -0.0025053 0.00758012)
(0.00142102 -0.00238228 0.00703907)
(0.0016348 -0.00201334 0.00659496)
(0.00188508 -0.00186157 0.00617101)
(0.00189876 -0.00215764 0.00556754)
(0.00152008 -0.00284496 0.00464916)
(0.000798375 -0.00368192 0.00342243)
(-7.84718e-05 -0.0044227 0.00198667)
(-0.000921639 -0.00492074 0.000440069)
(-0.00160744 -0.00510969 -0.00114938)
(-0.00206841 -0.00496348 -0.00272329)
(-0.00226823 -0.00448441 -0.00421794)
(-0.00218648 -0.00370257 -0.00556578)
(-0.0018158 -0.00267266 -0.00670281)
(-0.00117504 -0.00146728 -0.00757275)
(-0.000342946 -0.000176075 -0.0081226)
(0.000500885 0.00106823 -0.00829717)
(0.00110614 0.00204763 -0.00807651)
(0.00133816 0.0025053 -0.00758012)
(0.00142102 0.00238228 -0.00703907)
(0.00818736 0.00288861 -0.0102307)
(0.00747414 0.00292177 -0.00855678)
(0.00505107 0.00308624 -0.00647404)
(0.00210326 0.00332712 -0.00440146)
(-0.000637372 0.00354491 -0.00253358)
(-0.00290681 0.00363305 -0.000932615)
(-0.00469674 0.00354715 0.000395773)
(-0.00606954 0.00330949 0.00149045)
(-0.00708326 0.00296276 0.00243569)
(-0.0077725 0.00252298 0.00334061)
(-0.00814289 0.00196338 0.00430424)
(-0.0081667 0.00123094 0.00538124)
(-0.0077696 0.00028906 0.00656128)
(-0.00679107 -0.000821373 0.00778034)
(-0.00492975 -0.00192396 0.00896999)
(-0.00186253 -0.00273105 0.0100765)
(0.00222966 -0.00303366 0.0109111)
(0.00620022 -0.00297806 0.0110585)
(0.00818736 -0.00288861 0.0102307)
(0.00747414 -0.00292177 0.00855678)
(0.00505107 -0.00308624 0.00647404)
(0.00210326 -0.00332712 0.00440146)
(-0.000637372 -0.00354491 0.00253358)
(-0.00290681 -0.00363305 0.000932615)
(-0.00469674 -0.00354715 -0.000395773)
(-0.00606954 -0.00330949 -0.00149045)
(-0.00708326 -0.00296276 -0.00243569)
(-0.0077725 -0.00252298 -0.00334061)
(-0.00814289 -0.00196338 -0.00430424)
(-0.0081667 -0.00123094 -0.00538124)
(-0.0077696 -0.00028906 -0.00656128)
(-0.00679107 0.000821373 -0.00778034)
(-0.00492975 0.00192396 -0.00896999)
(-0.00186253 0.00273105 -0.0100765)
(0.00222966 0.00303366 -0.0109111)
(0.00620022 0.00297806 -0.0110585)
(0.00664827 0.00277858 -0.00984938)
(0.0062754 0.00285272 -0.00852168)
(0.00466828 0.00318329 -0.00682875)
(0.00251248 0.00366675 -0.00498285)
(0.000330043 0.00413179 -0.00314882)
(-0.00159822 0.00443284 -0.00142734)
(-0.00317576 0.00450612 0.000139053)
(-0.00439337 0.00435636 0.00155199)
(-0.0052663 0.00401277 0.00284629)
(-0.0058064 0.00349351 0.00407366)
(-0.00601038 0.00279429 0.00528002)
(-0.00585446 0.00189921 0.00648319)
(-0.00528898 0.000808856 0.00765946)
(-0.00422592 -0.000418292 0.00874873)
(-0.00252931 -0.00162007 0.00968091)
(-0.00010827 -0.002536 0.0103921)
(0.00277819 -0.00294596 0.010773)
(0.00535278 -0.00290894 0.0106272)
(0.00664827 -0.00277858 0.00984938)
(0.0062754 -0.00285272 0.00852168)
(0.00466828 -0.00318329 0.00682875)
(0.00251248 -0.00366675 0.00498285)
(0.000330043 -0.00413179 0.00314882)
(-0.00159822 -0.00443284 0.00142734)
(-0.00317576 -0.00450612 -0.000139053)
(-0.00439337 -0.00435636 -0.00155199)
(-0.0052663 -0.00401277 -0.00284629)
(-0.0058064 -0.00349351 -0.00407366)
(-0.00601038 -0.00279429 -0.00528002)
(-0.00585446 -0.00189921 -0.00648319)
(-0.00528898 -0.000808856 -0.00765946)
(-0.00422592 0.000418292 -0.00874873)
(-0.00252931 0.00162007 -0.00968091)
(-0.00010827 0.002536 -0.0103921)
(0.00277819 0.00294596 -0.010773)
(0.00535278 0.00290894 -0.0106272)
(0.00517981 0.00269762 -0.00941646)
(0.00518733 0.00277231 -0.00844583)
(0.00440563 0.00321228 -0.00711703)
(0.00304118 0.00389984 -0.00548798)
(0.00140771 0.00459974 -0.00369724)
(-0.000194633 0.00511659 -0.00187574)
(-0.00157891 0.00535933 -9.44442e-05)
(-0.0026645 0.00530808 0.00161742)
(-0.00342317 0.00497134 0.0032453)
(-0.00384196 0.00436684 0.00477881)
(-0.0039066 0.00351559 0.00620582)
(-0.00359535 0.0024445 0.00750521)
(-0.00288186 0.00119607 0.0086409)
(-0.0017513 -0.000152304 0.00955975)
(-0.000241403 -0.00145124 0.0101943)
(0.00149699 -0.00245823 0.0104833)
(0.00316193 -0.00293747 0.0104216)
(0.00444541 -0.00288778 0.0100602)
(0.00517981 -0.00269762 0.00941646)
(0.00518733 -0.00277231 0.00844583)
(0.00440563 -0.00321228 0.00711703)
(0.00304118 -0.00389984 0.00548798)
(0.00140771 -0.00459974 0.00369724)
(-0.000194633 -0.00511659 0.00187574)
(-0.00157891 -0.00535933 9.44442e-05)
(-0.0026645 -0.00530808 -0.00161742)
(-0.00342317 -0.00497134 -0.0032453)
(-0.00384196 -0.00436684 -0.00477881)
(-0.0039066 -0.00351559 -0.00620582)
(-0.00359535 -0.0024445 -0.00750521)
(-0.00288186 -0.00119607 -0.0086409)
(-0.0017513 0.000152304 -0.00955975)
(-0.000241403 0.00145124 -0.0101943)
(0.00149699 0.00245823 -0.0104833)
(0.00316193 0.00293747 -0.0104216)
(0.00444541 0.00288778 -0.0100602)
(0.00394626 0.00269795 -0.00898745)
(0.00428076 0.00276814 -0.00831685)
(0.00422471 0.00325243 -0.00727604)
(0.00359608 0.00406776 -0.00584046)
(0.00250007 0.00495215 -0.00411389)
(0.00122434 0.005663 -0.0022328)
(2.69611e-05 0.00607189 -0.000285078)
(-0.0009433 0.00612543 0.0016743)
(-0.00161213 0.0058062 0.00358513)
(-0.00193904 0.00512885 0.00537694)
(-0.00189732 0.00413906 0.00698041)
(-0.00146893 0.00290629 0.00833598)
(-0.000656965 0.00151443 0.00939486)
(0.000471957 6.01426e-05 0.0101108)
(0.00171605 -0.00131603 0.0104298)
(0.00274073 -0.00238688 0.0103263)
(0.00330101 -0.00291647 0.00991674)
(0.00358605 -0.00289058 0.00945326)
(0.00394626 -0.00269795 0.00898745)
(0.00428076 -0.00276814 0.00831685)
(0.00422471 -0.00325243 0.00727604)
(0.00359608 -0.00406776 0.00584046)
(0.00250007 -0.00495215 0.00411389)
(0.00122434 -0.005663 0.0022328)
(2.69611e-05 -0.00607189 0.000285078)
(-0.0009433 -0.00612543 -0.0016743)
(-0.00161213 -0.0058062 -0.00358513)
(-0.00193904 -0.00512885 -0.00537694)
(-0.00189732 -0.00413906 -0.00698041)
(-0.00146893 -0.00290629 -0.00833598)
(-0.000656965 -0.00151443 -0.00939486)
(0.000471957 -6.01426e-05 -0.0101108)
(0.00171605 0.00131603 -0.0104298)
(0.00274073 0.00238688 -0.0103263)
(0.00330101 0.00291647 -0.00991674)
(0.00358605 0.00289058 -0.00945326)
(0.00983438 0.00436027 -0.0112396)
(0.00854213 0.00378559 -0.00957383)
(0.00537344 0.00356366 -0.00756068)
(0.00167222 0.00354988 -0.005498)
(-0.00167645 0.00355835 -0.00354304)
(-0.00439633 0.00347696 -0.00175101)
(-0.00652014 0.0032524 -0.000133008)
(-0.00812628 0.0028752 0.00132303)
(-0.00926366 0.0023567 0.00265727)
(-0.00995242 0.00169803 0.00393149)
(-0.0101878 0.000877031 0.00520515)
(-0.00993532 -0.000139188 0.00650765)
(-0.00911035 -0.00135951 0.00782675)
(-0.00752463 -0.00272102 0.00913042)
(-0.00483221 -0.00404901 0.010395)
(-0.000769249 -0.00506175 0.0115331)
(0.00412711 -0.00545291 0.0122702)
(0.00823417 -0.0051005 0.0122146)
(0.00983438 -0.00436027 0.0112396)
(0.00854213 -0.00378559 0.00957383)
(0.00537344 -0.00356366 0.00756068)
(0.00167222 -0.00354988 0.005498)
(-0.00167645 -0.00355835 0.00354304)
(-0.00439633 -0.00347696 0.00175101)
(-0.00652014 -0.0032524 0.000133008)
(-0.00812628 -0.0028752 -0.00132303)
(-0.00926366 -0.0023567 -0.00265727)
(-0.00995242 -0.00169803 -0.00393149)
(-0.0101878 -0.000877031 -0.00520515)
(-0.00993532 0.000139188 -0.00650765)
(-0.00911035 0.00135951 -0.00782675)
(-0.00752463 0.00272102 -0.00913042)
(-0.00483221 0.00404901 -0.010395)
(-0.000769249 0.00506175 -0.0115331)
(0.00412711 0.00545291 -0.0122702)
(0.00823417 0.0051005 -0.0122146)
(0.00837689 0.00387265 -0.0110099)
(0.0076132 0.00369085 -0.00960544)
(0.00548342 0.00383261 -0.00781925)
(0.00277029 0.00414319 -0.00585071)
(9.87014e-05 0.00442506 -0.0038671)
(-0.00222328 0.00455605 -0.00195644)
(-0.00410932 0.00448076 -0.000149448)
(-0.00555239 0.00418695 0.00154488)
(-0.00655857 0.00368419 0.00313216)
(-0.0071286 0.0029834 0.00463146)
(-0.00725115 0.00208732 0.00606317)
(-0.00689644 0.000997117 0.00743142)
(-0.00600693 -0.00026596 0.0087145)
(-0.0044779 -0.00162855 0.00987645)
(-0.00215662 -0.00293376 0.0108839)
(0.000982697 -0.00393956 0.0116668)
(0.00445993 -0.00439762 0.0120612)
(0.00724882 -0.00425828 0.0118633)
(0.00837689 -0.00387265 0.0110099)
(0.0076132 -0.00369085 0.00960544)
(0.00548342 -0.00383261 0.00781925)
(0.00277029 -0.00414319 0.00585071)
(9.87014e-05 -0.00442506 0.0038671)
(-0.00222328 -0.00455605 0.00195644)
(-0.00410932 -0.00448076 0.000149448)
(-0.00555239 -0.00418695 -0.00154488)
(-0.00655857 -0.00368419 -0.00313216)
(-0.0071286 -0.0029834 -0.00463146)
(-0.00725115 -0.00208732 -0.00606317)
(-0.00689644 -0.000997117 -0.00743142)
(-0.00600693 0.00026596 -0.0087145)
(-0.0044779 0.00162855 -0.00987645)
(-0.00215662 0.00293376 -0.0108839)
(0.000982697 0.00393956 -0.0116668)
(0.00445993 0.00439762 -0.0120612)
(0.00724882 0.00425828 -0.0118633)
(0.00696053 0.00356212 -0.0108876)
(0.00678284 0.00372382 -0.00970445)
(0.0057236 0.00414849 -0.00808026)
(0.00400985 0.00471628 -0.00617109)
(0.00200737 0.00523327 -0.00415638)
(6.44117e-05 0.00555967 -0.00214501)
(-0.00160589 0.00562967 -0.000175073)
(-0.00291047 0.00542047 0.00173273)
(-0.00381222 0.00493322 0.00355218)
(-0.00429099 0.00418573 0.00525778)
(-0.00432669 0.00320635 0.00682842)
(-0.00389256 0.00203254 0.00824169)
(-0.00295619 0.000718188 0.00946753)
(-0.00149736 -0.000651741 0.0104708)
(0.000433866 -0.0019374 0.0112188)
(0.00262513 -0.0029378 0.0116786)
(0.0046896 -0.00347755 0.0118124)
(0.00622309 -0.00358419 0.0115738)
(0.00696053 -0.00356212 0.0108876)
(0.00678284 -0.00372382 0.00970445)
(0.0057236 -0.00414849 0.00808026)
(0.00400985 -0.00471628 0.00617109)
(0.00200737 -0.00523327 0.00415638)
(6.44117e-05 -0.00555967 0.00214501)
(-0.00160589 -0.00562967 0.000175073)
(-0.00291047 -0.00542047 -0.00173273)
(-0.00381222 -0.00493322 -0.00355218)
(-0.00429099 -0.00418573 -0.00525778)
(-0.00432669 -0.00320635 -0.00682842)
(-0.00389256 -0.00203254 -0.00824169)
(-0.00295619 -0.000718188 -0.00946753)
(-0.00149736 0.000651741 -0.0104708)
(0.000433866 0.0019374 -0.0112188)
(0.00262513 0.0029378 -0.0116786)
(0.0046896 0.00347755 -0.0118124)
(0.00622309 0.00358419 -0.0115738)
(0.00573128 0.00348509 -0.0108408)
(0.00608128 0.0039153 -0.00981883)
(0.00598671 0.00452457 -0.00829843)
(0.00521229 0.00526006 -0.00643298)
(0.003872 0.00595223 -0.00440103)
(0.00231642 0.00644322 -0.00231591)
(0.000861344 0.00664695 -0.000217813)
(-0.000317039 0.00652168 0.00186507)
(-0.00113412 0.00605486 0.00387935)
(-0.0015448 0.00526763 0.00575793)
(-0.00151885 0.0042113 0.00743901)
(-0.00103451 0.00295772 0.00887322)
(-9.15339e-05 0.00159149 0.0100224)
(0.00123807 0.000207792 0.0108578)
(0.00272066 -0.00107273 0.0113641)
(0.00398212 -0.00209779 0.011568)
(0.00479139 -0.00277003 0.0115505)
(0.005285 -0.00316223 0.0113561)
(0.00573128 -0.00348509 0.0108408)
(0.00608128 -0.0039153 0.00981883)
(0.00598671 -0.00452457 0.00829843)
(0.00521229 -0.00526006 0.00643298)
(0.003872 -0.00595223 0.00440103)
(0.00231642 -0.00644322 0.00231591)
(0.000861345 -0.00664695 0.000217813)
(-0.000317039 -0.00652168 -0.00186507)
(-0.00113412 -0.00605486 -0.00387935)
(-0.0015448 -0.00526763 -0.00575793)
(-0.00151885 -0.0042113 -0.00743901)
(-0.00103451 -0.00295772 -0.00887322)
(-9.15339e-05 -0.00159149 -0.0100224)
(0.00123807 -0.000207792 -0.0108578)
(0.00272066 0.00107273 -0.0113641)
(0.00398212 0.00209779 -0.011568)
(0.00479139 0.00277003 -0.0115505)
(0.005285 0.00316223 -0.0113561)
(0.00980652 0.00503112 -0.0111841)
(0.00838574 0.00418268 -0.0097339)
(0.00514104 0.00363191 -0.00795634)
(0.00132089 0.00326891 -0.00605624)
(-0.00216764 0.00294919 -0.00417721)
(-0.0050331 0.00260058 -0.00237047)
(-0.0073042 0.00217194 -0.000643242)
(-0.00903832 0.00162208 0.0010012)
(-0.0102501 0.000928269 0.00256365)
(-0.0109273 7.77425e-05 0.00405586)
(-0.0110422 -0.000940045 0.00549373)
(-0.0105457 -0.00212484 0.0068834)
(-0.00934448 -0.00343846 0.00822093)
(-0.00725708 -0.00476906 0.00951174)
(-0.00402334 -0.0059102 0.0107495)
(0.000357354 -0.00659429 0.0117893)
(0.0050665 -0.00661401 0.012318)
(0.00861959 -0.00598683 0.0121047)
(0.00980652 -0.00503112 0.0111841)
(0.00838574 -0.00418268 0.0097339)
(0.00514104 -0.00363191 0.00795634)
(0.00132089 -0.00326891 0.00605624)
(-0.00216764 -0.00294919 0.00417721)
(-0.0050331 -0.00260058 0.00237047)
(-0.0073042 -0.00217194 0.000643242)
(-0.00903832 -0.00162208 -0.0010012)
(-0.0102501 -0.000928269 -0.00256365)
(-0.0109273 -7.77425e-05 -0.00405586)
(-0.0110422 0.000940045 -0.00549373)
(-0.0105457 0.00212484 -0.0068834)
(-0.00934448 0.00343846 -0.00822093)
(-0.00725708 0.00476906 -0.00951174)
(-0.00402334 0.0059102 -0.0107495)
(0.000357354 0.00659429 -0.0117893)
(0.0050665 0.00661401 -0.012318)
(0.00861959 0.00598683 -0.0121047)
(0.00863336 0.00448513 -0.0112095)
(0.00779334 0.0042173 -0.00988388)
(0.0056077 0.0041477 -0.00816102)
(0.00280662 0.00416376 -0.00623427)
(2.01621e-05 0.00413775 -0.00427017)
(-0.00243453 0.00400415 -0.00234318)
(-0.00445979 0.00372191 -0.000470221)
(-0.00602524 0.00326071 0.00133632)
(-0.0071083 0.00260768 0.00305892)
(-0.00768572 0.00176516 0.00468482)
(-0.00773023 0.000745248 0.00620731)
(-0.00720358 -0.000427258 0.00761778)
(-0.00604604 -0.00169907 0.00890286)
(-0.00416573 -0.00296678 0.0100551)
(-0.00148032 -0.00406595 0.0110629)
(0.00186281 -0.00480171 0.0118396)
(0.00523692 -0.00504616 0.0122032)
(0.00772553 -0.00485683 0.0120031)
(0.00863336 -0.00448513 0.0112095)
(0.00779334 -0.0042173 0.00988388)
(0.0056077 -0.0041477 0.00816102)
(0.00280662 -0.00416376 0.00623427)
(2.01621e-05 -0.00413775 0.00427017)
(-0.00243453 -0.00400415 0.00234318)
(-0.00445979 -0.00372191 0.000470221)
(-0.00602524 -0.00326071 -0.00133632)
(-0.0071083 -0.00260768 -0.00305892)
(-0.00768572 -0.00176516 -0.00468482)
(-0.00773023 -0.000745248 -0.00620731)
(-0.00720358 0.000427258 -0.00761778)
(-0.00604604 0.00169907 -0.00890286)
(-0.00416573 0.00296678 -0.0100551)
(-0.00148032 0.00406595 -0.0110629)
(0.00186281 0.00480171 -0.0118396)
(0.00523692 0.00504616 -0.0122032)
(0.00772553 0.00485683 -0.0120031)
(0.00750345 0.00416814 -0.0114698)
(0.007287 0.00446128 -0.0101996)
(0.00618997 0.00480668 -0.0084469)
(0.00441937 0.0051303 -0.00644292)
(0.00232464 0.00534491 -0.00437995)
(0.000257356 0.00539344 -0.00234334)
(-0.00154694 0.00524032 -0.000346805)
(-0.00296855 0.00485949 0.00159885)
(-0.00394844 0.00424196 0.00346265)
(-0.00445133 0.00340159 0.00520791)
(-0.00444867 0.00237144 0.00680427)
(-0.00391143 0.00120084 0.00822733)
(-0.00281202 -4.01755e-05 0.00945589)
(-0.00114944 -0.00125411 0.0104782)
(0.00097566 -0.00231873 0.0112943)
(0.00327717 -0.00311937 0.0118915)
(0.00534238 -0.00362156 0.012211)
(0.00681988 -0.00392112 0.0121235)
(0.00750345 -0.00416814 0.0114698)
(0.007287 -0.00446128 0.0101996)
(0.00618997 -0.00480668 0.0084469)
(0.00441937 -0.0051303 0.00644292)
(0.00232464 -0.00534491 0.00437995)
(0.000257356 -0.00539344 0.00234334)
(-0.00154694 -0.00524032 0.000346805)
(-0.00296855 -0.00485949 -0.00159885)
(-0.00394844 -0.00424196 -0.00346265)
(-0.00445133 -0.00340159 -0.00520791)
(-0.00444867 -0.00237144 -0.00680427)
(-0.00391143 -0.00120084 -0.00822733)
(-0.00281202 4.01755e-05 -0.00945589)
(-0.00114944 0.00125411 -0.0104782)
(0.00097566 0.00231873 -0.0112943)
(0.00327717 0.00311937 -0.0118915)
(0.00534238 0.00362156 -0.012211)
(0.00681988 0.00392112 -0.0121235)
(0.00650318 0.00410332 -0.0118536)
(0.00685772 0.00488743 -0.0105916)
(0.00676073 0.00556153 -0.00876974)
(0.00597051 0.0061125 -0.00667501)
(0.00456808 0.0065074 -0.00451843)
(0.00290321 0.00670053 -0.00238743)
(0.00132378 0.00665642 -0.000289555)
(3.61514e-05 0.00634699 0.00176967)
(-0.000858656 0.00576231 0.00375064)
(-0.00130814 0.00492348 0.00559589)
(-0.00128014 0.00388071 0.00725221)
(-0.000756195 0.00270483 0.00867902)
(0.000253432 0.0014807 0.00984999)
(0.00165547 0.000298961 0.0107607)
(0.00319213 -0.000761012 0.0114408)
(0.00450057 -0.00166453 0.0119524)
(0.00539346 -0.00246352 0.0123196)
(0.0059967 -0.00326768 0.0123855)
(0.00650318 -0.00410332 0.0118536)
(0.00685772 -0.00488743 0.0105916)
(0.00676073 -0.00556153 0.00876974)
(0.00597051 -0.0061125 0.00667501)
(0.00456808 -0.0065074 0.00451843)
(0.00290321 -0.00670053 0.00238743)
(0.00132378 -0.00665642 0.000289555)
(3.61514e-05 -0.00634699 -0.00176967)
(-0.000858656 -0.00576231 -0.00375064)
(-0.00130814 -0.00492348 -0.00559589)
(-0.00128014 -0.00388071 -0.00725221)
(-0.000756195 -0.00270483 -0.00867902)
(0.000253432 -0.0014807 -0.00984999)
(0.00165547 -0.000298961 -0.0107607)
(0.00319213 0.000761012 -0.0114408)
(0.00450057 0.00166453 -0.0119524)
(0.00539346 0.00246352 -0.0123196)
(0.0059967 0.00326768 -0.0123855)
(0.00877981 0.00505563 -0.010576)
(0.00744791 0.00404052 -0.00941409)
(0.00448936 0.00321776 -0.00792238)
(0.000937249 0.002525 -0.0062465)
(-0.00239367 0.00188279 -0.00452627)
(-0.00519511 0.00125791 -0.00282628)
(-0.00746353 0.000613271 -0.00115081)
(-0.00922576 -0.000103904 0.00050046)
(-0.0104598 -0.000937683 0.00211279)
(-0.0111175 -0.00191031 0.0036654)
(-0.0111457 -0.00301899 0.00513948)
(-0.0104849 -0.00422756 0.00652132)
(-0.00905303 -0.00544953 0.00781156)
(-0.00672363 -0.00653284 0.00902963)
(-0.00339064 -0.00726818 0.0101577)
(0.000740449 -0.00745893 0.011046)
(0.00487546 -0.00704205 0.0114652)
(0.00785969 -0.00614933 0.0112944)
(0.00877981 -0.00505563 0.010576)
(0.00744791 -0.00404052 0.00941409)
(0.00448936 -0.00321776 0.00792238)
(0.000937249 -0.002525 0.0062465)
(-0.00239367 -0.00188279 0.00452627)
(-0.00519511 -0.00125791 0.00282628)
(-0.00746353 -0.000613271 0.00115081)
(-0.00922576 0.000103904 -0.00050046)
(-0.0104598 0.000937683 -0.00211279)
(-0.0111175 0.00191031 -0.0036654)
(-0.0111457 0.00301899 -0.00513948)
(-0.0104849 0.00422756 -0.00652132)
(-0.00905303 0.00544953 -0.00781156)
(-0.00672363 0.00653284 -0.00902963)
(-0.00339064 0.00726818 -0.0101577)
(0.000740449 0.00745893 -0.011046)
(0.00487546 0.00704205 -0.0114652)
(0.00785969 0.00614933 -0.0112944)
(0.00792634 0.00458571 -0.0107633)
(0.0071311 0.0042443 -0.00962507)
(0.00514289 0.00397622 -0.00808645)
(0.00255488 0.0037053 -0.00631428)
(-8.86133e-05 0.00337475 -0.00447105)
(-0.00248048 0.00297014 -0.00263891)
(-0.00450161 0.00247327 -0.000833645)
(-0.00609192 0.00185169 0.000937414)
(-0.00719685 0.00107975 0.0026507)
(-0.00776572 0.000153306 0.00427526)