/*--------------------------------*- C++ -*----------------------------------*\
| =========                 |                                                 |
| \\      /  F ield         | OpenFOAM: The Open Source CFD Toolbox           |
|  \\    /   O peration     | Version:  2312                                  |
|   \\  /    A nd           | Website:  www.openfoam.com                      |
|    \\/     M anipulation  |                                                 |
\*---------------------------------------------------------------------------*/
FoamFile
{
    version     2.0;
    format      ascii;
    arch        "LSB;label=32;scalar=64";
    class       volScalarField;
    location    "0.9";
    object      sigmaEq;
}
// * * * * * * * * * * * * * * * * * * * * * * * * * * * * * * * * * * * * * //

dimensions      [1 -1 -2 0 0 0 0];

internalField   nonuniform List<scalar> 
1620
(
54667.1
55012.6
54492.6
53876.2
53556.1
53511.5
53672.5
53990.5
54399.2
54771.8
54909.9
54599.3
53760.1
52624.9
51745.2
51656.9
52414.9
53583
54667.1
55012.6
54492.6
53876.2
53556.1
53511.5
53672.5
53990.5
54399.2
54771.8
54909.9
54599.3
53760.1
52624.9
51745.2
51656.9
52414.9
53583
53723.4
53804.4
53953.4
54127.2
54414.1
54889.2
55562.3
56394.2
57294.1
58104.2
58606.9
58577
57882.8
56626.7
55234
54236.4
53811.8
53720.6
53723.4
53804.4
53953.4
54127.2
54414.1
54889.2
55562.3
56394.2
57294.1
58104.2
58606.9
58577
57882.8
56626.7
55234
54236.4
53811.8
53720.6
55454.8
54476.1
54096.1
54406.2
55251.8
56435.5
57721.4
58817.4
59457.2
59496.4
58967.7
58086
57177.7
56544.1
56348.5
56560.1
56811.5
56470.3
55454.8
54476.1
54096.1
54406.2
55251.8
56435.5
57721.4
58817.4
59457.2
59496.4
58967.7
58086
57177.7
56544.1
56348.5
56560.1
56811.5
56470.3
53257.7
52805.9
52394.8
52309.8
52582.6
53190.3
54004.4
54915.9
55857.8
56735.4
57370.3
57498.4
56817.6
55162.7
53032.5
51764.1
51938.9
52814.8
53257.7
52805.9
52394.8
52309.8
52582.6
53190.3
54004.4
54915.9
55857.8
56735.4
57370.3
57498.4
56817.6
55162.7
53032.5
51764.1
51938.9
52814.8
53225.4
52775.3
52946.4
53425.9
54164.8
55156.4
56335.6
57671.8
59161.6
60780
62480.7
64192.8
65659.8
66020.4
63916.5
59728.7
56152.4
54285.4
53225.4
52775.3
52946.4
53425.9
54164.8
55156.4
56335.6
57671.8
59161.6
60780
62480.7
64192.8
65659.8
66020.4
63916.5
59728.7
56152.4
54285.4
57429.7
55398.9
55049.4
56350.7
59753.3
64527.6
68147.1
69186
68065.1
65692.4
62943.2
60666.8
59617.5
60227.2
62123.4
63644.6
63166.8
60714
57429.7
55398.9
55049.4
56350.7
59753.3
64527.6
68147.1
69186
68065.1
65692.4
62943.2
60666.8
59617.5
60227.2
62123.4
63644.6
63166.8
60714
52904.5
52181.4
51888
52023.5
53031.1
54793.7
56753.6
58607.9
60267.7
61610.8
62396.4
62295.6
60943.9
58008.8
53701.3
50454.7
50706.5
52795.4
52904.5
52181.4
51888
52023.5
53031.1
54793.7
56753.6
58607.9
60267.7
61610.8
62396.4
62295.6
60943.9
58008.8
53701.3
50454.7
50706.5
52795.4
50799.6
50876.2
51100
51377.1
52469.1
54496.6
56800.2
59074.5
61363.5
63728.5
66150.1
68515.4
70433.8
70562
66319.4
58455.6
53239.1
52138.4
50799.6
50876.2
51100
51377.1
52469.1
54496.6
56800.2
59074.5
61363.5
63728.5
66150.1
68515.4
70433.8
70562
66319.4
58455.6
53239.1
52138.4
54927.1
54275.7
53431.3
54353.9
60558.5
71924.5
80300.4
82569.3
80573.5
76221.5
71043.5
66543.2
64085.1
64342
65758.8
64138.9
59702.6
56909.5
54927.1
54275.7
53431.3
54353.9
60558.5
71924.5
80300.4
82569.3
80573.5
76221.5
71043.5
66543.2
64085.1
64342
65758.8
64138.9
59702.6
56909.5
54705
54520.5
53613.5
53403.1
55107.9
57983.7
60516.8
62176.4
63081.7
63334.9
62831.4
61324
58536.6
54110.8
47544.2
42183.3
45971.8
51878
54705
54520.5
53613.5
53403.1
55107.9
57983.7
60516.8
62176.4
63081.7
63334.9
62831.4
61324
58536.6
54110.8
47544.2
42183.3
45971.8
51878
54040.4
52588.7
50112.1
47291.4
46771.6
49751.9
53757.7
57318.5
60209.7
62389.3
63730.4
64034.1
62916.5
59325.9
52080.2
46613.9
49089.6
52694.9
54040.4
52588.7
50112.1
47291.4
46771.6
49751.9
53757.7
57318.5
60209.7
62389.3
63730.4
64034.1
62916.5
59325.9
52080.2
46613.9
49089.6
52694.9
55252.2
53610.3
50664.1
48237.8
54592.3
71440.6
85020.3
91705.4
93430.3
91428.7
86581.9
80280.6
74275.1
69364.3
64314.5
59165.2
56241.1
55372.4
55252.2
53610.3
50664.1
48237.8
54592.3
71440.6
85020.3
91705.4
93430.3
91428.7
86581.9
80280.6
74275.1
69364.3
64314.5
59165.2
56241.1
55372.4
52986.3
54892.1
57337.3
60611.6
62676.7
63866.4
64195.9
63519.5
62277.8
60723.5
58748.7
56043
52218.5
46724.5
39463.7
37130.2
44852.2
50346
52986.3
54892.1
57337.3
60611.6
62676.7
63866.4
64195.9
63519.5
62277.8
60723.5
58748.7
56043
52218.5
46724.5
39463.7
37130.2
44852.2
50346
54458.9
53796.7
50951
45653.7
42171.6
44700.6
49816
54498.3
58008.3
60127.6
60723.7
59748.6
57061.6
52050.5
45114.4
44453.8
50137.8
53396.4
54458.9
53796.7
50951
45653.7
42171.6
44700.6
49816
54498.3
58008.3
60127.6
60723.7
59748.6
57061.6
52050.5
45114.4
44453.8
50137.8
53396.4
56157.7
52525.6
47969
43049.7
48588.8
66934.6
83205.8
93611.6
99851.6
102632
102110
98838.6
93914.2
87871.5
80001.8
72097.8
65829.4
60589.5
56157.7
52525.6
47969
43049.7
48588.8
66934.6
83205.8
93611.6
99851.6
102632
102110
98838.6
93914.2
87871.5
80001.8
72097.8
65829.4
60589.5
52087
54461.3
58518.4
64965.6
68750.3
68797.6
66771.6
63619
60258.7
57120.4
54081
50722.7
46494.8
40858.8
35343.1
37632.1
44750.3
49215.6
52087
54461.3
58518.4
64965.6
68750.3
68797.6
66771.6
63619
60258.7
57120.4
54081
50722.7
46494.8
40858.8
35343.1
37632.1
44750.3
49215.6
54466.7
54142.9
51932.4
46925.8
41874.5
42796.9
47874.6
52923.8
56695.2
58808.1
59067.1
57491
54147.6
49026
44228.7
46109.3
50876.9
53505.5
54466.7
54142.9
51932.4
46925.8
41874.5
42796.9
47874.6
52923.8
56695.2
58808.1
59067.1
57491
54147.6
49026
44228.7
46109.3
50876.9
53505.5
57117.1
51545.3
45626
39999.6
43065.8
59171
76276.5
88771.3
97884.9
104298
108105
109540
109102
106864
101969
94275
82206.2
67386.8
57117.1
51545.3
45626
39999.6
43065.8
59171
76276.5
88771.3
97884.9
104298
108105
109540
109102
106864
101969
94275
82206.2
67386.8
51283.3
53650.7
57064.2
62470.7
66968.2
67929.8
65878.4
62189.3
58086.4
54249.4
50750.4
47252.9
43230.8
38450.1
35525.2
39399.4
44939.2
48498.2
51283.3
53650.7
57064.2
62470.7
66968.2
67929.8
65878.4
62189.3
58086.4
54249.4
50750.4
47252.9
43230.8
38450.1
35525.2
39399.4
44939.2
48498.2
53691.2
53611.1
51943.2
47729.9
42017.4
40947.2
45515.2
50708.7
54610.9
56795.3
57048.2
55380
51938.1
47154.8
44048.3
46534.7
50360.9
52652.8
53691.2
53611.1
51943.2
47729.9
42017.4
40947.2
45515.2
50708.7
54610.9
56795.3
57048.2
55380
51938.1
47154.8
44048.3
46534.7
50360.9
52652.8
57151.7
50856
44667
38908.1
39077.2
51146.7
67553.9
80598.9
90647.4
98497.6
104374
108501
111154
112075
110154
103170
87688.5
69023.8
57151.7
50856
44667
38908.1
39077.2
51146.7
67553.9
80598.9
90647.4
98497.6
104374
108501
111154
112075
110154
103170
87688.5
69023.8
50349.4
52564.1
54993.4
58381.7
61935.6
63566.2
62406.1
59358.4
55627.8
51952.7
48553.5
45258.3
41710
38020.7
36791.8
40555.5
44940.1
47843.5
50349.4
52564.1
54993.4
58381.7
61935.6
63566.2
62406.1
59358.4
55627.8
51952.7
48553.5
45258.3
41710
38020.7
36791.8
40555.5
44940.1
47843.5
52283.6
52362.7
51113.5
47847.9
42585.8
39559.2
42697.6
47858.5
51923
54256.6
54686.6
53210.7
49978
45703.5
43505.1
45786.4
49039
51183.2
52283.6
52362.7
51113.5
47847.9
42585.8
39559.2
42697.6
47858.5
51923
54256.6
54686.6
53210.7
49978
45703.5
43505.1
45786.4
49039
51183.2
56291.9
50658
45238.2
39964.1
38332.3
45391.1
59155.1
71750
81685
89615.6
95908.7
100824
104480
106361
105036
97496.2
82014.5
65991.6
56291.9
50658
45238.2
39964.1
38332.3
45391.1
59155.1
71750
81685
89615.6
95908.7
100824
104480
106361
105036
97496.2
82014.5
65991.6
49181.7
51210.6
53061.6
55059.9
57164.6
58439.3
57902.9
55720.4
52758.5
49676.6
46718.1
43818.8
40825.4
38120.3
37763.3
40923.9
44520.2
47014.7
49181.7
51210.6
53061.6
55059.9
57164.6
58439.3
57902.9
55720.4
52758.5
49676.6
46718.1
43818.8
40825.4
38120.3
37763.3
40923.9
44520.2
47014.7
50504.9
50730
49865.4
47465.2
43288.3
39294.3
39826.8
44064.2
48204.4
50782.5
51507.5
50366.7
47547.7
43968.3
42375.3
44353.9
47295.7
49380
50504.9
50730
49865.4
47465.2
43288.3
39294.3
39826.8
44064.2
48204.4
50782.5
51507.5
50366.7
47547.7
43968.3
42375.3
44353.9
47295.7
49380
55325
50981.7
46896.3
42775.6
40538.9
43383.9
52543.1
63389
72709.4
80263.6
86351
91207.6
94834
96627.2
95022.5
87410.9
74216.4
62302.9
55325
50981.7
46896.3
42775.6
40538.9
43383.9
52543.1
63389
72709.4
80263.6
86351
91207.6
94834
96627.2
95022.5
87410.9
74216.4
62302.9
47677.7
49497.2
51107.4
52471.8
53576.5
54053.3
53418.3
51708.3
49435
47051.1
44714.9
42385.4
40071.6
38283.3
38350.3
40709.5
43571.2
45788.7
47677.7
49497.2
51107.4
52471.8
53576.5
54053.3
53418.3
51708.3
49435
47051.1
44714.9
42385.4
40071.6
38283.3
38350.3
40709.5
43571.2
45788.7
48451.8
48817.7
48285.5
46551.6
43406.6
39592.5
37679.9
39367.4
42678.2
45353
46498.4
45932.9
43902.8
41427.8
40602
42422.1
45167.5
47268.6
48451.8
48817.7
48285.5
46551.6
43406.6
39592.5
37679.9
39367.4
42678.2
45353
46498.4
45932.9
43902.8
41427.8
40602
42422.1
45167.5
47268.6
54670.7
51604.6
48905.6
46240.4
44396.1
45044.1
49607.6
57023.5
64814
71691
77388.6
81902.5
85114.5
86441.6
84514.2
77785.2
67825.7
59532.1
54670.7
51604.6
48905.6
46240.4
44396.1
45044.1
49607.6
57023.5
64814
71691
77388.6
81902.5
85114.5
86441.6
84514.2
77785.2
67825.7
59532.1
45541.1
47186.4
48703.8
49902.9
50642.6
50704.1
49851.2
48206.6
46256.1
44399.6
42722.2
41131.9
39644.2
38631.4
38739.8
40124.5
42053.6
43870.3
45541.1
47186.4
48703.8
49902.9
50642.6
50704.1
49851.2
48206.6
46256.1
44399.6
42722.2
41131.9
39644.2
38631.4
38739.8
40124.5
42053.6
43870.3
46031.2
46556.4
46283
45054.7
42754.9
39691.8
36949.7
35980.4
37014.4
38788.7
40041
40195.6
39355.5
38332.7
38410
40137.3
42614.9
44719.6
46031.2
46556.4
46283
45054.7
42754.9
39691.8
36949.7
35980.4
37014.4
38788.7
40041
40195.6
39355.5
38332.7
38410
40137.3
42614.9
44719.6
54430.1
52309.3
50688.2
49294.9
48388.9
48644.3
50717.9
54678.2
59829.7
65219.3
70114.6
74038.7
76621.1
77342
75349.8
70178
63407.7
57852.3
54430.1
52309.3
50688.2
49294.9
48388.9
48644.3
50717.9
54678.2
59829.7
65219.3
70114.6
74038.7
76621.1
77342
75349.8
70178
63407.7
57852.3
42372.7
43805
45305.9
46611.4
47465.7
47658.2
47034.1
45671.2
43990.1
42479.5
41331.8
40437.4
39666
39089.8
38932.2
39310.5
40105.4
41141
42372.7
43805
45305.9
46611.4
47465.7
47658.2
47034.1
45671.2
43990.1
42479.5
41331.8
40437.4
39666
39089.8
38932.2
39310.5
40105.4
41141
42874.6
43588
43570.2
42777.5
41216.4
39068.2
36777.2
34985.7
34205.8
34383.4
34955.6
35366.2
35454.1
35537.1
36168.6
37624.7
39595.7
41487.5
42874.6
43588
43570.2
42777.5
41216.4
39068.2
36777.2
34985.7
34205.8
34383.4
34955.6
35366.2
35454.1
35537.1
36168.6
37624.7
39595.7
41487.5
54626.8
53098.4
52130.3
51568.2
51492.3
52085.7
53443
55554.9
58380.9
61754.8
65250.8
68235.6
70079.4
70287.9
68535.3
64990.7
60720.4
57083.7
54626.8
53098.4
52130.3
51568.2
51492.3
52085.7
53443
55554.9
58380.9
61754.8
65250.8
68235.6
70079.4
70287.9
68535.3
64990.7
60720.4
57083.7
38366.9
39259.9
40606.3
42105.4
43359.5
44051.5
44001.8
43220.1
41997.5
40831.7
40070.7
39669.8
39370.8
39005.9
38586.7
38211.6
37977
37981.5
38366.9
39259.9
40606.3
42105.4
43359.5
44051.5
44001.8
43220.1
41997.5
40831.7
40070.7
39669.8
39370.8
39005.9
38586.7
38211.6
37977
37981.5
38569.2
39376.9
39664.8
39379.3
38552.9
37305.3
35844
34448.7
33405.7
32872.7
32777.4
32905.6
33104.1
33398.2
33938
34838.3
36055.1
37386.3
38569.2
39376.9
39664.8
39379.3
38552.9
37305.3
35844
34448.7
33405.7
32872.7
32777.4
32905.6
33104.1
33398.2
33938
34838.3
36055.1
37386.3
55096.5
53949.6
53286.4
53056
53281.4
53970.6
55012.5
56246.8
57646.1
59312.6
61246.5
63135.8
64425.1
64625.3
63574.6
61529.4
59072.6
56815.5
55096.5
53949.6
53286.4
53056
53281.4
53970.6
55012.5
56246.8
57646.1
59312.6
61246.5
63135.8
64425.1
64625.3
63574.6
61529.4
59072.6
56815.5
35096.1
35296.2
36065.1
37268.1
38572.9
39604.6
40067.7
39822.7
39001.9
38068.4
37530.4
37476.9
37586.1
37524.8
37174
36596.2
35938.9
35374.8
35096.1
35296.2
36065.1
37268.1
38572.9
39604.6
40067.7
39822.7
39001.9
38068.4
37530.4
37476.9
37586.1
37524.8
37174
36596.2
35938.9
35374.8
33490.3
34280.9
34916.2
35259.1
35235.5
34845.7
34170.3
33376
32676.4
32225.8
32017.3
31913.2
31789.1
31641
31571.7
31699
32083.8
32709.9
33490.3
34280.9
34916.2
35259.1
35235.5
34845.7
34170.3
33376
32676.4
32225.8
32017.3
31913.2
31789.1
31641
31571.7
31699
32083.8
32709.9
54673.5
53931.8
53396.1
53087.6
53013.8
53154.4
53437.1
53759
54075
54453.9
55017.3
55802.3
56664.9
57324.3
57527.4
57202.4
56473.9
55563.5
54673.5
53931.8
53396.1
53087.6
53013.8
53154.4
53437.1
53759
54075
54453.9
55017.3
55802.3
56664.9
57324.3
57527.4
57202.4
56473.9
55563.5
36684.7
36225.8
36103.4
36377
36940.8
37530.3
37814.4
37547.7
36719.5
35621.1
34757.5
34573.4
35133.5
36107.8
37056.2
37633.3
37678.1
37271.4
36684.7
36225.8
36103.4
36377
36940.8
37530.3
37814.4
37547.7
36719.5
35621.1
34757.5
34573.4
35133.5
36107.8
37056.2
37633.3
37678.1
37271.4
28964
30068
31226.1
32240.8
32984.4
33407.9
33527.8
33389.8
33032.5
32483.6
31785.1
30998.1
30172
29341.2
28566.3
27993.1
27812.4
28149.4
28964
30068
31226.1
32240.8
32984.4
33407.9
33527.8
33389.8
33032.5
32483.6
31785.1
30998.1
30172
29341.2
28566.3
27993.1
27812.4
28149.4
48417.1
48419.2
48345.5
48215
48045.2
47842.4
47600.1
47312.8
46993
46679.4
46431.9
46327.3
46433.6
46756.7
47219.4
47696.1
48076.3
48313.2
48417.1
48419.2
48345.5
48215
48045.2
47842.4
47600.1
47312.8
46993
46679.4
46431.9
46327.3
46433.6
46756.7
47219.4
47696.1
48076.3
48313.2
)
;

boundaryField
{
    fixed
    {
        type            calculated;
        value           nonuniform List<scalar> 
108
(
54609.5
55001.5
54568.5
53927.4
53527
53393.3
53468.8
53708.4
54051.4
54382.6
54524
54284.2
53593.1
52661.2
51981.6
52003
52700.5
53671.9
54609.5
55001.5
54568.5
53927.4
53527
53393.3
53468.8
53708.4
54051.4
54382.6
54524
54284.2
53593.1
52661.2
51981.6
52003
52700.5
53671.9
53704.8
53850
54116.2
54318.3
54513.8
54812.9
55248
55794.4
56387.8
56918
57235.6
57190
56695.3
55823.8
54873.9
54210.8
53908
53761.2
53704.8
53850
54116.2
54318.3
54513.8
54812.9
55248
55794.4
56387.8
56918
57235.6
57190
56695.3
55823.8
54873.9
54210.8
53908
53761.2
55501.6
54591.2
54276.4
54654.1
55520.9
56615.4
57655.6
58370.4
58591.9
58295.9
57594.9
56718.5
55960
55568.5
55653.4
56131.8
56594.2
56407.2
55501.6
54591.2
54276.4
54654.1
55520.9
56615.4
57655.6
58370.4
58591.9
58295.9
57594.9
56718.5
55960
55568.5
55653.4
56131.8
56594.2
56407.2
)
;
    }
    inside
    {
        type            calculated;
        value           nonuniform List<scalar> 
540
(
57268.5
56055.2
54995.1
54662.2
55067.7
56021.6
57253.2
58398.3
59084.2
59099.7
58494.5
57532.6
56564
55909
55786.1
56263.1
57124.2
57698.6
57268.5
56055.2
54995.1
54662.2
55067.7
56021.6
57253.2
58398.3
59084.2
59099.7
58494.5
57532.6
56564
55909
55786.1
56263.1
57124.2
57698.6
61194.9
57988.7
56448.8
57301.5
61212.9
68018.4
74594.8
77673.9
76557.4
72385.7
66970
61949.4
58408.9
56915.3
57502.6
59480.7
61693.7
62810.9
61194.9
57988.7
56448.8
57301.5
61212.9
68018.4
74594.8
77673.9
76557.4
72385.7
66970
61949.4
58408.9
56915.3
57502.6
59480.7
61693.7
62810.9
60098.8
57860.1
56292.6
58652.1
70741.5
94225.3
115336
124329
120644
107534
90764.9
75870.5
65801.4
61173.4
61020.7
62065.4
61695.5
61968
60098.8
57860.1
56292.6
58652.1
70741.5
94225.3
115336
124329
120644
107534
90764.9
75870.5
65801.4
61173.4
61020.7
62065.4
61695.5
61968
56834.3
55229.8
53861.3
56928.2
75946.7
113081
149997
175718
184378
172784
146655
117566
94148.9
78706.9
69041.3
62190.8
58105.3
56915.4
56834.3
55229.8
53861.3
56928.2
75946.7
113081
149997
175718
184378
172784
146655
117566
94148.9
78706.9
69041.3
62190.8
58105.3
56915.4
54757.9
52589.6
51422.7
56395.4
78871.1
119923
165181
205473
231959
234759
213820
180451
147265
120053
97510.3
78856.7
66141.3
58757.1
54757.9
52589.6
51422.7
56395.4
78871.1
119923
165181
205473
231959
234759
213820
180451
147265
120053
97510.3
78856.7
66141.3
58757.1
53550.4
50636.7
49419
55988
78879.6
120150
166878
209930
242321
255236
246153
221871
192823
165744
139317
109376
79985.1
61042.3
53550.4
50636.7
49419
55988
78879.6
120150
166878
209930
242321
255236
246153
221871
192823
165744
139317
109376
79985.1
61042.3
52824
49502.9
48469.1
54599
74921.4
112754
156099
194775
224065
239022
238161
225318
206806
186349
160326
123066
84283.8
61300.2
52824
49502.9
48469.1
54599
74921.4
112754
156099
194775
224065
239022
238161
225318
206806
186349
160326
123066
84283.8
61300.2
52823
49685.8
48989
53685.6
69680.2
100777
137766
170103
193906
207220
210005
204691
194302
179092
154043
116213
79964.2
60345.4
52823
49685.8
48989
53685.6
69680.2
100777
137766
170103
193906
207220
210005
204691
194302
179092
154043
116213
79964.2
60345.4
53565.6
51065.9
50838.5
54380
65932.7
88984.4
117925
143819
162816
174161
178381
176937
170862
158671
136050
103400
74597.9
59599.9
53565.6
51065.9
50838.5
54380
65932.7
88984.4
117925
143819
162816
174161
178381
176937
170862
158671
136050
103400
74597.9
59599.9
54773.1
53032.2
53322.9
56441.3
64896.4
80926.2
101685
121314
136498
146381
151068
151075
146486
135794
116676
91577.7
70615.4
59458.2
54773.1
53032.2
53322.9
56441.3
64896.4
80926.2
101685
121314
136498
146381
151068
151075
146486
135794
116676
91577.7
70615.4
59458.2
56405.9
55210.6
55962.2
59193.3
66283.4
78023.5
92555.4
106615
118221
126535
130928
130954
126326
116474
101192
83290.7
68630.3
60196.9
56405.9
55210.6
55962.2
59193.3
66283.4
78023.5
92555.4
106615
118221
126535
130928
130954
126326
116474
101192
83290.7
68630.3
60196.9
59209.5
58202.2
59245.5
62761
69526.4
79429.4
90600.9
100844
109254
115589
119121
118768
113953
104938
92845
80017.5
69425.4
62630.9
59209.5
58202.2
59245.5
62761
69526.4
79429.4
90600.9
100844
109254
115589
119121
118768
113953
104938
92845
80017.5
69425.4
62630.9
65626.6
64396.7
65427.3
68981
75375.1
84111.4
93402.9
101350
107401
111925
114769
114839
111110
103724
94042.4
84008.5
75395.6
69214.5
65626.6
64396.7
65427.3
68981
75375.1
84111.4
93402.9
101350
107401
111925
114769
114839
111110
103724
94042.4
84008.5
75395.6
69214.5
84682.1
82289.2
82170.1
84370.6
88707
94475.1
100408
105341
109083
112287
115355
117662
117920
115230
109778
102700
95439.5
89187.7
84682.1
82289.2
82170.1
84370.6
88707
94475.1
100408
105341
109083
112287
115355
117662
117920
115230
109778
102700
95439.5
89187.7
128512
121053
113675
106990
101760
98623.9
97950.7
99974.2
104821
112341
121811
131895
140785
146724
148734
146893
142125
135689
128512
121053
113675
106990
101760
98623.9
97950.7
99974.2
104821
112341
121811
131895
140785
146724
148734
146893
142125
135689
)
;
    }
    outside
    {
        type            calculated;
        value           nonuniform List<scalar> 
540
(
56076.9
56414.2
55473.5
54447.5
53824.9
53512.6
53392.7
53394.3
53445.5
53446
53279.7
52867.7
52248.7
51650.4
51469.1
52023.4
53216.2
54681.1
56076.9
56414.2
55473.5
54447.5
53824.9
53512.6
53392.7
53394.3
53445.5
53446
53279.7
52867.7
52248.7
51650.4
51469.1
52023.4
53216.2
54681.1
54716.8
54560.8
53757.3
53267.1
53184.8
53405.4
53757.4
54115.1
54411.9
54580.2
54513.1
54067.6
53109.3
51703.3
50517.9
50583
51840.1
53426.3
54716.8
54560.8
53757.3
53267.1
53184.8
53405.4
53757.4
54115.1
54411.9
54580.2
54513.1
54067.6
53109.3
51703.3
50517.9
50583
51840.1
53426.3
55802.8
55362.2
54479.8
54178.4
54703.4
55694.4
56601.9
57242.7
57634.4
57756.9
57470.5
56503.4
54508.3
51402.1
48331.5
47997.3
50577.2
53574.3
55802.8
55362.2
54479.8
54178.4
54703.4
55694.4
56601.9
57242.7
57634.4
57756.9
57470.5
56503.4
54508.3
51402.1
48331.5
47997.3
50577.2
53574.3
56476.4
57983.6
58789.7
60443.9
62688.2
64357.3
64909.5
64524.4
63588.2
62272.8
60461.8
57831.3
54042.5
49134.2
44182.9
43000.5
48125.9
53175.6
56476.4
57983.6
58789.7
60443.9
62688.2
64357.3
64909.5
64524.4
63588.2
62272.8
60461.8
57831.3
54042.5
49134.2
44182.9
43000.5
48125.9
53175.6
54160.2
57250.7
63568.4
73540.1
80281.2
81810.2
79639.5
75306.2
70361.6
65570
60903.2
55990.4
50551.4
44741.9
39942.3
41164.5
47616
51635.8
54160.2
57250.7
63568.4
73540.1
80281.2
81810.2
79639.5
75306.2
70361.6
65570
60903.2
55990.4
50551.4
44741.9
39942.3
41164.5
47616
51635.8
53020.5
56166
63577.2
77249.2
89185.8
93657.9
91070.2
84039.4
75594.1
67592.5
60490.3
54038.6
47964.6
42383.7
39165.1
42416.9
47575.5
50549.1
53020.5
56166
63577.2
77249.2
89185.8
93657.9
91070.2
84039.4
75594.1
67592.5
60490.3
54038.6
47964.6
42383.7
39165.1
42416.9
47575.5
50549.1
52373.8
55211.1
60953.5
71961
84629.3
92011.7
91516.5
85404.4
76853.6
68090.1
60138.7
53197.9
47186
42284
40511.7
44027.1
47906.1
50139.1
52373.8
55211.1
60953.5
71961
84629.3
92011.7
91516.5
85404.4
76853.6
68090.1
60138.7
53197.9
47186
42284
40511.7
44027.1
47906.1
50139.1
51948.7
54376.1
58333.7
65614.5
75770.5
83794.5
85225.9
81070.3
74180.5
66517.1
59166
52635.3
47106.5
42953
42028.1
45164.9
48280.3
50070.6
51948.7
54376.1
58333.7
65614.5
75770.5
83794.5
85225.9
81070.3
74180.5
66517.1
59166
52635.3
47106.5
42953
42028.1
45164.9
48280.3
50070.6
51606.3
53598
56345.9
60818.2
67559.6
74247.3
76801.3
74504.4
69466
63453.3
57418
51890.8
47196.4
43873.8
43373.7
45878.9
48477.3
50066.8
51606.3
53598
56345.9
60818.2
67559.6
74247.3
76801.3
74504.4
69466
63453.3
57418
51890.8
47196.4
43873.8
43373.7
45878.9
48477.3
50066.8
51164.4
52764.2
54786.1
57588.3
61557.2
65874.2
68219.6
67255.5
63895.7
59552.5
55068.8
50878.7
47307.6
44901
44578.8
46292.8
48348.7
49838.9
51164.4
52764.2
54786.1
57588.3
61557.2
65874.2
68219.6
67255.5
63895.7
59552.5
55068.8
50878.7
47307.6
44901
44578.8
46292.8
48348.7
49838.9
50200.3
51574.4
53197.8
55134.8
57439.7
59743.2
61029.3
60458.6
58270.6
55345.8
52357.7
49613.2
47309
45783.2
45471.2
46344.1
47698.6
48978.8
50200.3
51574.4
53197.8
55134.8
57439.7
59743.2
61029.3
60458.6
58270.6
55345.8
52357.7
49613.2
47309
45783.2
45471.2
46344.1
47698.6
48978.8
48115
49368.8
50843.6
52428
53974.6
55221.7
55729.4
55135.2
53555.6
51555
49669.3
48105.2
46865.7
45990.8
45605.4
45756
46311.6
47109.5
48115
49368.8
50843.6
52428
53974.6
55221.7
55729.4
55135.2
53555.6
51555
49669.3
48105.2
46865.7
45990.8
45605.4
45756
46311.6
47109.5
44612
45511.5
46825.7
48341.6
49764
50811
51223
50815
49656.6
48177.2
46894.8
46019.1
45433.7
44962.9
44545.9
44224.1
44069.5
44162.7
44612
45511.5
46825.7
48341.6
49764
50811
51223
50815
49656.6
48177.2
46894.8
46019.1
45433.7
44962.9
44545.9
44224.1
44069.5
44162.7
40871.4
41085.8
41793.9
42914.5
44201.2
45344.5
46047
46067.8
45357.1
44240.2
43285.1
42805.2
42666.2
42574.1
42343.7
41948.6
41473.3
41057.9
40871.4
41085.8
41793.9
42914.5
44201.2
45344.5
46047
46067.8
45357.1
44240.2
43285.1
42805.2
42666.2
42574.1
42343.7
41948.6
41473.3
41057.9
41609.9
40704.4
40212.5
40232
40675.8
41284.2
41713.4
41691.9
41180.5
40442.8
39941.7
40067.5
40858.3
41995.4
43034.4
43579.9
43421.5
42649.7
41609.9
40704.4
40212.5
40232
40675.8
41284.2
41713.4
41691.9
41180.5
40442.8
39941.7
40067.5
40858.3
41995.4
43034.4
43579.9
43421.5
42649.7
)
;
    }
}


// ************************************************************************* //
