/*--------------------------------*- C++ -*----------------------------------*\
| =========                 |                                                 |
| \\      /  F ield         | OpenFOAM: The Open Source CFD Toolbox           |
|  \\    /   O peration     | Version:  2312                                  |
|   \\  /    A nd           | Website:  www.openfoam.com                      |
|    \\/     M anipulation  |                                                 |
\*---------------------------------------------------------------------------*/
FoamFile
{
    version     2.0;
    format      ascii;
    arch        "LSB;label=32;scalar=64";
    class       volSymmTensorField;
    location    "0.9";
    object      sigma;
}
// * * * * * * * * * * * * * * * * * * * * * * * * * * * * * * * * * * * * * //

dimensions      [1 -1 -2 0 0 0 0];

internalField   nonuniform List<symmTensor> 
1620
(
(-28586.9 -7283.14 7564 -2701.84 -25846.2 -3351.62)
(-35707 -12434.3 13462.7 -19780.4 -23597.5 -15172)
(-28974.9 -14325.3 17574.1 -23725.1 -20529.5 -14424.8)
(-15498.3 -14378.1 20111.4 -18478.5 -17673 -5791.04)
(-2127.79 -13847.2 21572.8 -10654.6 -15558 4387.55)
(8475.25 -13343.7 22375.5 -3654.64 -14209.9 12956.2)
(16417.6 -13076.2 22777.6 1957.44 -13507.8 19537.2)
(22545.3 -13086.7 22919.7 6655.63 -13337.2 24712.6)
(27545 -13364.4 22850.8 11002 -13609.6 29073.9)
(31772 -13868.2 22538.3 15402.7 -14254 32997.6)
(35237 -14503.7 21887 20061.1 -15204.7 36628.4)
(37612.4 -15099.3 20783 24940.2 -16398.4 39887.2)
(38268.6 -15418.8 19151.7 29708.5 -17795.3 42449.5)
(36314.8 -15216.7 16975.6 33684.9 -19409.9 43648.9)
(30620.3 -14241.1 14205.5 35820 -21289.6 42370.1)
(20072.7 -12015.9 10607.2 34735.4 -23381.4 37223.8)
(4788.49 -7606.27 5741.31 28908.9 -25344.1 27410.4)
(-13293.8 -506.204 -598.443 15991.5 -26433.5 12745.6)
(-28586.9 7283.14 -7564 -2701.84 -25846.2 -3351.62)
(-35707 12434.3 -13462.7 -19780.4 -23597.5 -15172)
(-28974.9 14325.3 -17574.1 -23725.1 -20529.5 -14424.8)
(-15498.3 14378.1 -20111.4 -18478.5 -17673 -5791.04)
(-2127.79 13847.2 -21572.8 -10654.6 -15558 4387.55)
(8475.25 13343.7 -22375.5 -3654.64 -14209.9 12956.2)
(16417.6 13076.2 -22777.6 1957.44 -13507.8 19537.2)
(22545.3 13086.7 -22919.7 6655.63 -13337.2 24712.6)
(27545 13364.4 -22850.8 11002 -13609.6 29073.9)
(31772 13868.2 -22538.3 15402.7 -14254 32997.6)
(35237 14503.7 -21887 20061.1 -15204.7 36628.4)
(37612.4 15099.3 -20783 24940.2 -16398.4 39887.2)
(38268.6 15418.8 -19151.7 29708.5 -17795.3 42449.5)
(36314.8 15216.7 -16975.6 33684.9 -19409.9 43648.9)
(30620.3 14241.1 -14205.5 35820 -21289.6 42370.1)
(20072.7 12015.9 -10607.2 34735.4 -23381.4 37223.8)
(4788.49 7606.27 -5741.31 28908.9 -25344.1 27410.4)
(-13293.8 506.204 598.443 15991.5 -26433.5 12745.6)
(-26530.3 -7370.68 1230.32 25343.8 -4784.1 -25729.4)
(-25052 -18057.8 2183.72 14967.5 -4802.76 -30181.6)
(-16502.4 -24070.8 2971.5 7575.11 -4484.13 -29981.2)
(-3774.21 -26488.4 3505.15 5765.74 -3909.2 -24963.5)
(9109.16 -27030.7 3790.78 7286.37 -3331.74 -18070.5)
(19975.9 -26851 3876.18 9791.36 -2888.84 -11611.5)
(28473 -26530.4 3807.22 12260.3 -2607.73 -6364.46)
(34871.7 -26321.6 3626.27 14434.5 -2488.16 -2375.44)
(39377.1 -26326.2 3369.56 16292.5 -2519.77 437.343)
(42006 -26572.9 3060.16 17914.9 -2678.11 2160.29)
(42603.9 -27032.5 2709.64 19441.6 -2923.98 2872.18)
(40884.3 -27603.4 2329.35 21028.6 -3207.27 2626.33)
(36497.3 -28080.9 1945.88 22810.8 -3479.53 1429.26)
(29090.1 -28115.3 1601.55 24842 -3717.5 -827.512)
(18298.2 -27118.9 1305.78 26946.3 -3934.23 -4522.53)
(4180.13 -24028.4 970.099 28775.5 -4143.57 -10007.4)
(-10983.1 -17236.5 460.277 30248.4 -4345.31 -16292.4)
(-22471.6 -5941.44 -285.899 30050.2 -4570.88 -21670)
(-26530.3 7370.68 -1230.32 25343.8 -4784.1 -25729.4)
(-25052 18057.8 -2183.72 14967.5 -4802.76 -30181.6)
(-16502.4 24070.8 -2971.5 7575.11 -4484.13 -29981.2)
(-3774.21 26488.4 -3505.15 5765.74 -3909.2 -24963.5)
(9109.16 27030.7 -3790.78 7286.37 -3331.74 -18070.5)
(19975.9 26851 -3876.18 9791.36 -2888.84 -11611.5)
(28473 26530.4 -3807.22 12260.3 -2607.73 -6364.46)
(34871.7 26321.6 -3626.27 14434.5 -2488.16 -2375.44)
(39377.1 26326.2 -3369.56 16292.5 -2519.77 437.343)
(42006 26572.9 -3060.16 17914.9 -2678.11 2160.29)
(42603.9 27032.5 -2709.64 19441.6 -2923.98 2872.18)
(40884.3 27603.4 -2329.35 21028.6 -3207.27 2626.33)
(36497.3 28080.9 -1945.88 22810.8 -3479.53 1429.26)
(29090.1 28115.3 -1601.55 24842 -3717.5 -827.512)
(18298.2 27118.9 -1305.78 26946.3 -3934.23 -4522.53)
(4180.13 24028.4 -970.099 28775.5 -4143.57 -10007.4)
(-10983.1 17236.5 -460.277 30248.4 -4345.31 -16292.4)
(-22471.6 5941.44 285.899 30050.2 -4570.88 -21670)
(-22057.7 -1748.25 -619.42 13785.4 26425.3 -1589.34)
(-19955.8 -8748.34 -6159.21 11214.8 25103.2 -2128.01)
(-15092.4 -13570.4 -10539.4 8196.68 23317.6 -1783.2)
(-6760.62 -16370.1 -13828.5 8287.46 21689.3 1905.56)
(3426.3 -17856.3 -16341.3 11121.5 20411.4 8174.19)
(12941.3 -18595.5 -18368.3 14392.8 19432.4 14653.3)
(20324.6 -18890.1 -20074.8 16551.2 18617.3 19770.9)
(25143.6 -18879.1 -21486.6 17138.6 17831.8 22935.9)
(27257.2 -18659.3 -22536.4 16160.3 17028.6 23881.9)
(26600.5 -18348.3 -23133 13798.5 16291.3 22500.4)
(23253.7 -18086 -23218.5 10366.5 15806 18940.4)
(17505.9 -17988.5 -22793.4 6309.15 15785 13662.1)
(9900.27 -18074.7 -21891.6 2275.38 16391.6 7437.27)
(1217.18 -18182 -20501.6 -806.29 17703.9 1290.58)
(-7680.54 -17879.4 -18476.7 -1873.4 19710.8 -3711.43)
(-15608.3 -16374.4 -15500.2 144.931 22256.3 -6405.52)
(-20572.7 -12611.6 -11191.2 5822.67 24824.4 -5540.96)
(-22061.3 -6139.48 -5542.3 12193 26445.2 -2566.85)
(-22057.7 1748.25 619.42 13785.4 26425.3 -1589.34)
(-19955.8 8748.34 6159.21 11214.8 25103.2 -2128.01)
(-15092.4 13570.4 10539.4 8196.68 23317.6 -1783.2)
(-6760.62 16370.1 13828.5 8287.46 21689.3 1905.56)
(3426.3 17856.3 16341.3 11121.5 20411.4 8174.19)
(12941.3 18595.5 18368.3 14392.8 19432.4 14653.3)
(20324.6 18890.1 20074.8 16551.2 18617.3 19770.9)
(25143.6 18879.1 21486.6 17138.6 17831.8 22935.9)
(27257.2 18659.3 22536.4 16160.3 17028.6 23881.9)
(26600.5 18348.3 23133 13798.5 16291.3 22500.4)
(23253.7 18086 23218.5 10366.5 15806 18940.4)
(17505.9 17988.5 22793.4 6309.15 15785 13662.1)
(9900.27 18074.7 21891.6 2275.38 16391.6 7437.27)
(1217.18 18182 20501.6 -806.29 17703.9 1290.58)
(-7680.54 17879.4 18476.7 -1873.4 19710.8 -3711.43)
(-15608.3 16374.4 15500.2 144.931 22256.3 -6405.52)
(-20572.7 12611.6 11191.2 5822.67 24824.4 -5540.96)
(-22061.3 6139.48 5542.3 12193 26445.2 -2566.85)
(-1221.1 -9943.28 10450.3 19653.8 -23918.4 22218.7)
(7800.82 -14074.4 19063.2 7263.55 -17604.9 20721.8)
(16515.1 -12336.7 22689 3360.58 -12393.2 22335.6)
(21433 -10332.9 24153.8 2402.75 -9191.03 23781.3)
(23937.5 -9035.36 24817 1786.33 -7467.56 24569.1)
(25315.7 -8359.34 25207.2 1073.03 -6751.79 24848.7)
(26441.4 -8161.9 25484.7 600.278 -6701.46 25039.1)
(27788.3 -8372.4 25674.8 697.565 -7100.03 25477.6)
(29678.8 -8962.21 25751.6 1664.72 -7846.49 26461.1)
(32266.8 -9911.24 25645.8 3755.89 -8908.2 28177.7)
(35364.7 -11176.4 25244 7039.6 -10259.9 30546)
(38373.2 -12653.6 24408.3 11303.7 -11824.4 33170.9)
(40345 -14131.4 23035.3 16027.7 -13425.8 35467.4)
(40125.2 -15279.7 21179.7 20407 -14840.3 36933.9)
(36727.9 -15846.2 19126.4 23817.3 -16176.3 37459.7)
(29509.4 -15787.1 16801.7 26651.1 -18273.5 36857.5)
(16946.7 -13744.2 12508.8 29218 -21907.2 33514.2)
(2102.98 -4468.06 2976.05 30204.4 -25649.4 27858.2)
(-1221.1 9943.28 -10450.3 19653.8 -23918.4 22218.7)
(7800.82 14074.4 -19063.2 7263.55 -17604.9 20721.8)
(16515.1 12336.7 -22689 3360.58 -12393.2 22335.6)
(21433 10332.9 -24153.8 2402.75 -9191.03 23781.3)
(23937.5 9035.36 -24817 1786.33 -7467.56 24569.1)
(25315.7 8359.34 -25207.2 1073.03 -6751.79 24848.7)
(26441.4 8161.9 -25484.7 600.278 -6701.46 25039.1)
(27788.3 8372.4 -25674.8 697.565 -7100.03 25477.6)
(29678.8 8962.21 -25751.6 1664.72 -7846.49 26461.1)
(32266.8 9911.24 -25645.8 3755.89 -8908.2 28177.7)
(35364.7 11176.4 -25244 7039.6 -10259.9 30546)
(38373.2 12653.6 -24408.3 11303.7 -11824.4 33170.9)
(40345 14131.4 -23035.3 16027.7 -13425.8 35467.4)
(40125.2 15279.7 -21179.7 20407 -14840.3 36933.9)
(36727.9 15846.2 -19126.4 23817.3 -16176.3 37459.7)
(29509.4 15787.1 -16801.7 26651.1 -18273.5 36857.5)
(16946.7 13744.2 -12508.8 29218 -21907.2 33514.2)
(2102.98 4468.06 -2976.05 30204.4 -25649.4 27858.2)
(-15661.1 -12955.2 1701.79 31220.4 -4881.38 -16732.7)
(3396.36 -25325.5 3486.41 18428.3 -4147.34 -13655)
(20523.8 -25893.3 4452.84 10747.4 -3091.33 -9506.14)
(28944.1 -23749.5 4835.12 5181.71 -2108.24 -8534.93)
(33811.4 -21764.8 4853.55 1776.1 -1374.35 -8026.34)
(37769.3 -20284.4 4721.98 85.6676 -1014.68 -7011.42)
(41361.1 -19238.4 4579.64 -515.122 -1011.38 -5694.89)
(44392.6 -18631.7 4453.96 -634.785 -1248.96 -4575.18)
(46679.5 -18513.1 4322.93 -648.878 -1645.21 -3960.97)
(48119.7 -18941.4 4162.41 -660.662 -2172.31 -3967.16)
(48553.2 -19996.9 3939.24 -617.617 -2803 -4681.17)
(47694.4 -21764.6 3582.97 -384.399 -3442.19 -6209.49)
(45062.5 -24217 2988.12 247.201 -3874.03 -8549.31)
(39766.7 -26944 2154.25 1499.16 -3813.72 -11381.1)
(30634.7 -29042.4 1481.2 3720.62 -3280.11 -14012)
(16927.2 -29703.4 1459.04 8020.67 -2976.04 -16304.5)
(-3328.68 -26779.1 1524.57 15148.8 -3506 -20581.9)
(-23146.2 -12171.7 488.169 25906.7 -4547.12 -23820.3)
(-15661.1 12955.2 -1701.79 31220.4 -4881.38 -16732.7)
(3396.36 25325.5 -3486.41 18428.3 -4147.34 -13655)
(20523.8 25893.3 -4452.84 10747.4 -3091.33 -9506.14)
(28944.1 23749.5 -4835.12 5181.71 -2108.24 -8534.93)
(33811.4 21764.8 -4853.55 1776.1 -1374.35 -8026.34)
(37769.3 20284.4 -4721.98 85.6676 -1014.68 -7011.42)
(41361.1 19238.4 -4579.64 -515.122 -1011.38 -5694.89)
(44392.6 18631.7 -4453.96 -634.785 -1248.96 -4575.18)
(46679.5 18513.1 -4322.93 -648.878 -1645.21 -3960.97)
(48119.7 18941.4 -4162.41 -660.662 -2172.31 -3967.16)
(48553.2 19996.9 -3939.24 -617.617 -2803 -4681.17)
(47694.4 21764.6 -3582.97 -384.399 -3442.19 -6209.49)
(45062.5 24217 -2988.12 247.201 -3874.03 -8549.31)
(39766.7 26944 -2154.25 1499.16 -3813.72 -11381.1)
(30634.7 29042.4 -1481.2 3720.62 -3280.11 -14012)
(16927.2 29703.4 -1459.04 8020.67 -2976.04 -16304.5)
(-3328.68 26779.1 -1524.57 15148.8 -3506 -20581.9)
(-23146.2 12171.7 -488.169 25906.7 -4547.12 -23820.3)
(-28461.1 -5515.67 -3879.26 7145.51 27096.8 -7797.81)
(-16891.8 -15423.3 -12747.3 2326.12 23004.8 -5478.11)
(-3283.13 -18033.5 -17580.3 113.245 19306.5 -727.739)
(5493.38 -18149.6 -20472.4 -1010.02 17300.2 2688.92)
(12290 -18226.4 -23042.6 -413.992 16922.3 6850.28)
(18719.9 -18423.4 -25896.1 564.128 17123.5 12260.1)
(24597.9 -17903.1 -28433.7 787.254 16400.1 17687.5)
(28891.1 -16524.3 -29919.2 314.7 14413.7 21411.8)
(30696 -14878 -30266.6 -801.979 11871.9 22273.4)
(29632.8 -13563.9 -29753.2 -2830.52 9577.07 19900.1)
(25833.8 -12963.8 -28747.3 -6008.72 8081.46 14608.6)
(19779.5 -13260.3 -27631.7 -10335.7 7663.61 7180.11)
(12128.4 -14482.9 -26732 -15412.4 8410.78 -1347.27)
(3577.64 -16534.5 -26185.7 -20204.2 10393.1 -9672.03)
(-5215.65 -19040.1 -25632.6 -22635.7 13775.9 -15858.1)
(-13846.5 -20871.6 -23711.6 -19629.5 18540.4 -17590.5)
(-23593.8 -19401.3 -18341.8 -10482.8 23950.1 -15699.8)
(-31547.6 -10107.8 -8273.07 1896.39 27851.3 -11928.2)
(-28461.1 5515.67 3879.26 7145.51 27096.8 -7797.81)
(-16891.8 15423.3 12747.3 2326.12 23004.8 -5478.11)
(-3283.13 18033.5 17580.3 113.245 19306.5 -727.739)
(5493.38 18149.6 20472.4 -1010.02 17300.2 2688.92)
(12290 18226.4 23042.6 -413.992 16922.3 6850.28)
(18719.9 18423.4 25896.1 564.128 17123.5 12260.1)
(24597.9 17903.1 28433.7 787.254 16400.1 17687.5)
(28891.1 16524.3 29919.2 314.7 14413.7 21411.8)
(30696 14878 30266.6 -801.979 11871.9 22273.4)
(29632.8 13563.9 29753.2 -2830.52 9577.07 19900.1)
(25833.8 12963.8 28747.3 -6008.72 8081.46 14608.6)
(19779.5 13260.3 27631.7 -10335.7 7663.61 7180.11)
(12128.4 14482.9 26732 -15412.4 8410.78 -1347.27)
(3577.64 16534.5 26185.7 -20204.2 10393.1 -9672.03)
(-5215.65 19040.1 25632.6 -22635.7 13775.9 -15858.1)
(-13846.5 20871.6 23711.6 -19629.5 18540.4 -17590.5)
(-23593.8 19401.3 18341.8 -10482.8 23950.1 -15699.8)
(-31547.6 10107.8 8273.07 1896.39 27851.3 -11928.2)
(20729.6 -3196.88 25922.9 -5782.74 -2591.56 21788.3)
(23096.2 855.683 25461.8 -4020.24 2266.84 23991.5)
(33385 1055.89 25403.2 6621.04 3443.49 33428.7)
(39507.1 601.23 25463.1 12527.2 3882.26 39020.9)
(41865.7 26.4224 25817.7 13576.1 3712.11 40800.3)
(42716.2 -487.239 26495 12224.9 2928.32 40610.6)
(43266.8 -1094.45 27243.7 10284.7 1726.66 39656.6)
(44178.4 -1970.1 27867.7 8717.41 299.391 38697.1)
(45912.4 -3188.64 28260.9 8077.5 -1303.78 38261.9)
(48633.6 -4760.39 28314.6 8713.39 -3114.83 38594.2)
(52021.9 -6645.7 27889.3 10675.8 -5136.27 39479.7)
(55332.7 -8731.54 26845.2 13686.2 -7206.94 40287.9)
(57557.4 -10756.5 25134.5 17076.8 -8834.35 40262.1)
(57421.6 -12149.3 23058 19574.6 -9174.61 39111.1)
(53562.7 -11962.4 21651.8 19603 -7785.54 37737.3)
(46396.3 -9949.73 22104.9 17094.5 -6023.42 37224.5)
(36249.5 -8273.17 23682.2 10786.8 -5763.08 33385.6)
(19550.9 -10758 24087.8 341.835 -9607.55 22022.7)
(20729.6 3196.88 -25922.9 -5782.74 -2591.56 21788.3)
(23096.2 -855.683 -25461.8 -4020.24 2266.84 23991.5)
(33385 -1055.89 -25403.2 6621.04 3443.49 33428.7)
(39507.1 -601.23 -25463.1 12527.2 3882.26 39020.9)
(41865.7 -26.4224 -25817.7 13576.1 3712.11 40800.3)
(42716.2 487.239 -26495 12224.9 2928.32 40610.6)
(43266.8 1094.45 -27243.7 10284.7 1726.66 39656.6)
(44178.4 1970.1 -27867.7 8717.41 299.391 38697.1)
(45912.4 3188.64 -28260.9 8077.5 -1303.78 38261.9)
(48633.6 4760.39 -28314.6 8713.39 -3114.83 38594.2)
(52021.9 6645.7 -27889.3 10675.8 -5136.27 39479.7)
(55332.7 8731.54 -26845.2 13686.2 -7206.94 40287.9)
(57557.4 10756.5 -25134.5 17076.8 -8834.35 40262.1)
(57421.6 12149.3 -23058 19574.6 -9174.61 39111.1)
(53562.7 11962.4 -21651.8 19603 -7785.54 37737.3)
(46396.3 9949.73 -22104.9 17094.5 -6023.42 37224.5)
(36249.5 8273.17 -23682.2 10786.8 -5763.08 33385.6)
(19550.9 10758 -24087.8 341.835 -9607.55 22022.7)
(4713.89 -14657.9 5139.25 -37082.6 -1080.49 -39488.7)
(24959.6 -4948.67 5073.18 -25053.7 183.692 -23745.5)
(36032.8 -3387.11 5231.7 -14267.7 756.682 -13517.5)
(40174.9 -3501.5 5067.76 -10256.5 1478.58 -9773.97)
(43500.1 -4231.12 4622.38 -8208.79 2102.38 -7185.5)
(47722.2 -4726.62 4289.89 -6606.53 2124.58 -4349.77)
(51765.4 -4810.22 4226.99 -5541.57 1563.37 -2044.46)
(54918.9 -4827.68 4282.61 -5144.56 736.523 -754.906)
(57219.8 -5052.14 4314.26 -5361.18 -223.151 -445.553)
(58902.7 -5631.97 4256.12 -5950.23 -1337.1 -946.843)
(60048.2 -6689.74 4054.79 -6620.75 -2606.12 -2240.01)
(60536.3 -8322.73 3600.62 -7123.3 -3839.53 -4439.4)
(59947.4 -10421.3 2715.88 -7456.52 -4535.25 -7574.79)
(56996.5 -12213.7 1403.21 -8366.25 -3991.98 -11371.5)
(49347 -12041.4 566.61 -11541 -2088.91 -15283.5)
(37327.9 -9718.83 1645.66 -17659.8 -349.169 -19448.4)
(23612.7 -8903.35 3778.5 -26816.9 -35.012 -27026.5)
(1672.07 -17224.8 5153.01 -37782.7 -1261.79 -42063.5)
(4713.89 14657.9 -5139.25 -37082.6 -1080.49 -39488.7)
(24959.6 4948.67 -5073.18 -25053.7 183.692 -23745.5)
(36032.8 3387.11 -5231.7 -14267.7 756.682 -13517.5)
(40174.9 3501.5 -5067.76 -10256.5 1478.58 -9773.97)
(43500.1 4231.12 -4622.38 -8208.79 2102.38 -7185.5)
(47722.2 4726.62 -4289.89 -6606.53 2124.58 -4349.77)
(51765.4 4810.22 -4226.99 -5541.57 1563.37 -2044.46)
(54918.9 4827.68 -4282.61 -5144.56 736.523 -754.906)
(57219.8 5052.14 -4314.26 -5361.18 -223.151 -445.553)
(58902.7 5631.97 -4256.12 -5950.23 -1337.1 -946.843)
(60048.2 6689.74 -4054.79 -6620.75 -2606.12 -2240.01)
(60536.3 8322.73 -3600.62 -7123.3 -3839.53 -4439.4)
(59947.4 10421.3 -2715.88 -7456.52 -4535.25 -7574.79)
(56996.5 12213.7 -1403.21 -8366.25 -3991.98 -11371.5)
(49347 12041.4 -566.61 -11541 -2088.91 -15283.5)
(37327.9 9718.83 -1645.66 -17659.8 -349.169 -19448.4)
(23612.7 8903.35 -3778.5 -26816.9 -35.012 -27026.5)
(1672.07 17224.8 -5153.01 -37782.7 -1261.79 -42063.5)
(-24075.3 -14522.2 -23166.2 -43755.4 12564 -30714.3)
(-8205.75 -7132.39 -25417.9 -39820.6 5781.48 -21748.2)
(-4455.57 -5576.28 -25288.7 -36492 4863.82 -18944.4)
(-4016.29 -6022.38 -25919.4 -34861.3 6142.32 -17609.9)
(-810.986 -8465.11 -28705 -30900.2 9719.53 -11612.2)
(6092.81 -11060.6 -33565.7 -27029.5 13061.3 -901.13)
(14179 -10945.5 -37565.3 -24887.3 12533.2 10118.9)
(20648.5 -8504.09 -39025.3 -23278.4 8563.31 17780.7)
(24071.7 -5525.58 -38329 -21854.3 3389.59 20519.6)
(24234.5 -3212.56 -36310.7 -21103.2 -1244.4 18211.3)
(21663.8 -2089.79 -33823 -21643.6 -4332.57 11805.5)
(17216 -2199.3 -31681.2 -23948.4 -5571.37 2829.43)
(11680.8 -3275.27 -30547.6 -28229.7 -5150.72 -7266.95)
(5353.8 -4775.81 -30765.4 -34496.4 -3328.56 -17341.7)
(-1923.69 -5579.12 -31706.3 -41954.7 -457.669 -25473.3)
(-7944.32 -4890.8 -31178.9 -46438.4 2155.11 -27822.8)
(-9324.67 -4894.26 -28766.8 -44990.9 4044.62 -24546.9)
(-17440 -12427.4 -25116 -43547.5 10805.9 -25864.9)
(-24075.3 14522.2 23166.2 -43755.4 12564 -30714.3)
(-8205.75 7132.39 25417.9 -39820.6 5781.48 -21748.2)
(-4455.57 5576.28 25288.7 -36492 4863.82 -18944.4)
(-4016.29 6022.38 25919.4 -34861.3 6142.32 -17609.9)
(-810.986 8465.11 28705 -30900.2 9719.53 -11612.2)
(6092.81 11060.6 33565.7 -27029.5 13061.3 -901.13)
(14179 10945.5 37565.3 -24887.3 12533.2 10118.9)
(20648.5 8504.09 39025.3 -23278.4 8563.31 17780.7)
(24071.7 5525.58 38329 -21854.3 3389.59 20519.6)
(24234.5 3212.56 36310.7 -21103.2 -1244.4 18211.3)
(21663.8 2089.79 33823 -21643.6 -4332.57 11805.5)
(17216 2199.3 31681.2 -23948.4 -5571.37 2829.43)
(11680.8 3275.27 30547.6 -28229.7 -5150.72 -7266.95)
(5353.8 4775.81 30765.4 -34496.4 -3328.56 -17341.7)
(-1923.69 5579.12 31706.3 -41954.7 -457.669 -25473.3)
(-7944.32 4890.8 31178.9 -46438.4 2155.11 -27822.8)
(-9324.67 4894.26 28766.8 -44990.9 4044.62 -24546.9)
(-17440 12427.4 25116 -43547.5 10805.9 -25864.9)
(-18797.5 5639.17 4237.28 7593.84 26670.6 8074.22)
(-971.501 12849.2 14095.8 7018.19 23144.1 18066.4)
(18818.1 11565.7 17760.1 13959 20535.8 32008.3)
(30887.5 8832.65 19466.9 18479.6 19048.4 41325.9)
(37784.7 6964.64 21640.9 18405.7 17145.9 46060.8)
(41813.3 6042.35 24263.3 15564.4 14390.2 47356.5)
(44409.4 5280.39 26428.4 12331 11208.2 46662.8)
(46569.3 4252.6 27798 9862.92 8055.17 45195)
(49011.6 2902.74 28429 8564.82 5084.28 43784.9)
(52065.2 1286.45 28389.2 8582.71 2238.9 42790.4)
(55557.7 -506.199 27660.8 9890.92 -536.764 42035.8)
(58897.9 -2332.01 26192.4 12289.7 -3076.14 40936.4)
(61162.1 -3948.92 24035.3 15290.4 -4765.57 38840.1)
(60784.3 -4876.23 21615.6 17855.9 -4444.39 35640.5)
(54769.9 -3798.85 20003.1 18320.7 -824.938 32263.7)
(40490 1678.27 20011.2 15764.9 6031 29549.8)
(20061.1 9577.22 19109.3 12326.6 14450.5 24645.2)
(-7227.82 9506.12 11187.1 10671.8 23555.2 13551.6)
(-18797.5 -5639.17 -4237.28 7593.84 26670.6 8074.22)
(-971.501 -12849.2 -14095.8 7018.19 23144.1 18066.4)
(18818.1 -11565.7 -17760.1 13959 20535.8 32008.3)
(30887.5 -8832.65 -19466.9 18479.6 19048.4 41325.9)
(37784.7 -6964.64 -21640.9 18405.7 17145.9 46060.8)
(41813.3 -6042.35 -24263.3 15564.4 14390.2 47356.5)
(44409.4 -5280.39 -26428.4 12331 11208.2 46662.8)
(46569.3 -4252.6 -27798 9862.92 8055.17 45195)
(49011.6 -2902.74 -28429 8564.82 5084.28 43784.9)
(52065.2 -1286.45 -28389.2 8582.71 2238.9 42790.4)
(55557.7 506.199 -27660.8 9890.92 -536.764 42035.8)
(58897.9 2332.01 -26192.4 12289.7 -3076.14 40936.4)
(61162.1 3948.92 -24035.3 15290.4 -4765.57 38840.1)
(60784.3 4876.23 -21615.6 17855.9 -4444.39 35640.5)
(54769.9 3798.85 -20003.1 18320.7 -824.938 32263.7)
(40490 -1678.27 -20011.2 15764.9 6031 29549.8)
(20061.1 -9577.22 -19109.3 12326.6 14450.5 24645.2)
(-7227.82 -9506.12 -11187.1 10671.8 23555.2 13551.6)
(-32900.9 14524.5 1207.18 12510.2 6129.66 -35170.7)
(1903.46 25808.9 3256.98 9920.65 5493.74 -18515.4)
(20185.7 23247.3 3915.52 4109.38 5531.6 -11480.6)
(29927.5 17995.3 3536.48 1621.48 6492.34 -6588.27)
(39080.2 12982.4 2788.97 1578.23 7287.63 -753.812)
(47661.7 9921.75 2578.54 1345.98 6633.04 4031.21)
(54060.3 8677.2 2941.07 623.476 4864.79 6715.8)
(58292.9 8177.12 3433.7 -272.135 2770.84 7702.65)
(60965.4 7820.64 3808.42 -1181.15 623.385 7522.52)
(62456.4 7405.67 3981.04 -1893.94 -1578.61 6466.37)
(62822.9 6872.42 3902.17 -2147.33 -3804.76 4551.99)
(61920.8 6243.17 3496.64 -1709.5 -5801.18 1659.63)
(59295.3 5753.63 2675.16 -605.11 -6999.39 -2272.62)
(53533.5 6283.87 1558.92 591.339 -6551.18 -7039.01)
(41532 9893.75 1054.49 525.411 -3773.95 -12310)
(21396.1 17530.8 2211.98 -1489.56 253.898 -19084.2)
(-4636.75 23461.2 3221.6 -260.579 3381.39 -28500.6)
(-33222.4 14113.4 1857.18 10511 5576.6 -36675.6)
(-32900.9 -14524.5 -1207.18 12510.2 6129.66 -35170.7)
(1903.46 -25808.9 -3256.98 9920.65 5493.74 -18515.4)
(20185.7 -23247.3 -3915.52 4109.38 5531.6 -11480.6)
(29927.5 -17995.3 -3536.48 1621.48 6492.34 -6588.27)
(39080.2 -12982.4 -2788.97 1578.23 7287.63 -753.812)
(47661.7 -9921.75 -2578.54 1345.98 6633.04 4031.21)
(54060.3 -8677.2 -2941.07 623.476 4864.79 6715.8)
(58292.9 -8177.12 -3433.7 -272.135 2770.84 7702.65)
(60965.4 -7820.64 -3808.42 -1181.15 623.385 7522.52)
(62456.4 -7405.67 -3981.04 -1893.94 -1578.61 6466.37)
(62822.9 -6872.42 -3902.17 -2147.33 -3804.76 4551.99)
(61920.8 -6243.17 -3496.64 -1709.5 -5801.18 1659.63)
(59295.3 -5753.63 -2675.16 -605.11 -6999.39 -2272.62)
(53533.5 -6283.87 -1558.92 591.339 -6551.18 -7039.01)
(41532 -9893.75 -1054.49 525.411 -3773.95 -12310)
(21396.1 -17530.8 -2211.98 -1489.56 253.898 -19084.2)
(-4636.75 -23461.2 -3221.6 -260.579 3381.39 -28500.6)
(-33222.4 -14113.4 -1857.18 10511 5576.6 -36675.6)
(-16577.1 11643.9 -9120.86 12297.1 -24293.6 -1318.42)
(-7808.87 17814.4 -17734 -4465.6 -17975.1 -5231.12)
(-10489.8 15260.2 -21122.9 -22555.2 -11794.5 -14735.2)
(-12696 10243.2 -23528.9 -31170.9 -5073.88 -17682.7)
(-7937.6 3291.29 -28325.9 -31435 3003.6 -9706.88)
(2377.82 -2250.71 -35254.6 -30271.4 8121.67 5093.69)
(13025.1 -2942 -40453.7 -29601.5 6692.62 19922.6)
(20955.8 -308.738 -42495.4 -27981.8 435.958 31059.7)
(25343.2 3167.3 -41908.1 -25169.1 -7926.77 36530.9)
(26270.7 5981.12 -39412.2 -21588.4 -16123.3 35419.4)
(24283.3 7422.5 -35879.8 -18085.4 -22279.9 28269.8)
(20146.3 7493.21 -32407 -15810.2 -25393.6 17058.8)
(14474.3 6923.27 -29996.5 -15597.5 -25629.9 4410.58)
(7188.64 7284.45 -28915.7 -17339.7 -23726 -7041.28)
(-2268.46 10651.5 -27527 -19331.8 -20764.2 -14109.9)
(-10400.5 15567.9 -23111.6 -15661.3 -19577.6 -13669.9)
(-13282.4 16477.3 -16092.9 -506.364 -21975.1 -6203.06)
(-17925.8 6797.99 -5122.24 16299 -25622 73.3198)
(-16577.1 -11643.9 9120.86 12297.1 -24293.6 -1318.42)
(-7808.87 -17814.4 17734 -4465.6 -17975.1 -5231.12)
(-10489.8 -15260.2 21122.9 -22555.2 -11794.5 -14735.2)
(-12696 -10243.2 23528.9 -31170.9 -5073.88 -17682.7)
(-7937.6 -3291.29 28325.9 -31435 3003.6 -9706.88)
(2377.82 2250.71 35254.6 -30271.4 8121.67 5093.69)
(13025.1 2942 40453.7 -29601.5 6692.62 19922.6)
(20955.8 308.738 42495.4 -27981.8 435.958 31059.7)
(25343.2 -3167.3 41908.1 -25169.1 -7926.77 36530.9)
(26270.7 -5981.12 39412.2 -21588.4 -16123.3 35419.4)
(24283.3 -7422.5 35879.8 -18085.4 -22279.9 28269.8)
(20146.3 -7493.21 32407 -15810.2 -25393.6 17058.8)
(14474.3 -6923.27 29996.5 -15597.5 -25629.9 4410.58)
(7188.64 -7284.45 28915.7 -17339.7 -23726 -7041.28)
(-2268.46 -10651.5 27527 -19331.8 -20764.2 -14109.9)
(-10400.5 -15567.9 23111.6 -15661.3 -19577.6 -13669.9)
(-13282.4 -16477.3 16092.9 -506.364 -21975.1 -6203.06)
(-17925.8 -6797.99 5122.24 16299 -25622 73.3198)
(-19648.1 1337.8 -286.327 7777.67 26398.5 6195.48)
(-14106.5 7274.01 5926.12 8162.43 27029.4 10642.3)
(-640.383 8444.52 8366.16 12941.8 28576.7 22746.3)
(13979.6 6714.67 9260.25 18001.6 30610.4 37394.4)
(25722.8 6367.4 12898.4 18284.7 29428.6 47849.6)
(33627.3 7350.1 17926.4 15167.8 25272.2 52346.9)
(38651.2 8063.02 21802.6 11699.2 20029.2 52592.3)
(42220.6 8057.88 24059.4 9256.72 14929.2 50634)
(45385.4 7492.85 25081.4 8058.79 10464.8 47920.4)
(48641.2 6598.19 25189.4 8015 6642.83 45149.7)
(51946.6 5571.06 24517.1 9061.7 3368.91 42405.8)
(54777.3 4574.88 23135.5 11131.3 762.328 39419.8)
(56096.7 3690.99 21212.4 13924.2 -671.138 35881.8)
(53816.9 2908.72 19169.2 16527 0.143284 31634.6)
(43556.7 2806.5 17675.8 16904.5 3993.81 26249.9)
(21723.7 5414.41 16767.9 13051.4 11377.9 18949.2)
(-2354.51 8346.35 14141.9 7628.11 18845.4 10546.5)
(-16803.1 5728.95 8049.63 6332.96 23969.5 5572.16)
(-19648.1 -1337.8 286.327 7777.67 26398.5 6195.48)
(-14106.5 -7274.01 -5926.12 8162.43 27029.4 10642.3)
(-640.383 -8444.52 -8366.16 12941.8 28576.7 22746.3)
(13979.6 -6714.67 -9260.25 18001.6 30610.4 37394.4)
(25722.8 -6367.4 -12898.4 18284.7 29428.6 47849.6)
(33627.3 -7350.1 -17926.4 15167.8 25272.2 52346.9)
(38651.2 -8063.02 -21802.6 11699.2 20029.2 52592.3)
(42220.6 -8057.88 -24059.4 9256.72 14929.2 50634)
(45385.4 -7492.85 -25081.4 8058.79 10464.8 47920.4)
(48641.2 -6598.19 -25189.4 8015 6642.83 45149.7)
(51946.6 -5571.06 -24517.1 9061.7 3368.91 42405.8)
(54777.3 -4574.88 -23135.5 11131.3 762.328 39419.8)
(56096.7 -3690.99 -21212.4 13924.2 -671.138 35881.8)
(53816.9 -2908.72 -19169.2 16527 0.143284 31634.6)
(43556.7 -2806.5 -17675.8 16904.5 3993.81 26249.9)
(21723.7 -5414.41 -16767.9 13051.4 11377.9 18949.2)
(-2354.51 -8346.35 -14141.9 7628.11 18845.4 10546.5)
(-16803.1 -5728.95 -8049.63 6332.96 23969.5 5572.16)
(-15545.3 7514.56 262.948 36125.9 6092.16 -15832)
(-7719 18133.6 1660.06 30857.7 7027.08 -13631.4)
(2257.87 22216.9 1889.78 23482.4 8689.94 -10370.1)
(15595.9 20667.9 694.932 19989.4 11524.2 -1915.85)
(31057.6 16812.8 -636.225 17121 13314 8222.5)
(44466.7 14527.4 -566.99 12793.3 11949.9 15093.4)
(53231.8 14237 509.15 8663.91 8470.19 17993)
(58373.9 14589.9 1739.48 5771.76 4435.05 18356.4)
(61238.1 14869.6 2764.4 4240.39 495.291 17201)
(62348.8 14910.1 3471.08 4023.82 -3141.43 14984.9)
(61744.6 14703.8 3824.77 5078.62 -6353.53 11836.2)
(59286.3 14243.5 3821.12 7361.43 -8930.72 7710.34)
(54512.5 13547.4 3468.28 10749.9 -10452.3 2544.27)
(45899 12992.1 2872.98 14933.7 -10154.3 -3490.01)
(30061.6 14024.2 2533.45 18822.8 -7002.4 -9969.78)
(7356.73 16933.5 2937.87 21066.8 -1718.41 -16450.7)
(-11588.4 15587.9 2861.49 24548.7 2417.27 -21148.4)
(-18949.4 6125.94 1543.4 32075.7 4754.4 -20100.7)
(-15545.3 -7514.56 -262.948 36125.9 6092.16 -15832)
(-7719 -18133.6 -1660.06 30857.7 7027.08 -13631.4)
(2257.87 -22216.9 -1889.78 23482.4 8689.94 -10370.1)
(15595.9 -20667.9 -694.932 19989.4 11524.2 -1915.85)
(31057.6 -16812.8 636.225 17121 13314 8222.5)
(44466.7 -14527.4 566.99 12793.3 11949.9 15093.4)
(53231.8 -14237 -509.15 8663.91 8470.19 17993)
(58373.9 -14589.9 -1739.48 5771.76 4435.05 18356.4)
(61238.1 -14869.6 -2764.4 4240.39 495.291 17201)
(62348.8 -14910.1 -3471.08 4023.82 -3141.43 14984.9)
(61744.6 -14703.8 -3824.77 5078.62 -6353.53 11836.2)
(59286.3 -14243.5 -3821.12 7361.43 -8930.72 7710.34)
(54512.5 -13547.4 -3468.28 10749.9 -10452.3 2544.27)
(45899 -12992.1 -2872.98 14933.7 -10154.3 -3490.01)
(30061.6 -14024.2 -2533.45 18822.8 -7002.4 -9969.78)
(7356.73 -16933.5 -2937.87 21066.8 -1718.41 -16450.7)
(-11588.4 -15587.9 -2861.49 24548.7 2417.27 -21148.4)
(-18949.4 -6125.94 -1543.4 32075.7 4754.4 -20100.7)
(12406.7 8077.09 -5525.61 47826.7 -25316.3 28474.6)
(3018.64 13552.8 -10690.6 27705.3 -21662.7 14966.9)
(-9562.17 15220.3 -14787 3665.06 -16480.7 -941.771)
(-14046.4 12926.3 -18944.9 -11556.6 -8521.75 -5537.18)
(-6367.42 7021.63 -24853.6 -18036.9 151.059 3849.65)
(7984.92 1908.34 -31682.2 -21848.6 4166.77 20242.2)
(20197.9 1586.37 -36474.1 -23948.8 908.763 36339.6)
(28014.1 4329.16 -38269.1 -23132.9 -7548.77 49135.1)
(32126.1 7593.62 -37546 -19425 -18654.3 56661.2)
(33047.4 9944.07 -34897.9 -13331.4 -30061.1 57385.2)
(31145.7 10698.3 -31062.3 -5875.75 -39475.8 51177.8)
(26895.3 9829.69 -27024.6 1437.28 -45281.2 39680.6)
(20721.9 8129.2 -23815.2 7390.76 -47068.2 25913.6)
(12500.4 7521.86 -21883.8 12016.4 -45138.5 13788.8)
(2299.94 9982.2 -19655.4 16582 -39941.3 7581.57)
(-3827.61 11923.6 -14441.3 24481.7 -34372.4 9633.29)
(474.725 8216.1 -7503.57 38283.7 -31033.8 18563.8)
(9971.43 214.886 -652.455 50716.2 -28410.4 28579.5)
(12406.7 -8077.09 5525.61 47826.7 -25316.3 28474.6)
(3018.64 -13552.8 10690.6 27705.3 -21662.7 14966.9)
(-9562.17 -15220.3 14787 3665.06 -16480.7 -941.771)
(-14046.4 -12926.3 18944.9 -11556.6 -8521.75 -5537.18)
(-6367.42 -7021.63 24853.6 -18036.9 151.059 3849.65)
(7984.92 -1908.34 31682.2 -21848.6 4166.77 20242.2)
(20197.9 -1586.37 36474.1 -23948.8 908.763 36339.6)
(28014.1 -4329.16 38269.1 -23132.9 -7548.77 49135.1)
(32126.1 -7593.62 37546 -19425 -18654.3 56661.2)
(33047.4 -9944.07 34897.9 -13331.4 -30061.1 57385.2)
(31145.7 -10698.3 31062.3 -5875.75 -39475.8 51177.8)
(26895.3 -9829.69 27024.6 1437.28 -45281.2 39680.6)
(20721.9 -8129.2 23815.2 7390.76 -47068.2 25913.6)
(12500.4 -7521.86 21883.8 12016.4 -45138.5 13788.8)
(2299.94 -9982.2 19655.4 16582 -39941.3 7581.57)
(-3827.61 -11923.6 14441.3 24481.7 -34372.4 9633.29)
(474.725 -8216.1 7503.57 38283.7 -31033.8 18563.8)
(9971.43 -214.886 652.455 50716.2 -28410.4 28579.5)
(-27501.4 -41.0139 -1842.08 -928.039 26109.3 -2893.43)
(-23378.7 3780.44 2315.67 1582.89 27559.1 1800.82)
(-12763.4 4971.33 3501.03 7128.38 30338.8 13163.9)
(1339.28 4069.78 3211.85 12815.1 34301.1 29692)
(15067.9 4640.83 6100.59 14355.8 34971.9 44390.9)
(25327.6 6799.27 11336.2 12416.9 31380.9 52481.6)
(31940.8 8750.62 15724.1 9830.95 25701.6 54629.6)
(36419.8 9893.44 18481.8 8067.3 19757.7 53146.8)
(39953.7 10360.9 19984.3 7354.94 14479.9 49825.5)
(43025.4 10397.8 20538.7 7517.5 10155.5 45713.3)
(45571.4 10213.5 20282.7 8427.98 6798.42 41291.8)
(47063.7 9916.2 19331.1 10014.3 4480.87 36724.4)
(46416.8 9417.31 17902.5 11970.9 3477.5 32029.5)
(41379.1 8448.92 16425.1 13346.2 4333.3 26898.7)
(27958.6 7224.46 15505.4 12356.2 7931.21 20260.6)
(6355.39 6856.07 14865.3 8149.61 14035.1 11596.1)
(-12838.2 6420.47 12310.6 2921.87 19784.1 3025.97)
(-24066.9 4066.13 7345.96 -490.888 23765.2 -2305.49)
(-27501.4 41.0139 1842.08 -928.039 26109.3 -2893.43)
(-23378.7 -3780.44 -2315.67 1582.89 27559.1 1800.82)
(-12763.4 -4971.33 -3501.03 7128.38 30338.8 13163.9)
(1339.28 -4069.78 -3211.85 12815.1 34301.1 29692)
(15067.9 -4640.83 -6100.59 14355.8 34971.9 44390.9)
(25327.6 -6799.27 -11336.2 12416.9 31380.9 52481.6)