/*--------------------------------*- C++ -*----------------------------------*\
| =========                 |                                                 |
| \\      /  F ield         | OpenFOAM: The Open Source CFD Toolbox           |
|  \\    /   O peration     | Version:  2312                                  |
|   \\  /    A nd           | Website:  www.openfoam.com                      |
|    \\/     M anipulation  |                                                 |
\*---------------------------------------------------------------------------*/
FoamFile
{
    version     2.0;
    format      ascii;
    arch        "LSB;label=32;scalar=64";
    class       volVectorField;
    location    "0.4";
    object      D;
}
// * * * * * * * * * * * * * * * * * * * * * * * * * * * * * * * * * * * * * //

dimensions      [0 1 0 0 0 0 0];

internalField   nonuniform List<vector> 
1620
(
(-0.000206664 0.000248538 -9.80593e-05)
(-0.000246682 0.000208875 -9.80595e-05)
(-0.000279205 0.000162866 -9.80594e-05)
(-0.000303245 0.000111909 -9.80593e-05)
(-0.000318071 5.75511e-05 -9.80595e-05)
(-0.000323232 1.44414e-06 -9.80596e-05)
(-0.000318572 -5.47066e-05 -9.80592e-05)
(-0.000304233 -0.000109195 -9.8059e-05)
(-0.000280649 -0.000160366 -9.80593e-05)
(-0.000248538 -0.000206664 -9.80593e-05)
(-0.000208875 -0.000246682 -9.80595e-05)
(-0.000162866 -0.000279205 -9.80594e-05)
(-0.000111909 -0.000303245 -9.80593e-05)
(-5.75511e-05 -0.000318071 -9.80595e-05)
(-1.44412e-06 -0.000323232 -9.80596e-05)
(5.47066e-05 -0.000318572 -9.80592e-05)
(0.000109195 -0.000304233 -9.8059e-05)
(0.000160366 -0.000280649 -9.80593e-05)
(0.000206664 -0.000248538 -9.80593e-05)
(0.000246682 -0.000208875 -9.80595e-05)
(0.000279205 -0.000162866 -9.80594e-05)
(0.000303245 -0.000111909 -9.80593e-05)
(0.000318071 -5.75511e-05 -9.80595e-05)
(0.000323232 -1.44412e-06 -9.80596e-05)
(0.000318572 5.47066e-05 -9.80592e-05)
(0.000304233 0.000109195 -9.8059e-05)
(0.000280649 0.000160366 -9.80593e-05)
(0.000248538 0.000206664 -9.80593e-05)
(0.000208875 0.000246682 -9.80595e-05)
(0.000162866 0.000279205 -9.80594e-05)
(0.000111909 0.000303245 -9.80593e-05)
(5.75511e-05 0.000318071 -9.80595e-05)
(1.44415e-06 0.000323232 -9.80595e-05)
(-5.47066e-05 0.000318572 -9.80591e-05)
(-0.000109195 0.000304233 -9.8059e-05)
(-0.000160366 0.000280649 -9.80593e-05)
(-0.00015273 0.000300112 -6.67606e-05)
(-0.000202524 0.000269031 -6.67606e-05)
(-0.000246164 0.000229776 -6.67606e-05)
(-0.000282324 0.000183539 -6.67606e-05)
(-0.000309907 0.000131726 -6.67607e-05)
(-0.000328072 7.59099e-05 -6.67606e-05)
(-0.000336269 1.77876e-05 -6.67605e-05)
(-0.00033425 -4.08751e-05 -6.67605e-05)
(-0.000322074 -9.82962e-05 -6.67606e-05)
(-0.000300112 -0.00015273 -6.67606e-05)
(-0.000269031 -0.000202524 -6.67606e-05)
(-0.000229776 -0.000246164 -6.67606e-05)
(-0.000183539 -0.000282324 -6.67606e-05)
(-0.000131726 -0.000309907 -6.67607e-05)
(-7.59099e-05 -0.000328072 -6.67606e-05)
(-1.77876e-05 -0.000336269 -6.67605e-05)
(4.08751e-05 -0.00033425 -6.67605e-05)
(9.82962e-05 -0.000322074 -6.67606e-05)
(0.00015273 -0.000300112 -6.67606e-05)
(0.000202524 -0.000269031 -6.67606e-05)
(0.000246164 -0.000229776 -6.67606e-05)
(0.000282324 -0.000183539 -6.67606e-05)
(0.000309907 -0.000131726 -6.67607e-05)
(0.000328072 -7.59099e-05 -6.67606e-05)
(0.000336269 -1.77876e-05 -6.67605e-05)
(0.00033425 4.08752e-05 -6.67605e-05)
(0.000322074 9.82962e-05 -6.67606e-05)
(0.000300112 0.00015273 -6.67606e-05)
(0.000269031 0.000202524 -6.67606e-05)
(0.000229776 0.000246164 -6.67606e-05)
(0.000183539 0.000282324 -6.67606e-05)
(0.000131726 0.000309907 -6.67607e-05)
(7.59099e-05 0.000328072 -6.67606e-05)
(1.77876e-05 0.000336269 -6.67605e-05)
(-4.08751e-05 0.00033425 -6.67605e-05)
(-9.82962e-05 0.000322074 -6.67606e-05)
(-0.000118185 0.000352196 -4.32294e-05)
(-0.000177548 0.000326323 -4.32294e-05)
(-0.000231516 0.000290535 -4.32295e-05)
(-0.00027845 0.000245918 -4.32294e-05)
(-0.000316923 0.00019383 -4.32295e-05)
(-0.000345766 0.000135852 -4.32294e-05)
(-0.000364104 7.37466e-05 -4.32295e-05)
(-0.000371378 9.40018e-06 -4.32296e-05)
(-0.000367368 -5.52317e-05 -4.32294e-05)
(-0.000352196 -0.000118185 -4.32294e-05)
(-0.000326323 -0.000177548 -4.32294e-05)
(-0.000290535 -0.000231516 -4.32295e-05)
(-0.000245918 -0.00027845 -4.32294e-05)
(-0.00019383 -0.000316923 -4.32295e-05)
(-0.000135852 -0.000345766 -4.32294e-05)
(-7.37466e-05 -0.000364104 -4.32295e-05)
(-9.40017e-06 -0.000371378 -4.32296e-05)
(5.52318e-05 -0.000367368 -4.32294e-05)
(0.000118185 -0.000352196 -4.32294e-05)
(0.000177548 -0.000326323 -4.32294e-05)
(0.000231516 -0.000290535 -4.32295e-05)
(0.00027845 -0.000245918 -4.32294e-05)
(0.000316923 -0.00019383 -4.32295e-05)
(0.000345766 -0.000135852 -4.32294e-05)
(0.000364104 -7.37466e-05 -4.32295e-05)
(0.000371378 -9.40016e-06 -4.32296e-05)
(0.000367368 5.52318e-05 -4.32294e-05)
(0.000352196 0.000118185 -4.32294e-05)
(0.000326323 0.000177548 -4.32294e-05)
(0.000290535 0.000231516 -4.32295e-05)
(0.000245918 0.00027845 -4.32294e-05)
(0.00019383 0.000316923 -4.32295e-05)
(0.000135852 0.000345766 -4.32294e-05)
(7.37466e-05 0.000364104 -4.32295e-05)
(9.40017e-06 0.000371378 -4.32295e-05)
(-5.52318e-05 0.000367368 -4.32294e-05)
(-0.000504225 0.000803799 -0.0002949)
(-0.000636143 0.00070403 -0.0002949)
(-0.000748732 0.000582869 -0.0002949)
(-0.000838571 0.000443998 -0.000294899)
(-0.000902931 0.000291637 -0.000294899)
(-0.000939855 0.000130414 -0.000294899)
(-0.000948224 -3.47713e-05 -0.0002949)
(-0.00092778 -0.0001989 -0.0002949)
(-0.000879145 -0.000356986 -0.0002949)
(-0.000803799 -0.000504225 -0.0002949)
(-0.00070403 -0.000636143 -0.0002949)
(-0.000582869 -0.000748732 -0.0002949)
(-0.000443998 -0.000838571 -0.000294899)
(-0.000291637 -0.000902931 -0.000294899)
(-0.000130414 -0.000939855 -0.000294899)
(3.47713e-05 -0.000948224 -0.0002949)
(0.0001989 -0.00092778 -0.0002949)
(0.000356986 -0.000879145 -0.0002949)
(0.000504225 -0.000803799 -0.0002949)
(0.000636143 -0.00070403 -0.0002949)
(0.000748732 -0.000582869 -0.0002949)
(0.000838571 -0.000443998 -0.000294899)
(0.000902931 -0.000291637 -0.000294899)
(0.000939856 -0.000130414 -0.000294899)
(0.000948224 3.47713e-05 -0.0002949)
(0.00092778 0.0001989 -0.0002949)
(0.000879146 0.000356986 -0.0002949)
(0.000803799 0.000504225 -0.0002949)
(0.00070403 0.000636143 -0.0002949)
(0.000582869 0.000748732 -0.0002949)
(0.000443998 0.000838571 -0.000294899)
(0.000291637 0.000902931 -0.000294899)
(0.000130415 0.000939856 -0.000294899)
(-3.47713e-05 0.000948224 -0.0002949)
(-0.0001989 0.00092778 -0.0002949)
(-0.000356986 0.000879146 -0.0002949)
(-0.000459284 0.000897191 -0.000222369)
(-0.000608102 0.000803807 -0.000222369)
(-0.000738443 0.000686 -0.00022237)
(-0.000846347 0.000547349 -0.000222369)
(-0.000928536 0.000392067 -0.000222369)
(-0.000982511 0.000224872 -0.000222369)
(-0.00100663 5.08442e-05 -0.000222369)
(-0.00100017 -0.000124728 -0.000222369)
(-0.000963315 -0.000296511 -0.000222369)
(-0.000897191 -0.000459284 -0.000222369)
(-0.000803807 -0.000608102 -0.000222369)
(-0.000686 -0.000738443 -0.00022237)
(-0.000547349 -0.000846347 -0.000222369)
(-0.000392067 -0.000928536 -0.000222369)
(-0.000224872 -0.000982511 -0.000222369)
(-5.08441e-05 -0.00100663 -0.000222369)
(0.000124728 -0.00100017 -0.000222369)
(0.000296511 -0.000963315 -0.000222369)
(0.000459284 -0.000897191 -0.000222369)
(0.000608102 -0.000803807 -0.000222369)
(0.000738443 -0.000686 -0.00022237)
(0.000846347 -0.000547349 -0.000222369)
(0.000928536 -0.000392067 -0.000222369)
(0.000982511 -0.000224872 -0.000222369)
(0.00100663 -5.08441e-05 -0.000222369)
(0.00100017 0.000124728 -0.000222369)
(0.000963315 0.000296511 -0.000222369)
(0.000897191 0.000459284 -0.000222369)
(0.000803807 0.000608102 -0.000222369)
(0.000686 0.000738443 -0.000222369)
(0.000547349 0.000846347 -0.000222369)
(0.000392067 0.000928536 -0.000222369)
(0.000224872 0.000982511 -0.000222369)
(5.08442e-05 0.00100663 -0.000222369)
(-0.000124728 0.00100017 -0.000222369)
(-0.000296511 0.000963315 -0.000222369)
(-0.000438387 0.000986558 -0.000152495)
(-0.00060304 0.000895445 -0.000152495)
(-0.000749371 0.000777125 -0.000152495)
(-0.000872932 0.000635191 -0.000152495)
(-0.00096997 0.000473958 -0.000152495)
(-0.00103754 0.000298324 -0.000152495)
(-0.00107358 0.000113625 -0.000152495)
(-0.001077 -7.45255e-05 -0.000152495)
(-0.0010477 -0.000260412 -0.000152495)
(-0.000986558 -0.000438387 -0.000152495)
(-0.000895445 -0.00060304 -0.000152495)
(-0.000777125 -0.000749371 -0.000152495)
(-0.000635191 -0.000872932 -0.000152495)
(-0.000473958 -0.00096997 -0.000152495)
(-0.000298324 -0.00103754 -0.000152495)
(-0.000113625 -0.00107358 -0.000152495)
(7.45255e-05 -0.001077 -0.000152495)
(0.000260412 -0.0010477 -0.000152495)
(0.000438387 -0.000986558 -0.000152495)
(0.00060304 -0.000895445 -0.000152495)
(0.000749371 -0.000777125 -0.000152495)
(0.000872932 -0.000635191 -0.000152495)
(0.00096997 -0.000473958 -0.000152495)
(0.00103754 -0.000298324 -0.000152495)
(0.00107358 -0.000113625 -0.000152495)
(0.001077 7.45256e-05 -0.000152495)
(0.0010477 0.000260412 -0.000152495)
(0.000986558 0.000438387 -0.000152495)
(0.000895445 0.00060304 -0.000152495)
(0.000777125 0.000749371 -0.000152495)
(0.000635191 0.000872932 -0.000152495)
(0.000473958 0.00096997 -0.000152495)
(0.000298324 0.00103754 -0.000152495)
(0.000113625 0.00107358 -0.000152495)
(-7.45255e-05 0.001077 -0.000152495)
(-0.000260412 0.0010477 -0.000152495)
(-0.000794795 0.00136112 -0.000554235)
(-0.00101908 0.00120242 -0.000554235)
(-0.00121239 0.0010072 -0.000554235)
(-0.00136887 0.000781364 -0.000554234)
(-0.00148376 0.000531792 -0.000554233)
(-0.00155356 0.000266062 -0.000554233)
(-0.00157616 -7.75366e-06 -0.000554233)
(-0.00155087 -0.000281333 -0.000554234)
(-0.00147845 -0.000546365 -0.000554234)
(-0.00136112 -0.000794795 -0.000554235)
(-0.00120242 -0.00101908 -0.000554235)
(-0.0010072 -0.00121239 -0.000554235)
(-0.000781364 -0.00136887 -0.000554234)
(-0.000531792 -0.00148376 -0.000554233)
(-0.000266062 -0.00155356 -0.000554233)
(7.75373e-06 -0.00157616 -0.000554233)
(0.000281333 -0.00155087 -0.000554234)
(0.000546365 -0.00147845 -0.000554234)
(0.000794795 -0.00136112 -0.000554235)
(0.00101908 -0.00120242 -0.000554235)
(0.00121239 -0.0010072 -0.000554235)
(0.00136887 -0.000781364 -0.000554234)
(0.00148376 -0.000531792 -0.000554233)
(0.00155356 -0.000266062 -0.000554233)
(0.00157616 7.75373e-06 -0.000554233)
(0.00155087 0.000281333 -0.000554234)
(0.00147845 0.000546365 -0.000554234)
(0.00136112 0.000794795 -0.000554235)
(0.00120242 0.00101908 -0.000554235)
(0.0010072 0.00121239 -0.000554235)
(0.000781364 0.00136887 -0.000554234)
(0.000531792 0.00148376 -0.000554233)
(0.000266062 0.00155356 -0.000554233)
(-7.75365e-06 0.00157616 -0.000554233)
(-0.000281333 0.00155087 -0.000554234)
(-0.000546365 0.00147845 -0.000554234)
(-0.000760749 0.00148416 -0.0004455)
(-0.00100691 0.00132951 -0.0004455)
(-0.00122248 0.00113447 -0.0004455)
(-0.00140091 0.000904949 -0.0004455)
(-0.00153677 0.000647936 -0.0004455)
(-0.00162593 0.000371235 -0.0004455)
(-0.0016657 8.32545e-05 -0.0004455)
(-0.00165485 -0.000207256 -0.0004455)
(-0.00159372 -0.000491469 -0.0004455)
(-0.00148416 -0.000760749 -0.0004455)
(-0.00132951 -0.00100691 -0.000445501)
(-0.00113447 -0.00122248 -0.0004455)
(-0.000904949 -0.00140091 -0.0004455)
(-0.000647936 -0.00153677 -0.0004455)
(-0.000371235 -0.00162593 -0.0004455)
(-8.32544e-05 -0.0016657 -0.0004455)
(0.000207256 -0.00165485 -0.0004455)
(0.000491469 -0.00159372 -0.0004455)
(0.000760749 -0.00148416 -0.0004455)
(0.00100691 -0.00132951 -0.000445501)
(0.00122248 -0.00113447 -0.0004455)
(0.00140091 -0.000904949 -0.0004455)
(0.00153677 -0.000647936 -0.0004455)
(0.00162593 -0.000371235 -0.0004455)
(0.0016657 -8.32544e-05 -0.0004455)
(0.00165485 0.000207256 -0.0004455)
(0.00159372 0.000491469 -0.0004455)
(0.00148416 0.000760749 -0.0004455)
(0.00132951 0.00100691 -0.0004455)
(0.00113447 0.00122248 -0.0004455)
(0.000904949 0.00140091 -0.0004455)
(0.000647936 0.00153677 -0.0004455)
(0.000371235 0.00162593 -0.0004455)
(8.32545e-05 0.0016657 -0.0004455)
(-0.000207256 0.00165485 -0.0004455)
(-0.000491469 0.00159372 -0.0004455)
(-0.000753459 0.00159768 -0.000340024)
(-0.00101945 0.00144257 -0.000340024)
(-0.00125446 0.00124363 -0.000340024)
(-0.00145136 0.00100691 -0.000340024)
(-0.00160415 0.000739584 -0.000340024)
(-0.00170821 0.000449789 -0.000340024)
(-0.00176036 0.000146328 -0.000340024)
(-0.00175903 -0.000161579 -0.000340024)
(-0.00170425 -0.000464577 -0.000340024)
(-0.00159768 -0.000753459 -0.000340024)
(-0.00144257 -0.00101945 -0.000340024)
(-0.00124363 -0.00125446 -0.000340024)
(-0.00100691 -0.00145136 -0.000340024)
(-0.000739584 -0.00160415 -0.000340025)
(-0.000449789 -0.00170821 -0.000340025)
(-0.000146328 -0.00176036 -0.000340024)
(0.000161579 -0.00175903 -0.000340024)
(0.000464577 -0.00170425 -0.000340024)
(0.000753459 -0.00159768 -0.000340024)
(0.00101945 -0.00144257 -0.000340024)
(0.00125446 -0.00124363 -0.000340024)
(0.00145136 -0.00100691 -0.000340024)
(0.00160415 -0.000739584 -0.000340024)
(0.00170821 -0.000449789 -0.000340024)
(0.00176036 -0.000146328 -0.000340024)
(0.00175903 0.000161579 -0.000340024)
(0.00170425 0.000464577 -0.000340024)
(0.00159768 0.000753459 -0.000340024)
(0.00144257 0.00101945 -0.000340024)
(0.00124363 0.00125446 -0.000340024)
(0.00100691 0.00145136 -0.000340024)
(0.000739584 0.00160415 -0.000340024)
(0.000449789 0.00170821 -0.000340024)
(0.000146328 0.00176036 -0.000340024)
(-0.000161579 0.00175903 -0.000340024)
(-0.000464577 0.00170425 -0.000340024)
(-0.00107424 0.00191727 -0.000860645)
(-0.00139086 0.0017016 -0.000860645)
(-0.00166521 0.00143423 -0.000860645)
(-0.00188896 0.00112329 -0.000860645)
(-0.00205532 0.000778206 -0.000860645)
(-0.00215923 0.000409481 -0.000860644)
(-0.00219753 2.83141e-05 -0.000860644)
(-0.00216906 -0.000353714 -0.000860644)
(-0.00207469 -0.000724993 -0.000860644)
(-0.00191727 -0.00107424 -0.000860645)
(-0.0017016 -0.00139086 -0.000860645)
(-0.00143423 -0.00166521 -0.000860645)
(-0.00112329 -0.00188896 -0.000860645)
(-0.000778206 -0.00205532 -0.000860645)
(-0.000409481 -0.00215923 -0.000860644)
(-2.8314e-05 -0.00219753 -0.000860644)
(0.000353714 -0.00216906 -0.000860644)
(0.000724993 -0.00207469 -0.000860644)
(0.00107424 -0.00191727 -0.000860645)
(0.00139086 -0.0017016 -0.000860645)
(0.00166521 -0.00143423 -0.000860645)
(0.00188896 -0.00112329 -0.000860645)
(0.00205532 -0.000778206 -0.000860645)
(0.00215923 -0.000409481 -0.000860644)
(0.00219753 -2.8314e-05 -0.000860644)
(0.00216906 0.000353714 -0.000860644)
(0.00207469 0.000724993 -0.000860644)
(0.00191727 0.00107424 -0.000860645)
(0.0017016 0.00139086 -0.000860645)
(0.00143423 0.00166521 -0.000860645)
(0.00112329 0.00188896 -0.000860645)
(0.000778206 0.00205532 -0.000860645)
(0.000409481 0.00215923 -0.000860644)
(2.83141e-05 0.00219753 -0.000860644)
(-0.000353714 0.00216906 -0.000860644)
(-0.000724993 0.00207469 -0.000860644)
(-0.00105412 0.00204839 -0.000722645)
(-0.00139381 0.00183423 -0.000722645)
(-0.00169114 0.00156433 -0.000722645)
(-0.00193709 0.0012469 -0.000722645)
(-0.00212419 0.000891583 -0.000722645)
(-0.00224674 0.000509177 -0.000722645)
(-0.00230102 0.000111299 -0.000722645)
(-0.00228539 -0.00028996 -0.000722645)
(-0.00220032 -0.00068241 -0.000722645)
(-0.00204839 -0.00105412 -0.000722645)
(-0.00183423 -0.00139381 -0.000722645)
(-0.00156433 -0.00169114 -0.000722645)
(-0.0012469 -0.00193709 -0.000722645)
(-0.000891583 -0.00212419 -0.000722645)
(-0.000509177 -0.00224674 -0.000722645)
(-0.000111299 -0.00230102 -0.000722645)
(0.00028996 -0.00228539 -0.000722645)
(0.00068241 -0.00220032 -0.000722645)
(0.00105412 -0.00204839 -0.000722645)
(0.00139381 -0.00183423 -0.000722645)
(0.00169114 -0.00156433 -0.000722645)
(0.00193709 -0.0012469 -0.000722645)
(0.00212419 -0.000891583 -0.000722645)
(0.00224674 -0.000509177 -0.000722645)
(0.00230102 -0.000111299 -0.000722645)
(0.00228539 0.00028996 -0.000722645)
(0.00220032 0.00068241 -0.000722645)
(0.00204839 0.00105412 -0.000722645)
(0.00183423 0.00139381 -0.000722645)
(0.00156433 0.00169114 -0.000722645)
(0.0012469 0.00193709 -0.000722645)
(0.000891583 0.00212419 -0.000722645)
(0.000509177 0.00224674 -0.000722645)
(0.000111299 0.00230102 -0.000722645)
(-0.00028996 0.00228539 -0.000722645)
(-0.00068241 0.00220032 -0.000722645)
(-0.00106294 0.00216351 -0.000589534)
(-0.00142248 0.00194606 -0.000589535)
(-0.0017388 0.00166949 -0.000589534)
(-0.00200229 0.00134218 -0.000589534)
(-0.00220493 0.000974099 -0.000589534)
(-0.00234059 0.000576418 -0.000589534)
(-0.00240512 0.000161221 -0.000589535)
(-0.00239658 -0.000258873 -0.000589535)
(-0.00231522 -0.000671102 -0.000589534)
(-0.00216351 -0.00106294 -0.000589534)
(-0.00194606 -0.00142248 -0.000589535)
(-0.00166949 -0.0017388 -0.000589534)
(-0.00134218 -0.00200229 -0.000589534)
(-0.000974099 -0.00220493 -0.000589534)
(-0.000576418 -0.00234059 -0.000589534)
(-0.000161221 -0.00240512 -0.000589535)
(0.000258873 -0.00239658 -0.000589535)
(0.000671102 -0.00231522 -0.000589534)
(0.00106294 -0.00216351 -0.000589534)
(0.00142248 -0.00194606 -0.000589535)
(0.0017388 -0.00166949 -0.000589534)
(0.00200229 -0.00134218 -0.000589534)
(0.00220493 -0.000974099 -0.000589534)
(0.00234059 -0.000576418 -0.000589534)
(0.00240512 -0.000161221 -0.000589535)
(0.00239658 0.000258873 -0.000589535)
(0.00231522 0.000671102 -0.000589534)
(0.00216351 0.00106294 -0.000589534)
(0.00194606 0.00142248 -0.000589535)
(0.00166949 0.0017388 -0.000589534)
(0.00134218 0.00200229 -0.000589534)
(0.000974099 0.00220493 -0.000589534)
(0.000576418 0.00234059 -0.000589534)
(0.000161221 0.00240512 -0.000589534)
(-0.000258873 0.00239658 -0.000589535)
(-0.000671102 0.00231522 -0.000589534)
(-0.00134913 0.00246305 -0.00120335)
(-0.00175634 0.00219136 -0.00120335)
(-0.00211018 0.00185308 -0.00120335)
(-0.0023999 0.0014585 -0.00120335)
(-0.00261671 0.0010196 -0.00120335)
(-0.00275401 0.000549726 -0.00120335)
(-0.00280763 6.31465e-05 -0.00120335)
(-0.00277594 -0.000425353 -0.00120335)
(-0.00265991 -0.000900928 -0.00120335)
(-0.00246305 -0.00134913 -0.00120335)
(-0.00219136 -0.00175634 -0.00120335)
(-0.00185308 -0.00211018 -0.00120335)
(-0.0014585 -0.0023999 -0.00120335)
(-0.0010196 -0.00261671 -0.00120335)
(-0.000549726 -0.00275401 -0.00120335)
(-6.31463e-05 -0.00280763 -0.00120335)
(0.000425353 -0.00277594 -0.00120335)
(0.000900928 -0.00265991 -0.00120335)
(0.00134913 -0.00246305 -0.00120335)
(0.00175634 -0.00219136 -0.00120335)
(0.00211018 -0.00185308 -0.00120335)
(0.0023999 -0.0014585 -0.00120335)
(0.00261671 -0.0010196 -0.00120335)
(0.00275401 -0.000549726 -0.00120335)
(0.00280763 -6.31463e-05 -0.00120335)
(0.00277594 0.000425353 -0.00120335)
(0.00265991 0.000900928 -0.00120335)
(0.00246305 0.00134913 -0.00120335)
(0.00219136 0.00175634 -0.00120335)
(0.00185308 0.00211018 -0.00120335)
(0.0014585 0.0023999 -0.00120335)
(0.0010196 0.00261671 -0.00120335)
(0.000549726 0.00275401 -0.00120335)
(6.31465e-05 0.00280763 -0.00120335)
(-0.000425353 0.00277594 -0.00120335)
(-0.000900928 0.00265991 -0.00120335)
(-0.00134123 0.00257678 -0.00104328)
(-0.00176831 0.00230473 -0.00104328)
(-0.00214166 0.00196265 -0.00104328)
(-0.00244993 0.00156094 -0.00104328)
(-0.00268376 0.0011118 -0.00104328)
(-0.00283605 0.000628877 -0.00104328)
(-0.00290217 0.000126847 -0.00104328)
(-0.00288011 -0.000379036 -0.00104328)
(-0.00277053 -0.000873404 -0.00104328)
(-0.00257678 -0.00134123 -0.00104328)
(-0.00230473 -0.00176831 -0.00104328)
(-0.00196265 -0.00214166 -0.00104328)
(-0.00156094 -0.00244993 -0.00104328)
(-0.0011118 -0.00268376 -0.00104328)
(-0.000628877 -0.00283605 -0.00104328)
(-0.000126847 -0.00290217 -0.00104328)
(0.000379036 -0.00288011 -0.00104328)
(0.000873404 -0.00277053 -0.00104328)
(0.00134123 -0.00257678 -0.00104328)
(0.00176831 -0.00230473 -0.00104328)
(0.00214166 -0.00196265 -0.00104328)
(0.00244993 -0.00156094 -0.00104328)
(0.00268376 -0.0011118 -0.00104328)
(0.00283605 -0.000628877 -0.00104328)
(0.00290217 -0.000126847 -0.00104328)
(0.00288011 0.000379036 -0.00104328)
(0.00277053 0.000873404 -0.00104328)
(0.00257678 0.00134123 -0.00104328)
(0.00230473 0.00176831 -0.00104328)
(0.00196265 0.00214166 -0.00104328)
(0.00156094 0.00244993 -0.00104328)
(0.0011118 0.00268376 -0.00104328)
(0.000628877 0.00283605 -0.00104328)
(0.000126847 0.00290217 -0.00104328)
(-0.000379036 0.00288011 -0.00104328)
(-0.000873404 0.00277053 -0.00104328)
(-0.00136306 0.0026685 -0.000889769)
(-0.00180573 0.00239126 -0.000889769)
(-0.00219353 0.00204137 -0.000889769)
(-0.00251469 0.00162946 -0.000889769)
(-0.00275944 0.00116803 -0.000889769)
(-0.00292034 0.000671115 -0.000889769)
(-0.00299251 0.000153807 -0.000889769)
(-0.00297376 -0.000368174 -0.000889769)
(-0.00286465 -0.000878969 -0.000889769)
(-0.0026685 -0.00136306 -0.000889769)
(-0.00239126 -0.00180573 -0.000889769)
(-0.00204137 -0.00219353 -0.000889769)
(-0.00162946 -0.00251469 -0.000889769)
(-0.00116803 -0.00275944 -0.000889769)
(-0.000671115 -0.00292034 -0.000889769)
(-0.000153807 -0.00299251 -0.000889769)
(0.000368175 -0.00297376 -0.000889769)
(0.000878969 -0.00286465 -0.000889769)
(0.00136306 -0.0026685 -0.000889769)
(0.00180573 -0.00239126 -0.000889769)
(0.00219353 -0.00204137 -0.000889769)
(0.00251469 -0.00162946 -0.000889769)
(0.00275944 -0.00116803 -0.000889769)
(0.00292034 -0.000671115 -0.000889769)
(0.00299251 -0.000153807 -0.000889769)
(0.00297376 0.000368175 -0.000889769)
(0.00286465 0.000878969 -0.000889769)
(0.0026685 0.00136306 -0.000889769)
(0.00239126 0.00180573 -0.000889769)
(0.00204137 0.00219353 -0.000889769)
(0.00162946 0.00251469 -0.000889769)
(0.00116803 0.00275944 -0.000889769)
(0.000671116 0.00292034 -0.000889769)
(0.000153807 0.00299251 -0.000889769)
(-0.000368174 0.00297376 -0.000889769)
(-0.000878969 0.00286465 -0.000889769)
(-0.00162609 0.0029824 -0.00157361)
(-0.00211927 0.00265472 -0.00157361)
(-0.00254807 0.00224638 -0.00157361)
(-0.00289943 0.00176979 -0.00157361)
(-0.0031627 0.00123942 -0.00157361)
(-0.00332988 0.00067139 -0.00157361)
(-0.00339588 8.2963e-05 -0.00157361)
(-0.00335869 -0.000507986 -0.00157361)
(-0.00321946 -0.0010835 -0.00157361)
(-0.0029824 -0.00162609 -0.00157361)
(-0.00265472 -0.00211927 -0.00157361)
(-0.00224638 -0.00254807 -0.00157361)
(-0.00176979 -0.00289943 -0.00157361)
(-0.00123942 -0.0031627 -0.00157361)
(-0.00067139 -0.00332988 -0.00157361)
(-8.29628e-05 -0.00339588 -0.00157361)
(0.000507986 -0.00335869 -0.00157361)
(0.0010835 -0.00321946 -0.00157361)
(0.00162609 -0.0029824 -0.00157361)
(0.00211927 -0.00265472 -0.00157361)
(0.00254807 -0.00224638 -0.00157361)
(0.00289943 -0.00176979 -0.00157361)
(0.0031627 -0.00123942 -0.00157361)
(0.00332988 -0.00067139 -0.00157361)
(0.00339588 -8.29629e-05 -0.00157361)
(0.00335869 0.000507986 -0.00157361)
(0.00321946 0.0010835 -0.00157361)
(0.0029824 0.00162609 -0.00157361)
(0.00265472 0.00211927 -0.00157361)
(0.00224638 0.00254807 -0.00157361)
(0.00176979 0.00289943 -0.00157361)
(0.00123942 0.0031627 -0.00157361)
(0.00067139 0.00332988 -0.00157361)
(8.2963e-05 0.00339588 -0.00157361)
(-0.000507986 0.00335869 -0.00157361)
(-0.0010835 0.00321946 -0.00157361)
(-0.00162429 0.00305494 -0.00139654)
(-0.0021301 0.00272648 -0.00139655)
(-0.00257118 0.00231517 -0.00139655)
(-0.00293414 0.00183352 -0.00139655)
(-0.00320795 0.00129615 -0.00139655)
(-0.00338429 0.000719405 -0.00139655)
(-0.0034578 0.0001208 -0.00139654)
(-0.00342625 -0.000481476 -0.00139655)
(-0.00329059 -0.00106912 -0.00139654)
(-0.00305494 -0.00162429 -0.00139655)
(-0.00272648 -0.0021301 -0.00139655)
(-0.00231517 -0.00257118 -0.00139655)
(-0.00183352 -0.00293414 -0.00139655)
(-0.00129615 -0.00320795 -0.00139655)
(-0.000719405 -0.00338429 -0.00139655)
(-0.0001208 -0.0034578 -0.00139655)
(0.000481476 -0.00342625 -0.00139655)
(0.00106912 -0.00329059 -0.00139654)
(0.00162429 -0.00305494 -0.00139655)
(0.0021301 -0.00272648 -0.00139655)
(0.00257118 -0.00231517 -0.00139655)
(0.00293414 -0.00183352 -0.00139655)
(0.00320795 -0.00129615 -0.00139655)
(0.00338429 -0.000719405 -0.00139655)
(0.0034578 -0.0001208 -0.00139654)
(0.00342625 0.000481476 -0.00139655)
(0.00329059 0.00106912 -0.00139654)
(0.00305494 0.00162429 -0.00139654)
(0.00272648 0.0021301 -0.00139655)
(0.00231517 0.00257118 -0.00139655)
(0.00183352 0.00293414 -0.00139655)
(0.00129615 0.00320795 -0.00139654)
(0.000719405 0.00338429 -0.00139655)
(0.0001208 0.0034578 -0.00139654)
(-0.000481476 0.00342625 -0.00139655)
(-0.00106912 0.00329059 -0.00139654)
(-0.00165121 0.00310108 -0.0012275)
(-0.00216462 0.00276724 -0.0012275)
(-0.00261226 0.00234932 -0.00122749)
(-0.00298053 0.00186001 -0.0012275)
(-0.00325824 0.00131419 -0.0012275)
(-0.00343694 0.000728438 -0.0012275)
(-0.00351122 0.000120553 -0.00122749)
(-0.00347881 -0.000490996 -0.0012275)
(-0.0033407 -0.00108763 -0.0012275)
(-0.00310108 -0.00165121 -0.0012275)
(-0.00276724 -0.00216462 -0.0012275)
(-0.00234932 -0.00261226 -0.0012275)
(-0.00186001 -0.00298053 -0.0012275)
(-0.00131419 -0.00325824 -0.0012275)
(-0.000728437 -0.00343694 -0.0012275)
(-0.000120553 -0.00351122 -0.00122749)
(0.000490996 -0.00347881 -0.0012275)
(0.00108763 -0.0033407 -0.0012275)
(0.00165121 -0.00310108 -0.0012275)
(0.00216462 -0.00276724 -0.0012275)
(0.00261226 -0.00234932 -0.0012275)
(0.00298053 -0.00186001 -0.0012275)
(0.00325824 -0.00131419 -0.0012275)
(0.00343694 -0.000728437 -0.0012275)
(0.00351122 -0.000120553 -0.00122749)
(0.00347881 0.000490996 -0.0012275)
(0.0033407 0.00108763 -0.0012275)
(0.00310108 0.00165121 -0.0012275)
(0.00276724 0.00216462 -0.0012275)
(0.00234932 0.00261226 -0.00122749)
(0.00186001 0.00298053 -0.0012275)
(0.00131419 0.00325824 -0.0012275)
(0.000728438 0.00343694 -0.0012275)
(0.000120553 0.00351122 -0.00122749)
(-0.000490996 0.00347881 -0.0012275)
(-0.00108763 0.0033407 -0.0012275)
(-0.0019069 0.00345286 -0.00196375)
(-0.00247752 0.00306927 -0.00196375)
(-0.00297285 0.00259243 -0.00196375)
(-0.00337786 0.00203681 -0.00196375)
(-0.00368023 0.00141931 -0.00196375)
(-0.00387078 0.000758683 -0.00196375)
(-0.00394372 7.50036e-05 -0.00196375)
(-0.00389683 -0.000610956 -0.00196375)
(-0.00373154 -0.00127835 -0.00196375)
(-0.00345286 -0.0019069 -0.00196375)
(-0.00306927 -0.00247752 -0.00196375)
(-0.00259243 -0.00297285 -0.00196375)
(-0.00203681 -0.00337786 -0.00196375)
(-0.00141931 -0.00368023 -0.00196375)
(-0.000758683 -0.00387078 -0.00196375)
(-7.50033e-05 -0.00394372 -0.00196375)
(0.000610956 -0.00389683 -0.00196375)
(0.00127835 -0.00373154 -0.00196375)
(0.0019069 -0.00345286 -0.00196375)
(0.00247752 -0.00306927 -0.00196375)
(0.00297285 -0.00259243 -0.00196375)
(0.00337786 -0.00203681 -0.00196375)
(0.00368023 -0.00141931 -0.00196375)
(0.00387078 -0.000758683 -0.00196375)
(0.00394372 -7.50034e-05 -0.00196375)
(0.00389683 0.000610956 -0.00196375)
(0.00373154 0.00127835 -0.00196375)
(0.00345286 0.0019069 -0.00196375)
(0.00306927 0.00247752 -0.00196375)
(0.00259243 0.00297285 -0.00196375)
(0.00203681 0.00337786 -0.00196375)
(0.00141931 0.00368023 -0.00196375)
(0.000758683 0.00387078 -0.00196375)
(7.50036e-05 0.00394372 -0.00196375)
(-0.000610956 0.00389683 -0.00196375)
(-0.00127835 0.00373154 -0.00196375)
(-0.00190225 0.00346562 -0.00177198)
(-0.00247515 0.00308265 -0.00177198)
(-0.00297284 0.00260601 -0.00177199)
(-0.0033802 0.00205019 -0.00177199)
(-0.00368486 0.00143208 -0.00177198)
(-0.00387756 0.000770451 -0.00177198)
(-0.00395244 8.54138e-05 -0.00177198)
(-0.00390722 -0.000602217 -0.00177198)
(-0.00374329 -0.00127155 -0.00177198)
(-0.00346562 -0.00190225 -0.00177198)
(-0.00308265 -0.00247515 -0.00177198)
(-0.00260601 -0.00297284 -0.00177199)
(-0.00205019 -0.0033802 -0.00177199)
(-0.00143208 -0.00368486 -0.00177199)
(-0.00077045 -0.00387756 -0.00177198)
(-8.54136e-05 -0.00395244 -0.00177198)
(0.000602217 -0.00390722 -0.00177198)
(0.00127155 -0.00374329 -0.00177198)
(0.00190225 -0.00346562 -0.00177198)
(0.00247515 -0.00308265 -0.00177198)
(0.00297284 -0.00260601 -0.00177199)
(0.00338021 -0.00205019 -0.00177199)
(0.00368486 -0.00143208 -0.00177199)
(0.00387756 -0.000770451 -0.00177198)
(0.00395244 -8.54137e-05 -0.00177198)
(0.00390722 0.000602217 -0.00177198)
(0.00374329 0.00127155 -0.00177198)
(0.00346562 0.00190225 -0.00177198)
(0.00308265 0.00247515 -0.00177198)
(0.00260601 0.00297284 -0.00177199)
(0.00205019 0.00338021 -0.00177199)
(0.00143208 0.00368486 -0.00177198)
(0.000770451 0.00387756 -0.00177198)
(8.54138e-05 0.00395244 -0.00177198)
(-0.000602217 0.00390722 -0.00177198)
(-0.00127155 0.00374329 -0.00177198)
(-0.00192347 0.00345025 -0.00158957)
(-0.00249338 0.00306383 -0.00158957)
(-0.00298752 0.00258431 -0.00158957)
(-0.0033909 0.00202627 -0.00158957)
(-0.00369124 0.00140666 -0.00158957)
(-0.00387943 0.000744316 -0.00158957)
(-0.00394974 5.93522e-05 -0.00158957)
(-0.00390004 -0.000627414 -0.00158957)
(-0.00373184 -0.00129512 -0.00158957)
(-0.00345025 -0.00192347 -0.00158957)
(-0.00306383 -0.00249338 -0.00158957)
(-0.00258431 -0.00298752 -0.00158957)
(-0.00202627 -0.0033909 -0.00158957)
(-0.00140666 -0.00369124 -0.00158957)
(-0.000744315 -0.00387943 -0.00158957)
(-5.9352e-05 -0.00394974 -0.00158957)
(0.000627414 -0.00390004 -0.00158957)
(0.00129512 -0.00373184 -0.00158957)
(0.00192347 -0.00345025 -0.00158957)
(0.00249338 -0.00306383 -0.00158957)
(0.00298753 -0.00258431 -0.00158957)
(0.0033909 -0.00202627 -0.00158957)
(0.00369124 -0.00140666 -0.00158957)
(0.00387943 -0.000744315 -0.00158957)
(0.00394974 -5.9352e-05 -0.00158957)
(0.00390004 0.000627414 -0.00158957)
(0.00373184 0.00129512 -0.00158957)
(0.00345025 0.00192347 -0.00158957)
(0.00306383 0.00249338 -0.00158957)
(0.00258431 0.00298753 -0.00158957)
(0.00202627 0.0033909 -0.00158957)
(0.00140666 0.00369124 -0.00158957)
(0.000744316 0.00387943 -0.00158957)
(5.93522e-05 0.00394974 -0.00158957)
(-0.000627414 0.00390004 -0.00158957)
(-0.00129512 0.00373184 -0.00158957)
(-0.002184 0.00384665 -0.00236419)
(-0.00281879 0.00340896 -0.00236419)
(-0.00336792 0.00286769 -0.00236419)
(-0.00381473 0.00223929 -0.00236419)
(-0.00414562 0.00154285 -0.00236419)
(-0.00435055 0.000799535 -0.00236419)
(-0.0044233 3.19222e-05 -0.00236419)
(-0.00436164 -0.000736661 -0.00236419)