/*--------------------------------*- C++ -*----------------------------------*\
| =========                 |                                                 |
| \\      /  F ield         | OpenFOAM: The Open Source CFD Toolbox           |
|  \\    /   O peration     | Version:  2312                                  |
|   \\  /    A nd           | Website:  www.openfoam.com                      |
|    \\/     M anipulation  |                                                 |
\*---------------------------------------------------------------------------*/
FoamFile
{
    version     2.0;
    format      ascii;
    arch        "LSB;label=32;scalar=64";
    class       volVectorField;
    location    "0.4";
    object      D_0_0;
}
// * * * * * * * * * * * * * * * * * * * * * * * * * * * * * * * * * * * * * //

dimensions      [0 1 0 0 0 0 0];

internalField   nonuniform List<vector> 
1620
(
(-0.000203271 0.000250797 -9.41009e-05)
(-0.000243733 0.000211689 -9.4101e-05)
(-0.00027679 0.000166149 -9.41009e-05)
(-0.000301437 0.000115562 -9.41009e-05)
(-0.000316924 6.14624e-05 -9.4101e-05)
(-0.000322782 5.49514e-06 -9.41011e-05)
(-0.000318832 -5.0639e-05 -9.41007e-05)
(-0.000305195 -0.000105234 -9.41006e-05)
(-0.000282285 -0.000156632 -9.41008e-05)
(-0.000250797 -0.000203271 -9.41009e-05)
(-0.000211689 -0.000243733 -9.4101e-05)
(-0.000166149 -0.00027679 -9.41009e-05)
(-0.000115562 -0.000301437 -9.41009e-05)
(-6.14624e-05 -0.000316924 -9.4101e-05)
(-5.49512e-06 -0.000322782 -9.41011e-05)
(5.0639e-05 -0.000318832 -9.41007e-05)
(0.000105234 -0.000305195 -9.41006e-05)
(0.000156632 -0.000282285 -9.41008e-05)
(0.000203271 -0.000250797 -9.41009e-05)
(0.000243733 -0.000211689 -9.4101e-05)
(0.00027679 -0.000166149 -9.41009e-05)
(0.000301437 -0.000115562 -9.41009e-05)
(0.000316924 -6.14624e-05 -9.4101e-05)
(0.000322782 -5.49512e-06 -9.41011e-05)
(0.000318832 5.0639e-05 -9.41007e-05)
(0.000305195 0.000105234 -9.41006e-05)
(0.000282285 0.000156632 -9.41008e-05)
(0.000250797 0.000203271 -9.41009e-05)
(0.000211689 0.000243733 -9.4101e-05)
(0.000166149 0.00027679 -9.41009e-05)
(0.000115562 0.000301437 -9.41008e-05)
(6.14624e-05 0.000316924 -9.4101e-05)
(5.49515e-06 0.000322782 -9.41011e-05)
(-5.0639e-05 0.000318832 -9.41007e-05)
(-0.000105234 0.000305195 -9.41006e-05)
(-0.000156632 0.000282285 -9.41008e-05)
(-0.00015131 0.000298692 -6.42047e-05)
(-0.000200879 0.00026788 -6.42048e-05)
(-0.000244344 0.000228927 -6.42047e-05)
(-0.000280384 0.00018302 -6.42047e-05)
(-0.000307906 0.000131551 -6.42048e-05)
(-0.000326072 7.60852e-05 -6.42047e-05)
(-0.00033433 1.83076e-05 -6.42046e-05)
(-0.00033243 -4.00263e-05 -6.42046e-05)
(-0.000320429 -9.71443e-05 -6.42047e-05)
(-0.000298692 -0.00015131 -6.42047e-05)
(-0.00026788 -0.000200879 -6.42048e-05)
(-0.000228927 -0.000244344 -6.42047e-05)
(-0.00018302 -0.000280384 -6.42047e-05)
(-0.000131551 -0.000307906 -6.42048e-05)
(-7.60852e-05 -0.000326072 -6.42048e-05)
(-1.83076e-05 -0.00033433 -6.42047e-05)
(4.00263e-05 -0.00033243 -6.42046e-05)
(9.71443e-05 -0.000320429 -6.42047e-05)
(0.00015131 -0.000298692 -6.42047e-05)
(0.000200879 -0.00026788 -6.42048e-05)
(0.000244344 -0.000228927 -6.42047e-05)
(0.000280384 -0.00018302 -6.42047e-05)
(0.000307906 -0.000131551 -6.42048e-05)
(0.000326072 -7.60852e-05 -6.42047e-05)
(0.00033433 -1.83076e-05 -6.42046e-05)
(0.00033243 4.00263e-05 -6.42046e-05)
(0.000320429 9.71443e-05 -6.42047e-05)
(0.000298692 0.00015131 -6.42047e-05)
(0.00026788 0.000200879 -6.42048e-05)
(0.000228927 0.000244344 -6.42047e-05)
(0.00018302 0.000280384 -6.42047e-05)
(0.000131551 0.000307906 -6.42048e-05)
(7.60852e-05 0.000326072 -6.42047e-05)
(1.83076e-05 0.00033433 -6.42046e-05)
(-4.00263e-05 0.00033243 -6.42046e-05)
(-9.71443e-05 0.000320429 -6.42047e-05)
(-0.000117846 0.000346989 -4.17365e-05)
(-0.00017631 0.000321254 -4.17365e-05)
(-0.000229416 0.000285758 -4.17367e-05)
(-0.000275552 0.000241579 -4.17366e-05)
(-0.000313316 0.00019006 -4.17367e-05)
(-0.000341559 0.000132765 -4.17366e-05)
(-0.000359425 7.14372e-05 -4.17367e-05)
(-0.000366369 7.93837e-06 -4.17367e-05)
(-0.000362181 -5.58015e-05 -4.17366e-05)
(-0.000346989 -0.000117846 -4.17365e-05)
(-0.000321254 -0.00017631 -4.17365e-05)
(-0.000285758 -0.000229416 -4.17367e-05)
(-0.000241579 -0.000275552 -4.17366e-05)
(-0.00019006 -0.000313316 -4.17367e-05)
(-0.000132765 -0.000341559 -4.17366e-05)
(-7.14372e-05 -0.000359425 -4.17367e-05)
(-7.93836e-06 -0.000366369 -4.17367e-05)
(5.58015e-05 -0.000362181 -4.17366e-05)
(0.000117846 -0.000346989 -4.17365e-05)
(0.00017631 -0.000321254 -4.17365e-05)
(0.000229416 -0.000285758 -4.17367e-05)
(0.000275552 -0.000241579 -4.17366e-05)
(0.000313316 -0.00019006 -4.17367e-05)
(0.000341559 -0.000132765 -4.17366e-05)
(0.000359425 -7.14371e-05 -4.17367e-05)
(0.000366369 -7.93836e-06 -4.17367e-05)
(0.000362181 5.58015e-05 -4.17366e-05)
(0.000346989 0.000117846 -4.17365e-05)
(0.000321254 0.00017631 -4.17365e-05)
(0.000285758 0.000229416 -4.17367e-05)
(0.000241579 0.000275552 -4.17366e-05)
(0.00019006 0.000313316 -4.17367e-05)
(0.000132765 0.000341559 -4.17366e-05)
(7.14372e-05 0.000359425 -4.17367e-05)
(7.93837e-06 0.000366369 -4.17367e-05)
(-5.58015e-05 0.000362181 -4.17366e-05)
(-0.000498345 0.000807334 -0.000283701)
(-0.000630966 0.000708532 -0.000283701)
(-0.000744416 0.000588202 -0.000283701)
(-0.000835246 0.00045 -0.0002837)
(-0.000900699 0.000298125 -0.0002837)
(-0.000938784 0.000137191 -0.0002837)
(-0.000948345 -2.79117e-05 -0.000283701)
(-0.000929091 -0.000192166 -0.000283701)
(-0.000881606 -0.000350582 -0.000283701)
(-0.000807334 -0.000498345 -0.000283701)
(-0.000708532 -0.000630966 -0.000283701)
(-0.000588202 -0.000744416 -0.000283701)
(-0.00045 -0.000835246 -0.0002837)
(-0.000298125 -0.000900699 -0.0002837)
(-0.000137191 -0.000938784 -0.000283701)
(2.79117e-05 -0.000948345 -0.000283701)
(0.000192166 -0.000929091 -0.000283701)
(0.000350582 -0.000881606 -0.000283701)
(0.000498345 -0.000807334 -0.000283701)
(0.000630966 -0.000708532 -0.000283701)
(0.000744416 -0.000588202 -0.000283701)
(0.000835246 -0.00045 -0.0002837)
(0.000900699 -0.000298125 -0.0002837)
(0.000938784 -0.000137191 -0.0002837)
(0.000948345 2.79117e-05 -0.000283701)
(0.000929091 0.000192166 -0.000283701)
(0.000881606 0.000350582 -0.000283701)
(0.000807334 0.000498345 -0.000283701)
(0.000708532 0.000630966 -0.000283701)
(0.000588202 0.000744416 -0.000283701)
(0.00045 0.000835246 -0.0002837)
(0.000298125 0.000900699 -0.0002837)
(0.000137191 0.000938784 -0.0002837)
(-2.79117e-05 0.000948345 -0.000283701)
(-0.000192166 0.000929091 -0.000283701)
(-0.000350582 0.000881606 -0.000283701)
(-0.000454777 0.000892689 -0.000214578)
(-0.000602881 0.000800155 -0.000214579)
(-0.000732668 0.000683311 -0.000214579)
(-0.000840192 0.000545704 -0.000214579)
(-0.000922189 0.000391515 -0.000214578)
(-0.000976165 0.000225431 -0.000214579)
(-0.00100048 5.24967e-05 -0.000214579)
(-0.000994396 -0.000122032 -0.000214578)
(-0.000958098 -0.000292854 -0.000214578)
(-0.000892689 -0.000454777 -0.000214578)
(-0.000800155 -0.000602881 -0.000214579)
(-0.000683311 -0.000732668 -0.000214579)
(-0.000545704 -0.000840192 -0.000214579)
(-0.000391515 -0.000922189 -0.000214578)
(-0.00022543 -0.000976165 -0.000214579)
(-5.24966e-05 -0.00100048 -0.000214579)
(0.000122033 -0.000994396 -0.000214578)
(0.000292854 -0.000958098 -0.000214578)
(0.000454777 -0.000892689 -0.000214578)
(0.000602881 -0.000800155 -0.000214579)
(0.000732668 -0.000683311 -0.000214579)
(0.000840192 -0.000545704 -0.000214579)
(0.000922189 -0.000391515 -0.000214578)
(0.000976165 -0.00022543 -0.000214579)
(0.00100048 -5.24966e-05 -0.000214579)
(0.000994396 0.000122033 -0.000214578)
(0.000958098 0.000292854 -0.000214578)
(0.000892689 0.000454777 -0.000214578)
(0.000800155 0.000602881 -0.000214579)
(0.000683311 0.000732668 -0.000214579)
(0.000545704 0.000840193 -0.000214579)
(0.000391515 0.000922189 -0.000214578)
(0.000225431 0.000976165 -0.000214578)
(5.24967e-05 0.00100048 -0.000214578)
(-0.000122032 0.000994396 -0.000214578)
(-0.000292854 0.000958098 -0.000214578)
(-0.000434118 0.000974117 -0.000148005)
(-0.000596676 0.000883934 -0.000148005)
(-0.000741104 0.000766894 -0.000148005)
(-0.000863014 0.000626552 -0.000148005)
(-0.000958703 0.000467172 -0.000148005)
(-0.00102526 0.000293597 -0.000148005)
(-0.00106067 0.000111102 -0.000148005)
(-0.00106385 -7.47692e-05 -0.000148005)
(-0.0010347 -0.000258369 -0.000148006)
(-0.000974117 -0.000434118 -0.000148005)
(-0.000883934 -0.000596676 -0.000148005)
(-0.000766894 -0.000741104 -0.000148005)
(-0.000626552 -0.000863014 -0.000148005)
(-0.000467172 -0.000958703 -0.000148005)
(-0.000293597 -0.00102526 -0.000148005)
(-0.000111102 -0.00106067 -0.000148006)
(7.47692e-05 -0.00106385 -0.000148005)
(0.000258369 -0.0010347 -0.000148006)
(0.000434118 -0.000974117 -0.000148005)
(0.000596676 -0.000883934 -0.000148005)
(0.000741104 -0.000766894 -0.000148005)
(0.000863014 -0.000626552 -0.000148005)
(0.000958703 -0.000467172 -0.000148005)
(0.00102526 -0.000293597 -0.000148005)
(0.00106067 -0.000111102 -0.000148005)
(0.00106385 7.47692e-05 -0.000148005)
(0.0010347 0.000258369 -0.000148005)
(0.000974117 0.000434118 -0.000148005)
(0.000883934 0.000596676 -0.000148005)
(0.000766894 0.000741104 -0.000148005)
(0.000626552 0.000863014 -0.000148005)
(0.000467172 0.000958703 -0.000148005)
(0.000293597 0.00102526 -0.000148005)
(0.000111102 0.00106067 -0.000148005)
(-7.47692e-05 0.00106385 -0.000148005)
(-0.000258369 0.0010347 -0.000148005)
(-0.00078702 0.00136436 -0.000534453)
(-0.00101198 0.00120696 -0.000534453)
(-0.00120619 0.0010129 -0.000534453)
(-0.00136376 0.000788056 -0.000534452)
(-0.00147988 0.000539271 -0.000534452)
(-0.00155104 0.0002741 -0.000534452)
(-0.00157508 5.99053e-07 -0.000534452)
(-0.00155125 -0.000272919 -0.000534452)
(-0.00148029 -0.000538145 -0.000534452)
(-0.00136436 -0.00078702 -0.000534453)
(-0.00120696 -0.00101198 -0.000534453)
(-0.0010129 -0.00120619 -0.000534453)
(-0.000788056 -0.00136376 -0.000534452)
(-0.000539271 -0.00147988 -0.000534452)
(-0.0002741 -0.00155104 -0.000534452)
(-5.98978e-07 -0.00157508 -0.000534452)
(0.000272919 -0.00155125 -0.000534452)
(0.000538146 -0.00148029 -0.000534452)
(0.00078702 -0.00136436 -0.000534453)
(0.00101198 -0.00120696 -0.000534453)
(0.00120619 -0.0010129 -0.000534453)
(0.00136376 -0.000788056 -0.000534452)
(0.00147988 -0.000539271 -0.000534452)
(0.00155104 -0.0002741 -0.000534452)
(0.00157508 -5.98996e-07 -0.000534452)
(0.00155125 0.000272919 -0.000534452)
(0.00148029 0.000538146 -0.000534452)
(0.00136436 0.00078702 -0.000534453)
(0.00120696 0.00101198 -0.000534453)
(0.0010129 0.00120619 -0.000534453)
(0.000788056 0.00136376 -0.000534452)
(0.000539271 0.00147988 -0.000534451)
(0.0002741 0.00155104 -0.000534451)
(5.99076e-07 0.00157508 -0.000534452)
(-0.000272919 0.00155125 -0.000534452)
(-0.000538145 0.00148029 -0.000534452)
(-0.000753181 0.00147612 -0.000430829)
(-0.000998063 0.0013229 -0.00043083)
(-0.00121262 0.00112949 -0.000430829)
(-0.00139033 0.000901764 -0.000430829)
(-0.0015258 0.000646636 -0.000430829)
(-0.0016149 0.00037186 -0.000430829)
(-0.00165494 8.5785e-05 -0.000430829)
(-0.0016447 -0.000202897 -0.000430829)
(-0.00158448 -0.000485413 -0.000430829)
(-0.00147612 -0.000753181 -0.000430829)
(-0.0013229 -0.000998063 -0.00043083)
(-0.00112949 -0.00121262 -0.00043083)
(-0.000901764 -0.00139033 -0.000430829)
(-0.000646636 -0.0015258 -0.000430829)
(-0.00037186 -0.0016149 -0.000430829)
(-8.57849e-05 -0.00165494 -0.000430829)
(0.000202897 -0.0016447 -0.000430829)
(0.000485413 -0.00158448 -0.000430829)
(0.000753181 -0.00147612 -0.000430829)
(0.000998063 -0.0013229 -0.00043083)
(0.00121262 -0.00112949 -0.00043083)
(0.00139033 -0.000901764 -0.000430829)
(0.0015258 -0.000646636 -0.000430829)
(0.0016149 -0.00037186 -0.000430829)
(0.00165494 -8.57849e-05 -0.000430829)
(0.0016447 0.000202897 -0.000430829)
(0.00158448 0.000485413 -0.000430829)
(0.00147612 0.000753181 -0.000430829)
(0.0013229 0.000998063 -0.000430829)
(0.00112949 0.00121262 -0.000430829)
(0.000901764 0.00139033 -0.000430829)
(0.000646636 0.0015258 -0.000430829)
(0.00037186 0.0016149 -0.000430829)
(8.5785e-05 0.00165494 -0.000430829)
(-0.000202897 0.0016447 -0.000430829)
(-0.000485413 0.00158448 -0.000430829)
(-0.000744717 0.0015788 -0.000330298)
(-0.00100756 0.0014255 -0.000330298)
(-0.00123979 0.00122888 -0.000330298)
(-0.00143434 0.000994925 -0.000330298)
(-0.00158532 0.000730738 -0.000330298)
(-0.00168813 0.000444348 -0.000330298)
(-0.00173964 0.000144457 -0.000330298)
(-0.0017383 -0.000159823 -0.000330298)
(-0.00168413 -0.000459247 -0.000330298)
(-0.0015788 -0.000744717 -0.000330298)
(-0.0014255 -0.00100756 -0.000330298)
(-0.00122888 -0.00123979 -0.000330298)
(-0.000994925 -0.00143434 -0.000330298)
(-0.000730738 -0.00158532 -0.000330298)
(-0.000444348 -0.00168813 -0.000330298)
(-0.000144457 -0.00173964 -0.000330298)
(0.000159823 -0.0017383 -0.000330298)
(0.000459247 -0.00168413 -0.000330298)
(0.000744718 -0.0015788 -0.000330298)
(0.00100756 -0.0014255 -0.000330298)
(0.00123979 -0.00122888 -0.000330298)
(0.00143434 -0.000994925 -0.000330298)
(0.00158532 -0.000730738 -0.000330298)
(0.00168813 -0.000444348 -0.000330298)
(0.00173964 -0.000144457 -0.000330298)
(0.0017383 0.000159823 -0.000330298)
(0.00168413 0.000459247 -0.000330298)
(0.0015788 0.000744718 -0.000330298)
(0.0014255 0.00100756 -0.000330298)
(0.00122888 0.00123979 -0.000330298)
(0.000994925 0.00143434 -0.000330298)
(0.000730738 0.00158532 -0.000330298)
(0.000444348 0.00168813 -0.000330298)
(0.000144457 0.00173964 -0.000330298)
(-0.000159823 0.0017383 -0.000330298)
(-0.000459247 0.00168413 -0.000330298)
(-0.00106496 0.00191797 -0.000831853)
(-0.00138183 0.0017039 -0.000831853)
(-0.00165672 0.00143806 -0.000831853)
(-0.00188126 0.00112853 -0.000831853)
(-0.00204865 0.000784707 -0.000831853)
(-0.00215379 0.000417041 -0.000831852)
(-0.00219349 3.67038e-05 -0.000831852)
(-0.00216653 -0.000344749 -0.000831852)
(-0.00207375 -0.000715726 -0.000831852)
(-0.00191797 -0.00106496 -0.000831853)
(-0.0017039 -0.00138183 -0.000831853)
(-0.00143806 -0.00165672 -0.000831853)
(-0.00112853 -0.00188126 -0.000831853)
(-0.000784707 -0.00204865 -0.000831853)
(-0.000417041 -0.00215379 -0.000831852)
(-3.67037e-05 -0.00219349 -0.000831852)
(0.000344749 -0.00216653 -0.000831852)
(0.000715727 -0.00207375 -0.000831852)
(0.00106496 -0.00191797 -0.000831853)
(0.00138183 -0.0017039 -0.000831853)
(0.00165672 -0.00143806 -0.000831853)
(0.00188126 -0.00112853 -0.000831853)
(0.00204865 -0.000784707 -0.000831853)
(0.00215379 -0.000417041 -0.000831852)
(0.00219349 -3.67038e-05 -0.000831852)
(0.00216653 0.000344749 -0.000831852)
(0.00207375 0.000715727 -0.000831852)
(0.00191797 0.00106496 -0.000831853)
(0.0017039 0.00138183 -0.000831853)
(0.00143806 0.00165672 -0.000831853)
(0.00112853 0.00188126 -0.000831853)
(0.000784707 0.00204865 -0.000831853)
(0.000417041 0.00215379 -0.000831852)
(3.67039e-05 0.00219349 -0.000831852)
(-0.000344749 0.00216653 -0.000831852)
(-0.000715726 0.00207375 -0.000831852)
(-0.0010436 0.00203629 -0.000700096)
(-0.00138134 0.00182413 -0.000700096)
(-0.00167711 0.00155655 -0.000700096)
(-0.00192193 0.00124168 -0.000700096)
(-0.00210834 0.000889076 -0.000700096)
(-0.0022307 0.000509459 -0.000700096)
(-0.00228528 0.000114362 -0.000700096)
(-0.00227042 -0.00028421 -0.000700096)
(-0.00218657 -0.000674146 -0.000700096)
(-0.00203629 -0.0010436 -0.000700096)
(-0.00182413 -0.00138134 -0.000700096)
(-0.00155655 -0.00167711 -0.000700096)
(-0.00124168 -0.00192193 -0.000700096)
(-0.000889076 -0.00210834 -0.000700096)
(-0.000509458 -0.0022307 -0.000700096)
(-0.000114362 -0.00228528 -0.000700096)
(0.00028421 -0.00227042 -0.000700096)
(0.000674147 -0.00218657 -0.000700096)
(0.0010436 -0.00203629 -0.000700096)
(0.00138134 -0.00182413 -0.000700096)
(0.00167711 -0.00155655 -0.000700096)
(0.00192193 -0.00124168 -0.000700096)
(0.00210834 -0.000889076 -0.000700096)
(0.0022307 -0.000509458 -0.000700096)
(0.00228528 -0.000114362 -0.000700096)
(0.00227042 0.00028421 -0.000700096)
(0.00218657 0.000674147 -0.000700096)
(0.00203629 0.0010436 -0.000700096)
(0.00182413 0.00138134 -0.000700096)
(0.00155655 0.00167711 -0.000700096)
(0.00124168 0.00192193 -0.000700096)
(0.000889076 0.00210834 -0.000700096)
(0.000509459 0.0022307 -0.000700096)
(0.000114362 0.00228528 -0.000700096)
(-0.00028421 0.00227042 -0.000700096)
(-0.000674146 0.00218657 -0.000700096)
(-0.00104963 0.0021395 -0.000572936)
(-0.0014052 0.00192473 -0.000572936)
(-0.00171808 0.00165148 -0.000572936)
(-0.00197875 0.00132805 -0.000572936)
(-0.0021793 0.000964264 -0.000572936)
(-0.00231364 0.000571183 -0.000572936)
(-0.00237767 0.000160746 -0.000572936)
(-0.00236946 -0.000254574 -0.000572936)
(-0.00228926 -0.00066216 -0.000572936)
(-0.0021395 -0.00104963 -0.000572936)
(-0.00192473 -0.0014052 -0.000572936)
(-0.00165148 -0.00171808 -0.000572936)
(-0.00132805 -0.00197875 -0.000572936)
(-0.000964264 -0.0021793 -0.000572936)
(-0.000571183 -0.00231364 -0.000572936)
(-0.000160746 -0.00237767 -0.000572936)
(0.000254574 -0.00236946 -0.000572936)
(0.00066216 -0.00228926 -0.000572936)
(0.00104963 -0.0021395 -0.000572936)
(0.0014052 -0.00192473 -0.000572936)
(0.00171808 -0.00165148 -0.000572936)
(0.00197875 -0.00132805 -0.000572936)
(0.0021793 -0.000964264 -0.000572936)
(0.00231364 -0.000571183 -0.000572936)
(0.00237767 -0.000160746 -0.000572936)
(0.00236946 0.000254574 -0.000572936)
(0.00228926 0.00066216 -0.000572936)
(0.0021395 0.00104963 -0.000572936)
(0.00192473 0.0014052 -0.000572936)
(0.00165148 0.00171808 -0.000572936)
(0.00132805 0.00197875 -0.000572936)
(0.000964264 0.0021793 -0.000572936)
(0.000571183 0.00231364 -0.000572936)
(0.000160746 0.00237767 -0.000572936)
(-0.000254574 0.00236946 -0.000572936)
(-0.00066216 0.00228926 -0.000572936)
(-0.00133808 0.00245899 -0.00116563)
(-0.00174475 0.00218928 -0.00116563)
(-0.0020984 0.00185305 -0.00116563)
(-0.0023883 0.00146051 -0.00116563)
(-0.00260563 0.0010236 -0.00116563)
(-0.00274379 0.000555584 -0.00116563)
(-0.00279859 7.06892e-05 -0.00116563)
(-0.00276834 -0.000416355 -0.00116563)
(-0.00265399 -0.000890747 -0.00116563)
(-0.00245899 -0.00133808 -0.00116563)
(-0.00218928 -0.00174475 -0.00116563)
(-0.00185305 -0.0020984 -0.00116563)
(-0.00146051 -0.0023883 -0.00116563)
(-0.0010236 -0.00260563 -0.00116563)
(-0.000555584 -0.00274379 -0.00116563)
(-7.0689e-05 -0.00279859 -0.00116563)
(0.000416355 -0.00276834 -0.00116563)
(0.000890748 -0.00265399 -0.00116563)
(0.00133808 -0.00245899 -0.00116563)
(0.00174475 -0.00218928 -0.00116563)
(0.0020984 -0.00185305 -0.00116563)
(0.0023883 -0.00146051 -0.00116563)
(0.00260563 -0.0010236 -0.00116563)
(0.00274379 -0.000555584 -0.00116563)
(0.00279859 -7.06891e-05 -0.00116563)
(0.00276834 0.000416355 -0.00116563)
(0.00265399 0.000890748 -0.00116563)
(0.00245899 0.00133808 -0.00116563)
(0.00218928 0.00174475 -0.00116563)
(0.00185305 0.0020984 -0.00116563)
(0.00146051 0.0023883 -0.00116563)
(0.0010236 0.00260563 -0.00116563)
(0.000555584 0.00274379 -0.00116563)
(7.06892e-05 0.00279859 -0.00116563)
(-0.000416355 0.00276834 -0.00116563)
(-0.000890747 0.00265399 -0.00116563)
(-0.00132767 0.00256007 -0.00101239)
(-0.00175205 0.00229062 -0.00101239)
(-0.0021232 0.00195158 -0.00101239)
(-0.00242983 0.00155325 -0.00101239)
(-0.00266263 0.00110771 -0.00101239)
(-0.00281453 0.000628523 -0.00101239)
(-0.00288092 0.000130235 -0.00101239)
(-0.00285976 -0.000372009 -0.00101239)
(-0.00275172 -0.000862951 -0.00101239)
(-0.00256007 -0.00132767 -0.00101239)
(-0.00229062 -0.00175205 -0.00101239)
(-0.00195158 -0.0021232 -0.00101239)
(-0.00155325 -0.00242983 -0.00101239)
(-0.00110771 -0.00266263 -0.00101239)
(-0.000628523 -0.00281453 -0.00101239)
(-0.000130235 -0.00288092 -0.00101239)
(0.000372009 -0.00285976 -0.00101239)
(0.000862951 -0.00275172 -0.00101239)
(0.00132767 -0.00256007 -0.00101239)
(0.00175205 -0.00229062 -0.00101239)
(0.0021232 -0.00195158 -0.00101239)
(0.00242983 -0.00155325 -0.00101239)
(0.00266263 -0.00110771 -0.00101239)
(0.00281453 -0.000628523 -0.00101239)
(0.00288092 -0.000130235 -0.00101239)
(0.00285976 0.000372009 -0.00101239)
(0.00275172 0.000862951 -0.00101239)
(0.00256007 0.00132767 -0.00101239)
(0.00229062 0.00175205 -0.00101239)
(0.00195158 0.0021232 -0.00101239)
(0.00155325 0.00242983 -0.00101239)
(0.00110771 0.00266263 -0.00101239)
(0.000628523 0.00281453 -0.00101239)
(0.000130235 0.00288092 -0.00101239)
(-0.000372009 0.00285976 -0.00101239)
(-0.000862951 0.00275172 -0.00101239)
(-0.0013454 0.00264045 -0.000865295)
(-0.00178347 0.00236671 -0.000865295)
(-0.00216735 0.00202106 -0.000865295)
(-0.00248537 0.001614 -0.000865294)
(-0.00272788 0.0011579 -0.000865295)
(-0.0028875 0.000666614 -0.000865294)
(-0.00295939 0.000155077 -0.000865295)
(-0.00294136 -0.000361173 -0.000865295)
(-0.00283396 -0.000866448 -0.000865295)
(-0.00264045 -0.0013454 -0.000865295)
(-0.00236671 -0.00178347 -0.000865295)
(-0.00202106 -0.00216735 -0.000865295)
(-0.001614 -0.00248537 -0.000865294)
(-0.0011579 -0.00272788 -0.000865295)
(-0.000666614 -0.0028875 -0.000865294)
(-0.000155077 -0.00295939 -0.000865295)
(0.000361173 -0.00294136 -0.000865295)
(0.000866448 -0.00283396 -0.000865295)
(0.0013454 -0.00264045 -0.000865295)
(0.00178347 -0.00236671 -0.000865295)
(0.00216735 -0.00202106 -0.000865295)
(0.00248537 -0.001614 -0.000865294)
(0.00272788 -0.0011579 -0.000865295)
(0.0028875 -0.000666614 -0.000865294)
(0.00295939 -0.000155077 -0.000865295)
(0.00294136 0.000361173 -0.000865295)
(0.00283396 0.000866448 -0.000865295)
(0.00264045 0.0013454 -0.000865295)
(0.00236671 0.00178347 -0.000865295)
(0.00202106 0.00216735 -0.000865295)
(0.001614 0.00248537 -0.000865294)
(0.0011579 0.00272788 -0.000865295)
(0.000666614 0.0028875 -0.000865294)
(0.000155077 0.00295939 -0.000865295)
(-0.000361173 0.00294136 -0.000865295)
(-0.000866448 0.00283396 -0.000865295)
(-0.00161242 0.00297203 -0.00152707)
(-0.00210402 0.00264688 -0.00152707)
(-0.00253168 0.00224131 -0.00152707)
(-0.00288241 0.00176764 -0.00152707)
(-0.00314557 0.00124026 -0.00152707)
(-0.00331315 0.000675194 -0.00152707)
(-0.00338006 8.96135e-05 -0.00152707)
(-0.00334427 -0.00049869 -0.00152707)
(-0.00320687 -0.00107184 -0.00152707)
(-0.00297203 -0.00161242 -0.00152707)
(-0.00264688 -0.00210402 -0.00152707)
(-0.00224131 -0.00253168 -0.00152707)
(-0.00176764 -0.00288241 -0.00152707)
(-0.00124026 -0.00314557 -0.00152707)
(-0.000675194 -0.00331315 -0.00152707)
(-8.96133e-05 -0.00338006 -0.00152707)
(0.00049869 -0.00334427 -0.00152707)
(0.00107184 -0.00320687 -0.00152707)
(0.00161243 -0.00297203 -0.00152707)
(0.00210402 -0.00264688 -0.00152707)
(0.00253168 -0.00224131 -0.00152707)
(0.00288241 -0.00176764 -0.00152707)
(0.00314557 -0.00124026 -0.00152707)
(0.00331315 -0.000675194 -0.00152707)
(0.00338006 -8.96134e-05 -0.00152707)
(0.00334427 0.00049869 -0.00152707)
(0.00320687 0.00107184 -0.00152707)
(0.00297203 0.00161243 -0.00152707)
(0.00264688 0.00210402 -0.00152707)
(0.00224131 0.00253168 -0.00152707)
(0.00176764 0.00288241 -0.00152707)
(0.00124026 0.00314557 -0.00152707)
(0.000675194 0.00331315 -0.00152707)
(8.96135e-05 0.00338006 -0.00152707)
(-0.00049869 0.00334427 -0.00152707)
(-0.00107184 0.00320687 -0.00152707)
(-0.00160731 0.00303316 -0.00135715)
(-0.00210959 0.00270798 -0.00135715)
(-0.00254778 0.00230051 -0.00135715)
(-0.00290855 0.00182314 -0.00135715)
(-0.00318095 0.00129038 -0.00135715)
(-0.0033567 0.000718411 -0.00135715)
(-0.00343045 0.000124613 -0.00135715)
(-0.00339997 -0.000472972 -0.00135715)
(-0.00326619 -0.00105619 -0.00135715)
(-0.00303316 -0.00160731 -0.00135715)
(-0.00270798 -0.00210959 -0.00135715)
(-0.00230051 -0.00254778 -0.00135715)
(-0.00182314 -0.00290855 -0.00135715)
(-0.00129038 -0.00318095 -0.00135715)
(-0.000718411 -0.0033567 -0.00135715)
(-0.000124612 -0.00343045 -0.00135715)
(0.000472972 -0.00339997 -0.00135715)
(0.00105619 -0.00326619 -0.00135715)
(0.00160731 -0.00303316 -0.00135715)
(0.00210959 -0.00270798 -0.00135715)
(0.00254778 -0.00230051 -0.00135715)
(0.00290855 -0.00182314 -0.00135715)
(0.00318095 -0.00129038 -0.00135715)
(0.0033567 -0.000718411 -0.00135715)
(0.00343045 -0.000124613 -0.00135715)
(0.00339997 0.000472972 -0.00135715)
(0.00326619 0.00105619 -0.00135715)
(0.00303316 0.00160731 -0.00135715)
(0.00270798 0.00210959 -0.00135715)
(0.00230051 0.00254778 -0.00135715)
(0.00182314 0.00290855 -0.00135715)
(0.00129038 0.00318095 -0.00135715)
(0.000718411 0.0033567 -0.00135715)
(0.000124613 0.00343045 -0.00135715)
(-0.000472972 0.00339997 -0.00135715)
(-0.00105619 0.00326619 -0.00135715)
(-0.00162941 0.00306954 -0.00119472)
(-0.00213767 0.00273997 -0.00119472)
(-0.00258099 0.00232714 -0.00119472)
(-0.00294588 0.0018436 -0.00119472)
(-0.00322126 0.00130404 -0.00119472)
(-0.00339877 0.000724867 -0.00119472)
(-0.00347301 0.000123666 -0.00119472)
(-0.00344172 -0.000481295 -0.00119472)
(-0.00330585 -0.00107163 -0.00119472)
(-0.00306954 -0.00162941 -0.00119472)
(-0.00273997 -0.00213767 -0.00119472)
(-0.00232714 -0.00258099 -0.00119472)
(-0.0018436 -0.00294588 -0.00119472)
(-0.00130404 -0.00322126 -0.00119472)
(-0.000724867 -0.00339877 -0.00119472)
(-0.000123665 -0.00347301 -0.00119472)
(0.000481295 -0.00344172 -0.00119472)
(0.00107163 -0.00330585 -0.00119472)
(0.00162941 -0.00306954 -0.00119472)
(0.00213767 -0.00273997 -0.00119472)
(0.00258099 -0.00232714 -0.00119472)
(0.00294588 -0.0018436 -0.00119472)
(0.00322126 -0.00130404 -0.00119472)
(0.00339877 -0.000724867 -0.00119472)
(0.00347301 -0.000123665 -0.00119472)
(0.00344172 0.000481295 -0.00119472)
(0.00330585 0.00107163 -0.00119472)
(0.00306954 0.00162941 -0.00119472)
(0.00273997 0.00213767 -0.00119472)
(0.00232714 0.00258099 -0.00119472)
(0.0018436 0.00294588 -0.00119472)
(0.00130404 0.00322126 -0.00119472)
(0.000724867 0.00339877 -0.00119472)
(0.000123666 0.00347301 -0.00119472)
(-0.000481295 0.00344172 -0.00119472)
(-0.00107163 0.00330585 -0.00119472)
(-0.00188942 0.00343562 -0.00190821)
(-0.0024573 0.00305533 -0.00190821)
(-0.00295052 0.00258221 -0.00190822)
(-0.00335409 0.00203063 -0.00190822)
(-0.00365575 0.00141734 -0.00190822)
(-0.00384633 0.000760996 -0.00190822)
(-0.00392004 8.15261e-05 -0.00190822)
(-0.00387465 -0.000600422 -0.00190821)
(-0.00371152 -0.00126413 -0.00190821)
(-0.00343562 -0.00188942 -0.00190821)
(-0.00305533 -0.0024573 -0.00190822)
(-0.00258221 -0.00295052 -0.00190822)
(-0.00203063 -0.00335409 -0.00190822)
(-0.00141734 -0.00365575 -0.00190822)
(-0.000760996 -0.00384633 -0.00190822)
(-8.15259e-05 -0.00392004 -0.00190822)
(0.000600422 -0.00387465 -0.00190821)
(0.00126413 -0.00371152 -0.00190821)
(0.00188942 -0.00343562 -0.00190821)
(0.0024573 -0.00305533 -0.00190822)
(0.00295052 -0.00258221 -0.00190822)
(0.0033541 -0.00203063 -0.00190822)
(0.00365575 -0.00141734 -0.00190822)
(0.00384633 -0.000760996 -0.00190822)
(0.00392004 -8.1526e-05 -0.00190822)
(0.00387465 0.000600422 -0.00190821)
(0.00371152 0.00126413 -0.00190821)
(0.00343562 0.00188942 -0.00190821)
(0.00305533 0.0024573 -0.00190821)
(0.00258221 0.00295052 -0.00190822)
(0.00203063 0.00335409 -0.00190822)
(0.00141734 0.00365575 -0.00190822)
(0.000760996 0.00384633 -0.00190822)
(8.15262e-05 0.00392004 -0.00190821)
(-0.000600422 0.00387465 -0.00190821)
(-0.00126413 0.00371152 -0.00190821)
(-0.00188118 0.00343864 -0.00172391)
(-0.00244971 0.00305973 -0.00172391)
(-0.00294381 0.00258786 -0.00172391)
(-0.00334847 0.00203736 -0.00172391)
(-0.00365138 0.00142495 -0.00172391)
(-0.00384335 0.000769246 -0.00172391)
(-0.00391854 9.01681e-05 -0.00172391)
(-0.00387466 -0.000591648 -0.00172391)
(-0.00371306 -0.00125549 -0.00172391)
(-0.00343864 -0.00188118 -0.00172391)
(-0.00305973 -0.00244971 -0.00172391)
(-0.00258786 -0.00294381 -0.00172391)
(-0.00203735 -0.00334847 -0.00172391)
(-0.00142495 -0.00365138 -0.00172391)
(-0.000769246 -0.00384335 -0.00172391)
(-9.01679e-05 -0.00391854 -0.00172391)
(0.000591648 -0.00387466 -0.00172391)
(0.00125549 -0.00371306 -0.00172391)
(0.00188118 -0.00343864 -0.00172391)
(0.00244971 -0.00305973 -0.00172391)
(0.00294381 -0.00258786 -0.00172391)
(0.00334847 -0.00203735 -0.00172391)
(0.00365138 -0.00142495 -0.00172391)
(0.00384335 -0.000769246 -0.00172391)
(0.00391854 -9.0168e-05 -0.00172391)
(0.00387466 0.000591648 -0.00172391)
(0.00371306 0.00125549 -0.00172391)
(0.00343864 0.00188118 -0.00172391)
(0.00305973 0.00244971 -0.00172391)
(0.00258786 0.00294381 -0.00172391)
(0.00203736 0.00334847 -0.00172391)
(0.00142495 0.00365138 -0.00172391)
(0.000769246 0.00384335 -0.00172391)
(9.01682e-05 0.00391854 -0.00172391)
(-0.000591648 0.00387466 -0.00172391)
(-0.00125549 0.00371306 -0.00172391)
(-0.00189747 0.00341538 -0.00154834)
(-0.00246172 0.003034 -0.00154834)
(-0.00295116 0.00256043 -0.00154834)
(-0.00335094 0.00200907 -0.00154834)
(-0.00364891 0.00139666 -0.00154834)
(-0.003836 0.000741818 -0.00154834)
(-0.00390654 6.4434e-05 -0.00154834)
(-0.00385838 -0.000614908 -0.00154834)
(-0.00369298 -0.00127557 -0.00154834)
(-0.00341538 -0.00189747 -0.00154834)
(-0.003034 -0.00246172 -0.00154834)
(-0.00256043 -0.00295116 -0.00154834)
(-0.00200907 -0.00335094 -0.00154834)
(-0.00139666 -0.00364891 -0.00154834)
(-0.000741818 -0.003836 -0.00154834)
(-6.44338e-05 -0.00390654 -0.00154834)
(0.000614908 -0.00385838 -0.00154834)
(0.00127557 -0.00369298 -0.00154834)
(0.00189747 -0.00341538 -0.00154834)
(0.00246172 -0.003034 -0.00154834)
(0.00295116 -0.00256043 -0.00154834)
(0.00335094 -0.00200907 -0.00154834)
(0.00364891 -0.00139666 -0.00154834)
(0.003836 -0.000741818 -0.00154834)
(0.00390654 -6.44339e-05 -0.00154834)
(0.00385838 0.000614908 -0.00154834)
(0.00369298 0.00127557 -0.00154834)
(0.00341538 0.00189747 -0.00154834)
(0.003034 0.00246172 -0.00154834)
(0.00256043 0.00295116 -0.00154834)
(0.00200907 0.00335094 -0.00154834)
(0.00139666 0.00364891 -0.00154834)
(0.000741818 0.003836 -0.00154834)
(6.4434e-05 0.00390654 -0.00154834)
(-0.000614908 0.00385838 -0.00154834)
(-0.00127557 0.00369298 -0.00154834)
(-0.00216153 0.00382313 -0.00229919)
(-0.00279257 0.00338971 -0.00229919)
(-0.00333876 0.00285328 -0.00229919)
(-0.00378351 0.00223017 -0.00229919)
(-0.00411329 0.00153929 -0.00229919)
(-0.00431809 0.000801635 -0.00229919)