/*--------------------------------*- C++ -*----------------------------------*\
| =========                 |                                                 |
| \\      /  F ield         | OpenFOAM: The Open Source CFD Toolbox           |
|  \\    /   O peration     | Version:  2312                                  |
|   \\  /    A nd           | Website:  www.openfoam.com                      |
|    \\/     M anipulation  |                                                 |
\*---------------------------------------------------------------------------*/
FoamFile
{
    version     2.0;
    format      ascii;
    arch        "LSB;label=32;scalar=64";
    class       volVectorField;
    location    "0.4";
    object      D_0_0_0;
}
// * * * * * * * * * * * * * * * * * * * * * * * * * * * * * * * * * * * * * //

dimensions      [0 1 0 0 0 0 0];

internalField   nonuniform List<vector> 
1620
(
(-0.000201483 0.000251831 -9.20931e-05)
(-0.000242152 0.000213017 -9.20933e-05)
(-0.000275464 0.000167732 -9.20932e-05)
(-0.000300405 0.00011735 -9.20931e-05)
(-0.000316219 6.3403e-05 -9.20933e-05)
(-0.000322425 7.52873e-06 -9.20933e-05)
(-0.000318834 -4.85742e-05 -9.2093e-05)
(-0.000305555 -0.000103201 -9.20929e-05)
(-0.000282992 -0.000154692 -9.20931e-05)
(-0.000251831 -0.000201483 -9.20931e-05)
(-0.000213017 -0.000242152 -9.20933e-05)
(-0.000167732 -0.000275464 -9.20932e-05)
(-0.00011735 -0.000300405 -9.20931e-05)
(-6.3403e-05 -0.000316219 -9.20933e-05)
(-7.52872e-06 -0.000322425 -9.20934e-05)
(4.85743e-05 -0.000318834 -9.2093e-05)
(0.000103201 -0.000305555 -9.20929e-05)
(0.000154692 -0.000282992 -9.20931e-05)
(0.000201483 -0.000251831 -9.20931e-05)
(0.000242152 -0.000213017 -9.20933e-05)
(0.000275464 -0.000167732 -9.20932e-05)
(0.000300405 -0.00011735 -9.20931e-05)
(0.000316219 -6.3403e-05 -9.20933e-05)
(0.000322425 -7.52872e-06 -9.20933e-05)
(0.000318834 4.85742e-05 -9.2093e-05)
(0.000305555 0.000103201 -9.20929e-05)
(0.000282992 0.000154692 -9.20931e-05)
(0.000251831 0.000201483 -9.20931e-05)
(0.000213017 0.000242152 -9.20933e-05)
(0.000167732 0.000275464 -9.20932e-05)
(0.00011735 0.000300405 -9.20931e-05)
(6.34031e-05 0.000316219 -9.20933e-05)
(7.52875e-06 0.000322425 -9.20933e-05)
(-4.85742e-05 0.000318834 -9.2093e-05)
(-0.000103201 0.000305555 -9.20929e-05)
(-0.000154692 0.000282992 -9.20931e-05)
(-0.000150531 0.000297863 -6.29104e-05)
(-0.000199968 0.000267198 -6.29104e-05)
(-0.000243328 0.000228415 -6.29104e-05)
(-0.000279295 0.000182691 -6.29104e-05)
(-0.000306777 0.000131417 -6.29105e-05)
(-0.000324936 7.61491e-05 -6.29104e-05)
(-0.000333222 1.85678e-05 -6.29103e-05)
(-0.000331385 -3.95777e-05 -6.29103e-05)
(-0.000319477 -9.65209e-05 -6.29104e-05)
(-0.000297863 -0.000150531 -6.29104e-05)
(-0.000267198 -0.000199968 -6.29104e-05)
(-0.000228415 -0.000243328 -6.29104e-05)
(-0.000182691 -0.000279295 -6.29104e-05)
(-0.000131417 -0.000306777 -6.29105e-05)
(-7.61491e-05 -0.000324936 -6.29104e-05)
(-1.85678e-05 -0.000333222 -6.29103e-05)
(3.95777e-05 -0.000331385 -6.29103e-05)
(9.65209e-05 -0.000319477 -6.29104e-05)
(0.000150531 -0.000297863 -6.29104e-05)
(0.000199968 -0.000267198 -6.29104e-05)
(0.000243328 -0.000228415 -6.29104e-05)
(0.000279295 -0.000182691 -6.29104e-05)
(0.000306777 -0.000131417 -6.29105e-05)
(0.000324936 -7.61491e-05 -6.29104e-05)
(0.000333222 -1.85678e-05 -6.29103e-05)
(0.000331385 3.95777e-05 -6.29103e-05)
(0.000319477 9.65209e-05 -6.29104e-05)
(0.000297863 0.000150531 -6.29104e-05)
(0.000267198 0.000199968 -6.29104e-05)
(0.000228415 0.000243328 -6.29104e-05)
(0.000182691 0.000279295 -6.29104e-05)
(0.000131417 0.000306777 -6.29105e-05)
(7.61491e-05 0.000324936 -6.29104e-05)
(1.85678e-05 0.000333222 -6.29103e-05)
(-3.95777e-05 0.000331385 -6.29103e-05)
(-9.65209e-05 0.000319477 -6.29104e-05)
(-0.000117615 0.000344246 -4.09851e-05)
(-0.000175605 0.000318593 -4.09851e-05)
(-0.000228261 0.00028326 -4.09852e-05)
(-0.00027398 0.000239319 -4.09851e-05)
(-0.000311376 0.000188107 -4.09852e-05)
(-0.000339309 0.000131179 -4.09851e-05)
(-0.000356934 7.02659e-05 -4.09852e-05)
(-0.000363713 7.21753e-06 -4.09853e-05)
(-0.00035944 -5.60501e-05 -4.09851e-05)
(-0.000344246 -0.000117615 -4.09851e-05)
(-0.000318593 -0.000175605 -4.09851e-05)
(-0.000283259 -0.000228261 -4.09852e-05)
(-0.000239319 -0.00027398 -4.09851e-05)
(-0.000188107 -0.000311376 -4.09852e-05)
(-0.000131179 -0.000339309 -4.09851e-05)
(-7.02659e-05 -0.000356934 -4.09852e-05)
(-7.21753e-06 -0.000363713 -4.09853e-05)
(5.60501e-05 -0.00035944 -4.09851e-05)
(0.000117615 -0.000344246 -4.09851e-05)
(0.000175605 -0.000318593 -4.09851e-05)
(0.000228261 -0.000283259 -4.09852e-05)
(0.00027398 -0.000239319 -4.09851e-05)
(0.000311376 -0.000188107 -4.09852e-05)
(0.000339309 -0.000131179 -4.09851e-05)
(0.000356934 -7.02659e-05 -4.09852e-05)
(0.000363713 -7.21752e-06 -4.09853e-05)
(0.00035944 5.60501e-05 -4.09851e-05)
(0.000344246 0.000117615 -4.09851e-05)
(0.000318593 0.000175606 -4.09851e-05)
(0.00028326 0.000228261 -4.09852e-05)
(0.000239319 0.00027398 -4.09851e-05)
(0.000188107 0.000311376 -4.09852e-05)
(0.000131179 0.000339309 -4.09851e-05)
(7.02659e-05 0.000356934 -4.09852e-05)
(7.21753e-06 0.000363713 -4.09853e-05)
(-5.60501e-05 0.00035944 -4.09851e-05)
(-0.000495176 0.000808814 -0.000277992)
(-0.000628103 0.00071054 -0.000277992)
(-0.000741945 0.000590677 -0.000277992)
(-0.000833242 0.000452866 -0.000277991)
(-0.000899223 0.000301295 -0.000277991)
(-0.000937881 0.00014057 -0.000277991)
(-0.000948043 -2.44276e-05 -0.000277991)
(-0.000929398 -0.000188682 -0.000277991)
(-0.000882513 -0.000347204 -0.000277991)
(-0.000808814 -0.000495176 -0.000277992)
(-0.00071054 -0.000628103 -0.000277992)
(-0.000590677 -0.000741945 -0.000277992)
(-0.000452866 -0.000833242 -0.000277991)
(-0.000301295 -0.000899223 -0.000277991)
(-0.00014057 -0.000937881 -0.000277991)
(2.44276e-05 -0.000948043 -0.000277991)
(0.000188682 -0.000929398 -0.000277991)
(0.000347204 -0.000882513 -0.000277992)
(0.000495176 -0.000808814 -0.000277992)
(0.000628103 -0.00071054 -0.000277992)
(0.000741945 -0.000590677 -0.000277992)
(0.000833242 -0.000452866 -0.000277991)
(0.000899223 -0.000301295 -0.000277991)
(0.000937881 -0.00014057 -0.000277991)
(0.000948043 2.44276e-05 -0.000277991)
(0.000929398 0.000188682 -0.000277991)
(0.000882513 0.000347204 -0.000277991)
(0.000808814 0.000495176 -0.000277992)
(0.00071054 0.000628103 -0.000277992)
(0.000590677 0.000741945 -0.000277992)
(0.000452866 0.000833242 -0.000277991)
(0.000301295 0.000899223 -0.000277991)
(0.00014057 0.000937881 -0.000277991)
(-2.44276e-05 0.000948043 -0.000277991)
(-0.000188682 0.000929398 -0.000277991)
(-0.000347204 0.000882513 -0.000277991)
(-0.00045231 0.000890085 -0.000210611)
(-0.0006 0.00079802 -0.000210611)
(-0.00072946 0.000681708 -0.000210611)
(-0.000836755 0.000544682 -0.000210611)
(-0.000918626 0.000391106 -0.000210611)
(-0.000972585 0.000225646 -0.000210611)
(-0.000996992 5.33306e-05 -0.000210611)
(-0.000991106 -0.000120606 -0.000210611)
(-0.000955106 -0.000290877 -0.000210611)
(-0.000890085 -0.00045231 -0.000210611)
(-0.00079802 -0.0006 -0.000210611)
(-0.000681707 -0.00072946 -0.000210611)
(-0.000544682 -0.000836755 -0.000210611)
(-0.000391106 -0.000918626 -0.000210611)
(-0.000225646 -0.000972585 -0.000210611)
(-5.33305e-05 -0.000996992 -0.000210611)
(0.000120606 -0.000991106 -0.000210611)
(0.000290877 -0.000955106 -0.000210611)
(0.00045231 -0.000890085 -0.000210611)
(0.0006 -0.00079802 -0.000210611)
(0.00072946 -0.000681707 -0.000210611)
(0.000836755 -0.000544682 -0.000210611)
(0.000918626 -0.000391106 -0.000210611)
(0.000972585 -0.000225646 -0.000210611)
(0.000996992 -5.33306e-05 -0.000210611)
(0.000991106 0.000120606 -0.000210611)
(0.000955106 0.000290877 -0.000210611)
(0.000890085 0.00045231 -0.000210611)
(0.00079802 0.0006 -0.000210611)
(0.000681708 0.00072946 -0.000210611)
(0.000544682 0.000836755 -0.000210611)
(0.000391106 0.000918626 -0.000210611)
(0.000225646 0.000972585 -0.000210611)
(5.33306e-05 0.000996992 -0.000210611)
(-0.000120606 0.000991106 -0.000210611)
(-0.000290877 0.000955106 -0.000210611)
(-0.000431774 0.000967485 -0.000145726)
(-0.000593216 0.00087781 -0.000145726)
(-0.000736633 0.000761464 -0.000145726)
(-0.000857668 0.00062198 -0.000145726)
(-0.000952644 0.000463598 -0.000145726)
(-0.00101867 0.00029113 -0.000145726)
(-0.00105375 0.000109816 -0.000145726)
(-0.00105681 -7.48346e-05 -0.000145726)
(-0.00102776 -0.000257212 -0.000145726)
(-0.000967485 -0.000431774 -0.000145726)
(-0.00087781 -0.000593216 -0.000145726)
(-0.000761464 -0.000736633 -0.000145726)
(-0.00062198 -0.000857668 -0.000145726)
(-0.000463598 -0.000952644 -0.000145726)
(-0.00029113 -0.00101867 -0.000145726)
(-0.000109816 -0.00105375 -0.000145726)
(7.48346e-05 -0.00105681 -0.000145726)
(0.000257212 -0.00102776 -0.000145726)
(0.000431774 -0.000967485 -0.000145726)
(0.000593216 -0.00087781 -0.000145726)
(0.000736633 -0.000761464 -0.000145726)
(0.000857668 -0.00062198 -0.000145726)
(0.000952644 -0.000463598 -0.000145726)
(0.00101867 -0.00029113 -0.000145726)
(0.00105375 -0.000109816 -0.000145726)
(0.00105681 7.48346e-05 -0.000145726)
(0.00102776 0.000257212 -0.000145726)
(0.000967485 0.000431774 -0.000145726)
(0.00087781 0.000593216 -0.000145726)
(0.000761464 0.000736633 -0.000145726)
(0.00062198 0.000857668 -0.000145726)
(0.000463598 0.000952644 -0.000145726)
(0.00029113 0.00101867 -0.000145726)
(0.000109816 0.00105375 -0.000145726)
(-7.48346e-05 0.00105681 -0.000145726)
(-0.000257212 0.00102776 -0.000145726)
(-0.000782768 0.00136552 -0.000524318)
(-0.001008 0.00120884 -0.000524318)
(-0.0012026 0.00101544 -0.000524318)
(-0.00136066 0.000791188 -0.000524318)
(-0.00147737 0.000542893 -0.000524317)
(-0.0015492 0.000278103 -0.000524317)
(-0.00157396 4.86165e-06 -0.000524317)
(-0.00155089 -0.000268527 -0.000524317)
(-0.0014807 -0.000533757 -0.000524318)
(-0.00136552 -0.000782768 -0.000524318)
(-0.00120884 -0.001008 -0.000524318)
(-0.00101544 -0.0012026 -0.000524318)
(-0.000791188 -0.00136066 -0.000524318)
(-0.000542893 -0.00147737 -0.000524317)
(-0.000278103 -0.0015492 -0.000524317)
(-4.86158e-06 -0.00157396 -0.000524317)
(0.000268527 -0.00155089 -0.000524318)
(0.000533757 -0.0014807 -0.000524318)
(0.000782768 -0.00136552 -0.000524318)
(0.001008 -0.00120884 -0.000524318)
(0.0012026 -0.00101544 -0.000524318)
(0.00136066 -0.000791188 -0.000524318)
(0.00147737 -0.000542893 -0.000524317)
(0.0015492 -0.000278103 -0.000524317)
(0.00157396 -4.86161e-06 -0.000524317)
(0.00155089 0.000268527 -0.000524317)
(0.0014807 0.000533757 -0.000524318)
(0.00136552 0.000782768 -0.000524318)
(0.00120884 0.001008 -0.000524318)
(0.00101544 0.0012026 -0.000524318)
(0.000791188 0.00136066 -0.000524318)
(0.000542893 0.00147737 -0.000524317)
(0.000278103 0.0015492 -0.000524317)
(4.86168e-06 0.00157396 -0.000524317)
(-0.000268527 0.00155089 -0.000524317)
(-0.000533757 0.0014807 -0.000524318)
(-0.000749043 0.00147152 -0.000423318)
(-0.00099319 0.00131909 -0.000423319)
(-0.00120716 0.00112659 -0.000423319)
(-0.00138445 0.000899852 -0.000423318)
(-0.00151967 0.000645774 -0.000423318)
(-0.00160872 0.000372074 -0.000423318)
(-0.00164889 8.70697e-05 -0.000423318)
(-0.00163896 -0.000200581 -0.000423318)
(-0.00157923 -0.000482136 -0.000423318)
(-0.00147152 -0.000749043 -0.000423318)
(-0.00131909 -0.00099319 -0.000423319)
(-0.00112659 -0.00120716 -0.000423319)
(-0.000899852 -0.00138445 -0.000423318)
(-0.000645774 -0.00151967 -0.000423318)
(-0.000372074 -0.00160872 -0.000423318)
(-8.70696e-05 -0.00164889 -0.000423318)
(0.000200581 -0.00163896 -0.000423318)
(0.000482137 -0.00157923 -0.000423318)
(0.000749043 -0.00147152 -0.000423318)
(0.00099319 -0.00131909 -0.000423319)
(0.00120716 -0.00112659 -0.000423319)
(0.00138445 -0.000899852 -0.000423318)
(0.00151967 -0.000645774 -0.000423318)
(0.00160872 -0.000372074 -0.000423318)
(0.00164889 -8.70696e-05 -0.000423318)
(0.00163896 0.000200581 -0.000423318)
(0.00157923 0.000482137 -0.000423318)
(0.00147152 0.000749043 -0.000423318)
(0.00131909 0.00099319 -0.000423319)
(0.00112659 0.00120716 -0.000423318)
(0.000899852 0.00138445 -0.000423318)
(0.000645774 0.00151967 -0.000423318)
(0.000372074 0.00160872 -0.000423318)
(8.70697e-05 0.00164889 -0.000423318)
(-0.000200581 0.00163896 -0.000423318)
(-0.000482136 0.00157923 -0.000423318)
(-0.000739991 0.00156868 -0.000325326)
(-0.00100115 0.00141635 -0.000325326)
(-0.00123188 0.00122098 -0.000325327)
(-0.00142519 0.000988521 -0.000325327)
(-0.00157519 0.000726021 -0.000325327)
(-0.00167733 0.000441461 -0.000325327)
(-0.00172851 0.000143488 -0.000325327)
(-0.00172717 -0.000158844 -0.000325327)
(-0.00167334 -0.00045635 -0.000325327)
(-0.00156868 -0.000739991 -0.000325326)
(-0.00141635 -0.00100115 -0.000325326)
(-0.00122098 -0.00123188 -0.000325327)
(-0.000988521 -0.00142519 -0.000325327)
(-0.000726021 -0.00157519 -0.000325327)
(-0.000441461 -0.00167733 -0.000325327)
(-0.000143488 -0.00172851 -0.000325327)
(0.000158844 -0.00172717 -0.000325327)
(0.00045635 -0.00167334 -0.000325327)
(0.000739991 -0.00156868 -0.000325326)
(0.00100115 -0.00141635 -0.000325326)
(0.00123188 -0.00122098 -0.000325327)
(0.00142519 -0.000988521 -0.000325327)
(0.00157519 -0.000726021 -0.000325327)
(0.00167733 -0.000441461 -0.000325327)
(0.00172851 -0.000143488 -0.000325327)
(0.00172717 0.000158844 -0.000325327)
(0.00167334 0.00045635 -0.000325327)
(0.00156868 0.000739991 -0.000325326)
(0.00141635 0.00100115 -0.000325326)
(0.00122098 0.00123188 -0.000325326)
(0.000988521 0.00142519 -0.000325327)
(0.000726021 0.00157519 -0.000325327)
(0.000441461 0.00167733 -0.000325327)
(0.000143488 0.00172851 -0.000325327)
(-0.000158844 0.00172717 -0.000325326)
(-0.00045635 0.00167334 -0.000325326)
(-0.00105982 0.00191771 -0.000817023)
(-0.00137672 0.00170454 -0.000817023)
(-0.0016518 0.00143958 -0.000817023)
(-0.00187668 0.00113088 -0.000817023)
(-0.00204455 0.000787816 -0.000817023)
(-0.00215029 0.000420815 -0.000817022)
(-0.0021907 4.10279e-05 -0.000817022)
(-0.00216454 -0.000340006 -0.000817022)
(-0.00207261 -0.000710709 -0.000817022)
(-0.00191771 -0.00105982 -0.000817023)
(-0.00170454 -0.00137672 -0.000817023)
(-0.00143958 -0.0016518 -0.000817023)
(-0.00113088 -0.00187668 -0.000817023)
(-0.000787816 -0.00204455 -0.000817023)
(-0.000420815 -0.00215029 -0.000817022)
(-4.10278e-05 -0.0021907 -0.000817022)
(0.000340007 -0.00216454 -0.000817022)
(0.000710709 -0.00207261 -0.000817022)
(0.00105982 -0.00191771 -0.000817023)
(0.00137672 -0.00170454 -0.000817023)
(0.0016518 -0.00143958 -0.000817023)
(0.00187668 -0.00113088 -0.000817023)
(0.00204455 -0.000787816 -0.000817023)
(0.00215029 -0.000420815 -0.000817022)
(0.0021907 -4.10278e-05 -0.000817022)
(0.00216454 0.000340006 -0.000817022)
(0.00207261 0.000710709 -0.000817022)
(0.00191771 0.00105982 -0.000817023)
(0.00170454 0.00137672 -0.000817023)
(0.00143958 0.0016518 -0.000817023)
(0.00113088 0.00187668 -0.000817023)
(0.000787816 0.00204455 -0.000817023)
(0.000420815 0.00215029 -0.000817022)
(4.10279e-05 0.0021907 -0.000817022)
(-0.000340006 0.00216454 -0.000817022)
(-0.000710709 0.00207261 -0.000817022)
(-0.00103784 0.00202947 -0.000688488)
(-0.00137449 0.00181842 -0.000688488)
(-0.00166937 0.00155211 -0.000688488)
(-0.00191353 0.00123865 -0.000688488)
(-0.00209955 0.000887552 -0.000688488)
(-0.00222177 0.000509486 -0.000688487)
(-0.00227649 0.000115939 -0.000688487)
(-0.00226204 -0.000281131 -0.000688487)
(-0.00217885 -0.000669659 -0.000688488)
(-0.00202947 -0.00103784 -0.000688488)
(-0.00181842 -0.00137449 -0.000688488)
(-0.00155211 -0.00166937 -0.000688488)
(-0.00123865 -0.00191353 -0.000688488)
(-0.000887552 -0.00209955 -0.000688488)
(-0.000509485 -0.00222177 -0.000688487)
(-0.000115939 -0.00227649 -0.000688487)
(0.000281131 -0.00226204 -0.000688487)
(0.000669659 -0.00217885 -0.000688488)
(0.00103784 -0.00202947 -0.000688488)
(0.00137449 -0.00181842 -0.000688488)
(0.00166937 -0.00155211 -0.000688488)
(0.00191353 -0.00123865 -0.000688488)
(0.00209955 -0.000887552 -0.000688488)
(0.00222177 -0.000509485 -0.000688487)
(0.00227649 -0.000115939 -0.000688487)
(0.00226204 0.000281131 -0.000688487)
(0.00217885 0.000669659 -0.000688488)
(0.00202947 0.00103784 -0.000688488)
(0.00181842 0.00137449 -0.000688488)
(0.00155211 0.00166937 -0.000688488)
(0.00123865 0.00191353 -0.000688488)
(0.000887552 0.00209955 -0.000688488)
(0.000509486 0.00222177 -0.000688487)
(0.000115939 0.00227649 -0.000688487)
(-0.000281131 0.00226204 -0.000688487)
(-0.000669659 0.00217885 -0.000688488)
(-0.00104246 0.00212656 -0.000564403)
(-0.00139589 0.00191323 -0.000564404)
(-0.00170692 0.00164177 -0.000564403)
(-0.00196608 0.00132043 -0.000564403)
(-0.0021655 0.000958963 -0.000564403)
(-0.00229912 0.00056836 -0.000564403)
(-0.00236289 0.000160487 -0.000564404)
(-0.00235486 -0.000252262 -0.000564404)
(-0.00227528 -0.000657346 -0.000564403)
(-0.00212656 -0.00104246 -0.000564403)
(-0.00191323 -0.00139589 -0.000564404)
(-0.00164177 -0.00170692 -0.000564404)
(-0.00132043 -0.00196608 -0.000564403)
(-0.000958963 -0.0021655 -0.000564403)
(-0.00056836 -0.00229912 -0.000564403)
(-0.000160487 -0.00236289 -0.000564404)
(0.000252262 -0.00235486 -0.000564404)
(0.000657346 -0.00227528 -0.000564403)
(0.00104246 -0.00212656 -0.000564403)
(0.00139589 -0.00191323 -0.000564404)
(0.00170692 -0.00164177 -0.000564403)
(0.00196608 -0.00132043 -0.000564403)
(0.0021655 -0.000958963 -0.000564403)
(0.00229912 -0.00056836 -0.000564403)
(0.00236289 -0.000160487 -0.000564404)
(0.00235486 0.000252262 -0.000564404)
(0.00227528 0.000657346 -0.000564403)
(0.00212656 0.00104246 -0.000564403)
(0.00191323 0.00139589 -0.000564404)
(0.00164177 0.00170692 -0.000564403)
(0.00132043 0.00196608 -0.000564403)
(0.000958963 0.0021655 -0.000564403)
(0.00056836 0.00229912 -0.000564403)
(0.000160487 0.00236289 -0.000564404)
(-0.000252262 0.00235486 -0.000564404)
(-0.000657346 0.00227528 -0.000564403)
(-0.00133192 0.00245624 -0.00114609)
(-0.0017382 0.00218764 -0.00114609)
(-0.00209168 0.00185257 -0.00114609)
(-0.0023816 0.00146121 -0.00114609)
(-0.00259915 0.00102545 -0.00114609)
(-0.00273773 0.000558536 -0.00114609)
(-0.00279313 7.46489e-05 -0.00114609)
(-0.00276366 -0.000411508 -0.00114609)
(-0.00265021 -0.00088516 -0.00114609)
(-0.00245624 -0.00133192 -0.00114609)
(-0.00218764 -0.0017382 -0.00114609)
(-0.00185257 -0.00209168 -0.00114609)
(-0.00146121 -0.0023816 -0.00114609)
(-0.00102545 -0.00259915 -0.00114609)
(-0.000558536 -0.00273773 -0.00114609)
(-7.46488e-05 -0.00279313 -0.00114609)
(0.000411508 -0.00276366 -0.00114609)
(0.00088516 -0.00265021 -0.00114609)
(0.00133192 -0.00245624 -0.00114609)
(0.0017382 -0.00218764 -0.00114609)
(0.00209168 -0.00185257 -0.00114609)
(0.0023816 -0.00146121 -0.00114609)
(0.00259915 -0.00102545 -0.00114609)
(0.00273773 -0.000558536 -0.00114609)
(0.00279313 -7.46488e-05 -0.00114609)
(0.00276366 0.000411508 -0.00114609)
(0.00265021 0.00088516 -0.00114609)
(0.00245624 0.00133192 -0.00114609)
(0.00218764 0.0017382 -0.00114609)
(0.00185257 0.00209168 -0.00114609)
(0.00146121 0.0023816 -0.00114609)
(0.00102545 0.00259915 -0.00114609)
(0.000558536 0.00273773 -0.00114609)
(7.46489e-05 0.00279313 -0.00114609)
(-0.000411507 0.00276366 -0.00114609)
(-0.00088516 0.00265021 -0.00114609)
(-0.00132024 0.00255078 -0.000996399)
(-0.00174313 0.00228277 -0.000996399)
(-0.00211304 0.0019454 -0.000996399)
(-0.00241876 0.00154892 -0.000996399)
(-0.00265098 0.00110538 -0.000996399)
(-0.00280265 0.000628247 -0.000996399)
(-0.00286916 0.000132028 -0.000996399)
(-0.0028485 -0.000368203 -0.000996399)
(-0.00274129 -0.000857247 -0.000996399)
(-0.00255078 -0.00132024 -0.000996399)
(-0.00228277 -0.00174313 -0.000996399)
(-0.0019454 -0.00211304 -0.000996399)
(-0.00154892 -0.00241876 -0.000996399)
(-0.00110538 -0.00265098 -0.000996399)
(-0.000628247 -0.00280265 -0.000996399)
(-0.000132027 -0.00286916 -0.000996399)
(0.000368203 -0.0028485 -0.000996399)
(0.000857247 -0.00274129 -0.000996399)
(0.00132024 -0.00255078 -0.000996399)
(0.00174313 -0.00228277 -0.0009964)
(0.00211304 -0.0019454 -0.000996399)
(0.00241876 -0.00154892 -0.000996399)
(0.00265098 -0.00110538 -0.000996399)
(0.00280265 -0.000628247 -0.000996399)
(0.00286916 -0.000132027 -0.000996399)
(0.0028485 0.000368203 -0.000996399)
(0.00274129 0.000857247 -0.000996399)
(0.00255078 0.00132024 -0.000996399)
(0.00228277 0.00174313 -0.000996399)
(0.0019454 0.00211304 -0.000996399)
(0.00154892 0.00241876 -0.000996399)
(0.00110538 0.00265098 -0.000996399)
(0.000628247 0.00280265 -0.000996399)
(0.000132028 0.00286916 -0.000996399)
(-0.000368203 0.0028485 -0.000996399)
(-0.000857247 0.00274129 -0.000996399)
(-0.00133589 0.0026253 -0.000852639)
(-0.00177147 0.00235344 -0.000852639)
(-0.00215323 0.00201007 -0.000852639)
(-0.00246956 0.00160563 -0.000852638)
(-0.00271086 0.0011524 -0.000852639)
(-0.00286979 0.000664162 -0.000852639)
(-0.00294152 0.000155738 -0.000852639)
(-0.00292387 -0.000357417 -0.000852639)
(-0.00281739 -0.000859713 -0.000852639)
(-0.0026253 -0.00133589 -0.000852639)
(-0.00235344 -0.00177147 -0.000852639)
(-0.00201007 -0.00215323 -0.000852639)
(-0.00160563 -0.00246956 -0.000852639)
(-0.0011524 -0.00271086 -0.000852639)
(-0.000664162 -0.00286979 -0.000852639)
(-0.000155738 -0.00294152 -0.000852639)
(0.000357417 -0.00292387 -0.000852639)
(0.000859713 -0.00281739 -0.000852639)
(0.00133589 -0.0026253 -0.000852639)
(0.00177147 -0.00235344 -0.000852639)
(0.00215323 -0.00201007 -0.000852639)
(0.00246956 -0.00160563 -0.000852638)
(0.00271086 -0.0011524 -0.000852639)
(0.00286979 -0.000664162 -0.000852639)
(0.00294152 -0.000155738 -0.000852639)
(0.00292387 0.000357417 -0.000852639)
(0.00281739 0.000859713 -0.000852639)
(0.0026253 0.00133589 -0.000852639)
(0.00235344 0.00177147 -0.000852639)
(0.00201007 0.00215323 -0.000852639)
(0.00160563 0.00246956 -0.000852638)
(0.0011524 0.00271086 -0.000852639)
(0.000664162 0.00286979 -0.000852638)
(0.000155738 0.00294152 -0.000852639)
(-0.000357417 0.00292387 -0.000852639)
(-0.000859713 0.00281739 -0.000852639)
(-0.00160481 0.00296603 -0.00150284)
(-0.00209548 0.0026423 -0.00150284)
(-0.00252247 0.00223828 -0.00150284)
(-0.00287282 0.00176625 -0.00150284)
(-0.00313589 0.00124056 -0.00150284)
(-0.00330367 0.000677172 -0.00150284)
(-0.00337107 9.32083e-05 -0.00150284)
(-0.00333604 -0.000493588 -0.00150284)
(-0.00319965 -0.00106539 -0.00150284)
(-0.00296603 -0.00160481 -0.00150284)
(-0.0026423 -0.00209548 -0.00150284)
(-0.00223828 -0.00252247 -0.00150284)
(-0.00176625 -0.00287282 -0.00150284)
(-0.00124056 -0.00313589 -0.00150284)
(-0.000677171 -0.00330367 -0.00150284)
(-9.32082e-05 -0.00337107 -0.00150284)
(0.000493588 -0.00333604 -0.00150284)
(0.00106539 -0.00319965 -0.00150284)
(0.00160481 -0.00296603 -0.00150284)
(0.00209548 -0.0026423 -0.00150284)
(0.00252247 -0.00223828 -0.00150284)
(0.00287282 -0.00176625 -0.00150284)
(0.00313589 -0.00124056 -0.00150284)
(0.00330367 -0.000677171 -0.00150284)
(0.00337107 -9.32082e-05 -0.00150284)
(0.00333604 0.000493588 -0.00150284)
(0.00319965 0.00106539 -0.00150284)
(0.00296603 0.00160481 -0.00150284)
(0.0026423 0.00209548 -0.00150284)
(0.00223828 0.00252247 -0.00150284)
(0.00176625 0.00287282 -0.00150284)
(0.00124056 0.00313589 -0.00150284)
(0.000677172 0.00330367 -0.00150284)
(9.32084e-05 0.00337107 -0.00150284)
(-0.000493588 0.00333604 -0.00150284)
(-0.00106539 0.00319965 -0.00150284)
(-0.00159801 0.00302124 -0.00133664)
(-0.00209836 0.00269785 -0.00133664)
(-0.00253496 0.00229248 -0.00133664)
(-0.00289453 0.00181747 -0.00133664)
(-0.00316616 0.00128722 -0.00133664)
(-0.00334158 0.00071787 -0.00133664)
(-0.00341547 0.000126704 -0.00133664)
(-0.00338559 -0.000468312 -0.00133664)
(-0.00325283 -0.0010491 -0.00133664)
(-0.00302124 -0.00159801 -0.00133664)
(-0.00269785 -0.00209836 -0.00133664)
(-0.00229248 -0.00253496 -0.00133664)
(-0.00181747 -0.00289453 -0.00133664)
(-0.00128722 -0.00316616 -0.00133664)
(-0.000717869 -0.00334158 -0.00133664)
(-0.000126704 -0.00341547 -0.00133664)
(0.000468312 -0.00338559 -0.00133664)
(0.0010491 -0.00325283 -0.00133664)
(0.00159801 -0.00302124 -0.00133664)
(0.00209836 -0.00269785 -0.00133664)
(0.00253496 -0.00229248 -0.00133664)
(0.00289454 -0.00181747 -0.00133664)
(0.00316616 -0.00128722 -0.00133664)
(0.00334158 -0.000717869 -0.00133664)
(0.00341547 -0.000126704 -0.00133664)
(0.00338559 0.000468312 -0.00133664)
(0.00325283 0.0010491 -0.00133664)
(0.00302124 0.00159801 -0.00133664)
(0.00269785 0.00209836 -0.00133664)
(0.00229248 0.00253496 -0.00133664)
(0.00181747 0.00289454 -0.00133664)
(0.00128722 0.00316616 -0.00133664)
(0.00071787 0.00334158 -0.00133664)
(0.000126704 0.00341547 -0.00133664)
(-0.000468312 0.00338559 -0.00133664)
(-0.0010491 0.00325283 -0.00133664)
(-0.00161764 0.00305252 -0.00117767)
(-0.00212313 0.00272525 -0.00117767)
(-0.00256411 0.00231517 -0.00117767)
(-0.00292718 0.00183474 -0.00117767)
(-0.00320131 0.00129857 -0.00117767)
(-0.00337817 0.000722937 -0.00117767)
(-0.00345238 0.000125343 -0.00117767)
(-0.0034217 -0.000476062 -0.00117767)
(-0.00328705 -0.001063 -0.00117767)
(-0.00305252 -0.00161764 -0.00117767)
(-0.00272525 -0.00212313 -0.00117767)
(-0.00231516 -0.00256411 -0.00117767)
(-0.00183474 -0.00292718 -0.00117767)
(-0.00129857 -0.00320131 -0.00117767)
(-0.000722937 -0.00337817 -0.00117767)
(-0.000125342 -0.00345238 -0.00117767)
(0.000476063 -0.0034217 -0.00117767)
(0.001063 -0.00328705 -0.00117767)
(0.00161764 -0.00305252 -0.00117767)
(0.00212313 -0.00272525 -0.00117767)
(0.00256411 -0.00231516 -0.00117767)
(0.00292718 -0.00183474 -0.00117767)
(0.00320131 -0.00129857 -0.00117767)
(0.00337817 -0.000722937 -0.00117767)
(0.00345238 -0.000125342 -0.00117767)
(0.0034217 0.000476062 -0.00117767)
(0.00328705 0.001063 -0.00117767)
(0.00305252 0.00161764 -0.00117767)
(0.00272525 0.00212313 -0.00117767)
(0.00231517 0.00256411 -0.00117767)
(0.00183474 0.00292718 -0.00117767)
(0.00129857 0.00320131 -0.00117767)
(0.000722937 0.00337817 -0.00117767)
(0.000125343 0.00345238 -0.00117767)
(-0.000476062 0.0034217 -0.00117767)
(-0.001063 0.00328705 -0.00117767)
(-0.00187974 0.00342613 -0.00187919)
(-0.00244612 0.00304766 -0.00187919)
(-0.00293818 0.0025766 -0.00187919)
(-0.00334097 0.00202724 -0.00187919)
(-0.00364224 0.00141629 -0.00187919)
(-0.00383284 0.000762307 -0.00187919)
(-0.00390698 8.51605e-05 -0.00187919)
(-0.00386241 -0.000594574 -0.00187919)
(-0.00370049 -0.00125624 -0.00187919)
(-0.00342613 -0.00187974 -0.00187919)
(-0.00304766 -0.00244612 -0.00187919)
(-0.0025766 -0.00293818 -0.00187919)
(-0.00202724 -0.00334097 -0.00187919)
(-0.00141629 -0.00364224 -0.00187919)
(-0.000762307 -0.00383284 -0.00187919)
(-8.51603e-05 -0.00390698 -0.00187919)
(0.000594575 -0.00386241 -0.00187919)
(0.00125624 -0.00370049 -0.00187919)
(0.00187974 -0.00342613 -0.00187919)
(0.00244612 -0.00304766 -0.00187919)
(0.00293818 -0.0025766 -0.00187919)
(0.00334097 -0.00202724 -0.00187919)
(0.00364224 -0.00141629 -0.00187919)
(0.00383284 -0.000762307 -0.00187919)
(0.00390698 -8.51604e-05 -0.00187919)
(0.00386241 0.000594575 -0.00187919)
(0.00370049 0.00125624 -0.00187919)
(0.00342613 0.00187974 -0.00187919)
(0.00304766 0.00244612 -0.00187919)
(0.0025766 0.00293818 -0.00187919)
(0.00202724 0.00334097 -0.00187919)
(0.00141629 0.00364224 -0.00187919)
(0.000762307 0.00383284 -0.00187919)
(8.51605e-05 0.00390698 -0.00187919)
(-0.000594574 0.00386241 -0.00187919)
(-0.00125624 0.00370049 -0.00187919)
(-0.00186966 0.00342405 -0.00169877)
(-0.00243584 0.00304737 -0.00169877)
(-0.002928 0.00257809 -0.00169877)
(-0.0033312 0.00203048 -0.00169877)
(-0.00363318 0.00142118 -0.00169877)
(-0.00382477 0.000768692 -0.00169877)
(-0.00390014 9.2849e-05 -0.00169877)
(-0.00385701 -0.000585814 -0.00169877)
(-0.00369669 -0.00124668 -0.00169877)
(-0.00342405 -0.00186966 -0.00169877)
(-0.00304737 -0.00243584 -0.00169877)
(-0.00257809 -0.002928 -0.00169877)
(-0.00203048 -0.0033312 -0.00169877)
(-0.00142118 -0.00363318 -0.00169877)
(-0.000768692 -0.00382477 -0.00169877)
(-9.28488e-05 -0.00390014 -0.00169877)
(0.000585814 -0.00385701 -0.00169877)
(0.00124668 -0.00369669 -0.00169877)
(0.00186966 -0.00342405 -0.00169877)
(0.00243584 -0.00304737 -0.00169877)
(0.002928 -0.00257809 -0.00169877)
(0.0033312 -0.00203048 -0.00169877)
(0.00363318 -0.00142118 -0.00169877)
(0.00382477 -0.000768692 -0.00169877)
(0.00390014 -9.28489e-05 -0.00169877)
(0.00385702 0.000585814 -0.00169877)
(0.00369669 0.00124668 -0.00169877)
(0.00342405 0.00186966 -0.00169877)
(0.00304737 0.00243584 -0.00169877)
(0.00257809 0.002928 -0.00169877)
(0.00203048 0.0033312 -0.00169877)
(0.00142118 0.00363318 -0.00169877)
(0.000768692 0.00382477 -0.00169877)
(9.2849e-05 0.00390014 -0.00169877)
(-0.000585814 0.00385702 -0.00169877)
(-0.00124668 0.00369669 -0.00169877)
(-0.00188342 0.00339663 -0.00152679)
(-0.00244462 0.00301798 -0.00152679)
(-0.00293155 0.00254762 -0.00152679)
(-0.0033294 0.00199986 -0.00152679)
(-0.00362609 0.00139133 -0.00152679)
(-0.00381261 0.000740531 -0.00152679)
(-0.00388328 6.72279e-05 -0.00152679)
(-0.00383595 -0.000608117 -0.00152679)
(-0.00367208 -0.00126499 -0.00152679)
(-0.00339663 -0.00188342 -0.00152679)
(-0.00301798 -0.00244462 -0.00152679)
(-0.00254762 -0.00293155 -0.00152679)
(-0.00199986 -0.0033294 -0.00152679)
(-0.00139133 -0.00362609 -0.00152679)
(-0.00074053 -0.00381261 -0.00152679)
(-6.72277e-05 -0.00388328 -0.00152679)
(0.000608117 -0.00383595 -0.00152679)
(0.00126499 -0.00367208 -0.00152679)
(0.00188342 -0.00339663 -0.00152679)
(0.00244462 -0.00301798 -0.00152679)
(0.00293155 -0.00254762 -0.00152679)
(0.0033294 -0.00199986 -0.00152679)
(0.00362609 -0.00139133 -0.00152679)
(0.00381261 -0.000740531 -0.00152679)
(0.00388328 -6.72278e-05 -0.00152679)
(0.00383595 0.000608117 -0.00152679)
(0.00367208 0.00126499 -0.00152679)
(0.00339663 0.00188342 -0.00152679)
(0.00301798 0.00244462 -0.00152679)
(0.00254762 0.00293155 -0.00152679)
(0.00199986 0.0033294 -0.00152679)
(0.00139133 0.00362609 -0.00152679)
(0.000740531 0.00381261 -0.00152679)
(6.7228e-05 0.00388328 -0.00152679)
(-0.000608117 0.00383595 -0.00152679)
(-0.00126499 0.00367208 -0.00152679)
(-0.00214921 0.00381047 -0.00226514)
(-0.00277824 0.00337938 -0.00226514)
(-0.00332285 0.0028456 -0.00226514)