/*--------------------------------*- C++ -*----------------------------------*\
| =========                 |                                                 |
| \\      /  F ield         | OpenFOAM: The Open Source CFD Toolbox           |
|  \\    /   O peration     | Version:  2312                                  |
|   \\  /    A nd           | Website:  www.openfoam.com                      |
|    \\/     M anipulation  |                                                 |
\*---------------------------------------------------------------------------*/
FoamFile
{
    version     2.0;
    format      ascii;
    arch        "LSB;label=32;scalar=64";
    class       volTensorField;
    location    "0.4";
    object      F;
}
// * * * * * * * * * * * * * * * * * * * * * * * * * * * * * * * * * * * * * //

dimensions      [0 0 0 0 0 0 0];

internalField   nonuniform List<tensor> 
1620
(
(0.948323 -0.0314741 0.149326 -0.048502 0.973345 -0.290304 -0.0312454 -0.00273374 1.09913)
(0.962754 -0.0333416 0.197468 -0.0503697 0.958913 -0.259964 -0.0302963 -0.00811791 1.09913)
(0.976954 -0.0301607 0.23961 -0.0471888 0.944714 -0.221724 -0.0284263 -0.0132553 1.09913)
(0.989209 -0.022315 0.274472 -0.039343 0.932459 -0.176748 -0.0256925 -0.0179901 1.09913)
(0.998042 -0.0107507 0.300994 -0.0277787 0.923626 -0.126401 -0.0221783 -0.0221784 1.09913)
(1.00239 0.00313692 0.318371 -0.013891 0.919281 -0.072214 -0.0179902 -0.0256926 1.09913)
(1.00172 0.017673 0.326074 0.000645239 0.919948 -0.0158323 -0.0132554 -0.028426 1.09913)
(0.996122 0.0311046 0.323869 0.0140768 0.925546 0.0410304 -0.00811776 -0.030296 1.09913)
(0.986267 0.0418115 0.311824 0.0247836 0.935401 0.0966464 -0.00273358 -0.0312454 1.09913)
(0.973345 0.0485021 0.290304 0.0314741 0.948323 0.149326 0.00273374 -0.0312454 1.09913)
(0.958913 0.0503697 0.259964 0.0333416 0.962754 0.197468 0.00811791 -0.0302963 1.09913)
(0.944714 0.0471888 0.221724 0.0301607 0.976954 0.23961 0.0132553 -0.0284263 1.09913)
(0.932459 0.039343 0.176748 0.022315 0.989209 0.274472 0.0179901 -0.0256925 1.09913)
(0.923626 0.0277787 0.126401 0.0107507 0.998042 0.300994 0.0221784 -0.0221783 1.09913)
(0.919281 0.013891 0.072214 -0.00313691 1.00239 0.318371 0.0256926 -0.0179902 1.09913)
(0.919948 -0.000645237 0.0158323 -0.017673 1.00172 0.326074 0.028426 -0.0132554 1.09913)
(0.925546 -0.0140768 -0.0410304 -0.0311046 0.996122 0.323869 0.030296 -0.00811776 1.09913)
(0.935401 -0.0247836 -0.0966464 -0.0418115 0.986267 0.311824 0.0312454 -0.00273358 1.09913)
(0.948323 -0.0314741 -0.149326 -0.0485021 0.973345 0.290304 0.0312454 0.00273374 1.09913)
(0.962754 -0.0333416 -0.197468 -0.0503697 0.958913 0.259964 0.0302963 0.00811791 1.09913)
(0.976954 -0.0301607 -0.23961 -0.0471888 0.944714 0.221724 0.0284263 0.0132553 1.09913)
(0.989209 -0.022315 -0.274472 -0.039343 0.932459 0.176748 0.0256925 0.01799 1.09913)
(0.998042 -0.0107507 -0.300994 -0.0277787 0.923626 0.126401 0.0221783 0.0221784 1.09913)
(1.00239 0.00313691 -0.318371 -0.013891 0.919281 0.072214 0.0179902 0.0256926 1.09913)
(1.00172 0.017673 -0.326074 0.000645239 0.919948 0.0158323 0.0132554 0.028426 1.09913)
(0.996122 0.0311046 -0.323869 0.0140768 0.925546 -0.0410304 0.00811777 0.030296 1.09913)
(0.986267 0.0418115 -0.311824 0.0247836 0.935401 -0.0966464 0.00273358 0.0312454 1.09913)
(0.973345 0.0485021 -0.290304 0.0314741 0.948323 -0.149326 -0.00273374 0.0312454 1.09913)
(0.958913 0.0503697 -0.259964 0.0333416 0.962754 -0.197468 -0.00811791 0.0302963 1.09913)
(0.944714 0.0471888 -0.221724 0.0301607 0.976954 -0.23961 -0.0132553 0.0284263 1.09913)
(0.932459 0.0393429 -0.176748 0.022315 0.989209 -0.274472 -0.01799 0.0256925 1.09913)
(0.923626 0.0277787 -0.126401 0.0107507 0.998042 -0.300994 -0.0221784 0.0221783 1.09913)
(0.919281 0.013891 -0.072214 -0.00313692 1.00239 -0.318371 -0.0256926 0.0179902 1.09913)
(0.919948 -0.000645243 -0.0158323 -0.017673 1.00172 -0.326074 -0.028426 0.0132554 1.09913)
(0.925546 -0.0140768 0.0410304 -0.0311046 0.996122 -0.323869 -0.030296 0.00811776 1.09913)
(0.935401 -0.0247836 0.0966464 -0.0418115 0.986267 -0.311824 -0.0312454 0.00273357 1.09913)
(0.958372 -0.0401023 0.155095 -0.0495631 0.977109 -0.312621 -0.0275984 -0.00241458 1.07836)
(0.97427 -0.0406027 0.207025 -0.0500637 0.96121 -0.28094 -0.0267601 -0.00717037 1.07836)
(0.989381 -0.0356354 0.252665 -0.0450964 0.946099 -0.240722 -0.0251083 -0.0117082 1.07836)
(1.00188 -0.0257994 0.290627 -0.0352602 0.933598 -0.193191 -0.0226937 -0.0158903 1.07836)
(1.01027 -0.0122809 0.319759 -0.0217418 0.925215 -0.139789 -0.0195897 -0.0195897 1.07836)
(1.01352 0.00328937 0.339175 -0.00617143 0.921962 -0.0821393 -0.0158904 -0.0226938 1.07836)
(1.01125 0.0190333 0.348286 0.0095726 0.92423 -0.0219943 -0.0117082 -0.0251082 1.07836)
(1.00373 0.0330522 0.346814 0.0235915 0.931746 0.038819 -0.00717025 -0.0267598 1.07836)
(0.991877 0.0436551 0.334804 0.0341944 0.943603 0.0984529 -0.00241453 -0.0275984 1.07836)
(0.977109 0.0495631 0.312621 0.0401023 0.958372 0.155095 0.00241458 -0.0275984 1.07836)
(0.96121 0.0500637 0.28094 0.0406027 0.97427 0.207025 0.00717036 -0.0267601 1.07836)
(0.946099 0.0450964 0.240722 0.0356354 0.989381 0.252665 0.0117082 -0.0251083 1.07836)
(0.933598 0.0352602 0.193191 0.0257994 1.00188 0.290627 0.0158903 -0.0226937 1.07836)
(0.925215 0.0217418 0.139789 0.0122809 1.01027 0.319759 0.0195897 -0.0195897 1.07836)
(0.921962 0.00617144 0.0821393 -0.00328937 1.01352 0.339175 0.0226938 -0.0158904 1.07836)
(0.92423 -0.0095726 0.0219943 -0.0190333 1.01125 0.348286 0.0251082 -0.0117082 1.07836)
(0.931746 -0.0235915 -0.0388191 -0.0330522 1.00373 0.346814 0.0267598 -0.00717025 1.07836)
(0.943603 -0.0341944 -0.0984529 -0.0436551 0.991877 0.334804 0.0275984 -0.00241453 1.07836)
(0.958372 -0.0401023 -0.155095 -0.0495631 0.977109 0.312621 0.0275984 0.00241458 1.07836)
(0.97427 -0.0406027 -0.207025 -0.0500637 0.96121 0.28094 0.0267601 0.00717036 1.07836)
(0.989381 -0.0356354 -0.252665 -0.0450964 0.946099 0.240722 0.0251083 0.0117082 1.07836)
(1.00188 -0.0257994 -0.290627 -0.0352602 0.933598 0.193191 0.0226937 0.0158903 1.07836)
(1.01027 -0.0122809 -0.319759 -0.0217418 0.925215 0.139789 0.0195897 0.0195897 1.07836)
(1.01352 0.00328937 -0.339175 -0.00617144 0.921962 0.0821393 0.0158904 0.0226938 1.07836)
(1.01125 0.0190333 -0.348286 0.0095726 0.92423 0.0219943 0.0117082 0.0251082 1.07836)
(1.00373 0.0330522 -0.346814 0.0235915 0.931746 -0.0388191 0.00717025 0.0267598 1.07836)
(0.991877 0.0436551 -0.334804 0.0341944 0.943603 -0.0984529 0.00241453 0.0275984 1.07836)
(0.977109 0.0495631 -0.312621 0.0401023 0.958372 -0.155095 -0.00241458 0.0275984 1.07836)
(0.96121 0.0500637 -0.28094 0.0406027 0.97427 -0.207025 -0.00717036 0.0267601 1.07836)
(0.946099 0.0450964 -0.240722 0.0356354 0.989381 -0.252665 -0.0117082 0.0251083 1.07836)
(0.933598 0.0352602 -0.193191 0.0257994 1.00188 -0.290627 -0.0158903 0.0226937 1.07836)
(0.925216 0.0217417 -0.139789 0.0122809 1.01027 -0.319759 -0.0195897 0.0195897 1.07836)
(0.921962 0.00617143 -0.0821393 -0.00328937 1.01352 -0.339175 -0.0226938 0.0158904 1.07836)
(0.92423 -0.0095726 -0.0219943 -0.0190333 1.01125 -0.348286 -0.0251082 0.0117082 1.07836)
(0.931746 -0.0235915 0.038819 -0.0330522 1.00373 -0.346814 -0.0267598 0.00717024 1.07836)
(0.943603 -0.0341944 0.0984529 -0.0436551 0.991877 -0.334804 -0.0275984 0.00241453 1.07836)
(0.96966 -0.0512808 0.163579 -0.04959 0.979344 -0.33315 -0.0233908 -0.00204638 1.05494)
(0.987202 -0.0498952 0.218945 -0.0482045 0.961802 -0.299683 -0.0226802 -0.00607715 1.05494)
(1.00321 -0.0425935 0.267658 -0.0409028 0.945792 -0.257111 -0.0212803 -0.00992319 1.05494)
(1.01576 -0.0302564 0.308239 -0.0285656 0.933245 -0.206726 -0.0192338 -0.0134676 1.05494)
(1.02333 -0.0143718 0.339453 -0.012681 0.925674 -0.150061 -0.016603 -0.016603 1.05494)
(1.02501 0.00314431 0.360354 0.00483525 0.923992 -0.0888354 -0.0134677 -0.0192339 1.05494)
(1.0206 0.020179 0.370306 0.02187 0.928403 -0.0249109 -0.00992308 -0.0212802 1.05494)
(1.01063 0.0346781 0.369006 0.036369 0.938374 0.0397705 -0.00607705 -0.0226799 1.05494)
(0.996302 0.0448924 0.356494 0.0465833 0.952702 0.103243 -0.00204647 -0.0233908 1.05494)
(0.979344 0.04959 0.33315 0.0512808 0.96966 0.163579 0.00204638 -0.0233908 1.05494)
(0.961802 0.0482045 0.299683 0.0498952 0.987202 0.218945 0.00607715 -0.0226802 1.05494)
(0.945792 0.0409028 0.257111 0.0425935 1.00321 0.267658 0.00992319 -0.0212803 1.05494)
(0.933245 0.0285656 0.206726 0.0302564 1.01576 0.308239 0.0134676 -0.0192338 1.05494)
(0.925674 0.012681 0.150061 0.0143718 1.02333 0.339453 0.016603 -0.016603 1.05494)
(0.923992 -0.00483525 0.0888353 -0.0031443 1.02501 0.360354 0.0192339 -0.0134677 1.05494)
(0.928403 -0.02187 0.0249109 -0.020179 1.0206 0.370306 0.0212802 -0.00992308 1.05494)
(0.938374 -0.036369 -0.0397705 -0.0346781 1.01063 0.369006 0.0226799 -0.00607705 1.05494)
(0.952702 -0.0465833 -0.103243 -0.0448924 0.996302 0.356494 0.0233908 -0.00204647 1.05494)
(0.96966 -0.0512808 -0.163579 -0.04959 0.979344 0.33315 0.0233908 0.00204637 1.05494)
(0.987202 -0.0498952 -0.218945 -0.0482045 0.961802 0.299683 0.0226802 0.00607715 1.05494)
(1.00321 -0.0425935 -0.267658 -0.0409028 0.945792 0.257111 0.0212803 0.00992319 1.05494)
(1.01576 -0.0302564 -0.308239 -0.0285656 0.933245 0.206726 0.0192338 0.0134676 1.05494)
(1.02333 -0.0143718 -0.339453 -0.012681 0.925674 0.150061 0.016603 0.016603 1.05494)
(1.02501 0.0031443 -0.360354 0.00483525 0.923992 0.0888353 0.0134677 0.0192339 1.05494)
(1.0206 0.020179 -0.370306 0.02187 0.928403 0.0249109 0.00992308 0.0212802 1.05494)
(1.01063 0.0346781 -0.369006 0.036369 0.938374 -0.0397705 0.00607705 0.0226799 1.05494)
(0.996302 0.0448924 -0.356494 0.0465833 0.952702 -0.103243 0.00204647 0.0233908 1.05494)
(0.979344 0.04959 -0.33315 0.0512808 0.96966 -0.163579 -0.00204637 0.0233908 1.05494)
(0.961802 0.0482045 -0.299683 0.0498952 0.987202 -0.218945 -0.00607715 0.0226802 1.05494)
(0.945792 0.0409028 -0.257111 0.0425935 1.00321 -0.267658 -0.00992319 0.0212803 1.05494)
(0.933245 0.0285656 -0.206726 0.0302564 1.01576 -0.308239 -0.0134676 0.0192338 1.05494)
(0.925674 0.012681 -0.150061 0.0143718 1.02333 -0.339453 -0.016603 0.016603 1.05494)
(0.923992 -0.00483526 -0.0888354 -0.00314431 1.02501 -0.360354 -0.0192339 0.0134677 1.05494)
(0.928403 -0.02187 -0.0249109 -0.020179 1.0206 -0.370306 -0.0212802 0.00992308 1.05494)
(0.938374 -0.036369 0.0397705 -0.0346781 1.01063 -0.369006 -0.0226799 0.00607705 1.05494)
(0.952702 -0.0465833 0.103243 -0.0448924 0.996302 -0.356494 -0.0233908 0.00204647 1.05494)
(0.962873 -0.089038 0.149458 -0.0878218 0.9385 -0.292006 -0.0710143 -0.00621311 1.11418)
(0.992383 -0.0795372 0.197894 -0.0783211 0.90899 -0.261617 -0.0688568 -0.0184502 1.11418)
(1.01686 -0.0605165 0.240317 -0.0593005 0.88451 -0.223278 -0.064607 -0.0301265 1.11418)
(1.03336 -0.0342699 0.275438 -0.0330537 0.868011 -0.178156 -0.0583936 -0.0408873 1.11418)
(1.03989 -0.00396302 0.30219 -0.00274657 0.861484 -0.12762 -0.0504062 -0.0504062 1.11418)
(1.03566 0.0267484 0.319759 0.027965 0.865716 -0.0732064 -0.0408876 -0.0583936 1.11418)
(1.02118 0.0541601 0.327614 0.0553767 0.880197 -0.0165685 -0.0301264 -0.0646064 1.11418)
(0.998193 0.0749661 0.325514 0.0761827 0.90318 0.0405728 -0.0184499 -0.0688563 1.11418)
(0.96948 0.0866569 0.313523 0.0878731 0.931893 0.0964813 -0.00621282 -0.0710142 1.11418)
(0.9385 0.0878218 0.292006 0.089038 0.962873 0.149458 0.0062131 -0.0710143 1.11418)
(0.90899 0.0783211 0.261617 0.0795372 0.992383 0.197894 0.0184502 -0.0688568 1.11418)
(0.88451 0.0593005 0.223278 0.0605165 1.01686 0.240317 0.0301265 -0.064607 1.11418)
(0.868011 0.0330537 0.178156 0.0342699 1.03336 0.275438 0.0408873 -0.0583936 1.11418)
(0.861484 0.00274657 0.12762 0.00396302 1.03989 0.30219 0.0504062 -0.0504062 1.11418)
(0.865716 -0.027965 0.0732064 -0.0267484 1.03566 0.319759 0.0583936 -0.0408876 1.11418)
(0.880197 -0.0553767 0.0165685 -0.0541601 1.02118 0.327614 0.0646064 -0.0301264 1.11418)
(0.90318 -0.0761827 -0.0405728 -0.0749661 0.998193 0.325514 0.0688563 -0.0184499 1.11418)
(0.931893 -0.0878731 -0.0964813 -0.0866569 0.96948 0.313523 0.0710142 -0.00621283 1.11418)
(0.962873 -0.089038 -0.149458 -0.0878218 0.9385 0.292006 0.0710143 0.0062131 1.11418)
(0.992383 -0.0795372 -0.197894 -0.0783211 0.90899 0.261617 0.0688568 0.0184502 1.11418)
(1.01686 -0.0605165 -0.240317 -0.0593005 0.88451 0.223278 0.064607 0.0301264 1.11418)
(1.03336 -0.0342699 -0.275438 -0.0330537 0.868011 0.178156 0.0583936 0.0408873 1.11418)
(1.03989 -0.00396302 -0.30219 -0.00274657 0.861484 0.12762 0.0504062 0.0504062 1.11418)
(1.03566 0.0267484 -0.319759 0.027965 0.865716 0.0732064 0.0408876 0.0583936 1.11418)
(1.02118 0.0541601 -0.327614 0.0553767 0.880197 0.0165685 0.0301264 0.0646064 1.11418)
(0.998193 0.0749661 -0.325514 0.0761827 0.90318 -0.0405728 0.0184499 0.0688563 1.11418)
(0.96948 0.0866569 -0.313523 0.0878731 0.931893 -0.0964813 0.00621283 0.0710142 1.11418)
(0.9385 0.0878218 -0.292006 0.089038 0.962873 -0.149458 -0.0062131 0.0710143 1.11418)
(0.90899 0.0783211 -0.261617 0.0795372 0.992383 -0.197894 -0.0184502 0.0688568 1.11418)
(0.88451 0.0593005 -0.223278 0.0605165 1.01686 -0.240317 -0.0301264 0.064607 1.11418)
(0.868011 0.0330537 -0.178156 0.0342699 1.03336 -0.275438 -0.0408873 0.0583936 1.11418)
(0.861484 0.00274657 -0.12762 0.00396302 1.03989 -0.30219 -0.0504062 0.0504062 1.11418)
(0.865716 -0.027965 -0.0732064 -0.0267484 1.03566 -0.319759 -0.0583936 0.0408876 1.11418)
(0.880197 -0.0553767 -0.0165685 -0.0541601 1.02118 -0.327614 -0.0646064 0.0301264 1.11418)
(0.90318 -0.0761827 0.0405728 -0.0749661 0.998193 -0.325514 -0.0688563 0.0184499 1.11418)
(0.931893 -0.0878731 0.0964813 -0.0866568 0.96948 -0.313523 -0.0710142 0.00621282 1.11418)
(0.976522 -0.10916 0.156251 -0.0873085 0.937532 -0.312377 -0.0703034 -0.00615082 1.09511)
(1.00894 -0.0965681 0.208121 -0.0747168 0.90511 -0.280499 -0.0681676 -0.0182655 1.09511)
(1.0351 -0.0736466 0.253667 -0.0517953 0.87895 -0.240098 -0.0639602 -0.029825 1.09511)
(1.05185 -0.0431602 0.291506 -0.0213085 0.862207 -0.192401 -0.057809 -0.0404782 1.09511)
(1.05715 -0.00878556 0.320487 0.0130664 0.8569 -0.138859 -0.0499017 -0.0499016 1.09511)
(1.05038 0.025331 0.339731 0.0471829 0.863671 -0.0810973 -0.0404783 -0.057809 1.09511)
(1.03235 0.0550742 0.348652 0.0769261 0.881701 -0.0208716 -0.0298249 -0.0639597 1.09511)
(1.00524 0.076857 0.346979 0.0987088 0.908818 0.0399884 -0.0182653 -0.0681671 1.09511)
(0.972306 0.0880519 0.334764 0.109903 0.941748 0.0996333 -0.00615071 -0.0703034 1.09511)
(0.937532 0.0873085 0.312377 0.10916 0.976522 0.156251 0.00615082 -0.0703034 1.09511)
(0.90511 0.0747168 0.280499 0.0965681 1.00894 0.208121 0.0182655 -0.0681676 1.09511)
(0.87895 0.0517953 0.240098 0.0736466 1.0351 0.253667 0.029825 -0.0639601 1.09511)
(0.862207 0.0213085 0.192401 0.0431602 1.05185 0.291506 0.0404782 -0.057809 1.09511)
(0.8569 -0.0130664 0.138859 0.00878556 1.05715 0.320487 0.0499016 -0.0499017 1.09511)
(0.863671 -0.0471829 0.0810972 -0.025331 1.05038 0.339731 0.057809 -0.0404783 1.09511)
(0.881701 -0.0769261 0.0208716 -0.0550742 1.03235 0.348652 0.0639597 -0.0298249 1.09511)
(0.908818 -0.0987088 -0.0399885 -0.076857 1.00524 0.346979 0.0681671 -0.0182653 1.09511)
(0.941748 -0.109903 -0.0996333 -0.0880519 0.972306 0.334764 0.0703034 -0.00615071 1.09511)
(0.976522 -0.10916 -0.156251 -0.0873085 0.937532 0.312377 0.0703034 0.00615081 1.09511)
(1.00894 -0.0965681 -0.208121 -0.0747168 0.90511 0.280499 0.0681676 0.0182655 1.09511)
(1.0351 -0.0736466 -0.253667 -0.0517953 0.87895 0.240098 0.0639601 0.029825 1.09511)
(1.05185 -0.0431602 -0.291506 -0.0213085 0.862207 0.192401 0.057809 0.0404782 1.09511)
(1.05715 -0.00878557 -0.320487 0.0130664 0.8569 0.138859 0.0499017 0.0499016 1.09511)
(1.05038 0.025331 -0.339731 0.0471829 0.863671 0.0810972 0.0404783 0.057809 1.09511)
(1.03235 0.0550742 -0.348652 0.0769261 0.881702 0.0208716 0.0298249 0.0639597 1.09511)
(1.00524 0.076857 -0.346979 0.0987088 0.908818 -0.0399885 0.0182653 0.0681671 1.09511)
(0.972306 0.0880519 -0.334764 0.109903 0.941748 -0.0996333 0.00615071 0.0703034 1.09511)
(0.937532 0.0873085 -0.312377 0.10916 0.976522 -0.156251 -0.00615081 0.0703034 1.09511)
(0.90511 0.0747168 -0.280499 0.0965681 1.00894 -0.208121 -0.0182655 0.0681676 1.09511)
(0.87895 0.0517953 -0.240098 0.0736466 1.0351 -0.253667 -0.029825 0.0639601 1.09511)
(0.862207 0.0213085 -0.192401 0.0431602 1.05185 -0.291506 -0.0404781 0.057809 1.09511)
(0.8569 -0.0130664 -0.138859 0.00878556 1.05715 -0.320487 -0.0499016 0.0499017 1.09511)
(0.863671 -0.0471829 -0.0810973 -0.025331 1.05038 -0.339731 -0.057809 0.0404782 1.09511)
(0.881702 -0.0769261 -0.0208716 -0.0550742 1.03235 -0.348652 -0.0639597 0.0298249 1.09511)
(0.908818 -0.0987088 0.0399884 -0.076857 1.00524 -0.346979 -0.0681671 0.0182652 1.09511)
(0.941748 -0.109903 0.0996333 -0.0880519 0.972306 -0.334764 -0.0703034 0.00615071 1.09511)
(0.99134 -0.134291 0.165352 -0.0842471 0.933293 -0.330763 -0.0683338 -0.00597837 1.07475)
(1.02696 -0.117774 0.220277 -0.0677308 0.897671 -0.297025 -0.0662578 -0.0177537 1.07475)
(1.05479 -0.0900707 0.268508 -0.0400271 0.869846 -0.254262 -0.0621682 -0.0289896 1.07475)
(1.07146 -0.0545212 0.308581 -0.00447747 0.853175 -0.203773 -0.0561895 -0.0393443 1.07475)
(1.07497 -0.0154137 0.339277 0.0346303 0.849668 -0.147093 -0.0485037 -0.0485037 1.07475)
(1.06489 0.0225351 0.359665 0.0725792 0.859747 -0.0859432 -0.0393442 -0.0561894 1.07475)
(1.04243 0.0547477 0.369125 0.104792 0.882199 -0.0221823 -0.0289893 -0.0621678 1.07475)
(1.01032 0.077339 0.367369 0.127383 0.914313 0.0422528 -0.0177536 -0.0662573 1.07475)
(0.972415 0.087584 0.354451 0.137628 0.952217 0.105404 -0.00597846 -0.0683337 1.07475)
(0.933293 0.0842471 0.330763 0.134291 0.99134 0.165352 0.00597837 -0.0683338 1.07475)
(0.897671 0.0677309 0.297025 0.117774 1.02696 0.220277 0.0177537 -0.0662578 1.07475)
(0.869846 0.0400271 0.254262 0.0900707 1.05479 0.268508 0.0289896 -0.0621682 1.07475)
(0.853175 0.00447747 0.203773 0.0545212 1.07146 0.308581 0.0393443 -0.0561895 1.07475)
(0.849668 -0.0346303 0.147093 0.0154137 1.07496 0.339277 0.0485037 -0.0485037 1.07475)
(0.859747 -0.0725792 0.0859432 -0.0225351 1.06489 0.359665 0.0561894 -0.0393442 1.07475)
(0.882199 -0.104792 0.0221822 -0.0547477 1.04243 0.369125 0.0621678 -0.0289893 1.07475)
(0.914313 -0.127383 -0.0422528 -0.077339 1.01032 0.367369 0.0662573 -0.0177536 1.07475)
(0.952217 -0.137628 -0.105404 -0.087584 0.972415 0.354451 0.0683337 -0.00597847 1.07475)
(0.99134 -0.134291 -0.165352 -0.0842471 0.933293 0.330763 0.0683338 0.00597836 1.07475)
(1.02696 -0.117774 -0.220277 -0.0677309 0.897671 0.297025 0.0662578 0.0177537 1.07475)
(1.05479 -0.0900707 -0.268508 -0.0400271 0.869846 0.254262 0.0621682 0.0289896 1.07475)
(1.07146 -0.0545212 -0.308581 -0.00447747 0.853175 0.203773 0.0561895 0.0393443 1.07475)
(1.07496 -0.0154137 -0.339277 0.0346303 0.849668 0.147093 0.0485037 0.0485037 1.07475)
(1.06489 0.0225351 -0.359666 0.0725792 0.859747 0.0859432 0.0393442 0.0561894 1.07475)
(1.04243 0.0547477 -0.369125 0.104792 0.882199 0.0221822 0.0289893 0.0621678 1.07475)
(1.01032 0.077339 -0.367369 0.127383 0.914313 -0.0422528 0.0177536 0.0662573 1.07475)
(0.972415 0.087584 -0.354451 0.137628 0.952217 -0.105404 0.00597847 0.0683337 1.07475)
(0.933293 0.0842471 -0.330763 0.134291 0.99134 -0.165352 -0.00597836 0.0683338 1.07475)
(0.897671 0.0677308 -0.297025 0.117774 1.02696 -0.220277 -0.0177537 0.0662578 1.07475)
(0.869846 0.0400271 -0.254262 0.0900707 1.05479 -0.268508 -0.0289896 0.0621682 1.07475)
(0.853175 0.00447747 -0.203773 0.0545212 1.07146 -0.308581 -0.0393443 0.0561895 1.07475)
(0.849668 -0.0346303 -0.147093 0.0154137 1.07497 -0.339278 -0.0485037 0.0485037 1.07475)
(0.859747 -0.0725792 -0.0859432 -0.0225351 1.06489 -0.359666 -0.0561894 0.0393442 1.07475)
(0.882199 -0.104792 -0.0221823 -0.0547477 1.04243 -0.369125 -0.0621678 0.0289893 1.07475)
(0.914313 -0.127383 0.0422528 -0.077339 1.01032 -0.367369 -0.0662573 0.0177536 1.07475)
(0.952217 -0.137628 0.105404 -0.087584 0.972415 -0.354451 -0.0683337 0.00597846 1.07475)
(0.981547 -0.146061 0.147393 -0.119802 0.905172 -0.288607 -0.103654 -0.0090687 1.14612)
(1.02471 -0.124983 0.19527 -0.098724 0.86201 -0.258628 -0.100505 -0.0269302 1.14612)
(1.05806 -0.0904144 0.237213 -0.0641555 0.82866 -0.220791 -0.0943015 -0.0439733 1.14612)
(1.07757 -0.046524 0.271949 -0.0202651 0.809144 -0.176245 -0.0852328 -0.0596803 1.14612)
(1.0809 0.00139422 0.298422 0.0276534 0.805817 -0.126344 -0.0735743 -0.073574 1.14612)
(1.06764 0.0475607 0.315828 0.07382 0.81908 -0.0726036 -0.0596804 -0.0852323 1.14612)
(1.03939 0.086407 0.323637 0.112666 0.847332 -0.0166577 -0.0439731 -0.0943009 1.14612)
(0.999553 0.113248 0.321613 0.139507 0.887167 0.0397944 -0.0269298 -0.100504 1.14612)
(0.95294 0.124846 0.309817 0.151105 0.933779 0.0950373 -0.00906826 -0.103654 1.14612)
(0.905172 0.119802 0.288607 0.146061 0.981547 0.147393 0.00906869 -0.103654 1.14612)
(0.86201 0.0987241 0.258628 0.124983 1.02471 0.19527 0.0269302 -0.100505 1.14612)
(0.82866 0.0641556 0.220791 0.0904144 1.05806 0.237213 0.0439733 -0.0943015 1.14612)
(0.809144 0.0202651 0.176245 0.046524 1.07757 0.271949 0.0596803 -0.0852328 1.14612)
(0.805817 -0.0276534 0.126343 -0.00139421 1.0809 0.298422 0.073574 -0.0735743 1.14612)
(0.81908 -0.07382 0.0726036 -0.0475607 1.06764 0.315828 0.0852323 -0.0596804 1.14612)
(0.847332 -0.112666 0.0166577 -0.086407 1.03939 0.323637 0.0943009 -0.0439731 1.14612)
(0.887167 -0.139507 -0.0397944 -0.113248 0.999553 0.321613 0.100504 -0.0269298 1.14612)
(0.933779 -0.151105 -0.0950373 -0.124846 0.95294 0.309817 0.103654 -0.00906826 1.14612)
(0.981547 -0.146061 -0.147393 -0.119802 0.905172 0.288607 0.103654 0.00906868 1.14612)
(1.02471 -0.124983 -0.19527 -0.0987241 0.86201 0.258628 0.100505 0.0269302 1.14612)
(1.05806 -0.0904144 -0.237213 -0.0641556 0.82866 0.220791 0.0943015 0.0439733 1.14612)
(1.07757 -0.046524 -0.271949 -0.0202651 0.809144 0.176245 0.0852328 0.0596803 1.14612)
(1.0809 0.00139421 -0.298422 0.0276534 0.805817 0.126343 0.0735743 0.073574 1.14612)
(1.06764 0.0475607 -0.315828 0.07382 0.81908 0.0726036 0.0596804 0.0852323 1.14612)
(1.03939 0.086407 -0.323637 0.112666 0.847332 0.0166577 0.0439731 0.0943009 1.14612)
(0.999553 0.113248 -0.321613 0.139507 0.887167 -0.0397944 0.0269298 0.100504 1.14612)
(0.95294 0.124846 -0.309817 0.151105 0.933779 -0.0950373 0.00906827 0.103654 1.14612)
(0.905172 0.119802 -0.288607 0.146061 0.981547 -0.147393 -0.00906868 0.103654 1.14612)
(0.86201 0.0987241 -0.258628 0.124983 1.02471 -0.19527 -0.0269302 0.100505 1.14612)
(0.82866 0.0641555 -0.220791 0.0904144 1.05806 -0.237213 -0.0439733 0.0943015 1.14612)
(0.809145 0.0202651 -0.176245 0.046524 1.07757 -0.271949 -0.0596803 0.0852328 1.14612)
(0.805817 -0.0276534 -0.126344 -0.00139421 1.0809 -0.298422 -0.073574 0.0735743 1.14612)
(0.81908 -0.07382 -0.0726036 -0.0475607 1.06764 -0.315828 -0.0852323 0.0596804 1.14612)
(0.847332 -0.112666 -0.0166577 -0.086407 1.03939 -0.323637 -0.0943009 0.0439731 1.14612)
(0.887167 -0.139507 0.0397944 -0.113248 0.999553 -0.321613 -0.100504 0.0269298 1.14612)
(0.933779 -0.151105 0.0950373 -0.124846 0.95294 -0.309817 -0.103654 0.00906825 1.14612)
(0.99792 -0.176261 0.156122 -0.117362 0.899478 -0.302882 -0.103023 -0.00901344 1.13126)
(1.04516 -0.150573 0.206345 -0.0916739 0.852234 -0.27117 -0.0998929 -0.0267662 1.13126)
(1.08077 -0.110275 0.250298 -0.0513765 0.816625 -0.231219 -0.0937274 -0.0437058 1.13126)
(1.10045 -0.060229 0.286646 -0.00133012 0.796946 -0.184243 -0.0847138 -0.0593171 1.13126)
(1.10183 -0.00647017 0.314285 0.0524289 0.795571 -0.131668 -0.0731263 -0.0731262 1.13126)
(1.08473 0.0445169 0.332374 0.103416 0.812665 -0.0750927 -0.059317 -0.0847135 1.13126)
(1.05123 0.0865825 0.340364 0.145482 0.846167 -0.0162358 -0.0437055 -0.0937268 1.13126)
(1.00536 0.114653 0.338013 0.173552 0.892036 0.0431145 -0.0267659 -0.0998923 1.13126)
(0.952659 0.125343 0.325391 0.184242 0.944739 0.101155 -0.00901325 -0.103023 1.13126)
(0.899478 0.117362 0.302882 0.176261 0.99792 0.156122 0.00901344 -0.103023 1.13126)
(0.852234 0.0916739 0.27117 0.150573 1.04516 0.206345 0.0267662 -0.0998929 1.13126)
(0.816625 0.0513765 0.231219 0.110275 1.08077 0.250298 0.0437057 -0.0937274 1.13126)
(0.796946 0.00133013 0.184243 0.060229 1.10045 0.286646 0.0593171 -0.0847138 1.13126)
(0.795571 -0.0524288 0.131668 0.00647017 1.10183 0.314285 0.0731262 -0.0731263 1.13126)
(0.812665 -0.103416 0.0750927 -0.0445169 1.08473 0.332374 0.0847135 -0.059317 1.13126)
(0.846167 -0.145482 0.0162358 -0.0865825 1.05123 0.340364 0.0937268 -0.0437055 1.13126)
(0.892036 -0.173552 -0.0431145 -0.114653 1.00536 0.338013 0.0998923 -0.0267659 1.13126)
(0.944739 -0.184242 -0.101155 -0.125343 0.952659 0.325391 0.103023 -0.00901325 1.13126)
(0.99792 -0.176261 -0.156122 -0.117362 0.899478 0.302882 0.103023 0.00901344 1.13126)
(1.04516 -0.150573 -0.206345 -0.0916739 0.852234 0.27117 0.0998929 0.0267662 1.13126)
(1.08077 -0.110275 -0.250298 -0.0513765 0.816625 0.231219 0.0937274 0.0437057 1.13126)
(1.10045 -0.060229 -0.286646 -0.00133013 0.796946 0.184243 0.0847138 0.0593171 1.13126)
(1.10183 -0.00647018 -0.314285 0.0524288 0.795571 0.131668 0.0731263 0.0731262 1.13126)
(1.08473 0.0445169 -0.332374 0.103416 0.812665 0.0750927 0.059317 0.0847135 1.13126)
(1.05123 0.0865825 -0.340364 0.145482 0.846167 0.0162358 0.0437055 0.0937267 1.13126)
(1.00536 0.114653 -0.338013 0.173552 0.892036 -0.0431145 0.0267659 0.0998923 1.13126)
(0.952659 0.125343 -0.325391 0.184242 0.944739 -0.101155 0.00901326 0.103023 1.13126)
(0.899478 0.117362 -0.302882 0.176261 0.99792 -0.156122 -0.00901343 0.103023 1.13126)
(0.852234 0.0916739 -0.27117 0.150573 1.04516 -0.206345 -0.0267662 0.0998929 1.13126)
(0.816625 0.0513765 -0.231219 0.110275 1.08077 -0.250298 -0.0437057 0.0937274 1.13126)
(0.796946 0.00133012 -0.184243 0.060229 1.10045 -0.286646 -0.0593171 0.0847138 1.13126)
(0.795571 -0.0524289 -0.131668 0.00647018 1.10183 -0.314285 -0.0731262 0.0731263 1.13126)
(0.812665 -0.103416 -0.0750927 -0.0445169 1.08473 -0.332374 -0.0847135 0.059317 1.13126)
(0.846167 -0.145482 -0.0162358 -0.0865825 1.05123 -0.340364 -0.0937267 0.0437055 1.13126)
(0.892036 -0.173552 0.0431145 -0.114653 1.00536 -0.338013 -0.0998923 0.0267659 1.13126)
(0.944739 -0.184242 0.101155 -0.125343 0.952659 -0.325391 -0.103023 0.00901325 1.13126)
(1.0153 -0.21337 0.166785 -0.110846 0.889047 -0.314708 -0.100861 -0.00882419 1.11663)
(1.06694 -0.182002 0.2189 -0.0794791 0.83741 -0.280965 -0.0977969 -0.0262046 1.11663)
(1.10473 -0.134866 0.264363 -0.0323427 0.799615 -0.238685 -0.0917608 -0.0427888 1.11663)
(1.12413 -0.077646 0.301794 0.0248776 0.780221 -0.189152 -0.0829362 -0.0580726 1.11663)
(1.12278 -0.0172434 0.330055 0.0852805 0.781567 -0.133872 -0.0715919 -0.0715919 1.11663)
(1.10086 0.0390561 0.348288 0.14158 0.803491 -0.0745252 -0.0580724 -0.082936 1.11663)
(1.061 0.0844618 0.355937 0.186986 0.843349 -0.0129135 -0.0427885 -0.0917602 1.11663)
(1.00802 0.113497 0.352772 0.216021 0.896332 0.0490906 -0.0262045 -0.0977964 1.11663)
(0.948298 0.122661 0.338889 0.225184 0.956051 0.109603 -0.00882427 -0.100861 1.11663)
(0.889047 0.110846 0.314708 0.21337 1.0153 0.166785 0.00882419 -0.100861 1.11663)
(0.83741 0.0794791 0.280965 0.182002 1.06694 0.2189 0.0262046 -0.0977969 1.11663)
(0.799615 0.0323427 0.238685 0.134866 1.10473 0.264363 0.0427888 -0.0917607 1.11663)
(0.780221 -0.0248776 0.189152 0.077646 1.12413 0.301794 0.0580726 -0.0829362 1.11663)
(0.781567 -0.0852805 0.133872 0.0172434 1.12278 0.330055 0.0715919 -0.0715919 1.11663)
(0.803491 -0.14158 0.0745252 -0.0390561 1.10086 0.348288 0.082936 -0.0580724 1.11663)
(0.843349 -0.186986 0.0129134 -0.0844618 1.061 0.355937 0.0917602 -0.0427885 1.11663)
(0.896332 -0.216021 -0.0490906 -0.113497 1.00802 0.352772 0.0977964 -0.0262045 1.11663)
(0.956051 -0.225184 -0.109603 -0.122661 0.948298 0.338889 0.100861 -0.00882427 1.11663)
(1.0153 -0.21337 -0.166785 -0.110846 0.889047 0.314708 0.100861 0.00882419 1.11663)
(1.06694 -0.182002 -0.2189 -0.0794791 0.83741 0.280965 0.0977969 0.0262046 1.11663)
(1.10473 -0.134866 -0.264363 -0.0323427 0.799615 0.238685 0.0917607 0.0427888 1.11663)
(1.12413 -0.077646 -0.301794 0.0248776 0.780221 0.189152 0.0829362 0.0580726 1.11663)
(1.12278 -0.0172434 -0.330055 0.0852805 0.781567 0.133872 0.0715919 0.0715919 1.11663)
(1.10086 0.0390561 -0.348288 0.14158 0.803491 0.0745252 0.0580724 0.082936 1.11663)
(1.061 0.0844618 -0.355937 0.186986 0.843349 0.0129134 0.0427885 0.0917601 1.11663)
(1.00802 0.113497 -0.352772 0.216021 0.896332 -0.0490906 0.0262045 0.0977964 1.11663)
(0.948298 0.122661 -0.338889 0.225184 0.956051 -0.109603 0.00882428 0.100861 1.11663)
(0.889047 0.110846 -0.314708 0.21337 1.0153 -0.166785 -0.00882419 0.100861 1.11663)
(0.83741 0.0794791 -0.280965 0.182002 1.06694 -0.2189 -0.0262046 0.0977969 1.11663)
(0.799615 0.0323427 -0.238685 0.134866 1.10473 -0.264363 -0.0427888 0.0917607 1.11663)
(0.780221 -0.0248776 -0.189152 0.077646 1.12413 -0.301794 -0.0580726 0.0829362 1.11663)
(0.781567 -0.0852805 -0.133872 0.0172434 1.12278 -0.330055 -0.0715919 0.0715919 1.11663)
(0.803491 -0.14158 -0.0745252 -0.0390561 1.10086 -0.348288 -0.082936 0.0580724 1.11663)
(0.843349 -0.186986 -0.0129135 -0.0844618 1.061 -0.355938 -0.0917601 0.0427884 1.11663)
(0.896332 -0.216021 0.0490906 -0.113497 1.00802 -0.352772 -0.0977964 0.0262045 1.11663)
(0.956051 -0.225184 0.109603 -0.122661 0.948298 -0.338889 -0.100861 0.00882427 1.11663)
(1.00546 -0.203832 0.144695 -0.13492 0.873722 -0.280012 -0.125892 -0.0110144 1.17454)
(1.05941 -0.171089 0.19112 -0.102178 0.819764 -0.250632 -0.122067 -0.0327079 1.17454)
(1.09892 -0.121866 0.231738 -0.052955 0.780259 -0.213637 -0.114533 -0.0534075 1.17454)
(1.11921 -0.0621006 0.265315 0.0068106 0.759972 -0.17015 -0.103519 -0.0724845 1.17454)
(1.11783 0.000999247 0.29083 0.0699107 0.761349 -0.121493 -0.0893592 -0.0893589 1.17454)
(1.09495 0.0598229 0.307509 0.128734 0.784224 -0.0691455 -0.0724845 -0.103518 1.17454)
(1.05334 0.107275 0.314844 0.176187 0.825839 -0.0146966 -0.0534074 -0.114532 1.17454)