/*--------------------------------*- C++ -*----------------------------------*\
| =========                 |                                                 |
| \\      /  F ield         | OpenFOAM: The Open Source CFD Toolbox           |
|  \\    /   O peration     | Version:  2312                                  |
|   \\  /    A nd           | Website:  www.openfoam.com                      |
|    \\/     M anipulation  |                                                 |
\*---------------------------------------------------------------------------*/
FoamFile
{
    version     2.0;
    format      ascii;
    arch        "LSB;label=32;scalar=64";
    class       volVectorField;
    location    "0.4";
    object      traction;
}
// * * * * * * * * * * * * * * * * * * * * * * * * * * * * * * * * * * * * * //

dimensions      [1 -1 -2 0 0 0 0];

internalField   uniform (0 0 0);

boundaryField
{
    fixed
    {
        type            calculated;
        value           nonuniform List<vector> 
108
(
(1115.55 -1863.08 16745.8)
(1422.13 -1641.06 16745.8)
(1685.49 -1369.19 16745.8)
(1897.64 -1055.71 16745.6)
(2052.13 -710.144 16745.6)
(2144.27 -343.008 16745.7)
(2171.25 34.5478 16745.7)
(2132.27 411.061 16745.8)
(2028.49 775.081 16745.8)
(1863.08 1115.55 16745.8)
(1641.06 1422.13 16745.8)
(1369.19 1685.49 16745.8)
(1055.71 1897.64 16745.6)
(710.144 2052.13 16745.6)
(343.008 2144.27 16745.7)
(-34.5478 2171.25 16745.7)
(-411.061 2132.27 16745.8)
(-775.082 2028.49 16745.8)
(-1115.55 1863.08 16745.8)
(-1422.13 1641.06 16745.8)
(-1685.49 1369.19 16745.8)
(-1897.64 1055.71 16745.6)
(-2052.13 710.144 16745.6)
(-2144.27 343.008 16745.7)
(-2171.25 -34.5478 16745.7)
(-2132.27 -411.061 16745.8)
(-2028.49 -775.081 16745.8)
(-1863.08 -1115.55 16745.8)
(-1641.06 -1422.13 16745.8)
(-1369.19 -1685.49 16745.8)
(-1055.71 -1897.64 16745.6)
(-710.144 -2052.13 16745.6)
(-343.008 -2144.27 16745.7)
(34.5477 -2171.25 16745.7)
(411.061 -2132.27 16745.8)
(775.081 -2028.49 16745.8)
(946.524 -2024.35 11047.9)
(1283.67 -1829.23 11047.9)
(1581.81 -1578.54 11047.8)
(1831.89 -1279.88 11047.9)
(2026.31 -942.328 11047.9)
(2159.15 -576.148 11047.8)
(2226.4 -192.462 11047.9)
(2226 197.073 11047.9)
(2157.96 580.618 11047.9)
(2024.35 946.524 11047.9)
(1829.23 1283.67 11047.9)
(1578.54 1581.81 11047.8)
(1279.88 1831.89 11047.9)
(942.328 2026.31 11047.9)
(576.148 2159.15 11047.8)
(192.462 2226.4 11047.9)
(-197.073 2226 11047.9)
(-580.618 2157.96 11047.9)
(-946.524 2024.35 11047.9)
(-1283.67 1829.23 11047.9)
(-1581.81 1578.54 11047.8)
(-1831.89 1279.88 11047.9)
(-2026.31 942.328 11047.9)
(-2159.15 576.148 11047.8)
(-2226.4 192.462 11047.9)
(-2226 -197.073 11047.9)
(-2157.96 -580.618 11047.9)
(-2024.35 -946.524 11047.9)
(-1829.23 -1283.67 11047.9)
(-1578.54 -1581.81 11047.8)
(-1279.88 -1831.89 11047.9)
(-942.328 -2026.31 11047.9)
(-576.148 -2159.15 11047.8)
(-192.462 -2226.4 11047.9)
(197.073 -2226 11047.9)
(580.618 -2157.96 11047.9)
(752.823 -2171 1927.43)
(1118.37 -2007.29 1927.43)
(1449.95 -1782.6 1927.33)
(1737.46 -1503.73 1927.3)
(1972.19 -1179.18 1927.39)
(2146.99 -818.798 1927.38)
(2256.55 -433.538 1927.41)
(2297.56 -35.1044 1927.33)
(2268.75 364.396 1927.4)
(2171 752.824 1927.43)
(2007.29 1118.37 1927.44)
(1782.6 1449.95 1927.33)
(1503.73 1737.46 1927.3)
(1179.18 1972.19 1927.39)
(818.798 2146.99 1927.38)
(433.538 2256.55 1927.41)
(35.1043 2297.56 1927.33)
(-364.396 2268.75 1927.4)
(-752.824 2171 1927.43)
(-1118.37 2007.29 1927.44)
(-1449.95 1782.6 1927.33)
(-1737.46 1503.73 1927.3)
(-1972.19 1179.18 1927.39)
(-2146.99 818.798 1927.38)
(-2256.55 433.538 1927.41)
(-2297.56 35.1044 1927.33)
(-2268.75 -364.396 1927.4)
(-2171 -752.824 1927.43)
(-2007.29 -1118.37 1927.44)
(-1782.6 -1449.95 1927.32)
(-1503.74 -1737.46 1927.3)
(-1179.18 -1972.19 1927.39)
(-818.798 -2146.99 1927.38)
(-433.538 -2256.55 1927.41)
(-35.1045 -2297.56 1927.33)
(364.396 -2268.75 1927.4)
)
;
    }
    inside
    {
        type            calculated;
        value           nonuniform List<vector> 
540
(
(-1054.92 -560.568 -383.424)
(-941.603 -735.097 -383.43)
(-799.456 -887.57 -383.417)
(-633.264 -1012.76 -383.429)
(-447.79 -1107.45 -383.421)
(-248.625 -1168.41 -383.421)
(-42.119 -1193.8 -383.431)
(166.041 -1182.94 -383.417)
(368.774 -1136.2 -383.431)
(560.568 -1054.92 -383.424)
(735.098 -941.605 -383.429)
(887.57 -799.458 -383.417)
(1012.76 -633.265 -383.429)
(1107.45 -447.791 -383.421)
(1168.41 -248.626 -383.421)
(1193.8 -42.1195 -383.431)
(1182.94 166.041 -383.417)
(1136.2 368.774 -383.431)
(1054.92 560.568 -383.424)
(941.605 735.098 -383.429)
(799.458 887.57 -383.417)
(633.265 1012.76 -383.429)
(447.791 1107.45 -383.421)
(248.625 1168.41 -383.421)
(42.1191 1193.8 -383.431)
(-166.041 1182.94 -383.417)
(-368.774 1136.2 -383.431)
(-560.568 1054.92 -383.424)
(-735.098 941.603 -383.43)
(-887.569 799.456 -383.418)
(-1012.76 633.263 -383.429)
(-1107.45 447.789 -383.421)
(-1168.41 248.624 -383.421)
(-1193.8 42.1184 -383.431)
(-1182.94 -166.041 -383.417)
(-1136.2 -368.774 -383.431)
(12684 872.942 -758.885)
(12339.7 3062.31 -758.951)
(11620.5 5158.5 -758.919)
(10548.3 7098.13 -758.885)
(9155.37 8821.87 -758.88)
(7484.34 10277.6 -758.876)
(5585.96 11421.1 -758.903)
(3517.87 12217.6 -758.913)
(1342.81 12642.8 -758.951)
(-872.942 12684 -758.885)
(-3062.31 12339.7 -758.951)
(-5158.5 11620.5 -758.92)
(-7098.12 10548.3 -758.886)
(-8821.87 9155.37 -758.88)
(-10277.6 7484.34 -758.876)
(-11421.1 5585.96 -758.903)
(-12217.6 3517.87 -758.913)
(-12642.8 1342.81 -758.951)
(-12684 -872.942 -758.886)
(-12339.7 -3062.31 -758.951)
(-11620.5 -5158.5 -758.92)
(-10548.3 -7098.12 -758.886)
(-9155.37 -8821.87 -758.88)
(-7484.34 -10277.6 -758.876)
(-5585.96 -11421.1 -758.903)
(-3517.87 -12217.6 -758.913)
(-1342.81 -12642.8 -758.951)
(872.942 -12684 -758.886)
(3062.31 -12339.7 -758.951)
(5158.5 -11620.5 -758.92)
(7098.13 -10548.3 -758.886)
(8821.87 -9155.37 -758.88)
(10277.6 -7484.34 -758.876)
(11421.1 -5585.96 -758.903)
(12217.6 -3517.87 -758.913)
(12642.8 -1342.81 -758.951)
(13258.7 824.663 -897.668)
(12914.1 3114.56 -897.656)
(12177 5309.62 -897.676)
(11070 7343.5 -897.717)
(9626.66 9154.25 -897.706)
(7890.78 10686.8 -897.702)
(5915.17 11894.8 -897.684)
(3759.8 12741.1 -897.629)
(1490.21 13200.4 -897.686)
(-824.663 13258.7 -897.668)
(-3114.56 12914.1 -897.656)
(-5309.62 12177 -897.676)
(-7343.5 11070 -897.717)
(-9154.25 9626.66 -897.706)
(-10686.8 7890.78 -897.702)
(-11894.8 5915.17 -897.684)
(-12741.1 3759.8 -897.629)
(-13200.4 1490.21 -897.686)
(-13258.7 -824.663 -897.668)
(-12914.1 -3114.56 -897.656)
(-12177 -5309.62 -897.676)
(-11070 -7343.5 -897.718)
(-9626.66 -9154.25 -897.707)
(-7890.78 -10686.8 -897.702)
(-5915.17 -11894.8 -897.684)
(-3759.8 -12741.1 -897.629)
(-1490.21 -13200.4 -897.686)
(824.663 -13258.7 -897.668)
(3114.56 -12914.1 -897.656)
(5309.62 -12177 -897.676)
(7343.5 -11070 -897.717)
(9154.25 -9626.66 -897.706)
(10686.8 -7890.78 -897.702)
(11894.8 -5915.17 -897.684)
(12741.1 -3759.8 -897.629)
(13200.4 -1490.21 -897.686)
(14667.8 1551.39 -1100.23)
(14175.6 4074.88 -1100.23)
(13252.6 6474.48 -1100.22)
(11927 8677.49 -1100.2)
(10239 10616.8 -1100.22)
(8239.85 12233.4 -1100.21)
(5990.38 13478.5 -1100.23)
(3558.88 14313.8 -1100.24)
(1019.24 14714.4 -1100.18)
(-1551.39 14667.8 -1100.23)
(-4074.88 14175.6 -1100.23)
(-6474.48 13252.6 -1100.22)
(-8677.49 11927 -1100.2)
(-10616.8 10239 -1100.22)
(-12233.4 8239.85 -1100.21)
(-13478.5 5990.38 -1100.23)
(-14313.8 3558.88 -1100.25)
(-14714.4 1019.24 -1100.18)
(-14667.8 -1551.39 -1100.23)
(-14175.6 -4074.88 -1100.23)
(-13252.6 -6474.48 -1100.22)
(-11927 -8677.49 -1100.2)
(-10239 -10616.8 -1100.22)
(-8239.85 -12233.4 -1100.21)
(-5990.38 -13478.5 -1100.23)
(-3558.88 -14313.8 -1100.25)
(-1019.24 -14714.4 -1100.18)
(1551.39 -14667.8 -1100.23)
(4074.88 -14175.6 -1100.23)
(6474.48 -13252.6 -1100.22)
(8677.49 -11927 -1100.2)
(10616.8 -10239 -1100.22)
(12233.4 -8239.85 -1100.21)
(13478.5 -5990.38 -1100.23)
(14313.8 -3558.88 -1100.24)
(14714.4 -1019.24 -1100.18)
(15305.3 2463.94 -1323.72)
(14644.8 5084.13 -1323.65)
(13539.5 7550.03 -1323.69)
(12022.8 9786.44 -1323.69)
(10140.7 11725.4 -1323.68)
(7950.55 13308.3 -1323.7)
(5518.82 14486.6 -1323.68)
(2919.35 15225 -1323.7)
(231.26 15500.5 -1323.66)
(-2463.94 15305.3 -1323.72)
(-5084.13 14644.8 -1323.65)
(-7550.03 13539.5 -1323.69)
(-9786.44 12022.8 -1323.69)
(-11725.4 10140.7 -1323.68)
(-13308.3 7950.55 -1323.7)
(-14486.6 5518.82 -1323.68)
(-15225 2919.35 -1323.7)
(-15500.5 231.26 -1323.66)
(-15305.3 -2463.94 -1323.72)
(-14644.8 -5084.13 -1323.65)
(-13539.5 -7550.03 -1323.69)
(-12022.8 -9786.44 -1323.69)
(-10140.7 -11725.4 -1323.68)
(-7950.55 -13308.3 -1323.7)
(-5518.82 -14486.6 -1323.68)
(-2919.35 -15225 -1323.7)
(-231.26 -15500.5 -1323.66)
(2463.94 -15305.3 -1323.72)
(5084.13 -14644.8 -1323.65)
(7550.03 -13539.5 -1323.69)
(9786.44 -12022.8 -1323.69)
(11725.4 -10140.7 -1323.68)
(13308.3 -7950.55 -1323.7)
(14486.6 -5518.82 -1323.68)
(15225 -2919.35 -1323.7)
(15500.5 -231.26 -1323.66)
(15177.6 3257.43 -1605.29)
(14381.3 5843.41 -1605.27)
(13148.3 8252.13 -1605.29)
(11515.5 10409.7 -1605.32)
(9532.91 12251.3 -1605.33)
(7260.68 13720.7 -1605.33)
(4767.82 14772.9 -1605.33)
(2130.07 15376.5 -1605.32)
(-572.375 15512.7 -1605.26)
(-3257.43 15177.6 -1605.29)
(-5843.41 14381.3 -1605.27)
(-8252.13 13148.3 -1605.29)
(-10409.7 11515.5 -1605.32)
(-12251.3 9532.91 -1605.33)
(-13720.7 7260.68 -1605.33)
(-14772.9 4767.82 -1605.33)
(-15376.5 2130.07 -1605.32)
(-15512.7 -572.375 -1605.26)
(-15177.6 -3257.43 -1605.29)
(-14381.3 -5843.41 -1605.27)
(-13148.3 -8252.13 -1605.29)
(-11515.5 -10409.7 -1605.32)
(-9532.91 -12251.3 -1605.33)
(-7260.68 -13720.7 -1605.33)
(-4767.82 -14772.9 -1605.33)
(-2130.07 -15376.5 -1605.32)
(572.375 -15512.7 -1605.26)
(3257.43 -15177.6 -1605.29)
(5843.41 -14381.3 -1605.27)
(8252.13 -13148.3 -1605.29)
(10409.7 -11515.5 -1605.32)
(12251.3 -9532.91 -1605.33)
(13720.7 -7260.68 -1605.33)
(14772.9 -4767.82 -1605.33)
(15376.5 -2130.07 -1605.32)
(15512.7 572.375 -1605.26)
(14258 3541.27 -1946.61)
(13426.3 5963.15 -1946.58)
(12186.9 8204.13 -1946.57)
(10577.1 10195.7 -1946.52)
(8645.97 11877.5 -1946.55)
(6452.12 13198.5 -1946.56)
(4062.23 14118.2 -1946.56)
(1548.85 14609.3 -1946.63)
(-1011.38 14656 -1946.58)
(-3541.27 14258 -1946.61)
(-5963.15 13426.3 -1946.58)
(-8204.13 12186.9 -1946.57)
(-10195.7 10577.1 -1946.52)
(-11877.5 8645.97 -1946.55)
(-13198.5 6452.12 -1946.56)
(-14118.2 4062.23 -1946.56)
(-14609.3 1548.85 -1946.63)
(-14656 -1011.38 -1946.59)
(-14258 -3541.27 -1946.61)
(-13426.3 -5963.15 -1946.58)
(-12186.9 -8204.13 -1946.57)
(-10577.1 -10195.7 -1946.52)
(-8645.97 -11877.5 -1946.55)
(-6452.12 -13198.5 -1946.56)
(-4062.23 -14118.2 -1946.56)
(-1548.85 -14609.3 -1946.63)
(1011.38 -14656 -1946.58)
(3541.27 -14258 -1946.61)
(5963.15 -13426.3 -1946.58)
(8204.13 -12186.9 -1946.57)
(10195.7 -10577.1 -1946.52)
(11877.5 -8645.97 -1946.55)
(13198.5 -6452.12 -1946.56)
(14118.2 -4062.23 -1946.56)
(14609.3 -1548.85 -1946.63)
(14656 1011.38 -1946.58)
(12564.5 2884.9 -2296.64)
(11872.6 5022.79 -2296.6)
(10820.1 7008.14 -2296.68)
(9438.74 8780.56 -2296.65)
(7770.62 10286.2 -2296.65)
(5866.38 11479.4 -2296.69)
(3783.87 12323.7 -2296.66)
(1586.43 12793.5 -2296.65)
(-659.254 12874.6 -2296.63)
(-2884.9 12564.5 -2296.64)
(-5022.79 11872.6 -2296.6)
(-7008.14 10820.1 -2296.68)
(-8780.56 9438.74 -2296.65)
(-10286.2 7770.62 -2296.65)
(-11479.4 5866.38 -2296.69)
(-12323.7 3783.87 -2296.66)
(-12793.5 1586.43 -2296.65)
(-12874.6 -659.254 -2296.63)
(-12564.5 -2884.9 -2296.64)
(-11872.6 -5022.79 -2296.6)
(-10820.1 -7008.14 -2296.68)
(-9438.74 -8780.56 -2296.65)
(-7770.62 -10286.2 -2296.65)
(-5866.38 -11479.4 -2296.69)
(-3783.87 -12323.7 -2296.66)
(-1586.43 -12793.5 -2296.65)
(659.254 -12874.6 -2296.63)
(2884.9 -12564.5 -2296.64)
(5022.79 -11872.6 -2296.6)
(7008.14 -10820.1 -2296.68)
(8780.56 -9438.74 -2296.65)
(10286.2 -7770.62 -2296.65)
(11479.4 -5866.38 -2296.69)
(12323.7 -3783.87 -2296.66)
(12793.5 -1586.43 -2296.65)
(12874.6 659.254 -2296.63)
(10094.7 744.832 -2528.92)
(9812.03 2486.61 -2528.88)
(9231.14 4152.61 -2528.88)
(8369.84 5692.67 -2528.93)
(7254.17 7059.54 -2528.94)
(5918.11 8211.87 -2528.93)
(4402.23 9114.77 -2528.89)
(2752.56 9740.78 -2528.91)
(1019.16 10070.9 -2528.94)
(-744.832 10094.7 -2528.92)
(-2486.61 9812.03 -2528.88)
(-4152.61 9231.14 -2528.88)
(-5692.67 8369.84 -2528.93)
(-7059.54 7254.17 -2528.94)
(-8211.87 5918.11 -2528.93)
(-9114.77 4402.23 -2528.89)
(-9740.78 2752.56 -2528.91)
(-10070.9 1019.16 -2528.94)
(-10094.7 -744.832 -2528.92)
(-9812.03 -2486.61 -2528.88)
(-9231.14 -4152.61 -2528.88)
(-8369.84 -5692.67 -2528.93)
(-7254.17 -7059.54 -2528.94)
(-5918.11 -8211.87 -2528.93)
(-4402.23 -9114.77 -2528.89)
(-2752.56 -9740.78 -2528.91)
(-1019.16 -10070.9 -2528.94)
(744.832 -10094.7 -2528.92)
(2486.61 -9812.03 -2528.88)
(4152.61 -9231.14 -2528.88)
(5692.67 -8369.84 -2528.93)
(7059.54 -7254.17 -2528.94)
(8211.87 -5918.11 -2528.93)
(9114.77 -4402.23 -2528.89)
(9740.78 -2752.56 -2528.91)
(10070.9 -1019.16 -2528.94)
(6854.35 -3481.27 -2392.95)
(7354.78 -2238.06 -2392.98)
(7631.67 -926.93 -2392.95)
(7676.7 412.424 -2392.95)
(7488.46 1739.17 -2392.92)
(7072.71 3013.02 -2392.92)
(6442.03 4195.43 -2392.96)
(5615.63 5250.35 -2392.96)
(4618.52 6145.81 -2392.97)
(3481.27 6854.35 -2392.95)
(2238.06 7354.78 -2392.98)
(926.93 7631.67 -2392.95)
(-412.424 7676.7 -2392.95)
(-1739.17 7488.46 -2392.92)
(-3013.02 7072.71 -2392.92)
(-4195.43 6442.03 -2392.96)
(-5250.35 5615.63 -2392.96)
(-6145.81 4618.52 -2392.97)
(-6854.35 3481.27 -2392.95)
(-7354.78 2238.05 -2392.98)
(-7631.67 926.93 -2392.95)
(-7676.7 -412.425 -2392.95)
(-7488.46 -1739.17 -2392.92)
(-7072.71 -3013.02 -2392.92)
(-6442.03 -4195.43 -2392.96)
(-5615.63 -5250.35 -2392.96)
(-4618.52 -6145.81 -2392.97)
(-3481.27 -6854.35 -2392.95)
(-2238.05 -7354.78 -2392.98)
(-926.93 -7631.67 -2392.95)
(412.425 -7676.7 -2392.95)
(1739.17 -7488.46 -2392.92)
(3013.02 -7072.71 -2392.92)
(4195.43 -6442.03 -2392.96)
(5250.35 -5615.63 -2392.96)
(6145.81 -4618.52 -2392.97)
(3009.16 -10130.2 -1402.86)
(4722.61 -9453.58 -1402.92)
(6292.44 -8490.04 -1402.86)
(7671.11 -7268.26 -1402.91)
(8816.7 -5825.8 -1402.9)
(9694.39 -4206.28 -1402.9)
(10277.5 -2458.87 -1402.93)
(10548.5 -637.043 -1402.85)
(10498.7 1204.46 -1402.9)
(10130.2 3009.16 -1402.86)
(9453.58 4722.61 -1402.92)
(8490.04 6292.44 -1402.86)
(7268.26 7671.1 -1402.91)
(5825.8 8816.7 -1402.9)
(4206.28 9694.39 -1402.9)
(2458.87 10277.5 -1402.93)
(637.043 10548.5 -1402.85)
(-1204.46 10498.7 -1402.9)
(-3009.16 10130.2 -1402.86)
(-4722.61 9453.58 -1402.92)
(-6292.44 8490.04 -1402.86)
(-7671.1 7268.26 -1402.91)
(-8816.7 5825.8 -1402.9)
(-9694.39 4206.28 -1402.9)
(-10277.5 2458.87 -1402.93)
(-10548.5 637.042 -1402.85)
(-10498.7 -1204.46 -1402.9)
(-10130.2 -3009.16 -1402.86)
(-9453.58 -4722.61 -1402.92)
(-8490.04 -6292.44 -1402.86)
(-7268.26 -7671.1 -1402.91)
(-5825.8 -8816.7 -1402.9)
(-4206.28 -9694.39 -1402.9)
(-2458.87 -10277.5 -1402.93)
(-637.042 -10548.5 -1402.85)
(1204.46 -10498.7 -1402.9)
(-911.014 -18691.4 1355.32)
(2348.52 -18565.4 1355.26)
(5536.78 -17875.7 1355.29)
(8556.69 -16642.5 1355.27)
(11316.7 -14903.9 1355.27)
(13732.7 -12712.3 1355.24)
(15731.6 -10134.6 1355.31)
(17252.6 -7248.93 1355.35)
(18249.2 -4142.98 1355.36)
(18691.4 -911.015 1355.32)
(18565.4 2348.52 1355.26)
(17875.7 5536.78 1355.29)
(16642.5 8556.69 1355.26)
(14903.9 11316.7 1355.27)
(12712.3 13732.7 1355.24)
(10134.6 15731.6 1355.31)
(7248.93 17252.6 1355.35)
(4142.97 18249.2 1355.36)
(911.015 18691.4 1355.32)
(-2348.52 18565.4 1355.26)
(-5536.78 17875.7 1355.29)
(-8556.69 16642.5 1355.26)
(-11316.7 14903.9 1355.27)
(-13732.7 12712.3 1355.24)
(-15731.6 10134.6 1355.31)
(-17252.6 7248.93 1355.35)
(-18249.2 4142.98 1355.36)
(-18691.4 911.015 1355.32)
(-18565.4 -2348.52 1355.26)
(-17875.7 -5536.78 1355.29)
(-16642.5 -8556.69 1355.26)
(-14903.9 -11316.7 1355.27)
(-12712.3 -13732.7 1355.24)
(-10134.6 -15731.6 1355.31)
(-7248.93 -17252.6 1355.35)
(-4142.97 -18249.2 1355.36)
(-4157.25 -27568 7838.94)
(693.036 -27870.8 7838.78)
(5522.31 -27327.1 7838.84)
(10183.7 -25952.9 7838.76)
(14535.7 -23790.3 7838.76)
(18446.1 -20905 7838.92)
(21795.8 -17384.1 7838.83)
(24483.8 -13335.4 7839.08)
(26427.3 -8881.19 7838.95)
(27568 -4157.25 7838.94)
(27870.8 693.036 7838.77)
(27327.1 5522.31 7838.84)
(25952.9 10183.7 7838.75)
(23790.3 14535.7 7838.75)
(20905 18446.1 7838.92)
(17384.1 21795.8 7838.83)
(13335.4 24483.8 7839.08)
(8881.19 26427.3 7838.95)
(4157.25 27568 7838.94)
(-693.036 27870.8 7838.77)
(-5522.31 27327.1 7838.84)
(-10183.7 25952.9 7838.75)
(-14535.7 23790.3 7838.75)
(-18446.1 20905 7838.92)
(-21795.8 17384.1 7838.83)
(-24483.8 13335.4 7839.08)
(-26427.3 8881.19 7838.95)
(-27568 4157.26 7838.94)
(-27870.8 -693.035 7838.78)
(-27327.1 -5522.31 7838.84)
(-25952.9 -10183.7 7838.75)
(-23790.3 -14535.7 7838.75)
(-20905 -18446.1 7838.92)
(-17384.1 -21795.8 7838.82)
(-13335.4 -24483.8 7839.08)
(-8881.19 -26427.3 7838.95)
(-4422.46 -28971.8 17274)
(676.075 -29299.6 17273.8)
(5753.27 -28737 17273.9)
(10656.3 -27301.4 17273.9)
(15235.2 -25036.3 17274)
(19351.1 -22010.3 17273.9)
(22879.6 -18315.7 17274.2)
(25712.2 -14064.6 17274.2)
(27764.1 -9385.71 17274.1)
(28971.8 -4422.46 17274)
(29299.6 676.075 17273.8)
(28737 5753.27 17273.8)
(27301.4 10656.3 17273.9)
(25036.3 15235.2 17274)
(22010.3 19351.1 17273.9)
(18315.7 22879.6 17274.2)
(14064.6 25712.2 17274.1)
(9385.71 27764.1 17274.1)
(4422.46 28971.8 17274)
(-676.075 29299.6 17273.8)
(-5753.27 28737 17273.8)
(-10656.3 27301.4 17273.9)
(-15235.2 25036.3 17274)
(-19351.1 22010.3 17273.9)
(-22879.6 18315.7 17274.2)
(-25712.2 14064.6 17274.2)
(-27764.1 9385.71 17274.1)
(-28971.8 4422.46 17274)
(-29299.6 -676.075 17273.8)
(-28737 -5753.27 17273.9)
(-27301.4 -10656.3 17273.9)
(-25036.3 -15235.2 17274)
(-22010.3 -19351.1 17273.9)
(-18315.7 -22879.6 17274.2)
(-14064.6 -25712.2 17274.1)
(-9385.71 -27764.1 17274.1)
(-2695.83 -15182.5 16857.7)
(-18.299 -15419.7 16856.7)
(2659.21 -15187.8 16854.8)
(5257.77 -14498.1 16863.3)
(7691.73 -13360.1 16847.5)
(9900.29 -11826.5 16866.9)
(11798.5 -9924.24 16850.7)
(13345.6 -7726.27 16859.9)
(14483.5 -5290.91 16856.7)
(15182.5 -2695.83 16857.7)
(15419.7 -18.3007 16856.7)
(15187.8 2659.21 16854.8)
(14498.1 5257.76 16863.3)
(13360.1 7691.73 16847.5)
(11826.5 9900.29 16866.9)
(9924.24 11798.5 16850.7)
(7726.27 13345.6 16859.9)
(5290.91 14483.5 16856.7)
(2695.83 15182.5 16857.7)
(18.2991 15419.7 16856.7)
(-2659.21 15187.8 16854.8)
(-5257.77 14498.1 16863.3)
(-7691.73 13360.1 16847.5)
(-9900.29 11826.5 16866.9)
(-11798.5 9924.24 16850.7)
(-13345.6 7726.27 16859.9)
(-14483.5 5290.91 16856.7)
(-15182.5 2695.83 16857.7)
(-15419.7 18.2996 16856.7)
(-15187.8 -2659.21 16854.8)
(-14498.1 -5257.77 16863.3)
(-13360.1 -7691.72 16847.5)
(-11826.5 -9900.29 16866.9)
(-9924.24 -11798.5 16850.7)
(-7726.28 -13345.6 16859.9)
(-5290.91 -14483.5 16856.7)
)
;
    }
    outside
    {
        type            calculated;
        value           nonuniform List<vector> 
540
(
(15461 1936.73 96.4851)
(14889.8 4592.23 96.4981)
(13866.2 7107.94 96.4781)
(12421.2 9407.64 96.5116)
(10598.8 11421.7 96.5479)
(8454.42 13088.8 96.5177)
(6053.21 14358 96.4778)
(3468.14 15191 96.4859)
(777.429 15562.5 96.4848)
(-1936.73 15461 96.485)
(-4592.23 14889.8 96.4979)
(-7107.94 13866.2 96.478)
(-9407.64 12421.2 96.5115)
(-11421.7 10598.8 96.5478)
(-13088.8 8454.42 96.5175)
(-14358 6053.21 96.4776)
(-15191 3468.14 96.4857)
(-15562.5 777.429 96.4847)
(-15461 -1936.73 96.4848)
(-14889.8 -4592.23 96.4978)
(-13866.2 -7107.94 96.4779)
(-12421.2 -9407.64 96.5113)
(-10598.8 -11421.7 96.5477)
(-8454.42 -13088.8 96.5175)
(-6053.21 -14358 96.4776)
(-3468.14 -15191 96.4857)
(-777.429 -15562.5 96.4847)
(1936.73 -15461 96.4848)
(4592.23 -14889.8 96.4978)
(7107.94 -13866.2 96.4779)
(9407.64 -12421.2 96.5114)
(11421.7 -10598.8 96.5478)
(13088.8 -8454.42 96.5176)
(14358 -6053.21 96.4777)
(15191 -3468.14 96.4859)
(15562.5 -777.429 96.4849)
(3753.24 1996.29 91.2936)
(3349.53 2617.89 91.2978)
(2844.16 3159.76 91.298)
(2252.21 3605.4 91.3004)
(1591.85 3941.84 91.2886)
(883.099 4158.52 91.2886)
(147.669 4248.54 91.3071)
(-592.263 4209.73 91.3008)
(-1314.46 4042.91 91.2865)
(-1996.29 3753.24 91.2936)
(-2617.89 3349.53 91.2978)
(-3159.76 2844.16 91.298)
(-3605.4 2252.21 91.3004)
(-3941.84 1591.85 91.2886)
(-4158.52 883.099 91.2886)
(-4248.54 147.669 91.3071)
(-4209.73 -592.262 91.3008)
(-4042.91 -1314.46 91.2864)
(-3753.24 -1996.29 91.2936)
(-3349.53 -2617.89 91.2978)
(-2844.16 -3159.76 91.298)
(-2252.21 -3605.4 91.3003)
(-1591.85 -3941.84 91.2886)
(-883.099 -4158.52 91.2886)
(-147.669 -4248.54 91.3071)
(592.263 -4209.73 91.3008)
(1314.46 -4042.91 91.2865)
(1996.29 -3753.24 91.2936)
(2617.89 -3349.53 91.2978)
(3159.76 -2844.16 91.2981)
(3605.4 -2252.21 91.3004)
(3941.84 -1591.85 91.2886)
(4158.52 -883.099 91.2886)
(4248.54 -147.669 91.3071)
(4209.73 592.263 91.3008)
(4042.91 1314.46 91.2865)
(4221.63 3533.22 -133.447)
(3543.76 4212.6 -133.446)
(2758.53 4764.11 -133.46)
(1889.27 5170.61 -133.456)
(962.763 5420.21 -133.467)
(6.95843 5505.11 -133.465)
(-949.107 5422.48 -133.446)
(-1876.33 5175.39 -133.449)
(-2746.57 4770.86 -133.437)
(-3533.22 4221.63 -133.447)
(-4212.6 3543.76 -133.446)
(-4764.11 2758.53 -133.46)
(-5170.61 1889.27 -133.456)
(-5420.21 962.763 -133.467)
(-5505.11 6.9585 -133.465)
(-5422.48 -949.107 -133.446)
(-5175.39 -1876.33 -133.449)
(-4770.86 -2746.57 -133.437)
(-4221.63 -3533.22 -133.447)
(-3543.76 -4212.6 -133.446)
(-2758.53 -4764.11 -133.46)
(-1889.27 -5170.61 -133.456)
(-962.763 -5420.21 -133.467)
(-6.95849 -5505.11 -133.465)
(949.107 -5422.48 -133.446)
(1876.33 -5175.39 -133.449)
(2746.57 -4770.86 -133.437)
(3533.22 -4221.63 -133.447)
(4212.6 -3543.76 -133.446)
(4764.11 -2758.53 -133.46)
(5170.61 -1889.27 -133.456)
(5420.21 -962.763 -133.467)
(5505.11 -6.95844 -133.465)
(5422.48 949.107 -133.446)
(5175.39 1876.33 -133.449)
(4770.86 2746.57 -133.437)
(4039.11 4939.18 -363.06)
(3120.06 5565.66 -363.067)
(2106.16 6022.76 -363.056)
(1028.39 6297.05 -363.052)
(-80.7092 6379.97 -363.047)
(-1187.35 6269.06 -363.053)
(-2257.92 5967.63 -363.062)
(-3259.79 5484.74 -363.05)
(-4162.82 4835.41 -363.06)
(-4939.18 4039.11 -363.06)
(-5565.66 3120.06 -363.067)
(-6022.76 2106.16 -363.056)
(-6297.05 1028.39 -363.052)
(-6379.97 -80.709 -363.047)
(-6269.06 -1187.35 -363.053)
(-5967.63 -2257.92 -363.062)
(-5484.74 -3259.79 -363.05)
(-4835.41 -4162.82 -363.06)
(-4039.11 -4939.18 -363.06)
(-3120.06 -5565.66 -363.067)
(-2106.16 -6022.76 -363.056)
(-1028.39 -6297.05 -363.052)
(80.709 -6379.97 -363.047)
(1187.35 -6269.06 -363.053)
(2257.92 -5967.63 -363.062)
(3259.79 -5484.74 -363.05)
(4162.82 -4835.41 -363.06)
(4939.18 -4039.11 -363.06)
(5565.66 -3120.06 -363.067)
(6022.76 -2106.16 -363.056)
(6297.05 -1028.39 -363.052)
(6379.97 80.7091 -363.047)
(6269.06 1187.35 -363.052)
(5967.63 2257.92 -363.062)
(5484.74 3259.79 -363.05)
(4835.41 4162.82 -363.06)
(3740.15 6326.62 -617.307)
(2584.77 6880.16 -617.326)
(1350.69 7224.24 -617.299)
(75.817 7349.14 -617.314)
(-1201.58 7250.64 -617.304)
(-2442.45 6931.82 -617.303)
(-3608.99 6402.56 -617.321)
(-4665.83 5678.3 -617.294)
(-5581.13 4781.98 -617.315)
(-6326.62 3740.15 -617.307)
(-6880.16 2584.77 -617.326)
(-7224.24 1350.69 -617.299)
(-7349.15 75.8173 -617.314)
(-7250.64 -1201.58 -617.304)
(-6931.82 -2442.45 -617.303)
(-6402.56 -3608.99 -617.321)
(-5678.3 -4665.83 -617.294)
(-4781.98 -5581.13 -617.315)
(-3740.15 -6326.62 -617.307)
(-2584.77 -6880.16 -617.326)
(-1350.69 -7224.24 -617.299)
(-75.8173 -7349.15 -617.314)
(1201.58 -7250.64 -617.304)
(2442.45 -6931.82 -617.303)
(3608.99 -6402.56 -617.321)
(4665.83 -5678.3 -617.294)
(5581.13 -4781.98 -617.315)
(6326.62 -3740.15 -617.307)
(6880.16 -2584.77 -617.326)
(7224.24 -1350.69 -617.299)
(7349.14 -75.8171 -617.314)
(7250.64 1201.58 -617.304)
(6931.82 2442.45 -617.303)
(6402.56 3608.99 -617.321)
(5678.3 4665.83 -617.294)
(4781.98 5581.13 -617.315)
(3144.48 7639.3 -852.903)
(1770.26 8069.41 -852.919)
(342.015 8254.14 -852.905)
(-1096.4 8188.19 -852.923)
(-2501.66 7873.33 -852.914)
(-3830.87 7319.27 -852.906)
(-5043.59 6542.91 -852.907)
(-6103.14 5567.59 -852.888)
(-6977.33 4423.37 -852.921)
(-7639.3 3144.48 -852.903)
(-8069.41 1770.26 -852.919)
(-8254.14 342.015 -852.906)
(-8188.19 -1096.4 -852.923)
(-7873.33 -2501.66 -852.914)
(-7319.27 -3830.87 -852.906)
(-6542.91 -5043.59 -852.907)
(-5567.59 -6103.14 -852.888)
(-4423.37 -6977.33 -852.921)
(-3144.48 -7639.3 -852.903)
(-1770.26 -8069.41 -852.919)
(-342.015 -8254.14 -852.906)
(1096.4 -8188.19 -852.923)
(2501.66 -7873.33 -852.914)
(3830.87 -7319.27 -852.906)
(5043.59 -6542.91 -852.907)
(6103.14 -5567.59 -852.888)
(6977.33 -4423.37 -852.921)
(7639.3 -3144.48 -852.903)
(8069.41 -1770.26 -852.919)
(8254.14 -342.015 -852.905)
(8188.19 1096.4 -852.923)
(7873.33 2501.66 -852.914)
(7319.27 3830.87 -852.906)
(6542.91 5043.59 -852.907)
(5567.59 6103.14 -852.888)
(4423.37 6977.33 -852.921)
(2179.08 8798.86 -1011.41)
(618.176 9043.66 -1011.44)
(-961.841 9013.45 -1011.4)
(-2512.22 8709.81 -1011.46)
(-3986.56 8140.95 -1011.42)
(-5339.63 7324.92 -1011.4)
(-6530.47 6286.69 -1011.43)
(-7522.95 5056.93 -1011.4)
(-8286.84 3673.95 -1011.42)
(-8798.86 2179.08 -1011.41)
(-9043.66 618.176 -1011.44)
(-9013.45 -961.841 -1011.4)
(-8709.81 -2512.22 -1011.46)
(-8140.95 -3986.56 -1011.42)
(-7324.92 -5339.63 -1011.4)
(-6286.69 -6530.47 -1011.43)
(-5056.93 -7522.95 -1011.4)
(-3673.95 -8286.84 -1011.42)
(-2179.08 -8798.86 -1011.41)
(-618.176 -9043.66 -1011.44)
(961.841 -9013.45 -1011.4)
(2512.22 -8709.81 -1011.46)
(3986.56 -8140.95 -1011.42)
(5339.63 -7324.92 -1011.4)
(6530.47 -6286.69 -1011.43)
(7522.95 -5056.93 -1011.4)
(8286.84 -3673.95 -1011.42)
(8798.86 -2179.08 -1011.41)
(9043.66 -618.176 -1011.44)
(9013.45 961.841 -1011.4)
(8709.81 2512.22 -1011.46)
(8140.95 3986.56 -1011.42)
(7324.92 5339.63 -1011.4)
(6286.69 6530.47 -1011.43)
(5056.93 7522.95 -1011.4)
(3673.95 8286.84 -1011.42)
(759.094 9638.89 -995.741)
(-926.247 9624.22 -995.722)
(-2583.46 9317.15 -995.71)
(-4162.09 8727.11 -995.733)
(-5614.3 7871.64 -995.706)
(-6895.88 6777.1 -995.703)
(-7967.98 5476.78 -995.725)
(-8797.99 4009.88 -995.71)
(-9360.61 2421.2 -995.709)
(-9638.89 759.094 -995.741)
(-9624.22 -926.247 -995.722)
(-9317.15 -2583.46 -995.71)
(-8727.11 -4162.09 -995.733)
(-7871.64 -5614.3 -995.706)
(-6777.1 -6895.88 -995.703)
(-5476.78 -7967.98 -995.725)
(-4009.89 -8797.99 -995.71)
(-2421.2 -9360.61 -995.709)
(-759.094 -9638.89 -995.741)
(926.247 -9624.22 -995.722)
(2583.46 -9317.15 -995.71)
(4162.09 -8727.11 -995.733)
(5614.3 -7871.64 -995.706)
(6895.88 -6777.1 -995.703)
(7967.98 -5476.78 -995.725)
(8797.99 -4009.89 -995.71)
(9360.61 -2421.2 -995.709)
(9638.89 -759.094 -995.741)
(9624.22 926.248 -995.721)
(9317.14 2583.46 -995.71)
(8727.11 4162.09 -995.733)
(7871.64 5614.3 -995.706)
(6777.1 6895.88 -995.703)
(5476.78 7967.98 -995.725)
(4009.89 8797.99 -995.71)
(2421.2 9360.61 -995.709)
(-1161.06 9886.84 -629.817)
(-2860.19 9535.11 -629.833)
(-4472.53 8893.61 -629.834)
(-5948.93 7981.79 -629.829)
(-7244.58 6827.52 -629.832)
(-8320.11 5465.8 -629.833)
(-9142.81 3937.93 -629.818)
(-9687.78 2290.53 -629.833)
(-9938.41 573.55 -629.847)
(-9886.84 -1161.06 -629.817)
(-9535.11 -2860.19 -629.833)
(-8893.61 -4472.53 -629.834)
(-7981.79 -5948.94 -629.829)
(-6827.52 -7244.58 -629.832)
(-5465.8 -8320.11 -629.833)
(-3937.93 -9142.81 -629.818)
(-2290.53 -9687.78 -629.834)
(-573.551 -9938.41 -629.847)
(1161.06 -9886.84 -629.817)
(2860.19 -9535.11 -629.833)
(4472.53 -8893.61 -629.834)
(5948.93 -7981.79 -629.829)
(7244.58 -6827.52 -629.832)
(8320.11 -5465.8 -629.833)
(9142.81 -3937.93 -629.818)
(9687.78 -2290.53 -629.834)
(9938.41 -573.55 -629.847)
(9886.84 1161.06 -629.817)
(9535.11 2860.19 -629.833)
(8893.61 4472.53 -629.834)
(7981.79 5948.94 -629.829)
(6827.52 7244.58 -629.832)
(5465.8 8320.11 -629.833)
(3937.93 9142.81 -629.818)
(2290.53 9687.78 -629.834)
(573.551 9938.41 -629.847)
(-3438.67 9209.61 385.442)
(-4985.68 8472.52 385.468)
(-6381.17 7478.08 385.45)
(-7582.77 6256.46 385.419)
(-8553.99 4844.65 385.434)
(-9265.29 3285.63 385.453)
(-9695.08 1626.81 385.448)
(-9830.33 -81.353 385.412)
(-9666.81 -1787.19 385.441)
(-9209.61 -3438.67 385.442)
(-8472.52 -4985.68 385.469)
(-7478.08 -6381.17 385.451)
(-6256.46 -7582.77 385.419)
(-4844.65 -8553.99 385.434)
(-3285.63 -9265.29 385.452)
(-1626.81 -9695.08 385.448)
(81.3526 -9830.33 385.412)
(1787.19 -9666.81 385.44)
(3438.67 -9209.6 385.442)
(4985.68 -8472.52 385.468)
(6381.17 -7478.08 385.45)
(7582.77 -6256.46 385.419)
(8553.99 -4844.65 385.434)
(9265.29 -3285.63 385.452)
(9695.08 -1626.81 385.447)
(9830.33 81.3526 385.411)
(9666.81 1787.19 385.44)
(9209.6 3438.67 385.442)
(8472.52 4985.68 385.468)
(7478.08 6381.17 385.45)
(6256.46 7582.77 385.419)
(4844.65 8553.99 385.434)
(3285.63 9265.29 385.452)
(1626.81 9695.08 385.448)
(-81.3524 9830.33 385.412)
(-1787.2 9666.8 385.44)
(-5493.52 7549.79 2412.86)
(-6721.12 6481.06 2412.91)
(-7744.46 5215.41 2412.9)
(-8532.44 3791.51 2412.87)
(-9061.21 2252.28 2412.86)
(-9314.63 644.548 2412.89)
(-9285.11 -982.582 2412.84)
(-8973.31 -2580.18 2412.87)
(-8388.89 -4099.23 2412.9)
(-7549.79 -5493.52 2412.86)
(-6481.06 -6721.12 2412.91)
(-5215.41 -7744.46 2412.9)
(-3791.51 -8532.44 2412.87)
(-2252.28 -9061.21 2412.86)
(-644.549 -9314.63 2412.89)
(982.581 -9285.11 2412.84)
(2580.18 -8973.31 2412.87)
(4099.23 -8388.89 2412.9)
(5493.52 -7549.79 2412.86)
(6721.12 -6481.06 2412.91)
(7744.46 -5215.41 2412.9)
(8532.44 -3791.51 2412.87)
(9061.21 -2252.28 2412.86)
(9314.63 -644.549 2412.89)
(9285.11 982.581 2412.84)
(8973.31 2580.18 2412.87)
(8388.89 4099.23 2412.9)
(7549.79 5493.52 2412.86)
(6481.05 6721.12 2412.91)
(5215.41 7744.46 2412.9)
(3791.5 8532.44 2412.87)
(2252.28 9061.21 2412.86)
(644.548 9314.63 2412.89)
(-982.581 9285.11 2412.84)
(-2580.18 8973.32 2412.87)
(-4099.23 8388.89 2412.9)
(-6300.3 5717.82 5535.47)
(-7197.56 4536.79 5535.51)
(-7876 3218.14 5535.44)
(-8315.16 1801.56 5535.5)
(-8501.7 330.343 5535.44)
(-8429.91 -1151.03 5535.44)
(-8102 -2597.28 5535.4)
(-7527.88 -3964.73 5535.41)
(-6724.77 -5211.98 5535.57)
(-5717.82 -6300.3 5535.47)