/*--------------------------------*- C++ -*----------------------------------*\
| =========                 |                                                 |
| \\      /  F ield         | OpenFOAM: The Open Source CFD Toolbox           |
|  \\    /   O peration     | Version:  2312                                  |
|   \\  /    A nd           | Website:  www.openfoam.com                      |
|    \\/     M anipulation  |                                                 |
\*---------------------------------------------------------------------------*/
FoamFile
{
    version     2.0;
    format      ascii;
    arch        "LSB;label=32;scalar=64";
    class       volVectorField;
    location    "0.4";
    object      U;
}
// * * * * * * * * * * * * * * * * * * * * * * * * * * * * * * * * * * * * * //

dimensions      [0 1 -1 0 0 0 0];

internalField   nonuniform List<vector> 
1620
(
(-0.000163912 -0.000118959 -0.000196078)
(-0.000140765 -0.000145615 -0.000196078)
(-0.000113341 -0.000167847 -0.000196078)
(-8.24727e-05 -0.000184977 -0.000196078)
(-4.90985e-05 -0.000196487 -0.000196078)
(-1.4233e-05 -0.000202029 -0.000196078)
(2.10646e-05 -0.000201431 -0.000196077)
(5.57225e-05 -0.000194712 -0.000196077)
(8.86884e-05 -0.000182079 -0.000196078)
(0.000118959 -0.000163912 -0.000196078)
(0.000145615 -0.000140764 -0.000196078)
(0.000167846 -0.000113341 -0.000196078)
(0.000184977 -8.24726e-05 -0.000196078)
(0.000196487 -4.90984e-05 -0.000196078)
(0.000202028 -1.42329e-05 -0.000196078)
(0.000201431 2.10647e-05 -0.000196077)
(0.000194712 5.57226e-05 -0.000196077)
(0.000182078 8.86884e-05 -0.000196078)
(0.000163912 0.000118959 -0.000196078)
(0.000140764 0.000145615 -0.000196078)
(0.000113341 0.000167847 -0.000196078)
(8.24725e-05 0.000184977 -0.000196078)
(4.90983e-05 0.000196487 -0.000196078)
(1.42328e-05 0.000202028 -0.000196078)
(-2.10648e-05 0.000201431 -0.000196077)
(-5.57227e-05 0.000194712 -0.000196077)
(-8.86885e-05 0.000182079 -0.000196078)
(-0.000118959 0.000163912 -0.000196078)
(-0.000145615 0.000140764 -0.000196078)
(-0.000167847 0.000113341 -0.000196078)
(-0.000184977 8.24726e-05 -0.000196078)
(-0.000196487 4.90985e-05 -0.000196078)
(-0.000202029 1.42329e-05 -0.000196078)
(-0.000201431 -2.10647e-05 -0.000196077)
(-0.000194712 -5.57226e-05 -0.000196077)
(-0.000182079 -8.86884e-05 -0.000196078)
(-6.67058e-05 6.34134e-05 -0.00012675)
(-7.67039e-05 5.08665e-05 -0.00012675)
(-8.43714e-05 3.67742e-05 -0.00012675)
(-8.94755e-05 2.15647e-05 -0.000126749)
(-9.18612e-05 5.70003e-06 -0.00012675)
(-9.14555e-05 -1.03379e-05 -0.000126749)
(-8.8271e-05 -2.60619e-05 -0.000126749)
(-8.24046e-05 -4.09939e-05 -0.000126749)
(-7.40337e-05 -5.46807e-05 -0.000126749)
(-6.34135e-05 -6.67057e-05 -0.000126749)
(-5.08666e-05 -7.67038e-05 -0.00012675)
(-3.67743e-05 -8.43713e-05 -0.000126749)
(-2.15648e-05 -8.94754e-05 -0.000126749)
(-5.70014e-06 -9.18611e-05 -0.00012675)
(1.03378e-05 -9.14554e-05 -0.000126749)
(2.60618e-05 -8.8271e-05 -0.000126749)
(4.09938e-05 -8.24045e-05 -0.000126749)
(5.46805e-05 -7.40336e-05 -0.000126749)
(6.67056e-05 -6.34134e-05 -0.000126749)
(7.67037e-05 -5.08665e-05 -0.00012675)
(8.43712e-05 -3.67742e-05 -0.000126749)
(8.94753e-05 -2.15647e-05 -0.000126749)
(9.1861e-05 -5.70007e-06 -0.00012675)
(9.14553e-05 1.03379e-05 -0.000126749)
(8.82709e-05 2.60618e-05 -0.000126749)
(8.24045e-05 4.09938e-05 -0.000126749)
(7.40336e-05 5.46806e-05 -0.000126749)
(6.34134e-05 6.67057e-05 -0.000126749)
(5.08665e-05 7.67038e-05 -0.00012675)
(3.67741e-05 8.43713e-05 -0.000126749)
(2.15646e-05 8.94754e-05 -0.000126749)
(5.69996e-06 9.18611e-05 -0.00012675)
(-1.0338e-05 9.14554e-05 -0.000126749)
(-2.6062e-05 8.82709e-05 -0.000126749)
(-4.09939e-05 8.24045e-05 -0.000126749)
(-5.46807e-05 7.40336e-05 -0.000126749)
(-1.31776e-05 0.000251432 -7.43489e-05)
(-5.6638e-05 0.000245324 -7.43489e-05)
(-9.83779e-05 0.000231763 -7.43491e-05)
(-0.000137128 0.000211159 -7.43489e-05)
(-0.000171713 0.000184139 -7.4349e-05)
(-0.000201079 0.000151524 -7.43488e-05)
(-0.000224336 0.000114304 -7.43491e-05)
(-0.000240777 7.36121e-05 -7.43492e-05)
(-0.000249901 3.06833e-05 -7.43489e-05)
(-0.000251433 -1.31775e-05 -7.43489e-05)
(-0.000245324 -5.6638e-05 -7.43488e-05)
(-0.000231763 -9.83778e-05 -7.43491e-05)
(-0.000211159 -0.000137128 -7.43488e-05)
(-0.000184139 -0.000171713 -7.4349e-05)
(-0.000151524 -0.000201079 -7.43488e-05)
(-0.000114304 -0.000224336 -7.4349e-05)
(-7.36122e-05 -0.000240777 -7.43492e-05)
(-3.06834e-05 -0.000249901 -7.43489e-05)
(1.31775e-05 -0.000251433 -7.43488e-05)
(5.66379e-05 -0.000245324 -7.43488e-05)
(9.83777e-05 -0.000231763 -7.43491e-05)
(0.000137128 -0.000211159 -7.43488e-05)
(0.000171712 -0.000184139 -7.4349e-05)
(0.000201079 -0.000151524 -7.43488e-05)
(0.000224336 -0.000114304 -7.43491e-05)
(0.000240777 -7.36121e-05 -7.43492e-05)
(0.000249901 -3.06834e-05 -7.4349e-05)
(0.000251432 1.31775e-05 -7.43489e-05)
(0.000245324 5.66379e-05 -7.43488e-05)
(0.000231763 9.83778e-05 -7.43491e-05)
(0.000211158 0.000137128 -7.43489e-05)
(0.000184138 0.000171713 -7.4349e-05)
(0.000151524 0.000201079 -7.43489e-05)
(0.000114304 0.000224336 -7.43491e-05)
(7.3612e-05 0.000240777 -7.43492e-05)
(3.06833e-05 0.000249901 -7.4349e-05)
(-0.000279749 -0.000194711 -0.000552851)
(-0.000241687 -0.000240332 -0.000552852)
(-0.000196283 -0.000278649 -0.000552851)
(-0.000144915 -0.000308499 -0.000552849)
(-8.91434e-05 -0.000328974 -0.000552848)
(-3.06629e-05 -0.000339456 -0.000552849)
(2.87488e-05 -0.000339624 -0.000552849)
(8.72873e-05 -0.000329472 -0.000552849)
(0.000143175 -0.000309309 -0.00055285)
(0.000194711 -0.000279748 -0.000552851)
(0.000240332 -0.000241687 -0.000552852)
(0.000278649 -0.000196283 -0.000552851)
(0.000308498 -0.000144915 -0.000552849)
(0.000328974 -8.91431e-05 -0.000552848)
(0.000339455 -3.06626e-05 -0.000552849)
(0.000339623 2.8749e-05 -0.000552849)
(0.000329471 8.72876e-05 -0.000552849)
(0.000309309 0.000143175 -0.00055285)
(0.000279748 0.000194711 -0.00055285)
(0.000241687 0.000240332 -0.000552852)
(0.000196283 0.000278649 -0.000552851)
(0.000144915 0.000308498 -0.000552849)
(8.91429e-05 0.000328974 -0.000552848)
(3.06623e-05 0.000339456 -0.000552849)
(-2.87493e-05 0.000339623 -0.000552849)
(-8.72878e-05 0.000329471 -0.000552849)
(-0.000143175 0.000309309 -0.00055285)
(-0.000194712 0.000279748 -0.000552851)
(-0.000240332 0.000241687 -0.000552852)
(-0.00027865 0.000196283 -0.000552851)
(-0.000308499 0.000144915 -0.000552849)
(-0.000328975 8.91432e-05 -0.000552848)
(-0.000339456 3.06626e-05 -0.000552849)
(-0.000339624 -2.8749e-05 -0.000552849)
(-0.000329472 -8.72875e-05 -0.00055285)
(-0.00030931 -0.000143175 -0.00055285)
(-0.000212178 0.000202772 -0.000384933)
(-0.000244165 0.000162846 -0.000384933)
(-0.000268734 0.000117973 -0.000384933)
(-0.000285137 6.9517e-05 -0.000384932)
(-0.000292877 1.89483e-05 -0.000384932)
(-0.000291718 -3.21975e-05 -0.000384932)
(-0.000281695 -8.23649e-05 -0.000384932)
(-0.000263113 -0.000130029 -0.000384932)
(-0.000236536 -0.000173743 -0.000384932)
(-0.000202772 -0.000212178 -0.000384932)
(-0.000162846 -0.000244165 -0.000384933)
(-0.000117974 -0.000268733 -0.000384933)
(-6.95173e-05 -0.000285137 -0.000384932)
(-1.89486e-05 -0.000292877 -0.000384932)
(3.21972e-05 -0.000291718 -0.000384932)
(8.23646e-05 -0.000281695 -0.000384932)
(0.000130029 -0.000263113 -0.000384932)
(0.000173743 -0.000236536 -0.000384932)
(0.000212177 -0.000202772 -0.000384932)
(0.000244164 -0.000162846 -0.000384933)
(0.000268733 -0.000117974 -0.000384933)
(0.000285137 -6.95171e-05 -0.000384932)
(0.000292877 -1.89484e-05 -0.000384932)
(0.000291718 3.21974e-05 -0.000384932)
(0.000281695 8.23648e-05 -0.000384932)
(0.000263112 0.000130029 -0.000384932)
(0.000236536 0.000173743 -0.000384932)
(0.000202771 0.000212178 -0.000384933)
(0.000162846 0.000244165 -0.000384933)
(0.000117973 0.000268733 -0.000384933)
(6.95168e-05 0.000285137 -0.000384932)
(1.89481e-05 0.000292877 -0.000384932)
(-3.21978e-05 0.000291718 -0.000384932)
(-8.23652e-05 0.000281695 -0.000384932)
(-0.00013003 0.000263113 -0.000384932)
(-0.000173743 0.000236536 -0.000384932)
(-0.000200391 0.000595714 -0.000222328)
(-0.000300791 0.000551866 -0.000222327)
(-0.000392051 0.00049125 -0.000222327)
(-0.000471399 0.000415708 -0.000222327)
(-0.000536424 0.000327535 -0.000222327)
(-0.000585152 0.00022941 -0.000222327)
(-0.000616099 0.000124313 -0.000222328)
(-0.000628326 1.54407e-05 -0.000222327)
(-0.000621461 -9.39017e-05 -0.000222327)
(-0.000595714 -0.000200391 -0.000222327)
(-0.000551866 -0.00030079 -0.000222327)
(-0.00049125 -0.00039205 -0.000222327)
(-0.000415709 -0.000471399 -0.000222327)
(-0.000327535 -0.000536424 -0.000222327)
(-0.00022941 -0.000585151 -0.000222327)
(-0.000124314 -0.000616098 -0.000222327)
(-1.5441e-05 -0.000628326 -0.000222327)
(9.39014e-05 -0.000621461 -0.000222327)
(0.000200391 -0.000595714 -0.000222327)
(0.00030079 -0.000551866 -0.000222327)
(0.00039205 -0.00049125 -0.000222327)
(0.000471399 -0.000415708 -0.000222327)
(0.000536424 -0.000327535 -0.000222327)
(0.000585151 -0.00022941 -0.000222327)
(0.000616098 -0.000124314 -0.000222328)
(0.000628326 -1.54408e-05 -0.000222327)
(0.000621461 9.39017e-05 -0.000222328)
(0.000595713 0.000200391 -0.000222328)
(0.000551866 0.00030079 -0.000222327)
(0.00049125 0.00039205 -0.000222327)
(0.000415708 0.000471399 -0.000222327)
(0.000327535 0.000536424 -0.000222327)
(0.00022941 0.000585151 -0.000222327)
(0.000124313 0.000616098 -0.000222328)
(1.54405e-05 0.000628326 -0.000222327)
(-9.39019e-05 0.000621461 -0.000222328)
(-0.00036612 -0.000190554 -0.000973356)
(-0.000327468 -0.000251236 -0.000973356)
(-0.000278867 -0.000304283 -0.000973356)
(-0.000221793 -0.000348083 -0.000973354)
(-0.000157981 -0.000381307 -0.000973353)
(-8.93667e-05 -0.000402947 -0.000973352)
(-1.80373e-05 -0.000412344 -0.000973353)
(5.38406e-05 -0.000409211 -0.000973353)
(0.000124083 -0.000393646 -0.000973355)
(0.000190554 -0.000366119 -0.000973356)
(0.000251236 -0.000327468 -0.000973356)
(0.000304282 -0.000278867 -0.000973356)
(0.000348083 -0.000221793 -0.000973354)
(0.000381307 -0.00015798 -0.000973352)
(0.000402946 -8.93663e-05 -0.000973352)
(0.000412343 -1.80369e-05 -0.000973352)
(0.000409211 5.3841e-05 -0.000973353)
(0.000393645 0.000124083 -0.000973355)
(0.000366119 0.000190554 -0.000973356)
(0.000327467 0.000251236 -0.000973356)
(0.000278866 0.000304283 -0.000973356)
(0.000221792 0.000348083 -0.000973354)
(0.00015798 0.000381307 -0.000973352)
(8.93658e-05 0.000402947 -0.000973352)
(1.80364e-05 0.000412344 -0.000973353)
(-5.38414e-05 0.000409211 -0.000973353)
(-0.000124083 0.000393646 -0.000973355)
(-0.000190555 0.000366119 -0.000973356)
(-0.000251236 0.000327468 -0.000973356)
(-0.000304283 0.000278867 -0.000973356)
(-0.000348084 0.000221793 -0.000973354)
(-0.000381308 0.00015798 -0.000973353)
(-0.000402947 8.93663e-05 -0.000973352)
(-0.000412344 1.80369e-05 -0.000973353)
(-0.000409212 -5.3841e-05 -0.000973354)
(-0.000393646 -0.000124083 -0.000973355)
(-0.000356409 0.000366006 -0.000722279)
(-0.000414551 0.000298556 -0.000722279)
(-0.000460096 0.000222034 -0.000722279)
(-0.000491662 0.000138768 -0.000722278)
(-0.000508291 5.12845e-05 -0.000722277)
(-0.000509473 -3.7759e-05 -0.000722278)
(-0.000495176 -0.000125655 -0.000722278)
(-0.000465834 -0.000209733 -0.000722278)
(-0.000422336 -0.000287438 -0.000722278)
(-0.000366007 -0.000356409 -0.000722279)
(-0.000298556 -0.00041455 -0.000722279)
(-0.000222035 -0.000460096 -0.000722279)
(-0.000138768 -0.000491662 -0.000722278)
(-5.12851e-05 -0.00050829 -0.000722277)
(3.77585e-05 -0.000509473 -0.000722277)
(0.000125654 -0.000495176 -0.000722277)
(0.000209732 -0.000465833 -0.000722278)
(0.000287437 -0.000422336 -0.000722278)
(0.000356408 -0.000366006 -0.000722279)
(0.00041455 -0.000298556 -0.000722279)
(0.000460095 -0.000222035 -0.000722279)
(0.000491662 -0.000138768 -0.000722278)
(0.00050829 -5.12847e-05 -0.000722277)
(0.000509472 3.77588e-05 -0.000722277)
(0.000495175 0.000125655 -0.000722278)
(0.000465833 0.000209733 -0.000722278)
(0.000422336 0.000287438 -0.000722278)
(0.000366006 0.000356409 -0.000722279)
(0.000298556 0.00041455 -0.000722279)
(0.000222034 0.000460096 -0.000722279)
(0.000138767 0.000491662 -0.000722278)
(5.12842e-05 0.00050829 -0.000722277)
(-3.77593e-05 0.000509473 -0.000722278)
(-0.000125655 0.000495176 -0.000722278)
(-0.000209733 0.000465833 -0.000722278)
(-0.000287438 0.000422336 -0.000722279)
(-0.000414879 0.000900506 -0.000479488)
(-0.000564947 0.000814783 -0.000479488)
(-0.000697849 0.000704303 -0.000479488)
(-0.000809548 0.000572424 -0.000479488)
(-0.000896649 0.000423151 -0.000479489)
(-0.000956507 0.00026102 -0.000479489)
(-0.000987301 9.09586e-05 -0.000479488)
(-0.000988097 -8.18664e-05 -0.000479488)
(-0.000958869 -0.000252204 -0.000479488)
(-0.000900507 -0.000414879 -0.000479488)
(-0.000814783 -0.000564946 -0.000479488)
(-0.000704304 -0.000697848 -0.000479488)
(-0.000572425 -0.000809547 -0.000479488)
(-0.000423152 -0.000896649 -0.000479488)
(-0.000261021 -0.000956507 -0.000479488)
(-9.09591e-05 -0.000987301 -0.000479488)
(8.18659e-05 -0.000988096 -0.000479488)
(0.000252204 -0.000958869 -0.000479488)
(0.000414878 -0.000900506 -0.000479488)
(0.000564946 -0.000814783 -0.000479488)
(0.000697848 -0.000704303 -0.000479488)
(0.000809547 -0.000572424 -0.000479488)
(0.000896649 -0.000423151 -0.000479488)
(0.000956506 -0.00026102 -0.000479488)
(0.0009873 -9.09588e-05 -0.000479488)
(0.000988096 8.18663e-05 -0.000479488)
(0.000958868 0.000252204 -0.000479488)
(0.000900506 0.000414879 -0.000479488)
(0.000814782 0.000564946 -0.000479488)
(0.000704303 0.000697848 -0.000479488)
(0.000572424 0.000809547 -0.000479488)
(0.000423151 0.000896649 -0.000479489)
(0.00026102 0.000956507 -0.000479489)
(9.09583e-05 0.000987301 -0.000479489)
(-8.18668e-05 0.000988096 -0.000479488)
(-0.000252205 0.000958869 -0.000479488)
(-0.000433553 -7.21963e-05 -0.00141154)
(-0.00041443 -0.000146385 -0.00141154)
(-0.000382715 -0.000216125 -0.00141154)
(-0.000339372 -0.000279298 -0.00141154)
(-0.000285716 -0.000333985 -0.00141154)
(-0.00022338 -0.000378525 -0.00141154)
(-0.000154255 -0.000411564 -0.00141154)
(-8.04428e-05 -0.000432098 -0.00141154)
(-4.18684e-06 -0.000439502 -0.00141154)
(7.21957e-05 -0.000433552 -0.00141154)
(0.000146385 -0.00041443 -0.00141154)
(0.000216125 -0.000382715 -0.00141154)
(0.000279297 -0.000339371 -0.00141154)
(0.000333985 -0.000285716 -0.00141154)
(0.000378524 -0.000223379 -0.00141154)
(0.000411564 -0.000154255 -0.00141154)
(0.000432097 -8.04423e-05 -0.00141154)
(0.000439501 -4.18634e-06 -0.00141154)
(0.000433552 7.21962e-05 -0.00141154)
(0.000414429 0.000146385 -0.00141154)
(0.000382714 0.000216125 -0.00141154)
(0.00033937 0.000279298 -0.00141154)
(0.000285715 0.000333985 -0.00141154)
(0.000223378 0.000378525 -0.00141154)
(0.000154254 0.000411564 -0.00141154)
(8.04417e-05 0.000432098 -0.00141154)
(4.18571e-06 0.000439502 -0.00141154)
(-7.21968e-05 0.000433552 -0.00141154)
(-0.000146386 0.00041443 -0.00141154)
(-0.000216126 0.000382715 -0.00141154)
(-0.000279298 0.000339371 -0.00141154)
(-0.000333986 0.000285716 -0.00141154)
(-0.000378526 0.000223379 -0.00141154)
(-0.000411565 0.000154255 -0.00141154)
(-0.000432098 8.04423e-05 -0.00141154)
(-0.000439503 4.1863e-06 -0.00141154)
(-0.000495318 0.000556548 -0.00110596)
(-0.000584437 0.000462082 -0.00110596)
(-0.000655798 0.000353576 -0.00110596)
(-0.000707232 0.000234327 -0.00110596)
(-0.000737178 0.000107958 -0.00110596)
(-0.000744725 -2.16913e-05 -0.00110596)
(-0.000729645 -0.000150682 -0.00110596)
(-0.000692393 -0.000275095 -0.00110596)
(-0.000634104 -0.000391149 -0.00110596)
(-0.000556548 -0.000495317 -0.00110596)
(-0.000462082 -0.000584436 -0.00110596)
(-0.000353577 -0.000655797 -0.00110596)
(-0.000234328 -0.000707231 -0.00110596)
(-0.000107959 -0.000737177 -0.00110596)
(2.16905e-05 -0.000744725 -0.00110596)
(0.000150681 -0.000729644 -0.00110596)
(0.000275094 -0.000692393 -0.00110596)
(0.000391148 -0.000634104 -0.00110596)
(0.000495317 -0.000556548 -0.00110596)
(0.000584435 -0.000462082 -0.00110596)
(0.000655796 -0.000353576 -0.00110596)
(0.000707231 -0.000234328 -0.00110596)
(0.000737176 -0.000107958 -0.00110596)
(0.000744724 2.16911e-05 -0.00110596)
(0.000729643 0.000150682 -0.00110596)
(0.000692392 0.000275095 -0.00110596)
(0.000634103 0.000391148 -0.00110596)
(0.000556547 0.000495317 -0.00110596)
(0.000462081 0.000584436 -0.00110596)
(0.000353576 0.000655797 -0.00110596)
(0.000234327 0.000707231 -0.00110596)
(0.000107958 0.000737177 -0.00110596)
(-2.16918e-05 0.000744725 -0.00110596)
(-0.000150683 0.000729644 -0.00110596)
(-0.000275095 0.000692393 -0.00110596)
(-0.000391149 0.000634104 -0.00110596)
(-0.000633699 0.00114112 -0.000815019)
(-0.000822225 0.00101374 -0.000815019)
(-0.000985768 0.000855567 -0.000815019)
(-0.00111936 0.000671393 -0.000815019)
(-0.00121894 0.000466818 -0.000815019)
(-0.00128148 0.00024806 -0.000815019)
(-0.00130509 2.17631e-05 -0.000815019)
(-0.00128904 -0.000205194 -0.00081502)
(-0.00123383 -0.000425917 -0.000815019)
(-0.00114112 -0.000633698 -0.000815019)
(-0.00101375 -0.000822224 -0.000815019)
(-0.000855568 -0.000985768 -0.000815019)
(-0.000671393 -0.00111936 -0.000815019)
(-0.000466819 -0.00121894 -0.000815019)
(-0.00024806 -0.00128148 -0.000815019)
(-2.17638e-05 -0.00130509 -0.000815019)
(0.000205194 -0.00128904 -0.000815019)
(0.000425916 -0.00123383 -0.000815019)
(0.000633697 -0.00114112 -0.000815018)
(0.000822224 -0.00101374 -0.000815019)
(0.000985767 -0.000855567 -0.000815019)
(0.00111936 -0.000671393 -0.000815019)
(0.00121894 -0.000466818 -0.000815019)
(0.00128148 -0.00024806 -0.000815019)
(0.00130509 -2.17633e-05 -0.000815019)
(0.00128904 0.000205194 -0.00081502)
(0.00123383 0.000425917 -0.000815019)
(0.00114112 0.000633698 -0.000815019)
(0.00101374 0.000822224 -0.000815019)
(0.000855566 0.000985768 -0.000815019)
(0.000671392 0.00111936 -0.000815019)
(0.000466818 0.00121894 -0.000815019)
(0.000248059 0.00128148 -0.000815019)
(2.17626e-05 0.00130509 -0.000815019)
(-0.000205195 0.00128904 -0.00081502)
(-0.000425918 0.00123383 -0.000815019)
(-0.00051332 0.000158069 -0.00184235)
(-0.00053297 6.653e-05 -0.00184235)
(-0.000536427 -2.70285e-05 -0.00184235)
(-0.000523583 -0.000119766 -0.00184235)
(-0.000494831 -0.000208865 -0.00184235)
(-0.000451044 -0.000291619 -0.00184235)
(-0.000393552 -0.000365512 -0.00184235)
(-0.000324102 -0.000428299 -0.00184235)
(-0.000244805 -0.000478072 -0.00184235)
(-0.00015807 -0.000513319 -0.00184235)
(-6.65308e-05 -0.000532969 -0.00184235)
(2.70277e-05 -0.000536426 -0.00184235)
(0.000119765 -0.000523583 -0.00184235)
(0.000208864 -0.00049483 -0.00184235)
(0.000291618 -0.000451043 -0.00184235)
(0.000365511 -0.000393551 -0.00184235)
(0.000428298 -0.000324101 -0.00184235)
(0.000478071 -0.000244805 -0.00184235)
(0.000513318 -0.000158069 -0.00184235)
(0.000532968 -6.65302e-05 -0.00184235)
(0.000536425 2.70283e-05 -0.00184235)
(0.000523582 0.000119766 -0.00184235)
(0.000494829 0.000208865 -0.00184235)
(0.000451042 0.000291619 -0.00184235)
(0.000393551 0.000365511 -0.00184235)
(0.000324101 0.000428298 -0.00184235)
(0.000244804 0.000478071 -0.00184235)
(0.000158068 0.000513319 -0.00184235)
(6.65293e-05 0.000532969 -0.00184235)
(-2.70292e-05 0.000536426 -0.00184235)
(-0.000119767 0.000523582 -0.00184235)
(-0.000208866 0.00049483 -0.00184235)
(-0.00029162 0.000451043 -0.00184235)
(-0.000365512 0.000393551 -0.00184235)
(-0.000428299 0.000324101 -0.00184235)
(-0.000478072 0.000244804 -0.00184235)
(-0.000637559 0.000776967 -0.00150904)
(-0.000762792 0.000654452 -0.00150904)
(-0.000864848 0.000512054 -0.00150904)
(-0.000940626 0.000354096 -0.00150904)
(-0.000987824 0.000185379 -0.00150904)
(-0.00100501 1.10288e-05 -0.00150904)
(-0.000991653 -0.000163657 -0.00150904)
(-0.000948167 -0.000333369 -0.00150904)
(-0.000875875 -0.000492953 -0.00150904)
(-0.000776968 -0.000637558 -0.00150904)
(-0.000654452 -0.000762791 -0.00150904)
(-0.000512054 -0.000864847 -0.00150904)
(-0.000354097 -0.000940626 -0.00150904)
(-0.00018538 -0.000987823 -0.00150904)
(-1.10298e-05 -0.00100501 -0.00150904)
(0.000163656 -0.000991652 -0.00150904)
(0.000333368 -0.000948167 -0.00150904)
(0.000492952 -0.000875874 -0.00150904)
(0.000637557 -0.000776967 -0.00150904)
(0.00076279 -0.000654452 -0.00150904)
(0.000864847 -0.000512054 -0.00150904)
(0.000940625 -0.000354096 -0.00150904)
(0.000987822 -0.000185379 -0.00150904)
(0.00100501 -1.10291e-05 -0.00150904)
(0.000991651 0.000163656 -0.00150904)
(0.000948166 0.000333369 -0.00150904)
(0.000875873 0.000492953 -0.00150904)
(0.000776966 0.000637558 -0.00150904)
(0.000654451 0.000762791 -0.00150904)
(0.000512053 0.000864847 -0.00150904)
(0.000354095 0.000940626 -0.00150904)
(0.000185378 0.000987823 -0.00150904)
(1.10282e-05 0.00100501 -0.00150904)
(-0.000163657 0.000991652 -0.00150904)
(-0.00033337 0.000948167 -0.00150904)
(-0.000492953 0.000875874 -0.00150904)
(-0.000840287 0.00133067 -0.00119694)
(-0.00105859 0.00116454 -0.00119694)
(-0.00124473 0.000963023 -0.00119694)
(-0.00139304 0.000732249 -0.00119694)
(-0.00149903 0.000479226 -0.00119694)
(-0.00155948 0.000211641 -0.00119694)
(-0.00157253 -6.23748e-05 -0.00119694)
(-0.00153781 -0.000334495 -0.00119694)
(-0.00145637 -0.000596452 -0.00119694)
(-0.00133067 -0.000840286 -0.00119694)
(-0.00116454 -0.00105859 -0.00119694)
(-0.000963024 -0.00124473 -0.00119694)
(-0.00073225 -0.00139304 -0.00119693)
(-0.000479227 -0.00149903 -0.00119694)
(-0.000211642 -0.00155947 -0.00119694)
(6.23739e-05 -0.00157253 -0.00119694)
(0.000334495 -0.00153781 -0.00119694)
(0.000596451 -0.00145636 -0.00119694)
(0.000840285 -0.00133067 -0.00119694)
(0.00105859 -0.00116454 -0.00119694)
(0.00124472 -0.000963024 -0.00119694)
(0.00139304 -0.000732249 -0.00119693)
(0.00149903 -0.000479226 -0.00119694)
(0.00155947 -0.000211641 -0.00119694)
(0.00157253 6.23746e-05 -0.00119694)
(0.00153781 0.000334495 -0.00119694)
(0.00145636 0.000596452 -0.00119694)
(0.00133067 0.000840286 -0.00119694)
(0.00116454 0.00105859 -0.00119694)
(0.000963023 0.00124473 -0.00119694)
(0.000732248 0.00139304 -0.00119694)
(0.000479225 0.00149903 -0.00119694)
(0.00021164 0.00155947 -0.00119694)
(-6.23754e-05 0.00157253 -0.00119694)
(-0.000334496 0.00153781 -0.00119694)
(-0.000596453 0.00145636 -0.00119694)
(-0.000634611 0.000467689 -0.00226569)
(-0.000706183 0.000350384 -0.00226569)
(-0.000756299 0.000222434 -0.00226569)
(-0.000783434 8.77257e-05 -0.00226569)
(-0.000786765 -4.96485e-05 -0.00226569)
(-0.00076619 -0.000185514 -0.00226569)
(-0.000722336 -0.000315743 -0.00226569)
(-0.000656533 -0.000436379 -0.00226569)
(-0.000570784 -0.000543755 -0.00226569)
(-0.00046769 -0.00063461 -0.00226569)
(-0.000350385 -0.000706182 -0.00226569)
(-0.000222435 -0.000756298 -0.00226569)
(-8.77268e-05 -0.000783434 -0.00226569)
(4.96474e-05 -0.000786764 -0.00226569)
(0.000185513 -0.000766189 -0.00226569)
(0.000315742 -0.000722335 -0.00226569)
(0.000436378 -0.000656533 -0.00226569)
(0.000543754 -0.000570783 -0.00226569)
(0.000634609 -0.000467689 -0.00226569)
(0.000706181 -0.000350384 -0.00226569)
(0.000756297 -0.000222435 -0.00226569)
(0.000783432 -8.7726e-05 -0.00226569)
(0.000786763 4.96482e-05 -0.00226569)
(0.000766188 0.000185514 -0.00226569)
(0.000722334 0.000315743 -0.00226569)
(0.000656532 0.000436378 -0.00226569)
(0.000570782 0.000543755 -0.00226569)
(0.000467688 0.00063461 -0.00226569)
(0.000350383 0.000706182 -0.00226569)
(0.000222433 0.000756298 -0.00226569)
(8.77249e-05 0.000783433 -0.00226569)
(-4.96493e-05 0.000786764 -0.00226569)
(-0.000185515 0.000766189 -0.00226569)
(-0.000315744 0.000722335 -0.00226569)
(-0.00043638 0.000656533 -0.00226569)
(-0.000543756 0.000570783 -0.00226569)
(-0.000797985 0.00102342 -0.00191775)
(-0.000963577 0.000869305 -0.00191775)
(-0.00109989 0.000688776 -0.00191775)
(-0.00120279 0.000487319 -0.00191775)
(-0.00126914 0.000271054 -0.00191775)
(-0.00129692 4.65537e-05 -0.00191775)
(-0.0012853 -0.000179362 -0.00191775)
(-0.00123463 -0.000399827 -0.00191775)
(-0.00114644 -0.000608145 -0.00191775)
(-0.00102342 -0.000797984 -0.00191775)
(-0.000869306 -0.000963576 -0.00191775)
(-0.000688777 -0.00109989 -0.00191775)
(-0.00048732 -0.00120279 -0.00191775)
(-0.000271056 -0.00126913 -0.00191775)
(-4.65548e-05 -0.00129692 -0.00191775)
(0.00017936 -0.0012853 -0.00191775)
(0.000399826 -0.00123463 -0.00191775)
(0.000608144 -0.00114644 -0.00191775)
(0.000797983 -0.00102342 -0.00191775)
(0.000963575 -0.000869306 -0.00191775)
(0.00109989 -0.000688776 -0.00191775)
(0.00120278 -0.000487319 -0.00191775)
(0.00126913 -0.000271055 -0.00191775)
(0.00129692 -4.6554e-05 -0.00191775)
(0.0012853 0.000179361 -0.00191775)
(0.00123463 0.000399827 -0.00191775)
(0.00114644 0.000608145 -0.00191775)
(0.00102342 0.000797984 -0.00191775)
(0.000869305 0.000963576 -0.00191775)
(0.000688775 0.00109989 -0.00191775)
(0.000487318 0.00120279 -0.00191775)
(0.000271054 0.00126913 -0.00191775)
(4.65529e-05 0.00129692 -0.00191775)
(-0.000179362 0.0012853 -0.00191775)
(-0.000399828 0.00123463 -0.00191775)
(-0.000608146 0.00114644 -0.00191775)
(-0.00103594 0.0014973 -0.00159656)
(-0.00128021 0.00129466 -0.00159656)
(-0.00148557 0.00105269 -0.00159656)
(-0.0016458 0.00077873 -0.00159656)
(-0.00175602 0.000481109 -0.00159656)
(-0.00181289 0.00016887 -0.00159656)
(-0.00181467 -0.000148499 -0.00159656)
(-0.00176131 -0.000461358 -0.00159656)
(-0.00165444 -0.000760198 -0.00159656)
(-0.0014973 -0.00103594 -0.00159656)
(-0.00129466 -0.00128021 -0.00159656)
(-0.00105269 -0.00148557 -0.00159656)
(-0.000778731 -0.0016458 -0.00159656)
(-0.00048111 -0.00175602 -0.00159656)
(-0.000168871 -0.00181289 -0.00159656)
(0.000148498 -0.00181467 -0.00159656)
(0.000461357 -0.00176131 -0.00159656)
(0.000760197 -0.00165444 -0.00159656)
(0.00103594 -0.0014973 -0.00159656)
(0.0012802 -0.00129466 -0.00159656)
(0.00148557 -0.00105269 -0.00159656)
(0.0016458 -0.000778731 -0.00159656)
(0.00175602 -0.00048111 -0.00159656)
(0.00181289 -0.00016887 -0.00159656)
(0.00181467 0.000148499 -0.00159656)
(0.00176131 0.000461358 -0.00159656)
(0.00165444 0.000760198 -0.00159656)
(0.0014973 0.00103594 -0.00159656)
(0.00129466 0.0012802 -0.00159656)
(0.00105269 0.00148557 -0.00159656)
(0.00077873 0.0016458 -0.00159656)
(0.000481109 0.00175602 -0.00159656)
(0.000168869 0.00181289 -0.00159656)
(-0.0001485 0.00181467 -0.00159656)
(-0.000461359 0.00176131 -0.00159656)
(-0.000760199 0.00165444 -0.00159656)
(-0.000815575 0.000807234 -0.00269617)
(-0.000943359 0.000653347 -0.00269617)
(-0.00104248 0.000479609 -0.00269617)
(-0.00110993 0.000291299 -0.00269617)
(-0.00114365 9.41364e-05 -0.00269617)
(-0.00114262 -0.000105885 -0.00269617)
(-0.00110687 -0.00030269 -0.00269617)
(-0.0010375 -0.000490298 -0.00269617)
(-0.000936595 -0.000663009 -0.00269617)
(-0.000807235 -0.000815574 -0.00269617)
(-0.000653348 -0.000943358 -0.00269617)
(-0.000479611 -0.00104248 -0.00269617)
(-0.0002913 -0.00110993 -0.00269617)
(-9.41378e-05 -0.00114365 -0.00269617)
(0.000105883 -0.00114262 -0.00269617)
(0.000302688 -0.00110687 -0.00269617)
(0.000490297 -0.00103749 -0.00269617)
(0.000663007 -0.000936594 -0.00269617)
(0.000815573 -0.000807234 -0.00269617)
(0.000943357 -0.000653347 -0.00269617)
(0.00104248 -0.00047961 -0.00269617)
(0.00110993 -0.000291299 -0.00269617)
(0.00114365 -9.41368e-05 -0.00269617)
(0.00114262 0.000105884 -0.00269617)
(0.00110687 0.000302689 -0.00269617)
(0.00103749 0.000490298 -0.00269617)
(0.000936593 0.000663008 -0.00269617)
(0.000807233 0.000815574 -0.00269617)
(0.000653346 0.000943358 -0.00269617)
(0.000479608 0.00104248 -0.00269617)
(0.000291298 0.00110993 -0.00269617)
(9.41356e-05 0.00114365 -0.00269617)
(-0.000105886 0.00114262 -0.00269617)
(-0.000302691 0.00110687 -0.00269617)
(-0.000490299 0.00103749 -0.00269617)
(-0.00066301 0.000936594 -0.00269617)
(-0.000991539 0.00127979 -0.00233315)
(-0.00119871 0.00108817 -0.00233315)
(-0.00136946 0.000863487 -0.00233315)
(-0.0014986 0.000612565 -0.00233315)
(-0.0015822 0.000343031 -0.00233315)
(-0.00161773 6.30745e-05 -0.00233315)
(-0.0016041 -0.000218799 -0.00233315)
(-0.00154174 -0.000494025 -0.00233315)
(-0.00143253 -0.000754241 -0.00233315)
(-0.0012798 -0.000991539 -0.00233315)
(-0.00108817 -0.00119871 -0.00233315)
(-0.000863488 -0.00136946 -0.00233315)
(-0.000612566 -0.0014986 -0.00233315)
(-0.000343032 -0.0015822 -0.00233315)
(-6.30759e-05 -0.00161773 -0.00233315)
(0.000218798 -0.0016041 -0.00233315)
(0.000494024 -0.00154174 -0.00233315)
(0.00075424 -0.00143253 -0.00233315)
(0.000991537 -0.00127979 -0.00233315)
(0.00119871 -0.00108817 -0.00233315)
(0.00136946 -0.000863487 -0.00233315)
(0.00149859 -0.000612565 -0.00233315)
(0.0015822 -0.000343031 -0.00233315)
(0.00161773 -6.30749e-05 -0.00233315)
(0.0016041 0.000218799 -0.00233315)
(0.00154174 0.000494025 -0.00233315)
(0.00143253 0.000754241 -0.00233315)
(0.00127979 0.000991538 -0.00233315)
(0.00108817 0.00119871 -0.00233315)
(0.000863486 0.00136946 -0.00233315)
(0.000612564 0.00149859 -0.00233315)
(0.00034303 0.0015822 -0.00233315)
(6.30737e-05 0.00161773 -0.00233315)
(-0.0002188 0.0016041 -0.00233315)
(-0.000494026 0.00154174 -0.00233315)
(-0.000754242 0.00143253 -0.00233315)
(-0.00123398 0.00166043 -0.00200087)
(-0.00150356 0.00142093 -0.00200087)
(-0.00172746 0.00113825 -0.00200087)
(-0.00189887 0.000820986 -0.00200087)
(-0.00201259 0.000478778 -0.00200087)
(-0.00206515 0.000122023 -0.00200087)
(-0.00205497 -0.000238441 -0.00200087)
(-0.00198234 -0.00059166 -0.00200087)
(-0.00184948 -0.000926901 -0.00200087)
(-0.00166043 -0.00123398 -0.00200087)
(-0.00142093 -0.00150356 -0.00200087)
(-0.00113825 -0.00172746 -0.00200087)
(-0.000820987 -0.00189887 -0.00200087)
(-0.000478779 -0.00201259 -0.00200087)
(-0.000122024 -0.00206515 -0.00200087)
(0.00023844 -0.00205497 -0.00200087)
(0.000591658 -0.00198234 -0.00200087)
(0.0009269 -0.00184948 -0.00200087)
(0.00123398 -0.00166043 -0.00200087)
(0.00150356 -0.00142093 -0.00200087)
(0.00172746 -0.00113825 -0.00200087)
(0.00189887 -0.000820986 -0.00200087)
(0.00201259 -0.000478778 -0.00200087)
(0.00206515 -0.000122023 -0.00200087)
(0.00205496 0.000238441 -0.00200087)
(0.00198234 0.000591659 -0.00200087)
(0.00184948 0.000926901 -0.00200087)