/*--------------------------------*- C++ -*----------------------------------*\
| =========                 |                                                 |
| \\      /  F ield         | OpenFOAM: The Open Source CFD Toolbox           |
|  \\    /   O peration     | Version:  2412                                  |
|   \\  /    A nd           | Website:  www.openfoam.com                      |
|    \\/     M anipulation  |                                                 |
\*---------------------------------------------------------------------------*/
FoamFile
{
    version     2.0;
    format      ascii;
    arch        "LSB;label=32;scalar=64";
    class       volScalarField;
    location    "0.00499484";
    object      Vm;
}
// * * * * * * * * * * * * * * * * * * * * * * * * * * * * * * * * * * * * * //

dimensions      [0 0 0 0 0 0 0];

internalField   nonuniform List<scalar> 
8679
(
1.67472e-08
1.65229e-08
1.60558e-08
1.53187e-08
1.42932e-08
1.29865e-08
1.14419e-08
9.73911e-09
7.98314e-09
6.28552e-09
4.74416e-09
3.42767e-09
2.36832e-09
1.564e-09
9.8692e-10
5.95068e-10
3.42858e-10
1.88771e-10
9.93097e-11
4.99088e-11
2.3952e-11
1.0971e-11
4.79369e-12
1.99805e-12
7.93094e-13
2.98708e-13
1.0714e-13
3.65363e-14
1.03029e-14
2.53006e-15
1.07265e-15
1.07265e-15
-6.08874e-17
1.68269e-08
1.65992e-08
1.61272e-08
1.53865e-08
1.43611e-08
1.3059e-08
1.15222e-08
9.82764e-09
8.07713e-09
6.37991e-09
4.83308e-09
3.50608e-09
2.43306e-09
1.61413e-09
1.02341e-09
6.20086e-10
3.59059e-10
1.98698e-10
1.05076e-10
5.30877e-11
2.56177e-11
1.18022e-11
5.18897e-12
2.17634e-12
8.70499e-13
3.32229e-13
1.20904e-13
4.20421e-14
1.43513e-14
4.79715e-15
1.55846e-15
-3.84756e-16
-6.08874e-17
1.66111e-08
1.63767e-08
1.58946e-08
1.51463e-08
1.41212e-08
1.28308e-08
1.13175e-08
9.65548e-09
7.94204e-09
6.28142e-09
4.76675e-09
3.46517e-09
2.41031e-09
1.60309e-09
1.01911e-09
6.19157e-10
3.59497e-10
1.99475e-10
1.05763e-10
5.35716e-11
2.5913e-11
1.19646e-11
5.27123e-12
2.21439e-12
8.8734e-13
3.38544e-13
1.22685e-13
4.2204e-14
1.41893e-14
4.63521e-15
2.04426e-15
2.62982e-16
-6.08874e-17
1.6625e-07
1.63977e-07
1.59254e-07
1.51826e-07
1.41527e-07
1.28447e-07
1.13032e-07
9.60818e-08
7.86412e-08
6.18163e-08
4.65735e-08
3.35848e-08
2.31592e-08
1.52643e-08
9.61546e-09
5.7902e-09
3.33436e-09
1.8369e-09
9.6827e-10
4.88339e-10
2.3558e-10
1.08653e-10
4.78859e-11
2.01564e-11
8.09845e-12
3.10455e-12
1.13607e-12
3.96517e-13
1.31754e-13
4.33376e-14
1.35416e-14
3.82554e-15
1.07265e-15
1.67031e-07
1.64723e-07
1.59946e-07
1.52476e-07
1.42171e-07
1.29127e-07
1.13779e-07
9.69017e-08
7.95104e-08
6.26888e-08
4.73955e-08
3.43096e-08
2.37576e-08
1.57276e-08
9.95248e-09
6.0212e-09
3.4839e-09
1.92855e-09
1.02156e-09
5.17787e-10
2.51061e-10
1.16404e-10
5.15824e-11
2.18341e-11
8.82488e-12
3.40429e-12
1.25266e-12
4.39267e-13
1.46814e-13
4.77098e-14
1.41893e-14
3.1778e-15
-5.46691e-16
1.64851e-07
1.62475e-07
1.57598e-07
1.5005e-07
1.39744e-07
1.26812e-07
1.11693e-07
9.51358e-08
7.81127e-08
6.16581e-08
4.66905e-08
3.38654e-08
2.35024e-08
1.55968e-08
9.89548e-09
6.0029e-09
3.48284e-09
1.93322e-09
1.02677e-09
5.21765e-10
2.53614e-10
1.17864e-10
5.23462e-11
2.22055e-11
8.99216e-12
3.47538e-12
1.28084e-12
4.50603e-13
1.51024e-13
4.83575e-14
1.5161e-14
4.95908e-15
1.88233e-15
1.55704e-07
1.53215e-07
1.48183e-07
1.40555e-07
1.30368e-07
1.17839e-07
1.03435e-07
8.78622e-08
7.20002e-08
5.6766e-08
4.29649e-08
3.11667e-08
2.16431e-08
1.4378e-08
9.13504e-09
5.55093e-09
3.22659e-09
1.79437e-09
9.54705e-10
4.8588e-10
2.36442e-10
1.09963e-10
4.88509e-11
2.07201e-11
8.38637e-12
3.23831e-12
1.19194e-12
4.18378e-13
1.40336e-13
4.36614e-14
1.19223e-14
3.33974e-15
-6.08874e-17
1.51419e-07
1.48533e-07
1.42823e-07
1.34429e-07
1.23603e-07
1.10742e-07
9.64062e-08
8.13062e-08
6.62389e-08
5.19916e-08
3.92295e-08
2.8404e-08
1.97093e-08
1.30956e-08
8.32845e-09
5.06913e-09
2.9528e-09
1.64606e-09
8.77961e-10
4.47882e-10
2.18422e-10
1.01774e-10
4.52849e-11
1.92329e-11
7.79304e-12
3.01111e-12
1.10903e-12
3.90201e-13
1.30296e-13
4.2366e-14
1.22461e-14
2.53006e-15
9.1072e-16
1.53561e-06
1.51412e-06
1.4696e-06
1.39982e-06
1.30347e-06
1.18155e-06
1.03831e-06
8.81192e-07
7.19875e-07
5.64564e-07
4.24174e-07
3.04887e-07
2.09479e-07
1.3753e-07
8.62852e-08
5.17548e-08
2.97004e-08
1.63206e-08
8.59325e-09
4.33673e-09
2.09752e-09
9.71853e-10
4.31089e-10
1.82933e-10
7.42136e-11
2.87644e-11
1.06468e-11
3.76168e-12
1.26853e-12
4.08014e-13
1.25114e-13
3.60505e-14
9.49325e-15
1.5425e-06
1.52069e-06
1.47567e-06
1.40549e-06
1.30905e-06
1.1874e-06
1.04471e-06
8.8821e-07
7.27311e-07
5.72027e-07
4.31201e-07
3.11076e-07
2.14579e-07
1.4147e-07
8.91458e-08
5.37108e-08
3.09635e-08
1.7093e-08
9.04163e-09
4.58436e-09
2.22785e-09
1.03728e-09
4.62439e-10
1.9727e-10
8.04707e-11
3.13712e-11
1.16827e-11
4.15437e-12
1.41087e-12
4.58052e-13
1.40984e-13
4.12324e-14
1.15984e-14
1.52163e-06
1.49921e-06
1.4533e-06
1.38245e-06
1.28603e-06
1.16543e-06
1.02484e-06
8.71297e-07
7.13806e-07
5.6195e-07
4.24202e-07
3.06573e-07
2.11916e-07
1.40041e-07
8.84683e-08
5.34449e-08
3.08953e-08
1.71029e-08
9.0718e-09
4.61194e-09
2.24696e-09
1.04871e-09
4.68599e-10
2.00331e-10
8.18862e-11
3.19852e-11
1.19335e-11
4.25104e-12
1.4452e-12
4.68578e-13
1.44547e-13
4.2204e-14
1.17603e-14
1.43749e-06
1.414e-06
1.36661e-06
1.29494e-06
1.19949e-06
1.08248e-06
9.4835e-07
8.0378e-07
6.56955e-07
5.16375e-07
3.89464e-07
2.81411e-07
1.94594e-07
1.28704e-07
8.14102e-08
4.92633e-08
2.85352e-08
1.58315e-08
8.41651e-09
4.28787e-09
2.09283e-09
9.78097e-10
4.37422e-10
1.87065e-10
7.64517e-11
2.98443e-11
1.11226e-11
3.95681e-12
1.34351e-12
4.35381e-13
1.34021e-13
3.96131e-14
1.12745e-14
1.39685e-06
1.36976e-06
1.31618e-06
1.23752e-06
1.13624e-06
1.01619e-06
8.82717e-07
7.42519e-07
6.03064e-07
4.71674e-07
3.54472e-07
2.55533e-07
1.7649e-07
1.16708e-07
7.38755e-08
4.47723e-08
2.59914e-08
1.44593e-08
7.70968e-09
3.93933e-09
1.92799e-09
9.03237e-10
4.04772e-10
1.73397e-10
7.09645e-11
2.77328e-11
1.03464e-11
3.68395e-12
1.25218e-12
4.06071e-13
1.24953e-13
3.62124e-14
9.33131e-15
1.40101e-06
1.37063e-06
1.31117e-06
1.22519e-06
1.11655e-06
9.90401e-07
8.53033e-07
7.11566e-07
5.73353e-07
4.45169e-07
3.32362e-07
2.38209e-07
1.63699e-07
1.07785e-07
6.79812e-08
4.10783e-08
2.37902e-08
1.32095e-08
7.03234e-09
3.58849e-09
1.75421e-09
8.20929e-10
3.67504e-10
1.57272e-10
6.42999e-11
2.51042e-11
9.35635e-12
3.32688e-12
1.1283e-12
3.65587e-13
1.13455e-13
3.39454e-14
9.33131e-15
1.25298e-06
1.22487e-06
1.16995e-06
1.09081e-06
9.91257e-07
8.76303e-07
7.51925e-07
6.24721e-07
5.01325e-07
3.87675e-07
2.8831e-07
2.05866e-07
1.40968e-07
9.25015e-08
5.81519e-08
3.50303e-08
2.0228e-08
1.12003e-08
5.9471e-09
3.02738e-09
1.47671e-09
6.89777e-10
3.08319e-10
1.31791e-10
5.38401e-11
2.10122e-11
7.83109e-12
2.7857e-12
9.45313e-13
3.05186e-13
9.32134e-14
2.68202e-14
7.22617e-15
8.64694e-07
8.44508e-07
8.05177e-07
7.4874e-07
6.78164e-07
5.97224e-07
5.10316e-07
4.2214e-07
3.37283e-07
2.59718e-07
1.92371e-07
1.3684e-07
9.33735e-08
6.10802e-08
3.82979e-08
2.30205e-08
1.3268e-08
7.33286e-09
3.88537e-09
1.97286e-09
9.59421e-10
4.46563e-10
1.98807e-10
8.46046e-11
3.43994e-11
1.33566e-11
4.95125e-12
1.75223e-12
5.91486e-13
1.90374e-13
5.80736e-14
1.759e-14
4.63521e-15
4.35758e-07
4.25239e-07
4.04798e-07
3.75593e-07
3.39272e-07
2.97878e-07
2.53724e-07
2.09215e-07
1.66643e-07
1.27948e-07
9.45205e-08
6.70836e-08
4.56919e-08
2.98483e-08
1.86951e-08
1.12254e-08
6.46061e-09
3.56306e-09
1.88218e-09
9.518e-10
4.60483e-10
2.1301e-10
9.41584e-11
3.97542e-11
1.60248e-11
6.16527e-12
2.26411e-12
7.92609e-13
2.65188e-13
8.46309e-14
2.56867e-14
7.55003e-15
1.55846e-15
1.66532e-07
1.62416e-07
1.54433e-07
1.43062e-07
1.28977e-07
1.12997e-07
9.6031e-08
7.90088e-08
6.27988e-08
4.81245e-08
3.5493e-08
2.51558e-08
1.71146e-08
1.11681e-08
6.98596e-09
4.18706e-09
2.40339e-09
1.32053e-09
6.9413e-10
3.48855e-10
1.6754e-10
7.68474e-11
3.36496e-11
1.40615e-11
5.60595e-12
2.13229e-12
7.73662e-13
2.68265e-13
8.86792e-14
2.71441e-14
8.52164e-15
2.36813e-15
1.01047e-16
5.04591e-08
4.91904e-08
4.67333e-08
4.32414e-08
3.89281e-08
3.40503e-08
2.88892e-08
2.37284e-08
1.88295e-08
1.44075e-08
1.06104e-08
7.50934e-09
5.10089e-09
3.32221e-09
2.07295e-09
1.23828e-09
7.07669e-10
3.86677e-10
2.01888e-10
1.00662e-10
4.79076e-11
2.17531e-11
9.42048e-12
3.88961e-12
1.53087e-12
5.73511e-13
2.04624e-13
6.90851e-14
2.22861e-14
6.57843e-15
2.04426e-15
7.48785e-16
-6.08874e-17
1.25424e-08
1.2223e-08
1.16049e-08
1.0728e-08
9.64693e-09
8.42722e-09
7.13981e-09
5.85562e-09
4.63946e-09
3.54406e-09
2.60533e-09
1.84006e-09
1.2468e-09
8.09535e-10
5.03163e-10
2.99114e-10
1.69937e-10
9.22071e-11
4.77536e-11
2.3593e-11
1.11143e-11
4.9906e-12
2.1344e-12
8.70175e-13
3.37896e-13
1.25114e-13
4.44711e-14
1.54848e-14
4.63521e-15
9.1072e-16
-6.08874e-17
-5.46691e-16
-6.08874e-17
2.62264e-09
2.55513e-09
2.42462e-09
2.23964e-09
2.01194e-09
1.75547e-09
1.48526e-09
1.21623e-09
9.61932e-10
7.33328e-10
5.37808e-10
3.78758e-10
2.55758e-10
1.65367e-10
1.02264e-10
6.04268e-11
3.40899e-11
1.83473e-11
9.41611e-12
4.60568e-12
2.14509e-12
9.51304e-13
4.01537e-13
1.61064e-13
6.11504e-14
2.14764e-14
7.55003e-15
2.53006e-15
5.86851e-16
-5.46691e-16
-6.08874e-17
-6.08874e-17
-6.08874e-17
4.71229e-10
4.5898e-10
4.35312e-10
4.01797e-10
3.60589e-10
3.14235e-10
2.65472e-10
2.17003e-10
1.71271e-10
1.30243e-10
9.52323e-11
6.68295e-11
4.49345e-11
2.89054e-11
1.77687e-11
1.04271e-11
5.83622e-12
3.11329e-12
1.5822e-12
7.65565e-13
3.51985e-13
1.53291e-13
6.39032e-14
2.58486e-14
1.03029e-14
4.63521e-15
1.88233e-15
4.24916e-16
-6.08874e-17
1.01047e-16
-6.08874e-17
-2.22822e-16
-6.08874e-17
8.33041e-11
8.11146e-11
7.68869e-11
7.09039e-11
6.35575e-11
5.53049e-11
4.66382e-11
3.80392e-11
2.9942e-11
2.26954e-11
1.65296e-11
1.15464e-11
7.72146e-12
4.93635e-12
3.01273e-12
1.75337e-12
9.7268e-13
5.13757e-13
2.57577e-13
1.22685e-13
5.56446e-14
2.39054e-14
9.16938e-15
3.50167e-15
1.39652e-15
2.62982e-16
4.24916e-16
-6.08874e-17
-6.08874e-17
1.01047e-16
-6.08874e-17
-6.08874e-17
-6.08874e-17
1.32247e-05
1.30347e-05
1.26422e-05
1.20301e-05
1.11892e-05
1.013e-05
8.89029e-06
7.53412e-06
6.14394e-06
4.80678e-06
3.59925e-06
2.57527e-06
1.75943e-06
1.1477e-06
7.15039e-07
4.25758e-07
2.42548e-07
1.32388e-07
6.9328e-08
3.48646e-08
1.6843e-08
7.8143e-09
3.47931e-09
1.48533e-09
6.07371e-10
2.37683e-10
8.89443e-11
3.18089e-11
1.08662e-11
3.5455e-12
1.10385e-12
3.27533e-13
9.24037e-14
1.32789e-05
1.30861e-05
1.26897e-05
1.20744e-05
1.12328e-05
1.01759e-05
8.94054e-06
7.58933e-06
6.20258e-06
4.86573e-06
3.6548e-06
2.62414e-06
1.79957e-06
1.17858e-06
7.37342e-07
4.4093e-07
2.52295e-07
1.38317e-07
7.27525e-08
3.67483e-08
1.78318e-08
8.31039e-09
3.71737e-09
1.59461e-09
6.55347e-10
2.57816e-10
9.70165e-11
3.48999e-11
1.19954e-11
3.93835e-12
1.23582e-12
3.70121e-13
1.0552e-13
1.30881e-05
1.28909e-05
1.24879e-05
1.18681e-05
1.10278e-05
9.98063e-06
8.76386e-06
7.43816e-06
6.08079e-06
4.77368e-06
3.58976e-06
2.5814e-06
1.7736e-06
1.16409e-06
7.30026e-07
4.37685e-07
2.51127e-07
1.38069e-07
7.28314e-08
3.6892e-08
1.79499e-08
8.38673e-09
3.76043e-09
1.61666e-09
6.65794e-10
2.62443e-10
9.89437e-11
3.56581e-11
1.22778e-11
4.03826e-12
1.26837e-12
3.80971e-13
1.09569e-13
1.23692e-05
1.21628e-05
1.1747e-05
1.11199e-05
1.02871e-05
9.26956e-06
8.10666e-06
6.85636e-06
5.58916e-06
4.37814e-06
3.28745e-06
2.36224e-06
1.62296e-06
1.06581e-06
6.69093e-07
4.0176e-07
2.30972e-07
1.27296e-07
6.73308e-08
3.42002e-08
1.6683e-08
7.81174e-09
3.50833e-09
1.50984e-09
6.22076e-10
2.45183e-10
9.23802e-11
3.32571e-11
1.14345e-11
3.75358e-12
1.17688e-12
3.5328e-13
1.01634e-13
1.20093e-05
1.17727e-05
1.13052e-05
1.06194e-05
9.73795e-06
8.69501e-06
7.53777e-06
6.32454e-06
5.12011e-06
3.98801e-06
2.98148e-06
2.13596e-06
1.46494e-06
9.61405e-07
6.03732e-07
3.62952e-07
2.09101e-07
1.15575e-07
6.13399e-08
3.12701e-08
1.53074e-08
7.19039e-09
3.23807e-09
1.39665e-09
5.76474e-10
2.27532e-10
8.58275e-11
3.09267e-11
1.06426e-11
3.49594e-12
1.09543e-12
3.27371e-13
9.27276e-14
1.2007e-05
1.17434e-05
1.12276e-05
1.04824e-05
9.54185e-06
8.45092e-06
7.26455e-06
6.04448e-06
4.85436e-06
3.75301e-06
2.78701e-06
1.98486e-06
1.35435e-06
8.84945e-07
5.53673e-07
3.31865e-07
1.9075e-07
1.0525e-07
5.57886e-08
2.84117e-08
1.38963e-08
6.52233e-09
2.93488e-09
1.26484e-09
5.21626e-10
2.05706e-10
7.75262e-11
2.79113e-11
9.59585e-12
3.14957e-12
9.87092e-13
2.94984e-13
8.46309e-14
1.06938e-05
1.04511e-05
9.97714e-06
9.2946e-06
8.43686e-06
7.44736e-06
6.37792e-06
5.28552e-06
4.2275e-06
3.25536e-06
2.40847e-06
1.70947e-06
1.16282e-06
7.57572e-07
4.72663e-07
2.82559e-07
1.62001e-07
8.91708e-08
4.71544e-08
2.39597e-08
1.16935e-08
5.47769e-09
2.46063e-09
1.05899e-09
4.36286e-10
1.71939e-10
6.47815e-11
2.33239e-11
8.02137e-12
2.63445e-12
8.26615e-13
2.47861e-13
7.15142e-14
7.33962e-06
7.16603e-06
6.82792e-06
6.34302e-06
5.73706e-06
5.0428e-06
4.29838e-06
3.54463e-06
2.82131e-06
2.16277e-06
1.59379e-06
1.12729e-06
7.64415e-07
4.96645e-07
3.0919e-07
1.8457e-07
1.05739e-07
5.81781e-08
3.07499e-08
1.56098e-08
7.6063e-09
3.55484e-09
1.59206e-09
6.82701e-10
2.80097e-10
1.09884e-10
4.11993e-11
1.47565e-11
5.04809e-12
1.64957e-12
5.14891e-13
1.53129e-13
4.33376e-14
3.63963e-06
3.55038e-06
3.37705e-06
3.12967e-06
2.82248e-06
2.47307e-06
2.10128e-06
1.72761e-06
1.37143e-06
1.04894e-06
7.71561e-07
5.44976e-07
3.6926e-07
2.39904e-07
1.49462e-07
8.93278e-08
5.12368e-08
2.82085e-08
1.49039e-08
7.55313e-09
3.66914e-09
1.70718e-09
7.60228e-10
3.23789e-10
1.31819e-10
5.12729e-11
1.90468e-11
6.75471e-12
2.28613e-12
7.38199e-13
2.27457e-13
6.71419e-14
1.82377e-14
1.36595e-06
1.33173e-06
1.2654e-06
1.17103e-06
1.0543e-06
9.22108e-07
7.82078e-07
6.41942e-07
5.08878e-07
3.88803e-07
2.85807e-07
2.01852e-07
1.36833e-07
8.89849e-08
5.55045e-08
3.32052e-08
1.90503e-08
1.04783e-08
5.52302e-09
2.788e-09
1.34695e-09
6.22393e-10
2.74898e-10
1.15996e-10
4.67397e-11
1.79782e-11
6.59877e-12
2.31139e-12
7.72205e-13
2.46403e-13
7.54006e-14
2.22861e-14
5.60682e-15
4.08247e-07
3.97873e-07
3.77793e-07
3.49281e-07
3.14106e-07
2.7439e-07
2.32445e-07
1.9059e-07
1.50952e-07
1.15266e-07
8.47088e-08
5.98291e-08
4.05684e-08
2.63895e-08
1.64593e-08
9.83865e-09
5.6338e-09
3.08874e-09
1.62039e-09
8.12924e-10
3.89778e-10
1.78518e-10
7.80614e-11
3.25758e-11
1.29696e-11
4.92437e-12
1.78284e-12
6.161e-13
2.03491e-13
6.39032e-14
1.95332e-14
6.25456e-15
2.04426e-15
1.00652e-07
9.80681e-08
9.30713e-08
8.59866e-08
7.72623e-08
6.74319e-08
5.70719e-08
4.67556e-08
3.70039e-08
2.82378e-08
2.07406e-08
1.46407e-08
9.92015e-09
6.44556e-09
4.0127e-09
2.39185e-09
1.36415e-09
7.4395e-10
3.8771e-10
1.92977e-10
9.16869e-11
4.15643e-11
1.79698e-11
7.4078e-12
2.91087e-12
1.08895e-12
3.88744e-13
1.31592e-13
4.26898e-14
1.19223e-14
3.1778e-15
5.86851e-16
-6.08874e-17
2.09821e-08
2.04392e-08
1.939e-08
1.7904e-08
1.60763e-08
1.40199e-08
1.18559e-08
9.70414e-09
7.67292e-09
5.84917e-09
4.29102e-09
3.02447e-09
2.04527e-09
1.32541e-09
8.22259e-10
4.87915e-10
2.76708e-10
1.49878e-10
7.74866e-11
3.82175e-11
1.7974e-11
8.0578e-12
3.44299e-12
1.40181e-12
5.43715e-13
2.00576e-13
7.08664e-14
2.35816e-14
7.3881e-15
1.55846e-15
5.86851e-16
-6.08874e-17
-2.22822e-16
3.77503e-09
3.67668e-09
3.48671e-09
3.2178e-09
2.88737e-09
2.51597e-09
2.12557e-09
1.73784e-09
1.37225e-09
1.0444e-09
7.64663e-10
5.37627e-10
3.62431e-10
2.33952e-10
1.44441e-10
8.52097e-11
4.79917e-11
2.57888e-11
1.32128e-11
6.45222e-12
3.00156e-12
1.32942e-12
5.60394e-13
2.24704e-13
8.54405e-14
3.11925e-14
1.11126e-14
3.82554e-15
4.24916e-16
1.01047e-16
-6.08874e-17
-2.22822e-16
-6.08874e-17
6.71167e-10
6.53545e-10
6.19518e-10
5.71383e-10
5.12283e-10
4.45916e-10
3.76229e-10
3.07103e-10
2.42016e-10
1.83744e-10
1.34125e-10
9.39532e-11
6.30517e-11
4.04795e-11
2.48303e-11
1.45389e-11
8.1195e-12
4.32116e-12
2.19156e-12
1.05851e-12
4.86552e-13
2.11588e-13
8.75457e-14
3.52408e-14
1.28939e-14
4.95908e-15
9.1072e-16
1.01047e-16
-6.08874e-17
-6.08874e-17
-6.08874e-17
1.01047e-16
-6.08874e-17
0.000106698
0.000105106
0.000101834
9.6769e-05
8.98658e-05
8.12367e-05
7.12016e-05
6.02789e-05
4.91141e-05
3.83788e-05
2.86667e-05
2.04132e-05
1.38418e-05
8.94205e-06
5.50979e-06
3.24182e-06
1.82394e-06
9.83248e-07
5.09012e-07
2.53544e-07
1.21656e-07
5.62391e-08
2.50319e-08
1.07151e-08
4.40516e-09
1.73705e-09
6.56213e-10
2.37272e-10
8.20533e-11
2.7123e-11
8.56644e-12
2.58328e-12
7.43704e-13
0.000107075
0.000105463
0.000102163
9.70781e-05
9.0173e-05
8.15618e-05
7.15606e-05
6.06752e-05
4.95367e-05
3.88056e-05
2.90712e-05
2.07702e-05
1.41346e-05
9.16567e-06
5.66983e-06
3.34967e-06
1.89259e-06
1.02462e-06
5.32696e-07
2.66461e-07
1.28387e-07
5.9599e-08
2.664e-08
1.14534e-08
4.73023e-09
1.87421e-09
7.11628e-10
2.58691e-10
8.9968e-11
2.99173e-11
9.50841e-12
2.88723e-12
8.37302e-13
0.000105387
0.00010375
0.000100417
9.53163e-05
8.84425e-05
7.99278e-05
7.00875e-05
5.94136e-05
4.85137e-05
3.80222e-05
2.85062e-05
2.03894e-05
1.38965e-05
9.02847e-06
5.59725e-06
3.31485e-06
1.87791e-06
1.0196e-06
5.31679e-07
2.6676e-07
1.2891e-07
6.00081e-08
2.68917e-08
1.15889e-08
4.79656e-09
1.90432e-09
7.24429e-10
2.6382e-10
9.19128e-11
3.06172e-11
9.74904e-12
2.96658e-12
8.62078e-13
9.96216e-05
9.79173e-05
9.44916e-05
8.93416e-05
8.25342e-05
7.42579e-05
6.48461e-05
5.47659e-05
4.45713e-05
3.48306e-05
2.60488e-05
1.85972e-05
1.26637e-05
8.2279e-06
5.10478e-06
3.02702e-06
1.71791e-06
9.34964e-07
4.89001e-07
2.46173e-07
1.1937e-07
5.57423e-08
2.50459e-08
1.08146e-08
4.48171e-09
1.78033e-09
6.77229e-10
2.46485e-10
8.5781e-11
2.8533e-11
9.0673e-12
2.75234e-12
7.98276e-13
9.66222e-05
9.46849e-05
9.08615e-05
8.52645e-05
7.80888e-05
6.96277e-05
6.02699e-05
5.04834e-05
4.07795e-05
3.1657e-05
2.35424e-05
1.67358e-05
1.13654e-05
7.37491e-06
4.57475e-06
2.71472e-06
1.54334e-06
8.423e-07
4.4218e-07
2.23565e-07
1.08892e-07
5.10642e-08
2.30291e-08
9.97447e-09
4.14367e-09
1.64917e-09
6.28248e-10
2.28914e-10
7.97375e-11
2.65418e-11
8.44029e-12
2.5632e-12
7.43866e-13
9.61802e-05
9.40394e-05
8.9857e-05
8.38245e-05
7.62249e-05
6.74309e-05
5.78893e-05
4.8092e-05
3.85382e-05
2.96899e-05
2.19235e-05
1.54872e-05
1.04613e-05
6.75773e-06
4.17607e-06
2.47052e-06
1.40126e-06
7.63572e-07
4.00477e-07
2.02372e-07
9.85357e-08
4.61932e-08
2.08243e-08
9.01507e-09
3.74286e-09
1.48863e-09
5.66664e-10
2.06311e-10
7.18049e-11
2.38809e-11
7.58689e-12
2.30168e-12
6.67595e-13
8.51557e-05
8.32016e-05
7.93915e-05
7.39141e-05
6.7042e-05
5.91271e-05
5.0583e-05
4.1858e-05
3.3401e-05
2.56212e-05
1.88422e-05
1.32654e-05
8.93602e-06
5.75912e-06
3.55136e-06
2.09673e-06
1.18704e-06
6.45699e-07
3.38059e-07
1.70519e-07
8.28701e-08
3.87767e-08
1.74502e-08
7.54281e-09
3.12772e-09
1.24284e-09
4.72845e-10
1.72124e-10
5.99177e-11
1.99401e-11
6.3421e-12
1.92745e-12
5.59585e-13
5.8092e-05
5.67094e-05
5.40176e-05
5.0158e-05
4.53338e-05
3.98036e-05
3.38687e-05
2.78539e-05
2.20793e-05
1.68299e-05
1.2315e-05
8.6393e-06
5.80492e-06
3.73321e-06
2.29803e-06
1.35555e-06
7.67627e-07
4.18059e-07
2.19221e-07
1.1072e-07
5.38376e-08
2.51803e-08
1.13148e-08
4.87891e-09
2.0166e-09
7.98243e-10
3.02375e-10
1.09549e-10
3.79439e-11
1.25609e-11
3.973e-12
1.19971e-12
3.45507e-13
2.82414e-05
2.75379e-05
2.61721e-05
2.4224e-05
2.18076e-05
1.90635e-05
1.61498e-05
1.32296e-05
1.04559e-05
7.95577e-06
5.81686e-06
4.08048e-06
2.74341e-06
1.76697e-06
1.09065e-06
6.45857e-07
3.67405e-07
2.00972e-07
1.05746e-07
5.35083e-08
2.60191e-08
1.21468e-08
5.43848e-09
2.33304e-09
9.58125e-10
3.76422e-10
1.41394e-10
5.07586e-11
1.74079e-11
5.7023e-12
1.78332e-12
5.31084e-13
1.50052e-13
1.03059e-05
1.00437e-05
9.5357e-06
8.81364e-06
7.92182e-06
6.91389e-06
5.84886e-06
4.7862e-06
3.78059e-06
2.87661e-06
2.10455e-06
1.47833e-06
9.96138e-07
6.4368e-07
3.98964e-07
2.37338e-07
1.35582e-07
7.43922e-08
3.9197e-08
1.98214e-08
9.61252e-09
4.46677e-09
1.98722e-09
8.45808e-10
3.44193e-10
1.3385e-10
4.9721e-11
1.76369e-11
5.97176e-12
1.92971e-12
5.95858e-13
1.758e-13
4.9653e-14
3.01006e-06
2.93264e-06
2.78284e-06
2.57032e-06
2.30846e-06
2.01326e-06
1.70212e-06
1.39237e-06
1.09981e-06
8.37192e-07
6.13106e-07
4.31385e-07
2.91357e-07
1.88808e-07
1.17382e-07
7.00123e-08
4.00591e-08
2.19816e-08
1.1562e-08
5.82558e-09
2.80978e-09
1.29638e-09
5.71798e-10
2.4097e-10
9.69838e-11
3.72633e-11
1.36648e-11
4.78203e-12
1.59678e-12
5.08413e-13
1.5491e-13
4.54427e-14
1.19223e-14
7.30773e-07
7.11837e-07
6.75235e-07
6.23374e-07
5.59575e-07
4.8778e-07
4.12237e-07
3.37153e-07
2.66329e-07
2.02818e-07
1.48648e-07
1.04708e-07
7.08153e-08
4.59503e-08
2.8592e-08
1.70533e-08
9.74485e-09
5.33227e-09
2.79225e-09
1.39839e-09
6.6937e-10
3.06074e-10
1.33627e-10
5.5679e-11
2.21351e-11
8.393e-12
3.03459e-12
1.04555e-12
3.4324e-13
1.07787e-13
3.21641e-14
7.71197e-15
1.23459e-15
1.51022e-07
1.47088e-07
1.39488e-07
1.2873e-07
1.15509e-07
1.0065e-07
8.50343e-08
6.95304e-08
5.49194e-08
4.18244e-08
3.06576e-08
2.15977e-08
1.46053e-08
9.47163e-09
5.88567e-09
3.50199e-09
1.99383e-09
1.0855e-09
5.64767e-10
2.80639e-10
1.3312e-10
6.02485e-11
2.60066e-11
1.07036e-11
4.19939e-12
1.57087e-12
5.60556e-13
1.89888e-13
6.09884e-14
1.82377e-14
5.12102e-15
2.04426e-15
1.01047e-16
2.70864e-08
2.63778e-08
2.50095e-08
2.30736e-08
2.06965e-08
1.80268e-08
1.52235e-08
1.24423e-08
9.82285e-09
7.47633e-09
5.47602e-09
3.85356e-09
2.60181e-09
1.68341e-09
1.04272e-09
6.17766e-10
3.49798e-10
1.89166e-10
9.76418e-11
4.80794e-11
2.25746e-11
1.01025e-11
4.30853e-12
1.74948e-12
6.76178e-13
2.48347e-13
8.6736e-14
2.86015e-14
8.84551e-15
1.55846e-15
2.62982e-16
-6.08874e-17
-6.08874e-17
4.82463e-09
4.69783e-09
4.45305e-09
4.10687e-09
3.68201e-09
3.20515e-09
2.70473e-09
2.20858e-09
1.74161e-09
1.32362e-09
9.67637e-10
6.7925e-10
4.57131e-10
2.94553e-10
1.81507e-10
1.06858e-10
6.00522e-11
3.21922e-11
1.64522e-11
8.01133e-12
3.71617e-12
1.64034e-12
6.89132e-13
2.75228e-13
1.04387e-13
3.75079e-14
1.17603e-14
4.31134e-15
1.88233e-15
1.01047e-16
-6.08874e-17
4.24916e-16
-6.08874e-17
0.0008172
0.00080426
0.000777838
0.000737323
0.00068272
0.000615224
0.00053762
0.000454139
0.000369709
0.000289104
0.000216213
0.000153815
0.0001036
6.60825e-05
4.00462e-05
2.31285e-05
1.27582e-05
6.73899e-06
3.4195e-06
1.67238e-06
7.90314e-07
3.61285e-07
1.59724e-07
6.82031e-08
2.80776e-08
1.11224e-08
4.23203e-09
1.54444e-09
5.39951e-10
1.80683e-10
5.78339e-11
1.76986e-11
5.1752e-12
0.000819528
0.000806443
0.000779854
0.000739267
0.0006847
0.000617346
0.00053998
0.000456738
0.000372471
0.000291904
0.000218895
0.000156214
0.00010558
6.75883e-05
4.11095e-05
2.38338e-05
1.32002e-05
7.00143e-06
3.56755e-06
1.75199e-06
8.31263e-07
3.81494e-07
1.69316e-07
7.25847e-08
3.00039e-08
1.19367e-08
4.56263e-09
1.67317e-09
5.87974e-10
1.97831e-10
6.36893e-11
1.96094e-11
5.77129e-12
0.000804792
0.000791665
0.000765046
0.000724579
0.000670498
0.000604124
0.000528197
0.000446745
0.000364412
0.000285703
0.000214337
0.000153041
0.000103519
6.63597e-05
4.04372e-05
2.34953e-05
1.30449e-05
6.93837e-06
3.54634e-06
1.74727e-06
8.31746e-07
3.82917e-07
1.70441e-07
7.32588e-08
3.03539e-08
1.21016e-08
4.63467e-09
1.70267e-09
5.99373e-10
2.02001e-10
6.51379e-11
2.0089e-11
5.92367e-12
0.0007602
0.000746651
0.000719485
0.000678815
0.000625403
0.000561037
0.000488607
0.00041186
0.000334961
0.000261854
0.000195808
0.000139283
9.39343e-05
6.01379e-05
3.66547e-05
2.13198e-05
1.18553e-05
6.31917e-06
3.23938e-06
1.60199e-06
7.65811e-07
3.54068e-07
1.58212e-07
6.82199e-08
2.83327e-08
1.13128e-08
4.3357e-09
1.59288e-09
5.60412e-10
1.88672e-10
6.075e-11
1.87008e-11
5.50183e-12
0.000736169
0.000720917
0.000690873
0.000647024
0.000591095
0.000525648
0.000453924
0.000379607
0.000306479
0.000237907
0.000176638
0.000124796
8.37495e-05
5.34772e-05
3.25712e-05
1.89509e-05
1.05508e-05
5.63719e-06
2.9005e-06
1.44138e-06
6.92823e-07
3.22098e-07
1.44659e-07
6.26466e-08
2.61089e-08
1.04529e-08
4.01419e-09
1.47695e-09
5.20201e-10
1.75282e-10
5.64774e-11
1.73956e-11
5.12063e-12
0.000728348
0.00071168
0.000679206
0.000632522
0.000573949
0.000506572
0.000434056
0.000360229
0.000288671
0.000222413
0.000163886
0.00011492
7.66392e-05
4.86961e-05
2.95428e-05
1.71332e-05
9.5156e-06
5.07658e-06
2.61057e-06
1.29742e-06
6.23897e-07
2.90189e-07
1.3037e-07
5.64629e-08
2.3528e-08
9.41614e-09
3.61411e-09
1.32889e-09
4.67708e-10
1.57472e-10
5.06976e-11
1.56022e-11
4.58754e-12
0.000638456
0.000623435
0.000594253
0.000552495
0.000500367
0.000440707
0.000376753
0.000311829
0.00024902
0.000190998
0.000139978
9.7685e-05
6.49346e-05
4.11803e-05
2.495e-05
1.44526e-05
8.01897e-06
4.27484e-06
2.19674e-06
1.09083e-06
5.23971e-07
2.43378e-07
1.09173e-07
4.72115e-08
1.96462e-08
7.85387e-09
3.01208e-09
1.10703e-09
3.89587e-10
1.31206e-10
4.22678e-11
1.30206e-11
3.83455e-12
0.000430181
0.000419897
0.00039993
0.000371382
0.000335779
0.000295018
0.00025124
0.00020669
0.000163603
0.000124095
9.00275e-05
6.24314e-05
4.13895e-05
2.62271e-05
1.58776e-05
9.19368e-06
5.10628e-06
2.72969e-06
1.40839e-06
7.02379e-07
3.38615e-07
1.5766e-07
7.07866e-08
3.05951e-08
1.2709e-08
5.06655e-09
1.93622e-09
7.08676e-10
2.48258e-10
8.31969e-11
2.66634e-11
8.17002e-12
2.39317e-12
0.000205042
0.000199883
0.000189843
0.000175507
0.000157725
0.000137544
0.000116152
9.47567e-05
7.44898e-05
5.62976e-05
4.08287e-05
2.83677e-05
1.88645e-05
1.19997e-05
7.30277e-06
4.25899e-06
2.38641e-06
1.28785e-06
6.70382e-07
3.36729e-07
1.63112e-07
7.61076e-08
3.41575e-08
1.47245e-08
6.08887e-09
2.41275e-09
9.15366e-10
3.32276e-10
1.15348e-10
3.82796e-11
1.214e-11
3.67909e-12
1.06482e-12
7.18179e-05
6.99586e-05
6.63564e-05
6.1239e-05
5.49274e-05
4.78091e-05
4.03093e-05
3.28535e-05
2.58289e-05
1.95455e-05
1.42082e-05
9.90601e-06
6.6174e-06
4.23417e-06
2.5965e-06
1.5281e-06
8.6448e-07
4.70662e-07
2.46714e-07
1.24471e-07
6.03898e-08
2.81452e-08
1.2586e-08
5.39451e-09
2.21409e-09
8.69542e-10
3.26571e-10
1.17235e-10
4.02143e-11
1.31778e-11
4.12425e-12
1.2321e-12
3.51823e-13
2.02162e-05
1.96887e-05
1.86684e-05
1.7222e-05
1.5442e-05
1.34393e-05
1.13334e-05
9.2429e-06
7.27483e-06
5.51458e-06
4.01872e-06
2.81154e-06
1.88676e-06
1.21426e-06
7.4971e-07
4.44394e-07
2.53052e-07
1.38459e-07
7.27784e-08
3.67269e-08
1.77789e-08
8.24835e-09
3.66433e-09
1.55759e-09
6.33078e-10
2.45913e-10
9.12525e-11
3.23376e-11
1.09419e-11
3.53448e-12
1.08992e-12
3.20569e-13
9.04605e-14
4.7819e-06
4.65669e-06
4.41471e-06
4.07208e-06
3.65097e-06
3.17771e-06
2.68057e-06
2.18743e-06
1.72337e-06
1.30835e-06
9.5553e-07
6.70461e-07
4.51591e-07
2.91868e-07
1.80996e-07
1.07699e-07
6.14876e-08
3.36718e-08
1.76776e-08
8.89128e-09
4.28124e-09
1.97209e-09
8.6847e-10
3.65435e-10
1.46856e-10
5.63418e-11
2.06294e-11
7.20716e-12
2.40321e-12
7.63784e-13
2.32153e-13
6.58465e-14
1.72661e-14
9.72201e-07
9.4668e-07
8.97389e-07
8.27646e-07
7.42007e-07
6.45848e-07
5.4492e-07
4.4487e-07
3.50756e-07
2.66591e-07
1.95002e-07
1.37089e-07
9.25338e-08
5.99285e-08
3.7221e-08
2.21603e-08
1.26414e-08
6.9057e-09
3.61027e-09
1.80515e-09
8.6269e-10
3.93841e-10
1.71669e-10
7.1415e-11
2.83443e-11
1.07309e-11
3.8739e-12
1.33266e-12
4.37e-13
1.36612e-13
4.09085e-14
1.20842e-14
3.50167e-15
1.72818e-07
1.68273e-07
1.59498e-07
1.47089e-07
1.31861e-07
1.14772e-07
9.68459e-08
7.90829e-08
6.23766e-08
4.74345e-08
3.47183e-08
2.44219e-08
1.64904e-08
1.06781e-08
6.6255e-09
3.93631e-09
2.23776e-09
1.21646e-09
6.31935e-10
3.13528e-10
1.48484e-10
6.70939e-11
2.89145e-11
1.18806e-11
4.6528e-12
1.73669e-12
6.18205e-13
2.09159e-13
6.82755e-14
2.03429e-14
6.09262e-15
1.88233e-15
5.86851e-16
3.06878e-08
2.98793e-08
2.83188e-08
2.61126e-08
2.34061e-08
2.037e-08
1.7186e-08
1.40317e-08
1.10652e-08
8.41182e-09
6.15337e-09
4.32436e-09
2.91545e-09
1.8834e-09
1.16462e-09
6.88724e-10
3.89205e-10
2.1003e-10
1.08163e-10
5.31298e-11
2.48815e-11
1.11041e-11
4.7213e-12
1.91158e-12
7.36579e-13
2.71017e-13
9.49947e-14
3.21641e-14
1.06268e-14
3.50167e-15
1.39652e-15
5.86851e-16
-6.08874e-17
0.0060864
0.00598483
0.0057782
0.00546283
0.00503977
0.00451866
0.00392256
0.00328785
0.00265661
0.00206901
0.00155226
0.00111415
0.000753055
0.000475256
0.000281616
0.000158157
8.46203e-05
4.32999e-05
2.12781e-05
1.00905e-05
4.63838e-06
2.07271e-06
9.01064e-07
3.80661e-07
1.55915e-07
6.1745e-08
2.35782e-08
8.66166e-09
3.05538e-09
1.03345e-09
3.34828e-10
1.03836e-10
3.08052e-11
0.00609862
0.005996
0.00578851
0.00547337
0.00505114
0.00453123
0.00393683
0.00330337
0.00267295
0.00208569
0.00156823
0.00112869
0.000765331
0.000484685
0.000288193
0.000162425
8.72326e-05
4.48151e-05
2.21139e-05
1.05303e-05
4.85993e-06
2.17997e-06
9.51153e-07
4.03264e-07
1.65775e-07
6.58995e-08
2.5266e-08
9.32164e-09
3.30332e-09
1.1228e-09
3.65685e-10
1.14036e-10
3.40319e-11
0.00597496
0.00587307
0.00566672
0.00535356
0.00493593
0.00442448
0.00384226
0.00322428
0.00261047
0.0020386
0.00153411
0.00110491
0.000748612
0.00047416
0.000282245
0.000159354
8.57679e-05
4.41747e-05
2.18636e-05
1.04469e-05
4.83904e-06
2.17851e-06
9.53769e-07
4.05621e-07
1.67196e-07
6.66219e-08
2.55965e-08
9.46133e-09
3.35864e-09
1.14347e-09
3.73002e-10
1.16497e-10
3.48189e-11
0.00564144
0.00553652
0.005326
0.00501043
0.00459611
0.00409864
0.00354343
0.00296321
0.00239469
0.00186956
0.0014054
0.00100767
0.000677894
0.000427277
0.000253969
0.000143492
7.73417e-05
3.99092e-05
1.98038e-05
9.49741e-06
4.42001e-06
2.00047e-06
8.80478e-07
3.76231e-07
1.55678e-07
6.22058e-08
2.39424e-08
8.85769e-09
3.14471e-09
1.07009e-09
3.48707e-10
1.08751e-10
3.24458e-11
0.00545599
0.00533842
0.00510656
0.00476746
0.00433483
0.00383046
0.00328271
0.0027242
0.00218847
0.00170033
0.00127036
0.000902242
0.000601031
0.000376373
0.000223218
0.000126129
6.80486e-05
3.51779e-05
1.75129e-05
8.4405e-06
3.95314e-06
1.80172e-06
7.98444e-07
3.43264e-07
1.42754e-07
5.72665e-08
2.2106e-08
8.19567e-09
2.91407e-09
9.92673e-10
3.23733e-10
1.01024e-10
3.01565e-11
0.00535607
0.00522915
0.00498202
0.00462622
0.0041788
0.00366482
0.0031167
0.002569
0.00205218
0.00158606
0.00117769
0.000827983
0.000546493
0.000339874
0.000200687
0.000112995
6.07965e-05
3.13781e-05
1.56161e-05
7.53234e-06
3.53305e-06
1.61296e-06
7.15856e-07
3.08091e-07
1.28206e-07
5.14411e-08
1.98546e-08
7.35815e-09
2.61481e-09
8.90125e-10
2.90069e-10
9.04447e-11
2.69735e-11
0.00462919
0.00451478
0.00429335
0.00397756
0.00358458
0.00313826
0.00266666
0.00219897
0.00175879