/*--------------------------------*- C++ -*----------------------------------*\
| =========                 |                                                 |
| \\      /  F ield         | OpenFOAM: The Open Source CFD Toolbox           |
|  \\    /   O peration     | Version:  2412                                  |
|   \\  /    A nd           | Website:  www.openfoam.com                      |
|    \\/     M anipulation  |                                                 |
\*---------------------------------------------------------------------------*/
FoamFile
{
    version     2.0;
    format      ascii;
    arch        "LSB;label=32;scalar=64";
    class       volScalarField;
    location    "0.030011";
    object      ionicCurrent;
}
// * * * * * * * * * * * * * * * * * * * * * * * * * * * * * * * * * * * * * //

dimensions      [1 2 -4 0 0 -1 0];

internalField   nonuniform List<scalar> 
8796
(
4.14864e-06
4.12134e-06
4.06726e-06
3.98748e-06
3.88359e-06
3.75769e-06
3.61228e-06
3.45014e-06
3.2743e-06
3.08779e-06
2.89362e-06
2.69466e-06
2.49371e-06
2.29333e-06
2.09589e-06
1.90352e-06
1.71808e-06
1.54115e-06
1.37398e-06
1.21753e-06
1.07243e-06
9.39038e-07
8.17425e-07
7.07434e-07
6.0871e-07
5.20752e-07
4.42949e-07
3.74618e-07
3.15028e-07
2.63425e-07
2.19045e-07
1.81132e-07
1.48952e-07
1.21809e-07
4.06176e-06
4.03508e-06
3.98225e-06
3.90431e-06
3.80283e-06
3.67983e-06
3.53772e-06
3.37919e-06
3.20713e-06
3.02452e-06
2.83431e-06
2.63936e-06
2.44242e-06
2.24603e-06
2.05252e-06
1.86399e-06
1.68228e-06
1.50893e-06
1.3452e-06
1.192e-06
1.04994e-06
9.19359e-07
8.00308e-07
6.9263e-07
5.95979e-07
5.09864e-07
4.33691e-07
3.6679e-07
3.0845e-07
2.57928e-07
2.14477e-07
1.77356e-07
1.45848e-07
1.19272e-07
3.89051e-06
3.86499e-06
3.81442e-06
3.7398e-06
3.64263e-06
3.52486e-06
3.38879e-06
3.23698e-06
3.07221e-06
2.89734e-06
2.71518e-06
2.52846e-06
2.33979e-06
2.15162e-06
1.96621e-06
1.78556e-06
1.61146e-06
1.44538e-06
1.28853e-06
1.14177e-06
1.00569e-06
8.80614e-07
7.6659e-07
6.63462e-07
5.70894e-07
4.88417e-07
4.15459e-07
3.51381e-07
2.955e-07
2.47108e-07
2.05488e-07
1.69931e-07
1.39749e-07
1.14289e-07
3.6408e-06
3.61693e-06
3.56966e-06
3.49994e-06
3.40917e-06
3.29914e-06
3.17195e-06
3.03e-06
2.87584e-06
2.71215e-06
2.54156e-06
2.36665e-06
2.18989e-06
2.0136e-06
1.83991e-06
1.67073e-06
1.50773e-06
1.3523e-06
1.20555e-06
1.06828e-06
9.41017e-07
8.24041e-07
7.17395e-07
6.20927e-07
5.34326e-07
4.57157e-07
3.88892e-07
3.28933e-07
2.76644e-07
2.3136e-07
1.9241e-07
1.59131e-07
1.30878e-07
1.07042e-07
3.32114e-06
3.29928e-06
3.25609e-06
3.19251e-06
3.10985e-06
3.00972e-06
2.89399e-06
2.76471e-06
2.62418e-06
2.47479e-06
2.31902e-06
2.15926e-06
1.99777e-06
1.83674e-06
1.67814e-06
1.52373e-06
1.37504e-06
1.23331e-06
1.09952e-06
9.74395e-07
8.58402e-07
7.51777e-07
6.54554e-07
5.66595e-07
4.87621e-07
4.1724e-07
3.54975e-07
3.00285e-07
2.52587e-07
2.11275e-07
1.75735e-07
1.45361e-07
1.19567e-07
9.77992e-08
2.94283e-06
2.92357e-06
2.88549e-06
2.82941e-06
2.75647e-06
2.66804e-06
2.56573e-06
2.45135e-06
2.32688e-06
2.19448e-06
2.05634e-06
1.91462e-06
1.77137e-06
1.62855e-06
1.48793e-06
1.35107e-06
1.21932e-06
1.09376e-06
9.75241e-07
8.64394e-07
7.61618e-07
6.67119e-07
5.80929e-07
5.0293e-07
4.32883e-07
3.70448e-07
3.15207e-07
2.66684e-07
2.24361e-07
1.87701e-07
1.56155e-07
1.29186e-07
1.06277e-07
8.69374e-08
2.52615e-06
2.50986e-06
2.4776e-06
2.42995e-06
2.36777e-06
2.2922e-06
2.2046e-06
2.10656e-06
1.9998e-06
1.88618e-06
1.76758e-06
1.64586e-06
1.52283e-06
1.40018e-06
1.27944e-06
1.16194e-06
1.04882e-06
9.41013e-07
8.39232e-07
7.44006e-07
6.55681e-07
5.74436e-07
5.00307e-07
4.33201e-07
3.72921e-07
3.1918e-07
2.71625e-07
2.29848e-07
1.93404e-07
1.61828e-07
1.34651e-07
1.1141e-07
9.16613e-08
7.49858e-08
2.09795e-06
2.08454e-06
2.05796e-06
2.01865e-06
1.96728e-06
1.90476e-06
1.83222e-06
1.75098e-06
1.66248e-06
1.56826e-06
1.46987e-06
1.36887e-06
1.26677e-06
1.16496e-06
1.06472e-06
9.67145e-07
8.73188e-07
7.83612e-07
6.99015e-07
6.19833e-07
5.46358e-07
4.78746e-07
4.17034e-07
3.61154e-07
3.10945e-07
2.66176e-07
2.26552e-07
1.91736e-07
1.61358e-07
1.35032e-07
1.12366e-07
9.29776e-08
7.64986e-08
6.25819e-08
1.68231e-06
1.67158e-06
1.65031e-06
1.61886e-06
1.57777e-06
1.52778e-06
1.4698e-06
1.40485e-06
1.3341e-06
1.25875e-06
1.18005e-06
1.09925e-06
1.01752e-06
9.35976e-07
8.55641e-07
7.77402e-07
7.0202e-07
6.30118e-07
5.62187e-07
4.98585e-07
4.39553e-07
3.85222e-07
3.35622e-07
2.90701e-07
2.50332e-07
2.14327e-07
1.82452e-07
1.54434e-07
1.29978e-07
1.08776e-07
9.05165e-08
7.48946e-08
6.16163e-08
5.04032e-08
1.30211e-06
1.29379e-06
1.27729e-06
1.25291e-06
1.22111e-06
1.18245e-06
1.13765e-06
1.0875e-06
1.03288e-06
9.74714e-07
9.13953e-07
8.51538e-07
7.88383e-07
7.25343e-07
6.63201e-07
6.02647e-07
5.44276e-07
4.88579e-07
4.35945e-07
3.86662e-07
3.40921e-07
2.98822e-07
2.60391e-07
2.2558e-07
1.94291e-07
1.66376e-07
1.41653e-07
1.19911e-07
1.00924e-07
8.44578e-08
7.02733e-08
5.81368e-08
4.78215e-08
3.91116e-08
9.73333e-07
9.67081e-07
9.54702e-07
9.36433e-07
9.12624e-07
8.83717e-07
8.50238e-07
8.12784e-07
7.72002e-07
7.28579e-07
6.83215e-07
6.36611e-07
5.89444e-07
5.42351e-07
4.95915e-07
4.50654e-07
4.07015e-07
3.65372e-07
3.2602e-07
2.89177e-07
2.54986e-07
2.23521e-07
1.94797e-07
1.68777e-07
1.45384e-07
1.24505e-07
1.06005e-07
8.97304e-08
7.55136e-08
6.31814e-08
5.25578e-08
4.34687e-08
3.57447e-08
2.9224e-08
7.05729e-07
7.0118e-07
6.92173e-07
6.78888e-07
6.61581e-07
6.40579e-07
6.16268e-07
5.89081e-07
5.59488e-07
5.27986e-07
4.95083e-07
4.61286e-07
4.27088e-07
3.9295e-07
3.59295e-07
3.26495e-07
2.94874e-07
2.64699e-07
2.36184e-07
2.09487e-07
1.84711e-07
1.61909e-07
1.41092e-07
1.22233e-07
1.05274e-07
9.01369e-08
7.67232e-08
6.49227e-08
5.46157e-08
4.56769e-08
3.79789e-08
3.13949e-08
2.58014e-08
2.10809e-08
5.03926e-07
5.00664e-07
4.94205e-07
4.84675e-07
4.72258e-07
4.57192e-07
4.39758e-07
4.20274e-07
3.99082e-07
3.76542e-07
3.5302e-07
3.28876e-07
3.04458e-07
2.80092e-07
2.56078e-07
2.32677e-07
2.1012e-07
1.88596e-07
1.68254e-07
1.49206e-07
1.31526e-07
1.15253e-07
1.00394e-07
8.6934e-08
7.48327e-08
6.40348e-08
5.4471e-08
4.60622e-08
3.8722e-08
3.23601e-08
2.68845e-08
2.22038e-08
1.82298e-08
1.4878e-08
3.69236e-07
3.66832e-07
3.62073e-07
3.55052e-07
3.45905e-07
3.3481e-07
3.21975e-07
3.07639e-07
2.92058e-07
2.755e-07
2.58234e-07
2.40525e-07
2.22625e-07
2.0477e-07
1.87175e-07
1.70031e-07
1.53505e-07
1.37735e-07
1.22831e-07
1.08874e-07
9.592e-08
8.39989e-08
7.31182e-08
6.32662e-08
5.44147e-08
4.65227e-08
3.95386e-08
3.34031e-08
2.80519e-08
2.34176e-08
1.94321e-08
1.60281e-08
1.31406e-08
1.07078e-08
3.01843e-07
2.9987e-07
2.95963e-07
2.90199e-07
2.82693e-07
2.73591e-07
2.63065e-07
2.51314e-07
2.38547e-07
2.24985e-07
2.1085e-07
1.96358e-07
1.81712e-07
1.67106e-07
1.52713e-07
1.38689e-07
1.2517e-07
1.12269e-07
1.00076e-07
8.86607e-08
7.8068e-08
6.83235e-08
5.94339e-08
5.13895e-08
4.41671e-08
3.77322e-08
3.20418e-08
2.70465e-08
2.26928e-08
1.89252e-08
1.56875e-08
1.29244e-08
1.05827e-08
8.61181e-09
2.5156e-05
2.49911e-05
2.46637e-05
2.41794e-05
2.35481e-05
2.27829e-05
2.18991e-05
2.09145e-05
1.98486e-05
1.87205e-05
1.75482e-05
1.63488e-05
1.51378e-05
1.393e-05
1.27389e-05
1.15764e-05
1.04536e-05
9.38032e-06
8.36452e-06
7.41243e-06
6.52859e-06
5.71595e-06
4.97567e-06
4.30707e-06
3.70781e-06
3.1744e-06
2.70267e-06
2.28814e-06
1.9262e-06
1.61229e-06
1.34191e-06
1.11068e-06
9.14304e-07
7.48612e-07
2.46295e-05
2.44678e-05
2.41472e-05
2.36741e-05
2.30581e-05
2.23118e-05
2.145e-05
2.04893e-05
1.94476e-05
1.83433e-05
1.71944e-05
1.60181e-05
1.48303e-05
1.36457e-05
1.24772e-05
1.1337e-05
1.02357e-05
9.18322e-06
8.18766e-06
7.25527e-06
6.39026e-06
5.59518e-06
4.87091e-06
4.21667e-06
3.63018e-06
3.10804e-06
2.64622e-06
2.24034e-06
1.88596e-06
1.57861e-06
1.3139e-06
1.0875e-06
8.95222e-07
7.32994e-07
2.35818e-05
2.34279e-05
2.31219e-05
2.26696e-05
2.20804e-05
2.13668e-05
2.05427e-05
1.96236e-05
1.86267e-05
1.75702e-05
1.64712e-05
1.53455e-05
1.42081e-05
1.30729e-05
1.19529e-05
1.08598e-05
9.80417e-06
8.79558e-06
7.84171e-06
6.94835e-06
6.11966e-06
5.35822e-06
4.66486e-06
4.03865e-06
3.47725e-06
2.97735e-06
2.53509e-06
2.14633e-06
1.80683e-06
1.51237e-06
1.25876e-06
1.0419e-06
8.57743e-07
7.02362e-07
2.20677e-05
2.19237e-05
2.16379e-05
2.12157e-05
2.0666e-05
1.99999e-05
1.92304e-05
1.8372e-05
1.74403e-05
1.6452e-05
1.5423e-05
1.43682e-05
1.33018e-05
1.2237e-05
1.11864e-05
1.01613e-05
9.17183e-06
8.22712e-06
7.33431e-06
6.49872e-06
5.72407e-06
5.01257e-06
4.36474e-06
3.77953e-06
3.25466e-06
2.78709e-06
2.37329e-06
2.00943e-06
1.69165e-06
1.41603e-06
1.17867e-06
9.75719e-07
8.03363e-07
6.57918e-07
2.01403e-05
2.00068e-05
1.97436e-05
1.93574e-05
1.88565e-05
1.82508e-05
1.75514e-05
1.67706e-05
1.59221e-05
1.50204e-05
1.40801e-05
1.31155e-05
1.21396e-05
1.11652e-05
1.02041e-05
9.2669e-06
8.36328e-06
7.50114e-06
6.68671e-06
5.92513e-06
5.21961e-06
4.57178e-06
3.98187e-06
3.44878e-06
2.97043e-06
2.5441e-06
2.16665e-06
1.8347e-06
1.54473e-06
1.29324e-06
1.07666e-06
8.9146e-07
7.34136e-07
6.01327e-07
1.78517e-05
1.77341e-05
1.75024e-05
1.71624e-05
1.67212e-05
1.61871e-05
1.55696e-05
1.48791e-05
1.41274e-05
1.33274e-05
1.24923e-05
1.16351e-05
1.07675e-05
9.90135e-06
9.04743e-06
8.21545e-06
7.41394e-06
6.64984e-06
5.92855e-06
5.25444e-06
4.6301e-06
4.05677e-06
3.53445e-06
3.06209e-06
2.63791e-06
2.2596e-06
1.92452e-06
1.62979e-06
1.37237e-06
1.14914e-06
9.56921e-07
7.92526e-07
6.52831e-07
5.34838e-07
1.53269e-05
1.52289e-05
1.50346e-05
1.47478e-05
1.43733e-05
1.39177e-05
1.33889e-05
1.27965e-05
1.21508e-05
1.14629e-05
1.0744e-05
1.00053e-05
9.25807e-06
8.51254e-06
7.77808e-06
7.0631e-06
6.37467e-06
5.71888e-06
5.10027e-06
4.52212e-06
3.9865e-06
3.4943e-06
3.04545e-06
2.63915e-06
2.27395e-06
1.94803e-06
1.65925e-06
1.40522e-06
1.18339e-06
9.91059e-07
8.25463e-07
6.83819e-07
5.63407e-07
4.61644e-07
1.27403e-05
1.26599e-05
1.25004e-05
1.22641e-05
1.19546e-05
1.15769e-05
1.11379e-05
1.06456e-05
1.01087e-05
9.53648e-06
8.93838e-06
8.32383e-06
7.70221e-06
7.08232e-06
6.47178e-06
5.87773e-06
5.30625e-06
4.76204e-06
4.24872e-06
3.76879e-06
3.32378e-06
2.91441e-06
2.5407e-06
2.20208e-06
1.89751e-06
1.62559e-06
1.38465e-06
1.17275e-06
9.87757e-07
8.274e-07
6.8932e-07
5.71166e-07
4.70661e-07
3.85674e-07
1.02253e-05
1.01606e-05
1.00322e-05
9.84211e-06
9.59351e-06
9.29049e-06
8.93855e-06
8.54387e-06
8.11332e-06
7.65466e-06
7.17558e-06
6.68357e-06
6.18602e-06
5.6896e-06
5.20074e-06
4.72508e-06
4.26729e-06
3.83115e-06
3.41946e-06
3.03425e-06
2.67677e-06
2.34763e-06
2.04691e-06
1.77425e-06
1.52894e-06
1.30993e-06
1.11589e-06
9.45263e-07
7.96302e-07
6.67145e-07
5.5588e-07
4.60618e-07
3.79552e-07
3.10988e-07
7.91983e-06
7.86934e-06
7.76918e-06
7.62119e-06
7.42802e-06
7.19292e-06
6.92036e-06
6.61514e-06
6.28249e-06
5.92841e-06
5.55863e-06
5.17888e-06
4.79478e-06
4.41158e-06
4.03409e-06
3.66651e-06
3.3124e-06
2.97467e-06
2.65557e-06
2.35674e-06
2.07926e-06
1.82369e-06
1.59015e-06
1.37842e-06
1.18796e-06
1.01797e-06
8.67363e-07
7.34912e-07
6.19229e-07
5.18856e-07
4.32322e-07
3.58192e-07
2.95094e-07
2.41731e-07
5.92375e-06
5.8857e-06
5.81041e-06
5.69925e-06
5.55439e-06
5.37859e-06
5.17501e-06
4.94732e-06
4.69943e-06
4.43552e-06
4.15983e-06
3.87665e-06
3.59011e-06
3.3041e-06
3.02211e-06
2.74725e-06
2.48218e-06
2.22917e-06
1.98998e-06
1.76594e-06
1.55792e-06
1.36639e-06
1.19146e-06
1.03295e-06
8.90402e-07
7.63166e-07
6.5041e-07
5.51179e-07
4.64439e-07
3.8912e-07
3.24151e-07
2.68485e-07
2.21109e-07
1.81058e-07
4.30172e-06
4.27405e-06
4.21928e-06
4.13849e-06
4.03329e-06
3.90569e-06
3.75803e-06
3.5929e-06
3.41314e-06
3.22171e-06
3.02169e-06
2.81615e-06
2.60811e-06
2.40038e-06
2.19552e-06
1.99577e-06
1.80308e-06
1.61909e-06
1.44516e-06
1.28227e-06
1.13109e-06
9.91968e-07
8.64968e-07
7.49924e-07
6.46471e-07
5.54097e-07
4.72187e-07
4.00058e-07
3.36982e-07
2.82204e-07
2.34964e-07
1.94507e-07
1.60098e-07
1.31025e-07
3.08123e-06
3.06136e-06
3.02201e-06
2.96394e-06
2.88827e-06
2.79647e-06
2.69022e-06
2.57147e-06
2.44229e-06
2.30485e-06
2.16136e-06
2.01402e-06
1.86494e-06
1.71613e-06
1.56941e-06
1.42638e-06
1.28846e-06
1.15681e-06
1.03239e-06
9.15898e-07
8.07801e-07
7.08328e-07
6.1751e-07
5.35216e-07
4.61191e-07
3.95081e-07
3.36464e-07
2.84864e-07
2.39765e-07
2.00631e-07
1.66912e-07
1.38059e-07
1.13538e-07
9.2832e-08
2.26528e-06
2.25058e-06
2.22148e-06
2.17853e-06
2.12257e-06
2.05464e-06
1.97604e-06
1.88822e-06
1.79276e-06
1.69132e-06
1.58553e-06
1.47703e-06
1.36736e-06
1.25797e-06
1.15017e-06
1.04512e-06
9.43856e-07
8.47229e-07
7.55917e-07
6.7042e-07
5.91065e-07
5.18021e-07
4.51323e-07
3.90888e-07
3.3654e-07
2.88033e-07
2.45061e-07
2.07272e-07
1.74283e-07
1.45689e-07
1.21075e-07
1.00032e-07
8.21589e-08
6.70787e-08
1.85549e-06
1.8434e-06
1.81943e-06
1.78406e-06
1.73798e-06
1.68208e-06
1.61744e-06
1.54526e-06
1.46685e-06
1.38357e-06
1.29678e-06
1.20781e-06
1.11794e-06
1.02833e-06
9.40051e-07
8.54046e-07
7.7114e-07
6.92018e-07
6.17231e-07
5.4719e-07
4.82173e-07
4.22328e-07
3.67694e-07
3.18213e-07
2.73749e-07
2.34099e-07
1.99009e-07
1.68183e-07
1.41297e-07
1.18011e-07
9.79801e-08
8.08645e-08
6.63374e-08
5.409e-08
0.000174024
0.000172875
0.000170583
0.000167174
0.000162719
0.00015732
0.000151088
0.000144152
0.000136672
0.000128805
0.000120685
0.000112427
0.000104125
9.58749e-05
8.7763e-05
7.98568e-05
7.22195e-05
6.49052e-05
5.79598e-05
5.14188e-05
4.53125e-05
3.96685e-05
3.45082e-05
2.9843e-05
2.56712e-05
2.1973e-05
1.87156e-05
1.58616e-05
1.33726e-05
1.12118e-05
9.34551e-06
7.74394e-06
6.37972e-06
5.22669e-06
0.000170383
0.000169239
0.000166972
0.000163628
0.000159284
0.000154032
0.000147981
0.000141249
0.000133968
0.000126277
0.000118311
0.000110196
0.000102044
9.39493e-05
8.59889e-05
7.82292e-05
7.07289e-05
6.35453e-05
5.67281e-05
5.03161e-05
4.43382e-05
3.88174e-05
3.37714e-05
2.92097e-05
2.51301e-05
2.15125e-05
1.8325e-05
1.55312e-05
1.30942e-05
1.09784e-05
9.15093e-06
7.58245e-06
6.24617e-06
5.11708e-06
0.00016289
0.00016182
0.000159674
0.000156486
0.00015234
0.000147335
0.000141567
0.00013514
0.00012818
0.00012084
0.000113256
0.000105533
9.77591e-05
9.00215e-05
8.24023e-05
7.49668e-05
6.77775e-05
6.08902e-05
5.43518e-05
4.81982e-05
4.24598e-05
3.71633e-05
3.23283e-05
2.79637e-05
2.40637e-05
2.06052e-05
1.75564e-05
1.48825e-05
1.25481e-05
1.05199e-05
8.76754e-06
7.264e-06
5.9839e-06
4.90261e-06
0.000152222
0.000151226
0.000149233
0.000146276
0.000142427
0.000137769
0.0001324
0.000126421
0.000119948
0.000113117
0.000106048
9.884e-05
9.15711e-05
8.43248e-05
7.71794e-05
7.01997e-05
6.34488e-05
5.69824e-05
5.08458e-05
4.50749e-05
3.96992e-05
3.47439e-05
3.02271e-05
2.61548e-05
2.25163e-05
1.92878e-05
1.64392e-05
1.39382e-05
1.17528e-05
9.85277e-06
8.21091e-06
6.80256e-06
5.60407e-06
4.5921e-06
0.000138787
0.000137844
0.000135993
0.000133288
0.000129791
0.000125577
0.000120727
0.000115333
0.000109492
0.000103305
9.68742e-05
9.02957e-05
8.3654e-05
7.70281e-05
7.04866e-05
6.40957e-05
5.79147e-05
5.19916e-05
4.63665e-05
4.10847e-05
3.61765e-05
3.1661e-05
2.75519e-05
2.3851e-05
2.0544e-05
1.76072e-05
1.50132e-05
1.27327e-05
1.07375e-05
9.00176e-06
7.50189e-06
6.21562e-06
5.12126e-06
4.19756e-06
0.00012285
0.000122023
0.000120405
0.000118044
0.000114991
0.00011131
0.000107064
0.000102332
9.71933e-05
9.17347e-05
8.6047e-05
8.02143e-05
7.43131e-05
6.84161e-05
6.25878e-05
5.6891e-05
5.13823e-05
4.6108e-05
4.11029e-05
3.64123e-05
3.20614e-05
2.80674e-05
2.44396e-05
2.11717e-05
1.8248e-05
1.56473e-05
1.33459e-05
1.13197e-05
9.54559e-06
8.00207e-06
6.6687e-06
5.52612e-06
4.5547e-06
3.73473e-06
0.000105386
0.000104714
0.000103385
0.000101425
9.88703e-05
9.57617e-05
9.21572e-05
8.81205e-05
8.37219e-05
7.90395e-05
7.41463e-05
6.91145e-05
6.40153e-05
5.89158e-05
5.38756e-05
4.89494e-05
4.41856e-05
3.96343e-05
3.53299e-05
3.1301e-05
2.75726e-05
2.41567e-05
2.10531e-05
1.82532e-05
1.57428e-05
1.35044e-05
1.15195e-05
9.76943e-06
8.23624e-06
6.90301e-06
5.75272e-06
4.76804e-06
3.93145e-06
3.22509e-06
8.77202e-05
8.71784e-05
8.6101e-05
8.45024e-05
8.24049e-05
7.98383e-05
7.68507e-05
7.34969e-05
6.98366e-05
6.59328e-05
6.18446e-05
5.76327e-05
5.33614e-05
4.90888e-05
4.48621e-05
4.07342e-05
3.67581e-05
3.2967e-05
2.93911e-05
2.60556e-05
2.29725e-05
2.01455e-05
1.75722e-05
1.52452e-05
1.31533e-05
1.12837e-05
9.62323e-06
8.15868e-06
6.87667e-06
5.7633e-06
4.80395e-06
3.98353e-06
3.28631e-06
2.69693e-06
7.06239e-05
7.0184e-05
6.93114e-05
6.802e-05
6.63274e-05
6.42598e-05
6.18532e-05
5.91472e-05
5.6187e-05
5.30285e-05
4.97251e-05
4.63271e-05
4.28845e-05
3.94357e-05
3.60288e-05
3.2712e-05
2.95199e-05
2.64851e-05
2.36294e-05
2.09666e-05
1.85036e-05
1.62413e-05
1.41764e-05
1.23034e-05
1.06154e-05
9.10463e-06
7.76232e-06
6.57913e-06
5.54458e-06
4.6474e-06
3.87515e-06
3.21465e-06
2.6528e-06
2.1773e-06
5.48857e-05
5.45378e-05
5.38482e-05
5.28303e-05
5.15008e-05
4.98785e-05
4.79952e-05
4.58813e-05
4.35684e-05
4.11068e-05
3.85355e-05
3.58913e-05
3.32155e-05
3.05423e-05
2.79115e-05
2.53551e-05
2.28991e-05
2.05634e-05
1.83626e-05
1.63062e-05
1.43997e-05
1.26439e-05
1.10376e-05
9.57778e-06
8.26115e-06
7.08315e-06
6.0376e-06
5.1174e-06
4.314e-06
3.61764e-06
3.0178e-06
2.50403e-06
2.06634e-06
1.69554e-06
4.1102e-05
4.08385e-05
4.03195e-05
3.95458e-05
3.8536e-05
3.73129e-05
3.58925e-05
3.43059e-05
3.25774e-05
3.07367e-05
2.88146e-05
2.6842e-05
2.48492e-05
2.28642e-05
2.09113e-05
1.90116e-05
1.71829e-05
1.54399e-05
1.37937e-05
1.22519e-05
1.08191e-05
9.49742e-06
8.28764e-06
7.18898e-06
6.19942e-06
5.31524e-06
4.53174e-06
3.84285e-06
3.24123e-06
2.71904e-06
2.26841e-06
1.88182e-06
1.55217e-06
1.27289e-06
2.98311e-05
2.96387e-05
2.92577e-05
2.86951e-05
2.79625e-05
2.70746e-05
2.60479e-05
2.49006e-05
2.36527e-05
2.23252e-05
2.09393e-05
1.95168e-05
1.80788e-05
1.66448e-05
1.52317e-05
1.38543e-05
1.25251e-05
1.12548e-05
1.00523e-05
8.92464e-06
7.87628e-06
6.91003e-06
6.02703e-06
5.22688e-06
4.50763e-06
3.86592e-06
3.29735e-06
2.79685e-06
2.35904e-06
1.97841e-06
1.6496e-06
1.36744e-06
1.127e-06
9.2354e-07
2.13899e-05
2.12519e-05
2.09786e-05
2.05756e-05
2.00508e-05
1.94146e-05
1.86788e-05
1.78569e-05
1.69633e-05
1.60134e-05
1.50223e-05
1.40046e-05
1.29747e-05
1.1946e-05
1.09309e-05
9.94005e-06
8.98305e-06
8.06799e-06
7.20169e-06
6.38996e-06
5.63656e-06
4.94348e-06
4.31123e-06
3.73891e-06
3.22446e-06
2.76514e-06
2.35772e-06
1.99872e-06
1.68448e-06
1.41129e-06
1.17548e-06
9.73412e-07
8.01511e-07
6.56273e-07
1.5775e-05
1.56732e-05
1.54718e-05
1.51743e-05
1.47864e-05
1.43156e-05
1.37706e-05
1.31616e-05
1.24996e-05
1.17959e-05
1.10617e-05
1.03082e-05
9.54573e-06
8.78454e-06
8.03372e-06
7.30122e-06
6.59444e-06
5.91959e-06
5.28196e-06
4.68535e-06
4.13219e-06
3.62357e-06
3.15947e-06
2.73901e-06
2.36074e-06
2.02277e-06
1.72293e-06
1.45884e-06
1.22793e-06
1.02753e-06
8.54868e-07
7.07171e-07
5.81677e-07
4.7572e-07
1.29539e-05
1.28701e-05
1.27039e-05
1.24581e-05
1.21375e-05
1.17486e-05
1.12988e-05
1.07964e-05
1.02504e-05
9.66993e-06
9.06444e-06
8.44325e-06
7.81533e-06
7.18913e-06
6.5723e-06
5.97122e-06
5.39194e-06
4.83937e-06
4.31753e-06
3.82928e-06
3.37642e-06
2.95975e-06
2.57928e-06
2.23443e-06
1.92414e-06
1.64704e-06
1.40145e-06
1.18543e-06
9.96863e-07
8.33455e-07
6.92847e-07
5.72656e-07
4.70567e-07
3.84393e-07
0.00122991
0.00122177
0.00120534
0.00118062
0.00114809
0.00110852
0.00106259
0.00101121
0.000955813
0.000897807
0.00083839
0.000778438
0.000718522
0.00065951
0.000602292
0.000547352
0.000495154
0.000445867
0.000399488
0.000355926
0.000315077
0.000276889
0.000241433
0.000208825
0.000179212
0.000152918
0.000129903
0.000109936
9.27098e-05
7.78805e-05
6.5118e-05
5.4136e-05
4.47118e-05
3.66759e-05
0.00120475
0.00119635
0.00117968
0.00115511
0.00112326
0.00108478
0.00104044
0.00099101
0.000937402
0.000880737
0.000822191
0.000762889
0.000703856
0.00064602
0.000589952
0.000536166
0.000484959
0.000436597
0.0003911
0.000348384
0.000308341
0.000270928
0.00023621
0.000204358
0.000175355
0.000149655
0.000127159
0.000107633
9.07845e-05
7.62786e-05
6.37861e-05
5.30246e-05
4.37794e-05
3.58996e-05
0.00114908
0.00114141
0.00112574
0.00110226
0.00107174
0.00103503
0.000992708
0.000945275
0.0008937
0.000839541
0.000784166
0.000728433
0.000672794
0.000617999
0.000564833
0.000513704
0.000465006
0.000418879
0.00037533
0.000334301
0.000295738
0.000259671
0.000226208
0.000195469
0.000167719
0.000143189
0.000121734
0.000103111
8.70198e-05
7.31323e-05
6.11472e-05
5.08153e-05
4.19462e-05
3.43906e-05
0.00107054
0.00106346
0.001049
0.00102733
0.000999012
0.000964707
0.000925139
0.000880968
0.000833112
0.000782984
0.000731799
0.000680304
0.00062886
0.000578133
0.000528825
0.000481297
0.000435907
0.000392772
0.0003519
0.000313285
0.000276938
0.000242942
0.000211425
0.000182547
0.00015668
0.000133854
0.000113895
9.65592e-05
8.15493e-05
6.85594e-05
5.73198e-05
4.76171e-05
3.92894e-05
3.22021e-05
0.000972015
0.000965009
0.00095132
0.000931379
0.000905597
0.000874555
0.000838892
0.000799492
0.000757087
0.000712441
0.000666396
0.000619784
0.000573354
0.000527741
0.000483274
0.000440327
0.000399089
0.000359612
0.000321948
0.000286262
0.000252716
0.000221404
0.000192437
0.000166098
0.000142653
0.000122002
0.000103948
8.82321e-05
7.45807e-05
6.27255e-05
5.24385e-05
4.35448e-05
3.59066e-05
2.94211e-05
0.0008546
0.000848417
0.000836453
0.000819152
0.000796839
0.000770015
0.000739196
0.00070517
0.000668538
0.000629919
0.000590018
0.000549542
0.000509124
0.000469263
0.000430203
0.000392249
0.000355582
0.000320305
0.000286463
0.000254376
0.000224238
0.00019611
0.000170278
0.000147075
0.000126472
0.000108323
9.24268e-05
7.85429e-05
6.64292e-05
5.58648e-05
4.66738e-05
3.87309e-05
3.19281e-05
2.61659e-05
0.00072722
0.000722322
0.000712676
0.000698576
0.000680354
0.000658234
0.000632755
0.000604369
0.0005736
0.000541234
0.000507828
0.000473848
0.00043965
0.000405631
0.000372094
0.000339219
0.000307236
0.000276422
0.000246956
0.000218945
0.000192543
0.000168231
0.000146212
0.000126488
0.000108967
9.34975e-05
7.98921e-05
6.79407e-05
5.74535e-05
4.82786e-05
4.02976e-05
3.34112e-05
2.75342e-05
2.25791e-05
0.000601569
0.000597804
0.000590305
0.00057921
0.000564733
0.000547021
0.000526527
0.000503632
0.000478765
0.000452494
0.000425173
0.000397141
0.000368741
0.000340237
0.000311824
0.000283818
0.000256646
0.000230493
0.000205407
0.000181697
0.000159784
0.000139773
0.000121688
0.000105484
9.10499e-05
7.82424e-05
6.6905e-05
5.68872e-05
4.80669e-05
4.03476e-05
3.36431e-05
2.78862e-05
2.29984e-05
1.88811e-05
0.000484139
0.000481179
0.000475323
0.000466688
0.000455331
0.000441472
0.00042534
0.000407237
0.000387445
0.000366343
0.000344282
0.000321581
0.000298488
0.000275085
0.000251655
0.000228699
0.000206286
0.000184682
0.000164347
0.000145462
0.000128122
0.000112336
9.80528e-05
8.51911e-05
7.36561e-05
6.3342e-05
5.4147e-05
4.59888e-05
3.87976e-05
3.25219e-05
2.71033e-05
2.2478e-05
1.85586e-05
1.52533e-05
0.000379169
0.000376838
0.000372241
0.000365454
0.000356567
0.000345724
0.000333094
0.000318848
0.000303148
0.000286395
0.000268858
0.000250724
0.00023233
0.000213586
0.000194933
0.000176725
0.000159249
0.000142693
0.000127183
0.0001128
9.95865e-05
8.75219e-05
7.65439e-05
6.65804e-05
5.75734e-05
4.94719e-05
4.22287e-05
3.58105e-05
3.0177e-05
2.5292e-05
2.10968e-05
1.75178e-05
1.44786e-05
1.19066e-05
0.000286597
0.00028486
0.000281442
0.000276161
0.000269205
0.00026084
0.000250985
0.000240031
0.000228029
0.000215122
0.000201514
0.000187461
0.000173262
0.000159133
0.000145275
0.000131854
0.000119011
0.000106861
9.54737e-05
8.4879e-05
7.50778e-05
6.60503e-05
5.77694e-05
5.02132e-05
4.33659e-05
3.72035e-05
3.17124e-05
2.68766e-05
2.26624e-05
1.90176e-05
1.58832e-05
1.31999e-05
1.09119e-05
8.96866e-06
0.000208814
0.000207462
0.000204831
0.00020084
0.00019563
0.000189316
0.000182001
0.000173828
0.000164942
0.000155501
0.000145668
0.000135608
0.000125484
0.000115436
0.000105589
9.60471e-05
8.68838e-05
7.81622e-05
6.99248e-05
6.21982e-05
5.49961e-05
4.83261e-05
4.21945e-05
3.66067e-05
3.15631e-05
2.7057e-05
2.30714e-05
1.9574e-05
1.65247e-05
1.38797e-05
1.15958e-05
9.63264e-06
7.95406e-06
6.52794e-06
0.000149141
0.000148155
0.000146207
0.000143341
0.000139619
0.000135117
0.000129921
0.000124128
0.000117846
0.0001112
0.000104303
9.72551e-05
9.01466e-05
8.30663e-05
7.60942e-05
6.92961e-05
6.27232e-05
5.64182e-05
5.04216e-05
4.4777e-05
3.95156e-05
3.46556e-05
3.02108e-05
2.61885e-05
2.25814e-05
1.93704e-05
1.65305e-05
1.40331e-05
1.18482e-05
9.94572e-06
8.29834e-06
6.88147e-06
5.67226e-06
4.64863e-06
0.000109792
0.000109083
0.000107681
0.000105605
0.000102903
9.96313e-05
9.58513e-05
9.16319e-05
8.70569e-05
8.2206e-05
7.71528e-05
7.19676e-05
6.6718e-05
6.14709e-05
5.6283e-05
5.12024e-05
4.62785e-05
4.15526e-05
3.7073e-05
3.28719e-05
2.89745e-05
2.53977e-05
2.21434e-05
1.92043e-05
1.65669e-05
1.4214e-05
1.21266e-05
1.02853e-05
8.67084e-06
7.26475e-06
6.04969e-06
5.00834e-06
4.12317e-06
3.37625e-06
9.03298e-05
8.97536e-05
8.86099e-05
8.69122e-05
8.4697e-05
8.20145e-05
7.8915e-05
7.54543e-05
7.1694e-05
6.76918e-05
6.35069e-05
5.92004e-05
5.48338e-05
5.04686e-05
4.61587e-05
4.19417e-05
3.78663e-05
3.39668e-05
3.02837e-05
2.68436e-05
2.36636e-05
2.07481e-05
1.80939e-05
1.56927e-05
1.35331e-05
1.16024e-05
9.88721e-06
8.37374e-06
7.04834e-06
5.89691e-06
4.90511e-06
4.05761e-06
3.33846e-06
2.73178e-06
0.588891
0.585462
0.578446
0.567661
0.553253
0.535459
0.514365
0.49019
0.463579
0.435206
0.405643
0.375225
0.344039
0.312732
0.282227
0.252993
0.225883
0.201279
0.179256
0.15966
0.142187
0.126253
0.111474
0.0976981
0.0012725
0.00108312
0.00091433
0.000767476
0.000642144
0.000536741
0.00044882
0.000375024
0.000312132
0.000257911
0.578756
0.575029
0.567602
0.556626
0.542338
0.524919
0.504577
0.481436
0.455714
0.427814
0.398247
0.36759
0.336487
0.305689
0.2757
0.247169
0.2206
0.196643
0.175328
0.156372
0.139329
0.123714
0.10921
0.0960817
0.00124546
0.00105954
0.000894356
0.000750688
0.000628298
0.000525598
0.000439844
0.000367605
0.000305816
0.000252473
0.553875
0.550521
0.543479
0.532761
0.518751
0.501808
0.481962
0.459107
0.433538
0.40619
0.377901
0.34908
0.319733
0.290468
0.262178
0.235289
0.210562
0.188229
0.168228
0.150309
0.134066
0.119078
0.105077
0.0920247
0.00119016
0.00101169
0.000853894
0.000717304
0.000601174
0.000503595
0.000421895
0.000352803
0.000293502
0.000242209
0.518123
0.514995
0.508413
0.498346
0.485018
0.468622
0.449387
0.427402
0.402994
0.377079
0.350461
0.323527
0.296233
0.269166
0.24318
0.21867
0.196284
0.176085
0.15789
0.141396
0.126235
0.112093
0.0988369
0.0863752
0.00110984
0.000942749
0.000795882
0.000669394
0.000562182
0.000472033
0.000396131
0.000331419
0.000275527
0.000227072
0.471851
0.468477
0.461893
0.452253
0.439597
0.424133
0.406093
0.385987
0.364094
0.340693
0.316214
0.291237
0.266436
0.242508
0.219675
0.198478
0.179046
0.161299
0.145101
0.130124
0.116119
0.102931
0.0909732
0.00117784
0.00100704
0.000855174
0.000722756
0.000609225
0.000513237
0.000432337
0.000363556
0.000304221
0.000252466
0.000207566
0.414025
0.410848
0.404775
0.396012
0.384573
0.370664
0.354486
0.336612
0.31729
0.29676
0.275427
0.253859
0.232708
0.212577
0.193531
0.175872
0.159535
0.144424
0.130268
0.11689
0.104235
0.092325
0.00120834
0.00103957
0.000888121
0.000754713
0.000639307
0.000540797
0.00045735
0.000386295
0.000325021
0.000271642
0.000225081
0.000184546
0.348635
0.345943
0.340687
0.333126
0.323491
0.311682
0.298124
0.282921
0.266279
0.249082
0.231784
0.21474
0.197985
0.181902
0.166737
0.152408
0.138898
0.126088
0.113887
0.102257
0.0910937
0.00119338
0.0010331
0.000888095
0.000759216
0.000646689
0.00055
0.000467465
0.000396792
0.00033568
0.000282251
0.000235366
0.000194183
0.000158831
0.281603
0.279542
0.275445
0.26948
0.261857
0.252461
0.241748
0.229865
0.21703
0.203955
0.190886
0.178003
0.165299
0.152894
0.140827
0.129123
0.117821
0.106965
0.0965857
0.085984
0.00113203
0.000985697
0.000852514
0.000733547
0.000628924
0.000538162
0.000460097
0.00039273
0.000334038
0.000282401
0.000236693
0.000196568
0.000161765
0.000132402
0.219703
0.218218
0.215331
0.211164
0.20558
0.198838
0.191042
0.182566
0.173536
0.164146
0.15457
0.144938
0.135271
0.125522
0.115752
0.10619
0.0969694
0.0873476
0.00116395
0.001026
0.000898558
0.000782734
0.0006788
0.000586725
0.000506084
0.00043583
0.000374344
0.000320031
0.000271683
0.000228802
0.000190808
0.00015786
0.00012996
0.000106611
0.169966
0.168951
0.166981
0.164007
0.160094
0.155387
0.149915
0.14384
0.137232
0.130206
0.122883
0.115364
0.107811
0.0999135
0.0917988
0.00125406
0.0011279
0.00100673
0.000892292
0.000786066
0.000689393
0.000602812
0.000525918
0.000457731
0.000397241
0.0003433
0.000294911
0.000251504
0.00021249
0.000177889
0.000147966
0.000122537
0.000101143
8.32384e-05
0.130415
0.129736
0.128346
0.126157
0.123257
0.119742
0.115602
0.111026
0.106059
0.100679
0.0949094
0.0887385
0.00122971
0.00112748
0.00102611
0.000927238
0.000832413
0.000743125
0.000660383
0.00058466
0.000516078
0.000454311
0.000398662
0.000348347
0.000302665
0.000261037
0.000223213
0.000189203
0.000159159
0.000133189
0.000111003
9.22112e-05
7.63577e-05
6.2977e-05
0.0978855
0.0973031
0.09654
0.0947226
0.0922943
0.0897216
0.086247
0.00123504
0.00117077
0.00110201
0.00102997
0.000955967
0.000881354
0.00080725
0.000734893
0.000665453
0.000599649
0.00053818
0.000481286
0.000428858
0.00038059
0.000336076
0.000294964
0.000257056
0.000222281
0.000190596
0.000162182
0.000137237
0.000115607
9.7019e-05
8.11344e-05
6.75868e-05
5.60232e-05
4.61492e-05
0.0010578
0.00105042
0.00103595
0.00101468
0.000987141
0.000953845
0.000915367
0.000872323
0.000825597
0.000776455
0.000725991
0.000675005
0.000624009
0.000573713
0.000524875
0.000478051
0.000433387
0.000390917
0.000350705
0.000312785
0.000277202
0.000243945
0.000213018
0.000184503
0.000158758
0.000135861
0.000115725
9.81695e-05
8.2956e-05
6.98026e-05
5.84369e-05
4.8626e-05
4.01886e-05
3.29797e-05
0.000767307
0.000762163
0.000751951
0.000736692
0.000716874
0.000693109
0.000665783
0.00063533
0.000602608
0.000568336
0.000533071
0.000497298
0.000461451
0.000425955
0.000391049
0.000356942
0.000323775
0.000291683
0.000260998
0.0002319
0.000204442
0.000178896
0.000155626
0.000134679
0.000116007
9.94862e-05