/*--------------------------------*- C++ -*----------------------------------*\
| =========                 |                                                 |
| \\      /  F ield         | OpenFOAM: The Open Source CFD Toolbox           |
|  \\    /   O peration     | Version:  2412                                  |
|   \\  /    A nd           | Website:  www.openfoam.com                      |
|    \\/     M anipulation  |                                                 |
\*---------------------------------------------------------------------------*/
FoamFile
{
    version     2.0;
    format      ascii;
    arch        "LSB;label=32;scalar=64";
    class       volScalarField;
    location    "0.030011";
    object      Vm;
}
// * * * * * * * * * * * * * * * * * * * * * * * * * * * * * * * * * * * * * //

dimensions      [0 0 0 0 0 0 0];

internalField   nonuniform List<scalar> 
8796
(
1.93636e-05
1.92361e-05
1.89837e-05
1.86113e-05
1.81264e-05
1.75388e-05
1.68601e-05
1.61034e-05
1.52826e-05
1.44121e-05
1.35058e-05
1.25772e-05
1.16392e-05
1.0704e-05
9.78246e-06
8.88459e-06
8.01905e-06
7.19322e-06
6.413e-06
5.68277e-06
5.00552e-06
4.38291e-06
3.81529e-06
3.30191e-06
2.84112e-06
2.43058e-06
2.06744e-06
1.74851e-06
1.47038e-06
1.22952e-06
1.02238e-06
8.45422e-07
6.95225e-07
5.68538e-07
1.8958e-05
1.88335e-05
1.85869e-05
1.82232e-05
1.77495e-05
1.71754e-05
1.65121e-05
1.57722e-05
1.49691e-05
1.41168e-05
1.3229e-05
1.23191e-05
1.13999e-05
1.04832e-05
9.58002e-06
8.70007e-06
7.85194e-06
7.04285e-06
6.27864e-06
5.56359e-06
4.90056e-06
4.29106e-06
3.73539e-06
3.23281e-06
2.7817e-06
2.37976e-06
2.02423e-06
1.71197e-06
1.43967e-06
1.20386e-06
1.00106e-06
8.278e-07
6.80738e-07
5.56695e-07
1.81587e-05
1.80396e-05
1.78036e-05
1.74553e-05
1.70018e-05
1.64521e-05
1.5817e-05
1.51084e-05
1.43394e-05
1.35232e-05
1.2673e-05
1.18015e-05
1.09208e-05
1.00426e-05
9.17717e-06
8.33402e-06
7.52139e-06
6.74625e-06
6.01414e-06
5.32915e-06
4.69402e-06
4.11022e-06
3.57802e-06
3.09667e-06
2.66462e-06
2.27966e-06
1.93913e-06
1.64005e-06
1.37923e-06
1.15336e-06
9.59105e-07
7.93143e-07
6.52269e-07
5.33436e-07
1.69932e-05
1.68818e-05
1.66612e-05
1.63358e-05
1.59121e-05
1.53985e-05
1.48049e-05
1.41423e-05
1.34228e-05
1.26588e-05
1.18626e-05
1.10462e-05
1.02212e-05
9.39836e-06
8.58768e-06
7.79805e-06
7.03725e-06
6.31181e-06
5.62685e-06
4.98614e-06
4.39215e-06
3.84616e-06
3.3484e-06
2.89814e-06
2.49394e-06
2.13376e-06
1.81513e-06
1.53528e-06
1.29122e-06
1.07986e-06
8.98065e-07
7.42735e-07
6.10866e-07
4.99612e-07
1.55012e-05
1.53992e-05
1.51976e-05
1.49008e-05
1.45151e-05
1.40477e-05
1.35075e-05
1.29041e-05
1.22482e-05
1.1551e-05
1.08239e-05
1.00782e-05
9.3245e-06
8.57287e-06
7.83261e-06
7.11192e-06
6.4179e-06
5.75639e-06
5.13194e-06
4.54794e-06
4.00655e-06
3.50888e-06
3.0551e-06
2.64455e-06
2.27594e-06
1.94744e-06
1.65683e-06
1.40156e-06
1.17893e-06
9.86112e-07
8.20231e-07
6.78462e-07
5.58071e-07
4.56472e-07
1.37355e-05
1.36456e-05
1.34679e-05
1.32061e-05
1.28657e-05
1.24529e-05
1.19754e-05
1.14415e-05
1.08606e-05
1.02426e-05
9.59784e-06
8.93637e-06
8.26778e-06
7.60116e-06
6.94482e-06
6.30605e-06
5.6911e-06
5.10505e-06
4.55188e-06
4.03451e-06
3.55481e-06
3.11374e-06
2.71145e-06
2.3474e-06
2.02046e-06
1.72904e-06
1.47121e-06
1.24473e-06
1.04719e-06
8.76082e-07
7.28844e-07
6.02971e-07
4.96042e-07
4.05775e-07
1.17907e-05
1.17147e-05
1.15641e-05
1.13416e-05
1.10515e-05
1.06987e-05
1.02899e-05
9.83223e-06
9.33397e-06
8.80364e-06
8.25006e-06
7.68194e-06
7.10771e-06
6.53526e-06
5.9717e-06
5.42329e-06
4.89532e-06
4.39213e-06
3.91707e-06
3.47261e-06
3.06035e-06
2.68115e-06
2.33515e-06
2.02194e-06
1.74059e-06
1.48976e-06
1.2678e-06
1.0728e-06
9.027e-07
7.55323e-07
6.28476e-07
5.20001e-07
4.27824e-07
3.49992e-07
9.79204e-06
9.72947e-06
9.6054e-06
9.42192e-06
9.18216e-06
8.89036e-06
8.55179e-06
8.17261e-06
7.75955e-06
7.31976e-06
6.86054e-06
6.38915e-06
5.91258e-06
5.43741e-06
4.96951e-06
4.5141e-06
4.07556e-06
3.65747e-06
3.26261e-06
2.89304e-06
2.55009e-06
2.23452e-06
1.94648e-06
1.68567e-06
1.45132e-06
1.24236e-06
1.05742e-06
8.94917e-07
7.5313e-07
6.30252e-07
5.24461e-07
4.33968e-07
3.57053e-07
2.92098e-07
7.85209e-06
7.80202e-06
7.70273e-06
7.55592e-06
7.36415e-06
7.13083e-06
6.86019e-06
6.55708e-06
6.22682e-06
5.87514e-06
5.50783e-06
5.13067e-06
4.7492e-06
4.36862e-06
3.99366e-06
3.62848e-06
3.27664e-06
2.94104e-06
2.62397e-06
2.32712e-06
2.05159e-06
1.798e-06
1.5665e-06
1.35683e-06
1.16841e-06
1.00036e-06
8.51585e-07
7.20813e-07
6.06666e-07
5.07706e-07
4.22481e-07
3.49566e-07
2.87591e-07
2.35254e-07
6.07752e-06
6.03868e-06
5.96168e-06
5.84791e-06
5.69946e-06
5.51903e-06
5.30991e-06
5.07585e-06
4.82091e-06
4.54943e-06
4.26583e-06
3.97451e-06
3.67973e-06
3.3855e-06
3.09545e-06
2.81282e-06
2.54038e-06
2.28041e-06
2.03475e-06
1.80473e-06
1.59123e-06
1.39474e-06
1.21536e-06
1.05288e-06
9.06844e-07
7.76552e-07
6.61156e-07
5.59677e-07
4.71059e-07
3.94202e-07
3.27997e-07
2.7135e-07
2.23204e-07
1.82551e-07
4.54298e-06
4.5138e-06
4.45602e-06
4.37075e-06
4.25962e-06
4.1247e-06
3.96844e-06
3.79362e-06
3.60328e-06
3.4006e-06
3.18887e-06
2.97135e-06
2.7512e-06
2.53139e-06
2.31466e-06
2.1034e-06
1.89972e-06
1.70535e-06
1.52168e-06
1.34972e-06
1.19013e-06
1.04327e-06
9.09205e-07
7.87759e-07
6.78571e-07
5.8112e-07
4.94774e-07
4.18812e-07
3.52455e-07
2.94896e-07
2.45311e-07
2.02888e-07
1.66836e-07
1.36401e-07
3.29395e-06
3.27272e-06
3.23068e-06
3.16867e-06
3.08789e-06
2.98987e-06
2.8764e-06
2.7495e-06
2.61138e-06
2.46435e-06
2.31077e-06
2.15303e-06
1.99341e-06
1.83407e-06
1.67699e-06
1.5239e-06
1.37631e-06
1.23547e-06
1.10237e-06
9.77768e-07
8.62127e-07
7.55702e-07
6.5854e-07
5.70514e-07
4.91362e-07
4.20709e-07
3.58101e-07
3.03023e-07
2.54916e-07
2.13195e-07
1.77264e-07
1.46534e-07
1.20427e-07
9.8394e-08
2.35205e-06
2.33682e-06
2.30668e-06
2.26219e-06
2.20424e-06
2.13392e-06
2.05255e-06
1.9616e-06
1.86269e-06
1.75749e-06
1.6477e-06
1.53501e-06
1.42104e-06
1.30732e-06
1.19523e-06
1.08601e-06
9.80725e-07
8.8026e-07
7.85315e-07
6.96411e-07
6.13891e-07
5.37935e-07
4.68585e-07
4.0576e-07
3.49277e-07
2.98879e-07
2.5424e-07
2.14993e-07
1.80733e-07
1.51039e-07
1.25482e-07
1.03635e-07
8.50864e-08
6.94421e-08
1.72339e-06
1.71217e-06
1.68995e-06
1.65718e-06
1.61449e-06
1.56271e-06
1.5028e-06
1.43589e-06
1.36317e-06
1.28588e-06
1.20529e-06
1.12264e-06
1.03909e-06
9.55753e-07
8.73629e-07
7.93612e-07
7.16477e-07
6.42871e-07
5.73305e-07
5.08163e-07
4.47701e-07
3.9206e-07
3.41275e-07
2.95291e-07
2.53978e-07
2.17142e-07
1.84544e-07
1.55907e-07
1.30931e-07
1.093e-07
9.06983e-08
7.48104e-08
6.13331e-08
4.99782e-08
1.40884e-06
1.39963e-06
1.38139e-06
1.35449e-06
1.31945e-06
1.27697e-06
1.22784e-06
1.17299e-06
1.1134e-06
1.05011e-06
9.84132e-07
9.16488e-07
8.48133e-07
7.79958e-07
7.12779e-07
6.47323e-07
5.84223e-07
5.24008e-07
4.671e-07
4.13819e-07
3.64378e-07
3.18896e-07
2.77404e-07
2.39858e-07
2.06148e-07
1.76113e-07
1.49553e-07
1.26238e-07
1.05918e-07
8.83324e-08
7.32205e-08
6.03241e-08
4.93943e-08
4.01951e-08
0.000117414
0.000116645
0.000115116
0.000112856
0.000109909
0.000106338
0.000102213
9.76175e-05
9.26422e-05
8.73767e-05
8.19055e-05
7.63072e-05
7.0655e-05
6.50176e-05
5.9458e-05
5.40323e-05
4.87918e-05
4.37821e-05
3.90409e-05
3.45971e-05
3.04718e-05
2.66789e-05
2.32237e-05
2.0103e-05
1.7306e-05
1.48163e-05
1.26146e-05
1.06798e-05
8.99043e-06
7.52527e-06
6.26331e-06
5.18406e-06
4.26746e-06
3.4941e-06
0.000114957
0.000114202
0.000112706
0.000110498
0.000107623
0.000104139
0.000100117
9.56326e-05
9.07705e-05
8.56163e-05
8.0254e-05
7.47637e-05
6.92198e-05
6.36904e-05
5.82367e-05
5.29146e-05
4.77747e-05
4.28622e-05
3.82155e-05
3.38636e-05
2.98262e-05
2.61152e-05
2.27347e-05
1.96811e-05
1.69437e-05
1.45066e-05
1.23511e-05
1.04567e-05
8.80262e-06
7.36809e-06
6.13254e-06
5.07586e-06
4.1784e-06
3.42121e-06
0.000110067
0.000109348
0.00010792
0.000105809
0.000103059
9.97284e-05
9.58818e-05
9.1592e-05
8.69393e-05
8.20081e-05
7.68784e-05
7.16245e-05
6.63155e-05
6.10169e-05
5.57894e-05
5.06873e-05
4.57604e-05
4.10529e-05
3.66007e-05
3.2431e-05
2.85632e-05
2.50092e-05
2.1773e-05
1.88502e-05
1.62299e-05
1.38966e-05
1.18324e-05
1.00179e-05
8.43327e-06
7.05889e-06
5.87521e-06
4.86303e-06
4.00347e-06
3.27823e-06
0.000103
0.000102328
0.000100993
9.90229e-05
9.64574e-05
9.33484e-05
8.97568e-05
8.57501e-05
8.14016e-05
7.67888e-05
7.1986e-05
6.7063e-05
6.20853e-05
5.71156e-05
5.22121e-05
4.74272e-05
4.2809e-05
3.83996e-05
3.42325e-05
3.03324e-05
2.67168e-05
2.33959e-05
2.03722e-05
1.76407e-05
1.51909e-05
1.30086e-05
1.10772e-05
9.37892e-06
7.89569e-06
6.60925e-06
5.50139e-06
4.55411e-06
3.74965e-06
3.0708e-06
9.40035e-05
9.33806e-05
9.21523e-05
9.03496e-05
8.80115e-05
8.51844e-05
8.192e-05
7.82761e-05
7.43156e-05
7.01067e-05
6.57182e-05
6.12159e-05
5.66611e-05
5.21131e-05
4.76269e-05
4.32527e-05
3.90352e-05
3.50112e-05
3.12098e-05
2.76552e-05
2.43622e-05
2.13385e-05
1.85852e-05
1.6097e-05
1.38643e-05
1.18745e-05
1.01127e-05
8.56335e-06
7.20996e-06
6.03613e-06
5.02527e-06
4.16084e-06
3.42654e-06
2.80666e-06
8.33216e-05
8.2773e-05
8.16917e-05
8.01047e-05
7.80452e-05
7.55526e-05
7.26703e-05
6.94475e-05
6.5939e-05
6.22048e-05
5.83073e-05
5.4306e-05
5.02567e-05
4.6214e-05
4.22284e-05
3.83451e-05
3.46041e-05
3.10378e-05
2.76712e-05
2.45248e-05
2.16107e-05
1.89348e-05
1.64969e-05
1.42921e-05
1.23123e-05
1.05466e-05
8.98261e-06
7.60695e-06
6.40546e-06
5.36356e-06
4.46638e-06
3.69907e-06
3.04705e-06
2.49633e-06
7.15375e-05
7.10799e-05
7.01734e-05
6.88346e-05
6.70868e-05
6.496e-05
6.2492e-05
5.97269e-05
5.67132e-05
5.35023e-05
5.01469e-05
4.66994e-05
4.32115e-05
3.97318e-05
3.63038e-05
3.29666e-05
2.97534e-05
2.66926e-05
2.38052e-05
2.11068e-05
1.86068e-05
1.63094e-05
1.42145e-05
1.23181e-05
1.06135e-05
9.09233e-06
7.74445e-06
6.55879e-06
5.52339e-06
4.62571e-06
3.8528e-06
3.19169e-06
2.62967e-06
2.1547e-06
5.94645e-05
5.90894e-05
5.83448e-05
5.72419e-05
5.57974e-05
5.40347e-05
5.19856e-05
4.96876e-05
4.71817e-05
4.4511e-05
4.17194e-05
3.8851e-05
3.59497e-05
3.30563e-05
3.02067e-05
2.7434e-05
2.47666e-05
2.22266e-05
1.98307e-05
1.75906e-05
1.55136e-05
1.36028e-05
1.18586e-05
1.02781e-05
8.85653e-06
7.58736e-06
6.46276e-06
5.47373e-06
4.6103e-06
3.86184e-06
3.21736e-06
2.66589e-06
2.19679e-06
1.80011e-06
4.7726e-05
4.7424e-05
4.68245e-05
4.59375e-05
4.47772e-05
4.33629e-05
4.17202e-05
3.9878e-05
3.78685e-05
3.57277e-05
3.34916e-05
3.11952e-05
2.88729e-05
2.65559e-05
2.42742e-05
2.2054e-05
1.99174e-05
1.78817e-05
1.59602e-05
1.41622e-05
1.24937e-05
1.09574e-05
9.55384e-06
8.28123e-06
7.13624e-06
6.11403e-06
5.20836e-06
4.41196e-06
3.71669e-06
3.11386e-06
2.59454e-06
2.14991e-06
1.77154e-06
1.45152e-06
3.69654e-05
3.67297e-05
3.62622e-05
3.55715e-05
3.46699e-05
3.35725e-05
3.23004e-05
3.08758e-05
2.93232e-05
2.76705e-05
2.59446e-05
2.41722e-05
2.23794e-05
2.05908e-05
1.88289e-05
1.71133e-05
1.54605e-05
1.38841e-05
1.23947e-05
1.09999e-05
9.70483e-06
8.51196e-06
7.42194e-06
6.43371e-06
5.54476e-06
4.7513e-06
4.04837e-06
3.43016e-06
2.89022e-06
2.42173e-06
2.01784e-06
1.67184e-06
1.37734e-06
1.12827e-06
2.76488e-05
2.74712e-05
2.71198e-05
2.66009e-05
2.59248e-05
2.51043e-05
2.41541e-05
2.30913e-05
2.19343e-05
2.07025e-05
1.94158e-05
1.8094e-05
1.67566e-05
1.54217e-05
1.41055e-05
1.28226e-05
1.15855e-05
1.04045e-05
9.28811e-06
8.24243e-06
7.27152e-06
6.37755e-06
5.56107e-06
4.82122e-06
4.1559e-06
3.56204e-06
3.03575e-06
2.5726e-06
2.16774e-06
1.8162e-06
1.51296e-06
1.25314e-06
1.03201e-06
8.4508e-07
2.00781e-05
1.99489e-05
1.96932e-05
1.93162e-05
1.88252e-05
1.82296e-05
1.75404e-05
1.67697e-05
1.59306e-05
1.50372e-05
1.41035e-05
1.31442e-05
1.21732e-05
1.12037e-05
1.02475e-05
9.31517e-06
8.41578e-06
7.55703e-06
6.74519e-06
5.98493e-06
5.27931e-06
4.62996e-06
4.03719e-06
3.50023e-06
3.01737e-06
2.58622e-06
2.20391e-06
1.86725e-06
1.57284e-06
1.31717e-06
1.09668e-06
9.07852e-07
7.47246e-07
6.11554e-07
1.43815e-05
1.42887e-05
1.41051e-05
1.3834e-05
1.34809e-05
1.30523e-05
1.25565e-05
1.20022e-05
1.13992e-05
1.07577e-05
1.0088e-05
9.40032e-06
8.70452e-06
8.00996e-06
7.32514e-06
6.65756e-06
6.0138e-06
5.39935e-06
4.81861e-06
4.2749e-06
3.77037e-06
3.30608e-06
2.88219e-06
2.49809e-06
2.15258e-06
1.84402e-06
1.57043e-06
1.32958e-06
1.11909e-06
9.36434e-07
7.79051e-07
6.44384e-07
5.29931e-07
4.33288e-07
1.05731e-05
1.05044e-05
1.03686e-05
1.01682e-05
9.90696e-06
9.58994e-06
9.22307e-06
8.81317e-06
8.36763e-06
7.89412e-06
7.40038e-06
6.89397e-06
6.38209e-06
5.87149e-06
5.36833e-06
4.87804e-06
4.4054e-06
3.95439e-06
3.5282e-06
3.12915e-06
2.75876e-06
2.41784e-06
2.10653e-06
1.82445e-06
1.57078e-06
1.34438e-06
1.14381e-06
9.67432e-07
8.13457e-07
6.79994e-07
5.65112e-07
4.66892e-07
3.83472e-07
3.13086e-07
8.66041e-06
8.60395e-06
8.49211e-06
8.32701e-06
8.11191e-06
7.85102e-06
7.54931e-06
7.21243e-06
6.84646e-06
6.45773e-06
6.05263e-06
5.63739e-06
5.21791e-06
4.79967e-06
4.38763e-06
3.98621e-06
3.59925e-06
3.22995e-06
2.88089e-06
2.55398e-06
2.25052e-06
1.97119e-06
1.71619e-06
1.48524e-06
1.27771e-06
1.09264e-06
9.28863e-07
7.84984e-07
6.59496e-07
5.5081e-07
4.57317e-07
3.77431e-07
3.09626e-07
2.52462e-07
0.000812245
0.000806885
0.000796187
0.000780276
0.000759484
0.000734285
0.000705193
0.00067282
0.000637911
0.000601191
0.000563293
0.000524749
0.000485999
0.000447491
0.000409629
0.000372727
0.00033708
0.000302942
0.000270524
0.000239994
0.000211494
0.000185151
0.000161065
0.000139291
0.000119819
0.000102558
8.73539e-05
7.40331e-05
6.2416e-05
5.23304e-05
4.36196e-05
3.61444e-05
2.9777e-05
2.43953e-05
0.000795254
0.000789915
0.000779331
0.000763726
0.00074345
0.000718936
0.000690692
0.000659273
0.000625289
0.000589389
0.000552209
0.000514335
0.000476283
0.000438503
0.000401348
0.000365131
0.000330123
0.000296594
0.000264775
0.000234848
0.000206946
0.000181178
0.000157626
0.000136335
0.000117293
0.000100408
8.55309e-05
7.24911e-05
6.11167e-05
5.12411e-05
4.27115e-05
3.53907e-05
2.91537e-05
2.38837e-05
0.000760282
0.000755287
0.000745268
0.00073039
0.000711039
0.000687677
0.000660758
0.000630756
0.000598273
0.000564016
0.000528615
0.000492571
0.000456285
0.000420171
0.000384608
0.000349903
0.000316348
0.000284202
0.000253684
0.000224962
0.000198179
0.000173458
0.00015089
0.000130519
0.000112316
9.61737e-05
8.19436e-05
6.9463e-05
5.85675e-05
4.91009e-05
4.0922e-05
3.39043e-05
2.79295e-05
2.28826e-05
0.000710488
0.000705841
0.000696536
0.000682735
0.000664769
0.00064303
0.000617971
0.000590065
0.000559852
0.000527967
0.000494975
0.00046133
0.000427403
0.000393581
0.000360231
0.000327653
0.000296144
0.000265962
0.00023732
0.000210385
0.000185294
0.000162165
0.000141083
0.000122076
0.000105094
9.00246e-05
7.67289e-05
6.50558e-05
5.48555e-05
4.59872e-05
3.8324e-05
3.17506e-05
2.61567e-05
2.14334e-05
0.000647778
0.000643379
0.000634738
0.000622113
0.000605792
0.000586124
0.000563484
0.000538311
0.000511048
0.000482169
0.000452155
0.00042145
0.000390451
0.000359525
0.000328992
0.000299163
0.000270314
0.000242668
0.000216413
0.00019176
0.000168852
0.000147776
0.000128597
0.000111323
9.58878e-05
8.21808e-05
7.00734e-05
5.94289e-05
5.01165e-05
4.20152e-05
3.50147e-05
2.9011e-05
2.39032e-05
1.95919e-05
0.000573395
0.000569537
0.000561982
0.000550962
0.000536716
0.000519533
0.000499716
0.00047763
0.000453645
0.000428167
0.00040162
0.000374396
0.000346852
0.000319328
0.000292125
0.000265536
0.000239824
0.000215207
0.000191845
0.000169952
0.000149645
0.000131003
0.000114071
9.88178e-05
8.51717e-05
7.3033e-05
6.22913e-05
5.2834e-05
4.45535e-05
3.73492e-05
3.11258e-05
2.57929e-05
2.12588e-05
1.74316e-05
0.000491883
0.000488747
0.000482542
0.000473395
0.000461472
0.000446963
0.000430138
0.000411297
0.000390767
0.000368912
0.000346074
0.000322588
0.000298788
0.000274986
0.000251461
0.000228469
0.000206234
0.000184991
0.0001649
0.000146096
0.000128693
0.00011275
9.82639e-05
8.51958e-05
7.34787e-05
6.30312e-05
5.37668e-05
4.55983e-05
3.84422e-05
3.22194e-05
2.68505e-05
2.22546e-05
1.83498e-05
1.50529e-05
0.000409429
0.0004069
0.000401872
0.00039441
0.00038462
0.000372641
0.000358697
0.000343043
0.000325959
0.000307738
0.000288656
0.000268998
0.000249061
0.000229119
0.000209391
0.000190125
0.000171566
0.000153872
0.000137181
0.000121613
0.000107223
9.40281e-05
8.20175e-05
7.11563e-05
6.13921e-05
5.26658e-05
4.49159e-05
3.80802e-05
3.20965e-05
2.68999e-05
2.24222e-05
1.85929e-05
1.53387e-05
1.25878e-05
0.000329633
0.00032758
0.000323507
0.00031748
0.000309579
0.000299929
0.000288696
0.000276066
0.00026225
0.000247508
0.000232089
0.000216229
0.000200161
0.000184064
0.000168162
0.000152681
0.000137783
0.000123618
0.000110289
9.78605e-05
8.63646e-05
7.58056e-05
6.61678e-05
5.74254e-05
4.95468e-05
4.24954e-05
3.62302e-05
3.07077e-05
2.5879e-05
2.16915e-05
1.8087e-05
1.50042e-05
1.23818e-05
1.01624e-05
0.000256176
0.000254552
0.000251333
0.000246582
0.000240377
0.000232805
0.000224015
0.000214148
0.000203353
0.000191864
0.000179862
0.000167521
0.000155031
0.000142554
0.000130275
0.000118344
0.00010688
9.59784e-05
8.57062e-05
7.61085e-05
6.72096e-05
5.90148e-05
5.15172e-05
4.47038e-05
3.85584e-05
3.30602e-05
2.81802e-05
2.38852e-05
2.01354e-05
1.68851e-05
1.40854e-05
1.16874e-05
9.64455e-06
7.91383e-06
0.000191842
0.000190611
0.000188189
0.000184578
0.000179865
0.000174156
0.000167526
0.000160121
0.000152053
0.000143462
0.00013449
0.000125284
0.000115982
0.000106717
9.76021e-05
8.87355e-05
8.02002e-05
7.2065e-05
6.43816e-05
5.71852e-05
5.04974e-05
4.43287e-05
3.86821e-05
3.35541e-05
2.89354e-05
2.48086e-05
2.11517e-05
1.79363e-05
1.51283e-05
1.2691e-05
1.05877e-05
8.78327e-06
7.24466e-06
5.94112e-06
0.000139235
0.000138337
0.000136559
0.000133933
0.000130513
0.000126369
0.000121577
0.000116222
0.000110398
0.000104201
9.77331e-05
9.10936e-05
8.43819e-05
7.76885e-05
7.10931e-05
6.46644e-05
5.84602e-05
5.25311e-05
4.69188e-05
4.16552e-05
3.67621e-05
3.22522e-05
2.81308e-05
2.43962e-05
2.10391e-05
1.8044e-05
1.53902e-05
1.30541e-05
1.10107e-05
9.23413e-06
7.69943e-06
6.38246e-06
5.2602e-06
4.31057e-06
9.98363e-05
9.91921e-05
9.79167e-05
9.60355e-05
9.35862e-05
9.06164e-05
8.71823e-05
8.33461e-05
7.91754e-05
7.47418e-05
7.01156e-05
6.53657e-05
6.05585e-05
5.57572e-05
5.10192e-05
4.63946e-05
4.19279e-05
3.76569e-05
3.36135e-05
2.98248e-05
2.63083e-05
2.30734e-05
2.01225e-05
1.74512e-05
1.505e-05
1.29061e-05
1.10045e-05
9.3289e-06
7.8622e-06
6.58713e-06
5.48649e-06
4.54335e-06
3.74101e-06
3.06312e-06
7.36289e-05
7.3154e-05
7.22136e-05
7.0825e-05
6.90147e-05
6.68173e-05
6.42737e-05
6.1431e-05
5.83411e-05
5.50566e-05
5.163e-05
4.81127e-05
4.45541e-05
4.10013e-05
3.7497e-05
3.4078e-05
3.07792e-05
2.76294e-05
2.46533e-05
2.18686e-05
1.92868e-05
1.69128e-05
1.47466e-05
1.27842e-05
1.10186e-05
9.44116e-06
8.0417e-06
6.80906e-06
5.73131e-06
4.79592e-06
3.99005e-06
3.30068e-06
2.71495e-06
2.22039e-06
6.04618e-05
6.00706e-05
5.92947e-05
5.81474e-05
5.66512e-05
5.48361e-05
5.27365e-05
5.03916e-05
4.78431e-05
4.51339e-05
4.23078e-05
3.94084e-05
3.64776e-05
3.35549e-05
3.06758e-05
2.78703e-05
2.51666e-05
2.25875e-05
2.01518e-05
1.78729e-05
1.57592e-05
1.38145e-05
1.20387e-05
1.04291e-05
8.9808e-06
7.68745e-06
6.54118e-06
5.53294e-06
4.6528e-06
3.89011e-06
3.23382e-06
2.67284e-06
2.19635e-06
1.79413e-06
0.00574055
0.00570254
0.00562587
0.00551047
0.00535866
0.00517395
0.00495956
0.00471979
0.0044612
0.00419047
0.00391314
0.00363331
0.00335366
0.00307822
0.00281117
0.00255474
0.0023111
0.00208106
0.00186459
0.00166126
0.0014706
0.00129237
0.00112688
0.00097468
0.000836464
0.000713737
0.000606314
0.000513119
0.000432718
0.000363503
0.000303935
0.000252677
0.00020869
0.000171183
0.00562311
0.0055839
0.00550607
0.00539142
0.00524274
0.00506317
0.00485622
0.00462548
0.00437527
0.00411079
0.00383753
0.00356074
0.00328521
0.00301526
0.00275357
0.00250253
0.00226352
0.00203779
0.00182544
0.00162606
0.00143917
0.00126454
0.00110249
0.000953828
0.000818461
0.000698505
0.000593506
0.000502372
0.000423732
0.000356026
0.000297718
0.00024749
0.000204338
0.00016756
0.00536328
0.00532746
0.00525433
0.00514473
0.00500229
0.00483095
0.00463341
0.00441202
0.0041713
0.00391851
0.00366005
0.00339992
0.00314023
0.00288448
0.00263633
0.00239769
0.00217039
0.00195509
0.00175183
0.00156033
0.00138034
0.001212
0.00105582
0.000912343
0.00078282
0.000668329
0.000568185
0.000481266
0.00040616
0.000341341
0.000285401
0.000237177
0.000195782
0.000160516
0.00499669
0.00496362
0.00489615
0.00479499
0.00466283
0.00450271
0.00431804
0.00411187
0.0038885
0.00365453
0.00341563
0.00317528
0.00293517
0.0026984
0.00246826
0.00224643
0.00203457
0.00183324
0.00164247
0.00146224
0.00129259
0.00113392
0.000986817
0.000852029
0.000731294
0.000624755
0.0005316
0.000450685
0.000380627
0.000319997
0.000267537
0.00022225
0.000183381
0.000150301
0.00453682
0.00450412
0.00444023
0.00434716
0.00422682
0.00408194
0.00391548
0.00373158
0.00353366
0.00332528
0.00311037
0.00289281
0.0026761
0.0024632
0.00225566
0.0020552
0.00186273
0.00167847
0.00150267
0.00133611
0.00117954
0.00103339
0.000898188
0.000775251
0.000665825
0.000569438
0.00048517
0.000411818
0.000348101
0.000292768
0.000244754
0.000203243
0.000167592
0.000137321
0.0039888
0.00395994
0.0039041
0.00382335
0.0037192
0.003594
0.00345015
0.00329134
0.00312036
0.00294011
0.00275388
0.00256496
0.00237631
0.00219026
0.00200795
0.0018308
0.00165966
0.00149501
0.00133705
0.00118729
0.00104662
0.000915332
0.000794762
0.000686466
0.000590299
0.00050559
0.000431397
0.000366594
0.000310055
0.000260746
0.000217848
0.000180774
0.000149023
0.000122128
0.00339426
0.0033714
0.00332637
0.00326057
0.00317552
0.00307227
0.00295335
0.00282086
0.00267724
0.00252618
0.00237026
0.00221166
0.00205204
0.00189326
0.00173673
0.00158329
0.00143401
0.00129018
0.00115265
0.00102191
0.000898685
0.000785208
0.000682434
0.000590376
0.000508597
0.000436395
0.000372892
0.00031711
0.000268161
0.000225338
0.000188087
0.000155945
0.000128514
0.000105387
0.00280779
0.00279022
0.00275521
0.00270343
0.00263586
0.00255319
0.00245754
0.00235067
0.00223461
0.00211199
0.00198447
0.00185363
0.00172108
0.00158804
0.00145542
0.00132471
0.00119788
0.00107581
0.000958727
0.00084806
0.000745783
0.000652382
0.000567971
0.000492341
0.00042497
0.000365192
0.000312275
0.000265518
0.00022435
0.00018832
0.000157027
0.000130157
0.000107344
8.81265e-05
0.00225969
0.00224587
0.00221854
0.00217824
0.00212523
0.00206055
0.00198525
0.00190075
0.00180838
0.00170989
0.00160692
0.00150096
0.00139318
0.00128394
0.00117458
0.00106744
0.00096283
0.000861995
0.00076708
0.000678937
0.000598001
0.000524324
0.000457656
0.000397625
0.000343786
0.000295645
0.000252728
0.00021465
0.000181086
0.000151794
0.000126503
0.000104915
8.66212e-05
7.11937e-05
0.00176975
0.00175887
0.00173741
0.00170574
0.00166426
0.00161365
0.0015547
0.00148821
0.00141493
0.00133673
0.00125488
0.00117024
0.00108439
0.000996903
0.000909838
0.000824852
0.000743288
0.000666013
0.000593618
0.000526488
0.000464814
0.000408503
0.000357264
0.00031076
0.00026872
0.000230907
0.0001971
0.000167144
0.000140849
0.000118049
9.8468e-05
8.17633e-05
6.75782e-05
5.55735e-05
0.00133768
0.00132957
0.00131361
0.00128896
0.0012565
0.00121746
0.00117146
0.00112033
0.00106431
0.00100407
0.000940556
0.000874962
0.000808689
0.000742744
0.000678061
0.000615422
0.000555479
0.000498768
0.000445618
0.000396168
0.000350422
0.000308286
0.000269636
0.000234368
0.000202408
0.000173645
0.000148016
0.000125445
0.000105776
8.87638e-05
7.41337e-05
6.161e-05
5.09308e-05
4.18607e-05
0.000974628
0.000968317
0.000956038
0.000937412
0.000913091
0.00088362
0.00084948
0.000811335
0.000769858
0.000725793
0.000679897
0.000632944
0.00058569
0.000538791
0.000492832
0.000448295
0.000405525
0.000364818
0.00032637
0.000290306
0.000256691
0.000225559
0.000196941
0.00017086
0.000147319
0.000126287
0.000107685
9.13606e-05
7.7128e-05
6.47827e-05
5.41227e-05
4.49598e-05
3.71252e-05
3.04688e-05
0.000696109
0.000691507
0.000682413
0.000669035
0.000651665
0.00063065
0.0006064
0.000579361
0.000550041
0.00051902
0.000486828
0.000453933
0.000420754
0.000387707
0.000355165
0.000323436
0.000292757
0.000263329
0.00023534
0.000208994
0.000184437
0.000161753
0.000141007
0.000122233
0.000105398
9.04102e-05
7.71552e-05
6.54988e-05
5.53006e-05
4.64211e-05
3.8732e-05
3.21189e-05
2.6475e-05
2.16972e-05
0.000512446
0.00050914
0.000502594
0.000492908
0.000480293
0.000465024
0.000447381
0.000427687
0.000406333
0.000383692
0.000360107
0.000335905
0.000311403
0.000286912
0.000262698
0.000238984
0.000216002
0.000193945
0.000173036
0.000153428
0.000135237
0.000118542
0.000103353
8.9635e-05
7.73251e-05
6.6343e-05
5.66004e-05
4.80062e-05
4.04707e-05
3.39078e-05
2.82366e-05
2.33761e-05
1.92446e-05
1.57585e-05
0.000421609
0.00041892
0.000413582
0.000405658
0.000395318
0.000382798
0.000368332
0.000352179
0.000334628
0.000315948
0.000296415
0.000276315
0.000255934
0.000235559
0.000215443
0.000195761
0.000176739
0.000158538
0.000141347
0.000125291
0.000110448
9.68408e-05
8.44525e-05
7.32447e-05
6.31649e-05
5.41536e-05
4.6148e-05
3.90839e-05
3.28977e-05
2.75235e-05
2.28943e-05
1.89387e-05
1.55821e-05
1.27504e-05
0.0412293
0.0409892
0.040498
0.0397429
0.0387342
0.0374884
0.0360116
0.034319
0.0324559
0.0304695
0.0283997
0.0262701
0.0240867
0.0218949
0.0197592
0.0177125
0.0158145
0.0140919
0.01255
0.0111781
0.00995471
0.0088392
0.00780451
0.00684001
0.00593931
0.0050554
0.00426759
0.00358215
0.00299717
0.00250521
0.00209484
0.00175041
0.00145686
0.00120379
0.0405196
0.0402587
0.0397388
0.0389703
0.03797
0.0367505
0.0353263
0.0337061
0.0319053
0.0299519
0.027882
0.0257356
0.023558
0.0214018
0.0193022
0.0173047
0.0154446
0.0137673
0.012275
0.0109479
0.00975467
0.00866145
0.00764599
0.00672684
0.00581313
0.00494533
0.00417436
0.00350379
0.00293255
0.0024532
0.00205295
0.00171578
0.00142738
0.00117841
0.0387777
0.0385429
0.0380499
0.0372995
0.0363186
0.0351324
0.0337429
0.0321428
0.0303527
0.028438
0.0264575
0.0244396
0.0223851
0.0203362
0.0183555
0.016473
0.0147418
0.0131782
0.0117779
0.0105234
0.00938616
0.00833688
0.00735662
0.00644281
0.005555
0.00472199
0.0039855
0.00334798
0.00280595
0.0023505
0.00196917
0.00164669
0.0013699
0.0011305
0.0362746
0.0360557
0.0355949
0.0348901
0.0339569
0.032809
0.0314623
0.0299231
0.0282143
0.0263999
0.0245364
0.0226507
0.0207398
0.0188448
0.0170254
0.0153095
0.0137421
0.012328
0.0110542
0.00989936
0.00883791
0.00784781
0.00691974
0.00604727
0.00518011
0.00440023
0.00371474
0.00312436
0.00262395
0.00220319
0.00184892
0.00154688
0.00128601
0.00105985
0.0330351
0.0327988
0.0323379
0.031663
0.0307769
0.0296942
0.0284313
0.0270236
0.0254909
0.0238525
0.0221387
0.02039
0.0186537
0.0169784
0.0153798
0.0138958
0.0125353
0.0112928
0.0101588
0.00911019
0.00812972
0.00720637
0.00636919
0.0054975
0.0047003
0.00399148
0.00337342
0.00284352
0.0023955
0.00201791
0.00169688
0.00141993
0.00117837
0.000968801
0.0289866
0.0287642
0.028339
0.0277254
0.0269246
0.0259508
0.0248181
0.0235668
0.022214
0.0207767
0.0192831
0.0177731
0.0162923
0.0148829
0.0135494
0.0123131
0.0111693
0.0101114
0.00912029
0.00818366
0.00729764
0.00646383
0.00563985
0.00485214
0.00414526
0.00352258
0.00298393
0.00252414
0.00213465
0.00180301
0.00151702
0.00126787
0.00105055
0.00086136
0.0244085
0.02422
0.023852
0.0233227
0.0226482
0.0218214
0.0208721
0.0198077
0.0186426
0.0174386
0.0162276
0.0150343
0.0138612
0.0127353
0.0116735
0.0106703
0.00972446
0.00882764
0.00797344
0.00715918
0.00637762
0.00557004
0.00482192
0.00414513
0.0035436
0.00301838
0.00256709
0.00218187
0.00185201
0.00156677
0.00131739
0.00109856
0.000906337
0.000741335
0.0197155
0.0195712
0.0192844
0.0188667
0.0183331
0.0176752
0.0169252
0.0160932
0.0151946
0.0142793
0.0133643
0.0124623
0.0115729
0.0107044
0.00985952
0.00904009
0.00824888
0.00748883
0.00676213
0.00601988
0.00528369
0.00460069
0.00397906
0.00342379
0.00293547
0.00251184
0.00214748
0.00183304
0.0015591
0.00131809
0.00110475
0.000917472
0.000755031
0.000617979
0.0153818
0.0152778
0.0150757
0.0147839
0.014393
0.0139209
0.0133752
0.0127817
0.0121495
0.0114921
0.0108217
0.0101473
0.00947053
0.00878804
0.00810396
0.00743455
0.00678899
0.00611535
0.00543268
0.00478881
0.00419397
0.00365337
0.00316826
0.0027385
0.00236212
0.00203421
0.00174723
0.00149373
0.00126806
0.00106792
0.000890587
0.000736803
0.000606581
0.000497601
0.0118996
0.0118286
0.0116907
0.0114824
0.0112085
0.0108789
0.0104958
0.0100705
0.00960782
0.00911594
0.00860322
0.00807682
0.00754805
0.00699511
0.00642699
0.00585326
0.00526443
0.00469884
0.00416472
0.00366892
0.0032177
0.00281359
0.00245469
0.00213643
0.0018541
0.00160233
0.00137648
0.00117388
0.000991787
0.000830287
0.000690623
0.000571934
0.000472077
0.000388511
0.00913058
0.00908304
0.00898573
0.00883249
0.00862943
0.00838335
0.0080935
0.00777315
0.00742535
0.00704871
0.00664477
0.00621273
0.0057396
0.00526246
0.00478933
0.00432783
0.00388524
0.00346849
0.0030823
0.00272887
0.00240876
0.00212047
0.00186073
0.00162589
0.00141267
0.00121838
0.00104183
0.000883094
0.000742867
0.000621651
0.000518102
0.000430391
0.000356395
0.000293942
0.00685312
0.00681235
0.00675893
0.00663169
0.00646167
0.00628156
0.00603829
0.00576448
0.00546451
0.00514356
0.00480732
0.00446192
0.00411367
0.0037678
0.00343007
0.00310597
0.00279883
0.00251192
0.00224637
0.00200167
0.00177638
0.00156861
0.00137673
0.0011998
0.00103748
0.000889598
0.000756974
0.000640544
0.000539592
0.000452831
0.00037869
0.000315458
0.000261485
0.000215399
0.00493724
0.00490279
0.00483526
0.00473596
0.00460743
0.00445202
0.00427242
0.00407152
0.00385343
0.00362406
0.00338852
0.00315055
0.00291253
0.00267777
0.00244982
0.00223128
0.00202281
0.00182459
0.00163689
0.00145991
0.00129382
0.0011386
0.000994247
0.000861156
0.000740992
0.000634124
0.000540138
0.000458201
0.000387192
0.0003258
0.000272751
0.000226959
0.000187578
0.000153931
0.00358136
0.00355735
0.00350969
0.00343847
0.00334597
0.00323505
0.0031075
0.00296537
0.00281264
0.00265268
0.00248808
0.00232111
0.0021538
0.00198812
0.0018252
0.00166601
0.0015112
0.00136142
0.00121819
0.00108238
0.00095422
0.000834985
0.000726375
0.000628608
0.000541458
0.000464346
0.00039651
0.000337053
0.000285016
0.000239541
0.000199968
0.000165773