# Probe 0 (0 0 0.007)
# Probe 1 (0 0 0)
# Probe 2 (0.019999 0 0.007)
# Probe 3 (0.019999 0 0)
# Probe 4 (0 0.003 0.007)
# Probe 5 (0 0.003 0)
# Probe 6 (0.019999 0.003 0.007)
# Probe 7 (0.019999 0.003 0)
# Probe 8 (0.01 0.0015 0.0035)
# Time        0             1             2             3             4             5             6             7             8            
0.055         0.00119338    0.0311022     0.0331386     0.0446693     0.00933998    0.0326095     0.0344058     0.0456309     0.0208784    
