/*--------------------------------*- C++ -*----------------------------------*\
| =========                 |                                                 |
| \\      /  F ield         | OpenFOAM: The Open Source CFD Toolbox           |
|  \\    /   O peration     | Version:  2312                                  |
|   \\  /    A nd           | Website:  www.openfoam.com                      |
|    \\/     M anipulation  |                                                 |
\*---------------------------------------------------------------------------*/
FoamFile
{
    version     2.0;
    format      ascii;
    arch        "LSB;label=32;scalar=64";
    class       volVectorField;
    location    "0.1";
    object      D_0;
}
// * * * * * * * * * * * * * * * * * * * * * * * * * * * * * * * * * * * * * //

dimensions      [0 1 0 0 0 0 0];

internalField   nonuniform List<vector> 
12960
(
(3.84523e-05 -5.36304e-05 5.86689e-06)
(4.29802e-05 -5.0075e-05 5.86689e-06)
(4.7181e-05 -4.61386e-05 5.86689e-06)
(5.10226e-05 -4.18508e-05 5.86687e-06)
(5.44761e-05 -3.72447e-05 5.86688e-06)
(5.75147e-05 -3.2355e-05 5.86688e-06)
(6.01159e-05 -2.72192e-05 5.8669e-06)
(6.22595e-05 -2.18761e-05 5.86686e-06)
(6.39291e-05 -1.63666e-05 5.86685e-06)
(6.51123e-05 -1.07326e-05 5.86687e-06)
(6.58e-05 -5.01682e-06 5.86688e-06)
(6.59867e-05 7.37162e-07 5.86689e-06)
(6.56713e-05 6.48549e-06 5.86691e-06)
(6.48564e-05 1.21845e-05 5.86693e-06)
(6.35475e-05 1.77907e-05 5.8669e-06)
(6.17552e-05 2.32615e-05 5.86689e-06)
(5.94928e-05 2.85553e-05 5.86688e-06)
(5.67777e-05 3.36318e-05 5.86688e-06)
(5.36304e-05 3.84523e-05 5.86689e-06)
(5.0075e-05 4.29802e-05 5.86689e-06)
(4.61386e-05 4.7181e-05 5.86689e-06)
(4.18508e-05 5.10226e-05 5.86687e-06)
(3.72447e-05 5.44761e-05 5.86688e-06)
(3.2355e-05 5.75147e-05 5.86688e-06)
(2.72192e-05 6.01159e-05 5.8669e-06)
(2.18761e-05 6.22595e-05 5.86686e-06)
(1.63666e-05 6.39291e-05 5.86685e-06)
(1.07326e-05 6.51123e-05 5.86687e-06)
(5.01682e-06 6.58e-05 5.86688e-06)
(-7.37162e-07 6.59867e-05 5.86689e-06)
(-6.48549e-06 6.56713e-05 5.86691e-06)
(-1.21845e-05 6.48564e-05 5.86693e-06)
(-1.77907e-05 6.35475e-05 5.8669e-06)
(-2.32615e-05 6.17552e-05 5.86689e-06)
(-2.85553e-05 5.94928e-05 5.86688e-06)
(-3.36318e-05 5.67777e-05 5.86688e-06)
(-3.84523e-05 5.36304e-05 5.86689e-06)
(-4.29802e-05 5.0075e-05 5.86689e-06)
(-4.7181e-05 4.61386e-05 5.86689e-06)
(-5.10226e-05 4.18508e-05 5.86687e-06)
(-5.44761e-05 3.72447e-05 5.86688e-06)
(-5.75147e-05 3.2355e-05 5.86688e-06)
(-6.01159e-05 2.72192e-05 5.8669e-06)
(-6.22595e-05 2.18761e-05 5.86686e-06)
(-6.39291e-05 1.63666e-05 5.86685e-06)
(-6.51123e-05 1.07326e-05 5.86687e-06)
(-6.58e-05 5.01682e-06 5.86688e-06)
(-6.59867e-05 -7.37162e-07 5.86689e-06)
(-6.56713e-05 -6.48549e-06 5.86691e-06)
(-6.48564e-05 -1.21845e-05 5.86693e-06)
(-6.35475e-05 -1.77907e-05 5.8669e-06)
(-6.17552e-05 -2.32615e-05 5.86689e-06)
(-5.94928e-05 -2.85553e-05 5.86688e-06)
(-5.67777e-05 -3.36318e-05 5.86688e-06)
(-5.36304e-05 -3.84523e-05 5.86689e-06)
(-5.0075e-05 -4.29802e-05 5.86689e-06)
(-4.61386e-05 -4.7181e-05 5.86689e-06)
(-4.18508e-05 -5.10226e-05 5.86687e-06)
(-3.72447e-05 -5.44761e-05 5.86688e-06)
(-3.2355e-05 -5.75147e-05 5.86688e-06)
(-2.72192e-05 -6.01159e-05 5.8669e-06)
(-2.18761e-05 -6.22595e-05 5.86686e-06)
(-1.63666e-05 -6.39291e-05 5.86685e-06)
(-1.07326e-05 -6.51123e-05 5.86687e-06)
(-5.01682e-06 -6.58e-05 5.86688e-06)
(7.37162e-07 -6.59867e-05 5.86689e-06)
(6.48549e-06 -6.56713e-05 5.86691e-06)
(1.21845e-05 -6.48564e-05 5.86693e-06)
(1.77907e-05 -6.35475e-05 5.8669e-06)
(2.32615e-05 -6.17552e-05 5.86689e-06)
(2.85553e-05 -5.94928e-05 5.86688e-06)
(3.36318e-05 -5.67777e-05 5.86688e-06)
(3.34541e-05 -5.31948e-05 5.07117e-06)
(3.7963e-05 -5.00766e-05 5.07116e-06)
(4.21831e-05 -4.65774e-05 5.07116e-06)
(4.60821e-05 -4.27237e-05 5.07116e-06)
(4.96303e-05 -3.85448e-05 5.07116e-06)
(5.2801e-05 -3.40726e-05 5.07116e-06)
(5.55697e-05 -2.93411e-05 5.07118e-06)
(5.79155e-05 -2.43862e-05 5.07116e-06)
(5.98204e-05 -1.92457e-05 5.07115e-06)
(6.12701e-05 -1.39588e-05 5.07116e-06)
(6.22537e-05 -8.56565e-06 5.07117e-06)
(6.27633e-05 -3.10725e-06 5.07117e-06)
(6.27952e-05 2.37473e-06 5.07118e-06)
(6.23492e-05 7.83865e-06 5.07118e-06)
(6.14288e-05 1.32429e-05 5.07118e-06)
(6.00408e-05 1.85464e-05 5.07116e-06)
(5.81957e-05 2.37087e-05 5.07116e-06)
(5.59081e-05 2.86906e-05 5.07117e-06)
(5.31948e-05 3.34541e-05 5.07117e-06)
(5.00766e-05 3.7963e-05 5.07116e-06)
(4.65774e-05 4.21831e-05 5.07116e-06)
(4.27237e-05 4.60821e-05 5.07116e-06)
(3.85448e-05 4.96303e-05 5.07116e-06)
(3.40726e-05 5.2801e-05 5.07116e-06)
(2.93411e-05 5.55697e-05 5.07118e-06)
(2.43862e-05 5.79155e-05 5.07116e-06)
(1.92457e-05 5.98204e-05 5.07115e-06)
(1.39588e-05 6.12701e-05 5.07116e-06)
(8.56565e-06 6.22537e-05 5.07117e-06)
(3.10725e-06 6.27633e-05 5.07117e-06)
(-2.37473e-06 6.27952e-05 5.07118e-06)
(-7.83865e-06 6.23492e-05 5.07118e-06)
(-1.32429e-05 6.14288e-05 5.07118e-06)
(-1.85464e-05 6.00408e-05 5.07116e-06)
(-2.37087e-05 5.81957e-05 5.07116e-06)
(-2.86906e-05 5.59081e-05 5.07117e-06)
(-3.34541e-05 5.31948e-05 5.07117e-06)
(-3.7963e-05 5.00766e-05 5.07116e-06)
(-4.21831e-05 4.65774e-05 5.07116e-06)
(-4.60821e-05 4.27237e-05 5.07116e-06)
(-4.96303e-05 3.85448e-05 5.07116e-06)
(-5.2801e-05 3.40726e-05 5.07116e-06)
(-5.55697e-05 2.93411e-05 5.07118e-06)
(-5.79155e-05 2.43862e-05 5.07116e-06)
(-5.98204e-05 1.92457e-05 5.07115e-06)
(-6.12701e-05 1.39588e-05 5.07116e-06)
(-6.22537e-05 8.56565e-06 5.07117e-06)
(-6.27633e-05 3.10725e-06 5.07117e-06)
(-6.27952e-05 -2.37473e-06 5.07118e-06)
(-6.23492e-05 -7.83865e-06 5.07118e-06)
(-6.14288e-05 -1.32429e-05 5.07118e-06)
(-6.00408e-05 -1.85464e-05 5.07116e-06)
(-5.81957e-05 -2.37087e-05 5.07116e-06)
(-5.59081e-05 -2.86906e-05 5.07117e-06)
(-5.31948e-05 -3.34541e-05 5.07117e-06)
(-5.00766e-05 -3.7963e-05 5.07116e-06)
(-4.65774e-05 -4.21831e-05 5.07116e-06)
(-4.27237e-05 -4.60821e-05 5.07116e-06)
(-3.85448e-05 -4.96303e-05 5.07116e-06)
(-3.40726e-05 -5.2801e-05 5.07116e-06)
(-2.93411e-05 -5.55697e-05 5.07118e-06)
(-2.43862e-05 -5.79155e-05 5.07116e-06)
(-1.92457e-05 -5.98204e-05 5.07115e-06)
(-1.39588e-05 -6.12701e-05 5.07116e-06)
(-8.56565e-06 -6.22537e-05 5.07117e-06)
(-3.10725e-06 -6.27633e-05 5.07117e-06)
(2.37473e-06 -6.27952e-05 5.07118e-06)
(7.83865e-06 -6.23492e-05 5.07118e-06)
(1.32429e-05 -6.14288e-05 5.07118e-06)
(1.85464e-05 -6.00408e-05 5.07116e-06)
(2.37087e-05 -5.81957e-05 5.07116e-06)
(2.86906e-05 -5.59081e-05 5.07117e-06)
(2.91308e-05 -5.27669e-05 4.46422e-06)
(3.36189e-05 -5.00273e-05 4.46422e-06)
(3.78512e-05 -4.69068e-05 4.46422e-06)
(4.17953e-05 -4.34293e-05 4.46422e-06)
(4.54215e-05 -3.96215e-05 4.46424e-06)
(4.87017e-05 -3.55119e-05 4.46421e-06)
(5.16114e-05 -3.1132e-05 4.46421e-06)
(5.41284e-05 -2.65154e-05 4.46422e-06)
(5.62333e-05 -2.16969e-05 4.46421e-06)
(5.79104e-05 -1.67133e-05 4.46421e-06)
(5.91467e-05 -1.16024e-05 4.46422e-06)
(5.99327e-05 -6.40329e-06 4.46421e-06)
(6.02629e-05 -1.15544e-06 4.46422e-06)
(6.01344e-05 4.10122e-06 4.46424e-06)
(5.9548e-05 9.32662e-06 4.46423e-06)
(5.85086e-05 1.44811e-05 4.46422e-06)
(5.70238e-05 1.95254e-05 4.46423e-06)
(5.5105e-05 2.4421e-05 4.46422e-06)
(5.27669e-05 2.91308e-05 4.46422e-06)
(5.00273e-05 3.36189e-05 4.46422e-06)
(4.69068e-05 3.78512e-05 4.46422e-06)
(4.34293e-05 4.17953e-05 4.46422e-06)
(3.96215e-05 4.54215e-05 4.46424e-06)
(3.55119e-05 4.87017e-05 4.46421e-06)
(3.1132e-05 5.16114e-05 4.46421e-06)
(2.65154e-05 5.41284e-05 4.46422e-06)
(2.16969e-05 5.62333e-05 4.46421e-06)
(1.67133e-05 5.79104e-05 4.46421e-06)
(1.16024e-05 5.91467e-05 4.46422e-06)
(6.40329e-06 5.99327e-05 4.46421e-06)
(1.15544e-06 6.02629e-05 4.46422e-06)
(-4.10122e-06 6.01344e-05 4.46424e-06)
(-9.32662e-06 5.9548e-05 4.46423e-06)
(-1.44811e-05 5.85086e-05 4.46422e-06)
(-1.95254e-05 5.70238e-05 4.46423e-06)
(-2.4421e-05 5.5105e-05 4.46422e-06)
(-2.91308e-05 5.27669e-05 4.46422e-06)
(-3.36189e-05 5.00273e-05 4.46422e-06)
(-3.78512e-05 4.69068e-05 4.46422e-06)
(-4.17953e-05 4.34293e-05 4.46422e-06)
(-4.54215e-05 3.96215e-05 4.46424e-06)
(-4.87017e-05 3.55119e-05 4.46421e-06)
(-5.16114e-05 3.1132e-05 4.46421e-06)
(-5.41284e-05 2.65154e-05 4.46422e-06)
(-5.62333e-05 2.16969e-05 4.46421e-06)
(-5.79104e-05 1.67133e-05 4.46421e-06)
(-5.91467e-05 1.16024e-05 4.46422e-06)
(-5.99327e-05 6.4033e-06 4.46421e-06)
(-6.02629e-05 1.15544e-06 4.46422e-06)
(-6.01344e-05 -4.10122e-06 4.46424e-06)
(-5.9548e-05 -9.32662e-06 4.46423e-06)
(-5.85086e-05 -1.44811e-05 4.46422e-06)
(-5.70238e-05 -1.95254e-05 4.46423e-06)
(-5.5105e-05 -2.4421e-05 4.46422e-06)
(-5.27669e-05 -2.91308e-05 4.46422e-06)
(-5.00273e-05 -3.36189e-05 4.46422e-06)
(-4.69068e-05 -3.78512e-05 4.46422e-06)
(-4.34293e-05 -4.17953e-05 4.46422e-06)
(-3.96215e-05 -4.54215e-05 4.46424e-06)
(-3.55119e-05 -4.87017e-05 4.46421e-06)
(-3.1132e-05 -5.16114e-05 4.46421e-06)
(-2.65154e-05 -5.41284e-05 4.46422e-06)
(-2.16969e-05 -5.62333e-05 4.46421e-06)
(-1.67133e-05 -5.79104e-05 4.46421e-06)
(-1.16024e-05 -5.91467e-05 4.46422e-06)
(-6.4033e-06 -5.99327e-05 4.46421e-06)
(-1.15544e-06 -6.02629e-05 4.46422e-06)
(4.10122e-06 -6.01344e-05 4.46424e-06)
(9.32662e-06 -5.9548e-05 4.46423e-06)
(1.44811e-05 -5.85086e-05 4.46422e-06)
(1.95254e-05 -5.70238e-05 4.46423e-06)
(2.4421e-05 -5.5105e-05 4.46422e-06)
(2.4685e-05 -5.23152e-05 4.28725e-06)
(2.91506e-05 -4.99647e-05 4.28725e-06)
(3.33945e-05 -4.7234e-05 4.28727e-06)
(3.73839e-05 -4.41436e-05 4.28726e-06)
(4.1089e-05 -4.07173e-05 4.28726e-06)
(4.44815e-05 -3.69813e-05 4.28727e-06)
(4.75353e-05 -3.29638e-05 4.28727e-06)
(5.02275e-05 -2.86954e-05 4.28727e-06)
(5.25374e-05 -2.42086e-05 4.28726e-06)
(5.44474e-05 -1.95376e-05 4.28726e-06)
(5.5943e-05 -1.47178e-05 4.28727e-06)
(5.70127e-05 -9.78602e-06 4.28727e-06)
(5.76487e-05 -4.77978e-06 4.28727e-06)
(5.78458e-05 2.62823e-07 4.28725e-06)
(5.76028e-05 5.30341e-06 4.28726e-06)
(5.69217e-05 1.03037e-05 4.28727e-06)
(5.58069e-05 1.52255e-05 4.28726e-06)
(5.42675e-05 2.00315e-05 4.28725e-06)
(5.23152e-05 2.4685e-05 4.28725e-06)
(4.99647e-05 2.91506e-05 4.28725e-06)
(4.7234e-05 3.33945e-05 4.28727e-06)
(4.41436e-05 3.73839e-05 4.28726e-06)
(4.07173e-05 4.1089e-05 4.28726e-06)
(3.69813e-05 4.44815e-05 4.28727e-06)
(3.29638e-05 4.75353e-05 4.28727e-06)
(2.86954e-05 5.02275e-05 4.28727e-06)
(2.42086e-05 5.25374e-05 4.28726e-06)
(1.95376e-05 5.44474e-05 4.28726e-06)
(1.47178e-05 5.5943e-05 4.28727e-06)
(9.78602e-06 5.70127e-05 4.28727e-06)
(4.77978e-06 5.76487e-05 4.28727e-06)
(-2.62823e-07 5.78458e-05 4.28725e-06)
(-5.30341e-06 5.76028e-05 4.28726e-06)
(-1.03037e-05 5.69217e-05 4.28727e-06)
(-1.52255e-05 5.58069e-05 4.28726e-06)
(-2.00315e-05 5.42675e-05 4.28725e-06)
(-2.4685e-05 5.23152e-05 4.28725e-06)
(-2.91506e-05 4.99647e-05 4.28725e-06)
(-3.33945e-05 4.7234e-05 4.28727e-06)
(-3.73839e-05 4.41436e-05 4.28726e-06)
(-4.1089e-05 4.07173e-05 4.28726e-06)
(-4.44815e-05 3.69813e-05 4.28727e-06)
(-4.75353e-05 3.29638e-05 4.28727e-06)
(-5.02275e-05 2.86954e-05 4.28727e-06)
(-5.25374e-05 2.42086e-05 4.28726e-06)
(-5.44474e-05 1.95376e-05 4.28726e-06)
(-5.5943e-05 1.47178e-05 4.28727e-06)
(-5.70127e-05 9.78602e-06 4.28727e-06)
(-5.76487e-05 4.77979e-06 4.28727e-06)
(-5.78458e-05 -2.62823e-07 4.28725e-06)
(-5.76028e-05 -5.30341e-06 4.28726e-06)
(-5.69217e-05 -1.03037e-05 4.28727e-06)
(-5.58069e-05 -1.52255e-05 4.28726e-06)
(-5.42675e-05 -2.00315e-05 4.28725e-06)
(-5.23152e-05 -2.4685e-05 4.28725e-06)
(-4.99647e-05 -2.91506e-05 4.28725e-06)
(-4.7234e-05 -3.33945e-05 4.28727e-06)
(-4.41436e-05 -3.73839e-05 4.28726e-06)
(-4.07173e-05 -4.1089e-05 4.28726e-06)
(-3.69813e-05 -4.44815e-05 4.28727e-06)
(-3.29638e-05 -4.75353e-05 4.28727e-06)
(-2.86954e-05 -5.02275e-05 4.28727e-06)
(-2.42086e-05 -5.25374e-05 4.28726e-06)
(-1.95376e-05 -5.44474e-05 4.28726e-06)
(-1.47178e-05 -5.5943e-05 4.28727e-06)
(-9.78602e-06 -5.70127e-05 4.28727e-06)
(-4.77979e-06 -5.76487e-05 4.28727e-06)
(2.62823e-07 -5.78458e-05 4.28725e-06)
(5.30341e-06 -5.76028e-05 4.28726e-06)
(1.03037e-05 -5.69217e-05 4.28727e-06)
(1.52255e-05 -5.58069e-05 4.28726e-06)
(2.00315e-05 -5.42675e-05 4.28725e-06)
(1.96586e-05 -5.17503e-05 4.56647e-06)
(2.40942e-05 -4.98401e-05 4.56648e-06)
(2.83462e-05 -4.75504e-05 4.56647e-06)
(3.23827e-05 -4.48989e-05 4.56648e-06)
(3.61726e-05 -4.19057e-05 4.56648e-06)
(3.96873e-05 -3.85936e-05 4.56648e-06)
(4.28998e-05 -3.49877e-05 4.56648e-06)
(4.5786e-05 -3.11156e-05 4.56647e-06)
(4.83239e-05 -2.70068e-05 4.56647e-06)
(5.04938e-05 -2.26924e-05 4.56648e-06)
(5.22792e-05 -1.82051e-05 4.56647e-06)
(5.36669e-05 -1.35793e-05 4.56648e-06)
(5.46463e-05 -8.85031e-06 4.56647e-06)
(5.52097e-05 -4.05391e-06 4.56646e-06)
(5.5353e-05 7.73349e-07 4.56647e-06)
(5.50749e-05 5.59473e-06 4.56647e-06)
(5.43779e-05 1.03736e-05 4.56649e-06)
(5.32667e-05 1.50734e-05 4.56647e-06)
(5.17503e-05 1.96586e-05 4.56647e-06)
(4.98401e-05 2.40942e-05 4.56648e-06)
(4.75504e-05 2.83462e-05 4.56647e-06)
(4.48989e-05 3.23827e-05 4.56648e-06)
(4.19057e-05 3.61726e-05 4.56648e-06)
(3.85936e-05 3.96873e-05 4.56648e-06)
(3.49877e-05 4.28998e-05 4.56648e-06)
(3.11156e-05 4.5786e-05 4.56647e-06)
(2.70068e-05 4.83239e-05 4.56647e-06)
(2.26924e-05 5.04938e-05 4.56648e-06)
(1.82051e-05 5.22792e-05 4.56647e-06)
(1.35793e-05 5.36669e-05 4.56648e-06)
(8.85031e-06 5.46463e-05 4.56647e-06)
(4.05391e-06 5.52097e-05 4.56646e-06)
(-7.73349e-07 5.5353e-05 4.56647e-06)
(-5.59473e-06 5.50749e-05 4.56647e-06)
(-1.03736e-05 5.43779e-05 4.56649e-06)
(-1.50734e-05 5.32667e-05 4.56647e-06)
(-1.96586e-05 5.17503e-05 4.56647e-06)
(-2.40942e-05 4.98401e-05 4.56648e-06)
(-2.83462e-05 4.75504e-05 4.56647e-06)
(-3.23827e-05 4.48989e-05 4.56648e-06)
(-3.61726e-05 4.19057e-05 4.56648e-06)
(-3.96873e-05 3.85936e-05 4.56648e-06)
(-4.28998e-05 3.49877e-05 4.56648e-06)
(-4.5786e-05 3.11156e-05 4.56647e-06)
(-4.83239e-05 2.70068e-05 4.56647e-06)
(-5.04938e-05 2.26924e-05 4.56648e-06)
(-5.22792e-05 1.82051e-05 4.56647e-06)
(-5.36669e-05 1.35793e-05 4.56648e-06)
(-5.46463e-05 8.85031e-06 4.56647e-06)
(-5.52097e-05 4.05391e-06 4.56646e-06)
(-5.5353e-05 -7.73349e-07 4.56647e-06)
(-5.50749e-05 -5.59473e-06 4.56647e-06)
(-5.43779e-05 -1.03736e-05 4.56649e-06)
(-5.32667e-05 -1.50734e-05 4.56647e-06)
(-5.17503e-05 -1.96586e-05 4.56647e-06)
(-4.98401e-05 -2.40942e-05 4.56648e-06)
(-4.75504e-05 -2.83462e-05 4.56647e-06)
(-4.48989e-05 -3.23827e-05 4.56648e-06)
(-4.19057e-05 -3.61726e-05 4.56648e-06)
(-3.85936e-05 -3.96873e-05 4.56648e-06)
(-3.49877e-05 -4.28998e-05 4.56648e-06)
(-3.11156e-05 -4.5786e-05 4.56647e-06)
(-2.70068e-05 -4.83239e-05 4.56647e-06)
(-2.26924e-05 -5.04938e-05 4.56648e-06)
(-1.82051e-05 -5.22792e-05 4.56647e-06)
(-1.35793e-05 -5.36669e-05 4.56648e-06)
(-8.85031e-06 -5.46463e-05 4.56647e-06)
(-4.05391e-06 -5.52097e-05 4.56646e-06)
(7.73349e-07 -5.5353e-05 4.56647e-06)
(5.59473e-06 -5.50749e-05 4.56647e-06)
(1.03736e-05 -5.43779e-05 4.56649e-06)
(1.50734e-05 -5.32667e-05 4.56647e-06)
(1.27192e-05 -5.11099e-05 4.79225e-06)
(1.71253e-05 -4.98067e-05 4.79226e-06)
(2.1401e-05 -4.81247e-05 4.79225e-06)
(2.55141e-05 -4.60766e-05 4.79227e-06)
(2.94328e-05 -4.36775e-05 4.79225e-06)
(3.31275e-05 -4.0946e-05 4.79226e-06)
(3.65701e-05 -3.79029e-05 4.79226e-06)
(3.97343e-05 -3.45713e-05 4.79225e-06)
(4.25963e-05 -3.09767e-05 4.79226e-06)
(4.5134e-05 -2.71464e-05 4.79227e-06)
(4.73281e-05 -2.31093e-05 4.79227e-06)
(4.91623e-05 -1.88965e-05 4.79227e-06)
(5.06221e-05 -1.45398e-05 4.79223e-06)
(5.16968e-05 -1.00725e-05 4.79222e-06)
(5.23781e-05 -5.52854e-06 4.79224e-06)
(5.26602e-05 -9.42454e-07 4.79225e-06)
(5.25419e-05 3.6508e-06 4.79226e-06)
(5.2024e-05 8.21628e-06 4.79227e-06)
(5.11099e-05 1.27192e-05 4.79225e-06)
(4.98067e-05 1.71253e-05 4.79226e-06)
(4.81247e-05 2.1401e-05 4.79225e-06)
(4.60766e-05 2.55141e-05 4.79227e-06)
(4.36775e-05 2.94328e-05 4.79225e-06)
(4.0946e-05 3.31275e-05 4.79226e-06)
(3.79029e-05 3.65701e-05 4.79226e-06)
(3.45713e-05 3.97343e-05 4.79225e-06)
(3.09767e-05 4.25963e-05 4.79226e-06)
(2.71464e-05 4.5134e-05 4.79227e-06)
(2.31093e-05 4.73281e-05 4.79227e-06)
(1.88965e-05 4.91623e-05 4.79227e-06)
(1.45398e-05 5.06221e-05 4.79223e-06)
(1.00725e-05 5.16968e-05 4.79222e-06)
(5.52854e-06 5.23781e-05 4.79224e-06)
(9.42454e-07 5.26602e-05 4.79225e-06)
(-3.6508e-06 5.25419e-05 4.79226e-06)
(-8.21628e-06 5.2024e-05 4.79227e-06)
(-1.27192e-05 5.11099e-05 4.79225e-06)
(-1.71253e-05 4.98067e-05 4.79226e-06)
(-2.1401e-05 4.81247e-05 4.79225e-06)
(-2.55141e-05 4.60766e-05 4.79227e-06)
(-2.94328e-05 4.36775e-05 4.79225e-06)
(-3.31275e-05 4.0946e-05 4.79226e-06)
(-3.65701e-05 3.79029e-05 4.79226e-06)
(-3.97343e-05 3.45713e-05 4.79225e-06)
(-4.25963e-05 3.09767e-05 4.79226e-06)
(-4.5134e-05 2.71464e-05 4.79227e-06)
(-4.73281e-05 2.31093e-05 4.79227e-06)
(-4.91623e-05 1.88965e-05 4.79227e-06)
(-5.06221e-05 1.45398e-05 4.79223e-06)
(-5.16968e-05 1.00725e-05 4.79222e-06)
(-5.23781e-05 5.52854e-06 4.79224e-06)
(-5.26602e-05 9.42455e-07 4.79225e-06)
(-5.25419e-05 -3.6508e-06 4.79226e-06)
(-5.2024e-05 -8.21628e-06 4.79227e-06)
(-5.11099e-05 -1.27192e-05 4.79225e-06)
(-4.98067e-05 -1.71253e-05 4.79226e-06)
(-4.81247e-05 -2.1401e-05 4.79225e-06)
(-4.60766e-05 -2.55141e-05 4.79227e-06)
(-4.36775e-05 -2.94328e-05 4.79225e-06)
(-4.0946e-05 -3.31275e-05 4.79226e-06)
(-3.79029e-05 -3.65701e-05 4.79226e-06)
(-3.45713e-05 -3.97343e-05 4.79225e-06)
(-3.09767e-05 -4.25963e-05 4.79226e-06)
(-2.71464e-05 -4.5134e-05 4.79227e-06)
(-2.31093e-05 -4.73281e-05 4.79227e-06)
(-1.88965e-05 -4.91623e-05 4.79227e-06)
(-1.45398e-05 -5.06221e-05 4.79223e-06)
(-1.00725e-05 -5.16968e-05 4.79222e-06)
(-5.52854e-06 -5.23781e-05 4.79224e-06)
(-9.42455e-07 -5.26602e-05 4.79225e-06)
(3.6508e-06 -5.25419e-05 4.79226e-06)
(8.21628e-06 -5.2024e-05 4.79227e-06)
(9.99293e-05 -0.000161192 2.26537e-05)
(0.000113598 -0.000151869 2.26537e-05)
(0.000126402 -0.00014139 2.26537e-05)
(0.000138244 -0.000129836 2.26537e-05)
(0.000149034 -0.000117293 2.26536e-05)
(0.000158689 -0.000103857 2.26537e-05)
(0.000167137 -8.96315e-05 2.26537e-05)
(0.000174313 -7.47234e-05 2.26536e-05)
(0.000180163 -5.92467e-05 2.26536e-05)
(0.000184641 -4.33191e-05 2.26536e-05)
(0.000187713 -2.70617e-05 2.26537e-05)
(0.000189358 -1.05984e-05 2.26537e-05)
(0.000189561 5.94554e-06 2.26537e-05)
(0.000188321 2.24442e-05 2.26538e-05)
(0.000185648 3.8772e-05 2.26537e-05)
(0.000181563 5.48049e-05 2.26537e-05)
(0.000176095 7.04205e-05 2.26536e-05)
(0.000169288 8.55003e-05 2.26536e-05)
(0.000161192 9.99293e-05 2.26537e-05)
(0.000151869 0.000113598 2.26537e-05)
(0.00014139 0.000126402 2.26537e-05)
(0.000129836 0.000138244 2.26537e-05)
(0.000117293 0.000149034 2.26536e-05)
(0.000103857 0.000158689 2.26537e-05)
(8.96315e-05 0.000167137 2.26537e-05)
(7.47234e-05 0.000174313 2.26536e-05)
(5.92467e-05 0.000180163 2.26536e-05)
(4.33191e-05 0.000184641 2.26536e-05)
(2.70617e-05 0.000187713 2.26537e-05)
(1.05984e-05 0.000189358 2.26537e-05)
(-5.94554e-06 0.000189561 2.26537e-05)
(-2.24442e-05 0.000188321 2.26538e-05)
(-3.8772e-05 0.000185648 2.26537e-05)
(-5.48049e-05 0.000181563 2.26537e-05)
(-7.04205e-05 0.000176095 2.26536e-05)
(-8.55003e-05 0.000169288 2.26536e-05)
(-9.99293e-05 0.000161192 2.26537e-05)
(-0.000113598 0.000151869 2.26537e-05)
(-0.000126402 0.00014139 2.26537e-05)
(-0.000138244 0.000129836 2.26537e-05)
(-0.000149034 0.000117293 2.26536e-05)
(-0.000158689 0.000103857 2.26537e-05)
(-0.000167137 8.96315e-05 2.26537e-05)
(-0.000174313 7.47234e-05 2.26536e-05)
(-0.000180163 5.92467e-05 2.26536e-05)
(-0.000184641 4.33191e-05 2.26536e-05)
(-0.000187713 2.70617e-05 2.26537e-05)
(-0.000189358 1.05984e-05 2.26537e-05)
(-0.000189561 -5.94554e-06 2.26537e-05)
(-0.000188321 -2.24442e-05 2.26538e-05)
(-0.000185648 -3.8772e-05 2.26537e-05)
(-0.000181563 -5.48049e-05 2.26537e-05)
(-0.000176095 -7.04205e-05 2.26536e-05)
(-0.000169288 -8.55003e-05 2.26536e-05)
(-0.000161192 -9.99293e-05 2.26537e-05)
(-0.000151869 -0.000113598 2.26537e-05)
(-0.00014139 -0.000126402 2.26537e-05)
(-0.000129836 -0.000138244 2.26537e-05)
(-0.000117293 -0.000149034 2.26536e-05)
(-0.000103857 -0.000158689 2.26537e-05)
(-8.96315e-05 -0.000167137 2.26537e-05)
(-7.47234e-05 -0.000174313 2.26536e-05)
(-5.92467e-05 -0.000180163 2.26536e-05)
(-4.33191e-05 -0.000184641 2.26536e-05)
(-2.70617e-05 -0.000187713 2.26537e-05)
(-1.05984e-05 -0.000189358 2.26537e-05)
(5.94554e-06 -0.000189561 2.26537e-05)
(2.24442e-05 -0.000188321 2.26538e-05)
(3.8772e-05 -0.000185648 2.26537e-05)
(5.48049e-05 -0.000181563 2.26537e-05)
(7.04205e-05 -0.000176095 2.26536e-05)
(8.55003e-05 -0.000169288 2.26536e-05)
(9.21783e-05 -0.000159527 2.26955e-05)
(0.000105731 -0.000150886 2.26955e-05)
(0.000118479 -0.000141097 2.26955e-05)
(0.000130326 -0.000130234 2.26955e-05)
(0.000141181 -0.00011838 2.26955e-05)
(0.000150961 -0.000105624 2.26955e-05)
(0.000159592 -9.20656e-05 2.26955e-05)
(0.000167009 -7.78058e-05 2.26955e-05)
(0.000173155 -6.2954e-05 2.26955e-05)
(0.000177983 -4.7623e-05 2.26955e-05)
(0.000181456 -3.19295e-05 2.26955e-05)
(0.000183548 -1.5993e-05 2.26955e-05)
(0.000184244 6.50588e-08 2.26955e-05)
(0.000183537 1.61228e-05 2.26955e-05)
(0.000181433 3.20577e-05 2.26955e-05)
(0.000177949 4.77486e-05 2.26955e-05)
(0.00017311 6.30763e-05 2.26955e-05)
(0.000166954 7.79238e-05 2.26955e-05)
(0.000159527 9.21783e-05 2.26955e-05)
(0.000150886 0.000105731 2.26955e-05)
(0.000141097 0.000118479 2.26955e-05)
(0.000130234 0.000130326 2.26955e-05)
(0.00011838 0.000141181 2.26955e-05)
(0.000105624 0.000150961 2.26955e-05)
(9.20656e-05 0.000159592 2.26955e-05)
(7.78058e-05 0.000167009 2.26955e-05)
(6.2954e-05 0.000173155 2.26955e-05)
(4.7623e-05 0.000177983 2.26955e-05)
(3.19295e-05 0.000181456 2.26955e-05)
(1.5993e-05 0.000183548 2.26955e-05)
(-6.5059e-08 0.000184244 2.26955e-05)
(-1.61228e-05 0.000183537 2.26955e-05)
(-3.20577e-05 0.000181433 2.26955e-05)
(-4.77486e-05 0.000177949 2.26955e-05)
(-6.30763e-05 0.00017311 2.26955e-05)
(-7.79238e-05 0.000166954 2.26955e-05)
(-9.21783e-05 0.000159527 2.26955e-05)
(-0.000105731 0.000150886 2.26955e-05)
(-0.000118479 0.000141097 2.26955e-05)
(-0.000130326 0.000130234 2.26955e-05)
(-0.000141181 0.00011838 2.26955e-05)
(-0.000150961 0.000105624 2.26955e-05)
(-0.000159592 9.20656e-05 2.26955e-05)
(-0.000167009 7.78058e-05 2.26955e-05)
(-0.000173155 6.2954e-05 2.26955e-05)
(-0.000177983 4.7623e-05 2.26955e-05)
(-0.000181456 3.19295e-05 2.26955e-05)
(-0.000183548 1.5993e-05 2.26955e-05)
(-0.000184244 -6.50582e-08 2.26955e-05)
(-0.000183537 -1.61227e-05 2.26955e-05)
(-0.000181433 -3.20577e-05 2.26955e-05)
(-0.000177949 -4.77486e-05 2.26955e-05)
(-0.00017311 -6.30763e-05 2.26955e-05)
(-0.000166954 -7.79238e-05 2.26955e-05)
(-0.000159527 -9.21783e-05 2.26955e-05)
(-0.000150886 -0.000105731 2.26955e-05)
(-0.000141097 -0.000118479 2.26955e-05)
(-0.000130234 -0.000130326 2.26955e-05)
(-0.00011838 -0.000141181 2.26955e-05)
(-0.000105624 -0.000150961 2.26955e-05)
(-9.20656e-05 -0.000159592 2.26955e-05)
(-7.78058e-05 -0.000167009 2.26955e-05)
(-6.2954e-05 -0.000173155 2.26955e-05)
(-4.7623e-05 -0.000177983 2.26955e-05)
(-3.19295e-05 -0.000181456 2.26955e-05)
(-1.5993e-05 -0.000183548 2.26955e-05)
(6.50581e-08 -0.000184244 2.26955e-05)
(1.61227e-05 -0.000183537 2.26955e-05)
(3.20577e-05 -0.000181433 2.26955e-05)
(4.77486e-05 -0.000177949 2.26955e-05)
(6.30763e-05 -0.00017311 2.26955e-05)
(7.79238e-05 -0.000166954 2.26955e-05)
(8.35728e-05 -0.000157913 2.266e-05)
(9.70179e-05 -0.000150028 2.266e-05)
(0.000109724 -0.000141002 2.266e-05)
(0.000121596 -0.000130902 2.266e-05)
(0.000132542 -0.000119806 2.266e-05)
(0.00014248 -0.000107799 2.266e-05)
(0.000151333 -9.49706e-05 2.26601e-05)
(0.000159034 -8.14195e-05 2.266e-05)
(0.000165525 -6.7249e-05 2.266e-05)
(0.000170756 -5.25666e-05 2.266e-05)
(0.000174688 -3.74842e-05 2.266e-05)
(0.00017729 -2.21165e-05 2.26601e-05)
(0.000178543 -6.5804e-06 2.26601e-05)
(0.000178437 9.00569e-06 2.266e-05)
(0.000176973 2.45232e-05 2.26601e-05)
(0.000174163 3.98542e-05 2.266e-05)
(0.000170026 5.48818e-05 2.266e-05)
(0.000164596 6.94918e-05 2.266e-05)
(0.000157913 8.35728e-05 2.266e-05)
(0.000150028 9.70179e-05 2.266e-05)
(0.000141002 0.000109724 2.266e-05)
(0.000130902 0.000121596 2.266e-05)
(0.000119806 0.000132542 2.266e-05)
(0.000107799 0.00014248 2.266e-05)
(9.49706e-05 0.000151333 2.26601e-05)
(8.14195e-05 0.000159034 2.266e-05)
(6.7249e-05 0.000165525 2.266e-05)
(5.25666e-05 0.000170756 2.266e-05)
(3.74842e-05 0.000174688 2.266e-05)
(2.21165e-05 0.00017729 2.26601e-05)
(6.5804e-06 0.000178543 2.26601e-05)
(-9.00569e-06 0.000178437 2.266e-05)
(-2.45232e-05 0.000176973 2.26601e-05)
(-3.98542e-05 0.000174163 2.266e-05)
(-5.48818e-05 0.000170026 2.266e-05)
(-6.94918e-05 0.000164596 2.266e-05)
(-8.35728e-05 0.000157913 2.266e-05)
(-9.70179e-05 0.000150028 2.266e-05)
(-0.000109724 0.000141002 2.266e-05)
(-0.000121596 0.000130902 2.266e-05)
(-0.000132542 0.000119806 2.266e-05)
(-0.00014248 0.000107799 2.266e-05)
(-0.000151333 9.49706e-05 2.26601e-05)
(-0.000159034 8.14195e-05 2.266e-05)
(-0.000165525 6.7249e-05 2.266e-05)
(-0.000170756 5.25666e-05 2.266e-05)
(-0.000174688 3.74842e-05 2.266e-05)
(-0.00017729 2.21165e-05 2.26601e-05)
(-0.000178543 6.5804e-06 2.26601e-05)
(-0.000178437 -9.00569e-06 2.266e-05)
(-0.000176973 -2.45232e-05 2.26601e-05)
(-0.000174163 -3.98542e-05 2.266e-05)
(-0.000170026 -5.48818e-05 2.266e-05)
(-0.000164596 -6.94918e-05 2.266e-05)
(-0.000157913 -8.35728e-05 2.266e-05)
(-0.000150028 -9.70179e-05 2.266e-05)
(-0.000141002 -0.000109724 2.266e-05)
(-0.000130902 -0.000121596 2.266e-05)
(-0.000119806 -0.000132542 2.266e-05)
(-0.000107799 -0.00014248 2.266e-05)
(-9.49706e-05 -0.000151333 2.26601e-05)
(-8.14195e-05 -0.000159034 2.266e-05)
(-6.7249e-05 -0.000165525 2.266e-05)
(-5.25666e-05 -0.000170756 2.266e-05)
(-3.74842e-05 -0.000174688 2.266e-05)
(-2.21165e-05 -0.00017729 2.26601e-05)
(-6.5804e-06 -0.000178543 2.26601e-05)
(9.00569e-06 -0.000178437 2.266e-05)
(2.45232e-05 -0.000176973 2.26601e-05)
(3.98542e-05 -0.000174163 2.266e-05)
(5.48818e-05 -0.000170026 2.266e-05)
(6.94918e-05 -0.000164596 2.266e-05)
(7.42543e-05 -0.00015622 2.3066e-05)
(8.75872e-05 -0.000149154 2.3066e-05)
(0.000100253 -0.000140952 2.3066e-05)
(0.000112157 -0.000131678 2.3066e-05)
(0.000123206 -0.000121402 2.3066e-05)
(0.000133318 -0.000110202 2.3066e-05)
(0.000142416 -9.81631e-05 2.3066e-05)
(0.000150429 -8.53773e-05 2.3066e-05)
(0.000157298 -7.19416e-05 2.3066e-05)
(0.00016297 -5.79583e-05 2.3066e-05)
(0.000167401 -4.3534e-05 2.3066e-05)
(0.000170558 -2.87784e-05 2.3066e-05)
(0.000172417 -1.38038e-05 2.3066e-05)
(0.000172964 1.27589e-06 2.3066e-05)
(0.000172195 1.63459e-05 2.3066e-05)
(0.000170115 3.12914e-05 2.3066e-05)
(0.000166741 4.59989e-05 2.3066e-05)
(0.000162097 6.03563e-05 2.3066e-05)
(0.00015622 7.42543e-05 2.3066e-05)
(0.000149154 8.75872e-05 2.3066e-05)
(0.000140952 0.000100253 2.3066e-05)
(0.000131678 0.000112157 2.3066e-05)
(0.000121402 0.000123206 2.3066e-05)
(0.000110202 0.000133318 2.3066e-05)
(9.81631e-05 0.000142416 2.3066e-05)
(8.53773e-05 0.000150429 2.3066e-05)
(7.19416e-05 0.000157298 2.3066e-05)
(5.79583e-05 0.00016297 2.3066e-05)
(4.3534e-05 0.000167401 2.3066e-05)
(2.87784e-05 0.000170558 2.3066e-05)
(1.38038e-05 0.000172417 2.3066e-05)
(-1.27589e-06 0.000172964 2.3066e-05)
(-1.63459e-05 0.000172195 2.3066e-05)
(-3.12914e-05 0.000170115 2.3066e-05)
(-4.59989e-05 0.000166741 2.3066e-05)
(-6.03563e-05 0.000162097 2.3066e-05)
(-7.42543e-05 0.00015622 2.3066e-05)
(-8.75872e-05 0.000149154 2.3066e-05)
(-0.000100253 0.000140952 2.3066e-05)
(-0.000112157 0.000131678 2.3066e-05)
(-0.000123206 0.000121402 2.3066e-05)
(-0.000133318 0.000110202 2.3066e-05)
(-0.000142416 9.81631e-05 2.3066e-05)
(-0.000150429 8.53773e-05 2.3066e-05)
(-0.000157298 7.19416e-05 2.3066e-05)
(-0.00016297 5.79583e-05 2.3066e-05)
(-0.000167401 4.3534e-05 2.3066e-05)
(-0.000170558 2.87784e-05 2.3066e-05)
(-0.000172417 1.38038e-05 2.3066e-05)
(-0.000172964 -1.27589e-06 2.3066e-05)
(-0.000172195 -1.63459e-05 2.3066e-05)
(-0.000170115 -3.12914e-05 2.3066e-05)
(-0.000166741 -4.59989e-05 2.3066e-05)
(-0.000162097 -6.03563e-05 2.3066e-05)
(-0.00015622 -7.42543e-05 2.3066e-05)
(-0.000149154 -8.75872e-05 2.3066e-05)
(-0.000140952 -0.000100253 2.3066e-05)
(-0.000131678 -0.000112157 2.3066e-05)
(-0.000121402 -0.000123206 2.3066e-05)
(-0.000110202 -0.000133318 2.3066e-05)
(-9.81631e-05 -0.000142416 2.3066e-05)
(-8.53773e-05 -0.000150429 2.3066e-05)
(-7.19416e-05 -0.000157298 2.3066e-05)
(-5.79583e-05 -0.00016297 2.3066e-05)
(-4.3534e-05 -0.000167401 2.3066e-05)
(-2.87784e-05 -0.000170558 2.3066e-05)
(-1.38038e-05 -0.000172417 2.3066e-05)
(1.27589e-06 -0.000172964 2.3066e-05)
(1.63459e-05 -0.000172195 2.3066e-05)
(3.12914e-05 -0.000170115 2.3066e-05)
(4.59989e-05 -0.000166741 2.3066e-05)
(6.03563e-05 -0.000162097 2.3066e-05)
(6.42817e-05 -0.000154239 2.40829e-05)
(7.74798e-05 -0.000148049 2.40829e-05)
(9.00884e-05 -0.000140733 2.4083e-05)
(0.000102011 -0.000132346 2.4083e-05)
(0.000113158 -0.000122951 2.4083e-05)
(0.000123443 -0.000112621 2.4083e-05)
(0.000132789 -0.000101434 2.4083e-05)
(0.000141124 -8.94744e-05 2.40829e-05)
(0.000148385 -7.68341e-05 2.40829e-05)
(0.000154517 -6.36091e-05 2.40829e-05)
(0.000159473 -4.99e-05 2.40829e-05)
(0.000163215 -3.58112e-05 2.4083e-05)
(0.000165715 -2.14497e-05 2.40829e-05)
(0.000166954 -6.925e-06 2.40829e-05)
(0.000166922 7.65232e-06 2.40829e-05)
(0.00016562 2.21714e-05 2.4083e-05)
(0.000163058 3.65218e-05 2.40829e-05)
(0.000159254 5.05943e-05 2.40829e-05)
(0.000154239 6.42817e-05 2.40829e-05)
(0.000148049 7.74798e-05 2.40829e-05)
(0.000140733 9.00884e-05 2.4083e-05)
(0.000132346 0.000102011 2.4083e-05)
(0.000122951 0.000113158 2.4083e-05)
(0.000112621 0.000123443 2.4083e-05)
(0.000101434 0.000132789 2.4083e-05)
(8.94744e-05 0.000141124 2.40829e-05)
(7.68341e-05 0.000148385 2.40829e-05)
(6.36091e-05 0.000154517 2.40829e-05)
(4.99e-05 0.000159473 2.40829e-05)
(3.58112e-05 0.000163215 2.4083e-05)
(2.14497e-05 0.000165715 2.40829e-05)
(6.925e-06 0.000166954 2.40829e-05)
(-7.65232e-06 0.000166922 2.40829e-05)
(-2.21714e-05 0.00016562 2.4083e-05)
(-3.65218e-05 0.000163058 2.40829e-05)
(-5.05943e-05 0.000159254 2.40829e-05)