/*--------------------------------*- C++ -*----------------------------------*\
| =========                 |                                                 |
| \\      /  F ield         | OpenFOAM: The Open Source CFD Toolbox           |
|  \\    /   O peration     | Version:  2312                                  |
|   \\  /    A nd           | Website:  www.openfoam.com                      |
|    \\/     M anipulation  |                                                 |
\*---------------------------------------------------------------------------*/
FoamFile
{
    version     2.0;
    format      ascii;
    arch        "LSB;label=32;scalar=64";
    class       volVectorField;
    location    "0.1";
    object      D_0_0;
}
// * * * * * * * * * * * * * * * * * * * * * * * * * * * * * * * * * * * * * //

dimensions      [0 1 0 0 0 0 0];

internalField   nonuniform List<vector> 
12960
(
(3.47519e-05 -4.7956e-05 5.39381e-06)
(3.87993e-05 -4.47447e-05 5.39382e-06)
(4.25514e-05 -4.11929e-05 5.39382e-06)
(4.59796e-05 -3.73274e-05 5.3938e-06)
(4.9058e-05 -3.3178e-05 5.39381e-06)
(5.17629e-05 -2.8776e-05 5.39381e-06)
(5.4074e-05 -2.41551e-05 5.39382e-06)
(5.59735e-05 -1.93504e-05 5.39379e-06)
(5.74469e-05 -1.43983e-05 5.39378e-06)
(5.84832e-05 -9.33669e-06 5.3938e-06)
(5.90745e-05 -4.20403e-06 5.39381e-06)
(5.9216e-05 9.60695e-07 5.39381e-06)
(5.89069e-05 6.11806e-06 5.39383e-06)
(5.81497e-05 1.12289e-05 5.39385e-06)
(5.69496e-05 1.62542e-05 5.39383e-06)
(5.53163e-05 2.11559e-05 5.39381e-06)
(5.3262e-05 2.58965e-05 5.3938e-06)
(5.08023e-05 3.044e-05 5.3938e-06)
(4.7956e-05 3.47519e-05 5.39381e-06)
(4.47447e-05 3.87993e-05 5.39382e-06)
(4.11929e-05 4.25514e-05 5.39382e-06)
(3.73274e-05 4.59796e-05 5.3938e-06)
(3.3178e-05 4.9058e-05 5.39381e-06)
(2.8776e-05 5.17629e-05 5.39381e-06)
(2.41551e-05 5.4074e-05 5.39382e-06)
(1.93504e-05 5.59735e-05 5.39379e-06)
(1.43983e-05 5.74469e-05 5.39378e-06)
(9.33669e-06 5.84832e-05 5.3938e-06)
(4.20402e-06 5.90745e-05 5.39381e-06)
(-9.60695e-07 5.9216e-05 5.39381e-06)
(-6.11806e-06 5.89069e-05 5.39383e-06)
(-1.12289e-05 5.81497e-05 5.39385e-06)
(-1.62542e-05 5.69496e-05 5.39383e-06)
(-2.11559e-05 5.53163e-05 5.39381e-06)
(-2.58965e-05 5.3262e-05 5.3938e-06)
(-3.044e-05 5.08023e-05 5.3938e-06)
(-3.47519e-05 4.7956e-05 5.39381e-06)
(-3.87993e-05 4.47447e-05 5.39382e-06)
(-4.25514e-05 4.11929e-05 5.39382e-06)
(-4.59796e-05 3.73274e-05 5.3938e-06)
(-4.9058e-05 3.3178e-05 5.39381e-06)
(-5.17629e-05 2.8776e-05 5.39381e-06)
(-5.4074e-05 2.41551e-05 5.39382e-06)
(-5.59735e-05 1.93504e-05 5.39379e-06)
(-5.74469e-05 1.43983e-05 5.39378e-06)
(-5.84832e-05 9.33669e-06 5.3938e-06)
(-5.90745e-05 4.20403e-06 5.39381e-06)
(-5.9216e-05 -9.60695e-07 5.39381e-06)
(-5.89069e-05 -6.11806e-06 5.39383e-06)
(-5.81497e-05 -1.12289e-05 5.39385e-06)
(-5.69496e-05 -1.62542e-05 5.39383e-06)
(-5.53163e-05 -2.11559e-05 5.39381e-06)
(-5.3262e-05 -2.58965e-05 5.3938e-06)
(-5.08023e-05 -3.044e-05 5.3938e-06)
(-4.7956e-05 -3.47519e-05 5.39381e-06)
(-4.47447e-05 -3.87993e-05 5.39382e-06)
(-4.11929e-05 -4.25514e-05 5.39382e-06)
(-3.73274e-05 -4.59796e-05 5.3938e-06)
(-3.3178e-05 -4.9058e-05 5.39381e-06)
(-2.8776e-05 -5.17629e-05 5.39381e-06)
(-2.41551e-05 -5.4074e-05 5.39382e-06)
(-1.93504e-05 -5.59735e-05 5.39379e-06)
(-1.43983e-05 -5.74469e-05 5.39378e-06)
(-9.33669e-06 -5.84832e-05 5.3938e-06)
(-4.20403e-06 -5.90745e-05 5.39381e-06)
(9.60695e-07 -5.9216e-05 5.39381e-06)
(6.11806e-06 -5.89069e-05 5.39383e-06)
(1.12289e-05 -5.81497e-05 5.39385e-06)
(1.62542e-05 -5.69496e-05 5.39383e-06)
(2.11559e-05 -5.53163e-05 5.39381e-06)
(2.58965e-05 -5.3262e-05 5.3938e-06)
(3.044e-05 -5.08023e-05 5.3938e-06)
(3.0219e-05 -4.73254e-05 4.55955e-06)
(3.42286e-05 -4.45115e-05 4.55954e-06)
(3.79779e-05 -4.1359e-05 4.55953e-06)
(4.14381e-05 -3.78917e-05 4.55954e-06)
(4.45828e-05 -3.41359e-05 4.55954e-06)
(4.73884e-05 -3.01204e-05 4.55954e-06)
(4.98333e-05 -2.58756e-05 4.55955e-06)
(5.18989e-05 -2.14339e-05 4.55954e-06)
(5.35693e-05 -1.6829e-05 4.55953e-06)
(5.48322e-05 -1.20961e-05 4.55954e-06)
(5.56779e-05 -7.27116e-06 4.55955e-06)
(5.60998e-05 -2.3908e-06 4.55955e-06)
(5.60946e-05 2.5077e-06 4.55955e-06)
(5.56625e-05 7.38712e-06 4.55955e-06)
(5.48069e-05 1.22103e-05 4.55956e-06)
(5.35341e-05 1.69406e-05 4.55954e-06)
(5.18538e-05 2.15419e-05 4.55954e-06)
(4.97791e-05 2.59793e-05 4.55955e-06)
(4.73254e-05 3.0219e-05 4.55955e-06)
(4.45115e-05 3.42286e-05 4.55954e-06)
(4.1359e-05 3.79779e-05 4.55953e-06)
(3.78917e-05 4.14381e-05 4.55954e-06)
(3.41359e-05 4.45828e-05 4.55954e-06)
(3.01204e-05 4.73884e-05 4.55954e-06)
(2.58756e-05 4.98333e-05 4.55955e-06)
(2.14339e-05 5.18989e-05 4.55954e-06)
(1.6829e-05 5.35693e-05 4.55953e-06)
(1.20961e-05 5.48322e-05 4.55954e-06)
(7.27115e-06 5.56779e-05 4.55955e-06)
(2.3908e-06 5.60998e-05 4.55955e-06)
(-2.5077e-06 5.60946e-05 4.55955e-06)
(-7.38712e-06 5.56625e-05 4.55955e-06)
(-1.22103e-05 5.48069e-05 4.55956e-06)
(-1.69406e-05 5.35341e-05 4.55954e-06)
(-2.15419e-05 5.18538e-05 4.55954e-06)
(-2.59793e-05 4.97791e-05 4.55955e-06)
(-3.0219e-05 4.73254e-05 4.55955e-06)
(-3.42286e-05 4.45115e-05 4.55954e-06)
(-3.79779e-05 4.1359e-05 4.55953e-06)
(-4.14381e-05 3.78917e-05 4.55954e-06)
(-4.45828e-05 3.41359e-05 4.55954e-06)
(-4.73884e-05 3.01204e-05 4.55954e-06)
(-4.98333e-05 2.58756e-05 4.55955e-06)
(-5.18989e-05 2.14339e-05 4.55954e-06)
(-5.35693e-05 1.6829e-05 4.55953e-06)
(-5.48322e-05 1.20961e-05 4.55954e-06)
(-5.56779e-05 7.27116e-06 4.55955e-06)
(-5.60998e-05 2.3908e-06 4.55955e-06)
(-5.60946e-05 -2.5077e-06 4.55955e-06)
(-5.56625e-05 -7.38712e-06 4.55955e-06)
(-5.48069e-05 -1.22103e-05 4.55956e-06)
(-5.35341e-05 -1.69406e-05 4.55954e-06)
(-5.18538e-05 -2.15419e-05 4.55954e-06)
(-4.97791e-05 -2.59793e-05 4.55955e-06)
(-4.73254e-05 -3.0219e-05 4.55955e-06)
(-4.45115e-05 -3.42286e-05 4.55954e-06)
(-4.1359e-05 -3.79779e-05 4.55953e-06)
(-3.78917e-05 -4.14381e-05 4.55954e-06)
(-3.41359e-05 -4.45828e-05 4.55954e-06)
(-3.01204e-05 -4.73884e-05 4.55954e-06)
(-2.58756e-05 -4.98333e-05 4.55955e-06)
(-2.14339e-05 -5.18989e-05 4.55954e-06)
(-1.6829e-05 -5.35693e-05 4.55953e-06)
(-1.20961e-05 -5.48322e-05 4.55954e-06)
(-7.27116e-06 -5.56779e-05 4.55955e-06)
(-2.3908e-06 -5.60998e-05 4.55955e-06)
(2.5077e-06 -5.60946e-05 4.55955e-06)
(7.38712e-06 -5.56625e-05 4.55955e-06)
(1.22103e-05 -5.48069e-05 4.55956e-06)
(1.69406e-05 -5.35341e-05 4.55954e-06)
(2.15419e-05 -5.18538e-05 4.55954e-06)
(2.59793e-05 -4.97791e-05 4.55955e-06)
(2.63899e-05 -4.67092e-05 3.94356e-06)
(3.03605e-05 -4.42315e-05 3.94356e-06)
(3.41e-05 -4.14171e-05 3.94356e-06)
(3.75799e-05 -3.82874e-05 3.94356e-06)
(4.0774e-05 -3.48665e-05 3.94358e-06)
(4.36575e-05 -3.118e-05 3.94356e-06)
(4.62088e-05 -2.72563e-05 3.94355e-06)
(4.84086e-05 -2.31253e-05 3.94356e-06)
(5.02399e-05 -1.88182e-05 3.94356e-06)
(5.16888e-05 -1.43679e-05 3.94355e-06)
(5.27444e-05 -9.80825e-06 3.94356e-06)
(5.33984e-05 -5.17393e-06 3.94355e-06)
(5.36463e-05 -5.00262e-07 3.94356e-06)
(5.34859e-05 4.17723e-06 3.94358e-06)
(5.29181e-05 8.82289e-06 3.94357e-06)
(5.19479e-05 1.34015e-05 3.94357e-06)
(5.05822e-05 1.7878e-05 3.94358e-06)
(4.88315e-05 2.22185e-05 3.94357e-06)
(4.67092e-05 2.63899e-05 3.94356e-06)
(4.42315e-05 3.03605e-05 3.94356e-06)
(4.14171e-05 3.41e-05 3.94356e-06)
(3.82874e-05 3.75799e-05 3.94356e-06)
(3.48665e-05 4.0774e-05 3.94358e-06)
(3.118e-05 4.36575e-05 3.94356e-06)
(2.72563e-05 4.62088e-05 3.94355e-06)
(2.31253e-05 4.84086e-05 3.94356e-06)
(1.88182e-05 5.02399e-05 3.94356e-06)
(1.43679e-05 5.16888e-05 3.94355e-06)
(9.80825e-06 5.27444e-05 3.94356e-06)
(5.17393e-06 5.33984e-05 3.94355e-06)
(5.00262e-07 5.36463e-05 3.94356e-06)
(-4.17723e-06 5.34859e-05 3.94358e-06)
(-8.82289e-06 5.29181e-05 3.94357e-06)
(-1.34015e-05 5.19479e-05 3.94357e-06)
(-1.7878e-05 5.05822e-05 3.94358e-06)
(-2.22185e-05 4.88315e-05 3.94357e-06)
(-2.63899e-05 4.67092e-05 3.94356e-06)
(-3.03605e-05 4.42315e-05 3.94356e-06)
(-3.41e-05 4.14171e-05 3.94356e-06)
(-3.75799e-05 3.82874e-05 3.94356e-06)
(-4.0774e-05 3.48665e-05 3.94358e-06)
(-4.36575e-05 3.118e-05 3.94356e-06)
(-4.62088e-05 2.72563e-05 3.94355e-06)
(-4.84086e-05 2.31253e-05 3.94356e-06)
(-5.02399e-05 1.88182e-05 3.94356e-06)
(-5.16888e-05 1.43679e-05 3.94355e-06)
(-5.27444e-05 9.80825e-06 3.94356e-06)
(-5.33984e-05 5.17393e-06 3.94355e-06)
(-5.36463e-05 5.00263e-07 3.94356e-06)
(-5.34859e-05 -4.17723e-06 3.94358e-06)
(-5.29181e-05 -8.82289e-06 3.94357e-06)
(-5.19479e-05 -1.34015e-05 3.94357e-06)
(-5.05822e-05 -1.7878e-05 3.94358e-06)
(-4.88315e-05 -2.22185e-05 3.94357e-06)
(-4.67092e-05 -2.63899e-05 3.94356e-06)
(-4.42315e-05 -3.03605e-05 3.94356e-06)
(-4.14171e-05 -3.41e-05 3.94356e-06)
(-3.82874e-05 -3.75799e-05 3.94356e-06)
(-3.48665e-05 -4.0774e-05 3.94358e-06)
(-3.118e-05 -4.36575e-05 3.94356e-06)
(-2.72563e-05 -4.62088e-05 3.94355e-06)
(-2.31253e-05 -4.84086e-05 3.94356e-06)
(-1.88182e-05 -5.02399e-05 3.94356e-06)
(-1.43679e-05 -5.16888e-05 3.94355e-06)
(-9.80825e-06 -5.27444e-05 3.94356e-06)
(-5.17393e-06 -5.33984e-05 3.94355e-06)
(-5.00263e-07 -5.36463e-05 3.94356e-06)
(4.17723e-06 -5.34859e-05 3.94358e-06)
(8.82289e-06 -5.29181e-05 3.94357e-06)
(1.34015e-05 -5.19479e-05 3.94357e-06)
(1.7878e-05 -5.05822e-05 3.94358e-06)
(2.22185e-05 -4.88315e-05 3.94357e-06)
(2.25166e-05 -4.60949e-05 3.74368e-06)
(2.64484e-05 -4.3957e-05 3.74368e-06)
(3.01789e-05 -4.14847e-05 3.7437e-06)
(3.36796e-05 -3.86964e-05 3.74369e-06)
(3.6924e-05 -3.56138e-05 3.74369e-06)
(3.98875e-05 -3.22602e-05 3.7437e-06)
(4.25474e-05 -2.8661e-05 3.7437e-06)
(4.48835e-05 -2.48437e-05 3.7437e-06)
(4.6878e-05 -2.08374e-05 3.74369e-06)
(4.85157e-05 -1.66724e-05 3.74369e-06)
(4.97842e-05 -1.23805e-05 3.7437e-06)
(5.06737e-05 -7.9944e-06 3.7437e-06)
(5.11776e-05 -3.54747e-06 3.7437e-06)
(5.12919e-05 9.26456e-07 3.74368e-06)
(5.10161e-05 5.39332e-06 3.74369e-06)
(5.03521e-05 9.81917e-06 3.7437e-06)
(4.93046e-05 1.41703e-05 3.74369e-06)
(4.78819e-05 1.84135e-05 3.74368e-06)
(4.60949e-05 2.25166e-05 3.74368e-06)
(4.3957e-05 2.64484e-05 3.74368e-06)
(4.14847e-05 3.01789e-05 3.7437e-06)
(3.86964e-05 3.36796e-05 3.74369e-06)
(3.56138e-05 3.6924e-05 3.74369e-06)
(3.22602e-05 3.98875e-05 3.7437e-06)
(2.8661e-05 4.25474e-05 3.7437e-06)
(2.48437e-05 4.48835e-05 3.7437e-06)
(2.08374e-05 4.6878e-05 3.74369e-06)
(1.66724e-05 4.85157e-05 3.74369e-06)
(1.23805e-05 4.97842e-05 3.7437e-06)
(7.9944e-06 5.06737e-05 3.7437e-06)
(3.54747e-06 5.11776e-05 3.7437e-06)
(-9.26456e-07 5.12919e-05 3.74368e-06)
(-5.39332e-06 5.10161e-05 3.74369e-06)
(-9.81917e-06 5.03521e-05 3.7437e-06)
(-1.41703e-05 4.93046e-05 3.74369e-06)
(-1.84135e-05 4.78819e-05 3.74368e-06)
(-2.25166e-05 4.60949e-05 3.74368e-06)
(-2.64484e-05 4.3957e-05 3.74368e-06)
(-3.01789e-05 4.14847e-05 3.7437e-06)
(-3.36796e-05 3.86964e-05 3.74369e-06)
(-3.6924e-05 3.56138e-05 3.74369e-06)
(-3.98875e-05 3.22602e-05 3.7437e-06)
(-4.25474e-05 2.8661e-05 3.7437e-06)
(-4.48835e-05 2.48437e-05 3.7437e-06)
(-4.6878e-05 2.08374e-05 3.74369e-06)
(-4.85157e-05 1.66724e-05 3.74369e-06)
(-4.97842e-05 1.23805e-05 3.7437e-06)
(-5.06737e-05 7.9944e-06 3.7437e-06)
(-5.11776e-05 3.54747e-06 3.7437e-06)
(-5.12919e-05 -9.26456e-07 3.74368e-06)
(-5.10161e-05 -5.39332e-06 3.74369e-06)
(-5.03521e-05 -9.81917e-06 3.7437e-06)
(-4.93046e-05 -1.41703e-05 3.74369e-06)
(-4.78819e-05 -1.84135e-05 3.74368e-06)
(-4.60949e-05 -2.25166e-05 3.74368e-06)
(-4.3957e-05 -2.64484e-05 3.74368e-06)
(-4.14847e-05 -3.01789e-05 3.7437e-06)
(-3.86964e-05 -3.36796e-05 3.74369e-06)
(-3.56138e-05 -3.6924e-05 3.74369e-06)
(-3.22602e-05 -3.98875e-05 3.7437e-06)
(-2.8661e-05 -4.25474e-05 3.7437e-06)
(-2.48437e-05 -4.48835e-05 3.7437e-06)
(-2.08374e-05 -4.6878e-05 3.74369e-06)
(-1.66724e-05 -4.85157e-05 3.74369e-06)
(-1.23805e-05 -4.97842e-05 3.7437e-06)
(-7.9944e-06 -5.06737e-05 3.7437e-06)
(-3.54747e-06 -5.11776e-05 3.7437e-06)
(9.26456e-07 -5.12919e-05 3.74368e-06)
(5.39332e-06 -5.10161e-05 3.74369e-06)
(9.81917e-06 -5.03521e-05 3.7437e-06)
(1.41703e-05 -4.93046e-05 3.74369e-06)
(1.84135e-05 -4.78819e-05 3.74368e-06)
(1.81922e-05 -4.54066e-05 3.95109e-06)
(2.20805e-05 -4.36483e-05 3.95111e-06)
(2.58006e-05 -4.15577e-05 3.9511e-06)
(2.93244e-05 -3.91509e-05 3.95111e-06)
(3.2625e-05 -3.64461e-05 3.9511e-06)
(3.56773e-05 -3.34639e-05 3.9511e-06)
(3.84581e-05 -3.02271e-05 3.9511e-06)
(4.09462e-05 -2.67602e-05 3.9511e-06)
(4.31229e-05 -2.30898e-05 3.9511e-06)
(4.49713e-05 -1.92435e-05 3.95111e-06)
(4.64771e-05 -1.52507e-05 3.95109e-06)
(4.76294e-05 -1.11419e-05 3.95111e-06)
(4.84193e-05 -6.94837e-06 3.9511e-06)
(4.88406e-05 -2.70192e-06 3.95108e-06)
(4.88903e-05 1.5651e-06 3.9511e-06)
(4.85678e-05 5.82021e-06 3.9511e-06)
(4.78759e-05 1.00311e-05 3.95111e-06)
(4.68194e-05 1.41655e-05 3.95109e-06)
(4.54066e-05 1.81922e-05 3.95109e-06)
(4.36483e-05 2.20805e-05 3.95111e-06)
(4.15577e-05 2.58006e-05 3.9511e-06)
(3.91509e-05 2.93244e-05 3.95111e-06)
(3.64461e-05 3.2625e-05 3.9511e-06)
(3.34639e-05 3.56773e-05 3.9511e-06)
(3.02271e-05 3.84581e-05 3.9511e-06)
(2.67602e-05 4.09462e-05 3.9511e-06)
(2.30898e-05 4.31229e-05 3.9511e-06)
(1.92435e-05 4.49713e-05 3.95111e-06)
(1.52507e-05 4.64771e-05 3.95109e-06)
(1.11419e-05 4.76294e-05 3.95111e-06)
(6.94837e-06 4.84193e-05 3.9511e-06)
(2.70192e-06 4.88406e-05 3.95108e-06)
(-1.5651e-06 4.88903e-05 3.9511e-06)
(-5.82021e-06 4.85678e-05 3.9511e-06)
(-1.00311e-05 4.78759e-05 3.95111e-06)
(-1.41655e-05 4.68194e-05 3.95109e-06)
(-1.81922e-05 4.54066e-05 3.95109e-06)
(-2.20805e-05 4.36483e-05 3.95111e-06)
(-2.58006e-05 4.15577e-05 3.9511e-06)
(-2.93244e-05 3.91509e-05 3.95111e-06)
(-3.2625e-05 3.64461e-05 3.9511e-06)
(-3.56773e-05 3.34639e-05 3.9511e-06)
(-3.84581e-05 3.02271e-05 3.9511e-06)
(-4.09462e-05 2.67602e-05 3.9511e-06)
(-4.31229e-05 2.30898e-05 3.9511e-06)
(-4.49713e-05 1.92435e-05 3.95111e-06)
(-4.64771e-05 1.52507e-05 3.95109e-06)
(-4.76294e-05 1.11419e-05 3.95111e-06)
(-4.84193e-05 6.94837e-06 3.9511e-06)
(-4.88406e-05 2.70192e-06 3.95108e-06)
(-4.88903e-05 -1.5651e-06 3.9511e-06)
(-4.85678e-05 -5.82021e-06 3.9511e-06)
(-4.78759e-05 -1.00311e-05 3.95111e-06)
(-4.68194e-05 -1.41655e-05 3.95109e-06)
(-4.54066e-05 -1.81922e-05 3.95109e-06)
(-4.36483e-05 -2.20805e-05 3.95111e-06)
(-4.15577e-05 -2.58006e-05 3.9511e-06)
(-3.91509e-05 -2.93244e-05 3.95111e-06)
(-3.64461e-05 -3.2625e-05 3.9511e-06)
(-3.34639e-05 -3.56773e-05 3.9511e-06)
(-3.02271e-05 -3.84581e-05 3.9511e-06)
(-2.67602e-05 -4.09462e-05 3.9511e-06)
(-2.30898e-05 -4.31229e-05 3.9511e-06)
(-1.92435e-05 -4.49713e-05 3.95111e-06)
(-1.52507e-05 -4.64771e-05 3.95109e-06)
(-1.11419e-05 -4.76294e-05 3.95111e-06)
(-6.94837e-06 -4.84193e-05 3.9511e-06)
(-2.70192e-06 -4.88406e-05 3.95108e-06)
(1.5651e-06 -4.88903e-05 3.9511e-06)
(5.82021e-06 -4.85678e-05 3.9511e-06)
(1.00311e-05 -4.78759e-05 3.95111e-06)
(1.41655e-05 -4.68194e-05 3.95109e-06)
(1.22739e-05 -4.46647e-05 4.10558e-06)
(1.612e-05 -4.34249e-05 4.10559e-06)
(1.98434e-05 -4.18547e-05 4.10558e-06)
(2.34159e-05 -3.99662e-05 4.1056e-06)
(2.681e-05 -3.77732e-05 4.10558e-06)
(3.00001e-05 -3.52928e-05 4.10559e-06)
(3.29619e-05 -3.25438e-05 4.10558e-06)
(3.56728e-05 -2.95471e-05 4.10558e-06)
(3.81123e-05 -2.63256e-05 4.10559e-06)
(4.02617e-05 -2.29037e-05 4.10559e-06)
(4.21046e-05 -1.93075e-05 4.10559e-06)
(4.36273e-05 -1.55644e-05 4.10559e-06)
(4.48178e-05 -1.17028e-05 4.10556e-06)
(4.56673e-05 -7.75216e-06 4.10555e-06)
(4.61692e-05 -3.74253e-06 4.10557e-06)
(4.63194e-05 2.95619e-07 4.10558e-06)
(4.61173e-05 4.33152e-06 4.10558e-06)
(4.55645e-05 8.33447e-06 4.10559e-06)
(4.46647e-05 1.22739e-05 4.10558e-06)
(4.34249e-05 1.612e-05 4.10559e-06)
(4.18547e-05 1.98434e-05 4.10558e-06)
(3.99662e-05 2.34159e-05 4.1056e-06)
(3.77732e-05 2.681e-05 4.10558e-06)
(3.52928e-05 3.00001e-05 4.10559e-06)
(3.25438e-05 3.29619e-05 4.10558e-06)
(2.95471e-05 3.56728e-05 4.10558e-06)
(2.63256e-05 3.81123e-05 4.10559e-06)
(2.29037e-05 4.02617e-05 4.10559e-06)
(1.93075e-05 4.21046e-05 4.10559e-06)
(1.55644e-05 4.36273e-05 4.10559e-06)
(1.17028e-05 4.48178e-05 4.10556e-06)
(7.75216e-06 4.56673e-05 4.10555e-06)
(3.74253e-06 4.61692e-05 4.10557e-06)
(-2.95619e-07 4.63194e-05 4.10558e-06)
(-4.33152e-06 4.61173e-05 4.10558e-06)
(-8.33447e-06 4.55645e-05 4.10559e-06)
(-1.22739e-05 4.46647e-05 4.10558e-06)
(-1.612e-05 4.34249e-05 4.10559e-06)
(-1.98434e-05 4.18547e-05 4.10558e-06)
(-2.34159e-05 3.99662e-05 4.1056e-06)
(-2.681e-05 3.77732e-05 4.10558e-06)
(-3.00001e-05 3.52928e-05 4.10559e-06)
(-3.29619e-05 3.25438e-05 4.10558e-06)
(-3.56728e-05 2.95471e-05 4.10558e-06)
(-3.81123e-05 2.63256e-05 4.10559e-06)
(-4.02617e-05 2.29037e-05 4.10559e-06)
(-4.21046e-05 1.93075e-05 4.10559e-06)
(-4.36273e-05 1.55644e-05 4.10559e-06)
(-4.48178e-05 1.17028e-05 4.10556e-06)
(-4.56673e-05 7.75216e-06 4.10555e-06)
(-4.61692e-05 3.74253e-06 4.10557e-06)
(-4.63194e-05 -2.95619e-07 4.10558e-06)
(-4.61173e-05 -4.33152e-06 4.10558e-06)
(-4.55645e-05 -8.33447e-06 4.10559e-06)
(-4.46647e-05 -1.22739e-05 4.10558e-06)
(-4.34249e-05 -1.612e-05 4.10559e-06)
(-4.18547e-05 -1.98434e-05 4.10558e-06)
(-3.99662e-05 -2.34159e-05 4.1056e-06)
(-3.77732e-05 -2.681e-05 4.10558e-06)
(-3.52928e-05 -3.00001e-05 4.10559e-06)
(-3.25438e-05 -3.29619e-05 4.10558e-06)
(-2.95471e-05 -3.56728e-05 4.10558e-06)
(-2.63256e-05 -3.81123e-05 4.10559e-06)
(-2.29037e-05 -4.02617e-05 4.10559e-06)
(-1.93075e-05 -4.21046e-05 4.10559e-06)
(-1.55644e-05 -4.36273e-05 4.10559e-06)
(-1.17028e-05 -4.48178e-05 4.10556e-06)
(-7.75216e-06 -4.56673e-05 4.10555e-06)
(-3.74253e-06 -4.61692e-05 4.10557e-06)
(2.95619e-07 -4.63194e-05 4.10558e-06)
(4.33152e-06 -4.61173e-05 4.10558e-06)
(8.33447e-06 -4.55645e-05 4.10559e-06)
(9.03835e-05 -0.00014409 2.0691e-05)
(0.000102598 -0.000135664 2.0691e-05)
(0.000114031 -0.000126206 2.06911e-05)
(0.000124597 -0.000115787 2.0691e-05)
(0.000134214 -0.000104487 2.0691e-05)
(0.00014281 -9.23922e-05 2.0691e-05)
(0.000150319 -7.95938e-05 2.06911e-05)
(0.000156684 -6.61896e-05 2.0691e-05)
(0.000161857 -5.22819e-05 2.0691e-05)
(0.000165798 -3.79762e-05 2.0691e-05)
(0.000168477 -2.33814e-05 2.0691e-05)
(0.000169873 -8.60866e-06 2.06911e-05)
(0.000169977 6.22955e-06 2.06911e-05)
(0.000168787 2.10203e-05 2.06911e-05)
(0.000166313 3.56511e-05 2.06911e-05)
(0.000162573 5.00106e-05 2.06911e-05)
(0.000157596 6.39895e-05 2.0691e-05)
(0.000151419 7.74813e-05 2.0691e-05)
(0.00014409 9.03835e-05 2.0691e-05)
(0.000135664 0.000102598 2.0691e-05)
(0.000126206 0.000114031 2.06911e-05)
(0.000115787 0.000124597 2.0691e-05)
(0.000104487 0.000134214 2.0691e-05)
(9.23922e-05 0.00014281 2.0691e-05)
(7.95938e-05 0.000150319 2.06911e-05)
(6.61896e-05 0.000156684 2.0691e-05)
(5.22819e-05 0.000161857 2.0691e-05)
(3.79762e-05 0.000165798 2.0691e-05)
(2.33814e-05 0.000168477 2.0691e-05)
(8.60866e-06 0.000169873 2.06911e-05)
(-6.22955e-06 0.000169977 2.06911e-05)
(-2.10203e-05 0.000168787 2.06911e-05)
(-3.56511e-05 0.000166313 2.06911e-05)
(-5.00106e-05 0.000162573 2.06911e-05)
(-6.39895e-05 0.000157596 2.0691e-05)
(-7.74813e-05 0.000151419 2.0691e-05)
(-9.03835e-05 0.00014409 2.0691e-05)
(-0.000102598 0.000135664 2.0691e-05)
(-0.000114031 0.000126206 2.06911e-05)
(-0.000124597 0.000115787 2.0691e-05)
(-0.000134214 0.000104487 2.0691e-05)
(-0.00014281 9.23922e-05 2.0691e-05)
(-0.000150319 7.95938e-05 2.06911e-05)
(-0.000156684 6.61896e-05 2.0691e-05)
(-0.000161857 5.22819e-05 2.0691e-05)
(-0.000165798 3.79762e-05 2.0691e-05)
(-0.000168477 2.33814e-05 2.0691e-05)
(-0.000169873 8.60866e-06 2.06911e-05)
(-0.000169977 -6.22955e-06 2.06911e-05)
(-0.000168787 -2.10203e-05 2.06911e-05)
(-0.000166313 -3.56511e-05 2.06911e-05)
(-0.000162573 -5.00106e-05 2.06911e-05)
(-0.000157596 -6.39895e-05 2.0691e-05)
(-0.000151419 -7.74813e-05 2.0691e-05)
(-0.00014409 -9.03835e-05 2.0691e-05)
(-0.000135664 -0.000102598 2.0691e-05)
(-0.000126206 -0.000114031 2.06911e-05)
(-0.000115787 -0.000124597 2.0691e-05)
(-0.000104487 -0.000134214 2.0691e-05)
(-9.23922e-05 -0.00014281 2.0691e-05)
(-7.95938e-05 -0.000150319 2.06911e-05)
(-6.61896e-05 -0.000156684 2.0691e-05)
(-5.22819e-05 -0.000161857 2.0691e-05)
(-3.79762e-05 -0.000165798 2.0691e-05)
(-2.33814e-05 -0.000168477 2.0691e-05)
(-8.60866e-06 -0.000169873 2.06911e-05)
(6.22955e-06 -0.000169977 2.06911e-05)
(2.10203e-05 -0.000168787 2.06911e-05)
(3.56511e-05 -0.000166313 2.06911e-05)
(5.00106e-05 -0.000162573 2.06911e-05)
(6.39895e-05 -0.000157596 2.0691e-05)
(7.74813e-05 -0.000151419 2.0691e-05)
(8.34794e-05 -0.000141918 2.03806e-05)
(9.55306e-05 -0.000134102 2.03806e-05)
(0.000106855 -0.000125266 2.03806e-05)
(0.000117366 -0.000115476 2.03806e-05)
(0.000126984 -0.000104807 2.03806e-05)
(0.000135635 -9.33411e-05 2.03806e-05)
(0.000143254 -8.11647e-05 2.03806e-05)
(0.000149783 -6.83704e-05 2.03806e-05)
(0.000155172 -5.50558e-05 2.03806e-05)
(0.00015938 -4.13222e-05 2.03806e-05)
(0.000162375 -2.7274e-05 2.03806e-05)
(0.000164134 -1.30183e-05 2.03806e-05)
(0.000164644 1.33639e-06 2.03806e-05)
(0.000163901 1.5681e-05 2.03806e-05)
(0.00016191 2.99062e-05 2.03806e-05)
(0.000158688 4.39038e-05 2.03806e-05)
(0.000154258 5.75674e-05 2.03806e-05)
(0.000148653 7.07928e-05 2.03806e-05)
(0.000141918 8.34794e-05 2.03806e-05)
(0.000134102 9.55306e-05 2.03806e-05)
(0.000125266 0.000106855 2.03806e-05)
(0.000115476 0.000117366 2.03806e-05)
(0.000104807 0.000126984 2.03806e-05)
(9.33411e-05 0.000135635 2.03806e-05)
(8.11647e-05 0.000143254 2.03806e-05)
(6.83704e-05 0.000149783 2.03806e-05)
(5.50558e-05 0.000155172 2.03806e-05)
(4.13222e-05 0.00015938 2.03806e-05)
(2.7274e-05 0.000162375 2.03806e-05)
(1.30183e-05 0.000164134 2.03806e-05)
(-1.33639e-06 0.000164644 2.03806e-05)
(-1.5681e-05 0.000163901 2.03806e-05)
(-2.99062e-05 0.00016191 2.03806e-05)
(-4.39038e-05 0.000158688 2.03806e-05)
(-5.75674e-05 0.000154258 2.03806e-05)
(-7.07928e-05 0.000148653 2.03806e-05)
(-8.34794e-05 0.000141918 2.03806e-05)
(-9.55306e-05 0.000134102 2.03806e-05)
(-0.000106855 0.000125266 2.03806e-05)
(-0.000117366 0.000115476 2.03806e-05)
(-0.000126984 0.000104807 2.03806e-05)
(-0.000135635 9.33411e-05 2.03806e-05)
(-0.000143254 8.11647e-05 2.03806e-05)
(-0.000149783 6.83704e-05 2.03806e-05)
(-0.000155172 5.50558e-05 2.03806e-05)
(-0.00015938 4.13222e-05 2.03806e-05)
(-0.000162375 2.7274e-05 2.03806e-05)
(-0.000164134 1.30183e-05 2.03806e-05)
(-0.000164644 -1.33639e-06 2.03806e-05)
(-0.000163901 -1.5681e-05 2.03806e-05)
(-0.00016191 -2.99062e-05 2.03806e-05)
(-0.000158688 -4.39038e-05 2.03806e-05)
(-0.000154258 -5.75674e-05 2.03806e-05)
(-0.000148653 -7.07928e-05 2.03806e-05)
(-0.000141918 -8.34794e-05 2.03806e-05)
(-0.000134102 -9.55306e-05 2.03806e-05)
(-0.000125266 -0.000106855 2.03806e-05)
(-0.000115476 -0.000117366 2.03806e-05)
(-0.000104807 -0.000126984 2.03806e-05)
(-9.33411e-05 -0.000135635 2.03806e-05)
(-8.11647e-05 -0.000143254 2.03806e-05)
(-6.83704e-05 -0.000149783 2.03806e-05)
(-5.50558e-05 -0.000155172 2.03806e-05)
(-4.13222e-05 -0.00015938 2.03806e-05)
(-2.7274e-05 -0.000162375 2.03806e-05)
(-1.30183e-05 -0.000164134 2.03806e-05)
(1.33639e-06 -0.000164644 2.03806e-05)
(1.5681e-05 -0.000163901 2.03806e-05)
(2.99062e-05 -0.00016191 2.03806e-05)
(4.39038e-05 -0.000158688 2.03806e-05)
(5.75674e-05 -0.000154258 2.03806e-05)
(7.07928e-05 -0.000148653 2.03806e-05)
(7.59396e-05 -0.000139807 2.00815e-05)
(8.78356e-05 -0.000132657 2.00815e-05)
(9.90631e-05 -0.000124497 2.00815e-05)
(0.000109537 -0.000115389 2.00815e-05)
(0.000119177 -0.000105403 2.00815e-05)
(0.00012791 -9.46152e-05 2.00816e-05)
(0.000135669 -8.31071e-05 2.00816e-05)
(0.000142396 -7.09664e-05 2.00816e-05)
(0.000148039 -5.82857e-05 2.00816e-05)
(0.000152556 -4.51614e-05 2.00816e-05)
(0.000155912 -3.16934e-05 2.00816e-05)
(0.000158081 -1.79842e-05 2.00816e-05)
(0.000159047 -4.1381e-06 2.00816e-05)
(0.000158802 9.73945e-06 2.00815e-05)
(0.000157349 2.35428e-05 2.00816e-05)
(0.000154698 3.71672e-05 2.00816e-05)
(0.00015087 5.05086e-05 2.00816e-05)
(0.000145894 6.34656e-05 2.00815e-05)
(0.000139807 7.59396e-05 2.00815e-05)
(0.000132657 8.78356e-05 2.00815e-05)
(0.000124497 9.90631e-05 2.00815e-05)
(0.000115389 0.000109537 2.00815e-05)
(0.000105403 0.000119177 2.00815e-05)
(9.46152e-05 0.00012791 2.00816e-05)
(8.31071e-05 0.000135669 2.00816e-05)
(7.09664e-05 0.000142396 2.00816e-05)
(5.82857e-05 0.000148039 2.00816e-05)
(4.51614e-05 0.000152556 2.00816e-05)
(3.16934e-05 0.000155912 2.00816e-05)
(1.79842e-05 0.000158081 2.00816e-05)
(4.1381e-06 0.000159047 2.00816e-05)
(-9.73945e-06 0.000158802 2.00815e-05)
(-2.35428e-05 0.000157349 2.00816e-05)
(-3.71672e-05 0.000154698 2.00816e-05)
(-5.05086e-05 0.00015087 2.00816e-05)
(-6.34656e-05 0.000145894 2.00815e-05)
(-7.59396e-05 0.000139807 2.00815e-05)
(-8.78356e-05 0.000132657 2.00815e-05)
(-9.90631e-05 0.000124497 2.00815e-05)
(-0.000109537 0.000115389 2.00815e-05)
(-0.000119177 0.000105403 2.00815e-05)
(-0.00012791 9.46152e-05 2.00816e-05)
(-0.000135669 8.31071e-05 2.00816e-05)
(-0.000142396 7.09664e-05 2.00816e-05)
(-0.000148039 5.82857e-05 2.00816e-05)
(-0.000152556 4.51614e-05 2.00816e-05)
(-0.000155912 3.16934e-05 2.00816e-05)
(-0.000158081 1.79842e-05 2.00816e-05)
(-0.000159047 4.1381e-06 2.00816e-05)
(-0.000158802 -9.73945e-06 2.00815e-05)
(-0.000157349 -2.35428e-05 2.00816e-05)
(-0.000154698 -3.71672e-05 2.00816e-05)
(-0.00015087 -5.05086e-05 2.00816e-05)
(-0.000145894 -6.34656e-05 2.00815e-05)
(-0.000139807 -7.59396e-05 2.00815e-05)
(-0.000132657 -8.78356e-05 2.00815e-05)
(-0.000124497 -9.90631e-05 2.00815e-05)
(-0.000115389 -0.000109537 2.00815e-05)
(-0.000105403 -0.000119177 2.00815e-05)
(-9.46152e-05 -0.00012791 2.00816e-05)
(-8.31071e-05 -0.000135669 2.00816e-05)
(-7.09664e-05 -0.000142396 2.00816e-05)
(-5.82857e-05 -0.000148039 2.00816e-05)
(-4.51614e-05 -0.000152556 2.00816e-05)
(-3.16934e-05 -0.000155912 2.00816e-05)
(-1.79842e-05 -0.000158081 2.00816e-05)
(-4.1381e-06 -0.000159047 2.00816e-05)
(9.73945e-06 -0.000158802 2.00815e-05)
(2.35428e-05 -0.000157349 2.00816e-05)
(3.71672e-05 -0.000154698 2.00816e-05)
(5.05086e-05 -0.00015087 2.00816e-05)
(6.34656e-05 -0.000145894 2.00815e-05)
(6.78673e-05 -0.000137675 2.02458e-05)
(7.96082e-05 -0.000131236 2.02458e-05)
(9.07433e-05 -0.000123798 2.02458e-05)
(0.000101188 -0.000115418 2.02458e-05)
(0.000110862 -0.00010616 2.02458e-05)
(0.000119692 -9.60938e-05 2.02458e-05)
(0.000127612 -8.52962e-05 2.02458e-05)
(0.000134561 -7.38496e-05 2.02458e-05)
(0.000140485 -6.18408e-05 2.02458e-05)
(0.00014534 -4.93614e-05 2.02458e-05)
(0.000149089 -3.65063e-05 2.02458e-05)
(0.000151704 -2.33734e-05 2.02458e-05)
(0.000153163 -1.00626e-05 2.02458e-05)
(0.000153458 3.32475e-06 2.02458e-05)
(0.000152584 1.66868e-05 2.02458e-05)
(0.000150549 2.99219e-05 2.02458e-05)
(0.000147368 4.29292e-05 2.02458e-05)
(0.000143066 5.56099e-05 2.02458e-05)
(0.000137675 6.78673e-05 2.02458e-05)
(0.000131236 7.96082e-05 2.02458e-05)
(0.000123798 9.07433e-05 2.02458e-05)
(0.000115418 0.000101188 2.02458e-05)
(0.00010616 0.000110862 2.02458e-05)
(9.60938e-05 0.000119692 2.02458e-05)
(8.52962e-05 0.000127612 2.02458e-05)
(7.38496e-05 0.000134561 2.02458e-05)
(6.18408e-05 0.000140485 2.02458e-05)
(4.93614e-05 0.00014534 2.02458e-05)
(3.65063e-05 0.000149089 2.02458e-05)
(2.33734e-05 0.000151704 2.02458e-05)
(1.00626e-05 0.000153163 2.02458e-05)
(-3.32475e-06 0.000153458 2.02458e-05)
(-1.66868e-05 0.000152584 2.02458e-05)
(-2.99219e-05 0.000150549 2.02458e-05)
(-4.29292e-05 0.000147368 2.02458e-05)
(-5.56099e-05 0.000143066 2.02458e-05)
(-6.78673e-05 0.000137675 2.02458e-05)
(-7.96082e-05 0.000131236 2.02458e-05)
(-9.07433e-05 0.000123798 2.02458e-05)
(-0.000101188 0.000115418 2.02458e-05)
(-0.000110862 0.00010616 2.02458e-05)
(-0.000119692 9.60938e-05 2.02458e-05)
(-0.000127612 8.52962e-05 2.02458e-05)
(-0.000134561 7.38496e-05 2.02458e-05)
(-0.000140485 6.18408e-05 2.02458e-05)
(-0.00014534 4.93614e-05 2.02458e-05)
(-0.000149089 3.65063e-05 2.02458e-05)
(-0.000151704 2.33734e-05 2.02458e-05)
(-0.000153163 1.00626e-05 2.02458e-05)
(-0.000153458 -3.32475e-06 2.02458e-05)
(-0.000152584 -1.66868e-05 2.02458e-05)
(-0.000150549 -2.99219e-05 2.02458e-05)
(-0.000147368 -4.29292e-05 2.02458e-05)
(-0.000143066 -5.56099e-05 2.02458e-05)
(-0.000137675 -6.78673e-05 2.02458e-05)
(-0.000131236 -7.96082e-05 2.02458e-05)
(-0.000123798 -9.07433e-05 2.02458e-05)
(-0.000115418 -0.000101188 2.02458e-05)
(-0.00010616 -0.000110862 2.02458e-05)
(-9.60938e-05 -0.000119692 2.02458e-05)
(-8.52962e-05 -0.000127612 2.02458e-05)
(-7.38496e-05 -0.000134561 2.02458e-05)
(-6.18408e-05 -0.000140485 2.02458e-05)
(-4.93614e-05 -0.00014534 2.02458e-05)
(-3.65063e-05 -0.000149089 2.02458e-05)
(-2.33734e-05 -0.000151704 2.02458e-05)
(-1.00626e-05 -0.000153163 2.02458e-05)
(3.32475e-06 -0.000153458 2.02458e-05)
(1.66868e-05 -0.000152584 2.02458e-05)
(2.99219e-05 -0.000150549 2.02458e-05)
(4.29292e-05 -0.000147368 2.02458e-05)
(5.56099e-05 -0.000143066 2.02458e-05)
(5.93176e-05 -0.000135347 2.09769e-05)
(7.08881e-05 -0.000129662 2.09769e-05)
(8.19192e-05 -0.00012299 2.09769e-05)
(9.23268e-05 -0.000115383 2.09769e-05)
(0.000102032 -0.000106897 2.09769e-05)
(0.00011096 -9.75973e-05 2.09769e-05)
(0.000119044 -8.75552e-05 2.0977e-05)
(0.000126222 -7.68466e-05 2.09769e-05)
(0.000132439 -6.55531e-05 2.09769e-05)
(0.000137649 -5.37608e-05 2.09769e-05)
(0.00014181 -4.15594e-05 2.09769e-05)
(0.000144893 -2.90418e-05 2.0977e-05)
(0.000146873 -1.63029e-05 2.09769e-05)
(0.000147735 -3.44007e-06 2.09769e-05)
(0.000147472 9.44891e-06 2.09769e-05)
(0.000146088 2.2266e-05 2.09769e-05)
(0.000143591 3.49137e-05 2.09769e-05)
(0.000140002 4.72956e-05 2.09769e-05)
(0.000135347 5.93176e-05 2.09769e-05)
(0.000129662 7.08881e-05 2.09769e-05)
(0.00012299 8.19192e-05 2.09769e-05)
(0.000115383 9.23268e-05 2.09769e-05)
(0.000106897 0.000102032 2.09769e-05)
(9.75973e-05 0.00011096 2.09769e-05)
(8.75552e-05 0.000119044 2.0977e-05)
(7.68466e-05 0.000126222 2.09769e-05)
(6.55531e-05 0.000132439 2.09769e-05)
(5.37608e-05 0.000137649 2.09769e-05)
(4.15594e-05 0.00014181 2.09769e-05)
(2.90418e-05 0.000144893 2.0977e-05)
(1.63029e-05 0.000146873 2.09769e-05)
(3.44007e-06 0.000147735 2.09769e-05)
(-9.44891e-06 0.000147472 2.09769e-05)
(-2.2266e-05 0.000146088 2.09769e-05)