/*--------------------------------*- C++ -*----------------------------------*\
| =========                 |                                                 |
| \\      /  F ield         | OpenFOAM: The Open Source CFD Toolbox           |
|  \\    /   O peration     | Version:  2312                                  |
|   \\  /    A nd           | Website:  www.openfoam.com                      |
|    \\/     M anipulation  |                                                 |
\*---------------------------------------------------------------------------*/
FoamFile
{
    version     2.0;
    format      ascii;
    arch        "LSB;label=32;scalar=64";
    class       volTensorField;
    location    "0.1";
    object      F;
}
// * * * * * * * * * * * * * * * * * * * * * * * * * * * * * * * * * * * * * //

dimensions      [0 0 0 0 0 0 0];

internalField   nonuniform List<tensor> 
12960
(
(1.01052 0.0067538 -0.0672129 -0.000793479 1.00434 0.12336 0.00142051 6.20308e-05 0.981696)
(1.00996 0.00724521 -0.0777087 -0.000302101 1.00491 0.117033 0.0014097 0.000185591 0.981696)
(1.00932 0.00763111 -0.0876131 8.37945e-05 1.00555 0.109815 0.00138818 0.000307749 0.981696)
(1.00862 0.00789985 -0.0968507 0.00035251 1.00625 0.101761 0.00135609 0.000427567 0.981696)
(1.00788 0.00804319 -0.105351 0.000495877 1.00698 0.0929325 0.00131363 0.000544134 0.981696)
(1.00714 0.0080568 -0.11305 0.00050949 1.00773 0.0833969 0.00126128 0.000656601 0.981696)
(1.0064 0.0079403 -0.119888 0.00039293 1.00847 0.0732266 0.00119927 0.000763988 0.981696)
(1.00569 0.00769716 -0.125814 0.00014983 1.00917 0.062499 0.00112806 0.000865556 0.981696)
(1.00503 0.00733484 -0.130783 -0.000212486 1.00983 0.0512957 0.00104828 0.000960593 0.981696)
(1.00445 0.00686429 -0.134755 -0.000683039 1.01041 0.039702 0.000960599 0.00104833 0.981696)
(1.00396 0.00629982 -0.137703 -0.00124752 1.0109 0.0278062 0.000865585 0.00112807 0.981696)
(1.00357 0.00565859 -0.139602 -0.00188869 1.01129 0.0156988 0.00076398 0.00119926 0.981696)
(1.00331 0.00496016 -0.140439 -0.00258717 1.01156 0.00347191 0.00065658 0.00126131 0.981696)
(1.00316 0.00422561 -0.140208 -0.00332168 1.0117 -0.00878138 0.000544154 0.00131368 0.981696)
(1.00315 0.00347732 -0.138909 -0.00406997 1.01171 -0.0209679 0.000427607 0.00135611 0.981696)
(1.00326 0.00273805 -0.136553 -0.00480922 1.0116 -0.0329948 0.000307769 0.00138815 0.981696)
(1.00351 0.00203027 -0.133157 -0.00551702 1.01136 -0.0447706 0.000185588 0.00140966 0.981696)
(1.00387 0.00137547 -0.128749 -0.00617184 1.01099 -0.0562056 6.2015e-05 0.00142049 0.981696)
(1.00434 0.000793479 -0.12336 -0.0067538 1.01052 -0.0672129 -6.20308e-05 0.00142051 0.981696)
(1.00491 0.000302101 -0.117033 -0.00724521 1.00996 -0.0777087 -0.000185591 0.0014097 0.981696)
(1.00555 -8.37945e-05 -0.109815 -0.00763111 1.00932 -0.0876131 -0.000307749 0.00138818 0.981696)
(1.00625 -0.00035251 -0.101761 -0.00789985 1.00862 -0.0968507 -0.000427567 0.00135609 0.981696)
(1.00698 -0.000495877 -0.0929325 -0.00804319 1.00788 -0.105351 -0.000544134 0.00131363 0.981696)
(1.00773 -0.00050949 -0.0833969 -0.0080568 1.00714 -0.11305 -0.000656601 0.00126128 0.981696)
(1.00847 -0.00039293 -0.0732266 -0.0079403 1.0064 -0.119888 -0.000763988 0.00119927 0.981696)
(1.00917 -0.00014983 -0.062499 -0.00769716 1.00569 -0.125814 -0.000865556 0.00112806 0.981696)
(1.00983 0.000212486 -0.0512957 -0.00733484 1.00503 -0.130783 -0.000960593 0.00104828 0.981696)
(1.01041 0.000683039 -0.039702 -0.00686429 1.00445 -0.134755 -0.00104833 0.000960599 0.981696)
(1.0109 0.00124752 -0.0278062 -0.00629982 1.00396 -0.137703 -0.00112807 0.000865585 0.981696)
(1.01129 0.00188869 -0.0156988 -0.00565859 1.00357 -0.139602 -0.00119926 0.00076398 0.981696)
(1.01156 0.00258717 -0.00347191 -0.00496016 1.00331 -0.140439 -0.00126131 0.00065658 0.981696)
(1.0117 0.00332168 0.00878138 -0.00422561 1.00316 -0.140208 -0.00131368 0.000544154 0.981696)
(1.01171 0.00406997 0.0209679 -0.00347732 1.00315 -0.138909 -0.00135611 0.000427607 0.981696)
(1.0116 0.00480922 0.0329948 -0.00273805 1.00326 -0.136553 -0.00138815 0.000307769 0.981696)
(1.01136 0.00551702 0.0447706 -0.00203027 1.00351 -0.133157 -0.00140966 0.000185588 0.981696)
(1.01099 0.00617184 0.0562056 -0.00137547 1.00387 -0.128749 -0.00142049 6.2015e-05 0.981696)
(1.01052 0.0067538 0.0672129 -0.000793479 1.00434 -0.12336 -0.00142051 -6.20308e-05 0.981696)
(1.00996 0.00724521 0.0777087 -0.000302101 1.00491 -0.117033 -0.0014097 -0.000185591 0.981696)
(1.00932 0.00763111 0.0876131 8.37945e-05 1.00555 -0.109815 -0.00138818 -0.000307749 0.981696)
(1.00862 0.00789985 0.0968507 0.00035251 1.00625 -0.101761 -0.00135609 -0.000427567 0.981696)
(1.00788 0.00804319 0.105351 0.000495877 1.00698 -0.0929325 -0.00131363 -0.000544134 0.981696)
(1.00714 0.0080568 0.11305 0.00050949 1.00773 -0.0833969 -0.00126128 -0.000656601 0.981696)
(1.0064 0.0079403 0.119888 0.00039293 1.00847 -0.0732266 -0.00119927 -0.000763988 0.981696)
(1.00569 0.00769716 0.125814 0.00014983 1.00917 -0.062499 -0.00112806 -0.000865556 0.981696)
(1.00503 0.00733484 0.130783 -0.000212486 1.00983 -0.0512957 -0.00104828 -0.000960593 0.981696)
(1.00445 0.00686429 0.134755 -0.000683039 1.01041 -0.039702 -0.000960599 -0.00104833 0.981696)
(1.00396 0.00629982 0.137703 -0.00124752 1.0109 -0.0278062 -0.000865585 -0.00112807 0.981696)
(1.00357 0.00565859 0.139602 -0.00188869 1.01129 -0.0156988 -0.00076398 -0.00119926 0.981696)
(1.00331 0.00496016 0.140439 -0.00258717 1.01156 -0.00347191 -0.00065658 -0.00126131 0.981696)
(1.00316 0.00422561 0.140208 -0.00332168 1.0117 0.00878138 -0.000544154 -0.00131368 0.981696)
(1.00315 0.00347732 0.138909 -0.00406997 1.01171 0.0209679 -0.000427607 -0.00135611 0.981696)
(1.00326 0.00273805 0.136553 -0.00480922 1.0116 0.0329948 -0.000307769 -0.00138815 0.981696)
(1.00351 0.00203027 0.133157 -0.00551702 1.01136 0.0447706 -0.000185588 -0.00140966 0.981696)
(1.00387 0.00137547 0.128749 -0.00617184 1.01099 0.0562056 -6.2015e-05 -0.00142049 0.981696)
(1.00434 0.000793479 0.12336 -0.0067538 1.01052 0.0672129 6.20308e-05 -0.00142051 0.981696)
(1.00491 0.000302101 0.117033 -0.00724521 1.00996 0.0777087 0.000185591 -0.0014097 0.981696)
(1.00555 -8.37944e-05 0.109815 -0.00763111 1.00932 0.0876131 0.000307749 -0.00138818 0.981696)
(1.00625 -0.00035251 0.101761 -0.00789985 1.00862 0.0968507 0.000427567 -0.00135609 0.981696)
(1.00698 -0.000495877 0.0929325 -0.00804319 1.00788 0.105351 0.000544134 -0.00131363 0.981696)
(1.00773 -0.00050949 0.0833969 -0.0080568 1.00714 0.11305 0.000656601 -0.00126128 0.981696)
(1.00847 -0.00039293 0.0732266 -0.0079403 1.0064 0.119888 0.000763988 -0.00119927 0.981696)
(1.00917 -0.00014983 0.062499 -0.00769716 1.00569 0.125814 0.000865556 -0.00112806 0.981696)
(1.00983 0.000212486 0.0512957 -0.00733484 1.00503 0.130783 0.000960593 -0.00104828 0.981696)
(1.01041 0.000683039 0.039702 -0.00686429 1.00445 0.134755 0.00104833 -0.000960599 0.981696)
(1.0109 0.00124752 0.0278062 -0.00629982 1.00396 0.137703 0.00112807 -0.000865585 0.981696)
(1.01129 0.00188869 0.0156988 -0.00565859 1.00357 0.139602 0.00119926 -0.00076398 0.981696)
(1.01156 0.00258717 0.00347191 -0.00496016 1.00331 0.140439 0.00126131 -0.00065658 0.981696)
(1.0117 0.00332168 -0.00878138 -0.00422561 1.00316 0.140208 0.00131368 -0.000544154 0.981696)
(1.01171 0.00406997 -0.0209679 -0.00347732 1.00315 0.138909 0.00135611 -0.000427607 0.981696)
(1.0116 0.00480922 -0.0329948 -0.00273805 1.00326 0.136553 0.00138815 -0.000307769 0.981696)
(1.01136 0.00551702 -0.0447706 -0.00203027 1.00351 0.133157 0.00140966 -0.000185588 0.981696)
(1.01099 0.00617184 -0.0562056 -0.00137547 1.00387 0.128749 0.00142049 -6.2015e-05 0.981696)
(1.00991 0.00705252 -0.0640599 -0.000749539 1.00399 0.122439 0.00128228 5.59925e-05 0.980443)
(1.00932 0.00751854 -0.0744874 -0.000283556 1.00458 0.11639 0.00127253 0.000167527 0.980443)
(1.00865 0.00787464 -0.084348 7.25169e-05 1.00525 0.109455 0.00125309 0.000277785 0.980443)
(1.00794 0.00811 -0.0935667 0.000307883 1.00596 0.101687 0.0012241 0.000385956 0.980443)
(1.00719 0.00821749 -0.102073 0.000415367 1.00671 0.0931455 0.00118579 0.000491165 0.980443)
(1.00644 0.00819379 -0.109803 0.000391685 1.00746 0.0838948 0.0011385 0.000592661 0.980443)
(1.0057 0.0080397 -0.116697 0.000237548 1.0082 0.0740056 0.00108251 0.000689629 0.980443)
(1.005 0.00775983 -0.122703 -4.22945e-05 1.0089 0.0635531 0.00101825 0.000781332 0.980443)
(1.00436 0.00736273 -0.127775 -0.00043939 1.00954 0.052617 0.000946263 0.000867108 0.980443)
(1.0038 0.00686043 -0.131875 -0.000941697 1.0101 0.0412805 0.000867119 0.000946291 0.980443)
(1.00333 0.00626821 -0.134971 -0.00153392 1.01057 0.0296297 0.000781348 0.00101826 0.980443)
(1.00298 0.00560404 -0.13704 -0.00219803 1.01092 0.0177535 0.000689622 0.0010825 0.980443)
(1.00274 0.0048882 -0.138065 -0.00291391 1.01116 0.00574216 0.000592657 0.00113852 0.980443)
(1.00263 0.00414232 -0.13804 -0.00365977 1.01127 -0.00631292 0.000491185 0.00118584 0.980443)
(1.00266 0.00338909 -0.136965 -0.00441297 1.01124 -0.0183199 0.000385968 0.00122412 0.980443)
(1.00281 0.00265143 -0.134847 -0.00515062 1.01109 -0.0301875 0.00027779 0.00125308 0.980443)
(1.00309 0.00195176 -0.131703 -0.00585031 1.01081 -0.0418254 0.000167528 0.0012725 0.980443)
(1.00349 0.00131133 -0.127556 -0.00649075 1.01041 -0.0531448 5.59946e-05 0.00128226 0.980443)
(1.00399 0.000749539 -0.122439 -0.00705252 1.00991 -0.0640599 -5.59925e-05 0.00128228 0.980443)
(1.00458 0.000283556 -0.11639 -0.00751854 1.00932 -0.0744874 -0.000167527 0.00127253 0.980443)
(1.00525 -7.25169e-05 -0.109455 -0.00787464 1.00865 -0.084348 -0.000277785 0.00125309 0.980443)
(1.00596 -0.000307883 -0.101687 -0.00811 1.00794 -0.0935667 -0.000385956 0.0012241 0.980443)
(1.00671 -0.000415368 -0.0931455 -0.00821749 1.00719 -0.102073 -0.000491165 0.00118579 0.980443)
(1.00746 -0.000391685 -0.0838948 -0.00819379 1.00644 -0.109803 -0.000592661 0.0011385 0.980443)
(1.0082 -0.000237548 -0.0740056 -0.0080397 1.0057 -0.116697 -0.000689629 0.00108251 0.980443)
(1.0089 4.22945e-05 -0.0635531 -0.00775983 1.005 -0.122703 -0.000781332 0.00101825 0.980443)
(1.00954 0.00043939 -0.052617 -0.00736273 1.00436 -0.127775 -0.000867108 0.000946263 0.980443)
(1.0101 0.000941697 -0.0412805 -0.00686043 1.0038 -0.131875 -0.000946291 0.000867119 0.980443)
(1.01057 0.00153392 -0.0296297 -0.00626821 1.00333 -0.134971 -0.00101826 0.000781348 0.980443)
(1.01092 0.00219803 -0.0177535 -0.00560404 1.00298 -0.13704 -0.0010825 0.000689622 0.980443)
(1.01116 0.00291391 -0.00574216 -0.0048882 1.00274 -0.138065 -0.00113852 0.000592657 0.980443)
(1.01127 0.00365977 0.00631292 -0.00414232 1.00263 -0.13804 -0.00118584 0.000491185 0.980443)
(1.01124 0.00441297 0.0183199 -0.00338909 1.00266 -0.136965 -0.00122412 0.000385968 0.980443)
(1.01109 0.00515062 0.0301875 -0.00265143 1.00281 -0.134847 -0.00125308 0.00027779 0.980443)
(1.01081 0.00585031 0.0418254 -0.00195176 1.00309 -0.131703 -0.0012725 0.000167528 0.980443)
(1.01041 0.00649075 0.0531448 -0.00131133 1.00349 -0.127556 -0.00128226 5.59947e-05 0.980443)
(1.00991 0.00705252 0.0640599 -0.000749539 1.00399 -0.122439 -0.00128228 -5.59925e-05 0.980443)
(1.00932 0.00751854 0.0744874 -0.000283556 1.00458 -0.11639 -0.00127253 -0.000167527 0.980443)
(1.00865 0.00787464 0.084348 7.25169e-05 1.00525 -0.109455 -0.00125309 -0.000277785 0.980443)
(1.00794 0.00811 0.0935667 0.000307883 1.00596 -0.101687 -0.0012241 -0.000385956 0.980443)
(1.00719 0.00821749 0.102073 0.000415367 1.00671 -0.0931455 -0.00118579 -0.000491165 0.980443)
(1.00644 0.00819379 0.109803 0.000391685 1.00746 -0.0838948 -0.0011385 -0.000592661 0.980443)
(1.0057 0.0080397 0.116697 0.000237548 1.0082 -0.0740056 -0.00108251 -0.000689629 0.980443)
(1.005 0.00775983 0.122703 -4.22945e-05 1.0089 -0.0635531 -0.00101825 -0.000781332 0.980443)
(1.00436 0.00736273 0.127775 -0.00043939 1.00954 -0.052617 -0.000946263 -0.000867108 0.980443)
(1.0038 0.00686043 0.131875 -0.000941697 1.0101 -0.0412805 -0.000867119 -0.000946291 0.980443)
(1.00333 0.00626821 0.134971 -0.00153392 1.01057 -0.0296297 -0.000781348 -0.00101826 0.980443)
(1.00298 0.00560404 0.13704 -0.00219803 1.01092 -0.0177535 -0.000689622 -0.0010825 0.980443)
(1.00274 0.0048882 0.138065 -0.00291391 1.01116 -0.00574216 -0.000592657 -0.00113852 0.980443)
(1.00263 0.00414232 0.13804 -0.00365977 1.01127 0.00631292 -0.000491185 -0.00118584 0.980443)
(1.00266 0.00338909 0.136965 -0.00441297 1.01124 0.0183199 -0.000385968 -0.00122412 0.980443)
(1.00281 0.00265143 0.134847 -0.00515062 1.01109 0.0301875 -0.00027779 -0.00125308 0.980443)
(1.00309 0.00195176 0.131703 -0.00585031 1.01081 0.0418254 -0.000167528 -0.0012725 0.980443)
(1.00349 0.00131133 0.127556 -0.00649075 1.01041 0.0531448 -5.59947e-05 -0.00128226 0.980443)
(1.00399 0.000749539 0.122439 -0.00705252 1.00991 0.0640599 5.59925e-05 -0.00128228 0.980443)
(1.00458 0.000283556 0.11639 -0.00751854 1.00932 0.0744874 0.000167527 -0.00127253 0.980443)
(1.00525 -7.25169e-05 0.109455 -0.00787464 1.00865 0.084348 0.000277785 -0.00125309 0.980443)
(1.00596 -0.000307883 0.101687 -0.00811 1.00794 0.0935667 0.000385956 -0.0012241 0.980443)
(1.00671 -0.000415367 0.0931455 -0.00821749 1.00719 0.102073 0.000491165 -0.00118579 0.980443)
(1.00746 -0.000391685 0.0838948 -0.00819379 1.00644 0.109803 0.000592661 -0.0011385 0.980443)
(1.0082 -0.000237548 0.0740056 -0.0080397 1.0057 0.116697 0.000689629 -0.00108251 0.980443)
(1.0089 4.22946e-05 0.0635531 -0.00775983 1.005 0.122703 0.000781332 -0.00101825 0.980443)
(1.00954 0.00043939 0.052617 -0.00736273 1.00436 0.127775 0.000867108 -0.000946263 0.980443)
(1.0101 0.000941697 0.0412805 -0.00686043 1.0038 0.131875 0.000946291 -0.000867119 0.980443)
(1.01057 0.00153392 0.0296297 -0.00626821 1.00333 0.134971 0.00101826 -0.000781348 0.980443)
(1.01092 0.00219803 0.0177535 -0.00560404 1.00298 0.13704 0.0010825 -0.000689622 0.980443)
(1.01116 0.00291391 0.00574216 -0.0048882 1.00274 0.138065 0.00113852 -0.000592657 0.980443)
(1.01127 0.00365977 -0.00631292 -0.00414232 1.00263 0.13804 0.00118584 -0.000491185 0.980443)
(1.01124 0.00441297 -0.0183199 -0.00338909 1.00266 0.136965 0.00122412 -0.000385968 0.980443)
(1.01109 0.00515062 -0.0301875 -0.00265143 1.00281 0.134847 0.00125308 -0.00027779 0.980443)
(1.01081 0.00585031 -0.0418254 -0.00195176 1.00309 0.131703 0.0012725 -0.000167528 0.980443)
(1.01041 0.00649075 -0.0531448 -0.00131133 1.00349 0.127556 0.00128226 -5.59946e-05 0.980443)
(1.00947 0.00739722 -0.0591571 -0.000743855 1.00367 0.121595 0.000715771 3.12457e-05 0.979479)
(1.00885 0.00785048 -0.0695297 -0.000290619 1.00429 0.115976 0.000710341 9.3512e-05 0.979479)
(1.00816 0.00818889 -0.0793731 4.77779e-05 1.00498 0.109475 0.000699464 0.000155073 0.979479)
(1.00742 0.00840218 -0.0886125 0.000261065 1.00572 0.102141 0.000683252 0.000215432 0.979479)
(1.00665 0.00848381 -0.0971774 0.000342745 1.00648 0.0940289 0.000661868 0.000274153 0.979479)
(1.00588 0.00843138 -0.105003 0.00029031 1.00725 0.0852015 0.000635453 0.000330805 0.979479)
(1.00514 0.00824647 -0.112029 0.000105364 1.008 0.0757257 0.000604205 0.00038492 0.979479)
(1.00443 0.00793466 -0.118203 -0.000206432 1.0087 0.0656736 0.000568362 0.000436114 0.979479)
(1.00379 0.00750543 -0.123477 -0.000635662 1.00934 0.0551216 0.000528214 0.000484024 0.979479)
(1.00324 0.00697183 -0.127811 -0.00116926 1.00989 0.0441502 0.000484027 0.000528215 0.979479)
(1.00279 0.00635006 -0.131172 -0.001791 1.01035 0.0328427 0.000436122 0.000568375 0.979479)
(1.00245 0.00565904 -0.133536 -0.00248202 1.01069 0.0212853 0.000384915 0.000604207 0.979479)
(1.00224 0.00491978 -0.134883 -0.00322131 1.0109 0.00956586 0.000330813 0.000635463 0.979479)
(1.00215 0.00415469 -0.135203 -0.00398638 1.01098 -0.00222634 0.000274165 0.000661902 0.979479)
(1.00221 0.00338704 -0.134495 -0.00475402 1.01093 -0.0140016 0.000215432 0.000683267 0.979479)
(1.00239 0.00264015 -0.132763 -0.00550091 1.01074 -0.0256703 0.000155072 0.000699472 0.979479)
(1.0027 0.00193675 -0.13002 -0.00620431 1.01043 -0.0371437 9.35116e-05 0.000710332 0.979479)
(1.00313 0.00129819 -0.126288 -0.00684288 1.01 -0.0483343 3.12572e-05 0.000715771 0.979479)
(1.00367 0.000743855 -0.121595 -0.00739722 1.00947 -0.0591571 -3.12457e-05 0.000715771 0.979479)
(1.00429 0.000290619 -0.115976 -0.00785048 1.00885 -0.0695297 -9.3512e-05 0.000710341 0.979479)
(1.00498 -4.77779e-05 -0.109475 -0.00818889 1.00816 -0.0793731 -0.000155073 0.000699464 0.979479)
(1.00572 -0.000261065 -0.102141 -0.00840218 1.00742 -0.0886125 -0.000215432 0.000683252 0.979479)
(1.00648 -0.000342745 -0.0940289 -0.00848381 1.00665 -0.0971774 -0.000274153 0.000661868 0.979479)
(1.00725 -0.00029031 -0.0852015 -0.00843138 1.00588 -0.105003 -0.000330805 0.000635453 0.979479)
(1.008 -0.000105364 -0.0757257 -0.00824647 1.00514 -0.112029 -0.00038492 0.000604205 0.979479)
(1.0087 0.000206432 -0.0656736 -0.00793466 1.00443 -0.118203 -0.000436114 0.000568362 0.979479)
(1.00934 0.000635662 -0.0551216 -0.00750543 1.00379 -0.123477 -0.000484024 0.000528214 0.979479)
(1.00989 0.00116926 -0.0441502 -0.00697183 1.00324 -0.127811 -0.000528215 0.000484027 0.979479)
(1.01035 0.001791 -0.0328427 -0.00635006 1.00279 -0.131172 -0.000568375 0.000436122 0.979479)
(1.01069 0.00248202 -0.0212853 -0.00565904 1.00245 -0.133536 -0.000604207 0.000384915 0.979479)
(1.0109 0.0032213 -0.00956586 -0.00491978 1.00224 -0.134883 -0.000635463 0.000330813 0.979479)
(1.01098 0.00398638 0.00222634 -0.00415469 1.00215 -0.135203 -0.000661902 0.000274165 0.979479)
(1.01093 0.00475402 0.0140016 -0.00338704 1.00221 -0.134495 -0.000683267 0.000215432 0.979479)
(1.01074 0.00550091 0.0256703 -0.00264015 1.00239 -0.132763 -0.000699472 0.000155072 0.979479)
(1.01043 0.00620431 0.0371437 -0.00193675 1.0027 -0.13002 -0.000710332 9.35116e-05 0.979479)
(1.01 0.00684288 0.0483343 -0.00129819 1.00313 -0.126288 -0.000715771 3.12572e-05 0.979479)
(1.00947 0.00739722 0.0591571 -0.000743855 1.00367 -0.121595 -0.000715771 -3.12457e-05 0.979479)
(1.00885 0.00785048 0.0695297 -0.000290619 1.00429 -0.115976 -0.000710341 -9.3512e-05 0.979479)
(1.00816 0.00818889 0.0793731 4.77779e-05 1.00498 -0.109475 -0.000699464 -0.000155073 0.979479)
(1.00742 0.00840218 0.0886125 0.000261065 1.00572 -0.102141 -0.000683252 -0.000215432 0.979479)
(1.00665 0.00848381 0.0971774 0.000342745 1.00648 -0.0940289 -0.000661868 -0.000274153 0.979479)
(1.00588 0.00843138 0.105003 0.00029031 1.00725 -0.0852015 -0.000635453 -0.000330805 0.979479)
(1.00514 0.00824647 0.112029 0.000105364 1.008 -0.0757257 -0.000604205 -0.00038492 0.979479)
(1.00443 0.00793466 0.118203 -0.000206432 1.0087 -0.0656736 -0.000568362 -0.000436114 0.979479)
(1.00379 0.00750543 0.123477 -0.000635662 1.00934 -0.0551216 -0.000528214 -0.000484024 0.979479)
(1.00324 0.00697183 0.127811 -0.00116926 1.00989 -0.0441502 -0.000484027 -0.000528215 0.979479)
(1.00279 0.00635006 0.131172 -0.001791 1.01035 -0.0328427 -0.000436122 -0.000568375 0.979479)
(1.00245 0.00565904 0.133536 -0.00248202 1.01069 -0.0212853 -0.000384915 -0.000604207 0.979479)
(1.00224 0.00491978 0.134883 -0.00322131 1.0109 -0.00956586 -0.000330813 -0.000635463 0.979479)
(1.00215 0.00415469 0.135203 -0.00398638 1.01098 0.00222634 -0.000274165 -0.000661902 0.979479)
(1.00221 0.00338704 0.134495 -0.00475402 1.01093 0.0140015 -0.000215432 -0.000683267 0.979479)
(1.00239 0.00264015 0.132763 -0.00550091 1.01074 0.0256703 -0.000155072 -0.000699472 0.979479)
(1.0027 0.00193675 0.13002 -0.00620431 1.01043 0.0371437 -9.35116e-05 -0.000710332 0.979479)
(1.00313 0.00129819 0.126288 -0.00684288 1.01 0.0483343 -3.12572e-05 -0.000715771 0.979479)
(1.00367 0.000743855 0.121595 -0.00739722 1.00947 0.0591571 3.12457e-05 -0.000715771 0.979479)
(1.00429 0.000290619 0.115976 -0.00785048 1.00885 0.0695297 9.3512e-05 -0.000710341 0.979479)
(1.00498 -4.77778e-05 0.109475 -0.00818889 1.00816 0.0793731 0.000155073 -0.000699464 0.979479)
(1.00572 -0.000261065 0.102141 -0.00840218 1.00742 0.0886125 0.000215432 -0.000683252 0.979479)
(1.00648 -0.000342745 0.0940289 -0.00848381 1.00665 0.0971774 0.000274153 -0.000661868 0.979479)
(1.00725 -0.00029031 0.0852015 -0.00843138 1.00588 0.105003 0.000330805 -0.000635453 0.979479)
(1.008 -0.000105364 0.0757257 -0.00824647 1.00514 0.112029 0.00038492 -0.000604205 0.979479)
(1.0087 0.000206432 0.0656736 -0.00793466 1.00443 0.118203 0.000436114 -0.000568362 0.979479)
(1.00934 0.000635662 0.0551216 -0.00750543 1.00379 0.123477 0.000484024 -0.000528214 0.979479)
(1.00989 0.00116926 0.0441502 -0.00697183 1.00324 0.127811 0.000528215 -0.000484027 0.979479)
(1.01035 0.001791 0.0328427 -0.00635006 1.00279 0.131172 0.000568375 -0.000436122 0.979479)
(1.01069 0.00248202 0.0212853 -0.00565904 1.00245 0.133536 0.000604207 -0.000384915 0.979479)
(1.0109 0.00322131 0.00956586 -0.00491978 1.00224 0.134883 0.000635463 -0.000330813 0.979479)
(1.01098 0.00398638 -0.00222634 -0.00415469 1.00215 0.135203 0.000661902 -0.000274165 0.979479)
(1.01093 0.00475402 -0.0140015 -0.00338704 1.00221 0.134495 0.000683267 -0.000215432 0.979479)
(1.01074 0.00550091 -0.0256703 -0.00264015 1.00239 0.132763 0.000699472 -0.000155072 0.979479)
(1.01043 0.00620431 -0.0371437 -0.00193675 1.0027 0.13002 0.000710332 -9.35116e-05 0.979479)
(1.01 0.00684288 -0.0483343 -0.00129819 1.00313 0.126288 0.000715771 -3.12572e-05 0.979479)
(1.01036 0.00783879 -0.0534205 -0.000891727 1.00327 0.120684 -0.000207683 -9.0713e-06 0.97851)
(1.0097 0.0084017 -0.0637355 -0.000328833 1.00393 0.115569 -0.000206112 -2.71392e-05 0.97851)
(1.00896 0.00884195 -0.0735655 0.000111417 1.00467 0.109574 -0.000202991 -4.49809e-05 0.97851)
(1.00815 0.00914619 -0.0828355 0.000415679 1.00548 0.102745 -0.000198292 -6.24825e-05 0.97851)
(1.0073 0.00930514 -0.0914751 0.000574656 1.00633 0.0951348 -0.00019209 -7.95694e-05 0.97851)
(1.00643 0.00931399 -0.0994186 0.000583525 1.0072 0.0868002 -0.000184424 -9.60126e-05 0.97851)
(1.00558 0.00917252 -0.106605 0.000442011 1.00805 0.077805 -0.000175356 -0.000111719 0.97851)
(1.00476 0.00888499 -0.112981 0.000154452 1.00886 0.0682176 -0.000164935 -0.000126599 0.97851)
(1.00401 0.00846013 -0.118497 -0.000270429 1.00962 0.0581111 -0.000153236 -0.000140443 0.97851)
(1.00334 0.0079108 -0.12311 -0.000819723 1.01029 0.0475623 -0.00014045 -0.000153245 0.97851)
(1.00278 0.00725372 -0.126787 -0.00147677 1.01085 0.0366515 -0.000126594 -0.000164932 0.97851)
(1.00234 0.00650891 -0.129499 -0.00222158 1.01129 0.0254618 -0.000111726 -0.000175353 0.97851)
(1.00203 0.00569899 -0.131225 -0.0030315 1.01159 0.0140783 -9.5993e-05 -0.000184413 0.97851)
(1.00187 0.00484854 -0.131953 -0.00388195 1.01175 0.00258775 -7.95591e-05 -0.00019207 0.97851)
(1.00186 0.00398338 -0.131677 -0.00474711 1.01176 -0.0089226 -6.24881e-05 -0.000198265 0.97851)
(1.00201 0.00312982 -0.130398 -0.00560065 1.01162 -0.020365 -4.49877e-05 -0.000202986 0.97851)
(1.00229 0.00231382 -0.128127 -0.00641669 1.01133 -0.0316524 -2.71381e-05 -0.000206103 0.97851)
(1.00272 0.00156016 -0.12488 -0.00717036 1.01091 -0.042699 -9.06251e-06 -0.000207682 0.97851)
(1.00327 0.000891727 -0.120684 -0.00783879 1.01036 -0.0534205 9.0713e-06 -0.000207683 0.97851)
(1.00393 0.000328833 -0.115569 -0.0084017 1.0097 -0.0637355 2.71392e-05 -0.000206112 0.97851)
(1.00467 -0.000111417 -0.109574 -0.00884195 1.00896 -0.0735655 4.49809e-05 -0.000202991 0.97851)
(1.00548 -0.000415679 -0.102745 -0.00914619 1.00815 -0.0828355 6.24825e-05 -0.000198292 0.97851)
(1.00633 -0.000574656 -0.0951348 -0.00930514 1.0073 -0.0914751 7.95693e-05 -0.00019209 0.97851)
(1.0072 -0.000583525 -0.0868002 -0.00931399 1.00643 -0.0994186 9.60126e-05 -0.000184424 0.97851)
(1.00805 -0.000442011 -0.077805 -0.00917252 1.00558 -0.106605 0.000111719 -0.000175356 0.97851)
(1.00886 -0.000154453 -0.0682176 -0.00888499 1.00476 -0.112981 0.000126599 -0.000164935 0.97851)
(1.00962 0.000270429 -0.0581111 -0.00846013 1.00401 -0.118497 0.000140443 -0.000153236 0.97851)
(1.01029 0.000819723 -0.0475623 -0.0079108 1.00334 -0.12311 0.000153245 -0.00014045 0.97851)
(1.01085 0.00147677 -0.0366515 -0.00725372 1.00278 -0.126787 0.000164932 -0.000126594 0.97851)
(1.01129 0.00222158 -0.0254618 -0.00650891 1.00234 -0.129499 0.000175353 -0.000111726 0.97851)
(1.01159 0.0030315 -0.0140783 -0.00569899 1.00203 -0.131225 0.000184413 -9.5993e-05 0.97851)
(1.01175 0.00388195 -0.00258775 -0.00484854 1.00187 -0.131953 0.00019207 -7.95591e-05 0.97851)
(1.01176 0.00474711 0.0089226 -0.00398338 1.00186 -0.131677 0.000198265 -6.2488e-05 0.97851)
(1.01162 0.00560065 0.020365 -0.00312982 1.00201 -0.130398 0.000202986 -4.49877e-05 0.97851)
(1.01133 0.00641669 0.0316524 -0.00231382 1.00229 -0.128127 0.000206103 -2.71381e-05 0.97851)
(1.01091 0.00717036 0.042699 -0.00156016 1.00272 -0.12488 0.000207682 -9.06251e-06 0.97851)
(1.01036 0.00783879 0.0534205 -0.000891727 1.00327 -0.120684 0.000207683 9.0713e-06 0.97851)
(1.0097 0.0084017 0.0637355 -0.000328833 1.00393 -0.115569 0.000206112 2.71392e-05 0.97851)
(1.00896 0.00884195 0.0735655 0.000111417 1.00467 -0.109574 0.000202991 4.49809e-05 0.97851)
(1.00815 0.00914619 0.0828355 0.000415679 1.00548 -0.102745 0.000198292 6.24826e-05 0.97851)
(1.0073 0.00930514 0.0914751 0.000574656 1.00633 -0.0951348 0.00019209 7.95694e-05 0.97851)
(1.00643 0.00931399 0.0994186 0.000583525 1.0072 -0.0868002 0.000184424 9.60126e-05 0.97851)
(1.00558 0.00917252 0.106605 0.000442011 1.00805 -0.077805 0.000175356 0.000111719 0.97851)
(1.00476 0.00888499 0.112981 0.000154452 1.00886 -0.0682176 0.000164935 0.000126599 0.97851)
(1.00401 0.00846013 0.118497 -0.000270429 1.00962 -0.0581111 0.000153236 0.000140443 0.97851)
(1.00334 0.0079108 0.12311 -0.000819723 1.01029 -0.0475623 0.00014045 0.000153245 0.97851)
(1.00278 0.00725372 0.126787 -0.00147677 1.01085 -0.0366515 0.000126594 0.000164932 0.97851)
(1.00234 0.00650891 0.129499 -0.00222158 1.01129 -0.0254618 0.000111726 0.000175353 0.97851)
(1.00203 0.00569899 0.131225 -0.0030315 1.01159 -0.0140783 9.5993e-05 0.000184413 0.97851)
(1.00187 0.00484854 0.131953 -0.00388195 1.01175 -0.00258775 7.95591e-05 0.00019207 0.97851)
(1.00186 0.00398338 0.131677 -0.00474711 1.01176 0.0089226 6.24881e-05 0.000198265 0.97851)
(1.00201 0.00312982 0.130398 -0.00560065 1.01162 0.020365 4.49877e-05 0.000202986 0.97851)
(1.00229 0.00231382 0.128127 -0.00641669 1.01133 0.0316524 2.71381e-05 0.000206103 0.97851)
(1.00272 0.00156016 0.12488 -0.00717036 1.01091 0.042699 9.06251e-06 0.000207682 0.97851)
(1.00327 0.000891727 0.120684 -0.00783879 1.01036 0.0534205 -9.0713e-06 0.000207683 0.97851)
(1.00393 0.000328833 0.115569 -0.0084017 1.0097 0.0637355 -2.71393e-05 0.000206112 0.97851)
(1.00467 -0.000111417 0.109574 -0.00884195 1.00896 0.0735655 -4.49809e-05 0.000202991 0.97851)
(1.00548 -0.000415679 0.102745 -0.00914619 1.00815 0.0828355 -6.24826e-05 0.000198292 0.97851)
(1.00633 -0.000574656 0.0951348 -0.00930514 1.0073 0.0914751 -7.95694e-05 0.00019209 0.97851)
(1.0072 -0.000583525 0.0868002 -0.00931399 1.00643 0.0994186 -9.60126e-05 0.000184424 0.97851)
(1.00805 -0.000442011 0.077805 -0.00917252 1.00558 0.106605 -0.000111719 0.000175356 0.97851)
(1.00886 -0.000154452 0.0682176 -0.00888499 1.00476 0.112981 -0.000126599 0.000164935 0.97851)
(1.00962 0.000270429 0.0581111 -0.00846013 1.00401 0.118497 -0.000140443 0.000153236 0.97851)
(1.01029 0.000819723 0.0475623 -0.0079108 1.00334 0.12311 -0.000153245 0.00014045 0.97851)
(1.01085 0.00147677 0.0366515 -0.00725372 1.00278 0.126787 -0.000164932 0.000126594 0.97851)
(1.01129 0.00222158 0.0254618 -0.00650891 1.00234 0.129499 -0.000175353 0.000111726 0.97851)
(1.01159 0.0030315 0.0140783 -0.00569899 1.00203 0.131225 -0.000184413 9.5993e-05 0.97851)
(1.01175 0.00388195 0.00258775 -0.00484854 1.00187 0.131953 -0.00019207 7.95591e-05 0.97851)
(1.01176 0.00474711 -0.0089226 -0.00398338 1.00186 0.131677 -0.000198265 6.24881e-05 0.97851)
(1.01162 0.00560065 -0.020365 -0.00312982 1.00201 0.130398 -0.000202986 4.49877e-05 0.97851)
(1.01133 0.00641669 -0.0316524 -0.00231382 1.00229 0.128127 -0.000206103 2.71381e-05 0.97851)
(1.01091 0.00717036 -0.042699 -0.00156016 1.00272 0.12488 -0.000207682 9.06251e-06 0.97851)
(1.01324 0.0084 -0.0473604 -0.00108739 1.00272 0.119568 -0.000665332 -2.90474e-05 0.977437)
(1.01253 0.00925798 -0.0576013 -0.000229342 1.00343 0.114986 -0.000660318 -8.69136e-05 0.977437)
(1.01167 0.00997885 -0.0674037 0.000491497 1.00429 0.109528 -0.000650213 -0.000144136 0.977437)
(1.01071 0.0105406 -0.0766933 0.00105333 1.00525 0.103236 -0.000635096 -0.000200237 0.977437)
(1.00966 0.0109263 -0.085399 0.00143896 1.0063 0.0961594 -0.000615211 -0.00025482 0.977437)
(1.00856 0.011124 -0.0934549 0.00163674 1.0074 0.0883504 -0.000590705 -0.000307487 0.977437)
(1.00744 0.0111279 -0.1008 0.00164064 1.00852 0.0798691 -0.000561643 -0.000357804 0.977437)
(1.00634 0.0109379 -0.107377 0.00145055 1.00962 0.0707799 -0.000528314 -0.000405462 0.977437)
(1.00529 0.0105597 -0.113137 0.00107235 1.01067 0.061152 -0.000490996 -0.000449966 0.977437)
(1.00432 0.0100047 -0.118037 0.000517338 1.01164 0.0510588 -0.000449969 -0.000490994 0.977437)
(1.00347 0.0092898 -0.122037 -0.000197518 1.01249 0.0405769 -0.000405471 -0.000528334 0.977437)
(1.00275 0.00843682 -0.12511 -0.00105049 1.01322 0.0297863 -0.000357806 -0.000561654 0.977437)
(1.00218 0.00747167 -0.12723 -0.00201566 1.01378 0.0187689 -0.000307449 -0.000590678 0.977437)
(1.0018 0.0064236 -0.128381 -0.0030637 1.01416 0.00760868 -0.00025481 -0.000615196 0.977437)
(1.0016 0.00532449 -0.128556 -0.00416283 1.01436 -0.00360942 -0.000200246 -0.000635054 0.977437)
(1.0016 0.0042077 -0.127752 -0.00527965 1.01436 -0.0148001 -0.00014415 -0.000650212 0.977437)
(1.00179 0.00310722 -0.125976 -0.00638014 1.01417 -0.0258781 -8.69123e-05 -0.000660301 0.977437)
(1.00216 0.00205644 -0.123241 -0.0074309 1.0138 -0.0367591 -2.90425e-05 -0.00066535 0.977437)
(1.00272 0.00108739 -0.119568 -0.0084 1.01324 -0.0473604 2.90474e-05 -0.000665332 0.977437)
(1.00343 0.000229342 -0.114986 -0.00925798 1.01253 -0.0576013 8.69136e-05 -0.000660318 0.977437)
(1.00429 -0.000491497 -0.109528 -0.00997885 1.01167 -0.0674037 0.000144136 -0.000650213 0.977437)