/*--------------------------------*- C++ -*----------------------------------*\
| =========                 |                                                 |
| \\      /  F ield         | OpenFOAM: The Open Source CFD Toolbox           |
|  \\    /   O peration     | Version:  2312                                  |
|   \\  /    A nd           | Website:  www.openfoam.com                      |
|    \\/     M anipulation  |                                                 |
\*---------------------------------------------------------------------------*/
FoamFile
{
    version     2.0;
    format      ascii;
    arch        "LSB;label=32;scalar=64";
    class       pointVectorField;
    location    "0.1";
    object      pointD;
}
// * * * * * * * * * * * * * * * * * * * * * * * * * * * * * * * * * * * * * //

dimensions      [0 1 0 0 0 0 0];

internalField   nonuniform List<vector> 
15127
(
(0 0 0)
(0 0 0)
(0 0 0)
(0 0 0)
(0 0 0)
(0 0 0)
(0 0 0)
(0 0 0)
(0 0 0)
(0 0 0)
(0 0 0)
(0 0 0)
(0 0 0)
(0 0 0)
(0 0 0)
(0 0 0)
(0 0 0)
(0 0 0)
(0 0 0)
(0 0 0)
(0 0 0)
(0 0 0)
(0 0 0)
(0 0 0)
(0 0 0)
(0 0 0)
(0 0 0)
(0 0 0)
(0 0 0)
(0 0 0)
(0 0 0)
(0 0 0)
(0 0 0)
(0 0 0)
(0 0 0)
(0 0 0)
(0 0 0)
(0 0 0)
(0 0 0)
(0 0 0)
(0 0 0)
(0 0 0)
(0 0 0)
(0 0 0)
(0 0 0)
(0 0 0)
(0 0 0)
(0 0 0)
(0 0 0)
(0 0 0)
(0 0 0)
(0 0 0)
(0 0 0)
(0 0 0)
(0 0 0)
(0 0 0)
(0 0 0)
(0 0 0)
(0 0 0)
(0 0 0)
(0 0 0)
(0 0 0)
(0 0 0)
(0 0 0)
(0 0 0)
(0 0 0)
(0 0 0)
(0 0 0)
(0 0 0)
(0 0 0)
(0 0 0)
(0 0 0)
(8.34679e-05 -0.000116139 1.32278e-05)
(9.32726e-05 -0.000108423 1.32277e-05)
(0.000102367 -9.98809e-05 1.32278e-05)
(0.000110683 -9.0579e-05 1.32278e-05)
(0.000118156 -8.05877e-05 1.32277e-05)
(0.00012473 -6.9983e-05 1.32278e-05)
(0.000130355 -5.88457e-05 1.32278e-05)
(0.000134988 -4.72605e-05 1.32277e-05)
(0.000138593 -3.53158e-05 1.32276e-05)
(0.000141144 -2.31022e-05 1.32277e-05)
(0.00014262 -1.07128e-05 1.32278e-05)
(0.000143011 1.7582e-06 1.32278e-05)
(0.000142313 1.42157e-05 1.32278e-05)
(0.000140533 2.65652e-05 1.32279e-05)
(0.000137683 3.87122e-05 1.32278e-05)
(0.000133785 5.05647e-05 1.32277e-05)
(0.000128869 6.20325e-05 1.32277e-05)
(0.000122972 7.30282e-05 1.32278e-05)
(0.000116139 8.34679e-05 1.32278e-05)
(0.000108423 9.32726e-05 1.32277e-05)
(9.98809e-05 0.000102367 1.32278e-05)
(9.0579e-05 0.000110683 1.32278e-05)
(8.05877e-05 0.000118156 1.32277e-05)
(6.9983e-05 0.00012473 1.32278e-05)
(5.88457e-05 0.000130355 1.32278e-05)
(4.72605e-05 0.000134988 1.32277e-05)
(3.53158e-05 0.000138593 1.32276e-05)
(2.31022e-05 0.000141144 1.32277e-05)
(1.07128e-05 0.00014262 1.32278e-05)
(-1.7582e-06 0.000143011 1.32278e-05)
(-1.42157e-05 0.000142313 1.32278e-05)
(-2.65652e-05 0.000140533 1.32279e-05)
(-3.87122e-05 0.000137683 1.32278e-05)
(-5.05647e-05 0.000133785 1.32277e-05)
(-6.20325e-05 0.000128869 1.32277e-05)
(-7.30282e-05 0.000122972 1.32278e-05)
(-8.34679e-05 0.000116139 1.32278e-05)
(-9.32726e-05 0.000108423 1.32277e-05)
(-0.000102367 9.98809e-05 1.32278e-05)
(-0.000110683 9.0579e-05 1.32278e-05)
(-0.000118156 8.05877e-05 1.32277e-05)
(-0.00012473 6.9983e-05 1.32278e-05)
(-0.000130355 5.88457e-05 1.32278e-05)
(-0.000134988 4.72605e-05 1.32277e-05)
(-0.000138593 3.53158e-05 1.32276e-05)
(-0.000141144 2.31022e-05 1.32277e-05)
(-0.00014262 1.07128e-05 1.32278e-05)
(-0.000143011 -1.7582e-06 1.32278e-05)
(-0.000142313 -1.42157e-05 1.32278e-05)
(-0.000140533 -2.65652e-05 1.32279e-05)
(-0.000137683 -3.87122e-05 1.32278e-05)
(-0.000133785 -5.05647e-05 1.32277e-05)
(-0.000128869 -6.20325e-05 1.32277e-05)
(-0.000122972 -7.30282e-05 1.32278e-05)
(-0.000116139 -8.34679e-05 1.32278e-05)
(-0.000108423 -9.32726e-05 1.32277e-05)
(-9.98809e-05 -0.000102367 1.32278e-05)
(-9.0579e-05 -0.000110683 1.32278e-05)
(-8.05877e-05 -0.000118156 1.32277e-05)
(-6.9983e-05 -0.00012473 1.32278e-05)
(-5.88457e-05 -0.000130355 1.32278e-05)
(-4.72605e-05 -0.000134988 1.32277e-05)
(-3.53158e-05 -0.000138593 1.32276e-05)
(-2.31022e-05 -0.000141144 1.32277e-05)
(-1.07128e-05 -0.00014262 1.32278e-05)
(1.7582e-06 -0.000143011 1.32278e-05)
(1.42157e-05 -0.000142313 1.32278e-05)
(2.65652e-05 -0.000140533 1.32279e-05)
(3.87122e-05 -0.000137683 1.32278e-05)
(5.05647e-05 -0.000133785 1.32277e-05)
(6.20325e-05 -0.000128869 1.32277e-05)
(7.30282e-05 -0.000122972 1.32278e-05)
(7.66755e-05 -0.000115857 1.31526e-05)
(8.64813e-05 -0.000108734 1.31526e-05)
(9.5629e-05 -0.000100783 1.31526e-05)
(0.000104049 -9.20644e-05 1.31526e-05)
(0.000111677 -8.26457e-05 1.31526e-05)
(0.000118455 -7.25979e-05 1.31526e-05)
(0.000124332 -6.19977e-05 1.31526e-05)
(0.000129262 -5.09254e-05 1.31526e-05)
(0.000133209 -3.94658e-05 1.31526e-05)
(0.000136141 -2.77058e-05 1.31526e-05)
(0.000138038 -1.57347e-05 1.31526e-05)
(0.000138884 -3.64406e-06 1.31526e-05)
(0.000138673 8.47425e-06 1.31527e-05)
(0.000137407 2.05282e-05 1.31527e-05)
(0.000135095 3.24259e-05 1.31526e-05)
(0.000131755 4.40768e-05 1.31526e-05)
(0.000127412 5.53922e-05 1.31526e-05)
(0.000122099 6.62861e-05 1.31526e-05)
(0.000115857 7.66755e-05 1.31526e-05)
(0.000108734 8.64813e-05 1.31526e-05)
(0.000100783 9.5629e-05 1.31526e-05)
(9.20644e-05 0.000104049 1.31526e-05)
(8.26457e-05 0.000111677 1.31526e-05)
(7.25979e-05 0.000118455 1.31526e-05)
(6.19977e-05 0.000124332 1.31526e-05)
(5.09254e-05 0.000129262 1.31526e-05)
(3.94658e-05 0.000133209 1.31526e-05)
(2.77058e-05 0.000136141 1.31526e-05)
(1.57347e-05 0.000138038 1.31526e-05)
(3.64406e-06 0.000138884 1.31526e-05)
(-8.47425e-06 0.000138673 1.31527e-05)
(-2.05282e-05 0.000137407 1.31527e-05)
(-3.24259e-05 0.000135095 1.31526e-05)
(-4.40768e-05 0.000131755 1.31526e-05)
(-5.53922e-05 0.000127412 1.31526e-05)
(-6.62861e-05 0.000122099 1.31526e-05)
(-7.66755e-05 0.000115857 1.31526e-05)
(-8.64813e-05 0.000108734 1.31526e-05)
(-9.5629e-05 0.000100783 1.31526e-05)
(-0.000104049 9.20644e-05 1.31526e-05)
(-0.000111677 8.26457e-05 1.31526e-05)
(-0.000118455 7.25979e-05 1.31526e-05)
(-0.000124332 6.19977e-05 1.31526e-05)
(-0.000129262 5.09254e-05 1.31526e-05)
(-0.000133209 3.94658e-05 1.31526e-05)
(-0.000136141 2.77058e-05 1.31526e-05)
(-0.000138038 1.57347e-05 1.31526e-05)
(-0.000138884 3.64406e-06 1.31526e-05)
(-0.000138673 -8.47425e-06 1.31527e-05)
(-0.000137407 -2.05282e-05 1.31527e-05)
(-0.000135095 -3.24259e-05 1.31526e-05)
(-0.000131755 -4.40768e-05 1.31526e-05)
(-0.000127412 -5.53922e-05 1.31526e-05)
(-0.000122099 -6.62861e-05 1.31526e-05)
(-0.000115857 -7.66755e-05 1.31526e-05)
(-0.000108734 -8.64813e-05 1.31526e-05)
(-0.000100783 -9.5629e-05 1.31526e-05)
(-9.20644e-05 -0.000104049 1.31526e-05)
(-8.26457e-05 -0.000111677 1.31526e-05)
(-7.25979e-05 -0.000118455 1.31526e-05)
(-6.19977e-05 -0.000124332 1.31526e-05)
(-5.09254e-05 -0.000129262 1.31526e-05)
(-3.94658e-05 -0.000133209 1.31526e-05)
(-2.77058e-05 -0.000136141 1.31526e-05)
(-1.57347e-05 -0.000138038 1.31526e-05)
(-3.64406e-06 -0.000138884 1.31526e-05)
(8.47425e-06 -0.000138673 1.31527e-05)
(2.05282e-05 -0.000137407 1.31527e-05)
(3.24259e-05 -0.000135095 1.31526e-05)
(4.40768e-05 -0.000131755 1.31526e-05)
(5.53922e-05 -0.000127412 1.31526e-05)
(6.62861e-05 -0.000122099 1.31526e-05)
(0 0 0)
(0 0 0)
(0 0 0)
(0 0 0)
(0 0 0)
(0 0 0)
(0 0 0)
(0 0 0)
(0 0 0)
(0 0 0)
(0 0 0)
(0 0 0)
(0 0 0)
(0 0 0)
(0 0 0)
(0 0 0)
(0 0 0)
(0 0 0)
(0 0 0)
(0 0 0)
(0 0 0)
(0 0 0)
(0 0 0)
(0 0 0)
(0 0 0)
(0 0 0)
(0 0 0)
(0 0 0)
(0 0 0)
(0 0 0)
(0 0 0)
(0 0 0)
(0 0 0)
(0 0 0)
(0 0 0)
(0 0 0)
(0 0 0)
(0 0 0)
(0 0 0)
(0 0 0)
(0 0 0)
(0 0 0)
(0 0 0)
(0 0 0)
(0 0 0)
(0 0 0)
(0 0 0)
(0 0 0)
(0 0 0)
(0 0 0)
(0 0 0)
(0 0 0)
(0 0 0)
(0 0 0)
(0 0 0)
(0 0 0)
(0 0 0)
(0 0 0)
(0 0 0)
(0 0 0)
(0 0 0)
(0 0 0)
(0 0 0)
(0 0 0)
(0 0 0)
(0 0 0)
(0 0 0)
(0 0 0)
(0 0 0)
(0 0 0)
(0 0 0)
(0 0 0)
(6.97669e-05 -0.000115607 1.28842e-05)
(7.95772e-05 -0.000109087 1.28842e-05)
(8.87819e-05 -0.000101736 1.28842e-05)
(9.73111e-05 -9.36112e-05 1.28842e-05)
(0.000105099 -8.47738e-05 1.28842e-05)
(0.000112088 -7.52912e-05 1.28842e-05)
(0.000118224 -6.52355e-05 1.28842e-05)
(0.000123459 -5.46834e-05 1.28842e-05)
(0.000127755 -4.37152e-05 1.28842e-05)
(0.000131079 -3.24142e-05 1.28842e-05)
(0.000133406 -2.08665e-05 1.28842e-05)
(0.000134717 -9.16005e-06 1.28842e-05)
(0.000135002 2.61621e-06 1.28842e-05)
(0.000134261 1.43725e-05 1.28842e-05)
(0.000132497 2.60193e-05 1.28842e-05)
(0.000129725 3.74683e-05 1.28842e-05)
(0.000125966 4.8632e-05 1.28842e-05)
(0.000121248 5.94256e-05 1.28842e-05)
(0.000115607 6.97669e-05 1.28842e-05)
(0.000109087 7.95772e-05 1.28842e-05)
(0.000101736 8.87819e-05 1.28842e-05)
(9.36112e-05 9.73111e-05 1.28842e-05)
(8.47738e-05 0.000105099 1.28842e-05)
(7.52912e-05 0.000112088 1.28842e-05)
(6.52355e-05 0.000118224 1.28842e-05)
(5.46834e-05 0.000123459 1.28842e-05)
(4.37152e-05 0.000127755 1.28842e-05)
(3.24142e-05 0.000131079 1.28842e-05)
(2.08665e-05 0.000133406 1.28842e-05)
(9.16005e-06 0.000134717 1.28842e-05)
(-2.61621e-06 0.000135002 1.28842e-05)
(-1.43725e-05 0.000134261 1.28842e-05)
(-2.60193e-05 0.000132497 1.28842e-05)
(-3.74683e-05 0.000129725 1.28842e-05)
(-4.8632e-05 0.000125966 1.28842e-05)
(-5.94256e-05 0.000121248 1.28842e-05)
(-6.97669e-05 0.000115607 1.28842e-05)
(-7.95772e-05 0.000109087 1.28842e-05)
(-8.87819e-05 0.000101736 1.28842e-05)
(-9.73111e-05 9.36112e-05 1.28842e-05)
(-0.000105099 8.47738e-05 1.28842e-05)
(-0.000112088 7.52912e-05 1.28842e-05)
(-0.000118224 6.52355e-05 1.28842e-05)
(-0.000123459 5.46834e-05 1.28842e-05)
(-0.000127755 4.37152e-05 1.28842e-05)
(-0.000131079 3.24142e-05 1.28842e-05)
(-0.000133406 2.08665e-05 1.28842e-05)
(-0.000134717 9.16005e-06 1.28842e-05)
(-0.000135002 -2.61621e-06 1.28842e-05)
(-0.000134261 -1.43725e-05 1.28842e-05)
(-0.000132497 -2.60193e-05 1.28842e-05)
(-0.000129725 -3.74683e-05 1.28842e-05)
(-0.000125966 -4.8632e-05 1.28842e-05)
(-0.000121248 -5.94256e-05 1.28842e-05)
(-0.000115607 -6.97669e-05 1.28842e-05)
(-0.000109087 -7.95772e-05 1.28842e-05)
(-0.000101736 -8.87819e-05 1.28842e-05)
(-9.36112e-05 -9.73111e-05 1.28842e-05)
(-8.47738e-05 -0.000105099 1.28842e-05)
(-7.52912e-05 -0.000112088 1.28842e-05)
(-6.52355e-05 -0.000118224 1.28842e-05)
(-5.46834e-05 -0.000123459 1.28842e-05)
(-4.37152e-05 -0.000127755 1.28842e-05)
(-3.24142e-05 -0.000131079 1.28842e-05)
(-2.08665e-05 -0.000133406 1.28842e-05)
(-9.16005e-06 -0.000134717 1.28842e-05)
(2.61621e-06 -0.000135002 1.28842e-05)
(1.43725e-05 -0.000134261 1.28842e-05)
(2.60193e-05 -0.000132497 1.28842e-05)
(3.74683e-05 -0.000129725 1.28842e-05)
(4.8632e-05 -0.000125966 1.28842e-05)
(5.94256e-05 -0.000121248 1.28842e-05)
(0 0 0)
(0 0 0)
(0 0 0)
(0 0 0)
(0 0 0)
(0 0 0)
(0 0 0)
(0 0 0)
(0 0 0)
(0 0 0)
(0 0 0)
(0 0 0)
(0 0 0)
(0 0 0)
(0 0 0)
(0 0 0)
(0 0 0)
(0 0 0)
(0 0 0)
(0 0 0)
(0 0 0)
(0 0 0)
(0 0 0)
(0 0 0)
(0 0 0)
(0 0 0)
(0 0 0)
(0 0 0)
(0 0 0)
(0 0 0)
(0 0 0)
(0 0 0)
(0 0 0)
(0 0 0)
(0 0 0)
(0 0 0)
(0 0 0)
(0 0 0)
(0 0 0)
(0 0 0)
(0 0 0)
(0 0 0)
(0 0 0)
(0 0 0)
(0 0 0)
(0 0 0)
(0 0 0)
(0 0 0)
(0 0 0)
(0 0 0)
(0 0 0)
(0 0 0)
(0 0 0)
(0 0 0)
(0 0 0)
(0 0 0)
(0 0 0)
(0 0 0)
(0 0 0)
(0 0 0)
(0 0 0)
(0 0 0)
(0 0 0)
(0 0 0)
(0 0 0)
(0 0 0)
(0 0 0)
(0 0 0)
(0 0 0)
(0 0 0)
(0 0 0)
(0 0 0)
(6.23359e-05 -0.000115383 1.28195e-05)
(7.21549e-05 -0.000109511 1.28195e-05)
(8.1425e-05 -0.000102805 1.28195e-05)
(9.00751e-05 -9.53175e-05 1.28195e-05)
(9.80399e-05 -8.71042e-05 1.28195e-05)
(0.000105258 -7.82281e-05 1.28195e-05)
(0.000111676 -6.87565e-05 1.28195e-05)
(0.000117243 -5.87617e-05 1.28195e-05)
(0.000121919 -4.83196e-05 1.28195e-05)
(0.000125666 -3.75098e-05 1.28195e-05)
(0.000128457 -2.64145e-05 1.28195e-05)
(0.00013027 -1.51183e-05 1.28195e-05)
(0.000131092 -3.70693e-06 1.28195e-05)
(0.000130917 7.73256e-06 1.28195e-05)
(0.000129744 1.91134e-05 1.28195e-05)
(0.000127585 3.03486e-05 1.28195e-05)
(0.000124454 4.13529e-05 1.28195e-05)
(0.000120377 5.20424e-05 1.28195e-05)
(0.000115383 6.23359e-05 1.28195e-05)
(0.000109511 7.21549e-05 1.28195e-05)
(0.000102805 8.1425e-05 1.28195e-05)
(9.53175e-05 9.00751e-05 1.28195e-05)
(8.71042e-05 9.80399e-05 1.28195e-05)
(7.82281e-05 0.000105258 1.28195e-05)
(6.87565e-05 0.000111676 1.28195e-05)
(5.87617e-05 0.000117243 1.28195e-05)
(4.83196e-05 0.000121919 1.28195e-05)
(3.75098e-05 0.000125666 1.28195e-05)
(2.64145e-05 0.000128457 1.28195e-05)
(1.51183e-05 0.00013027 1.28195e-05)
(3.70693e-06 0.000131092 1.28195e-05)
(-7.73256e-06 0.000130917 1.28195e-05)
(-1.91134e-05 0.000129744 1.28195e-05)
(-3.03486e-05 0.000127585 1.28195e-05)
(-4.13529e-05 0.000124454 1.28195e-05)
(-5.20424e-05 0.000120377 1.28195e-05)
(-6.23359e-05 0.000115383 1.28195e-05)
(-7.21549e-05 0.000109511 1.28195e-05)
(-8.1425e-05 0.000102805 1.28195e-05)
(-9.00751e-05 9.53175e-05 1.28195e-05)
(-9.80399e-05 8.71042e-05 1.28195e-05)
(-0.000105258 7.82281e-05 1.28195e-05)
(-0.000111676 6.87565e-05 1.28195e-05)
(-0.000117243 5.87617e-05 1.28195e-05)
(-0.000121919 4.83196e-05 1.28195e-05)
(-0.000125666 3.75098e-05 1.28195e-05)
(-0.000128457 2.64145e-05 1.28195e-05)
(-0.00013027 1.51183e-05 1.28195e-05)
(-0.000131092 3.70693e-06 1.28195e-05)
(-0.000130917 -7.73256e-06 1.28195e-05)
(-0.000129744 -1.91134e-05 1.28195e-05)
(-0.000127585 -3.03486e-05 1.28195e-05)
(-0.000124454 -4.13529e-05 1.28195e-05)
(-0.000120377 -5.20424e-05 1.28195e-05)
(-0.000115383 -6.23359e-05 1.28195e-05)
(-0.000109511 -7.21549e-05 1.28195e-05)
(-0.000102805 -8.1425e-05 1.28195e-05)
(-9.53175e-05 -9.00751e-05 1.28195e-05)
(-8.71042e-05 -9.80399e-05 1.28195e-05)
(-7.82281e-05 -0.000105258 1.28195e-05)
(-6.87565e-05 -0.000111676 1.28195e-05)
(-5.87617e-05 -0.000117243 1.28195e-05)
(-4.83196e-05 -0.000121919 1.28195e-05)
(-3.75098e-05 -0.000125666 1.28195e-05)
(-2.64145e-05 -0.000128457 1.28195e-05)
(-1.51183e-05 -0.00013027 1.28195e-05)
(-3.70693e-06 -0.000131092 1.28195e-05)
(7.73256e-06 -0.000130917 1.28195e-05)
(1.91134e-05 -0.000129744 1.28195e-05)
(3.03486e-05 -0.000127585 1.28195e-05)
(4.13529e-05 -0.000124454 1.28195e-05)
(5.20424e-05 -0.000120377 1.28195e-05)
(0 0 0)
(0 0 0)
(0 0 0)
(0 0 0)
(0 0 0)
(0 0 0)
(0 0 0)
(0 0 0)
(0 0 0)
(0 0 0)
(0 0 0)
(0 0 0)
(0 0 0)
(0 0 0)
(0 0 0)
(0 0 0)
(0 0 0)
(0 0 0)
(0 0 0)
(0 0 0)
(0 0 0)
(0 0 0)
(0 0 0)
(0 0 0)
(0 0 0)
(0 0 0)
(0 0 0)
(0 0 0)
(0 0 0)
(0 0 0)
(0 0 0)
(0 0 0)
(0 0 0)
(0 0 0)
(0 0 0)
(0 0 0)
(0 0 0)
(0 0 0)
(0 0 0)
(0 0 0)
(0 0 0)
(0 0 0)
(0 0 0)
(0 0 0)
(0 0 0)
(0 0 0)
(0 0 0)
(0 0 0)
(0 0 0)
(0 0 0)
(0 0 0)
(0 0 0)
(0 0 0)
(0 0 0)
(0 0 0)
(0 0 0)
(0 0 0)
(0 0 0)
(0 0 0)
(0 0 0)
(0 0 0)
(0 0 0)
(0 0 0)
(0 0 0)
(0 0 0)
(0 0 0)
(0 0 0)
(0 0 0)
(0 0 0)
(0 0 0)
(0 0 0)
(0 0 0)
(5.42494e-05 -0.000114986 1.34345e-05)
(6.40646e-05 -0.00010982 1.34345e-05)
(7.33922e-05 -0.000103818 1.34345e-05)
(8.21614e-05 -9.70268e-05 1.34345e-05)
(9.03051e-05 -8.94968e-05 1.34345e-05)
(9.77616e-05 -8.12856e-05 1.34345e-05)
(0.000104474 -7.24559e-05 1.34345e-05)
(0.000110392 -6.30746e-05 1.34345e-05)
(0.000115469 -5.32134e-05 1.34345e-05)
(0.000119667 -4.2947e-05 1.34345e-05)
(0.000122955 -3.23539e-05 1.34345e-05)
(0.000125307 -2.15147e-05 1.34345e-05)
(0.000126705 -1.05114e-05 1.34345e-05)
(0.000127139 5.71622e-07 1.34345e-05)
(0.000126606 1.16502e-05 1.34345e-05)
(0.000125108 2.26403e-05 1.34345e-05)
(0.000122659 3.34582e-05 1.34345e-05)
(0.000119276 4.40213e-05 1.34345e-05)
(0.000114986 5.42494e-05 1.34345e-05)
(0.00010982 6.40646e-05 1.34345e-05)
(0.000103818 7.33922e-05 1.34345e-05)
(9.70268e-05 8.21614e-05 1.34345e-05)
(8.94968e-05 9.03051e-05 1.34345e-05)
(8.12856e-05 9.77616e-05 1.34345e-05)
(7.24559e-05 0.000104474 1.34345e-05)
(6.30746e-05 0.000110392 1.34345e-05)
(5.32134e-05 0.000115469 1.34345e-05)
(4.2947e-05 0.000119667 1.34345e-05)
(3.23539e-05 0.000122955 1.34345e-05)
(2.15147e-05 0.000125307 1.34345e-05)
(1.05114e-05 0.000126705 1.34345e-05)
(-5.71622e-07 0.000127139 1.34345e-05)
(-1.16502e-05 0.000126606 1.34345e-05)
(-2.26403e-05 0.000125108 1.34345e-05)
(-3.34582e-05 0.000122659 1.34345e-05)
(-4.40213e-05 0.000119276 1.34345e-05)
(-5.42494e-05 0.000114986 1.34345e-05)
(-6.40646e-05 0.00010982 1.34345e-05)
(-7.33922e-05 0.000103818 1.34345e-05)
(-8.21614e-05 9.70268e-05 1.34345e-05)
(-9.03051e-05 8.94969e-05 1.34345e-05)
(-9.77616e-05 8.12856e-05 1.34345e-05)
(-0.000104474 7.24559e-05 1.34345e-05)
(-0.000110392 6.30746e-05 1.34345e-05)
(-0.000115469 5.32134e-05 1.34345e-05)
(-0.000119667 4.2947e-05 1.34345e-05)
(-0.000122955 3.23539e-05 1.34345e-05)
(-0.000125307 2.15147e-05 1.34345e-05)
(-0.000126705 1.05114e-05 1.34345e-05)
(-0.000127139 -5.71622e-07 1.34345e-05)
(-0.000126606 -1.16502e-05 1.34345e-05)
(-0.000125108 -2.26403e-05 1.34345e-05)
(-0.000122659 -3.34582e-05 1.34345e-05)
(-0.000119276 -4.40213e-05 1.34345e-05)
(-0.000114986 -5.42494e-05 1.34345e-05)
(-0.00010982 -6.40646e-05 1.34345e-05)
(-0.000103818 -7.33922e-05 1.34345e-05)
(-9.70268e-05 -8.21614e-05 1.34345e-05)
(-8.94969e-05 -9.03051e-05 1.34345e-05)
(-8.12856e-05 -9.77616e-05 1.34345e-05)
(-7.24559e-05 -0.000104474 1.34345e-05)
(-6.30746e-05 -0.000110392 1.34345e-05)
(-5.32134e-05 -0.000115469 1.34345e-05)
(-4.2947e-05 -0.000119667 1.34345e-05)
(-3.23539e-05 -0.000122955 1.34345e-05)
(-2.15147e-05 -0.000125307 1.34345e-05)
(-1.05114e-05 -0.000126705 1.34345e-05)
(5.71622e-07 -0.000127139 1.34345e-05)
(1.16502e-05 -0.000126606 1.34345e-05)
(2.26403e-05 -0.000125108 1.34345e-05)
(3.34582e-05 -0.000122659 1.34345e-05)
(4.40213e-05 -0.000119276 1.34345e-05)
(0 0 0)
(0 0 0)
(0 0 0)
(0 0 0)
(0 0 0)
(0 0 0)
(0 0 0)
(0 0 0)
(0 0 0)
(0 0 0)
(0 0 0)
(0 0 0)
(0 0 0)
(0 0 0)
(0 0 0)
(0 0 0)
(0 0 0)
(0 0 0)
(0 0 0)
(0 0 0)
(0 0 0)
(0 0 0)
(0 0 0)
(0 0 0)
(0 0 0)
(0 0 0)
(0 0 0)
(0 0 0)
(0 0 0)
(0 0 0)
(0 0 0)
(0 0 0)
(0 0 0)
(0 0 0)
(0 0 0)
(0 0 0)
(0 0 0)
(0 0 0)
(0 0 0)
(0 0 0)
(0 0 0)
(0 0 0)
(0 0 0)
(0 0 0)
(0 0 0)
(0 0 0)
(0 0 0)
(0 0 0)
(0 0 0)
(0 0 0)
(0 0 0)
(0 0 0)
(0 0 0)
(0 0 0)
(0 0 0)
(0 0 0)
(0 0 0)
(0 0 0)
(0 0 0)
(0 0 0)
(0 0 0)
(0 0 0)
(0 0 0)
(0 0 0)
(0 0 0)
(0 0 0)
(0 0 0)
(0 0 0)
(0 0 0)
(0 0 0)
(0 0 0)
(0 0 0)
(4.48111e-05 -0.000114335 1.4506e-05)
(5.46056e-05 -0.000109995 1.4506e-05)
(6.39845e-05 -0.000104817 1.4506e-05)
(7.28765e-05 -9.88414e-05 1.4506e-05)
(8.12138e-05 -9.21136e-05 1.4506e-05)
(8.89329e-05 -8.46849e-05 1.4506e-05)
(9.59753e-05 -7.66116e-05 1.4506e-05)
(0.000102287 -6.79554e-05 1.4506e-05)
(0.000107821 -5.87819e-05 1.4506e-05)
(0.000112534 -4.91609e-05 1.4506e-05)
(0.00011639 -3.91659e-05 1.4506e-05)
(0.000119361 -2.88728e-05 1.4506e-05)
(0.000121423 -1.836e-05 1.4506e-05)
(0.000122561 -7.70742e-06 1.4506e-05)
(0.000122766 3.00382e-06 1.4506e-05)
(0.000122037 1.36921e-05 1.4506e-05)
(0.00012038 2.42762e-05 1.4506e-05)
(0.000117806 3.46757e-05 1.4506e-05)
(0.000114335 4.48111e-05 1.4506e-05)
(0.000109995 5.46056e-05 1.4506e-05)
(0.000104817 6.39845e-05 1.4506e-05)
(9.88414e-05 7.28765e-05 1.4506e-05)
(9.21136e-05 8.12138e-05 1.4506e-05)
(8.46849e-05 8.89329e-05 1.4506e-05)
(7.66116e-05 9.59753e-05 1.4506e-05)
(6.79554e-05 0.000102287 1.4506e-05)
(5.87819e-05 0.000107821 1.4506e-05)
(4.91609e-05 0.000112534 1.4506e-05)
(3.91659e-05 0.00011639 1.4506e-05)
(2.88728e-05 0.000119361 1.4506e-05)
(1.836e-05 0.000121423 1.4506e-05)
(7.70742e-06 0.000122561 1.4506e-05)
(-3.00382e-06 0.000122766 1.4506e-05)
(-1.36921e-05 0.000122037 1.4506e-05)
(-2.42762e-05 0.00012038 1.4506e-05)
(-3.46757e-05 0.000117806 1.4506e-05)
(-4.48111e-05 0.000114335 1.4506e-05)
(-5.46056e-05 0.000109995 1.4506e-05)
(-6.39845e-05 0.000104817 1.4506e-05)
(-7.28765e-05 9.88414e-05 1.4506e-05)
(-8.12138e-05 9.21136e-05 1.4506e-05)
(-8.89329e-05 8.46849e-05 1.4506e-05)
(-9.59753e-05 7.66116e-05 1.4506e-05)
(-0.000102287 6.79554e-05 1.4506e-05)
(-0.000107821 5.87819e-05 1.4506e-05)
(-0.000112534 4.91609e-05 1.4506e-05)
(-0.00011639 3.91659e-05 1.4506e-05)
(-0.000119361 2.88728e-05 1.4506e-05)
(-0.000121423 1.836e-05 1.4506e-05)
(-0.000122561 7.70742e-06 1.4506e-05)
(-0.000122766 -3.00382e-06 1.4506e-05)
(-0.000122037 -1.36921e-05 1.4506e-05)
(-0.00012038 -2.42762e-05 1.4506e-05)
(-0.000117806 -3.46757e-05 1.4506e-05)
(-0.000114335 -4.48111e-05 1.4506e-05)
(-0.000109995 -5.46056e-05 1.4506e-05)
(-0.000104817 -6.39845e-05 1.4506e-05)
(-9.88414e-05 -7.28765e-05 1.4506e-05)
(-9.21136e-05 -8.12138e-05 1.4506e-05)
(-8.46849e-05 -8.89329e-05 1.4506e-05)
(-7.66116e-05 -9.59753e-05 1.4506e-05)
(-6.79554e-05 -0.000102287 1.4506e-05)
(-5.87819e-05 -0.000107821 1.4506e-05)
(-4.91609e-05 -0.000112534 1.4506e-05)
(-3.91659e-05 -0.00011639 1.4506e-05)
(-2.88728e-05 -0.000119361 1.4506e-05)
(-1.836e-05 -0.000121423 1.4506e-05)
(-7.70742e-06 -0.000122561 1.4506e-05)
(3.00382e-06 -0.000122766 1.4506e-05)
(1.36921e-05 -0.000122037 1.4506e-05)
(2.42762e-05 -0.00012038 1.4506e-05)
(3.46757e-05 -0.000117806 1.4506e-05)
(0 0 0)
(0 0 0)
(0 0 0)
(0 0 0)
(0 0 0)
(0 0 0)
(0 0 0)
(0 0 0)
(0 0 0)
(0 0 0)
(0 0 0)
(0 0 0)
(0 0 0)
(0 0 0)
(0 0 0)
(0 0 0)
(0 0 0)
(0 0 0)
(0 0 0)
(0 0 0)
(0 0 0)
(0 0 0)
(0 0 0)
(0 0 0)
(0 0 0)
(0 0 0)
(0 0 0)
(0 0 0)
(0 0 0)
(0 0 0)
(0 0 0)
(0 0 0)
(0 0 0)
(0 0 0)
(0 0 0)
(0 0 0)
(0 0 0)
(0 0 0)
(0 0 0)
(0 0 0)
(0 0 0)
(0 0 0)
(0 0 0)
(0 0 0)
(0 0 0)
(0 0 0)
(0 0 0)
(0 0 0)
(0 0 0)
(0 0 0)
(0 0 0)
(0 0 0)
(0 0 0)
(0 0 0)
(0 0 0)
(0 0 0)
(0 0 0)
(0 0 0)
(0 0 0)
(0 0 0)
(0 0 0)
(0 0 0)
(0 0 0)
(0 0 0)
(0 0 0)
(0 0 0)
(0 0 0)
(0 0 0)
(0 0 0)
(0 0 0)
(0 0 0)
(0 0 0)
(3.4501e-05 -0.00011354 1.56266e-05)
(4.42654e-05 -0.000110101 1.56266e-05)
(5.36929e-05 -0.000105824 1.56266e-05)
(6.27117e-05 -0.000100742 1.56266e-05)
(7.12535e-05 -9.4893e-05 1.56265e-05)
(7.92526e-05 -8.83218e-05 1.56265e-05)
(8.66489e-05 -8.10783e-05 1.56265e-05)
(9.33856e-05 -7.32179e-05 1.56265e-05)
(9.94115e-05 -6.48002e-05 1.56265e-05)
(0.000104681 -5.58892e-05 1.56265e-05)
(0.000109154 -4.65531e-05 1.56266e-05)
(0.000112796 -3.68625e-05 1.56265e-05)
(0.000115579 -2.68914e-05 1.56265e-05)
(0.000117483 -1.67159e-05 1.56265e-05)
(0.000118493 -6.41284e-06 1.56265e-05)
(0.000118601 3.93899e-06 1.56265e-05)
(0.000117806 1.42608e-05 1.56266e-05)
(0.000116115 2.44739e-05 1.56266e-05)
(0.00011354 3.4501e-05 1.56266e-05)
(0.000110101 4.42654e-05 1.56266e-05)
(0.000105824 5.36929e-05 1.56266e-05)
(0.000100742 6.27117e-05 1.56266e-05)
(9.4893e-05 7.12535e-05 1.56265e-05)
(8.83218e-05 7.92526e-05 1.56265e-05)
(8.10783e-05 8.66489e-05 1.56265e-05)
(7.32179e-05 9.33856e-05 1.56265e-05)
(6.48002e-05 9.94115e-05 1.56265e-05)
(5.58892e-05 0.000104681 1.56265e-05)
(4.65531e-05 0.000109154 1.56266e-05)
(3.68625e-05 0.000112796 1.56265e-05)
(2.68914e-05 0.000115579 1.56265e-05)
(1.67159e-05 0.000117483 1.56265e-05)
(6.41284e-06 0.000118493 1.56265e-05)
(-3.93899e-06 0.000118601 1.56265e-05)
(-1.42608e-05 0.000117806 1.56266e-05)
(-2.44739e-05 0.000116115 1.56266e-05)
(-3.4501e-05 0.00011354 1.56266e-05)
(-4.42654e-05 0.000110101 1.56266e-05)
(-5.36929e-05 0.000105824 1.56266e-05)
(-6.27117e-05 0.000100742 1.56266e-05)
(-7.12535e-05 9.4893e-05 1.56265e-05)
(-7.92526e-05 8.83218e-05 1.56265e-05)
(-8.66489e-05 8.10783e-05 1.56265e-05)
(-9.33856e-05 7.32179e-05 1.56265e-05)
(-9.94115e-05 6.48002e-05 1.56265e-05)
(-0.000104681 5.58892e-05 1.56265e-05)
(-0.000109154 4.65531e-05 1.56266e-05)
(-0.000112796 3.68625e-05 1.56265e-05)
(-0.000115579 2.68914e-05 1.56265e-05)
(-0.000117483 1.67159e-05 1.56265e-05)
(-0.000118493 6.41284e-06 1.56265e-05)
(-0.000118601 -3.93899e-06 1.56265e-05)
(-0.000117806 -1.42608e-05 1.56266e-05)
(-0.000116115 -2.44739e-05 1.56266e-05)
(-0.00011354 -3.4501e-05 1.56266e-05)
(-0.000110101 -4.42654e-05 1.56266e-05)
(-0.000105824 -5.36929e-05 1.56266e-05)
(-0.000100742 -6.27117e-05 1.56266e-05)
(-9.4893e-05 -7.12535e-05 1.56265e-05)
(-8.83218e-05 -7.92526e-05 1.56265e-05)
(-8.10783e-05 -8.66489e-05 1.56265e-05)
(-7.32179e-05 -9.33856e-05 1.56265e-05)
(-6.48002e-05 -9.94115e-05 1.56265e-05)
(-5.58892e-05 -0.000104681 1.56265e-05)
(-4.65531e-05 -0.000109154 1.56266e-05)
(-3.68625e-05 -0.000112796 1.56265e-05)
(-2.68914e-05 -0.000115579 1.56265e-05)
(-1.67159e-05 -0.000117483 1.56265e-05)
(-6.41284e-06 -0.000118493 1.56265e-05)
(3.93899e-06 -0.000118601 1.56265e-05)
(1.42608e-05 -0.000117806 1.56266e-05)
(2.44739e-05 -0.000116115 1.56266e-05)
(0 0 0)
(0 0 0)
(0 0 0)
(0 0 0)
(0 0 0)
(0 0 0)
(0 0 0)
(0 0 0)
(0 0 0)
(0 0 0)
(0 0 0)
(0 0 0)
(0 0 0)
(0 0 0)
(0 0 0)
(0 0 0)
(0 0 0)
(0 0 0)
(0 0 0)
(0 0 0)
(0 0 0)
(0 0 0)
(0 0 0)
(0 0 0)
(0 0 0)
(0 0 0)
(0 0 0)
(0 0 0)
(0 0 0)
(0 0 0)
(0 0 0)
(0 0 0)
(0 0 0)
(0 0 0)
(0 0 0)
(0 0 0)
(0 0 0)
(0 0 0)
(0 0 0)
(0 0 0)
(0 0 0)
(0 0 0)
(0 0 0)
(0 0 0)
(0 0 0)
(0 0 0)
(0 0 0)
(0 0 0)
(0 0 0)
(0 0 0)
(0 0 0)
(0 0 0)
(0 0 0)
(0 0 0)
(0 0 0)
(0 0 0)
(0 0 0)
(0 0 0)
(0 0 0)
(0 0 0)
(0 0 0)
(0 0 0)
(0 0 0)
(0 0 0)
(0 0 0)
(0 0 0)
(0 0 0)
(0 0 0)
(0 0 0)
(0 0 0)
(0 0 0)
(0 0 0)
(0.000156403 -0.000233339 3.62766e-05)
(0.000176145 -0.000218819 3.62766e-05)
(0.000194546 -0.000202635 3.62766e-05)
(0.000211466 -0.000184908 3.62766e-05)
(0.000226778 -0.000165774 3.62765e-05)
(0.000240363 -0.000145378 3.62766e-05)
(0.000252119 -0.000123876 3.62766e-05)
(0.000261956 -0.000101431 3.62766e-05)
(0.000269799 -7.82137e-05 3.62765e-05)
(0.000275589 -5.44015e-05 3.62766e-05)
(0.000279282 -3.01754e-05 3.62766e-05)
(0.000280849 -5.71954e-06 3.62766e-05)
(0.000280279 1.878e-05 3.62767e-05)
(0.000277575 4.31363e-05 3.62767e-05)
(0.00027276 6.71644e-05 3.62767e-05)
(0.000265868 9.06815e-05 3.62766e-05)
(0.000256953 0.000113508 3.62766e-05)
(0.000246082 0.000135471 3.62766e-05)
(0.000233339 0.000156403 3.62766e-05)
(0.000218819 0.000176145 3.62766e-05)
(0.000202635 0.000194546 3.62766e-05)
(0.000184908 0.000211466 3.62766e-05)
(0.000165774 0.000226778 3.62765e-05)
(0.000145378 0.000240363 3.62766e-05)
(0.000123876 0.000252119 3.62766e-05)
(0.000101431 0.000261956 3.62766e-05)
(7.82137e-05 0.000269799 3.62765e-05)
(5.44015e-05 0.000275589 3.62766e-05)
(3.01754e-05 0.000279282 3.62766e-05)
(5.71954e-06 0.000280849 3.62766e-05)
(-1.878e-05 0.000280279 3.62767e-05)
(-4.31363e-05 0.000277575 3.62767e-05)
(-6.71644e-05 0.00027276 3.62767e-05)
(-9.06815e-05 0.000265868 3.62766e-05)
(-0.000113508 0.000256953 3.62766e-05)
(-0.000135471 0.000246082 3.62766e-05)
(-0.000156403 0.000233339 3.62766e-05)
(-0.000176145 0.000218819 3.62766e-05)
(-0.000194546 0.000202635 3.62766e-05)
(-0.000211466 0.000184908 3.62766e-05)
(-0.000226778 0.000165774 3.62765e-05)
(-0.000240363 0.000145378 3.62766e-05)
(-0.000252119 0.000123876 3.62766e-05)
(-0.000261956 0.000101431 3.62766e-05)
(-0.000269799 7.82137e-05 3.62765e-05)
(-0.000275589 5.44015e-05 3.62766e-05)
(-0.000279282 3.01754e-05 3.62766e-05)
(-0.000280849 5.71955e-06 3.62766e-05)
(-0.000280279 -1.878e-05 3.62767e-05)
(-0.000277575 -4.31363e-05 3.62767e-05)
(-0.00027276 -6.71644e-05 3.62767e-05)
(-0.000265868 -9.06815e-05 3.62766e-05)
(-0.000256953 -0.000113508 3.62766e-05)
(-0.000246082 -0.000135471 3.62766e-05)
(-0.000233339 -0.000156403 3.62766e-05)
(-0.000218819 -0.000176145 3.62766e-05)
(-0.000202635 -0.000194546 3.62766e-05)
(-0.000184908 -0.000211466 3.62766e-05)
(-0.000165774 -0.000226778 3.62765e-05)
(-0.000145378 -0.000240363 3.62766e-05)
(-0.000123876 -0.000252119 3.62766e-05)
(-0.000101431 -0.000261956 3.62766e-05)
(-7.82137e-05 -0.000269799 3.62765e-05)
(-5.44015e-05 -0.000275589 3.62766e-05)
(-3.01754e-05 -0.000279282 3.62766e-05)
(-5.71955e-06 -0.000280849 3.62766e-05)
(1.878e-05 -0.000280279 3.62767e-05)
(4.31363e-05 -0.000277575 3.62767e-05)
(6.71644e-05 -0.00027276 3.62767e-05)
(9.06815e-05 -0.000265868 3.62766e-05)
(0.000113508 -0.000256953 3.62766e-05)
(0.000135471 -0.000246082 3.62766e-05)
(0.000145938 -0.000232274 3.78219e-05)
(0.000165626 -0.000218671 3.78219e-05)
(0.000184055 -0.000203403 3.78219e-05)
(0.000201082 -0.000186588 3.78219e-05)
(0.000216579 -0.000168352 3.78219e-05)
(0.000230428 -0.000148836 3.78219e-05)
(0.000242523 -0.000128186 3.78219e-05)
(0.000252772 -0.000106561 3.78219e-05)
(0.000261097 -8.4125e-05 3.7822e-05)
(0.000267436 -6.10486e-05 3.78219e-05)
(0.000271739 -3.75077e-05 3.7822e-05)
(0.000273974 -1.36813e-05 3.7822e-05)
(0.000274124 1.0249e-05 3.7822e-05)
(0.000272187 3.41017e-05 3.7822e-05)
(0.000268179 5.76944e-05 3.7822e-05)
(0.000262131 8.08483e-05 3.7822e-05)
(0.000254087 0.000103387 3.78219e-05)
(0.000244109 0.000125139 3.78219e-05)
(0.000232274 0.000145938 3.78219e-05)
(0.000218671 0.000165626 3.78219e-05)
(0.000203403 0.000184055 3.78219e-05)
(0.000186588 0.000201082 3.78219e-05)
(0.000168352 0.000216579 3.78219e-05)
(0.000148836 0.000230428 3.78219e-05)
(0.000128186 0.000242523 3.78219e-05)
(0.000106561 0.000252772 3.78219e-05)
(8.4125e-05 0.000261097 3.7822e-05)
(6.10486e-05 0.000267436 3.78219e-05)
(3.75077e-05 0.000271739 3.7822e-05)
(1.36813e-05 0.000273974 3.7822e-05)
(-1.0249e-05 0.000274124 3.7822e-05)
(-3.41017e-05 0.000272187 3.7822e-05)
(-5.76944e-05 0.000268179 3.7822e-05)
(-8.08483e-05 0.000262131 3.7822e-05)
(-0.000103387 0.000254087 3.78219e-05)
(-0.000125139 0.000244109 3.78219e-05)
(-0.000145938 0.000232274 3.78219e-05)
(-0.000165626 0.000218671 3.78219e-05)
(-0.000184055 0.000203403 3.78219e-05)
(-0.000201082 0.000186588 3.78219e-05)
(-0.000216579 0.000168352 3.78219e-05)
(-0.000230428 0.000148836 3.78219e-05)
(-0.000242523 0.000128186 3.78219e-05)
(-0.000252772 0.000106561 3.78219e-05)
(-0.000261097 8.4125e-05 3.7822e-05)
(-0.000267436 6.10486e-05 3.78219e-05)
(-0.000271739 3.75077e-05 3.7822e-05)
(-0.000273974 1.36813e-05 3.7822e-05)
(-0.000274124 -1.0249e-05 3.7822e-05)
(-0.000272187 -3.41017e-05 3.7822e-05)
(-0.000268179 -5.76944e-05 3.7822e-05)
(-0.000262131 -8.08483e-05 3.7822e-05)
(-0.000254087 -0.000103387 3.78219e-05)
(-0.000244109 -0.000125139 3.78219e-05)
(-0.000232274 -0.000145938 3.78219e-05)
(-0.000218671 -0.000165626 3.78219e-05)
(-0.000203403 -0.000184055 3.78219e-05)
(-0.000186588 -0.000201082 3.78219e-05)
(-0.000168352 -0.000216579 3.78219e-05)
(-0.000148836 -0.000230428 3.78219e-05)
(-0.000128186 -0.000242523 3.78219e-05)
(-0.000106561 -0.000252772 3.78219e-05)
(-8.4125e-05 -0.000261097 3.7822e-05)
(-6.10486e-05 -0.000267436 3.78219e-05)
(-3.75077e-05 -0.000271739 3.7822e-05)
(-1.36813e-05 -0.000273974 3.7822e-05)
(1.0249e-05 -0.000274124 3.7822e-05)
(3.41017e-05 -0.000272187 3.7822e-05)
(5.76944e-05 -0.000268179 3.7822e-05)
(8.08483e-05 -0.000262131 3.7822e-05)
(0.000103387 -0.000254087 3.78219e-05)