/*--------------------------------*- C++ -*----------------------------------*\
| =========                 |                                                 |
| \\      /  F ield         | OpenFOAM: The Open Source CFD Toolbox           |
|  \\    /   O peration     | Version:  2412                                  |
|   \\  /    A nd           | Website:  www.openfoam.com                      |
|    \\/     M anipulation  |                                                 |
\*---------------------------------------------------------------------------*/
FoamFile
{
    version     2.0;
    format      ascii;
    arch        "LSB;label=32;scalar=64";
    class       volScalarField;
    location    "0.0350058";
    object      ionicCurrent;
}
// * * * * * * * * * * * * * * * * * * * * * * * * * * * * * * * * * * * * * //

dimensions      [1 2 -4 0 0 -1 0];

internalField   nonuniform List<scalar> 
8730
(
0.000263049
0.000218676
0.000180618
0.000148637
0.000122003
9.99207e-05
8.16191e-05
6.64103e-05
5.37482e-05
4.32376e-05
3.45694e-05
2.75048e-05
2.18052e-05
1.72295e-05
1.35636e-05
0.000257607
0.000214103
0.000176849
0.000145566
0.000119521
9.79222e-05
8.00107e-05
6.51136e-05
5.26985e-05
4.23811e-05
3.38783e-05
2.69552e-05
2.13713e-05
1.68878e-05
1.32944e-05
0.000247097
0.000205267
0.000169632
0.000139724
0.000114804
9.4106e-05
7.69037e-05
6.25683e-05
5.06148e-05
4.06935e-05
3.25241e-05
2.58801e-05
2.05225e-05
1.62196e-05
1.2769e-05
0.000231769
0.000192452
0.000159124
0.000131176
0.000107876
8.84882e-05
7.23312e-05
5.88353e-05
4.75727e-05
3.82296e-05
3.05543e-05
2.43204e-05
1.92935e-05
1.52527e-05
1.20087e-05
0.000212344
0.000176301
0.000145861
0.000120365
9.90905e-05
8.13392e-05
6.64935e-05
5.40631e-05
4.36881e-05
3.50951e-05
2.80527e-05
2.23408e-05
1.77327e-05
1.40235e-05
1.1041e-05
0.000189632
0.000157562
0.000130534
0.000107881
8.89235e-05
7.30356e-05
5.96912e-05
4.84937e-05
3.9153e-05
3.1438e-05
2.51398e-05
2.0036e-05
1.59138e-05
1.25891e-05
9.91061e-06
0.000164862
0.000137155
0.00011382
9.42179e-05
7.77393e-05
6.38548e-05
5.21519e-05
4.23291e-05
3.41548e-05
2.74319e-05
2.19548e-05
1.75131e-05
1.3918e-05
1.10111e-05
8.66545e-06
0.0001395
0.000116258
9.66357e-05
8.00769e-05
6.60798e-05
5.4239e-05
4.42535e-05
3.5894e-05
2.89686e-05
2.32908e-05
1.86623e-05
1.48992e-05
1.1844e-05
9.36774e-06
7.36867e-06
0.000114931
9.59993e-05
7.99232e-05
6.62548e-05
5.46327e-05
4.47845e-05
3.6497e-05
2.9593e-05
2.3902e-05
1.9239e-05
1.54296e-05
1.23228e-05
9.79337e-06
7.74113e-06
6.0858e-06
9.23055e-05
7.72365e-05
6.43315e-05
5.3283e-05
4.38615e-05
3.59008e-05
2.92427e-05
2.37283e-05
1.91865e-05
1.54568e-05
1.23996e-05
9.89871e-06
7.86005e-06
6.20759e-06
4.87798e-06
7.22968e-05
6.0475e-05
5.02924e-05
4.15774e-05
3.41812e-05
2.79704e-05
2.2802e-05
1.85226e-05
1.49894e-05
1.20776e-05
9.68311e-06
7.72171e-06
6.12484e-06
4.83428e-06
3.79855e-06
5.53759e-05
4.62413e-05
3.83848e-05
3.16962e-05
2.60602e-05
2.13459e-05
1.74192e-05
1.41575e-05
1.14541e-05
9.21991e-06
7.38164e-06
5.87885e-06
4.65955e-06
3.67695e-06
2.88899e-06
4.20545e-05
3.50504e-05
2.90728e-05
2.40169e-05
1.97645e-05
1.6201e-05
1.32225e-05
1.07394e-05
8.67695e-06
6.97318e-06
5.57513e-06
4.43647e-06
3.51503e-06
2.77283e-06
2.17718e-06
3.28221e-05
2.73437e-05
2.26913e-05
1.8758e-05
1.54428e-05
1.26555e-05
1.03189e-05
8.36861e-06
6.75064e-06
5.41804e-06
4.32847e-06
3.44297e-06
2.72648e-06
2.14887e-06
1.68501e-06
2.81064e-05
2.34214e-05
1.94417e-05
1.60713e-05
1.32244e-05
1.08268e-05
8.81679e-06
7.14212e-06
5.75654e-06
4.61823e-06
3.68876e-06
2.93326e-06
2.32144e-06
1.82789e-06
1.43158e-06
0.107234
0.0911053
0.00113042
0.000925109
0.000752357
0.000610459
0.000496088
0.000404361
0.000329724
0.000267673
0.000215296
0.000171216
0.000135298
0.000106624
8.39421e-05
0.10512
0.0891923
0.00110574
0.000904523
0.000735688
0.000597382
0.000486075
0.000396701
0.000323662
0.000262601
0.000211036
0.000167771
0.000132579
0.000104501
8.22832e-05
0.101462
0.00128474
0.00106033
0.000867341
0.000705872
0.000573798
0.000467449
0.000381737
0.000311378
0.00025254
0.000202699
0.000160999
0.000127234
0.000100332
7.90456e-05
0.0959038
0.00120497
0.000992694
0.000811788
0.000661283
0.000538649
0.000439865
0.000359747
0.000293386
0.000237531
0.000190365
0.000151149
0.000119507
9.43285e-05
7.43853e-05
0.0884673
0.00110193
0.000906128
0.000740979
0.00060473
0.000494171
0.00040479
0.000331502
0.000270164
0.00021844
0.000174597
0.000138598
0.000109689
8.67018e-05
6.84502e-05
0.00118609
0.00098151
0.000806692
0.000660671
0.000541
0.000443938
0.000364727
0.000298796
0.000243043
0.00019574
0.00015617
0.00012405
9.83427e-05
7.78834e-05
6.15589e-05
0.00102735
0.000848505
0.000697869
0.000573436
0.000471935
0.000389049
0.000320243
0.000262051
0.000212494
0.000170511
0.000136018
0.000108212
8.59787e-05
6.82154e-05
5.39434e-05
0.000863112
0.000712758
0.000587658
0.000485228
0.000401475
0.000331941
0.000273086
0.000222852
0.000180004
0.000144312
0.000115293
9.19514e-05
7.32395e-05
5.81821e-05
4.5991e-05
0.000703913
0.000583389
0.00048408
0.000402359
0.000334138
0.00027616
0.000226458
0.000183814
0.00014806
0.000118819
9.51686e-05
7.61221e-05
6.0745e-05
4.82531e-05
3.80819e-05
0.000560487
0.000468107
0.000391288
0.000326418
0.000270708
0.00022276
0.000181571
0.000146932
0.000118464
9.53162e-05
7.65754e-05
6.13734e-05
4.89701e-05
3.88216e-05
3.05594e-05
0.00043856
0.000368651
0.000308829
0.000257101
0.000212293
0.000173596
0.000141096
0.000114303
9.24182e-05
7.45998e-05
6.00509e-05
4.81096e-05
3.82953e-05
3.02745e-05
2.37928e-05
0.000338954
0.000285198
0.000238084
0.000197041
0.000161679
0.000132023
0.000107489
8.73387e-05
7.08237e-05
5.72467e-05
4.60328e-05
3.67702e-05
2.91735e-05
2.3022e-05
1.8097e-05
0.000260266
0.000217889
0.000180656
0.00014883
0.000122127
9.99543e-05
8.16349e-05
6.64985e-05
5.39519e-05
4.35285e-05
3.48825e-05
2.77708e-05
2.20003e-05
1.73648e-05
1.36596e-05
0.000203927
0.000169557
0.000140298
0.000115714
9.52104e-05
7.81552e-05
6.39482e-05
5.20759e-05
4.21477e-05
3.38844e-05
2.70733e-05
2.15316e-05
1.70628e-05
1.34744e-05
1.05976e-05
0.000174121
0.000144646
0.000119773
9.89343e-05
8.15286e-05
6.69712e-05
5.47586e-05
4.45075e-05
3.59394e-05
2.88406e-05
2.30316e-05
1.83252e-05
1.45295e-05
1.14738e-05
9.01595e-06
0.744283
0.640409
0.542502
0.450476
0.36635
0.292516
0.231248
0.183847
0.148905
0.122394
0.10073
0.00122513
0.000967707
0.000756522
0.000589512
0.731494
0.628684
0.531461
0.440347
0.357417
0.285115
0.225621
0.179923
0.146183
0.120268
0.0988743
0.00120116
0.00094813
0.000741045
0.000577483
0.707571
0.607287
0.51208
0.423179
0.342699
0.273007
0.21617
0.172901
0.140943
0.116177
0.0956669
0.00115371
0.000908939
0.000710096
0.000553875
0.671848
0.574246
0.481789
0.396166
0.319534
0.254165
0.201851
0.162537
0.133171
0.109783
0.090472
0.00108313
0.000852025
0.000665737
0.000520265
0.624399
0.529871
0.441138
0.360181
0.289157
0.230053
0.183987
0.149634
0.123381
0.102058
0.00124881
0.000991555
0.000778799
0.000609193
0.000477665
0.565934
0.47625
0.393237
0.318881
0.2552
0.203808
0.16478
0.135448
0.112081
0.0924569
0.00111818
0.000884545
0.000694563
0.000544917
0.000429342
0.496522
0.413162
0.337738
0.272202
0.218144
0.176201
0.144635
0.11997
0.099425
0.00121908
0.000971769
0.000767071
0.000603275
0.000475576
0.000376783
0.420116
0.345096
0.27919
0.224483
0.181776
0.149495
0.124371
0.103485
0.00128381
0.00103147
0.000818833
0.000646504
0.000510791
0.000405454
0.000322789
0.34028
0.276632
0.223623
0.182038
0.150392
0.125635
0.105012
0.0872947
0.00105778
0.000844236
0.000669796
0.000531168
0.000422954
0.000337977
0.000269488
0.264522
0.215467
0.176808
0.147011
0.123335
0.10339
0.0862412
0.00104951
0.000841531
0.000670786
0.000534341
0.00042723
0.000342745
0.000274342
0.000217893
0.200222
0.166109
0.139451
0.11774
0.0992153
0.00123909
0.00100724
0.000810651
0.000649248
0.000520045
0.000417999
0.000336824
0.00027065
0.000215813
0.000169929
0.15275
0.129619
0.10997
0.0929839
0.00115626
0.000941683
0.000760772
0.000612363
0.000493351
0.000398886
0.000322967
0.000260396
0.000208047
0.000164313
0.000128843
0.119355
0.101905
0.0860344
0.00106435
0.000868784
0.00070487
0.000570752
0.000462929
0.000376552
0.000306235
0.000247651
0.000198204
0.000156912
0.0001235
9.693e-05
0.0962169
0.00121224
0.00100096
0.000819978
0.00066878
0.000545043
0.000445038
0.000363953
0.000296995
0.000240722
0.000193128
0.000153375
0.000121174
9.54981e-05
7.51681e-05
0.00124423
0.00103156
0.000848176
0.000694051
0.000567464
0.000464918
0.00038159
0.000312643
0.000254556
0.00020538
0.000163857
0.000129975
0.000102812
8.12107e-05
6.40322e-05
-34.4667
1.96078
2.32867
2.27099
2.21483
2.16177
2.11451
1.44076
1.07842
0.850725
0.703953
0.583215
0.472184
0.372016
0.285981
-28.333
2.37586
2.31676
2.25907
2.21046
2.158
2.11178
1.39436
1.05115
0.835139
0.692974
0.573556
0.463549
0.364558
0.279745
-18.8749
2.36776
2.30982
2.25287
2.19777
2.14636
1.77657
1.32572
1.0046
0.806202
0.671058
0.553618
0.445493
0.348868
0.267077
-6.73217
2.34801
2.29078
2.23464
2.18077
2.13128
1.63259
1.21762
0.937824
0.764808
0.637965
0.52363
0.418794
0.326166
0.249029
2.37394
2.31606
2.26662
2.21175
2.15997
2.11379
1.44194
1.08624
0.859304
0.712759
0.593185
0.482896
0.382903
0.296183
0.225803
2.33708
2.28801
2.23299
2.18017
2.13148
1.65214
1.23968
0.955447
0.778608
0.651614
0.53824
0.433652
0.340387
0.261734
0.199986
2.29552
2.2478
2.1949
2.14546
1.79469
1.35931
1.03719
0.832602
0.695906
0.580496
0.47372
0.37679
0.292667
0.224344
0.173118
2.25066
2.19771
2.14768
1.84781
1.4117
1.08029
0.864558
0.722705
0.607308
0.500315
0.401971
0.315148
0.242981
0.187305
0.147331
2.19536
2.14635
1.83688
1.41207
1.08746
0.873312
0.731589
0.617293
0.511521
0.414052
0.327244
0.253845
0.196262
0.154318
0.124025
2.14137
1.76124
1.35961
1.05552
0.855491
0.721598
0.610994
0.508057
0.41286
0.32781
0.255546
0.198353
0.15643
0.126022
0.102485
1.60615
1.24698
0.986384
0.816087
0.694642
0.588721
0.489382
0.397765
0.316356
0.247758
0.193563
0.153633
0.124395
0.101548
0.00122771
1.11028
0.904546
0.764717
0.655286
0.55467
0.460203
0.373601
0.297212
0.233373
0.183721
0.147301
0.120068
0.0981581
0.00118776
0.000932542
0.828984
0.712562
0.61142
0.515754
0.42634
0.345301
0.274875
0.217008
0.172641
0.139934
0.114869
0.0943305
0.00113597
0.000892988
0.000695207
0.676683
0.579839
0.488043
0.402823
0.32629
0.260499
0.207081
0.166331
0.135885
0.111973
0.0920796
0.00111027
0.000874607
0.000683154
0.000532719
0.594598
0.502686
0.416662
0.338562
0.271085
0.216133
0.174018
0.142451
0.11774
0.0975452
0.00118407
0.000937657
0.000735409
0.000575039
0.00045118
-23.4418
-25.7729
-29.1989
-35.3282
-47.902
-75.381
-131.116
-201.335
-191.814
-99.0458
-18.8952
2.35214
2.28034
2.21892
2.16184
-23.3883
-25.9579
-29.6729
-36.3802
-50.2402
-80.3241
-139.194
-204.267
-189.372
-89.0144
-14.5786
2.34854
2.27734
2.21619
2.15221
-24.1247
-26.6844
-30.68
-38.133
-53.8139
-87.9251
-152.431
-211.989
-171.137
-70.3616
-6.86462
2.3337
2.27014
2.20241
2.1471
-24.8793
-27.7835
-32.5632
-41.8294
-61.6767
-104.012
-175.242
-213.539
-144.018
-47.646
2.38279
2.31499
2.25239
2.18582
2.1326
-25.8058
-29.5891
-36.044
-49.0515
-76.9624
-132.349
-201.157
-194.332
-100.759
-22.4091
2.35581
2.29153
2.22291
2.16577
2.11577
-28.0067
-32.9153
-42.2103
-61.74
-102.82
-172.407
-215.639
-153.558
-55.5626
-0.789788
2.31992
2.25751
2.19815
2.14411
1.63221
-31.4325
-39.2902
-55.2028
-88.3797
-149.588
-211.384
-184.832
-87.2249
-15.3523
2.35049
2.28767
2.22012
2.16387
2.11482
1.35241
-38.72
-54.1811
-84.0123
-141.045
-203.392
-191.828
-102.89
-25.5062
2.36803
2.29787
2.23739
2.18023
2.12914
1.50021
1.08368
-55.602
-85.8697
-142.54
-203.41
-193.867
-108.245
-29.7507
2.37163
2.30921
2.24959
2.1853
2.13344
1.59457
1.15341
0.871173
-95.027
-154.534
-211.446
-190.775
-96.5979
-24.4582
2.36906
2.30805
2.24922
2.18565
2.13409
1.61202
1.17446
0.887942
0.716525
-178.827
-215.978
-161.487
-74.7692
-14.3718
2.35346
2.29357
2.23563
2.18075
2.13116
1.56637
1.14616
0.875095
0.711105
0.585113
-200.459
-127.662
-45.9721
-1.83842
2.33399
2.27567
2.21914
2.16573
2.11788
1.45781
1.07969
0.840334
0.689964
0.568594
0.457945
-82.9056
-22.0928
2.37263
2.31337
2.2561
2.20098
2.1496
1.79698
1.34043
1.00748
0.801729
0.664549
0.547531
0.440318
0.344367
-8.72413
2.34862
2.2979
2.24129
2.18702
2.1369
1.69862
1.27118
0.969961
0.782854
0.652148
0.537455
0.431946
0.337861
0.258539
2.3651
2.30687
2.24917
2.20069
2.14884
1.77769
1.33958
1.02235
0.822029
0.685926
0.569283
0.461278
0.363657
0.279862
0.213075
3.11721
2.48028
1.57566
0.237735
-1.77605
-4.79112
-9.02812
-14.0507
-18.4422
-22.5719
-25.0316
-28.318
-35.772
-49.5244
-83.8134
3.16018
2.48191
1.52449
0.109055
-2.01768
-5.16152
-9.47755
-14.3438
-19.5116
-22.472
-24.8761
-29.394
-35.8496
-52.0496
-86.5515
2.92845
2.22269
1.20982
-0.294822
-2.55458
-5.89478
-10.4324
-15.4499
-19.4899
-23.3397
-25.8368
-29.6181
-38.3876
-55.3469
-96.8418
2.71411
1.92201
0.776946
-0.927835
-3.47693
-7.16238
-11.9497
-16.8383
-20.4868
-24.1136
-26.791
-31.2727
-41.7622
-62.848
-112.827
2.48019
1.52326
0.144737
-1.8992
-4.90614
-9.07587
-13.9967
-18.348
-22.4948
-24.937
-28.2235
-34.1256
-48.0582
-76.8303
-140.166
1.85231
0.68831
-1.00812
-3.50859
-7.09676
-11.7717
-16.6691
-20.5798
-23.3484
-25.9288
-31.2252
-39.6452
-58.2133
-101.791
-176.577
1.02938
-0.524863
-2.76949
-5.97901
-10.2875
-15.1652
-19.4268
-22.5149
-25.0526
-28.3573
-35.7282
-49.1265
-78.9566
-142.494
-211.561
-0.0711768
-2.35398
-5.52567
-9.69234
-14.4236
-18.6766
-21.8058
-24.1399
-28.1423
-33.3232
-44.1608
-67.7342
-120.105
-196.095
-203.527
-2.40419
-5.65993
-9.81207
-14.4775
-18.6736
-21.8297
-24.3142
-27.1705
-31.8013
-42.4196
-63.2759
-107.765
-185.252
-212.603
-115.164
-6.5284
-10.7413
-15.4906
-18.7391
-21.8902
-24.3218
-27.0829
-32.9158
-42.303
-62.861
-106.777
-179.226
-215.82
-125.667
-27.0221
-12.4964
-16.1159
-19.92
-22.6922
-25.13
-28.355
-33.8439
-44.5069
-66.5922
-114.544
-188.503
-211.169
-117.328
-24.5084
2.35458
-18.4105
-21.6641
-23.2106
-25.8994
-29.6074
-36.0941
-49.0476
-76.4013
-130.215
-200.095
-201.779
-98.5023
-15.116
2.34125
2.27653
-22.347
-24.6533
-27.5908
-30.9835
-39.0678
-55.2036
-88.9398
-151.205
-211.859
-175.143
-74.7643
-5.94642
2.33487
2.26398
2.20359
-25.4081
-27.3279
-32.134
-40.9519
-59.2315
-97.8554
-166.066
-217.683
-163.875
-61.8188
-2.18714
2.32634
2.26262
2.20216
2.13992
-26.8603
-30.9073
-38.6769
-53.4311
-87.5701
-151.361
-211.869
-178.755
-81.072
-12.7795
2.34899
2.28383
2.22127
2.15614
1.77388
5.87374
5.78126
5.67608
5.57017
5.00124
4.82376
4.60607
4.42498
3.69437
3.44682
3.04984
1.78402
0.733795
-1.7345
-5.46798
5.69433
5.59014
5.46111
5.30282
5.1187
4.90918
4.72267
4.02148
3.84163
3.59295
2.59663
1.97628
0.170797
-1.73242
-5.67505
5.84221
5.7381
5.61922
5.50386
4.90853
4.72708
4.50742
4.32424
3.57369
3.29183
2.83915
1.46419
0.229055
-2.60455
-5.96047
5.80719
5.68725
5.54465
5.38485
5.2306
4.57695
4.38317
4.20268
3.43643
3.11783
2.59622
1.08173
-0.335834
-3.45932
-7.17414
5.58608
5.44321
5.27258
5.07069
4.84239
4.59367
4.34688
4.13981
3.35379
3.01927
1.75486
0.662223
-1.11732
-4.63368
-9.69858
5.72047
5.54963
5.37437
5.21527
4.54885
4.32741
4.05833
3.76283
3.42808
2.34298
1.58699
-0.437215
-2.63844
-6.89259
-11.8
5.30121
5.49797
5.29349
4.62317
4.40619
4.13944
3.83752
3.48374
3.03119
1.74147
0.693149
-1.82373
-4.70842
-9.8193
-15.1028
5.33707
5.08939
4.82674
4.55754
4.28258
4.00496
3.72148
2.74033
2.1223
1.12751
-1.19361
-3.80517
-7.68731
-13.6573
-18.5155
5.11994
4.83583
4.5393
4.24489
3.94816
3.61088
3.20559
1.9855
1.00672
-0.566727
-2.96717
-7.3635
-12.1529
-18.1848
-21.9396
4.67459
4.30615
4.45796
4.12668
3.2302
2.78501
2.09762
1.06009
-0.545385
-2.94332
-7.28426
-12.045
-18.0229
-21.9348
-24.8453
4.21756
4.33605
3.91523
3.4794
2.94765
2.24954
0.539479
-1.1409
-3.75854
-7.52531
-12.3832
-18.25
-21.8812
-25.7888
-29.4915
3.94812
3.54989
3.05932
2.41963
1.52523
0.218624
-1.73212
-4.65057
-8.81163
-13.9229
-18.5702
-23.0032
-25.7786
-29.6408
-38.4438
3.60508
3.00965
2.2627
1.21289
-0.298537
-2.53115
-5.79411
-10.2575
-15.3553
-19.6519
-23.7103
-26.3697
-30.4974
-40.048
-58.8836
2.81857
1.98855
0.842846
-0.807042
-3.23424
-6.74129
-11.3939
-16.4365
-20.5815
-23.5009
-26.0527
-31.3068
-39.7264
-58.5204
-103.372
2.02842
0.859221
-0.166364
-2.61007
-6.01993
-10.5402
-15.5225
-19.7248
-22.6821
-25.0129
-29.4214
-35.9615
-50.8396
-84.7442
-156.564
5.51889
5.63625
5.76129
5.89605
5.78139
5.90925
6.04078
5.85065
5.97787
5.71854
5.8061
5.45219
5.48604
5.01604
4.99147
5.59975
5.72853
5.63739
5.76123
5.88115
6.00832
5.83086
5.94524
6.04734
5.78804
5.88425
5.5685
5.1714
5.17119
4.62414
5.55151
5.66504
5.78562
5.92108
5.79123
5.91324
6.03576
5.82245
5.91566
6.00135
5.71323
5.36415
5.39802
4.90873
4.86753
5.58305
5.69202
5.80728
5.93612
5.79254
5.90951
6.02559
5.8007
5.88497
5.95282
5.61933
5.67096
5.26445
4.78466
4.74082
5.70066
5.82326
5.6996
5.80733
5.90316
5.99268
6.08772
5.85798
5.95743
5.64483
5.70472
5.28263
5.27294
4.74122
4.69342
5.69093
5.78586
5.88922
6.0085
5.83423
5.92823
6.01772
5.74233
5.79051
5.83335
5.43603
5.44109
4.9308
4.88173
4.31599
5.79284
5.87796
5.98113
5.8037
5.89062
5.95838
6.02573
5.71279
5.73559
5.75152
5.31125
5.28964
4.73872
4.67381
4.08436
5.78954
5.85082
5.91102
5.97396
6.04838
5.7738
5.80697
5.81479
5.81177
5.37779
5.35343
4.80264
4.7153
4.07994
3.98434
5.88215
5.92386
5.96011
5.99547
6.0425
5.71871
5.71757
5.68613
5.64677
5.15072
5.08607
4.48496
4.37889
3.70635
3.55689
5.87335
5.88389
5.87884
5.86345
5.83859
5.79546
5.73165
5.66725
5.15303
5.07027
4.4441
4.29453
4.14844
3.43203
2.52715
5.89903
5.87332
5.83356
5.776
5.6981
5.59997
5.4873
5.37653
4.76056
4.58823
4.41477
3.70978
3.52291
2.58109
1.9707
5.96857
5.91388
5.8398
5.7402
5.61339
5.464
5.31082
4.65746
4.44764
4.20229
3.98877
3.16696
2.78445
1.46239
0.29495
5.76019
5.65277
5.52292
5.36227
5.16785
4.9388
4.67643
4.39637
4.11346
3.8717
2.99661
2.5117
1.70599
-0.269328
-2.43221
5.63134
5.46965
5.28452
5.0697
4.82209
4.54528
4.25382
3.96195
3.64893
3.30964
2.19848
1.36759
-0.0278199
-3.01436
-6.53899
5.32236
5.49446
5.21844
4.94954
4.67308
4.40401
4.18513
3.40402
3.09703
2.60649
1.90319
0.0438837
-2.01212
-5.27867
-10.8653
4.17684
4.35966
4.55558
4.63049
4.83809
5.05634
5.11967
5.35101
5.39533
5.6321
5.6496
5.89135
5.90053
5.89009
5.84028
4.22496
4.41441
4.49174
4.69283
4.9039
4.97078
5.19564
5.246
5.47636
5.50177
5.73757
5.73641
5.9805
5.96807
5.92939
4.22803
4.4102
4.60538
4.67633
4.88234
5.09832
5.1551
5.3826
5.4177
5.64954
5.66028
5.89821
5.89395
5.85779
6.0998
4.27927
4.46064
4.65508
4.72165
4.9256
5.139
5.18869
5.41272
5.44076
5.66938
5.67246
5.90654
5.89636
5.85295
6.0906
4.38302
4.57057
4.63665
4.83312
5.03684
5.08133
5.28798
5.50591
5.52897
5.75893
5.77438
5.7571
5.9953
5.94572
5.85763
4.44614
4.62412
4.81538
4.86885
5.06762
5.27374
5.30127
5.50941
5.72468
5.73871
5.72734
5.9606
5.9186
5.84304
6.06565
4.58033
4.75502
4.93821
4.98729
5.18197
5.38463
5.40305
5.61572
5.60709
5.82339
5.78446
6.00529
5.94144
5.84331
6.05376
4.68608
4.84914
5.02104
5.20639
5.22406
5.41419
5.61189
5.59736
5.80271
5.75783
5.96246
5.87514
6.07978
5.95994
5.79464
4.86752
5.02346
5.18677
5.36278
5.3593
5.5401
5.72645
5.68522
5.87863
5.80354
5.99233
5.8702
6.04988
5.86839
6.03218
5.01523
5.15759
5.30265
5.45399
5.61794
5.56834
5.7273
5.89311
5.79375
5.95364
6.11868
5.98125
5.79597
5.94854
5.67214
5.22197
5.352
5.4831
5.61766
5.76313
5.67315
5.80654
5.93711
6.08032
5.92629
6.07232
5.87048
6.00571
5.74516
5.41579
5.33301
5.4412
5.54748
5.65147
5.75468
5.85862
5.9647
6.08325
5.90201
6.03276
5.79073
5.90092
5.56966
5.62842
5.19134
5.59765
5.69361
5.78081
5.87625
5.98224
5.80528
5.88813
5.96102
6.04413
5.77111
5.85392
5.48472
5.4836
5.4647
4.96724
5.58753
5.65474
5.71727
5.77735
5.83154
5.88049
5.92077
5.9776
5.66283
5.69682
5.71403
5.27824
5.25089
4.69916
4.61513
5.5802
5.61212
5.92212
5.69232
5.73869
5.76305
5.7831
5.79975
5.82637
5.43065
5.39921
5.3586
4.80012
4.7141
4.06597
2.67065
2.84854
2.97379
3.16977
3.37854
3.52027
3.74582
3.90233
4.05196
4.31094
4.46555
4.61479
4.89891
5.05925
5.21255
2.70482
2.82454
3.01098
3.20968
3.34562
3.56359
3.70735
3.94557
4.09471
4.35034
4.51231
4.66642
4.81313
5.1081
5.2603
2.71849
2.89698
3.02109
3.21715
3.42587
3.56512
3.79328
3.93925
4.18451
4.34251
4.49209
4.7684
4.92555
5.08655
5.23846
2.76586
2.9447
3.13038
3.26572
3.47441
3.61197
3.84045
3.98456
4.23011
4.38585
4.53257
4.80806
4.96662
5.11948
5.26816
2.85428
3.03117
3.16059
3.35954
3.49056
3.70733
3.93313
4.08285
4.22571
4.48668
4.63535
4.77704
5.06209
5.21339
5.35593
2.93215
3.11237
3.23266
3.43066
3.64095
3.77362
4.00272
4.14016
4.39087
4.5355
4.67478
4.9495
5.0958
5.2325
5.35709
3.05984
3.24121
3.35878
3.55711
3.76825
3.89775
4.12833
4.26269
4.51024
4.65422
4.78574
5.05914
5.19701
5.32331
5.43627
3.18428
3.36365
3.55474
3.67125
3.87898
4.09466
4.22558
4.4622
4.59843
4.7225
4.98788
5.1067
5.21276
5.49669
5.60505
3.373
3.55453
3.66096
3.85759
4.06674
4.17916
4.40252
4.63604
4.76014
4.86939
5.12719
5.22291
5.49217
5.58447
5.67293
3.55833
3.73682
3.92652
4.02585
4.22862
4.44406
4.54477
4.77567
4.87061
5.11469
5.19598
5.45021
5.52855
5.58176
5.85387
3.80446
3.9838
4.06953
4.25866
4.45725
4.66352
4.75253
4.97785
5.0519
5.28993
5.34664
5.58792
5.62709
5.88245
5.90869
4.02269
4.19273
4.37163
4.55622
4.62792
4.82635
5.03587
5.09179
5.31718
5.3571
5.58968
5.60036
5.82889
5.81146
6.05225
4.25281
4.41374
4.58206
4.75455
4.94462
4.99102
5.18702
5.38733
5.41089
5.62458
5.62292
5.83837
5.79806
6.01489
5.94895
4.41639
4.56804
4.72377
4.88475
5.04841
5.22974
5.23567
5.41994
5.61066
5.58606
5.78413
5.72528
5.92073
5.8169
6.01341
4.52655
4.6711
4.81845
4.97197
5.1322
5.30501
5.2894
5.45734
5.64059
5.58623
5.77851
5.68447
5.87418
5.72805
5.90657
1.25961
1.39469
1.50567
1.65814
1.81717
1.95532
2.09433
2.28724
2.44397
2.65728
2.83171
3.0171
3.20457
3.39874
3.59937
3.80572
1.28205
1.41817
1.52964
1.6818
1.80788
1.97969
2.12131
2.31156
2.47376
2.63664
2.80612
3.04286
3.23206
3.43201
3.63316
3.84016
1.29617
1.43122
1.57225
1.69588
1.85853
1.99244
2.17198
2.32603
2.48097
2.69449
2.87384
3.05458
3.24206
3.43634
3.63682
3.84274
1.33397
1.46962
1.61604
1.73549
1.89927
2.03355
2.21418
2.36847
2.52333
2.73766
2.91668
3.09622
3.28143
3.47188
3.75045
3.96063
1.39894
1.53754
1.65033
1.8055
1.93233
2.10742
2.24939
2.44689
2.60431
2.76732
2.99528
3.18147
3.36835
3.56099
3.75931
3.96274
1.4641
1.60305
1.71558
1.8728
2.04169
2.17742
2.36163
2.51682
2.67216
2.89021
3.06832
3.246
3.42766
3.69444
3.89347
4.09652
1.56568
1.70817
1.82145
1.98042
2.10789
2.28696
2.42894
2.62966
2.78632
3.00743
3.18595
3.3639
3.54563
3.73031
4.01078
4.21075
1.67302
1.81699
1.93046
2.09204
2.26482
2.39978
2.59247
2.74136
2.95246
3.12163
3.2894
3.5362
3.7251
3.91307
4.10473
4.29959
1.827
1.93406
2.08833
2.25421
2.38182
2.56624
2.75947
2.91287
3.06461
3.29264
3.45743
3.7058
3.88517
4.07237
4.2572
4.44268
1.99405
2.14419
2.25741
2.42446
2.60351
2.73651
2.93496
3.07974
3.29936
3.45503
3.69305
3.86626
4.03587
4.20454
4.48673
4.66482
2.16544
2.31673
2.47787
2.64974
2.77334
2.96244
3.15972
3.30606
3.52345
3.67946
3.9204
4.08734
4.24849
4.40625
4.68697
4.85263
2.38296
2.53539
2.69762
2.87064
3.05027
3.18118
3.38371
3.51639
3.73699
3.9675
4.12057
4.26576
4.52589
4.67403
4.8203
5.10968
2.62124
2.77652
2.94148
3.11215
3.23032
3.42208
3.62088
3.74899
3.96774
4.19588
4.32747
4.58227
4.71721
4.84937
5.12593
5.2555
2.81933
2.97462
3.13898
3.31369
3.49894
3.61182
3.80687
4.01988
4.13901
4.36377
4.48282
4.72542
4.83496
5.10094
5.20576
5.29656
2.96973
3.12703
3.29425
3.38854
3.56717
3.75538
3.95554
4.05713
4.27059
4.49718
4.60005
4.84804
4.95106
5.03987
5.30788
5.38342
0.359417
0.454534
0.544462
0.653287
0.756017
0.860373
0.99517
1.12326
1.25292
1.39099
1.53811
1.69461
1.86041
2.03547
2.21931
2.41277
0.373818
0.452924
0.557565
0.650146
0.767286
0.877919
0.991305
1.13617
1.26725
1.40968
1.55643
1.71255
1.87841
2.05385
2.23915
2.43456
0.383345
0.479094
0.569683
0.679042
0.782267
0.887773
1.02359
1.15109
1.2802
1.41878
1.59679
1.75694
1.92527
2.1036
2.29211
2.49071
0.409684
0.510636
0.59758
0.707952
0.811834
0.917945
1.05924
1.18297
1.31291
1.45197
1.63107
1.79134
1.95955
2.13751
2.32536
2.52388
0.455971
0.537057
0.645052
0.740013
0.864344
0.972689
1.0885
1.23706
1.37517
1.51553
1.66442
1.82213
1.9898
2.20855
2.40015
2.55181
0.500666
0.582864
0.693766
0.809824
0.917102
1.02585
1.17098
1.29742
1.43104
1.60351
1.75744
1.91829
2.08801
2.26746
2.45685
2.65614
0.576157
0.659594
0.771347
0.868706
0.997666
1.11032
1.25476
1.38805
1.52269
1.66658
1.85347
2.01826
2.19065
2.37221
2.56302
2.76367
0.654744
0.740121
0.856126
0.977492
1.0886
1.2007
1.3519
1.48171
1.61867
1.79688
1.95814
2.12231
2.29531
2.4777
2.66932
2.87006
0.744762
0.855441
0.976296
1.07855
1.21502
1.33203
1.4837
1.62106
1.76059
1.94397
2.10257
2.27281
2.44702
2.63018
2.82226
3.02253
0.871935
0.986011
1.1104
1.21444
1.3548
1.47349
1.63335
1.7687
1.94594
2.0977
2.25992
2.42528
2.64892
2.83516
3.02808
3.22928
1.0373
1.12882
1.25607
1.39326
1.5069
1.66119
1.7897
1.96427
2.10951
2.30338
2.46478
2.63642
2.81038
3.05175
3.24541
3.44588
1.21194
1.31001
1.44101
1.5826
1.69767
1.85779
2.02576
2.16932
2.31358
2.51165
2.67757
2.84394
3.07795
3.26258
3.45277
3.64883
1.38579
1.5104
1.64836
1.76233
1.91675
2.07853
2.21457
2.39557
2.54532
2.74923
2.90978
3.07933
3.31886
3.50066
3.68652
3.8761
1.56803
1.70097
1.80762
1.95098
2.11136
2.28238
2.4125
2.60239
2.74561
2.95837
3.11584
3.27603
3.52287
3.69715
3.87406
4.05093
1.67443
1.80939
1.9531
2.06109
2.22099
2.39216
2.51806
2.70768
2.90605
3.05748
3.2064
3.44047
3.60087
3.85658
4.03091
4.21335
-0.239307
-0.182538
-0.125759
-0.0510368
0.0225841
0.0964406
0.178355
0.282833
0.381269
0.48574
0.598292
0.719239
0.849229
0.988234
1.11282
1.26409
-0.239646
-0.172799
-0.115297
-0.0518242
0.030373
0.110878
0.19215
0.280295
0.375404
0.478084
0.589065
0.7088
0.838204
0.977207
1.12197
1.28149
-0.223861
-0.166396
-0.108831
-0.0296043
0.0403814
0.116196
0.213129
0.304176
0.40041
0.504271
0.616777
0.738374
0.869175
1.01012
1.16074
1.29096
-0.206629
-0.148757
-0.090725
-0.0107579
0.0594929
0.135681
0.233093
0.328811
0.425967
0.53063
0.6441
0.762254
0.893938
1.03563
1.18687
1.32253
-0.187373
-0.118272
-0.0572376
0.0209414
0.0972734
0.17363
0.258447
0.366019
0.466955
0.573964
0.689251
0.813175
0.946485
1.0895
1.21733
1.37371
-0.159616
-0.088952
-0.0266263
0.0572699
0.130813
0.209948
0.310856
0.405482
0.510109
0.617935
0.734354
0.860228
0.991015
1.13654
1.29213
1.45878
-0.109402
-0.0365833
0.0258414
0.0941839
0.186478
0.268424
0.357554
0.469516
0.574025
0.684866
0.804089
0.932424
1.06999
1.21777
1.37637
1.54596
-0.0571694
0.0181247
0.0842712
0.173047
0.250986
0.334495
0.440946
0.544579
0.64974
0.762628
0.88418
1.01527
1.15579
1.30623
1.46249
1.6338
0.0195277
0.0822269
0.167218
0.24237
0.337491
0.429479
0.5239
0.64356
0.754038
0.870708
1.00028
1.1344
1.27826
1.4275
1.59096
1.76538
0.105879
0.175812
0.264231
0.341844
0.440412
0.535166
0.632443
0.756441
0.870544
0.995228
1.12393
1.26167
1.40894
1.56554
1.73186
1.9032
0.209891
0.278254
0.371921
0.469041
0.56173
0.67344
0.779187
0.887921
1.02746
1.15512
1.28936
1.432
1.58377
1.74443
1.91471
2.0952
0.321498
0.411879
0.506142
0.595554
0.707609
0.806416
0.93202
1.05085
1.19689
1.32851
1.46722
1.61485
1.7715
1.9371
2.1119
2.29602
0.471552
0.5506
0.653125
0.760353
0.859887
0.98227
1.09674
1.23821
1.36447
1.50247
1.67604
1.82932
1.99001
2.15964
2.33871
2.5267
0.60112
0.701695
0.789645
0.900205
1.02497
1.13011
1.27087
1.39126
1.55321
1.69005
1.83438
2.02563
2.19475
2.36665
2.54752
2.73682
0.704402
0.80343
0.892694
1.01007
1.13338
1.24384
1.38306
1.50837
1.66841
1.81019
1.95408
2.1482
2.31169
2.4873
2.66682
2.85503
-0.608116
-0.575765
-0.539926
-0.490578
-0.445032
-0.392259
-0.33856
-0.278571
-0.216249
-0.143697
-0.0643966
0.0212498
0.101317
0.19688
0.30614
0.405043
-0.61301
-0.56902
-0.532375
-0.491448
-0.43611
-0.384784
-0.32997
-0.269594
-0.20369
-0.132679
-0.0665707
0.0174484
0.106556
0.209447
0.320835
0.420095
-0.599842
-0.565901
-0.520226
-0.478885
-0.430907
-0.382394
-0.327891
-0.267713
-0.200802
-0.131584
-0.0510915
0.0364138
0.13125
0.215187
0.325429
0.445876
-0.587939
-0.555617
-0.510257
-0.464716
-0.420281
-0.371196
-0.316086
-0.255257
-0.187958
-0.113595
-0.0365459
0.0522164
0.147981
0.233063
0.344188
0.465842
-0.573599
-0.535976
-0.499664
-0.45761
-0.401478
-0.348663
-0.288036
-0.229663
-0.160723
-0.0854438
-0.00302041
0.0857903
0.16887
0.267975
0.382083
0.501789
-0.553533
-0.518523
-0.48
-0.427696
-0.374914
-0.32301
-0.265492
-0.202241
-0.132425
-0.0554043
0.0244068
0.11629
0.216403
0.324128
0.420439
0.545319
-0.536633
-0.487708
-0.447081
-0.401862
-0.342146
-0.286378
-0.222876
-0.157444
-0.0851535
-0.0102447
0.0764693
0.170457
0.27217
0.362254
0.479512
0.608775
-0.504256
-0.453489
-0.409721
-0.352863
-0.296507
-0.240545
-0.17945
-0.112211
-0.0378576
0.0435369
0.132553
0.225497
0.330837
0.445321
0.568455
0.678073
-0.453282
-0.412457
-0.354469
-0.304441
-0.249743
-0.178728
-0.111939
-0.0405892
0.0364578
0.120422
0.212111
0.312075
0.421153
0.538223
0.641797
0.775565
-0.397067
-0.3495
-0.292801
-0.237085
-0.181235
-0.118069
-0.0372717
0.0390279
0.120195
0.208454
0.30387
0.407403
0.520263
0.642202
0.773085
0.888392
-0.330363
-0.280217
-0.220419
-0.161411
-0.101504
-0.0239999
0.053049
0.13095
0.217233
0.326724
0.430493
0.540833
0.658465
0.760376
0.893937
1.03893
-0.251569
-0.191595
-0.132943
-0.0632982
0.00475668
0.0746573
0.164264
0.24839
0.338405
0.440435
0.54751
0.681703
0.803927
0.937316
1.05629
1.20605
-0.158173
-0.0905637
-0.0288721
0.0457587
0.114929
0.207327
0.288729
0.376922
0.494287
0.599493
0.711037
0.830816
0.959541
1.0978
1.24628
1.40071
-0.0552493
0.0170878
0.0770769
0.159778
0.232378
0.325223
0.414548
0.505764
0.623003
0.735902
0.851048
0.974928
1.10796
1.25085
1.40343
1.56647
0.0183503
0.0926361
0.168592
0.24115
0.328839
0.414197
0.517562
0.611334
0.717252
0.848107
0.967726
1.09436
1.22988
1.37457
1.52892
1.69329
-0.807609
-0.790997
-0.772223
-0.750045
-0.724453
-0.694686
-0.660231
-0.625041
-0.581633
-0.533885
-0.494067
-0.437277
-0.373482