/*--------------------------------*- C++ -*----------------------------------*\
| =========                 |                                                 |
| \\      /  F ield         | OpenFOAM: The Open Source CFD Toolbox           |
|  \\    /   O peration     | Version:  2412                                  |
|   \\  /    A nd           | Website:  www.openfoam.com                      |
|    \\/     M anipulation  |                                                 |
\*---------------------------------------------------------------------------*/
FoamFile
{
    version     2.0;
    format      ascii;
    arch        "LSB;label=32;scalar=64";
    class       volScalarField;
    location    "0.0350058";
    object      Vm_0;
}
// * * * * * * * * * * * * * * * * * * * * * * * * * * * * * * * * * * * * * //

dimensions      [1 2 -3 0 0 -1 0];

internalField   nonuniform List<scalar> 
8730
(
-0.0838948
-0.0839125
-0.0839278
-0.0839405
-0.0839512
-0.08396
-0.0839674
-0.0839734
-0.0839785
-0.0839827
-0.0839862
-0.083989
-0.0839913
-0.0839931
-0.0839946
-0.083897
-0.0839144
-0.0839293
-0.0839418
-0.0839522
-0.0839608
-0.083968
-0.083974
-0.0839789
-0.083983
-0.0839864
-0.0839892
-0.0839915
-0.0839932
-0.0839947
-0.0839012
-0.0839179
-0.0839321
-0.0839441
-0.0839541
-0.0839624
-0.0839692
-0.083975
-0.0839798
-0.0839837
-0.083987
-0.0839896
-0.0839918
-0.0839935
-0.0839949
-0.0839073
-0.083923
-0.0839364
-0.0839475
-0.0839568
-0.0839646
-0.0839711
-0.0839765
-0.083981
-0.0839847
-0.0839878
-0.0839903
-0.0839923
-0.0839939
-0.0839952
-0.0839151
-0.0839295
-0.0839417
-0.0839519
-0.0839604
-0.0839675
-0.0839734
-0.0839784
-0.0839825
-0.083986
-0.0839888
-0.0839911
-0.0839929
-0.0839944
-0.0839956
-0.0839241
-0.083937
-0.0839478
-0.0839568
-0.0839644
-0.0839708
-0.0839761
-0.0839806
-0.0839843
-0.0839874
-0.0839899
-0.083992
-0.0839936
-0.083995
-0.083996
-0.0839341
-0.0839451
-0.0839545
-0.0839623
-0.0839689
-0.0839745
-0.0839791
-0.0839831
-0.0839863
-0.083989
-0.0839912
-0.083993
-0.0839944
-0.0839956
-0.0839965
-0.0839442
-0.0839535
-0.0839613
-0.083968
-0.0839736
-0.0839783
-0.0839823
-0.0839856
-0.0839884
-0.0839907
-0.0839925
-0.083994
-0.0839953
-0.0839963
-0.0839971
-0.083954
-0.0839616
-0.083968
-0.0839735
-0.0839781
-0.0839821
-0.0839854
-0.0839882
-0.0839904
-0.0839923
-0.0839938
-0.0839951
-0.0839961
-0.0839969
-0.0839976
-0.0839631
-0.0839691
-0.0839743
-0.0839787
-0.0839825
-0.0839856
-0.0839883
-0.0839905
-0.0839923
-0.0839938
-0.083995
-0.083996
-0.0839969
-0.0839975
-0.083998
-0.0839711
-0.0839758
-0.0839799
-0.0839834
-0.0839863
-0.0839888
-0.0839909
-0.0839926
-0.083994
-0.0839952
-0.0839961
-0.0839969
-0.0839976
-0.0839981
-0.0839985
-0.0839778
-0.0839815
-0.0839846
-0.0839873
-0.0839896
-0.0839915
-0.083993
-0.0839943
-0.0839954
-0.0839963
-0.083997
-0.0839976
-0.0839981
-0.0839985
-0.0839988
-0.0839832
-0.083986
-0.0839884
-0.0839904
-0.0839921
-0.0839935
-0.0839947
-0.0839957
-0.0839965
-0.0839972
-0.0839978
-0.0839982
-0.0839986
-0.0839989
-0.0839991
-0.0839869
-0.0839891
-0.0839909
-0.0839925
-0.0839938
-0.0839949
-0.0839959
-0.0839967
-0.0839973
-0.0839978
-0.0839983
-0.0839986
-0.0839989
-0.0839991
-0.0839993
-0.0839888
-0.0839906
-0.0839922
-0.0839936
-0.0839947
-0.0839957
-0.0839965
-0.0839971
-0.0839977
-0.0839982
-0.0839985
-0.0839988
-0.0839991
-0.0839993
-0.0839994
-0.0833566
-0.0834534
-0.0835478
-0.08363
-0.0836991
-0.0837558
-0.0838016
-0.0838383
-0.0838681
-0.0838929
-0.0839139
-0.0839315
-0.0839459
-0.0839574
-0.0839664
-0.0833693
-0.0834648
-0.0835577
-0.0836382
-0.0837057
-0.083761
-0.0838056
-0.0838413
-0.0838705
-0.083895
-0.0839156
-0.0839329
-0.083947
-0.0839582
-0.0839671
-0.0833912
-0.0834861
-0.0835759
-0.0836531
-0.0837177
-0.0837705
-0.083813
-0.0838473
-0.0838754
-0.083899
-0.0839189
-0.0839356
-0.0839491
-0.0839599
-0.0839684
-0.0834246
-0.083518
-0.0836029
-0.0836753
-0.0837355
-0.0837845
-0.0838241
-0.0838561
-0.0838826
-0.083905
-0.0839239
-0.0839395
-0.0839522
-0.0839623
-0.0839702
-0.0834692
-0.0835592
-0.0836375
-0.0837036
-0.0837581
-0.0838023
-0.0838381
-0.0838674
-0.0838919
-0.0839126
-0.0839302
-0.0839446
-0.0839561
-0.0839653
-0.0839726
-0.0835256
-0.0836074
-0.0836773
-0.0837357
-0.0837836
-0.0838224
-0.0838541
-0.0838805
-0.0839028
-0.0839217
-0.0839375
-0.0839504
-0.0839607
-0.0839688
-0.0839754
-0.0835891
-0.0836606
-0.0837209
-0.0837706
-0.0838112
-0.0838444
-0.0838719
-0.0838952
-0.083915
-0.0839318
-0.0839456
-0.0839567
-0.0839656
-0.0839727
-0.0839784
-0.0836548
-0.0837149
-0.0837649
-0.0838059
-0.0838394
-0.0838672
-0.0838908
-0.0839109
-0.083928
-0.0839423
-0.0839539
-0.0839632
-0.0839707
-0.0839767
-0.0839816
-0.0837184
-0.0837666
-0.0838064
-0.0838391
-0.0838663
-0.0838895
-0.0839094
-0.0839265
-0.0839408
-0.0839525
-0.0839619
-0.0839696
-0.0839757
-0.0839807
-0.0839848
-0.0837758
-0.0838128
-0.0838435
-0.0838694
-0.0838917
-0.0839109
-0.0839274
-0.0839412
-0.0839526
-0.0839619
-0.0839694
-0.0839755
-0.0839804
-0.0839845
-0.0839878
-0.0838246
-0.0838525
-0.0838765
-0.0838972
-0.0839151
-0.0839306
-0.0839436
-0.0839543
-0.083963
-0.0839702
-0.083976
-0.0839808
-0.0839847
-0.0839879
-0.0839905
-0.0838644
-0.0838859
-0.0839048
-0.0839212
-0.0839353
-0.0839472
-0.083957
-0.0839651
-0.0839717
-0.0839771
-0.0839816
-0.0839853
-0.0839883
-0.0839908
-0.0839928
-0.0838959
-0.0839128
-0.0839277
-0.0839405
-0.0839511
-0.08396
-0.0839673
-0.0839734
-0.0839784
-0.0839826
-0.083986
-0.0839889
-0.0839912
-0.0839931
-0.0839945
-0.0839184
-0.0839322
-0.0839439
-0.0839537
-0.0839619
-0.0839687
-0.0839744
-0.0839792
-0.0839831
-0.0839864
-0.0839892
-0.0839914
-0.0839932
-0.0839946
-0.0839958
-0.0839304
-0.0839421
-0.0839521
-0.0839604
-0.0839674
-0.0839732
-0.0839781
-0.0839822
-0.0839856
-0.0839885
-0.0839908
-0.0839927
-0.0839942
-0.0839954
-0.0839964
-0.0795343
-0.0801575
-0.080745
-0.0812971
-0.0818019
-0.0822449
-0.0826125
-0.0828969
-0.0831066
-0.0832656
-0.0833956
-0.0835099
-0.0836129
-0.0836974
-0.0837642
-0.079611
-0.0802279
-0.0808112
-0.0813579
-0.0818555
-0.0822893
-0.0826463
-0.0829205
-0.0831229
-0.0832784
-0.0834068
-0.0835195
-0.0836207
-0.0837036
-0.083769
-0.0797546
-0.0803563
-0.0809275
-0.0814609
-0.0819438
-0.082362
-0.082703
-0.0829626
-0.0831543
-0.0833029
-0.083426
-0.0835385
-0.0836364
-0.083716
-0.0837785
-0.0799689
-0.0805545
-0.0811093
-0.081623
-0.0820828
-0.082475
-0.0827889
-0.0830248
-0.083201
-0.0833413
-0.0834572
-0.0835667
-0.0836592
-0.0837337
-0.0837919
-0.0802536
-0.0808208
-0.0813532
-0.0818389
-0.0822651
-0.0826197
-0.0828961
-0.0831022
-0.0832597
-0.0833877
-0.0835005
-0.0836034
-0.0836885
-0.0837563
-0.0838089
-0.0806044
-0.0811425
-0.0816406
-0.0820867
-0.0824688
-0.0827771
-0.0830113
-0.0831873
-0.0833275
-0.0834453
-0.0835527
-0.0836462
-0.0837222
-0.083782
-0.0838283
-0.0810209
-0.081521
-0.0819736
-0.0823668
-0.0826911
-0.0829428
-0.0831322
-0.0832802
-0.0834035
-0.0835124
-0.0836113
-0.0836932
-0.0837587
-0.0838098
-0.0838493
-0.0814793
-0.0819294
-0.0823249
-0.0826531
-0.0829093
-0.083103
-0.0832538
-0.0833791
-0.0834865
-0.0835874
-0.0836725
-0.0837414
-0.0837957
-0.0838378
-0.0838709
-0.0819583
-0.0823402
-0.0826583
-0.0829078
-0.0830976
-0.0832462
-0.0833699
-0.0834762
-0.0835769
-0.0836623
-0.0837321
-0.0837875
-0.0838308
-0.0838648
-0.0838922
-0.0824129
-0.0827072
-0.0829392
-0.0831179
-0.08326
-0.0833797
-0.0834826
-0.0835802
-0.0836634
-0.0837317
-0.0837863
-0.0838291
-0.0838629
-0.0838903
-0.0839128
-0.0827987
-0.0830033
-0.0831633
-0.0832936
-0.0834047
-0.0835044
-0.0835971
-0.0836757
-0.0837403
-0.083792
-0.0838328
-0.0838653
-0.0838917
-0.0839137
-0.083932
-0.0830835
-0.0832223
-0.0833402
-0.0834421
-0.0835375
-0.0836233
-0.0836957
-0.0837551
-0.0838027
-0.0838404
-0.0838708
-0.0838958
-0.0839168
-0.0839343
-0.0839485
-0.0832839
-0.0833886
-0.0834838
-0.0835743
-0.0836525
-0.0837181
-0.0837717
-0.0838148
-0.0838494
-0.0838775
-0.0839009
-0.0839207
-0.0839372
-0.0839506
-0.0839612
-0.0834227
-0.0835151
-0.0835996
-0.083672
-0.0837325
-0.083782
-0.083822
-0.0838544
-0.0838812
-0.0839037
-0.0839227
-0.0839387
-0.0839515
-0.0839618
-0.0839699
-0.0835023
-0.0835874
-0.0836607
-0.0837224
-0.083773
-0.083814
-0.0838474
-0.0838749
-0.0838982
-0.0839178
-0.0839345
-0.083948
-0.0839589
-0.0839675
-0.0839744
-0.0546088
-0.0582512
-0.0607337
-0.0633958
-0.0662821
-0.0693558
-0.0724755
-0.0753555
-0.0775295
-0.0788956
-0.0797763
-0.0805007
-0.0811669
-0.0817679
-0.0822841
-0.0552402
-0.0585537
-0.0610483
-0.0637369
-0.0666474
-0.0697322
-0.0728295
-0.0756338
-0.0776931
-0.0789892
-0.0798422
-0.0805587
-0.0812187
-0.0818127
-0.0823215
-0.0562601
-0.0590658
-0.06156
-0.0642661
-0.0671892
-0.0702712
-0.0733406
-0.0760457
-0.0779724
-0.0791628
-0.0799737
-0.0806783
-0.081327
-0.0819068
-0.0823975
-0.0574543
-0.0598932
-0.0624297
-0.0651822
-0.068139
-0.0712146
-0.0742044
-0.0766943
-0.0783731
-0.0794112
-0.0801722
-0.0808582
-0.0814872
-0.082043
-0.0825058
-0.0586545
-0.061084
-0.0637012
-0.0665246
-0.0695189
-0.0725481
-0.0753484
-0.0774826
-0.0788442
-0.0797234
-0.0804409
-0.0811026
-0.0817026
-0.0822229
-0.0826452
-0.0601178
-0.062605
-0.0652934
-0.0681717
-0.0711636
-0.0740872
-0.0765619
-0.0782673
-0.0793284
-0.0800903
-0.0807706
-0.0813981
-0.0819577
-0.0824296
-0.0828001
-0.0620249
-0.0646229
-0.0674072
-0.0703242
-0.0732318
-0.0758442
-0.0777769
-0.0790044
-0.0798246
-0.080517
-0.0811577
-0.0817393
-0.082244
-0.0826539
-0.0829613
-0.0643867
-0.0671234
-0.0700232
-0.0729132
-0.0755298
-0.0775182
-0.0788127
-0.0796638
-0.0803562
-0.0809981
-0.0815882
-0.0821091
-0.0825421
-0.0828762
-0.083116
-0.0673283
-0.0701607
-0.0729787
-0.0755276
-0.0774752
-0.0787601
-0.0796105
-0.0802962
-0.0809309
-0.0815157
-0.0820365
-0.0824769
-0.0828224
-0.0830741
-0.0832558
-0.0707461
-0.0734326
-0.0758423
-0.0776669
-0.0788671
-0.0796704
-0.080334
-0.0809517
-0.0815228
-0.0820331
-0.0824667
-0.0828099
-0.0830614
-0.0832439
-0.0833851
-0.0743631
-0.0765181
-0.0780817
-0.0791035
-0.0798321
-0.0804677
-0.0810637
-0.0816134
-0.0821019
-0.0825135
-0.0828386
-0.0830782
-0.0832536
-0.0833907
-0.0835089
-0.0773383
-0.0785727
-0.0794117
-0.0800683
-0.080672
-0.0812388
-0.0817584
-0.0822167
-0.0825998
-0.0828977
-0.0831162
-0.0832796
-0.0834111
-0.0835249
-0.083627
-0.0790261
-0.0797246
-0.0803315
-0.0809055
-0.081442
-0.0819282
-0.0823507
-0.082698
-0.0829642
-0.0831604
-0.0833108
-0.083434
-0.0835456
-0.0836428
-0.0837219
-0.0799399
-0.080521
-0.0810717
-0.0815831
-0.0820423
-0.082437
-0.0827575
-0.083002
-0.0831847
-0.0833282
-0.0834475
-0.0835559
-0.0836502
-0.0837267
-0.0837869
-0.0804324
-0.0809839
-0.0815
-0.0819686
-0.0823735
-0.0827032
-0.0829559
-0.0831453
-0.0832936
-0.0834147
-0.0835264
-0.0836249
-0.0837058
-0.08377
-0.0838195
0.034007
0.0345652
0.0349095
0.0347734
0.0335616
0.0298496
0.0204123
0.000585661
-0.0262179
-0.0466408
-0.0562577
-0.0597871
-0.0628432
-0.0661424
-0.0696475
0.0340121
0.0345155
0.0348029
0.0345602
0.0331156
0.0288883
0.0184061
-0.00251803
-0.0284523
-0.0479358
-0.0566763
-0.0600248
-0.0630908
-0.0664003
-0.0699195
0.0342131
0.0347255
0.0349663
0.0346094
0.0328963
0.0280317
0.0161499
-0.00648834
-0.0327553
-0.0502433
-0.0574417
-0.0605502
-0.0636504
-0.067
-0.0705228
0.0344031
0.0348482
0.0349506
0.0342953
0.0319051
0.0255068
0.0106786
-0.0142627
-0.038855
-0.0530652
-0.058345
-0.0613561
-0.0645043
-0.0678962
-0.0714138
0.0345479
0.03482
0.0346272
0.033342
0.0295443
0.0201158
0.000733242
-0.0254578
-0.0460124
-0.0559144
-0.0595278
-0.0625302
-0.0657535
-0.0691955
-0.0726766
0.034795
0.0348769
0.0342218
0.0318926
0.0257523
0.0116625
-0.0124131
-0.0371745
-0.0521854
-0.058
-0.0609676
-0.0640425
-0.0673578
-0.070817
-0.0742068
0.0348027
0.0343807
0.0326348
0.0279424
0.0169252
-0.00398
-0.0295971
-0.0481623
-0.0566016
-0.0598602
-0.0627983
-0.0659793
-0.0693677
-0.0727752
-0.0758856
0.0344947
0.0328297
0.0281545
0.0179239
-0.00140694
-0.0262125
-0.0457194
-0.0555283
-0.0591697
-0.0620199
-0.0650954
-0.0683946
-0.0717769
-0.0749987
-0.0774979
0.0325616
0.0277794
0.017527
-0.00142636
-0.0255992
-0.0449727
-0.0550946
-0.0589285
-0.06171
-0.0646756
-0.0678763
-0.0712143
-0.0744326
-0.0770795
-0.078773
0.0266065
0.0155601
-0.00411668
-0.0280851
-0.0465789
-0.0556348
-0.0590865
-0.0617933
-0.0647064
-0.0678451
-0.0711268
-0.0743279
-0.0769532
-0.0786723
-0.0797008
0.00934904
-0.0120584
-0.0347715
-0.0497088
-0.0566963
-0.0596443
-0.062335
-0.0652366
-0.0683348
-0.0715155
-0.0746018
-0.0771231
-0.0787494
-0.0797334
-0.0804893
-0.023466
-0.0421391
-0.0532494
-0.0579041
-0.0605031
-0.0631807
-0.0660726
-0.0691539
-0.0723004
-0.0752531
-0.0775219
-0.078958
-0.0798602
-0.0805884
-0.0812523
-0.0487048
-0.0559453
-0.0589927
-0.0615204
-0.0642218
-0.0671209
-0.0701684
-0.0732181
-0.0759574
-0.0779551
-0.0791896
-0.0800127
-0.0807148
-0.0813581
-0.0819338
-0.057239
-0.05974
-0.0622451
-0.0649467
-0.0678359
-0.0708435
-0.0738083
-0.0763729
-0.0781802
-0.0793029
-0.0800871
-0.0807753
-0.0814083
-0.0819728
-0.0824488
-0.0592961
-0.0617429
-0.0644142
-0.0673142
-0.0703459
-0.0733338
-0.0759625
-0.0778659
-0.0790678
-0.0798844
-0.0805843
-0.0812323
-0.0818181
-0.0823208
-0.0827215
0.0329319
0.033531
0.0340356
0.0344016
0.0345704
0.0344738
0.0340943
0.0336139
0.0334541
0.0338756
0.0343813
0.0347346
0.0346956
0.0332575
0.0288362
0.0329379
0.0335201
0.034005
0.0343439
0.0344766
0.0343428
0.0339457
0.0335205
0.0335531
0.033893
0.0344105
0.0348834
0.0346755
0.0332337
0.0283034
0.0331414
0.0337167
0.0341867
0.0345041
0.0346081
0.0344358
0.0340045
0.0335711
0.0335425
0.0340599
0.0345646
0.0348238
0.0345704
0.0326123
0.0269598
0.0333397
0.0338854
0.0343141
0.0345742
0.0346041
0.034356
0.0338933
0.0335425
0.0336518
0.034244
0.0347163
0.0348479
0.0343191
0.0316896
0.0244852
0.0335169
0.0340057
0.0343611
0.0345241
0.0344348
0.0340799
0.0336319
0.033482
0.0338996
0.0344099
0.0347606
0.0346354
0.0335399
0.0295731
0.0193298
0.0338511
0.0342775
0.0345454
0.0345952
0.0343808
0.0339523
0.0335972
0.0336359
0.0340427
0.0345326
0.0348671
0.0343216
0.0320693
0.0259663
0.0101992
0.0341052
0.0344144
0.0345334
0.0344121
0.0340559
0.0336637
0.0335733
0.0338827
0.0343723
0.0347251
0.0347061
0.0333365
0.0291611
0.0187577
-0.00440053
0.0342569
0.0343476
0.0342193
0.0338816
0.0335037
0.0333929
0.0336791
0.0342123
0.0347879
0.0348069
0.0338547
0.0307615
0.0229312
0.00411635
-0.0244289
0.0343248
0.034172
0.0338436
0.0334893
0.0333969
0.0336785
0.0341776
0.0346199
0.0347336
0.0341926
0.0316104
0.0247244
0.00906997
-0.0186001
-0.0439883
0.0342273
0.0339164
0.0335722
0.0333685
0.033654
0.034169
0.0346348
0.0348934
0.0342142
0.0316883
0.0249337
0.00919716
-0.0169409
-0.04244
-0.0554597
0.0337326
0.0333653
0.0334238
0.0338298
0.0343539
0.0347299
0.0346954
0.033786
0.0309785
0.0241251
0.00776749
-0.0192708
-0.0436731
-0.0557078
-0.0597754
0.0334761
0.0337348
0.034069
0.0345407
0.0348273
0.0346258
0.0333493
0.0296567
0.0206287
0.00156613
-0.0249727
-0.0467118
-0.056624
-0.0602046
-0.0633219
0.0339207
0.0344738
0.0349071
0.0349026
0.0344274
0.0326365
0.0278325
0.0164878
-0.00536976
-0.031874
-0.0499782
-0.0575259
-0.0607217
-0.0638202
-0.0671644
0.0346601
0.0349409
0.0350338
0.0344592
0.0323569
0.0267532
0.0136888
-0.0096891
-0.0352501
-0.0514776
-0.0578721
-0.0609369
-0.06404
-0.0673815
-0.0708633
0.035047
0.0352828
0.0348909
0.0329597
0.0280972
0.0164447
-0.00539072
-0.0310509
-0.0489338
-0.0568496
-0.0600465
-0.0630776
-0.0663729
-0.0698719
-0.0733567
0.0259558
0.0266844
0.0274217
0.0281796
0.0289952
0.0297433
0.0304754
0.0312335
0.032063
0.0328006
0.0334732
0.0341249
0.0345742
0.0348883
0.034903
0.026135
0.0268674
0.0275994
0.0283276
0.0290539
0.0297774
0.0305242
0.031351
0.0321199
0.0328528
0.0335961
0.0341887
0.0346831
0.0348794
0.034829
0.0261997
0.0269277
0.0276628
0.0284169
0.0292307
0.0299816
0.0307169
0.0314762
0.032301
0.0330235
0.0336747
0.0342927
0.034684
0.0348984
0.0347237
0.0264408
0.0271653
0.0278913
0.0286222
0.0293743
0.0301865
0.0309429
0.031707
0.0325306
0.0332384
0.0338612
0.0344386
0.0347743
0.0349222
0.0346686
0.0268648
0.0275922
0.0283179
0.029038
0.0297553
0.0304722
0.0311979
0.0319516
0.0327677
0.0334707
0.0341283
0.0345621
0.0347879
0.0348419
0.0345792
0.0271814
0.0278911
0.0286161
0.0293667
0.03018
0.0309256
0.0316495
0.0323629
0.0330634
0.0337771
0.0343255
0.0347605
0.03488
0.0347749
0.0342838
0.0277715
0.0284079
0.0291244
0.0299293
0.0306785
0.0314047
0.0321172
0.032808
0.0334618
0.0341101
0.0345645
0.0348693
0.0348162
0.0345435
0.0340388
0.0283251
0.0290243
0.02973
0.0304448
0.0311658
0.0318905
0.0326148
0.0333693
0.0339678
0.0344339
0.0347881
0.0348008
0.0345061
0.0340982
0.033814
0.029033
0.0297307
0.0304344
0.0311498
0.0318699
0.0325738
0.0332498
0.0339271
0.0344044
0.0346945
0.034758
0.0346213
0.0341758
0.033921
0.0340326
0.0299525
0.0306263
0.0312398
0.0319397
0.0327218
0.033392
0.0339663
0.0344207
0.0347007
0.0347667
0.0346483
0.0342119
0.0339704
0.0340409
0.0344286
0.0308668
0.0314672
0.0321305
0.0327962
0.0334264
0.0339978
0.0345307
0.0348033
0.0348191
0.0345622
0.0341053
0.0339014
0.0340488
0.0345953
0.0348674
0.0318795
0.0325692
0.0332217
0.0338178
0.0343254
0.0347033
0.0348979
0.0348425
0.0345021
0.0340148
0.0337982
0.0341478
0.0345838
0.0348256
0.0345648
0.0328585
0.0334647
0.0340231
0.0344814
0.0348008
0.0349226
0.0347894
0.0344006
0.0339651
0.0338808
0.034348
0.0348183
0.0350169
0.0346504
0.0324321
0.0336636
0.0341948
0.0346284
0.034915
0.0349948
0.0348163
0.034411
0.0340318
0.0340157
0.0343861
0.034878
0.035223
0.0347037
0.0324938
0.0263942
0.0342175
0.0346422
0.0348226
0.0348775
0.0347059
0.0343097
0.0339154
0.0338612
0.0342098
0.0347445
0.0352411
0.0350359
0.0334503
0.0286504
0.0163939
0.0192287
0.019887
0.020576
0.0213038
0.0220906
0.0228614
0.023651
0.0244984
0.0253302
0.0262026
0.0270377
0.0279137
0.0287392
0.0296028
0.0304147
0.0192846
0.0199634
0.0206983
0.0214255
0.0221657
0.0229312
0.0237538
0.0245582
0.0253684
0.0262334
0.0270769
0.0279732
0.0288616
0.0296799
0.0305312
0.019444
0.0201079
0.0208019
0.0215338
0.0223262
0.0231002
0.0238896
0.0247307
0.0255404
0.0263585
0.0272446
0.0281384
0.0289698
0.0298314
0.0306373
0.0196594
0.0203282
0.0210261
0.0217603
0.0225542
0.0233326
0.0241244
0.0249698
0.0257799
0.0265912
0.0274559
0.0282899
0.0291721
0.0300525
0.0308612
0.0199323
0.0206269
0.0213793
0.0221181
0.0228619
0.0236167
0.0243992
0.0252463
0.0260746
0.0269424
0.0277747
0.028637
0.0294482
0.030303
0.03111
0.0203218
0.0210047
0.021719
0.0224712
0.0232797
0.0240614
0.0248528
0.0256963
0.0264984
0.0273073
0.0281674
0.0289825
0.0298349
0.0306401
0.031507
0.0207972
0.0214881
0.0222209
0.0230191
0.0237939
0.0245655
0.0253527
0.0261925
0.0269896
0.0277908
0.0286443
0.0294519
0.0302993
0.0311018
0.0319695
0.0214385
0.0221365
0.022855
0.0235975
0.0243702
0.0251985
0.0259864
0.0267673
0.0275566
0.0284034
0.029209
0.0300522
0.0308409
0.0316877
0.0324808
0.0221537
0.0228617
0.023586
0.0243295
0.0251029
0.0259326
0.0267162
0.0274892
0.0282723
0.0291122
0.0299069
0.030749
0.031536
0.0323829
0.0331494
0.0230799
0.0237981
0.024523
0.0252597
0.0260077
0.0267589
0.0275104
0.0282793
0.0291112
0.0298992
0.0307316
0.0315008
0.0322716
0.0331069
0.0338851
0.0240429
0.0247663
0.0254978
0.0262342
0.026973
0.0277141
0.0284591
0.0292177
0.0300336
0.0307873
0.0315466
0.0323809
0.0331375
0.0339006
0.0344905
0.0250565
0.0257889
0.0265245
0.0272582
0.0279885
0.0287183
0.0294629
0.0302667
0.0310081
0.0317343
0.0324808
0.0332818
0.0339616
0.0345994
0.0350144
0.0262148
0.026949
0.0276841
0.028414
0.0291363
0.0298507
0.0305573
0.0312643
0.031979
0.0327134
0.0334982
0.0341382
0.0346619
0.0351106
0.0352475
0.0271834
0.0279093
0.0286352
0.0293562
0.03007
0.0307783
0.0314871
0.0322012
0.0329106
0.0336051
0.0343134
0.0348372
0.0351795
0.035372
0.0351861
0.0278108
0.0284381
0.0291144
0.0298142
0.0305232
0.0312448
0.0319964
0.032819
0.0335376
0.0341795
0.0347417
0.0352273
0.0353952
0.0352532
0.034902
0.0139849
0.0144715
0.0149954
0.0155673
0.0161529
0.0167675
0.0174334
0.0181161
0.018844
0.0195796
0.0203624
0.0211551
0.0220093
0.0229048
0.0238121
0.0140167
0.0145156
0.0150628
0.0156239
0.016212
0.0168494
0.0175059
0.0182053
0.0189149
0.0196709
0.020434
0.0212482
0.0220695
0.0229508
0.0238654
0.0141387
0.014632
0.0151629
0.0157424
0.016335
0.0169557
0.017627
0.0183132
0.0190436
0.019782
0.0205722
0.021369
0.0222239
0.0231073
0.0239755
0.0142935
0.0147928
0.01533
0.015917
0.0165164
0.0171432
0.01782
0.0185111
0.0192484
0.0199924
0.0207894
0.0215907
0.0224538
0.0233437
0.0242146
0.0144844
0.0150029
0.0155719
0.0161528
0.0167574
0.0174063
0.0180634
0.0187505
0.0194942
0.0202537
0.021072
0.0219165
0.0227515
0.0236444
0.0245527
0.0147786
0.0152975
0.0158555
0.0164637
0.0170817
0.017725
0.0184159
0.0191121
0.0198388
0.0206314
0.0214603
0.0222811
0.0231604
0.0240604
0.0249381
0.0151262
0.0156563
0.0162265
0.0168489
0.0174794
0.0181356
0.0188449
0.0195669
0.0203349
0.0211095
0.0219347
0.0227577
0.023643
0.0245489
0.0254287
0.0156144
0.0161552
0.0167269
0.0173384
0.0180035
0.0186751
0.0193729
0.0201253
0.0208859
0.0216975
0.0225038
0.0233596
0.0242059
0.0251125
0.0260295
0.0161656
0.0167256
0.0173148
0.0179417
0.0186254
0.0193151
0.0200268
0.0207941
0.021568
0.0223925
0.0232073
0.0240725
0.0249179
0.0258105
0.0266792
0.0168855
0.0174667
0.018072
0.0187063
0.0193782
0.0201054
0.0208289
0.0215766
0.0223818
0.0231746
0.0239897
0.0248728
0.0257722
0.0266356
0.027532
0.0176745
0.0182796
0.0189074
0.0195603
0.0202478
0.0209916
0.0217253
0.0224721
0.023255
0.0240949
0.0249272
0.0258087
0.0266659
0.027573
0.028479
0.0186173
0.0192478
0.0198985
0.0205694
0.0212618
0.0219765
0.022713
0.0234864
0.0243224
0.025151
0.0260248
0.0268716
0.0277501
0.0285853
0.0294561
0.0195256
0.0201724
0.0208457
0.0215436
0.022275
0.0230633
0.0238297
0.0246018
0.0254039
0.0262652
0.0271028
0.0279719
0.0287777
0.0295798
0.0304478
0.0204878
0.0211664
0.0218626
0.0225784
0.0233097
0.0240568
0.0248202
0.0256088
0.0264574
0.0272715
0.0280853
0.0289473
0.0297584
0.0306077
0.0314003
0.0210786
0.0217522
0.0224211
0.0231874
0.0239455
0.0247067
0.0254761
0.0262581
0.0270608
0.0279186
0.0287206
0.0295179
0.0303622
0.0311524
0.0319951
0.0105395
0.0108492
0.0111916
0.011552
0.0119396
0.0123674
0.0128212
0.0133179
0.0138481
0.0143967
0.0149947
0.0156272
0.0162791
0.0169871
0.0177416
0.010562
0.0108828
0.0112223
0.0115862
0.0119864
0.0124104
0.0128714
0.0133553
0.0138793
0.014428
0.0150263
0.0156658
0.0163361
0.0170254
0.0177727
0.0106279
0.0109429
0.0112919
0.0116596
0.0120539
0.0124868
0.0129433
0.0134391
0.0139589
0.0145252
0.0151287
0.0157523
0.0164325
0.017158
0.0179247
0.0107184
0.0110344
0.0113815
0.0117652
0.0121711
0.012613
0.013077
0.0135813
0.0141094
0.0146837
0.0152946
0.0159239
0.0166089
0.0173416
0.0181154
0.0108416
0.0111708
0.0115374
0.0119253
0.0123459
0.0127841
0.0132514
0.0137668
0.0143183
0.0148908
0.0155137
0.0161695
0.016843
0.0175749
0.0183525
0.0110305
0.011368
0.0117431
0.0121366
0.0125569
0.013017
0.0135002
0.0140251
0.0145737
0.0151744
0.0158109
0.0164624
0.0171685
0.0179193
0.0187027
0.01125
0.011599
0.0119868
0.0123942
0.0128279
0.0133032
0.0138023
0.0143439
0.01491
0.0155256
0.0161759
0.0168418
0.0175638
0.0183277
0.0191236
0.0115606
0.0119202
0.0123117
0.0127429
0.0131934
0.0136737
0.0141975
0.0147485
0.0153493
0.0159855
0.0166339
0.0173339
0.018067
0.0188146
0.0196211
0.0119232
0.0123091
0.0127346
0.0131791
0.0136514
0.0141641
0.0146948
0.0152593
0.0158777
0.0165305
0.0171923
0.0179008
0.0186266
0.0194132
0.0202418
0.0123935
0.0127987
0.0132364
0.0137147
0.0142097
0.0147355
0.0153066
0.0158968
0.0165341
0.0171851
0.0178828
0.0185987
0.0193696
0.0201707
0.0209784
0.0129385
0.0133741
0.0138508
0.0143421
0.014857
0.015406
0.0160026
0.0166184
0.0172811
0.0179591
0.0186831
0.019418
0.0201992
0.0209927
0.0218503
0.0135991
0.0140546
0.0145382
0.015056
0.0156196
0.0161975
0.0168054
0.0174649
0.0181437
0.0188693
0.0196046
0.0203828
0.0211654
0.0219935
0.0228292
0.0143013
0.0147855
0.0152965
0.0158385
0.0164174
0.0170471
0.0176857
0.0183517
0.0190712
0.0198067
0.020587
0.0213716
0.0221991
0.0230275
0.0239196
0.0150067
0.0155239
0.0160646
0.0166314
0.0172287
0.0178629
0.0185505
0.0192436
0.0199674
0.0207466
0.0215302
0.0223633
0.0231887
0.0240632
0.0249265
0.0154368
0.0159745
0.0165354
0.0171241
0.0177405
0.018394
0.0191039
0.0198148
0.020553
0.0213543
0.0221544
0.0230057
0.0238462
0.0247321
0.0255975
0.00853764
0.00867603
0.00883527
0.00900865
0.00920268
0.00942446
0.00967101
0.00993586
0.0102319
0.0105524
0.0109106
0.0113045
0.0117341
0.012198
0.0126977
0.0132335
0.0085413
0.00868043
0.00884223
0.00901992
0.00922082
0.00944032
0.00968656
0.00995427
0.0102545
0.0105856
0.0109449
0.0113284
0.011753
0.0122146
0.0127125
0.0132481
0.00856629
0.00870876
0.00886912
0.00905233
0.00925308
0.00947951
0.00972628
0.0100028
0.0103068
0.0106322
0.0109946
0.0113934
0.0118274
0.0122978
0.0128047
0.0133496
0.00860879
0.00875492
0.00891899
0.00910778
0.00931506
0.00954814
0.00980132
0.0100842
0.0103946
0.0107258
0.0110935
0.0114974
0.0119337
0.0124003
0.0128915
0.0134312
0.00867237
0.00882339
0.00899895
0.00919251
0.00941029
0.00964638
0.00990888
0.0101926
0.0105108
0.0108573
0.0112266
0.0116361
0.0120825
0.0125634
0.0130826
0.0136416
0.00876121
0.0089216
0.00910509
0.0093037
0.00952292
0.0097701
0.010039
0.0103389
0.0106674
0.0110172
0.0114055
0.0118289
0.0122811
0.0127561
0.013277
0.0138399
0.00886784
0.00903653
0.00923149
0.00944448
0.00968245
0.00993899
0.0102239
0.0105296
0.0108681
0.0112309
0.0116343
0.0120746
0.0125477
0.0130504
0.0135757
0.0141493
0.00902153
0.00920322
0.00940996
0.00963279
0.00987839
0.0101527
0.0104477
0.0107756
0.011127
0.0115154
0.0119361
0.0123801
0.0128695
0.0134
0.0139678
0.0145746
0.00920174
0.00940761
0.00962915
0.00987142
0.0101408
0.0104278
0.0107408
0.0110898
0.0114682
0.011868
0.0123048
0.012767
0.0132774
0.0138286
0.0144191
0.0150457
0.00944193
0.0096608
0.00990667
0.0101694
0.0104557
0.0107725
0.0111096
0.0114809
0.0118732
0.0123028
0.0127573
0.0132572
0.013796
0.0143667
0.0149571
0.0155995
0.00976166
0.00999764
0.0102556
0.0105394
0.0108547
0.0111877
0.0115469
0.0119425
0.0123606
0.012817
0.0133001
0.0138312
0.0143999
0.0149989
0.0156156
0.0162886
0.0101304
0.010391
0.0106724
0.0109784
0.0113149
0.0116868
0.0120796
0.0125074
0.0129527
0.0134293
0.0139555
0.0145173
0.0150996
0.0157289
0.0163911
0.0170734
0.0105257
0.0108151
0.0111279
0.0114692
0.0118455
0.0122416
0.0126653
0.0131249
0.0136016
0.0141096
0.0146654
0.0152456
0.0158759
0.0165415
0.0172249
0.0179668
0.0109132
0.0112317
0.0115736
0.011941
0.0123375
0.0127722
0.0132265
0.0137108
0.0142368
0.0147854
0.01538
0.0159939
0.0166552
0.0173347
0.0180685
0.0188358
0.0111435
0.0114837
0.0118542
0.0122617
0.0126826
0.0131255
0.0135997
0.0141179
0.0146509
0.0152153
0.0158334
0.0164731
0.0171699
0.0178983
0.0186367
0.0194295
0.00796917
0.00799708
0.00803842
0.00809172
0.00816157
0.00824794
0.00834807
0.00846846
0.00861181
0.00877798
0.00896795
0.00918241
0.00942223
0.00968842
0.00998221
0.0103046
0.00796873
0.00800009
0.00804199
0.0080986
0.00816793
0.00825452
0.00835815
0.0084774
0.00862017
0.00878548
0.00897417
0.0091869
0.00942543
0.00969106
0.00998525
0.0103099
0.00797442
0.00800579
0.00805088
0.00810854
0.00818263
0.00827266
0.00837595
0.0084997
0.00864444
0.00880805
0.00898964
0.00919982
0.00943881
0.00970748
0.010008
0.0103439
0.00798362
0.00801785
0.00806718
0.00812906
0.00820749
0.00830184
0.008409
0.00853772
0.00868708
0.00885522
0.00904115
0.00925558
0.00949819
0.00976955
0.0100722
0.0104101
0.00799852
0.00804003
0.00809236
0.00816002
0.00824078
0.00834031
0.00845623
0.00858708
0.00874106
0.00891853
0.00911927
0.00934462
0.00959437
0.00986771
0.0101805
0.010536
0.00802472
0.00807212
0.00812891
0.00819933
0.00828765
0.0083932
0.00851237
0.0086537
0.00881536
0.00899468
0.00920172
0.00943642
0.00969826
0.00998796
0.0103092
0.0106645
0.00805035
0.00810556
0.00817234
0.00825511
0.00835071
0.00846477
0.00859409
0.00874574
0.00892011
0.00911493
0.00932979
0.00957554
0.00985096
0.0101555
0.0104903
0.0108587
0.00809762
0.00816238
0.00823778
0.00832819
0.00843806
0.00856635
0.008709
0.0088757
0.00906378
0.00927065
0.00950642
0.00977189
0.0100676
0.0103936
0.0107502
0.0111387
0.00815911
0.00823488
0.00832345
0.00843034
0.00855126
0.0086923
0.00884966
0.0090314
0.00923595
0.00945995
0.00971494
0.00999932
0.0103148
0.0106615
0.0110395
0.0114495
0.00824847
0.0083396
0.00844468
0.00856882
0.00870717
0.00886634
0.00904118
0.00924029
0.00945954
0.00970888
0.00998617
0.0102903
0.0106164
0.0109783
0.011375
0.0118074
0.00837639
0.00848778
0.00861015
0.00874871
0.0089093
0.00908531
0.00928458
0.00950252
0.0097475
0.0100154
0.0103175
0.0106501
0.0110098
0.011392
0.0118147
0.0122768
0.00853178
0.00866352
0.00880731
0.00896811
0.00915169
0.00935078
0.00957192
0.00982257
0.010099
0.0103964
0.0107288
0.0110912
0.011476
0.0119023
0.0123672
0.0128687
0.00871211
0.00886149
0.0090291
0.0092194
0.00942557
0.00965246
0.00990684
0.0101824
0.0104872
0.0108152
0.0111807
0.0115762
0.0119964
0.012461
0.0129644
0.0135036
0.00887638
0.00904994
0.00924728
0.00945981
0.00968949
0.00994273
0.0102268
0.0105316
0.0108694
0.0112309
0.0116321
0.012063
0.0125169
0.0130161
0.0135554
0.0141262
0.00898285
0.00917136
0.00938315
0.00962188
0.00987459
0.0101484
0.0104526
0.0107752
0.0111255
0.0115163
0.0119405
0.0123845
0.0128692
0.0133817
0.0139455
0.0145541
0.0081778
0.00813248
0.00809487
0.00806316
0.00804096
0.00802933
0.00802724
0.00803446
0.00805678
0.00809473
0.00814885
0.00822023
0.00831054
0.00842211
0.00855846
0.00871462
0.00817261
0.00812712
0.00809045
0.00806117
0.00803854
0.00802681
0.00802723
0.00804002
0.00806642
0.00810723
0.00816322
0.00823535
0.00832509
0.00843452
0.00856625
0.00872145
0.00816362
0.00812076
0.00808551
0.008056
0.00803687
0.00802716
0.00802582
0.0080381
0.0080645
0.00810508
0.00816058
0.00823293
0.00832423
0.00843701
0.00857454
0.0087414
0.00815069
0.00811044
0.00807796
0.0080513
0.0080353
0.00802859
0.00802974
0.00804376
0.00807252
0.00811607
0.00817525
0.00825231
0.00834817
0.00846561
0.00860786
0.00877873
0.00813428
0.00809563