/*--------------------------------*- C++ -*----------------------------------*\
| =========                 |                                                 |
| \\      /  F ield         | OpenFOAM: The Open Source CFD Toolbox           |
|  \\    /   O peration     | Version:  2312                                  |
|   \\  /    A nd           | Website:  www.openfoam.com                      |
|    \\/     M anipulation  |                                                 |
\*---------------------------------------------------------------------------*/
FoamFile
{
    version     2.0;
    format      ascii;
    arch        "LSB;label=32;scalar=64";
    class       volVectorField;
    location    "0.1";
    object      D;
}
// * * * * * * * * * * * * * * * * * * * * * * * * * * * * * * * * * * * * * //

dimensions      [0 1 0 0 0 0 0];

internalField   nonuniform List<vector> 
1620
(
(0.000125493 -6.36629e-05 2.36996e-05)
(0.000112751 -7.29061e-05 6.91994e-06)
(9.53008e-05 -8.38948e-05 -6.26186e-06)
(7.8837e-05 -9.24695e-05 -1.5669e-05)
(6.70457e-05 -9.75202e-05 -2.21131e-05)
(6.12882e-05 -9.85026e-05 -2.59292e-05)
(6.1085e-05 -9.45612e-05 -2.71563e-05)
(6.45294e-05 -8.47481e-05 -2.58298e-05)
(6.86915e-05 -6.85503e-05 -2.20431e-05)
(7.01192e-05 -4.63182e-05 -1.59025e-05)
(6.54196e-05 -1.9492e-05 -7.48842e-06)
(5.18948e-05 9.36864e-06 3.11002e-06)
(2.82381e-05 3.67616e-05 1.56288e-05)
(-4.73608e-06 5.87147e-05 2.92607e-05)
(-4.3513e-05 7.17195e-05 4.20678e-05)
(-8.1892e-05 7.42445e-05 5.05144e-05)
(-0.000112074 6.86302e-05 5.03196e-05)
(-0.000127041 6.23894e-05 4.00078e-05)
(-0.000125493 6.36629e-05 2.36996e-05)
(-0.000112751 7.29061e-05 6.91994e-06)
(-9.53008e-05 8.38948e-05 -6.26186e-06)
(-7.8837e-05 9.24695e-05 -1.5669e-05)
(-6.70457e-05 9.75202e-05 -2.21131e-05)
(-6.12882e-05 9.85026e-05 -2.59292e-05)
(-6.1085e-05 9.45612e-05 -2.71563e-05)
(-6.45294e-05 8.47481e-05 -2.58298e-05)
(-6.86915e-05 6.85503e-05 -2.20431e-05)
(-7.01192e-05 4.63182e-05 -1.59025e-05)
(-6.54196e-05 1.9492e-05 -7.48842e-06)
(-5.18948e-05 -9.36864e-06 3.11002e-06)
(-2.82381e-05 -3.67616e-05 1.56288e-05)
(4.73608e-06 -5.87147e-05 2.92607e-05)
(4.3513e-05 -7.17195e-05 4.20678e-05)
(8.1892e-05 -7.42445e-05 5.05144e-05)
(0.000112074 -6.86302e-05 5.03196e-05)
(0.000127041 -6.23894e-05 4.00078e-05)
(9.92663e-05 -8.10395e-05 1.61987e-05)
(0.000101536 -8.77894e-05 9.60448e-06)
(9.86908e-05 -8.95865e-05 2.85907e-06)
(9.23943e-05 -8.66545e-05 -3.93302e-06)
(8.45984e-05 -8.06164e-05 -1.03312e-05)
(7.69675e-05 -7.26821e-05 -1.55344e-05)
(7.03876e-05 -6.32037e-05 -1.88817e-05)
(6.47802e-05 -5.19911e-05 -2.00262e-05)
(5.92282e-05 -3.87982e-05 -1.88846e-05)
(5.23065e-05 -2.37004e-05 -1.55509e-05)
(4.25152e-05 -7.28207e-06 -1.02476e-05)
(2.87377e-05 9.38597e-06 -3.32694e-06)
(1.06443e-05 2.49697e-05 4.67041e-06)
(-1.10505e-05 3.8263e-05 1.28935e-05)
(-3.45846e-05 4.86647e-05 2.00389e-05)
(-5.74582e-05 5.66017e-05 2.4434e-05)
(-7.69854e-05 6.37151e-05 2.48487e-05)
(-9.11578e-05 7.21012e-05 2.16606e-05)
(-9.92663e-05 8.10395e-05 1.61987e-05)
(-0.000101536 8.77894e-05 9.60448e-06)
(-9.86908e-05 8.95865e-05 2.85907e-06)
(-9.23943e-05 8.66545e-05 -3.93302e-06)
(-8.45984e-05 8.06164e-05 -1.03312e-05)
(-7.69675e-05 7.26821e-05 -1.55344e-05)
(-7.03876e-05 6.32037e-05 -1.88817e-05)
(-6.47802e-05 5.19911e-05 -2.00262e-05)
(-5.92282e-05 3.87982e-05 -1.88846e-05)
(-5.23065e-05 2.37004e-05 -1.55509e-05)
(-4.25152e-05 7.28207e-06 -1.02476e-05)
(-2.87377e-05 -9.38597e-06 -3.32694e-06)
(-1.06443e-05 -2.49697e-05 4.67041e-06)
(1.10505e-05 -3.8263e-05 1.28935e-05)
(3.45846e-05 -4.86647e-05 2.00389e-05)
(5.74582e-05 -5.66017e-05 2.4434e-05)
(7.69854e-05 -6.37151e-05 2.48487e-05)
(9.11578e-05 -7.21012e-05 2.16606e-05)
(7.30209e-05 -8.9419e-05 9.44082e-06)
(8.46423e-05 -9.64314e-05 8.92291e-06)
(9.28396e-05 -9.38107e-05 6.33608e-06)
(9.595e-05 -8.38227e-05 1.5211e-06)
(9.37028e-05 -6.97988e-05 -4.47249e-06)
(8.70036e-05 -5.44771e-05 -1.02088e-05)
(7.71427e-05 -3.96138e-05 -1.45889e-05)
(6.52361e-05 -2.61547e-05 -1.70033e-05)
(5.20548e-05 -1.45224e-05 -1.72461e-05)
(3.8086e-05 -4.8349e-06 -1.54256e-05)
(2.36977e-05 2.9945e-06 -1.19151e-05)
(9.30687e-06 9.28743e-06 -7.31882e-06)
(-4.53773e-06 1.47341e-05 -2.42094e-06)
(-1.72431e-05 2.05325e-05 1.92107e-06)
(-2.84615e-05 2.83592e-05 5.00498e-06)
(-3.85004e-05 3.99498e-05 6.68796e-06)
(-4.85784e-05 5.60223e-05 7.68785e-06)
(-6.02147e-05 7.43646e-05 8.76835e-06)
(-7.30209e-05 8.9419e-05 9.44082e-06)
(-8.46423e-05 9.64314e-05 8.92291e-06)
(-9.28396e-05 9.38107e-05 6.33608e-06)
(-9.595e-05 8.38227e-05 1.5211e-06)
(-9.37028e-05 6.97988e-05 -4.47249e-06)
(-8.70036e-05 5.44771e-05 -1.02088e-05)
(-7.71427e-05 3.96138e-05 -1.45889e-05)
(-6.52361e-05 2.61547e-05 -1.70033e-05)
(-5.20548e-05 1.45224e-05 -1.72461e-05)
(-3.8086e-05 4.8349e-06 -1.54256e-05)
(-2.36977e-05 -2.9945e-06 -1.19151e-05)
(-9.30687e-06 -9.28743e-06 -7.31882e-06)
(4.53773e-06 -1.47341e-05 -2.42094e-06)
(1.72431e-05 -2.05325e-05 1.92107e-06)
(2.84615e-05 -2.83592e-05 5.00498e-06)
(3.85004e-05 -3.99498e-05 6.68796e-06)
(4.85784e-05 -5.60223e-05 7.68785e-06)
(6.02147e-05 -7.43646e-05 8.76835e-06)
(0.000334225 -0.000224429 8.69856e-05)
(0.000316666 -0.000247432 3.33544e-05)
(0.000282693 -0.000266297 -1.30476e-05)
(0.000247088 -0.000275902 -5.03401e-05)
(0.000218866 -0.000275799 -7.83208e-05)
(0.000201772 -0.000265986 -9.66372e-05)
(0.000195476 -0.000245553 -0.000105041)
(0.00019635 -0.000213119 -0.000103615)
(0.000198291 -0.000167921 -9.27264e-05)
(0.000193822 -0.000110822 -7.28614e-05)
(0.000175472 -4.49041e-05 -4.45317e-05)
(0.000137344 2.44862e-05 -8.41952e-06)
(7.67462e-05 9.03256e-05 3.41101e-05)
(-4.32975e-06 0.000145227 8.00562e-05)
(-9.83433e-05 0.00018346 0.000123507)
(-0.00019264 0.000203299 0.000154752)
(-0.000271802 0.000208908 0.000161631)
(-0.000321457 0.000211167 0.000136063)
(-0.000334225 0.000224429 8.69856e-05)
(-0.000316666 0.000247432 3.33544e-05)
(-0.000282693 0.000266297 -1.30476e-05)
(-0.000247088 0.000275902 -5.03401e-05)
(-0.000218866 0.000275799 -7.83208e-05)
(-0.000201772 0.000265986 -9.66372e-05)
(-0.000195476 0.000245553 -0.000105041)
(-0.00019635 0.000213119 -0.000103615)
(-0.000198291 0.000167921 -9.27264e-05)
(-0.000193822 0.000110822 -7.28614e-05)
(-0.000175472 4.49041e-05 -4.45317e-05)
(-0.000137344 -2.44862e-05 -8.41952e-06)
(-7.67462e-05 -9.03256e-05 3.41101e-05)
(4.32975e-06 -0.000145227 8.00562e-05)
(9.83433e-05 -0.00018346 0.000123507)
(0.00019264 -0.000203299 0.000154752)
(0.000271802 -0.000208908 0.000161631)
(0.000321457 -0.000211167 0.000136063)
(0.000287531 -0.000245949 7.15124e-05)
(0.000293052 -0.000266123 4.5507e-05)
(0.000285368 -0.000271761 1.70654e-05)
(0.000268715 -0.000264089 -1.13304e-05)
(0.00024793 -0.000246798 -3.65496e-05)
(0.000227126 -0.00022292 -5.59653e-05)
(0.000208403 -0.000193727 -6.78846e-05)
(0.000191426 -0.000159243 -7.15039e-05)
(0.000173739 -0.000119284 -6.67134e-05)
(0.000151597 -7.43681e-05 -5.39108e-05)
(0.0001211 -2.61976e-05 -3.39063e-05)
(7.94074e-05 2.23906e-05 -7.96315e-06)
(2.58374e-05 6.80111e-05 2.20044e-05)
(-3.74252e-05 0.000107752 5.30893e-05)
(-0.000105297 0.000140362 8.10124e-05)
(-0.000170694 0.000167088 0.000100098)
(-0.000226231 0.000191504 0.000104606)
(-0.00026582 0.000218325 9.29466e-05)
(-0.000287531 0.000245949 7.15124e-05)
(-0.000293052 0.000266123 4.5507e-05)
(-0.000285368 0.000271761 1.70654e-05)
(-0.000268715 0.000264089 -1.13304e-05)
(-0.00024793 0.000246798 -3.65496e-05)
(-0.000227126 0.00022292 -5.59653e-05)
(-0.000208403 0.000193727 -6.78846e-05)
(-0.000191426 0.000159243 -7.15039e-05)
(-0.000173739 0.000119284 -6.67134e-05)
(-0.000151597 7.43681e-05 -5.39108e-05)
(-0.0001211 2.61976e-05 -3.39063e-05)
(-7.94074e-05 -2.23906e-05 -7.96315e-06)
(-2.58374e-05 -6.80111e-05 2.20044e-05)
(3.74252e-05 -0.000107752 5.30893e-05)
(0.000105297 -0.000140362 8.10124e-05)
(0.000170694 -0.000167088 0.000100098)
(0.000226231 -0.000191504 0.000104606)
(0.00026582 -0.000218325 9.29466e-05)
(0.000233955 -0.000256507 5.59116e-05)
(0.000259311 -0.000277767 5.12235e-05)
(0.000275147 -0.000275943 3.86272e-05)
(0.000277311 -0.000255745 1.93349e-05)
(0.000266302 -0.000224171 -2.09132e-06)
(0.000245315 -0.000187253 -2.1294e-05)
(0.000217773 -0.000148871 -3.52952e-05)
(0.000185988 -0.000111049 -4.24605e-05)
(0.000150927 -7.47411e-05 -4.22336e-05)
(0.000112634 -4.05161e-05 -3.49517e-05)
(7.09533e-05 -8.87101e-06 -2.17469e-05)
(2.6237e-05 1.98804e-05 -4.46979e-06)
(-2.01848e-05 4.60489e-05 1.44396e-05)
(-6.59912e-05 7.10941e-05 3.22069e-05)
(-0.000108424 9.78328e-05 4.61803e-05)
(-0.000145361 0.000129868 5.45591e-05)
(-0.000176666 0.000169829 5.74541e-05)
(-0.000205189 0.000216149 5.73877e-05)
(-0.000233955 0.000256507 5.59116e-05)
(-0.000259311 0.000277767 5.12235e-05)
(-0.000275147 0.000275943 3.86272e-05)
(-0.000277311 0.000255745 1.93349e-05)
(-0.000266302 0.000224171 -2.09132e-06)
(-0.000245315 0.000187253 -2.1294e-05)
(-0.000217773 0.000148871 -3.52952e-05)
(-0.000185988 0.000111049 -4.24605e-05)
(-0.000150927 7.47411e-05 -4.22336e-05)
(-0.000112634 4.05161e-05 -3.49517e-05)
(-7.09533e-05 8.87101e-06 -2.17469e-05)
(-2.6237e-05 -1.98804e-05 -4.46979e-06)
(2.01848e-05 -4.60489e-05 1.44396e-05)
(6.59912e-05 -7.10941e-05 3.22069e-05)
(0.000108424 -9.78328e-05 4.61803e-05)
(0.000145361 -0.000129868 5.45591e-05)
(0.000176666 -0.000169829 5.74541e-05)
(0.000205189 -0.000216149 5.73877e-05)
(0.000513896 -0.000419753 0.000186208)
(0.000497455 -0.000443089 8.68385e-05)
(0.000454073 -0.000456982 -8.19468e-06)
(0.000404633 -0.00046034 -8.90661e-05)
(0.000362694 -0.000451947 -0.000151721)
(0.000334667 -0.000430451 -0.000194324)
(0.000320825 -0.000393875 -0.000216257)
(0.000316435 -0.000340149 -0.000217755)
(0.000313047 -0.000268295 -0.000199599)
(0.000300161 -0.000179637 -0.000162842)
(0.000267301 -7.8538e-05 -0.000108759)
(0.000206357 2.76448e-05 -3.92074e-05)
(0.000113924 0.0001296 4.24865e-05)
(-6.80903e-06 0.000218152 0.00013014)
(-0.000145332 0.000287104 0.000213171)
(-0.000284815 0.000335732 0.000275811)
(-0.000404743 0.000369062 0.00029891)
(-0.000484896 0.000394924 0.0002675)
(-0.000513896 0.000419753 0.000186208)
(-0.000497455 0.000443089 8.68385e-05)
(-0.000454073 0.000456982 -8.19468e-06)
(-0.000404633 0.00046034 -8.90661e-05)
(-0.000362694 0.000451947 -0.000151721)
(-0.000334667 0.000430451 -0.000194324)
(-0.000320825 0.000393875 -0.000216257)
(-0.000316435 0.000340149 -0.000217755)
(-0.000313047 0.000268295 -0.000199599)
(-0.000300161 0.000179637 -0.000162842)
(-0.000267301 7.8538e-05 -0.000108759)
(-0.000206357 -2.76448e-05 -3.92074e-05)
(-0.000113924 -0.0001296 4.24865e-05)
(6.80902e-06 -0.000218152 0.00013014)
(0.000145332 -0.000287104 0.000213171)
(0.000284815 -0.000335732 0.000275811)
(0.000404743 -0.000369062 0.00029891)
(0.000484896 -0.000394924 0.0002675)
(0.000450051 -0.000410576 0.000162476)
(0.000461931 -0.00043775 0.000106856)
(0.00045263 -0.000443989 4.3953e-05)
(0.00042895 -0.000431496 -1.64845e-05)
(0.000398409 -0.000404346 -6.82885e-05)
(0.000366926 -0.00036613 -0.000107357)
(0.000337434 -0.000318623 -0.000131153)
(0.000309409 -0.000262199 -0.000138496)
(0.000279312 -0.00019703 -0.000129324)
(0.000241784 -0.000124251 -0.000104477)
(0.000191306 -4.66007e-05 -6.56077e-05)
(0.000123997 3.16882e-05 -1.52954e-05)
(3.92068e-05 0.00010577 4.26374e-05)
(-5.95001e-05 0.000171683 0.000102695)
(-0.000164396 0.000227995 0.000157396)
(-0.000264976 0.00027673 0.000197554)
(-0.000350641 0.000322293 0.000213896)
(-0.000413277 0.00036796 0.000200699)
(-0.000450051 0.000410576 0.000162476)
(-0.000461931 0.00043775 0.000106856)
(-0.00045263 0.000443989 4.3953e-05)
(-0.00042895 0.000431496 -1.64845e-05)
(-0.000398409 0.000404346 -6.82885e-05)
(-0.000366926 0.00036613 -0.000107357)
(-0.000337434 0.000318623 -0.000131153)
(-0.000309409 0.000262199 -0.000138496)
(-0.000279312 0.00019703 -0.000129324)
(-0.000241784 0.000124251 -0.000104477)
(-0.000191306 4.66007e-05 -6.56077e-05)
(-0.000123997 -3.16882e-05 -1.52954e-05)
(-3.92068e-05 -0.00010577 4.26374e-05)
(5.95001e-05 -0.000171683 0.000102695)
(0.000164396 -0.000227995 0.000157396)
(0.000264976 -0.00027673 0.000197554)
(0.000350641 -0.000322293 0.000213896)
(0.000413277 -0.00036796 0.000200699)
(0.000373794 -0.000397745 0.000133413)
(0.000411328 -0.000431424 0.000116244)
(0.000433838 -0.000434023 8.55953e-05)
(0.000436121 -0.000409532 4.69653e-05)
(0.000419435 -0.000366334 7.58279e-06)
(0.000388196 -0.000312537 -2.6349e-05)
(0.000347001 -0.000253883 -5.04167e-05)
(0.000298894 -0.000193707 -6.20377e-05)
(0.000245016 -0.000133862 -6.03174e-05)
(0.000185205 -7.56515e-05 -4.58988e-05)
(0.000119062 -2.02914e-05 -2.08316e-05)
(4.70301e-05 3.12148e-05 1.15857e-05)
(-2.88696e-05 7.86513e-05 4.70857e-05)
(-0.000104921 0.000123276 8.09633e-05)
(-0.000176348 0.000168114 0.000108951)
(-0.000238707 0.000217317 0.000128309)
(-0.00028997 0.000273997 0.000138394)
(-0.000332546 0.000338251 0.000139645)
(-0.000373794 0.000397745 0.000133413)
(-0.000411328 0.000431424 0.000116244)
(-0.000433838 0.000434023 8.55953e-05)
(-0.000436121 0.000409532 4.69653e-05)
(-0.000419435 0.000366334 7.5828e-06)
(-0.000388196 0.000312537 -2.6349e-05)
(-0.000347001 0.000253883 -5.04167e-05)
(-0.000298894 0.000193707 -6.20377e-05)
(-0.000245016 0.000133862 -6.03174e-05)
(-0.000185205 7.56516e-05 -4.58988e-05)
(-0.000119062 2.02914e-05 -2.08316e-05)
(-4.70301e-05 -3.12148e-05 1.15857e-05)
(2.88696e-05 -7.86513e-05 4.70857e-05)
(0.000104921 -0.000123276 8.09633e-05)
(0.000176348 -0.000168114 0.000108951)
(0.000238707 -0.000217317 0.000128309)
(0.00028997 -0.000273997 0.000138394)
(0.000332546 -0.000338251 0.000139645)
(0.000642874 -0.000630542 0.000290297)
(0.000635668 -0.000650836 0.000150043)
(0.000594584 -0.000655961 5.58007e-06)
(0.000541113 -0.000649005 -0.000124241)
(0.000491611 -0.000629257 -0.00022853)
(0.000455015 -0.000594346 -0.000301876)
(0.000432807 -0.000541251 -0.000342348)
(0.00042013 -0.000467306 -0.000350041)
(0.000407467 -0.000371435 -0.00032613)
(0.000382812 -0.000255347 -0.000272409)
(0.000334273 -0.000124201 -0.000191315)
(0.000252932 1.36415e-05 -8.65204e-05)
(0.000135571 0.000148023 3.58819e-05)
(-1.33615e-05 0.000269509 0.00016585)
(-0.000181326 0.000372398 0.00028809)
(-0.000349294 0.000456742 0.000382015)
(-0.000494963 0.000527372 0.000424002)
(-0.000596965 0.000587966 0.000393434)
(-0.000642874 0.000630542 0.000290297)
(-0.000635668 0.000650836 0.000150043)
(-0.000594584 0.000655961 5.58007e-06)
(-0.000541113 0.000649005 -0.000124241)
(-0.000491611 0.000629257 -0.00022853)
(-0.000455015 0.000594346 -0.000301876)
(-0.000432807 0.000541251 -0.000342348)
(-0.00042013 0.000467306 -0.000350041)
(-0.000407467 0.000371435 -0.00032613)
(-0.000382812 0.000255347 -0.000272409)
(-0.000334273 0.000124201 -0.000191315)
(-0.000252932 -1.36415e-05 -8.65204e-05)
(-0.000135571 -0.000148023 3.58819e-05)
(1.33615e-05 -0.000269509 0.00016585)
(0.000181326 -0.000372398 0.00028809)
(0.000349294 -0.000456742 0.000382015)
(0.000494963 -0.000527372 0.000424002)
(0.000596965 -0.000587966 0.000393434)
(0.00057614 -0.000569658 0.000253389)
(0.000595337 -0.000601185 0.000168489)
(0.000587551 -0.000606274 7.16135e-05)
(0.000561262 -0.000588951 -2.21368e-05)
(0.000525306 -0.000553473 -0.000102771)
(0.000486622 -0.000503165 -0.000163758)
(0.000448652 -0.000439757 -0.000201249)
(0.000410797 -0.000363857 -0.000213527)
(0.000368959 -0.000276092 -0.000200569)
(0.000316979 -0.000178265 -0.000163747)
(0.000248627 -7.39635e-05 -0.000105751)
(0.000159744 3.16484e-05 -3.07537e-05)
(5.00877e-05 0.000132905 5.52354e-05)
(-7.56292e-05 0.000225328 0.000144002)
(-0.000207963 0.000307288 0.000225074)
(-0.000334521 0.000380622 0.000286471)
(-0.000443171 0.000449077 0.000316581)
(-0.000525256 0.000514291 0.000306455)
(-0.00057614 0.000569658 0.000253389)
(-0.000595337 0.000601185 0.000168489)
(-0.000587551 0.000606274 7.16135e-05)
(-0.000561262 0.000588951 -2.21368e-05)
(-0.000525306 0.000553473 -0.000102771)
(-0.000486622 0.000503165 -0.000163758)
(-0.000448653 0.000439757 -0.000201249)
(-0.000410797 0.000363857 -0.000213527)
(-0.000368959 0.000276092 -0.000200569)
(-0.000316979 0.000178265 -0.000163747)
(-0.000248627 7.39635e-05 -0.000105751)
(-0.000159744 -3.16484e-05 -3.07537e-05)
(-5.00877e-05 -0.000132905 5.52354e-05)
(7.56292e-05 -0.000225328 0.000144002)
(0.000207963 -0.000307288 0.000225074)
(0.000334521 -0.000380622 0.000286471)
(0.000443171 -0.000449076 0.000316581)
(0.000525256 -0.000514291 0.000306455)
(0.0004995 -0.00051467 0.000209178)
(0.00054023 -0.000555968 0.000176475)
(0.000563121 -0.000562662 0.000127486)
(0.000563766 -0.000537525 7.10136e-05)
(0.00054323 -0.000488398 1.55325e-05)
(0.000505657 -0.000423619 -3.15264e-05)
(0.000455545 -0.000349691 -6.44838e-05)
(0.000395927 -0.000270902 -7.98388e-05)
(0.000327876 -0.000190042 -7.63661e-05)
(0.000251111 -0.000109293 -5.50253e-05)
(0.000165182 -3.06986e-05 -1.87726e-05)
(7.07152e-05 4.3968e-05 2.77324e-05)
(-2.97487e-05 0.000113793 7.86163e-05)
(-0.000131598 0.000179382 0.000127585)
(-0.000228852 0.000243072 0.000169034)
(-0.000315709 0.000308218 0.000199199)
(-0.000388758 0.000377227 0.000216628)
(-0.000448832 0.000448945 0.00022092)
(-0.0004995 0.00051467 0.000209178)
(-0.000540231 0.000555968 0.000176475)
(-0.000563121 0.000562662 0.000127486)
(-0.000563766 0.000537525 7.10136e-05)
(-0.00054323 0.000488398 1.55325e-05)
(-0.000505657 0.000423619 -3.15264e-05)
(-0.000455545 0.000349691 -6.44838e-05)
(-0.000395927 0.000270902 -7.98388e-05)
(-0.000327876 0.000190042 -7.63661e-05)
(-0.000251111 0.000109293 -5.50253e-05)
(-0.000165182 3.06986e-05 -1.87726e-05)
(-7.07152e-05 -4.3968e-05 2.77324e-05)
(2.97487e-05 -0.000113793 7.86163e-05)
(0.000131598 -0.000179382 0.000127585)
(0.000228852 -0.000243072 0.000169034)
(0.000315709 -0.000308218 0.000199199)
(0.000388758 -0.000377227 0.000216628)
(0.000448832 -0.000448945 0.00022092)
(0.000717829 -0.000815305 0.000364785)
(0.00072656 -0.000846449 0.0002013)
(0.000696621 -0.000852181 1.7724e-05)
(0.000647981 -0.000838865 -0.000156228)
(0.000597741 -0.00080856 -0.000301207)
(0.000556289 -0.000760045 -0.000406647)
(0.000526342 -0.000690572 -0.000468053)
(0.000503704 -0.000597562 -0.000484615)
(0.000479045 -0.000480142 -0.000457585)
(0.000440373 -0.000340355 -0.000389501)
(0.000375953 -0.000183696 -0.000284222)
(0.000277405 -1.86697e-05 -0.000147692)
(0.000142498 0.000144822 1.07531e-05)
(-2.30874e-05 0.00029802 0.000176927)
(-0.000205767 0.000435826 0.000330908)
(-0.000386111 0.000557582 0.00044774)
(-0.00054254 0.000664424 0.000501217)
(-0.000656576 0.000753305 0.000472893)
(-0.000717829 0.000815305 0.000364785)
(-0.00072656 0.000846449 0.0002013)
(-0.000696621 0.000852181 1.7724e-05)
(-0.000647981 0.000838865 -0.000156228)
(-0.000597741 0.00080856 -0.000301207)
(-0.000556289 0.000760045 -0.000406647)
(-0.000526342 0.000690572 -0.000468053)
(-0.000503704 0.000597562 -0.000484615)
(-0.000479045 0.000480142 -0.000457585)
(-0.000440373 0.000340355 -0.000389501)
(-0.000375953 0.000183696 -0.000284222)
(-0.000277405 1.86697e-05 -0.000147692)
(-0.000142498 -0.000144822 1.07531e-05)
(2.30874e-05 -0.00029802 0.000176927)
(0.000205767 -0.000435826 0.000330908)
(0.000386111 -0.000557582 0.00044774)
(0.00054254 -0.000664424 0.000501217)
(0.000656576 -0.000753305 0.000472893)
(0.000658113 -0.000711626 0.000306652)
(0.00068541 -0.00074821 0.000206281)
(0.000682868 -0.000755235 8.56456e-05)
(0.000658663 -0.000735936 -3.55183e-05)
(0.000621928 -0.000694709 -0.000142003)
(0.000579903 -0.00063487 -0.000223773)
(0.000536237 -0.000558232 -0.000274991)
(0.000490405 -0.000465703 -0.000293021)
(0.000438288 -0.000358411 -0.000277697)
(0.000373723 -0.000238767 -0.000230885)
(0.000290636 -0.000110956 -0.000156364)
(0.000185298 1.93788e-05 -5.99834e-05)
(5.8177e-05 0.000146305 5.00341e-05)
(-8.51542e-05 0.000265241 0.000162876)
(-0.000234546 0.000374332 0.000265313)
(-0.000377322 0.000474414 0.000342576)
(-0.000501189 0.000566677 0.000380273)
(-0.000596601 0.000648484 0.000368231)
(-0.000658113 0.000711626 0.000306652)
(-0.00068541 0.00074821 0.000206281)
(-0.000682868 0.000755235 8.56456e-05)
(-0.000658663 0.000735936 -3.55183e-05)
(-0.000621928 0.000694709 -0.000142003)
(-0.000579903 0.00063487 -0.000223773)
(-0.000536237 0.000558232 -0.00027499)
(-0.000490405 0.000465703 -0.000293021)
(-0.000438288 0.000358411 -0.000277697)
(-0.000373723 0.000238767 -0.000230885)
(-0.000290636 0.000110956 -0.000156364)
(-0.000185298 -1.93788e-05 -5.99834e-05)
(-5.8177e-05 -0.000146305 5.00341e-05)
(8.51542e-05 -0.000265241 0.000162876)
(0.000234546 -0.000374332 0.000265313)
(0.000377322 -0.000474414 0.000342576)
(0.000501189 -0.000566677 0.000380273)
(0.000596601 -0.000648484 0.000368231)
(0.000595968 -0.000617884 0.000244536)
(0.000636104 -0.000657619 0.000203177)
(0.000656395 -0.00066571 0.000144499)
(0.000654884 -0.000641575 7.67315e-05)
(0.000632331 -0.000590567 9.88033e-06)
(0.000591899 -0.000519795 -4.69123e-05)
(0.000537252 -0.000435546 -8.65854e-05)
(0.000470919 -0.000342513 -0.00010472)
(0.000393732 -0.000244192 -9.97369e-05)
(0.000305362 -0.000143567 -7.28333e-05)
(0.00020547 -4.34674e-05 -2.77135e-05)
(9.4929e-05 5.35866e-05 2.9873e-05)
(-2.33552e-05 0.000145935 9.28389e-05)
(-0.000144352 0.000233323 0.000153739)
(-0.000261663 0.000316963 0.000205869)
(-0.000369007 0.00039869 0.000244066)
(-0.000461813 0.000479055 0.000264688)
(-0.000537761 0.000554869 0.000265175)
(-0.000595968 0.000617884 0.000244536)
(-0.000636104 0.000657619 0.000203177)
(-0.000656395 0.00066571 0.000144499)
(-0.000654884 0.000641575 7.67315e-05)
(-0.000632331 0.000590567 9.88034e-06)
(-0.000591899 0.000519795 -4.69123e-05)
(-0.000537252 0.000435546 -8.65854e-05)
(-0.000470919 0.000342513 -0.00010472)
(-0.000393732 0.000244192 -9.97369e-05)
(-0.000305362 0.000143567 -7.28333e-05)
(-0.00020547 4.34674e-05 -2.77135e-05)
(-9.4929e-05 -5.35866e-05 2.9873e-05)
(2.33552e-05 -0.000145935 9.28389e-05)
(0.000144352 -0.000233323 0.000153739)
(0.000261663 -0.000316963 0.000205869)
(0.000369007 -0.00039869 0.000244066)
(0.000461813 -0.000479055 0.000264688)
(0.000537761 -0.000554869 0.000265175)
(0.000744466 -0.000970121 0.000386561)
(0.000769194 -0.00101891 0.00021484)
(0.00075552 -0.00103437 1.10391e-05)
(0.000718664 -0.00102187 -0.000191978)
(0.000673972 -0.00098525 -0.000368194)
(0.000631974 -0.000925382 -0.000501048)
(0.000596309 -0.000841075 -0.000582142)
(0.000563899 -0.00073079 -0.000608708)
(0.000526587 -0.000594347 -0.000581457)
(0.000473658 -0.000434184 -0.000503449)
(0.000394833 -0.000255829 -0.00038001)
(0.000283341 -6.73666e-05 -0.000219519)
(0.000138484 0.000122137 -3.46604e-05)
(-3.30269e-05 0.000304797 0.000156462)
(-0.000217624 0.00047554 0.000330248)
(-0.000397402 0.000631766 0.000459691)
(-0.000553979 0.000770611 0.000519618)
(-0.000672555 0.000885979 0.00049468)
(-0.000744466 0.000970121 0.000386561)
(-0.000769194 0.00101891 0.00021484)
(-0.00075552 0.00103437 1.10391e-05)
(-0.000718664 0.00102187 -0.000191978)
(-0.000673972 0.00098525 -0.000368194)
(-0.000631974 0.000925382 -0.000501048)
(-0.000596309 0.000841075 -0.000582142)
(-0.000563899 0.00073079 -0.000608708)
(-0.000526587 0.000594347 -0.000581457)
(-0.000473658 0.000434184 -0.000503449)
(-0.000394833 0.000255829 -0.00038001)
(-0.000283341 6.73666e-05 -0.000219519)
(-0.000138484 -0.000122137 -3.46604e-05)
(3.30269e-05 -0.000304797 0.000156462)
(0.000217624 -0.00047554 0.000330248)
(0.000397402 -0.000631766 0.000459691)
(0.000553979 -0.000770611 0.000519618)
(0.000672555 -0.000885979 0.00049468)
(0.00069477 -0.000833572 0.000315791)
(0.000730462 -0.00087752 0.000207628)
(0.00073583 -0.000889653 7.42463e-05)
(0.000717795 -0.000871909 -6.39493e-05)
(0.000684544 -0.000828102 -0.000188751)
(0.000642912 -0.000761604 -0.000286771)
(0.00059651 -0.000674583 -0.000349695)
(0.000545044 -0.000568459 -0.000373492)
(0.000484855 -0.000444932 -0.000357527)
(0.000410457 -0.000306928 -0.000303964)
(0.000316645 -0.000158981 -0.000217549)
(0.000200657 -6.84155e-06 -0.000105689)
(6.38474e-05 0.000143634 2.13622e-05)
(-8.76879e-05 0.000287853 0.000150482)
(-0.000243881 0.000423306 0.00026618)
(-0.000392731 0.000548924 0.000352007)
(-0.000522811 0.00066283 0.000393279)
(-0.000625238 0.000760085 0.000381067)
(-0.00069477 0.000833572 0.000315791)
(-0.000730462 0.00087752 0.000207628)
(-0.00073583 0.000889653 7.42463e-05)
(-0.000717795 0.000871909 -6.39493e-05)
(-0.000684544 0.000828102 -0.000188751)
(-0.000642912 0.000761604 -0.000286771)
(-0.00059651 0.000674583 -0.000349695)
(-0.000545044 0.000568459 -0.000373492)
(-0.000484855 0.000444932 -0.000357527)
(-0.000410457 0.000306928 -0.000303964)
(-0.000316645 0.000158981 -0.000217549)
(-0.000200657 6.84156e-06 -0.000105689)
(-6.38474e-05 -0.000143634 2.13622e-05)
(8.76879e-05 -0.000287853 0.000150482)
(0.000243881 -0.000423306 0.00026618)
(0.000392731 -0.000548924 0.000352007)
(0.000522811 -0.00066283 0.000393279)
(0.000625238 -0.000760085 0.000381067)
(0.000647566 -0.000707641 0.000242571)
(0.000689483 -0.000744808 0.000194759)
(0.000709377 -0.000752504 0.000130084)
(0.000707528 -0.000729422 5.63751e-05)
(0.000685209 -0.000678544 -1.65407e-05)
(0.000644902 -0.000605108 -7.88657e-05)
(0.000589368 -0.000514516 -0.000122573)
(0.000520507 -0.000411363 -0.00014245)
(0.000438907 -0.000299512 -0.000136531)
(0.000344298 -0.000182505 -0.000106094)
(0.000236582 -6.37797e-05 -5.53103e-05)
(0.000116925 5.35291e-05 9.37034e-06)
(-1.1547e-05 0.000167051 8.00857e-05)
(-0.000143714 0.000275542 0.000148589)
(-0.000273125 0.000378736 0.000207227)
(-0.000393132 0.000476424 0.000249612)
(-0.000497986 0.000566977 0.000270999)
(-0.000583535 0.000646167 0.000268712)
(-0.000647566 0.000707641 0.000242571)
(-0.000689483 0.000744808 0.000194759)
(-0.000709377 0.000752504 0.000130084)
(-0.000707528 0.000729422 5.63751e-05)
(-0.000685209 0.000678544 -1.65407e-05)
(-0.000644902 0.000605108 -7.88656e-05)
(-0.000589368 0.000514516 -0.000122573)
(-0.000520507 0.000411363 -0.00014245)
(-0.000438907 0.000299512 -0.000136531)
(-0.000344298 0.000182505 -0.000106094)
(-0.000236582 6.37797e-05 -5.53103e-05)
(-0.000116925 -5.35291e-05 9.37034e-06)
(1.1547e-05 -0.000167051 8.00857e-05)
(0.000143714 -0.000275542 0.000148589)
(0.000273125 -0.000378736 0.000207227)
(0.000393132 -0.000476424 0.000249612)
(0.000497986 -0.000566977 0.000270999)
(0.000583535 -0.000646167 0.000268712)
(0.000730659 -0.00109369 0.00035274)
(0.000768565 -0.00116302 0.000183453)
(0.00077161 -0.00119348 -2.41699e-05)
(0.000749977 -0.00118808 -0.00023868)
(0.000715367 -0.0011506 -0.000431677)
(0.000676895 -0.00108349 -0.000582306)
(0.000638453 -0.000987516 -0.00067815)
(0.000598196 -0.000862806 -0.000713758)
(0.000549757 -0.000710331 -0.000688649)
(0.00048457 -0.00053308 -0.000606002)
(0.000394694 -0.000336522 -0.00047241)
(0.000275609 -0.000128121 -0.000298495)
(0.000128322 8.39768e-05 -9.98349e-05)
(-3.98925e-05 0.000292521 0.000102606)
(-0.000216573 0.000491996 0.000283468)
(-0.000386691 0.000677912 0.000416144)
(-0.000535837 0.000844971 0.000478007)
(-0.000652734 0.000986043 0.000456357)
(-0.000730659 0.00109369 0.00035274)
(-0.000768565 0.00116302 0.000183453)
(-0.00077161 0.00119348 -2.41699e-05)
(-0.000749977 0.00118808 -0.00023868)
(-0.000715367 0.0011506 -0.000431677)
(-0.000676895 0.00108349 -0.000582306)
(-0.000638453 0.000987516 -0.00067815)
(-0.000598196 0.000862806 -0.000713758)
(-0.000549757 0.000710331 -0.000688649)
(-0.00048457 0.00053308 -0.000606002)
(-0.000394694 0.000336522 -0.00047241)
(-0.000275609 0.000128121 -0.000298495)
(-0.000128322 -8.39768e-05 -9.98349e-05)
(3.98925e-05 -0.000292521 0.000102606)
(0.000216573 -0.000491996 0.000283468)
(0.000386691 -0.000677912 0.000416144)
(0.000535837 -0.000844971 0.000478007)
(0.000652734 -0.000986043 0.000456357)
(0.000689482 -0.000931929 0.000279895)
(0.000732787 -0.000986574 0.000171096)
(0.00074737 -0.001007 3.45e-05)
(0.000738235 -0.000994181 -0.000110242)
(0.000711803 -0.000951134 -0.000244085)
(0.000673833 -0.000881173 -0.000351649)
(0.000627635 -0.000786944 -0.000422509)
(0.000573256 -0.000670547 -0.000451095)
(0.000507872 -0.000534323 -0.000436022)
(0.000427186 -0.000381642 -0.000379476)
(0.000327349 -0.000217199 -0.000286897)
(0.000206881 -4.66312e-05 -0.000166924)
(6.80176e-05 0.000124392 -3.13874e-05)
(-8.29942e-05 0.000291135 0.00010501)
(-0.00023683 0.000450127 0.000225662)
(-0.000382952 0.000598403 0.00031398)
(-0.000511623 0.000732037 0.000356233)
(-0.000615329 0.000845357 0.000344686)
(-0.000689482 0.000931929 0.000279895)
(-0.000732787 0.000986574 0.000171096)
(-0.00074737 0.001007 3.45e-05)
(-0.000738235 0.000994181 -0.000110242)
(-0.000711803 0.000951134 -0.000244085)
(-0.000673833 0.000881173 -0.000351649)
(-0.000627635 0.000786944 -0.000422509)
(-0.000573256 0.000670547 -0.000451095)
(-0.000507872 0.000534323 -0.000436022)
(-0.000427186 0.000381642 -0.000379476)
(-0.000327349 0.000217199 -0.000286897)
(-0.000206881 4.66312e-05 -0.000166924)
(-6.80176e-05 -0.000124392 -3.13874e-05)
(8.29942e-05 -0.000291135 0.00010501)
(0.00023683 -0.000450127 0.000225662)
(0.000382952 -0.000598403 0.00031398)
(0.000511623 -0.000732037 0.000356233)
(0.000615329 -0.000845357 0.000344686)
(0.000654923 -0.000780761 0.000205007)
(0.000699702 -0.000818697 0.000154214)
(0.000721852 -0.000827507 8.69079e-05)
(0.000722353 -0.000806273 1.10825e-05)
(0.000702773 -0.00075685 -6.37382e-05)
(0.000665201 -0.000683017 -0.00012788)
(0.00061174 -0.000589188 -0.000173082)
(0.000543826 -0.0004796 -0.000193745)
(0.000461951 -0.000358182 -0.000187617)
(0.000366058 -0.000228757 -0.000155905)
(0.000256407 -9.51218e-05 -0.000102917)
(0.00013447 3.91589e-05 -3.5364e-05)
(3.48705e-06 0.000171082 3.85806e-05)
(-0.000131532 0.000298373 0.000110293)
(-0.000264339 0.000419217 0.000171624)
(-0.00038832 0.000531551 0.000215636)
(-0.000497465 0.000632283 0.000237217)
(-0.000587212 0.000717042 0.00023365)
(-0.000654923 0.000780761 0.000205007)
(-0.000699702 0.000818697 0.000154214)
(-0.000721852 0.000827507 8.69079e-05)
(-0.000722353 0.000806273 1.10825e-05)
(-0.000702773 0.00075685 -6.37382e-05)