/*--------------------------------*- C++ -*----------------------------------*\
| =========                 |                                                 |
| \\      /  F ield         | OpenFOAM: The Open Source CFD Toolbox           |
|  \\    /   O peration     | Version:  2312                                  |
|   \\  /    A nd           | Website:  www.openfoam.com                      |
|    \\/     M anipulation  |                                                 |
\*---------------------------------------------------------------------------*/
FoamFile
{
    version     2.0;
    format      ascii;
    arch        "LSB;label=32;scalar=64";
    class       volVectorField;
    location    "0.1";
    object      D;
}
// * * * * * * * * * * * * * * * * * * * * * * * * * * * * * * * * * * * * * //

dimensions      [0 1 0 0 0 0 0];

internalField   nonuniform List<vector> 
1620
(
(-5.44908e-05 -2.58723e-05 -2.82608e-05)
(-4.27414e-05 -9.12782e-06 -2.2705e-05)
(-2.61242e-05 7.26943e-06 -1.3973e-05)
(-7.85455e-06 2.41277e-05 -3.89285e-06)
(9.80913e-06 4.22717e-05 7.0857e-06)
(2.48894e-05 6.22133e-05 1.92011e-05)
(3.53477e-05 8.3826e-05 3.30155e-05)
(3.92422e-05 0.000105623 4.86604e-05)
(3.7092e-05 0.000123606 6.30007e-05)
(2.97931e-05 0.000134132 6.45554e-05)
(2.02505e-05 0.000135895 5.41544e-05)
(1.31145e-05 0.000130949 4.19825e-05)
(1.05038e-05 0.000122345 3.01733e-05)
(1.18557e-05 0.000111775 1.88291e-05)
(1.60294e-05 9.99009e-05 7.90667e-06)
(2.16477e-05 8.67799e-05 -2.46925e-06)
(2.68869e-05 7.20873e-05 -1.17916e-05)
(2.8797e-05 5.53896e-05 -1.84538e-05)
(2.42724e-05 3.68978e-05 -1.90502e-05)
(1.34711e-05 1.8388e-05 -1.3851e-05)
(-1.17916e-07 4.90422e-07 -6.55824e-06)
(-1.37426e-05 -1.70055e-05 1.31915e-06)
(-2.60155e-05 -3.45506e-05 9.68156e-06)
(-3.59699e-05 -5.2764e-05 1.91343e-05)
(-4.24237e-05 -7.21057e-05 3.07229e-05)
(-4.39036e-05 -9.19343e-05 4.5225e-05)
(-4.12735e-05 -0.000108803 5.99532e-05)
(-3.491e-05 -0.000119192 6.27305e-05)
(-2.69636e-05 -0.00012127 5.40145e-05)
(-2.1847e-05 -0.000116586 4.28058e-05)
(-2.17229e-05 -0.000107868 3.09161e-05)
(-2.63025e-05 -9.69775e-05 1.85226e-05)
(-3.44061e-05 -8.49391e-05 5.78524e-06)
(-4.42375e-05 -7.21038e-05 -6.86155e-06)
(-5.32999e-05 -5.82119e-05 -1.84603e-05)
(-5.79426e-05 -4.27317e-05 -2.68677e-05)
(-2.64992e-05 -2.41063e-05 -1.23357e-05)
(-2.05276e-05 -5.12204e-06 -7.08776e-06)
(-1.33592e-05 1.10043e-05 -1.73805e-06)
(-5.36295e-06 2.50403e-05 4.2236e-06)
(2.9479e-06 3.74468e-05 1.08491e-05)
(1.08093e-05 4.886e-05 1.78688e-05)
(1.75393e-05 5.95535e-05 2.49412e-05)
(2.29033e-05 6.94156e-05 3.15478e-05)
(2.73877e-05 7.83735e-05 3.6525e-05)
(2.99755e-05 8.64504e-05 3.7666e-05)
(3.03592e-05 9.31251e-05 3.51414e-05)
(2.89747e-05 9.74964e-05 3.05761e-05)
(2.69739e-05 9.91904e-05 2.4914e-05)
(2.47106e-05 9.80739e-05 1.87529e-05)
(2.20774e-05 9.37872e-05 1.25744e-05)
(1.88002e-05 8.57246e-05 6.73738e-06)
(1.47403e-05 7.34959e-05 1.186e-06)
(9.76122e-06 5.61799e-05 -4.57773e-06)
(4.46734e-06 3.52082e-05 -4.90172e-06)
(-9.23013e-07 1.56192e-05 -8.98391e-09)
(-6.67774e-06 -9.2269e-07 4.28428e-06)
(-1.24971e-05 -1.5104e-05 8.74157e-06)
(-1.81146e-05 -2.72948e-05 1.36838e-05)
(-2.31455e-05 -3.81274e-05 1.90812e-05)
(-2.73372e-05 -4.79739e-05 2.48417e-05)
(-3.08557e-05 -5.68546e-05 3.06816e-05)
(-3.45205e-05 -6.48311e-05 3.54834e-05)
(-3.73346e-05 -7.20276e-05 3.67685e-05)
(-3.87761e-05 -7.81742e-05 3.45184e-05)
(-3.9131e-05 -8.24244e-05 3.00324e-05)
(-3.92659e-05 -8.42968e-05 2.40447e-05)
(-3.9329e-05 -8.35815e-05 1.70972e-05)
(-3.9011e-05 -7.98724e-05 9.71508e-06)
(-3.78189e-05 -7.25041e-05 2.40381e-06)
(-3.54092e-05 -6.09949e-05 -4.62502e-06)
(-3.15015e-05 -4.43815e-05 -1.15496e-05)
(-1.05069e-05 -2.36771e-05 4.94335e-06)
(-8.95617e-06 -3.75753e-06 6.5163e-06)
(-9.20112e-06 1.19435e-05 8.4025e-06)
(-9.13147e-06 2.31135e-05 1.06597e-05)
(-7.83478e-06 3.04964e-05 1.33124e-05)
(-4.96185e-06 3.52347e-05 1.57546e-05)
(-1.43732e-07 3.8415e-05 1.69047e-05)
(7.24444e-06 4.11907e-05 1.5782e-05)
(1.80667e-05 4.50568e-05 1.31087e-05)
(3.05511e-05 5.11573e-05 1.36157e-05)
(3.94868e-05 5.96425e-05 1.76607e-05)
(4.37702e-05 6.91575e-05 1.95849e-05)
(4.36052e-05 7.77906e-05 1.91476e-05)
(3.96102e-05 8.38902e-05 1.74151e-05)
(3.23895e-05 8.59323e-05 1.53741e-05)
(2.2628e-05 8.24344e-05 1.35861e-05)
(1.15505e-05 7.23141e-05 1.20543e-05)
(1.62773e-06 5.54578e-05 1.06589e-05)
(-4.17687e-06 3.48657e-05 1.05832e-05)
(-5.60003e-06 1.54444e-05 1.17236e-05)
(-5.28204e-06 3.54077e-07 1.28409e-05)
(-5.18449e-06 -1.03591e-05 1.42391e-05)
(-6.0106e-06 -1.7578e-05 1.60893e-05)
(-7.99848e-06 -2.23803e-05 1.78514e-05)
(-1.16181e-05 -2.56327e-05 1.84442e-05)
(-1.78389e-05 -2.82494e-05 1.68209e-05)
(-2.78395e-05 -3.16744e-05 1.36329e-05)
(-3.9953e-05 -3.72176e-05 1.34942e-05)
(-4.91121e-05 -4.53152e-05 1.68484e-05)
(-5.45084e-05 -5.48084e-05 1.81956e-05)
(-5.58383e-05 -6.39083e-05 1.72649e-05)
(-5.32082e-05 -7.08322e-05 1.50077e-05)
(-4.69136e-05 -7.37853e-05 1.23148e-05)
(-3.75783e-05 -7.10221e-05 9.71943e-06)
(-2.65517e-05 -6.13117e-05 7.30329e-06)
(-1.64872e-05 -4.45338e-05 5.19221e-06)
(-0.000139667 -7.70563e-05 -7.83139e-05)
(-0.000111899 -2.25658e-05 -6.44186e-05)
(-7.41429e-05 2.7262e-05 -3.90758e-05)
(-3.22763e-05 7.34317e-05 -7.99315e-06)
(9.02855e-06 0.000118579 2.66595e-05)
(4.55349e-05 0.000164848 6.49057e-05)
(7.33685e-05 0.00021273 0.000107232)
(8.97971e-05 0.000260007 0.000151639)
(9.5983e-05 0.000300665 0.000188299)
(9.3402e-05 0.000328653 0.000196506)
(8.30138e-05 0.00034138 0.000174695)
(7.25684e-05 0.000341012 0.000141468)
(6.71049e-05 0.000331351 0.000105629)
(6.72543e-05 0.000314605 7.00711e-05)
(7.1546e-05 0.000291123 3.5631e-05)
(7.73897e-05 0.000259806 3.09155e-06)
(8.11816e-05 0.000218844 -2.5353e-05)
(7.76993e-05 0.000167614 -4.45498e-05)
(6.27502e-05 0.000109991 -4.72507e-05)
(3.69233e-05 5.28002e-05 -3.39427e-05)
(5.44882e-06 7.70629e-07 -1.26152e-05)
(-2.64445e-05 -4.61932e-05 1.17721e-05)
(-5.55985e-05 -9.00578e-05 3.81708e-05)
(-7.97697e-05 -0.000133039 6.791e-05)
(-9.70347e-05 -0.000176554 0.000102994)
(-0.000106145 -0.000219829 0.000143071)
(-0.00010951 -0.000257923 0.000179468)
(-0.00010844 -0.000285107 0.000191068)
(-0.00010256 -0.00029822 0.000173637)
(-9.84037e-05 -0.000298552 0.0001429)
(-0.000100499 -0.000289381 0.000106544)
(-0.000109408 -0.000273042 6.74886e-05)
(-0.000123241 -0.000250263 2.72115e-05)
(-0.000138492 -0.000220211 -1.24601e-05)
(-0.000150358 -0.00018106 -4.79782e-05)
(-0.00015246 -0.000132039 -7.27498e-05)
(-8.99511e-05 -7.39066e-05 -3.57753e-05)
(-7.18228e-05 -1.71699e-05 -2.33653e-05)
(-5.01333e-05 3.161e-05 -5.32204e-06)
(-2.58889e-05 7.36368e-05 1.62378e-05)
(-6.50767e-07 0.000110804 4.02716e-05)
(2.35407e-05 0.000145259 6.57841e-05)
(4.49296e-05 0.000178143 9.14591e-05)
(6.27966e-05 0.000209251 0.000114999)
(7.76677e-05 0.000237341 0.000132259)
(8.80552e-05 0.0002612 0.000137759)
(9.2091e-05 0.000279678 0.000130533)
(9.09541e-05 0.000291341 0.00011478)
(8.71259e-05 0.000295637 9.43569e-05)
(8.17726e-05 0.000292049 7.18835e-05)
(7.49001e-05 0.00027928 4.91382e-05)
(6.593e-05 0.00025531 2.74351e-05)
(5.44113e-05 0.00021838 7.84658e-06)
(4.01225e-05 0.00016699 -7.64739e-06)
(2.43141e-05 0.00010681 -9.42176e-06)
(7.61498e-06 4.8949e-05 2.00241e-06)
(-1.02134e-05 -4.30518e-07 1.668e-05)
(-2.83635e-05 -4.23679e-05 3.31867e-05)
(-4.59189e-05 -7.857e-05 5.13271e-05)
(-6.18579e-05 -0.000111199 7.09587e-05)
(-7.56229e-05 -0.000141674 9.16434e-05)
(-8.76722e-05 -0.00017019 0.000111919)
(-9.95436e-05 -0.000195854 0.000128072)
(-0.00011012 -0.000217852 0.000134153)
(-0.000117179 -0.00023551 0.000127929)
(-0.000121176 -0.000247382 0.000112435)
(-0.000123726 -0.000252611 9.08328e-05)
(-0.000125319 -0.000250456 6.55553e-05)
(-0.000125323 -0.000239463 3.85897e-05)
(-0.00012252 -0.00021743 1.18138e-05)
(-0.000115884 -0.000182372 -1.28061e-05)
(-0.000104761 -0.000132651 -3.22488e-05)
(-5.01136e-05 -7.22731e-05 1.01118e-05)
(-4.00831e-05 -1.50676e-05 1.64195e-05)
(-3.2425e-05 3.30158e-05 2.65062e-05)
(-2.37491e-05 7.10656e-05 3.88171e-05)
(-1.27597e-05 0.000100822 5.24183e-05)
(7.57041e-07 0.00012477 6.53768e-05)
(1.6984e-05 0.000145097 7.47841e-05)
(3.64371e-05 0.000163721 7.82511e-05)
(6.00993e-05 0.000182611 7.76085e-05)
(8.36027e-05 0.000202997 8.09868e-05)
(0.000100415 0.000224483 8.69525e-05)
(0.000108165 0.000244679 8.76204e-05)
(0.000106738 0.000260304 8.20308e-05)
(9.72368e-05 0.000268183 7.22491e-05)
(8.08902e-05 0.000265128 6.08577e-05)
(5.91386e-05 0.000247937 4.97433e-05)
(3.44599e-05 0.000214244 3.99166e-05)
(1.14593e-05 0.000164276 3.27703e-05)
(-4.90474e-06 0.000105089 3.1789e-05)
(-1.40252e-05 4.83219e-05 3.66869e-05)
(-1.98724e-05 1.25246e-06 4.39686e-05)
(-2.58364e-05 -3.56236e-05 5.28091e-05)
(-3.31703e-05 -6.43326e-05 6.28208e-05)
(-4.22336e-05 -8.73652e-05 7.24204e-05)
(-5.37143e-05 -0.000106689 7.88932e-05)
(-6.90166e-05 -0.000123986 7.99422e-05)
(-8.99657e-05 -0.000141288 7.75379e-05)
(-0.000112401 -0.000160203 7.92756e-05)
(-0.000130426 -0.000180811 8.328e-05)
(-0.000141764 -0.000201114 8.20852e-05)
(-0.000145214 -0.000217961 7.46359e-05)
(-0.000140762 -0.000227878 6.26797e-05)
(-0.000128849 -0.000227167 4.85848e-05)
(-0.000110527 -0.00021214 3.42996e-05)
(-8.81683e-05 -0.000180119 2.12674e-05)
(-6.63679e-05 -0.000131193 1.17142e-05)
(-0.000218244 -0.000131082 -0.000117111)
(-0.000176668 -4.12866e-05 -9.73518e-05)
(-0.000120989 4.06824e-05 -5.60296e-05)
(-5.86978e-05 0.00011554 -1.93224e-06)
(3.4251e-06 0.000187138 6.05227e-05)
(5.91215e-05 0.000258726 0.000129902)
(0.000103189 0.000331077 0.000204862)
(0.00013268 0.000401467 0.000279949)
(0.000148819 0.000463354 0.000340542)
(0.000153596 0.000509396 0.00036051)
(0.000147263 0.000534953 0.000332249)
(0.000136228 0.000541171 0.000278708)
(0.000128406 0.000532242 0.000215702)
(0.000126269 0.000510611 0.000150887)
(0.000128664 0.000476468 8.78857e-05)
(0.000132092 0.000427912 2.94576e-05)
(0.000131509 0.000362177 -1.98648e-05)
(0.000120552 0.000278974 -5.2006e-05)
(9.50807e-05 0.000185327 -5.8054e-05)
(5.6087e-05 9.23386e-05 -3.86488e-05)
(9.30185e-06 8.03046e-06 -3.78099e-06)
(-3.85531e-05 -6.72392e-05 3.87735e-05)
(-8.26523e-05 -0.000136494 8.64103e-05)
(-0.000119487 -0.00020305 0.000140004)
(-0.000146743 -0.000268834 0.000200881)
(-0.000163899 -0.000333014 0.000266408)
(-0.000174007 -0.000390807 0.000324375)
(-0.000179797 -0.000435635 0.000349009)
(-0.000180612 -0.000462138 0.000327849)
(-0.000179967 -0.000469938 0.000278354)
(-0.000184694 -0.000462554 0.000214207)
(-0.000196688 -0.000442461 0.000143044)
(-0.000213929 -0.000410183 6.9638e-05)
(-0.000231583 -0.000364064 -1.39589e-06)
(-0.000243015 -0.000301277 -6.32479e-05)
(-0.000240367 -0.000221305 -0.00010549)
(-0.000154707 -0.000125809 -4.83564e-05)
(-0.000124296 -3.56921e-05 -3.10009e-05)
(-8.80896e-05 4.3142e-05 9.23775e-08)
(-4.76955e-05 0.000111816 3.96874e-05)
(-5.71626e-06 0.000173126 8.48733e-05)
(3.46063e-05 0.000230212 0.000133192)
(7.049e-05 0.000284777 0.000181605)
(0.000100553 0.000336478 0.000225433)
(0.000124957 0.000383215 0.000257668)
(0.000142619 0.000422524 0.000269965)
(0.000151512 0.000452631 0.000259356)
(0.000151911 0.000471836 0.000231729)
(0.000147107 0.000479105 0.000194048)
(0.000139146 0.000473455 0.000151665)
(0.000128364 0.000452885 0.000108472)
(0.000114014 0.000414426 6.7553e-05)
(9.53464e-05 0.00035542 3.19973e-05)
(7.21297e-05 0.000274397 6.9065e-06)
(4.58522e-05 0.000180518 2.69122e-06)
(1.75235e-05 8.91524e-05 1.86442e-05)
(-1.26969e-05 9.90833e-06 4.39381e-05)
(-4.35679e-05 -5.80704e-05 7.43996e-05)
(-7.34657e-05 -0.000117397 0.000108547)
(-0.000100668 -0.000171294 0.000145498)
(-0.000124191 -0.000221913 0.000183855)
(-0.000144457 -0.000269571 0.000220505)
(-0.000163251 -0.000312765 0.000249482)
(-0.00018057 -0.000349568 0.000262048)
(-0.000194189 -0.000378802 0.000252908)
(-0.000202875 -0.000398814 0.000225538)
(-0.000208443 -0.000408026 0.000185488)
(-0.000211782 -0.000405023 0.000137769)
(-0.000212176 -0.000387509 8.67184e-05)
(-0.000207866 -0.000352225 3.64909e-05)
(-0.000197197 -0.000296209 -8.25482e-06)
(-0.000179207 -0.000217753 -4.06513e-05)
(-9.86438e-05 -0.000122106 2.46292e-05)
(-7.82901e-05 -3.37447e-05 3.5202e-05)
(-5.99457e-05 4.26161e-05 5.48277e-05)
(-3.98379e-05 0.000105317 7.99192e-05)
(-1.66563e-05 0.000156613 0.000107843)
(9.43698e-06 0.000199859 0.000135071)
(3.79699e-05 0.000237977 0.000157114)
(6.87034e-05 0.000273185 0.000170254)
(0.000101498 0.00030733 0.000175327)
(0.000132542 0.000341553 0.000181354)
(0.00015542 0.000374953 0.000186997)
(0.000166387 0.00040447 0.000184119)
(0.000164875 0.000425856 0.000171291)
(0.000151982 0.000434817 0.000151142)
(0.000129291 0.000426953 0.000127622)
(9.88011e-05 0.000397879 0.000104293)
(6.38537e-05 0.000344471 8.40203e-05)
(3.01994e-05 0.000267511 7.02689e-05)
(3.51791e-06 0.000177172 6.76752e-05)
(-1.52691e-05 8.94334e-05 7.58618e-05)
(-3.01957e-05 1.46329e-05 9.03028e-05)
(-4.52124e-05 -4.60681e-05 0.000108629)
(-6.18113e-05 -9.53444e-05 0.000129251)
(-8.02197e-05 -0.000136673 0.000149442)
(-0.000100744 -0.000172833 0.00016528)
(-0.000124348 -0.000205837 0.00017335)
(-0.000152292 -0.000237575 0.000174467)
(-0.000181661 -0.000269678 0.000177054)
(-0.000206721 -0.000301909 0.000179099)
(-0.000223456 -0.000331848 0.000172736)
(-0.000229815 -0.000355323 0.000156209)
(-0.000225311 -0.000367548 0.00013162)
(-0.000210342 -0.000363385 0.000102662)
(-0.000186204 -0.000337764 7.3147e-05)
(-0.000155866 -0.000287098 4.68022e-05)
(-0.000124829 -0.00021191 2.85413e-05)
(-0.000292281 -0.000189836 -0.000128572)
(-0.000238527 -6.97724e-05 -0.000107138)
(-0.000167909 4.14794e-05 -5.45359e-05)
(-8.86611e-05 0.000143577 1.9016e-05)
(-8.95817e-06 0.00024045 0.000106943)
(6.36306e-05 0.000335719 0.000205441)
(0.000123143 0.000430344 0.000310322)
(0.000166468 0.00052171 0.000412841)
(0.000194288 0.000603791 0.000495633)
(0.000209543 0.000668471 0.000529953)
(0.000212466 0.000708463 0.000501911)
(0.000204163 0.000723187 0.000433834)
(0.00019535 0.000717165 0.000347144)
(0.000190292 0.000692561 0.000254806)
(0.000188711 0.000649405 0.000164531)
(0.00018694 0.00058555 8.20767e-05)
(0.000179324 0.000498304 1.43596e-05)
(0.000159369 0.000388497 -2.90209e-05)
(0.000123235 0.000265257 -3.94683e-05)
(7.22354e-05 0.000142156 -1.76767e-05)
(1.23072e-05 2.9254e-05 2.65844e-05)
(-4.91724e-05 -7.20406e-05 8.41768e-05)
(-0.000106252 -0.000164846 0.000150846)
(-0.000154589 -0.000252929 0.000225966)
(-0.000191753 -0.000338594 0.000309112)
(-0.000217766 -0.000421483 0.000395541)
(-0.000235597 -0.000498029 0.000471503)
(-0.000249948 -0.000561551 0.000509864)
(-0.000261556 -0.000603996 0.000491335)
(-0.000267338 -0.000622253 0.000428782)
(-0.00027572 -0.000619667 0.000340374)
(-0.000289724 -0.000598293 0.00023906)
(-0.00030779 -0.000558451 0.000134109)
(-0.000324618 -0.000498279 3.38609e-05)
(-0.000332683 -0.000415046 -5.16462e-05)
(-0.000323697 -0.000309285 -0.000109621)
(-0.000220858 -0.000180809 -3.74251e-05)
(-0.000178422 -6.36073e-05 -1.86464e-05)
(-0.000128108 4.16382e-05 2.18929e-05)
(-7.21194e-05 0.000134973 7.69246e-05)
(-1.40195e-05 0.000219442 0.000141589)
(4.18822e-05 0.000298558 0.000211542)
(9.18372e-05 0.000374207 0.000281657)
(0.00013376 0.000445879 0.000344953)
(0.000167507 0.000510983 0.000392165)
(0.00019293 0.000565784 0.000412673)
(0.000208009 0.00060764 0.000401596)
(0.000211198 0.000634702 0.000365042)
(0.000206374 0.000645212 0.00031226)
(0.000196419 0.000637865 0.000251381)
(0.000182087 0.000610339 0.00018891)
(0.000162622 0.000559295 0.000130244)
(0.000137082 0.000481822 8.07241e-05)
(0.000105283 0.000377588 4.76397e-05)
(6.86874e-05 0.000257743 4.01484e-05)
(2.86298e-05 0.000139604 5.75348e-05)
(-1.41192e-05 3.46527e-05 9.02471e-05)
(-5.78756e-05 -5.68755e-05 0.000132337)
(-0.000100304 -0.000137922 0.000180841)
(-0.000138959 -0.000212209 0.000233648)
(-0.0001723 -0.000282251 0.000288012)
(-0.00020051 -0.000348468 0.000339225)
(-0.000225586 -0.000409198 0.000379703)
(-0.000249333 -0.000461316 0.000398909)
(-0.000270076 -0.000502796 0.000389194)
(-0.000284251 -0.000531845 0.000352695)
(-0.000293435 -0.000545806 0.000296319)
(-0.000298775 -0.00054265 0.000227654)
(-0.000299572 -0.000519603 0.000153863)
(-0.000293756 -0.000472969 8.18677e-05)
(-0.000279203 -0.0003995 1.91606e-05)
(-0.000254712 -0.000298519 -2.45382e-05)
(-0.000154441 -0.000173126 5.75179e-05)
(-0.00012282 -6.07551e-05 7.01764e-05)
(-9.18228e-05 3.905e-05 9.71023e-05)
(-5.80758e-05 0.000123775 0.000133379)
(-2.0776e-05 0.000195778 0.000174735)
(1.90734e-05 0.000258755 0.000216107)
(5.99158e-05 0.000315758 0.000251614)
(0.000100543 0.000368616 0.000276206)
(0.000140089 0.000418381 0.000289061)
(0.000176902 0.000465995 0.000297506)
(0.000204045 0.000510141 0.000301997)
(0.000217516 0.000547353 0.000295647)
(0.000216544 0.000572815 0.000276232)
(0.000202101 0.000581742 0.00024661)
(0.000175786 0.000569191 0.000211891)
(0.000139717 0.000530238 0.000177361)
(9.75237e-05 0.000461513 0.000147838)
(5.52253e-05 0.000364586 0.000128346)
(1.86376e-05 0.000251428 0.00012358)
(-1.10176e-05 0.000140064 0.000133191)
(-3.72913e-05 4.25499e-05 0.000152827)
(-6.3902e-05 -3.91759e-05 0.000179161)
(-9.20504e-05 -0.000108026 0.000209422)
(-0.000121333 -0.00016797 0.000239808)
(-0.000151162 -0.000222056 0.000265405)
(-0.000181761 -0.000271968 0.000281661)
(-0.000214018 -0.000318739 0.000287585)
(-0.000248369 -0.000363852 0.000289779)
(-0.000278244 -0.000406832 0.000288434)
(-0.00029924 -0.000445022 0.00027676)
(-0.000308788 -0.000473631 0.000251676)
(-0.000305805 -0.000487154 0.000215289)
(-0.000290308 -0.000479666 0.000172444)
(-0.000263407 -0.000445362 0.000128851)
(-0.000228107 -0.000380295 9.05311e-05)
(-0.000189949 -0.000285671 6.44633e-05)
(-0.00036446 -0.000253499 -0.000105888)
(-0.000299685 -0.000109649 -8.66636e-05)
(-0.000216104 2.65248e-05 -2.87032e-05)
(-0.000122286 0.000153286 5.78774e-05)
(-2.71808e-05 0.000273717 0.000165021)
(6.09573e-05 0.000391194 0.000286504)
(0.000135722 0.000506793 0.000415234)
(0.000193651 0.000618285 0.000539699)
(0.000234638 0.000720274 0.000640856)
(0.000261955 0.000804113 0.000690528)
(0.00027576 0.000859766 0.000670151)
(0.000272412 0.000884266 0.000595003)
(0.000264186 0.000882521 0.000491243)
(0.000256445 0.000856442 0.000377102)
(0.000249891 0.000806075 0.000264697)
(0.000241348 0.000729644 0.000163032)
(0.000225316 0.000625428 8.09706e-05)
(0.000195692 0.000495764 2.83953e-05)
(0.000148941 0.000350756 1.27384e-05)
(8.65926e-05 0.000204605 3.33399e-05)
(1.47322e-05 6.81778e-05 8.17357e-05)
(-5.90042e-05 -5.5819e-05 0.000148779)
(-0.000128062 -0.000169793 0.000228997)
(-0.000187676 -0.000277425 0.000319967)
(-0.000235353 -0.000381347 0.000419245)
(-0.000271269 -0.000481954 0.000520357)
(-0.000298169 -0.000576903 0.000608921)
(-0.000321497 -0.00065984 0.000659956)
(-0.000343346 -0.00072044 0.000650295)
(-0.00035721 -0.000751955 0.000581967)
(-0.000370175 -0.000756567 0.000476291)
(-0.000385822 -0.000736036 0.000351221)
(-0.000403261 -0.00069072 0.000220648)
(-0.000417442 -0.000619244 9.67641e-05)
(-0.000420711 -0.000519938 -7.69165e-06)
(-0.000404841 -0.000394805 -7.8906e-05)
(-0.000288003 -0.000238355 1.79694e-06)
(-0.00023423 -0.000100769 1.88728e-05)
(-0.000170609 2.6303e-05 6.39707e-05)
(-9.99514e-05 0.00014146 0.000129308)
(-2.66431e-05 0.000247383 0.000208641)
(4.41355e-05 0.000347421 0.000295865)
(0.000107808 0.000443321 0.000383849)
(0.000161632 0.000534343 0.000463583)
(0.000205126 0.000617463 0.00052408)
(0.000238789 0.00068787 0.000553603)
(0.00026047 0.000741851 0.000545648)
(0.000267417 0.00077709 0.000504639)
(0.000263593 0.000791206 0.000441246)
(0.000252385 0.000782809 0.000366164)
(0.000234919 0.000749645 0.000288563)
(0.000210601 0.00068857 0.000216174)
(0.000178488 0.000597086 0.000156198)
(0.000138465 0.000476436 0.000116799)
(9.18975e-05 0.000338471 0.000105426)
(4.03774e-05 0.000200657 0.000121474)
(-1.471e-05 7.50758e-05 0.000157311)
(-7.11917e-05 -3.66798e-05 0.000206558)
(-0.000126093 -0.000137315 0.000265164)
(-0.000176313 -0.000230562 0.00032975)
(-0.000219736 -0.000319002 0.000396177)
(-0.000256195 -0.000403086 0.000458346)
(-0.000287756 -0.000481068 0.000507554)
(-0.00031746 -0.000549033 0.000532869)
(-0.000344494 -0.000603829 0.000525267)
(-0.000364471 -0.000642876 0.000483817)
(-0.000377799 -0.000662557 0.000415745)
(-0.000385444 -0.000660335 0.000330859)
(-0.000386704 -0.00063331 0.000239075)
(-0.000379411 -0.000577918 0.00014998)
(-0.000361187 -0.000491323 7.33825e-05)
(-0.000330625 -0.000374332 2.04372e-05)
(-0.000214287 -0.000224272 0.000112514)
(-0.000171574 -9.46266e-05 0.000124819)
(-0.000127586 2.36329e-05 0.000155444)
(-7.96991e-05 0.000127217 0.000199172)
(-2.7917e-05 0.000218272 0.000250694)
(2.56979e-05 0.000300347 0.000303748)
(7.84464e-05 0.000376097 0.000351268)
(0.00012828 0.000446545 0.000386879)
(0.000174056 0.000511705 0.000407772)
(0.000215828 0.000572025 0.000418463)
(0.000246546 0.000626139 0.00042228)
(0.000262395 0.000670262 0.000414078)
(0.000262576 0.000699109 0.000390299)
(0.000247894 0.000707808 0.000353927)
(0.000219769 0.000691439 0.000311051)
(0.00018016 0.000645111 0.00026842)
(0.000132627 0.000565647 0.000232328)
(8.30397e-05 0.000455404 0.000208522)
(3.71484e-05 0.000327053 0.000201202)
(-3.54199e-06 0.000199037 0.000210162)
(-4.19511e-05 8.40457e-05 0.000231901)
(-8.11805e-05 -1.53251e-05 0.000262996)
(-0.000121794 -0.000101918 0.000299966)
(-0.000162489 -0.000179723 0.000338194)
(-0.000201667 -0.000251561 0.000371943)
(-0.000238845 -0.000318418 0.000395582)
(-0.000274876 -0.000380233 0.000406075)
(-0.000312508 -0.000437803 0.000406793)
(-0.000345757 -0.000490927 0.000401956)
(-0.000370399 -0.000536788 0.000386325)
(-0.000383412 -0.000570104 0.000354822)
(-0.000382983 -0.000584995 0.000309541)
(-0.000368509 -0.000575223 0.000256269)
(-0.00034067 -0.000534781 0.000202229)
(-0.000302199 -0.000459786 0.000155099)
(-0.000258311 -0.000352169 0.000122927)
(-0.000436497 -0.000321132 -4.82758e-05)
(-0.000361696 -0.000160397 -3.43603e-05)
(-0.000266461 -4.65485e-06 2.32014e-05)
(-0.000159545 0.000143117 0.000115423)
(-5.02966e-05 0.00028473 0.000233666)
(5.2704e-05 0.000422905 0.000369897)
(0.000142765 0.000558665 0.00051472)
(0.000215969 0.000690093 0.000654703)
(0.000271292 0.000812025 0.000770215)
(0.000310688 0.00091524 0.000835464)
(0.000333897 0.000987379 0.000828046)
(0.000337278 0.00102273 0.000753176)
(0.00033125 0.00102611 0.000640443)
(0.000321662 0.000999845 0.000512484)
(0.000310131 0.000944382 0.000385236)
(0.000294385 0.000858836 0.000270552)
(0.000269599 0.00074294 0.000178642)
(0.00023029 0.000600473 0.000118939)
(0.000173246 0.000441613 9.75701e-05)
(0.000100094 0.000279813 0.000113985)
(1.69508e-05 0.000125762 0.000161362)
(-6.84585e-05 -1.6718e-05 0.00023145)
(-0.000149296 -0.000148955 0.000318236)
(-0.000220577 -0.000274184 0.000417815)
(-0.000279671 -0.000395212 0.000526027)
(-0.000326558 -0.000513065 0.000635292)
(-0.000363527 -0.000626147 0.000731645)
(-0.000394957 -0.000728562 0.000793483)
(-0.000423952 -0.000808785 0.000795464)
(-0.000446567 -0.000856238 0.000728849)
(-0.000464618 -0.000870105 0.000614798)
(-0.000482026 -0.000852489 0.00047485)
(-0.000498488 -0.000804194 0.000326898)
(-0.000509532 -0.000724923 0.000186553)
(-0.000507782 -0.000614636 6.85549e-05)
(-0.000485223 -0.000476825 -1.3123e-05)
(-0.000355656 -0.000297043 6.95045e-05)
(-0.000291577 -0.000145526 8.23104e-05)
(-0.000215769 -1.75711e-06 0.000127105)
(-0.000131615 0.000131599 0.00019679)
(-4.41627e-05 0.000256501 0.000284531)
(4.07313e-05 0.000375778 0.000382971)
(0.000117814 0.000490768 0.00048342)
(0.000183719 0.000600337 0.000575382)
(0.000237411 0.000700956 0.000646818)
(0.000279215 0.000787098 0.000685681)
(0.00030713 0.000853667 0.000683788)
(0.000318736 0.000897278 0.000642895)
(0.000317013 0.000915447 0.00057438)
(0.000305387 0.00090695 0.000490959)
(0.0002853 0.000869938 0.000403975)
(0.000256503 0.000801908 0.000323052)
(0.000218256 0.000701253 0.000256617)
(0.000170545 0.000570656 0.000212707)
(0.00011463 0.000421822 0.000197125)
(5.22718e-05 0.000271163 0.00020947)
(-1.46271e-05 0.000130489 0.000244148)
(-8.34139e-05 2.50888e-06 0.000295395)
(-0.000150585 -0.00011491 0.000358688)
(-0.000212474 -0.000225172 0.000429678)
(-0.000266402 -0.000330666 0.000503102)
(-0.000311716 -0.000431707 0.00057189)
(-0.00035016 -0.000526352 0.00062687)
(-0.000384944 -0.000610458 0.000657486)
(-0.000416767 -0.000679497 0.000653757)
(-0.000442479 -0.000729343 0.0006116)
(-0.000460254 -0.000755876 0.000537607)
(-0.000470453 -0.000756089 0.000442966)
(-0.000472316 -0.000727208 0.000339715)
(-0.000463725 -0.000666234 0.00023955)
(-0.000442211 -0.000571219 0.000153826)
(-0.000406193 -0.000444393 9.40083e-05)
(-0.000275602 -0.000273776 0.000189444)
(-0.000222771 -0.000132828 0.000199213)
(-0.000166664 -1.0348e-06 0.000229774)
(-0.00010545 0.000117777 0.000276527)
(-3.99797e-05 0.000225372 0.000333854)
(2.66674e-05 0.000324826 0.000394764)
(9.07942e-05 0.000418072 0.000451293)
(0.000149647 0.000505164 0.000495938)
(0.000201885 0.000585031 0.000524075)
(0.000247848 0.000657189 0.000537292)
(0.0002821 0.000720599 0.00054137)
(0.000300859 0.000771289 0.000533075)
(0.000302949 0.000803579 0.00050776)
(0.000288958 0.000812656 0.000468327)
(0.000260101 0.000793961 0.000421434)
(0.000218152 0.000743064 0.000374757)
(0.000166486 0.000657286 0.00033537)
(0.0001107 0.000539595 0.00030896)
(5.63787e-05 0.000402605 0.000298943)
(5.26999e-06 0.000264174 0.000305355)
(-4.49091e-05 0.000136873 0.000325965)
(-9.65587e-05 2.36788e-05 0.000358014)
(-0.000149509 -7.80116e-05 0.000397891)
(-0.000201547 -0.000171878 0.000440505)
(-0.000250147 -0.000260197 0.000479503)
(-0.000294153 -0.000343129 0.000508375)
(-0.000334382 -0.000419509 0.000522426)
(-0.00037364 -0.000488844 0.000522135)
(-0.000409409 -0.000551529 0.000514311)
(-0.000437633 -0.000604793 0.000495715)
(-0.000454331 -0.000643091 0.000460429)
(-0.000456933 -0.000660249 0.000410251)
(-0.000444175 -0.000649938 0.000351293)
(-0.000416287 -0.000606278 0.000291571)
(-0.000375655 -0.000525702 0.000239546)
(-0.000327098 -0.00041074 0.000203397)
(-0.000508789 -0.000390931 4.15854e-05)
(-0.000424882 -0.000219977 4.79804e-05)
(-0.000318984 -5.03891e-05 0.000100245)
(-0.000199993 0.000114054 0.000191098)
(-7.74921e-05 0.000273889 0.000312171)
(3.97164e-05 0.000430972 0.000454493)
(0.000144607 0.000585978 0.000607316)
(0.000232628 0.000736942 0.000756412)
(0.000301718 0.000878532 0.000882732)
(0.00035225 0.00100098 0.000962492)
(0.000384143 0.0010902 0.000969917)
(0.000395959 0.00113746 0.000901858)
(0.000393404 0.00114667 0.00078873)
(0.000382965 0.00112159 0.000655766)
(0.000367075 0.00106349 0.000521645)
(0.000344502 0.000972755 0.000400418)
(0.000311371 0.000850658 0.000303097)
(0.000262929 0.000702095 0.000238348)
(0.000196242 0.000536692 0.000211121)
(0.000112894 0.000366318 0.000221042)
(1.89249e-05 0.000200757 0.000262963)
(-7.79285e-05 4.44938e-05 0.000330048)
(-0.000170672 -0.000102734 0.000416423)
(-0.000254085 -0.000243506 0.000517305)
(-0.000325157 -0.000380485 0.000627437)
(-0.000383261 -0.000514903 0.000738859)
(-0.000429876 -0.000645447 0.000838759)
(-0.000468184 -0.000766693 0.000908152)
(-0.000502527 -0.000866997 0.000921423)
(-0.000533108 -0.000932584 0.000863686)
(-0.000556101 -0.000957863 0.000750557)
(-0.000575561 -0.000945525 0.00060527)
(-0.000591421 -0.000897233 0.000448877)
(-0.000599739 -0.00081419 0.000299657)
(-0.000593542 -0.000698221 0.000173639)
(-0.00056502 -0.0005541 8.44843e-05)
(-0.000422835 -0.000354747 0.000162924)
(-0.000349746 -0.000195305 0.000169609)
(-0.000263131 -4.01563e-05 0.00020999)
(-0.000166871 0.000107223 0.000278433)
(-6.65294e-05 0.000247983 0.000368251)
(3.14948e-05 0.000384242 0.000471471)
(0.000121348 0.000516716 0.000578498)
(0.000198987 0.000643686 0.000678076)
(0.000262658 0.000761011 0.000757812)
(0.00031221 0.000862605 0.00080549)
(0.000346336 0.000941845 0.000811268)
(0.000363445 0.000994032 0.000774497)
(0.000364648 0.00101688 0.000706472)
(0.000353276 0.0010095 0.00062101)
(0.000331104 0.000970762 0.000530795)
(0.000298353 0.000899131 0.000446692)
(0.000254633 0.000794119 0.000377716)
(0.000200061 0.000659484 0.000331169)
(0.00013576 0.000506234 0.000311371)
(6.35366e-05 0.000349054 0.000318198)
(-1.43186e-05 0.000198883 0.000348073)
(-9.47389e-05 5.90775e-05 0.000396524)
(-0.000173786 -7.18397e-05 0.000459142)
(-0.000247281 -0.000196739 0.000531058)
(-0.000311923 -0.000317586 0.000606319)
(-0.000366374 -0.000434341 0.000677413)
(-0.000411737 -0.000544746 0.000735238)
(-0.000451022 -0.000644539 0.000769693)
(-0.000486702 -0.000727886 0.000770428)
(-0.000517386 -0.000789223 0.000731435)
(-0.000539264 -0.00082392 0.000657438)
(-0.000551975 -0.000828399 0.000559893)
(-0.000554596 -0.000800185 0.000452092)
(-0.000545039 -0.000737122 0.0003471)
(-0.000520815 -0.000638382 0.000257041)
(-0.000480185 -0.000507349 0.000192921)
(-0.000336078 -0.000319224 0.000285547)
(-0.000274697 -0.000172329 0.00029117)
(-0.000208134 -3.18697e-05 0.000318478)
(-0.000135229 9.81323e-05 0.000364167)
(-5.75777e-05 0.000219039 0.000422917)
(2.08904e-05 0.000333287 0.000487455)
(9.56587e-05 0.00044193 0.000549277)
(0.000163317 0.000544009 0.00060008)
(0.000222216 0.000637376 0.000633926)
(0.000272226 0.000720461 0.000650336)
(0.000310272 0.000792476 0.000655544)
(0.00033231 0.000849402 0.000648329)
(0.000336729 0.00088547 0.000624192)
(0.000323873 0.000895908 0.000585527)
(0.000294833 0.000876673 0.000538914)
(0.000251289 0.000824084 0.0004923)
(0.000196428 0.000736135 0.000452864)
(0.000135541 0.000616133 0.000425636)
(7.40066e-05 0.000476135 0.000413049)
(1.37329e-05 0.000332872 0.000415467)
(-4.70443e-05 0.000198289 0.000432213)
(-0.000110102 7.53917e-05 0.000461747)
(-0.000174586 -3.81521e-05 0.000500803)
(-0.000237479 -0.000145518 0.000544141)
(-0.000295428 -0.000248266 0.000585059)
(-0.00034655 -0.000345674 0.000616491)
(-0.00039135 -0.000435492 0.000632747)
(-0.000432163 -0.000515924 0.000632536)
(-0.000470298 -0.000587596 0.000622183)