/*--------------------------------*- C++ -*----------------------------------*\
| =========                 |                                                 |
| \\      /  F ield         | OpenFOAM: The Open Source CFD Toolbox           |
|  \\    /   O peration     | Version:  2312                                  |
|   \\  /    A nd           | Website:  www.openfoam.com                      |
|    \\/     M anipulation  |                                                 |
\*---------------------------------------------------------------------------*/
FoamFile
{
    version     2.0;
    format      ascii;
    arch        "LSB;label=32;scalar=64";
    class       volVectorField;
    location    "0.1";
    object      D_0;
}
// * * * * * * * * * * * * * * * * * * * * * * * * * * * * * * * * * * * * * //

dimensions      [0 1 0 0 0 0 0];

internalField   nonuniform List<vector> 
1620
(
(-5.0958e-05 -2.32368e-05 -2.57167e-05)
(-4.02187e-05 -8.15296e-06 -2.0586e-05)
(-2.49457e-05 6.76591e-06 -1.25176e-05)
(-8.14746e-06 2.22674e-05 -3.2353e-06)
(8.04336e-06 3.90548e-05 6.80593e-06)
(2.17887e-05 5.75151e-05 1.78006e-05)
(3.1243e-05 7.74561e-05 3.02571e-05)
(3.4683e-05 9.74766e-05 4.43169e-05)
(3.26018e-05 0.000113937 5.7211e-05)
(2.58396e-05 0.00012351 5.86665e-05)
(1.71061e-05 0.000125012 4.93965e-05)
(1.05967e-05 0.000120321 3.85019e-05)
(8.2542e-06 0.000112214 2.78787e-05)
(9.59942e-06 0.00010227 1.76095e-05)
(1.36028e-05 9.11558e-05 7.65611e-06)
(1.89841e-05 7.89901e-05 -1.85434e-06)
(2.40295e-05 6.55261e-05 -1.04305e-05)
(2.60039e-05 5.03696e-05 -1.65708e-05)
(2.20325e-05 3.36421e-05 -1.71478e-05)
(1.22326e-05 1.68661e-05 -1.2397e-05)
(-1.9521e-07 5.46071e-07 -5.70036e-06)
(-1.26895e-05 -1.55169e-05 1.5269e-06)
(-2.39285e-05 -3.16995e-05 9.1589e-06)
(-3.29968e-05 -4.85067e-05 1.77248e-05)
(-3.88177e-05 -6.62964e-05 2.81619e-05)
(-4.00813e-05 -8.44443e-05 4.11769e-05)
(-3.75874e-05 -9.98187e-05 5.4384e-05)
(-3.17168e-05 -0.000109211 5.68872e-05)
(-2.44899e-05 -0.000110967 4.90874e-05)
(-1.98694e-05 -0.000106504 3.90391e-05)
(-1.98289e-05 -9.83016e-05 2.83403e-05)
(-2.41384e-05 -8.8084e-05 1.71253e-05)
(-3.17414e-05 -7.6847e-05 5.52656e-06)
(-4.09825e-05 -6.49865e-05 -6.0543e-06)
(-4.95301e-05 -5.23241e-05 -1.67125e-05)
(-5.3993e-05 -3.83753e-05 -2.44422e-05)
(-2.56227e-05 -2.13417e-05 -1.11612e-05)
(-2.02304e-05 -4.13631e-06 -6.4019e-06)
(-1.36682e-05 1.05443e-05 -1.51152e-06)
(-6.30754e-06 2.34074e-05 3.94034e-06)
(1.34557e-06 3.4858e-05 9.9844e-06)
(8.56674e-06 4.54405e-05 1.63713e-05)
(1.47218e-05 5.53629e-05 2.27953e-05)
(1.95961e-05 6.44844e-05 2.8796e-05)
(2.36334e-05 7.27017e-05 3.33282e-05)
(2.59578e-05 8.00085e-05 3.43972e-05)
(2.63074e-05 8.5936e-05 3.21429e-05)
(2.51092e-05 8.9693e-05 2.80299e-05)
(2.3408e-05 9.0963e-05 2.29083e-05)
(2.15258e-05 8.96574e-05 1.73165e-05)
(1.93569e-05 8.54879e-05 1.16893e-05)
(1.66323e-05 7.79426e-05 6.35511e-06)
(1.31938e-05 6.66925e-05 1.27235e-06)
(8.88332e-06 5.09206e-05 -3.99942e-06)
(4.21725e-06 3.18814e-05 -4.33911e-06)
(-6.22055e-07 1.40821e-05 7.42335e-08)
(-5.86569e-06 -9.97149e-07 3.98221e-06)
(-1.12142e-05 -1.39861e-05 8.04771e-06)
(-1.63945e-05 -2.52108e-05 1.2548e-05)
(-2.10313e-05 -3.52213e-05 1.74513e-05)
(-2.48802e-05 -4.43256e-05 2.26749e-05)
(-2.80867e-05 -5.25125e-05 2.7967e-05)
(-3.13935e-05 -5.98061e-05 3.23233e-05)
(-3.39402e-05 -6.62938e-05 3.3507e-05)
(-3.52707e-05 -7.17326e-05 3.1488e-05)
(-3.56696e-05 -7.53753e-05 2.74385e-05)
(-3.5923e-05 -7.68067e-05 2.20183e-05)
(-3.61672e-05 -7.58691e-05 1.57122e-05)
(-3.61149e-05 -7.22356e-05 8.99198e-06)
(-3.52981e-05 -6.53433e-05 2.31873e-06)
(-3.33694e-05 -5.47829e-05 -4.1039e-06)
(-3.00346e-05 -3.96962e-05 -1.04206e-05)
(-1.1204e-05 -2.0659e-05 4.55677e-06)
(-9.86781e-06 -2.51632e-06 5.93062e-06)
(-1.00992e-05 1.18069e-05 7.60086e-06)
(-9.99227e-06 2.20333e-05 9.62778e-06)
(-8.73337e-06 2.88378e-05 1.20381e-05)
(-6.02637e-06 3.3249e-05 1.42866e-05)
(-1.56118e-06 3.62347e-05 1.53945e-05)
(5.20582e-06 3.8815e-05 1.44654e-05)
(1.50454e-05 4.23221e-05 1.2127e-05)
(2.63755e-05 4.77956e-05 1.2613e-05)
(3.45339e-05 5.53697e-05 1.62431e-05)
(3.85405e-05 6.38129e-05 1.79448e-05)
(3.85663e-05 7.14121e-05 1.75191e-05)
(3.51559e-05 7.66932e-05 1.59325e-05)
(2.88411e-05 7.82959e-05 1.40747e-05)
(2.02284e-05 7.48953e-05 1.24478e-05)
(1.04115e-05 6.55278e-05 1.1046e-05)
(1.60246e-06 5.01056e-05 9.75435e-06)
(-3.53268e-06 3.13347e-05 9.64065e-06)
(-4.75594e-06 1.36355e-05 1.06281e-05)
(-4.45506e-06 -1.39231e-07 1.16115e-05)
(-4.40132e-06 -9.95166e-06 1.28662e-05)
(-5.2209e-06 -1.66014e-05 1.45481e-05)
(-7.11354e-06 -2.10593e-05 1.61715e-05)
(-1.04849e-05 -2.40978e-05 1.67614e-05)
(-1.61925e-05 -2.65251e-05 1.5368e-05)
(-2.52909e-05 -2.96289e-05 1.25617e-05)
(-3.62883e-05 -3.45968e-05 1.24694e-05)
(-4.4648e-05 -4.18175e-05 1.54811e-05)
(-4.96593e-05 -5.0238e-05 1.6663e-05)
(-5.10391e-05 -5.82572e-05 1.57884e-05)
(-4.887e-05 -6.42849e-05 1.37238e-05)
(-4.34026e-05 -6.67171e-05 1.12765e-05)
(-3.51847e-05 -6.39898e-05 8.92668e-06)
(-2.54212e-05 -5.50023e-05 6.74026e-06)
(-1.64911e-05 -3.96587e-05 4.81901e-06)
(-0.000131357 -6.9107e-05 -7.12179e-05)
(-0.000105995 -1.99094e-05 -5.83389e-05)
(-7.12535e-05 2.54045e-05 -3.49227e-05)
(-3.26817e-05 6.77918e-05 -6.30315e-06)
(5.28087e-06 0.000109556 2.54233e-05)
(3.86698e-05 0.000152472 6.02107e-05)
(6.39466e-05 0.000196802 9.84948e-05)
(7.86832e-05 0.000240385 0.000138521)
(8.39891e-05 0.000277684 0.000171541)
(8.12946e-05 0.000303138 0.000179026)
(7.16834e-05 0.000314386 0.000159539)
(6.2197e-05 0.000313447 0.000129694)
(5.7442e-05 0.000303851 9.73473e-05)
(5.80216e-05 0.000287727 6.50826e-05)
(6.25824e-05 0.000265551 3.3665e-05)
(6.86898e-05 0.000236475 3.85592e-06)
(7.2937e-05 0.000198957 -2.22607e-05)
(7.04355e-05 0.000152429 -3.98997e-05)
(5.72279e-05 0.000100246 -4.24109e-05)
(3.37938e-05 4.8382e-05 -3.02304e-05)
(4.97348e-06 9.58015e-07 -1.06534e-05)
(-2.43338e-05 -4.21328e-05 1.17149e-05)
(-5.11144e-05 -8.26016e-05 3.58276e-05)
(-7.3235e-05 -0.000122331 6.28297e-05)
(-8.89195e-05 -0.000162468 9.45121e-05)
(-9.70614e-05 -0.000202198 0.000130573)
(-9.98815e-05 -0.000236982 0.000163263)
(-9.86626e-05 -0.000261573 0.000173681)
(-9.32602e-05 -0.000273102 0.000158031)
(-8.95902e-05 -0.000272776 0.000130374)
(-9.17827e-05 -0.000263633 9.75425e-05)
(-0.000100386 -0.000247913 6.21082e-05)
(-0.000113684 -0.000226438 2.53856e-05)
(-0.000128419 -0.000198623 -1.09273e-05)
(-0.000140077 -0.000162928 -4.34998e-05)
(-0.000142676 -0.000118643 -6.61947e-05)
(-8.63486e-05 -6.54623e-05 -3.23217e-05)
(-6.9946e-05 -1.39957e-05 -2.10188e-05)
(-5.00579e-05 3.04436e-05 -4.5176e-06)
(-2.77173e-05 6.89776e-05 1.51945e-05)
(-4.46468e-06 0.000103281 3.71173e-05)
(1.77546e-05 0.000135207 6.03201e-05)
(3.7299e-05 0.000165675 8.36113e-05)
(5.35097e-05 0.000194385 0.000104936)
(6.68892e-05 0.000220116 0.000120587)
(7.61918e-05 0.000241702 0.000125639)
(7.9827e-05 0.0002581 0.000119197)
(7.89445e-05 0.000268069 0.000105021)
(7.58101e-05 0.000271178 8.65678e-05)
(7.14766e-05 0.000267062 6.61892e-05)
(6.59155e-05 0.000254653 4.54939e-05)
(5.85331e-05 0.000232226 2.56898e-05)
(4.88204e-05 0.000198257 7.78076e-06)
(3.64679e-05 0.000151412 -6.40301e-06)
(2.25137e-05 9.67257e-05 -8.11839e-06)
(7.48985e-06 4.41153e-05 2.20258e-06)
(-8.77668e-06 -9.31577e-07 1.55568e-05)
(-2.54639e-05 -3.93716e-05 3.05986e-05)
(-4.16462e-05 -7.27172e-05 4.71064e-05)
(-5.63202e-05 -0.000102858 6.49256e-05)
(-6.89338e-05 -0.000130997 8.36528e-05)
(-7.98875e-05 -0.000157222 0.000101977)
(-9.0591e-05 -0.000180647 0.00011657)
(-0.000100123 -0.000200478 0.000122087)
(-0.000106565 -0.000216099 0.000116498)
(-0.000110398 -0.000226243 0.000102521)
(-0.000113102 -0.000230203 8.29823e-05)
(-0.000115121 -0.000227405 6.00554e-05)
(-0.000115854 -0.000216649 3.55289e-05)
(-0.000114124 -0.000196052 1.11207e-05)
(-0.00010889 -0.000163891 -1.13458e-05)
(-9.94274e-05 -0.000118698 -2.90808e-05)
(-5.02203e-05 -6.31958e-05 9.55277e-06)
(-4.13289e-05 -1.10607e-05 1.5128e-05)
(-3.44048e-05 3.2843e-05 2.41503e-05)
(-2.64065e-05 6.7704e-05 3.52364e-05)
(-1.62149e-05 9.50905e-05 4.75478e-05)
(-3.70427e-06 0.000117222 5.93369e-05)
(1.12258e-05 0.000136019 6.79703e-05)
(2.89968e-05 0.000153145 7.12739e-05)
(5.04899e-05 0.00017032 7.08584e-05)
(7.18282e-05 0.000188643 7.39922e-05)
(8.71979e-05 0.000207752 7.93816e-05)
(9.45125e-05 0.000225491 7.99596e-05)
(9.36666e-05 0.000238939 7.48892e-05)
(8.56302e-05 0.000245289 6.60417e-05)
(7.14749e-05 0.000241726 5.5744e-05)
(5.2452e-05 0.000225417 4.5688e-05)
(3.07428e-05 0.00019427 3.67683e-05)
(1.04477e-05 0.000148521 3.02257e-05)
(-3.9891e-06 9.45255e-05 2.92023e-05)
(-1.20325e-05 4.27486e-05 3.34876e-05)
(-1.72742e-05 -2.53088e-07 3.9967e-05)
(-2.27605e-05 -3.40398e-05 4.79033e-05)
(-2.95824e-05 -6.04396e-05 5.69452e-05)
(-3.80102e-05 -8.16844e-05 6.56609e-05)
(-4.86116e-05 -9.95114e-05 7.15984e-05)
(-6.26163e-05 -0.000115384 7.26775e-05)
(-8.16656e-05 -0.000131085 7.06435e-05)
(-0.000102061 -0.000148053 7.22817e-05)
(-0.000118554 -0.000166351 7.58905e-05)
(-0.000129142 -0.000184179 7.47731e-05)
(-0.000132744 -0.000198734 6.80071e-05)
(-0.000129319 -0.000206944 5.71835e-05)
(-0.000119222 -0.000205533 4.44442e-05)
(-0.000103342 -0.000191227 3.15436e-05)
(-8.37591e-05 -0.000161647 1.97681e-05)
(-6.45618e-05 -0.000116895 1.11004e-05)
(-0.000205771 -0.000117424 -0.000106544)
(-0.000167814 -3.61769e-05 -8.81038e-05)
(-0.000116574 3.84359e-05 -4.98543e-05)
(-5.91588e-05 0.000107139 -1.20312e-08)
(-2.01673e-06 0.000173316 5.7201e-05)
(4.89892e-05 0.000239689 0.000120365)
(8.90866e-05 0.000306699 0.000188247)
(0.000115654 0.000371646 0.000255999)
(0.000129898 0.00042844 0.000310581)
(0.000133775 0.000470296 0.000328609)
(0.000127789 0.000492983 0.000303283)
(0.000117846 0.000497632 0.000255093)
(0.000111165 0.000488207 0.00019815)
(0.000110004 0.000467134 0.000139306)
(0.000113265 0.000434807 8.18484e-05)
(0.000117643 0.000389702 2.83703e-05)
(0.000118367 0.000329433 -1.68573e-05)
(0.000109434 0.000253736 -4.63334e-05)
(8.68631e-05 0.000168775 -5.18642e-05)
(5.14848e-05 8.43227e-05 -3.40359e-05)
(8.63911e-06 7.42119e-06 -1.99599e-06)
(-3.53488e-05 -6.1638e-05 3.70412e-05)
(-7.58868e-05 -0.0001255 8.05585e-05)
(-0.000109649 -0.000187001 0.000129248)
(-0.000134481 -0.000247698 0.000184277)
(-0.000149933 -0.000306669 0.000243293)
(-0.000158833 -0.000359463 0.000295376)
(-0.000163792 -0.000400027 0.000317438)
(-0.000164456 -0.000423479 0.00029835)
(-0.000164091 -0.000429542 0.000253715)
(-0.000168922 -0.000421541 0.000195697)
(-0.000180697 -0.000401918 0.000131079)
(-0.000197553 -0.000371386 6.41465e-05)
(-0.000214982 -0.000328667 -8.34128e-07)
(-0.000226736 -0.00027134 -5.74905e-05)
(-0.000225393 -0.000198918 -9.61147e-05)
(-0.000148102 -0.000111475 -4.35303e-05)
(-0.000120595 -2.96172e-05 -2.76556e-05)
(-8.74346e-05 4.22708e-05 8.10113e-07)
(-5.02622e-05 0.000105255 3.7019e-05)
(-1.16276e-05 0.00016181 7.82362e-05)
(2.53828e-05 0.000214651 0.000122177)
(5.81693e-05 0.000265147 0.000166082)
(8.54709e-05 0.000312813 0.000205755)
(0.000107484 0.000355599 0.000234932)
(0.000123367 0.000391168 0.000246136)
(0.000131432 0.000417899 0.00023667)
(0.000132059 0.000434331 0.000211794)
(0.000128265 0.000439662 0.00017774)
(0.000121894 0.000433159 0.000139314)
(0.000113188 0.000413179 0.000100037)
(0.000101357 0.000377177 6.27354e-05)
(8.55729e-05 0.000322849 3.02657e-05)
(6.54616e-05 0.000248889 7.30828e-06)
(4.22317e-05 0.000163459 3.34168e-06)
(1.67426e-05 8.02856e-05 1.77746e-05)
(-1.07991e-05 7.93209e-06 4.07934e-05)
(-3.91319e-05 -5.44004e-05 6.85424e-05)
(-6.66398e-05 -0.000109029 9.96048e-05)
(-9.16451e-05 -0.000158775 0.000133131)
(-0.000113186 -0.000205462 0.000167841)
(-0.000131629 -0.000249245 0.000200935)
(-0.000148624 -0.000288649 0.000227069)
(-0.000164292 -0.000321837 0.000238412)
(-0.000176749 -0.000347728 0.000230177)
(-0.00018499 -0.000364882 0.000205464)
(-0.000190695 -0.000371989 0.000169227)
(-0.000194661 -0.000367926 0.000125948)
(-0.000196185 -0.00035079 7.95357e-05)
(-0.000193558 -0.00031779 3.37878e-05)
(-0.000185108 -0.000266346 -7.00059e-06)
(-0.000169766 -0.000194927 -3.65217e-05)
(-9.70924e-05 -0.000106958 2.32732e-05)
(-7.89789e-05 -2.63585e-05 3.26374e-05)
(-6.24065e-05 4.34229e-05 5.02263e-05)
(-4.40027e-05 0.000100902 7.28348e-05)
(-2.26655e-05 0.000148106 9.80882e-05)
(1.3554e-06 0.00018802 0.000122791)
(2.75405e-05 0.000223194 0.000142876)
(5.56178e-05 0.000255525 0.000154969)
(8.54647e-05 0.000286581 0.000159783)
(0.000113718 0.000317348 0.000165383)
(0.000134696 0.000347013 0.000170543)
(0.000145097 0.000372838 0.00016796)
(0.00014442 0.000391054 0.000156381)
(0.00013363 0.000397886 0.00013819)
(0.000114093 0.000389463 0.000116953)
(8.75339e-05 0.00036192 9.58671e-05)
(5.68775e-05 0.000312505 7.7494e-05)
(2.72361e-05 0.000241969 6.49319e-05)
(3.68933e-06 0.000159469 6.23604e-05)
(-1.29576e-05 7.93707e-05 6.9512e-05)
(-2.63592e-05 1.09808e-05 8.23719e-05)
(-4.00576e-05 -4.46609e-05 9.88199e-05)
(-5.53342e-05 -8.9964e-05 0.000117416)
(-7.23098e-05 -0.000128039 0.000135687)
(-9.11849e-05 -0.000161332 0.000150085)
(-0.000112784 -0.000191574 0.000157517)
(-0.000138252 -0.000220386 0.000158689)
(-0.000165028 -0.000249196 0.000161128)
(-0.000188032 -0.000277781 0.000162998)
(-0.000203716 -0.00030398 0.000157227)
(-0.000210238 -0.0003241 0.000142274)
(-0.00020712 -0.000333917 0.000120056)
(-0.000194651 -0.000328898 9.39137e-05)
(-0.000173906 -0.000304556 6.72816e-05)
(-0.000147464 -0.000257716 4.34975e-05)
(-0.000120206 -0.00018888 2.6954e-05)
(-0.000276028 -0.000169898 -0.000117094)
(-0.000226978 -6.09751e-05 -9.68392e-05)
(-0.00016201 4.04481e-05 -4.7985e-05)
(-8.89663e-05 0.000134157 1.98803e-05)
(-1.56211e-05 0.000223607 0.000100506)
(5.09224e-05 0.000311836 0.000190274)
(0.000105173 0.000399416 0.000285361)
(0.000144358 0.000483687 0.00037795)
(0.000169222 0.000558963 0.000452531)
(0.000182618 0.000617723 0.000483379)
(0.000185046 0.000653322 0.000458105)
(0.000177725 0.000665357 0.000396649)
(0.0001704 0.000658155 0.000318153)
(0.000166927 0.000633955 0.000234244)
(0.000166958 0.000593045 0.000151911)
(0.000166995 0.00053369 7.64898e-05)
(0.000161669 0.000453574 1.44623e-05)
(0.00014481 0.000353439 -2.52414e-05)
(0.000112685 0.000241354 -3.46864e-05)
(6.64136e-05 0.000129322 -1.45241e-05)
(1.15456e-05 2.62115e-05 2.62496e-05)
(-4.49563e-05 -6.67438e-05 7.91375e-05)
(-9.74375e-05 -0.00015227 0.000140082)
(-0.000141785 -0.000233597 0.000208385)
(-0.000175723 -0.000312597 0.000283617)
(-0.000199294 -0.000388742 0.000361525)
(-0.000215268 -0.000458642 0.000429795)
(-0.000228061 -0.000516121 0.00046411)
(-0.00023857 -0.000553845 0.000447228)
(-0.000244212 -0.000569084 0.000390629)
(-0.000252645 -0.000565047 0.000310499)
(-0.00026662 -0.000543862 0.000218393)
(-0.000284648 -0.000506104 0.000122669)
(-0.000301749 -0.000450322 3.09981e-05)
(-0.000310815 -0.000374178 -4.72524e-05)
(-0.000303975 -0.000278122 -0.000100163)
(-0.000210938 -0.000160306 -3.3353e-05)
(-0.000172567 -5.36435e-05 -1.60517e-05)
(-0.000126554 4.24546e-05 2.11465e-05)
(-7.51119e-05 0.000128089 7.15227e-05)
(-2.17064e-05 0.000205954 0.00013054)
(2.95726e-05 0.000279083 0.000194178)
(7.52283e-05 0.000348975 0.000257777)
(0.000113363 0.000414958 0.000315064)
(0.000143911 0.000474491 0.000357749)
(0.000166898 0.000524071 0.000376332)
(0.000180667 0.000561276 0.000366404)
(0.000183978 0.000584524 0.000333415)
(0.000180398 0.000592403 0.000285654)
(0.000172512 0.000583936 0.00023043)
(0.000160916 0.000557226 0.000173629)
(0.000144778 0.000509417 0.000120182)
(0.000123062 0.000437982 7.50023e-05)
(9.54098e-05 0.000342648 4.47683e-05)
(6.29852e-05 0.000233377 3.7843e-05)
(2.69339e-05 0.00012565 5.36262e-05)
(-1.19768e-05 2.97152e-05 8.34409e-05)
(-5.20586e-05 -5.42449e-05 0.000121807)
(-9.10199e-05 -0.000128839 0.000165943)
(-0.000126502 -0.000197326 0.000213867)
(-0.000157028 -0.000261834 0.000263066)
(-0.000182748 -0.000322586 0.0003093)
(-0.00020552 -0.000377933 0.000345772)
(-0.000227112 -0.000424944 0.000363045)
(-0.000246158 -0.000461758 0.000354219)
(-0.000259571 -0.000486812 0.000321177)
(-0.000268824 -0.000497857 0.000270096)
(-0.000274938 -0.000493259 0.00020778)
(-0.000277196 -0.000470721 0.000140693)
(-0.000273569 -0.000427075 7.51503e-05)
(-0.000261922 -0.000359495 1.80402e-05)
(-0.000240936 -0.000267375 -2.17211e-05)
(-0.000150266 -0.000151943 5.37841e-05)
(-0.000122061 -4.93102e-05 6.50125e-05)
(-9.40745e-05 4.19954e-05 8.91784e-05)
(-6.3304e-05 0.000119714 0.000121887)
(-2.91249e-05 0.000185956 0.000159282)
(7.43223e-06 0.000243998 0.000196774)
(4.48538e-05 0.000296489 0.000229034)
(8.19905e-05 0.000344943 0.000251483)
(0.000118075 0.000390186 0.000263352)
(0.000151685 0.000433004 0.000271186)
(0.000176679 0.000472208 0.000275355)
(0.000189528 0.00050471 0.000269667)
(0.00018956 0.000526253 0.00025216)
(0.000177621 0.00053264 0.000225432)
(0.000155081 0.000519542 0.000194095)
(0.000123747 0.00048263 0.000162903)
(8.67877e-05 0.000418953 0.000136171)
(4.95463e-05 0.000329977 0.000118394)
(1.72156e-05 0.000226487 0.000113803)
(-9.14051e-06 0.00012469 0.000122172)
(-3.27451e-05 3.54423e-05 0.000139663)
(-5.69236e-05 -3.95114e-05 0.000163303)
(-8.26787e-05 -0.000102792 0.00019058)
(-0.000109544 -0.000157942 0.000218041)
(-0.000136902 -0.000207639 0.000241233)
(-0.000164915 -0.000253295 0.000256033)
(-0.000194405 -0.000295739 0.000261528)
(-0.000225829 -0.000336244 0.000263618)
(-0.000253375 -0.00037437 0.000262431)
(-0.000273138 -0.000407763 0.000251862)
(-0.000282808 -0.000432186 0.000229182)
(-0.000281363 -0.000442789 0.000196322)
(-0.000268727 -0.000434356 0.000157664)
(-0.000245783 -0.000401761 0.000118353)
(-0.000215122 -0.00034152 8.37875e-05)
(-0.000181645 -0.000254759 6.02103e-05)
(-0.000344515 -0.000226757 -9.66622e-05)
(-0.000285412 -9.58601e-05 -7.80815e-05)
(-0.000208557 2.85245e-05 -2.39712e-05)
(-0.000122114 0.000144924 5.61072e-05)
(-3.4588e-05 0.000256035 0.0001545)
(4.62646e-05 0.000364678 0.000265354)
(0.000114528 0.000471519 0.000382192)
(0.000167107 0.000574225 0.000494686)
(0.000204048 0.000667638 0.000585802)
(0.000228519 0.000743736 0.000630337)
(0.000240942 0.000793384 0.000611712)
(0.00023833 0.000814036 0.000543596)
(0.000231818 0.000810398 0.000449422)
(0.000226228 0.000784525 0.000345577)
(0.000222058 0.000736735 0.000243035)
(0.000216215 0.000665624 0.000150087)
(0.000203444 0.000569735 7.5003e-05)
(0.000177918 0.00045117 2.69962e-05)
(0.000136193 0.000318914 1.2962e-05)
(7.96007e-05 0.000185576 3.22614e-05)
(1.38328e-05 6.07815e-05 7.7031e-05)
(-5.38991e-05 -5.30621e-05 0.000138723)
(-0.000117376 -0.000158044 0.000212144)
(-0.00017209 -0.000257318 0.000294946)
(-0.000215701 -0.000353053 0.000384862)
(-0.000248393 -0.000445387 0.00047607)
(-0.000272749 -0.000532016 0.000555677)
(-0.000293856 -0.000607047 0.000601295)
(-0.000313824 -0.000661097 0.000592155)
(-0.000327036 -0.000688147 0.000530044)
(-0.00033994 -0.000690368 0.000434017)
(-0.000355764 -0.000669656 0.000320152)
(-0.000373582 -0.000626638 0.000200992)
(-0.000388591 -0.000560298 8.773e-05)
(-0.00039353 -0.000469234 -7.77969e-06)
(-0.000380566 -0.000355218 -7.26476e-05)
(-0.00027448 -0.000211502 2.51196e-06)
(-0.00022585 -8.60023e-05 1.84554e-05)
(-0.000167735 3.02121e-05 5.9997e-05)
(-0.000102911 0.000135929 0.00011992)
(-3.56042e-05 0.000233513 0.000192404)
(2.92852e-05 0.000325844 0.000271808)
(8.74994e-05 0.000414286 0.000351642)
(0.000136545 0.000497933 0.000423802)
(0.000176064 0.000573842 0.000478443)
(0.000206667 0.00063752 0.000505074)
(0.00022659 0.000685577 0.000497847)
(0.000233506 0.000716006 0.000460703)
(0.000231064 0.000726862 0.000403231)
(0.000222293 0.00071712 0.000335062)
(0.0002081 0.000684957 0.00026449)
(0.000187779 0.000627698 0.000198565)
(0.000160278 0.000543191 0.000143894)
(0.000125298 0.000432586 0.000107956)
(8.39166e-05 0.000306501 9.75802e-05)
(3.75152e-05 0.000180581 0.000112254)
(-1.25811e-05 6.56284e-05 0.000145016)
(-6.42341e-05 -3.69433e-05 0.00018998)
(-0.000114561 -0.000129529 0.000243357)
(-0.0001606 -0.000215394 0.000302003)
(-0.000200351 -0.000296719 0.000362136)
(-0.000233654 -0.000373747 0.000418256)
(-0.000262439 -0.000444742 0.000462552)
(-0.000289596 -0.000506059 0.000485234)
(-0.000314544 -0.000554811 0.00047818)
(-0.000333449 -0.000588726 0.000440511)
(-0.000346732 -0.000604703 0.000378709)
(-0.000355229 -0.000600669 0.000301591)
(-0.000358192 -0.000574222 0.000218117)
(-0.000353478 -0.00052232 0.000137027)
(-0.000338701 -0.000442504 6.73213e-05)
(-0.000312349 -0.000335505 1.92324e-05)
(-0.000206823 -0.000197217 0.000104385)
(-0.000168656 -7.86155e-05 0.000115333)
(-0.000128949 2.97118e-05 0.000142875)
(-8.53812e-05 0.000124794 0.000182346)
(-3.80637e-05 0.000208541 0.000228949)
(1.1009e-05 0.000284085 0.000277002)
(5.92886e-05 0.000353705 0.000320101)
(0.000104871 0.000418177 0.000352478)
(0.000146743 0.000477379 0.000371583)
(0.000185015 0.000531641 0.000381446)
(0.000213434 0.000579725 0.000385011)
(0.000228624 0.00061827 0.000377652)
(0.000229892 0.000642606 0.000356207)
(0.00021793 0.000648472 0.000323389)
(0.000193937 0.000631574 0.000284694)
(0.000159571 0.000587626 0.000246198)
(0.000117932 0.00051386 0.000213544)
(7.42319e-05 0.000412466 0.000191871)
(3.36e-05 0.000294872 0.000184967)
(-2.65247e-06 0.000177674 0.000192735)
(-3.71816e-05 7.23069e-05 0.000212114)
(-7.27532e-05 -1.88837e-05 0.000240048)
(-0.000109788 -9.84476e-05 0.00027338)
(-0.000147004 -0.000169942 0.000307909)
(-0.000182871 -0.00023583 0.000338428)
(-0.000216921 -0.000296889 0.000359843)
(-0.000249956 -0.000352956 0.000369406)
(-0.000284523 -0.000404678 0.00037012)
(-0.000315331 -0.000451856 0.000365739)
(-0.00033862 -0.000491999 0.000351563)
(-0.000351665 -0.000520441 0.000323068)
(-0.000352766 -0.000532003 0.000282177)
(-0.000341276 -0.000521193 0.000234122)
(-0.00031768 -0.000482712 0.000185415)
(-0.000284317 -0.000413142 0.000142941)
(-0.000245797 -0.000314274 0.000113899)
(-0.000412725 -0.000287235 -4.44861e-05)
(-0.000344439 -0.000140498 -3.03791e-05)
(-0.000256903 2.07972e-06 2.37658e-05)
(-0.000158442 0.000137884 0.000109356)
(-5.79223e-05 0.000268465 0.000218165)
(3.65976e-05 0.000396068 0.00034266)
(0.000118934 0.000521322 0.000474252)
(0.000185573 0.000642178 0.000600854)
(0.000235732 0.000753681 0.000704887)
(0.000271395 0.000847284 0.000763279)
(0.000292595 0.00091176 0.000755988)
(0.000296348 0.000942083 0.00068775)
(0.000292112 0.000942877 0.000585146)
(0.00028512 0.000916595 0.000468559)
(0.000276655 0.000863912 0.000352425)
(0.000264412 0.00078421 0.000247615)
(0.00024374 0.000677329 0.000163621)
(0.000209392 0.000546672 0.000109252)
(0.000158259 0.000401334 9.02201e-05)
(9.17926e-05 0.000253314 0.000105967)
(1.5716e-05 0.000112134 0.000150076)
(-6.2686e-05 -1.87808e-05 0.000214774)
(-0.000136944 -0.000140548 0.000294354)
(-0.000202355 -0.000255934 0.000385111)
(-0.000256462 -0.000367277 0.000483218)
(-0.000299277 -0.000475295 0.000581842)
(-0.000332979 -0.000578358 0.000668452)
(-0.00036169 -0.000670994 0.000723666)
(-0.00038843 -0.000742749 0.000724717)
(-0.000409863 -0.000784133 0.000663778)
(-0.000427704 -0.000794593 0.000559821)
(-0.000445448 -0.000776337 0.000432186)
(-0.000462653 -0.00073039 0.000297062)
(-0.000475 -0.00065669 0.000168756)
(-0.000475463 -0.000555285 6.09529e-05)
(-0.000456415 -0.000429285 -1.32956e-05)
(-0.000338267 -0.000263845 6.42403e-05)
(-0.000280272 -0.000125287 7.65357e-05)
(-0.000211071 6.43848e-06 0.000118045)
(-0.000133954 0.00012896 0.00018214)
(-5.3743e-05 0.000243986 0.000262434)
(2.40476e-05 0.000353926 0.000352132)
(9.45472e-05 0.00045978 0.00044332)
(0.000154698 0.000560289 0.000526539)
(0.000203647 0.000652051 0.000590996)
(0.00024184 0.000729932 0.000625918)
(0.00026764 0.000789292 0.000623975)
(0.000279005 0.000827157 0.00058674)
(0.000278688 0.000841495 0.00052447)
(0.000269738 0.000831435 0.00044863)
(0.000253326 0.000795524 0.00036949)
(0.000229046 0.000731656 0.000295809)
(0.000196032 0.000638478 0.000235306)
(0.000154092 0.000518446 0.00019535)
(0.00010423 0.00038208 0.000181277)
(4.79931e-05 0.000244115 0.000192745)
(-1.28241e-05 0.000115141 0.000224612)
(-7.56551e-05 -2.40908e-06 0.000271529)
(-0.000137141 -0.000110411 0.000329262)
(-0.000193815 -0.000211835 0.000393779)
(-0.000243172 -0.000308699 0.000460273)
(-0.000284623 -0.000401122 0.000522361)
(-0.00031982 -0.000487201 0.000571801)
(-0.000351793 -0.000563089 0.000599128)
(-0.00038133 -0.000624664 0.000595383)
(-0.000405694 -0.000668257 0.000556867)
(-0.000423272 -0.000690301 0.000489513)
(-0.000434329 -0.000688297 0.000403407)
(-0.00043804 -0.000659949 0.000309445)
(-0.000432285 -0.000602714 0.000218284)
(-0.000414597 -0.000514924 0.00014033)
(-0.00038332 -0.0003986 8.61073e-05)
(-0.000264439 -0.000241201 0.000174867)
(-0.000217147 -0.000112025 0.000183621)
(-0.00016649 8.86907e-06 0.000211192)
(-0.000110863 0.000118013 0.000253467)
(-5.11428e-05 0.000216955 0.000305357)
(9.76393e-06 0.000308394 0.000360516)
(6.84141e-05 0.000393954 0.000411727)
(0.000122274 0.000473539 0.000452208)
(0.000170155 0.000546051 0.000477786)
(0.000212416 0.000610981 0.000489872)
(0.000244237 0.000667382 0.000493628)
(0.000262251 0.000711729 0.000486154)
(0.000265412 0.000739003 0.000463299)
(0.000254209 0.000744998 0.000427701)
(0.000229655 0.000725743 0.000385376)
(0.000193244 0.000677371 0.000343238)
(0.000147919 0.000597571 0.000307631)
(9.86562e-05 0.000489094 0.000283643)
(5.044e-05 0.000363337 0.000274348)
(4.79736e-06 0.00023639 0.000279864)
(-4.03541e-05 0.000119593 0.000298267)
(-8.71458e-05 1.56456e-05 0.000327097)
(-0.000135337 -7.77757e-05 0.000363073)
(-0.000182829 -0.000163942 0.000401556)
(-0.000227262 -0.000244825 0.000436778)
(-0.000267572 -0.000320462 0.000462848)
(-0.000304536 -0.000389699 0.000475529)
(-0.000340764 -0.000452028 0.000475239)
(-0.000374065 -0.000507781 0.00046808)
(-0.000400815 -0.000554512 0.000451166)
(-0.000417402 -0.000587323 0.00041921)
(-0.000421423 -0.000600765 0.000373873)
(-0.000411623 -0.000589254 0.000320689)
(-0.000388078 -0.000547599 0.000266882)
(-0.000352827 -0.000472674 0.000220044)
(-0.000310134 -0.000366818 0.000187486)
(-0.000480948 -0.000349787 3.70761e-05)
(-0.00040426 -0.000193192 4.4684e-05)
(-0.000306938 -3.75586e-05 9.43881e-05)
(-0.000197415 0.000113735 0.0001791)
(-8.4745e-05 0.000261081 0.000290805)
(2.28285e-05 0.00040596 0.000421089)
(0.000118824 0.000548712 0.000560109)
(0.000199148 0.000687271 0.000695028)
(0.000262077 0.000816545 0.000808766)
(0.000308158 0.000927508 0.000880031)
(0.000337563 0.00100739 0.000885752)
(0.000349239 0.00104842 0.000823256)
(0.00034841 0.00105439 0.000719947)
(0.000340846 0.00102902 0.000598585)
(0.000328535 0.000973743 0.000476104)
(0.000310097 0.000889049 0.000365355)
(0.000281746 0.000776157 0.000276537)
(0.000238939 0.000639481 0.000217747)
(0.000178882 0.000487664 0.000193611)
(0.000103032 0.000331346 0.000203713)
(1.70462e-05 0.000179296 0.000243128)
(-7.18044e-05 3.55682e-05 0.000305337)
(-0.000156933 -9.99954e-05 0.000384742)
(-0.000233443 -0.000229585 0.000476835)
(-0.000298551 -0.00035543 0.000576786)
(-0.000351729 -0.00047846 0.000677405)
(-0.000394433 -0.000597322 0.000767177)
(-0.0004297 -0.000706991 0.000829043)
(-0.000461645 -0.000796911 0.000839978)
(-0.00049061 -0.000854694 0.000786655)
(-0.000513241 -0.000875454 0.000683138)
(-0.000533105 -0.000861891 0.000550354)
(-0.000549934 -0.000815786 0.000407382)
(-0.000559862 -0.000738403 0.000270955)
(-0.000556223 -0.000631456 0.000155924)
(-0.000531614 -0.000499214 7.50462e-05)
(-0.000401387 -0.000315459 0.000149342)
(-0.000335142 -0.000169263 0.000156325)
(-0.000256086 -2.68273e-05 0.000194083)
(-0.00016794 0.000108715 0.000257285)
(-7.59806e-05 0.000238327 0.000339655)
(1.38035e-05 0.00036378 0.00043382)
(9.60067e-05 0.000485527 0.000531033)
(0.000166967 0.000601797 0.000621135)
(0.00022518 0.000708654 0.000693004)
(0.000270645 0.000800474 0.000735713)
(0.000302332 0.000871243 0.000740474)
(0.000318918 0.000916803 0.000706735)
(0.000321446 0.000935278 0.000644708)
(0.000312862 0.000926094 0.000566879)
(0.000294626 0.000888437 0.000484738)
(0.000266752 0.000821063 0.000408172)
(0.000228705 0.000723618 0.000345423)
(0.000180441 0.000599534 0.000303187)
(0.000122875 0.000458744 0.000285447)
(5.76194e-05 0.000314465 0.00029209)
(-1.31762e-05 0.000176538 0.000319781)
(-8.65832e-05 4.80047e-05 0.000364318)
(-0.000158865 -7.24123e-05 0.00042156)
(-0.000226105 -0.000187206 0.000486994)
(-0.000285253 -0.00029802 0.000555182)
(-0.000335114 -0.000404674 0.000619336)
(-0.000376767 -0.000504998 0.000671265)
(-0.000413057 -0.000595054 0.000701907)
(-0.000446354 -0.000669552 0.000701984)
(-0.000475492 -0.000723526 0.000666091)
(-0.000497028 -0.000752921 0.000598504)
(-0.00051055 -0.000754699 0.000509587)
(-0.000515059 -0.000726816 0.000411395)
(-0.000508456 -0.000667467 0.000315829)
(-0.000488265 -0.000575983 0.000233994)
(-0.000452714 -0.000455435 0.000175997)
(-0.000321035 -0.00028172 0.000262709)
(-0.000265978 -0.000146839 0.000267855)
(-0.00020584 -1.7801e-05 0.000292615)
(-0.000139623 0.000101726 0.000334027)
(-6.88653e-05 0.000212909 0.000387262)
(2.76926e-06 0.000317861 0.000445713)
(7.11124e-05 0.000417415 0.000501672)
(0.000133049 0.000510573 0.00054764)
(0.000187113 0.000595282 0.000578273)
(0.000233234 0.000670059 0.000593139)
(0.000268686 0.000734186 0.000597838)
(0.000289845 0.000784101 0.000591282)
(0.000295247 0.000814701 0.000569439)
(0.000285151 0.000821805 0.000534497)
(0.000260461 0.000801898 0.000492405)
(0.000222596 0.000751787 0.00045033)
(0.000174344 0.00066977 0.000414716)
(0.000120425 0.000558912 0.000390058)
(6.56455e-05 0.00043013 0.000378535)
(1.16826e-05 0.00029852 0.00038054)
(-4.30757e-05 0.000174869 0.00039554)
(-0.000100197 6.19177e-05 0.000422166)
(-0.000158828 -4.23977e-05 0.000457438)
(-0.000216152 -0.000140887 0.000496577)
(-0.000269079 -0.000234876 0.000533496)
(-0.0003159 -0.000323616 0.000561798)
(-0.00035712 -0.000404992 0.000576358)
(-0.000394929 -0.000477331 0.000576017)
(-0.000430564 -0.00054118 0.00056647)