/*--------------------------------*- C++ -*----------------------------------*\
| =========                 |                                                 |
| \\      /  F ield         | OpenFOAM: The Open Source CFD Toolbox           |
|  \\    /   O peration     | Version:  2312                                  |
|   \\  /    A nd           | Website:  www.openfoam.com                      |
|    \\/     M anipulation  |                                                 |
\*---------------------------------------------------------------------------*/
FoamFile
{
    version     2.0;
    format      ascii;
    arch        "LSB;label=32;scalar=64";
    class       volVectorField;
    location    "0.1";
    object      D_0_0_0;
}
// * * * * * * * * * * * * * * * * * * * * * * * * * * * * * * * * * * * * * //

dimensions      [0 1 0 0 0 0 0];

internalField   nonuniform List<vector> 
1620
(
(-4.35066e-05 -1.90096e-05 -2.08095e-05)
(-3.47696e-05 -7.36915e-06 -1.6597e-05)
(-2.22349e-05 4.41288e-06 -9.96591e-06)
(-8.43672e-06 1.69538e-05 -2.39384e-06)
(4.79614e-06 3.07342e-05 5.6791e-06)
(1.59341e-05 4.59301e-05 1.43706e-05)
(2.35205e-05 6.22614e-05 2.40806e-05)
(2.62521e-05 7.85346e-05 3.49575e-05)
(2.45522e-05 9.18534e-05 4.49342e-05)
(1.91255e-05 9.95507e-05 4.61316e-05)
(1.22347e-05 0.000100692 3.90643e-05)
(7.14579e-06 9.67886e-05 3.0706e-05)
(5.41496e-06 9.00476e-05 2.24832e-05)
(6.71048e-06 8.17734e-05 1.44344e-05)
(1.02295e-05 7.25911e-05 6.52236e-06)
(1.49141e-05 6.27028e-05 -1.13539e-06)
(1.93166e-05 5.1987e-05 -8.10094e-06)
(2.11804e-05 4.01285e-05 -1.31126e-05)
(1.81409e-05 2.71054e-05 -1.36292e-05)
(1.02493e-05 1.39668e-05 -9.81301e-06)
(9.83339e-08 9.95622e-07 -4.37625e-06)
(-1.01739e-05 -1.19823e-05 1.48459e-06)
(-1.94103e-05 -2.52115e-05 7.60956e-06)
(-2.68153e-05 -3.89945e-05 1.43828e-05)
(-3.15231e-05 -5.35117e-05 2.2526e-05)
(-3.25358e-05 -6.81939e-05 3.2598e-05)
(-3.051e-05 -8.05514e-05 4.27938e-05)
(-2.5814e-05 -8.80206e-05 4.47428e-05)
(-2.01605e-05 -8.93025e-05 3.87435e-05)
(-1.66137e-05 -8.55376e-05 3.09883e-05)
(-1.67504e-05 -7.86913e-05 2.26647e-05)
(-2.04411e-05 -7.01813e-05 1.38323e-05)
(-2.68737e-05 -6.09039e-05 4.57152e-06)
(-3.46967e-05 -5.13021e-05 -4.78862e-06)
(-4.19554e-05 -4.13285e-05 -1.34695e-05)
(-4.58355e-05 -3.05938e-05 -1.97753e-05)
(-2.33112e-05 -1.699e-05 -9.06182e-06)
(-1.89845e-05 -3.4728e-06 -5.29758e-06)
(-1.35867e-05 8.18011e-06 -1.36652e-06)
(-7.4737e-06 1.85449e-05 3.01863e-06)
(-1.11376e-06 2.79197e-05 7.85407e-06)
(4.86679e-06 3.66809e-05 1.2934e-05)
(9.9382e-06 4.49258e-05 1.8023e-05)
(1.39239e-05 5.24794e-05 2.27725e-05)
(1.7175e-05 5.91994e-05 2.63731e-05)
(1.90728e-05 6.50337e-05 2.72621e-05)
(1.94341e-05 6.96142e-05 2.55301e-05)
(1.8646e-05 7.23564e-05 2.2322e-05)
(1.75296e-05 7.30457e-05 1.82994e-05)
(1.63372e-05 7.16602e-05 1.38797e-05)
(1.49706e-05 6.80307e-05 9.40079e-06)
(1.31834e-05 6.18091e-05 5.12601e-06)
(1.07988e-05 5.27719e-05 1.03653e-06)
(7.6384e-06 4.02977e-05 -3.19684e-06)
(4.06158e-06 2.53017e-05 -3.5319e-06)
(1.93081e-07 1.12388e-05 -7.15427e-08)
(-4.12409e-06 -7.71036e-07 3.05343e-06)
(-8.6039e-06 -1.12372e-05 6.31873e-06)
(-1.29746e-05 -2.03999e-05 9.91987e-06)
(-1.68919e-05 -2.8653e-05 1.38226e-05)
(-2.0133e-05 -3.61883e-05 1.79617e-05)
(-2.28006e-05 -4.29455e-05 2.2145e-05)
(-2.54786e-05 -4.88888e-05 2.55929e-05)
(-2.75587e-05 -5.40431e-05 2.65562e-05)
(-2.87083e-05 -5.82172e-05 2.49909e-05)
(-2.91927e-05 -6.08516e-05 2.18138e-05)
(-2.96326e-05 -6.1652e-05 1.75368e-05)
(-3.01374e-05 -6.05463e-05 1.25317e-05)
(-3.04677e-05 -5.73423e-05 7.16394e-06)
(-3.02186e-05 -5.16606e-05 1.8037e-06)
(-2.90572e-05 -4.32197e-05 -3.36646e-06)
(-2.66867e-05 -3.13604e-05 -8.42912e-06)
(-1.17858e-05 -1.59251e-05 3.49544e-06)
(-1.07505e-05 -1.46538e-06 4.49618e-06)
(-1.08559e-05 1.00018e-05 5.74947e-06)
(-1.06096e-05 1.82646e-05 7.31814e-06)
(-9.39165e-06 2.38562e-05 9.23196e-06)
(-7.00245e-06 2.75769e-05 1.10671e-05)
(-3.23938e-06 3.01619e-05 1.2053e-05)
(2.28557e-06 3.23737e-05 1.14697e-05)
(1.01552e-05 3.52253e-05 9.76638e-06)
(1.91579e-05 3.95413e-05 1.0193e-05)
(2.57143e-05 4.5421e-05 1.29926e-05)
(2.90859e-05 5.18801e-05 1.42537e-05)
(2.93878e-05 5.75971e-05 1.3853e-05)
(2.70224e-05 6.14467e-05 1.25581e-05)
(2.23812e-05 6.23885e-05 1.10667e-05)
(1.59172e-05 5.94047e-05 9.76615e-06)
(8.46636e-06 5.17588e-05 8.63879e-06)
(1.73274e-06 3.94009e-05 7.58339e-06)
(-2.20808e-06 2.44402e-05 7.43468e-06)
(-3.1635e-06 1.03223e-05 8.15529e-06)
(-3.0044e-06 -7.18969e-07 8.89888e-06)
(-3.11511e-06 -8.65725e-06 9.88298e-06)
(-3.96979e-06 -1.41202e-05 1.12318e-05)
(-5.69838e-06 -1.78626e-05 1.25677e-05)
(-8.58617e-06 -2.04709e-05 1.31286e-05)
(-1.32727e-05 -2.25489e-05 1.21628e-05)
(-2.05657e-05 -2.50778e-05 1.00872e-05)
(-2.93159e-05 -2.89935e-05 1.00687e-05)
(-3.60328e-05 -3.4589e-05 1.23949e-05)
(-4.01925e-05 -4.10258e-05 1.32538e-05)
(-4.15589e-05 -4.70726e-05 1.24991e-05)
(-4.01738e-05 -5.15145e-05 1.0824e-05)
(-3.62054e-05 -5.31197e-05 8.86849e-06)
(-3.00578e-05 -5.06791e-05 7.00889e-06)
(-2.2654e-05 -4.33436e-05 5.28581e-06)
(-1.58338e-05 -3.10536e-05 3.75882e-06)
(-0.000113087 -5.63379e-05 -5.77724e-05)
(-9.24251e-05 -1.80565e-05 -4.71375e-05)
(-6.37893e-05 1.77903e-05 -2.79018e-05)
(-3.19299e-05 5.20384e-05 -4.56005e-06)
(-6.96183e-07 8.63602e-05 2.10075e-05)
(2.65683e-05 0.000121878 4.86504e-05)
(4.7016e-05 0.000158494 7.87034e-05)
(5.87972e-05 0.000194254 0.000109881)
(6.28678e-05 0.000224644 0.000135538)
(6.04998e-05 0.000245144 0.00014147)
(5.2896e-05 0.000253874 0.000126538)
(4.56178e-05 0.000252517 0.000103461)
(4.23379e-05 0.000243979 7.82246e-05)
(4.3574e-05 0.000230129 5.278e-05)
(4.82273e-05 0.000211582 2.77234e-05)
(5.42415e-05 0.000187902 3.72699e-06)
(5.87081e-05 0.000158025 -1.74128e-05)
(5.75241e-05 0.000121486 -3.17252e-05)
(4.73203e-05 8.06592e-05 -3.38124e-05)
(2.83945e-05 3.98935e-05 -2.39892e-05)
(4.74135e-06 2.16103e-06 -8.10016e-06)
(-1.94963e-05 -3.26608e-05 1.00351e-05)
(-4.16733e-05 -6.58031e-05 2.94235e-05)
(-5.99225e-05 -9.85368e-05 5.08651e-05)
(-7.27696e-05 -0.000131529 7.57266e-05)
(-7.93679e-05 -0.000163934 0.000103791)
(-8.15227e-05 -0.00019206 0.00012912)
(-8.04056e-05 -0.000211672 0.000137184)
(-7.62277e-05 -0.000220489 0.000125064)
(-7.36408e-05 -0.000219528 0.00010355)
(-7.5942e-05 -0.000211287 7.78105e-05)
(-8.36257e-05 -0.000197724 4.97447e-05)
(-9.53322e-05 -0.000179758 2.03439e-05)
(-0.000108359 -0.000157205 -8.98312e-06)
(-0.00011888 -0.000129033 -3.54079e-05)
(-0.000121844 -9.4651e-05 -5.37992e-05)
(-7.73679e-05 -5.20692e-05 -2.64062e-05)
(-6.41603e-05 -1.15504e-05 -1.73956e-05)
(-4.77545e-05 2.37861e-05 -4.1261e-06)
(-2.91701e-05 5.48748e-05 1.17145e-05)
(-9.83608e-06 8.29676e-05 2.92414e-05)
(8.54639e-06 0.000109373 4.76706e-05)
(2.45903e-05 0.000134623 6.60633e-05)
(3.77526e-05 0.000158295 8.28447e-05)
(4.84598e-05 0.000179267 9.51701e-05)
(5.58892e-05 0.000196505 9.92346e-05)
(5.89462e-05 0.000209178 9.43076e-05)
(5.86647e-05 0.00021639 8.32898e-05)
(5.68477e-05 0.000217916 6.884e-05)
(5.4311e-05 0.000213616 5.27709e-05)
(5.09728e-05 0.000202819 3.6339e-05)
(4.62512e-05 0.000184319 2.05195e-05)
(3.95836e-05 0.00015702 6.15561e-06)
(3.05541e-05 0.000119898 -5.24782e-06)
(1.9836e-05 7.67367e-05 -6.74997e-06)
(7.80243e-06 3.51028e-05 1.37799e-06)
(-5.59662e-06 -8.38893e-07 1.20441e-05)
(-1.95524e-05 -3.18666e-05 2.40947e-05)
(-3.31645e-05 -5.91122e-05 3.7279e-05)
(-4.55005e-05 -8.39467e-05 5.14289e-05)
(-5.6035e-05 -0.000107168 6.62123e-05)
(-6.5048e-05 -0.000128696 8.06138e-05)
(-7.36703e-05 -0.000147696 9.20671e-05)
(-8.13249e-05 -0.00016344 9.64285e-05)
(-8.66508e-05 -0.000175429 9.20886e-05)
(-9.01393e-05 -0.000182731 8.11443e-05)
(-9.2982e-05 -0.000184891 6.57606e-05)
(-9.55272e-05 -0.000181614 4.75991e-05)
(-9.725e-05 -0.000172143 2.80512e-05)
(-9.71035e-05 -0.00015517 8.50246e-06)
(-9.40801e-05 -0.000129453 -9.53251e-06)
(-8.73994e-05 -9.38475e-05 -2.37567e-05)
(-4.85099e-05 -4.88864e-05 7.21319e-06)
(-4.15312e-05 -7.3704e-06 1.13783e-05)
(-3.57904e-05 2.77606e-05 1.8294e-05)
(-2.89466e-05 5.58875e-05 2.69128e-05)
(-2.02121e-05 7.8231e-05 3.65887e-05)
(-9.60448e-06 9.64858e-05 4.59499e-05)
(2.84077e-06 0.000112067 5.29236e-05)
(1.73699e-05 0.00012616 5.578e-05)
(3.46483e-05 0.000140017 5.57104e-05)
(5.17404e-05 0.000154478 5.82843e-05)
(6.42303e-05 0.000169246 6.24885e-05)
(7.05761e-05 0.000182619 6.28765e-05)
(7.06927e-05 0.00019237 5.88464e-05)
(6.5294e-05 0.000196396 5.18793e-05)
(5.51486e-05 0.000192591 4.3793e-05)
(4.11508e-05 0.000178818 3.58949e-05)
(2.49168e-05 0.000153504 2.88568e-05)
(9.56639e-06 0.000116867 2.36238e-05)
(-1.46571e-06 7.38433e-05 2.26492e-05)
(-7.76607e-06 3.25496e-05 2.58347e-05)
(-1.21415e-05 -1.90776e-06 3.08027e-05)
(-1.69405e-05 -2.91918e-05 3.6987e-05)
(-2.29405e-05 -5.07245e-05 4.41102e-05)
(-3.0256e-05 -6.82184e-05 5.10476e-05)
(-3.92361e-05 -8.29632e-05 5.58767e-05)
(-5.07728e-05 -9.60086e-05 5.69564e-05)
(-6.61324e-05 -0.000108663 5.55976e-05)
(-8.25077e-05 -0.000122022 5.69931e-05)
(-9.5908e-05 -0.000136115 5.97948e-05)
(-0.000104856 -0.000149532 5.8831e-05)
(-0.000108507 -0.000160142 5.34322e-05)
(-0.000106787 -0.000165638 4.48717e-05)
(-9.98921e-05 -0.000163554 3.48384e-05)
(-8.84233e-05 -0.000151406 2.47037e-05)
(-7.39064e-05 -0.000127386 1.54513e-05)
(-5.94517e-05 -9.16012e-05 8.58939e-06)
(-0.000177873 -9.53337e-05 -8.70584e-05)
(-0.000146936 -3.17843e-05 -7.16519e-05)
(-0.000104641 2.73929e-05 -4.0143e-05)
(-5.71372e-05 8.28969e-05 5.37725e-07)
(-1.00186e-05 0.000137218 4.66778e-05)
(3.17568e-05 0.000192131 9.6948e-05)
(6.43105e-05 0.000247554 0.000150355)
(8.5638e-05 0.000300974 0.000203239)
(9.68266e-05 0.000347312 0.000245669)
(9.96532e-05 0.000380997 0.000259717)
(9.49684e-05 0.00039864 0.000240197)
(8.75614e-05 0.000401292 0.000202787)
(8.31696e-05 0.000392318 0.000158234)
(8.35875e-05 0.000373946 0.000111768)
(8.78633e-05 0.000346826 6.59621e-05)
(9.31794e-05 0.000310059 2.29899e-05)
(9.5453e-05 0.000261954 -1.35172e-05)
(8.95765e-05 0.000202271 -3.73326e-05)
(7.20559e-05 0.000135514 -4.17725e-05)
(4.34503e-05 6.88976e-05 -2.72777e-05)
(8.23282e-06 7.588e-06 -1.21394e-06)
(-2.82006e-05 -4.82401e-05 3.04429e-05)
(-6.18416e-05 -0.000100511 6.54367e-05)
(-8.97967e-05 -0.000151172 0.000104138)
(-0.000110246 -0.000201121 0.000147398)
(-0.000122848 -0.000249333 0.000193418)
(-0.000129923 -0.000292087 0.000233809)
(-0.000133755 -0.000324447 0.000250799)
(-0.000134466 -0.000342515 0.00023588)
(-0.000134761 -0.000346179 0.000201005)
(-0.000139595 -0.000338264 0.000155381)
(-0.000150392 -0.000321012 0.000104121)
(-0.000165635 -0.000295372 5.05344e-05)
(-0.00018155 -0.000260699 -1.87393e-06)
(-0.000192826 -0.000215306 -4.7727e-05)
(-0.000193118 -0.000158754 -7.89077e-05)
(-0.000131909 -8.85393e-05 -3.60338e-05)
(-0.000109789 -2.39131e-05 -2.32864e-05)
(-8.25103e-05 3.33659e-05 -3.64299e-07)
(-5.16805e-05 8.42164e-05 2.87273e-05)
(-1.96388e-05 0.000130494 6.16625e-05)
(1.09218e-05 0.000174115 9.65397e-05)
(3.78047e-05 0.000215874 0.000131175)
(5.9982e-05 0.000255098 0.000162338)
(7.76696e-05 0.000289923 0.000185232)
(9.04233e-05 0.000318329 0.000194117)
(9.71443e-05 0.000339002 0.000186871)
(9.83381e-05 0.000350912 0.000167524)
(9.64255e-05 0.000353626 0.00014086)
(9.28272e-05 0.000346813 0.000110582)
(8.76282e-05 0.000329433 7.9445e-05)
(8.00236e-05 0.000299703 4.97197e-05)
(6.91141e-05 0.000255953 2.37493e-05)
(5.43484e-05 0.000197179 5.32315e-06)
(3.64655e-05 0.000129562 2.00613e-06)
(1.60772e-05 6.35811e-05 1.342e-05)
(-6.52684e-06 5.74401e-06 3.18147e-05)
(-3.01056e-05 -4.46141e-05 5.40239e-05)
(-5.31246e-05 -8.92306e-05 7.88027e-05)
(-7.40461e-05 -0.000130153 0.000105394)
(-9.1976e-05 -0.000168598 0.000132757)
(-0.000107156 -0.000204459 0.000158717)
(-0.000120931 -0.000236365 0.000179156)
(-0.000133593 -0.000262718 0.000188033)
(-0.000143875 -0.000282626 0.0001816)
(-0.000151169 -0.000295042 0.000162219)
(-0.000156849 -0.000299119 0.000133677)
(-0.000161531 -0.000294222 9.94072e-05)
(-0.000164564 -0.000279135 6.2462e-05)
(-0.000164408 -0.000251913 2.58935e-05)
(-0.000159462 -0.000210681 -6.77602e-06)
(-0.000148565 -0.000154237 -3.04149e-05)
(-9.09708e-05 -8.28797e-05 1.79011e-05)
(-7.67528e-05 -1.86206e-05 2.4917e-05)
(-6.32601e-05 3.72846e-05 3.84445e-05)
(-4.79235e-05 8.36966e-05 5.60328e-05)
(-3.00262e-05 0.000122181 7.58317e-05)
(-9.94509e-06 0.000154998 9.53247e-05)
(1.17457e-05 0.000183999 0.000111307)
(3.47246e-05 0.000210485 0.000121107)
(5.88804e-05 0.000235519 0.000125217)
(8.16956e-05 0.0002598 0.000129821)
(9.88986e-05 0.000282675 0.000133935)
(0.000108039 0.000302019 0.00013191)
(0.000108742 0.000314987 0.000122833)
(0.000101707 0.000318771 0.000108598)
(8.7895e-05 0.0003105 9.19882e-05)
(6.85142e-05 0.000287286 7.54839e-05)
(4.57069e-05 0.000247072 6.10444e-05)
(2.33481e-05 0.000190492 5.10472e-05)
(5.34829e-06 0.000124652 4.87517e-05)
(-7.68365e-06 6.06795e-05 5.40535e-05)
(-1.86023e-05 5.8115e-06 6.39171e-05)
(-3.01168e-05 -3.91491e-05 7.67121e-05)
(-4.31036e-05 -7.60691e-05 9.13028e-05)
(-5.75029e-05 -0.000107323 0.000105734)
(-7.33317e-05 -0.000134713 0.000117214)
(-9.11482e-05 -0.000159441 0.000123305)
(-0.000111849 -0.00018263 0.000124505)
(-0.000133531 -0.00020531 0.000126582)
(-0.00015238 -0.000227282 0.000128061)
(-0.000165746 -0.000246884 0.000123459)
(-0.000172199 -0.000261334 0.000111642)
(-0.000171303 -0.00026748 9.41562e-05)
(-0.000163162 -0.000261934 7.36337e-05)
(-0.000148459 -0.000241319 5.27574e-05)
(-0.000129048 -0.000203241 3.41026e-05)
(-0.000108615 -0.000148127 2.1038e-05)
(-0.000239175 -0.0001373 -9.69707e-05)
(-0.000199201 -5.15969e-05 -7.96908e-05)
(-0.000145563 2.91301e-05 -3.92198e-05)
(-8.50903e-05 0.000104874 1.62952e-05)
(-2.45319e-05 0.000178179 8.14112e-05)
(3.00863e-05 0.00025104 0.00015298)
(7.4263e-05 0.000323406 0.000227946)
(0.000105861 0.000392703 0.00030034)
(0.000125644 0.000454062 0.000358328)
(0.000136154 0.000501266 0.000382185)
(0.000138251 0.000529 0.000362494)
(0.000133226 0.000537148 0.000314516)
(0.000128782 0.000529461 0.00025287)
(0.000127926 0.000508121 0.00018649)
(0.000130228 0.000473754 0.000120852)
(0.000132648 0.000425315 6.03335e-05)
(0.000130561 0.000361155 1.03902e-05)
(0.000118651 0.000281815 -2.15429e-05)
(9.35806e-05 0.000193287 -2.89361e-05)
(5.61472e-05 0.000104513 -1.23023e-05)
(1.10379e-05 2.20732e-05 2.10363e-05)
(-3.57693e-05 -5.31308e-05 6.40121e-05)
(-7.93512e-05 -0.000123074 0.000113075)
(-0.000116137 -0.00018998 0.000167443)
(-0.000144178 -0.000254947 0.000226696)
(-0.00016351 -0.000317199 0.000287549)
(-0.000176438 -0.000373774 0.000340529)
(-0.000186693 -0.000419592 0.0003669)
(-0.000195362 -0.000448806 0.00035345)
(-0.000200745 -0.000459399 0.000308941)
(-0.000208917 -0.000454175 0.000245669)
(-0.000222058 -0.000435228 0.000172441)
(-0.000238874 -0.000403462 9.5766e-05)
(-0.000255142 -0.000358121 2.1896e-05)
(-0.000264781 -0.000297573 -4.13115e-05)
(-0.000260999 -0.000222089 -8.38708e-05)
(-0.000186892 -0.000127126 -2.8849e-05)
(-0.000156078 -4.25892e-05 -1.47857e-05)
(-0.000118356 3.41892e-05 1.52764e-05)
(-7.58449e-05 0.000103388 5.5804e-05)
(-3.16833e-05 0.000167026 0.000102989)
(1.05772e-05 0.000227236 0.000153517)
(4.79917e-05 0.000284857 0.000203691)
(7.90228e-05 0.000338995 0.000248664)
(0.000103705 0.000387333 0.000282085)
(0.000122301 0.000426893 0.000296681)
(0.000133778 0.000455713 0.000289016)
(0.000137416 0.000472677 0.000263258)
(0.000136089 0.000476949 0.000225782)
(0.000131781 0.000468075 0.000182238)
(0.000124808 0.000444871 0.000137234)
(0.000114275 0.000405339 9.47113e-05)
(9.90684e-05 0.000347649 5.866e-05)
(7.86021e-05 0.000271601 3.44713e-05)
(5.35515e-05 0.000184781 2.88638e-05)
(2.47469e-05 9.90301e-05 4.14521e-05)
(-7.05837e-06 2.21571e-05 6.53535e-05)
(-4.02361e-05 -4.57402e-05 9.60949e-05)
(-7.26605e-05 -0.000106615 0.000131315)
(-0.000102208 -0.000162831 0.000169331)
(-0.000127553 -0.000215798 0.000208116)
(-0.000148764 -0.000265413 0.000244364)
(-0.000167368 -0.000310119 0.00027283)
(-0.000184972 -0.00034743 0.000286253)
(-0.00020075 -0.000375824 0.000279246)
(-0.000212497 -0.000394159 0.000253206)
(-0.000221446 -0.000400911 0.000212869)
(-0.000228366 -0.000395111 0.000163473)
(-0.000232549 -0.000375287 0.00011008)
(-0.000232139 -0.000339233 5.77488e-05)
(-0.000225108 -0.000284894 1.20898e-05)
(-0.000210038 -0.000211778 -1.96638e-05)
(-0.000137842 -0.000117929 4.18757e-05)
(-0.000115699 -3.59195e-05 5.02926e-05)
(-9.31107e-05 3.73701e-05 6.89133e-05)
(-6.7821e-05 0.00010019 9.43749e-05)
(-3.9526e-05 0.000154159 0.000123666)
(-9.25743e-06 0.000201735 0.000153168)
(2.16023e-05 0.000244805 0.000178677)
(5.20367e-05 0.000284322 0.000196584)
(8.14425e-05 0.000320724 0.000206238)
(0.000108808 0.000354508 0.000212656)
(0.000129518 0.000384731 0.000216065)
(0.000140948 0.000409019 0.000211663)
(0.000142606 0.000424171 0.000197996)
(0.000135093 0.000427091 0.000177131)
(0.000119347 0.000414591 0.000152671)
(9.66049e-05 0.000383458 0.000128306)
(6.91669e-05 0.000331505 0.000107354)
(4.1074e-05 0.000259938 9.32634e-05)
(1.63114e-05 0.000177132 8.93305e-05)
(-4.32423e-06 9.56418e-05 9.55057e-05)
(-2.33496e-05 2.39078e-05 0.000108927)
(-4.32842e-05 -3.67135e-05 0.000127314)
(-6.47514e-05 -8.82435e-05 0.000148688)
(-8.71951e-05 -0.000133375 0.000170311)
(-0.00010997 -0.000174058 0.000188664)
(-0.000133113 -0.00021121 0.000200502)
(-0.000157294 -0.000245293 0.000205069)
(-0.000182961 -0.000277179 0.000206881)
(-0.000205757 -0.000306495 0.000205969)
(-0.000222745 -0.00033145 0.000197592)
(-0.000232136 -0.000348866 0.000179712)
(-0.000233044 -0.000355137 0.000153895)
(-0.000225258 -0.000346382 0.000123593)
(-0.000209269 -0.000318763 9.28241e-05)
(-0.000186904 -0.000269668 6.57611e-05)
(-0.000161843 -0.000200022 4.71948e-05)
(-0.000298774 -0.000182471 -8.2481e-05)
(-0.000250602 -7.8811e-05 -6.60377e-05)
(-0.000187182 2.06139e-05 -2.08166e-05)
(-0.000115639 0.000114811 4.49463e-05)
(-4.33523e-05 0.000205743 0.0001246)
(2.30806e-05 0.000295237 0.000213161)
(7.87823e-05 0.000383298 0.000305451)
(0.000121346 0.000467561 0.000393526)
(0.00015101 0.000543509 0.000464362)
(0.000170588 0.000604494 0.000498659)
(0.000180854 0.000643235 0.000483769)
(0.000179942 0.000657951 0.00043018)
(0.000176616 0.000652737 0.000355891)
(0.000174597 0.000629699 0.000273557)
(0.000174049 0.000589512 0.000191781)
(0.000172183 0.00053137 0.00011729)
(0.000164424 0.00045427 5.699e-05)
(0.000145706 0.000359807 1.85856e-05)
(0.000112941 0.000254732 7.81136e-06)
(6.71294e-05 0.000148523 2.41348e-05)
(1.3093e-05 4.83955e-05 6.10484e-05)
(-4.29608e-05 -4.3825e-05 0.000111376)
(-9.563e-05 -0.000129615 0.000170615)
(-0.000141004 -0.000211141 0.000236648)
(-0.000177071 -0.000289721 0.000307591)
(-0.000203979 -0.000365077 0.000378927)
(-0.000223902 -0.000435057 0.000440722)
(-0.000241098 -0.000494786 0.000475731)
(-0.00025758 -0.000536814 0.000467939)
(-0.000269373 -0.000556548 0.00041866)
(-0.000281598 -0.000555991 0.000342462)
(-0.00029677 -0.000537104 0.000251688)
(-0.000313958 -0.000500858 0.000156153)
(-0.000329004 -0.000446816 6.49317e-05)
(-0.00033565 -0.000374046 -1.2081e-05)
(-0.000327104 -0.00028384 -6.40571e-05)
(-0.000241961 -0.000167506 -1.42314e-06)
(-0.000202933 -6.75772e-05 1.18259e-05)
(-0.000155435 2.55809e-05 4.56141e-05)
(-0.000102053 0.000111116 9.39641e-05)
(-4.65644e-05 0.000190784 0.000152004)
(6.80425e-06 0.000266591 0.000215103)
(5.44831e-05 0.000339242 0.00027811)
(9.44613e-05 0.000407627 0.000334737)
(0.000126556 0.000469074 0.000377434)
(0.000151492 0.000519811 0.000398182)
(0.000168172 0.000557104 0.000392455)
(0.000175021 0.000579504 0.000363262)
(0.000174994 0.0005858 0.000318018)
(0.000170396 0.000575538 0.000264191)
(0.000161745 0.000547617 0.000208278)
(0.000148208 0.000500183 0.000155891)
(0.000128633 0.000431695 0.000112367)
(0.000102476 0.000343064 8.37447e-05)
(7.03525e-05 0.000242427 7.55503e-05)
(3.32868e-05 0.000141785 8.74525e-05)
(-7.51864e-06 4.94042e-05 0.000113885)
(-5.00619e-05 -3.36475e-05 0.000150025)
(-9.17247e-05 -0.000109151 0.000192688)
(-0.000129887 -0.000179466 0.00023925)
(-0.000162801 -0.000246029 0.000286672)
(-0.000190298 -0.000308727 0.000330656)
(-0.000213978 -0.000365917 0.000365164)
(-0.000236324 -0.000414544 0.000382661)
(-0.000257142 -0.000452271 0.000376832)
(-0.000273642 -0.000477401 0.000346927)
(-0.000286231 -0.000487767 0.00029794)
(-0.000295503 -0.000482082 0.000236698)
(-0.000300679 -0.00045881 0.000170232)
(-0.000299767 -0.000415843 0.000105529)
(-0.000290508 -0.000351405 4.98885e-05)
(-0.000271323 -0.000266049 1.16135e-05)
(-0.000186788 -0.000153309 8.16785e-05)
(-0.000156804 -5.82576e-05 8.99e-05)
(-0.00012491 2.89021e-05 0.000111178)
(-8.93981e-05 0.000105853 0.000141944)
(-5.05597e-05 0.000174037 0.000178444)
(-1.02004e-05 0.000235782 0.000216194)
(2.94763e-05 0.000292662 0.000250145)
(6.68644e-05 0.000345031 0.000275763)
(0.000101177 0.000392559 0.000291031)
(0.000132579 0.000435367 0.000299027)
(0.00015636 0.000472462 0.000301969)
(0.00016999 0.000501281 0.000296274)
(0.000172963 0.000518316 0.000279556)
(0.000165751 0.00052044 0.000253966)
(0.000149145 0.00050451 0.000223804)
(0.00012425 0.000467366 0.000193785)
(9.33081e-05 0.000406981 0.000168255)
(6.02616e-05 0.000325139 0.000151153)
(2.90426e-05 0.000230736 0.000145426)
(6.31833e-07 0.000136646 0.000151132)
(-2.70442e-05 5.17656e-05 0.000166029)
(-5.60554e-05 -2.20694e-05 0.000187783)
(-8.65526e-05 -8.68129e-05 0.000213904)
(-0.000117325 -0.000145154 0.000241051)
(-0.000147008 -0.00019886 0.000265104)
(-0.000175157 -0.000248335 0.00028205)
(-0.000202438 -0.000293252 0.000289719)
(-0.000230937 -0.00033398 0.00029039)
(-0.000256696 -0.000370315 0.000286911)
(-0.000276865 -0.000400376 0.000275654)
(-0.000289317 -0.00042067 0.000253188)
(-0.000292613 -0.000427345 0.000221075)
(-0.000286071 -0.00041632 0.000183439)
(-0.000269851 -0.00038363 0.000145361)
(-0.000245573 -0.000326735 0.000112166)
(-0.00021669 -0.000247088 8.9374e-05)
(-0.00035773 -0.000230338 -4.28353e-05)
(-0.000302027 -0.000113341 -2.94272e-05)
(-0.000229851 1.17058e-06 1.64041e-05)
(-0.000148447 0.000111276 8.71e-05)
(-6.54875e-05 0.000218046 0.000175481)
(1.21753e-05 0.000322878 0.000275181)
(7.94318e-05 0.000425768 0.000379321)
(0.000133533 0.000524572 0.00047855)
(0.000174069 0.000614915 0.000559403)
(0.000202928 0.000689733 0.000604226)
(0.000220566 0.000740114 0.000597654)
(0.000225126 0.000762328 0.000543416)
(0.00022406 0.000760403 0.000462055)
(0.00022136 0.000736781 0.000369373)
(0.000217739 0.000692411 0.000276701)
(0.000210979 0.000627073 0.000192798)
(0.000196962 0.000540739 0.000125538)
(0.000171113 0.00043602 8.23135e-05)
(0.000130678 0.00031982 6.79201e-05)
(7.681e-05 0.000201246 8.18555e-05)
(1.43658e-05 8.75144e-05 0.000118686)
(-5.03942e-05 -1.87245e-05 0.00017179)
(-0.000111874 -0.000118193 0.000236221)
(-0.000166014 -0.000212768 0.00030877)
(-0.000210714 -0.000303919 0.000386316)
(-0.000246 -0.000391828 0.000463534)
(-0.000273735 -0.000474874 0.000530758)
(-0.000297414 -0.000548517 0.000573036)
(-0.00031976 -0.000604491 0.00057273)
(-0.000338533 -0.000635471 0.000523791)
(-0.000355183 -0.000641301 0.000440813)
(-0.000372368 -0.000624179 0.000338727)
(-0.00038947 -0.00058537 0.000230248)
(-0.000402647 -0.000525147 0.000126938)
(-0.000405799 -0.000443669 4.01666e-05)
(-0.00039232 -0.000343274 -1.90785e-05)
(-0.000296709 -0.000208774 4.64437e-05)
(-0.00025014 -9.78815e-05 5.71249e-05)
(-0.000193708 8.10646e-06 9.1226e-05)
(-0.000130399 0.000107404 0.000143183)
(-6.44634e-05 0.000201247 0.000207635)
(-6.202e-07 0.000291272 0.000279009)
(5.70721e-05 0.000377905 0.000351016)
(0.000106159 0.000459756 0.000416298)
(0.000146075 0.000533791 0.000466562)
(0.000177399 0.000595737 0.000493572)
(0.000199125 0.000641878 0.000491699)
(0.000209876 0.000670008 0.000462157)
(0.000211894 0.00067885 0.00041292)
(0.00020747 0.00066808 0.00035291)
(0.000197295 0.000636882 0.000290181)
(0.000180751 0.000583837 0.00023169)
(0.000156836 0.00050801 0.000183644)
(0.000125115 0.000411343 0.000152)
(8.61838e-05 0.000301948 0.000141107)
(4.12215e-05 0.00019118 0.000150737)
(-8.19301e-06 8.71864e-05 0.000176724)
(-5.97243e-05 -8.14513e-06 0.000214636)
(-0.00011038 -9.61847e-05 0.000260913)
(-0.000157146 -0.000179062 0.000312213)
(-0.000197884 -0.000258089 0.000364683)
(-0.000232103 -0.000333062 0.000413324)
(-0.000261197 -0.000402213 0.000451754)
(-0.000287749 -0.000462336 0.000472672)
(-0.000312627 -0.000510132 0.000469145)
(-0.00033388 -0.000542817 0.000438258)
(-0.000350292 -0.000557837 0.000384606)
(-0.000361969 -0.000553563 0.000316046)
(-0.000368029 -0.000528531 0.00024115)
(-0.000366471 -0.000480998 0.000168427)
(-0.000354968 -0.000409787 0.000106299)
(-0.00033185 -0.000316471 6.33086e-05)
(-0.000235979 -0.000187793 0.000137123)
(-0.000198771 -8.39118e-05 0.000143737)
(-0.000158186 1.36212e-05 0.000165128)
(-0.000113079 0.000102077 0.000198152)
(-6.43427e-05 0.000182597 0.000238816)
(-1.44971e-05 0.000257152 0.000282108)
(3.35595e-05 0.000326799 0.000322339)
(7.77367e-05 0.000391207 0.000354193)
(0.000117113 0.000449285 0.000374407)
(0.000152035 0.000500494 0.000384047)
(0.00017887 0.000544058 0.000387077)
(0.000195058 0.000577299 0.000381263)
(0.000199804 0.000596445 0.000363434)
(0.000193406 0.000598409 0.000335685)
(0.000176505 0.000580302 0.000302722)
(0.000150083 0.000539287 0.000269915)
(0.000116275 0.000473706 0.000242154)
(7.88573e-05 0.000385799 0.000223328)
(4.1658e-05 0.000284467 0.000215824)
(5.82379e-06 0.00018222 0.000219852)
(-3.02689e-05 8.78935e-05 0.000234058)
(-6.81882e-05 3.61848e-06 0.000256573)
(-0.000107564 -7.23672e-05 0.000284798)
(-0.000146547 -0.000142518 0.000315038)
(-0.000183133 -0.000208211 0.00034272)
(-0.000216425 -0.000269276 0.000363208)
(-0.00024708 -0.000324616 0.000373179)
(-0.000277247 -0.000373704 0.000372925)
(-0.000305351 -0.000416737 0.000367148)
(-0.000328621 -0.000451874 0.000353656)
(-0.000344207 -0.000475451 0.000328411)
(-0.000350085 -0.000483396 0.000292784)
(-0.000345079 -0.00047154 0.00025114)
(-0.000329026 -0.000435998 0.000209118)
(-0.000303325 -0.000374459 0.000172583)
(-0.000271179 -0.000288826 0.000147137)
(-0.00041614 -0.000279791 2.02618e-05)
(-0.000353484 -0.000154055 2.90061e-05)
(-0.000273302 -2.84171e-05 7.18532e-05)
(-0.000182888 9.45389e-05 0.000142373)
(-9.00299e-05 0.000214968 0.000233499)
(-1.70646e-06 0.000333693 0.000338127)
(7.67417e-05 0.000450527 0.00044835)
(0.000142102 0.000563353 0.000554189)
(0.00019322 0.000667712 0.00064253)
(0.000230841 0.000756192 0.000697061)
(0.0002555 0.000818688 0.000700073)
(0.000266759 0.000849298 0.000649718)
(0.000268785 0.000851361 0.000567292)
(0.000265933 0.000828304 0.000470513)
(0.000259414 0.000781642 0.000372696)
(0.000247706 0.000711971 0.000284146)
(0.000227386 0.000620315 0.000213262)
(0.000194499 0.000510079 0.000166843)
(0.000146647 0.000387893 0.000148794)
(8.50612e-05 0.000261917 0.000158693)
(1.45523e-05 0.000138886 0.000192236)
(-5.8661e-05 2.19855e-05 0.000243749)
(-0.000128927 -8.87524e-05 0.000308348)
(-0.000192064 -0.000194777 0.000382181)
(-0.00024574 -0.000297505 0.000461325)
(-0.000289575 -0.00039732 0.000540162)
(-0.000324878 -0.000492851 0.000609783)
(-0.000354282 -0.00057994 0.000656992)
(-0.000381332 -0.000650257 0.000663936)
(-0.000406555 -0.000694193 0.000620341)
(-0.000427474 -0.000708166 0.000537103)
(-0.000446722 -0.000694691 0.00043048)
(-0.000463758 -0.000655578 0.000315507)
(-0.000475051 -0.00059209 0.00020567)
(-0.000474786 -0.000505649 0.000113258)
(-0.000456596 -0.000399508 4.90076e-05)
(-0.000350362 -0.000249514 0.00011287)
(-0.000297079 -0.000131875 0.000119692)
(-0.000232693 -1.68023e-05 0.00015118)
(-0.000160512 9.32745e-05 0.000202748)
(-8.51194e-05 0.000198988 0.000269088)
(-1.15899e-05 0.000301483 0.000344147)
(5.56101e-05 0.000400773 0.00042096)
(0.000113558 0.000495097 0.000491609)
(0.000161177 0.000581027 0.00054753)
(0.000198669 0.000653926 0.000580364)
(0.000225469 0.000709018 0.0005834)
(0.00024072 0.000743161 0.000556261)
(0.000245289 0.000755172 0.000506935)
(0.000241358 0.000744946 0.000445178)
(0.000229823 0.000712143 0.000380017)
(0.000210389 0.000655993 0.00031929)
(0.000182338 0.00057633 0.000269605)
(0.0001454 0.000475868 0.000236377)
(0.000100157 0.000362318 0.000222865)
(4.78822e-05 0.000245921 0.000228988)
(-9.55923e-06 0.000134303 0.000251967)
(-6.95634e-05 2.98582e-05 0.000288247)
(-0.000128863 -6.83009e-05 0.00033432)
(-0.000184112 -0.000161935 0.000386458)
(-0.000232768 -0.000252079 0.000440304)
(-0.000273883 -0.000338318 0.00049053)
(-0.000308416 -0.000418705 0.00053078)
(-0.000338788 -0.000489982 0.000554054)
(-0.000367083 -0.000547963 0.000553196)
(-0.000392536 -0.000588842 0.000524003)
(-0.000412453 -0.000609644 0.000469821)
(-0.000426359 -0.000608282 0.000398775)
(-0.000433201 -0.000583447 0.000320381)
(-0.000430977 -0.000533936 0.00024414)
(-0.000417374 -0.000459338 0.000179021)
(-0.000390679 -0.000362055 0.000133237)
(-0.000283783 -0.000219686 0.000206235)
(-0.000240366 -0.000110816 0.000210199)
(-0.000192229 -6.40953e-06 0.00022954)
(-0.000138702 9.06224e-05 0.000261996)
(-8.11904e-05 0.000181093 0.000303762)
(-2.27881e-05 0.000266503 0.000349614)
(3.30576e-05 0.000347292 0.000393481)
(8.38162e-05 0.00042244 0.000429495)
(0.000128349 0.000490127 0.000453498)
(0.000166659 0.000549067 0.000465157)
(0.000196694 0.000598662 0.000468814)
(0.000215658 0.00063621 0.000463647)
(0.000222383 0.00065787 0.000446561)
(0.000216978 0.000660556 0.000419303)
(0.000200001 0.000641719 0.000386535)
(0.000172389 0.000599044 0.000353831)
(0.000136185 0.000531348 0.00032616)
(9.49939e-05 0.000441135 0.000306944)
(5.25225e-05 0.00033696 0.000297855)
(1.00425e-05 0.000230592 0.000299291)
(-3.36968e-05 0.000130456 0.000310968)
(-7.98185e-05 3.87343e-05 0.000331858)
(-0.000127476 -4.61081e-05 0.000359588)
(-0.000174276 -0.000126152 0.000390343)
(-0.000217659 -0.000202275 0.000419295)
(-0.000256243 -0.0002737 0.000441411)
(-0.00029048 -0.000338605 0.000452682)
(-0.000322206 -0.000395566 0.000452205)
(-0.000352477 -0.000444957 0.000444406)