/*--------------------------------*- C++ -*----------------------------------*\
| =========                 |                                                 |
| \\      /  F ield         | OpenFOAM: The Open Source CFD Toolbox           |
|  \\    /   O peration     | Version:  2312                                  |
|   \\  /    A nd           | Website:  www.openfoam.com                      |
|    \\/     M anipulation  |                                                 |
\*---------------------------------------------------------------------------*/
FoamFile
{
    version     2.0;
    format      ascii;
    arch        "LSB;label=32;scalar=64";
    class       pointVectorField;
    location    "0.1";
    object      pointD;
}
// * * * * * * * * * * * * * * * * * * * * * * * * * * * * * * * * * * * * * //

dimensions      [0 1 0 0 0 0 0];

internalField   nonuniform List<vector> 
2164
(
(0 0 0)
(0 0 0)
(0 0 0)
(0 0 0)
(0 0 0)
(0 0 0)
(0 0 0)
(0 0 0)
(0 0 0)
(0 0 0)
(0 0 0)
(0 0 0)
(0 0 0)
(0 0 0)
(0 0 0)
(0 0 0)
(0 0 0)
(0 0 0)
(0 0 0)
(0 0 0)
(0 0 0)
(0 0 0)
(0 0 0)
(0 0 0)
(0 0 0)
(0 0 0)
(0 0 0)
(0 0 0)
(0 0 0)
(0 0 0)
(0 0 0)
(0 0 0)
(0 0 0)
(0 0 0)
(0 0 0)
(0 0 0)
(-0.000215286 0.000414206 -5.2718e-05)
(-0.000283941 0.000370529 -5.2718e-05)
(-0.000343969 0.000315594 -5.27179e-05)
(-0.000393546 0.00025107 -5.27179e-05)
(-0.000431165 0.000178917 -5.27179e-05)
(-0.000455683 0.000101328 -5.27179e-05)
(-0.000466356 2.066e-05 -5.27178e-05)
(-0.000462859 -6.06356e-05 -5.27179e-05)
(-0.000445297 -0.000140089 -5.27179e-05)
(-0.000414206 -0.000215286 -5.2718e-05)
(-0.000370529 -0.000283941 -5.2718e-05)
(-0.000315594 -0.000343969 -5.27179e-05)
(-0.00025107 -0.000393546 -5.27179e-05)
(-0.000178917 -0.000431165 -5.27179e-05)
(-0.000101328 -0.000455683 -5.27179e-05)
(-2.066e-05 -0.000466356 -5.27178e-05)
(6.06356e-05 -0.000462859 -5.27179e-05)
(0.000140089 -0.000445297 -5.27179e-05)
(0.000215286 -0.000414206 -5.2718e-05)
(0.000283941 -0.000370529 -5.2718e-05)
(0.000343969 -0.000315594 -5.27179e-05)
(0.000393546 -0.00025107 -5.27179e-05)
(0.000431165 -0.000178917 -5.27179e-05)
(0.000455683 -0.000101328 -5.27179e-05)
(0.000466356 -2.066e-05 -5.27178e-05)
(0.000462859 6.06356e-05 -5.27179e-05)
(0.000445297 0.000140089 -5.27179e-05)
(0.000414206 0.000215286 -5.2718e-05)
(0.000370529 0.000283941 -5.2718e-05)
(0.000315594 0.000343969 -5.27179e-05)
(0.00025107 0.000393546 -5.27179e-05)
(0.000178917 0.000431165 -5.27179e-05)
(0.000101328 0.000455683 -5.27179e-05)
(2.066e-05 0.000466356 -5.27178e-05)
(-6.06356e-05 0.000462859 -5.27179e-05)
(-0.000140089 0.000445297 -5.27179e-05)
(-0.000196535 0.000396063 -4.31208e-05)
(-0.000262325 0.000355918 -4.31209e-05)
(-0.000320144 0.000304959 -4.31209e-05)
(-0.000368235 0.000244734 -4.31208e-05)
(-0.000405139 0.000177072 -4.31208e-05)
(-0.000429732 0.00010403 -4.31209e-05)
(-0.000441268 2.78276e-05 -4.31209e-05)
(-0.000439396 -4.92207e-05 -4.31208e-05)
(-0.000424174 -0.000124773 -4.31208e-05)
(-0.000396063 -0.000196535 -4.31208e-05)
(-0.000355918 -0.000262325 -4.31209e-05)
(-0.000304959 -0.000320144 -4.31209e-05)
(-0.000244734 -0.000368235 -4.31208e-05)
(-0.000177072 -0.000405139 -4.31208e-05)
(-0.00010403 -0.000429732 -4.31209e-05)
(-2.78276e-05 -0.000441268 -4.31209e-05)
(4.92207e-05 -0.000439396 -4.31208e-05)
(0.000124773 -0.000424174 -4.31208e-05)
(0.000196535 -0.000396063 -4.31208e-05)
(0.000262325 -0.000355918 -4.31209e-05)
(0.000320144 -0.000304959 -4.31209e-05)
(0.000368235 -0.000244734 -4.31208e-05)
(0.000405139 -0.000177072 -4.31208e-05)
(0.000429732 -0.00010403 -4.31209e-05)
(0.000441268 -2.78276e-05 -4.31209e-05)
(0.000439396 4.92207e-05 -4.31208e-05)
(0.000424174 0.000124773 -4.31208e-05)
(0.000396063 0.000196535 -4.31208e-05)
(0.000355918 0.000262325 -4.31209e-05)
(0.000304959 0.000320144 -4.31209e-05)
(0.000244734 0.000368235 -4.31208e-05)
(0.000177072 0.000405139 -4.31208e-05)
(0.00010403 0.000429732 -4.31209e-05)
(2.78276e-05 0.000441268 -4.31209e-05)
(-4.92207e-05 0.000439396 -4.31208e-05)
(-0.000124773 0.000424174 -4.31208e-05)
(0 0 0)
(0 0 0)
(0 0 0)
(0 0 0)
(0 0 0)
(0 0 0)
(0 0 0)
(0 0 0)
(0 0 0)
(0 0 0)
(0 0 0)
(0 0 0)
(0 0 0)
(0 0 0)
(0 0 0)
(0 0 0)
(0 0 0)
(0 0 0)
(0 0 0)
(0 0 0)
(0 0 0)
(0 0 0)
(0 0 0)
(0 0 0)
(0 0 0)
(0 0 0)
(0 0 0)
(0 0 0)
(0 0 0)
(0 0 0)
(0 0 0)
(0 0 0)
(0 0 0)
(0 0 0)
(0 0 0)
(0 0 0)
(-0.000180072 0.000377053 -3.33117e-05)
(-0.000242811 0.000340055 -3.33118e-05)
(-0.000298172 0.000292726 -3.33117e-05)
(-0.000344473 0.000236502 -3.33118e-05)
(-0.000380308 0.000173091 -3.33118e-05)
(-0.000404587 0.000104422 -3.33117e-05)
(-0.000416573 3.25799e-05 -3.33118e-05)
(-0.000415902 -4.02524e-05 -3.33117e-05)
(-0.000402594 -0.000111862 -3.33117e-05)
(-0.000377053 -0.000180072 -3.33117e-05)
(-0.000340055 -0.000242811 -3.33118e-05)
(-0.000292726 -0.000298172 -3.33117e-05)
(-0.000236502 -0.000344473 -3.33118e-05)
(-0.000173091 -0.000380308 -3.33118e-05)
(-0.000104422 -0.000404587 -3.33117e-05)
(-3.25799e-05 -0.000416573 -3.33118e-05)
(4.02524e-05 -0.000415902 -3.33117e-05)
(0.000111862 -0.000402594 -3.33117e-05)
(0.000180072 -0.000377053 -3.33117e-05)
(0.000242811 -0.000340055 -3.33118e-05)
(0.000298172 -0.000292726 -3.33117e-05)
(0.000344473 -0.000236502 -3.33118e-05)
(0.000380308 -0.000173091 -3.33118e-05)
(0.000404587 -0.000104422 -3.33117e-05)
(0.000416573 -3.25799e-05 -3.33118e-05)
(0.000415902 4.02524e-05 -3.33117e-05)
(0.000402594 0.000111862 -3.33117e-05)
(0.000377053 0.000180072 -3.33117e-05)
(0.000340055 0.000242811 -3.33118e-05)
(0.000292726 0.000298172 -3.33117e-05)
(0.000236502 0.000344473 -3.33118e-05)
(0.000173091 0.000380308 -3.33118e-05)
(0.000104422 0.000404587 -3.33117e-05)
(3.25799e-05 0.000416573 -3.33118e-05)
(-4.02524e-05 0.000415902 -3.33117e-05)
(-0.000111862 0.000402594 -3.33117e-05)
(0 0 0)
(0 0 0)
(0 0 0)
(0 0 0)
(0 0 0)
(0 0 0)
(0 0 0)
(0 0 0)
(0 0 0)
(0 0 0)
(0 0 0)
(0 0 0)
(0 0 0)
(0 0 0)
(0 0 0)
(0 0 0)
(0 0 0)
(0 0 0)
(0 0 0)
(0 0 0)
(0 0 0)
(0 0 0)
(0 0 0)
(0 0 0)
(0 0 0)
(0 0 0)
(0 0 0)
(0 0 0)
(0 0 0)
(0 0 0)
(0 0 0)
(0 0 0)
(0 0 0)
(0 0 0)
(0 0 0)
(0 0 0)
(-0.000165436 0.000356549 -2.41165e-05)
(-0.000224837 0.000322405 -2.41165e-05)
(-0.000277406 0.000278465 -2.41166e-05)
(-0.000321547 0.000226063 -2.41166e-05)
(-0.000355917 0.000166793 -2.41166e-05)
(-0.000379473 0.000102454 -2.41166e-05)
(-0.000391499 3.50026e-05 -2.41166e-05)
(-0.000391629 -3.35121e-05 -2.41166e-05)
(-0.00037986 -0.000101009 -2.41166e-05)
(-0.000356549 -0.000165436 -2.41165e-05)
(-0.000322405 -0.000224837 -2.41165e-05)
(-0.000278465 -0.000277406 -2.41166e-05)
(-0.000226063 -0.000321547 -2.41166e-05)
(-0.000166793 -0.000355917 -2.41166e-05)
(-0.000102454 -0.000379473 -2.41166e-05)
(-3.50026e-05 -0.000391499 -2.41166e-05)
(3.35121e-05 -0.000391629 -2.41166e-05)
(0.000101009 -0.00037986 -2.41166e-05)
(0.000165436 -0.000356549 -2.41165e-05)
(0.000224837 -0.000322405 -2.41165e-05)
(0.000277406 -0.000278465 -2.41166e-05)
(0.000321547 -0.000226063 -2.41166e-05)
(0.000355917 -0.000166793 -2.41166e-05)
(0.000379473 -0.000102454 -2.41166e-05)
(0.000391499 -3.50026e-05 -2.41166e-05)
(0.000391629 3.35121e-05 -2.41166e-05)
(0.00037986 0.000101009 -2.41166e-05)
(0.000356549 0.000165436 -2.41165e-05)
(0.000322405 0.000224837 -2.41165e-05)
(0.000278465 0.000277406 -2.41166e-05)
(0.000226063 0.000321547 -2.41166e-05)
(0.000166793 0.000355917 -2.41166e-05)
(0.000102454 0.000379473 -2.41166e-05)
(3.50026e-05 0.000391499 -2.41166e-05)
(-3.35121e-05 0.000391629 -2.41166e-05)
(-0.000101009 0.00037986 -2.41166e-05)
(0 0 0)
(0 0 0)
(0 0 0)
(0 0 0)
(0 0 0)
(0 0 0)
(0 0 0)
(0 0 0)
(0 0 0)
(0 0 0)
(0 0 0)
(0 0 0)
(0 0 0)
(0 0 0)
(0 0 0)
(0 0 0)
(0 0 0)
(0 0 0)
(0 0 0)
(0 0 0)
(0 0 0)
(0 0 0)
(0 0 0)
(0 0 0)
(0 0 0)
(0 0 0)
(0 0 0)
(0 0 0)
(0 0 0)
(0 0 0)
(0 0 0)
(0 0 0)
(0 0 0)
(0 0 0)
(0 0 0)
(0 0 0)
(-0.000407937 0.000829086 -0.000119769)
(-0.000545708 0.000745653 -0.000119769)
(-0.000666899 0.000639563 -0.000119769)
(-0.000767826 0.000514042 -0.000119768)
(-0.000845424 0.000372901 -0.000119768)
(-0.000897333 0.000220429 -0.000119768)
(-0.000921978 6.12601e-05 -0.000119768)
(-0.000918609 -9.97706e-05 -0.000119769)
(-0.000887328 -0.00025777 -0.000119769)
(-0.000829086 -0.000407937 -0.000119769)
(-0.000745653 -0.000545708 -0.000119769)
(-0.000639563 -0.000666899 -0.000119769)
(-0.000514042 -0.000767826 -0.000119768)
(-0.000372901 -0.000845424 -0.000119768)
(-0.000220429 -0.000897333 -0.000119768)
(-6.126e-05 -0.000921978 -0.000119768)
(9.97706e-05 -0.000918609 -0.000119769)
(0.00025777 -0.000887328 -0.000119769)
(0.000407937 -0.000829086 -0.000119769)
(0.000545708 -0.000745653 -0.000119769)
(0.000666899 -0.000639563 -0.000119769)
(0.000767826 -0.000514042 -0.000119768)
(0.000845424 -0.000372901 -0.000119768)
(0.000897333 -0.000220429 -0.000119768)
(0.000921978 -6.12601e-05 -0.000119768)
(0.000918609 9.97706e-05 -0.000119769)
(0.000887328 0.00025777 -0.000119769)
(0.000829086 0.000407937 -0.000119769)
(0.000745653 0.000545708 -0.000119769)
(0.000639563 0.000666899 -0.000119769)
(0.000514042 0.000767826 -0.000119768)
(0.000372901 0.000845424 -0.000119768)
(0.000220429 0.000897333 -0.000119768)
(6.12601e-05 0.000921978 -0.000119768)
(-9.97706e-05 0.000918609 -0.000119769)
(-0.00025777 0.000887328 -0.000119769)
(-0.000383689 0.000787281 -0.000103868)
(-0.00051457 0.000708693 -0.000103868)
(-0.000629816 0.000608573 -0.000103868)
(-0.000725925 0.00048996 -0.000103868)
(-0.000799977 0.000356462 -0.000103868)
(-0.000849723 0.000212132 -0.000103868)
(-0.000873649 6.1356e-05 -0.000103868)
(-0.000871031 -9.12842e-05 -0.000103868)
(-0.000841947 -0.00024115 -0.000103868)
(-0.000787281 -0.000383689 -0.000103868)
(-0.000708693 -0.00051457 -0.000103868)
(-0.000608573 -0.000629816 -0.000103868)
(-0.00048996 -0.000725925 -0.000103868)
(-0.000356462 -0.000799977 -0.000103868)
(-0.000212132 -0.000849723 -0.000103868)
(-6.1356e-05 -0.000873649 -0.000103868)
(9.12842e-05 -0.000871031 -0.000103868)
(0.00024115 -0.000841947 -0.000103868)
(0.000383689 -0.000787281 -0.000103868)
(0.00051457 -0.000708693 -0.000103868)
(0.000629816 -0.000608573 -0.000103868)
(0.000725925 -0.00048996 -0.000103868)
(0.000799977 -0.000356462 -0.000103868)
(0.000849723 -0.000212132 -0.000103868)
(0.000873649 -6.1356e-05 -0.000103868)
(0.000871031 9.12842e-05 -0.000103868)
(0.000841947 0.00024115 -0.000103868)
(0.000787281 0.000383689 -0.000103868)
(0.000708693 0.00051457 -0.000103868)
(0.000608573 0.000629816 -0.000103868)
(0.00048996 0.000725925 -0.000103868)
(0.000356462 0.000799977 -0.000103868)
(0.000212132 0.000849723 -0.000103868)
(6.1356e-05 0.000873649 -0.000103868)
(-9.12842e-05 0.000871031 -0.000103868)
(-0.00024115 0.000841947 -0.000103868)
(-0.000362197 0.000744454 -8.77357e-05)
(-0.000485966 0.00067025 -8.77357e-05)
(-0.000594971 0.00057568 -8.77357e-05)
(-0.000685898 0.000463619 -8.77357e-05)
(-0.000755984 0.000337469 -8.77357e-05)
(-0.0008031 0.000201067 -8.77357e-05)
(-0.000825815 5.85554e-05 -8.77357e-05)
(-0.000823437 -8.57346e-05 -8.77357e-05)
(-0.000796039 -0.000227421 -8.77357e-05)
(-0.000744454 -0.000362197 -8.77357e-05)
(-0.00067025 -0.000485966 -8.77357e-05)
(-0.00057568 -0.000594971 -8.77357e-05)
(-0.000463619 -0.000685898 -8.77357e-05)
(-0.000337469 -0.000755984 -8.77357e-05)
(-0.000201067 -0.0008031 -8.77357e-05)
(-5.85554e-05 -0.000825815 -8.77358e-05)
(8.57346e-05 -0.000823437 -8.77358e-05)
(0.000227421 -0.000796039 -8.77358e-05)
(0.000362197 -0.000744454 -8.77357e-05)
(0.000485966 -0.00067025 -8.77357e-05)
(0.000594971 -0.00057568 -8.77357e-05)
(0.000685898 -0.000463619 -8.77357e-05)
(0.000755984 -0.000337469 -8.77357e-05)
(0.0008031 -0.000201067 -8.77357e-05)
(0.000825815 -5.85554e-05 -8.77357e-05)
(0.000823437 8.57346e-05 -8.77357e-05)
(0.000796039 0.000227421 -8.77357e-05)
(0.000744454 0.000362197 -8.77357e-05)
(0.00067025 0.000485966 -8.77357e-05)
(0.00057568 0.000594971 -8.77357e-05)
(0.000463619 0.000685898 -8.77357e-05)
(0.000337469 0.000755984 -8.77357e-05)
(0.000201067 0.0008031 -8.77357e-05)
(5.85554e-05 0.000825815 -8.77357e-05)
(-8.57346e-05 0.000823437 -8.77357e-05)
(-0.000227421 0.000796039 -8.77357e-05)
(-0.000342478 0.000699447 -7.24115e-05)
(-0.000458733 0.00062935 -7.24115e-05)
(-0.00056105 0.000540132 -7.24117e-05)
(-0.000646319 0.000434501 -7.24117e-05)
(-0.00071195 0.000315667 -7.24117e-05)
(-0.000755949 0.000187243 -7.24117e-05)
(-0.000776978 5.31295e-05 -7.24116e-05)
(-0.0007744 -8.25987e-05 -7.24116e-05)
(-0.000748292 -0.000215817 -7.24117e-05)
(-0.000699447 -0.000342478 -7.24115e-05)
(-0.00062935 -0.000458733 -7.24115e-05)
(-0.000540132 -0.00056105 -7.24117e-05)
(-0.000434501 -0.000646319 -7.24117e-05)
(-0.000315667 -0.00071195 -7.24117e-05)
(-0.000187243 -0.000755949 -7.24117e-05)
(-5.31295e-05 -0.000776978 -7.24116e-05)
(8.25987e-05 -0.0007744 -7.24116e-05)
(0.000215817 -0.000748292 -7.24117e-05)
(0.000342478 -0.000699447 -7.24115e-05)
(0.000458733 -0.00062935 -7.24115e-05)
(0.00056105 -0.000540132 -7.24117e-05)
(0.000646319 -0.000434501 -7.24117e-05)
(0.00071195 -0.000315667 -7.24117e-05)
(0.000755949 -0.000187243 -7.24117e-05)
(0.000776978 -5.31295e-05 -7.24116e-05)
(0.0007744 8.25987e-05 -7.24116e-05)
(0.000748292 0.000215817 -7.24117e-05)
(0.000699447 0.000342478 -7.24115e-05)
(0.00062935 0.000458733 -7.24115e-05)
(0.000540132 0.00056105 -7.24117e-05)
(0.000434501 0.000646319 -7.24117e-05)
(0.000315667 0.00071195 -7.24117e-05)
(0.000187243 0.000755949 -7.24117e-05)
(5.31295e-05 0.000776978 -7.24116e-05)
(-8.25987e-05 0.0007744 -7.24116e-05)
(-0.000215817 0.000748292 -7.24117e-05)
(-0.000599923 0.00123193 -0.000208891)
(-0.000804731 0.00110904 -0.000208891)
(-0.000985087 0.000952447 -0.000208891)
(-0.00113551 0.000766919 -0.000208891)
(-0.00125143 0.000558087 -0.000208891)
(-0.00132933 0.0003323 -0.000208891)
(-0.00136684 9.64146e-05 -0.000208891)
(-0.00136282 -0.0001424 -0.000208891)
(-0.00131739 -0.000376887 -0.000208891)
(-0.00123193 -0.000599923 -0.000208891)
(-0.00110904 -0.000804731 -0.000208891)
(-0.000952446 -0.000985087 -0.000208891)
(-0.000766919 -0.00113551 -0.000208891)
(-0.000558087 -0.00125143 -0.000208891)
(-0.0003323 -0.00132933 -0.000208891)
(-9.64145e-05 -0.00136684 -0.000208891)
(0.0001424 -0.00136282 -0.000208891)
(0.000376887 -0.00131739 -0.000208891)
(0.000599923 -0.00123193 -0.000208891)
(0.000804731 -0.00110904 -0.000208891)
(0.000985087 -0.000952446 -0.000208891)
(0.00113551 -0.000766919 -0.000208891)
(0.00125143 -0.000558087 -0.000208891)
(0.00132933 -0.0003323 -0.000208891)
(0.00136684 -9.64146e-05 -0.000208891)
(0.00136282 0.0001424 -0.000208891)
(0.00131739 0.000376887 -0.000208891)
(0.00123193 0.000599923 -0.000208891)
(0.00110904 0.000804731 -0.000208891)
(0.000952447 0.000985087 -0.000208891)
(0.000766919 0.00113551 -0.000208891)
(0.000558087 0.00125143 -0.000208891)
(0.0003323 0.00132933 -0.000208891)
(9.64146e-05 0.00136684 -0.000208891)
(-0.0001424 0.00136282 -0.000208891)
(-0.000376887 0.00131739 -0.000208891)
(-0.000567148 0.00116465 -0.000188147)
(-0.000760772 0.00104848 -0.000188147)
(-0.00093128 0.000900441 -0.000188147)
(-0.00107349 0.000725046 -0.000188146)
(-0.00118309 0.000527622 -0.000188146)
(-0.00125673 0.000314165 -0.000188146)
(-0.00129219 9.11628e-05 -0.000188146)
(-0.00128839 -0.000134609 -0.000188146)
(-0.00124544 -0.000356291 -0.000188146)
(-0.00116465 -0.000567148 -0.000188147)
(-0.00104848 -0.000760772 -0.000188147)
(-0.000900441 -0.00093128 -0.000188147)
(-0.000725046 -0.00107349 -0.000188146)
(-0.000527622 -0.00118309 -0.000188146)
(-0.000314165 -0.00125673 -0.000188146)
(-9.11627e-05 -0.00129219 -0.000188146)
(0.000134609 -0.00128839 -0.000188146)
(0.000356292 -0.00124544 -0.000188146)
(0.000567148 -0.00116465 -0.000188147)
(0.000760772 -0.00104848 -0.000188147)
(0.00093128 -0.000900441 -0.000188147)
(0.00107349 -0.000725046 -0.000188146)
(0.00118309 -0.000527622 -0.000188146)
(0.00125673 -0.000314165 -0.000188146)
(0.00129219 -9.11627e-05 -0.000188146)
(0.00128839 0.000134609 -0.000188146)
(0.00124544 0.000356292 -0.000188146)
(0.00116465 0.000567148 -0.000188147)
(0.00104848 0.000760772 -0.000188146)
(0.000900441 0.00093128 -0.000188147)
(0.000725046 0.00107349 -0.000188146)
(0.000527622 0.00118309 -0.000188146)
(0.000314165 0.00125673 -0.000188146)
(9.11628e-05 0.00129219 -0.000188146)
(-0.000134609 0.00128839 -0.000188146)
(-0.000356291 0.00124544 -0.000188146)
(-0.000537055 0.0010964 -0.000167317)
(-0.000719285 0.000986487 -0.000167317)
(-0.000879658 0.000846598 -0.000167317)
(-0.0010133 0.000680986 -0.000167317)
(-0.00111616 0.00049468 -0.000167317)
(-0.00118511 0.000293346 -0.000167317)
(-0.00121804 8.30981e-05 -0.000167317)
(-0.00121397 -0.000129675 -0.000167317)
(-0.001173 -0.000338508 -0.000167317)
(-0.0010964 -0.000537055 -0.000167317)
(-0.000986487 -0.000719285 -0.000167317)
(-0.000846598 -0.000879658 -0.000167317)
(-0.000680986 -0.0010133 -0.000167317)
(-0.00049468 -0.00111616 -0.000167317)
(-0.000293346 -0.00118511 -0.000167317)
(-8.30981e-05 -0.00121804 -0.000167317)
(0.000129675 -0.00121397 -0.000167317)
(0.000338508 -0.001173 -0.000167317)
(0.000537055 -0.0010964 -0.000167317)
(0.000719285 -0.000986487 -0.000167317)
(0.000879658 -0.000846598 -0.000167317)
(0.0010133 -0.000680986 -0.000167317)
(0.00111616 -0.00049468 -0.000167317)
(0.00118511 -0.000293346 -0.000167317)
(0.00121804 -8.30981e-05 -0.000167317)
(0.00121397 0.000129675 -0.000167317)
(0.001173 0.000338508 -0.000167317)
(0.0010964 0.000537055 -0.000167317)
(0.000986487 0.000719285 -0.000167317)
(0.000846598 0.000879658 -0.000167317)
(0.000680986 0.0010133 -0.000167317)
(0.00049468 0.00111616 -0.000167317)
(0.000293346 0.00118511 -0.000167317)
(8.30981e-05 0.00121804 -0.000167317)
(-0.000129675 0.00121397 -0.000167317)
(-0.000338508 0.001173 -0.000167317)
(-0.000508567 0.00102517 -0.000147263)
(-0.00067886 0.000921287 -0.000147263)
(-0.000828526 0.000789408 -0.000147263)
(-0.000953018 0.000633543 -0.000147263)
(-0.00104855 0.000458429 -0.000147263)
(-0.00111223 0.000269385 -0.000147263)
(-0.00114211 7.21554e-05 -0.000147263)
(-0.00113729 -0.000127265 -0.000147263)
(-0.00109791 -0.000322821 -0.000147263)
(-0.00102517 -0.000508567 -0.000147263)
(-0.000921287 -0.00067886 -0.000147263)
(-0.000789408 -0.000828526 -0.000147263)
(-0.000633543 -0.000953018 -0.000147263)
(-0.000458429 -0.00104855 -0.000147263)
(-0.000269384 -0.00111223 -0.000147263)
(-7.21554e-05 -0.00114211 -0.000147263)
(0.000127265 -0.00113729 -0.000147263)
(0.000322821 -0.00109791 -0.000147263)
(0.000508567 -0.00102517 -0.000147263)
(0.00067886 -0.000921287 -0.000147263)
(0.000828526 -0.000789408 -0.000147263)
(0.000953018 -0.000633543 -0.000147263)
(0.00104855 -0.000458429 -0.000147263)
(0.00111223 -0.000269384 -0.000147263)
(0.00114211 -7.21554e-05 -0.000147263)
(0.00113729 0.000127265 -0.000147263)
(0.00109791 0.000322821 -0.000147263)
(0.00102517 0.000508567 -0.000147263)
(0.000921287 0.00067886 -0.000147263)
(0.000789408 0.000828526 -0.000147263)
(0.000633543 0.000953018 -0.000147263)
(0.000458429 0.00104855 -0.000147263)
(0.000269385 0.00111223 -0.000147263)
(7.21554e-05 0.00114211 -0.000147263)
(-0.000127265 0.00113729 -0.000147263)
(-0.000322821 0.00109791 -0.000147263)
(-0.000786951 0.00161632 -0.000314562)
(-0.00105567 0.00145511 -0.000314562)
(-0.00129231 0.00124969 -0.000314562)
(-0.00148968 0.0010063 -0.000314562)
(-0.00164179 0.000732332 -0.000314562)
(-0.00174402 0.000436113 -0.000314562)
(-0.00179325 0.000126642 -0.000314562)
(-0.001788 -0.000186678 -0.000314562)
(-0.00172842 -0.000494324 -0.000314562)
(-0.00161632 -0.000786951 -0.000314562)
(-0.00145511 -0.00105567 -0.000314562)
(-0.00124969 -0.00129231 -0.000314562)
(-0.0010063 -0.00148968 -0.000314562)
(-0.000732332 -0.00164179 -0.000314562)
(-0.000436113 -0.00174402 -0.000314562)
(-0.000126642 -0.00179325 -0.000314562)
(0.000186678 -0.001788 -0.000314562)
(0.000494324 -0.00172842 -0.000314562)
(0.000786951 -0.00161632 -0.000314562)
(0.00105567 -0.00145511 -0.000314562)
(0.00129231 -0.00124969 -0.000314562)
(0.00148968 -0.0010063 -0.000314562)
(0.00164179 -0.000732332 -0.000314562)
(0.00174402 -0.000436113 -0.000314562)
(0.00179325 -0.000126642 -0.000314562)
(0.001788 0.000186678 -0.000314562)
(0.00172842 0.000494324 -0.000314562)
(0.00161632 0.000786951 -0.000314562)
(0.00145511 0.00105567 -0.000314562)
(0.00124969 0.00129231 -0.000314562)
(0.0010063 0.00148968 -0.000314562)
(0.000732332 0.00164179 -0.000314562)
(0.000436113 0.00174402 -0.000314562)
(0.000126642 0.00179325 -0.000314562)
(-0.000186678 0.001788 -0.000314562)
(-0.000494324 0.00172842 -0.000314562)
(-0.000743906 0.00152099 -0.000289048)
(-0.000996722 0.0013687 -0.000289048)
(-0.00121925 0.00117483 -0.000289048)
(-0.00140474 0.000945263 -0.000289048)
(-0.00154754 0.000686971 -0.000289048)
(-0.00164332 0.000407807 -0.000289047)
(-0.00168917 0.000116253 -0.000289047)
(-0.00168369 -0.000178834 -0.000289047)
(-0.00162706 -0.000468487 -0.000289048)
(-0.00152099 -0.000743906 -0.000289048)
(-0.0013687 -0.000996722 -0.000289048)
(-0.00117483 -0.00121925 -0.000289048)
(-0.000945263 -0.00140474 -0.000289048)
(-0.000686971 -0.00154754 -0.000289048)
(-0.000407807 -0.00164332 -0.000289047)
(-0.000116253 -0.00168917 -0.000289048)
(0.000178834 -0.00168369 -0.000289047)
(0.000468488 -0.00162706 -0.000289048)
(0.000743906 -0.00152099 -0.000289048)
(0.000996722 -0.0013687 -0.000289048)
(0.00121925 -0.00117483 -0.000289048)
(0.00140474 -0.000945263 -0.000289048)
(0.00154754 -0.000686971 -0.000289048)
(0.00164332 -0.000407807 -0.000289047)
(0.00168917 -0.000116253 -0.000289047)
(0.00168369 0.000178834 -0.000289047)
(0.00162706 0.000468487 -0.000289048)
(0.00152099 0.000743906 -0.000289048)
(0.0013687 0.000996722 -0.000289048)
(0.00117483 0.00121925 -0.000289048)
(0.000945263 0.00140474 -0.000289048)
(0.000686971 0.00154754 -0.000289048)
(0.000407807 0.00164332 -0.000289047)
(0.000116253 0.00168917 -0.000289047)
(-0.000178834 0.00168369 -0.000289047)
(-0.000468487 0.00162706 -0.000289048)
(-0.000703742 0.00142485 -0.000263546)
(-0.000940472 0.001281 -0.000263546)
(-0.00114863 0.00109822 -0.000263546)
(-0.00132188 0.000882081 -0.000263546)
(-0.00145497 0.00063914 -0.000263546)
(-0.00154385 0.000376777 -0.000263546)
(-0.00158582 0.000102965 -0.000263546)
(-0.00157961 -0.000173974 -0.000263546)
(-0.0015254 -0.000445628 -0.000263546)
(-0.00142485 -0.000703742 -0.000263546)
(-0.001281 -0.000940472 -0.000263546)
(-0.00109822 -0.00114863 -0.000263546)
(-0.000882081 -0.00132188 -0.000263546)
(-0.00063914 -0.00145497 -0.000263546)
(-0.000376777 -0.00154385 -0.000263546)
(-0.000102965 -0.00158582 -0.000263546)
(0.000173974 -0.00157961 -0.000263546)
(0.000445628 -0.0015254 -0.000263546)
(0.000703742 -0.00142485 -0.000263546)
(0.000940472 -0.001281 -0.000263546)
(0.00114863 -0.00109822 -0.000263546)
(0.00132188 -0.000882081 -0.000263546)
(0.00145497 -0.00063914 -0.000263546)
(0.00154385 -0.000376777 -0.000263546)
(0.00158582 -0.000102965 -0.000263546)
(0.00157961 0.000173974 -0.000263546)
(0.0015254 0.000445628 -0.000263546)
(0.00142485 0.000703742 -0.000263546)
(0.001281 0.000940472 -0.000263546)
(0.00109822 0.00114863 -0.000263546)
(0.000882081 0.00132188 -0.000263546)
(0.00063914 0.00145497 -0.000263546)
(0.000376777 0.00154385 -0.000263546)
(0.000102965 0.00158582 -0.000263546)
(-0.000173974 0.00157961 -0.000263546)
(-0.000445628 0.0015254 -0.000263546)
(-0.000664953 0.00132504 -0.000238822)
(-0.000884942 0.00118945 -0.000238822)
(-0.00107804 0.00101771 -0.000238822)
(-0.00123839 0.000815045 -0.000238822)
(-0.0013611 0.000587621 -0.000238822)
(-0.00144247 0.000342339 -0.000238822)
(-0.00148 8.66567e-05 -0.000238822)
(-0.00147256 -0.000171659 -0.000238822)
(-0.00142038 -0.000424759 -0.000238822)
(-0.00132504 -0.000664953 -0.000238822)
(-0.00118945 -0.000884942 -0.000238822)
(-0.00101771 -0.00107804 -0.000238822)
(-0.000815045 -0.00123839 -0.000238822)
(-0.000587621 -0.0013611 -0.000238822)
(-0.000342339 -0.00144247 -0.000238822)
(-8.66566e-05 -0.00148 -0.000238822)
(0.000171659 -0.00147256 -0.000238822)
(0.000424759 -0.00142038 -0.000238822)
(0.000664953 -0.00132504 -0.000238822)
(0.000884942 -0.00118945 -0.000238822)
(0.00107804 -0.00101771 -0.000238822)
(0.00123839 -0.000815045 -0.000238822)
(0.0013611 -0.000587621 -0.000238822)
(0.00144247 -0.000342339 -0.000238822)
(0.00148 -8.66566e-05 -0.000238822)
(0.00147256 0.000171659 -0.000238822)
(0.00142038 0.000424759 -0.000238822)
(0.00132504 0.000664953 -0.000238822)
(0.00118945 0.000884942 -0.000238822)
(0.00101771 0.00107804 -0.000238822)
(0.000815045 0.00123839 -0.000238822)
(0.000587621 0.0013611 -0.000238822)
(0.000342339 0.00144247 -0.000238822)
(8.66567e-05 0.00148 -0.000238822)
(-0.000171659 0.00147256 -0.000238822)
(-0.000424759 0.00142038 -0.000238822)
(-0.000967524 0.00197523 -0.000434262)
(-0.00129582 0.00177722 -0.000434262)
(-0.00158474 0.0015252 -0.000434262)
(-0.00182552 0.00122684 -0.000434262)
(-0.00201082 0.000891205 -0.000434262)
(-0.00213503 0.000528488 -0.000434262)
(-0.00219437 0.000149716 -0.000434262)
(-0.00218703 -0.000233606 -0.000434262)
(-0.00211324 -0.00060983 -0.000434262)
(-0.00197523 -0.000967524 -0.000434262)
(-0.00177722 -0.00129582 -0.000434262)
(-0.0015252 -0.00158474 -0.000434262)
(-0.00122684 -0.00182552 -0.000434262)
(-0.000891205 -0.00201082 -0.000434262)
(-0.000528488 -0.00213503 -0.000434262)
(-0.000149716 -0.00219437 -0.000434262)
(0.000233606 -0.00218703 -0.000434262)
(0.00060983 -0.00211324 -0.000434262)
(0.000967524 -0.00197523 -0.000434262)
(0.00129582 -0.00177722 -0.000434262)
(0.00158474 -0.0015252 -0.000434262)
(0.00182552 -0.00122684 -0.000434262)
(0.00201082 -0.000891205 -0.000434262)
(0.00213503 -0.000528488 -0.000434262)
(0.00219437 -0.000149716 -0.000434262)
(0.00218703 0.000233606 -0.000434262)
(0.00211324 0.00060983 -0.000434262)
(0.00197523 0.000967524 -0.000434262)
(0.00177722 0.00129582 -0.000434262)
(0.0015252 0.00158474 -0.000434262)
(0.00122684 0.00182552 -0.000434262)
(0.000891205 0.00201082 -0.000434262)
(0.000528488 0.00213503 -0.000434262)
(0.000149716 0.00219437 -0.000434262)
(-0.000233606 0.00218703 -0.000434262)
(-0.00060983 0.00211324 -0.000434262)
(-0.000912453 0.00184874 -0.000403555)
(-0.00121962 0.0016622 -0.000403555)
(-0.00148973 0.00142517 -0.000403555)
(-0.00171457 0.00114483 -0.000403555)
(-0.00188732 0.0008297 -0.000403555)
(-0.00200273 0.000489366 -0.000403555)
(-0.00205728 0.000134161 -0.000403555)
(-0.00204932 -0.000225119 -0.000403555)
(-0.00197909 -0.00057756 -0.000403555)
(-0.00184873 -0.000912453 -0.000403555)
(-0.0016622 -0.00121962 -0.000403555)
(-0.00142517 -0.00148973 -0.000403555)
(-0.00114483 -0.00171457 -0.000403555)
(-0.0008297 -0.00188732 -0.000403555)
(-0.000489366 -0.00200273 -0.000403555)
(-0.000134161 -0.00205728 -0.000403555)
(0.000225119 -0.00204932 -0.000403555)
(0.00057756 -0.00197909 -0.000403555)
(0.000912453 -0.00184873 -0.000403555)
(0.00121962 -0.0016622 -0.000403555)
(0.00148973 -0.00142517 -0.000403555)
(0.00171457 -0.00114483 -0.000403555)
(0.00188732 -0.0008297 -0.000403555)
(0.00200273 -0.000489366 -0.000403555)
(0.00205728 -0.000134161 -0.000403555)
(0.00204932 0.000225119 -0.000403555)
(0.00197909 0.00057756 -0.000403555)
(0.00184873 0.000912453 -0.000403555)
(0.0016622 0.00121962 -0.000403555)
(0.00142517 0.00148973 -0.000403555)
(0.00114483 0.00171457 -0.000403555)
(0.0008297 0.00188732 -0.000403555)
(0.000489366 0.00200273 -0.000403555)
(0.000134161 0.00205728 -0.000403555)
(-0.000225119 0.00204932 -0.000403555)
(-0.00057756 0.00197909 -0.000403555)
(-0.000860531 0.00172178 -0.000372942)
(-0.00114644 0.00154619 -0.000372942)
(-0.00139752 0.00132362 -0.000372942)
(-0.00160613 0.00106084 -0.000372942)
(-0.00176594 0.000765818 -0.000372942)
(-0.00187209 0.000447532 -0.000372942)
(-0.00192137 0.000115647 -0.000372942)
(-0.00191226 -0.000219751 -0.000372942)
(-0.00184505 -0.000548473 -0.000372942)
(-0.00172178 -0.000860531 -0.000372942)
(-0.00154619 -0.00114644 -0.000372942)
(-0.00132362 -0.00139752 -0.000372942)
(-0.00106084 -0.00160613 -0.000372942)
(-0.000765818 -0.00176594 -0.000372942)
(-0.000447532 -0.00187209 -0.000372942)
(-0.000115647 -0.00192137 -0.000372942)
(0.000219751 -0.00191226 -0.000372942)
(0.000548473 -0.00184505 -0.000372942)
(0.000860531 -0.00172178 -0.000372942)
(0.00114644 -0.00154619 -0.000372942)
(0.00139752 -0.00132362 -0.000372942)
(0.00160613 -0.00106084 -0.000372942)
(0.00176594 -0.000765818 -0.000372942)
(0.00187209 -0.000447532 -0.000372942)
(0.00192137 -0.000115647 -0.000372942)
(0.00191226 0.000219751 -0.000372942)
(0.00184505 0.000548473 -0.000372942)
(0.00172178 0.000860531 -0.000372942)
(0.00154619 0.00114644 -0.000372942)
(0.00132362 0.00139752 -0.000372942)
(0.00106084 0.00160613 -0.000372942)
(0.000765818 0.00176594 -0.000372942)
(0.000447532 0.00187209 -0.000372942)
(0.000115647 0.00192137 -0.000372942)
(-0.000219751 0.00191226 -0.000372942)
(-0.000548473 0.00184505 -0.000372942)
(-0.000809719 0.00159068 -0.0003431)
(-0.00107364 0.00142591 -0.0003431)
(-0.00130493 0.00121781 -0.000343099)
(-0.00149658 0.000972714 -0.0003431)
(-0.00164275 0.000698057 -0.0003431)
(-0.00173901 0.000402193 -0.0003431)
(-0.00178243 9.41062e-05 -0.0003431)
(-0.00177169 -0.000216841 -0.0003431)
(-0.00170712 -0.000521198 -0.0003431)
(-0.00159068 -0.000809719 -0.0003431)
(-0.00142591 -0.00107364 -0.0003431)
(-0.00121781 -0.00130493 -0.000343099)
(-0.000972714 -0.00149658 -0.0003431)
(-0.000698057 -0.00164275 -0.0003431)
(-0.000402193 -0.00173901 -0.0003431)
(-9.41061e-05 -0.00178243 -0.0003431)
(0.000216841 -0.00177169 -0.0003431)
(0.000521198 -0.00170712 -0.0003431)
(0.000809719 -0.00159068 -0.0003431)
(0.00107364 -0.00142591 -0.0003431)
(0.00130493 -0.00121781 -0.0003431)
(0.00149658 -0.000972714 -0.0003431)
(0.00164275 -0.000698057 -0.0003431)
(0.00173901 -0.000402193 -0.0003431)
(0.00178243 -9.41061e-05 -0.0003431)
(0.00177169 0.000216841 -0.0003431)
(0.00170712 0.000521198 -0.0003431)
(0.00159068 0.000809719 -0.0003431)
(0.00142591 0.00107364 -0.0003431)
(0.00121781 0.00130493 -0.000343099)
(0.000972714 0.00149658 -0.0003431)
(0.000698057 0.00164275 -0.0003431)