/*--------------------------------*- C++ -*----------------------------------*\
| =========                 |                                                 |
| \\      /  F ield         | OpenFOAM: The Open Source CFD Toolbox           |
|  \\    /   O peration     | Version:  2312                                  |
|   \\  /    A nd           | Website:  www.openfoam.com                      |
|    \\/     M anipulation  |                                                 |
\*---------------------------------------------------------------------------*/
FoamFile
{
    version     2.0;
    format      ascii;
    arch        "LSB;label=32;scalar=64";
    class       pointVectorField;
    location    "0.1";
    object      pointD;
}
// * * * * * * * * * * * * * * * * * * * * * * * * * * * * * * * * * * * * * //

dimensions      [0 1 0 0 0 0 0];

internalField   nonuniform List<vector> 
2164
(
(0 0 0)
(0 0 0)
(0 0 0)
(0 0 0)
(0 0 0)
(0 0 0)
(0 0 0)
(0 0 0)
(0 0 0)
(0 0 0)
(0 0 0)
(0 0 0)
(0 0 0)
(0 0 0)
(0 0 0)
(0 0 0)
(0 0 0)
(0 0 0)
(0 0 0)
(0 0 0)
(0 0 0)
(0 0 0)
(0 0 0)
(0 0 0)
(0 0 0)
(0 0 0)
(0 0 0)
(0 0 0)
(0 0 0)
(0 0 0)
(0 0 0)
(0 0 0)
(0 0 0)
(0 0 0)
(0 0 0)
(0 0 0)
(-0.000107806 -3.44039e-05 -6.68171e-05)
(-7.76989e-05 -1.21227e-07 -5.03505e-05)
(-4.09375e-05 3.28739e-05 -2.79451e-05)
(-3.27261e-06 6.6584e-05 -2.99378e-06)
(3.10834e-05 0.000103007 2.43136e-05)
(5.81612e-05 0.000143035 5.544e-05)
(7.39224e-05 0.000185573 9.16835e-05)
(7.72775e-05 0.000225265 0.000129633)
(7.03158e-05 0.000254019 0.000150637)
(5.53273e-05 0.000266529 0.000139977)
(3.916e-05 0.000263768 0.00011152)
(2.98773e-05 0.000251173 8.16963e-05)
(2.93155e-05 0.000233397 5.34484e-05)
(3.58529e-05 0.000212514 2.6682e-05)
(4.69973e-05 0.000188887 1.04675e-06)
(5.94702e-05 0.000161646 -2.28532e-05)
(6.80404e-05 0.000129656 -4.19439e-05)
(6.58189e-05 9.32189e-05 -5.05228e-05)
(4.94412e-05 5.48546e-05 -4.5512e-05)
(2.31119e-05 1.76161e-05 -3.08416e-05)
(-6.04159e-06 -1.74201e-05 -1.25985e-05)
(-3.3506e-05 -5.12234e-05 6.58709e-06)
(-5.69322e-05 -8.54295e-05 2.74315e-05)
(-7.42772e-05 -0.000121553 5.24746e-05)
(-8.29087e-05 -0.000159966 8.43997e-05)
(-8.28237e-05 -0.000196789 0.000121225)
(-7.62929e-05 -0.000224616 0.000144537)
(-6.42806e-05 -0.000237675 0.00013818)
(-5.23e-05 -0.00023579 0.000113465)
(-4.79945e-05 -0.000223524 8.49583e-05)
(-5.34862e-05 -0.000205423 5.53947e-05)
(-6.73989e-05 -0.000184112 2.50994e-05)
(-8.67725e-05 -0.000160568 -5.56577e-06)
(-0.000107256 -0.000134226 -3.50319e-05)
(-0.000122313 -0.000103882 -5.90713e-05)
(-0.000123903 -6.98209e-05 -7.09351e-05)
(-7.01401e-05 -3.04106e-05 -3.74701e-05)
(-5.12986e-05 5.00379e-06 -2.40817e-05)
(-2.88175e-05 3.61399e-05 -8.07351e-06)
(-5.2156e-06 6.48353e-05 9.76558e-06)
(1.72633e-05 9.2675e-05 2.91508e-05)
(3.63426e-05 0.000120732 5.01956e-05)
(5.00812e-05 0.000148813 7.27581e-05)
(5.83209e-05 0.00017486 9.44442e-05)
(6.14975e-05 0.000195907 0.000106385)
(5.93044e-05 0.000209863 0.000101864)
(5.38898e-05 0.000216213 8.68656e-05)
(4.90374e-05 0.000216008 6.90447e-05)
(4.63826e-05 0.000210556 5.06119e-05)
(4.55806e-05 0.000200206 3.23112e-05)
(4.55679e-05 0.00018431 1.4577e-05)
(4.49853e-05 0.000161761 -2.11544e-06)
(4.18543e-05 0.00013096 -1.70805e-05)
(3.42046e-05 9.23386e-05 -2.45786e-05)
(2.15484e-05 5.15641e-05 -1.95422e-05)
(5.20839e-06 1.46421e-05 -7.76725e-06)
(-1.24222e-05 -1.74272e-05 4.9706e-06)
(-2.94064e-05 -4.60399e-05 1.85028e-05)
(-4.45184e-05 -7.25901e-05 3.32222e-05)
(-5.66576e-05 -9.84179e-05 4.99685e-05)
(-6.49111e-05 -0.000123966 6.94414e-05)
(-7.00158e-05 -0.00014781 8.99913e-05)
(-7.28068e-05 -0.000167354 0.000102755)
(-7.24731e-05 -0.000180634 0.000100129)
(-7.04222e-05 -0.000186976 8.67392e-05)
(-6.99269e-05 -0.000187061 6.92185e-05)
(-7.23612e-05 -0.000182007 4.95266e-05)
(-7.71807e-05 -0.000172254 2.85538e-05)
(-8.28771e-05 -0.000157275 7.12961e-06)
(-8.74536e-05 -0.00013595 -1.36299e-05)
(-8.82912e-05 -0.000106556 -3.22304e-05)
(-8.28387e-05 -6.95069e-05 -4.20806e-05)
(0 0 0)
(0 0 0)
(0 0 0)
(0 0 0)
(0 0 0)
(0 0 0)
(0 0 0)
(0 0 0)
(0 0 0)
(0 0 0)
(0 0 0)
(0 0 0)
(0 0 0)
(0 0 0)
(0 0 0)
(0 0 0)
(0 0 0)
(0 0 0)
(0 0 0)
(0 0 0)
(0 0 0)
(0 0 0)
(0 0 0)
(0 0 0)
(0 0 0)
(0 0 0)
(0 0 0)
(0 0 0)
(0 0 0)
(0 0 0)
(0 0 0)
(0 0 0)
(0 0 0)
(0 0 0)
(0 0 0)
(0 0 0)
(-3.75777e-05 -2.75636e-05 -7.60234e-06)
(-2.93867e-05 8.87678e-06 1.08395e-06)
(-2.03792e-05 3.82802e-05 1.0703e-05)
(-9.94178e-06 6.20271e-05 2.15798e-05)
(1.55039e-06 8.17241e-05 3.32265e-05)
(1.34743e-05 9.88742e-05 4.44284e-05)
(2.56563e-05 0.000114383 5.34994e-05)
(3.90198e-05 0.000128999 5.90642e-05)
(5.29511e-05 0.000143539 6.21563e-05)
(6.36731e-05 0.000158212 6.39447e-05)
(6.87213e-05 0.000171761 6.23006e-05)
(6.86291e-05 0.000182187 5.61442e-05)
(6.45714e-05 0.000187909 4.71375e-05)
(5.72566e-05 0.000187461 3.69654e-05)
(4.69818e-05 0.000179021 2.68838e-05)
(3.41923e-05 0.000160818 1.74346e-05)
(2.0164e-05 0.000131147 8.31642e-06)
(7.5777e-06 9.13981e-05 3.4521e-06)
(-1.56336e-06 4.93209e-05 6.90434e-06)
(-8.46442e-06 1.28441e-05 1.41018e-05)
(-1.51828e-05 -1.62996e-05 2.13053e-05)
(-2.23712e-05 -3.96044e-05 2.93291e-05)
(-2.98851e-05 -5.8676e-05 3.80941e-05)
(-3.7564e-05 -7.49716e-05 4.67222e-05)
(-4.59174e-05 -8.93386e-05 5.38171e-05)
(-5.66233e-05 -0.000102533 5.82325e-05)
(-6.9474e-05 -0.000115557 6.08607e-05)
(-8.07899e-05 -0.000129053 6.23697e-05)
(-8.81453e-05 -0.000142152 6.03393e-05)
(-9.16176e-05 -0.000152926 5.35206e-05)
(-9.15946e-05 -0.000159655 4.33352e-05)
(-8.81892e-05 -0.000160611 3.13487e-05)
(-8.1287e-05 -0.000153685 1.88798e-05)
(-7.10962e-05 -0.000136848 6.76239e-06)
(-5.8797e-05 -0.000108254 -4.79039e-06)
(-4.6986e-05 -6.9244e-05 -1.11199e-05)
(0 0 0)
(0 0 0)
(0 0 0)
(0 0 0)
(0 0 0)
(0 0 0)
(0 0 0)
(0 0 0)
(0 0 0)
(0 0 0)
(0 0 0)
(0 0 0)
(0 0 0)
(0 0 0)
(0 0 0)
(0 0 0)
(0 0 0)
(0 0 0)
(0 0 0)
(0 0 0)
(0 0 0)
(0 0 0)
(0 0 0)
(0 0 0)
(0 0 0)
(0 0 0)
(0 0 0)
(0 0 0)
(0 0 0)
(0 0 0)
(0 0 0)
(0 0 0)
(0 0 0)
(0 0 0)
(0 0 0)
(0 0 0)
(-1.34342e-05 -2.66795e-05 2.20693e-05)
(-1.37863e-05 9.88076e-06 2.47371e-05)
(-1.60402e-05 3.75121e-05 2.82419e-05)
(-1.6777e-05 5.66234e-05 3.23784e-05)
(-1.44924e-05 6.91341e-05 3.6304e-05)
(-8.19519e-06 7.72269e-05 3.78228e-05)
(3.1974e-06 8.31493e-05 3.43324e-05)
(2.13586e-05 8.96576e-05 2.61498e-05)
(4.50831e-05 9.94487e-05 2.19632e-05)
(6.71301e-05 0.000113805 2.84581e-05)
(8.13175e-05 0.000131643 3.79363e-05)
(8.60975e-05 0.000149776 4.25548e-05)
(8.1728e-05 0.000164522 4.26814e-05)
(6.94786e-05 0.000172565 4.04689e-05)
(5.08994e-05 0.000170804 3.77707e-05)
(2.8222e-05 0.000156539 3.54031e-05)
(5.71499e-06 0.000128589 3.35732e-05)
(-1.0516e-05 9.00698e-05 3.27437e-05)
(-1.70024e-05 4.90947e-05 3.31892e-05)
(-1.64429e-05 1.38549e-05 3.44675e-05)
(-1.40836e-05 -1.23854e-05 3.63509e-05)
(-1.30159e-05 -3.05664e-05 3.90152e-05)
(-1.43423e-05 -4.27819e-05 4.17396e-05)
(-1.89111e-05 -5.09491e-05 4.22545e-05)
(-2.81526e-05 -5.681e-05 3.77402e-05)
(-4.43612e-05 -6.27988e-05 2.84066e-05)
(-6.65997e-05 -7.17269e-05 2.27434e-05)
(-8.80251e-05 -8.52573e-05 2.72048e-05)
(-0.000103235 -0.000102743 3.45993e-05)
(-0.000110464 -0.000121381 3.7649e-05)
(-0.000108865 -0.00013752 3.66222e-05)
(-9.88518e-05 -0.000147416 3.33548e-05)
(-8.16047e-05 -0.000147416 2.94485e-05)
(-5.94233e-05 -0.00013442 2.56697e-05)
(-3.68438e-05 -0.000107096 2.25116e-05)
(-2.02727e-05 -6.84712e-05 2.10771e-05)
(0 0 0)
(0 0 0)
(0 0 0)
(0 0 0)
(0 0 0)
(0 0 0)
(0 0 0)
(0 0 0)
(0 0 0)
(0 0 0)
(0 0 0)
(0 0 0)
(0 0 0)
(0 0 0)
(0 0 0)
(0 0 0)
(0 0 0)
(0 0 0)
(0 0 0)
(0 0 0)
(0 0 0)
(0 0 0)
(0 0 0)
(0 0 0)
(0 0 0)
(0 0 0)
(0 0 0)
(0 0 0)
(0 0 0)
(0 0 0)
(0 0 0)
(0 0 0)
(0 0 0)
(0 0 0)
(0 0 0)
(0 0 0)
(-0.000191832 -6.78848e-05 -0.000126353)
(-0.000141996 2.69813e-06 -9.56336e-05)
(-8.09237e-05 6.7422e-05 -5.0709e-05)
(-1.74845e-05 0.000129691 1.70317e-06)
(4.12229e-05 0.000193526 6.02199e-05)
(8.88187e-05 0.000260876 0.000126096)
(0.00012005 0.000330314 0.000199113)
(0.000134067 0.000395217 0.000270559)
(0.000134054 0.000445558 0.000312452)
(0.000121555 0.000473655 0.0003008)
(0.000102919 0.000479096 0.000251561)
(8.94936e-05 0.000467784 0.000192009)
(8.64472e-05 0.000445497 0.000132072)
(9.2958e-05 0.000414806 7.43713e-05)
(0.000105538 0.00037556 1.96443e-05)
(0.000118839 0.000325424 -3.0055e-05)
(0.000124916 0.000262128 -6.85777e-05)
(0.000114956 0.000187716 -8.6231e-05)
(8.54031e-05 0.000109331 -7.8068e-05)
(4.1462e-05 3.48983e-05 -5.03979e-05)
(-7.43611e-06 -3.2358e-05 -1.36768e-05)
(-5.40548e-05 -9.44337e-05 2.67586e-05)
(-9.40354e-05 -0.000154747 7.1449e-05)
(-0.000124101 -0.000216002 0.000123975)
(-0.000141637 -0.000278763 0.000186824)
(-0.000147863 -0.000338669 0.000254032)
(-0.000146947 -0.000387011 0.000299219)
(-0.000139491 -0.000415716 0.000295747)
(-0.000129333 -0.000422648 0.000253685)
(-0.000126125 -0.000412359 0.000196558)
(-0.000134995 -0.000390497 0.000133664)
(-0.000154992 -0.00036021 6.84286e-05)
(-0.000181704 -0.000321996 3.12904e-06)
(-0.000208183 -0.0002738 -5.81799e-05)
(-0.00022469 -0.000213225 -0.00010714)
(-0.000220842 -0.000142275 -0.000132031)
(-0.000137156 -6.26937e-05 -7.0279e-05)
(-0.000102751 7.82402e-06 -4.50479e-05)
(-6.17716e-05 6.91635e-05 -1.10221e-05)
(-1.83437e-05 0.000124525 2.8355e-05)
(2.35124e-05 0.000177164 7.17184e-05)
(5.98878e-05 0.000229283 0.000118439)
(8.78662e-05 0.000280815 0.000166799)
(0.000107143 0.000328795 0.000210896)
(0.000118551 0.00036866 0.000236462)
(0.000121149 0.000396906 0.000231839)
(0.00011648 0.000412343 0.000204069)
(0.00010989 0.000415979 0.000166552)
(0.000104892 0.000409271 0.00012576)
(0.000101771 0.000392322 8.46466e-05)
(9.90675e-05 0.000363566 4.48971e-05)
(9.44843e-05 0.000320479 8.26813e-06)
(8.49732e-05 0.000260158 -2.19773e-05)
(6.80997e-05 0.000184785 -3.65705e-05)
(4.3676e-05 0.000105208 -2.88775e-05)
(1.35227e-05 3.27345e-05 -6.72825e-06)
(-1.90238e-05 -2.96171e-05 2.05139e-05)
(-5.07218e-05 -8.44123e-05 5.05783e-05)
(-7.91879e-05 -0.000134622 8.35501e-05)
(-0.000102526 -0.000182829 0.000120409)
(-0.000119751 -0.000229933 0.000161191)
(-0.000132248 -0.000274022 0.000201602)
(-0.000141946 -0.000311246 0.000228019)
(-0.000147727 -0.000338415 0.000227028)
(-0.0001497 -0.000354095 0.000202389)
(-0.000151788 -0.000358689 0.000165297)
(-0.000156792 -0.0003533 0.000121595)
(-0.000164381 -0.000338024 7.4548e-05)
(-0.000172222 -0.00031135 2.67507e-05)
(-0.000176949 -0.000270651 -1.86644e-05)
(-0.000174498 -0.000212813 -5.68048e-05)
(-0.000161542 -0.00013991 -7.66902e-05)
(-8.57038e-05 -5.88352e-05 -1.27035e-05)
(-6.64149e-05 1.16628e-05 4.99963e-06)
(-4.51508e-05 6.9999e-05 2.78469e-05)
(-2.13285e-05 0.000118459 5.42209e-05)
(4.0772e-06 0.000159997 8.24736e-05)
(2.96715e-05 0.000197302 0.000110023)
(5.46617e-05 0.000231892 0.00013346)
(7.95812e-05 0.00026436 0.000149699)
(0.00010334 0.000294888 0.000159137)
(0.000121467 0.000323126 0.000162234)
(0.000130616 0.000347312 0.000156188)
(0.000131037 0.000364748 0.000140707)
(0.00012445 0.00037299 0.000118928)
(0.000112073 0.000369493 9.42206e-05)
(9.44757e-05 0.000351064 6.93402e-05)
(7.23768e-05 0.000314476 4.61316e-05)
(4.77459e-05 0.000256955 2.62744e-05)
(2.43564e-05 0.000181776 1.64106e-05)
(4.9943e-06 0.000102207 2.18131e-05)
(-1.15991e-05 3.17108e-05 3.63622e-05)
(-2.79786e-05 -2.59677e-05 5.38089e-05)
(-4.49801e-05 -7.32544e-05 7.35384e-05)
(-6.22055e-05 -0.000113161 9.48397e-05)
(-7.9196e-05 -0.000148408 0.000115973)
(-9.63969e-05 -0.000180573 0.000134292)
(-0.000115713 -0.000210369 0.000147315)
(-0.000137026 -0.000238311 0.000155356)
(-0.0001563 -0.000264705 0.00015782)
(-0.000170026 -0.000288398 0.000150943)
(-0.000177404 -0.000306781 0.000133877)
(-0.000178818 -0.000317072 0.000109233)
(-0.000174412 -0.000316271 8.01918e-05)
(-0.000163952 -0.000300715 4.97477e-05)
(-0.000147594 -0.000266768 2.04622e-05)
(-0.000126941 -0.000211391 -4.8527e-06)
(-0.000105457 -0.000137678 -1.80615e-05)
(-4.21716e-05 -5.72227e-05 4.48783e-05)
(-3.56434e-05 1.21683e-05 5.34418e-05)
(-3.16215e-05 6.75834e-05 6.52197e-05)
(-2.53072e-05 0.000109458 7.87189e-05)
(-1.46317e-05 0.000140735 9.17151e-05)
(1.49002e-06 0.000164777 0.000100172)
(2.39523e-05 0.000184883 9.98416e-05)
(5.3967e-05 0.000204712 9.11849e-05)
(8.90525e-05 0.000227752 8.68141e-05)
(0.000120896 0.000255391 9.5939e-05)
(0.000141981 0.000285727 0.000108502)
(0.000148974 0.000314161 0.000113652)
(0.000141595 0.00033522 0.00011056)
(0.000121477 0.000343716 0.000102236)
(9.10813e-05 0.000334726 9.21e-05)
(5.41026e-05 0.000304038 8.23906e-05)
(1.71213e-05 0.000250061 7.46595e-05)
(-1.13003e-05 0.000178068 7.10143e-05)
(-2.65017e-05 0.000101529 7.25699e-05)
(-3.17413e-05 3.39535e-05 7.79579e-05)
(-3.40025e-05 -1.92216e-05 8.56778e-05)
(-3.78932e-05 -5.92078e-05 9.51069e-05)
(-4.51685e-05 -8.93067e-05 0.000104446)
(-5.68932e-05 -0.000112649 0.000109727)
(-7.45397e-05 -0.000131938 0.000106494)
(-0.000100374 -0.000150414 9.49781e-05)
(-0.000132599 -0.000171732 8.73233e-05)
(-0.000163701 -0.000197838 9.22193e-05)
(-0.000187126 -0.000227566 0.000100381)
(-0.000198993 -0.00025694 0.000101947)
(-0.000197378 -0.000280444 9.58973e-05)
(-0.000182531 -0.00029221 8.46612e-05)
(-0.000156182 -0.000286474 7.12666e-05)
(-0.000121867 -0.000258397 5.80232e-05)
(-8.62489e-05 -0.000206082 4.72035e-05)
(-5.805e-05 -0.000134557 4.21782e-05)
(-0.000267234 -0.000107975 -0.000167014)
(-0.0002019 -3.46261e-06 -0.000126033)
(-0.000121768 9.2118e-05 -6.04869e-05)
(-3.76202e-05 0.000182426 2.02854e-05)
(4.12108e-05 0.000272492 0.000112627)
(0.000106728 0.000364799 0.000215507)
(0.000153325 0.000457774 0.000325266)
(0.000180088 0.000545012 0.000428902)
(0.00019065 0.00061654 0.000494228)
(0.000187363 0.000662383 0.000489316)
(0.000172915 0.000679089 0.000426059)
(0.000157938 0.000672141 0.00033846)
(0.000151895 0.00064803 0.000244617)
(0.000155593 0.000609386 0.000152387)
(0.000165425 0.000555784 6.58003e-05)
(0.000174699 0.000484214 -1.04787e-05)
(0.000174118 0.000392342 -6.77466e-05)
(0.000154637 0.000284006 -9.46988e-05)
(0.000113182 0.000169868 -8.60753e-05)
(5.51349e-05 6.14201e-05 -4.88167e-05)
(-9.39909e-06 -3.62555e-05 4.75775e-06)
(-7.14863e-05 -0.000125286 6.7082e-05)
(-0.000125086 -0.000210015 0.000137335)
(-0.000166162 -0.000293772 0.000218071)
(-0.000192777 -0.000377291 0.000309751)
(-0.000206739 -0.000457169 0.000403685)
(-0.000213446 -0.000525738 0.000471132)
(-0.000215969 -0.000572972 0.000477547)
(-0.000213902 -0.000592782 0.000425195)
(-0.000214257 -0.000588439 0.000341153)
(-0.000225809 -0.000566228 0.000242603)
(-0.000248711 -0.000529335 0.000138657)
(-0.000278037 -0.000478018 3.57105e-05)
(-0.000305149 -0.000409586 -5.85497e-05)
(-0.000318635 -0.000321559 -0.000132188)
(-0.00030756 -0.000217588 -0.000170907)
(-0.000202351 -0.000101371 -8.58844e-05)
(-0.000153801 4.11851e-07 -5.2001e-05)
(-9.62102e-05 9.0153e-05 -8.80206e-07)
(-3.48714e-05 0.000171324 6.1251e-05)
(2.46833e-05 0.000248071 0.000131061)
(7.725e-05 0.000323182 0.000205947)
(0.000119203 0.000396624 0.000281545)
(0.000149822 0.000465208 0.000348812)
(0.000170294 0.000523582 0.000390285)
(0.000180422 0.000566719 0.000389844)
(0.000179836 0.000592319 0.000352715)
(0.000173204 0.000601048 0.000296058)
(0.000166187 0.000594182 0.000231145)
(0.0001601 0.000571544 0.000164492)
(0.000153525 0.000531061 0.000100373)
(0.000143532 0.000469443 4.28213e-05)
(0.000126527 0.000383581 -2.04147e-06)
(0.000100033 0.000277462 -2.36331e-05)
(6.41671e-05 0.000165296 -1.57613e-05)
(2.11373e-05 6.17116e-05 1.39443e-05)
(-2.51873e-05 -2.84696e-05 5.4823e-05)
(-7.06251e-05 -0.000108017 0.000102254)
(-0.000111705 -0.000180816 0.00015509)
(-0.000145837 -0.000250152 0.000213277)
(-0.000172024 -0.000317218 0.000275193)
(-0.000191815 -0.000380326 0.000334433)
(-0.000208256 -0.000435273 0.000375184)
(-0.000222025 -0.000477473 0.000379393)
(-0.000230959 -0.000504179 0.00034686)
(-0.000237079 -0.000515115 0.00029063)
(-0.000244709 -0.000510952 0.000220929)
(-0.000254072 -0.000491357 0.000144794)
(-0.000262499 -0.000454248 6.79526e-05)
(-0.000265674 -0.000396209 -3.44473e-06)
(-0.000258674 -0.000313864 -6.08532e-05)
(-0.000237854 -0.000210923 -9.11294e-05)
(-0.000139535 -9.61673e-05 -2.75894e-06)
(-0.000107704 2.91245e-06 2.21201e-05)
(-7.25169e-05 8.72066e-05 5.83009e-05)
(-3.38123e-05 0.00015911 0.000101689)
(6.66057e-06 0.000222309 0.000148862)
(4.65331e-05 0.000280119 0.000195552)
(8.40608e-05 0.000334253 0.000236549)
(0.000118779 0.000384855 0.000266726)
(0.000150034 0.000431268 0.000284475)
(0.000174341 0.000472455 0.000289208)
(0.000187536 0.000506422 0.000278483)
(0.00018918 0.000530017 0.000252981)
(0.000181346 0.000540055 0.00021713)
(0.000165622 0.000533336 0.000176083)
(0.000142776 0.000505882 0.000134513)
(0.000113638 0.000453636 9.63185e-05)
(8.04564e-05 0.000373629 6.58422e-05)
(4.72672e-05 0.000270878 5.09619e-05)
(1.70757e-05 0.000161861 5.65471e-05)
(-1.09225e-05 6.31666e-05 7.6758e-05)
(-3.89914e-05 -1.97494e-05 0.000104387)
(-6.77753e-05 -8.94495e-05 0.00013683)
(-9.63997e-05 -0.000149791 0.000172179)
(-0.000123774 -0.000204262 0.000207627)
(-0.000149759 -0.00025479 0.000239288)
(-0.000175684 -0.000301774 0.000262992)
(-0.000202729 -0.000344941 0.000277221)
(-0.000228422 -0.000383986 0.000280199)
(-0.000248105 -0.00041775 0.000267889)
(-0.00025973 -0.000443199 0.000239627)
(-0.000263512 -0.00045654 0.000198875)
(-0.000259524 -0.000453885 0.000150567)
(-0.000247372 -0.000430621 9.98641e-05)
(-0.00022703 -0.000382175 5.18349e-05)
(-0.000200095 -0.000305224 1.25546e-05)
(-0.000170051 -0.000204446 -7.87573e-06)
(-8.32401e-05 -9.30254e-05 8.00876e-05)
(-6.61888e-05 2.26494e-06 9.43881e-05)
(-5.12626e-05 8.12628e-05 0.000115491)
(-3.34161e-05 0.000144157 0.000140221)
(-1.06853e-05 0.000194388 0.000164699)
(1.73751e-05 0.000235927 0.000183454)
(5.06862e-05 0.000272341 0.000191206)
(8.89794e-05 0.000307011 0.000187472)
(0.000130295 0.000343438 0.000184533)
(0.000167628 0.000383098 0.000193279)
(0.000192867 0.000423563 0.000205394)
(0.000201836 0.000459484 0.00020897)
(0.000193547 0.000484459 0.000201432)
(0.000169388 0.000492246 0.000185781)
(0.000132144 0.000476854 0.000166659)
(8.62912e-05 0.000433235 0.000148137)
(3.94554e-05 0.000359792 0.000133672)
(9.52344e-07 0.000263381 0.000126686)
(-2.42006e-05 0.000160491 0.000128683)
(-3.8998e-05 6.75904e-05 0.000137979)
(-5.05649e-05 -8.31755e-06 0.000152241)
(-6.39557e-05 -6.83533e-05 0.000169688)
(-8.09887e-05 -0.000116492 0.000187302)
(-0.000102193 -0.000156597 0.000199997)
(-0.000128149 -0.000191653 0.000202397)
(-0.000159863 -0.000224454 0.000193431)
(-0.000196981 -0.000258579 0.00018445)
(-0.000233665 -0.000296225 0.000185984)
(-0.000262343 -0.000336004 0.000190974)
(-0.000278185 -0.000373392 0.000188593)
(-0.000278261 -0.000401857 0.000175822)
(-0.000262163 -0.000414227 0.000154886)
(-0.00023161 -0.000403403 0.00012999)
(-0.000190652 -0.000363508 0.000105452)
(-0.000146765 -0.000292494 8.58718e-05)
(-0.000109229 -0.000196874 7.6507e-05)
(-0.000337915 -0.000157504 -0.000174366)
(-0.000259808 -2.37092e-05 -0.000129133)
(-0.0001646 0.000100343 -4.94864e-05)
(-6.39166e-05 0.000217296 5.39133e-05)
(3.17234e-05 0.00033197 0.000174877)
(0.0001136 0.000447014 0.000309138)
(0.000176001 0.000561213 0.000449339)
(0.000217416 0.000669257 0.000579421)
(0.000241486 0.000761976 0.000666559)
(0.000251915 0.000827131 0.000674771)
(0.000246392 0.000857321 0.000607514)
(0.000232777 0.00085719 0.000499597)
(0.000224326 0.000833777 0.000377312)
(0.000223433 0.000789327 0.000254702)
(0.000227232 0.0007234 0.000140268)
(0.000228866 0.000633364 4.16938e-05)
(0.000218967 0.000518022 -3.08137e-05)
(0.000188932 0.000382834 -6.62777e-05)
(0.000136113 0.000240196 -6.01073e-05)
(6.59494e-05 0.00010325 -1.86533e-05)
(-1.13691e-05 -2.14483e-05 4.60683e-05)
(-8.61893e-05 -0.000135091 0.000125308)
(-0.000151587 -0.000241898 0.00021636)
(-0.000203308 -0.000345498 0.000319586)
(-0.000239995 -0.000447262 0.000433046)
(-0.000263469 -0.000545496 0.000546325)
(-0.000279663 -0.000634387 0.000631898)
(-0.000294533 -0.000702511 0.000652923)
(-0.000303977 -0.000739035 0.000600039)
(-0.000310515 -0.000744615 0.000496938)
(-0.000324776 -0.000725486 0.000368662)
(-0.000348192 -0.00068463 0.000230834)
(-0.000376321 -0.000622405 9.49521e-05)
(-0.000400131 -0.000536648 -2.73595e-05)
(-0.000407845 -0.000426052 -0.000121723)
(-0.000388633 -0.000295724 -0.000173322)
(-0.000266962 -0.000147835 -7.28321e-05)
(-0.000205515 -2.00622e-05 -3.5339e-05)
(-0.000133101 9.52079e-05 2.75083e-05)
(-5.57895e-05 0.000200587 0.000107742)
(1.9844e-05 0.000300258 0.000199929)
(8.77079e-05 0.000397122 0.000299017)
(0.000143586 0.000491227 0.000397915)
(0.000186175 0.000579569 0.000485131)
(0.000216946 0.000656414 0.000541849)
(0.000236647 0.000715125 0.000549385)
(0.000242457 0.000751855 0.000509025)
(0.000237501 0.000766714 0.000438555)
(0.000229235 0.000760755 0.000353727)
(0.000219929 0.000733579 0.000265035)
(0.000208569 0.000683038 0.000179999)
(0.000192128 0.000605867 0.000105217)
(0.000166969 0.000499905 4.88072e-05)
(0.000130732 0.00037075 2.09473e-05)
(8.369e-05 0.00023387 2.65958e-05)
(2.84456e-05 0.000105072 5.93822e-05)
(-3.07125e-05 -9.36015e-06 0.000109195)
(-8.89938e-05 -0.000111403 0.000169923)
(-0.000142147 -0.000205099 0.000238866)
(-0.000187059 -0.00029401 0.000314309)
(-0.000222605 -0.000379651 0.000392806)
(-0.000250228 -0.00046096 0.000466395)
(-0.000273841 -0.000533878 0.000519022)
(-0.000296181 -0.000592496 0.000530928)
(-0.000313379 -0.000632191 0.000496225)
(-0.000324867 -0.000651418 0.000426174)
(-0.000335445 -0.000650175 0.000334975)
(-0.000345862 -0.000627767 0.000233751)
(-0.000353572 -0.000582006 0.000131894)
(-0.000353918 -0.000509543 3.87423e-05)
(-0.000341657 -0.000407923 -3.44621e-05)
(-0.000312979 -0.000282315 -7.42555e-05)
(-0.000197098 -0.000139402 3.05282e-05)
(-0.000152501 -1.76767e-05 5.86971e-05)
(-0.000102963 8.90641e-05 0.000104124)
(-4.90213e-05 0.00018261 0.000161048)
(6.65937e-06 0.000266809 0.000224353)
(6.0632e-05 0.000345046 0.000288089)
(0.000110139 0.000418791 0.000345327)
(0.000153922 0.000487535 0.000389083)
(0.000192198 0.000549704 0.00041534)
(0.000222386 0.000603545 0.000422658)
(0.000239565 0.000646849 0.000409476)
(0.000242946 0.000676037 0.000376729)
(0.000234846 0.000687388 0.000329553)
(0.000217091 0.00067756 0.00027487)
(0.000190502 0.000642397 0.000219393)
(0.00015588 0.000577642 0.000169142)
(0.000115472 0.000480945 0.000130474)
(7.32279e-05 0.000358701 0.000111185)
(3.22008e-05 0.000228472 0.000115149)
(-7.86062e-06 0.00010787 0.000137646)
(-4.86031e-05 3.60632e-06 0.000171893)
(-9.0166e-05 -8.63585e-05 0.000213971)
(-0.000130984 -0.000166193 0.000260749)
(-0.000169118 -0.00023963 0.000308285)
(-0.000203661 -0.000308545 0.000351494)
(-0.000235429 -0.000372856 0.000384709)
(-0.000267183 -0.000431432 0.000404139)
(-0.000298118 -0.000483274 0.000407535)
(-0.000322995 -0.00052712 0.000391581)
(-0.00033897 -0.000559481 0.000354821)
(-0.000345777 -0.000575747 0.000300823)
(-0.000343217 -0.00057157 0.000236263)
(-0.000330629 -0.000541976 0.000168531)
(-0.000307709 -0.000482108 0.000105152)
(-0.000275806 -0.000389188 5.46825e-05)
(-0.00023809 -0.000269169 2.7731e-05)
(-0.000132134 -0.000132591 0.000133066)
(-0.000103019 -1.79397e-05 0.000150535)
(-7.4792e-05 8.0398e-05 0.000178242)
(-4.29938e-05 0.000162288 0.000211946)
(-6.45095e-06 0.000231267 0.000246485)
(3.40827e-05 0.000291282 0.000275341)
(7.72897e-05 0.000345353 0.000292368)
(0.000121859 0.00039571 0.000295745)
(0.000167275 0.000445253 0.000294879)
(0.000207832 0.000495644 0.000301627)
(0.000235253 0.000544349 0.000312167)
(0.000245696 0.000585597 0.000314453)
(0.000237732 0.000612621 0.000303671)
(0.000212274 0.000618925 0.000282495)
(0.000171861 0.000598197 0.000256447)
(0.000121002 0.000545121 0.000231181)
(6.74032e-05 0.000458323 0.000211614)
(2.03485e-05 0.00034559 0.000201724)
(-1.50146e-05 0.00022461 0.000203033)
(-4.11957e-05 0.000113017 0.00021409)
(-6.47546e-05 1.86852e-05 0.000232553)
(-9.03447e-05 -5.932e-05 0.000255988)
(-0.000119164 -0.000125237 0.000280493)
(-0.000150643 -0.000183073 0.000300255)
(-0.000184186 -0.000235342 0.000309182)
(-0.000219833 -0.000283545 0.000304613)
(-0.000259433 -0.000330377 0.000294233)
(-0.000298971 -0.000378334 0.000289955)
(-0.0003305 -0.000426333 0.000290309)
(-0.000349477 -0.000469641 0.000284132)
(-0.000352262 -0.000501295 0.000265778)
(-0.000337492 -0.000513568 0.000237069)
(-0.000306279 -0.000498717 0.000203044)
(-0.00026247 -0.000450379 0.000169668)
(-0.000213434 -0.000366612 0.000143247)
(-0.000168246 -0.000254822 0.000130004)
(-0.000407433 -0.000216858 -0.000144078)
(-0.000318111 -5.99163e-05 -0.000100118)
(-0.000210021 8.86524e-05 -1.39551e-05)
(-9.50773e-05 0.000229847 0.000103682)
(1.57551e-05 0.000367466 0.000244635)
(0.000113556 0.000504027 0.000401611)
(0.000192489 0.000638855 0.000564093)
(0.000250308 0.000767673 0.000713823)
(0.000289574 0.000881895 0.000819962)
(0.000313657 0.000967333 0.000846321)
(0.000317981 0.00101254 0.000784681)
(0.000308312 0.00102065 0.000665661)
(0.000298758 0.000999348 0.000523506)
(0.00029299 0.000950856 0.00037823)
(0.00028933 0.000875129 0.000242799)
(0.00028168 0.00077074 0.000127658)
(0.000261361 0.000638277 4.36212e-05)
(0.000220449 0.000484388 4.47885e-07)
(0.000156606 0.000321579 1.81405e-06)
(7.52374e-05 0.000162949 4.23955e-05)
(-1.35929e-05 1.59558e-05 0.000111606)
(-0.000100052 -0.000119116 0.00020054)
(-0.000176921 -0.000245658 0.000304849)
(-0.000239974 -0.000367369 0.00042258)
(-0.000288101 -0.000486442 0.000549643)
(-0.00032299 -0.000602704 0.000674617)
(-0.000349764 -0.000711927 0.000773454)
(-0.000374834 -0.000802304 0.00081126)
(-0.000395024 -0.000858845 0.000766221)
(-0.00040961 -0.000877702 0.000653948)
(-0.000426966 -0.000864122 0.000505501)
(-0.000450016 -0.00082161 0.000342536)
(-0.000475264 -0.000751156 0.00018159)
(-0.000494145 -0.000652059 3.79148e-05)
(-0.00049517 -0.000524918 -7.26613e-05)
(-0.000467784 -0.000375923 -0.000135822)
(-0.000332022 -0.000201352 -2.82058e-05)
(-0.000258806 -5.36174e-05 8.23196e-06)
(-0.000172978 8.31627e-05 7.64168e-05)
(-8.11549e-05 0.000210226 0.000167918)
(9.42692e-06 0.000331151 0.000275706)
(9.2098e-05 0.000448595 0.000392538)
(0.000162125 0.000562608 0.000508997)
(0.000217566 0.000670299 0.000611743)
(0.000259496 0.00076566 0.000682145)
(0.000288668 0.000840604 0.00070081)
(0.000301369 0.000889243 0.000663358)
(0.000299693 0.000910864 0.000585597)
(0.000291288 0.000906616 0.000487334)
(0.000279098 0.000876201 0.000382789)
(0.000262723 0.000817826 0.000282592)
(0.000239508 0.00072895 0.000195601)
(0.000206108 0.00060893 0.000130898)
(0.000160337 0.000464508 9.74672e-05)
(0.000102552 0.000310849 9.9047e-05)
(3.5657e-05 0.000163377 0.000130726)
(-3.57007e-05 2.92841e-05 0.000183888)
(-0.000106314 -9.21822e-05 0.000252008)
(-0.000171428 -0.000204637 0.000331102)
(-0.000227535 -0.000311601 0.000417814)
(-0.000273241 -0.000414846 0.00050709)
(-0.000309722 -0.000513787 0.000589915)
(-0.000340808 -0.000604724 0.000651406)
(-0.00037011 -0.000680923 0.000672329)
(-0.000394789 -0.000735429 0.00064067)
(-0.00041256 -0.000764647 0.000563543)
(-0.000426511 -0.000767876 0.000457951)
(-0.000437825 -0.000744402 0.000338626)
(-0.00044431 -0.000692381 0.000218382)
(-0.000441415 -0.00060927 0.000109333)
(-0.000423875 -0.000494153 2.42776e-05)
(-0.000387756 -0.000353263 -2.39337e-05)
(-0.000256816 -0.000186874 8.91019e-05)
(-0.000200152 -4.8402e-05 0.000116743)
(-0.000136907 7.66639e-05 0.000166327)
(-6.83847e-05 0.000189222 0.000231567)
(1.86601e-06 0.000292815 0.000306184)
(6.94177e-05 0.000390456 0.000382839)
(0.000130637 0.000483079 0.000453132)
(0.000183675 0.000569415 0.000508502)
(0.000229013 0.000646981 0.000542772)
(0.000264723 0.000713339 0.000553912)
(0.00028606 0.000765895 0.000541091)
(0.000291976 0.000800594 0.000504851)
(0.000284579 0.000813475 0.000450619)
(0.000265764 0.000801383 0.000386859)
(0.000236388 0.000760477 0.000322064)
(0.000197241 0.000686865 0.000263945)
(0.000150496 0.000579207 0.000219885)
(9.99154e-05 0.000444766 0.000196861)
(4.85421e-05 0.000300784 0.000197786)
(-3.36662e-06 0.000164523 0.000219246)
(-5.67703e-05 4.33926e-05 0.000255704)
(-0.000111184 -6.38945e-05 0.000302889)
(-0.000164314 -0.000161363 0.00035681)
(-0.000213383 -0.00025257 0.000412547)
(-0.000256733 -0.000339067 0.000463981)
(-0.000294786 -0.000420207 0.000504248)
(-0.000330737 -0.000494024 0.000527629)
(-0.000365381 -0.000558873 0.00053183)
(-0.000394751 -0.000613087 0.000514375)
(-0.000415325 -0.000652676 0.000472646)
(-0.000425676 -0.000672542 0.000409923)
(-0.000425135 -0.000668043 0.000334239)
(-0.00041277 -0.000634266 0.000254797)
(-0.000388043 -0.000566614 0.000180984)
(-0.000352018 -0.000463254 0.000122704)
(-0.00030748 -0.00033099 9.01798e-05)
(-0.000184996 -0.000173569 0.00020498)
(-0.000144053 -4.533e-05 0.000222707)
(-0.000102408 6.8083e-05 0.000253357)
(-5.65083e-05 0.000166233 0.000292473)
(-6.24858e-06 0.00025245 0.000334209)
(4.63242e-05 0.00033017 0.000371339)
(9.87913e-05 0.000401421 0.000396945)
(0.000149295 0.000467051 0.000407665)
(0.00019807 0.000528837 0.00040902)
(0.000240864 0.000588647 0.000413368)
(0.000270194 0.000644504 0.00042236)
(0.000282355 0.0006903 0.00042439)
(0.000275643 0.000718988 0.000412398)
(0.000250505 0.000724221 0.000388592)
(0.000209012 0.000699905 0.000358964)
(0.000155326 0.000640904 0.000330152)
(9.68066e-05 0.00054617 0.00030778)
(4.2414e-05 0.000423866 0.000295706)
(-2.65589e-06 0.00029172 0.000295288)
(-4.03774e-05 0.000167391 0.000305674)
(-7.6523e-05 5.9037e-05 0.000325229)
(-0.000114973 -3.41201e-05 0.000351551)
(-0.000155992 -0.000116268 0.000380351)
(-0.000197809 -0.000191067 0.000405381)
(-0.000238745 -0.000260174 0.000419952)
(-0.000278376 -0.000323646 0.000419804)
(-0.000319243 -0.000382538 0.000408157)
(-0.000359633 -0.000439462 0.000397584)
(-0.000393225 -0.00049447 0.000392826)
(-0.000415279 -0.000542901 0.000383347)
(-0.000421431 -0.000577514 0.000361356)
(-0.000409324 -0.000590321 0.000328098)
(-0.000379237 -0.000573352 0.000288866)
(-0.000334497 -0.000520116 0.000250466)