/*--------------------------------*- C++ -*----------------------------------*\
| =========                 |                                                 |
| \\      /  F ield         | OpenFOAM: The Open Source CFD Toolbox           |
|  \\    /   O peration     | Version:  2312                                  |
|   \\  /    A nd           | Website:  www.openfoam.com                      |
|    \\/     M anipulation  |                                                 |
\*---------------------------------------------------------------------------*/
FoamFile
{
    version     2.0;
    format      ascii;
    arch        "LSB;label=32;scalar=64";
    class       volScalarField;
    location    "0.1";
    object      sigmaHyd;
}
// * * * * * * * * * * * * * * * * * * * * * * * * * * * * * * * * * * * * * //

dimensions      [1 -1 -2 0 0 0 0];

internalField   nonuniform List<scalar> 
1620
(
-5917.67
-1763.4
1623.75
4181.92
5852.72
6730.22
6918.11
6500.57
5539.42
4070.2
2103.2
-357.942
-3266.42
-6441.33
-9456.68
-11607.9
-12112.2
-10015.7
-5917.67
-1763.4
1623.75
4181.92
5852.72
6730.22
6918.11
6500.57
5539.42
4070.2
2103.2
-357.942
-3266.42
-6441.33
-9456.68
-11607.9
-12112.2
-10015.7
-6052.97
-4574.34
-2715.06
-827.166
800.764
2024.61
2772.16
3014.43
2749.2
1992.27
776.649
-838.849
-2750.67
-4783.77
-6670.98
-8059.78
-8463.1
-7412.77
-6052.97
-4574.34
-2715.06
-827.166
800.764
2024.61
2772.16
3014.43
2749.2
1992.27
776.649
-838.849
-2750.67
-4783.77
-6670.98
-8059.78
-8463.1
-7412.77
-6540.2
-7292.45
-7180.15
-6146.35
-4524.61
-2745.13
-1167.94
-28.0507
551.689
540.108
-13.5905
-987.717
-2202.38
-3447.99
-4530.25
-5309.13
-5707.54
-5982.37
-6540.2
-7292.45
-7180.15
-6146.35
-4524.61
-2745.13
-1167.94
-28.0507
551.689
540.108
-13.5905
-987.717
-2202.38
-3447.99
-4530.25
-5309.13
-5707.54
-5982.37
-445.174
778.64
1960.11
2539.91
2650.15
2462.05
2096.62
1644.33
1167.9
700.689
246.148
-215.715
-709.078
-1224.26
-1666.42
-1829.46
-1596.57
-1325.05
-445.174
778.64
1960.11
2539.91
2650.15
2462.05
2096.62
1644.33
1167.9
700.689
246.148
-215.715
-709.078
-1224.26
-1666.42
-1829.46
-1596.57
-1325.05
-2644.46
-2067.2
-1615.47
-1496.19
-1379.09
-1249.49
-1135.11
-1055.51
-1015.6
-1009.96
-1027.09
-1053.45
-1077.35
-1093.97
-1120.49
-1241.04
-1856.6
-2451.96
-2644.46
-2067.2
-1615.47
-1496.19
-1379.09
-1249.49
-1135.11
-1055.51
-1015.6
-1009.96
-1027.09
-1053.45
-1077.35
-1093.97
-1120.49
-1241.04
-1856.6
-2451.96
-4842.3
-5383.39
-5950.17
-6023.73
-5419.45
-4401.17
-3275.4
-2268.67
-1518.5
-1088.38
-980.838
-1149.28
-1515.02
-1994.37
-2543.63
-3209.34
-4129.35
-4575.5
-4842.3
-5383.39
-5950.17
-6023.73
-5419.45
-4401.17
-3275.4
-2268.67
-1518.5
-1088.38
-980.838
-1149.28
-1515.02
-1994.37
-2543.63
-3209.34
-4129.35
-4575.5
-307.869
1125.17
2443.28
3100.03
3390.33
3381.66
3175.57
2865.04
2517.75
2166.7
1809.32
1415.26
945.799
387.824
-211.287
-738.44
-1129.35
-1189.79
-307.869
1125.17
2443.28
3100.03
3390.33
3381.66
3175.57
2865.04
2517.75
2166.7
1809.32
1415.26
945.799
387.824
-211.287
-738.44
-1129.35
-1189.79
-4119.85
-2644.82
-1744.24
-1398.23
-1180.91
-1013.81
-887.411
-811.293
-788.33
-812.102
-870.07
-947.582
-1032.63
-1126.08
-1265.85
-1576.7
-2465.01
-4062.06
-4119.85
-2644.82
-1744.24
-1398.23
-1180.91
-1013.81
-887.411
-811.293
-788.33
-812.102
-870.07
-947.582
-1032.63
-1126.08
-1265.85
-1576.7
-2465.01
-4062.06
-7513.61
-7296.58
-7275.63
-6923.87
-6147.41
-5076.61
-3953.08
-2993.66
-2344.26
-2073.49
-2179.87
-2602.9
-3238.2
-3955.43
-4637.84
-5199.21
-6193.15
-7372.63
-7513.61
-7296.58
-7275.63
-6923.87
-6147.41
-5076.61
-3953.08
-2993.66
-2344.26
-2073.49
-2179.87
-2602.9
-3238.2
-3955.43
-4637.84
-5199.21
-6193.15
-7372.63
-467.193
1102.2
2119.15
2782.69
3136.62
3216.22
3107.05
2898.93
2658.19
2414.46
2158.3
1849.05
1434.25
880.533
203.959
-548.571
-1331.07
-1346.75
-467.193
1102.2
2119.15
2782.69
3136.62
3216.22
3107.05
2898.93
2658.19
2414.46
2158.3
1849.05
1434.25
880.533
203.959
-548.571
-1331.07
-1346.75
-3641.65
-2490.74
-1703.55
-1379.08
-1151.46
-971.889
-841.157
-769.431
-758.054
-798.657
-876.519
-973.261
-1070.12
-1155.37
-1237.92
-1378.92
-1941.76
-3425.35
-3641.65
-2490.74
-1703.55
-1379.08
-1151.46
-971.889
-841.157
-769.431
-758.054
-798.657
-876.519
-973.261
-1070.12
-1155.37
-1237.92
-1378.92
-1941.76
-3425.35
-6284.52
-6652.18
-6617.77
-6380.88
-5755.02
-4831.17
-3836.14
-2993.03
-2456.7
-2296.53
-2500.75
-2987.78
-3619.67
-4217.16
-4590.46
-4621.7
-4609.71
-5407.95
-6284.52
-6652.18
-6617.77
-6380.88
-5755.02
-4831.17
-3836.14
-2993.03
-2456.7
-2296.53
-2500.75
-2987.78
-3619.67
-4217.16
-4590.46
-4621.7
-4609.71
-5407.95
-1342.65
-288.7
957.104
1777.15
2225.69
2388.76
2364.46
2242.95
2086.59
1918.13
1719.4
1440.64
1022.61
430.758
-306.773
-1064.82
-1511.55
-1515.61
-1342.65
-288.7
957.104
1777.15
2225.69
2388.76
2364.46
2242.95
2086.59
1918.13
1719.4
1440.64
1022.61
430.758
-306.773
-1064.82
-1511.55
-1515.61
-2269.21
-2424.72
-2029.78
-1613.18
-1282.16
-1026.11
-850.901
-764.653
-765.303
-840.622
-971.34
-1132.02
-1292.79
-1428.4
-1538.63
-1676.77
-1878.88
-2028.69
-2269.21
-2424.72
-2029.78
-1613.18
-1282.16
-1026.11
-850.901
-764.653
-765.303
-840.622
-971.34
-1132.02
-1292.79
-1428.4
-1538.63
-1676.77
-1878.88
-2028.69
-2652.17
-3794.39
-4618.27
-4810.04
-4466.07
-3768.4
-2962.49
-2277.53
-1870.13
-1804.22
-2053.8
-2514.65
-3019.89
-3363.92
-3361.19
-2981.25
-2482.61
-2247.9
-2652.17
-3794.39
-4618.27
-4810.04
-4466.07
-3768.4
-2962.49
-2277.53
-1870.13
-1804.22
-2053.8
-2514.65
-3019.89
-3363.92
-3361.19
-2981.25
-2482.61
-2247.9
-1811.74
-1125.26
-211.655
547.913
1014.68
1218.19
1244.37
1178.16
1075.55
951.995
783.641
519.91
109.652
-460.469
-1126.49
-1731.41
-2081.96
-2127.39
-1811.74
-1125.26
-211.655
547.913
1014.68
1218.19
1244.37
1178.16
1075.55
951.995
783.641
519.91
109.652
-460.469
-1126.49
-1731.41
-2081.96
-2127.39
-2275.03
-2333.29
-2159.54
-1821.78
-1457.55
-1142.83
-920.448
-810.866
-813.861
-913.91
-1085.08
-1292.14
-1492.98
-1649.91
-1750.33
-1821.9
-1917.12
-2104.09
-2275.03
-2333.29
-2159.54
-1821.78
-1457.55
-1142.83
-920.448
-810.866
-813.861
-913.91
-1085.08
-1292.14
-1492.98
-1649.91
-1750.33
-1821.9
-1917.12
-2104.09
-464.48
-1371.94
-2259.89
-2709.23
-2638.59
-2187.71
-1591.62
-1076.35
-793.44
-796.256
-1043.37
-1414.43
-1733.38
-1808.5
-1510.02
-887.767
-241.614
-23.1087
-464.48
-1371.94
-2259.89
-2709.23
-2638.59
-2187.71
-1591.62
-1076.35
-793.44
-796.256
-1043.37
-1414.43
-1733.38
-1808.5
-1510.02
-887.767
-241.614
-23.1087
-2367.25
-1853.53
-1201.46
-606.89
-200.856
-2.29782
41.4042
-1.46579
-84.0039
-195.56
-359.283
-616.151
-996.658
-1486.68
-2006.42
-2430.01
-2651.38
-2635.93
-2367.25
-1853.53
-1201.46
-606.89
-200.856
-2.29785
41.4042
-1.4658
-84.0039
-195.56
-359.283
-616.151
-996.658
-1486.68
-2006.42
-2430.01
-2651.38
-2635.93
-2287.71
-2334.23
-2212.47
-1935.44
-1584.94
-1249.75
-997.624
-865.695
-861.17
-968.206
-1155.4
-1379.98
-1593.45
-1755.42
-1853.83
-1918.88
-2007.21
-2148.93
-2287.71
-2334.23
-2212.47
-1935.44
-1584.94
-1249.75
-997.624
-865.695
-861.17
-968.206
-1155.4
-1379.98
-1593.45
-1755.42
-1853.83
-1918.88
-2007.21
-2148.93
1489.31
737.08
-70.6428
-594.822
-694.719
-441.294
-27.5825
341.105
526.03
486.561
276.053
18.9082
-123.596
-4.18317
434.572
1082.02
1656.04
1839.43
1489.31
737.08
-70.6428
-594.822
-694.719
-441.294
-27.5825
341.105
526.03
486.561
276.053
18.9082
-123.596
-4.18318
434.572
1082.02
1656.04
1839.43
-2957.2
-2568.87
-2098.81
-1656.43
-1333.42
-1162.83
-1121.58
-1163.31
-1251.6
-1377.05
-1554.92
-1808.42
-2143.89
-2529.25
-2893.55
-3155.43
-3261.55
-3195.57
-2957.2
-2568.87
-2098.81
-1656.43
-1333.42
-1162.83
-1121.58
-1163.31
-1251.6
-1377.05
-1554.92
-1808.42
-2143.89
-2529.25
-2893.55
-3155.43
-3261.55
-3195.57
-2259.28
-2284.14
-2182.85
-1952.33
-1639.64
-1318.82
-1061.65
-915.659
-896.746
-992.526
-1170.77
-1387.12
-1593.94
-1755.03
-1862.37
-1942.99
-2037.05
-2156.25
-2259.28
-2284.14
-2182.85
-1952.33
-1639.64
-1318.82
-1061.65
-915.659
-896.746
-992.526
-1170.77
-1387.12
-1593.94
-1755.03
-1862.37
-1942.99
-2037.05
-2156.25
3204.33
2582.71
1878.93
1355.96
1159.57
1267.92
1537.02
1793.99
1918.12
1879.34
1734.36
1597.76
1600.5
1838.43
2314.45
2900.71
3369.1
3499.51
3204.33
2582.71
1878.93
1355.96
1159.57
1267.92
1537.02
1793.99
1918.12
1879.34
1734.36
1597.76
1600.5
1838.43
2314.45
2900.71
3369.1
3499.51
-3602.11
-3302.65
-2959.38
-2635.47
-2390.23
-2255.41
-2227.49
-2280.7
-2389.09
-2541.34
-2739.73
-2986.81
-3269.02
-3549.02
-3775.63
-3905.49
-3918.49
-3814.35
-3602.11
-3302.65
-2959.38
-2635.47
-2390.23
-2255.41
-2227.49
-2280.7
-2389.09
-2541.34
-2739.73
-2986.81
-3269.02
-3549.02
-3775.63
-3905.49
-3918.49
-3814.35
-2206.89
-2210.13
-2114.41
-1916.84
-1646.88
-1359.56
-1117.09
-967.219
-930.976
-1002.11
-1153.53
-1345.93
-1538.04
-1699.62
-1823.62
-1926.99
-2030.59
-2133.7
-2206.89
-2210.13
-2114.41
-1916.84
-1646.88
-1359.56
-1117.09
-967.219
-930.976
-1002.11
-1153.53
-1345.93
-1538.04
-1699.62
-1823.62
-1926.99
-2030.59
-2133.7
4743.93
4216.14
3607.07
3116.22
2871.26
2877.67
3036.97
3215.32
3314.57
3311.5
3255.4
3237.99
3352.56
3650.18
4102.57
4591.17
4944.18
5012.28
4743.93
4216.14
3607.07
3116.22
2871.26
2877.67
3036.97
3215.32
3314.57
3311.5
3255.4
3237.98
3352.56
3650.18
4102.57
4591.17
4944.18
5012.28
-4267.36
-4037.42
-3791.14
-3563.41
-3390.23
-3297.14
-3291.15
-3362.35
-3493.79
-3670.74
-3881.38
-4110.06
-4331.13
-4511.27
-4620.73
-4644.84
-4585.91
-4455.64
-4267.36
-4037.42
-3791.14
-3563.41
-3390.23
-3297.14
-3291.15
-3362.35
-3493.79
-3670.74
-3881.38
-4110.06
-4331.13
-4511.27
-4620.73
-4644.84
-4585.91
-4455.64
-2182.7
-2167.02
-2070.84
-1895.27
-1661.86
-1411.13
-1191.52
-1043.79
-989.752
-1029.99
-1147.19
-1312
-1491.2
-1658.44
-1803.11
-1929.1
-2041.48
-2132.95
-2182.7
-2167.02
-2070.84
-1895.27
-1661.86
-1411.13
-1191.52
-1043.79
-989.752
-1029.99
-1147.19
-1312
-1491.2
-1658.44
-1803.11
-1929.1
-2041.48
-2132.95
6152.97
5692.65
5166.58
4722.96
4463.46
4404.99
4486.91
4616.02
4719.77
4778.57
4824.6
4917.29
5110.87
5422.65
5812.66
6184.74
6417.88
6415.73
6152.97
5692.65
5166.58
4722.96
4463.46
4404.99
4486.91
4616.02
4719.77
4778.57
4824.6
4917.29
5110.87
5422.65
5812.66
6184.74
6417.88
6415.73
-4899.1
-4732.14
-4570.78
-4430.82
-4330.52
-4286.85
-4309.9
-4399.47
-4545.27
-4729.96
-4930.98
-5121.05
-5271.06
-5357.03
-5368.46
-5311
-5201.65
-5059.4
-4899.1
-4732.14
-4570.78
-4430.82
-4330.52
-4286.85
-4309.9
-4399.47
-4545.27
-4729.96
-4930.98
-5121.05
-5271.06
-5357.03
-5368.46
-5311
-5201.65
-5059.4
-2259.86
-2229.66
-2131.14
-1968.98
-1761.34
-1539.24
-1339.37
-1193.95
-1123.6
-1135.41
-1222.95
-1367.26
-1541.51
-1719.59
-1884.49
-2028.33
-2145.93
-2227.7
-2259.86
-2229.66
-2131.14
-1968.98
-1761.34
-1539.24
-1339.37
-1193.95
-1123.6
-1135.41
-1222.95
-1367.26
-1541.51
-1719.59
-1884.49
-2028.33
-2145.93
-2227.7
7492.23
7088.39
6641.4
6256.36
6007.8
5915.54
5949.01
6053.43
6181.67
6314.55
6460.93
6643.98
6881.98
7170.25
7470.67
7715.83
7829.37
7756.71
7492.23
7088.39
6641.4
6256.36
6007.8
5915.54
5949.01
6053.43
6181.67
6314.55
6460.93
6643.98
6881.98
7170.25
7470.67
7715.83
7829.37
7756.71
-5433.38
-5332.51
-5254.37
-5200.75
-5175.28
-5184.35
-5235.45
-5332.43
-5470.32
-5632.4
-5792.46
-5920.81
-5992.42
-5994.87
-5931.99
-5821.79
-5688.59
-5554.36
-5433.38
-5332.51
-5254.37
-5200.75
-5175.28
-5184.35
-5235.45
-5332.43
-5470.32
-5632.4
-5792.46
-5920.81
-5992.42
-5994.87
-5931.99
-5821.79
-5688.59
-5554.36
-2530.47
-2491.34
-2390.6
-2234.64
-2039.78
-1831.98
-1641.07
-1494.65
-1413.19
-1408.53
-1481.13
-1617.87
-1794.6
-1983.78
-2162.88
-2316.78
-2435.45
-2509.61
-2530.47
-2491.34
-2390.6
-2234.64
-2039.78
-1831.98
-1641.07
-1494.65
-1413.19
-1408.53
-1481.13
-1617.87
-1794.6
-1983.78
-2162.88
-2316.78
-2435.45
-2509.61
8892.63
8546.39
8178.13
7856.51
7632.21
7525.96
7531.91
7627.76
7787.53
7988.82
8216.05
8459.01
8708
8946.85
9147.42
9271.27
9279.93
9151.09
8892.63
8546.39
8178.13
7856.51
7632.21
7525.96
7531.91
7627.76
7787.53
7988.82
8216.05
8459.01
8708
8946.85
9147.42
9271.27
9279.93
9151.09
-5814.95
-5785.53
-5790.6
-5821.19
-5867.47
-5923.95
-5991.81
-6075.97
-6176.65
-6282.57
-6372.06
-6421.66
-6415.97
-6353.27
-6245.84
-6115.66
-5987.89
-5883.45
-5814.95
-5785.53
-5790.6
-5821.19
-5867.47
-5923.95
-5991.81
-6075.97
-6176.65
-6282.57
-6372.06
-6421.66
-6415.96
-6353.27
-6245.84
-6115.66
-5987.89
-5883.45
-3094.97
-3040.91
-2932.22
-2775.63
-2585.91
-2386.88
-2207.01
-2074.28
-2009.55
-2023.07
-2111.77
-2259.35
-2440.88
-2628.66
-2800.93
-2941.4
-3041.32
-3094.05
-3094.97
-3040.91
-2932.22
-2775.63
-2585.91
-2386.88
-2207.01
-2074.28
-2009.55
-2023.07
-2111.78
-2259.35
-2440.88
-2628.66
-2800.93
-2941.4
-3041.32
-3094.05
10440.9
10183.5
9915.08
9673.81
9492.09
9391.97
9385.16
9471.12
9635.82
9853.53
10093.3
10327
10533.3
10696.5
10801.7
10835.4
10785.8
10650.5
10440.9
10183.5
9915.08
9673.81
9492.09
9391.97
9385.16
9471.12
9635.82
9853.53
10093.3
10327
10533.3
10696.5
10801.7
10835.4
10785.8
10650.5
-5651.08
-5764.68
-5919.85
-6089.64
-6242.75
-6355.86
-6420.94
-6444.09
-6434.4
-6393.84
-6318.15
-6206.21
-6066.98
-5917.8
-5778.73
-5668.41
-5603.39
-5595.78
-5651.08
-5764.68
-5919.85
-6089.64
-6242.75
-6355.86
-6420.94
-6444.09
-6434.4
-6393.84
-6318.15
-6206.21
-6066.98
-5917.8
-5778.73
-5668.41
-5603.39
-5595.78
-3565.33
-3580.38
-3569.54
-3526.46
-3449.29
-3347.97
-3242.16
-3156.69
-3108.09
-3099.78
-3124.11
-3169.98
-3228.93
-3294.16
-3361.56
-3425.79
-3483.6
-3531.32
-3565.33
-3580.38
-3569.54
-3526.46
-3449.29
-3347.97
-3242.16
-3156.68
-3108.09
-3099.78
-3124.11
-3169.98
-3228.93
-3294.16
-3361.56
-3425.79
-3483.6
-3531.32
13115.6
12888.5
12629.6
12369.5
12142.8
11982.8
11914.3
11947.9
12077
12279.6
12525.7
12782.7
13020.8
13215.6
13348.4
13407.6
13386.9
13287
13115.6
12888.5
12629.6
12369.5
12142.8
11982.8
11914.3
11947.9
12077
12279.6
12525.7
12782.7
13020.8
13215.6
13348.4
13407.6
13386.9
13287
-6779.41
-6676.85
-6583.13
-6503.64
-6459.66
-6481.11
-6589.82
-6784.57
-7034.58
-7293.82
-7506.8
-7626.7
-7634.13
-7541.45
-7385.95
-7208.95
-7041.42
-6898.31
-6779.41
-6676.85
-6583.13
-6503.64
-6459.66
-6481.11
-6589.82
-6784.57
-7034.58
-7293.82
-7506.8
-7626.7
-7634.13
-7541.45
-7385.95
-7208.95
-7041.42
-6898.31
-4934.56
-4770.42
-4579.99
-4374.37
-4185.79
-4056.72
-4032.87
-4130.88
-4340.56
-4619.31
-4908.14
-5149.67
-5306.58
-5370.74
-5357.99
-5291.64
-5193.61
-5074.09
-4934.56
-4770.42
-4579.99
-4374.37
-4185.79
-4056.72
-4032.87
-4130.88
-4340.56
-4619.31
-4908.14
-5149.67
-5306.58
-5370.75
-5357.99
-5291.64
-5193.61
-5074.09
12723.4
12775.4
12845.5
12934.9
13038.3
13126.5
13179.6
13169.9
13096.3
12972.8
12829.5
12701.8
12612.4
12574
12574.4
12602.3
12640
12680.6
12723.4
12775.4
12845.5
12934.9
13038.3
13126.5
13179.6
13169.9
13096.3
12972.8
12829.5
12701.8
12612.4
12574
12574.4
12602.3
12640
12680.6
)
;

boundaryField
{
    fixed
    {
        type            zeroGradient;
    }
    inside
    {
        type            zeroGradient;
    }
    outside
    {
        type            zeroGradient;
    }
}


// ************************************************************************* //
