/*--------------------------------*- C++ -*----------------------------------*\
| =========                 |                                                 |
| \\      /  F ield         | OpenFOAM: The Open Source CFD Toolbox           |
|  \\    /   O peration     | Version:  2312                                  |
|   \\  /    A nd           | Website:  www.openfoam.com                      |
|    \\/     M anipulation  |                                                 |
\*---------------------------------------------------------------------------*/
FoamFile
{
    version     2.0;
    format      ascii;
    arch        "LSB;label=32;scalar=64";
    class       volSymmTensorField;
    location    "0.1";
    object      sigma;
}
// * * * * * * * * * * * * * * * * * * * * * * * * * * * * * * * * * * * * * //

dimensions      [1 -1 -2 0 0 0 0];

internalField   nonuniform List<symmTensor> 
1620
(
(-3260.32 -3017.4 -442.805 -2417.58 430.16 -6075.09)
(851.902 -2719.8 578.519 1327.01 -721.939 -1469.11)
(4204.71 -2325.11 1266.8 3951.83 -1237.89 2714.7)
(6732.05 -1993.65 1704.94 5868.62 -1350.37 5945.08)
(8385.79 -1736.77 1994.81 7073.71 -1310.9 8098.65)
(9260.57 -1534.29 2190.6 7623.54 -1230.82 9306.54)
(9454.91 -1370.63 2319.16 7589.27 -1153.07 9710.15)
(9047.36 -1239.25 2397.75 7034.04 -1095.67 9420.32)
(8096 -1140.38 2442.13 6004.23 -1067.35 8518.03)
(6635.51 -1078.49 2468.3 4522.04 -1072.16 7053.04)
(4678.41 -1060.66 2490.72 2585.67 -1111.16 5045.52)
(2233.68 -1095.81 2519.32 188.602 -1183.93 2503.89)
(-644.172 -1193.96 2556.51 -2628.28 -1290.62 -526.819)
(-3767.55 -1365.75 2593.95 -5679.61 -1433.78 -3876.82)
(-6712.85 -1623.55 2606.4 -8509.47 -1617.3 -7147.71)
(-8799.56 -1984.15 2535.31 -10328.1 -1829.77 -9696.2)
(-9293.69 -2452.9 2251.87 -10190.6 -1961.47 -10852.4)
(-7271.87 -2908.6 1548.35 -7109.14 -1605.59 -9666.09)
(-3260.32 -3017.4 442.804 -2417.58 -430.16 -6075.09)
(851.902 -2719.8 -578.519 1327.01 721.939 -1469.11)
(4204.71 -2325.11 -1266.8 3951.83 1237.89 2714.7)
(6732.05 -1993.65 -1704.94 5868.62 1350.37 5945.08)
(8385.79 -1736.77 -1994.81 7073.71 1310.9 8098.65)
(9260.57 -1534.29 -2190.6 7623.54 1230.82 9306.54)
(9454.91 -1370.63 -2319.16 7589.27 1153.07 9710.15)
(9047.36 -1239.25 -2397.75 7034.04 1095.67 9420.32)
(8096 -1140.38 -2442.13 6004.23 1067.35 8518.03)
(6635.51 -1078.49 -2468.3 4522.04 1072.16 7053.04)
(4678.41 -1060.66 -2490.72 2585.67 1111.16 5045.52)
(2233.68 -1095.81 -2519.32 188.602 1183.93 2503.89)
(-644.172 -1193.96 -2556.51 -2628.28 1290.62 -526.819)
(-3767.55 -1365.75 -2593.95 -5679.61 1433.78 -3876.82)
(-6712.85 -1623.55 -2606.4 -8509.47 1617.3 -7147.71)
(-8799.56 -1984.15 -2535.31 -10328.1 1829.77 -9696.2)
(-9293.69 -2452.9 -2251.87 -10190.6 1961.47 -10852.4)
(-7271.87 -2908.6 -1548.35 -7109.14 1605.59 -9666.09)
(-5820.97 -477.753 -108.757 -331.311 -571.172 -6006.63)
(-4315.48 -397.041 -4.96367 67.2514 -1977.04 -3474.8)
(-2483.97 -360.223 60.7624 712.344 -2496.27 -373.554)
(-648.625 -346.281 111.542 1679.04 -2547.55 2488.09)
(930.797 -334.397 154.857 2672.12 -2445.97 4799.37)
(2120.35 -314.701 191.127 3468.34 -2325.15 6485.14)
(2847.48 -285.419 220.182 3938.64 -2233.28 7530.36)
(3079.08 -249.871 243.615 4021.74 -2186.48 7942.47)
(2808.17 -214.674 265.233 3697.48 -2189.17 7741.95)
(2046.88 -188.47 290.173 2971.04 -2240.88 6958.89)
(826.967 -180.578 322.928 1869.18 -2338.67 5633.8)
(-790.802 -199.305 365.224 449.329 -2478.39 3824.93)
(-2698.06 -249.628 414.455 -1177.12 -2654.64 1623.16)
(-4714.63 -330.278 462.575 -2808.08 -2856.09 -828.607)
(-6573.09 -431.003 494.873 -4113.84 -3046.63 -3326)
(-7930.26 -530.46 488.244 -4637.67 -3107.63 -5611.41)
(-8309.78 -592.227 413.698 -3848.09 -2716.93 -7231.43)
(-7231.51 -570.794 265.431 -1700.96 -1399.23 -7305.85)
(-5820.97 -477.753 108.757 -331.311 571.172 -6006.63)
(-4315.48 -397.041 4.96367 67.2514 1977.04 -3474.8)
(-2483.97 -360.223 -60.7624 712.344 2496.27 -373.555)
(-648.625 -346.281 -111.542 1679.04 2547.55 2488.09)
(930.797 -334.397 -154.857 2672.12 2445.97 4799.37)
(2120.35 -314.701 -191.127 3468.34 2325.15 6485.14)
(2847.48 -285.419 -220.182 3938.64 2233.28 7530.36)
(3079.08 -249.871 -243.615 4021.74 2186.48 7942.47)
(2808.17 -214.674 -265.233 3697.48 2189.17 7741.95)
(2046.88 -188.47 -290.173 2971.04 2240.88 6958.89)
(826.967 -180.578 -322.928 1869.18 2338.67 5633.8)
(-790.802 -199.305 -365.224 449.329 2478.39 3824.93)
(-2698.06 -249.628 -414.455 -1177.12 2654.64 1623.16)
(-4714.63 -330.278 -462.575 -2808.08 2856.09 -828.607)
(-6573.09 -431.003 -494.873 -4113.84 3046.63 -3326)
(-7930.26 -530.46 -488.244 -4637.67 3107.63 -5611.41)
(-8309.78 -592.227 -413.698 -3848.09 2716.93 -7231.43)
(-7231.51 -570.794 -265.431 -1700.96 1399.23 -7305.85)
(-4296.03 2835.67 -882.644 -2912.81 -802.92 -6411.75)
(-5061.95 2515.08 -1648.48 -4416.99 -1526.38 -6398.4)
(-4990.21 2116.2 -2151.05 -5056.2 -1754.3 -5494.03)
(-3993.82 1771.96 -2449.21 -4581.85 -1736.84 -3863.36)
(-2388.3 1524.59 -2624.49 -3346.1 -1654.64 -1839.42)
(-604.025 1374.54 -2727.87 -1827.55 -1584.85 196.199)
(988.559 1309.01 -2782.99 -415.054 -1552.31 1922.67)
(2141.37 1310.7 -2797.89 645.426 -1560.19 3129.05)
(2720.74 1360.17 -2773.59 1228.19 -1602.79 3706.15)
(2690.49 1437.76 -2709.52 1299.71 -1670.71 3630.13)
(2102.66 1527.31 -2606.56 903.584 -1753.74 2952.98)
(1089.29 1620.85 -2467.54 153.519 -1842.5 1794.04)
(-154.847 1723.16 -2294.7 -775.407 -1927.88 323.112)
(-1406.11 1854.12 -2083.75 -1665.9 -1994.84 -1271.96)
(-2463.54 2045.06 -1813.68 -2295.5 -2004.35 -2831.7)
(-3192.82 2320.7 -1433.14 -2490.39 -1855.17 -4244.18)
(-3533.21 2651.63 -858.435 -2229.1 -1350.93 -5360.31)
(-3760.66 2887.76 -41.0234 -2095.13 -351.951 -6091.33)
(-4296.03 2835.67 882.644 -2912.81 802.92 -6411.75)
(-5061.95 2515.08 1648.48 -4416.99 1526.38 -6398.4)
(-4990.22 2116.2 2151.05 -5056.2 1754.3 -5494.03)
(-3993.82 1771.96 2449.21 -4581.85 1736.84 -3863.36)
(-2388.3 1524.59 2624.49 -3346.1 1654.64 -1839.42)
(-604.025 1374.54 2727.87 -1827.55 1584.85 196.199)
(988.559 1309.01 2782.99 -415.054 1552.31 1922.67)
(2141.37 1310.7 2797.89 645.426 1560.19 3129.05)
(2720.74 1360.17 2773.59 1228.19 1602.79 3706.15)
(2690.49 1437.76 2709.52 1299.71 1670.71 3630.13)
(2102.66 1527.31 2606.56 903.584 1753.74 2952.98)
(1089.29 1620.85 2467.54 153.519 1842.5 1794.04)
(-154.847 1723.16 2294.7 -775.407 1927.88 323.112)
(-1406.11 1854.12 2083.75 -1665.9 1994.84 -1271.96)
(-2463.54 2045.06 1813.68 -2295.5 2004.35 -2831.7)
(-3192.82 2320.7 1433.14 -2490.39 1855.17 -4244.18)
(-3533.21 2651.63 858.435 -2229.1 1350.93 -5360.31)
(-3760.66 2887.76 41.0234 -2095.13 351.951 -6091.33)
(2225.9 -2964.8 -425.685 3082.82 435.487 -644.242)
(3605.22 -2439.96 1140.87 3203.88 -1173.27 1526.82)
(4786.05 -1877.56 1803.52 3380.8 -1297.43 3713.49)
(5327.24 -1522.9 2127.29 3418.94 -1137.97 4873.54)
(5421.66 -1286.22 2331.23 3192.99 -972.422 5335.81)
(5243.35 -1101.87 2475.5 2770.87 -834.909 5371.95)
(4901.65 -940.626 2575.38 2243.55 -724.635 5144.68)
(4475.93 -794.531 2636.97 1692.82 -639.79 4764.23)
(4022.24 -666.144 2668.16 1175.1 -580.665 4306.37)
(3572.2 -562.38 2680.45 714.303 -547.5 3815.56)
(3131.92 -491.384 2686.75 300.879 -538.908 3305.64)
(2688.02 -461.117 2698.32 -101.222 -552.148 2766.06)
(2226.4 -478.14 2722.58 -534.456 -585.166 2180.82)
(1767.06 -546.668 2762.61 -1006.95 -640.666 1567.12)
(1405.6 -671.284 2817.14 -1432.26 -733.838 1027.41)
(1315.27 -876.642 2874.7 -1576.3 -913.026 772.651)
(1504.07 -1284.78 2864.97 -1149.57 -1320.78 855.78)
(1466.5 -2223.41 2343.77 348.638 -2003.92 209.721)
(2225.9 -2964.8 425.685 3082.82 -435.487 -644.242)
(3605.22 -2439.96 -1140.87 3203.88 1173.27 1526.82)
(4786.05 -1877.56 -1803.52 3380.8 1297.43 3713.49)
(5327.24 -1522.9 -2127.29 3418.94 1137.97 4873.54)
(5421.66 -1286.22 -2331.23 3192.99 972.422 5335.81)
(5243.35 -1101.87 -2475.5 2770.87 834.909 5371.95)
(4901.65 -940.626 -2575.38 2243.55 724.635 5144.68)
(4475.93 -794.531 -2636.97 1692.82 639.79 4764.23)
(4022.24 -666.144 -2668.16 1175.1 580.665 4306.37)
(3572.2 -562.38 -2680.45 714.303 547.5 3815.56)
(3131.92 -491.384 -2686.75 300.879 538.908 3305.64)
(2688.02 -461.117 -2698.32 -101.222 552.148 2766.06)
(2226.4 -478.14 -2722.58 -534.456 585.166 2180.82)
(1767.06 -546.668 -2762.61 -1006.95 640.666 1567.12)
(1405.6 -671.284 -2817.14 -1432.26 733.838 1027.41)
(1315.27 -876.642 -2874.7 -1576.3 913.026 772.651)
(1504.07 -1284.78 -2864.97 -1149.57 1320.78 855.78)
(1466.5 -2223.41 -2343.77 348.638 2003.92 209.721)
(-2213.43 -521.876 14.1769 2570.26 -1267.45 -2290.21)
(-1675.64 -372.825 173.791 920.442 -2541.77 553.604)
(-1360.85 -327.832 230.185 63.072 -2327.03 2451.37)
(-1354.92 -330.651 272.554 -476.924 -1977.6 3343.28)
(-1304.38 -335.411 314.878 -749.424 -1707.26 3916.54)
(-1203.36 -322.019 355.376 -878.424 -1521.15 4333.32)
(-1093.16 -287.002 391.122 -934.985 -1403.15 4622.81)
(-1004.75 -236.088 421.183 -951.119 -1340.92 4789.34)
(-951.355 -179.568 447.263 -936.834 -1326.7 4841.39)
(-932.625 -129.699 473.13 -892.513 -1355.11 4795.27)
(-938.414 -98.9261 502.458 -815.535 -1421.92 4672.69)
(-951.967 -98.0494 536.682 -703.875 -1525.25 4495.5)
(-953.821 -133.642 574.007 -556.632 -1669.11 4278.4)
(-929.653 -204.996 609.578 -368.916 -1868.83 4016.65)
(-892.761 -303.407 636.689 -120.19 -2156.57 3651.49)
(-940.88 -418.289 643.737 251.494 -2572.8 2966.26)
(-1512.52 -548.291 590.77 778.931 -3015.81 1163.8)
(-2100.3 -643.783 352.572 2512.24 -2212.62 -1767.81)
(-2213.43 -521.876 -14.1769 2570.26 1267.45 -2290.21)
(-1675.64 -372.825 -173.791 920.442 2541.77 553.604)
(-1360.85 -327.832 -230.185 63.072 2327.03 2451.37)
(-1354.92 -330.651 -272.554 -476.924 1977.6 3343.28)
(-1304.38 -335.411 -314.878 -749.424 1707.26 3916.54)
(-1203.36 -322.019 -355.376 -878.424 1521.15 4333.32)
(-1093.16 -287.002 -391.122 -934.985 1403.15 4622.81)
(-1004.75 -236.088 -421.183 -951.119 1340.92 4789.34)
(-951.355 -179.568 -447.263 -936.834 1326.7 4841.39)
(-932.625 -129.699 -473.13 -892.513 1355.11 4795.27)
(-938.414 -98.9261 -502.458 -815.535 1421.92 4672.69)
(-951.967 -98.0494 -536.682 -703.875 1525.25 4495.5)
(-953.821 -133.642 -574.007 -556.632 1669.11 4278.4)
(-929.653 -204.996 -609.578 -368.916 1868.83 4016.65)
(-892.761 -303.407 -636.689 -120.19 2156.57 3651.49)
(-940.88 -418.289 -643.737 251.494 2572.8 2966.26)
(-1512.52 -548.291 -590.77 778.931 3015.81 1163.8)
(-2100.3 -643.783 -352.572 2512.24 2212.62 -1767.81)
(-2528.29 2618.27 -1474.98 -1852.84 -1526.05 -4145.77)
(-3124.85 1887.39 -2490.81 -3913.6 -1823.89 -3111.72)
(-3805.08 1317.06 -2879.14 -5185.38 -1503.44 -2860.06)
(-3951.57 938.872 -3030.23 -5581.96 -1220.6 -2537.65)
(-3355.01 705.277 -3104.13 -5178.48 -1037.45 -1724.85)
(-2297.29 589.91 -3149.04 -4313.46 -941.492 -592.773)
(-1114.86 572.967 -3172.21 -3299.92 -916.467 588.591)
(-62.0762 631.582 -3168.31 -2350.7 -946.747 1606.76)
(704.099 738.135 -3130.53 -1589.36 -1016.84 2329.75)
(1112.54 862.815 -3055.75 -1074.69 -1111.61 2697)
(1166.79 979.211 -2947.39 -817.451 -1218.27 2708.14)
(932.472 1072.13 -2815.85 -790.556 -1330.06 2410.23)
(515.58 1146.25 -2675.02 -937.134 -1450.54 1876.51)
(26.2302 1233.67 -2533.23 -1178.89 -1595.67 1169.55)
(-478.98 1397.67 -2375.26 -1427.31 -1786.06 275.414)
(-1060.29 1727.65 -2125.04 -1578.13 -1998.36 -989.609)
(-1897.98 2291.8 -1562.31 -1487.13 -1940.37 -3002.94)
(-2296.6 2854.53 -270.3 -734.754 -574.509 -4695.14)
(-2528.29 2618.27 1474.98 -1852.84 1526.05 -4145.77)
(-3124.85 1887.39 2490.81 -3913.6 1823.89 -3111.72)
(-3805.08 1317.06 2879.14 -5185.38 1503.44 -2860.06)
(-3951.57 938.872 3030.23 -5581.96 1220.6 -2537.65)
(-3355.01 705.277 3104.13 -5178.48 1037.45 -1724.85)
(-2297.29 589.91 3149.04 -4313.46 941.492 -592.773)
(-1114.86 572.967 3172.21 -3299.92 916.467 588.591)
(-62.0762 631.582 3168.31 -2350.7 946.747 1606.76)
(704.099 738.135 3130.53 -1589.36 1016.84 2329.75)
(1112.54 862.815 3055.75 -1074.69 1111.61 2697)
(1166.79 979.211 2947.39 -817.451 1218.27 2708.14)
(932.472 1072.13 2815.85 -790.556 1330.06 2410.23)
(515.58 1146.25 2675.02 -937.134 1450.54 1876.51)
(26.2302 1233.67 2533.23 -1178.89 1595.67 1169.55)
(-478.98 1397.67 2375.26 -1427.31 1786.06 275.414)
(-1060.29 1727.65 2125.04 -1578.13 1998.36 -989.609)
(-1897.98 2291.8 1562.31 -1487.13 1940.37 -3002.94)
(-2296.6 2854.53 270.3 -734.754 574.509 -4695.14)
(1174.86 -1665.47 1276.06 2451.11 -2119.41 1450.42)
(3822.13 -1273.33 2268.67 1873.94 -1203.68 3679.45)
(5230.54 -904.943 2405.03 2818.32 -766.755 5280.98)
(5836.18 -736.285 2466.73 3311.24 -556.185 6152.68)
(6094.44 -632.525 2540.09 3459.42 -430.339 6617.13)
(6090.51 -534.114 2622.75 3315.75 -337.809 6738.72)
(5914.93 -420.976 2698.42 2999.48 -258.651 6612.3)
(5646.62 -292.664 2753.69 2621.37 -186.751 6327.12)
(5342.83 -157.448 2783.12 2257.77 -121.7 5952.66)
(5031.1 -25.9742 2788.97 1940.08 -63.5672 5528.91)
(4707.98 92.1648 2778.05 1655.78 -10.0007 5064.19)
(4346.54 190.394 2758.17 1358.17 44.4937 4541.06)
(3915.85 267.505 2735.83 987.622 108.002 3933.92)
(3413.31 332.204 2715.89 508.581 191.241 3241.58)
(2890.75 411.267 2702.24 -46.5934 311.441 2521.98)
(2426.14 562.144 2693.54 -547.137 508.02 1905.68)
(1877.54 882.849 2635.02 -790.944 901.524 1525.36)
(415.676 1019.63 1925.57 -108.015 1797.32 2122.96)
(1174.86 -1665.47 -1276.06 2451.11 2119.41 1450.42)
(3822.13 -1273.33 -2268.67 1873.94 1203.68 3679.45)
(5230.54 -904.943 -2405.03 2818.32 766.755 5280.98)
(5836.18 -736.285 -2466.73 3311.24 556.185 6152.68)
(6094.44 -632.525 -2540.09 3459.42 430.339 6617.13)
(6090.51 -534.114 -2622.75 3315.75 337.809 6738.72)
(5914.93 -420.976 -2698.42 2999.48 258.651 6612.3)
(5646.62 -292.664 -2753.69 2621.37 186.751 6327.12)
(5342.83 -157.448 -2783.12 2257.77 121.7 5952.66)
(5031.1 -25.9742 -2788.97 1940.08 63.5672 5528.91)
(4707.98 92.1648 -2778.05 1655.78 10.0007 5064.19)
(4346.54 190.394 -2758.17 1358.17 -44.4937 4541.06)
(3915.85 267.505 -2735.83 987.622 -108.002 3933.92)
(3413.31 332.204 -2715.89 508.581 -191.241 3241.58)
(2890.75 411.267 -2702.24 -46.5934 -311.441 2521.98)
(2426.14 562.144 -2693.54 -547.137 -508.02 1905.68)
(1877.54 882.849 -2635.02 -790.944 -901.524 1525.36)
(415.676 1019.63 -1925.57 -108.015 -1797.32 2122.96)
(-3558.3 -125.401 296.118 -3459.18 -1532.81 657.943)
(-2250.3 -79.2693 369.989 -2469.79 -570.958 2785.64)
(-1533.32 -112.361 318.774 -1647.44 -340.876 3948.03)
(-1320.66 -170.777 297.814 -1388.08 -253.449 4514.06)
(-1177.64 -214.654 308.096 -1284.34 -215.489 4919.25)
(-1036.98 -224.461 338.732 -1237.22 -199.971 5232.77)
(-904.873 -197.471 379.288 -1209.36 -196.817 5452)
(-804.589 -142.09 422.292 -1188.16 -202.087 5558.86)
(-749.179 -72.1581 463.838 -1165.14 -213.512 5549.33)
(-738.934 -3.0821 502.743 -1133.97 -227.847 5436.59)
(-764.194 50.419 538.379 -1092.33 -240.034 5246.32)
(-808.282 76.3312 568.557 -1044.58 -244.484 5010.11)
(-851.634 68.2883 588.949 -1004.47 -238.052 4758.21)
(-883.72 29.3104 595.115 -1001.3 -223.593 4506.79)
(-932.849 -25.8187 587.835 -1095.95 -212.257 4231.26)
(-1126.36 -73.1246 579.179 -1419.59 -223.937 3815.84)
(-1903.14 -92.0975 585.949 -2358.19 -299.302 2866.29)
(-3505.63 -106.906 487.126 -3915.26 -884.174 1234.7)
(-3558.3 -125.401 -296.118 -3459.18 1532.81 657.943)
(-2250.3 -79.2693 -369.989 -2469.79 570.958 2785.64)
(-1533.32 -112.361 -318.774 -1647.44 340.876 3948.03)
(-1320.66 -170.777 -297.814 -1388.08 253.449 4514.06)
(-1177.64 -214.654 -308.096 -1284.34 215.489 4919.25)
(-1036.98 -224.461 -338.732 -1237.22 199.971 5232.77)
(-904.873 -197.471 -379.288 -1209.36 196.817 5452)
(-804.589 -142.09 -422.292 -1188.16 202.087 5558.86)
(-749.179 -72.1581 -463.838 -1165.14 213.512 5549.33)
(-738.934 -3.0821 -502.743 -1133.97 227.847 5436.59)
(-764.194 50.419 -538.379 -1092.33 240.034 5246.32)
(-808.282 76.3312 -568.557 -1044.58 244.484 5010.11)
(-851.634 68.2883 -588.949 -1004.47 238.052 4758.21)
(-883.72 29.3104 -595.115 -1001.3 223.593 4506.79)
(-932.849 -25.8187 -587.835 -1095.95 212.257 4231.26)
(-1126.36 -73.1246 -579.179 -1419.59 223.937 3815.84)
(-1903.14 -92.0975 -585.949 -2358.19 299.302 2866.29)
(-3505.63 -106.906 -487.126 -3915.26 884.174 1234.7)
(-5977.03 -353.091 -2470.7 -7590.95 845.189 -2972.85)
(-5131.48 -317.006 -3147.44 -7451.91 592.461 -3306.36)
(-5167.87 -263.15 -3292.02 -7419.4 397.702 -3239.61)
(-4880.39 -301.158 -3351.39 -7075.2 298.178 -2816.02)
(-4093.36 -346.107 -3389.75 -6360.18 228.423 -1988.69)
(-2952.6 -344.769 -3418.34 -5389.55 155.459 -887.682)
(-1739.1 -276.006 -3428.89 -4367.63 64.8598 247.502)
(-708.1 -146.777 -3409.06 -3471.85 -44.0805 1198.97)
(-31.3402 16.3728 -3350.29 -2820.62 -162.387 1819.19)
(214.26 177.687 -3252.42 -2474.85 -275.535 2040.13)
(40.5142 302.865 -3126.43 -2447.51 -368.505 1867.38)
(-465.812 369.574 -2994.39 -2711.77 -432.11 1368.87)
(-1165.08 376.664 -2885.22 -3207.14 -469.842 657.626)
(-1893.98 350.082 -2825.28 -3842.38 -504.004 -129.93)
(-2519.59 344.465 -2822.67 -4514.64 -581.056 -879.283)
(-2977.52 445.271 -2841.87 -5095.65 -781.691 -1524.46)
(-3941.77 793.343 -2743.72 -5942.74 -1273.47 -2694.93)
(-5852.62 1574.32 -1715.41 -5289.88 -2503.77 -4975.37)
(-5977.03 -353.091 2470.7 -7590.95 -845.189 -2972.85)
(-5131.48 -317.006 3147.44 -7451.91 -592.461 -3306.36)
(-5167.87 -263.15 3292.02 -7419.4 -397.702 -3239.61)
(-4880.39 -301.158 3351.39 -7075.2 -298.178 -2816.02)
(-4093.36 -346.107 3389.75 -6360.18 -228.423 -1988.69)
(-2952.6 -344.769 3418.34 -5389.55 -155.459 -887.682)
(-1739.1 -276.006 3428.89 -4367.63 -64.8598 247.502)
(-708.1 -146.777 3409.06 -3471.85 44.0805 1198.97)
(-31.3402 16.3728 3350.29 -2820.62 162.387 1819.19)
(214.26 177.687 3252.42 -2474.85 275.535 2040.13)
(40.5142 302.865 3126.43 -2447.51 368.505 1867.38)
(-465.812 369.574 2994.39 -2711.77 432.11 1368.87)
(-1165.08 376.664 2885.22 -3207.14 469.842 657.626)
(-1893.98 350.082 2825.28 -3842.38 504.004 -129.93)
(-2519.59 344.465 2822.67 -4514.64 581.056 -879.283)
(-2977.52 445.271 2841.87 -5095.65 781.691 -1524.46)
(-3941.77 793.343 2743.72 -5942.74 1273.47 -2694.93)
(-5852.62 1574.32 1715.41 -5289.88 2503.77 -4975.37)
(2128.8 1719.8 2222.32 898.099 1838.41 1571.52)
(3914.91 715.054 2585.28 1405.13 916.598 3986.55)
(4911.38 330.249 2537.96 2288.98 526.4 5157.11)
(5494.99 147.27 2499.77 2881.41 363.596 5971.67)
(5796.76 61.2878 2513.48 3135.67 285.935 6477.45)
(5868.71 49.5412 2566.67 3099.79 256.12 6680.15)
(5788.99 100.14 2635.54 2889.26 260.9 6642.9)
(5633.61 199.163 2697.53 2619.98 292.298 6443.2)
(5455.88 331.137 2737.07 2373.58 344.04 6145.11)
(5275.56 481.693 2746.62 2183.6 412.195 5784.21)
(5076.97 639.541 2724.53 2035.51 496.197 5362.44)
(4817.25 798.009 2671.74 1877.84 599.023 4852.05)
(4446.84 957.541 2588.66 1646.19 726.625 4209.73)
(3940.57 1131.6 2471.45 1302.93 887.554 3398.1)
(3322.35 1358.49 2303.52 890.944 1091.09 2398.59)
(2621.95 1718.76 2024.66 579.077 1325.17 1153.26)
(1776.04 2321.12 1405.85 776.575 1364.64 -545.825)
(1358.21 2829.62 -241.93 2187.54 -243.376 -1586.01)
(2128.8 1719.8 -2222.32 898.099 -1838.41 1571.52)
(3914.91 715.054 -2585.28 1405.13 -916.598 3986.55)
(4911.38 330.249 -2537.96 2288.98 -526.4 5157.11)
(5494.99 147.27 -2499.77 2881.41 -363.596 5971.67)
(5796.76 61.2878 -2513.48 3135.67 -285.935 6477.45)
(5868.71 49.5412 -2566.67 3099.79 -256.12 6680.15)
(5788.99 100.14 -2635.54 2889.26 -260.9 6642.9)
(5633.61 199.163 -2697.53 2619.98 -292.298 6443.2)
(5455.88 331.137 -2737.07 2373.58 -344.04 6145.11)
(5275.56 481.693 -2746.62 2183.6 -412.195 5784.21)
(5076.97 639.541 -2724.53 2035.51 -496.197 5362.44)
(4817.25 798.009 -2671.74 1877.84 -599.023 4852.05)
(4446.84 957.541 -2588.66 1646.19 -726.625 4209.73)
(3940.57 1131.6 -2471.45 1302.93 -887.554 3398.1)
(3322.35 1358.49 -2303.52 890.944 -1091.09 2398.59)
(2621.95 1718.76 -2024.66 579.077 -1325.17 1153.26)
(1776.04 2321.12 -1405.85 776.575 -1364.64 -545.825)
(1358.21 2829.62 241.93 2187.54 243.376 -1586.01)
(-3187.43 513.562 267.789 833.837 2357.54 -2571.36)
(-2163.19 290.211 378.253 -530.953 2761.3 1221.93)
(-1504.63 104.763 321.845 -746.345 2158.38 3140.31)
(-1285.58 -27.9417 265.416 -876.952 1700.98 4025.28)
(-1121.76 -110.863 245.803 -942.958 1390.34 4610.34)
(-964.776 -140.248 262.914 -986.274 1176.97 5035.38)
(-824.679 -119.178 306.084 -1016.43 1031.7 5317.64)
(-722.741 -59.35 362.974 -1034.37 938.587 5448.82)
(-670.226 22.7635 423.28 -1035.31 889.734 5431.37)
(-666.699 109.808 479.314 -1013.33 883.548 5284.06)
(-702.696 185.823 524.459 -964.301 923.542 5037.44)
(-760.992 237.939 551.428 -885.95 1016.51 4727.16)
(-818.482 258.861 552.063 -776.272 1170.49 4384.39)
(-853.723 250.463 519.829 -630.186 1394.8 4017.79)
(-863.737 227.719 455.267 -427.646 1704.24 3577.63)
(-904.331 222.529 371.026 -97.6197 2119.7 2865.19)
(-1360.3 288.176 279.955 436.301 2549.66 1098.72)
(-2826.52 474.067 103.864 1424.27 1588.59 -2873.81)
(-3187.43 513.562 -267.789 833.837 -2357.54 -2571.36)
(-2163.19 290.211 -378.253 -530.953 -2761.3 1221.93)
(-1504.63 104.763 -321.845 -746.345 -2158.38 3140.31)
(-1285.58 -27.9417 -265.416 -876.952 -1700.98 4025.28)
(-1121.76 -110.863 -245.803 -942.958 -1390.34 4610.34)
(-964.776 -140.248 -262.914 -986.274 -1176.97 5035.38)
(-824.679 -119.178 -306.084 -1016.43 -1031.7 5317.64)
(-722.741 -59.35 -362.974 -1034.37 -938.587 5448.82)
(-670.226 22.7635 -423.28 -1035.31 -889.734 5431.37)
(-666.699 109.808 -479.314 -1013.33 -883.548 5284.06)
(-702.696 185.823 -524.459 -964.301 -923.542 5037.44)
(-760.992 237.939 -551.428 -885.95 -1016.51 4727.16)
(-818.482 258.861 -552.063 -776.272 -1170.49 4384.39)
(-853.723 250.463 -519.829 -630.186 -1394.8 4017.79)
(-863.737 227.719 -455.267 -427.646 -1704.24 3577.63)
(-904.332 222.529 -371.026 -97.6197 -2119.7 2865.19)
(-1360.3 288.176 -279.955 436.301 -2549.66 1098.72)
(-2826.52 474.067 -103.864 1424.27 -1588.59 -2873.81)
(-4042.37 -2814.04 -472.976 -2474.46 732.942 -6336.72)
(-4480.82 -2281.16 -2074.28 -4430.15 2173.82 -5045.57)
(-4528.3 -1800.99 -2768.48 -5487.95 2050.17 -3837.06)
(-4330.65 -1549.52 -3097.85 -5796.26 1735.06 -3015.72)
(-3670.32 -1411.03 -3279.73 -5516.41 1461.25 -2078.32)
(-2653.23 -1288.11 -3382.59 -4863.4 1231.99 -976.875)
(-1546.83 -1130.24 -3424.95 -4081.28 1029.65 119.694)
(-617.424 -931.028 -3409.57 -3374.19 846.867 1012.53)
(-48.8145 -715.468 -3338.4 -2878.53 689.184 1557.25)
(82.3108 -523.419 -3220.67 -2662.79 571.431 1690.9)
(-198.373 -394.66 -3076.79 -2736.22 511.721 1432.34)
(-779.57 -357.61 -2937.65 -3055.64 524.763 871.852)
(-1486.79 -422.892 -2838.3 -3527.47 616.461 155.255)
(-2108.13 -584.2 -2805.49 -4005.79 783.048 -537.567)
(-2435.15 -828.637 -2837.43 -4299.85 1017.96 -1036.39)
(-2358.56 -1159.09 -2866.97 -4211.71 1329.09 -1294.84)
(-2240.11 -1642.25 -2678.4 -3740.39 1743.92 -1848.64)
(-3057.56 -2411.47 -1701.32 -2894.26 1796.72 -4272.03)
(-4042.37 -2814.04 472.976 -2474.46 -732.942 -6336.72)
(-4480.82 -2281.16 2074.28 -4430.15 -2173.82 -5045.57)
(-4528.3 -1800.99 2768.48 -5487.95 -2050.17 -3837.06)
(-4330.65 -1549.52 3097.85 -5796.26 -1735.06 -3015.72)
(-3670.32 -1411.03 3279.73 -5516.41 -1461.25 -2078.32)
(-2653.23 -1288.11 3382.59 -4863.4 -1231.99 -976.875)
(-1546.83 -1130.24 3424.95 -4081.28 -1029.65 119.694)
(-617.424 -931.028 3409.57 -3374.19 -846.867 1012.53)
(-48.8145 -715.468 3338.4 -2878.53 -689.184 1557.25)
(82.3108 -523.419 3220.67 -2662.79 -571.431 1690.9)
(-198.373 -394.66 3076.79 -2736.22 -511.721 1432.34)
(-779.57 -357.61 2937.65 -3055.64 -524.763 871.852)
(-1486.79 -422.892 2838.3 -3527.47 -616.461 155.255)
(-2108.13 -584.2 2805.49 -4005.79 -783.048 -537.567)
(-2435.15 -828.637 2837.43 -4299.85 -1017.96 -1036.39)
(-2358.56 -1159.09 2866.97 -4211.71 -1329.09 -1294.84)
(-2240.11 -1642.25 2678.4 -3740.39 -1743.92 -1848.64)
(-3057.56 -2411.47 1701.32 -2894.26 -1796.72 -4272.03)
(1716.62 2402.02 1517.78 949.125 1359.19 -693.698)
(2671 1738.21 2064.6 1077.29 1506.05 1385.61)
(3798.99 1198.46 2228.3 1780.47 1264.69 3291.85)
(4512.68 843.485 2268.92 2293.93 1023.76 4524.85)
(4892.51 635.713 2301.22 2522.08 851.85 5262.5)
(5034.41 544.699 2356.01 2505.14 745.835 5626.74)
(5033.53 547.527 2428.12 2343.77 695.53 5716.06)
(4969.39 622.976 2499.05 2143.2 691.55 5616.26)
(4890.77 751.276 2549.19 1977.76 725.53 5391.24)
(4806.79 915.429 2563.38 1874.79 790.432 5072.82)
(4687.26 1101.94 2531.7 1814 880.613 4656.92)
(4473.83 1301.26 2447.7 1739.78 991.043 4108.31)
(4104.54 1509.09 2305.42 1587.79 1115.14 3375.5)
(3550.32 1730.06 2094.43 1327.24 1239.51 2414.71)
(2849.77 1982.74 1790.32 1012.33 1328.36 1217.58)
(2128.93 2294.33 1335.11 823.556 1276.95 -146.932)
(1690.2 2642.06 612.768 1083.46 820.874 -1308.31)
(1630.09 2789.77 -457.519 1443.37 -304.389 -1620.29)
(1716.62 2402.02 -1517.78 949.125 -1359.19 -693.698)
(2671 1738.21 -2064.6 1077.29 -1506.05 1385.61)
(3798.99 1198.46 -2228.3 1780.47 -1264.69 3291.85)
(4512.68 843.485 -2268.92 2293.93 -1023.76 4524.85)
(4892.51 635.713 -2301.22 2522.08 -851.85 5262.5)
(5034.41 544.699 -2356.01 2505.14 -745.835 5626.74)
(5033.53 547.527 -2428.12 2343.77 -695.53 5716.06)
(4969.39 622.976 -2499.05 2143.2 -691.55 5616.26)
(4890.77 751.276 -2549.19 1977.76 -725.53 5391.24)
(4806.79 915.429 -2563.38 1874.79 -790.432 5072.82)
(4687.26 1101.94 -2531.7 1814 -880.613 4656.92)
(4473.83 1301.26 -2447.7 1739.78 -991.043 4108.31)
(4104.54 1509.09 -2305.42 1587.79 -1115.14 3375.5)
(3550.32 1730.06 -2094.43 1327.24 -1239.51 2414.71)
(2849.77 1982.74 -1790.32 1012.33 -1328.36 1217.58)
(2128.93 2294.33 -1335.11 823.556 -1276.95 -146.932)
(1690.2 2642.06 -612.768 1083.46 -820.874 -1308.31)
(1630.09 2789.77 457.519 1443.37 304.389 -1620.29)
(-1810.98 505.277 226.061 2913.75 1339.13 -1910.4)
(-2075.99 384.329 302.162 1488.34 2586.83 -686.511)
(-1781.37 204.419 279.618 631.125 2799.91 1060.9)
(-1438.02 46.7144 224.617 164.415 2600.35 2434.08)
(-1149.51 -56.9137 187.974 -114.956 2321.48 3417.97)
(-906.079 -97.2004 188.681 -291.751 2070.8 4119.49)
(-718.06 -77.7143 225.365 -411.395 1878.05 4576.75)
(-600.257 -11.628 286.479 -493.536 1749.84 4799.84)
(-558.353 83.0455 357.639 -541.653 1686.76 4804.1)
(-588.304 187.679 425.072 -551.653 1689.02 4618.09)
(-678.384 285.274 476.017 -515.538 1757.47 4279.9)
(-807.967 361.631 498.285 -418.948 1891.43 3830.86)
(-946.621 406.952 481.034 -236.151 2084.49 3304.4)
(-1061.43 418.659 417.938 72.9474 2317.38 2703.3)
(-1139.19 405.578 312.84 561.61 2540.51 1961.69)
(-1224.14 392.575 184.843 1283.32 2620.52 910.513)
(-1367.17 417.371 58.035 2281.76 2211.76 -551.213)
(-1502.74 488.461 -76.0382 3261.12 770.078 -1844.46)
(-1810.98 505.277 -226.061 2913.75 -1339.13 -1910.4)
(-2075.99 384.329 -302.162 1488.34 -2586.83 -686.511)
(-1781.37 204.419 -279.618 631.125 -2799.91 1060.9)
(-1438.02 46.7144 -224.617 164.415 -2600.35 2434.08)
(-1149.51 -56.9137 -187.974 -114.956 -2321.48 3417.97)
(-906.079 -97.2004 -188.681 -291.751 -2070.8 4119.49)
(-718.06 -77.7143 -225.365 -411.394 -1878.05 4576.75)
(-600.257 -11.628 -286.479 -493.536 -1749.84 4799.84)
(-558.353 83.0455 -357.639 -541.653 -1686.76 4804.1)
(-588.304 187.679 -425.072 -551.653 -1689.02 4618.09)
(-678.384 285.274 -476.017 -515.538 -1757.47 4279.9)
(-807.967 361.631 -498.285 -418.948 -1891.43 3830.86)
(-946.621 406.952 -481.034 -236.151 -2084.49 3304.4)
(-1061.43 418.659 -417.938 72.9474 -2317.38 2703.3)
(-1139.19 405.578 -312.84 561.61 -2540.51 1961.69)
(-1224.14 392.575 -184.843 1283.32 -2620.52 910.513)
(-1367.17 417.371 -58.035 2281.76 -2211.76 -551.213)
(-1502.74 488.461 76.0382 3261.12 -770.078 -1844.46)
(-335.921 -3023.6 -143.882 1129.62 347.057 -2750.21)
(-1595.66 -2837.69 -1248.96 -528.706 1571.93 -3258.81)
(-2510.1 -2585.15 -2040.31 -2188.68 2097.1 -3156.03)
(-2725.17 -2379.86 -2560.16 -3118.79 2163.93 -2586.18)
(-2330.09 -2216.49 -2892.99 -3361.5 2038.6 -1706.63)
(-1526.41 -2048.54 -3092.57 -3130 1847.43 -648.773)
(-599.79 -1842.21 -3186.83 -2678.86 1641.75 391.165)
(177.048 -1597.75 -3191.93 -2224.79 1447.32 1215.16)
(618.475 -1345.62 -3122.35 -1913.23 1285.14 1684.36)
(654.733 -1130.77 -2997.83 -1813.2 1177.23 1745.8)
(327.335 -996.682 -2846.5 -1922.58 1144.56 1433.84)
(-230.477 -974.352 -2702.64 -2172.58 1201.36 859.101)
(-819.086 -1077.85 -2597.52 -2429.06 1348.95 188.47)
(-1205.3 -1306.92 -2543.36 -2497.44 1571.2 -389.016)
(-1186.36 -1653.2 -2509.64 -2159.44 1826 -737.755)
(-732.417 -2097.02 -2386.88 -1287.51 2013.4 -923.823)
(-138.719 -2577.34 -1965.76 -13.5248 1898.64 -1295.58)
(134.42 -2945.61 -1068.32 1152.5 1102.84 -2030.61)
(-335.921 -3023.6 143.882 1129.62 -347.057 -2750.21)
(-1595.66 -2837.69 1248.96 -528.706 -1571.93 -3258.81)
(-2510.1 -2585.15 2040.31 -2188.68 -2097.1 -3156.03)
(-2725.17 -2379.86 2560.16 -3118.79 -2163.93 -2586.18)
(-2330.09 -2216.49 2892.99 -3361.5 -2038.6 -1706.63)
(-1526.41 -2048.54 3092.57 -3130 -1847.43 -648.773)
(-599.79 -1842.21 3186.83 -2678.86 -1641.75 391.165)
(177.048 -1597.75 3191.93 -2224.79 -1447.32 1215.16)
(618.475 -1345.62 3122.35 -1913.23 -1285.14 1684.36)
(654.733 -1130.77 2997.83 -1813.2 -1177.23 1745.8)
(327.335 -996.682 2846.5 -1922.58 -1144.56 1433.84)
(-230.477 -974.352 2702.64 -2172.58 -1201.36 859.101)
(-819.086 -1077.85 2597.52 -2429.06 -1348.95 188.47)
(-1205.3 -1306.92 2543.36 -2497.44 -1571.2 -389.016)
(-1186.36 -1653.2 2509.64 -2159.44 -1826 -737.755)
(-732.417 -2097.02 2386.88 -1287.51 -2013.4 -923.823)
(-138.719 -2577.34 1965.76 -13.5248 -1898.64 -1295.58)
(134.42 -2945.61 1068.32 1152.5 -1102.84 -2030.61)
(1296.38 2458.35 1193.36 665.503 963.193 -1397.09)
(1871.26 2056.1 1640.44 812.629 1326.56 -59.6554)
(2663.45 1628.33 1866.8 1216.3 1368.49 1485.28)
(3318.1 1277.35 1968.23 1575.83 1268.03 2749.81)
(3713.83 1038.34 2027.41 1730.46 1141.74 3599.75)
(3890.08 913.735 2087.12 1688.88 1038.6 4075.61)
(3935.18 891.691 2157.46 1536.71 975.332 4261.22)
(3928.37 953.714 2227.93 1368.24 955.136 4237.88)
(3913.52 1079.85 2279.14 1247.73 974.683 4065.39)
(3890.13 1251.67 2291.21 1193.75 1026.89 3772.1)
(3817.38 1452.97 2247.88 1180.27 1101.74 3353.27)
(3630.3 1669.43 2137.39 1150.87 1185.86 2778.56)
(3270.27 1889.1 1951.04 1047.21 1260.52 2011.48)
(2726.9 2104.37 1679.76 849.854 1296.63 1041.84)
(2075.32 2313.6 1309.57 617.445 1244.06 -72.2337)
(1481.45 2513.35 819.358 485.437 1017.44 -1161.13)