/*--------------------------------*- C++ -*----------------------------------*\
| =========                 |                                                 |
| \\      /  F ield         | OpenFOAM: The Open Source CFD Toolbox           |
|  \\    /   O peration     | Version:  2412                                  |
|   \\  /    A nd           | Website:  www.openfoam.com                      |
|    \\/     M anipulation  |                                                 |
\*---------------------------------------------------------------------------*/
FoamFile
{
    version     2.0;
    format      ascii;
    arch        "LSB;label=32;scalar=64";
    class       volScalarField;
    location    "0.0400007";
    object      Jsi;
}
// * * * * * * * * * * * * * * * * * * * * * * * * * * * * * * * * * * * * * //

dimensions      [0 0 0 0 0 0 0];

internalField   nonuniform List<scalar> 
8796
(
-0.0920293
-0.0919286
-0.0917344
-0.0915445
-0.0912934
-0.0908518
-0.0904448
-0.0898446
-0.089177
-0.0885168
-0.0877705
-0.0869344
-0.0860075
-0.084983
-0.0838447
-0.0826888
-0.0814858
-0.0801879
-0.0787998
-0.0772972
-0.0757252
-0.0741324
-0.0723332
-0.0705338
-0.0686588
-0.0666797
-0.0646027
-0.0625201
-0.0602501
-0.0578564
-0.0554533
-0.0529827
-0.0503523
-0.0477741
-0.0916839
-0.0915763
-0.091458
-0.0912836
-0.0909132
-0.0905069
-0.0900706
-0.0896055
-0.0889429
-0.0882145
-0.0874779
-0.0866383
-0.0856906
-0.0846342
-0.0835641
-0.0824454
-0.0811664
-0.0799379
-0.0784694
-0.0770429
-0.0754396
-0.0737694
-0.0720916
-0.0703177
-0.0684371
-0.0664463
-0.0643463
-0.0621436
-0.0598423
-0.0575349
-0.05516
-0.0526186
-0.0500311
-0.0473739
-0.0911199
-0.0910213
-0.0908303
-0.0906439
-0.0903978
-0.0899639
-0.0895698
-0.0889857
-0.0883279
-0.0876579
-0.0868967
-0.0860469
-0.0851095
-0.0840775
-0.0829343
-0.0817747
-0.0805657
-0.0791883
-0.0778626
-0.0763518
-0.0747709
-0.0731706
-0.0713659
-0.0695609
-0.06768
-0.0656928
-0.0635902
-0.0613926
-0.0592092
-0.0568474
-0.054459
-0.0519927
-0.0493649
-0.046784
-0.0902217
-0.0901274
-0.0899409
-0.0897471
-0.0894944
-0.0890548
-0.0886487
-0.0880526
-0.0873882
-0.0867149
-0.0859522
-0.0851018
-0.0841646
-0.0831344
-0.0819945
-0.0808419
-0.0796352
-0.0782445
-0.0769029
-0.0753764
-0.0737845
-0.0721757
-0.070363
-0.0685527
-0.0666688
-0.0646797
-0.0625755
-0.0603763
-0.0581918
-0.0558299
-0.0534408
-0.0509703
-0.0483235
-0.0456345
-0.0889378
-0.0888984
-0.0887091
-0.0885472
-0.0882046
-0.0878987
-0.0873438
-0.0868273
-0.086132
-0.0854627
-0.0846496
-0.083803
-0.0828453
-0.0818495
-0.0807038
-0.0795863
-0.0782869
-0.0770311
-0.0755334
-0.0740794
-0.0724533
-0.0707666
-0.0690787
-0.0672921
-0.0654004
-0.0633993
-0.0612892
-0.0590769
-0.0567699
-0.0544592
-0.0520779
-0.0495357
-0.0469507
-0.0442795
-0.0873755
-0.0872725
-0.0871518
-0.0869609
-0.0865662
-0.086147
-0.0856963
-0.0852325
-0.0845745
-0.0838498
-0.0831157
-0.0822701
-0.0813069
-0.0802296
-0.0791393
-0.0779937
-0.0766598
-0.0752889
-0.0738479
-0.0723068
-0.0707073
-0.0691158
-0.0674082
-0.0654926
-0.0635608
-0.0615485
-0.0594467
-0.0573425
-0.0550552
-0.0526509
-0.05024
-0.0477532
-0.0450948
-0.0423938
-0.0854153
-0.0853267
-0.0852341
-0.0849437
-0.0845484
-0.0842217
-0.0836633
-0.0831758
-0.082594
-0.0818229
-0.0809811
-0.0801271
-0.0791648
-0.0781635
-0.0770075
-0.075877
-0.0745631
-0.0732924
-0.0717837
-0.0703191
-0.0686857
-0.066979
-0.065267
-0.0634302
-0.061386
-0.0593277
-0.0572118
-0.0551169
-0.0528409
-0.0504419
-0.0480201
-0.0455206
-0.0428471
-0.0401319
-0.0830367
-0.082927
-0.0827023
-0.0824563
-0.0821576
-0.081753
-0.0812611
-0.0806651
-0.0800185
-0.0793632
-0.0786058
-0.0777518
-0.0768007
-0.0757384
-0.0745665
-0.0733888
-0.0721513
-0.0707359
-0.0693633
-0.067736
-0.0661466
-0.064367
-0.0625865
-0.0606664
-0.0587279
-0.0567011
-0.0545889
-0.0523897
-0.0501542
-0.0477455
-0.0453464
-0.0427766
-0.0401611
-0.0374696
-0.0801883
-0.0800726
-0.0799353
-0.0797297
-0.0793356
-0.078904
-0.0784331
-0.0779345
-0.077255
-0.0765079
-0.0757566
-0.0748991
-0.0739301
-0.0728476
-0.0716601
-0.0704681
-0.069222
-0.0677993
-0.0664215
-0.0647844
-0.0631889
-0.0614004
-0.0596075
-0.0576782
-0.0557383
-0.0537095
-0.0515937
-0.0493858
-0.0470684
-0.0447299
-0.0423174
-0.0397368
-0.0371175
-0.034415
-0.0769806
-0.0768813
-0.0766761
-0.0763576
-0.0760188
-0.0756244
-0.075122
-0.0745552
-0.0739511
-0.0731564
-0.0723746
-0.071513
-0.0705377
-0.0694479
-0.0682763
-0.0671277
-0.0657922
-0.0644072
-0.0629473
-0.061377
-0.0597345
-0.0580665
-0.0562048
-0.0543407
-0.0523262
-0.0502877
-0.0481443
-0.0458952
-0.0436171
-0.041176
-0.0387529
-0.0361503
-0.0335096
-0.0307946
-0.073135
-0.0731725
-0.0730125
-0.0727235
-0.0724124
-0.0720345
-0.0715372
-0.0709408
-0.0702296
-0.0695368
-0.068706
-0.0678441
-0.0668653
-0.065771
-0.0646457
-0.0633706
-0.0621006
-0.0606488
-0.0592495
-0.0576024
-0.0560122
-0.0542436
-0.0523809
-0.0505072
-0.0485374
-0.0464702
-0.0443127
-0.0420669
-0.0397303
-0.0372856
-0.0348121
-0.0321674
-0.0295414
-0.0268486
-0.0691978
-0.0692496
-0.0690972
-0.0688023
-0.0684833
-0.0680987
-0.0675992
-0.0669969
-0.0662774
-0.0655877
-0.0647561
-0.0638917
-0.0629112
-0.0618169
-0.0606896
-0.059404
-0.058118
-0.0566386
-0.0551265
-0.0535579
-0.0519772
-0.0502013
-0.0483216
-0.0464309
-0.0444274
-0.0422301
-0.0400282
-0.0377811
-0.0355534
-0.0331593
-0.0306372
-0.0280836
-0.0253688
-0.0226769
-0.0653204
-0.0652668
-0.0652056
-0.0649352
-0.0646211
-0.0642325
-0.0637328
-0.0631289
-0.0624123
-0.0617088
-0.0608581
-0.0599772
-0.0589883
-0.0578935
-0.0566958
-0.055468
-0.0540728
-0.0526747
-0.0511827
-0.0495932
-0.0479084
-0.0461282
-0.0443148
-0.0423099
-0.0403011
-0.0382196
-0.0360491
-0.0337831
-0.0314251
-0.0289714
-0.0264404
-0.0239246
-0.0212794
-0.0187128
-0.0621729
-0.0620728
-0.0618689
-0.0616273
-0.0612293
-0.0608407
-0.0603435
-0.0597589
-0.0591301
-0.0583082
-0.0574702
-0.0565569
-0.0555535
-0.0544574
-0.0532642
-0.0519728
-0.0506718
-0.0492673
-0.0476726
-0.0460804
-0.0443806
-0.0426782
-0.0407896
-0.0387672
-0.0367477
-0.0346661
-0.0324903
-0.03021
-0.0278287
-0.0253583
-0.0228332
-0.0203696
-0.0179653
-0.0157639
-0.0600373
-0.0600547
-0.0598694
-0.0596255
-0.0592179
-0.0588148
-0.0583044
-0.0577765
-0.0569828
-0.0562545
-0.0554352
-0.0545159
-0.0535002
-0.0523909
-0.0511831
-0.0498718
-0.0484678
-0.0471456
-0.0455714
-0.0439713
-0.0422711
-0.040562
-0.0386689
-0.0366645
-0.0346594
-0.0325839
-0.0304076
-0.0281236
-0.02574
-0.023275
-0.0207585
-0.0182725
-0.0161775
-0.014563
-0.112184
-0.112088
-0.112003
-0.111907
-0.111612
-0.111376
-0.110858
-0.1104
-0.109732
-0.109103
-0.108362
-0.107618
-0.106892
-0.106147
-0.105168
-0.104047
-0.102924
-0.101801
-0.10067
-0.0992425
-0.097897
-0.0964931
-0.0949963
-0.0934011
-0.0917075
-0.0899191
-0.0880366
-0.0860498
-0.0839528
-0.0818484
-0.0797076
-0.0773815
-0.0751327
-0.0726223
-0.11213
-0.112038
-0.111857
-0.111581
-0.111289
-0.110978
-0.110541
-0.11009
-0.109637
-0.109082
-0.108428
-0.107676
-0.106828
-0.105888
-0.104846
-0.103804
-0.102734
-0.101498
-0.100353
-0.0991113
-0.0975899
-0.0961667
-0.0946754
-0.0930843
-0.0913837
-0.089578
-0.0876684
-0.0856582
-0.083645
-0.0816013
-0.0793794
-0.0772254
-0.0748101
-0.0724623
-0.111386
-0.111295
-0.111221
-0.111129
-0.110836
-0.110606
-0.110099
-0.109683
-0.109156
-0.108392
-0.107602
-0.106843
-0.106112
-0.105362
-0.104377
-0.103251
-0.102125
-0.100991
-0.0998496
-0.098414
-0.0970603
-0.0956486
-0.0941442
-0.0925416
-0.0908409
-0.0890456
-0.0871561
-0.0851625
-0.083065
-0.0809618
-0.0788211
-0.076497
-0.0742505
-0.0717447
-0.110592
-0.110605
-0.110593
-0.110375
-0.110048
-0.109806
-0.109295
-0.108869
-0.108334
-0.107564
-0.106844
-0.106091
-0.105299
-0.104545
-0.10356
-0.102463
-0.101457
-0.100195
-0.0990053
-0.0975482
-0.0961838
-0.0947652
-0.0932551
-0.0916479
-0.0899436
-0.0881454
-0.0862536
-0.0842581
-0.0821587
-0.0800535
-0.077911
-0.0755849
-0.0733358
-0.0708218
-0.109797
-0.109696
-0.109498
-0.109229
-0.109068
-0.108654
-0.108299
-0.107687
-0.107181
-0.106614
-0.105955
-0.105197
-0.104335
-0.10338
-0.102353
-0.101434
-0.100236
-0.099
-0.0977557
-0.0964944
-0.0949536
-0.0935111
-0.092004
-0.0903993
-0.0886892
-0.0868735
-0.0849522
-0.0829294
-0.0809049
-0.07885
-0.0766196
-0.0744585
-0.0720385
-0.0696851
-0.108253
-0.108306
-0.108126
-0.107808
-0.107496
-0.107168
-0.106733
-0.106267
-0.105816
-0.105273
-0.104622
-0.103862
-0.102994
-0.10202
-0.100955
-0.0998339
-0.0988076
-0.0975259
-0.0963197
-0.0949248
-0.0934903
-0.0920641
-0.0905373
-0.0889114
-0.0871937
-0.0853821
-0.083465
-0.0814388
-0.079307
-0.07718
-0.075017
-0.0726767
-0.0704153
-0.0678908
-0.106647
-0.106541
-0.106319
-0.106024
-0.105846
-0.105421
-0.105063
-0.104519
-0.103944
-0.103375
-0.102712
-0.10195
-0.10109
-0.100128
-0.0990969
-0.0981613
-0.0969464
-0.0956935
-0.0944337
-0.0931603
-0.0916091
-0.0901519
-0.0886232
-0.0869969
-0.0852639
-0.0834266
-0.0814853
-0.0794477
-0.07733
-0.0753235
-0.0730495
-0.0706698
-0.0683827
-0.0658363
-0.104454
-0.104504
-0.104322
-0.104004
-0.103693
-0.103342
-0.10288
-0.10238
-0.101895
-0.10129
-0.100455
-0.0996796
-0.098974
-0.0980513
-0.0969991
-0.0958751
-0.094848
-0.0935606
-0.0923405
-0.0908561
-0.0894564
-0.0879488
-0.0862152
-0.084438
-0.0826749
-0.0808307
-0.0789947
-0.0771337
-0.0750561
-0.0728435
-0.0705422
-0.0683425
-0.0658883
-0.0634976
-0.102078
-0.101969
-0.101754
-0.101463
-0.101278
-0.10084
-0.100468
-0.0998427
-0.099328
-0.0987577
-0.0980872
-0.0973175
-0.0964486
-0.0954701
-0.0943921
-0.0932523
-0.0922232
-0.0909334
-0.0897023
-0.0882038
-0.0867931
-0.0852768
-0.0835307
-0.0817425
-0.0799714
-0.0781205
-0.076206
-0.074408
-0.072321
-0.070093
-0.0677771
-0.0655573
-0.0630782
-0.0606789
-0.0989961
-0.0989183
-0.0989265
-0.0986458
-0.0982696
-0.0979944
-0.0974625
-0.0970043
-0.096362
-0.0956987
-0.0950393
-0.0942726
-0.0933863
-0.0923852
-0.0913818
-0.0903612
-0.0891579
-0.0880137
-0.0866094
-0.0852629
-0.0836697
-0.082178
-0.0806097
-0.0789435
-0.0771761
-0.0753051
-0.0733325
-0.0712642
-0.0690935
-0.0668424
-0.0646978
-0.0622841
-0.0597647
-0.0573389
-0.0957034
-0.0956055
-0.0955052
-0.0953746
-0.0950556
-0.0948044
-0.0942814
-0.0938211
-0.093167
-0.0924948
-0.0918284
-0.0910546
-0.0901609
-0.0891515
-0.088067
-0.0870952
-0.0858455
-0.0844875
-0.0832266
-0.0817807
-0.0802988
-0.0788183
-0.0771999
-0.0753409
-0.073425
-0.071526
-0.0695507
-0.067585
-0.0655684
-0.0633397
-0.0609782
-0.0586039
-0.0561875
-0.0536007
-0.0922186
-0.092284
-0.0921283
-0.0918466
-0.0915565
-0.0912311
-0.090705
-0.090242
-0.0895789
-0.0889
-0.0882299
-0.0874529
-0.0865557
-0.0855443
-0.0845264
-0.083477
-0.0822186
-0.0809153
-0.0795732
-0.0781152
-0.0766237
-0.0751033
-0.0733411
-0.0715012
-0.0696766
-0.0677744
-0.0657911
-0.0637252
-0.0616595
-0.0595333
-0.0572051
-0.0547675
-0.0524198
-0.0498094
-0.0887106
-0.0887819
-0.088632
-0.0883495
-0.0880547
-0.087722
-0.0872707
-0.0867365
-0.0860657
-0.0854412
-0.0846783
-0.083885
-0.0829803
-0.0819702
-0.0809576
-0.0799046
-0.0786313
-0.0773158
-0.0759602
-0.0744911
-0.0729742
-0.0714369
-0.0696672
-0.0678233
-0.0659971
-0.0640929
-0.0621032
-0.0600229
-0.0578391
-0.055652
-0.0534099
-0.0509789
-0.0484423
-0.0459977
-0.0858716
-0.0857693
-0.0856286
-0.0853434
-0.0851032
-0.0847479
-0.0843086
-0.0837497
-0.0831261
-0.0824574
-0.0815562
-0.0806856
-0.0797653
-0.0787925
-0.0778581
-0.0767061
-0.0754728
-0.0740737
-0.0727327
-0.071371
-0.069804
-0.0681728
-0.0665105
-0.0646426
-0.0627943
-0.0608814
-0.0588728
-0.0567574
-0.0545347
-0.0522368
-0.0499878
-0.0475639
-0.0451139
-0.0426169
-0.0840445
-0.0840046
-0.0837853
-0.0834969
-0.0832514
-0.0828549
-0.082287
-0.0818461
-0.0812616
-0.0806017
-0.0796942
-0.0788207
-0.0778982
-0.0768973
-0.075824
-0.0747726
-0.0735624
-0.0721613
-0.070858
-0.0692903
-0.0678143
-0.0661831
-0.064409
-0.0626528
-0.0608393
-0.0589326
-0.056918
-0.0547906
-0.0525549
-0.0502425
-0.047978
-0.0455465
-0.0430779
-0.0404614
-0.132815
-0.132721
-0.132574
-0.132549
-0.132282
-0.13209
-0.131648
-0.13131
-0.130862
-0.130186
-0.129567
-0.128927
-0.128266
-0.127665
-0.126836
-0.125905
-0.12507
-0.123996
-0.12302
-0.121963
-0.120693
-0.119404
-0.11813
-0.116767
-0.115307
-0.113783
-0.112377
-0.110707
-0.108933
-0.107252
-0.105288
-0.103287
-0.101282
-0.0992728
-0.132525
-0.132484
-0.132494
-0.132289
-0.131974
-0.131773
-0.131389
-0.131012
-0.130648
-0.130181
-0.129626
-0.128982
-0.128251
-0.127438
-0.126564
-0.125809
-0.124823
-0.123905
-0.122747
-0.121691
-0.120578
-0.119394
-0.118122
-0.116752
-0.115285
-0.113725
-0.112092
-0.110383
-0.108778
-0.106917
-0.104941
-0.103074
-0.100963
-0.0989504
-0.132155
-0.13207
-0.131941
-0.131933
-0.131666
-0.131469
-0.131023
-0.130683
-0.130238
-0.129556
-0.128933
-0.128293
-0.127633
-0.127023
-0.126186
-0.125249
-0.124408
-0.123327
-0.122344
-0.12128
-0.120002
-0.118704
-0.117421
-0.116049
-0.114581
-0.113049
-0.111637
-0.10996
-0.10818
-0.106494
-0.104527
-0.102458
-0.100522
-0.0985173
-0.131474
-0.131387
-0.131322
-0.131259
-0.131006
-0.130818
-0.130368
-0.130016
-0.129559
-0.128868
-0.128248
-0.127645
-0.12712
-0.126383
-0.125505
-0.124553
-0.123707
-0.122617
-0.121628
-0.120559
-0.119271
-0.117963
-0.116672
-0.115294
-0.113823
-0.112288
-0.110874
-0.109195
-0.107411
-0.105723
-0.103753
-0.101682
-0.0997436
-0.0977355
-0.130838
-0.130741
-0.130558
-0.130323
-0.130207
-0.12985
-0.129557
-0.129011
-0.128586
-0.12811
-0.127553
-0.126903
-0.126167
-0.12534
-0.124527
-0.123708
-0.122709
-0.121774
-0.120592
-0.119525
-0.118392
-0.117184
-0.115885
-0.114498
-0.113025
-0.111468
-0.109816
-0.108086
-0.106462
-0.104584
-0.102595
-0.100717
-0.0985977
-0.096574
-0.129703
-0.129617
-0.129423
-0.129132
-0.128863
-0.128626
-0.128377
-0.12786
-0.127455
-0.126997
-0.126449
-0.125801
-0.125052
-0.124217
-0.123333
-0.122561
-0.121544
-0.120607
-0.119419
-0.118337
-0.117203
-0.115951
-0.114403
-0.112958
-0.111497
-0.110165
-0.108556
-0.106811
-0.104986
-0.10327
-0.101277
-0.09919
-0.0972317
-0.0952077
-0.128224
-0.128117
-0.127908
-0.127646
-0.127515
-0.127144
-0.126879
-0.126508
-0.125879
-0.125366
-0.124804
-0.124158
-0.123427
-0.122641
-0.121958
-0.121006
-0.119945
-0.118987
-0.11785
-0.116706
-0.115568
-0.114345
-0.113027
-0.111622
-0.110131
-0.108555
-0.106876
-0.105097
-0.103247
-0.101528
-0.0995546
-0.0976565
-0.0955027
-0.093422
-0.126563
-0.126464
-0.126268
-0.12601
-0.125876
-0.125488
-0.125176
-0.124609
-0.124163
-0.123678
-0.123111
-0.122458
-0.121717
-0.120888
-0.120004
-0.119227
-0.1182
-0.117252
-0.116051
-0.114948
-0.113764
-0.112293
-0.110919
-0.109489
-0.107972
-0.106364
-0.104696
-0.103156
-0.101331
-0.0993994
-0.0975772
-0.0955008
-0.093498
-0.091238
-0.124351
-0.124248
-0.124051
-0.123803
-0.123675
-0.12329
-0.122979
-0.122478
-0.121969
-0.121487
-0.120926
-0.120273
-0.119527
-0.118691
-0.117789
-0.117009
-0.115982
-0.115019
-0.113799
-0.112681
-0.111485
-0.11
-0.108614
-0.107175
-0.105649
-0.104029
-0.102349
-0.100798
-0.0989612
-0.0970106
-0.0951673
-0.093037
-0.0908073
-0.0887016
-0.122011
-0.121908
-0.121709
-0.12142
-0.121153
-0.120868
-0.120473
-0.120056
-0.119661
-0.119189
-0.118624
-0.11796
-0.1172
-0.116344
-0.115401
-0.114395
-0.113502
-0.112361
-0.111295
-0.109985
-0.108793
-0.10754
-0.106194
-0.104754
-0.103227
-0.101599
-0.0998685
-0.0980447
-0.0961218
-0.0942046
-0.092274
-0.0901593
-0.088109
-0.0858046
-0.119194
-0.119095
-0.118908
-0.11867
-0.118555
-0.118198
-0.117909
-0.117371
-0.116932
-0.116439
-0.115859
-0.115184
-0.114414
-0.11355
-0.112596
-0.111577
-0.110673
-0.109516
-0.108443
-0.107118
-0.105914
-0.104643
-0.103233
-0.101519
-0.0999143
-0.0982698
-0.0966376
-0.0949812
-0.0931055
-0.0910932
-0.0890644
-0.0870103
-0.0847786
-0.0826211
-0.116067
-0.115979
-0.115803
-0.115638
-0.115465
-0.115103
-0.114813
-0.114327
-0.113814
-0.113311
-0.112725
-0.112046
-0.111272
-0.110407
-0.109443
-0.108484
-0.107509
-0.106341
-0.105255
-0.103974
-0.102686
-0.101408
-0.0999962
-0.0983407
-0.0966466
-0.095041
-0.0933137
-0.0916402
-0.0897539
-0.0877347
-0.0856213
-0.083625
-0.0813768
-0.0792028
-0.113019
-0.112995
-0.11284
-0.11273
-0.112425
-0.112089
-0.111758
-0.111399
-0.110834
-0.110237
-0.109639
-0.108949
-0.108158
-0.107271
-0.106383
-0.105468
-0.104355
-0.103206
-0.102034
-0.100741
-0.0994244
-0.0981217
-0.096693
-0.0950289
-0.0933899
-0.0917007
-0.0899573
-0.0882628
-0.086359
-0.0843252
-0.0822043
-0.0801873
-0.0778942
-0.0755688
-0.110569
-0.110463
-0.110262
-0.110072
-0.109869
-0.109556
-0.10919
-0.108708
-0.108185
-0.10762
-0.106818
-0.106061
-0.105266
-0.104431
-0.103637
-0.102624
-0.101567
-0.100468
-0.0992563
-0.0979689
-0.0965579
-0.0951938
-0.0936961
-0.0921692
-0.0905564
-0.0888593
-0.0870778
-0.0852148
-0.0832436
-0.0812364
-0.0790855
-0.0769966
-0.0747922
-0.0725167
-0.108883
-0.108842
-0.108637
-0.108379
-0.108191
-0.107879
-0.107511
-0.107021
-0.106571
-0.105947
-0.105149
-0.104398
-0.103628
-0.10291
-0.101977
-0.100975
-0.0998225
-0.0987171
-0.0974878
-0.0961935
-0.0947726
-0.0934034
-0.0919736
-0.090376
-0.0887467
-0.0870352
-0.0852453
-0.0833594
-0.0814379
-0.0793376
-0.0771706
-0.0750674
-0.0728524
-0.0705701
-0.149976
-0.149878
-0.149699
-0.149535
-0.149384
-0.149132
-0.148875
-0.148621
-0.14824
-0.147645
-0.14712
-0.146614
-0.146192
-0.145569
-0.144848
-0.144234
-0.143381
-0.142604
-0.141592
-0.140683
-0.139746
-0.138753
-0.13769
-0.136544
-0.135305
-0.133978
-0.132604
-0.131359
-0.129876
-0.128478
-0.126823
-0.125251
-0.123433
-0.12171
-0.149651
-0.149607
-0.149674
-0.14949
-0.149215
-0.149044
-0.148657
-0.148397
-0.148086
-0.147687
-0.147212
-0.146662
-0.146038
-0.145331
-0.144639
-0.143954
-0.143104
-0.142361
-0.141536
-0.140459
-0.139495
-0.138494
-0.137418
-0.136255
-0.135004
-0.13376
-0.132514
-0.13108
-0.129612
-0.128138
-0.126488
-0.124949
-0.123329
-0.121437
-0.149431
-0.149347
-0.149214
-0.149192
-0.148917
-0.148626
-0.148357
-0.148103
-0.147725
-0.147131
-0.146607
-0.146102
-0.145677
-0.145049
-0.144323
-0.143703
-0.142843
-0.142061
-0.141041
-0.140129
-0.139184
-0.138182
-0.13711
-0.135955
-0.134708
-0.133374
-0.131995
-0.13074
-0.129249
-0.127846
-0.126185
-0.124613
-0.122797
-0.121078
-0.148845
-0.14876
-0.148627
-0.148622
-0.148396
-0.148236
-0.147858
-0.147571
-0.147187
-0.146587
-0.14606
-0.145556
-0.145126
-0.144485
-0.143752
-0.143122
-0.142263
-0.141477
-0.140458
-0.139552
-0.138594
-0.137579
-0.136495
-0.135333
-0.134081
-0.132746
-0.131358
-0.130102
-0.12861
-0.127205
-0.125542
-0.123967
-0.122149
-0.120428
-0.148238
-0.148167
-0.148022
-0.147827
-0.147739
-0.147435
-0.147194
-0.146722
-0.146366
-0.145963
-0.145485
-0.144923
-0.14429
-0.14361
-0.143056
-0.142279
-0.14157
-0.140633
-0.139797
-0.138888
-0.13772
-0.136658
-0.135552
-0.134376
-0.133148
-0.132036
-0.130675
-0.129192
-0.12764
-0.126212
-0.124546
-0.122994
-0.121363
-0.119462
-0.14711
-0.147197
-0.147087
-0.146851
-0.146561
-0.146389
-0.146056
-0.145718
-0.145415
-0.145037
-0.144567
-0.144006
-0.143363
-0.14268
-0.142116
-0.141292
-0.140389
-0.139617
-0.138788
-0.137701
-0.136714
-0.135689
-0.134584
-0.133395
-0.132131
-0.130827
-0.12963
-0.128164
-0.126601
-0.125166
-0.123483
-0.121893
-0.120057
-0.11832
-0.146119
-0.146034
-0.145858
-0.14563
-0.14553
-0.145195
-0.144936
-0.144495
-0.144049
-0.143635
-0.143155
-0.142605
-0.142014
-0.141546
-0.140827
-0.140002
-0.139267
-0.138318
-0.137471
-0.136549
-0.13537
-0.134301
-0.133186
-0.131995
-0.130748
-0.129616
-0.128231
-0.12672
-0.125137
-0.123694
-0.122011
-0.120403
-0.118545
-0.116792
-0.144709
-0.144631
-0.144467
-0.144253
-0.144156
-0.143811
-0.143545
-0.143032
-0.142646
-0.142233
-0.141755
-0.141201
-0.140577
-0.139914
-0.139344
-0.138509
-0.137589
-0.136808
-0.135969
-0.134873
-0.133884
-0.132851
-0.131741
-0.130536
-0.129235
-0.127854
-0.12642
-0.125122
-0.123556
-0.121902
-0.120357
-0.118574
-0.11689
-0.11513
-0.142813
-0.142733
-0.142604
-0.142587
-0.142313
-0.141951
-0.141729
-0.141423
-0.140857
-0.140399
-0.139907
-0.139357
-0.138768
-0.138285
-0.137547
-0.136708
-0.135959
-0.134984
-0.134087
-0.133023
-0.131964
-0.130926
-0.129805
-0.128591
-0.127282
-0.125881
-0.124429
-0.12312
-0.121544
-0.119878
-0.118319
-0.116511
-0.114775
-0.112792
-0.140853
-0.140765
-0.140601
-0.140399
-0.140306
-0.139979
-0.139736
-0.139258
-0.138878
-0.138464
-0.137979
-0.137413
-0.136772
-0.136086
-0.135497
-0.13464
-0.1337
-0.132871
-0.131823
-0.130902
-0.129946
-0.128876
-0.127576
-0.126339
-0.125184
-0.123829
-0.122344
-0.120771
-0.119146
-0.117647
-0.115917
-0.114253
-0.112341
-0.110491
-0.138451
-0.138362
-0.1382
-0.13806
-0.137932
-0.137633
-0.137433
-0.137143
-0.13659
-0.13614
-0.135638
-0.135067
-0.134411
-0.133707
-0.133114
-0.132254
-0.131307
-0.130469
-0.129468
-0.128468
-0.127497
-0.12641
-0.125085
-0.123728
-0.122427
-0.121246
-0.119794
-0.118223
-0.116586
-0.11506
-0.113266
-0.111384
-0.109609
-0.107583
-0.135836
-0.135794
-0.135802
-0.135612
-0.13535
-0.13519
-0.134806
-0.134516
-0.134131
-0.133539
-0.132995
-0.132411
-0.131785
-0.131212
-0.130447
-0.129581
-0.128819
-0.127815
-0.126888
-0.125723
-0.124686
-0.123614
-0.12245
-0.121192
-0.119846
-0.118416
-0.116899
-0.115303
-0.113652
-0.11212
-0.110319
-0.108413
-0.106619
-0.104574
-0.133411
-0.133338
-0.133185
-0.133036
-0.132875
-0.132558
-0.132316
-0.131913
-0.131488
-0.131065
-0.130557
-0.129975
-0.129305
-0.128546
-0.127688
-0.12684
-0.126002
-0.125052
-0.124093
-0.12311
-0.121926
-0.120724
-0.119535
-0.118264
-0.116906
-0.11546
-0.113932
-0.112331
-0.11073
-0.109107
-0.107283
-0.105428
-0.103539
-0.101464
-0.131209
-0.13113
-0.130957
-0.130761
-0.130466
-0.130231
-0.129894
-0.129606
-0.129203
-0.128733
-0.128047
-0.127416
-0.126781
-0.126194
-0.1254
-0.12457
-0.123724
-0.122703
-0.121762
-0.120642
-0.119481
-0.118311
-0.116936
-0.115598
-0.114206
-0.112744
-0.111233
-0.109769
-0.108104
-0.106313
-0.104505
-0.102683
-0.100749
-0.0987568
-0.129749
-0.129654
-0.129473
-0.129249
-0.129099
-0.128842
-0.128533
-0.128111
-0.127746
-0.127262
-0.126744
-0.126143
-0.125461
-0.124763
-0.123908
-0.122997
-0.122149
-0.121188
-0.12017
-0.11903
-0.117933
-0.116714
-0.11547
-0.114112
-0.11254
-0.111046
-0.10966
-0.108092
-0.106387
-0.104633
-0.102742
-0.100904
-0.0989511
-0.0969501
-0.164297
-0.164206
-0.164039
-0.163836
-0.163757
-0.163469
-0.163288
-0.163025
-0.16256
-0.162151
-0.161735
-0.16131
-0.160943
-0.160377
-0.159733
-0.1592
-0.15846
-0.157817
-0.157106
-0.156205
-0.155299
-0.154431
-0.153538
-0.152765
-0.151743
-0.150607
-0.149417
-0.148353
-0.147071
-0.145889
-0.144476
-0.143163
-0.141786
-0.140159
-0.164019
-0.163942
-0.163823
-0.163815
-0.163601
-0.163453
-0.16311
-0.162881
-0.162601
-0.162257
-0.161842
-0.161356
-0.160803
-0.160203
-0.159718
-0.15904
-0.158431
-0.157619
-0.156907
-0.156154
-0.155351
-0.154487
-0.153559
-0.152567
-0.151497
-0.150374
-0.14937
-0.148132
-0.146872
-0.145638
-0.144409
-0.142937
-0.141556
-0.140097
-0.163846
-0.163757
-0.163593
-0.163395
-0.163315
-0.163028
-0.162851
-0.162596
-0.162139
-0.161725
-0.161308
-0.160886
-0.160518
-0.159955
-0.159315
-0.158773
-0.158021
-0.157369
-0.156653
-0.15575
-0.154834
-0.153956
-0.153054
-0.152275
-0.151248
-0.150107
-0.148912
-0.147841
-0.146548
-0.145352
-0.143927
-0.142618
-0.141251
-0.139637
-0.163335
-0.163249
-0.163091
-0.162952
-0.162826
-0.162554
-0.162396
-0.162181
-0.161852
-0.161332
-0.16091
-0.160586
-0.160093
-0.159483
-0.158825
-0.158276
-0.157522
-0.156878
-0.156196
-0.155413
-0.154378
-0.153453
-0.152534
-0.15175
-0.15072
-0.149576
-0.148376
-0.147309
-0.146018
-0.144819
-0.14339
-0.142081
-0.140714
-0.139099
-0.16247
-0.162498
-0.162523
-0.162365
-0.162134
-0.162029
-0.161854
-0.161445
-0.161139
-0.160784
-0.160365
-0.159872
-0.159311
-0.158774
-0.158246
-0.157565
-0.156952
-0.156119
-0.155405
-0.154651
-0.15383
-0.152954
-0.152015
-0.151006
-0.149919
-0.14879
-0.147789
-0.146574
-0.145438
-0.144084
-0.142809
-0.141318
-0.13993
-0.138467
-0.161692
-0.161669
-0.161752
-0.161589
-0.161341
-0.161199
-0.160844
-0.160605
-0.160336
-0.159998
-0.159581
-0.159082
-0.158517
-0.157923
-0.157445
-0.156752
-0.156138
-0.15531
-0.154595
-0.15384
-0.153028
-0.152151
-0.151206
-0.150187
-0.149095
-0.147956
-0.146942
-0.145688
-0.144352
-0.143142
-0.141713
-0.140387
-0.139001
-0.137366
-0.160992
-0.160915
-0.160762
-0.160561
-0.160482
-0.160189
-0.159995
-0.159716
-0.159196
-0.158788
-0.158354
-0.157872
-0.157365
-0.156977
-0.156369
-0.155824
-0.15506
-0.154367
-0.153471
-0.152694
-0.151882
-0.151006
-0.150052
-0.149017
-0.147906
-0.146756
-0.145738
-0.144477
-0.143136
-0.141943
-0.140628
-0.13918
-0.137744
-0.13608
-0.159577
-0.159656
-0.15955
-0.159366
-0.159288
-0.158977
-0.158744
-0.158283
-0.157937
-0.157571
-0.157156
-0.156686
-0.156185
-0.155785
-0.155137
-0.154402
-0.153759
-0.152919
-0.152197
-0.151452
-0.150645
-0.149772
-0.148825
-0.147792
-0.146671
-0.145475
-0.144245
-0.143156
-0.141841
-0.140622
-0.139169
-0.137795
-0.136196
-0.134701
-0.158073
-0.158012
-0.157912
-0.157925
-0.157683
-0.157421
-0.157186
-0.156966
-0.156644
-0.156073
-0.155614
-0.155156
-0.154821
-0.154259
-0.153601
-0.153032
-0.152252
-0.151547
-0.150638
-0.149854
-0.149044
-0.148164
-0.147202
-0.146153
-0.145017
-0.143805
-0.142561
-0.141461
-0.140142
-0.138918
-0.137458
-0.136069
-0.134445
-0.132925
-0.15638
-0.156311
-0.156207
-0.156223
-0.155987
-0.155676
-0.155497
-0.155254
-0.154767
-0.154373
-0.15394
-0.153449
-0.152915
-0.152488
-0.151817
-0.151068
-0.150427
-0.149588
-0.148871
-0.148134
-0.147328
-0.146433
-0.145456
-0.144411
-0.143287
-0.142077
-0.140792
-0.13948
-0.138296
-0.1369
-0.135573
-0.134018
-0.132531
-0.130816
-0.15434
-0.154265
-0.154208
-0.154167
-0.15397
-0.153835
-0.153493
-0.153252
-0.152953
-0.152565
-0.152014
-0.151633
-0.151097
-0.15047
-0.149794
-0.149222
-0.148437
-0.147731
-0.146823
-0.146038
-0.145221
-0.144328
-0.143346
-0.142283
-0.141141
-0.139923
-0.138636
-0.13731
-0.136112
-0.134669
-0.133136
-0.131736
-0.130275
-0.128547
-0.152279
-0.152211
-0.152074
-0.151954
-0.15183
-0.151557
-0.151383
-0.151145
-0.150661
-0.150271
-0.149833
-0.149339
-0.14877
-0.148215
-0.147655
-0.146937
-0.146295
-0.145429
-0.144639
-0.143623
-0.142735
-0.141823
-0.140843
-0.139782
-0.138637
-0.137412
-0.136117
-0.134842
-0.133577
-0.132149
-0.130795
-0.129203
-0.127692
-0.125942
-0.149963
-0.150057
-0.149957
-0.149755
-0.149563
-0.149366
-0.149077
-0.148794
-0.148518
-0.148139
-0.14759
-0.147209
-0.146664
-0.146005
-0.145263
-0.144538
-0.143823
-0.143009
-0.142189
-0.141358
-0.140331
-0.139369
-0.138309
-0.137239
-0.136082
-0.13491
-0.133625
-0.132408
-0.131018
-0.129601
-0.128158
-0.12654
-0.125003
-0.123224
-0.147918
-0.14802
-0.147931
-0.14772
-0.14752
-0.147323
-0.147031
-0.146797
-0.146428
-0.145916
-0.145441
-0.144971
-0.144553
-0.143941
-0.143274
-0.142493
-0.141776
-0.140958
-0.140129
-0.139288
-0.138255
-0.13727
-0.136185
-0.135097
-0.133928
-0.132678
-0.13142
-0.130062
-0.128752
-0.127243
-0.125706
-0.124149
-0.122487
-0.120782
-0.146781
-0.146704
-0.14655
-0.146357
-0.146306
-0.146032
-0.145776
-0.145411
-0.145101
-0.144743
-0.144313
-0.1438
-0.143209
-0.142538
-0.14183
-0.141189
-0.140454
-0.139669
-0.138776
-0.137919
-0.136912
-0.135774
-0.134691
-0.133573
-0.132385
-0.131133
-0.129845
-0.128622
-0.127202
-0.125742
-0.12425
-0.122632
-0.120852
-0.119222
-0.176597
-0.176526
-0.176391
-0.176216
-0.176137
-0.17587
-0.175697
-0.175445
-0.175016
-0.174654
-0.174312
-0.174043
-0.173598
-0.173038
-0.172496
-0.171984
-0.17148
-0.17075
-0.170116
-0.169447
-0.168734
-0.167952
-0.167111
-0.166236
-0.165466
-0.16448
-0.163424
-0.16249
-0.161359
-0.160348
-0.159287
-0.157988
-0.156784
-0.155557
-0.176408
-0.176336
-0.17622
-0.176197
-0.175967
-0.175724
-0.175519
-0.175339
-0.175086
-0.174768
-0.174387
-0.173946
-0.173429
-0.172879
-0.17244
-0.171821
-0.171299
-0.170711
-0.169908
-0.169209
-0.168482
-0.167702
-0.166886
-0.166183
-0.165279
-0.164297
-0.16342
-0.162347
-0.161351
-0.160164
-0.159088
-0.157956
-0.156604
-0.155357
-0.176221
-0.176151
-0.176007
-0.175826
-0.175748
-0.175488
-0.175328
-0.17509
-0.174664
-0.174292
-0.173946
-0.17367
-0.173228
-0.172701
-0.172277
-0.17165
-0.171102
-0.170361
-0.16973
-0.169066
-0.168345
-0.167552
-0.1667
-0.165817
-0.165042
-0.164052
-0.162993
-0.162054
-0.160913
-0.159865
-0.158676
-0.157492
-0.156337
-0.155132
-0.175776
-0.175709
-0.175572
-0.175398
-0.175336
-0.175078
-0.174924
-0.17472
-0.174411
-0.173963
-0.17369
-0.173303
-0.172816
-0.17228
-0.171849
-0.171222
-0.17067
-0.169927
-0.1693
-0.168634
-0.167903
-0.167108
-0.166256
-0.165367
-0.164588
-0.163595
-0.162534
-0.161595
-0.160454
-0.159408
-0.15822
-0.157038
-0.155886
-0.154682
-0.175039
-0.174974
-0.17493
-0.174892
-0.174704
-0.174579
-0.174251
-0.174032
-0.17378
-0.173461
-0.173076
-0.172627
-0.172144
-0.171783
-0.171229
-0.170744
-0.170067
-0.169473
-0.16882
-0.16799
-0.167158
-0.166391
-0.165753
-0.164898
-0.163945
-0.162939
-0.162054
-0.160977
-0.159988
-0.158796
-0.157718
-0.156589
-0.155239
-0.153995
-0.174353
-0.174287
-0.17424
-0.174201
-0.174012
-0.173885
-0.173553
-0.173337
-0.173085
-0.172771
-0.172385
-0.171932
-0.17145
-0.171078
-0.17048
-0.16982
-0.169294
-0.168746
-0.168113
-0.167235
-0.166457
-0.165659
-0.164845
-0.164143
-0.163221
-0.162201
-0.161144
-0.160201
-0.159067
-0.158043
-0.156975
-0.155674
-0.154474
-0.153239
-0.173715
-0.173636
-0.173489
-0.17331
-0.173245
-0.17298
-0.172807
-0.172554
-0.172068
-0.171692
-0.171305
-0.170906
-0.170618
-0.170104
-0.169508
-0.169004
-0.168308
-0.167732
-0.167121
-0.166452
-0.165724
-0.164942
-0.164103
-0.163197
-0.162216
-0.161195
-0.16031
-0.15923
-0.158234
-0.157034
-0.155921
-0.154598
-0.1534
-0.15217
-0.172623
-0.172553
-0.172414
-0.172238
-0.172173
-0.171896
-0.171687
-0.171264
-0.170944
-0.170612
-0.170244
-0.169856
-0.169574
-0.169058
-0.168462
-0.167951
-0.167245
-0.166649
-0.166031
-0.165332
-0.164402
-0.163609
-0.16297
-0.162111
-0.161143
-0.160099
-0.159027
-0.158081
-0.156934
-0.155874
-0.15461
-0.153453
-0.152261
-0.150987
-0.171062
-0.171001
-0.170912
-0.170941
-0.170759
-0.170638
-0.170312
-0.170091
-0.16984
-0.169529
-0.169149
-0.16871
-0.168218
-0.167682
-0.167245
-0.166616
-0.166049
-0.165294
-0.164657