/*--------------------------------*- C++ -*----------------------------------*\
| =========                 |                                                 |
| \\      /  F ield         | OpenFOAM: The Open Source CFD Toolbox           |
|  \\    /   O peration     | Version:  2412                                  |
|   \\  /    A nd           | Website:  www.openfoam.com                      |
|    \\/     M anipulation  |                                                 |
\*---------------------------------------------------------------------------*/
FoamFile
{
    version     2.0;
    format      ascii;
    arch        "LSB;label=32;scalar=64";
    class       volScalarField;
    location    "0.0400007";
    object      Vm;
}
// * * * * * * * * * * * * * * * * * * * * * * * * * * * * * * * * * * * * * //

dimensions      [0 0 0 0 0 0 0];

internalField   nonuniform List<scalar> 
8796
(
1.29671
1.29682
1.29713
1.2979
1.29953
1.30083
1.30281
1.30444
1.30695
1.30992
1.31309
1.31635
1.31967
1.32306
1.32659
1.33053
1.33543
1.33992
1.34507
1.34967
1.35514
1.36067
1.36539
1.37101
1.37692
1.38293
1.38918
1.39629
1.40232
1.40804
1.41388
1.42058
1.42636
1.43272
1.2972
1.29737
1.29792
1.2993
1.30026
1.3014
1.30355
1.30588
1.30775
1.31048
1.31357
1.31679
1.32009
1.32353
1.32734
1.33212
1.33657
1.34165
1.34619
1.35134
1.35599
1.36158
1.36743
1.3734
1.37936
1.38526
1.39109
1.39689
1.40266
1.40858
1.41533
1.42106
1.42656
1.43285
1.29997
1.30008
1.30039
1.30116
1.30281
1.30412
1.30611
1.30776
1.31029
1.31324
1.31638
1.31962
1.32292
1.3263
1.32982
1.33374
1.33864
1.3431
1.34824
1.35281
1.35825
1.36376
1.36843
1.37401
1.37985
1.38571
1.39159
1.39767
1.40464
1.4106
1.41646
1.42309
1.42877
1.435
1.30326
1.30338
1.30373
1.30449
1.30615
1.30748
1.30944
1.31104
1.31356
1.31649
1.31962
1.32286
1.32616
1.32954
1.33306
1.33699
1.34189
1.3463
1.3514
1.35593
1.36134
1.36682
1.37145
1.37699
1.38278
1.3886
1.39443
1.40045
1.40736
1.41324
1.41901
1.4255
1.43083
1.43597
1.30703
1.30724
1.30786
1.30943
1.31066
1.31251
1.31393
1.31597
1.31765
1.3203
1.32333
1.32653
1.32981
1.33324
1.33705
1.34187
1.34621
1.35119
1.35562
1.36069
1.36524
1.37076
1.37654
1.38236
1.38816
1.3939
1.39957
1.40519
1.41077
1.41647
1.42299
1.42845
1.43361
1.43946
1.31326
1.31352
1.31417
1.31566
1.31657
1.3177
1.31984
1.3222
1.32397
1.32661
1.32963
1.3328
1.33605
1.33944
1.3432
1.34793
1.35193
1.35598
1.36089
1.36532
1.3707
1.37638
1.38185
1.38634
1.39166
1.39729
1.40321
1.41002
1.41572
1.42106
1.42649
1.43266
1.43761
1.44224
1.32028
1.32074
1.32209
1.3229
1.32382
1.3256
1.32706
1.32939
1.33183
1.33367
1.33639
1.33944
1.34265
1.34601
1.34975
1.35453
1.35877
1.36367
1.36798
1.37293
1.37728
1.38259
1.38812
1.39337
1.39766
1.4029
1.40862
1.4153
1.42085
1.42605
1.43127
1.43721
1.44189
1.44617
1.32945
1.32959
1.32991
1.3306
1.33221
1.33346
1.33543
1.33702
1.33954
1.34243
1.34547
1.34862
1.35183
1.35506
1.35842
1.36217
1.36695
1.37112
1.37599
1.38012
1.38494
1.38912
1.39428
1.3997
1.40511
1.41049
1.4158
1.42104
1.42613
1.43126
1.4372
1.4419
1.44613
1.45069
1.33941
1.33957
1.34008
1.34151
1.34236
1.34339
1.34553
1.34784
1.34951
1.35209
1.35505
1.35812
1.36123
1.36437
1.36764
1.3713
1.37598
1.38002
1.38481
1.3888
1.39355
1.39758
1.40256
1.40783
1.41312
1.41833
1.42342
1.42838
1.43319
1.43802
1.4436
1.44775
1.45119
1.45447
1.35158
1.3517
1.35187
1.35218
1.35283
1.35455
1.35586
1.35812
1.36041
1.36203
1.36464
1.36757
1.37061
1.37376
1.37724
1.38173
1.38542
1.3891
1.3937
1.39762
1.40248
1.40731
1.41124
1.4161
1.42111
1.42606
1.43086
1.43548
1.43991
1.44426
1.44917
1.45228
1.45401
1.45413
1.36222
1.3635
1.36402
1.3644
1.36507
1.36679
1.36793
1.36986
1.37122
1.37363
1.37644
1.37938
1.38235
1.38533
1.38844
1.3919
1.39634
1.40007
1.40457
1.40829
1.41278
1.41648
1.42111
1.42593
1.4307
1.43531
1.43975
1.44395
1.44783
1.45107
1.45338
1.45411
1.45262
1.44317
1.37426
1.37562
1.37618
1.37653
1.37715
1.37885
1.37992
1.3818
1.38305
1.38543
1.38819
1.39105
1.39392
1.39679
1.39975
1.403
1.40722
1.41054
1.41392
1.41841
1.42292
1.42644
1.43082
1.43528
1.43943
1.4424
1.44613
1.44989
1.45397
1.45574
1.45482
1.44906
1.43343
1.39771
1.3855
1.386
1.38744
1.38802
1.38868
1.39039
1.39143
1.39328
1.39449
1.39677
1.39942
1.40217
1.40493
1.40768
1.41043
1.41328
1.41641
1.42049
1.42384
1.42796
1.43129
1.43548
1.43955
1.44251
1.44627
1.4499
1.45305
1.45526
1.45574
1.45294
1.44377
1.42184
1.36661
1.24757
1.39633
1.39642
1.39654
1.39674
1.39728
1.39896
1.40003
1.40211
1.40421
1.40549
1.40776
1.41033
1.41298
1.41565
1.41839
1.42133
1.42525
1.42827
1.43124
1.43516
1.43823
1.44225
1.44608
1.44865
1.45195
1.45491
1.45684
1.45668
1.45229
1.43914
1.40786
1.34015
1.19605
0.962309
1.40015
1.40145
1.40187
1.40212
1.40265
1.40428
1.40522
1.40705
1.40819
1.41038
1.41286
1.41545
1.41805
1.42063
1.42322
1.42587
1.42876
1.43267
1.43577
1.43962
1.44261
1.44649
1.45013
1.45251
1.45547
1.45783
1.45859
1.45594
1.44583
1.41898
1.35543
1.22374
1.01406
0.751807
1.22341
1.22361
1.22414
1.22531
1.2264
1.22791
1.22922
1.23096
1.23261
1.23491
1.23758
1.24053
1.24383
1.24772
1.25123
1.25476
1.2587
1.26349
1.26855
1.27323
1.27861
1.28437
1.29028
1.29632
1.30244
1.3086
1.31482
1.32109
1.32742
1.33407
1.34154
1.34853
1.35605
1.36291
1.22518
1.22531
1.22561
1.22614
1.22695
1.22839
1.2298
1.23186
1.23422
1.2368
1.23955
1.24244
1.24545
1.24861
1.25193
1.25561
1.26
1.26438
1.26942
1.27458
1.27939
1.28496
1.29086
1.2969
1.303
1.30912
1.31527
1.32153
1.32811
1.33554
1.34258
1.35013
1.35701
1.36438
1.2262
1.22642
1.22699
1.22815
1.22925
1.2308
1.23221
1.23417
1.23629
1.23814
1.24061
1.24349
1.24677
1.25067
1.2542
1.25776
1.26174
1.26651
1.27157
1.27624
1.28163
1.2874
1.29332
1.29937
1.30548
1.31162
1.31781
1.32403
1.33038
1.33704
1.3445
1.35144
1.35891
1.36567
1.2292
1.22957
1.23053
1.23132
1.23228
1.23378
1.23516
1.23709
1.23919
1.24104
1.24353
1.24643
1.24975
1.25369
1.25732
1.26111
1.26557
1.26984
1.27469
1.27929
1.28466
1.29042
1.29635
1.3024
1.30852
1.31466
1.32084
1.32704
1.33338
1.34
1.34742
1.35429
1.36165
1.3682
1.23399
1.23416
1.23453
1.23522
1.23652
1.23774
1.23939
1.24095
1.24316
1.24572
1.2485
1.25141
1.25445
1.25768
1.26122
1.26549
1.26945
1.27358
1.27852
1.28366
1.28846
1.29405
1.29998
1.30603
1.31212
1.31823
1.32435
1.33056
1.33707
1.34443
1.35134
1.35873
1.36537
1.37241
1.2386
1.23932
1.23979
1.24032
1.24114
1.24261
1.24408
1.2462
1.24869
1.25142
1.25428
1.25722
1.26023
1.26335
1.26669
1.27045
1.27487
1.27908
1.28393
1.28856
1.29395
1.29974
1.30568
1.31167
1.31774
1.32386
1.32999
1.33614
1.34235
1.34884
1.35608
1.36271
1.3698
1.37596
1.24561
1.2458
1.24615
1.24677
1.24807
1.2493
1.25102
1.25266
1.25497
1.25758
1.26037
1.26333
1.26643
1.26968
1.27326
1.27757
1.28154
1.28568
1.29067
1.29584
1.3006
1.30614
1.31198
1.31793
1.32391
1.32995
1.33605
1.34227
1.34864
1.35576
1.36208
1.36828
1.37505
1.38087
1.25308
1.25383
1.25429
1.25479
1.25565
1.25715
1.25858
1.26067
1.26314
1.26565
1.26784
1.27084
1.27467
1.27812
1.28157
1.28535
1.28992
1.2942
1.29907
1.30357
1.30879
1.31407
1.31883
1.32439
1.33029
1.33639
1.34279
1.34997
1.35627
1.36227
1.36833
1.37506
1.38088
1.38697
1.26313
1.26329
1.26363
1.26429
1.26565
1.26685
1.2686
1.27019
1.27249
1.27519
1.27806
1.28108
1.28419
1.28737
1.29072
1.29449
1.2991
1.30339
1.30825
1.31271
1.31791
1.32317
1.32787
1.33338
1.33923
1.34523
1.35151
1.35857
1.36465
1.37037
1.37614
1.38246
1.38768
1.39307
1.27306
1.27343
1.2745
1.27521
1.27607
1.27764
1.27894
1.28082
1.28248
1.28491
1.28772
1.29071
1.2938
1.29705
1.30067
1.30518
1.30936
1.31408
1.31843
1.32331
1.32788
1.3333
1.33894
1.34468
1.35047
1.35623
1.36191
1.36752
1.37301
1.37849
1.38458
1.38933
1.3934
1.39746
1.28465
1.28496
1.28558
1.2869
1.28798
1.28967
1.29096
1.29281
1.29437
1.29681
1.29965
1.30266
1.30576
1.309
1.31258
1.31701
1.3209
1.32484
1.32959
1.33394
1.33917
1.34463
1.34989
1.35435
1.35956
1.36499
1.37047
1.37606
1.38224
1.38716
1.3913
1.39487
1.39844
1.39976
1.29741
1.29846
1.29902
1.29952
1.30029
1.30188
1.30312
1.30497
1.30649
1.30893
1.31178
1.3148
1.31789
1.32111
1.32468
1.32909
1.3329
1.33671
1.34137
1.34562
1.35072
1.35581
1.36006
1.36502
1.37019
1.3753
1.3803
1.38513
1.38982
1.39475
1.39786
1.39969
1.40081
1.39872
1.30948
1.31054
1.31111
1.31159
1.31236
1.31396
1.31521
1.31707
1.31856
1.32098
1.32374
1.3267
1.32976
1.33298
1.33655
1.34092
1.34459
1.34833
1.35294
1.35707
1.36198
1.36691
1.3709
1.37555
1.38038
1.38508
1.38944
1.39329
1.39644
1.39886
1.40096
1.40019
1.39698
1.39288
1.32039
1.3205
1.32073
1.3213
1.32279
1.32397
1.32574
1.32719
1.3294
1.33166
1.33331
1.33586
1.33884
1.34226
1.34655
1.35016
1.35356
1.3572
1.36193
1.36674
1.37075
1.37547
1.37999
1.38349
1.38765
1.39169
1.39519
1.39783
1.39932
1.39953
1.39899
1.39527
1.38984
1.38628
1.32622
1.32634
1.32655
1.32709
1.32854
1.32944
1.33049
1.33263
1.3351
1.33746
1.33907
1.34157
1.34446
1.3476
1.35108
1.35538
1.35892
1.36251
1.36697
1.37086
1.3755
1.38009
1.38364
1.38779
1.3919
1.39557
1.39844
1.40017
1.40037
1.39886
1.39633
1.3909
1.3856
1.38284
1.15331
1.15349
1.15393
1.15476
1.15558
1.15668
1.15774
1.15912
1.16061
1.16203
1.16386
1.166
1.16847
1.17137
1.17417
1.17711
1.1805
1.18396
1.18788
1.19198
1.196
1.20053
1.20539
1.21047
1.21577
1.2214
1.22762
1.23366
1.23985
1.2466
1.25309
1.25978
1.26727
1.27497
1.15388
1.15413
1.15474
1.15531
1.15601
1.15707
1.15815
1.15965
1.16138
1.16325
1.16525
1.1674
1.16969
1.17217
1.17488
1.17807
1.18132
1.18496
1.18865
1.19283
1.19729
1.20203
1.20698
1.21209
1.21735
1.22279
1.22846
1.23442
1.24098
1.24737
1.25387
1.26103
1.26808
1.27579
1.15532
1.15551
1.15597
1.15682
1.15766
1.15877
1.15984
1.16127
1.16279
1.1642
1.16603
1.16819
1.1707
1.17361
1.17643
1.1794
1.18281
1.1863
1.19025
1.19438
1.19843
1.203
1.20789
1.21301
1.21835
1.22402
1.23029
1.23637
1.2426
1.24939
1.2559
1.26261
1.27014
1.27786
1.15753
1.15773
1.15819
1.15901
1.15985
1.16096
1.16202
1.16342
1.16494
1.16637
1.16826
1.17056
1.17334
1.17605
1.1788
1.18178
1.18523
1.18871
1.19267
1.19682
1.2009
1.2055
1.21042
1.21558
1.22097
1.22668
1.23299
1.2391
1.24536
1.25219
1.25872
1.26544
1.27298
1.28068
1.16126
1.16136
1.16161
1.1621
1.16301
1.16393
1.16515
1.16636
1.168
1.16989
1.17197
1.17419
1.17655
1.17908
1.18189
1.1852
1.18852
1.19222
1.19597
1.20026
1.20485
1.20969
1.21472
1.21994
1.22533
1.2309
1.23665
1.24267
1.24932
1.25578
1.26234
1.26956
1.27663
1.28436
1.16526
1.16537
1.16556
1.1659
1.16656
1.16772
1.16909
1.17043
1.17218
1.17418
1.17634
1.1786
1.18098
1.18352
1.18637
1.18971
1.19307
1.19684
1.20062
1.20494
1.20957
1.2143
1.21884
1.22394
1.2295
1.2357
1.24164
1.24758
1.2538
1.26067
1.26725
1.274
1.28154
1.28923
1.16998
1.17006
1.17027
1.17074
1.17168
1.17267
1.17407
1.17559
1.17706
1.17897
1.18112
1.18344
1.18593
1.18869
1.19192
1.19507
1.19836
1.20214
1.20598
1.21039
1.21512
1.22007
1.22521
1.23053
1.23601
1.24164
1.2474
1.25333
1.25959
1.26661
1.27339
1.28067
1.28764
1.29506
1.17626
1.17638
1.17661
1.17709
1.17804
1.179
1.1803
1.1816
1.18338
1.18543
1.18765
1.19004
1.19259
1.19531
1.19831
1.20184
1.20536
1.20929
1.21316
1.21754
1.22209
1.22643
1.23131
1.23654
1.24202
1.24775
1.25385
1.26066
1.26707
1.27358
1.28075
1.28762
1.29495
1.30189
1.18336
1.18345
1.18367
1.18417
1.18516
1.18613
1.18748
1.18881
1.19065
1.19281
1.19514
1.19759
1.20016
1.20289
1.20591
1.20951
1.21312
1.21713
1.22106
1.22549
1.23012
1.23451
1.23947
1.24478
1.25034
1.25613
1.26228
1.26914
1.27554
1.282
1.28909
1.29568
1.30233
1.30979
1.19222
1.19231
1.19253
1.1929
1.19359
1.19477
1.19599
1.1977
1.19974
1.20203
1.20446
1.20698
1.20959
1.21231
1.21524
1.21852
1.22238
1.22619
1.23042
1.23459
1.2394
1.24456
1.24991
1.2554
1.26104
1.26677
1.2726
1.27854
1.28456
1.29088
1.29795
1.30464
1.31179
1.31847
1.20183
1.20194
1.20222
1.20282
1.20394
1.20503
1.20649
1.2079
1.20984
1.21212
1.2146
1.21719
1.21986
1.22264
1.22562
1.22894
1.23288
1.23671
1.24104
1.24525
1.25016
1.25534
1.26042
1.26503
1.27033
1.27606
1.28219
1.28902
1.2953
1.3014
1.30766
1.31463
1.32119
1.32823
1.21198
1.21215
1.21248
1.21309
1.21423
1.21531
1.21681
1.21824
1.2202
1.2225
1.22503
1.22768
1.23044
1.23331
1.23638
1.23981
1.24384
1.24771
1.25213
1.25637
1.26134
1.26657
1.27167
1.27626
1.28154
1.28725
1.29337
1.30024
1.30647
1.31251
1.31864
1.32553
1.33189
1.33877
1.22242
1.22264
1.2231
1.22408
1.22491
1.22593
1.22757
1.22938
1.23098
1.23316
1.23563
1.23829
1.24111
1.24412
1.24747
1.25142
1.25505
1.25882
1.26324
1.2675
1.27248
1.27774
1.28289
1.28752
1.29284
1.29852
1.30457
1.31133
1.31739
1.32323
1.32924
1.33598
1.34195
1.34796
1.23227
1.23237
1.23262
1.23322
1.23446
1.23558
1.23717
1.23859
1.24054
1.24259
1.24431
1.2467
1.24956
1.25287
1.25683
1.26043
1.26411
1.26841
1.27253
1.27716
1.28153
1.28668
1.29209
1.29759
1.30319
1.30884
1.3145
1.32014
1.32569
1.33126
1.33717
1.344
1.35027
1.35722
1.23753
1.23762
1.23785
1.23843
1.23972
1.24083
1.24241
1.24383
1.24586
1.24795
1.24968
1.25215
1.25521
1.25902
1.26248
1.2659
1.26952
1.27383
1.27793
1.28254
1.28692
1.2921
1.29756
1.30315
1.30877
1.31439
1.31999
1.32548
1.33092
1.33642
1.3423
1.34915
1.35543
1.36231
1.10575
1.10583
1.10602
1.10636
1.10691
1.10752
1.10833
1.10926
1.11022
1.11115
1.11232
1.11375
1.11546
1.1172
1.11905
1.12114
1.1233
1.12569
1.12815
1.13094
1.13398
1.13724
1.14069
1.14432
1.14812
1.15216
1.15653
1.16136
1.16627
1.1716
1.17693
1.18269
1.18853
1.19487
1.10603
1.10619
1.10656
1.10692
1.10737
1.10801
1.10871
1.10964
1.11072
1.11188
1.11314
1.11451
1.116
1.1176
1.1194
1.12149
1.12366
1.12613
1.12875
1.13142
1.13444
1.1377
1.14116
1.14479
1.14862
1.15273
1.15726
1.16187
1.16672
1.17201
1.17739
1.1833
1.18944
1.19559
1.107
1.10711
1.10738
1.10784
1.1083
1.10887
1.10965
1.11057
1.11154
1.11248
1.11367
1.11512
1.11686
1.11863
1.1205
1.12263
1.12481
1.12724
1.12974
1.13257
1.13565
1.13895
1.14245
1.14612
1.14998
1.15407
1.1585
1.16339
1.16836
1.17376
1.17915
1.18498
1.19088
1.1973
1.10834
1.10845
1.10871
1.1092
1.10972
1.1104
1.11108
1.11196
1.11291
1.11385
1.11507
1.11655
1.11833
1.12012
1.12202
1.12418
1.1264
1.12886
1.1314
1.13427
1.13737
1.14071
1.14425
1.14797
1.15189
1.15605
1.16052
1.16546
1.17049
1.17595
1.1814
1.18729
1.19325
1.19972
1.11055
1.11064
1.11081
1.11113
1.11168
1.11226
1.11302
1.1138
1.11483
1.11603
1.11736
1.1188
1.12038
1.12215
1.12422
1.12636
1.12873
1.13117
1.1339
1.13681
1.13976
1.14306
1.14663
1.15044
1.15453
1.15904
1.16356
1.16822
1.17316
1.17861
1.18415
1.19024
1.19656
1.20285
1.11281
1.11303
1.11323
1.11348
1.11389
1.11455
1.11528
1.11625
1.11741
1.11872
1.12013
1.12163
1.12325
1.12506
1.12715
1.12926
1.13153
1.13415
1.13696
1.1398
1.14298
1.14641
1.15004
1.1539
1.15802
1.16248
1.16733
1.17213
1.17715
1.1827
1.18829
1.19434
1.20045
1.20709
1.11611
1.11617
1.11632
1.11661
1.11717
1.11777
1.11857
1.11941
1.12049
1.12178
1.12322
1.12481
1.12659
1.12866
1.13075
1.13293
1.13539
1.13794
1.14082
1.14388
1.14698
1.15045
1.15419
1.15818
1.16247
1.16718
1.17188
1.17669
1.18178
1.18743
1.19315
1.19931
1.20548
1.21222
1.12018
1.12025
1.12041
1.12074
1.12133
1.12194
1.12276
1.1236
1.12473
1.12607
1.12757
1.12921
1.131
1.13299
1.13525
1.13752
1.13995
1.14275
1.14573
1.14874
1.15211
1.15574
1.15959
1.16364
1.16788
1.17238
1.1772
1.18253
1.1878
1.1933
1.19934
1.20542
1.21207
1.21894
1.12475
1.12485
1.12509
1.12559
1.1261
1.12671
1.12763
1.12866
1.12972
1.13107
1.13262
1.13435
1.13629
1.13853
1.14076
1.14312
1.14578
1.1485
1.1515
1.15459
1.15808
1.16184
1.16581
1.16999
1.17438
1.179
1.18395
1.18944
1.19484
1.20046
1.20662
1.21274
1.21934
1.22597
1.13065
1.13073
1.13091
1.13128
1.13194
1.13265
1.1336
1.1346
1.13589
1.1374
1.13907
1.14086
1.14279
1.14493
1.14738
1.1498
1.15238
1.15532
1.15836
1.16183
1.16558
1.16946
1.17329
1.17765
1.18257
1.18745
1.19239
1.19752
1.20297
1.20902
1.2151
1.22162
1.22809
1.23502
1.13716
1.13725
1.13748
1.13793
1.1387
1.13951
1.14062
1.14184
1.14303
1.14452
1.14623
1.14809
1.15011
1.15235
1.15493
1.15747
1.16019
1.16328
1.16645
1.17006
1.17397
1.17798
1.18187
1.18619
1.19099
1.19634
1.2016
1.20697
1.21261
1.21877
1.22477
1.231
1.23782
1.24461
1.14438
1.14459
1.14509
1.14558
1.14623
1.14717
1.14815
1.14942
1.15081
1.15218
1.1539
1.15586
1.15806
1.16063
1.16317
1.16586
1.16897
1.17207
1.17554
1.17903
1.18303
1.18734
1.19183
1.19647
1.2013
1.20634
1.21157
1.21704
1.22283
1.22919
1.23533
1.24166
1.24864
1.25551
1.15252
1.15264
1.1529
1.15336
1.15417
1.15501
1.15616
1.15734
1.15885
1.16059
1.16248
1.16452
1.16671
1.16904
1.17154
1.17431
1.17754
1.18081
1.18454
1.18844
1.19229
1.19661
1.20121
1.206
1.21098
1.21617
1.22157
1.22724
1.23318
1.23967
1.24594
1.2524
1.25945
1.2663
1.15966
1.15973
1.15989
1.16022
1.16082
1.16181
1.16287
1.16429
1.16592
1.1676
1.16916
1.17116
1.17354
1.17638
1.17918
1.18213
1.18551
1.18888
1.19264
1.19635
1.20051
1.20488
1.20913
1.21389
1.21895
1.22432
1.23005
1.23635
1.24237
1.2484
1.25472
1.26178
1.26863
1.276
1.16351
1.16358
1.16377
1.16422
1.16511
1.16602
1.16723
1.16845
1.17009
1.17195
1.17394
1.1761
1.17843
1.18095
1.1836
1.18651
1.18992
1.19335
1.19716
1.20095
1.20529
1.20994
1.21477
1.21962
1.22429
1.2297
1.23589
1.24186
1.24775
1.25374
1.26007
1.26718
1.27406
1.28148
1.08012
1.08013
1.08019
1.08032
1.08057
1.08085
1.08124
1.08166
1.08207
1.08259
1.08322
1.08398
1.08488
1.08579
1.08678
1.08791
1.0891
1.09045
1.0919
1.09341
1.09513
1.09705
1.09917
1.10154
1.10395
1.10648
1.10922
1.11228
1.11548
1.11898
1.1226
1.12657
1.13076
1.13507
1.08019
1.08023
1.08035
1.08057
1.0808
1.08112
1.08147
1.08193
1.08246
1.08306
1.0837
1.08441
1.08519
1.08606
1.0871
1.08819
1.08943
1.09073
1.09222
1.09385
1.09563
1.09757
1.09965
1.10188
1.10425
1.10681
1.10967
1.11263
1.1158
1.11934
1.12311
1.127
1.13123
1.13567
1.08068
1.08071
1.08078
1.08093
1.08119
1.08148
1.08188
1.08232
1.08275
1.08328
1.08393
1.08471
1.08563
1.08657
1.08757
1.08873
1.08994
1.09132
1.09281
1.09435
1.0961
1.09805
1.10021
1.10262
1.10507
1.10765
1.11044
1.11356
1.1168
1.12036
1.12404
1.12809
1.13237
1.13676
1.08126
1.0813
1.08138
1.08155
1.08183
1.08214
1.08257
1.08305
1.08355
1.08406
1.08472
1.08556
1.08644
1.08735
1.08837
1.08955
1.09079
1.09222
1.09379
1.09544
1.09715
1.0991
1.10128
1.10372
1.10623
1.10886
1.11171
1.11489
1.1182
1.12181
1.12555
1.12966
1.13401
1.13847
1.08205
1.08214
1.08233
1.08251
1.08276
1.08313
1.08355
1.08398
1.08452
1.08514
1.08584
1.0866
1.08744
1.08841
1.08954
1.09072
1.09206
1.09345
1.09505
1.09681
1.0987
1.10074
1.10293
1.10528
1.1078
1.11054
1.11359
1.11676
1.12022
1.12381
1.1277
1.13176
1.13618
1.14083
1.0833
1.0834
1.08359
1.08377
1.084
1.08434
1.08471
1.08523
1.08584
1.08652
1.08726
1.08807
1.08895
1.08997
1.09115
1.09239
1.09377
1.09523
1.09689
1.09872
1.10071
1.10283
1.10509
1.1075
1.11008
1.11289
1.11602
1.11921
1.1226
1.12636
1.13027
1.13456
1.13909
1.14373
1.0852
1.08524
1.08532
1.08547
1.08576
1.08607
1.08651
1.08699
1.08748
1.08812
1.08889
1.08977
1.09078
1.09198
1.09321
1.09457
1.09597
1.09752
1.09917
1.10104
1.10309
1.1053
1.10764
1.11013
1.1128
1.1157
1.11891
1.12222
1.12574
1.12969
1.13385
1.13812
1.1427
1.14744
1.08717
1.0873
1.08743
1.08763
1.08795
1.08826
1.08869
1.08913
1.08972
1.09044
1.09128
1.09222
1.09331
1.09455
1.09581
1.09714
1.09865
1.10025
1.1021
1.10412
1.10632
1.10866
1.11113
1.11373
1.11647
1.1194
1.12261
1.12621
1.12993
1.13398
1.13814
1.14264
1.14728
1.15236
1.08969
1.08976
1.08993
1.09023
1.09052
1.09087
1.09139
1.09201
1.09266
1.09333
1.09419
1.09522
1.09645
1.09772
1.09906
1.10056
1.10212
1.10386
1.1057
1.1078
1.11011
1.11258
1.11518
1.11791
1.12078
1.12385
1.1272
1.13095
1.13484
1.13906
1.14339
1.14804
1.15281
1.15801
1.09293
1.093
1.09317
1.0935
1.09383
1.09422
1.09479
1.09545
1.0961
1.09692
1.09787
1.09894
1.10015
1.10154
1.10296
1.10447
1.1062
1.10803
1.11014
1.11247
1.11498
1.11763
1.12039
1.1233
1.12637
1.1296
1.13302
1.13673
1.14086
1.14515
1.14977
1.1545
1.15959
1.16481
1.09663
1.09671
1.09692
1.09729
1.09771
1.09826
1.09884
1.09959
1.10043
1.10134
1.10229
1.10352
1.1048
1.10618
1.1077
1.10944
1.11124
1.11326
1.11537
1.11779
1.12043
1.12324
1.12617
1.12925
1.13249
1.13591
1.13954
1.14345
1.14778
1.15219
1.15683
1.16195
1.16737
1.17282
1.10112
1.10121
1.1014
1.1017
1.10218
1.10272
1.10344
1.10424
1.10504
1.10601
1.10711
1.10835
1.10972
1.11125
1.113
1.11481
1.11684
1.11891
1.1212
1.12357
1.12628
1.12922
1.13236
1.13565
1.13909
1.1427
1.14655
1.1507
1.15531
1.16004
1.16513
1.1703
1.17588
1.18153
1.10575
1.10597
1.10618
1.10645
1.10686
1.10746
1.10813
1.10902
1.11004
1.11113
1.11226
1.11371
1.11519
1.11672
1.11837
1.12021
1.12235
1.12458
1.1271
1.12978
1.13248
1.13552
1.13879
1.14226
1.14591
1.14978
1.15393
1.15852
1.16318
1.16805
1.17335
1.17871
1.18451
1.19036
1.10989
1.11012
1.11033
1.11059
1.11099
1.11162
1.11232
1.11324
1.11426
1.11528
1.11651
1.11799
1.11973
1.12147
1.12329
1.12528
1.12757
1.12995
1.13262
1.13544
1.13828
1.14143
1.14482
1.14844
1.15225
1.15629
1.16059
1.16522
1.17024
1.17523
1.18046
1.18617
1.19194
1.19819
1.11245
1.11252
1.11267
1.11298
1.11355
1.11416
1.11495
1.11578
1.11687
1.11812
1.11949
1.12097
1.12255
1.12426
1.12616
1.12837
1.13069
1.13324
1.13585
1.13875
1.14179
1.14484
1.14827
1.15194
1.15584
1.16002
1.16456
1.16956
1.1745
1.17962
1.18519
1.19075
1.19655
1.20303
1.07096
1.07095
1.07093
1.07094
1.07099
1.07104
1.07113
1.07122
1.0713
1.07144
1.07164
1.07192
1.07219
1.07247
1.0728
1.07322
1.0737
1.0742
1.07478
1.07546
1.07622
1.07706
1.078
1.07907
1.08027
1.08154
1.08292
1.08449
1.08619
1.08811
1.09019
1.09237
1.09481
1.09749
1.07095
1.07095
1.07096
1.071
1.07103
1.07108
1.07119
1.07134
1.0715
1.07167
1.07186
1.07207
1.0723
1.07257
1.07293
1.07332
1.0738
1.07432
1.07487
1.07553
1.07629
1.07715
1.07812
1.07924
1.08043
1.08171
1.08317
1.08472
1.08646
1.08832
1.09041
1.09267
1.09506
1.09773
1.07108
1.07107
1.07106
1.07107
1.07113
1.07119
1.0713
1.07142
1.07151
1.07166
1.07188
1.07218
1.07247
1.07279
1.07318
1.07358
1.07405
1.07455
1.07516
1.07586
1.07663
1.0775
1.07846
1.07956
1.08079
1.08209
1.0835
1.08511
1.08683
1.08875
1.09082
1.09314
1.0957
1.09847
1.07117
1.07116
1.07116
1.07118
1.07127
1.07135
1.07148
1.07164
1.07179
1.07193
1.07218
1.07245
1.07273
1.07305
1.07345
1.07387
1.07436
1.07489
1.07553
1.07626
1.07706
1.07795
1.07894
1.08006
1.08134
1.08267
1.08412
1.08578
1.08755
1.08953
1.09164
1.09403
1.09665
1.09949
1.07124
1.07125
1.0713
1.07139
1.07147
1.07158
1.07168
1.07184
1.07203
1.07224
1.07247
1.07272
1.07303
1.07343
1.07385
1.07434
1.07485
1.07545
1.07611
1.0768
1.07761
1.07858
1.0797
1.08088
1.08213
1.08352
1.0851
1.08679
1.08868
1.09069
1.09294
1.09537
1.09794
1.1008
1.07162
1.07164
1.07169
1.07178
1.07185
1.07197
1.07207
1.07224
1.07245
1.07268
1.07294
1.07322
1.07356
1.07398
1.07441
1.07489
1.07549
1.07617
1.0769
1.07765
1.07852
1.07952
1.08065
1.08193
1.08326
1.08469
1.08627
1.08806
1.08998
1.09214
1.09448
1.09694
1.09969
1.10268
1.07236
1.07236
1.07235
1.07238
1.07248
1.07257
1.0727
1.07285
1.07297
1.07318
1.07346
1.07382
1.07427
1.07472
1.0752
1.07577
1.07638
1.07711
1.07793
1.07884
1.07983
1.08091
1.08208
1.08333
1.08469
1.08621
1.08794
1.08979
1.09184
1.09402
1.09643
1.09898
1.10183
1.10493
1.07304
1.07305
1.07306
1.07311
1.07322
1.07331
1.07344
1.07357
1.07377
1.07405
1.07439
1.0748
1.07531
1.07581
1.07635
1.07697
1.07763
1.07841
1.07931
1.08027
1.08127
1.08245
1.0838
1.08519
1.08665
1.08822
1.08998
1.09198
1.0941
1.09646
1.09894
1.10171
1.1047
1.10787
1.07373
1.07376
1.07384
1.07399
1.07412
1.0743
1.07447
1.07473
1.07503
1.07537
1.07574
1.07616
1.07664
1.07718
1.07782
1.07849
1.07926
1.08008
1.08105
1.08215
1.08333
1.08461
1.08597
1.08743
1.08899
1.09071
1.09267
1.09474
1.09699
1.09953
1.10225
1.10509
1.10818
1.11149
1.07494
1.07498
1.07507
1.07524
1.07541
1.07562
1.07584
1.07614
1.07649
1.07689
1.07732
1.07778
1.07829
1.07886
1.07951
1.08029
1.08114
1.08212
1.08325
1.08447
1.08575
1.08708
1.08858
1.09027
1.09202
1.09388
1.09592
1.09822
1.10066
1.10335
1.10615
1.1092
1.1124
1.11594
1.07663
1.07665
1.07672
1.07685
1.07705
1.07727
1.07755
1.07784
1.07823
1.07867
1.07917
1.07971
1.08031
1.08099
1.08179
1.08264
1.08361
1.08464
1.08585
1.08719
1.08865
1.09021
1.09186
1.09362
1.09549
1.0975
1.09973
1.10223
1.10487
1.10775
1.11074
1.11401
1.11742
1.12117
1.07834
1.07841
1.07856
1.07872
1.07891
1.0792
1.07952
1.07993
1.0804
1.08094
1.08152
1.08214
1.08282
1.08359
1.08449
1.08541
1.08643
1.08761
1.0889
1.09024
1.09175
1.09343
1.09525
1.09719
1.09927
1.10153
1.10404
1.10666
1.10948
1.11258
1.11581
1.11931
1.12297
1.127
1.08034
1.08041
1.08055
1.08078
1.08103
1.08137
1.08173
1.08222
1.08279
1.0834
1.08406
1.08477
1.08552
1.08633
1.08725
1.08833
1.08947
1.09076
1.09212
1.09368
1.09539
1.09725
1.09924
1.10136
1.10361
1.10601
1.10859
1.11142
1.11455
1.11781
1.12135
1.12501
1.12899
1.13313
1.08209
1.08219
1.08238
1.08258
1.08283
1.08319
1.08359
1.08412
1.08472
1.08539
1.08611
1.08688
1.08773
1.08865
1.08968
1.09089
1.09216
1.09357
1.09506
1.09674
1.09857
1.10056
1.10269
1.10497
1.10739
1.10995
1.11271
1.11571
1.11902
1.1224
1.12598
1.12991
1.13401
1.13851
1.08324
1.08328
1.08338
1.08358
1.08391
1.08428
1.08476
1.08529
1.08583
1.0865
1.08724
1.08805
1.08893
1.08993
1.09112
1.09238
1.09378
1.09525
1.09688
1.09861
1.10038
1.10236
1.10454
1.10688
1.10939
1.11209
1.11505
1.11832
1.12167
1.12519
1.12904
1.13302
1.13735
1.14188
1.07265
1.07264
1.07263
1.07258
1.0725
1.07242
1.07232
1.07218
1.07204
1.07192
1.07183
1.07176
1.07166
1.07154
1.07146
1.07136
1.07131
1.07128
1.07126
1.07125
1.07131
1.07138
1.07148
1.07162
1.07183
1.07215
1.07252
1.07299
1.07353
1.07422
1.07502
1.07592
1.07688
1.07803
1.0727
1.07267
1.07261
1.07254
1.07248
1.0724
1.07233
1.07225
1.07216
1.07205
1.07192
1.07179
1.07166
1.07156
1.07146
1.07137
1.07128
1.07124
1.07122
1.07124
1.07128
1.07135
1.07146
1.07163
1.0719
1.07222
1.07263
1.07309
1.07366
1.07431
1.07511
1.07605
1.07711
1.07831
1.07254
1.07255
1.07251
1.07243
1.07236
1.07229
1.07222
1.07212
1.07197
1.07184
1.07175
1.07168
1.07158
1.07148
1.0714
1.07132
1.07128
1.07127
1.07129
1.07132
1.07137
1.07144
1.07155
1.0717
1.07193
1.07227
1.07267
1.07317
1.07375
1.07447
1.07531
1.07626
1.07728
1.07849
1.07235
1.07236
1.07233
1.07228
1.07224
1.07216
1.07209
1.07199
1.07185
1.07173
1.07164
1.07157
1.07148
1.07139
1.07132
1.07125
1.07123
1.07123
1.07126
1.07131
1.07138
1.07147
1.0716
1.07178
1.07204
1.0724
1.07283
1.07337
1.07398
1.07474
1.07563
1.07663
1.0777
1.07895
1.07213
1.07211
1.07208
1.07206
1.07201
1.07195
1.07186
1.07178
1.07171
1.07162
1.07152
1.07142
1.07134
1.07129
1.07124
1.07122
1.07121
1.07119
1.07122
1.07127
1.07137
1.0715
1.0717
1.07198
1.0723
1.07268
1.07318
1.07373
1.07441
1.07517
1.07611
1.07718
1.07839
1.07974
1.07192
1.07189
1.07186
1.07184
1.07179
1.07174
1.07166
1.07159
1.07153
1.07146
1.07138
1.0713
1.07123
1.0712
1.07116
1.07115
1.07114
1.07118
1.07126
1.07136
1.0715
1.07168
1.07191
1.07222
1.07262
1.07308
1.07364
1.07426
1.075
1.07582
1.07681
1.07793
1.07916
1.0805
1.07178
1.07175
1.0717
1.07165
1.07162
1.07155
1.0715
1.07142
1.0713
1.07122
1.07118
1.07118
1.07116
1.07114
1.07115
1.07115
1.0712
1.07126
1.07133
1.07147
1.07167
1.07193
1.07229
1.07265
1.07306
1.07355
1.07417
1.07485
1.07567
1.07656
1.07763
1.07884
1.0802
1.0817
1.07152
1.07149
1.07145
1.07141
1.07139
1.07134
1.07129
1.07122
1.07113
1.07108
1.07108
1.07113
1.07115
1.07117
1.07122
1.07126
1.07132
1.0714
1.07155
1.07176
1.07202
1.07235
1.07274
1.07321
1.07372
1.07429
1.07499
1.07576
1.07667
1.07765
1.07881
1.08009
1.08147
1.08304
1.07108
1.07108
1.07108
1.07111
1.07111
1.0711
1.07106
1.07105
1.07106
1.07108
1.0711
1.07113
1.07118
1.07127
1.07136
1.07148
1.0716
1.07179
1.07204
1.07233
1.07267
1.07306
1.0735
1.07398
1.07453
1.07517
1.07597
1.07684
1.07785
1.07896
1.08025
1.08165
1.08315
1.08486
1.0709
1.07092
1.07096
1.07098
1.07097
1.07098
1.07097
1.071
1.07105
1.0711
1.07116
1.07123
1.07132
1.07146
1.07161
1.07179
1.07199
1.07226
1.07258
1.07293
1.07329
1.07376
1.07436
1.07499
1.07566
1.07643
1.07735
1.07834
1.07944
1.08074
1.08217
1.0837
1.08544
1.08737
1.0709
1.0709
1.07089
1.0709
1.07094
1.07097
1.07103
1.07111
1.07117
1.07122
1.07133
1.07149
1.07164
1.07181
1.07204
1.07227
1.07255
1.07286
1.07327
1.07375
1.07428
1.07487
1.07552
1.07623
1.07703
1.07794
1.07902
1.08019
1.08151
1.08293
1.0845
1.08618
1.08809
1.0902
1.07094
1.07094
1.07095
1.07097
1.07103
1.07109
1.07119
1.07129
1.07138
1.07149
1.07168
1.07191
1.07213
1.07234
1.07259
1.07291
1.07326
1.0737
1.07421
1.07476
1.07532
1.076
1.0768
1.07774
1.07873
1.0798
1.08099
1.08235
1.08381
1.08543
1.08715
1.08906
1.09111
1.09343
1.07106
1.07106
1.07108
1.07113
1.07121
1.07131
1.07145
1.07162
1.07177
1.07191
1.07211
1.07236
1.07267
1.07297
1.07331
1.07372
1.07416
1.07469
1.07527
1.07588
1.07658
1.07739
1.07831
1.07934
1.08049
1.08178
1.08313
1.08462
1.0863
1.08808
1.09005
1.09212
1.09446
1.09699
1.07103
1.07107
1.07116
1.07124
1.07133
1.07146
1.0716
1.0718
1.07203
1.07227
1.07254
1.07282
1.07315
1.07351
1.07395
1.07443
1.07497
1.07554
1.07619
1.07691
1.07767
1.07858
1.07961
1.08078
1.08211
1.0835
1.08498
1.08662
1.08845
1.0904
1.09253
1.09479
1.09727
1.09993
1.07103
1.07106
1.07113
1.07127
1.0714
1.07156
1.07174
1.07196
1.07221
1.07249
1.07278
1.07308
1.07342
1.07379
1.07423
1.07477
1.07535
1.07602
1.07674
1.07749
1.07835
1.07934
1.08043
1.08163
1.08295
1.08443
1.08609
1.08785
1.08974
1.09182
1.09403
1.09646
1.09905
1.10193
1.0812
1.08116
1.0811
1.081
1.08085
1.08068
1.08047
1.08019
1.0799
1.07961
1.07932
1.07901
1.07866
1.07829
1.07792
1.07753
1.07711
1.07668
1.07625
1.07581
1.07537
1.07494
1.07453
1.07411
1.07371
1.07336
1.07304
1.07277
1.07254
1.07235
1.07223
1.07219
1.07222
1.07233
1.08111
1.08109
1.08102
1.08092
1.08078
1.08061
1.08042
1.08019
1.07993
1.07964
1.07932
1.07897
1.0786
1.07823
1.07783
1.07744
1.07702
1.07657
1.07613
1.07571
1.07531
1.07489
1.07447
1.07406
1.07369
1.07334
1.07304
1.07275
1.07254
1.07237
1.07226
1.07218
1.0722
1.07232
1.08085
1.08081
1.08075
1.08066
1.08052
1.08036
1.08016
1.0799
1.07961
1.07933
1.07904
1.07874
1.07839
1.07802
1.07765
1.07727
1.07684
1.07642
1.076
1.07558
1.07515
1.07472
1.07433
1.07392
1.07354
1.07321
1.07291
1.07266
1.07247
1.0723
1.07221
1.0722
1.07227
1.07241
1.0805
1.08047
1.08042
1.08032
1.08018
1.08002
1.07984
1.0796
1.07931
1.07903
1.07877
1.07846