/*--------------------------------*- C++ -*----------------------------------*\
| =========                 |                                                 |
| \\      /  F ield         | OpenFOAM: The Open Source CFD Toolbox           |
|  \\    /   O peration     | Version:  2312                                  |
|   \\  /    A nd           | Website:  www.openfoam.com                      |
|    \\/     M anipulation  |                                                 |
\*---------------------------------------------------------------------------*/
FoamFile
{
    version     2.0;
    format      ascii;
    arch        "LSB;label=32;scalar=64";
    class       volVectorField;
    location    "0.8";
    object      D;
}
// * * * * * * * * * * * * * * * * * * * * * * * * * * * * * * * * * * * * * //

dimensions      [0 1 0 0 0 0 0];

internalField   nonuniform List<vector> 
3240
(
(-0.000522805 0.000163031 -0.000115007)
(-0.000535024 0.000116847 -0.000115005)
(-0.000543171 6.97702e-05 -0.000115008)
(-0.000547184 2.21618e-05 -0.000115009)
(-0.000547036 -2.5614e-05 -0.000115009)
(-0.000542722 -7.31939e-05 -0.000115007)
(-0.000534278 -0.000120215 -0.000115004)
(-0.000521767 -0.000166321 -0.000115004)
(-0.000505286 -0.000211161 -0.000115005)
(-0.000484959 -0.000254396 -0.000115007)
(-0.000460942 -0.000295695 -0.000115008)
(-0.000433415 -0.000334746 -0.000115009)
(-0.000402591 -0.000371249 -0.000115008)
(-0.000368703 -0.000404924 -0.000115006)
(-0.000332009 -0.000435515 -0.000115005)
(-0.000292788 -0.000462794 -0.000115006)
(-0.000251338 -0.000486552 -0.000115009)
(-0.000207976 -0.000506607 -0.000115007)
(-0.000163031 -0.000522805 -0.000115007)
(-0.000116847 -0.000535024 -0.000115005)
(-6.97702e-05 -0.000543171 -0.000115008)
(-2.21618e-05 -0.000547184 -0.000115009)
(2.5614e-05 -0.000547036 -0.000115009)
(7.31938e-05 -0.000542722 -0.000115007)
(0.000120215 -0.000534278 -0.000115004)
(0.000166321 -0.000521767 -0.000115004)
(0.000211161 -0.000505286 -0.000115005)
(0.000254396 -0.000484959 -0.000115007)
(0.000295695 -0.000460942 -0.000115008)
(0.000334746 -0.000433415 -0.000115009)
(0.000371249 -0.000402591 -0.000115008)
(0.000404924 -0.000368703 -0.000115006)
(0.000435515 -0.000332009 -0.000115004)
(0.000462794 -0.000292788 -0.000115006)
(0.000486552 -0.000251338 -0.000115009)
(0.000506607 -0.000207976 -0.000115007)
(0.000522805 -0.000163031 -0.000115007)
(0.000535024 -0.000116847 -0.000115005)
(0.000543171 -6.97701e-05 -0.000115008)
(0.000547184 -2.21617e-05 -0.000115009)
(0.000547036 2.5614e-05 -0.000115009)
(0.000542722 7.31939e-05 -0.000115007)
(0.000534278 0.000120215 -0.000115004)
(0.000521767 0.000166321 -0.000115004)
(0.000505286 0.000211161 -0.000115005)
(0.000484959 0.000254396 -0.000115007)
(0.000460942 0.000295695 -0.000115008)
(0.000433415 0.000334746 -0.000115009)
(0.000402591 0.000371249 -0.000115008)
(0.000368703 0.000404924 -0.000115006)
(0.000332009 0.000435515 -0.000115004)
(0.000292788 0.000462794 -0.000115006)
(0.000251338 0.000486552 -0.000115009)
(0.000207976 0.000506607 -0.000115007)
(0.000163031 0.000522805 -0.000115007)
(0.000116847 0.000535024 -0.000115005)
(6.97701e-05 0.000543171 -0.000115008)
(2.21617e-05 0.000547184 -0.000115009)
(-2.5614e-05 0.000547036 -0.000115009)
(-7.31939e-05 0.000542722 -0.000115007)
(-0.000120215 0.000534278 -0.000115004)
(-0.000166321 0.000521767 -0.000115004)
(-0.000211161 0.000505286 -0.000115005)
(-0.000254396 0.000484959 -0.000115007)
(-0.000295695 0.000460942 -0.000115008)
(-0.000334746 0.000433415 -0.000115009)
(-0.000371249 0.000402591 -0.000115008)
(-0.000404924 0.000368703 -0.000115006)
(-0.000435515 0.000332009 -0.000115004)
(-0.000462794 0.000292788 -0.000115006)
(-0.000486552 0.000251338 -0.000115009)
(-0.000506607 0.000207976 -0.000115007)
(-0.000475927 0.000113838 -0.000110527)
(-0.000484037 7.19258e-05 -0.000110527)
(-0.000488464 2.94648e-05 -0.000110528)
(-0.000489173 -1.32209e-05 -0.000110527)
(-0.000486159 -5.58055e-05 -0.000110528)
(-0.000479446 -9.79645e-05 -0.000110527)
(-0.000469083 -0.000139378 -0.000110527)
(-0.00045515 -0.000179729 -0.000110526)
(-0.000437755 -0.000218713 -0.000110526)
(-0.000417027 -0.000256033 -0.000110528)
(-0.000393126 -0.000291406 -0.000110527)
(-0.000366233 -0.000324561 -0.000110527)
(-0.000336551 -0.000355247 -0.000110527)
(-0.000304308 -0.000383227 -0.000110527)
(-0.00026975 -0.00040829 -0.000110527)
(-0.000233139 -0.000430246 -0.000110527)
(-0.000194753 -0.000448928 -0.000110528)
(-0.000154885 -0.000464194 -0.000110527)
(-0.000113838 -0.000475927 -0.000110527)
(-7.19258e-05 -0.000484037 -0.000110527)
(-2.94648e-05 -0.000488464 -0.000110528)
(1.32209e-05 -0.000489173 -0.000110527)
(5.58055e-05 -0.000486159 -0.000110528)
(9.79645e-05 -0.000479446 -0.000110527)
(0.000139378 -0.000469083 -0.000110527)
(0.000179729 -0.00045515 -0.000110526)
(0.000218713 -0.000437755 -0.000110526)
(0.000256033 -0.000417027 -0.000110528)
(0.000291406 -0.000393126 -0.000110527)
(0.000324561 -0.000366233 -0.000110527)
(0.000355247 -0.000336551 -0.000110527)
(0.000383227 -0.000304308 -0.000110527)
(0.00040829 -0.00026975 -0.000110527)
(0.000430246 -0.000233139 -0.000110527)
(0.000448928 -0.000194753 -0.000110528)
(0.000464194 -0.000154885 -0.000110527)
(0.000475927 -0.000113838 -0.000110527)
(0.000484037 -7.19258e-05 -0.000110527)
(0.000488464 -2.94648e-05 -0.000110528)
(0.000489173 1.32209e-05 -0.000110527)
(0.000486159 5.58055e-05 -0.000110528)
(0.000479446 9.79645e-05 -0.000110527)
(0.000469083 0.000139378 -0.000110527)
(0.00045515 0.000179729 -0.000110526)
(0.000437755 0.000218713 -0.000110526)
(0.000417027 0.000256033 -0.000110528)
(0.000393126 0.000291406 -0.000110527)
(0.000366233 0.000324561 -0.000110527)
(0.000336551 0.000355247 -0.000110527)
(0.000304308 0.000383227 -0.000110527)
(0.00026975 0.00040829 -0.000110527)
(0.000233139 0.000430246 -0.000110527)
(0.000194753 0.000448928 -0.000110528)
(0.000154885 0.000464194 -0.000110527)
(0.000113838 0.000475927 -0.000110527)
(7.19258e-05 0.000484037 -0.000110527)
(2.94648e-05 0.000488464 -0.000110528)
(-1.32209e-05 0.000489173 -0.000110527)
(-5.58055e-05 0.000486159 -0.000110528)
(-9.79645e-05 0.000479446 -0.000110528)
(-0.000139378 0.000469083 -0.000110527)
(-0.000179729 0.00045515 -0.000110526)
(-0.000218713 0.000437755 -0.000110526)
(-0.000256033 0.000417027 -0.000110528)
(-0.000291406 0.000393126 -0.000110527)
(-0.000324561 0.000366233 -0.000110527)
(-0.000355247 0.000336551 -0.000110527)
(-0.000383227 0.000304308 -0.000110527)
(-0.00040829 0.00026975 -0.000110527)
(-0.000430246 0.000233139 -0.000110527)
(-0.000448928 0.000194753 -0.000110528)
(-0.000464194 0.000154885 -0.000110527)
(-0.000431343 0.000232796 -7.75282e-05)
(-0.000449991 0.000194317 -7.7528e-05)
(-0.000465214 0.000154357 -7.75274e-05)
(-0.000476897 0.000113223 -7.75275e-05)
(-0.000484952 7.12281e-05 -7.75282e-05)
(-0.000489313 2.86912e-05 -7.75286e-05)
(-0.00048995 -1.40648e-05 -7.75287e-05)
(-0.000486861 -5.67122e-05 -7.75295e-05)
(-0.000480067 -9.89279e-05 -7.75293e-05)
(-0.000469619 -0.000140392 -7.75296e-05)
(-0.000455596 -0.000180788 -7.75285e-05)
(-0.000438106 -0.000219809 -7.75276e-05)
(-0.00041728 -0.000257157 -7.75268e-05)
(-0.000393281 -0.000292547 -7.75276e-05)
(-0.000366286 -0.00032571 -7.75286e-05)
(-0.000336505 -0.000356393 -7.75287e-05)
(-0.000304162 -0.000384365 -7.75281e-05)
(-0.000269505 -0.000409412 -7.7528e-05)
(-0.000232796 -0.000431343 -7.75282e-05)
(-0.000194317 -0.000449991 -7.7528e-05)
(-0.000154357 -0.000465214 -7.75274e-05)
(-0.000113223 -0.000476897 -7.75275e-05)
(-7.12281e-05 -0.000484952 -7.75282e-05)
(-2.86912e-05 -0.000489313 -7.75287e-05)
(1.40648e-05 -0.00048995 -7.75287e-05)
(5.67122e-05 -0.000486861 -7.75295e-05)
(9.89279e-05 -0.000480067 -7.75293e-05)
(0.000140392 -0.000469619 -7.75296e-05)
(0.000180788 -0.000455596 -7.75285e-05)
(0.000219809 -0.000438106 -7.75276e-05)
(0.000257157 -0.00041728 -7.75267e-05)
(0.000292547 -0.000393281 -7.75275e-05)
(0.00032571 -0.000366286 -7.75285e-05)
(0.000356393 -0.000336505 -7.75287e-05)
(0.000384365 -0.000304162 -7.75281e-05)
(0.000409412 -0.000269505 -7.75279e-05)
(0.000431343 -0.000232796 -7.75282e-05)
(0.000449991 -0.000194317 -7.7528e-05)
(0.000465214 -0.000154357 -7.75274e-05)
(0.000476897 -0.000113223 -7.75275e-05)
(0.000484952 -7.12281e-05 -7.75282e-05)
(0.000489313 -2.86912e-05 -7.75287e-05)
(0.00048995 1.40648e-05 -7.75288e-05)
(0.000486861 5.67122e-05 -7.75295e-05)
(0.000480067 9.89279e-05 -7.75294e-05)
(0.000469619 0.000140392 -7.75297e-05)
(0.000455596 0.000180788 -7.75285e-05)
(0.000438106 0.000219809 -7.75276e-05)
(0.00041728 0.000257157 -7.75268e-05)
(0.000393281 0.000292547 -7.75276e-05)
(0.000366286 0.00032571 -7.75286e-05)
(0.000336505 0.000356393 -7.75287e-05)
(0.000304162 0.000384365 -7.75281e-05)
(0.000269505 0.000409412 -7.7528e-05)
(0.000232796 0.000431343 -7.75282e-05)
(0.000194317 0.000449991 -7.7528e-05)
(0.000154357 0.000465214 -7.75274e-05)
(0.000113223 0.000476897 -7.75275e-05)
(7.1228e-05 0.000484952 -7.75283e-05)
(2.86912e-05 0.000489313 -7.75287e-05)
(-1.40648e-05 0.00048995 -7.75288e-05)
(-5.67122e-05 0.000486861 -7.75296e-05)
(-9.89279e-05 0.000480067 -7.75294e-05)
(-0.000140392 0.000469619 -7.75297e-05)
(-0.000180788 0.000455596 -7.75285e-05)
(-0.000219809 0.000438106 -7.75276e-05)
(-0.000257157 0.00041728 -7.75268e-05)
(-0.000292547 0.000393281 -7.75276e-05)
(-0.00032571 0.000366286 -7.75286e-05)
(-0.000356393 0.000336505 -7.75287e-05)
(-0.000384365 0.000304162 -7.75281e-05)
(-0.000409412 0.000269505 -7.7528e-05)
(-0.00132765 0.000424453 -0.000354216)
(-0.00135959 0.000307126 -0.000354214)
(-0.00138118 0.000187459 -0.000354218)
(-0.00139227 6.6365e-05 -0.00035422)
(-0.00139276 -5.5234e-05 -0.00035422)
(-0.00138264 -0.000176411 -0.000354217)
(-0.00136201 -0.000296243 -0.000354212)
(-0.00133101 -0.000413819 -0.000354208)
(-0.00128988 -0.000528246 -0.000354207)
(-0.00123893 -0.000638653 -0.000354209)
(-0.00117855 -0.000744203 -0.000354214)
(-0.0011092 -0.000844091 -0.000354218)
(-0.00103141 -0.000937556 -0.000354217)
(-0.000945776 -0.00102388 -0.000354215)
(-0.000852941 -0.00110241 -0.000354214)
(-0.000753613 -0.00117255 -0.000354214)
(-0.000648548 -0.00123378 -0.000354218)
(-0.00053855 -0.00128561 -0.000354217)
(-0.000424453 -0.00132765 -0.000354216)
(-0.000307126 -0.00135959 -0.000354214)
(-0.000187459 -0.00138118 -0.000354218)
(-6.6365e-05 -0.00139227 -0.00035422)
(5.5234e-05 -0.00139276 -0.00035422)
(0.000176411 -0.00138264 -0.000354217)
(0.000296243 -0.00136201 -0.000354212)
(0.000413819 -0.00133101 -0.000354208)
(0.000528246 -0.00128988 -0.000354207)
(0.000638653 -0.00123893 -0.000354209)
(0.000744203 -0.00117855 -0.000354215)
(0.000844091 -0.0011092 -0.000354218)
(0.000937556 -0.00103141 -0.000354217)
(0.00102388 -0.000945776 -0.000354215)
(0.00110241 -0.000852941 -0.000354213)
(0.00117255 -0.000753613 -0.000354213)
(0.00123378 -0.000648548 -0.000354218)
(0.00128561 -0.00053855 -0.000354217)
(0.00132765 -0.000424453 -0.000354216)
(0.00135959 -0.000307126 -0.000354214)
(0.00138118 -0.000187459 -0.000354218)
(0.00139227 -6.63649e-05 -0.00035422)
(0.00139276 5.5234e-05 -0.00035422)
(0.00138264 0.000176411 -0.000354217)
(0.00136201 0.000296243 -0.000354212)
(0.00133101 0.000413819 -0.000354208)
(0.00128988 0.000528246 -0.000354207)
(0.00123893 0.000638653 -0.00035421)
(0.00117855 0.000744203 -0.000354215)
(0.0011092 0.000844091 -0.000354218)
(0.00103141 0.000937556 -0.000354217)
(0.000945776 0.00102388 -0.000354215)
(0.000852941 0.00110241 -0.000354213)
(0.000753613 0.00117255 -0.000354214)
(0.000648548 0.00123378 -0.000354219)
(0.00053855 0.00128561 -0.000354217)
(0.000424453 0.00132765 -0.000354216)
(0.000307126 0.00135959 -0.000354214)
(0.000187459 0.00138118 -0.000354218)
(6.63649e-05 0.00139227 -0.00035422)
(-5.5234e-05 0.00139276 -0.00035422)
(-0.000176411 0.00138264 -0.000354217)
(-0.000296243 0.00136201 -0.000354212)
(-0.000413819 0.00133101 -0.000354208)
(-0.000528246 0.00128988 -0.000354207)
(-0.000638653 0.00123893 -0.00035421)
(-0.000744203 0.00117855 -0.000354215)
(-0.000844091 0.0011092 -0.000354218)
(-0.000937556 0.00103141 -0.000354217)
(-0.00102388 0.000945776 -0.000354215)
(-0.00110241 0.000852941 -0.000354213)
(-0.00117255 0.000753613 -0.000354214)
(-0.00123378 0.000648548 -0.000354219)
(-0.00128561 0.00053855 -0.000354217)
(-0.00134823 0.000490877 -0.00025829)
(-0.00138588 0.000371504 -0.000258289)
(-0.00141298 0.000249301 -0.00025829)
(-0.00142934 0.000125201 -0.000258291)
(-0.00143481 1.48995e-07 -0.00025829)
(-0.00142936 -0.000124903 -0.00025829)
(-0.00141304 -0.000249004 -0.000258288)
(-0.00138596 -0.000371209 -0.000258287)
(-0.00134833 -0.000490589 -0.000258287)
(-0.00130045 -0.000606237 -0.000258286)
(-0.00124266 -0.000717272 -0.000258287)
(-0.00117542 -0.000822849 -0.000258288)
(-0.00109923 -0.000922164 -0.000258289)
(-0.00101467 -0.00101446 -0.000258289)
(-0.000922396 -0.00109903 -0.000258289)
(-0.000823099 -0.00117524 -0.000258289)
(-0.000717537 -0.00124251 -0.00025829)
(-0.000606515 -0.00130032 -0.000258289)
(-0.000490877 -0.00134823 -0.00025829)
(-0.000371504 -0.00138588 -0.000258289)
(-0.000249301 -0.00141298 -0.00025829)
(-0.000125201 -0.00142934 -0.000258291)
(-1.4901e-07 -0.00143481 -0.00025829)
(0.000124903 -0.00142936 -0.00025829)
(0.000249004 -0.00141304 -0.000258288)
(0.000371209 -0.00138596 -0.000258287)
(0.000490589 -0.00134833 -0.000258287)
(0.000606236 -0.00130045 -0.000258286)
(0.000717272 -0.00124266 -0.000258287)
(0.000822849 -0.00117542 -0.000258288)
(0.000922164 -0.00109923 -0.000258289)
(0.00101446 -0.00101467 -0.000258288)
(0.00109903 -0.000922396 -0.000258289)
(0.00117524 -0.000823099 -0.000258289)
(0.00124251 -0.000717537 -0.00025829)
(0.00130032 -0.000606515 -0.000258289)
(0.00134823 -0.000490877 -0.00025829)
(0.00138588 -0.000371504 -0.000258289)
(0.00141298 -0.000249301 -0.00025829)
(0.00142934 -0.000125201 -0.000258291)
(0.00143481 -1.48961e-07 -0.00025829)
(0.00142936 0.000124903 -0.00025829)
(0.00141304 0.000249004 -0.000258288)
(0.00138596 0.000371209 -0.000258288)
(0.00134833 0.000490589 -0.000258287)
(0.00130045 0.000606237 -0.000258286)
(0.00124266 0.000717272 -0.000258287)
(0.00117542 0.000822849 -0.000258288)
(0.00109923 0.000922164 -0.000258289)
(0.00101467 0.00101446 -0.000258289)
(0.000922396 0.00109903 -0.000258289)
(0.000823099 0.00117524 -0.000258289)
(0.000717537 0.00124251 -0.00025829)
(0.000606515 0.00130032 -0.000258289)
(0.000490877 0.00134823 -0.00025829)
(0.000371504 0.00138588 -0.000258289)
(0.000249301 0.00141298 -0.00025829)
(0.000125201 0.00142934 -0.000258291)
(1.48936e-07 0.00143481 -0.00025829)
(-0.000124903 0.00142936 -0.00025829)
(-0.000249004 0.00141304 -0.000258288)
(-0.000371209 0.00138596 -0.000258288)
(-0.000490589 0.00134833 -0.000258287)
(-0.000606237 0.00130045 -0.000258286)
(-0.000717272 0.00124266 -0.000258287)
(-0.000822849 0.00117542 -0.000258288)
(-0.000922164 0.00109923 -0.000258289)
(-0.00101446 0.00101467 -0.000258289)
(-0.00109903 0.000922396 -0.000258289)
(-0.00117524 0.000823099 -0.000258289)
(-0.00124251 0.000717537 -0.00025829)
(-0.00130032 0.000606515 -0.000258289)
(-0.00139152 0.000752483 -0.000124068)
(-0.00145181 0.000628341 -0.000124068)
(-0.00150105 0.000499415 -0.000124067)
(-0.00153886 0.000366688 -0.000124067)
(-0.00156497 0.000231171 -0.000124067)
(-0.00157916 9.38964e-05 -0.000124068)
(-0.00158133 -4.4093e-05 -0.000124069)
(-0.00157147 -0.000181746 -0.00012407)
(-0.00154965 -0.000318015 -0.00012407)
(-0.00151604 -0.000451867 -0.000124068)
(-0.00147089 -0.000582281 -0.000124066)
(-0.00141455 -0.000708263 -0.000124066)
(-0.00134743 -0.000828855 -0.000124066)
(-0.00127007 -0.000943137 -0.000124067)
(-0.00118303 -0.00105024 -0.000124068)
(-0.001087 -0.00114935 -0.000124068)
(-0.000982688 -0.00123972 -0.000124068)
(-0.000870899 -0.00132064 -0.000124067)
(-0.000752483 -0.00139152 -0.000124068)
(-0.000628341 -0.00145181 -0.000124068)
(-0.000499415 -0.00150105 -0.000124067)
(-0.000366688 -0.00153886 -0.000124067)
(-0.000231171 -0.00156497 -0.000124067)
(-9.38965e-05 -0.00157916 -0.000124068)
(4.40929e-05 -0.00158133 -0.000124069)
(0.000181746 -0.00157147 -0.00012407)
(0.000318015 -0.00154965 -0.00012407)
(0.000451867 -0.00151604 -0.000124068)
(0.000582281 -0.00147089 -0.000124066)
(0.000708263 -0.00141455 -0.000124066)
(0.000828855 -0.00134743 -0.000124066)
(0.000943137 -0.00127007 -0.000124067)
(0.00105024 -0.00118303 -0.000124068)
(0.00114935 -0.001087 -0.000124068)
(0.00123972 -0.000982688 -0.000124068)
(0.00132064 -0.000870899 -0.000124067)
(0.00139152 -0.000752483 -0.000124068)
(0.00145181 -0.000628341 -0.000124068)
(0.00150105 -0.000499415 -0.000124067)
(0.00153886 -0.000366688 -0.000124067)
(0.00156497 -0.000231171 -0.000124067)
(0.00157916 -9.38965e-05 -0.000124068)
(0.00158133 4.4093e-05 -0.000124069)
(0.00157147 0.000181746 -0.00012407)
(0.00154965 0.000318015 -0.00012407)
(0.00151604 0.000451867 -0.000124068)
(0.00147089 0.000582281 -0.000124066)
(0.00141455 0.000708263 -0.000124066)
(0.00134743 0.000828855 -0.000124066)
(0.00127007 0.000943137 -0.000124067)
(0.00118303 0.00105024 -0.000124068)
(0.001087 0.00114935 -0.000124068)
(0.000982688 0.00123972 -0.000124068)
(0.000870899 0.00132065 -0.000124067)
(0.000752483 0.00139152 -0.000124068)
(0.000628341 0.00145181 -0.000124068)
(0.000499415 0.00150105 -0.000124067)
(0.000366688 0.00153886 -0.000124067)
(0.000231171 0.00156497 -0.000124067)
(9.38964e-05 0.00157916 -0.000124068)
(-4.4093e-05 0.00158133 -0.000124069)
(-0.000181746 0.00157147 -0.00012407)
(-0.000318015 0.00154965 -0.00012407)
(-0.000451867 0.00151604 -0.000124068)
(-0.000582281 0.00147089 -0.000124067)
(-0.000708263 0.00141455 -0.000124066)
(-0.000828855 0.00134743 -0.000124066)
(-0.000943137 0.00127007 -0.000124067)
(-0.00105024 0.00118303 -0.000124068)
(-0.00114935 0.001087 -0.000124068)
(-0.00123972 0.000982688 -0.000124068)
(-0.00132064 0.000870899 -0.000124067)
(-0.00187674 0.000746479 -0.000595517)
(-0.00193466 0.000580069 -0.000595517)
(-0.00197785 0.000409245 -0.000595518)
(-0.00200599 0.000235306 -0.000595518)
(-0.00201887 5.95757e-05 -0.000595519)
(-0.00201638 -0.000116608 -0.000595516)
(-0.00199854 -0.000291902 -0.000595511)
(-0.0019655 -0.000464975 -0.00059551)
(-0.0019175 -0.00063451 -0.000595509)
(-0.0018549 -0.000799215 -0.00059551)
(-0.00177818 -0.000957837 -0.000595509)
(-0.00168793 -0.00110917 -0.000595513)
(-0.00158484 -0.00125206 -0.000595513)
(-0.00146969 -0.00138543 -0.000595512)
(-0.00134334 -0.00150825 -0.000595513)
(-0.00120678 -0.00161959 -0.000595512)
(-0.00106103 -0.0017186 -0.000595516)
(-0.000907206 -0.00180454 -0.000595518)
(-0.000746479 -0.00187674 -0.000595517)
(-0.000580069 -0.00193466 -0.000595517)
(-0.000409245 -0.00197785 -0.000595518)
(-0.000235306 -0.00200599 -0.000595518)
(-5.95756e-05 -0.00201887 -0.000595519)
(0.000116608 -0.00201638 -0.000595515)
(0.000291902 -0.00199854 -0.00059551)
(0.000464974 -0.0019655 -0.00059551)
(0.00063451 -0.0019175 -0.000595509)
(0.000799215 -0.0018549 -0.00059551)
(0.000957837 -0.00177818 -0.000595509)
(0.00110917 -0.00168793 -0.000595513)
(0.00125206 -0.00158484 -0.000595513)
(0.00138543 -0.00146969 -0.000595512)
(0.00150825 -0.00134334 -0.000595513)
(0.00161959 -0.00120678 -0.000595512)
(0.0017186 -0.00106103 -0.000595516)
(0.00180454 -0.000907206 -0.000595518)
(0.00187674 -0.000746479 -0.000595517)
(0.00193466 -0.000580069 -0.000595517)
(0.00197785 -0.000409245 -0.000595518)
(0.00200599 -0.000235306 -0.000595518)
(0.00201887 -5.95756e-05 -0.000595519)
(0.00201638 0.000116608 -0.000595515)
(0.00199854 0.000291902 -0.00059551)
(0.0019655 0.000464974 -0.00059551)
(0.0019175 0.00063451 -0.000595509)
(0.0018549 0.000799215 -0.00059551)
(0.00177818 0.000957837 -0.00059551)
(0.00168793 0.00110917 -0.000595513)
(0.00158484 0.00125206 -0.000595513)
(0.00146969 0.00138543 -0.000595512)
(0.00134334 0.00150825 -0.000595513)
(0.00120678 0.00161959 -0.000595512)
(0.00106103 0.0017186 -0.000595516)
(0.000907206 0.00180454 -0.000595518)
(0.000746479 0.00187674 -0.000595517)
(0.000580069 0.00193466 -0.000595517)
(0.000409245 0.00197785 -0.000595518)
(0.000235306 0.00200599 -0.000595518)
(5.95756e-05 0.00201887 -0.000595519)
(-0.000116608 0.00201638 -0.000595516)
(-0.000291902 0.00199854 -0.000595511)
(-0.000464974 0.0019655 -0.00059551)
(-0.00063451 0.0019175 -0.000595509)
(-0.000799215 0.0018549 -0.00059551)
(-0.000957837 0.00177818 -0.00059551)
(-0.00110917 0.00168793 -0.000595513)
(-0.00125206 0.00158484 -0.000595513)
(-0.00138543 0.00146969 -0.000595512)
(-0.00150825 0.00134334 -0.000595513)
(-0.00161959 0.00120678 -0.000595512)
(-0.0017186 0.00106103 -0.000595516)
(-0.00180454 0.000907206 -0.000595518)
(-0.00198852 0.00100484 -0.000409818)
(-0.00206853 0.000827703 -0.000409818)
(-0.00213279 0.000644269 -0.000409819)
(-0.00218083 0.000455932 -0.000409819)
(-0.00221227 0.000264125 -0.000409819)
(-0.00222687 7.03075e-05 -0.000409818)
(-0.00222452 -0.000124043 -0.000409816)
(-0.00220525 -0.00031745 -0.000409816)
(-0.00216919 -0.000508442 -0.000409815)
(-0.00211662 -0.000695564 -0.000409815)
(-0.00204794 -0.000877393 -0.000409816)
(-0.00196368 -0.00105254 -0.000409816)
(-0.00186447 -0.00121969 -0.000409816)
(-0.00175108 -0.00137754 -0.000409816)
(-0.00162435 -0.00152492 -0.000409816)
(-0.00148526 -0.00166069 -0.000409817)
(-0.00133487 -0.00178382 -0.000409818)
(-0.00117432 -0.00189337 -0.000409818)
(-0.00100484 -0.00198852 -0.000409818)
(-0.000827703 -0.00206853 -0.000409818)
(-0.000644269 -0.00213279 -0.000409819)
(-0.000455932 -0.00218083 -0.000409819)
(-0.000264125 -0.00221227 -0.000409819)
(-7.03075e-05 -0.00222687 -0.000409818)
(0.000124043 -0.00222452 -0.000409816)
(0.00031745 -0.00220525 -0.000409816)
(0.000508442 -0.00216919 -0.000409815)
(0.000695564 -0.00211662 -0.000409815)
(0.000877393 -0.00204794 -0.000409816)
(0.00105254 -0.00196368 -0.000409816)
(0.00121969 -0.00186447 -0.000409816)
(0.00137754 -0.00175108 -0.000409816)
(0.00152492 -0.00162435 -0.000409816)
(0.00166069 -0.00148526 -0.000409817)
(0.00178382 -0.00133487 -0.000409818)
(0.00189337 -0.00117432 -0.000409818)
(0.00198852 -0.00100484 -0.000409818)
(0.00206853 -0.000827703 -0.000409818)
(0.00213279 -0.000644269 -0.000409819)
(0.00218083 -0.000455932 -0.000409819)
(0.00221227 -0.000264125 -0.000409819)
(0.00222687 -7.03075e-05 -0.000409819)
(0.00222452 0.000124043 -0.000409816)
(0.00220525 0.00031745 -0.000409816)
(0.00216919 0.000508442 -0.000409815)
(0.00211662 0.000695564 -0.000409815)
(0.00204794 0.000877393 -0.000409816)
(0.00196368 0.00105254 -0.000409816)
(0.00186447 0.00121969 -0.000409816)
(0.00175108 0.00137755 -0.000409816)
(0.00162435 0.00152492 -0.000409816)
(0.00148526 0.00166069 -0.000409817)
(0.00133487 0.00178382 -0.000409818)
(0.00117432 0.00189337 -0.000409818)
(0.00100484 0.00198852 -0.000409818)
(0.000827703 0.00206853 -0.000409818)
(0.000644269 0.00213279 -0.000409819)
(0.000455932 0.00218083 -0.000409819)
(0.000264125 0.00221227 -0.000409819)
(7.03074e-05 0.00222687 -0.000409819)
(-0.000124043 0.00222452 -0.000409816)
(-0.00031745 0.00220525 -0.000409816)
(-0.000508442 0.00216919 -0.000409816)
(-0.000695564 0.00211662 -0.000409815)
(-0.000877393 0.00204794 -0.000409816)
(-0.00105254 0.00196368 -0.000409816)
(-0.00121969 0.00186447 -0.000409817)
(-0.00137755 0.00175108 -0.000409816)
(-0.00152492 0.00162435 -0.000409816)
(-0.00166069 0.00148526 -0.000409817)
(-0.00178382 0.00133487 -0.000409818)
(-0.00189337 0.00117432 -0.000409818)
(-0.00214719 0.00134701 -0.00023841)
(-0.00225642 0.00115474 -0.00023841)
(-0.00234847 0.000953686 -0.00023841)
(-0.00242265 0.000745374 -0.00023841)
(-0.0024784 0.000531389 -0.000238411)
(-0.00251528 0.000313362 -0.00023841)
(-0.00253302 9.29487e-05 -0.000238411)
(-0.00253148 -0.000128171 -0.000238411)
(-0.00251068 -0.000348317 -0.000238412)
(-0.00247077 -0.000565812 -0.00023841)
(-0.00241205 -0.000779001 -0.00023841)
(-0.00233498 -0.000986261 -0.00023841)
(-0.00224014 -0.00118602 -0.00023841)
(-0.00212824 -0.00137674 -0.00023841)
(-0.00200015 -0.00155699 -0.00023841)
(-0.00185684 -0.00172539 -0.00023841)
(-0.0016994 -0.00188066 -0.00023841)
(-0.00152902 -0.00202162 -0.00023841)
(-0.00134701 -0.00214719 -0.00023841)
(-0.00115474 -0.00225642 -0.00023841)
(-0.000953686 -0.00234847 -0.00023841)
(-0.000745374 -0.00242265 -0.00023841)
(-0.000531389 -0.0024784 -0.000238411)
(-0.000313362 -0.00251528 -0.000238411)
(-9.29487e-05 -0.00253302 -0.000238411)
(0.000128171 -0.00253148 -0.000238411)
(0.000348317 -0.00251068 -0.000238412)
(0.000565812 -0.00247077 -0.00023841)
(0.000779001 -0.00241205 -0.00023841)
(0.000986261 -0.00233498 -0.00023841)
(0.00118602 -0.00224014 -0.00023841)
(0.00137674 -0.00212824 -0.00023841)
(0.00155699 -0.00200015 -0.00023841)
(0.00172539 -0.00185684 -0.00023841)
(0.00188066 -0.0016994 -0.00023841)
(0.00202162 -0.00152902 -0.00023841)
(0.00214719 -0.00134701 -0.00023841)
(0.00225642 -0.00115474 -0.00023841)
(0.00234847 -0.000953686 -0.00023841)
(0.00242265 -0.000745374 -0.00023841)
(0.0024784 -0.000531389 -0.000238411)
(0.00251528 -0.000313362 -0.000238411)
(0.00253302 -9.29487e-05 -0.000238411)
(0.00253148 0.000128171 -0.000238411)
(0.00251068 0.000348317 -0.000238412)
(0.00247077 0.000565812 -0.00023841)
(0.00241205 0.000779001 -0.00023841)
(0.00233498 0.000986261 -0.00023841)
(0.00224014 0.00118602 -0.00023841)
(0.00212824 0.00137674 -0.00023841)
(0.00200015 0.00155699 -0.00023841)
(0.00185684 0.00172539 -0.00023841)
(0.0016994 0.00188066 -0.00023841)
(0.00152902 0.00202162 -0.00023841)
(0.00134701 0.00214719 -0.00023841)
(0.00115474 0.00225642 -0.00023841)
(0.000953686 0.00234847 -0.00023841)
(0.000745374 0.00242265 -0.00023841)
(0.000531389 0.0024784 -0.000238411)
(0.000313361 0.00251528 -0.000238411)
(9.29487e-05 0.00253302 -0.000238411)
(-0.000128171 0.00253148 -0.000238411)
(-0.000348317 0.00251068 -0.000238412)
(-0.000565812 0.00247077 -0.000238411)
(-0.000779001 0.00241205 -0.000238411)
(-0.000986261 0.00233498 -0.00023841)
(-0.00118602 0.00224014 -0.00023841)
(-0.00137674 0.00212824 -0.00023841)
(-0.00155699 0.00200015 -0.000238411)
(-0.00172539 0.00185684 -0.00023841)
(-0.00188066 0.0016994 -0.00023841)
(-0.00202162 0.00152902 -0.00023841)
(-0.00211676 0.00123987 -0.000853445)
(-0.00221676 0.00105066 -0.000853447)
(-0.0022999 0.00085346 -0.00085345)
(-0.00236553 0.000649763 -0.000853449)
(-0.00241316 0.000441119 -0.000853448)
(-0.00244242 0.00022912 -0.000853447)
(-0.0024531 1.53773e-05 -0.000853443)
(-0.0024451 -0.000198483 -0.000853442)
(-0.0024185 -0.000410832 -0.000853442)
(-0.00237349 -0.000620055 -0.000853446)
(-0.00231042 -0.000824559 -0.000853444)
(-0.00222976 -0.00102279 -0.000853444)
(-0.00213213 -0.00121323 -0.000853443)
(-0.00201828 -0.00139444 -0.000853443)
(-0.00188907 -0.00156504 -0.000853443)
(-0.00174548 -0.00172373 -0.000853443)
(-0.0015886 -0.0018693 -0.000853445)
(-0.00141964 -0.00200064 -0.000853445)
(-0.00123987 -0.00211676 -0.000853445)
(-0.00105066 -0.00221676 -0.000853447)
(-0.00085346 -0.0022999 -0.00085345)
(-0.000649763 -0.00236553 -0.000853449)
(-0.000441119 -0.00241316 -0.000853448)
(-0.000229119 -0.00244242 -0.000853447)
(-1.53773e-05 -0.0024531 -0.000853443)
(0.000198483 -0.0024451 -0.000853442)
(0.000410832 -0.0024185 -0.000853442)
(0.000620055 -0.00237349 -0.000853446)
(0.000824559 -0.00231042 -0.000853444)
(0.00102279 -0.00222976 -0.000853444)
(0.00121323 -0.00213213 -0.000853443)
(0.00139444 -0.00201828 -0.000853443)
(0.00156504 -0.00188907 -0.000853443)
(0.00172373 -0.00174548 -0.000853443)
(0.0018693 -0.0015886 -0.000853445)
(0.00200064 -0.00141963 -0.000853445)
(0.00211676 -0.00123987 -0.000853445)
(0.00221676 -0.00105066 -0.000853447)
(0.0022999 -0.00085346 -0.00085345)
(0.00236553 -0.000649763 -0.000853449)
(0.00241316 -0.000441119 -0.000853448)
(0.00244242 -0.000229119 -0.000853447)
(0.0024531 -1.53773e-05 -0.000853443)
(0.0024451 0.000198483 -0.000853442)
(0.0024185 0.000410832 -0.000853443)
(0.00237349 0.000620055 -0.000853446)
(0.00231042 0.00082456 -0.000853444)
(0.00222976 0.00102279 -0.000853444)
(0.00213213 0.00121323 -0.000853443)
(0.00201828 0.00139444 -0.000853443)
(0.00188907 0.00156504 -0.000853443)
(0.00174548 0.00172373 -0.000853443)
(0.0015886 0.0018693 -0.000853445)
(0.00141963 0.00200064 -0.000853445)
(0.00123987 0.00211676 -0.000853445)
(0.00105066 0.00221676 -0.000853447)
(0.00085346 0.0022999 -0.00085345)
(0.000649763 0.00236553 -0.000853449)
(0.000441119 0.00241316 -0.000853448)
(0.000229119 0.00244242 -0.000853447)
(1.53773e-05 0.0024531 -0.000853443)
(-0.000198483 0.0024451 -0.000853443)
(-0.000410832 0.0024185 -0.000853443)
(-0.000620055 0.00237349 -0.000853446)
(-0.00082456 0.00231042 -0.000853444)
(-0.00102279 0.00222976 -0.000853444)
(-0.00121323 0.00213213 -0.000853443)
(-0.00139444 0.00201828 -0.000853443)
(-0.00156504 0.00188907 -0.000853443)
(-0.00172373 0.00174548 -0.000853443)
(-0.0018693 0.0015886 -0.000853445)
(-0.00200064 0.00141964 -0.000853445)
(-0.00229736 0.0016143 -0.000636336)
(-0.00242931 0.00140793 -0.000636337)
(-0.00254278 0.00119084 -0.000636338)
(-0.00263689 0.000964694 -0.000636339)
(-0.00271093 0.000731202 -0.000636339)
(-0.00276435 0.000492147 -0.000636337)
(-0.00279672 0.000249344 -0.000636335)
(-0.00280781 4.64538e-06 -0.000636334)
(-0.00279753 -0.000240088 -0.000636334)
(-0.00276596 -0.000482995 -0.000636335)
(-0.00271334 -0.000722227 -0.000636335)
(-0.00264007 -0.000955962 -0.000636335)
(-0.0025467 -0.00118242 -0.000636335)
(-0.00243396 -0.00139988 -0.000636335)
(-0.00230269 -0.00160669 -0.000636334)
(-0.00215389 -0.00180127 -0.000636335)
(-0.00198871 -0.00198214 -0.000636336)
(-0.00180839 -0.00214792 -0.000636336)
(-0.0016143 -0.00229736 -0.000636336)
(-0.00140793 -0.00242931 -0.000636337)
(-0.00119084 -0.00254278 -0.000636338)
(-0.000964694 -0.00263689 -0.000636339)
(-0.000731202 -0.00271093 -0.000636338)
(-0.000492147 -0.00276435 -0.000636337)
(-0.000249344 -0.00279672 -0.000636335)
(-4.64541e-06 -0.00280781 -0.000636334)
(0.000240088 -0.00279753 -0.000636334)
(0.000482995 -0.00276596 -0.000636335)
(0.000722227 -0.00271334 -0.000636336)
(0.000955962 -0.00264007 -0.000636336)