/*--------------------------------*- C++ -*----------------------------------*\
| =========                 |                                                 |
| \\      /  F ield         | OpenFOAM: The Open Source CFD Toolbox           |
|  \\    /   O peration     | Version:  2312                                  |
|   \\  /    A nd           | Website:  www.openfoam.com                      |
|    \\/     M anipulation  |                                                 |
\*---------------------------------------------------------------------------*/
FoamFile
{
    version     2.0;
    format      ascii;
    arch        "LSB;label=32;scalar=64";
    class       volVectorField;
    location    "0.8";
    object      D_0;
}
// * * * * * * * * * * * * * * * * * * * * * * * * * * * * * * * * * * * * * //

dimensions      [0 1 0 0 0 0 0];

internalField   nonuniform List<vector> 
3240
(
(-0.000518081 0.00016224 -0.000115604)
(-0.000530249 0.000116471 -0.000115603)
(-0.000538381 6.9812e-05 -0.000115605)
(-0.000542416 2.26209e-05 -0.000115606)
(-0.000542326 -2.47411e-05 -0.000115606)
(-0.000538106 -7.19138e-05 -0.000115604)
(-0.000529791 -0.000118537 -0.000115602)
(-0.000517444 -0.000164259 -0.000115601)
(-0.000501159 -0.00020873 -0.000115602)
(-0.00048106 -0.000251614 -0.000115604)
(-0.000457299 -0.000292584 -0.000115605)
(-0.000430058 -0.000331329 -0.000115606)
(-0.000399545 -0.000367553 -0.000115605)
(-0.00036599 -0.000400977 -0.000115604)
(-0.000329651 -0.000431346 -0.000115602)
(-0.000290802 -0.000458435 -0.000115603)
(-0.000249739 -0.000482037 -0.000115606)
(-0.000206777 -0.000501969 -0.000115604)
(-0.00016224 -0.000518081 -0.000115604)
(-0.000116471 -0.000530249 -0.000115603)
(-6.98119e-05 -0.000538381 -0.000115605)
(-2.26209e-05 -0.000542416 -0.000115606)
(2.47411e-05 -0.000542326 -0.000115606)
(7.19137e-05 -0.000538106 -0.000115604)
(0.000118537 -0.000529791 -0.000115602)
(0.000164259 -0.000517444 -0.000115601)
(0.00020873 -0.000501159 -0.000115603)
(0.000251614 -0.00048106 -0.000115604)
(0.000292584 -0.000457299 -0.000115605)
(0.000331329 -0.000430058 -0.000115606)
(0.000367553 -0.000399545 -0.000115605)
(0.000400977 -0.00036599 -0.000115604)
(0.000431346 -0.000329651 -0.000115602)
(0.000458435 -0.000290802 -0.000115603)
(0.000482037 -0.000249739 -0.000115606)
(0.000501969 -0.000206777 -0.000115604)
(0.000518081 -0.00016224 -0.000115604)
(0.000530249 -0.000116471 -0.000115603)
(0.000538381 -6.98119e-05 -0.000115605)
(0.000542416 -2.26208e-05 -0.000115606)
(0.000542326 2.47411e-05 -0.000115606)
(0.000538106 7.19138e-05 -0.000115604)
(0.000529791 0.000118537 -0.000115602)
(0.000517444 0.000164259 -0.000115601)
(0.000501159 0.00020873 -0.000115603)
(0.00048106 0.000251614 -0.000115604)
(0.000457299 0.000292584 -0.000115605)
(0.000430058 0.00033133 -0.000115606)
(0.000399545 0.000367553 -0.000115605)
(0.00036599 0.000400977 -0.000115604)
(0.000329651 0.000431346 -0.000115602)
(0.000290802 0.000458435 -0.000115603)
(0.000249739 0.000482037 -0.000115606)
(0.000206777 0.000501969 -0.000115604)
(0.00016224 0.000518081 -0.000115604)
(0.000116471 0.000530249 -0.000115603)
(6.98119e-05 0.000538381 -0.000115605)
(2.26209e-05 0.000542416 -0.000115606)
(-2.47411e-05 0.000542326 -0.000115606)
(-7.19138e-05 0.000538106 -0.000115605)
(-0.000118537 0.000529791 -0.000115602)
(-0.000164259 0.000517444 -0.000115601)
(-0.00020873 0.000501159 -0.000115603)
(-0.000251614 0.00048106 -0.000115604)
(-0.000292584 0.000457299 -0.000115605)
(-0.00033133 0.000430058 -0.000115606)
(-0.000367553 0.000399545 -0.000115605)
(-0.000400977 0.00036599 -0.000115604)
(-0.000431346 0.000329651 -0.000115602)
(-0.000458435 0.000290802 -0.000115603)
(-0.000482037 0.000249739 -0.000115606)
(-0.000501969 0.000206777 -0.000115604)
(-0.000470218 0.000116706 -0.000109785)
(-0.000478601 7.52797e-05 -0.000109784)
(-0.00048334 3.32798e-05 -0.000109785)
(-0.000484401 -8.97384e-06 -0.000109785)
(-0.000481776 -5.11587e-05 -0.000109785)
(-0.000475484 -9.29534e-05 -0.000109785)
(-0.000465573 -0.000134041 -0.000109784)
(-0.000452119 -0.000174106 -0.000109783)
(-0.000435225 -0.000212847 -0.000109784)
(-0.000415019 -0.00024997 -0.000109785)
(-0.000391653 -0.00028519 -0.000109785)
(-0.000365307 -0.000318241 -0.000109785)
(-0.00033618 -0.00034887 -0.000109784)
(-0.000304495 -0.000376842 -0.000109784)
(-0.000270492 -0.000401945 -0.000109784)
(-0.000234431 -0.00042399 -0.000109784)
(-0.000196585 -0.000442809 -0.000109785)
(-0.000157244 -0.000458257 -0.000109784)
(-0.000116706 -0.000470218 -0.000109785)
(-7.52797e-05 -0.000478601 -0.000109784)
(-3.32798e-05 -0.00048334 -0.000109785)
(8.97384e-06 -0.000484401 -0.000109785)
(5.11587e-05 -0.000481776 -0.000109785)
(9.29534e-05 -0.000475484 -0.000109785)
(0.000134041 -0.000465573 -0.000109784)
(0.000174106 -0.000452119 -0.000109783)
(0.000212847 -0.000435225 -0.000109784)
(0.00024997 -0.000415019 -0.000109785)
(0.00028519 -0.000391653 -0.000109785)
(0.000318241 -0.000365307 -0.000109785)
(0.00034887 -0.00033618 -0.000109784)
(0.000376842 -0.000304495 -0.000109784)
(0.000401945 -0.000270492 -0.000109784)
(0.00042399 -0.000234431 -0.000109784)
(0.000442809 -0.000196585 -0.000109785)
(0.000458257 -0.000157244 -0.000109785)
(0.000470218 -0.000116706 -0.000109785)
(0.000478601 -7.52797e-05 -0.000109784)
(0.00048334 -3.32798e-05 -0.000109785)
(0.000484401 8.97386e-06 -0.000109785)
(0.000481776 5.11587e-05 -0.000109785)
(0.000475484 9.29534e-05 -0.000109785)
(0.000465573 0.000134041 -0.000109784)
(0.000452119 0.000174106 -0.000109783)
(0.000435225 0.000212847 -0.000109784)
(0.000415019 0.00024997 -0.000109785)
(0.000391653 0.00028519 -0.000109785)
(0.000365307 0.000318241 -0.000109785)
(0.00033618 0.00034887 -0.000109784)
(0.000304495 0.000376842 -0.000109784)
(0.000270492 0.000401945 -0.000109784)
(0.000234431 0.00042399 -0.000109784)
(0.000196585 0.000442809 -0.000109785)
(0.000157244 0.000458257 -0.000109785)
(0.000116706 0.000470218 -0.000109785)
(7.52797e-05 0.000478601 -0.000109784)
(3.32798e-05 0.00048334 -0.000109785)
(-8.97386e-06 0.000484401 -0.000109785)
(-5.11587e-05 0.000481776 -0.000109785)
(-9.29534e-05 0.000475484 -0.000109785)
(-0.000134041 0.000465573 -0.000109784)
(-0.000174106 0.000452119 -0.000109784)
(-0.000212847 0.000435225 -0.000109784)
(-0.00024997 0.000415019 -0.000109785)
(-0.00028519 0.000391653 -0.000109785)
(-0.000318241 0.000365307 -0.000109785)
(-0.00034887 0.00033618 -0.000109784)
(-0.000376842 0.000304495 -0.000109784)
(-0.000401945 0.000270492 -0.000109784)
(-0.00042399 0.000234431 -0.000109784)
(-0.000442809 0.000196585 -0.000109785)
(-0.000458257 0.000157244 -0.000109784)
(-0.000425184 0.000235063 -7.61794e-05)
(-0.000444053 0.000197112 -7.61792e-05)
(-0.000459543 0.000157659 -7.61786e-05)
(-0.000471535 0.000117006 -7.61787e-05)
(-0.00047994 7.54643e-05 -7.61794e-05)
(-0.000484689 3.33482e-05 -7.61798e-05)
(-0.00048575 -9.02256e-06 -7.61798e-05)
(-0.000483116 -5.13231e-05 -7.61806e-05)
(-0.000476806 -9.32329e-05 -7.61804e-05)
(-0.000466867 -0.000134435 -7.61807e-05)
(-0.000453373 -0.000174614 -7.61796e-05)
(-0.00043643 -0.000213464 -7.61787e-05)
(-0.000416164 -0.00025069 -7.61779e-05)
(-0.000392732 -0.000286008 -7.61787e-05)
(-0.000366309 -0.000319147 -7.61797e-05)
(-0.000337101 -0.000349858 -7.61799e-05)
(-0.000305324 -0.000377906 -7.61793e-05)
(-0.000271226 -0.000403079 -7.61791e-05)
(-0.000235063 -0.000425184 -7.61794e-05)
(-0.000197112 -0.000444053 -7.61792e-05)
(-0.000157659 -0.000459543 -7.61786e-05)
(-0.000117006 -0.000471535 -7.61787e-05)
(-7.54643e-05 -0.00047994 -7.61794e-05)
(-3.33482e-05 -0.000484689 -7.61798e-05)
(9.02253e-06 -0.00048575 -7.61799e-05)
(5.13231e-05 -0.000483116 -7.61806e-05)
(9.32329e-05 -0.000476806 -7.61805e-05)
(0.000134435 -0.000466867 -7.61808e-05)
(0.000174614 -0.000453373 -7.61796e-05)
(0.000213464 -0.00043643 -7.61788e-05)
(0.00025069 -0.000416164 -7.61779e-05)
(0.000286008 -0.000392732 -7.61787e-05)
(0.000319147 -0.000366309 -7.61797e-05)
(0.000349858 -0.000337101 -7.61799e-05)
(0.000377906 -0.000305324 -7.61793e-05)
(0.000403079 -0.000271226 -7.61791e-05)
(0.000425184 -0.000235063 -7.61794e-05)
(0.000444053 -0.000197112 -7.61792e-05)
(0.000459543 -0.000157659 -7.61786e-05)
(0.000471535 -0.000117006 -7.61787e-05)
(0.00047994 -7.54643e-05 -7.61794e-05)
(0.000484689 -3.33482e-05 -7.61799e-05)
(0.00048575 9.02253e-06 -7.61799e-05)
(0.000483116 5.13231e-05 -7.61807e-05)
(0.000476806 9.32329e-05 -7.61805e-05)
(0.000466867 0.000134435 -7.61808e-05)
(0.000453373 0.000174614 -7.61797e-05)
(0.00043643 0.000213464 -7.61788e-05)
(0.000416164 0.00025069 -7.6178e-05)
(0.000392732 0.000286008 -7.61788e-05)
(0.000366309 0.000319147 -7.61797e-05)
(0.000337101 0.000349858 -7.61799e-05)
(0.000305324 0.000377906 -7.61793e-05)
(0.000271226 0.000403079 -7.61791e-05)
(0.000235063 0.000425184 -7.61794e-05)
(0.000197112 0.000444053 -7.61792e-05)
(0.000157659 0.000459543 -7.61786e-05)
(0.000117006 0.000471535 -7.61787e-05)
(7.54643e-05 0.00047994 -7.61794e-05)
(3.33482e-05 0.000484689 -7.61799e-05)
(-9.02253e-06 0.00048575 -7.61799e-05)
(-5.13231e-05 0.000483116 -7.61807e-05)
(-9.32329e-05 0.000476806 -7.61805e-05)
(-0.000134435 0.000466867 -7.61808e-05)
(-0.000174614 0.000453373 -7.61797e-05)
(-0.000213464 0.00043643 -7.61788e-05)
(-0.00025069 0.000416164 -7.6178e-05)
(-0.000286008 0.000392732 -7.61788e-05)
(-0.000319147 0.000366309 -7.61797e-05)
(-0.000349858 0.000337101 -7.61799e-05)
(-0.000377906 0.000305324 -7.61793e-05)
(-0.000403079 0.000271226 -7.61791e-05)
(-0.00131402 0.000424965 -0.000356296)
(-0.00134606 0.000308824 -0.000356295)
(-0.00136785 0.00019033 -0.000356299)
(-0.00137924 7.03874e-05 -0.000356301)
(-0.00138012 -5.00909e-05 -0.000356301)
(-0.00137051 -0.000170186 -0.000356298)
(-0.00135046 -0.000288985 -0.000356292)
(-0.00132014 -0.000405582 -0.000356289)
(-0.00127976 -0.000519093 -0.000356288)
(-0.00122965 -0.000628653 -0.00035629)
(-0.00117018 -0.000733433 -0.000356295)
(-0.0011018 -0.000832632 -0.000356298)
(-0.00102504 -0.000925496 -0.000356298)
(-0.00094048 -0.00101131 -0.000356295)
(-0.00084876 -0.00108943 -0.000356294)
(-0.00075058 -0.00115926 -0.000356294)
(-0.000646686 -0.00122026 -0.000356299)
(-0.000537872 -0.00127199 -0.000356298)
(-0.000424965 -0.00131402 -0.000356296)
(-0.000308824 -0.00134606 -0.000356295)
(-0.00019033 -0.00136785 -0.000356299)
(-7.03873e-05 -0.00137923 -0.000356301)
(5.0091e-05 -0.00138012 -0.000356301)
(0.000170186 -0.00137051 -0.000356298)
(0.000288985 -0.00135046 -0.000356292)
(0.000405582 -0.00132014 -0.000356289)
(0.000519092 -0.00127976 -0.000356288)
(0.000628653 -0.00122965 -0.00035629)
(0.000733433 -0.00117018 -0.000356295)
(0.000832632 -0.0011018 -0.000356298)
(0.000925496 -0.00102504 -0.000356298)
(0.00101131 -0.00094048 -0.000356295)
(0.00108943 -0.00084876 -0.000356294)
(0.00115926 -0.00075058 -0.000356294)
(0.00122026 -0.000646686 -0.000356299)
(0.00127199 -0.000537872 -0.000356298)
(0.00131402 -0.000424965 -0.000356296)
(0.00134606 -0.000308824 -0.000356295)
(0.00136785 -0.00019033 -0.000356299)
(0.00137923 -7.03873e-05 -0.000356301)
(0.00138012 5.0091e-05 -0.000356301)
(0.00137051 0.000170186 -0.000356298)
(0.00135046 0.000288985 -0.000356292)
(0.00132014 0.000405582 -0.000356289)
(0.00127976 0.000519093 -0.000356288)
(0.00122965 0.000628653 -0.00035629)
(0.00117018 0.000733433 -0.000356295)
(0.0011018 0.000832632 -0.000356298)
(0.00102504 0.000925496 -0.000356298)
(0.00094048 0.00101131 -0.000356295)
(0.00084876 0.00108943 -0.000356294)
(0.00075058 0.00115926 -0.000356294)
(0.000646686 0.00122026 -0.000356299)
(0.000537872 0.00127199 -0.000356298)
(0.000424965 0.00131402 -0.000356296)
(0.000308824 0.00134606 -0.000356295)
(0.00019033 0.00136785 -0.000356299)
(7.03873e-05 0.00137923 -0.000356301)
(-5.0091e-05 0.00138012 -0.000356301)
(-0.000170186 0.00137051 -0.000356298)
(-0.000288985 0.00135046 -0.000356292)
(-0.000405582 0.00132014 -0.000356289)
(-0.000519093 0.00127976 -0.000356288)
(-0.000628653 0.00122965 -0.00035629)
(-0.000733433 0.00117018 -0.000356295)
(-0.000832632 0.0011018 -0.000356298)
(-0.000925496 0.00102504 -0.000356298)
(-0.00101131 0.00094048 -0.000356295)
(-0.00108943 0.00084876 -0.000356294)
(-0.00115926 0.00075058 -0.000356294)
(-0.00122026 0.000646686 -0.000356299)
(-0.00127199 0.000537872 -0.000356298)
(-0.00133264 0.000495773 -0.000258927)
(-0.00137078 0.00037774 -0.000258926)
(-0.00139848 0.00025683 -0.000258927)
(-0.00141555 0.000133965 -0.000258927)
(-0.00142184 1.00813e-05 -0.000258927)
(-0.0014173 -0.000113878 -0.000258926)
(-0.00140199 -0.00023697 -0.000258925)
(-0.001376 -0.000358257 -0.000258924)
(-0.00133954 -0.000476818 -0.000258923)
(-0.00129289 -0.000591752 -0.000258923)
(-0.00123639 -0.000702183 -0.000258923)
(-0.00117049 -0.000807272 -0.000258925)
(-0.00109567 -0.000906216 -0.000258925)
(-0.00101252 -0.000998262 -0.000258925)
(-0.000921665 -0.00108271 -0.000258925)
(-0.000823793 -0.00115892 -0.000258925)
(-0.000719652 -0.0012263 -0.000258926)
(-0.000610034 -0.00128436 -0.000258926)
(-0.000495773 -0.00133264 -0.000258927)
(-0.00037774 -0.00137078 -0.000258926)
(-0.00025683 -0.00139848 -0.000258927)
(-0.000133965 -0.00141555 -0.000258927)
(-1.00813e-05 -0.00142184 -0.000258927)
(0.000113878 -0.0014173 -0.000258926)
(0.000236969 -0.00140199 -0.000258925)
(0.000358257 -0.001376 -0.000258924)
(0.000476818 -0.00133954 -0.000258923)
(0.000591752 -0.00129289 -0.000258923)
(0.000702183 -0.00123639 -0.000258924)
(0.000807272 -0.00117049 -0.000258925)
(0.000906216 -0.00109567 -0.000258925)
(0.000998262 -0.00101252 -0.000258925)
(0.00108271 -0.000921665 -0.000258925)
(0.00115892 -0.000823793 -0.000258925)
(0.0012263 -0.000719652 -0.000258926)
(0.00128436 -0.000610034 -0.000258926)
(0.00133264 -0.000495773 -0.000258927)
(0.00137078 -0.00037774 -0.000258926)
(0.00139848 -0.00025683 -0.000258927)
(0.00141555 -0.000133965 -0.000258927)
(0.00142184 -1.00812e-05 -0.000258927)
(0.0014173 0.000113878 -0.000258926)
(0.00140199 0.000236969 -0.000258925)
(0.001376 0.000358257 -0.000258924)
(0.00133954 0.000476818 -0.000258923)
(0.00129289 0.000591752 -0.000258923)
(0.00123639 0.000702183 -0.000258924)
(0.00117049 0.000807272 -0.000258925)
(0.00109567 0.000906216 -0.000258925)
(0.00101252 0.000998262 -0.000258925)
(0.000921665 0.00108271 -0.000258925)
(0.000823793 0.00115892 -0.000258925)
(0.000719652 0.0012263 -0.000258926)
(0.000610034 0.00128436 -0.000258926)
(0.000495773 0.00133264 -0.000258927)
(0.00037774 0.00137078 -0.000258926)
(0.00025683 0.00139848 -0.000258927)
(0.000133965 0.00141555 -0.000258927)
(1.00812e-05 0.00142184 -0.000258927)
(-0.000113878 0.0014173 -0.000258926)
(-0.00023697 0.00140199 -0.000258925)
(-0.000358257 0.001376 -0.000258924)
(-0.000476818 0.00133954 -0.000258923)
(-0.000591752 0.00129289 -0.000258923)
(-0.000702183 0.00123639 -0.000258924)
(-0.000807272 0.00117049 -0.000258925)
(-0.000906216 0.00109567 -0.000258925)
(-0.000998262 0.00101252 -0.000258925)
(-0.00108271 0.000921665 -0.000258925)
(-0.00115892 0.000823793 -0.000258925)
(-0.0012263 0.000719652 -0.000258926)
(-0.00128436 0.000610034 -0.000258926)
(-0.00137445 0.000757289 -0.000124536)
(-0.00143522 0.000634617 -0.000124535)
(-0.00148507 0.000507113 -0.000124535)
(-0.00152362 0.00037575 -0.000124535)
(-0.00155057 0.000241527 -0.000124534)
(-0.00156572 0.000105468 -0.000124536)
(-0.00156895 -3.13939e-05 -0.000124537)
(-0.00156024 -0.000168016 -0.000124538)
(-0.00153966 -0.000303359 -0.000124537)
(-0.00150737 -0.000436396 -0.000124535)
(-0.0014636 -0.000566112 -0.000124534)
(-0.00140869 -0.000691521 -0.000124534)
(-0.00134306 -0.000811666 -0.000124534)
(-0.00126721 -0.000925632 -0.000124535)
(-0.00118171 -0.00103255 -0.000124536)
(-0.00108722 -0.00113161 -0.000124536)
(-0.000984456 -0.00122207 -0.000124535)
(-0.000874199 -0.00130322 -0.000124535)
(-0.000757289 -0.00137445 -0.000124536)
(-0.000634617 -0.00143522 -0.000124535)
(-0.000507113 -0.00148507 -0.000124535)
(-0.00037575 -0.00152362 -0.000124535)
(-0.000241527 -0.00155057 -0.000124535)
(-0.000105468 -0.00156572 -0.000124536)
(3.13939e-05 -0.00156895 -0.000124537)
(0.000168016 -0.00156024 -0.000124538)
(0.000303359 -0.00153966 -0.000124537)
(0.000436396 -0.00150737 -0.000124535)
(0.000566112 -0.0014636 -0.000124534)
(0.000691521 -0.00140869 -0.000124534)
(0.000811666 -0.00134306 -0.000124534)
(0.000925632 -0.00126721 -0.000124535)
(0.00103255 -0.00118171 -0.000124536)
(0.00113161 -0.00108722 -0.000124536)
(0.00122207 -0.000984456 -0.000124535)
(0.00130322 -0.000874199 -0.000124535)
(0.00137445 -0.000757289 -0.000124536)
(0.00143522 -0.000634617 -0.000124535)
(0.00148507 -0.000507113 -0.000124535)
(0.00152362 -0.00037575 -0.000124535)
(0.00155057 -0.000241527 -0.000124535)
(0.00156572 -0.000105468 -0.000124536)
(0.00156895 3.13939e-05 -0.000124537)
(0.00156024 0.000168016 -0.000124538)
(0.00153966 0.000303359 -0.000124538)
(0.00150737 0.000436396 -0.000124536)
(0.0014636 0.000566112 -0.000124534)
(0.00140869 0.000691521 -0.000124534)
(0.00134306 0.000811666 -0.000124534)
(0.00126721 0.000925632 -0.000124535)
(0.00118171 0.00103255 -0.000124536)
(0.00108722 0.00113161 -0.000124536)
(0.000984456 0.00122207 -0.000124535)
(0.000874199 0.00130322 -0.000124535)
(0.000757289 0.00137445 -0.000124536)
(0.000634617 0.00143522 -0.000124535)
(0.000507113 0.00148507 -0.000124535)
(0.00037575 0.00152362 -0.000124535)
(0.000241527 0.00155057 -0.000124535)
(0.000105468 0.00156572 -0.000124536)
(-3.13939e-05 0.00156895 -0.000124537)
(-0.000168016 0.00156024 -0.000124538)
(-0.000303359 0.00153966 -0.000124538)
(-0.000436396 0.00150737 -0.000124536)
(-0.000566112 0.0014636 -0.000124534)
(-0.000691521 0.00140869 -0.000124534)
(-0.000811666 0.00134306 -0.000124534)
(-0.000925632 0.00126721 -0.000124535)
(-0.00103255 0.00118171 -0.000124536)
(-0.00113161 0.00108722 -0.000124536)
(-0.00122207 0.000984456 -0.000124535)
(-0.00130322 0.000874199 -0.000124535)
(-0.00185871 0.000749698 -0.000599256)
(-0.00191698 0.000584847 -0.000599256)
(-0.00196066 0.000415546 -0.000599257)
(-0.00198941 0.000243082 -0.000599257)
(-0.00200303 6.87668e-05 -0.000599258)
(-0.0020014 -0.000106071 -0.000599255)
(-0.00198454 -0.0002801 -0.00059925)
(-0.00195258 -0.000451997 -0.000599249)
(-0.00190576 -0.000620456 -0.000599248)
(-0.00184443 -0.000784191 -0.000599249)
(-0.00176906 -0.000941957 -0.000599249)
(-0.00168023 -0.00109256 -0.000599252)
(-0.00157861 -0.00123484 -0.000599252)
(-0.00146498 -0.00136773 -0.000599252)
(-0.0013402 -0.00149021 -0.000599252)
(-0.00120522 -0.00160134 -0.000599251)
(-0.00106107 -0.00170029 -0.000599255)
(-0.000908842 -0.0017863 -0.000599257)
(-0.000749698 -0.00185871 -0.000599256)
(-0.000584847 -0.00191698 -0.000599256)
(-0.000415546 -0.00196066 -0.000599257)
(-0.000243082 -0.00198941 -0.000599257)
(-6.87667e-05 -0.00200303 -0.000599258)
(0.000106071 -0.0020014 -0.000599254)
(0.0002801 -0.00198454 -0.000599249)
(0.000451997 -0.00195258 -0.000599249)
(0.000620455 -0.00190576 -0.000599248)
(0.000784191 -0.00184443 -0.000599249)
(0.000941957 -0.00176906 -0.000599249)
(0.00109256 -0.00168023 -0.000599252)
(0.00123484 -0.00157861 -0.000599252)
(0.00136773 -0.00146498 -0.000599251)
(0.00149021 -0.0013402 -0.000599252)
(0.00160134 -0.00120522 -0.000599251)
(0.00170029 -0.00106107 -0.000599255)
(0.0017863 -0.000908842 -0.000599257)
(0.00185871 -0.000749698 -0.000599256)
(0.00191698 -0.000584847 -0.000599256)
(0.00196066 -0.000415546 -0.000599258)
(0.00198941 -0.000243082 -0.000599257)
(0.00200303 -6.87666e-05 -0.000599258)
(0.0020014 0.000106071 -0.000599255)
(0.00198454 0.0002801 -0.00059925)
(0.00195258 0.000451997 -0.000599249)
(0.00190576 0.000620456 -0.000599248)
(0.00184443 0.000784191 -0.000599249)
(0.00176906 0.000941957 -0.000599249)
(0.00168023 0.00109256 -0.000599252)
(0.00157861 0.00123484 -0.000599252)
(0.00146498 0.00136773 -0.000599251)
(0.0013402 0.00149021 -0.000599252)
(0.00120522 0.00160134 -0.000599251)
(0.00106107 0.00170029 -0.000599255)
(0.000908842 0.0017863 -0.000599257)
(0.000749698 0.00185871 -0.000599256)
(0.000584847 0.00191698 -0.000599256)
(0.000415546 0.00196066 -0.000599257)
(0.000243082 0.00198941 -0.000599257)
(6.87666e-05 0.00200303 -0.000599258)
(-0.000106071 0.0020014 -0.000599255)
(-0.0002801 0.00198454 -0.00059925)
(-0.000451997 0.00195258 -0.000599249)
(-0.000620456 0.00190576 -0.000599248)
(-0.000784191 0.00184443 -0.000599249)
(-0.000941957 0.00176906 -0.000599249)
(-0.00109256 0.00168023 -0.000599252)
(-0.00123484 0.00157861 -0.000599252)
(-0.00136773 0.00146498 -0.000599251)
(-0.00149021 0.0013402 -0.000599252)
(-0.00160134 0.00120522 -0.000599251)
(-0.00170029 0.00106107 -0.000599255)
(-0.0017863 0.000908842 -0.000599257)
(-0.00196772 0.00100929 -0.000412938)
(-0.0020482 0.000833948 -0.000412938)
(-0.00211309 0.000652262 -0.000412939)
(-0.00216189 0.000465613 -0.000412939)
(-0.00219425 0.000275418 -0.000412938)
(-0.0022099 8.31287e-05 -0.000412938)
(-0.00220874 -0.000109792 -0.000412936)
(-0.00219076 -0.000301878 -0.000412935)
(-0.00215612 -0.000491667 -0.000412935)
(-0.00210506 -0.000677714 -0.000412934)
(-0.00203799 -0.000858603 -0.000412935)
(-0.0019554 -0.00103296 -0.000412936)
(-0.00185793 -0.00119945 -0.000412936)
(-0.00174632 -0.00135682 -0.000412935)
(-0.00162142 -0.00150386 -0.000412936)
(-0.00148418 -0.00163945 -0.000412936)
(-0.00133564 -0.00176257 -0.000412937)
(-0.00117694 -0.00187227 -0.000412937)
(-0.00100929 -0.00196772 -0.000412938)
(-0.000833948 -0.0020482 -0.000412938)
(-0.000652262 -0.00211309 -0.000412939)
(-0.000465612 -0.00216189 -0.000412939)
(-0.000275418 -0.00219425 -0.000412938)
(-8.31287e-05 -0.0022099 -0.000412938)
(0.000109792 -0.00220874 -0.000412936)
(0.000301878 -0.00219076 -0.000412936)
(0.000491667 -0.00215612 -0.000412935)
(0.000677713 -0.00210506 -0.000412934)
(0.000858603 -0.00203799 -0.000412935)
(0.00103296 -0.0019554 -0.000412936)
(0.00119945 -0.00185793 -0.000412936)
(0.00135682 -0.00174632 -0.000412935)
(0.00150386 -0.00162142 -0.000412936)
(0.00163945 -0.00148418 -0.000412936)
(0.00176257 -0.00133564 -0.000412937)
(0.00187227 -0.00117694 -0.000412937)
(0.00196772 -0.00100929 -0.000412938)
(0.0020482 -0.000833948 -0.000412938)
(0.00211309 -0.000652262 -0.000412939)
(0.00216189 -0.000465612 -0.000412939)
(0.00219425 -0.000275418 -0.000412938)
(0.0022099 -8.31286e-05 -0.000412938)
(0.00220874 0.000109792 -0.000412936)
(0.00219076 0.000301878 -0.000412936)
(0.00215612 0.000491667 -0.000412935)
(0.00210506 0.000677714 -0.000412935)
(0.00203799 0.000858603 -0.000412935)
(0.0019554 0.00103296 -0.000412936)
(0.00185793 0.00119945 -0.000412936)
(0.00174632 0.00135682 -0.000412935)
(0.00162142 0.00150386 -0.000412936)
(0.00148418 0.00163945 -0.000412936)
(0.00133564 0.00176257 -0.000412937)
(0.00117694 0.00187227 -0.000412937)
(0.00100929 0.00196772 -0.000412938)
(0.000833948 0.0020482 -0.000412938)
(0.000652262 0.00211309 -0.000412939)
(0.000465612 0.00216189 -0.000412939)
(0.000275418 0.00219425 -0.000412938)
(8.31286e-05 0.0022099 -0.000412938)
(-0.000109792 0.00220874 -0.000412936)
(-0.000301878 0.00219076 -0.000412936)
(-0.000491667 0.00215612 -0.000412935)
(-0.000677714 0.00210506 -0.000412935)
(-0.000858603 0.00203799 -0.000412935)
(-0.00103296 0.0019554 -0.000412936)
(-0.00119945 0.00185793 -0.000412936)
(-0.00135682 0.00174632 -0.000412935)
(-0.00150386 0.00162142 -0.000412936)
(-0.00163945 0.00148418 -0.000412936)
(-0.00176257 0.00133564 -0.000412937)
(-0.00187227 0.00117694 -0.000412937)
(-0.00212368 0.00135102 -0.000240937)
(-0.00223335 0.00116079 -0.000240937)
(-0.00232602 0.000961722 -0.000240937)
(-0.00240099 0.000755336 -0.000240937)
(-0.00245768 0.000543201 -0.000240937)
(-0.00249568 0.000326934 -0.000240937)
(-0.00251467 0.000108178 -0.000240937)
(-0.00251453 -0.000111401 -0.000240938)
(-0.00249525 -0.000330133 -0.000240938)
(-0.00245699 -0.000546353 -0.000240937)
(-0.00240002 -0.000758415 -0.000240937)
(-0.00232479 -0.000964705 -0.000240937)
(-0.00223186 -0.00116365 -0.000240937)
(-0.00212195 -0.00135374 -0.000240937)
(-0.00199589 -0.00153353 -0.000240937)
(-0.00185464 -0.00170165 -0.000240937)
(-0.00169927 -0.00185682 -0.000240937)
(-0.00153097 -0.00199785 -0.000240937)
(-0.00135102 -0.00212368 -0.000240937)
(-0.00116079 -0.00223335 -0.000240937)
(-0.000961722 -0.00232602 -0.000240937)
(-0.000755336 -0.00240099 -0.000240937)
(-0.000543201 -0.00245768 -0.000240937)
(-0.000326934 -0.00249568 -0.000240937)
(-0.000108178 -0.00251467 -0.000240938)
(0.000111401 -0.00251453 -0.000240938)
(0.000330133 -0.00249525 -0.000240938)
(0.000546353 -0.00245699 -0.000240937)
(0.000758415 -0.00240002 -0.000240937)
(0.000964705 -0.00232479 -0.000240937)
(0.00116365 -0.00223186 -0.000240937)
(0.00135374 -0.00212195 -0.000240937)
(0.00153353 -0.00199589 -0.000240937)
(0.00170165 -0.00185464 -0.000240937)
(0.00185682 -0.00169927 -0.000240937)
(0.00199785 -0.00153097 -0.000240937)
(0.00212368 -0.00135102 -0.000240937)
(0.00223335 -0.00116079 -0.000240937)
(0.00232602 -0.000961722 -0.000240937)
(0.00240099 -0.000755336 -0.000240937)
(0.00245768 -0.000543201 -0.000240937)
(0.00249568 -0.000326934 -0.000240937)
(0.00251467 -0.000108178 -0.000240938)
(0.00251453 0.000111401 -0.000240938)
(0.00249525 0.000330133 -0.000240938)
(0.00245699 0.000546353 -0.000240937)
(0.00240002 0.000758415 -0.000240937)
(0.00232479 0.000964705 -0.000240937)
(0.00223186 0.00116365 -0.000240937)
(0.00212195 0.00135374 -0.000240937)
(0.00199589 0.00153353 -0.000240937)
(0.00185464 0.00170165 -0.000240937)
(0.00169927 0.00185682 -0.000240937)
(0.00153097 0.00199785 -0.000240937)
(0.00135102 0.00212368 -0.000240937)
(0.00116079 0.00223335 -0.000240937)
(0.000961722 0.00232602 -0.000240937)
(0.000755336 0.00240099 -0.000240937)
(0.000543201 0.00245768 -0.000240937)
(0.000326934 0.00249568 -0.000240937)
(0.000108178 0.00251467 -0.000240938)
(-0.000111401 0.00251453 -0.000240938)
(-0.000330133 0.00249525 -0.000240938)
(-0.000546353 0.00245699 -0.000240937)
(-0.000758415 0.00240002 -0.000240937)
(-0.000964705 0.00232479 -0.000240937)
(-0.00116365 0.00223186 -0.000240937)
(-0.00135374 0.00212195 -0.000240937)
(-0.00153353 0.00199589 -0.000240937)
(-0.00170165 0.00185464 -0.000240937)
(-0.00185682 0.00169927 -0.000240937)
(-0.00199785 0.00153097 -0.000240937)
(-0.00209981 0.00124451 -0.00085799)
(-0.00220029 0.00105677 -0.000857992)
(-0.00228402 0.000860979 -0.000857995)
(-0.00235036 0.000658638 -0.000857994)
(-0.00239882 0.000451283 -0.000857993)
(-0.00242903 0.000240493 -0.000857992)
(-0.00244075 2.78753e-05 -0.000857988)
(-0.00243389 -0.000184956 -0.000857987)
(-0.0024085 -0.000396379 -0.000857987)
(-0.00236479 -0.000604786 -0.000857991)
(-0.00230308 -0.00080859 -0.000857989)
(-0.00222385 -0.00100624 -0.000857989)
(-0.00212768 -0.00119623 -0.000857988)
(-0.00201533 -0.00137712 -0.000857988)
(-0.00188764 -0.00154753 -0.000857988)
(-0.00174558 -0.00170616 -0.000857988)
(-0.00159023 -0.0018518 -0.00085799)
(-0.00142279 -0.00198335 -0.00085799)
(-0.00124451 -0.00209981 -0.00085799)
(-0.00105677 -0.00220029 -0.000857992)
(-0.000860979 -0.00228402 -0.000857995)
(-0.000658638 -0.00235036 -0.000857994)
(-0.000451282 -0.00239882 -0.000857993)
(-0.000240493 -0.00242903 -0.000857992)
(-2.78752e-05 -0.00244075 -0.000857988)
(0.000184956 -0.00243389 -0.000857987)
(0.000396379 -0.0024085 -0.000857988)
(0.000604786 -0.00236479 -0.000857991)
(0.00080859 -0.00230308 -0.000857989)
(0.00100624 -0.00222385 -0.000857989)
(0.00119623 -0.00212768 -0.000857988)
(0.00137712 -0.00201533 -0.000857988)
(0.00154753 -0.00188764 -0.000857988)
(0.00170616 -0.00174558 -0.000857988)
(0.0018518 -0.00159023 -0.00085799)
(0.00198335 -0.00142279 -0.00085799)
(0.00209981 -0.00124451 -0.00085799)
(0.00220029 -0.00105677 -0.000857992)
(0.00228402 -0.000860979 -0.000857995)
(0.00235036 -0.000658638 -0.000857994)
(0.00239882 -0.000451282 -0.000857993)
(0.00242903 -0.000240493 -0.000857992)
(0.00244075 -2.78751e-05 -0.000857988)
(0.00243389 0.000184956 -0.000857987)
(0.0024085 0.000396379 -0.000857988)
(0.00236479 0.000604786 -0.000857991)
(0.00230308 0.00080859 -0.000857989)
(0.00222385 0.00100624 -0.000857989)
(0.00212768 0.00119623 -0.000857988)
(0.00201533 0.00137712 -0.000857988)
(0.00188764 0.00154753 -0.000857988)
(0.00174558 0.00170616 -0.000857988)
(0.00159023 0.0018518 -0.00085799)
(0.00142279 0.00198335 -0.00085799)
(0.00124451 0.00209981 -0.00085799)
(0.00105677 0.00220029 -0.000857992)
(0.000860979 0.00228402 -0.000857995)
(0.000658638 0.00235036 -0.000857994)
(0.000451282 0.00239882 -0.000857993)
(0.000240493 0.00242903 -0.000857992)
(2.78752e-05 0.00244075 -0.000857988)
(-0.000184956 0.00243389 -0.000857988)
(-0.000396379 0.0024085 -0.000857988)
(-0.000604786 0.00236479 -0.000857991)
(-0.00080859 0.00230308 -0.000857989)
(-0.00100624 0.00222385 -0.000857989)
(-0.00119623 0.00212768 -0.000857988)
(-0.00137712 0.00201533 -0.000857988)
(-0.00154753 0.00188764 -0.000857988)
(-0.00170616 0.00174558 -0.000857988)
(-0.0018518 0.00159023 -0.00085799)
(-0.00198335 0.00142279 -0.00085799)
(-0.0022776 0.00161727 -0.000640311)
(-0.00240989 0.00141261 -0.000640312)
(-0.00252383 0.0011972 -0.000640313)
(-0.00261857 0.000972676 -0.000640314)
(-0.00269338 0.000740751 -0.000640314)
(-0.00274769 0.000503188 -0.000640312)
(-0.00278109 0.000261796 -0.00064031)
(-0.00279333 1.84113e-05 -0.00064031)
(-0.0027843 -0.000225112 -0.000640309)
(-0.00275409 -0.000466923 -0.00064031)
(-0.00270291 -0.000705181 -0.000640311)
(-0.00263117 -0.000938072 -0.000640311)
(-0.0025394 -0.00116382 -0.00064031)
(-0.0024283 -0.00138072 -0.00064031)
(-0.00229872 -0.0015871 -0.00064031)
(-0.00215165 -0.00178141 -0.000640311)
(-0.0019882 -0.00196216 -0.000640311)
(-0.00180962 -0.00212798 -0.000640311)
(-0.00161727 -0.0022776 -0.000640311)
(-0.00141261 -0.00240989 -0.000640312)
(-0.0011972 -0.00252383 -0.000640313)
(-0.000972676 -0.00261857 -0.000640314)
(-0.000740751 -0.00269338 -0.000640314)
(-0.000503188 -0.00274769 -0.000640312)
(-0.000261796 -0.00278109 -0.00064031)
(-1.84113e-05 -0.00279333 -0.00064031)
(0.000225112 -0.0027843 -0.000640309)
(0.000466923 -0.00275409 -0.000640311)
(0.000705181 -0.00270291 -0.000640311)