/*--------------------------------*- C++ -*----------------------------------*\
| =========                 |                                                 |
| \\      /  F ield         | OpenFOAM: The Open Source CFD Toolbox           |
|  \\    /   O peration     | Version:  2312                                  |
|   \\  /    A nd           | Website:  www.openfoam.com                      |
|    \\/     M anipulation  |                                                 |
\*---------------------------------------------------------------------------*/
FoamFile
{
    version     2.0;
    format      ascii;
    arch        "LSB;label=32;scalar=64";
    class       volVectorField;
    location    "0.8";
    object      D_0_0_0;
}
// * * * * * * * * * * * * * * * * * * * * * * * * * * * * * * * * * * * * * //

dimensions      [0 1 0 0 0 0 0];

internalField   nonuniform List<vector> 
3240
(
(-0.000508551 0.000160874 -0.00011677)
(-0.000520636 0.000115941 -0.000116769)
(-0.000528759 7.01216e-05 -0.000116771)
(-0.000532857 2.37681e-05 -0.000116772)
(-0.000532903 -2.2765e-05 -0.000116772)
(-0.000528892 -6.9124e-05 -0.000116771)
(-0.000520855 -0.000114955 -0.000116768)
(-0.000508854 -0.000159911 -0.000116767)
(-0.000492981 -0.000203651 -0.000116769)
(-0.000473355 -0.000245841 -0.00011677)
(-0.000450127 -0.000286162 -0.000116771)
(-0.000423473 -0.000324306 -0.000116772)
(-0.000393597 -0.000359982 -0.000116771)
(-0.000360725 -0.000392917 -0.00011677)
(-0.000325108 -0.000422857 -0.000116768)
(-0.000287016 -0.000449583 -0.00011677)
(-0.000246739 -0.000472889 -0.000116772)
(-0.000204586 -0.000492595 -0.00011677)
(-0.000160874 -0.000508551 -0.00011677)
(-0.000115941 -0.000520636 -0.000116769)
(-7.01216e-05 -0.000528759 -0.000116771)
(-2.37681e-05 -0.000532857 -0.000116772)
(2.2765e-05 -0.000532903 -0.000116772)
(6.9124e-05 -0.000528892 -0.000116771)
(0.000114955 -0.000520855 -0.000116768)
(0.000159911 -0.000508854 -0.000116767)
(0.000203651 -0.000492981 -0.000116769)
(0.000245841 -0.000473355 -0.00011677)
(0.000286162 -0.000450127 -0.000116771)
(0.000324306 -0.000423473 -0.000116772)
(0.000359982 -0.000393597 -0.000116771)
(0.000392917 -0.000360725 -0.00011677)
(0.000422857 -0.000325108 -0.000116768)
(0.000449583 -0.000287016 -0.00011677)
(0.000472889 -0.000246739 -0.000116772)
(0.000492595 -0.000204586 -0.00011677)
(0.000508551 -0.000160874 -0.00011677)
(0.000520636 -0.000115941 -0.000116769)
(0.000528759 -7.01216e-05 -0.000116771)
(0.000532857 -2.37681e-05 -0.000116772)
(0.000532903 2.2765e-05 -0.000116772)
(0.000528892 6.9124e-05 -0.000116771)
(0.000520855 0.000114955 -0.000116768)
(0.000508854 0.000159911 -0.000116767)
(0.000492981 0.000203651 -0.000116769)
(0.000473355 0.000245841 -0.00011677)
(0.000450127 0.000286162 -0.000116771)
(0.000423473 0.000324306 -0.000116772)
(0.000393597 0.000359982 -0.000116771)
(0.000360725 0.000392917 -0.00011677)
(0.000325108 0.000422857 -0.000116768)
(0.000287016 0.000449583 -0.00011677)
(0.000246739 0.000472889 -0.000116772)
(0.000204586 0.000492595 -0.00011677)
(0.000160874 0.000508551 -0.00011677)
(0.000115941 0.000520636 -0.000116769)
(7.01216e-05 0.000528759 -0.000116771)
(2.37681e-05 0.000532857 -0.000116772)
(-2.2765e-05 0.000532903 -0.000116772)
(-6.9124e-05 0.000528892 -0.000116771)
(-0.000114955 0.000520855 -0.000116768)
(-0.000159911 0.000508854 -0.000116767)
(-0.000203651 0.000492981 -0.000116769)
(-0.000245841 0.000473355 -0.000116771)
(-0.000286162 0.000450127 -0.000116771)
(-0.000324306 0.000423473 -0.000116772)
(-0.000359982 0.000393597 -0.000116771)
(-0.000392917 0.000360725 -0.00011677)
(-0.000422857 0.000325108 -0.000116768)
(-0.000449583 0.000287016 -0.00011677)
(-0.000472889 0.000246739 -0.000116772)
(-0.000492595 0.000204586 -0.00011677)
(-0.000458809 0.00012245 -0.000108235)
(-0.000467736 8.19966e-05 -0.000108234)
(-0.000473102 4.09181e-05 -0.000108235)
(-0.000474868 -4.72274e-07 -0.000108235)
(-0.00047302 -4.18586e-05 -0.000108235)
(-0.000467572 -8.29255e-05 -0.000108235)
(-0.000458565 -0.000123361 -0.000108234)
(-0.000446068 -0.000162857 -0.000108234)
(-0.000430178 -0.000201113 -0.000108234)
(-0.000411013 -0.00023784 -0.000108235)
(-0.00038872 -0.000272758 -0.000108235)
(-0.000363469 -0.0003056 -0.000108235)
(-0.00033545 -0.000336117 -0.000108234)
(-0.000304879 -0.000364074 -0.000108234)
(-0.000271988 -0.000389259 -0.000108234)
(-0.000237027 -0.000411483 -0.000108234)
(-0.000200261 -0.000430576 -0.000108235)
(-0.000161972 -0.000446391 -0.000108235)
(-0.00012245 -0.000458809 -0.000108235)
(-8.19966e-05 -0.000467736 -0.000108234)
(-4.09181e-05 -0.000473102 -0.000108235)
(4.72272e-07 -0.000474868 -0.000108235)
(4.18586e-05 -0.00047302 -0.000108235)
(8.29255e-05 -0.000467572 -0.000108235)
(0.000123361 -0.000458565 -0.000108234)
(0.000162857 -0.000446068 -0.000108234)
(0.000201113 -0.000430178 -0.000108234)
(0.00023784 -0.000411013 -0.000108235)
(0.000272758 -0.00038872 -0.000108235)
(0.0003056 -0.000363469 -0.000108235)
(0.000336117 -0.00033545 -0.000108234)
(0.000364074 -0.000304879 -0.000108234)
(0.000389259 -0.000271988 -0.000108234)
(0.000411483 -0.000237027 -0.000108234)
(0.000430576 -0.000200261 -0.000108235)
(0.000446391 -0.000161972 -0.000108235)
(0.000458809 -0.00012245 -0.000108235)
(0.000467736 -8.19966e-05 -0.000108234)
(0.000473102 -4.09181e-05 -0.000108235)
(0.000474868 4.72279e-07 -0.000108235)
(0.00047302 4.18586e-05 -0.000108235)
(0.000467572 8.29255e-05 -0.000108235)
(0.000458565 0.000123361 -0.000108234)
(0.000446068 0.000162857 -0.000108234)
(0.000430178 0.000201113 -0.000108234)
(0.000411013 0.00023784 -0.000108235)
(0.00038872 0.000272758 -0.000108235)
(0.000363469 0.0003056 -0.000108235)
(0.00033545 0.000336117 -0.000108234)
(0.000304879 0.000364074 -0.000108234)
(0.000271988 0.000389259 -0.000108234)
(0.000237027 0.000411483 -0.000108234)
(0.000200261 0.000430576 -0.000108235)
(0.000161972 0.000446391 -0.000108235)
(0.00012245 0.000458809 -0.000108235)
(8.19966e-05 0.000467736 -0.000108234)
(4.09181e-05 0.000473102 -0.000108235)
(-4.72279e-07 0.000474868 -0.000108235)
(-4.18586e-05 0.00047302 -0.000108235)
(-8.29255e-05 0.000467572 -0.000108235)
(-0.000123361 0.000458565 -0.000108234)
(-0.000162857 0.000446068 -0.000108234)
(-0.000201113 0.000430178 -0.000108234)
(-0.00023784 0.000411013 -0.000108235)
(-0.000272758 0.00038872 -0.000108235)
(-0.0003056 0.000363469 -0.000108235)
(-0.000336117 0.00033545 -0.000108234)
(-0.000364074 0.000304879 -0.000108234)
(-0.000389259 0.000271988 -0.000108234)
(-0.000411483 0.000237027 -0.000108234)
(-0.000430576 0.000200261 -0.000108235)
(-0.000446391 0.000161972 -0.000108235)
(-0.000412953 0.00023952 -7.33715e-05)
(-0.000432256 0.000202618 -7.33713e-05)
(-0.000448271 0.000164173 -7.33707e-05)
(-0.000460874 0.000124478 -7.33708e-05)
(-0.00046997 8.38365e-05 -7.33715e-05)
(-0.000475487 4.25574e-05 -7.33719e-05)
(-0.000477386 9.53606e-07 -7.33719e-05)
(-0.000475653 -4.06559e-05 -7.33726e-05)
(-0.000470301 -8.1956e-05 -7.33725e-05)
(-0.00046137 -0.000122634 -7.33728e-05)
(-0.000448925 -0.000162379 -7.33717e-05)
(-0.000433066 -0.000200887 -7.33709e-05)
(-0.000413908 -0.000237868 -7.33701e-05)
(-0.000391603 -0.000273038 -7.33709e-05)
(-0.000366314 -0.000306129 -7.33718e-05)
(-0.00033824 -0.000336889 -7.3372e-05)
(-0.00030759 -0.000365086 -7.33714e-05)
(-0.000274601 -0.000390505 -7.33712e-05)
(-0.00023952 -0.000412953 -7.33715e-05)
(-0.000202618 -0.000432256 -7.33713e-05)
(-0.000164173 -0.000448271 -7.33708e-05)
(-0.000124478 -0.000460874 -7.33709e-05)
(-8.38365e-05 -0.00046997 -7.33715e-05)
(-4.25574e-05 -0.000475487 -7.33719e-05)
(-9.53641e-07 -0.000477386 -7.33719e-05)
(4.06559e-05 -0.000475653 -7.33727e-05)
(8.19559e-05 -0.000470301 -7.33725e-05)
(0.000122634 -0.00046137 -7.33728e-05)
(0.000162379 -0.000448926 -7.33717e-05)
(0.000200887 -0.000433066 -7.33709e-05)
(0.000237868 -0.000413908 -7.33701e-05)
(0.000273038 -0.000391603 -7.33709e-05)
(0.000306129 -0.000366314 -7.33718e-05)
(0.000336889 -0.00033824 -7.33719e-05)
(0.000365086 -0.00030759 -7.33714e-05)
(0.000390505 -0.000274601 -7.33712e-05)
(0.000412953 -0.00023952 -7.33715e-05)
(0.000432256 -0.000202618 -7.33713e-05)
(0.000448271 -0.000164173 -7.33708e-05)
(0.000460874 -0.000124478 -7.33709e-05)
(0.00046997 -8.38365e-05 -7.33715e-05)
(0.000475487 -4.25574e-05 -7.33719e-05)
(0.000477386 -9.5364e-07 -7.33719e-05)
(0.000475653 4.06559e-05 -7.33727e-05)
(0.000470301 8.19559e-05 -7.33725e-05)
(0.00046137 0.000122634 -7.33728e-05)
(0.000448926 0.000162379 -7.33717e-05)
(0.000433066 0.000200887 -7.33709e-05)
(0.000413908 0.000237868 -7.33701e-05)
(0.000391603 0.000273038 -7.33709e-05)
(0.000366314 0.000306129 -7.33718e-05)
(0.00033824 0.000336889 -7.33719e-05)
(0.00030759 0.000365086 -7.33714e-05)
(0.000274601 0.000390506 -7.33712e-05)
(0.00023952 0.000412953 -7.33715e-05)
(0.000202618 0.000432256 -7.33713e-05)
(0.000164173 0.000448271 -7.33707e-05)
(0.000124478 0.000460874 -7.33708e-05)
(8.38365e-05 0.00046997 -7.33715e-05)
(4.25574e-05 0.000475487 -7.33719e-05)
(9.53635e-07 0.000477386 -7.33719e-05)
(-4.06559e-05 0.000475653 -7.33727e-05)
(-8.19559e-05 0.000470301 -7.33725e-05)
(-0.000122634 0.00046137 -7.33728e-05)
(-0.000162379 0.000448925 -7.33717e-05)
(-0.000200887 0.000433066 -7.33709e-05)
(-0.000237868 0.000413908 -7.33701e-05)
(-0.000273038 0.000391603 -7.33709e-05)
(-0.000306129 0.000366314 -7.33718e-05)
(-0.000336889 0.00033824 -7.3372e-05)
(-0.000365086 0.00030759 -7.33714e-05)
(-0.000390505 0.000274601 -7.33712e-05)
(-0.00128667 0.000426466 -0.000360177)
(-0.00131894 0.000312704 -0.000360175)
(-0.00134117 0.000196559 -0.000360179)
(-0.0013532 7.89173e-05 -0.000360181)
(-0.00135493 -3.93245e-05 -0.000360181)
(-0.00134635 -0.000157265 -0.000360178)
(-0.00132752 -0.000274007 -0.000360173)
(-0.00129859 -0.000388663 -0.000360169)
(-0.00125978 -0.00050036 -0.000360168)
(-0.00121137 -0.00060825 -0.000360171)
(-0.00115375 -0.000711514 -0.000360176)
(-0.00108734 -0.000809364 -0.000360179)
(-0.00101267 -0.000901057 -0.000360178)
(-0.00093028 -0.000985888 -0.000360176)
(-0.000840816 -0.00106321 -0.000360175)
(-0.00074495 -0.00113245 -0.000360175)
(-0.000643414 -0.00119307 -0.000360179)
(-0.000536984 -0.00124461 -0.000360178)
(-0.000426466 -0.00128667 -0.000360177)
(-0.000312704 -0.00131894 -0.000360175)
(-0.000196559 -0.00134117 -0.000360179)
(-7.89173e-05 -0.0013532 -0.000360181)
(3.93245e-05 -0.00135493 -0.000360181)
(0.000157265 -0.00134635 -0.000360178)
(0.000274007 -0.00132752 -0.000360173)
(0.000388663 -0.00129859 -0.00036017)
(0.00050036 -0.00125978 -0.000360169)
(0.00060825 -0.00121137 -0.000360171)
(0.000711514 -0.00115375 -0.000360176)
(0.000809364 -0.00108734 -0.000360179)
(0.000901057 -0.00101267 -0.000360178)
(0.000985888 -0.000930281 -0.000360176)
(0.00106321 -0.000840816 -0.000360175)
(0.00113245 -0.00074495 -0.000360175)
(0.00119307 -0.000643414 -0.000360179)
(0.00124461 -0.000536984 -0.000360178)
(0.00128667 -0.000426466 -0.000360177)
(0.00131894 -0.000312703 -0.000360175)
(0.00134117 -0.000196559 -0.000360179)
(0.0013532 -7.89173e-05 -0.000360181)
(0.00135493 3.93245e-05 -0.000360181)
(0.00134635 0.000157265 -0.000360178)
(0.00132752 0.000274007 -0.000360173)
(0.00129859 0.000388663 -0.00036017)
(0.00125978 0.00050036 -0.000360168)
(0.00121137 0.00060825 -0.000360171)
(0.00115375 0.000711514 -0.000360176)
(0.00108734 0.000809364 -0.000360179)
(0.00101267 0.000901057 -0.000360178)
(0.000930281 0.000985888 -0.000360176)
(0.000840816 0.00106321 -0.000360174)
(0.00074495 0.00113245 -0.000360175)
(0.000643414 0.00119307 -0.000360179)
(0.000536984 0.00124461 -0.000360178)
(0.000426466 0.00128667 -0.000360177)
(0.000312704 0.00131894 -0.000360175)
(0.000196559 0.00134117 -0.000360179)
(7.89173e-05 0.0013532 -0.000360181)
(-3.93245e-05 0.00135493 -0.000360181)
(-0.000157265 0.00134635 -0.000360178)
(-0.000274007 0.00132752 -0.000360173)
(-0.000388663 0.00129859 -0.00036017)
(-0.00050036 0.00125978 -0.000360169)
(-0.00060825 0.00121137 -0.000360171)
(-0.000711514 0.00115375 -0.000360176)
(-0.000809364 0.00108734 -0.000360179)
(-0.000901057 0.00101267 -0.000360178)
(-0.000985888 0.00093028 -0.000360176)
(-0.00106321 0.000840816 -0.000360175)
(-0.00113245 0.00074495 -0.000360175)
(-0.00119307 0.000643414 -0.000360179)
(-0.00124461 0.000536984 -0.000360178)
(-0.00130149 0.000505688 -0.000259912)
(-0.00134061 0.000390332 -0.000259911)
(-0.00136953 0.000272004 -0.000259912)
(-0.00138802 0.000151605 -0.000259913)
(-0.00139595 3.00535e-05 -0.000259912)
(-0.00139326 -9.17261e-05 -0.000259912)
(-0.00137996 -0.000212806 -0.00025991)
(-0.00135617 -0.000332267 -0.00025991)
(-0.00132205 -0.000449198 -0.000259909)
(-0.00127787 -0.000562713 -0.000259908)
(-0.00122396 -0.000671946 -0.000259909)
(-0.00116074 -0.000776066 -0.00025991)
(-0.00108868 -0.00087428 -0.000259911)
(-0.00100834 -0.000965838 -0.000259911)
(-0.000920328 -0.00105004 -0.000259911)
(-0.000825308 -0.00112626 -0.000259911)
(-0.000724007 -0.0011939 -0.000259912)
(-0.000617196 -0.00125246 -0.000259912)
(-0.000505688 -0.00130149 -0.000259912)
(-0.000390332 -0.00134061 -0.000259911)
(-0.000272004 -0.00136953 -0.000259913)
(-0.000151605 -0.00138802 -0.000259913)
(-3.00535e-05 -0.00139595 -0.000259912)
(9.17261e-05 -0.00139326 -0.000259912)
(0.000212806 -0.00137996 -0.00025991)
(0.000332266 -0.00135617 -0.00025991)
(0.000449198 -0.00132205 -0.000259909)
(0.000562713 -0.00127787 -0.000259908)
(0.000671946 -0.00122396 -0.000259909)
(0.000776066 -0.00116074 -0.00025991)
(0.00087428 -0.00108868 -0.000259911)
(0.000965838 -0.00100834 -0.000259911)
(0.00105004 -0.000920328 -0.000259911)
(0.00112626 -0.000825308 -0.000259911)
(0.0011939 -0.000724007 -0.000259912)
(0.00125246 -0.000617196 -0.000259912)
(0.00130149 -0.000505688 -0.000259912)
(0.00134061 -0.000390332 -0.000259911)
(0.00136953 -0.000272004 -0.000259913)
(0.00138802 -0.000151605 -0.000259913)
(0.00139595 -3.00534e-05 -0.000259912)
(0.00139326 9.17261e-05 -0.000259912)
(0.00137996 0.000212806 -0.00025991)
(0.00135617 0.000332266 -0.00025991)
(0.00132205 0.000449198 -0.000259909)
(0.00127787 0.000562713 -0.000259908)
(0.00122396 0.000671946 -0.000259909)
(0.00116074 0.000776066 -0.00025991)
(0.00108868 0.00087428 -0.000259911)
(0.00100834 0.000965838 -0.000259911)
(0.000920328 0.00105004 -0.000259911)
(0.000825308 0.00112626 -0.000259911)
(0.000724007 0.0011939 -0.000259912)
(0.000617196 0.00125246 -0.000259911)
(0.000505688 0.00130149 -0.000259912)
(0.000390332 0.00134061 -0.000259911)
(0.000272004 0.00136953 -0.000259912)
(0.000151605 0.00138802 -0.000259913)
(3.00534e-05 0.00139595 -0.000259912)
(-9.17261e-05 0.00139326 -0.000259912)
(-0.000212806 0.00137996 -0.00025991)
(-0.000332266 0.00135617 -0.00025991)
(-0.000449198 0.00132205 -0.000259909)
(-0.000562713 0.00127787 -0.000259908)
(-0.000671946 0.00122396 -0.000259909)
(-0.000776066 0.00116074 -0.00025991)
(-0.00087428 0.00108868 -0.000259911)
(-0.000965838 0.00100834 -0.000259911)
(-0.00105004 0.000920328 -0.000259911)
(-0.00112626 0.000825308 -0.000259911)
(-0.0011939 0.000724007 -0.000259912)
(-0.00125246 0.000617196 -0.000259912)
(-0.00134039 0.000766778 -0.000125149)
(-0.00140212 0.000647038 -0.000125149)
(-0.00145318 0.000522372 -0.000125148)
(-0.00149317 0.00039373 -0.000125148)
(-0.00152181 0.000262092 -0.000125148)
(-0.00153886 0.000128461 -0.000125149)
(-0.0015442 -6.14753e-06 -0.00012515)
(-0.00153779 -0.000140708 -0.000125151)
(-0.00151967 -0.000274198 -0.000125151)
(-0.00148999 -0.000405604 -0.000125149)
(-0.00144897 -0.000533923 -0.000125147)
(-0.00139693 -0.00065818 -0.000125147)
(-0.00133425 -0.000777426 -0.000125147)
(-0.00126141 -0.000890754 -0.000125149)
(-0.00117898 -0.000997302 -0.000125149)
(-0.00108757 -0.00109626 -0.000125149)
(-0.000987886 -0.00118688 -0.000125149)
(-0.000880682 -0.00126846 -0.000125148)
(-0.000766778 -0.00134039 -0.00012515)
(-0.000647038 -0.00140212 -0.000125149)
(-0.000522372 -0.00145318 -0.000125148)
(-0.00039373 -0.00149317 -0.000125148)
(-0.000262092 -0.00152181 -0.000125148)
(-0.000128461 -0.00153886 -0.000125149)
(6.14747e-06 -0.0015442 -0.00012515)
(0.000140708 -0.00153779 -0.000125151)
(0.000274198 -0.00151967 -0.000125151)
(0.000405604 -0.00148999 -0.000125149)
(0.000533923 -0.00144897 -0.000125148)
(0.00065818 -0.00139693 -0.000125147)
(0.000777426 -0.00133425 -0.000125147)
(0.000890754 -0.00126141 -0.000125149)
(0.000997302 -0.00117898 -0.000125149)
(0.00109626 -0.00108757 -0.000125149)
(0.00118688 -0.000987886 -0.000125149)
(0.00126846 -0.000880682 -0.000125148)
(0.00134039 -0.000766778 -0.000125149)
(0.00140212 -0.000647038 -0.000125149)
(0.00145318 -0.000522372 -0.000125148)
(0.00149317 -0.00039373 -0.000125148)
(0.00152181 -0.000262092 -0.000125148)
(0.00153886 -0.000128461 -0.000125149)
(0.0015442 6.14747e-06 -0.00012515)
(0.00153779 0.000140708 -0.000125151)
(0.00151967 0.000274198 -0.000125151)
(0.00148999 0.000405604 -0.000125149)
(0.00144897 0.000533923 -0.000125148)
(0.00139693 0.00065818 -0.000125147)
(0.00133425 0.000777426 -0.000125147)
(0.00126141 0.000890754 -0.000125149)
(0.00117898 0.000997302 -0.000125149)
(0.00108757 0.00109626 -0.000125149)
(0.000987886 0.00118688 -0.000125149)
(0.000880682 0.00126846 -0.000125148)
(0.000766778 0.00134039 -0.000125149)
(0.000647038 0.00140212 -0.000125149)
(0.000522372 0.00145318 -0.000125148)
(0.00039373 0.00149317 -0.000125148)
(0.000262092 0.00152181 -0.000125148)
(0.000128461 0.00153886 -0.000125149)
(-6.14749e-06 0.0015442 -0.00012515)
(-0.000140708 0.00153779 -0.000125151)
(-0.000274198 0.00151967 -0.000125151)
(-0.000405604 0.00148999 -0.000125149)
(-0.000533923 0.00144897 -0.000125148)
(-0.00065818 0.00139693 -0.000125147)
(-0.000777426 0.00133425 -0.000125147)
(-0.000890754 0.00126141 -0.000125149)
(-0.000997302 0.00117898 -0.000125149)
(-0.00109626 0.00108757 -0.000125149)
(-0.00118688 0.000987886 -0.000125149)
(-0.00126846 0.000880682 -0.000125148)
(-0.00182254 0.000756614 -0.000606166)
(-0.00188155 0.000594889 -0.000606166)
(-0.00192623 0.000428638 -0.000606167)
(-0.00195626 0.000259124 -0.000606167)
(-0.0019714 8.76377e-05 -0.000606167)
(-0.00197154 -8.45154e-05 -0.000606164)
(-0.00195667 -0.000256024 -0.000606159)
(-0.00192691 -0.000425584 -0.000606159)
(-0.00188249 -0.000591905 -0.000606158)
(-0.00182374 -0.000753722 -0.000606159)
(-0.00175111 -0.000909801 -0.000606158)
(-0.00166515 -0.00105896 -0.000606162)
(-0.00156652 -0.00120006 -0.000606162)
(-0.00145596 -0.00133202 -0.000606161)
(-0.00133433 -0.00145385 -0.000606162)
(-0.00120254 -0.00156461 -0.000606161)
(-0.0010616 -0.00166346 -0.000606165)
(-0.000912578 -0.00174966 -0.000606167)
(-0.000756613 -0.00182254 -0.000606166)
(-0.000594889 -0.00188155 -0.000606166)
(-0.000428638 -0.00192623 -0.000606167)
(-0.000259124 -0.00195626 -0.000606167)
(-8.76376e-05 -0.0019714 -0.000606167)
(8.45155e-05 -0.00197154 -0.000606164)
(0.000256024 -0.00195667 -0.000606159)
(0.000425583 -0.00192691 -0.000606159)
(0.000591905 -0.00188249 -0.000606158)
(0.000753722 -0.00182374 -0.000606159)
(0.000909801 -0.00175111 -0.000606158)
(0.00105896 -0.00166515 -0.000606162)
(0.00120006 -0.00156652 -0.000606161)
(0.00133202 -0.00145596 -0.000606161)
(0.00145385 -0.00133433 -0.000606161)
(0.00156461 -0.00120254 -0.000606161)
(0.00166346 -0.0010616 -0.000606165)
(0.00174966 -0.000912578 -0.000606167)
(0.00182254 -0.000756613 -0.000606166)
(0.00188155 -0.000594889 -0.000606166)
(0.00192623 -0.000428638 -0.000606167)
(0.00195626 -0.000259124 -0.000606167)
(0.0019714 -8.76376e-05 -0.000606167)
(0.00197154 8.45155e-05 -0.000606164)
(0.00195667 0.000256024 -0.000606159)
(0.00192691 0.000425583 -0.000606159)
(0.00188249 0.000591905 -0.000606158)
(0.00182374 0.000753722 -0.000606159)
(0.00175111 0.000909801 -0.000606158)
(0.00166515 0.00105896 -0.000606162)
(0.00156652 0.00120006 -0.000606161)
(0.00145596 0.00133202 -0.000606161)
(0.00133433 0.00145385 -0.000606161)
(0.00120254 0.00156461 -0.000606161)
(0.0010616 0.00166346 -0.000606165)
(0.000912578 0.00174966 -0.000606166)
(0.000756614 0.00182254 -0.000606166)
(0.000594889 0.00188155 -0.000606166)
(0.000428638 0.00192623 -0.000606167)
(0.000259124 0.00195626 -0.000606167)
(8.76376e-05 0.0019714 -0.000606167)
(-8.45155e-05 0.00197154 -0.000606164)
(-0.000256024 0.00195667 -0.000606159)
(-0.000425583 0.00192691 -0.000606159)
(-0.000591905 0.00188249 -0.000606158)
(-0.000753722 0.00182374 -0.000606159)
(-0.000909801 0.00175111 -0.000606158)
(-0.00105896 0.00166515 -0.000606162)
(-0.00120006 0.00156652 -0.000606162)
(-0.00133202 0.00145596 -0.000606161)
(-0.00145385 0.00133433 -0.000606161)
(-0.00156461 0.00120254 -0.000606161)
(-0.00166346 0.0010616 -0.000606165)
(-0.00174966 0.000912578 -0.000606167)
(-0.00192611 0.0010184 -0.000418659)
(-0.00200754 0.000846656 -0.000418659)
(-0.00207369 0.000668465 -0.00041866)
(-0.00212406 0.000485188 -0.00041866)
(-0.00215826 0.000298217 -0.00041866)
(-0.00217604 0.000108977 -0.000418659)
(-0.00217726 -8.10906e-05 -0.000418657)
(-0.0021619 -0.000270542 -0.000418657)
(-0.0021301 -0.000457935 -0.000418656)
(-0.00208208 -0.000641842 -0.000418656)
(-0.00201822 -0.000820865 -0.000418657)
(-0.001939 -0.000993641 -0.000418657)
(-0.00184502 -0.00115886 -0.000418657)
(-0.001737 -0.00131525 -0.000418657)
(-0.00161575 -0.00146163 -0.000418657)
(-0.00148221 -0.00159689 -0.000418658)
(-0.0013374 -0.00172 -0.000418659)
(-0.0011824 -0.00183002 -0.000418659)
(-0.0010184 -0.00192611 -0.000418659)
(-0.000846656 -0.00200754 -0.000418659)
(-0.000668465 -0.00207369 -0.00041866)
(-0.000485188 -0.00212406 -0.00041866)
(-0.000298217 -0.00215826 -0.00041866)
(-0.000108977 -0.00217604 -0.000418659)
(8.10905e-05 -0.00217726 -0.000418657)
(0.000270542 -0.0021619 -0.000418657)
(0.000457935 -0.0021301 -0.000418656)
(0.000641842 -0.00208208 -0.000418656)
(0.000820865 -0.00201822 -0.000418657)
(0.000993641 -0.001939 -0.000418657)
(0.00115886 -0.00184502 -0.000418657)
(0.00131525 -0.001737 -0.000418657)
(0.00146163 -0.00161575 -0.000418657)
(0.00159689 -0.00148221 -0.000418658)
(0.00172 -0.0013374 -0.000418659)
(0.00183002 -0.0011824 -0.000418659)
(0.00192611 -0.0010184 -0.000418659)
(0.00200754 -0.000846656 -0.000418659)
(0.00207369 -0.000668465 -0.00041866)
(0.00212406 -0.000485188 -0.00041866)
(0.00215826 -0.000298217 -0.00041866)
(0.00217604 -0.000108977 -0.000418659)
(0.00217726 8.10905e-05 -0.000418657)
(0.0021619 0.000270542 -0.000418657)
(0.0021301 0.000457935 -0.000418656)
(0.00208208 0.000641842 -0.000418656)
(0.00201822 0.000820865 -0.000418657)
(0.001939 0.000993641 -0.000418657)
(0.00184502 0.00115886 -0.000418657)
(0.001737 0.00131525 -0.000418657)
(0.00161575 0.00146163 -0.000418657)
(0.00148221 0.00159689 -0.000418658)
(0.0013374 0.00172 -0.000418659)
(0.0011824 0.00183002 -0.000418659)
(0.0010184 0.00192611 -0.000418659)
(0.000846656 0.00200754 -0.000418659)
(0.000668465 0.00207369 -0.00041866)
(0.000485188 0.00212406 -0.00041866)
(0.000298217 0.00215826 -0.00041866)
(0.000108977 0.00217604 -0.000418659)
(-8.10906e-05 0.00217726 -0.000418657)
(-0.000270542 0.0021619 -0.000418657)
(-0.000457935 0.0021301 -0.000418656)
(-0.000641842 0.00208208 -0.000418656)
(-0.000820865 0.00201822 -0.000418657)
(-0.000993641 0.001939 -0.000418657)
(-0.00115886 0.00184502 -0.000418657)
(-0.00131525 0.001737 -0.000418657)
(-0.00146163 0.00161575 -0.000418657)
(-0.00159689 0.00148221 -0.000418658)
(-0.00172 0.0013374 -0.000418659)
(-0.00183002 0.0011824 -0.000418659)
(-0.00207669 0.00135902 -0.000245531)
(-0.00218723 0.00117285 -0.00024553)
(-0.00228113 0.00097776 -0.00024553)
(-0.00235766 0.000775225 -0.000245531)
(-0.00241626 0.000566791 -0.000245531)
(-0.00245646 0.000354044 -0.000245531)
(-0.00247797 0.000138603 -0.000245531)
(-0.00248062 -7.7893e-05 -0.000245531)
(-0.00246439 -0.000293797 -0.000245532)
(-0.00242941 -0.000507465 -0.000245531)
(-0.00237594 -0.000717272 -0.000245531)
(-0.00230438 -0.00092162 -0.000245531)
(-0.00221529 -0.00111895 -0.000245531)
(-0.00210934 -0.00130777 -0.000245531)
(-0.00198733 -0.00148663 -0.000245531)
(-0.0018502 -0.00165418 -0.000245531)
(-0.00169899 -0.00180915 -0.000245531)
(-0.00153484 -0.00195034 -0.000245531)
(-0.00135902 -0.00207669 -0.000245531)
(-0.00117285 -0.00218723 -0.000245531)
(-0.00097776 -0.00228113 -0.00024553)
(-0.000775225 -0.00235766 -0.000245531)
(-0.000566791 -0.00241626 -0.000245531)
(-0.000354044 -0.00245646 -0.000245531)
(-0.000138603 -0.00247797 -0.000245531)
(7.78929e-05 -0.00248062 -0.000245532)
(0.000293797 -0.00246439 -0.000245532)
(0.000507465 -0.00242941 -0.000245531)
(0.000717272 -0.00237594 -0.000245531)
(0.00092162 -0.00230438 -0.000245531)
(0.00111895 -0.00221529 -0.000245531)
(0.00130777 -0.00210934 -0.000245531)
(0.00148663 -0.00198733 -0.000245531)
(0.00165418 -0.0018502 -0.000245531)
(0.00180915 -0.00169899 -0.00024553)
(0.00195034 -0.00153484 -0.00024553)
(0.00207669 -0.00135902 -0.000245531)
(0.00218723 -0.00117285 -0.00024553)
(0.00228113 -0.00097776 -0.00024553)
(0.00235766 -0.000775225 -0.000245531)
(0.00241626 -0.000566791 -0.000245531)
(0.00245646 -0.000354044 -0.000245531)
(0.00247797 -0.000138603 -0.000245531)
(0.00248062 7.78929e-05 -0.000245532)
(0.00246439 0.000293797 -0.000245532)
(0.00242941 0.000507465 -0.000245531)
(0.00237594 0.000717272 -0.000245531)
(0.00230438 0.00092162 -0.000245531)
(0.00221529 0.00111895 -0.000245531)
(0.00210934 0.00130777 -0.000245531)
(0.00198733 0.00148663 -0.000245531)
(0.0018502 0.00165418 -0.000245531)
(0.00169899 0.00180915 -0.00024553)
(0.00153484 0.00195034 -0.00024553)
(0.00135902 0.00207669 -0.000245531)
(0.00117285 0.00218723 -0.00024553)
(0.00097776 0.00228113 -0.00024553)
(0.000775225 0.00235766 -0.000245531)
(0.000566791 0.00241626 -0.000245531)
(0.000354044 0.00245646 -0.000245531)
(0.000138603 0.00247797 -0.000245531)
(-7.78929e-05 0.00248062 -0.000245532)
(-0.000293797 0.00246439 -0.000245532)
(-0.000507465 0.00242941 -0.000245531)
(-0.000717272 0.00237594 -0.000245531)
(-0.00092162 0.00230438 -0.000245531)
(-0.00111895 0.00221529 -0.000245531)
(-0.00130777 0.00210934 -0.000245531)
(-0.00148663 0.00198733 -0.000245531)
(-0.00165418 0.0018502 -0.000245531)
(-0.00180915 0.00169899 -0.00024553)
(-0.00195034 0.00153484 -0.00024553)
(-0.00206575 0.00125408 -0.000866371)
(-0.00216719 0.00106927 -0.000866373)
(-0.00225213 0.000876319 -0.000866375)
(-0.00231994 0.000676698 -0.000866375)
(-0.00237009 0.000471926 -0.000866374)
(-0.0024022 0.000263563 -0.000866373)
(-0.00241603 5.31952e-05 -0.000866369)
(-0.00241147 -0.000157578 -0.000866368)
(-0.00238856 -0.000367152 -0.000866368)
(-0.00234747 -0.000573932 -0.000866371)
(-0.00228852 -0.000776344 -0.00086637)
(-0.00221215 -0.000972847 -0.00086637)
(-0.00211894 -0.00116195 -0.000866369)
(-0.00200961 -0.0013422 -0.000866368)
(-0.00188498 -0.00151224 -0.000866369)
(-0.00174601 -0.00167078 -0.000866369)
(-0.00159374 -0.00181659 -0.00086637)
(-0.00142935 -0.00194858 -0.000866371)
(-0.00125408 -0.00206575 -0.000866371)
(-0.00106927 -0.00216719 -0.000866373)
(-0.000876319 -0.00225213 -0.000866375)
(-0.000676698 -0.00231994 -0.000866375)
(-0.000471926 -0.00237009 -0.000866374)
(-0.000263563 -0.0024022 -0.000866373)
(-5.31951e-05 -0.00241603 -0.000866369)
(0.000157578 -0.00241147 -0.000866368)
(0.000367152 -0.00238856 -0.000866368)
(0.000573932 -0.00234747 -0.000866371)
(0.000776344 -0.00228852 -0.00086637)
(0.000972847 -0.00221215 -0.00086637)
(0.00116195 -0.00211894 -0.000866369)
(0.0013422 -0.00200961 -0.000866368)
(0.00151224 -0.00188498 -0.000866369)
(0.00167078 -0.00174601 -0.000866369)
(0.00181659 -0.00159374 -0.00086637)
(0.00194858 -0.00142935 -0.000866371)
(0.00206575 -0.00125408 -0.000866371)
(0.00216719 -0.00106927 -0.000866373)
(0.00225213 -0.000876319 -0.000866375)
(0.00231994 -0.000676698 -0.000866375)
(0.00237009 -0.000471926 -0.000866374)
(0.0024022 -0.000263563 -0.000866373)
(0.00241603 -5.31951e-05 -0.000866369)
(0.00241147 0.000157578 -0.000866368)
(0.00238856 0.000367152 -0.000866368)
(0.00234747 0.000573932 -0.000866371)
(0.00228852 0.000776344 -0.00086637)
(0.00221215 0.000972847 -0.00086637)
(0.00211894 0.00116195 -0.000866369)
(0.00200961 0.0013422 -0.000866368)
(0.00188498 0.00151224 -0.000866369)
(0.00174601 0.00167078 -0.000866369)
(0.00159374 0.00181659 -0.00086637)
(0.00142935 0.00194858 -0.000866371)
(0.00125408 0.00206575 -0.000866371)
(0.00106927 0.00216719 -0.000866373)
(0.000876319 0.00225213 -0.000866375)
(0.000676698 0.00231994 -0.000866374)
(0.000471926 0.00237009 -0.000866374)
(0.000263563 0.0024022 -0.000866373)
(5.31952e-05 0.00241603 -0.000866369)
(-0.000157578 0.00241147 -0.000866368)
(-0.000367152 0.00238856 -0.000866368)
(-0.000573932 0.00234747 -0.000866371)
(-0.000776344 0.00228852 -0.00086637)
(-0.000972847 0.00221215 -0.00086637)
(-0.00116195 0.00211894 -0.000866369)
(-0.0013422 0.00200961 -0.000866368)
(-0.00151224 0.00188498 -0.000866369)
(-0.00167078 0.00174601 -0.000866369)
(-0.00181659 0.00159374 -0.00086637)
(-0.00194858 0.00142935 -0.000866371)
(-0.00223791 0.00162337 -0.000647635)
(-0.00237088 0.00142215 -0.000647636)
(-0.00248581 0.0012101 -0.000647636)
(-0.00258182 0.000988846 -0.000647637)
(-0.00265817 0.000760062 -0.000647637)
(-0.0027143 0.000525495 -0.000647635)
(-0.00274977 0.000286927 -0.000647634)
(-0.00276432 4.6177e-05 -0.000647633)
(-0.00275782 -0.000194924 -0.000647633)
(-0.00273034 -0.000434542 -0.000647634)
(-0.00268208 -0.000670853 -0.000647634)
(-0.0026134 -0.000902059 -0.000647634)
(-0.00252484 -0.0011264 -0.000647634)
(-0.00241706 -0.00134217 -0.000647633)
(-0.00229088 -0.00154772 -0.000647633)
(-0.00214727 -0.0017415 -0.000647634)
(-0.00198732 -0.00192202 -0.000647635)
(-0.00181224 -0.00208791 -0.000647634)
(-0.00162337 -0.00223791 -0.000647635)
(-0.00142215 -0.00237088 -0.000647636)
(-0.0012101 -0.00248581 -0.000647636)
(-0.000988846 -0.00258182 -0.000647637)
(-0.000760062 -0.00265817 -0.000647637)
(-0.000525495 -0.0027143 -0.000647635)
(-0.000286927 -0.00274977 -0.000647634)
(-4.6177e-05 -0.00276432 -0.000647633)
(0.000194924 -0.00275782 -0.000647633)
(0.000434542 -0.00273034 -0.000647634)
(0.000670853 -0.00268208 -0.000647634)
(0.000902059 -0.0026134 -0.000647634)