/*--------------------------------*- C++ -*----------------------------------*\
| =========                 |                                                 |
| \\      /  F ield         | OpenFOAM: The Open Source CFD Toolbox           |
|  \\    /   O peration     | Version:  2312                                  |
|   \\  /    A nd           | Website:  www.openfoam.com                      |
|    \\/     M anipulation  |                                                 |
\*---------------------------------------------------------------------------*/
FoamFile
{
    version     2.0;
    format      ascii;
    arch        "LSB;label=32;scalar=64";
    class       volTensorField;
    location    "0.8";
    object      F;
}
// * * * * * * * * * * * * * * * * * * * * * * * * * * * * * * * * * * * * * //

dimensions      [0 0 0 0 0 0 0];

internalField   nonuniform List<tensor> 
3240
(
(0.953016 -0.0196299 0.411479 0.0518432 0.945892 -0.131042 -0.00468193 -0.000203468 1.12303)
(0.950165 -0.0192554 0.421334 0.0522186 0.948742 -0.0946797 -0.00464512 -0.000612337 1.12303)
(0.947294 -0.0193828 0.427982 0.0520914 0.951612 -0.0575978 -0.00457594 -0.00101702 1.12303)
(0.944487 -0.0200078 0.431373 0.0514666 0.954419 -0.0200775 -0.0044717 -0.00141028 1.12303)
(0.94183 -0.0211095 0.431482 0.0503643 0.957076 0.0175962 -0.00433139 -0.00179283 1.12303)
(0.939405 -0.0226547 0.428307 0.048817 0.959502 0.0551352 -0.00415853 -0.0021618 1.12303)
(0.937286 -0.0245984 0.421872 0.0468744 0.961623 0.0922552 -0.0039516 -0.0025149 1.12303)
(0.935537 -0.0268806 0.412227 0.0445924 0.963372 0.128672 -0.00371603 -0.00285211 1.12303)
(0.934211 -0.0294317 0.399444 0.0420417 0.964698 0.16411 -0.00345336 -0.00316699 1.12302)
(0.933348 -0.0321739 0.383621 0.0393005 0.965561 0.198298 -0.00316475 -0.0034564 1.12302)
(0.932974 -0.0350239 0.364878 0.0364511 0.965934 0.230978 -0.00285243 -0.00371954 1.12303)
(0.933101 -0.037896 0.343358 0.0335785 0.965806 0.2619 -0.00251954 -0.00395442 1.12303)
(0.933724 -0.0407044 0.319224 0.0307701 0.965182 0.29083 -0.00216605 -0.00415733 1.12303)
(0.934826 -0.0433603 0.292663 0.0281114 0.964081 0.317546 -0.00179511 -0.00432912 1.12303)
(0.936371 -0.0457856 0.263873 0.0256868 0.962537 0.341845 -0.00140883 -0.00446784 1.12303)
(0.938314 -0.0479038 0.233075 0.0235701 0.960593 0.363541 -0.00101193 -0.00457586 1.12303)
(0.940597 -0.0496528 0.200503 0.0218217 0.95831 0.382472 -0.000611591 -0.00464823 1.12303)
(0.943149 -0.0509802 0.166405 0.0204943 0.955758 0.398492 -0.000205683 -0.00468181 1.12303)
(0.945892 -0.0518432 0.131042 0.0196299 0.953016 0.411479 0.000203464 -0.00468192 1.12303)
(0.948742 -0.0522186 0.0946797 0.0192554 0.950165 0.421334 0.000612341 -0.00464511 1.12303)
(0.951612 -0.0520914 0.0575978 0.0193827 0.947294 0.427982 0.00101702 -0.00457593 1.12303)
(0.954419 -0.0514665 0.0200775 0.0200078 0.944487 0.431373 0.00141028 -0.00447169 1.12303)
(0.957076 -0.0503643 -0.0175962 0.0211095 0.94183 0.431482 0.00179283 -0.00433138 1.12303)
(0.959502 -0.048817 -0.0551352 0.0226547 0.939405 0.428307 0.0021618 -0.00415851 1.12303)
(0.961623 -0.0468744 -0.0922552 0.0245984 0.937286 0.421872 0.0025149 -0.00395159 1.12303)
(0.963372 -0.0445924 -0.128672 0.0268806 0.935537 0.412227 0.00285212 -0.00371603 1.12303)
(0.964698 -0.0420417 -0.16411 0.0294317 0.934211 0.399444 0.003167 -0.00345336 1.12302)
(0.965561 -0.0393005 -0.198298 0.0321739 0.933348 0.383621 0.0034564 -0.00316476 1.12302)
(0.965934 -0.0364511 -0.230978 0.0350239 0.932974 0.364878 0.00371953 -0.00285244 1.12303)
(0.965806 -0.0335785 -0.2619 0.037896 0.933101 0.343358 0.0039544 -0.00251957 1.12303)
(0.965182 -0.0307701 -0.29083 0.0407044 0.933724 0.319224 0.0041573 -0.00216608 1.12303)
(0.964081 -0.0281114 -0.317546 0.0433603 0.934826 0.292663 0.00432909 -0.00179511 1.12303)
(0.962537 -0.0256868 -0.341845 0.0457857 0.936371 0.263873 0.00446783 -0.00140881 1.12303)
(0.960593 -0.0235701 -0.363541 0.0479038 0.938314 0.233075 0.00457586 -0.0010119 1.12303)
(0.95831 -0.0218218 -0.382472 0.0496528 0.940597 0.200503 0.00464825 -0.000611564 1.12303)
(0.955758 -0.0204944 -0.398492 0.0509802 0.943148 0.166405 0.00468183 -0.000205667 1.12303)
(0.953016 -0.0196299 -0.411479 0.0518432 0.945892 0.131042 0.00468194 0.00020347 1.12303)
(0.950165 -0.0192554 -0.421334 0.0522185 0.948742 0.0946797 0.00464512 0.000612342 1.12303)
(0.947294 -0.0193828 -0.427982 0.0520914 0.951612 0.0575978 0.00457593 0.00101702 1.12303)
(0.944487 -0.0200078 -0.431373 0.0514665 0.954419 0.0200775 0.00447169 0.00141028 1.12303)
(0.94183 -0.0211095 -0.431482 0.0503643 0.957076 -0.0175962 0.00433138 0.00179283 1.12303)
(0.939405 -0.0226547 -0.428307 0.048817 0.959502 -0.0551352 0.00415851 0.0021618 1.12303)
(0.937286 -0.0245984 -0.421872 0.0468744 0.961623 -0.0922552 0.00395159 0.0025149 1.12303)
(0.935537 -0.0268806 -0.412227 0.0445924 0.963372 -0.128672 0.00371603 0.00285211 1.12303)
(0.934211 -0.0294317 -0.399444 0.0420417 0.964698 -0.16411 0.00345336 0.00316699 1.12302)
(0.933348 -0.0321739 -0.383621 0.0393005 0.965561 -0.198298 0.00316476 0.0034564 1.12302)
(0.932974 -0.0350239 -0.364878 0.0364511 0.965934 -0.230978 0.00285244 0.00371953 1.12303)
(0.933101 -0.037896 -0.343358 0.0335785 0.965806 -0.2619 0.00251957 0.0039544 1.12303)
(0.933724 -0.0407044 -0.319224 0.0307701 0.965182 -0.29083 0.00216607 0.00415729 1.12303)
(0.934826 -0.0433603 -0.292663 0.0281114 0.964081 -0.317546 0.00179511 0.00432909 1.12303)
(0.936371 -0.0457857 -0.263873 0.0256868 0.962537 -0.341845 0.00140881 0.00446782 1.12303)
(0.938314 -0.0479038 -0.233075 0.0235701 0.960593 -0.363541 0.0010119 0.00457586 1.12303)
(0.940597 -0.0496528 -0.200503 0.0218218 0.95831 -0.382472 0.00061157 0.00464824 1.12303)
(0.943148 -0.0509803 -0.166405 0.0204944 0.955758 -0.398492 0.00020567 0.00468182 1.12303)
(0.945892 -0.0518432 -0.131042 0.0196299 0.953016 -0.411479 -0.000203471 0.00468193 1.12303)
(0.948742 -0.0522186 -0.0946797 0.0192554 0.950165 -0.421334 -0.000612344 0.00464512 1.12303)
(0.951612 -0.0520914 -0.0575978 0.0193828 0.947294 -0.427982 -0.00101703 0.00457593 1.12303)
(0.954419 -0.0514666 -0.0200775 0.0200078 0.944487 -0.431373 -0.00141029 0.00447169 1.12303)
(0.957076 -0.0503643 0.0175962 0.0211095 0.94183 -0.431482 -0.00179284 0.00433138 1.12303)
(0.959502 -0.048817 0.0551352 0.0226548 0.939405 -0.428307 -0.00216181 0.00415851 1.12303)
(0.961623 -0.0468744 0.0922552 0.0245984 0.937286 -0.421872 -0.0025149 0.00395159 1.12303)
(0.963372 -0.0445923 0.128672 0.0268806 0.935537 -0.412227 -0.00285211 0.00371603 1.12303)
(0.964698 -0.0420417 0.16411 0.0294317 0.934211 -0.399444 -0.00316699 0.00345336 1.12302)
(0.965561 -0.0393005 0.198298 0.0321739 0.933348 -0.383621 -0.00345639 0.00316475 1.12302)
(0.965934 -0.0364511 0.230978 0.0350239 0.932974 -0.364878 -0.00371952 0.00285244 1.12303)
(0.965806 -0.0335785 0.2619 0.037896 0.933101 -0.343358 -0.00395438 0.00251957 1.12303)
(0.965182 -0.0307701 0.29083 0.0407044 0.933724 -0.319224 -0.00415728 0.00216608 1.12303)
(0.964081 -0.0281114 0.317546 0.0433603 0.934826 -0.292663 -0.00432909 0.00179511 1.12303)
(0.962537 -0.0256868 0.341845 0.0457857 0.936371 -0.263873 -0.00446782 0.00140881 1.12303)
(0.960593 -0.0235701 0.363541 0.0479038 0.938314 -0.233075 -0.00457585 0.0010119 1.12303)
(0.95831 -0.0218218 0.382472 0.0496528 0.940597 -0.200503 -0.00464824 0.000611568 1.12303)
(0.955758 -0.0204944 0.398492 0.0509802 0.943148 -0.166405 -0.00468181 0.00020567 1.12303)
(0.954134 -0.0157534 0.447531 -0.0289306 0.941247 -0.197142 -0.018293 -0.000798269 1.07505)
(0.957916 -0.0142949 0.46301 -0.0274716 0.937465 -0.157386 -0.018153 -0.00238997 1.07505)
(0.961388 -0.0122026 0.474965 -0.0253788 0.933993 -0.116433 -0.0178773 -0.00396392 1.07505)
(0.964443 -0.00953887 0.483305 -0.022716 0.930938 -0.0745938 -0.0174645 -0.00550667 1.07505)
(0.966988 -0.00638446 0.487968 -0.0195629 0.928392 -0.0321879 -0.0169176 -0.00700754 1.07505)
(0.968947 -0.00283611 0.488916 -0.0160153 0.926433 0.0104644 -0.0162419 -0.0084544 1.07505)
(0.970261 0.000997531 0.486143 -0.01218 0.925121 0.0530357 -0.015442 -0.00983653 1.07505)
(0.970889 0.00500161 0.479671 -0.00817638 0.924494 0.0952037 -0.0145252 -0.0111451 1.07505)
(0.970813 0.00905407 0.469549 -0.00412291 0.92457 0.136647 -0.0134983 -0.0123701 1.07505)
(0.970034 0.0130316 0.455853 -0.000143889 0.925349 0.177051 -0.0123694 -0.0135001 1.07505)
(0.968576 0.0168142 0.438687 0.00363865 0.926807 0.216108 -0.0111472 -0.014527 1.07505)
(0.966482 0.0202866 0.418183 0.00710973 0.928899 0.25352 -0.00983938 -0.0154438 1.07505)
(0.963818 0.0233409 0.394495 0.0101635 0.931563 0.289003 -0.00845567 -0.0162424 1.07505)
(0.960664 0.0258869 0.367807 0.012708 0.934717 0.322285 -0.00700723 -0.0169168 1.07505)
(0.957115 0.0278457 0.338317 0.0146674 0.938266 0.353115 -0.00550575 -0.0174618 1.07505)
(0.953281 0.0291597 0.306254 0.0159819 0.942101 0.381257 -0.00396233 -0.017876 1.07505)
(0.949277 0.0297875 0.271859 0.0166107 0.946104 0.406499 -0.00238976 -0.0181549 1.07505)
(0.945225 0.0297102 0.235396 0.0165337 0.950156 0.428646 -0.000798952 -0.0182931 1.07505)
(0.941247 0.0289306 0.197142 0.0157534 0.954134 0.447531 0.000798269 -0.018293 1.07505)
(0.937465 0.0274716 0.157386 0.0142949 0.957916 0.46301 0.00238997 -0.018153 1.07505)
(0.933993 0.0253788 0.116433 0.0122026 0.961388 0.474964 0.00396393 -0.0178773 1.07505)
(0.930938 0.022716 0.0745938 0.00953886 0.964443 0.483305 0.00550668 -0.0174644 1.07505)
(0.928392 0.019563 0.0321879 0.00638446 0.966988 0.487968 0.00700754 -0.0169176 1.07505)
(0.926433 0.0160153 -0.0104644 0.00283613 0.968947 0.488916 0.00845441 -0.0162419 1.07505)
(0.925121 0.01218 -0.0530357 -0.000997518 0.970261 0.486143 0.00983653 -0.015442 1.07505)
(0.924494 0.00817638 -0.0952037 -0.0050016 0.970889 0.479671 0.0111451 -0.0145252 1.07505)
(0.92457 0.00412291 -0.136647 -0.00905407 0.970813 0.469549 0.0123701 -0.0134983 1.07505)
(0.925348 0.000143891 -0.177051 -0.0130316 0.970034 0.455853 0.0135001 -0.0123694 1.07505)
(0.926807 -0.00363865 -0.216108 -0.0168142 0.968576 0.438687 0.014527 -0.0111472 1.07505)
(0.928899 -0.00710973 -0.25352 -0.0202866 0.966482 0.418183 0.0154438 -0.00983939 1.07505)
(0.931563 -0.0101636 -0.289003 -0.0233409 0.963818 0.394495 0.0162424 -0.00845568 1.07505)
(0.934717 -0.012708 -0.322285 -0.0258869 0.960664 0.367807 0.0169168 -0.00700723 1.07505)
(0.938266 -0.0146674 -0.353115 -0.0278457 0.957115 0.338317 0.0174618 -0.00550574 1.07505)
(0.942101 -0.0159819 -0.381257 -0.0291597 0.953281 0.306254 0.017876 -0.00396231 1.07505)
(0.946104 -0.0166107 -0.406499 -0.0297875 0.949277 0.271859 0.0181549 -0.00238974 1.07505)
(0.950156 -0.0165337 -0.428646 -0.0297102 0.945225 0.235396 0.0182931 -0.000798936 1.07505)
(0.954134 -0.0157534 -0.447531 -0.0289306 0.941247 0.197142 0.018293 0.00079828 1.07505)
(0.957916 -0.0142949 -0.46301 -0.0274717 0.937465 0.157386 0.018153 0.00238998 1.07505)
(0.961388 -0.0122026 -0.474964 -0.0253788 0.933993 0.116433 0.0178773 0.00396393 1.07505)
(0.964443 -0.00953886 -0.483305 -0.022716 0.930938 0.0745938 0.0174644 0.00550668 1.07505)
(0.966988 -0.00638447 -0.487968 -0.019563 0.928392 0.0321879 0.0169176 0.00700754 1.07505)
(0.968947 -0.00283613 -0.488916 -0.0160153 0.926433 -0.0104644 0.0162418 0.00845441 1.07505)
(0.970261 0.00099751 -0.486143 -0.01218 0.925121 -0.0530357 0.015442 0.00983653 1.07505)
(0.970889 0.0050016 -0.479671 -0.00817639 0.924494 -0.0952037 0.0145252 0.0111451 1.07505)
(0.970813 0.00905406 -0.469549 -0.00412292 0.92457 -0.136647 0.0134983 0.0123701 1.07505)
(0.970034 0.0130316 -0.455853 -0.000143899 0.925348 -0.177051 0.0123694 0.0135001 1.07505)
(0.968576 0.0168142 -0.438687 0.00363864 0.926807 -0.216108 0.0111472 0.014527 1.07505)
(0.966482 0.0202866 -0.418183 0.00710972 0.928899 -0.25352 0.00983939 0.0154437 1.07505)
(0.963818 0.0233409 -0.394495 0.0101635 0.931563 -0.289003 0.00845568 0.0162424 1.07505)
(0.960664 0.0258869 -0.367807 0.012708 0.934717 -0.322285 0.00700723 0.0169168 1.07505)
(0.957115 0.0278457 -0.338317 0.0146674 0.938266 -0.353115 0.00550574 0.0174618 1.07505)
(0.953281 0.0291597 -0.306254 0.0159819 0.942101 -0.381257 0.00396232 0.017876 1.07505)
(0.949277 0.0297875 -0.271859 0.0166107 0.946104 -0.406499 0.00238975 0.0181549 1.07505)
(0.945225 0.0297102 -0.235396 0.0165337 0.950156 -0.428646 0.00079894 0.0182931 1.07505)
(0.941247 0.0289306 -0.197142 0.0157534 0.954134 -0.447531 -0.000798275 0.018293 1.07505)
(0.937465 0.0274716 -0.157386 0.0142949 0.957916 -0.46301 -0.00238998 0.018153 1.07505)
(0.933993 0.0253788 -0.116433 0.0122026 0.961388 -0.474964 -0.00396394 0.0178773 1.07505)
(0.930938 0.022716 -0.0745938 0.00953887 0.964443 -0.483305 -0.00550669 0.0174644 1.07505)
(0.928392 0.019563 -0.0321879 0.00638447 0.966988 -0.487968 -0.00700755 0.0169176 1.07505)
(0.926433 0.0160153 0.0104644 0.00283613 0.968947 -0.488916 -0.00845441 0.0162418 1.07505)
(0.925121 0.01218 0.0530357 -0.000997508 0.970261 -0.486143 -0.00983653 0.015442 1.07505)
(0.924494 0.0081764 0.0952037 -0.00500159 0.970889 -0.479671 -0.0111451 0.0145252 1.07505)
(0.92457 0.00412293 0.136647 -0.00905405 0.970813 -0.469549 -0.0123701 0.0134983 1.07505)
(0.925348 0.000143909 0.177051 -0.0130315 0.970034 -0.455853 -0.0135001 0.0123694 1.07505)
(0.926807 -0.00363863 0.216108 -0.0168141 0.968576 -0.438687 -0.0145269 0.0111472 1.07505)
(0.928899 -0.00710971 0.25352 -0.0202866 0.966482 -0.418183 -0.0154437 0.0098394 1.07505)
(0.931563 -0.0101635 0.289003 -0.0233409 0.963818 -0.394495 -0.0162424 0.0084557 1.07505)
(0.934717 -0.012708 0.322285 -0.0258869 0.960664 -0.367807 -0.0169168 0.00700723 1.07505)
(0.938266 -0.0146674 0.353115 -0.0278457 0.957115 -0.338317 -0.0174618 0.00550573 1.07505)
(0.942101 -0.0159819 0.381257 -0.0291597 0.953281 -0.306254 -0.017876 0.00396231 1.07505)
(0.946104 -0.0166107 0.406499 -0.0297875 0.949277 -0.271859 -0.0181549 0.00238975 1.07505)
(0.950156 -0.0165337 0.428646 -0.0297102 0.945225 -0.235396 -0.0182931 0.000798943 1.07505)
(0.956296 -0.0338661 0.49497 -0.115877 0.935726 -0.278749 -0.0329596 -0.00143913 1.02165)
(0.969141 -0.0309424 0.517381 -0.112954 0.922881 -0.234549 -0.0327084 -0.00430553 1.02165)
(0.981284 -0.0258337 0.535854 -0.107844 0.910738 -0.188564 -0.03221 -0.0071403 1.02165)
(0.992354 -0.0186937 0.550249 -0.100704 0.899668 -0.141143 -0.0314647 -0.00992135 1.02165)
(1.00202 -0.00973837 0.560456 -0.0917507 0.890006 -0.092648 -0.0304797 -0.0126262 1.02165)
(1.00998 0.000758704 0.566399 -0.0812546 0.882045 -0.0434484 -0.029263 -0.0152339 1.02165)
(1.01599 0.012477 0.56803 -0.0695355 0.876029 0.00608127 -0.0278231 -0.017726 1.02165)
(1.01988 0.0250619 0.565338 -0.0569502 0.872139 0.0555651 -0.0261714 -0.0200826 1.02165)
(1.02153 0.0381319 0.558344 -0.0438789 0.870492 0.104626 -0.024322 -0.0222871 1.02165)
(1.02088 0.051289 0.547102 -0.0307199 0.871139 0.152891 -0.0222882 -0.0243224 1.02165)
(1.01796 0.0641341 0.531695 -0.0178742 0.874062 0.199993 -0.0200848 -0.0261725 1.02165)
(1.01285 0.0762785 0.512241 -0.00573198 0.879172 0.245572 -0.0177274 -0.027824 1.02165)
(1.00571 0.0873494 0.488889 0.00533786 0.886312 0.289282 -0.015234 -0.029264 1.02165)
(0.996755 0.0970112 0.461816 0.0149992 0.895267 0.330791 -0.0126239 -0.0304803 1.02165)
(0.986259 0.104972 0.431228 0.0229595 0.905764 0.369781 -0.00991942 -0.0314636 1.02165)
(0.97454 0.11099 0.397359 0.0289766 0.917483 0.405958 -0.00714061 -0.0322079 1.02165)
(0.961954 0.11488 0.360465 0.0328684 0.930068 0.439046 -0.00430686 -0.0327091 1.02165)
(0.948884 0.116526 0.320827 0.0345149 0.943138 0.468792 -0.00143901 -0.0329597 1.02165)
(0.935726 0.115877 0.278749 0.0338661 0.956296 0.49497 0.00143913 -0.0329596 1.02165)
(0.922881 0.112954 0.234549 0.0309424 0.969141 0.517381 0.00430553 -0.0327084 1.02165)
(0.910738 0.107844 0.188564 0.0258336 0.981284 0.535854 0.00714031 -0.03221 1.02165)
(0.899668 0.100704 0.141143 0.0186936 0.992354 0.550249 0.00992136 -0.0314646 1.02165)
(0.890006 0.0917507 0.092648 0.00973837 1.00202 0.560456 0.0126262 -0.0304797 1.02165)
(0.882045 0.0812546 0.0434485 -0.000758696 1.00998 0.566399 0.0152339 -0.029263 1.02165)
(0.876029 0.0695355 -0.00608126 -0.012477 1.01599 0.56803 0.017726 -0.0278231 1.02165)
(0.872139 0.0569502 -0.0555651 -0.0250618 1.01988 0.565338 0.0200826 -0.0261714 1.02165)
(0.870492 0.0438789 -0.104626 -0.0381319 1.02153 0.558344 0.0222871 -0.024322 1.02165)
(0.871139 0.0307199 -0.152891 -0.051289 1.02088 0.547102 0.0243224 -0.0222882 1.02165)
(0.874062 0.0178742 -0.199993 -0.0641341 1.01796 0.531695 0.0261725 -0.0200848 1.02165)
(0.879172 0.00573196 -0.245572 -0.0762786 1.01285 0.512241 0.027824 -0.0177274 1.02165)
(0.886312 -0.00533788 -0.289282 -0.0873494 1.00571 0.488889 0.029264 -0.015234 1.02165)
(0.895267 -0.0149992 -0.330791 -0.0970112 0.996755 0.461816 0.0304803 -0.0126239 1.02165)
(0.905764 -0.0229595 -0.369781 -0.104972 0.986259 0.431228 0.0314636 -0.00991942 1.02165)
(0.917483 -0.0289766 -0.405958 -0.11099 0.974539 0.397359 0.0322079 -0.00714061 1.02165)
(0.930068 -0.0328684 -0.439046 -0.11488 0.961954 0.360465 0.0327091 -0.00430685 1.02165)
(0.943138 -0.0345149 -0.468792 -0.116526 0.948884 0.320827 0.0329597 -0.00143899 1.02165)
(0.956296 -0.0338661 -0.49497 -0.115877 0.935726 0.278749 0.0329597 0.00143915 1.02165)
(0.969141 -0.0309424 -0.517381 -0.112954 0.922881 0.234549 0.0327084 0.00430555 1.02165)
(0.981284 -0.0258336 -0.535854 -0.107844 0.910738 0.188564 0.03221 0.00714032 1.02165)
(0.992354 -0.0186936 -0.550249 -0.100704 0.899668 0.141143 0.0314646 0.00992136 1.02165)
(1.00202 -0.00973837 -0.560456 -0.0917508 0.890006 0.092648 0.0304797 0.0126262 1.02165)
(1.00998 0.00075869 -0.566399 -0.0812546 0.882045 0.0434484 0.029263 0.0152339 1.02165)
(1.01599 0.012477 -0.56803 -0.0695355 0.876029 -0.00608127 0.0278231 0.017726 1.02165)
(1.01988 0.0250618 -0.565338 -0.0569502 0.872139 -0.0555651 0.0261714 0.0200826 1.02165)
(1.02153 0.0381318 -0.558344 -0.0438789 0.870492 -0.104626 0.024322 0.0222871 1.02165)
(1.02088 0.051289 -0.547102 -0.0307199 0.871139 -0.152891 0.0222882 0.0243224 1.02165)
(1.01796 0.064134 -0.531695 -0.0178742 0.874062 -0.199993 0.0200848 0.0261725 1.02165)
(1.01285 0.0762785 -0.512241 -0.00573197 0.879172 -0.245572 0.0177274 0.027824 1.02165)
(1.00571 0.0873494 -0.488889 0.00533787 0.886312 -0.289282 0.015234 0.029264 1.02165)
(0.996755 0.0970112 -0.461816 0.0149992 0.895267 -0.330791 0.0126239 0.0304803 1.02165)
(0.986259 0.104972 -0.431228 0.0229595 0.905764 -0.369781 0.00991942 0.0314636 1.02165)
(0.974539 0.11099 -0.397359 0.0289766 0.917483 -0.405958 0.00714061 0.0322079 1.02165)
(0.961954 0.11488 -0.360465 0.0328684 0.930068 -0.439046 0.00430685 0.0327091 1.02165)
(0.948884 0.116526 -0.320827 0.0345149 0.943138 -0.468792 0.001439 0.0329597 1.02165)
(0.935726 0.115877 -0.278749 0.0338661 0.956296 -0.49497 -0.00143914 0.0329596 1.02165)
(0.922881 0.112954 -0.234549 0.0309424 0.969141 -0.517381 -0.00430554 0.0327084 1.02165)
(0.910738 0.107844 -0.188564 0.0258336 0.981284 -0.535854 -0.00714032 0.03221 1.02165)
(0.899668 0.100704 -0.141143 0.0186936 0.992354 -0.550249 -0.00992137 0.0314646 1.02165)
(0.890006 0.0917508 -0.092648 0.00973837 1.00202 -0.560456 -0.0126262 0.0304797 1.02165)
(0.882045 0.0812547 -0.0434484 -0.000758692 1.00998 -0.566399 -0.0152339 0.029263 1.02165)
(0.876029 0.0695355 0.00608128 -0.012477 1.01599 -0.56803 -0.017726 0.0278231 1.02165)
(0.872139 0.0569502 0.0555651 -0.0250618 1.01988 -0.565338 -0.0200826 0.0261714 1.02165)
(0.870492 0.0438789 0.104626 -0.0381318 1.02153 -0.558344 -0.0222871 0.024322 1.02165)
(0.871139 0.0307199 0.152891 -0.051289 1.02088 -0.547101 -0.0243224 0.0222882 1.02165)
(0.874062 0.0178742 0.199993 -0.064134 1.01796 -0.531695 -0.0261725 0.0200848 1.02165)
(0.879172 0.00573198 0.245572 -0.0762785 1.01285 -0.512241 -0.027824 0.0177274 1.02165)
(0.886312 -0.00533787 0.289282 -0.0873493 1.00571 -0.488889 -0.029264 0.015234 1.02165)
(0.895267 -0.0149992 0.330791 -0.0970112 0.996755 -0.461816 -0.0304802 0.0126239 1.02165)
(0.905764 -0.0229595 0.369781 -0.104972 0.986259 -0.431228 -0.0314635 0.00991942 1.02165)
(0.917483 -0.0289766 0.405958 -0.11099 0.974539 -0.397359 -0.0322079 0.00714061 1.02165)
(0.930068 -0.0328684 0.439046 -0.11488 0.961954 -0.360465 -0.0327091 0.00430686 1.02165)
(0.943138 -0.0345149 0.468792 -0.116526 0.948884 -0.320827 -0.0329597 0.001439 1.02165)
(1.02108 -0.0441215 0.349865 -0.0605601 0.856464 -0.154223 -0.0950009 -0.00414585 1.11907)
(1.02892 -0.0290316 0.361975 -0.0454708 0.848625 -0.123143 -0.0942767 -0.0124135 1.11907)
(1.03402 -0.012813 0.371331 -0.0292507 0.843523 -0.0911261 -0.0928392 -0.0205856 1.11907)
(1.03623 0.00404379 0.377859 -0.0123917 0.841317 -0.0584165 -0.0906938 -0.0285969 1.11907)
(1.03547 0.0210293 0.381513 0.00459227 0.842073 -0.0252615 -0.0878581 -0.0363899 1.11907)
(1.03178 0.0376263 0.382263 0.0211879 0.84577 0.0080855 -0.0843512 -0.0439044 1.11907)
(1.02526 0.0533289 0.380103 0.0368902 0.852291 0.0413714 -0.0802003 -0.0510869 1.11907)
(1.01611 0.0676601 0.375051 0.051223 0.861439 0.0743426 -0.0754387 -0.0578828 1.11907)
(1.00461 0.0801871 0.367145 0.0637503 0.872937 0.106748 -0.0701043 -0.0642398 1.11907)
(0.991114 0.0905287 0.356445 0.0740926 0.886435 0.138341 -0.0642379 -0.0701099 1.11907)
(0.976027 0.09837 0.343031 0.0819339 0.901522 0.16888 -0.0578851 -0.0754459 1.11906)
(0.959808 0.10347 0.327007 0.0870343 0.91774 0.198134 -0.0510936 -0.0802039 1.11907)
(0.942949 0.105674 0.308494 0.089238 0.934599 0.22588 -0.0439114 -0.0843489 1.11907)
(0.925963 0.104917 0.287633 0.0884783 0.951585 0.251907 -0.0363923 -0.0878529 1.11907)
(0.909365 0.101222 0.264583 0.0847823 0.968183 0.276018 -0.0285951 -0.0906892 1.11907)
(0.89366 0.0947023 0.23952 0.0782654 0.983888 0.298028 -0.0205784 -0.0928371 1.11907)
(0.879328 0.085556 0.212633 0.0691213 0.998219 0.317769 -0.0124101 -0.0942815 1.11907)
(0.866803 0.0740583 0.184128 0.0576228 1.01074 0.335092 -0.00414964 -0.0950033 1.11907)
(0.856464 0.0605601 0.154223 0.0441215 1.02108 0.349865 0.00414585 -0.0950009 1.11907)
(0.848625 0.0454708 0.123143 0.0290316 1.02892 0.361975 0.0124136 -0.0942767 1.11907)
(0.843523 0.0292507 0.0911261 0.012813 1.03402 0.371331 0.0205857 -0.0928392 1.11907)
(0.841317 0.0123918 0.0584165 -0.00404378 1.03623 0.377859 0.0285969 -0.0906937 1.11907)
(0.842074 -0.00459222 0.0252615 -0.0210293 1.03547 0.381513 0.0363899 -0.0878581 1.11907)
(0.84577 -0.0211878 -0.00808553 -0.0376263 1.03178 0.382263 0.0439044 -0.0843512 1.11907)
(0.852291 -0.0368902 -0.0413714 -0.0533288 1.02526 0.380103 0.0510869 -0.0802003 1.11907)
(0.861439 -0.051223 -0.0743425 -0.0676601 1.01611 0.375051 0.0578828 -0.0754387 1.11907)
(0.872937 -0.0637504 -0.106748 -0.0801871 1.00461 0.367145 0.0642399 -0.0701043 1.11907)
(0.886435 -0.0740926 -0.138341 -0.0905287 0.991114 0.356445 0.0701099 -0.0642379 1.11907)
(0.901522 -0.0819339 -0.16888 -0.09837 0.976027 0.343031 0.0754458 -0.0578852 1.11906)
(0.91774 -0.0870343 -0.198134 -0.10347 0.959808 0.327007 0.0802039 -0.0510937 1.11907)
(0.934599 -0.0892379 -0.22588 -0.105674 0.942949 0.308494 0.0843488 -0.0439114 1.11907)
(0.951585 -0.0884783 -0.251907 -0.104917 0.925963 0.287633 0.0878527 -0.0363923 1.11907)
(0.968183 -0.0847823 -0.276018 -0.101222 0.909365 0.264583 0.0906892 -0.028595 1.11907)
(0.983888 -0.0782654 -0.298028 -0.0947023 0.89366 0.23952 0.0928371 -0.0205783 1.11907)
(0.998219 -0.0691214 -0.317769 -0.0855561 0.879328 0.212633 0.0942815 -0.01241 1.11907)
(1.01074 -0.0576228 -0.335092 -0.0740583 0.866803 0.184128 0.0950034 -0.0041496 1.11907)
(1.02108 -0.0441215 -0.349865 -0.0605601 0.856464 0.154223 0.0950009 0.00414587 1.11907)
(1.02892 -0.0290316 -0.361975 -0.0454708 0.848625 0.123143 0.0942767 0.0124136 1.11907)
(1.03402 -0.012813 -0.371331 -0.0292508 0.843523 0.0911261 0.0928392 0.0205857 1.11907)
(1.03623 0.00404377 -0.377859 -0.0123918 0.841317 0.0584165 0.0906937 0.0285969 1.11907)
(1.03547 0.0210293 -0.381513 0.00459221 0.842074 0.0252615 0.0878581 0.0363899 1.11907)
(1.03178 0.0376263 -0.382263 0.0211878 0.84577 -0.00808554 0.0843512 0.0439044 1.11907)
(1.02526 0.0533288 -0.380103 0.0368902 0.852291 -0.0413714 0.0802003 0.0510869 1.11907)
(1.01611 0.0676601 -0.375051 0.051223 0.861439 -0.0743425 0.0754387 0.0578828 1.11907)
(1.00461 0.0801871 -0.367145 0.0637503 0.872937 -0.106748 0.0701042 0.0642399 1.11907)
(0.991114 0.0905287 -0.356445 0.0740926 0.886435 -0.138341 0.0642379 0.0701099 1.11907)
(0.976027 0.0983699 -0.343031 0.0819339 0.901522 -0.16888 0.0578852 0.0754458 1.11906)
(0.959808 0.10347 -0.327007 0.0870342 0.91774 -0.198134 0.0510937 0.0802039 1.11907)
(0.942949 0.105674 -0.308494 0.0892379 0.934599 -0.22588 0.0439114 0.0843488 1.11907)
(0.925963 0.104917 -0.287633 0.0884783 0.951585 -0.251907 0.0363923 0.0878527 1.11907)
(0.909365 0.101222 -0.264583 0.0847823 0.968183 -0.276018 0.028595 0.0906891 1.11907)
(0.89366 0.0947023 -0.23952 0.0782654 0.983888 -0.298028 0.0205783 0.0928371 1.11907)
(0.879328 0.0855561 -0.212633 0.0691214 0.998219 -0.317769 0.0124101 0.0942815 1.11907)
(0.866803 0.0740583 -0.184128 0.0576228 1.01074 -0.335092 0.00414962 0.0950034 1.11907)
(0.856464 0.0605601 -0.154223 0.0441215 1.02108 -0.349865 -0.00414586 0.0950009 1.11907)
(0.848625 0.0454708 -0.123143 0.0290316 1.02892 -0.361975 -0.0124136 0.0942767 1.11907)
(0.843523 0.0292507 -0.0911261 0.012813 1.03402 -0.371331 -0.0205857 0.0928392 1.11907)
(0.841317 0.0123917 -0.0584164 -0.00404379 1.03623 -0.377859 -0.0285969 0.0906938 1.11907)
(0.842074 -0.00459224 -0.0252615 -0.0210293 1.03547 -0.381513 -0.0363899 0.0878581 1.11907)
(0.84577 -0.0211878 0.00808554 -0.0376263 1.03178 -0.382263 -0.0439044 0.0843512 1.11907)
(0.852291 -0.0368902 0.0413714 -0.0533288 1.02526 -0.380103 -0.0510869 0.0802003 1.11907)
(0.861439 -0.051223 0.0743425 -0.0676601 1.01611 -0.375051 -0.0578828 0.0754387 1.11907)
(0.872937 -0.0637503 0.106748 -0.0801871 1.00461 -0.367145 -0.0642398 0.0701043 1.11907)
(0.886435 -0.0740926 0.138341 -0.0905287 0.991114 -0.356445 -0.0701099 0.0642379 1.11907)
(0.901522 -0.0819339 0.16888 -0.0983699 0.976027 -0.343031 -0.0754458 0.0578852 1.11906)
(0.91774 -0.0870342 0.198134 -0.10347 0.959808 -0.327007 -0.0802038 0.0510937 1.11907)
(0.934599 -0.0892379 0.22588 -0.105674 0.942949 -0.308494 -0.0843488 0.0439114 1.11907)
(0.951585 -0.0884783 0.251907 -0.104917 0.925963 -0.287633 -0.0878527 0.0363923 1.11907)
(0.968183 -0.0847823 0.276018 -0.101222 0.909365 -0.264583 -0.0906891 0.028595 1.11907)
(0.983888 -0.0782654 0.298028 -0.0947023 0.89366 -0.23952 -0.0928371 0.0205783 1.11907)
(0.998219 -0.0691214 0.317769 -0.0855561 0.879328 -0.212633 -0.0942815 0.0124101 1.11907)
(1.01074 -0.0576228 0.335092 -0.0740584 0.866803 -0.184128 -0.0950034 0.00414962 1.11907)
(1.03479 -0.0567463 0.393651 -0.154633 0.833216 -0.240075 -0.113847 -0.00497055 1.07202)
(1.05161 -0.0376387 0.413077 -0.135526 0.816394 -0.204853 -0.11298 -0.0148743 1.07202)
(1.06486 -0.0159026 0.429359 -0.113787 0.803144 -0.168071 -0.111256 -0.0246658 1.07202)
(1.07413 0.00780398 0.442373 -0.0900808 0.793872 -0.130011 -0.108684 -0.0342679 1.07202)
(1.07914 0.0327625 0.452021 -0.0651247 0.788858 -0.0909613 -0.105284 -0.0436095 1.07202)
(1.07975 0.0582126 0.458228 -0.0396754 0.788255 -0.0512188 -0.101081 -0.0526177 1.07202)
(1.07592 0.0833795 0.460949 -0.0145082 0.792079 -0.0110868 -0.0961078 -0.0612256 1.07202)
(1.06779 0.107499 0.460161 0.00961377 0.800216 0.0291301 -0.0904036 -0.0693679 1.07202)
(1.05559 0.12984 0.455871 0.0319569 0.812417 0.0691255 -0.0840136 -0.0769831 1.07202)
(1.03969 0.149725 0.448112 0.0518434 0.828312 0.108594 -0.076985 -0.0840147 1.07202)
(1.02059 0.16655 0.436942 0.068667 0.847418 0.147236 -0.0693706 -0.0904079 1.07202)
(0.998847 0.1798 0.422447 0.0819154 0.869155 0.184758 -0.0612285 -0.0961116 1.07202)
(0.975139 0.189072 0.404737 0.0911861 0.892863 0.220873 -0.0526193 -0.101081 1.07202)
(0.950181 0.194086 0.383946 0.0961976 0.917821 0.255308 -0.043609 -0.105281 1.07202)
(0.924731 0.194689 0.360234 0.0968019 0.943271 0.2878 -0.0342667 -0.10868 1.07202)
(0.899563 0.190865 0.333779 0.0929804 0.968439 0.318101 -0.0246633 -0.111253 1.07202)
(0.875442 0.18273 0.304785 0.0848459 0.99256 0.345982 -0.0148739 -0.112982 1.07202)
(0.8531 0.170528 0.273471 0.0726438 1.0149 0.371229 -0.00497059 -0.113848 1.07202)
(0.833216 0.154633 0.240075 0.0567463 1.03479 0.393651 0.00497055 -0.113847 1.07202)
(0.816394 0.135526 0.204853 0.0376387 1.05161 0.413077 0.0148743 -0.11298 1.07202)
(0.803144 0.113787 0.168071 0.0159026 1.06486 0.429359 0.0246658 -0.111256 1.07202)
(0.793872 0.0900808 0.130011 -0.00780399 1.07413 0.442373 0.0342679 -0.108684 1.07202)
(0.788858 0.0651248 0.0909612 -0.0327625 1.07914 0.452021 0.0436095 -0.105284 1.07202)
(0.788255 0.0396754 0.0512188 -0.0582126 1.07975 0.458228 0.0526177 -0.101081 1.07202)
(0.792079 0.0145082 0.0110868 -0.0833795 1.07592 0.460949 0.0612256 -0.0961078 1.07202)
(0.800216 -0.00961379 -0.0291301 -0.107499 1.06779 0.460161 0.0693679 -0.0904036 1.07202)
(0.812417 -0.0319569 -0.0691254 -0.12984 1.05559 0.455871 0.0769831 -0.0840136 1.07202)
(0.828312 -0.0518434 -0.108594 -0.149725 1.03969 0.448112 0.0840147 -0.076985 1.07202)
(0.847418 -0.068667 -0.147236 -0.16655 1.02059 0.436942 0.0904079 -0.0693706 1.07202)
(0.869155 -0.0819154 -0.184758 -0.1798 0.998847 0.422447 0.0961115 -0.0612285 1.07202)
(0.892863 -0.0911861 -0.220873 -0.189072 0.975139 0.404737 0.101081 -0.0526194 1.07202)
(0.917821 -0.0961977 -0.255308 -0.194086 0.950181 0.383946 0.105281 -0.043609 1.07202)
(0.943271 -0.0968019 -0.2878 -0.194689 0.924731 0.360234 0.10868 -0.0342667 1.07202)
(0.968439 -0.0929804 -0.318101 -0.190865 0.899563 0.333779 0.111253 -0.0246633 1.07202)
(0.99256 -0.0848459 -0.345982 -0.18273 0.875442 0.304785 0.112982 -0.0148739 1.07202)
(1.0149 -0.0726438 -0.371229 -0.170528 0.8531 0.273471 0.113848 -0.00497056 1.07202)
(1.03479 -0.0567463 -0.393651 -0.154633 0.833216 0.240075 0.113847 0.00497058 1.07202)
(1.05161 -0.0376387 -0.413077 -0.135526 0.816394 0.204853 0.11298 0.0148743 1.07202)
(1.06486 -0.0159026 -0.429359 -0.113787 0.803144 0.168071 0.111256 0.0246658 1.07202)