/*--------------------------------*- C++ -*----------------------------------*\
| =========                 |                                                 |
| \\      /  F ield         | OpenFOAM: The Open Source CFD Toolbox           |
|  \\    /   O peration     | Version:  2312                                  |
|   \\  /    A nd           | Website:  www.openfoam.com                      |
|    \\/     M anipulation  |                                                 |
\*---------------------------------------------------------------------------*/
FoamFile
{
    version     2.0;
    format      ascii;
    arch        "LSB;label=32;scalar=64";
    class       volScalarField;
    location    "0.8";
    object      sigmaHyd;
}
// * * * * * * * * * * * * * * * * * * * * * * * * * * * * * * * * * * * * * //

dimensions      [1 -1 -2 0 0 0 0];

internalField   nonuniform List<scalar> 
3240
(
1516.16
1516.09
1516.09
1516.19
1516.21
1516.17
1516.17
1516.05
1515.93
1515.96
1516.11
1516.22
1516.18
1516.18
1516.18
1516.02
1516.17
1516.19
1516.16
1516.09
1516.09
1516.19
1516.21
1516.17
1516.17
1516.05
1515.93
1515.96
1516.11
1516.22
1516.18
1516.18
1516.18
1516.02
1516.17
1516.19
1516.16
1516.09
1516.09
1516.19
1516.21
1516.17
1516.17
1516.05
1515.93
1515.96
1516.11
1516.22
1516.18
1516.18
1516.18
1516.02
1516.17
1516.19
1516.16
1516.09
1516.09
1516.19
1516.21
1516.17
1516.17
1516.05
1515.93
1515.96
1516.11
1516.22
1516.18
1516.18
1516.18
1516.02
1516.17
1516.19
-2789.02
-2789.06
-2789.01
-2789
-2789.07
-2789.09
-2789.03
-2788.95
-2789.05
-2789.09
-2789.04
-2789.07
-2789.08
-2789.04
-2789.02
-2789.03
-2789.05
-2789.07
-2789.02
-2789.06
-2789.01
-2789
-2789.07
-2789.09
-2789.03
-2788.94
-2789.05
-2789.09
-2789.04
-2789.07
-2789.08
-2789.05
-2789.02
-2789.03
-2789.05
-2789.07
-2789.02
-2789.06
-2789.01
-2789
-2789.07
-2789.09
-2789.03
-2788.94
-2789.05
-2789.09
-2789.03
-2789.07
-2789.08
-2789.04
-2789.02
-2789.03
-2789.05
-2789.07
-2789.02
-2789.06
-2789.01
-2789
-2789.07
-2789.09
-2789.03
-2788.94
-2789.05
-2789.09
-2789.03
-2789.07
-2789.08
-2789.04
-2789.02
-2789.03
-2789.05
-2789.07
-7820.17
-7820.18
-7820.16
-7820.16
-7820.23
-7820.27
-7820.17
-7820.05
-7820.08
-7820.17
-7820.11
-7820.21
-7820.24
-7820.17
-7820.15
-7820.17
-7820.16
-7820.21
-7820.17
-7820.19
-7820.17
-7820.16
-7820.23
-7820.27
-7820.17
-7820.05
-7820.08
-7820.17
-7820.11
-7820.21
-7820.24
-7820.17
-7820.15
-7820.17
-7820.16
-7820.22
-7820.17
-7820.19
-7820.17
-7820.16
-7820.23
-7820.27
-7820.17
-7820.05
-7820.08
-7820.17
-7820.11
-7820.21
-7820.24
-7820.17
-7820.15
-7820.17
-7820.16
-7820.22
-7820.17
-7820.19
-7820.17
-7820.16
-7820.23
-7820.27
-7820.17
-7820.05
-7820.08
-7820.17
-7820.11
-7820.21
-7820.24
-7820.17
-7820.15
-7820.17
-7820.16
-7820.21
290.864
290.753
290.707
290.693
290.805
290.827
290.835
290.845
290.783
290.706
290.626
290.736
290.783
290.814
290.867
290.704
290.71
290.838
290.863
290.752
290.707
290.693
290.806
290.827
290.835
290.844
290.782
290.706
290.628
290.738
290.785
290.813
290.864
290.703
290.71
290.838
290.863
290.753
290.707
290.693
290.807
290.827
290.835
290.844
290.782
290.706
290.628
290.738
290.785
290.813
290.865
290.703
290.71
290.839
290.864
290.753
290.707
290.693
290.806
290.827
290.835
290.844
290.782
290.706
290.628
290.738
290.785
290.813
290.864
290.703
290.71
290.838
-5158.26
-5158.27
-5158.32
-5158.29
-5158.26
-5158.27
-5158.23
-5158.21
-5158.22
-5158.28
-5158.26
-5158.3
-5158.34
-5158.28
-5158.28
-5158.28
-5158.29
-5158.3
-5158.26
-5158.27
-5158.32
-5158.29
-5158.26
-5158.27
-5158.23
-5158.2
-5158.21
-5158.28
-5158.26
-5158.3
-5158.34
-5158.28
-5158.28
-5158.28
-5158.29
-5158.3
-5158.26
-5158.27
-5158.32
-5158.29
-5158.26
-5158.27
-5158.23
-5158.2
-5158.21
-5158.28
-5158.26
-5158.3
-5158.34
-5158.28
-5158.28
-5158.28
-5158.29
-5158.3
-5158.26
-5158.27
-5158.32
-5158.29
-5158.26
-5158.27
-5158.23
-5158.2
-5158.21
-5158.28
-5158.26
-5158.3
-5158.34
-5158.28
-5158.28
-5158.28
-5158.29
-5158.3
-11998.9
-11998.9
-11998.9
-11999
-11999
-11999
-11998.9
-11998.8
-11998.9
-11998.9
-11998.8
-11998.9
-11999
-11999
-11998.9
-11998.9
-11999
-11999
-11998.9
-11998.9
-11998.9
-11999
-11999
-11999
-11998.9
-11998.8
-11998.9
-11998.9
-11998.8
-11998.9
-11999
-11999
-11998.9
-11998.9
-11999
-11999
-11998.9
-11998.9
-11998.9
-11999
-11999
-11999
-11998.9
-11998.8
-11998.9
-11998.9
-11998.8
-11998.9
-11999
-11999
-11998.9
-11998.9
-11999
-11999
-11998.9
-11998.9
-11998.9
-11999
-11999
-11999
-11998.9
-11998.8
-11998.9
-11998.9
-11998.8
-11998.9
-11999
-11999
-11998.9
-11998.9
-11999
-11999
26.1588
26.1388
26.1121
26.0182
26.0294
26.197
26.1631
26.1774
26.1214
26.2153
26.1306
26.0694
26.0557
26.0352
26.1244
26.1035
25.9752
26.0655
26.1578
26.1375
26.1101
26.0159
26.0259
26.2009
26.1744
26.1784
26.1146
26.2131
26.1305
26.0733
26.0564
26.0298
26.1226
26.1063
25.9763
26.0662
26.1581
26.1376
26.1102
26.0161
26.0262
26.2012
26.1748
26.1788
26.115
26.2135
26.1309
26.0736
26.0567
26.0301
26.123
26.1068
25.9769
26.0669
26.1589
26.1384
26.1108
26.0162
26.0258
26.2005
26.1742
26.1787
26.1149
26.2135
26.131
26.0737
26.0567
26.0301
26.1229
26.1066
25.9766
26.0667
-6750.79
-6750.73
-6750.8
-6750.76
-6750.71
-6750.75
-6750.66
-6750.76
-6750.75
-6750.76
-6750.76
-6750.79
-6750.82
-6750.76
-6750.85
-6750.83
-6750.78
-6750.77
-6750.79
-6750.73
-6750.8
-6750.77
-6750.71
-6750.75
-6750.66
-6750.76
-6750.75
-6750.76
-6750.76
-6750.78
-6750.83
-6750.77
-6750.85
-6750.83
-6750.78
-6750.77
-6750.79
-6750.73
-6750.8
-6750.76
-6750.71
-6750.75
-6750.65
-6750.76
-6750.75
-6750.76
-6750.76
-6750.78
-6750.83
-6750.77
-6750.85
-6750.83
-6750.78
-6750.77
-6750.79
-6750.74
-6750.8
-6750.77
-6750.71
-6750.75
-6750.65
-6750.76
-6750.74
-6750.76
-6750.76
-6750.78
-6750.83
-6750.77
-6750.85
-6750.83
-6750.78
-6750.77
-14634.3
-14634.3
-14634.3
-14634.3
-14634.3
-14634.2
-14634.3
-14634.2
-14634.3
-14634.3
-14634.3
-14634.3
-14634.3
-14634.4
-14634.4
-14634.3
-14634.3
-14634.3
-14634.3
-14634.3
-14634.3
-14634.3
-14634.3
-14634.2
-14634.3
-14634.2
-14634.3
-14634.3
-14634.3
-14634.3
-14634.3
-14634.4
-14634.4
-14634.3
-14634.3
-14634.3
-14634.3
-14634.3
-14634.3
-14634.3
-14634.3
-14634.2
-14634.3
-14634.2
-14634.3
-14634.3
-14634.3
-14634.3
-14634.3
-14634.4
-14634.4
-14634.3
-14634.3
-14634.3
-14634.3
-14634.3
-14634.3
-14634.3
-14634.3
-14634.2
-14634.3
-14634.2
-14634.3
-14634.3
-14634.3
-14634.3
-14634.3
-14634.4
-14634.4
-14634.3
-14634.3
-14634.3
-941.575
-941.616
-941.635
-941.552
-941.636
-941.61
-941.504
-941.517
-941.621
-941.587
-941.477
-941.52
-941.527
-941.554
-941.598
-941.577
-941.568
-941.581
-941.576
-941.617
-941.636
-941.553
-941.636
-941.609
-941.502
-941.516
-941.622
-941.588
-941.479
-941.522
-941.528
-941.551
-941.594
-941.576
-941.568
-941.581
-941.576
-941.617
-941.635
-941.552
-941.636
-941.609
-941.501
-941.516
-941.621
-941.588
-941.478
-941.522
-941.528
-941.551
-941.594
-941.575
-941.567
-941.581
-941.575
-941.616
-941.635
-941.551
-941.635
-941.609
-941.504
-941.517
-941.622
-941.588
-941.478
-941.522
-941.528
-941.551
-941.594
-941.575
-941.567
-941.581
-7882.55
-7882.46
-7882.51
-7882.5
-7882.52
-7882.55
-7882.48
-7882.45
-7882.47
-7882.52
-7882.49
-7882.5
-7882.52
-7882.49
-7882.53
-7882.52
-7882.47
-7882.52
-7882.55
-7882.46
-7882.51
-7882.5
-7882.52
-7882.55
-7882.48
-7882.45
-7882.48
-7882.52
-7882.49
-7882.5
-7882.51
-7882.5
-7882.53
-7882.52
-7882.46
-7882.52
-7882.55
-7882.46
-7882.51
-7882.5
-7882.52
-7882.55
-7882.48
-7882.45
-7882.48
-7882.52
-7882.49
-7882.5
-7882.51
-7882.49
-7882.53
-7882.52
-7882.46
-7882.52
-7882.55
-7882.46
-7882.51
-7882.5
-7882.52
-7882.55
-7882.48
-7882.45
-7882.48
-7882.52
-7882.49
-7882.5
-7882.51
-7882.49
-7882.53
-7882.52
-7882.46
-7882.52
-15648.5
-15648.4
-15648.4
-15648.4
-15648.4
-15648.6
-15648.5
-15648.4
-15648.5
-15648.5
-15648.4
-15648.5
-15648.5
-15648.4
-15648.4
-15648.5
-15648.4
-15648.5
-15648.5
-15648.4
-15648.4
-15648.4
-15648.4
-15648.6
-15648.5
-15648.4
-15648.5
-15648.5
-15648.4
-15648.5
-15648.5
-15648.4
-15648.4
-15648.5
-15648.4
-15648.5
-15648.5
-15648.4
-15648.4
-15648.4
-15648.4
-15648.6
-15648.5
-15648.4
-15648.5
-15648.5
-15648.4
-15648.5
-15648.5
-15648.4
-15648.4
-15648.5
-15648.4
-15648.5
-15648.5
-15648.4
-15648.4
-15648.4
-15648.4
-15648.6
-15648.5
-15648.4
-15648.5
-15648.5
-15648.4
-15648.5
-15648.5
-15648.4
-15648.4
-15648.5
-15648.4
-15648.5
-1187.12
-1187.14
-1187.22
-1187.14
-1187.08
-1187.17
-1187.11
-1187.08
-1187.07
-1187.18
-1187.15
-1187.16
-1187.13
-1187.04
-1187.13
-1187.15
-1187.13
-1187.14
-1187.12
-1187.14
-1187.22
-1187.14
-1187.08
-1187.17
-1187.1
-1187.08
-1187.07
-1187.18
-1187.15
-1187.16
-1187.13
-1187.04
-1187.13
-1187.15
-1187.13
-1187.14
-1187.12
-1187.14
-1187.22
-1187.14
-1187.08
-1187.17
-1187.1
-1187.08
-1187.07
-1187.18
-1187.15
-1187.16
-1187.13
-1187.04
-1187.13
-1187.15
-1187.13
-1187.14
-1187.12
-1187.14
-1187.22
-1187.14
-1187.08
-1187.17
-1187.11
-1187.08
-1187.07
-1187.18
-1187.15
-1187.16
-1187.13
-1187.04
-1187.13
-1187.15
-1187.13
-1187.14
-7751.97
-7751.87
-7751.94
-7751.99
-7751.95
-7751.95
-7751.98
-7751.93
-7751.89
-7751.93
-7751.96
-7751.98
-7751.96
-7751.93
-7751.97
-7751.96
-7751.86
-7751.93
-7751.97
-7751.87
-7751.94
-7751.99
-7751.95
-7751.95
-7751.98
-7751.93
-7751.89
-7751.93
-7751.96
-7751.99
-7751.96
-7751.92
-7751.97
-7751.96
-7751.86
-7751.93
-7751.97
-7751.87
-7751.94
-7751.99
-7751.95
-7751.95
-7751.98
-7751.93
-7751.89
-7751.93
-7751.96
-7751.99
-7751.95
-7751.92
-7751.97
-7751.96
-7751.86
-7751.93
-7751.97
-7751.87
-7751.94
-7751.98
-7751.95
-7751.95
-7751.99
-7751.93
-7751.89
-7751.93
-7751.96
-7751.99
-7751.96
-7751.92
-7751.97
-7751.96
-7751.86
-7751.93
-15259
-15259
-15258.9
-15259
-15258.9
-15259
-15259
-15258.9
-15258.9
-15258.9
-15258.9
-15259
-15259
-15259
-15258.9
-15258.9
-15258.9
-15259
-15259
-15259
-15258.9
-15259
-15258.9
-15259
-15259
-15258.9
-15258.9
-15258.9
-15258.9
-15259
-15259
-15259
-15258.9
-15258.9
-15258.9
-15259
-15259
-15259
-15258.9
-15259
-15258.9
-15259
-15259
-15258.9
-15258.9
-15258.9
-15258.9
-15259
-15259
-15259
-15258.9
-15258.9
-15258.9
-15259
-15259
-15259
-15258.9
-15259
-15258.9
-15259
-15259
-15258.9
-15258.9
-15258.9
-15258.9
-15259
-15259
-15259
-15258.9
-15258.9
-15258.9
-15259
-525.189
-525.202
-525.19
-525.153
-525.098
-525.156
-525.196
-525.143
-525.031
-525.119
-525.25
-525.223
-525.099
-525.053
-525.056
-525.14
-525.176
-525.183
-525.189
-525.203
-525.191
-525.153
-525.098
-525.156
-525.195
-525.143
-525.031
-525.12
-525.251
-525.224
-525.099
-525.053
-525.056
-525.139
-525.175
-525.183
-525.189
-525.202
-525.19
-525.153
-525.098
-525.156
-525.195
-525.143
-525.031
-525.12
-525.251
-525.224
-525.099
-525.053
-525.056
-525.139
-525.175
-525.183
-525.189
-525.202
-525.19
-525.153
-525.097
-525.156
-525.196
-525.144
-525.031
-525.12
-525.251
-525.224
-525.1
-525.053
-525.056
-525.139
-525.175
-525.183
-7189.5
-7189.43
-7189.46
-7189.52
-7189.42
-7189.49
-7189.45
-7189.5
-7189.46
-7189.45
-7189.49
-7189.49
-7189.46
-7189.37
-7189.43
-7189.44
-7189.38
-7189.49
-7189.5
-7189.43
-7189.46
-7189.52
-7189.42
-7189.49
-7189.45
-7189.5
-7189.46
-7189.45
-7189.49
-7189.49
-7189.46
-7189.37
-7189.43
-7189.44
-7189.38
-7189.49
-7189.5
-7189.43
-7189.46
-7189.52
-7189.42
-7189.49
-7189.45
-7189.5
-7189.46
-7189.45
-7189.49
-7189.49
-7189.46
-7189.37
-7189.43
-7189.44
-7189.38
-7189.49
-7189.5
-7189.43
-7189.46
-7189.52
-7189.42
-7189.49
-7189.45
-7189.5
-7189.46
-7189.45
-7189.49
-7189.49
-7189.46
-7189.37
-7189.43
-7189.44
-7189.38
-7189.49
-15048.1
-15048.1
-15048.1
-15048.1
-15048.1
-15048.1
-15048.1
-15048.1
-15048.2
-15048.2
-15048.2
-15048.1
-15048.1
-15048.1
-15048
-15048.1
-15048
-15048.1
-15048.1
-15048.1
-15048.1
-15048.1
-15048.1
-15048.1
-15048.1
-15048.1
-15048.2
-15048.2
-15048.2
-15048.1
-15048.1
-15048.1
-15048
-15048.1
-15048
-15048.1
-15048.1
-15048.1
-15048.1
-15048.1
-15048.1
-15048.1
-15048.1
-15048.1
-15048.2
-15048.2
-15048.2
-15048.1
-15048.1
-15048.1
-15048
-15048.1
-15048
-15048.1
-15048.1
-15048.1
-15048.1
-15048.1
-15048.1
-15048.2
-15048.1
-15048.1
-15048.2
-15048.2
-15048.2
-15048.1
-15048.1
-15048.1
-15048
-15048.1
-15048
-15048.1
222.053
222.016
222.037
222.076
222.123
222.063
222.006
222.031
222.064
222.149
222.06
221.924
222.089
222.153
222.098
222.068
222.052
222.012
222.052
222.016
222.036
222.075
222.123
222.063
222.005
222.031
222.063
222.148
222.06
221.925
222.089
222.153
222.098
222.067
222.052
222.012
222.053
222.016
222.036
222.075
222.123
222.063
222.006
222.031
222.063
222.148
222.06
221.925
222.089
222.153
222.098
222.068
222.052
222.012
222.053
222.017
222.037
222.076
222.124
222.063
222.004
222.03
222.063
222.148
222.06
221.925
222.089
222.153
222.098
222.067
222.052
222.012
-6769.28
-6769.25
-6769.22
-6769.3
-6769.2
-6769.19
-6769.2
-6769.29
-6769.31
-6769.23
-6769.2
-6769.16
-6769.23
-6769.2
-6769.2
-6769.17
-6769.22
-6769.27
-6769.28
-6769.26
-6769.22
-6769.3
-6769.2
-6769.19
-6769.2
-6769.29
-6769.31
-6769.23
-6769.2
-6769.16
-6769.23
-6769.2
-6769.2
-6769.17
-6769.22
-6769.27
-6769.28
-6769.26
-6769.22
-6769.3
-6769.2
-6769.19
-6769.2
-6769.29
-6769.31
-6769.23
-6769.2
-6769.16
-6769.23
-6769.2
-6769.2
-6769.17
-6769.22
-6769.27
-6769.28
-6769.25
-6769.22
-6769.3
-6769.2
-6769.19
-6769.2
-6769.29
-6769.31
-6769.23
-6769.2
-6769.16
-6769.23
-6769.2
-6769.2
-6769.17
-6769.22
-6769.27
-15327.4
-15327.4
-15327.5
-15327.5
-15327.5
-15327.6
-15327.4
-15327.5
-15327.6
-15327.5
-15327.4
-15327.3
-15327.4
-15327.5
-15327.5
-15327.5
-15327.5
-15327.4
-15327.4
-15327.4
-15327.5
-15327.5
-15327.5
-15327.6
-15327.4
-15327.5
-15327.6
-15327.5
-15327.4
-15327.3
-15327.4
-15327.5
-15327.5
-15327.5
-15327.5
-15327.4
-15327.4
-15327.4
-15327.5
-15327.5
-15327.5
-15327.6
-15327.4
-15327.5
-15327.6
-15327.5
-15327.4
-15327.3
-15327.4
-15327.5
-15327.5
-15327.5
-15327.5
-15327.4
-15327.4
-15327.4
-15327.5
-15327.5
-15327.5
-15327.6
-15327.5
-15327.5
-15327.6
-15327.5
-15327.4
-15327.3
-15327.4
-15327.5
-15327.5
-15327.5
-15327.5
-15327.4
339.694
339.693
339.643
339.664
339.774
339.772
339.678
339.673
339.679
339.757
339.701
339.638
339.778
339.805
339.756
339.729
339.777
339.694
339.694
339.692
339.643
339.664
339.774
339.772
339.678
339.673
339.679
339.757
339.701
339.638
339.778
339.804
339.755
339.728
339.776
339.694
339.694
339.693
339.643
339.664
339.774
339.772
339.678
339.673
339.679
339.757
339.701
339.638
339.778
339.804
339.755
339.728
339.777
339.694
339.694
339.693
339.643
339.664
339.774
339.772
339.678
339.673
339.679
339.757
339.701
339.638
339.778
339.804
339.755
339.729
339.777
339.695
-6915.61
-6915.62
-6915.52
-6915.6
-6915.57
-6915.48
-6915.49
-6915.55
-6915.61
-6915.58
-6915.53
-6915.52
-6915.57
-6915.57
-6915.48
-6915.49
-6915.54
-6915.52
-6915.62
-6915.62
-6915.52
-6915.6
-6915.57
-6915.48
-6915.49
-6915.55
-6915.61
-6915.58
-6915.53
-6915.52
-6915.57
-6915.57
-6915.48
-6915.49
-6915.54
-6915.52
-6915.62
-6915.62
-6915.52
-6915.6
-6915.57
-6915.48
-6915.49
-6915.55
-6915.61
-6915.58
-6915.53
-6915.52
-6915.57
-6915.57
-6915.48
-6915.49
-6915.54
-6915.52
-6915.62
-6915.62
-6915.52
-6915.6
-6915.57
-6915.48
-6915.49
-6915.55
-6915.61
-6915.58
-6915.53
-6915.52
-6915.57
-6915.57
-6915.48
-6915.49
-6915.54
-6915.52
-16191.8
-16191.8
-16191.7
-16191.7
-16191.9
-16191.9
-16191.8
-16191.8
-16191.8
-16191.7
-16191.8
-16191.8
-16191.8
-16191.9
-16191.8
-16191.8
-16191.8
-16191.7
-16191.8
-16191.8
-16191.7
-16191.7
-16191.9
-16191.9
-16191.8
-16191.8
-16191.8
-16191.8
-16191.8
-16191.8
-16191.8
-16191.9
-16191.8
-16191.8
-16191.8
-16191.7
-16191.8
-16191.8
-16191.7
-16191.7
-16191.9
-16191.9
-16191.8
-16191.8
-16191.8
-16191.8
-16191.8
-16191.8
-16191.8
-16191.9
-16191.8
-16191.8
-16191.8
-16191.7
-16191.8
-16191.8
-16191.7
-16191.7
-16191.9
-16191.9
-16191.8
-16191.8
-16191.8
-16191.8
-16191.8
-16191.8
-16191.8
-16191.9
-16191.8
-16191.8
-16191.8
-16191.7
-784.919
-785.001
-784.963
-784.816
-784.807
-784.947
-785.004
-784.952
-784.921
-784.942
-785.014
-785.034
-785.021
-784.936
-784.725
-784.798
-784.943
-784.935
-784.919
-785.001
-784.965
-784.816
-784.808
-784.948
-785.004
-784.952
-784.921
-784.942
-785.014
-785.034
-785.021
-784.937
-784.726
-784.8
-784.944
-784.936
-784.919
-785.001
-784.965
-784.816
-784.808
-784.947
-785.004
-784.952
-784.921
-784.942
-785.014
-785.034
-785.021
-784.937
-784.726
-784.8
-784.944
-784.936
-784.919
-785.001
-784.965
-784.816
-784.808
-784.948
-785.004
-784.951
-784.919
-784.941
-785.012
-785.033
-785.021
-784.936
-784.726
-784.8
-784.944
-784.935
-8038.47
-8038.48
-8038.47
-8038.44
-8038.49
-8038.51
-8038.5
-8038.44
-8038.51
-8038.57
-8038.54
-8038.52
-8038.57
-8038.53
-8038.41
-8038.4
-8038.52
-8038.46
-8038.47
-8038.48
-8038.47
-8038.44
-8038.49
-8038.51
-8038.5
-8038.44
-8038.51
-8038.57
-8038.54
-8038.52
-8038.57
-8038.53
-8038.41
-8038.4
-8038.52
-8038.46
-8038.47
-8038.48
-8038.47
-8038.44
-8038.49
-8038.51
-8038.5
-8038.44
-8038.51
-8038.57
-8038.54
-8038.52
-8038.57
-8038.53
-8038.41
-8038.4
-8038.52
-8038.46
-8038.47
-8038.48
-8038.47
-8038.44
-8038.49
-8038.51
-8038.5
-8038.44
-8038.51
-8038.57
-8038.54
-8038.51
-8038.57
-8038.53
-8038.41
-8038.4
-8038.52
-8038.46
-17617.7
-17617.6
-17617.6
-17617.6
-17617.5
-17617.6
-17617.6
-17617.5
-17617.5
-17617.7
-17617.7
-17617.6
-17617.6
-17617.6
-17617.6
-17617.5
-17617.5
-17617.7
-17617.7
-17617.6
-17617.6
-17617.6
-17617.5
-17617.6
-17617.6
-17617.5
-17617.5
-17617.7
-17617.7
-17617.6
-17617.6
-17617.6
-17617.6
-17617.5
-17617.5
-17617.7
-17617.7
-17617.6
-17617.6
-17617.6
-17617.5
-17617.6
-17617.6
-17617.5
-17617.5
-17617.7
-17617.7
-17617.6
-17617.6
-17617.6
-17617.6
-17617.5
-17617.5
-17617.7
-17617.7
-17617.6
-17617.6
-17617.6
-17617.5
-17617.6
-17617.6
-17617.5
-17617.5
-17617.7
-17617.7
-17617.6
-17617.6
-17617.6
-17617.6
-17617.5
-17617.5
-17617.7
-3912.86
-3912.87
-3912.86
-3912.73
-3912.86
-3913.01
-3912.97
-3912.77
-3912.69
-3912.63
-3912.77
-3912.9
-3913.06
-3913.08
-3912.75
-3912.61
-3912.81
-3912.86
-3912.86
-3912.87
-3912.86
-3912.73
-3912.86
-3913.01
-3912.97
-3912.77
-3912.69
-3912.63
-3912.77
-3912.9
-3913.06
-3913.08
-3912.75
-3912.61
-3912.82
-3912.86
-3912.86
-3912.87
-3912.86
-3912.73
-3912.86
-3913.01
-3912.97
-3912.77
-3912.69
-3912.63
-3912.77
-3912.9
-3913.06
-3913.08
-3912.75
-3912.61
-3912.82
-3912.86
-3912.86
-3912.87
-3912.86
-3912.73
-3912.86
-3913.01
-3912.97
-3912.77
-3912.69
-3912.64
-3912.77
-3912.89
-3913.06
-3913.08
-3912.75
-3912.61
-3912.81
-3912.86
-10677
-10677
-10677
-10676.9
-10677.1
-10677.1
-10677.1
-10677
-10676.9
-10676.9
-10677
-10677
-10677.1
-10677.1
-10677
-10677
-10677
-10677
-10677
-10677
-10677
-10676.9
-10677.1
-10677.1
-10677.1
-10677
-10676.9
-10676.9
-10677
-10677
-10677.1
-10677.1
-10677
-10677
-10677
-10677
-10677
-10677
-10677
-10676.9
-10677.1
-10677.1
-10677.1
-10677
-10676.9
-10676.9
-10677
-10677
-10677.1
-10677.1
-10677
-10677
-10677
-10677
-10677
-10677
-10677
-10676.9
-10677.1
-10677.1
-10677.1
-10677
-10676.9
-10676.9
-10677
-10677
-10677.2
-10677.1
-10677
-10677
-10677
-10677
-19511.1
-19511
-19511
-19511
-19511
-19511.1
-19511.1
-19511.1
-19510.9
-19511
-19511
-19511
-19511
-19511
-19510.9
-19511
-19511
-19511.1
-19511.1
-19511
-19511
-19511
-19511
-19511.1
-19511.1
-19511.1
-19510.9
-19511
-19511
-19511
-19511
-19511
-19510.9
-19511
-19511
-19511.1
-19511.1
-19511
-19511
-19511
-19511
-19511.1
-19511.1
-19511.1
-19510.9
-19511
-19511
-19511
-19511
-19511
-19510.9
-19511
-19511
-19511.1
-19511.1
-19511
-19511
-19511
-19511
-19511.1
-19511.1
-19511.1
-19510.9
-19511
-19511
-19511
-19511
-19511
-19510.9
-19511
-19511
-19511.1
-10300.8
-10300.8
-10300.8
-10300.8
-10300.9
-10300.9
-10301
-10300.9
-10300.8
-10300.7
-10300.8
-10300.8
-10300.9
-10301.1
-10300.9
-10300.8
-10300.9
-10300.8
-10300.8
-10300.8
-10300.8
-10300.8
-10300.9
-10300.9
-10301
-10300.9
-10300.8
-10300.7
-10300.8
-10300.8
-10300.9
-10301.1
-10300.9
-10300.8
-10300.9
-10300.8
-10300.8
-10300.8
-10300.8
-10300.8
-10300.9
-10300.9
-10301
-10300.9
-10300.8
-10300.7
-10300.8
-10300.8
-10300.9
-10301.1
-10300.9
-10300.8
-10300.9
-10300.8
-10300.8
-10300.8
-10300.8
-10300.8
-10300.9
-10300.9
-10301
-10300.9
-10300.8
-10300.7
-10300.8
-10300.8
-10300.9
-10301.1
-10300.9
-10300.8
-10300.9
-10300.8
-14388.9
-14388.8
-14388.9
-14388.8
-14389
-14389
-14389
-14388.9
-14388.8
-14388.9
-14388.9
-14388.9
-14388.9
-14389
-14389
-14389
-14388.9
-14388.9
-14388.9
-14388.8
-14388.9
-14388.8
-14389
-14389
-14389
-14388.9
-14388.8
-14388.9
-14388.9
-14388.9
-14388.9
-14389
-14389
-14389.1
-14388.9
-14388.9
-14388.9
-14388.8
-14388.9
-14388.8
-14389
-14389
-14389
-14388.9
-14388.8
-14388.9
-14388.9
-14388.9
-14388.9
-14389
-14389
-14389.1
-14388.9
-14388.9
-14388.9
-14388.8
-14388.9
-14388.8
-14389
-14389
-14389
-14388.9
-14388.8
-14388.9
-14388.9
-14388.9
-14388.9
-14389
-14389
-14389.1
-14388.9
-14388.9
-22004.8
-22004.8
-22004.7
-22004.8
-22004.7
-22004.9
-22004.9
-22005
-22004.8
-22004.8
-22004.8
-22004.8
-22004.7
-22004.8
-22004.8
-22004.9
-22004.7
-22004.8
-22004.8
-22004.8
-22004.7
-22004.8
-22004.7
-22004.9
-22004.9
-22005
-22004.8
-22004.8
-22004.8
-22004.8
-22004.7
-22004.8
-22004.8
-22004.9
-22004.7
-22004.8
-22004.8
-22004.8
-22004.7
-22004.8
-22004.7
-22004.9
-22004.9
-22005
-22004.8
-22004.8
-22004.8
-22004.8
-22004.7
-22004.8
-22004.8
-22004.9
-22004.7
-22004.8
-22004.8
-22004.8
-22004.7
-22004.8
-22004.7
-22004.9
-22004.9
-22005
-22004.8
-22004.8
-22004.8
-22004.8
-22004.7
-22004.8
-22004.8
-22004.9
-22004.7
-22004.8
-15140.9
-15140.9
-15141
-15140.7
-15140.9
-15140.8
-15140.5
-15140.8
-15141.3
-15141
-15140.7
-15140.6
-15140.8
-15140.9
-15140.9
-15141
-15141.2
-15141
-15140.9
-15140.9
-15141
-15140.7
-15140.9
-15140.8
-15140.5
-15140.8
-15141.3
-15141
-15140.7
-15140.6
-15140.8
-15140.9
-15140.9
-15141
-15141.2
-15141
-15140.9
-15140.9
-15141
-15140.7
-15140.9
-15140.8
-15140.5
-15140.8
-15141.3
-15141
-15140.7
-15140.6
-15140.8
-15140.9
-15140.9
-15141
-15141.2
-15141
-15140.9
-15140.9
-15141
-15140.7
-15140.9
-15140.8
-15140.5
-15140.8
-15141.3
-15141
-15140.7
-15140.6
-15140.8
-15140.9
-15140.9
-15141
-15141.2
-15141
-14090.4
-14090.5
-14090.4
-14090.4
-14090.2
-14090.4
-14090.4
-14090.4
-14090.4
-14090.4
-14090.4
-14090.3
-14090.4
-14090.3
-14090.5
-14090.4
-14090.4
-14090.3
-14090.4
-14090.5
-14090.4
-14090.4
-14090.2
-14090.4
-14090.4
-14090.4
-14090.4
-14090.4
-14090.4
-14090.3
-14090.4
-14090.3
-14090.5
-14090.4
-14090.4
-14090.3
-14090.4
-14090.5
-14090.4
-14090.4
-14090.2
-14090.4
-14090.4
-14090.4
-14090.4
-14090.4
-14090.4
-14090.3
-14090.4
-14090.3
-14090.5
-14090.4
-14090.4
-14090.3
-14090.4
-14090.5
-14090.4
-14090.4
-14090.2
-14090.4
-14090.4
-14090.4
-14090.4
-14090.4
-14090.4
-14090.3
-14090.4
-14090.3
-14090.5
-14090.4
-14090.4
-14090.3
-21502.7
-21502.8
-21502.7
-21502.7
-21502.6
-21502.9
-21502.8
-21502.8
-21502.8
-21502.8
-21502.8
-21502.7
-21502.7
-21502.7
-21502.8
-21502.8
-21502.6
-21502.6
-21502.7
-21502.8
-21502.7
-21502.7
-21502.6
-21502.9
-21502.8
-21502.8
-21502.8
-21502.8
-21502.8
-21502.7
-21502.7
-21502.7
-21502.8
-21502.8
-21502.6
-21502.6
-21502.7
-21502.8
-21502.7
-21502.7
-21502.6
-21502.9
-21502.8
-21502.8
-21502.8
-21502.8
-21502.8
-21502.7
-21502.7
-21502.7
-21502.8
-21502.8
-21502.7
-21502.6
-21502.7
-21502.8
-21502.7
-21502.7
-21502.6
-21502.9
-21502.8
-21502.8
-21502.8
-21502.8
-21502.8
-21502.7
-21502.7
-21502.7
-21502.8
-21502.8
-21502.7
-21502.6
-15777.3
-15776.5
-15776.3
-15776.2
-15776.1
-15776.5
-15776.9
-15776.6
-15777.1
-15776.4
-15775.4
-15777
-15777.4
-15776.6
-15776.7
-15776.6
-15776.2
-15776.8
-15777.3
-15776.5
-15776.3
-15776.2
-15776.2
-15776.5
-15776.9
-15776.6
-15777.1
-15776.4
-15775.4
-15777
-15777.4
-15776.6
-15776.7
-15776.6
-15776.2
-15776.8
-15777.3
-15776.5
-15776.3
-15776.2
-15776.1
-15776.5
-15776.9
-15776.6
-15777.1
-15776.4
-15775.4
-15776.9
-15777.4
-15776.6
-15776.7
-15776.6
-15776.2
-15776.8
-15777.3
-15776.5
-15776.3
-15776.2
-15776.1
-15776.5
-15776.9
-15776.6
-15777.1
-15776.4
-15775.4
-15777
-15777.4
-15776.6
-15776.7
-15776.6
-15776.2
-15776.8
-9423.54
-9423.37
-9423.52
-9423.6
-9423.54
-9423.65
-9423.77
-9423.38
-9423.34
-9423.55
-9423.6
-9423.65
-9423.48
-9423.43
-9423.41
-9423.4
-9423.45
-9423.57
-9423.54
-9423.37
-9423.52
-9423.59
-9423.54
-9423.65
-9423.76
-9423.38
-9423.34
-9423.55
-9423.6
-9423.65
-9423.48
-9423.43
-9423.41
-9423.4
-9423.45
-9423.57
-9423.54
-9423.37
-9423.52
-9423.6
-9423.54
-9423.65
-9423.76
-9423.38
-9423.34
-9423.55
-9423.6
-9423.65
-9423.48
-9423.43
-9423.41
-9423.4
-9423.45
-9423.57
-9423.54
-9423.37
-9423.52
-9423.6
-9423.54
-9423.65
-9423.76
-9423.38
-9423.34
-9423.55
-9423.6
-9423.65
-9423.48
-9423.44
-9423.42
-9423.4
-9423.45
-9423.57
-10754.7
-10754.7
-10754.7
-10754.5
-10754.9
-10754.7
-10754.7
-10754.6
-10754.8
-10754.7
-10754.7
-10754.7
-10754.6
-10754.7
-10754.5
-10754.7
-10754.7
-10754.7
-10754.7
-10754.7
-10754.7
-10754.5
-10754.9
-10754.7
-10754.7
-10754.6
-10754.8
-10754.7
-10754.7
-10754.7
-10754.6
-10754.7
-10754.5
-10754.7
-10754.7
-10754.7
-10754.7
-10754.7
-10754.7
-10754.5
-10754.9
-10754.7
-10754.7
-10754.6
-10754.8
-10754.7
-10754.7
-10754.7
-10754.6
-10754.7
-10754.5
-10754.7
-10754.7
-10754.7
-10754.7
-10754.7
-10754.7
-10754.5
-10754.9
-10754.7
-10754.7
-10754.6
-10754.8
-10754.7
-10754.7
-10754.7
-10754.6
-10754.7
-10754.5
-10754.7
-10754.7
-10754.7
-17070.3
-17076.4
-17077.2
-17075.6
-17077.3
-17075.3
-17070.1
-17080.2
-17077.3
-17070.6
-17078.6
-17075
-17073.9
-17074.7
-17075.9
-17077.9
-17080.3
-17074.7
-17070.3
-17076.4
-17077.2
-17075.6
-17077.3
-17075.3
-17070.1
-17080.2
-17077.3
-17070.6
-17078.6
-17075
-17073.9
-17074.7
-17075.9
-17077.9
-17080.3
-17074.7
-17070.3
-17076.4
-17077.2
-17075.6
-17077.3
-17075.3
-17070.1
-17080.2
-17077.3
-17070.6
-17078.6
-17075
-17073.9
-17074.7
-17075.9
-17077.9
-17080.2
-17074.7
-17070.3
-17076.4
-17077.2
-17075.6
-17077.3
-17075.3
-17070.1
-17080.2
-17077.3
-17070.6
-17078.6
-17075
-17073.9
-17074.7
-17075.9
-17077.9
-17080.3
-17074.6
-4789.07
-4789.51
-4789.58
-4789.45
-4789.51
-4789.15
-4789.22
-4789.85
-4789.01
-4789.06
-4790.06
-4788.94
-4789.28
-4789.78
-4789.34
-4789.44
-4789.3
-4789.09
-4789.07
-4789.51
-4789.58
-4789.45
-4789.51
-4789.15
-4789.22
-4789.85
-4789.01
-4789.06
-4790.06
-4788.94
-4789.28
-4789.78
-4789.34
-4789.44
-4789.3
-4789.09
-4789.07
-4789.51
-4789.58
-4789.44
-4789.52
-4789.15
-4789.22
-4789.85
-4789.01
-4789.06
-4790.06
-4788.94
-4789.28
-4789.79
-4789.34
-4789.44
-4789.3
-4789.09
-4789.07
-4789.51
-4789.58
-4789.44
-4789.52
-4789.15
-4789.22
-4789.86
-4789.01
-4789.06
-4790.05
-4788.94
-4789.28
-4789.78
-4789.34
-4789.44
-4789.3
-4789.09
6095.12
6095.15
6095.15
6095.04
6095.24
6095.1
6095.55
6094.84
6095.4
6095.26
6095.07
6095.59
6094.95
6095.35
6095.05
6095.22
6095.21
6095.12
6095.12
6095.14
6095.15
6095.04
6095.24
6095.1
6095.54
6094.84
6095.4
6095.26
6095.07
6095.59
6094.95
6095.35
6095.05
6095.23
6095.21
6095.12
6095.12
6095.15
6095.15
6095.04
6095.24
6095.09
6095.55
6094.84
6095.4
6095.26
6095.07
6095.59
6094.96
6095.35
6095.04
6095.23
6095.21
6095.12
6095.12
6095.15
6095.15
6095.04
6095.24
6095.09
6095.54
6094.84
6095.4
6095.25
6095.07
6095.59
6094.95
6095.35
6095.05
6095.23
6095.21
6095.12
9327.88
9404.37
9420.7
9384.73
9377.99
9409.06
9332.45
9407.18
9390.42
9380.59
9432.14
9342.14
9390.75
9383.88
9367.39
9397.55
9439.45
9369.78
9327.88
9404.38
9420.71
9384.74
9377.99
9409.06
9332.45
9407.18
9390.42
9380.59
9432.14
9342.13
9390.77
9383.89
9367.36
9397.55
9439.45
9369.78
9327.88
9404.38
9420.71
9384.74
9377.99
9409.07
9332.45
9407.17
9390.41
9380.58
9432.14
9342.12
9390.77
9383.88
9367.36
9397.57
9439.43
9369.76
9327.9
9404.37
9420.71
9384.75
9377.97
9409.05
9332.47
9407.17
9390.41
9380.58
9432.14
9342.13
9390.75
9383.89
9367.39
9397.55
9439.46
9369.79
11726.8
11728.6
11728.7
11725.3
11727.4
11726.7
11724.6
11727.7
11730
11727.4
11725.1
11724.8
11728.6
11728.4
11726.7
11729.3
11726
11725.7
11726.8
11728.7
11728.7
11725.3
11727.4
11726.7
11724.6
11727.7
11730
11727.4
11725.1
11724.8
11728.6
11728.4
11726.7
11729.3
11726
11725.7
11726.8
11728.7
11728.7
11725.3
11727.4
11726.7
11724.6
11727.7
11730
11727.4
11725.1
11724.8
11728.6
11728.4
11726.7
11729.3
11726
11725.7
11726.8
11728.7
11728.7
11725.3
11727.4
11726.7
11724.6
11727.7
11730
11727.4
11725.1
11724.8
11728.6
11728.4
11726.7
11729.3
11726
11725.7
17253.9
17254
17253.2
17254.1
17252.9
17255.1
17254.2
17253.3
17251.9
17254.5
17255.7
17253.4
17253.4
17253.1
17254.7
17253.3
17254.5
17253.4
17253.9
17254
17253.2
17254.1
17252.9
17255.1
17254.2
17253.3
17251.9
17254.5
17255.7
17253.4
17253.4
17253.1
17254.7
17253.3
17254.5
17253.4
17253.9
17254
17253.2
17254.1
17252.9
17255.1
17254.2
17253.3
17251.9
17254.5
17255.7
17253.4
17253.4
17253.1
17254.7
17253.3
17254.5
17253.4
17253.9
17254
17253.2
17254.1
17252.9
17255.1
17254.2
17253.3
17251.9
17254.5
17255.7
17253.4
17253.4
17253.1
17254.7
17253.3
17254.5
17253.4
)
;

boundaryField
{
    fixed
    {
        type            zeroGradient;
    }
    inside
    {
        type            zeroGradient;
    }
    outside
    {
        type            zeroGradient;
    }
}


// ************************************************************************* //
