/*--------------------------------*- C++ -*----------------------------------*\
| =========                 |                                                 |
| \\      /  F ield         | OpenFOAM: The Open Source CFD Toolbox           |
|  \\    /   O peration     | Version:  2312                                  |
|   \\  /    A nd           | Website:  www.openfoam.com                      |
|    \\/     M anipulation  |                                                 |
\*---------------------------------------------------------------------------*/
FoamFile
{
    version     2.0;
    format      ascii;
    arch        "LSB;label=32;scalar=64";
    class       volSymmTensorField;
    location    "0.8";
    object      sigma;
}
// * * * * * * * * * * * * * * * * * * * * * * * * * * * * * * * * * * * * * //

dimensions      [1 -1 -2 0 0 0 0];

internalField   nonuniform List<symmTensor> 
3240
(
(1909.22 -1256.4 1458.7 26490.4 23197.2 24148.9)
(2314.07 -3371.62 -568.683 26085.5 23236.1 24148.7)
(3080.09 -5384.25 -2591.63 25319.3 23098.1 24148.9)
(4184.06 -7233.35 -4594.86 24215.7 22784.3 24148.8)
(5592.3 -8862.72 -6563.17 22807.5 22297.2 24148.8)
(7262.12 -10222.8 -8481.61 21137.7 21640.2 24148.7)
(9142.64 -11272.2 -10335.4 19256.9 20818.7 24148.9)
(11176.7 -11979.1 -12110.5 17222.7 19838.7 24148.7)
(13302.7 -12322 -13793.5 15096.5 18707.7 24148.6)
(15456 -12290.6 -15371.5 12943.2 17434.3 24148.6)
(17571.3 -11885.7 -16832.5 10828.2 16028.2 24148.8)
(19584 -11119.7 -18165.3 8815.64 14500.3 24149)
(21433.3 -10015.9 -19360 6966.53 12861.9 24148.7)
(23062.7 -8607.54 -20407.4 5337.11 11125.5 24148.8)
(24422.6 -6937.75 -21299.3 3977.07 9304.59 24148.8)
(25471.8 -5057.2 -22029.2 2927.53 7412.86 24148.8)
(26179 -3023.03 -22591.5 2220.73 5464.69 24148.8)
(26521.9 -896.895 -22981.8 1877.79 3474.9 24148.9)
(26490.4 1256.4 -23197.2 1909.21 1458.7 24148.9)
(26085.5 3371.62 -23236.1 2314.07 -568.683 24148.7)
(25319.3 5384.25 -23098.1 3080.09 -2591.63 24148.9)
(24215.7 7233.35 -22784.3 4184.06 -4594.86 24148.8)
(22807.5 8862.72 -22297.2 5592.3 -6563.17 24148.8)
(21137.7 10222.8 -21640.2 7262.12 -8481.61 24148.7)
(19256.9 11272.2 -20818.7 9142.64 -10335.4 24148.9)
(17222.7 11979.1 -19838.7 11176.7 -12110.5 24148.7)
(15096.5 12322 -18707.7 13302.7 -13793.5 24148.6)
(12943.2 12290.6 -17434.3 15456 -15371.5 24148.6)
(10828.2 11885.7 -16028.2 17571.3 -16832.5 24148.8)
(8815.64 11119.7 -14500.3 19584 -18165.3 24149)
(6966.53 10015.9 -12861.9 21433.3 -19360 24148.7)
(5337.11 8607.54 -11125.5 23062.7 -20407.4 24148.8)
(3977.07 6937.75 -9304.59 24422.6 -21299.3 24148.8)
(2927.52 5057.2 -7412.86 25471.8 -22029.2 24148.8)
(2220.73 3023.03 -5464.69 26179 -22591.5 24148.8)
(1877.79 896.895 -3474.9 26521.9 -22981.8 24148.9)
(1909.22 -1256.4 -1458.7 26490.4 -23197.2 24148.9)
(2314.07 -3371.62 568.683 26085.5 -23236.1 24148.7)
(3080.09 -5384.25 2591.63 25319.3 -23098.1 24148.9)
(4184.06 -7233.35 4594.86 24215.7 -22784.3 24148.8)
(5592.3 -8862.72 6563.17 22807.5 -22297.2 24148.8)
(7262.12 -10222.8 8481.61 21137.7 -21640.2 24148.7)
(9142.64 -11272.2 10335.4 19256.9 -20818.7 24148.9)
(11176.7 -11979.1 12110.5 17222.7 -19838.7 24148.8)
(13302.7 -12322 13793.5 15096.5 -18707.7 24148.6)
(15456 -12290.6 15371.5 12943.2 -17434.3 24148.6)
(17571.3 -11885.7 16832.5 10828.2 -16028.2 24148.8)
(19584 -11119.7 18165.3 8815.64 -14500.3 24149)
(21433.3 -10015.9 19360 6966.53 -12861.9 24148.7)
(23062.7 -8607.54 20407.4 5337.11 -11125.5 24148.8)
(24422.6 -6937.75 21299.3 3977.07 -9304.59 24148.8)
(25471.8 -5057.2 22029.2 2927.53 -7412.86 24148.8)
(26179 -3023.03 22591.5 2220.73 -5464.69 24148.8)
(26521.9 -896.895 22981.8 1877.79 -3474.9 24148.9)
(26490.4 1256.4 23197.2 1909.22 -1458.7 24148.9)
(26085.5 3371.62 23236.1 2314.07 568.683 24148.7)
(25319.3 5384.25 23098.1 3080.09 2591.63 24148.9)
(24215.7 7233.35 22784.3 4184.06 4594.86 24148.8)
(22807.5 8862.72 22297.2 5592.3 6563.17 24148.8)
(21137.7 10222.8 21640.2 7262.12 8481.61 24148.7)
(19256.9 11272.2 20818.7 9142.64 10335.4 24148.9)
(17222.7 11979.1 19838.7 11176.7 12110.5 24148.8)
(15096.5 12322 18707.7 13302.7 13793.5 24148.6)
(12943.2 12290.6 17434.3 15456 15371.5 24148.6)
(10828.2 11885.7 16028.2 17571.3 16832.5 24148.8)
(8815.64 11119.7 14500.3 19584 18165.3 24149)
(6966.53 10015.9 12861.9 21433.3 19360 24148.7)
(5337.11 8607.54 11125.5 23062.7 20407.4 24148.8)
(3977.07 6937.75 9304.59 24422.6 21299.3 24148.8)
(2927.53 5057.2 7412.86 25471.8 22029.2 24148.8)
(2220.73 3023.03 5464.69 26179 22591.5 24148.8)
(1877.79 896.895 3474.9 26521.9 22981.8 24148.9)
(-2133.15 -2984.12 1496.25 43463.7 3075.33 -1697.61)
(-1268.65 -6897.67 1222.53 42599.1 3194.03 -1697.65)
(262.37 -10601.6 939.494 41068.2 3288.43 -1697.6)
(2413.29 -13983.5 649.34 38917.3 3357.71 -1697.6)
(5118.77 -16940.5 354.24 36211.7 3401.48 -1697.69)
(8296.66 -19382.8 56.4066 33033.8 3419.45 -1697.7)
(11850.4 -21236.1 -241.88 29480.1 3411.43 -1697.64)
(15672.1 -22444.2 -538.284 25658.6 3377.36 -1697.55)
(19645.2 -22970.3 -830.626 21685.3 3317.64 -1697.64)
(23649.2 -22798.4 -1116.61 17681.2 3232.63 -1697.69)
(27562.8 -21933.9 -1394.06 13767.7 3122.98 -1697.64)
(31266.8 -20402.9 -1660.94 10063.6 2989.58 -1697.67)
(34648.7 -18252 -1915.1 6681.74 2833.41 -1697.69)
(37605.8 -15546.5 -2154.72 3724.74 2655.7 -1697.67)
(40048.1 -12368.5 -2378.03 1282.49 2457.81 -1697.63)
(41901.4 -8814.84 -2583.27 -570.824 2241.21 -1697.62)
(43109.4 -4993.42 -2768.78 -1778.87 2007.54 -1697.64)
(43635.5 -1020.17 -2933.22 -2305.02 1758.59 -1697.66)
(43463.7 2984.11 -3075.33 -2133.15 1496.25 -1697.61)
(42599.1 6897.67 -3194.03 -1268.65 1222.53 -1697.65)
(41068.2 10601.6 -3288.43 262.37 939.494 -1697.6)
(38917.3 13983.5 -3357.71 2413.29 649.34 -1697.6)
(36211.7 16940.5 -3401.48 5118.77 354.24 -1697.69)
(33033.8 19382.8 -3419.45 8296.66 56.4065 -1697.7)
(29480.1 21236.1 -3411.43 11850.4 -241.88 -1697.64)
(25658.6 22444.2 -3377.36 15672.1 -538.284 -1697.55)
(21685.3 22970.3 -3317.64 19645.2 -830.626 -1697.64)
(17681.2 22798.4 -3232.63 23649.2 -1116.61 -1697.69)
(13767.7 21933.9 -3122.98 27562.8 -1394.06 -1697.64)
(10063.6 20402.9 -2989.58 31266.8 -1660.94 -1697.67)
(6681.74 18252 -2833.41 34648.7 -1915.1 -1697.69)
(3724.74 15546.5 -2655.7 37605.8 -2154.72 -1697.67)
(1282.49 12368.5 -2457.81 40048.1 -2378.03 -1697.63)
(-570.824 8814.84 -2241.21 41901.4 -2583.27 -1697.62)
(-1778.87 4993.42 -2007.54 43109.4 -2768.78 -1697.64)
(-2305.02 1020.17 -1758.59 43635.5 -2933.22 -1697.66)
(-2133.15 -2984.11 -1496.25 43463.7 -3075.33 -1697.61)
(-1268.65 -6897.67 -1222.53 42599.1 -3194.03 -1697.65)
(262.37 -10601.6 -939.494 41068.2 -3288.43 -1697.6)
(2413.29 -13983.5 -649.34 38917.3 -3357.71 -1697.6)
(5118.77 -16940.5 -354.24 36211.7 -3401.48 -1697.68)
(8296.66 -19382.8 -56.4066 33033.8 -3419.45 -1697.7)
(11850.4 -21236.1 241.88 29480.1 -3411.43 -1697.64)
(15672.1 -22444.2 538.284 25658.6 -3377.36 -1697.55)
(19645.2 -22970.3 830.626 21685.3 -3317.64 -1697.64)
(23649.2 -22798.4 1116.61 17681.2 -3232.63 -1697.69)
(27562.8 -21933.9 1394.06 13767.7 -3122.98 -1697.64)
(31266.8 -20402.9 1660.94 10063.6 -2989.58 -1697.67)
(34648.7 -18252 1915.1 6681.74 -2833.41 -1697.69)
(37605.8 -15546.5 2154.72 3724.74 -2655.7 -1697.67)
(40048.1 -12368.5 2378.03 1282.49 -2457.81 -1697.63)
(41901.4 -8814.84 2583.27 -570.824 -2241.21 -1697.62)
(43109.4 -4993.42 2768.78 -1778.87 -2007.54 -1697.64)
(43635.5 -1020.17 2933.22 -2305.02 -1758.59 -1697.66)
(43463.7 2984.12 3075.33 -2133.15 -1496.25 -1697.61)
(42599.1 6897.67 3194.03 -1268.65 -1222.53 -1697.65)
(41068.2 10601.6 3288.43 262.371 -939.494 -1697.6)
(38917.3 13983.5 3357.71 2413.29 -649.34 -1697.6)
(36211.7 16940.5 3401.48 5118.77 -354.24 -1697.68)
(33033.8 19382.8 3419.45 8296.66 -56.4066 -1697.7)
(29480.1 21236.1 3411.43 11850.4 241.88 -1697.64)
(25658.6 22444.2 3377.36 15672.1 538.284 -1697.55)
(21685.3 22970.3 3317.64 19645.2 830.626 -1697.64)
(17681.2 22798.4 3232.63 23649.2 1116.61 -1697.69)
(13767.7 21933.9 3122.98 27562.8 1394.06 -1697.64)
(10063.6 20402.9 2989.58 31266.8 1660.94 -1697.67)
(6681.74 18252 2833.41 34648.7 1915.09 -1697.69)
(3724.74 15546.5 2655.7 37605.8 2154.72 -1697.67)
(1282.49 12368.5 2457.81 40048.1 2378.03 -1697.63)
(-570.824 8814.84 2241.21 41901.4 2583.27 -1697.62)
(-1778.87 4993.42 2007.54 43109.4 2768.78 -1697.64)
(-2305.02 1020.17 1758.59 43635.5 2933.22 -1697.66)
(-7779.18 -5578.68 5560.75 23400.9 -27514.5 8917.83)
(-6573.62 -8201.08 7937.62 22195.2 -26925.2 8917.86)
(-4931.01 -10574.2 10254 20552.6 -26130.9 8917.89)
(-2901.22 -12626.2 12492.5 18522.8 -25137.8 8917.88)
(-545.972 -14294.6 14635.9 16167.4 -23953.3 8917.85)
(2063.19 -15528.5 16667.9 13558.2 -22586.5 8917.79)
(4847.01 -16290.6 18573 10774.5 -21047.9 8917.94)
(7721.18 -16557.9 20336.9 7900.66 -19349.1 8918)
(10597.8 -16321.9 21945.9 5024.08 -17502.9 8917.92)
(13389.4 -15590 23387.7 2232.24 -15523.7 8917.81)
(16011.9 -14384.4 24651.7 -390.141 -13426.3 8917.91)
(18385.1 -12741.7 25728.1 -2763.57 -11226.6 8917.86)
(20436.9 -10712 26608.6 -4815.46 -8941.56 8917.82)
(22105.3 -8356.74 27286.7 -6483.75 -6588.43 8917.92)
(23339.4 -5747.5 27757.1 -7717.75 -4185.09 8917.89)
(24101.5 -2963.64 28016.2 -8479.89 -1749.95 8917.88)
(24368.6 -89.8358 28062.1 -8747 698.427 8917.87)
(24132.7 2786.71 27894.4 -8511.1 3141.51 8917.79)
(23400.9 5578.68 27514.5 -7779.18 5560.75 8917.83)
(22195.2 8201.07 26925.2 -6573.62 7937.62 8917.86)
(20552.6 10574.2 26130.9 -4931.01 10254 8917.89)
(18522.8 12626.2 25137.8 -2901.22 12492.5 8917.88)
(16167.4 14294.6 23953.3 -545.973 14635.9 8917.85)
(13558.2 15528.5 22586.5 2063.19 16667.9 8917.79)
(10774.5 16290.6 21047.9 4847.01 18573 8917.94)
(7900.66 16557.9 19349.1 7721.18 20336.9 8918)
(5024.08 16321.9 17502.9 10597.8 21945.9 8917.92)
(2232.24 15590 15523.7 13389.4 23387.7 8917.81)
(-390.141 14384.4 13426.3 16011.9 24651.7 8917.91)
(-2763.57 12741.7 11226.6 18385.1 25728.1 8917.86)
(-4815.46 10712 8941.56 20436.9 26608.6 8917.82)
(-6483.75 8356.74 6588.43 22105.3 27286.7 8917.92)
(-7717.75 5747.5 4185.09 23339.4 27757.1 8917.89)
(-8479.89 2963.64 1749.95 24101.5 28016.2 8917.88)
(-8747 89.8361 -698.427 24368.6 28062.1 8917.87)
(-8511.1 -2786.71 -3141.51 24132.7 27894.4 8917.79)
(-7779.18 -5578.68 -5560.75 23400.9 27514.5 8917.83)
(-6573.63 -8201.07 -7937.62 22195.2 26925.2 8917.86)
(-4931.01 -10574.2 -10254 20552.6 26130.9 8917.89)
(-2901.22 -12626.2 -12492.5 18522.8 25137.8 8917.88)
(-545.973 -14294.6 -14635.9 16167.4 23953.3 8917.85)
(2063.19 -15528.5 -16667.9 13558.2 22586.5 8917.8)
(4847.01 -16290.6 -18573 10774.5 21047.9 8917.94)
(7721.18 -16557.9 -20336.9 7900.66 19349.1 8918)
(10597.8 -16321.9 -21945.9 5024.08 17502.9 8917.92)
(13389.4 -15590 -23387.7 2232.24 15523.7 8917.81)
(16011.9 -14384.4 -24651.7 -390.141 13426.3 8917.91)
(18385.1 -12741.7 -25728.1 -2763.57 11226.6 8917.86)
(20436.9 -10712 -26608.6 -4815.46 8941.56 8917.82)
(22105.3 -8356.74 -27286.7 -6483.75 6588.43 8917.93)
(23339.4 -5747.5 -27757.1 -7717.75 4185.09 8917.89)
(24101.5 -2963.64 -28016.2 -8479.89 1749.95 8917.88)
(24368.6 -89.8359 -28062.1 -8747 -698.428 8917.87)
(24132.7 2786.71 -27894.4 -8511.1 -3141.51 8917.79)
(23400.9 5578.68 -27514.5 -7779.18 -5560.75 8917.83)
(22195.2 8201.07 -26925.2 -6573.62 -7937.62 8917.86)
(20552.6 10574.2 -26130.9 -4931.01 -10254 8917.89)
(18522.8 12626.2 -25137.8 -2901.22 -12492.5 8917.88)
(16167.4 14294.6 -23953.3 -545.973 -14635.9 8917.85)
(13558.2 15528.5 -22586.5 2063.19 -16667.9 8917.8)
(10774.5 16290.6 -21047.9 4847.01 -18573 8917.94)
(7900.66 16557.9 -19349.1 7721.18 -20336.9 8918)
(5024.08 16321.9 -17502.9 10597.8 -21945.9 8917.92)
(2232.24 15590 -15523.7 13389.4 -23387.7 8917.81)
(-390.14 14384.4 -13426.3 16011.9 -24651.7 8917.92)
(-2763.57 12741.7 -11226.6 18385.1 -25728.1 8917.86)
(-4815.46 10712 -8941.56 20436.9 -26608.6 8917.82)
(-6483.75 8356.74 -6588.43 22105.3 -27286.7 8917.93)
(-7717.75 5747.5 -4185.09 23339.4 -27757.1 8917.89)
(-8479.89 2963.64 -1749.95 24101.5 -28016.2 8917.88)
(-8747 89.8355 698.428 24368.6 -28062.1 8917.87)
(-8511.1 -2786.72 3141.51 24132.7 -27894.4 8917.79)
(881.947 -2046.36 128.109 22826.3 22829.4 25164.4)
(1403.89 -3920.56 -1862.09 22304 22753.6 25164.4)
(2243.38 -5675.55 -3838.04 21464.3 22504.8 25164.4)
(3374.9 -7258.18 -5784.84 20332.9 22084.6 25164.2)
(4764.22 -8620.33 -7687.68 18943.9 21496.4 25164.3)
(6368.88 -9720.54 -9532.03 17339.2 20744.6 25164.4)
(8140.15 -10525.3 -11303.8 15567.9 19834.9 25164.4)
(10024.3 -11010.3 -12989.4 13683.8 18774.2 25164.5)
(11963.9 -11160.7 -14576.3 11744 17570.7 25164.4)
(13900.2 -10972.1 -16052.1 9807.57 16233.4 25164.4)
(15774.3 -10450.1 -17405.9 7933.34 14772.6 25164.2)
(17529.5 -9610.54 -18627.2 6178.41 13199.4 25164.3)
(19112.2 -8479.03 -19706.7 4595.84 11525.7 25164.3)
(20474.5 -7089.81 -20636.3 3233.71 9764.21 25164.3)
(21574.6 -5485.12 -21408.8 2133.55 7928.44 25164.4)
(22379.1 -3713.86 -22018.3 1328.63 6032.45 25164.4)
(22864.2 -1829.89 -22460.3 843.652 4090.59 25164.3)
(23014.9 109.931 -22731.3 693.267 2117.36 25164.3)
(22826.3 2046.36 -22829.4 881.946 128.109 25164.4)
(22304 3920.56 -22753.6 1403.89 -1862.09 25164.4)
(21464.3 5675.55 -22504.8 2243.38 -3838.04 25164.4)
(20332.9 7258.18 -22084.6 3374.9 -5784.84 25164.2)
(18943.9 8620.33 -21496.4 4764.22 -7687.68 25164.3)
(17339.2 9720.54 -20744.6 6368.88 -9532.03 25164.4)
(15567.9 10525.3 -19834.9 8140.15 -11303.8 25164.4)
(13683.8 11010.3 -18774.2 10024.3 -12989.4 25164.5)
(11744 11160.7 -17570.7 11963.9 -14576.3 25164.4)
(9807.57 10972.1 -16233.4 13900.2 -16052.1 25164.4)
(7933.34 10450.1 -14772.6 15774.3 -17405.9 25164.2)
(6178.41 9610.54 -13199.4 17529.5 -18627.2 25164.3)
(4595.84 8479.03 -11525.7 19112.2 -19706.7 25164.3)
(3233.71 7089.81 -9764.22 20474.5 -20636.3 25164.3)
(2133.55 5485.12 -7928.44 21574.6 -21408.8 25164.4)
(1328.63 3713.86 -6032.45 22379.1 -22018.3 25164.4)
(843.652 1829.88 -4090.59 22864.2 -22460.3 25164.3)
(693.267 -109.931 -2117.36 23014.9 -22731.3 25164.3)
(881.946 -2046.36 -128.109 22826.3 -22829.4 25164.4)
(1403.89 -3920.56 1862.09 22304 -22753.6 25164.4)
(2243.38 -5675.55 3838.04 21464.3 -22504.8 25164.4)
(3374.9 -7258.18 5784.84 20332.9 -22084.6 25164.2)
(4764.22 -8620.33 7687.68 18943.9 -21496.4 25164.3)
(6368.88 -9720.54 9532.03 17339.2 -20744.6 25164.4)
(8140.15 -10525.3 11303.8 15567.9 -19834.9 25164.4)
(10024.3 -11010.3 12989.4 13683.8 -18774.2 25164.5)
(11963.9 -11160.7 14576.3 11744 -17570.7 25164.4)
(13900.2 -10972.1 16052.1 9807.57 -16233.4 25164.4)
(15774.3 -10450.1 17405.9 7933.34 -14772.6 25164.2)
(17529.5 -9610.54 18627.2 6178.41 -13199.4 25164.3)
(19112.2 -8479.03 19706.7 4595.84 -11525.7 25164.3)
(20474.5 -7089.81 20636.3 3233.71 -9764.22 25164.3)
(21574.6 -5485.12 21408.8 2133.55 -7928.44 25164.4)
(22379.1 -3713.86 22018.3 1328.63 -6032.45 25164.4)
(22864.2 -1829.89 22460.3 843.652 -4090.59 25164.3)
(23014.9 109.931 22731.3 693.267 -2117.36 25164.3)
(22826.3 2046.36 22829.4 881.947 -128.109 25164.4)
(22304 3920.56 22753.6 1403.89 1862.09 25164.4)
(21464.3 5675.55 22504.8 2243.38 3838.04 25164.4)
(20332.9 7258.18 22084.6 3374.9 5784.84 25164.2)
(18943.9 8620.33 21496.4 4764.22 7687.68 25164.3)
(17339.2 9720.54 20744.6 6368.88 9532.03 25164.4)
(15567.9 10525.3 19834.9 8140.15 11303.8 25164.4)
(13683.8 11010.3 18774.2 10024.3 12989.4 25164.5)
(11744 11160.7 17570.7 11963.9 14576.3 25164.4)
(9807.57 10972.1 16233.4 13900.2 16052.1 25164.4)
(7933.34 10450.1 14772.6 15774.3 17405.9 25164.2)
(6178.41 9610.54 13199.4 17529.5 18627.2 25164.3)
(4595.84 8479.03 11525.7 19112.2 19706.7 25164.3)
(3233.71 7089.81 9764.22 20474.5 20636.3 25164.3)
(2133.55 5485.12 7928.44 21574.6 21408.8 25164.4)
(1328.63 3713.86 6032.45 22379.1 22018.3 25164.4)
(843.652 1829.88 4090.59 22864.2 22460.3 25164.3)
(693.267 -109.931 2117.36 23014.9 22731.3 25164.3)
(-3712.78 -3966.41 1269.43 39999.7 4101.28 -3761.73)
(-2691.95 -7701.5 907.155 38978.9 4196.3 -3761.73)
(-1038.16 -11202.4 537.959 37325 4259.49 -3761.75)
(1198.5 -14363 164.709 35088.4 4290.09 -3761.75)
(3950.13 -17087.3 -209.811 32336.9 4288.03 -3761.75)
(7133 -19292.5 -582.777 29153.9 4253.46 -3761.76)
(10650.4 -20911.3 -951.261 25636.6 4186.49 -3761.72)
(14395.4 -21894.8 -1312.53 21891.6 4087.69 -3761.68)
(18254.3 -22213 -1663.79 18032.7 3957.74 -3761.69)
(22109.9 -21856.2 -2002.4 14177.1 3797.67 -3761.75)
(25844.9 -20835.4 -2325.76 10442.1 3608.7 -3761.73)
(29345.8 -19181.6 -2631.39 6941.06 3392.24 -3761.79)
(32506.5 -16944.9 -2917.05 3780.35 3149.99 -3761.82)
(35230.8 -14193.3 -3180.45 1056.1 2883.74 -3761.78)
(37435.9 -11010.4 -3419.77 -1149.01 2595.59 -3761.75)
(39054.7 -7493.11 -3633.05 -2767.79 2287.7 -3761.72)
(40038.1 -3748.18 -3818.53 -3751.26 1962.35 -3761.76)
(40356.4 110.772 -3975.03 -4069.52 1622.06 -3761.77)
(39999.7 3966.41 -4101.28 -3712.78 1269.43 -3761.73)
(38978.9 7701.5 -4196.3 -2691.95 907.155 -3761.73)
(37325 11202.4 -4259.49 -1038.16 537.959 -3761.75)
(35088.4 14363 -4290.09 1198.5 164.709 -3761.75)
(32336.9 17087.3 -4288.03 3950.13 -209.811 -3761.75)
(29153.9 19292.5 -4253.46 7133 -582.777 -3761.75)
(25636.6 20911.3 -4186.49 10650.4 -951.262 -3761.72)
(21891.6 21894.8 -4087.69 14395.4 -1312.53 -3761.68)
(18032.7 22213 -3957.74 18254.3 -1663.79 -3761.69)
(14177.1 21856.2 -3797.67 22109.9 -2002.4 -3761.75)
(10442.1 20835.4 -3608.7 25844.9 -2325.76 -3761.73)
(6941.06 19181.6 -3392.24 29345.8 -2631.39 -3761.79)
(3780.35 16944.9 -3149.99 32506.5 -2917.05 -3761.82)
(1056.1 14193.3 -2883.74 35230.8 -3180.45 -3761.78)
(-1149.01 11010.4 -2595.59 37435.9 -3419.77 -3761.75)
(-2767.79 7493.11 -2287.7 39054.7 -3633.05 -3761.72)
(-3751.26 3748.18 -1962.35 40038.1 -3818.53 -3761.76)
(-4069.52 -110.772 -1622.06 40356.4 -3975.03 -3761.77)
(-3712.78 -3966.41 -1269.43 39999.7 -4101.28 -3761.73)
(-2691.95 -7701.5 -907.154 38978.9 -4196.3 -3761.73)
(-1038.16 -11202.4 -537.959 37325 -4259.49 -3761.75)
(1198.5 -14363 -164.709 35088.4 -4290.09 -3761.75)
(3950.13 -17087.3 209.811 32336.9 -4288.03 -3761.75)
(7133 -19292.5 582.777 29153.9 -4253.46 -3761.75)
(10650.4 -20911.3 951.262 25636.6 -4186.49 -3761.72)
(14395.4 -21894.8 1312.53 21891.6 -4087.69 -3761.68)
(18254.3 -22213 1663.79 18032.7 -3957.74 -3761.69)
(22109.9 -21856.2 2002.4 14177.1 -3797.67 -3761.75)
(25844.9 -20835.4 2325.76 10442.1 -3608.7 -3761.73)
(29345.8 -19181.6 2631.39 6941.06 -3392.24 -3761.78)
(32506.5 -16944.9 2917.05 3780.35 -3149.99 -3761.82)
(35230.8 -14193.3 3180.45 1056.1 -2883.74 -3761.78)
(37435.9 -11010.4 3419.77 -1149.01 -2595.59 -3761.75)
(39054.7 -7493.11 3633.05 -2767.79 -2287.7 -3761.72)
(40038.1 -3748.18 3818.53 -3751.26 -1962.35 -3761.76)
(40356.4 110.772 3975.03 -4069.52 -1622.06 -3761.77)
(39999.7 3966.41 4101.28 -3712.78 -1269.43 -3761.73)
(38978.9 7701.5 4196.3 -2691.95 -907.155 -3761.73)
(37325 11202.4 4259.49 -1038.16 -537.959 -3761.75)
(35088.4 14363 4290.09 1198.5 -164.709 -3761.75)
(32336.9 17087.3 4288.03 3950.13 209.811 -3761.75)
(29153.9 19292.5 4253.46 7133 582.777 -3761.75)
(25636.6 20911.3 4186.49 10650.4 951.261 -3761.72)
(21891.6 21894.8 4087.69 14395.4 1312.53 -3761.68)
(18032.7 22213 3957.74 18254.3 1663.79 -3761.69)
(14177.1 21856.2 3797.67 22109.9 2002.4 -3761.75)
(10442.1 20835.4 3608.7 25844.9 2325.76 -3761.73)
(6941.06 19181.6 3392.24 29345.8 2631.39 -3761.78)
(3780.35 16944.9 3149.99 32506.5 2917.05 -3761.82)
(1056.1 14193.3 2883.74 35230.8 3180.45 -3761.78)
(-1149.01 11010.4 2595.59 37435.9 3419.77 -3761.75)
(-2767.79 7493.11 2287.7 39054.7 3633.05 -3761.72)
(-3751.26 3748.18 1962.35 40038.1 3818.53 -3761.76)
(-4069.52 -110.772 1622.06 40356.4 3975.03 -3761.77)
(-10249.7 -6492.45 5796.17 18618.4 -27024.9 3634.47)
(-8902.96 -8900.23 8129.47 17271.7 -26416.9 3634.48)
(-7158.66 -11037.5 10400.9 15527.4 -25607.8 3634.52)
(-5069.82 -12839.5 12593.1 13438.5 -24603.9 3634.35)
(-2699.7 -14251.4 14689.5 11068.3 -23412.7 3634.41)
(-120.311 -15230.3 16674.3 8488.91 -22043.4 3634.47)
(2589.91 -15746.5 18532.1 5778.86 -20506.2 3634.57)
(5348.66 -15784.1 20248.9 3020.23 -18813 3634.7)
(8071.79 -15342.2 21811.4 297.024 -16976.6 3634.48)
(10676.7 -14434 23207.9 -2307.91 -15011.1 3634.44)
(13084.7 -13087.3 24428 -4715.73 -12931.2 3634.67)
(15222 -11343 25462.1 -6853.23 -10752.9 3634.51)
(17023.9 -9254.04 26302.3 -8655.25 -8492.87 3634.49)
(18435.9 -6883.85 26942.5 -10067.2 -6168.09 3634.44)
(19414.8 -4304.55 27377.5 -11046 -3796.44 3634.43)
(19930.8 -1594.39 27604.2 -11562.1 -1395.89 3634.51)
(19968.4 1164.05 27620.8 -11599.7 1015.19 3634.43)
(19526.5 3887.23 27427.2 -11157.8 3418.64 3634.44)
(18618.4 6492.45 27024.9 -10249.7 5796.17 3634.47)
(17271.7 8900.23 26416.9 -8902.96 8129.47 3634.48)
(15527.4 11037.5 25607.8 -7158.66 10400.9 3634.52)
(13438.5 12839.5 24603.9 -5069.82 12593.1 3634.35)
(11068.3 14251.4 23412.7 -2699.7 14689.5 3634.41)
(8488.91 15230.3 22043.4 -120.311 16674.3 3634.47)
(5778.86 15746.5 20506.2 2589.91 18532.1 3634.57)
(3020.23 15784.1 18813 5348.66 20248.9 3634.7)
(297.024 15342.2 16976.6 8071.8 21811.4 3634.48)
(-2307.91 14434 15011.1 10676.7 23207.9 3634.44)
(-4715.73 13087.3 12931.2 13084.7 24428 3634.67)
(-6853.23 11343 10752.9 15222 25462.1 3634.51)
(-8655.25 9254.03 8492.87 17023.9 26302.3 3634.49)
(-10067.2 6883.85 6168.09 18435.9 26942.5 3634.44)
(-11046 4304.55 3796.44 19414.8 27377.5 3634.43)
(-11562.1 1594.39 1395.89 19930.8 27604.2 3634.51)
(-11599.7 -1164.05 -1015.19 19968.4 27620.8 3634.43)
(-11157.8 -3887.23 -3418.64 19526.5 27427.2 3634.44)
(-10249.7 -6492.45 -5796.17 18618.4 27024.9 3634.47)
(-8902.97 -8900.23 -8129.47 17271.7 26416.9 3634.48)
(-7158.66 -11037.5 -10400.9 15527.4 25607.8 3634.52)
(-5069.82 -12839.5 -12593.1 13438.5 24603.9 3634.36)
(-2699.7 -14251.4 -14689.5 11068.3 23412.7 3634.41)
(-120.311 -15230.3 -16674.3 8488.91 22043.4 3634.47)
(2589.91 -15746.5 -18532.1 5778.86 20506.2 3634.58)
(5348.66 -15784.1 -20248.9 3020.23 18813 3634.71)
(8071.8 -15342.2 -21811.4 297.025 16976.6 3634.48)
(10676.7 -14434 -23207.9 -2307.91 15011.1 3634.44)
(13084.7 -13087.3 -24428 -4715.73 12931.2 3634.67)
(15222 -11343 -25462.1 -6853.23 10752.9 3634.51)
(17023.9 -9254.03 -26302.3 -8655.25 8492.87 3634.49)
(18435.9 -6883.85 -26942.5 -10067.2 6168.09 3634.45)
(19414.8 -4304.55 -27377.5 -11046 3796.44 3634.43)
(19930.8 -1594.39 -27604.2 -11562.1 1395.89 3634.51)
(19968.4 1164.05 -27620.8 -11599.7 -1015.19 3634.43)
(19526.5 3887.23 -27427.2 -11157.8 -3418.64 3634.44)
(18618.4 6492.45 -27024.9 -10249.7 -5796.17 3634.47)
(17271.7 8900.23 -26416.9 -8902.97 -8129.47 3634.48)
(15527.4 11037.5 -25607.8 -7158.66 -10400.9 3634.52)
(13438.5 12839.5 -24603.9 -5069.82 -12593.1 3634.36)
(11068.3 14251.4 -23412.7 -2699.7 -14689.5 3634.41)
(8488.91 15230.3 -22043.4 -120.312 -16674.3 3634.47)
(5778.86 15746.5 -20506.2 2589.91 -18532.1 3634.58)
(3020.23 15784.1 -18813 5348.66 -20248.9 3634.71)
(297.025 15342.2 -16976.6 8071.8 -21811.4 3634.48)
(-2307.91 14434 -15011.1 10676.7 -23207.9 3634.44)
(-4715.73 13087.3 -12931.2 13084.7 -24428 3634.67)
(-6853.23 11343 -10752.9 15222 -25462.1 3634.51)
(-8655.25 9254.03 -8492.87 17023.9 -26302.3 3634.49)
(-10067.2 6883.85 -6168.09 18435.9 -26942.5 3634.45)
(-11046 4304.55 -3796.44 19414.8 -27377.5 3634.43)
(-11562.1 1594.39 -1395.89 19930.8 -27604.2 3634.51)
(-11599.7 -1164.05 1015.19 19968.4 -27620.8 3634.43)
(-11157.8 -3887.22 3418.63 19526.5 -27427.2 3634.44)
(909.987 -2720.74 -1022.68 22499.9 22469.2 24668.6)
(1546.4 -4553.87 -2977.06 21863.3 22294.6 24668.7)
(2491.47 -6248.66 -4908.78 20918.2 21950.3 24668.6)
(3716.46 -7753.66 -6803.23 19693.2 21438.9 24668.4)
(5184.2 -9023.01 -8645.86 18225.4 20764.4 24668.4)
(6850.32 -10018.3 -10422.8 16559.6 19931.8 24668.7)
(8663.64 -10709 -12120.2 14746.1 18947.6 24668.7)
(10569.4 -11074.4 -13725.4 12840.5 17819.2 24668.7)
(12509.7 -11103.4 -15226.3 10900.2 16555.1 24668.5)
(14425.8 -10795 -16611.3 8984.3 15165 24668.6)
(16258.9 -10158.5 -17869.8 7150.93 13659.5 24668.6)
(17953.4 -9213.36 -18992.2 5456.17 12050.2 24668.6)
(19458.5 -7988.37 -19970.2 3951.22 10349 24668.5)
(20727.8 -6520.6 -20796.2 2681.81 8569.12 24668.5)
(21723.2 -4854.68 -21463.9 1686.66 6723.96 24668.5)
(22413.9 -3041.21 -21968.3 995.825 4827.64 24668.6)
(22779.1 -1135.52 -22305.4 630.34 2894.74 24668.5)
(22808.3 804.763 -22472.8 601.474 939.659 24668.5)
(22499.9 2720.74 -22469.2 909.987 -1022.68 24668.6)
(21863.3 4553.87 -22294.6 1546.4 -2977.06 24668.7)
(20918.2 6248.66 -21950.3 2491.47 -4908.78 24668.6)
(19693.2 7753.66 -21438.9 3716.45 -6803.24 24668.4)
(18225.4 9023.01 -20764.4 5184.2 -8645.86 24668.4)
(16559.6 10018.3 -19931.8 6850.32 -10422.8 24668.7)
(14746.1 10709 -18947.6 8663.65 -12120.3 24668.8)
(12840.5 11074.4 -17819.2 10569.4 -13725.4 24668.7)
(10900.1 11103.4 -16555.1 12509.7 -15226.3 24668.5)
(8984.29 10795 -15165 14425.8 -16611.3 24668.6)
(7150.93 10158.5 -13659.5 16258.9 -17869.8 24668.6)
(5456.18 9213.36 -12050.2 17953.5 -18992.2 24668.6)
(3951.23 7988.37 -10349 19458.5 -19970.2 24668.5)
(2681.8 6520.6 -8569.11 20727.8 -20796.2 24668.4)
(1686.66 4854.68 -6723.96 21723.2 -21463.9 24668.5)
(995.828 3041.21 -4827.64 22413.9 -21968.3 24668.6)
(630.341 1135.52 -2894.74 22779.1 -22305.4 24668.5)
(601.474 -804.763 -939.659 22808.3 -22472.8 24668.5)
(909.987 -2720.74 1022.68 22499.9 -22469.2 24668.6)
(1546.4 -4553.87 2977.06 21863.3 -22294.6 24668.7)
(2491.47 -6248.66 4908.78 20918.2 -21950.3 24668.6)
(3716.45 -7753.66 6803.24 19693.2 -21438.9 24668.4)
(5184.2 -9023.01 8645.86 18225.4 -20764.4 24668.4)
(6850.32 -10018.3 10422.8 16559.6 -19931.8 24668.7)
(8663.65 -10709 12120.3 14746.1 -18947.6 24668.8)
(10569.4 -11074.4 13725.4 12840.5 -17819.2 24668.7)
(12509.7 -11103.4 15226.3 10900.1 -16555.1 24668.5)
(14425.8 -10795 16611.3 8984.29 -15165 24668.6)
(16258.9 -10158.5 17869.8 7150.93 -13659.5 24668.6)
(17953.5 -9213.36 18992.2 5456.18 -12050.2 24668.6)
(19458.5 -7988.37 19970.2 3951.23 -10349 24668.5)
(20727.8 -6520.6 20796.2 2681.8 -8569.11 24668.4)
(21723.2 -4854.68 21463.9 1686.66 -6723.96 24668.5)
(22413.9 -3041.21 21968.3 995.828 -4827.64 24668.6)
(22779.1 -1135.52 22305.4 630.341 -2894.74 24668.5)
(22808.3 804.763 22472.8 601.475 -939.659 24668.5)
(22499.9 2720.73 22469.2 909.988 1022.68 24668.6)
(21863.3 4553.87 22294.6 1546.4 2977.06 24668.7)
(20918.2 6248.66 21950.3 2491.47 4908.78 24668.6)
(19693.2 7753.66 21438.9 3716.45 6803.24 24668.4)
(18225.4 9023.01 20764.4 5184.2 8645.86 24668.4)
(16559.6 10018.3 19931.8 6850.32 10422.8 24668.7)
(14746.1 10709 18947.6 8663.65 12120.3 24668.8)
(12840.5 11074.4 17819.2 10569.4 13725.4 24668.7)
(10900.1 11103.4 16555.1 12509.7 15226.3 24668.5)
(8984.29 10795 15165 14425.8 16611.3 24668.6)
(7150.93 10158.5 13659.5 16258.9 17869.8 24668.6)
(5456.18 9213.36 12050.2 17953.5 18992.2 24668.6)
(3951.23 7988.37 10349 19458.5 19970.2 24668.5)
(2681.8 6520.6 8569.11 20727.8 20796.2 24668.4)
(1686.66 4854.68 6723.96 21723.2 21463.9 24668.5)
(995.828 3041.21 4827.64 22413.9 21968.3 24668.6)
(630.341 1135.52 2894.74 22779.1 22305.4 24668.5)
(601.474 -804.763 939.659 22808.3 22472.8 24668.5)
(-3899.77 -5830.02 824.218 37470.4 3712.1 -5822.99)
(-2573.07 -9333.43 497.543 36143.8 3769.85 -5822.92)
(-658.327 -12553.1 167.083 34228.9 3798.91 -5822.97)
(1786.52 -15391.4 -164.63 31784.1 3798.97 -5822.95)
(4687.14 -17762.1 -495.098 28883.6 3770.13 -5822.91)
(7955.26 -19593.2 -821.855 25615.4 3712.72 -5822.92)
(11491.9 -20828.8 -1142.22 22079 3626.88 -5822.87)
(15189 -21431.6 -1454 18381.7 3513.57 -5822.96)
(18934.8 -21383.2 -1754.62 14635.9 3373.42 -5822.97)
(22615.4 -20685.1 -2041.98 10955.3 3207.64 -5822.97)
(26118.7 -19358.4 -2313.83 7451.94 3017.52 -5822.95)
(29338.5 -17443.6 -2567.99 4232.19 2804.35 -5823.01)
(32176.7 -14998.8 -2802.73 1393.82 2569.9 -5823.01)
(34547.5 -12098.2 -3015.96 -976.849 2315.81 -5822.98)
(36378.4 -8830.02 -3206.36 -2807.92 2044.15 -5823.04)
(37614 -5293.57 -3372.35 -4043.53 1756.95 -5823.02)
(38216.9 -1596.29 -3512.61 -4646.23 1456.32 -5822.99)
(38168.5 2149.52 -3626.13 -4597.85 1144.62 -5822.98)
(37470.4 5830.02 -3712.1 -3899.77 824.218 -5822.99)
(36143.8 9333.43 -3769.85 -2573.07 497.543 -5822.92)
(34228.9 12553.1 -3798.91 -658.328 167.083 -5822.97)
(31784.1 15391.4 -3798.97 1786.52 -164.63 -5822.95)
(28883.6 17762.1 -3770.13 4687.14 -495.098 -5822.91)
(25615.4 19593.2 -3712.72 7955.25 -821.855 -5822.92)
(22079 20828.8 -3626.88 11491.9 -1142.22 -5822.87)
(18381.7 21431.6 -3513.57 15189 -1454 -5822.95)
(14635.9 21383.2 -3373.42 18934.8 -1754.62 -5822.96)
(10955.3 20685.1 -3207.64 22615.4 -2041.98 -5822.97)
(7451.95 19358.4 -3017.52 26118.7 -2313.83 -5822.95)
(4232.19 17443.6 -2804.35 29338.5 -2567.99 -5823)
(1393.82 14998.8 -2569.9 32176.7 -2802.73 -5823.01)
(-976.853 12098.2 -2315.81 34547.5 -3015.96 -5822.98)
(-2807.92 8830.02 -2044.15 36378.4 -3206.36 -5823.04)
(-4043.53 5293.57 -1756.95 37614 -3372.35 -5823.02)
(-4646.23 1596.29 -1456.32 38216.9 -3512.61 -5822.99)
(-4597.85 -2149.52 -1144.62 38168.5 -3626.13 -5822.98)
(-3899.77 -5830.02 -824.218 37470.4 -3712.1 -5822.99)
(-2573.07 -9333.43 -497.543 36143.8 -3769.85 -5822.92)
(-658.327 -12553.1 -167.083 34228.9 -3798.91 -5822.97)
(1786.52 -15391.4 164.63 31784.1 -3798.97 -5822.95)
(4687.14 -17762.1 495.098 28883.7 -3770.13 -5822.91)
(7955.25 -19593.2 821.855 25615.4 -3712.72 -5822.92)
(11491.9 -20828.8 1142.22 22079 -3626.88 -5822.87)
(15189 -21431.6 1454 18381.7 -3513.57 -5822.95)
(18934.8 -21383.2 1754.62 14635.9 -3373.42 -5822.96)
(22615.4 -20685.1 2041.98 10955.3 -3207.64 -5822.97)
(26118.7 -19358.4 2313.83 7451.95 -3017.52 -5822.95)
(29338.5 -17443.6 2567.99 4232.19 -2804.35 -5823)
(32176.7 -14998.8 2802.73 1393.82 -2569.9 -5823.01)
(34547.5 -12098.2 3015.96 -976.852 -2315.81 -5822.98)
(36378.4 -8830.02 3206.36 -2807.92 -2044.15 -5823.04)
(37614 -5293.57 3372.35 -4043.53 -1756.95 -5823.02)
(38216.9 -1596.29 3512.61 -4646.23 -1456.32 -5822.99)
(38168.5 2149.52 3626.13 -4597.85 -1144.62 -5822.98)
(37470.4 5830.02 3712.1 -3899.77 -824.218 -5822.99)
(36143.8 9333.43 3769.85 -2573.08 -497.543 -5822.92)
(34228.9 12553.1 3798.91 -658.329 -167.083 -5822.97)
(31784.1 15391.4 3798.97 1786.52 164.63 -5822.96)
(28883.6 17762.1 3770.13 4687.14 495.098 -5822.92)
(25615.4 19593.2 3712.72 7955.25 821.855 -5822.92)