/*--------------------------------*- C++ -*----------------------------------*\
| =========                 |                                                 |
| \\      /  F ield         | OpenFOAM: The Open Source CFD Toolbox           |
|  \\    /   O peration     | Version:  2312                                  |
|   \\  /    A nd           | Website:  www.openfoam.com                      |
|    \\/     M anipulation  |                                                 |
\*---------------------------------------------------------------------------*/
FoamFile
{
    version     2.0;
    format      ascii;
    arch        "LSB;label=32;scalar=64";
    class       volVectorField;
    location    "0.8";
    object      traction;
}
// * * * * * * * * * * * * * * * * * * * * * * * * * * * * * * * * * * * * * //

dimensions      [1 -1 -2 0 0 0 0];

internalField   uniform (0 0 0);

boundaryField
{
    fixed
    {
        type            calculated;
        value           nonuniform List<vector> 
216
(
(1781.12 23230.5 24179.8)
(-250.403 23297.4 24179.7)
(-2279.93 23187 24179.9)
(-4292.05 22900 24179.8)
(-6271.58 22438.7 24179.8)
(-8203.47 21806.7 24179.6)
(-10072.8 21008.8 24179.8)
(-11865.5 20051 24179.7)
(-13568 18940.5 24179.6)
(-15167.1 17685.9 24179.6)
(-16650.8 16296.7 24179.8)
(-18007.7 14783.5 24179.9)
(-19227.6 13157.8 24179.6)
(-20301.3 11431.8 24179.7)
(-21220.4 9618.94 24179.7)
(-21978.1 7732.93 24179.8)
(-22568.3 5788 24179.8)
(-22986.9 3799 24179.8)
(-23230.5 1781.12 24179.8)
(-23297.4 -250.404 24179.7)
(-23187 -2279.93 24179.9)
(-22900 -4292.05 24179.8)
(-22438.7 -6271.58 24179.8)
(-21806.7 -8203.47 24179.6)
(-21008.8 -10072.8 24179.8)
(-20051 -11865.5 24179.7)
(-18940.5 -13568 24179.6)
(-17685.9 -15167.1 24179.6)
(-16296.7 -16650.8 24179.8)
(-14783.5 -18007.7 24179.9)
(-13157.8 -19227.6 24179.6)
(-11431.8 -20301.3 24179.7)
(-9618.94 -21220.4 24179.7)
(-7732.93 -21978.1 24179.8)
(-5788 -22568.3 24179.8)
(-3799 -22986.9 24179.8)
(-1781.12 -23230.5 24179.8)
(250.404 -23297.4 24179.7)
(2279.93 -23187 24179.9)
(4292.05 -22900 24179.8)
(6271.58 -22438.7 24179.8)
(8203.47 -21806.7 24179.6)
(10072.8 -21008.8 24179.8)
(11865.5 -20051 24179.7)
(13568 -18940.5 24179.6)
(15167.1 -17685.9 24179.6)
(16650.8 -16296.7 24179.8)
(18007.7 -14783.5 24179.9)
(19227.6 -13157.8 24179.6)
(20301.3 -11431.8 24179.7)
(21220.4 -9618.94 24179.7)
(21978.1 -7732.93 24179.8)
(22568.3 -5788 24179.8)
(22986.9 -3799 24179.8)
(23230.5 -1781.12 24179.8)
(23297.4 250.403 24179.7)
(23187 2279.93 24179.9)
(22900 4292.05 24179.8)
(22438.7 6271.58 24179.8)
(21806.7 8203.47 24179.6)
(21008.8 10072.8 24179.8)
(20051 11865.5 24179.7)
(18940.5 13568 24179.6)
(17685.9 15167.1 24179.6)
(16296.7 16650.8 24179.8)
(14783.5 18007.7 24179.9)
(13157.8 19227.6 24179.6)
(11431.8 20301.3 24179.7)
(9618.94 21220.4 24179.7)
(7732.93 21978.1 24179.8)
(5788 22568.3 24179.8)
(3799 22986.9 24179.8)
(1457.51 3072.85 -1664)
(1184.14 3188.21 -1664.03)
(901.76 3279.3 -1663.97)
(612.548 3345.32 -1663.98)
(318.667 3385.92 -1664.07)
(22.3432 3400.82 -1664.08)
(-274.178 3389.89 -1664.03)
(-568.593 3353.11 -1663.94)
(-858.753 3290.88 -1664.02)
(-1142.3 3203.52 -1664.07)
(-1417.08 3091.71 -1664.02)
(-1681.13 2956.42 -1664.05)
(-1932.33 2798.61 -1664.07)
(-2168.87 2619.54 -1664.05)
(-2388.96 2420.56 -1664.01)
(-2590.95 2203.16 -1664)
(-2773.11 1968.96 -1664.02)
(-2934.13 1719.78 -1664.04)
(-3072.85 1457.51 -1664)
(-3188.21 1184.14 -1664.03)
(-3279.3 901.759 -1663.98)
(-3345.32 612.548 -1663.98)
(-3385.92 318.667 -1664.06)
(-3400.82 22.3429 -1664.08)
(-3389.89 -274.178 -1664.03)
(-3353.11 -568.596 -1663.94)
(-3290.88 -858.752 -1664.02)
(-3203.52 -1142.3 -1664.07)
(-3091.71 -1417.08 -1664.02)
(-2956.42 -1681.13 -1664.05)
(-2798.61 -1932.33 -1664.07)
(-2619.54 -2168.87 -1664.05)
(-2420.56 -2388.96 -1664.02)
(-2203.16 -2590.95 -1664)
(-1968.96 -2773.11 -1664.02)
(-1719.78 -2934.13 -1664.04)
(-1457.51 -3072.85 -1664)
(-1184.14 -3188.21 -1664.03)
(-901.759 -3279.3 -1663.97)
(-612.548 -3345.32 -1663.98)
(-318.667 -3385.92 -1664.06)
(-22.343 -3400.82 -1664.08)
(274.178 -3389.89 -1664.02)
(568.595 -3353.11 -1663.94)
(858.752 -3290.88 -1664.02)
(1142.3 -3203.52 -1664.07)
(1417.08 -3091.71 -1664.02)
(1681.13 -2956.42 -1664.05)
(1932.33 -2798.61 -1664.07)
(2168.87 -2619.54 -1664.05)
(2388.96 -2420.56 -1664.01)
(2590.95 -2203.16 -1664)
(2773.11 -1968.96 -1664.02)
(2934.13 -1719.78 -1664.04)
(3072.85 -1457.51 -1664)
(3188.21 -1184.14 -1664.03)
(3279.3 -901.759 -1663.97)
(3345.32 -612.547 -1663.98)
(3385.92 -318.667 -1664.06)
(3400.82 -22.3429 -1664.08)
(3389.89 274.178 -1664.02)
(3353.11 568.595 -1663.94)
(3290.88 858.752 -1664.02)
(3203.52 1142.3 -1664.07)
(3091.71 1417.08 -1664.02)
(2956.42 1681.13 -1664.05)
(2798.61 1932.32 -1664.07)
(2619.54 2168.87 -1664.05)
(2420.56 2388.96 -1664.01)
(2203.16 2590.95 -1664)
(1968.96 2773.11 -1664.02)
(1719.78 2934.13 -1664.04)
(5895.89 -27776.4 9040.58)
(8294.29 -27156.8 9040.58)
(10629.5 -26330.6 9040.65)
(12883.9 -25303.9 9040.55)
(15040.4 -24084.7 9040.52)
(17082.3 -22682.2 9040.51)
(18994.2 -21107.1 9040.62)
(20761.6 -19371.3 9040.67)
(22370.9 -17488.1 9040.6)
(23809.8 -15471.9 9040.5)
(25067.7 -13337.9 9040.63)
(26134.8 -11102.3 9040.61)
(27003 -8782.27 9040.56)
(27665.7 -6395.36 9040.58)
(28117.8 -3959.71 9040.56)
(28355.9 -1494.01 9040.64)
(28378.2 982.971 9040.6)
(28184.5 3452.54 9040.52)
(27776.4 5895.89 9040.58)
(27156.8 8294.29 9040.58)
(26330.6 10629.5 9040.65)
(25303.9 12883.9 9040.54)
(24084.7 15040.4 9040.52)
(22682.2 17082.3 9040.51)
(21107.1 18994.2 9040.62)
(19371.3 20761.6 9040.67)
(17488.1 22370.9 9040.6)
(15471.9 23809.8 9040.5)
(13337.9 25067.7 9040.63)
(11102.3 26134.8 9040.61)
(8782.27 27003 9040.56)
(6395.36 27665.7 9040.58)
(3959.71 28117.8 9040.56)
(1494.01 28355.9 9040.64)
(-982.971 28378.2 9040.6)
(-3452.54 28184.5 9040.52)
(-5895.89 27776.4 9040.58)
(-8294.29 27156.8 9040.58)
(-10629.5 26330.6 9040.65)
(-12883.9 25303.9 9040.55)
(-15040.4 24084.7 9040.52)
(-17082.3 22682.2 9040.51)
(-18994.2 21107.1 9040.62)
(-20761.6 19371.3 9040.67)
(-22370.9 17488.1 9040.6)
(-23809.8 15471.9 9040.51)
(-25067.7 13337.9 9040.64)
(-26134.8 11102.3 9040.61)
(-27003 8782.27 9040.56)
(-27665.7 6395.36 9040.59)
(-28117.8 3959.71 9040.56)
(-28355.9 1494.01 9040.64)
(-28378.2 -982.971 9040.6)
(-28184.5 -3452.54 9040.52)
(-27776.4 -5895.89 9040.58)
(-27156.8 -8294.29 9040.58)
(-26330.6 -10629.5 9040.65)
(-25303.9 -12883.9 9040.55)
(-24084.7 -15040.4 9040.52)
(-22682.2 -17082.3 9040.51)
(-21107.1 -18994.2 9040.62)
(-19371.3 -20761.6 9040.68)
(-17488.1 -22370.9 9040.6)
(-15471.9 -23809.8 9040.51)
(-13337.9 -25067.7 9040.64)
(-11102.3 -26134.8 9040.61)
(-8782.27 -27003 9040.56)
(-6395.36 -27665.7 9040.59)
(-3959.71 -28117.8 9040.56)
(-1494.01 -28355.9 9040.64)
(982.972 -28378.2 9040.6)
(3452.54 -28184.5 9040.52)
)
;
    }
    inside
    {
        type            calculated;
        value           nonuniform List<vector> 
1080
(
(10460.8 -4090.18 5023.68)
(10777.6 -3162.89 5023.85)
(11012.1 -2211.64 5023.66)
(11163 -1243.4 5023.81)
(11228.9 -265.694 5023.75)
(11209.4 714.101 5023.82)
(11104.4 1688.19 5023.52)
(10915 2649.67 5023.72)
(10642.6 3590.84 5023.72)
(10289.2 4504.67 5023.9)
(9857.29 5384.24 5023.74)
(9350.49 6223.1 5023.82)
(8772.65 7014.22 5023.57)
(8127.92 7752.16 5023.7)
(7421.33 8431.07 5023.7)
(6658.21 9045.86 5023.79)
(5844.59 9591.62 5023.68)
(4986.34 10064.6 5023.78)
(4090.18 10460.8 5023.68)
(3162.89 10777.6 5023.85)
(2211.64 11012.1 5023.66)
(1243.41 11163 5023.81)
(265.694 11228.9 5023.75)
(-714.101 11209.4 5023.82)
(-1688.19 11104.4 5023.52)
(-2649.67 10915 5023.72)
(-3590.84 10642.6 5023.72)
(-4504.67 10289.2 5023.9)
(-5384.24 9857.29 5023.74)
(-6223.1 9350.49 5023.82)
(-7014.22 8772.65 5023.57)
(-7752.16 8127.92 5023.7)
(-8431.07 7421.33 5023.7)
(-9045.86 6658.21 5023.79)
(-9591.62 5844.59 5023.68)
(-10064.6 4986.34 5023.78)
(-10460.8 4090.18 5023.68)
(-10777.6 3162.89 5023.85)
(-11012.1 2211.64 5023.66)
(-11163 1243.41 5023.81)
(-11228.9 265.694 5023.75)
(-11209.4 -714.101 5023.82)
(-11104.4 -1688.19 5023.52)
(-10915 -2649.67 5023.72)
(-10642.6 -3590.84 5023.72)
(-10289.2 -4504.67 5023.9)
(-9857.29 -5384.24 5023.74)
(-9350.49 -6223.1 5023.81)
(-8772.65 -7014.22 5023.57)
(-8127.92 -7752.16 5023.7)
(-7421.33 -8431.07 5023.7)
(-6658.21 -9045.86 5023.79)
(-5844.59 -9591.62 5023.68)
(-4986.34 -10064.6 5023.78)
(-4090.18 -10460.8 5023.68)
(-3162.89 -10777.6 5023.85)
(-2211.64 -11012.1 5023.66)
(-1243.41 -11163 5023.81)
(-265.695 -11228.9 5023.75)
(714.1 -11209.4 5023.82)
(1688.19 -11104.4 5023.52)
(2649.67 -10915 5023.72)
(3590.84 -10642.6 5023.72)
(4504.67 -10289.2 5023.9)
(5384.24 -9857.29 5023.74)
(6223.1 -9350.49 5023.81)
(7014.22 -8772.65 5023.56)
(7752.16 -8127.92 5023.7)
(8431.07 -7421.33 5023.7)
(9045.86 -6658.21 5023.79)
(9591.62 -5844.59 5023.68)
(10064.6 -4986.34 5023.78)
(13339 -1964.88 5442.49)
(13459.4 -794.936 5442.38)
(13477.5 381.041 5442.33)
(13393.1 1554.23 5442.46)
(13206.7 2715.54 5442.28)
(12919.7 3856.45 5442.4)
(12534.4 4967.66 5442.17)
(12053.6 6041.32 5442.34)
(11481.2 7069.03 5442.38)
(10821.4 8042.59 5442.24)
(10079.2 8955.05 5442.34)
(9260.41 9799.6 5442.47)
(8371.23 10569.3 5442.24)
(7418.15 11258.9 5442.41)
(6408.71 11862.5 5442.27)
(5350.39 12375.9 5442.41)
(4251.49 12795 5442.41)
(3120.2 13116.9 5442.22)
(1964.88 13339 5442.49)
(794.936 13459.4 5442.38)
(-381.04 13477.5 5442.33)
(-1554.23 13393.1 5442.46)
(-2715.54 13206.7 5442.28)
(-3856.45 12919.7 5442.4)
(-4967.66 12534.4 5442.17)
(-6041.32 12053.6 5442.34)
(-7069.03 11481.2 5442.38)
(-8042.59 10821.4 5442.24)
(-8955.05 10079.2 5442.34)
(-9799.6 9260.41 5442.47)
(-10569.3 8371.23 5442.24)
(-11258.9 7418.15 5442.41)
(-11862.5 6408.71 5442.27)
(-12375.9 5350.39 5442.41)
(-12795 4251.49 5442.41)
(-13116.9 3120.2 5442.22)
(-13339 1964.88 5442.49)
(-13459.4 794.937 5442.38)
(-13477.5 -381.04 5442.33)
(-13393.1 -1554.23 5442.46)
(-13206.7 -2715.54 5442.28)
(-12919.7 -3856.45 5442.4)
(-12534.4 -4967.66 5442.17)
(-12053.6 -6041.32 5442.34)
(-11481.2 -7069.03 5442.38)
(-10821.4 -8042.59 5442.24)
(-10079.2 -8955.05 5442.34)
(-9260.41 -9799.6 5442.47)
(-8371.23 -10569.3 5442.24)
(-7418.15 -11258.9 5442.41)
(-6408.71 -11862.5 5442.27)
(-5350.39 -12375.9 5442.41)
(-4251.49 -12795 5442.41)
(-3120.2 -13116.9 5442.22)
(-1964.88 -13339 5442.49)
(-794.937 -13459.4 5442.38)
(381.039 -13477.5 5442.33)
(1554.23 -13393.1 5442.46)
(2715.54 -13206.7 5442.28)
(3856.44 -12919.7 5442.4)
(4967.66 -12534.4 5442.17)
(6041.32 -12053.6 5442.34)
(7069.03 -11481.2 5442.38)
(8042.59 -10821.4 5442.24)
(8955.05 -10079.2 5442.34)
(9799.6 -9260.41 5442.47)
(10569.3 -8371.23 5442.24)
(11258.9 -7418.15 5442.41)
(11862.5 -6408.71 5442.27)
(12375.9 -5350.39 5442.41)
(12795 -4251.49 5442.41)
(13116.9 -3120.2 5442.22)
(16597 5891.26 3281.05)
(16020.3 7315.49 3281.07)
(15321.7 8683.89 3280.98)
(14506.6 9986.21 3280.95)
(13581.1 11212.6 3281.06)
(12552.2 12353.4 3281.03)
(11427.8 13400.5 3281)
(10216.3 14345.4 3280.91)
(8927.13 15181.5 3281.2)
(7570.16 15901.5 3280.89)
(6155.21 16501 3281.11)
(4693.76 16974.6 3281.04)
(3196.44 17319.2 3281.01)
(1674.84 17531.8 3280.95)
(140.31 17611.1 3281)
(-1395.08 17556.2 3281.02)
(-2919.81 17367.8 3280.97)
(-4422.38 17047.3 3281.04)
(-5891.26 16597 3281.05)
(-7315.49 16020.3 3281.07)
(-8683.89 15321.7 3280.98)
(-9986.2 14506.6 3280.94)
(-11212.6 13581.1 3281.06)
(-12353.4 12552.2 3281.03)
(-13400.5 11427.8 3281)
(-14345.4 10216.3 3280.91)
(-15181.5 8927.13 3281.2)
(-15901.5 7570.16 3280.89)
(-16501 6155.21 3281.11)
(-16974.6 4693.76 3281.04)
(-17319.2 3196.44 3281.01)
(-17531.8 1674.84 3280.95)
(-17611.1 140.309 3280.99)
(-17556.2 -1395.08 3281.02)
(-17367.8 -2919.81 3280.97)
(-17047.3 -4422.38 3281.04)
(-16597 -5891.26 3281.05)
(-16020.3 -7315.49 3281.07)
(-15321.7 -8683.89 3280.98)
(-14506.6 -9986.2 3280.94)
(-13581.1 -11212.6 3281.06)
(-12552.2 -12353.4 3281.03)
(-11427.8 -13400.5 3281)
(-10216.3 -14345.4 3280.91)
(-8927.13 -15181.5 3281.2)
(-7570.16 -15901.5 3280.89)
(-6155.21 -16501 3281.11)
(-4693.76 -16974.6 3281.04)
(-3196.44 -17319.2 3281.01)
(-1674.84 -17531.8 3280.95)
(-140.309 -17611.1 3280.99)
(1395.08 -17556.2 3281.02)
(2919.81 -17367.8 3280.97)
(4422.38 -17047.3 3281.04)
(5891.26 -16597 3281.05)
(7315.49 -16020.3 3281.07)
(8683.89 -15321.7 3280.98)
(9986.2 -14506.6 3280.94)
(11212.6 -13581.1 3281.06)
(12353.4 -12552.2 3281.03)
(13400.5 -11427.8 3281)
(14345.4 -10216.3 3280.91)
(15181.5 -8927.13 3281.2)
(15901.5 -7570.16 3280.89)
(16501 -6155.21 3281.11)
(16974.6 -4693.76 3281.04)
(17319.2 -3196.44 3281.01)
(17531.8 -1674.84 3280.95)
(17611.1 -140.309 3280.99)
(17556.2 1395.08 3281.02)
(17367.8 2919.81 3280.97)
(17047.3 4422.38 3281.04)
(18576.2 15082.4 3086.24)
(17190.9 16644.2 3086.4)
(15674.9 18079.2 3086.47)
(14039.6 19376.4 3086.41)
(12297.3 20526.5 3086.63)
(10461.7 21520 3086.21)
(8546.13 22350.1 3086.4)
(6565.68 23009.7 3086.34)
(4535.22 23494.5 3086.34)
(2470.33 23800.3 3086.35)
(386.597 23925 3086.43)
(-1700.08 23867.7 3086.32)
(-3773.93 23628.9 3086.58)
(-5818.66 23209.8 3086.2)
(-7819.53 22614.4 3086.51)
(-9760.68 21846.8 3086.34)
(-11627.8 20913 3086.41)
(-13406.3 19820 3086.54)
(-15082.4 18576.2 3086.24)
(-16644.2 17190.9 3086.4)
(-18079.2 15674.9 3086.47)
(-19376.4 14039.6 3086.41)
(-20526.5 12297.3 3086.63)
(-21520 10461.7 3086.21)
(-22350.1 8546.13 3086.4)
(-23009.7 6565.68 3086.34)
(-23494.5 4535.22 3086.34)
(-23800.3 2470.33 3086.35)
(-23925 386.597 3086.43)
(-23867.7 -1700.08 3086.33)
(-23628.9 -3773.93 3086.58)
(-23209.8 -5818.66 3086.2)
(-22614.4 -7819.53 3086.51)
(-21846.8 -9760.68 3086.34)
(-20913 -11627.8 3086.41)
(-19820 -13406.3 3086.54)
(-18576.2 -15082.4 3086.24)
(-17190.9 -16644.2 3086.4)
(-15674.9 -18079.2 3086.47)
(-14039.6 -19376.4 3086.41)
(-12297.3 -20526.5 3086.63)
(-10461.7 -21520 3086.21)
(-8546.13 -22350.1 3086.4)
(-6565.68 -23009.7 3086.34)
(-4535.22 -23494.5 3086.34)
(-2470.33 -23800.3 3086.35)
(-386.598 -23925 3086.43)
(1700.08 -23867.7 3086.33)
(3773.93 -23628.9 3086.58)
(5818.66 -23209.8 3086.2)
(7819.53 -22614.4 3086.51)
(9760.68 -21846.8 3086.34)
(11627.8 -20913 3086.41)
(13406.3 -19820 3086.54)
(15082.4 -18576.2 3086.24)
(16644.2 -17190.9 3086.4)
(18079.2 -15674.9 3086.47)
(19376.4 -14039.6 3086.4)
(20526.5 -12297.3 3086.63)
(21520 -10461.7 3086.21)
(22350.1 -8546.13 3086.4)
(23009.7 -6565.68 3086.35)
(23494.5 -4535.22 3086.34)
(23800.3 -2470.33 3086.35)
(23925 -386.598 3086.43)
(23867.7 1700.08 3086.33)
(23628.9 3773.93 3086.58)
(23209.8 5818.66 3086.2)
(22614.4 7819.53 3086.51)
(21846.8 9760.68 3086.33)
(20913 11627.8 3086.41)
(19820 13406.3 3086.54)
(18898.5 22174.2 4227.29)
(16894 23736.9 4227.22)
(14760.8 25119.3 4227.59)
(12515.4 26309.8 4227.16)
(10174.7 27300.7 4227.42)
(7756.66 28083.6 4227.22)
(5279.48 28652.8 4227.53)
(2762.18 29003.8 4227.18)
(223.691 29134.3 4227.36)
(-2316.31 29042.8 4227.25)
(-4838.81 28730.5 4227.48)
(-7324.17 28199.3 4227.22)
(-9754.28 27453.8 4227.47)
(-12109.9 26499.1 4227.2)
(-14373.5 25342.8 4227.45)
(-16527.2 23993.6 4227.06)
(-18555.8 22461.9 4227.43)
(-20442.8 20759.2 4227.39)
(-22174.2 18898.5 4227.29)
(-23736.9 16894 4227.22)
(-25119.3 14760.8 4227.59)
(-26309.8 12515.4 4227.16)
(-27300.7 10174.7 4227.42)
(-28083.6 7756.66 4227.22)
(-28652.8 5279.48 4227.53)
(-29003.8 2762.18 4227.18)
(-29134.3 223.69 4227.36)
(-29042.8 -2316.31 4227.25)
(-28730.5 -4838.81 4227.48)
(-28199.3 -7324.17 4227.22)
(-27453.8 -9754.28 4227.47)
(-26499.1 -12109.9 4227.2)
(-25342.8 -14373.5 4227.45)
(-23993.6 -16527.2 4227.06)
(-22461.9 -18555.8 4227.43)
(-20759.2 -20442.8 4227.39)
(-18898.5 -22174.2 4227.29)
(-16894 -23736.9 4227.22)
(-14760.8 -25119.3 4227.59)
(-12515.4 -26309.8 4227.16)
(-10174.7 -27300.7 4227.42)
(-7756.66 -28083.6 4227.22)
(-5279.48 -28652.8 4227.53)
(-2762.18 -29003.8 4227.18)
(-223.69 -29134.3 4227.36)
(2316.31 -29042.8 4227.25)
(4838.81 -28730.5 4227.48)
(7324.17 -28199.3 4227.22)
(9754.28 -27453.8 4227.47)
(12109.9 -26499.1 4227.2)
(14373.5 -25342.8 4227.45)
(16527.2 -23993.6 4227.06)
(18555.8 -22461.9 4227.43)
(20442.8 -20759.2 4227.39)
(22174.2 -18898.5 4227.29)
(23736.9 -16894 4227.22)
(25119.3 -14760.8 4227.59)
(26309.8 -12515.4 4227.16)
(27300.7 -10174.7 4227.42)
(28083.6 -7756.66 4227.23)
(28652.8 -5279.48 4227.53)
(29003.8 -2762.18 4227.18)
(29134.3 -223.691 4227.36)
(29042.8 2316.31 4227.25)
(28730.5 4838.81 4227.48)
(28199.3 7324.17 4227.22)
(27453.8 9754.28 4227.47)
(26499.1 12109.9 4227.2)
(25342.8 14373.5 4227.45)
(23993.6 16527.2 4227.06)
(22461.9 18555.8 4227.43)
(20759.2 20442.8 4227.39)
(18413.3 26304.7 5592.56)
(16050.7 27809 5592.12)
(13565.8 29102.5 5592.65)
(10977.8 30173.7 5592.16)
(8306.15 31015.9 5592.48)
(5571.34 31621.8 5592.51)
(2794.1 31987 5592.34)
(-4.40798 32108.9 5592.41)
(-2802.78 31986.3 5592.56)
(-5579.83 31620.3 5592.23)
(-8314.55 31013.6 5592.38)
(-10986 30171 5592.37)
(-13573.6 29098.7 5592.32)
(-16058.1 27804.9 5592.33)
(-18420.6 26299.5 5592.61)
(-20642.4 24594 5592.08)
(-22707.6 22701.3 5592.65)
(-24599.5 20635.8 5592.17)
(-26304.7 18413.3 5592.56)
(-27809 16050.7 5592.12)
(-29102.5 13565.8 5592.65)
(-30173.7 10977.8 5592.16)
(-31015.9 8306.15 5592.48)
(-31621.8 5571.34 5592.51)
(-31987 2794.1 5592.34)
(-32108.9 -4.40804 5592.41)
(-31986.3 -2802.78 5592.56)
(-31620.3 -5579.83 5592.23)
(-31013.6 -8314.56 5592.38)
(-30171 -10986 5592.36)
(-29098.7 -13573.6 5592.32)
(-27804.9 -16058.1 5592.33)
(-26299.5 -18420.6 5592.61)
(-24594 -20642.4 5592.08)
(-22701.3 -22707.6 5592.65)
(-20635.8 -24599.5 5592.17)
(-18413.3 -26304.7 5592.56)
(-16050.7 -27809 5592.12)
(-13565.8 -29102.5 5592.65)
(-10977.8 -30173.7 5592.16)
(-8306.15 -31015.9 5592.48)
(-5571.34 -31621.8 5592.51)
(-2794.1 -31987 5592.34)
(4.40784 -32108.9 5592.41)
(2802.78 -31986.3 5592.56)
(5579.83 -31620.3 5592.23)
(8314.56 -31013.6 5592.38)
(10986 -30171 5592.36)
(13573.6 -29098.7 5592.32)
(16058.1 -27804.9 5592.33)
(18420.6 -26299.5 5592.61)
(20642.4 -24594 5592.08)
(22707.6 -22701.3 5592.65)
(24599.5 -20635.8 5592.17)
(26304.7 -18413.3 5592.56)
(27809 -16050.7 5592.12)
(29102.5 -13565.8 5592.65)
(30173.7 -10977.8 5592.16)
(31015.9 -8306.15 5592.48)
(31621.8 -5571.34 5592.52)
(31987 -2794.1 5592.34)
(32108.9 4.40796 5592.41)
(31986.3 2802.78 5592.56)
(31620.3 5579.83 5592.23)
(31013.6 8314.55 5592.38)
(30171 10986 5592.36)
(29098.7 13573.6 5592.32)
(27804.9 16058.1 5592.33)
(26299.5 18420.6 5592.61)
(24594 20642.4 5592.08)
(22701.3 22707.6 5592.65)
(20635.8 24599.5 5592.17)
(18196.1 28970.3 6948.97)
(15601.9 30445.7 6948.67)
(12889.1 31689.8 6948.86)
(10078.1 32692.5 6948.71)
(7190.45 33446.5 6948.86)
(4248.03 33945.8 6948.72)
(1273.21 34186.9 6948.69)
(-1711.27 34167.9 6949.08)
(-4682.58 33888.6 6948.7)
(-7618.39 33351.6 6948.88)
(-10496.1 32560.6 6948.55)
(-13294.2 31522 6948.88)
(-15990.8 30243.4 6948.83)
(-18565.7 28734.6 6948.69)
(-20999.6 27007.2 6948.86)
(-23273.5 25074.2 6948.8)
(-25370.4 22950.4 6948.92)
(-27274 20651.8 6948.59)
(-28970.3 18196.1 6948.97)
(-30445.7 15601.9 6948.67)
(-31689.8 12889.1 6948.86)
(-32692.5 10078.1 6948.71)
(-33446.5 7190.45 6948.86)
(-33945.8 4248.03 6948.72)
(-34186.9 1273.21 6948.69)
(-34167.9 -1711.27 6949.08)
(-33888.6 -4682.58 6948.7)
(-33351.6 -7618.39 6948.88)
(-32560.6 -10496.1 6948.55)
(-31522 -13294.2 6948.88)
(-30243.4 -15990.8 6948.82)
(-28734.6 -18565.7 6948.69)
(-27007.2 -20999.6 6948.86)
(-25074.2 -23273.5 6948.81)
(-22950.4 -25370.4 6948.92)
(-20651.8 -27274 6948.59)
(-18196.1 -28970.3 6948.97)
(-15601.9 -30445.7 6948.67)
(-12889.1 -31689.8 6948.86)
(-10078.1 -32692.5 6948.71)
(-7190.45 -33446.5 6948.86)
(-4248.03 -33945.8 6948.72)
(-1273.21 -34186.9 6948.69)
(1711.27 -34167.9 6949.08)
(4682.58 -33888.6 6948.7)
(7618.39 -33351.6 6948.88)
(10496.1 -32560.6 6948.55)
(13294.2 -31522 6948.88)
(15990.8 -30243.4 6948.82)
(18565.7 -28734.6 6948.69)
(20999.6 -27007.2 6948.86)
(23273.5 -25074.2 6948.81)
(25370.4 -22950.4 6948.92)
(27274 -20651.8 6948.59)
(28970.3 -18196.1 6948.97)
(30445.7 -15601.9 6948.67)
(31689.8 -12889.1 6948.86)
(32692.5 -10078.1 6948.71)
(33446.5 -7190.44 6948.86)
(33945.9 -4248.03 6948.72)
(34186.9 -1273.22 6948.7)
(34167.9 1711.27 6949.08)
(33888.6 4682.58 6948.7)
(33351.6 7618.39 6948.88)
(32560.6 10496.1 6948.55)
(31522 13294.2 6948.88)
(30243.4 15990.8 6948.82)
(28734.6 18565.7 6948.69)
(27007.2 20999.6 6948.86)
(25074.2 23273.5 6948.8)
(22950.4 25370.4 6948.92)
(20651.8 27274 6948.59)
(18582.2 31190.4 8339.61)
(15793.1 32691.4 8339.57)
(12883.7 33943.4 8339.56)
(9876.33 34937.1 8339.67)
(6793.85 35664.9 8339.64)
(3659.64 36121.3 8339.51)
(497.458 36302.8 8339.63)
(-2668.42 36208 8339.74)
(-5814.01 35837.5 8339.4)
(-8915.47 35194.6 8339.81)
(-11948.7 34283.5 8339.53)
(-14891.3 33111.7 8339.63)
(-17720.5 31687.9 8339.74)
(-20414.9 30022.9 8339.53)
(-22953.9 28129.4 8339.55)
(-25318.3 26021.7 8339.64)
(-27489.9 23716.1 8339.66)
(-29452.3 21229.9 8339.64)
(-31190.4 18582.2 8339.61)
(-32691.4 15793.1 8339.57)
(-33943.4 12883.7 8339.56)
(-34937.1 9876.33 8339.67)
(-35664.9 6793.85 8339.64)
(-36121.3 3659.64 8339.51)
(-36302.8 497.458 8339.63)
(-36208 -2668.42 8339.74)
(-35837.5 -5814.01 8339.4)
(-35194.6 -8915.47 8339.82)
(-34283.5 -11948.7 8339.53)
(-33111.7 -14891.3 8339.64)
(-31687.9 -17720.5 8339.74)
(-30022.9 -20414.9 8339.53)
(-28129.4 -22953.9 8339.55)
(-26021.7 -25318.3 8339.64)
(-23716.1 -27489.9 8339.66)
(-21229.9 -29452.3 8339.64)
(-18582.2 -31190.4 8339.61)
(-15793.1 -32691.4 8339.57)
(-12883.7 -33943.4 8339.56)
(-9876.33 -34937.1 8339.67)
(-6793.85 -35664.9 8339.64)
(-3659.64 -36121.3 8339.51)
(-497.458 -36302.8 8339.63)
(2668.42 -36208 8339.74)
(5814 -35837.5 8339.4)
(8915.47 -35194.6 8339.82)
(11948.7 -34283.5 8339.53)
(14891.3 -33111.7 8339.64)
(17720.5 -31687.9 8339.74)
(20414.9 -30022.9 8339.53)
(22953.9 -28129.4 8339.55)
(25318.3 -26021.7 8339.64)
(27489.9 -23716.1 8339.66)
(29452.3 -21229.9 8339.64)
(31190.4 -18582.2 8339.61)
(32691.4 -15793.1 8339.57)
(33943.4 -12883.7 8339.56)
(34937.1 -9876.33 8339.67)
(35664.9 -6793.85 8339.64)
(36121.3 -3659.64 8339.51)
(36302.8 -497.458 8339.63)
(36208 2668.42 8339.74)
(35837.5 5814 8339.4)
(35194.6 8915.47 8339.82)
(34283.5 11948.7 8339.53)
(33111.7 14891.3 8339.64)
(31687.9 17720.5 8339.74)
(30022.9 20414.9 8339.53)
(28129.4 22953.9 8339.55)
(26021.7 25318.3 8339.64)
(23716.1 27489.9 8339.66)
(21229.9 29452.3 8339.64)
(19332.2 33227.9 9584.59)
(16362.7 34786.6 9584.74)
(13268.5 36080.2 9584.84)
(10073.3 37099.4 9584.88)
(6801.53 37836.1 9584.66)
(3478.06 38285 9584.82)
(128.16 38442.4 9584.67)
(-3222.77 38307.2 9584.95)
(-6549.13 37880.6 9584.53)
(-9825.86 37165.9 9585.11)
(-13027.5 36167.9 9584.66)
(-16130.3 34894.9 9584.85)
(-19110.2 33356.2 9584.65)
(-21944.8 31563.8 9584.8)
(-24612.1 29530.9 9584.67)
(-27092.4 27273.5 9584.7)
(-29366.3 24808.5 9584.82)
(-31416.7 22154.7 9585.02)
(-33227.9 19332.2 9584.59)
(-34786.6 16362.7 9584.74)
(-36080.2 13268.5 9584.84)
(-37099.4 10073.3 9584.88)
(-37836.1 6801.53 9584.66)
(-38285 3478.06 9584.82)
(-38442.4 128.16 9584.67)
(-38307.2 -3222.77 9584.95)
(-37880.6 -6549.13 9584.53)
(-37165.9 -9825.86 9585.11)
(-36167.9 -13027.5 9584.66)
(-34894.9 -16130.3 9584.85)
(-33356.2 -19110.2 9584.65)
(-31563.8 -21944.8 9584.8)
(-29530.9 -24612.1 9584.67)
(-27273.5 -27092.4 9584.7)
(-24808.5 -29366.3 9584.82)
(-22154.7 -31416.7 9585.02)
(-19332.2 -33227.9 9584.59)
(-16362.7 -34786.6 9584.74)
(-13268.5 -36080.2 9584.84)
(-10073.3 -37099.4 9584.88)
(-6801.53 -37836.1 9584.66)
(-3478.06 -38285 9584.82)
(-128.16 -38442.4 9584.67)
(3222.77 -38307.2 9584.95)
(6549.13 -37880.6 9584.53)
(9825.86 -37165.9 9585.11)
(13027.5 -36167.9 9584.66)
(16130.3 -34894.9 9584.85)
(19110.2 -33356.2 9584.65)
(21944.8 -31563.8 9584.8)
(24612.1 -29530.9 9584.67)
(27092.4 -27273.5 9584.7)
(29366.3 -24808.5 9584.82)
(31416.7 -22154.7 9585.02)
(33227.9 -19332.2 9584.59)
(34786.6 -16362.7 9584.74)
(36080.2 -13268.5 9584.84)
(37099.4 -10073.3 9584.88)
(37836.1 -6801.53 9584.66)
(38285 -3478.07 9584.82)
(38442.4 -128.161 9584.67)
(38307.2 3222.77 9584.95)
(37880.6 6549.12 9584.53)
(37165.9 9825.85 9585.11)
(36167.9 13027.5 9584.66)
(34894.9 16130.3 9584.85)
(33356.2 19110.2 9584.65)
(31563.8 21944.8 9584.8)
(29530.9 24612.1 9584.67)
(27273.5 27092.4 9584.7)
(24808.5 29366.3 9584.82)
(22154.7 31416.7 9585.02)
(19966.9 34346.2 10551.8)
(16897.5 35955.9 10552.2)
(13699.4 37291.6 10552)
(10397 38343.8 10552.2)
(7015.62 39103.8 10552)
(3580.78 39566.7 10552.2)
(118.693 39728.2 10551.9)
(-3344.4 39587.4 10552.3)
(-6781.92 39145.2 10551.9)
(-10167.9 38405.2 10552.3)
(-13476.3 37372.8 10552)
(-16682.4 36056.2 10552.2)
(-19761.3 34464.9 10551.9)
(-22689.9 32611.5 10552.2)
(-25445.8 30509.8 10552)
(-28008.2 28176 10552.2)
(-30357.2 25627.7 10552)
(-32475.4 22884.4 10552.4)
(-34346.2 19966.9 10551.8)
(-35955.9 16897.5 10552.2)
(-37291.6 13699.4 10552)
(-38343.8 10397 10552.2)
(-39103.8 7015.62 10552)
(-39566.7 3580.78 10552.2)
(-39728.2 118.693 10551.9)
(-39587.4 -3344.4 10552.3)
(-39145.2 -6781.92 10551.9)
(-38405.2 -10167.9 10552.3)
(-37372.8 -13476.3 10552)
(-36056.2 -16682.4 10552.2)
(-34464.9 -19761.3 10551.9)
(-32611.5 -22689.9 10552.2)
(-30509.7 -25445.8 10552)
(-28176 -28008.2 10552.2)
(-25627.7 -30357.2 10552)
(-22884.4 -32475.4 10552.4)
(-19966.9 -34346.2 10551.8)
(-16897.5 -35955.9 10552.2)
(-13699.4 -37291.6 10552)
(-10397 -38343.8 10552.2)
(-7015.62 -39103.8 10552)
(-3580.78 -39566.7 10552.2)
(-118.693 -39728.2 10551.9)
(3344.4 -39587.4 10552.3)
(6781.92 -39145.2 10551.9)
(10167.9 -38405.2 10552.3)
(13476.3 -37372.8 10552)
(16682.4 -36056.2 10552.2)
(19761.3 -34464.9 10551.9)
(22689.9 -32611.5 10552.2)
(25445.8 -30509.7 10552)
(28008.2 -28176 10552.2)
(30357.2 -25627.7 10552)
(32475.4 -22884.4 10552.4)
(34346.2 -19966.9 10551.8)
(35955.9 -16897.5 10552.2)
(37291.6 -13699.4 10552)
(38343.8 -10397 10552.2)
(39103.8 -7015.62 10552)
(39566.7 -3580.78 10552.2)
(39728.2 -118.694 10551.9)
(39587.4 3344.4 10552.3)
(39145.2 6781.92 10551.9)
(38405.2 10167.9 10552.3)
(37372.8 13476.3 10551.9)
(36056.2 16682.4 10552.2)
(34464.9 19761.3 10551.9)
(32611.5 22689.9 10552.2)
(30509.8 25445.8 10552)
(28176 28008.2 10552.2)
(25627.7 30357.2 10552)
(22884.4 32475.4 10552.4)
(19588.7 31442.7 10842.6)
(16773.7 33030.4 10843)
(13831.2 34366.6 10842.7)
(10783.3 35441.3 10843)
(7653.34 36246.1 10842.7)
(4465.08 36775.5 10842.9)
(1243.1 37024.5 10842.7)
(-1988.64 36992.2 10842.9)
(-5205.13 36678 10842.6)
(-8382.2 36084.8 10843.1)
(-11495.2 35216.9 10842.7)
(-14520.8 34081 10842.9)
(-17435.9 32685.7 10842.7)
(-20218.3 31041.6 10843)
(-22846.7 29161.4 10842.7)
(-25301.5 27059.3 10842.9)
(-27563.5 24751.1 10842.7)
(-29616 22254.6 10843.1)
(-31442.7 19588.7 10842.6)
(-33030.4 16773.7 10843)
(-34366.6 13831.2 10842.7)
(-35441.3 10783.3 10843)
(-36246.1 7653.34 10842.7)
(-36775.5 4465.08 10842.9)
(-37024.5 1243.1 10842.7)
(-36992.2 -1988.64 10842.9)
(-36678 -5205.13 10842.6)
(-36084.8 -8382.2 10843.1)
(-35216.9 -11495.2 10842.7)
(-34081 -14520.8 10842.9)
(-32685.7 -17435.9 10842.7)
(-31041.6 -20218.3 10843)
(-29161.4 -22846.7 10842.7)
(-27059.3 -25301.5 10842.9)
(-24751.1 -27563.5 10842.7)
(-22254.6 -29616 10843.1)
(-19588.7 -31442.7 10842.6)
(-16773.7 -33030.4 10843)
(-13831.2 -34366.6 10842.7)
(-10783.3 -35441.3 10843)
(-7653.34 -36246.1 10842.7)
(-4465.08 -36775.5 10842.9)
(-1243.1 -37024.5 10842.7)
(1988.64 -36992.2 10842.9)
(5205.13 -36678 10842.6)
(8382.2 -36084.8 10843.1)
(11495.2 -35216.9 10842.7)
(14520.8 -34081 10842.9)
(17435.9 -32685.7 10842.7)
(20218.3 -31041.6 10843)
(22846.7 -29161.4 10842.7)
(25301.5 -27059.3 10842.9)
(27563.5 -24751.1 10842.7)
(29616 -22254.6 10843.1)
(31442.7 -19588.7 10842.6)
(33030.4 -16773.7 10843)
(34366.6 -13831.2 10842.7)
(35441.3 -10783.3 10843)
(36246.1 -7653.34 10842.7)
(36775.5 -4465.08 10842.9)
(37024.5 -1243.1 10842.7)
(36992.2 1988.64 10842.9)
(36678 5205.13 10842.6)
(36084.8 8382.2 10843.1)
(35216.9 11495.2 10842.7)
(34081 14520.8 10842.9)
(32685.7 17435.9 10842.7)
(31041.6 20218.3 10843)
(29161.4 22846.7 10842.7)
(27059.3 25301.5 10842.9)
(24751.1 27563.5 10842.7)
(22254.6 29616 10843.1)
(18019.4 20465.9 9657.04)
(16167.2 21958.7 9657.3)
(14191.9 23284.2 9657.06)
(12108.5 24432.4 9657.3)
(9933.02 25394.7 9657.06)
(7681.89 26164 9657.35)
(5372.35 26733.8 9657.03)
(3021.79 27100.4 9657.27)
(648.454 27260.6 9657)
(-1729.96 27213.5 9657.24)
(-4095.21 26959 9657.11)
(-6429.3 26499.6 9657.29)
(-8714.34 25838.3 9656.98)
(-10933.1 24980.5 9657.31)
(-13068.8 23932.6 9657.12)
(-15104.9 22702.5 9657.27)
(-17025.9 21299.6 9657)
(-18817.5 19734.5 9657.37)
(-20465.9 18019.4 9657.04)
(-21958.7 16167.2 9657.3)
(-23284.2 14191.9 9657.06)
(-24432.4 12108.5 9657.3)
(-25394.7 9933.03 9657.06)
(-26164 7681.89 9657.35)
(-26733.8 5372.35 9657.03)
(-27100.4 3021.79 9657.28)
(-27260.6 648.455 9657)
(-27213.5 -1729.96 9657.24)
(-26959 -4095.21 9657.11)
(-26499.6 -6429.3 9657.29)
(-25838.3 -8714.34 9656.98)
(-24980.5 -10933.1 9657.31)
(-23932.6 -13068.8 9657.12)
(-22702.5 -15104.9 9657.27)
(-21299.6 -17025.9 9657)
(-19734.5 -18817.5 9657.37)
(-18019.4 -20465.9 9657.04)
(-16167.2 -21958.7 9657.3)
(-14191.9 -23284.2 9657.06)
(-12108.5 -24432.4 9657.3)
(-9933.03 -25394.7 9657.06)
(-7681.89 -26164 9657.35)
(-5372.35 -26733.8 9657.03)
(-3021.79 -27100.4 9657.27)
(-648.455 -27260.6 9657)
(1729.96 -27213.5 9657.24)
(4095.2 -26959 9657.11)
(6429.3 -26499.6 9657.29)
(8714.34 -25838.3 9656.98)
(10933.1 -24980.5 9657.31)
(13068.8 -23932.6 9657.12)
(15104.9 -22702.5 9657.27)
(17025.9 -21299.6 9657)
(18817.5 -19734.5 9657.37)
(20465.9 -18019.4 9657.04)
(21958.7 -16167.2 9657.3)
(23284.2 -14191.9 9657.06)
(24432.4 -12108.5 9657.3)
(25394.7 -9933.03 9657.06)
(26164 -7681.89 9657.35)
(26733.8 -5372.35 9657.03)
(27100.4 -3021.79 9657.27)
(27260.6 -648.455 9657)
(27213.5 1729.96 9657.24)
(26959 4095.21 9657.11)
(26499.6 6429.3 9657.29)
(25838.3 8714.34 9656.98)
(24980.5 10933.1 9657.31)
(23932.6 13068.8 9657.12)
(22702.5 15104.9 9657.27)
(21299.6 17025.9 9657)
(19734.5 18817.5 9657.37)
(17532.5 3534.3 9175.52)
(17157.8 5048.94 9175.6)
(16652.3 6525.09 9175.47)
(16020.5 7951.59 9175.64)
(15266.4 9317.98 9175.43)
(14396.2 10612.9 9175.56)