/*--------------------------------*- C++ -*----------------------------------*\
| =========                 |                                                 |
| \\      /  F ield         | OpenFOAM: The Open Source CFD Toolbox           |
|  \\    /   O peration     | Version:  2412                                  |
|   \\  /    A nd           | Website:  www.openfoam.com                      |
|    \\/     M anipulation  |                                                 |
\*---------------------------------------------------------------------------*/
FoamFile
{
    version     2.0;
    format      ascii;
    arch        "LSB;label=32;scalar=64";
    class       volScalarField;
    location    "0.00998968";
    object      activationTime;
}
// * * * * * * * * * * * * * * * * * * * * * * * * * * * * * * * * * * * * * //

dimensions      [0 0 1 0 0 0 0];

internalField   nonuniform List<scalar> 
8679
(
0
0
0
0
0
0
0
0
0
0
0
0
0
0
0
0
0
0
0
0
0
0
0
0
0
0
0
0
0
0
0
0
0
0
0
0
0
0
0
0
0
0
0
0
0
0
0
0
0
0
0
0
0
0
0
0
0
0
0
0
0
0
0
0
0
0
0
0
0
0
0
0
0
0
0
0
0
0
0
0
0
0
0
0
0
0
0
0
0
0
0
0
0
0
0
0
0
0
0
0
0
0
0
0
0
0
0
0
0
0
0
0
0
0
0
0
0
0
0
0
0
0
0
0
0
0
0
0
0
0
0
0
0
0
0
0
0
0
0
0
0
0
0
0
0
0
0
0
0
0
0
0
0
0
0
0
0
0
0
0
0
0
0
0
0
0
0
0
0
0
0
0
0
0
0
0
0
0
0
0
0
0
0
0
0
0
0
0
0
0
0
0
0
0
0
0
0
0
0
0
0
0
0
0
0
0
0
0
0
0
0
0
0
0
0
0
0
0
0
0
0
0
0
0
0
0
0
0
0
0
0
0
0
0
0
0
0
0
0
0
0
0
0
0
0
0
0
0
0
0
0
0
0
0
0
0
0
0
0
0
0
0
0
0
0
0
0
0
0
0
0
0
0
0
0
0
0
0
0
0
0
0
0
0
0
0
0
0
0
0
0
0
0
0
0
0
0
0
0
0
0
0
0
0
0
0
0
0
0
0
0
0
0
0
0
0
0
0
0
0
0
0
0
0
0
0
0
0
0
0
0
0
0
0
0
0
0
0
0
0
0
0
0
0
0
0
0
0
0
0
0
0
0
0
0
0
0
0
0
0
0
0
0
0
0
0
0
0
0
0
0
0
0
0
0
0
0
0
0
0
0
0
0
0
0
0
0
0
0
0
0
0
0
0
0
0
0
0
0
0
0
0
0
0
0
0
0
0
0
0
0
0
0
0
0
0
0
0
0
0
0
0
0
0
0
0
0
0
0
0
0
0
0
0
0
0
0
0
0
0
0
0
0
0
0
0
0
0
0
0
0
0
0
0
0
0
0
0
0
0
0
0
0
0
0
0
0
0
0
0
0
0
0
0
0
0
0
0
0
0
0
0
0
0
0
0
0
0
0
0
0
0
0
0
0
0
0
0
0
0
0
0
0
0
0
0
0
0
0
0
0
0
0
0
0
0
0
0
0
0
0
0
0
0
0
0
0
0
0
0
0
0
0
0
0
0
0
0
0
0
0
0
0
0
0
0
0
0
0
0
0
0
0
0
0
0
0
0
0
0
0
0
0
0
0
0
0
0
0
0
0
0
0
0
0
0
0
0
0
0
0
0
0
0
0
0
0
0
0
0
0
0
0
0
0
0
0
0
0
0
0
0
0
0
0
0
0
0
0
0
0
0
0
0
0
0
0
0
0
0
0
0
0
0
0
0
0
0
0
0
0
0
0
0
0
0
0
0
0
0
0
0
0
0
0
0
0
0
0
0
0
0
0
0
0
0
0
0
0
0
0
0
0
0
0
0
0
0
0
0
0
0
0
0
0
0
0
0
0
0
0
0
0
0
0
0
0
0
0
0
0
0
0
0
0
0
0
0
0
0
0
0
0
0
0
0
0
0
0
0
0
0
0
0
0
0
0
0
0
0
0
0
0
0
0
0
0
0
0
0
0
0
0
0
0
0
0
0
0
0
0
0
0
0
0
0
0
0
0
0
0
0
0
0
0
0
0
0
0
0
0
0
0
0
0
0
0
0
0
0
0
0
0
0
0
0
0
0
0
0
0
0
0
0
0
0
0
0
0
0
0
0
0
0
0
0
0
0
0
0
0
0
0
0
0
0
0
0
0
0
0
0
0
0
0
0
0
0
0
0
0
0
0
0
0
0
0
0
0
0
0
0
0
0
0
0
0
0
0
0
0
0
0
0
0
0
0
0
0
0
0
0
0
0
0
0
0
0
0
0
0
0
0
0
0
0
0
0
0
0
0
0
0
0
0
0
0
0
0
0
0
0
0
0
0
0
0
0
0
0
0
0
0
0
0
0
0
0
0
0
0
0
0
0
0
0
0
0
0
0
0
0
0
0
0
0
0
0
0
0
0
0
0
0
0
0
0
0
0
0
0
0
0
0
0
0
0
0
0
0
0
0
0
0
0
0
0
0
0
0
0
0
0
0
0
0
0
0
0
0
0
0
0
0
0
0
0
0
0
0
0
0
0
0
0
0
0
0
0
0
0
0
0
0
0
0
0
0
0
0
0
0
0
0
0
0
0
0
0
0
0
0
0
0
0
0
0
0
0
0
0
0
0
0
0
0
0
0
0
0
0
0
0
0
0
0
0
0
0
0
0
0
0
0
0
0
0
0
0
0
0
0
0
0
0
0
0
0
0
0
0
0
0
0
0
0
0
0
0
0
0
0
0
0
0
0
0
0
0
0
0
0
0
0
0
0
0
0
0
0
0
0
0
0
0
0
0
0
0
0
0
0
0
0
0
0
0
0
0
0
0
0
0
0
0
0
0
0
0
0
0
0
0
0
0
0
0
0
0
0
0
0
0
0
0
0
0
0
0
0
0
0
0
0
0
0
0
0
0
0
0
0
0
0
0
0
0
0
0
0
0
0
0
0
0
0
0
0
0
0
0
0
0
0
0
0
0
0
0
0
0
0
0
0
0
0
0
0
0
0
0
0
0
0
0
0
0
0
0
0
0
0
0
0
0
0
0
0
0
0
0
0
0
0
0
0
0
0
0
0
0
0
0
0
0
0
0
0
0
0
0
0
0
0
0
0
0
0
0
0
0
0
0
0
0
0
0
0
0
0
0
0
0
0
0
0
0
0
0
0
0
0
0
0
0
0
0
0
0
0
0
0
0
0
0
0
0
0
0
0
0
0
0
0
0
0
0
0
0
0
0
0
0
0
0
0
0
0
0
0
0
0
0
0
0
0
0
0
0
0
0
0
0
0
0
0
0
0
0
0
0
0
0
0
0
0
0
0
0
0
0
0
0
0
0
0
0
0
0
0
0
0
0
0
0
0
0
0
0
0
0
0
0
0
0
0
0
0
0
0
0
0
0
0
0
0
0
0
0
0
0
0
0
0
0
0
0
0
0
0
0
0
0
0
0
0
0
0
0
0
0
0
0
0
0
0
0
0
0
0
0
0
0
0
0
0
0
0
0
0
0
0
0
0
0
0
0
0
0
0
0
0
0
0
0
0
0
0
0
0
0
0
0
0
0
0
0
0
0
0
0
0
0
0
0
0
0
0
0
0
0
0
0
0
0
0
0
0
0
0
0
0
0
0
0
0
0
0
0
0
0
0
0
0
0
0
0
0
0
0
0
0
0
0
0
0
0
0
0
0
0
0
0
0
0
0
0
0
0
0
0
0
0
0
0
0
0
0
0
0
0
0
0
0
0
0
0
0
0
0
0
0
0
0
0
0
0
0
0
0
0
0
0
0
0
0
0
0
0
0
0
0
0
0
0
0
0
0
0
0
0
0
0
0
0
0
0
0
0
0
0
0
0
0
0
0
0
0
0
0
0
0
0
0
0
0
0
0
0
0
0
0
0
0
0
0
0
0
0
0
0
0
0
0
0
0
0
0
0
0
0
0
0
0
0
0
0
0
0
0
0
0
0
0
0
0
0
0
0
0
0
0
0
0
0
0
0
0
0
0
0
0
0
0
0
0
0
0
0
0
0
0
0
0
0
0
0
0
0
0
0
0
0
0
0
0
0
0
0
0
0
0
0
0
0
0
0
0
0
0
0
0
0
0
0
0
0
0
0
0
0
0
0
0
0
0
0
0
0
0
0
0
0
0
0
0
0
0
0
0
0
0
0
0
0
0
0
0
0
0
0
0
0
0
0
0
0
0
0
0
0
0
0
0
0
0
0
0
0
0
0
0
0
0
0
0
0
0
0
0
0
0
0
0
0
0
0
0
0
0
0
0
0
0
0
0
0
0
0
0.00952356
0.00953524
0.0095547
0.0095893
0.00962705
0.00968034
0.00974645
0.00981889
0.00990067
0.00998812
0
0
0
0
0
0
0
0
0
0
0
0
0
0
0
0
0
0
0
0
0
0
0
0.00953193
0.00954338
0.00956157
0.00959134
0.00963304
0.0096864
0.00974674
0.00981708
0.00989904
0
0
0
0
0
0
0
0
0
0
0
0
0
0
0
0
0
0
0
0
0
0
0
0
0.00955209
0.00955905
0.0095818
0.00961234
0.00965458
0.00970866
0.00976866
0.0098394
0.00992205
0
0
0
0
0
0
0
0
0
0
0
0
0
0
0
0
0
0
0
0
0
0
0
0
0.0095837
0.00959495
0.00961326
0.00964303
0.00968518
0.00973892
0.00979961
0.0098706
0.00995366
0
0
0
0
0
0
0
0
0
0
0
0
0
0
0
0
0
0
0
0
0
0
0
0
0.00963538
0.00964229
0.00966558
0.0096971
0.0097407
0.00979593
0.00985714
0.00992927
0
0
0
0
0
0
0
0
0
0
0
0
0
0
0
0
0
0
0
0
0
0
0
0
0
0.00971939
0.00972628
0.0097498
0.00978167
0.00982454
0.0098753
0.00994133
0
0
0
0
0
0
0
0
0
0
0
0
0
0
0
0
0
0
0
0
0
0
0
0
0
0
0.00984944
0.00986121
0.00988227
0.00991852
0.00995826
0
0
0
0
0
0
0
0
0
0
0
0
0
0
0
0
0
0
0
0
0
0
0
0
0
0
0
0
0
0
0
0
0
0
0
0
0
0
0
0
0
0
0
0
0
0
0
0
0
0
0
0
0
0
0
0
0
0
0
0
0
0
0
0
0
0
0
0
0
0
0
0
0
0
0
0
0
0
0
0
0
0
0
0
0
0
0
0
0
0
0
0
0
0
0
0
0
0
0
0
0
0
0
0
0
0
0
0
0
0
0
0
0
0
0
0
0
0
0
0
0
0
0
0
0
0
0
0
0
0
0
0
0
0
0
0
0
0
0
0
0
0
0
0
0
0
0
0
0
0
0
0
0
0
0
0
0
0
0
0
0
0
0
0
0
0
0
0
0
0
0
0
0
0
0
0
0
0
0
0
0
0
0
0
0
0
0
0
0
0
0
0
0
0
0
0
0
0
0
0
0
0
0
0
0
0
0
0
0
0
0
0
0
0
0
0
0
0
0
0
0
0
0
0
0
0
0
0
0
0
0
0
0
0
0
0
0
0
0
0
0
0
0
0
0
0
0
0
0
0
0
0
0
0
0
0
0
0
0
0
0
0
0
0
0
0
0
0
0
0
0
0
0
0
0
0
0
0
0
0
0
0
0
0
0
0
0
0
0
0
0
0
0.00819774
0.00820972
0.00822925
0.00826131
0.00830731
0.00836689
0.00843402
0.00851227
0.00859798
0.00870004
0.00880995
0.00892971
0.0090544
0.00919204
0.00933637
0.00948704
0.00964632
0.00981304
0.00998166
0
0
0
0
0
0
0
0
0
0
0
0
0
0
0.00820451
0.00821199
0.00823615
0.00826924
0.00831449
0.00836931
0.00844007
0.00851503
0.00860442
0.00870315
0.00881657
0.008933
0.00906176
0.00919692
0.00934517
0.00949826
0.00965772
0.00981951
0
0
0
0
0
0
0
0
0
0
0
0
0
0
0
0.00821465
0.00822822
0.00825524
0.00828875
0.00832933
0.00838642
0.00845369
0.00853305
0.00862501
0.00872366
0.00883339
0.00895411
0.00908582
0.00922164
0.00936451
0.0095157
0.00967465
0.00984103
0
0
0
0
0
0
0
0
0
0
0
0
0
0
0
0.00825035
0.00825829
0.0082839
0.00831849
0.00836452
0.00841841
0.00848445
0.00856402
0.00865687
0.00875658
0.00886656
0.00898764
0.00911971
0.00925609
0.00939904
0.00955083
0.00970986
0.0098762
0
0
0
0
0
0
0
0
0
0
0
0
0
0
0
0.00829538
0.00830366
0.00833013
0.00836615
0.00841383
0.0084688
0.00853631
0.00861743
0.00871153
0.00881198
0.00892303
0.00904425
0.00917079
0.00930997
0.00945479
0.0096064
0.00976609
0.00993305
0
0
0
0
0
0
0
0
0
0
0
0
0
0
0
0.00837123
0.00838468
0.00840734
0.00844285
0.00849172
0.00854822
0.00861661
0.00869823
0.0087927
0.0088937
0.00900529
0.00912693
0.00925354
0.0093928
0.0095374
0.00968877
0.00984798
0
0
0
0
0
0
0
0
0
0
0
0
0
0
0
0
0.0085052
0.00851839
0.00854071
0.00857565
0.00862471
0.00868662
0.0087574
0.00883909
0.00892814
0.00903274
0.00914402
0.00925948
0.00938762
0.00952648
0.00967033
0.00981959
0.00997697
0
0
0
0
0
0
0
0
0
0
0
0
0
0
0
0
0.008732
0.00874023
0.00876547
0.00880099
0.00884851
0.0089039
0.00897093
0.0090506
0.00914178
0.0092396
0.00934678
0.00946351
0.00959011
0.00972127
0.00986345
0
0
0
0
0
0
0
0
0
0
0
0
0
0
0
0
0
0
0.00904302
0.00905634
0.00908295
0.00911631
0.00915657
0.00921277
0.00927694
0.00935311
0.00944044
0.00953441
0.00964195
0.00975559
0.00987716
0
0
0
0
0
0
0
0
0
0
0
0
0
0
0
0
0
0
0
0
0.00945897
0.00947126
0.00949072
0.00952127
0.00956388
0.00961838
0.00967966
0.00975111
0.00983385
0.00992738
0
0
0
0
0
0
0
0
0
0
0
0
0
0
0
0
0
0
0
0
0
0
0
0.00997081
0.00998192
0
0
0
0
0
0
0
0
0
0
0
0
0
0
0
0
0
0
0
0
0
0
0
0
0
0
0
0
0
0
0
0
0
0
0
0
0
0
0
0
0
0
0
0
0
0
0
0
0
0
0
0
0
0
0
0
0
0
0
0
0
0
0
0
0
0
0
0
0
0
0
0
0
0
0
0
0
0
0
0
0
0
0
0
0
0
0
0
0
0
0
0
0
0
0
0
0
0
0
0
0
0
0
0
0
0
0
0
0
0
0
0
0
0
0
0
0
0
0
0
0
0
0
0
0
0
0
0
0
0
0
0
0
0
0
0
0
0
0
0
0
0
0
0
0
0
0
0
0
0
0
0
0
0
0
0
0
0
0
0
0
0
0
0.00686596
0.0068737
0.00689974
0.00693582
0.00698477
0.00704318
0.00711646
0.00720488
0.00730252
0.00741395
0.00753837
0.00767007
0.00781144
0.00796311
0.00812446
0.00829518
0.00846956
0.00865554
0.00884537
0.00904097
0.00924253
0.00945077
0.00966619
0.00988306
0
0
0
0
0
0
0
0
0
0.00687255
0.00688053
0.00690677
0.00694213
0.00698644
0.00704906
0.0071242
0.00721333
0.00731192
0.00742269
0.00754198
0.00767649
0.00781956
0.00797155
0.00813381
0.00830522
0.00847995
0.00866179
0.0088541
0.00905158
0.0092544
0.00946356
0.00967429
0.00989332
0
0
0
0
0
0
0
0
0
0.00688103
0.00689448
0.00691725
0.00695382
0.00700429
0.00706528
0.00713982
0.00722911
0.00732747
0.00743815
0.00756185
0.00769393
0.00784122
0.00799632
0.0081545
0.00832448
0.00849925
0.00868425
0.00887429
0.00906921
0.00927124
0.00947993
0.00969489
0.00991802
0
0
0
0
0
0
0
0
0
0.00691386
0.00692317
0.00695174
0.00699019
0.00703698
0.00709743
0.00717315
0.00726342
0.00736303
0.00747416
0.00759842
0.00773081
0.00787838
0.00803322
0.00819106
0.00836078
0.00854036
0.0087227
0.00891117
0.00910548
0.00930739
0.00951563
0.00973027
0.00995211
0
0
0
0
0
0
0
0
0
0.00695065
0.00696076
0.00699081
0.00703102
0.00707952
0.00714186
0.00721944
0.00731209
0.00741344
0.0075268
0.0076528
0.00778588
0.0079284
0.00808139
0.00824322
0.00841428
0.00858917
0.00877458
0.00896492
0.00916017
0.00936133
0.00956961
0.0097854
0
0
0
0
0
0
0
0
0
0
0.00701126
0.00702696
0.00705306
0.00709421
0.00715036
0.00721585
0.0072949
0.00738297
0.00748405
0.00759779
0.00772495
0.00785976
0.00800888
0.00815977
0.00832134
0.00849276
0.00866778
0.00885288
0.0090427
0.00923714
0.00943863
0.00964668
0.00986104
0
0
0
0
0
0
0
0
0
0
0.00715055
0.00716644
0.00719306
0.00723331
0.00728353
0.00734734
0.00742634
0.00751973
0.0076219
0.00773589
0.00786228
0.00799515
0.00813712
0.00828919
0.00845022
0.00862041
0.00879373
0.00897716
0.00916506
0.00935777
0.00955802
0.0097642
0.00997657
0
0
0
0
0
0
0
0
0
0
0.00739379
0.00740311
0.00742676
0.00746644
0.0075208
0.00758461
0.00766176
0.00775238
0.00785093
0.00796152
0.00808367
0.008212
0.00835366
0.00850258
0.00865892
0.008824
0.00899245
0.00917169
0.00935412
0.00954787
0.00974443
0.00994664
0
0
0
0
0
0
0
0
0
0
0
0.00774928
0.00776246
0.00778602
0.00782373
0.00787572
0.0079362
0.00800928
0.00809496
0.00818878
0.00829885
0.00841647
0.00853811
0.00867296
0.00881327
0.00896282
0.00911995
0.0092849
0.00945827
0.00963956
0.00982277
0
0
0
0
0
0
0
0
0
0
0
0
0
0.00822987
0.00824348
0.00826509
0.00830028
0.0083485
0.00840588
0.00847855
0.00855545
0.00864638
0.00874662
0.00886081
0.00898149
0.00910611
0.00924295
0.00938501
0.00953946
0.00969826
0.00985917
0
0
0
0
0
0
0
0
0
0
0
0
0
0
0
0.00884398
0.00885613
0.00887648
0.00890841
0.00895355
0.00901086
0.00907539
0.00915019
0.0092375
0.00933649
0.00944037
0.00955342
0.00967522
0.00980602
0.00994049
0
0
0
0
0
0
0
0
0
0
0
0
0
0
0
0
0
0
0.00962685
0.00963903
0.0096593
0.00969428
0.00973184
0.0097834
0.00984737
0.00991792
0
0
0
0
0
0
0
0
0
0
0
0
0
0
0
0
0
0
0
0
0
0
0
0
0
0
0
0
0
0
0
0
0
0
0
0
0
0
0
0
0
0
0
0
0
0
0
0
0
0
0
0
0
0
0
0
0
0
0
0
0
0
0
0
0
0
0
0
0
0
0
0
0
0
0
0
0
0
0
0
0
0
0
0
0
0
0
0
0
0
0
0
0
0
0
0
0
0
0
0
0
0
0
0
0
0
0
0
0
0
0
0
0
0
0
0
0
0
0
0
0
0
0
0
0.00552994
0.00553816
0.00556576
0.00560382
0.00565156
0.00571585
0.0057991
0.00590062
0.00600938
0.00613738
0.00627721
0.00643024
0.00659628
0.00676904
0.0069505
0.0071409
0.00734072
0.0075492
0.00776569
0.00798683
0.00821701
0.00845194
0.00869229
0.00893938
0.00919303
0.00945378
0.00972145
0
0
0
0
0
0
0.00553238
0.00554104
0.00556886
0.00560718
0.00565542
0.00572044
0.00580358
0.00590018
0.00601306
0.00614293
0.00628365
0.00643741
0.00659845
0.00677423
0.0069568
0.00714834
0.00734809
0.00755669
0.00777435
0.0079952
0.00822551
0.00846151
0.00870277
0.00895033
0.00920467
0.00946588
0.00973409
0
0
0
0
0
0
0.00554311
0.00555695
0.00558026
0.00561892
0.00567396
0.00574156
0.00582586
0.00592255
0.00603543
0.00615989
0.00629824
0.00645123
0.00661714
0.00679022
0.00697754
0.00717078
0.00737233
0.00758213
0.00779473
0.00801723
0.0082456
0.00848413
0.00872684
0.00897562
0.00923077
0.00948725
0.00975295
0
0
0
0
0
0
0.00557325
0.00558764
0.00561262
0.00565311
0.00571007
0.00578006
0.00586617
0.0059643
0.00607809
0.00620268
0.00634094
0.00649351
0.006659
0.0068313
0.00701767
0.00721039
0.00741117
0.00762024
0.0078324
0.0080547
0.00828249
0.0085199
0.00876287
0.00901154
0.00926678
0.0095235
0.00978803
0
0
0
0
0
0
0.00560405
0.0056156
0.00564795
0.00569245
0.00574743
0.00581926
0.00590852
0.00601052
0.00612742
0.00625456
0.00639505
0.00654791
0.00671433
0.00688722
0.00706938
0.00725958
0.00745974
0.00766784
0.00788378
0.00810884
0.00833692
0.0085704
0.00881512
0.00906483
0.00931545
0.00957393
0.00984022
0
0
0
0
0
0
0.00564486
0.00566212
0.0056925
0.00573864
0.00579711
0.00587222
0.0059599
0.00606415
0.00618433
0.00631493
0.00645774
0.00661377
0.00678168
0.00695569
0.00714314
0.00733669
0.00753813
0.00774766
0.00796003
0.00818246
0.00841042
0.00864771
0.0088904
0.00913883
0.00939354
0.00965533
0.00991844
0
0
0
0
0
0
0.00576997
0.00578803
0.0058194
0.00586665
0.00592647
0.00600235
0.00609082
0.00619521
0.0063153
0.00644512
0.00658668
0.0067416
0.00690825
0.00708086
0.00726714
0.00745975
0.00765988
0.0078679
0.00807868
0.00829949
0.00853041
0.00876425
0.00900418
0.00925015
0.00950286
0.00976268
0
0
0
0
0
0
0
0.0060387
0.0060519
0.00608531
0.00612753
0.00619044
0.00626555
0.00635074
0.00645031
0.0065652
0.0066942
0.00683126
0.00697963
0.00713896
0.00730997
0.00748666
0.00767077
0.00786841
0.00807145
0.00828206
0.0084954
0.00871927
0.00894772
0.0091873
0.0094317
0.00968158
0.00993806
0
0
0
0
0
0
0
0.00646503
0.00647594
0.00650247
0.00654599
0.00660619
0.00667658
0.00676076
0.00685456
0.00696094
0.00708156
0.00721482
0.00735572
0.00750589
0.0076668
0.00783746
0.00801246
0.00820102
0.00839343
0.00859444
0.00880262
0.00901909
0.00923914
0.00947029
0.00970492
0.00994572
0
0
0
0
0
0
0
0
0.00704858
0.00706348
0.00708818
0.00712837
0.00718385
0.00724888
0.00732651
0.00741274
0.00751564
0.00762892
0.00775367
0.00788463
0.00803008
0.0081811
0.00834146
0.00851041
0.00868305
0.00886783
0.00905704
0.00925405
0.00945833
0.00966987
0.00988929
0
0
0
0
0
0
0
0
0
0
0.00783499
0.00784861
0.00787181
0.00790815
0.00795826
0.00801655
0.00808778
0.00817154
0.00826758
0.00837192
0.00848585
0.00861066
0.00874617
0.0088859
0.00903362
0.00919449
0.00935573
0.00952608
0.00970594
0.00988928
0
0
0
0
0
0
0
0
0
0
0
0
0
0.00882459
0.00883818
0.00886463
0.00889857
0.00894336
0.00899475
0.00905721
0.00913248
0.00921939
0.0093168
0.00942098
0.00953337
0.00965511
0.00978665
0.00992755
0
0
0
0
0
0
0
0
0
0
0
0
0
0
0
0
0
0
0.00994502
0.00995689
0.00997557
0
0
0
0
0
0
0
0
0
0
0
0
0
0
0
0
0
0
0
0
0
0
0
0
0
0
0
0
0
0
0
0
0
0
0
0
0
0
0
0
0
0
0
0
0
0
0
0
0
0
0
0
0
0
0
0
0
0
0
0
0
0
0
0
0
0
0
0
0
0
0
0
0
0
0
0
0
0
0
0
0
0
0
0
0
0
0
0
0
0
0
0
0
0
0
0
0.00419213
0.00420307
0.00422339
0.0042634
0.00431375
0.00438561
0.00448114
0.00459106
0.0047213
0.00487191
0.00503699
0.0052231
0.00541397
0.00561972
0.00583777
0.00606306
0.0063011
0.00654601
0.00679955
0.00705627
0.00732314
0.00759364
0.00787516
0.00815949
0.00844873
0.00874311
0.00904254
0.00934703
0.009651
0.00996173
0
0
0
0.004186
0.0041978
0.00422275
0.00425843
0.00430825
0.00438477
0.00447694
0.00459127
0.00472363
0.00487068
0.00504067
0.0052242
0.00542008
0.005623
0.00584103
0.00606639
0.00630547
0.00655116
0.00680005
0.0070596
0.00732823
0.0075997
0.00788258
0.00816841
0.00845882
0.00875406
0.00905425
0.00935953
0.00966413
0.0099744
0
0
0
0.00420038
0.00421172
0.00423203
0.00427219
0.0043229
0.0043956
0.0044918
0.00460282
0.00473401
0.00488662
0.00505341
0.00523501
0.00543072
0.0056389
0.0058599
0.00608585
0.00632172
0.0065655
0.00681775
0.007079
0.00734379
0.00761982
0.00789882
0.00818298
0.00847326
0.00876818
0.00906754
0.00937285
0.00968233
0
0
0
0
0.00424707
0.00425944
0.00428071
0.0043194
0.00437843
0.00445396
0.00454704
0.00466132
0.00479332
0.00493957
0.00510731
0.00528731
0.00548172
0.00568845
0.00590223
0.00612905
0.00636415
0.00660664
0.0068575
0.00711755
0.00738651
0.00765921
0.00793564
0.00822413
0.00851597
0.00881248
0.00910796
0.00941011
0.00971761
0
0
0
0
0.00426156
0.00427695
0.00430482
0.00435084
0.00441697
0.00449457
0.00459224
0.00471113
0.00484637
0.00499911
0.00516465
0.00534479
0.00553722
0.00574276
0.00595939
0.00618384
0.00641988
0.00666354
0.00691489
0.00717508
0.00743922
0.00771319
0.00799061
0.00827281
0.00856109
0.00885508
0.00915473
0.00945924
0.00976799
0
0
0
0
0.00425997
0.00427916
0.00431251
0.00436004
0.00442897
0.00451976
0.00462742
0.00474964
0.00489034
0.00504908
0.00521941
0.0054027
0.00559912
0.00580767
0.00602317
0.0062509
0.00648671
0.00673005
0.00698186
0.00724228
0.00751114
0.0077837
0.00805984
0.00834806
0.00863925
0.00893503
0.00923613
0.00953603
0.0098421
0
0
0
0
0.00435727
0.00437819
0.00441348
0.0044638
0.00453455
0.00462321
0.00473272
0.00486265
0.0050015
0.00515974
0.0053299
0.00551418
0.00570979
0.00591782
0.00613805
0.00636375
0.00660321
0.00684852
0.00709633
0.0073547
0.00762223
0.00789253
0.00817432
0.00845941
0.00874872
0.00904291
0.00934203
0.00964576
0.00994924
0
0
0
0
0.00466934
0.00468949
0.00472406
0.00477242
0.00484056
0.00492916
0.005033
0.00515567
0.00529032
0.00544107
0.00560145
0.00577885
0.00596568
0.00616395
0.00637395
0.00659584
0.00682373
0.00705909
0.00730295
0.00755613
0.0078185
0.00808887
0.00836225
0.00864591
0.008933
0.00922401
0.00951947
0.00981973
0
0
0
0
0
0.00519749
0.00521647
0.00524874
0.00529874
0.00536242
0.00544404
0.00553845
0.0056499
0.00577729
0.00591508
0.00606686
0.00623172
0.00640946
0.00659405
0.00678939
0.00699548
0.00721152
0.0074329
0.00766728
0.0079074
0.00815557
0.00841233
0.00867686
0.0089441
0.00922239
0.00950335
0.00978803
0
0
0
0
0
0
0.00599033
0.00600717
0.00603626
0.00608104
0.00613783
0.00620998
0.00629884
0.00639944
0.00651335
0.00664173
0.00677903
0.00693201
0.00709353
0.00725997
0.00743999
0.00762639
0.0078219
0.0080261
0.00823943
0.00846168
0.00869382
0.00892993
0.00917246
0.009422
0.00967909
0.00994339
0
0
0
0
0
0
0
0.00702968
0.00704456
0.00707009
0.00710955
0.00716337
0.00722739
0.00730543
0.00739838
0.0074997
0.00761253
0.00773709
0.00787358
0.0080152
0.00816596
0.00832533
0.00849415
0.00867228
0.00885353
0.00904351
0.00924532
0.00945264
0.00966138
0.00987973
0
0
0
0
0
0
0
0
0
0
0.00820224
0.00821108
0.0082374
0.00827359
0.00832221
0.00837835
0.00844644
0.00852743
0.00862064
0.00872012
0.00882975
0.0089495
0.00907954
0.00921407
0.00935955
0.00951132
0.00966945
0.00983505
0
0
0
0
0
0
0
0
0
0
0
0
0
0
0
0.00942106
0.00942908
0.00945335
0.0094852
0.00952832
0.00958326
0.00964414
0.00971575
0.00979886
0.00989268
0
0
0
0
0
0
0
0
0
0
0
0
0
0
0
0
0
0
0
0
0
0
0
0
0
0
0
0
0
0
0
0
0
0
0
0
0
0
0
0
0
0
0
0
0
0
0
0
0
0
0
0
0
0
0
0
0
0
0
0
0
0
0
0
0
0
0
0
0
0
0
0
0
0
0
0
0
0
0
0
0
0
0
0
0
0
0
0
0
0.0028761
0.00287477
0.00287926
0.00290038
0.0029492
0.00302136
0.00313382
0.00327524
0.00344294
0.00364083
0.00385549
0.00408708
0.00433269
0.00459224
0.00486469
0.00514409
0.00543022
0.00572406
0.00602546
0.00633434
0.00664466
0.00696182
0.0072797
0.00759808
0.00792468
0.00825066
0.00857687
0.00890404
0.00923275
0.00956839
0.00990258
0
0
0.0028618
0.00286295
0.00287055
0.00289153
0.0029337
0.00301119
0.00311602
0.00325312
0.00342348
0.00362318
0.00384094
0.00407485
0.00432522
0.00458495
0.0048589
0.0051398
0.00542813
0.00572433
0.00602789
0.00633859
0.00665013
0.00696836
0.00728759
0.00760729
0.0079347
0.00826187
0.00858916
0.00891705
0.00924543
0.0095747
0.00990513
0
0
0.00284519
0.00284783
0.00285651
0.00287555
0.00291963
0.00299634
0.00310997
0.00325384
0.00342418
0.00362626
0.00384673
0.0040842
0.00433796
0.00459912
0.0048692
0.00515466
0.0054463
0.00574491
0.00604482
0.00635331
0.00666806
0.00698383
0.00730694
0.00762991
0.00795311
0.00827722
0.00860308
0.00893585
0.00926747
0.00959868
0.00993005
0
0
0.00293459
0.00293879
0.00294745
0.00297511
0.00302346
0.00309974
0.00320893
0.00334472
0.00351176
0.00370148
0.0039169
0.00414717
0.00439306
0.00465271
0.00492054
0.00520246
0.0054916
0.00578777
0.00608567
0.00639174
0.00670468
0.00701829
0.00733949
0.00766121
0.00798361
0.00831399
0.00864293
0.00897192
0.00930106
0.00963063
0.00996087
0
0
0.00294066
0.00295449
0.00298426
0.00303095
0.00309214
0.00317825
0.00329197
0.0034331
0.00359941
0.00378572
0.00399676
0.00422319
0.00446421
0.00471944
0.00498807
0.00526411
0.00554763
0.0058397
0.00613923
0.00644555
0.00675861
0.00707259
0.0073873
0.00771089
0.00803424
0.00835815
0.00868955
0.00902011
0.0093503
0.00968055
0
0
0
0.00284165
0.00286607
0.00290405
0.00296635
0.00304354
0.00315215
0.00328347
0.00343739
0.00361207
0.00381355
0.00403064
0.00426434
0.00451188
0.00477298
0.00504134
0.00532374
0.00561233
0.00590768
0.00621015
0.00651451
0.00682675
0.00713945
0.00745994
0.00778054
0.00810224
0.0084316
0.00876056
0.00908973
0.00941895
0.00974866
0
0
0
0.00288862
0.00290538
0.0029437
0.00300193
0.00308675
0.00319885
0.00333825
0.00349519
0.00368128
0.00388616
0.0041083
0.00434763
0.00460071
0.0048668
0.00514131
0.00542271
0.00571237
0.00600979
0.00631348
0.00662288
0.00693359
0.00725124
0.00756966
0.00789505
0.00821936
0.008544
0.00886925
0.00919561
0.00952893
0.00986125
0
0
0
0.00326255
0.00328492
0.00332117
0.0033845
0.00346471
0.00357006
0.00369744
0.00384926
0.0040193
0.00420919
0.00441805
0.00463969
0.0048812
0.00512833
0.00539052
0.00566531
0.00594753
0.00623581
0.00653108
0.00683311
0.00714276
0.0074516
0.00776712
0.00808381
0.00840086
0.00872448
0.00904766
0.00937062
0.0097009
0
0
0
0
0.00405299
0.00407376
0.00411079
0.00416415
0.00423836
0.00433581
0.00444952
0.00457884
0.00472654
0.00489239
0.00507077
0.00526991
0.00547518
0.00569517
0.00592444
0.00617021
0.00642557
0.00668417
0.00695452
0.0072305
0.00752029
0.0078138
0.00810655
0.00840623
0.00871139
0.00902203
0.00933252
0.00964781
0.00996379
0
0
0
0
0.0051915
0.0052034
0.00523437
0.00528414
0.00534861
0.00542998
0.00552486
0.00564089
0.00576464
0.00590695
0.00606058
0.00622101
0.00639762
0.00658222
0.00677776
0.00698362
0.00719959
0.00742598
0.00765878
0.00789841
0.00814669
0.00840388
0.00866886
0.00894251
0.00921891
0.00949887
0.00978338
0
0
0
0
0
0
0.00643467
0.00645076
0.00647842
0.00652099
0.00657462
0.00664346
0.0067283
0.00682847
0.00693858
0.00706077
0.00718994
0.00732942
0.00748473
0.00764168
0.00781091
0.00799129
0.008176
0.00836904
0.00857506
0.00878135
0.00899762
0.00922269
0.00945152
0.00969182
0.00993644
0
0
0
0
0
0
0
0
0.00770992
0.00772386
0.00774816
0.00778572
0.00783667
0.00789671
0.00797017
0.00805718
0.00815221
0.00825745
0.0083738
0.0085008
0.00863833
0.00878065
0.00893031
0.0090884
0.00925426
0.00942851
0.00960534
0.00979365
0.00998485
0
0
0
0
0
0
0
0
0
0
0
0
0.00899407
0.00900788
0.00903424
0.00906738
0.00910779
0.00916467
0.00922965
0.00930599
0.00939379
0.00949284
0.00959755
0.00971096
0.00983359
0.00996026
0
0
0
0
0
0
0
0
0
0
0
0
0
0
0
0
0
0
0
0
0
0
0
0
0
0
0
0
0
0
0
0
0
0
0
0
0
0
0
0
0
0
0
0
0
0
0
0
0
0
0
0
0
0
0
0
0
0
0
0
0
0
0
0
0
0
0
0
0
0
0
0
0
0
0
0
0
0
0
0
0
0
0
0
0
0.0016108
0.00161868
0.00154199
0.00148714
0.00148289
0.00154245
0.00167658
0.00193987
0.00223857
0.00255552
0.00287821
0.00320512
0.0035364
0.0038715
0.00420921
0.00454858
0.00488894
0.00523031
0.00557215
0.00591448
0.00625818
0.00659647
0.00693553
0.00727514
0.00761515
0.0079556
0.00829672
0.00863836
0.00898039
0.00932377
0.0096603
0
0
0.00158938
0.00161126
0.00157297
0.00156729
0.00159923
0.00160458
0.00167441
0.00184191
0.00215573
0.00249022
0.00282925
0.00317106
0.00351446
0.00385925
0.00420657
0.00454794
0.00489047
0.00523362
0.00557712
0.00592152
0.00626113
0.00660149
0.00694224
0.00728332
0.0076247
0.0079664
0.00830837
0.00865159
0.00898839
0.00932695
0.00966669
0
0
0.00144056
0.00143678
0.00143136
0.00142506
0.00143749
0.00147929
0.00158509
0.00178106
0.00212669
0.00247783
0.00283059
0.00317647
0.00352352
0.00387339
0.00421711
0.00456189
0.00490692
0.00525359
0.00559477
0.00593665
0.00627876
0.00662089
0.00696331
0.00730697
0.00764496
0.00798422
0.00832445
0.0086652
0.00900629
0.0093474
0.00968867
0
0
0.00173185
0.00168748
0.00167368
0.00160638
0.00157943
0.00161427
0.00173082
0.00198326
0.00227426
0.00258901
0.0029127
0.00324274
0.00357779
0.00391663
0.00425743
0.00459944
0.00494254
0.00528632
0.00563191
0.00597122
0.00631169
0.00665263
0.00699391
0.00733573
0.00767821
0.00802179
0.00835884
0.00869718
0.00903661
0.00937687
0.00971792
0
0
0.00155623
0.0016188
0.00174719
0.00184233
0.0019047
0.00193216
0.00195407
0.00209515
0.00237252
0.00267741
0.00299191
0.00331943
0.00364974
0.00398355
0.00431996
0.00465849
0.00499991
0.00534305
0.00567993
0.00601898
0.00635952
0.0067006
0.00704195
0.00738382
0.00772716
0.00806494
0.00840392
0.00874378
0.00908425
0.00942513
0.00976625
0
0
0.00139518
0.00142043
0.00147478
0.00156328
0.00168023
0.00174745
0.00186953
0.00211932
0.00240991
0.00272094
0.00304038
0.00336651
0.0036981
0.00404054
0.00437725
0.00471687
0.00505795
0.00540013
0.00574314
0.00608626
0.00643136
0.00676974
0.00710984
0.00745081
0.00779241
0.00813434
0.00847665
0.00882025
0.00915726
0.00949581
0.00983562
0
0
0.00139813
0.00141295
0.00143757
0.00147105
0.00151692
0.00158851
0.00172022
0.00193782
0.00232389
0.00269687
0.00306002
0.00341686
0.00377439
0.00412414
0.00447579
0.00481912
0.00516393
0.00551144
0.0058522
0.00619393
0.00653662
0.00687929
0.00722259
0.00756731
0.00790496
0.00824388
0.00858371
0.00892423
0.00926506
0.00960594
0.00994705
0
0
0.00178844
0.00185901
0.00191208
0.00202763
0.00212028
0.00221921
0.00238835
0.00260888
0.00286391
0.00313909
0.00343304
0.0037439
0.00406195
0.00438694
0.00472386
0.00506162
0.00540072
0.00573368
0.00606838
0.006404
0.00674016
0.0070768
0.00741395
0.00775114
0.00808804
0.0084248
0.00876153
0.00909848
0.00943576
0.00977359
0
0
0
0.00326095
0.00327937
0.00332082
0.00338155
0.00346701
0.00357406
0.00370141
0.00385258
0.00402172
0.00421046
0.00441792
0.00463875
0.00487884
0.00513138
0.00539007
0.00566336
0.00594498
0.00623346
0.006529
0.0068314
0.00714115
0.00745078
0.00776697
0.00808405
0.00840168
0.00872591
0.00904986
0.0093735
0.00970473
0
0
0
0
0.00465068
0.0046642
0.00469772
0.00475263
0.00482244
0.00490629
0.00500886
0.00512978
0.00526432
0.00541364
0.00557913
0.00575437
0.00594721
0.00614908
0.006356
0.006576
0.00680288
0.00704393
0.00729168
0.00754781
0.0078069
0.00807772
0.00835128
0.00863624
0.00892378
0.00921585
0.0095126
0.00981423
0
0
0
0
0
0.00599382
0.00601092
0.00604044
0.00608627
0.00614468
0.00621835
0.00630861
0.00641
0.00652617
0.00665665
0.00679511
0.0069454
0.00710671
0.00727351
0.00745363
0.00763891
0.00783392
0.00803693
0.00824785
0.00846704
0.0086954
0.00892704
0.00916423
0.00940793
0.00965886
0.00991668
0
0
0
0
0
0
0
0.00733601
0.00734616
0.00737638
0.00741708
0.00746625
0.0075295
0.00760731
0.00769951
0.00780014
0.00791238
0.00803594
0.00816573
0.00830901
0.00845915
0.0086167
0.00878284
0.00895206
0.0091323
0.00931602
0.0095124
0.00971189
0.00991676
0
0
0
0
0
0
0
0
0
0
0
0.00866715
0.00868022
0.00870208
0.00873642
0.0087842
0.00884091
0.00891406
0.00899083
0.00908216
0.00918059
0.0092891
0.00940745
0.00953606
0.00967432
0.00981522
0.00996279
0
0
0
0
0
0
0
0
0
0
0
0
0
0
0
0
0
0
0
0
0
0
0
0
0
0
0
0
0
0
0
0
0
0
0
0
0
0
0
0
0
0
0
0
0
0
0
0
0
0
0
0
0
0
0
0
0
0
0
0
0
0
0
0
0
0
0
0
0
0
0
0
0
0
0
0
0
0
0
0
0
0
0
0.0012537
0.00125314
0.00124671
0.00124369
0.00125577
0.00129657
0.00139783
0.00158204
0.00191087
0.00225728
0.0026085
0.0029555
0.00330328
0.00365236
0.00399783
0.00434363
0.00469045
0.00503879
0.00538254
0.00572693
0.0060724
0.00641898
0.00676137
0.00710461
0.00744842
0.00779288
0.00813819
0.00847927
0.00882181
0.00916494
0.0095086
0.00985285
0
0.00125103
0.00125241
0.00125065
0.00125387
0.00126979
0.00130567
0.00139837
0.00157964
0.00190632
0.00225366
0.00260647
0.00295568
0.00330538
0.0036569
0.00400354
0.00435104
0.00469937
0.00504385
0.0053893
0.0057355
0.00608238
0.00642515
0.00676915
0.00711372
0.00745879
0.00780448
0.00814583
0.00848856
0.00883204
0.00917593
0.00952017
0.00986552
0
0.00123352
0.00123312
0.00123323
0.00123748
0.00125437
0.0012981
0.00140247
0.00159119
0.00192473
0.00227658
0.00262538
0.00297545
0.00332881
0.00367537
0.00402331
0.00437384
0.00471843
0.00506448
0.00541147
0.00575446
0.00609897
0.0064443
0.00679002
0.00713678
0.00747895
0.00782209
0.00816593
0.00851021
0.00885524
0.00919575
0.00953769
0.00988076
0
0.00126358
0.0012601
0.00125836
0.00126088
0.00127252
0.00131258
0.00141547
0.00160405
0.00194196
0.00229283
0.00264686
0.00299798
0.00334908
0.00370212
0.00404935
0.00439754
0.00474744
0.00509227
0.00543804
0.00578498
0.00613352
0.00647616
0.00681981
0.00716469
0.00751064
0.00785242
0.00819533
0.00853885
0.00888295
0.00922771
0.00957392
0.00991411
0
0.00124896
0.00125842
0.00127158
0.00128883
0.00131192
0.0013548
0.00145403
0.00163893
0.00197557
0.00233352
0.00268477
0.00304097
0.0033899
0.00374154
0.00408884
0.00443692
0.0047867
0.00513253
0.00547884
0.00582611
0.00617524
0.00651879
0.0068632
0.00720868
0.00755514
0.00789762
0.00824078
0.00858469
0.00892911
0.00927434
0.00961572
0.00995838
0
0.00122713
0.00123268
0.001245
0.00126698
0.00130315
0.00137834
0.00151938
0.00178532
0.00209226
0.00242495
0.0027656
0.00311249
0.00345648
0.00380308
0.00415175
0.00450406
0.00484946
0.00519655
0.00554605
0.00589059
0.00623653
0.00658372
0.00693294
0.00727601
0.00762036
0.00796586
0.00831237
0.00865453
0.00899774
0.00934179
0.00968625
0
0
0.00124116
0.00124609
0.00125684
0.00127663
0.00130696
0.00136798
0.00149543
0.00172297
0.00209122
0.00246352
0.00282674
0.00318435
0.00354471
0.00389749
0.0042533
0.00460276
0.00495294
0.00530072
0.00564881
0.00599729
0.00634809
0.00669237
0.00703788
0.0073844
0.00773347