/*--------------------------------*- C++ -*----------------------------------*\
| =========                 |                                                 |
| \\      /  F ield         | OpenFOAM: The Open Source CFD Toolbox           |
|  \\    /   O peration     | Version:  2412                                  |
|   \\  /    A nd           | Website:  www.openfoam.com                      |
|    \\/     M anipulation  |                                                 |
\*---------------------------------------------------------------------------*/
FoamFile
{
    version     2.0;
    format      ascii;
    arch        "LSB;label=32;scalar=64";
    class       volScalarField;
    location    "0.00998968";
    object      Vm;
}
// * * * * * * * * * * * * * * * * * * * * * * * * * * * * * * * * * * * * * //

dimensions      [0 0 0 0 0 0 0];

internalField   nonuniform List<scalar> 
8679
(
7.77131e-05
7.65598e-05
7.42964e-05
7.10082e-05
6.68218e-05
6.1896e-05
5.64124e-05
5.05649e-05
4.4549e-05
3.85559e-05
3.27623e-05
2.73181e-05
2.23421e-05
1.79134e-05
1.40711e-05
1.08186e-05
8.13193e-06
5.96768e-06
4.26989e-06
2.97534e-06
2.01738e-06
1.32978e-06
8.5117e-07
5.28405e-07
3.17851e-07
1.85202e-07
1.04561e-07
5.72416e-08
3.042e-08
1.57163e-08
7.90817e-09
3.88359e-09
1.86533e-09
7.68432e-05
7.56973e-05
7.34497e-05
7.0187e-05
6.60355e-05
6.11535e-05
5.57211e-05
4.993e-05
4.39749e-05
3.80456e-05
3.23168e-05
2.69369e-05
2.20216e-05
1.76496e-05
1.38585e-05
1.06511e-05
8.00296e-06
5.87081e-06
4.19904e-06
2.925e-06
1.98266e-06
1.30653e-06
8.36068e-07
5.18898e-07
3.12062e-07
1.818e-07
1.0263e-07
5.61844e-08
2.98607e-08
1.54303e-08
7.76682e-09
3.81598e-09
1.834e-09
7.49238e-05
7.37925e-05
7.15761e-05
6.83655e-05
6.4288e-05
5.94992e-05
5.41754e-05
4.8506e-05
4.26846e-05
3.68974e-05
3.13128e-05
2.60759e-05
2.12985e-05
1.70551e-05
1.33802e-05
1.02744e-05
7.71272e-06
5.65233e-06
4.0388e-06
2.81072e-06
1.9035e-06
1.25328e-06
8.01291e-07
4.96882e-07
2.98579e-07
1.73822e-07
9.80724e-08
5.36684e-08
2.85178e-08
1.47368e-08
7.41985e-09
3.64761e-09
1.75462e-09
0.000536677
0.000528714
0.000513109
0.000490482
0.00046178
0.000428112
0.000390743
0.000350975
0.00031005
0.000269165
0.000229434
0.000191836
0.000157251
0.000126325
9.94748e-05
7.67674e-05
5.80085e-05
4.28472e-05
3.08621e-05
2.1626e-05
1.47222e-05
9.73195e-06
6.24176e-06
3.87788e-06
2.3291e-06
1.35063e-06
7.56175e-07
4.0908e-07
2.14114e-07
1.08606e-07
5.34985e-08
2.56566e-08
1.20117e-08
0.000530703
0.000522804
0.000507337
0.000484924
0.000456475
0.00042312
0.000386116
0.000346726
0.000306191
0.000265712
0.000226401
0.000189237
0.000155036
0.000124476
9.79741e-05
7.55787e-05
5.70882e-05
4.21496e-05
3.03452e-05
2.12535e-05
1.44625e-05
9.55678e-06
6.12736e-06
3.8055e-06
2.28482e-06
1.32452e-06
7.41375e-07
4.01006e-07
2.0987e-07
1.06453e-07
5.24446e-08
2.51578e-08
1.17833e-08
0.000517406
0.000509626
0.000494385
0.000472361
0.00044447
0.000411803
0.000375571
0.000337014
0.000297376
0.00025783
0.000219447
0.00018321
0.000149936
0.000120269
9.45879e-05
7.29118e-05
5.50273e-05
4.05865e-05
2.91861e-05
2.0417e-05
1.38779e-05
9.16137e-06
5.868e-06
3.64053e-06
2.18334e-06
1.26438e-06
7.07091e-07
3.82191e-07
1.99916e-07
1.0137e-07
4.99356e-08
2.39589e-08
1.12276e-08
0.000494747
0.000487198
0.000472473
0.000451234
0.000424362
0.000392901
0.000358007
0.000320879
0.00028273
0.000244733
0.000207955
0.000173328
0.000141614
0.000113437
8.91047e-05
6.85975e-05
5.16951e-05
3.80606e-05
2.73126e-05
1.90649e-05
1.29329e-05
8.52149e-06
5.44772e-06
3.37273e-06
2.01827e-06
1.16631e-06
6.51001e-07
3.51302e-07
1.83516e-07
9.2964e-08
4.57692e-08
2.19579e-08
1.02941e-08
0.000460607
0.000453481
0.000439558
0.000419504
0.000394174
0.000364557
0.000331744
0.00029688
0.000261135
0.000225614
0.000191303
0.000159114
0.000129768
0.0001038
8.14217e-05
6.25846e-05
4.70724e-05
3.45727e-05
2.47382e-05
1.7217e-05
1.16473e-05
7.65403e-06
4.87941e-06
3.01148e-06
1.79623e-06
1.03476e-06
5.75953e-07
3.10041e-07
1.6163e-07
8.17484e-08
4.02073e-08
1.92827e-08
9.0427e-09
0.00370822
0.00365042
0.00353753
0.00337474
0.00317039
0.00293293
0.00267287
0.00240113
0.00212633
0.00185529
0.00159265
0.0013423
0.00110845
0.0008946
0.000705036
0.000544367
0.000412359
0.000306477
0.00022293
0.000157881
0.000108293
7.18898e-05
4.62308e-05
2.87906e-05
1.73119e-05
1.00156e-05
5.56813e-06
2.97737e-06
1.53385e-06
7.62815e-07
3.67095e-07
1.71443e-07
7.79593e-08
0.00366491
0.00360806
0.0034971
0.00333687
0.00313456
0.00289967
0.00264299
0.00237418
0.00210186
0.00183318
0.00157329
0.00132591
0.00109446
0.000881822
0.000694377
0.000535862
0.000405778
0.000301501
0.000219213
0.000155146
0.000106345
7.05573e-05
4.53557e-05
2.82361e-05
1.6971e-05
9.81374e-06
5.45366e-06
2.91523e-06
1.50148e-06
7.46601e-07
3.59269e-07
1.67797e-07
7.63174e-08
0.00356712
0.00351163
0.00340264
0.00324571
0.00304841
0.00281982
0.00257012
0.00230847
0.00204317
0.00178093
0.0015268
0.00128472
0.00105864
0.000851761
0.000670063
0.000516784
0.000391146
0.000290456
0.000210983
0.000149099
0.000102033
6.76076e-05
4.34114e-05
2.69946e-05
1.6203e-05
9.35646e-06
5.19309e-06
2.77315e-06
1.42713e-06
7.09159e-07
3.41091e-07
1.59273e-07
7.2448e-08
0.00340037
0.00334686
0.00324294
0.00309361
0.00290562
0.00268769
0.0024494
0.00219924
0.00194509
0.00169361
0.00144977
0.00121765
0.00100085
0.000803039
0.000630797
0.000486026
0.000367586
0.000272683
0.000197706
0.000139323
9.50768e-05
6.2857e-05
4.02843e-05
2.49984e-05
1.49664e-05
8.61863e-06
4.77139e-06
2.54235e-06
1.30593e-06
6.47957e-07
3.11308e-07
1.45272e-07
6.60712e-08
0.00315196
0.00310237
0.00300502
0.00286549
0.00269067
0.00248853
0.00226758
0.00203546
0.00179924
0.00156469
0.00133635
0.00111906
0.000916626
0.000733626
0.000575529
0.000443114
0.000334939
0.000248151
0.000179418
0.00012593
8.56204e-05
5.64369e-05
3.60737e-05
2.23153e-05
1.33087e-05
7.63328e-06
4.21032e-06
2.23613e-06
1.1454e-06
5.66974e-07
2.71915e-07
1.26749e-07
5.76252e-08
0.0027911
0.00274741
0.0026616
0.00253877
0.0023849
0.00220669
0.00201077
0.00180404
0.00159285
0.00138236
0.00117682
0.000981594
0.000800328
0.000639323
0.000501175
0.000385792
0.000291462
0.000215499
0.000155168
0.000108354
7.33626e-05
4.81966e-05
3.0706e-05
1.89157e-05
1.12249e-05
6.40604e-06
3.51772e-06
1.86109e-06
9.50142e-07
4.6904e-07
2.245e-07
1.04529e-07
4.7514e-08
0.0023
0.00226424
0.0021946
0.00209437
0.00196833
0.00182133
0.00165859
0.00148567
0.00130822
0.00113061
0.000957649
0.000793902
0.00064562
0.000515467
0.000404269
0.000311343
0.000234941
0.00017302
0.00012379
8.59356e-05
5.79304e-05
3.79204e-05
2.40555e-05
1.47318e-05
8.68459e-06
4.92588e-06
2.69067e-06
1.41713e-06
7.20764e-07
3.54788e-07
1.69518e-07
7.88906e-08
3.58879e-08
0.00171013
0.00168378
0.0016323
0.00155766
0.00146258
0.00135078
0.0012268
0.00109443
0.000957617
0.000821623
0.000692081
0.000572578
0.00046546
0.000371849
0.000291721
0.000224228
0.000168254
0.000122812
8.71213e-05
6.01003e-05
4.03133e-05
2.62463e-05
1.65247e-05
1.00284e-05
5.86005e-06
3.29896e-06
1.79081e-06
9.38376e-07
4.75438e-07
2.33504e-07
1.11524e-07
5.19785e-08
2.37224e-08
0.00110637
0.0010887
0.00105282
0.00100155
0.000936437
0.000860282
0.000776577
0.000688667
0.000599983
0.000513699
0.000432341
0.000357689
0.000290711
0.000231719
0.000180664
0.000137423
0.000101839
7.35335e-05
5.17358e-05
3.54398e-05
2.35798e-05
1.51851e-05
9.44136e-06
5.66279e-06
3.27716e-06
1.83069e-06
9.87754e-07
5.1541e-07
2.60654e-07
1.28123e-07
6.14102e-08
2.87946e-08
1.32486e-08
0.00059138
0.000581238
0.000561495
0.000533169
0.00049761
0.000456457
0.000411515
0.000364586
0.000317362
0.000271294
0.000227546
0.000187054
0.000150505
0.000118404
9.1039e-05
6.83821e-05
5.01547e-05
3.58832e-05
2.49949e-05
1.69108e-05
1.10917e-05
7.04359e-06
4.32768e-06
2.57186e-06
1.47833e-06
8.22218e-07
4.42893e-07
2.31434e-07
1.17589e-07
5.82487e-08
2.82105e-08
1.33946e-08
6.25094e-09
0.000259711
0.000255152
0.000246267
0.000233467
0.00021739
0.000198779
0.000178393
0.000157095
0.00013569
0.000114923
9.53952e-05
7.75717e-05
6.17608e-05
4.81172e-05
3.66537e-05
2.72741e-05
1.98032e-05
1.4014e-05
9.65145e-06
6.45984e-06
4.19742e-06
2.64593e-06
1.61741e-06
9.58499e-07
5.50733e-07
3.07005e-07
1.6624e-07
8.75928e-08
4.50051e-08
2.26003e-08
1.11182e-08
5.36999e-09
2.55153e-09
9.0912e-05
8.9251e-05
8.60174e-05
8.13739e-05
7.55555e-05
6.88402e-05
6.15319e-05
5.39449e-05
4.6374e-05
3.90777e-05
3.22652e-05
2.60923e-05
2.06557e-05
1.5996e-05
1.2108e-05
8.95046e-06
6.45585e-06
4.53927e-06
3.1083e-06
2.071e-06
1.34168e-06
8.44713e-07
5.16689e-07
3.07036e-07
1.7732e-07
9.96105e-08
5.44982e-08
2.90858e-08
1.51698e-08
7.74614e-09
3.87963e-09
1.90909e-09
9.24335e-10
2.6606e-05
2.61119e-05
2.51502e-05
2.37713e-05
2.20455e-05
2.00574e-05
1.7899e-05
1.56634e-05
1.3438e-05
1.12987e-05
9.30656e-06
7.50624e-06
5.92503e-06
4.57431e-06
3.45181e-06
2.54425e-06
1.83048e-06
1.28453e-06
8.78613e-07
5.85394e-07
3.7974e-07
2.39758e-07
1.47322e-07
8.81166e-08
5.13318e-08
2.91498e-08
1.6155e-08
8.74935e-09
4.63731e-09
2.40881e-09
1.22794e-09
6.15058e-10
3.03004e-10
6.94034e-06
6.81103e-06
6.55932e-06
6.19848e-06
5.74698e-06
5.22699e-06
4.6627e-06
4.07845e-06
3.49705e-06
2.93841e-06
2.41856e-06
1.94915e-06
1.53733e-06
1.18604e-06
8.94565e-07
6.59272e-07
4.74473e-07
3.3328e-07
2.28368e-07
1.52582e-07
9.93763e-08
6.30845e-08
3.90355e-08
2.35526e-08
1.38647e-08
7.96929e-09
4.47688e-09
2.46055e-09
1.32453e-09
6.9906e-10
3.62081e-10
1.84199e-10
9.20918e-11
1.9804e-06
1.94362e-06
1.87202e-06
1.76934e-06
1.64083e-06
1.49277e-06
1.33202e-06
1.1655e-06
9.99709e-07
8.40338e-07
6.91981e-07
5.57985e-07
4.40407e-07
3.40095e-07
2.5684e-07
1.89604e-07
1.3676e-07
9.63424e-08
6.62636e-08
4.44855e-08
2.91466e-08
1.86376e-08
1.16333e-08
7.09045e-09
4.22203e-09
2.45762e-09
1.39947e-09
7.80167e-10
4.26102e-10
2.28159e-10
1.19845e-10
6.17818e-11
3.1268e-11
0.0267315
0.0262823
0.0254007
0.0241215
0.0225124
0.0206209
0.018547
0.0164272
0.0143682
0.0124545
0.0107117
0.00913591
0.00768746
0.00638442
0.00507217
0.00391313
0.00294792
0.0021819
0.00159605
0.00114986
0.000802689
0.000537607
0.000346603
0.000216138
0.000130406
7.55456e-05
4.18046e-05
2.21074e-05
1.12022e-05
5.45435e-06
2.55918e-06
1.16099e-06
5.11204e-07
0.0263871
0.0259521
0.0250981
0.0238504
0.0222534
0.0203848
0.0183572
0.016269
0.0142261
0.0123218
0.0106007
0.00904662
0.00762083
0.00630478
0.00499672
0.00385011
0.00289839
0.00214526
0.00156949
0.00113022
0.000788163
0.000527332
0.000339759
0.000211833
0.000127761
7.39661e-05
4.09057e-05
2.16217e-05
1.09521e-05
5.33106e-06
2.50083e-06
1.1344e-06
4.99506e-07
0.0256028
0.0251795
0.0243327
0.0230993
0.0215367
0.019725
0.0177678
0.0157589
0.0137953
0.0119624
0.0102998
0.00878595
0.00738659
0.00609496
0.00482084
0.00370964
0.00279103
0.00206629
0.00151256
0.00108876
0.000757006
0.00050528
0.000325004
0.000202399
0.000121907
7.04532e-05
3.8897e-05
2.05329e-05
1.03899e-05
5.05292e-06
2.36852e-06
1.07375e-06
4.72658e-07
0.0242618
0.0238488
0.0230453
0.0218802
0.0203963
0.0186748
0.0168249
0.0149345
0.0130951
0.0113798
0.00981324
0.00837169
0.00703421
0.00575868
0.00453591
0.00348202
0.0026174
0.00193923
0.00142051
0.0010205
0.000706203
0.000469645
0.000301372
0.000187399
0.000112596
6.48511e-05
3.5682e-05
1.87811e-05
9.4807e-06
4.60161e-06
2.15354e-06
9.75175e-07
4.28996e-07
0.0222644
0.0218853
0.0211218
0.0200203
0.0186421
0.0170657
0.0153922
0.0137006
0.012062
0.0105245
0.00909215
0.00774864
0.00649749
0.0052643
0.0041283
0.00316209
0.00237769
0.00176564
0.00129415
0.000925829
0.000636715
0.000421468
0.000269706
0.000167348
0.000100161
5.73993e-05
3.1429e-05
1.64739e-05
8.28642e-06
4.00953e-06
1.87166e-06
8.45933e-07
3.71724e-07
0.0193565
0.0190268
0.0183593
0.0174077
0.0162317
0.014904
0.0134874
0.0120639
0.0106817
0.00935849
0.00808984
0.00688326
0.00571777
0.00457679
0.00357487
0.00273576
0.00206253
0.00153738
0.00112644
0.00079963
0.000545722
0.000359381
0.000229327
0.000141877
8.44519e-05
4.8078e-05
2.61676e-05
1.36469e-05
6.83487e-06
3.29503e-06
1.53359e-06
6.91702e-07
3.03624e-07
0.0155528
0.0152854
0.014772
0.0140389
0.0131508
0.0121451
0.0110743
0.0099786
0.00887986
0.00778767
0.00673638
0.00565296
0.00460169
0.00366057
0.00285428
0.0021914
0.0016631
0.00124393
0.000906246
0.000635633
0.000430209
0.000282048
0.000179573
0.000110532
6.52455e-05
3.68196e-05
1.98928e-05
1.03115e-05
5.13758e-06
2.46606e-06
1.14409e-06
5.15095e-07
2.26028e-07
0.011392
0.0112205
0.0108893
0.0104143
0.00981871
0.0091286
0.00836959
0.00756205
0.00672418
0.00582651
0.00491497
0.00405667
0.00328063
0.00260666
0.00204266
0.001582
0.00120557
0.000894868
0.000640772
0.000443682
0.000298078
0.000194767
0.00012336
7.51063e-05
4.37678e-05
2.4426e-05
1.30801e-05
6.73038e-06
3.33303e-06
1.59275e-06
7.37165e-07
3.3184e-07
1.45913e-07
0.00761815
0.00751799
0.00728976
0.00697486
0.00657062
0.00607832
0.00549559
0.00487415
0.00423789
0.00361299
0.00302389
0.00249025
0.002023
0.00162243
0.00128053
0.000988629
0.000739904
0.000536729
0.000378173
0.00025948
0.00017346
0.00011234
7.00132e-05
4.18638e-05
2.40293e-05
1.32558e-05
7.0328e-06
3.59208e-06
1.77008e-06
8.44315e-07
3.91376e-07
1.77021e-07
7.84292e-08
0.00415549
0.00408263
0.00394004
0.00373591
0.00347905
0.00318198
0.00285957
0.00252622
0.00219552
0.00187851
0.00158231
0.0013104
0.00106412
0.000843129
0.000650833
0.000489666
0.000359269
0.000257364
0.000179865
0.000122114
8.02138e-05
5.08499e-05
3.10765e-05
1.83035e-05
1.03897e-05
5.68548e-06
3.00149e-06
1.53108e-06
7.56578e-07
3.63337e-07
1.7017e-07
7.79963e-08
3.50997e-08
0.00178552
0.00175436
0.00169365
0.00160633
0.00149707
0.00137103
0.00123249
0.00108746
0.000940446
0.000796599
0.000661183
0.000537475
0.000427666
0.000332962
0.000253545
0.000188631
0.000136885
9.68004e-05
6.66154e-05
4.45063e-05
2.88091e-05
1.80446e-05
1.09322e-05
6.40382e-06
3.62594e-06
1.9852e-06
1.05217e-06
5.40865e-07
2.70336e-07
1.31753e-07
6.2796e-08
2.93535e-08
1.34931e-08
0.000603378
0.00059224
0.000570588
0.00053951
0.000500647
0.00045586
0.00040709
0.00035648
0.000306002
0.000257423
0.000212114
0.00017115
0.000135203
0.000104527
7.90052e-05
5.83051e-05
4.19646e-05
2.94271e-05
2.00812e-05
1.33181e-05
8.57407e-06
5.35416e-06
3.24153e-06
1.90194e-06
1.08156e-06
5.96524e-07
3.19536e-07
1.66548e-07
8.46541e-08
4.20606e-08
2.04768e-08
9.79058e-09
4.6071e-09
0.000165225
0.00016211
0.000156055
0.000147383
0.000136546
0.000124078
0.000110561
9.65889e-05
8.27117e-05
6.94051e-05
5.70471e-05
4.59147e-05
3.6169e-05
2.78669e-05
2.09814e-05
1.54241e-05
1.1062e-05
7.73334e-06
5.2652e-06
3.48797e-06
2.24646e-06
1.4059e-06
8.54645e-07
5.0462e-07
2.89512e-07
1.61545e-07
8.77863e-08
4.65357e-08
2.41085e-08
1.22296e-08
6.08595e-09
2.97636e-09
1.43268e-09
3.9978e-05
3.92229e-05
3.77545e-05
3.56515e-05
3.30234e-05
3.00009e-05
2.67258e-05
2.33415e-05
1.9981e-05
1.67594e-05
1.37687e-05
1.10746e-05
8.71642e-06
6.70904e-06
5.04689e-06
3.70808e-06
2.65919e-06
1.86003e-06
1.26811e-06
8.42112e-07
5.44429e-07
3.42552e-07
2.09741e-07
1.24998e-07
7.25506e-08
4.10482e-08
2.2666e-08
1.22314e-08
6.45995e-09
3.34405e-09
1.69908e-09
8.48376e-10
4.1672e-10
1.05377e-05
1.03398e-05
9.95491e-06
9.40334e-06
8.71359e-06
7.9198e-06
7.05911e-06
6.16884e-06
5.28393e-06
4.43474e-06
3.64566e-06
2.93423e-06
2.31112e-06
1.78052e-06
1.34106e-06
9.8694e-07
7.0932e-07
4.97582e-07
3.40518e-07
2.27243e-07
1.47841e-07
9.37579e-08
5.79661e-08
3.49498e-08
2.05625e-08
1.18142e-08
6.635e-09
3.6461e-09
1.96258e-09
1.03581e-09
5.36519e-10
2.72949e-10
1.36466e-10
0.215152
0.21222
0.206364
0.197488
0.185798
0.170811
0.15285
0.133183
0.112585
0.0931032
0.0761854
0.0631762
0.0533282
0.0449152
0.0367705
0.028967
0.0218576
0.0158433
0.0112893
0.00815863
0.00593173
0.00407191
0.00264519
0.00164173
0.000991911
0.000578048
0.000319751
0.000167402
8.33322e-05
3.96311e-05
1.80784e-05
7.94158e-06
3.37483e-06
0.212805
0.210003
0.204396
0.195782
0.184003
0.16916
0.151911
0.132512
0.111888
0.0920956
0.0753872
0.0624926
0.0527768
0.04441
0.0362798
0.0285089
0.0214608
0.0155437
0.0110844
0.00802182
0.00582775
0.00399338
0.00259051
0.00160742
0.000971267
0.000565621
0.00031258
0.000163531
8.13613e-05
3.86779e-05
1.76385e-05
7.74683e-06
3.2918e-06
0.207484
0.204722
0.198883
0.189999
0.178051
0.163282
0.146181
0.127164
0.107155
0.0882703
0.072653
0.0606622
0.0513882
0.0431581
0.0351441
0.0275222
0.0206512
0.0149232
0.0106708
0.00776306
0.00561991
0.00383274
0.00247679
0.00153386
0.000926357
0.00053839
0.000296832
0.000155026
7.70407e-05
3.65903e-05
1.66707e-05
7.31535e-06
3.10641e-06
0.198142
0.195253
0.189542
0.180844
0.168993
0.154243
0.137497
0.118952
0.099981
0.0826158
0.0685625
0.0577723
0.0491288
0.0410953
0.033254
0.0258604
0.0192815
0.0139024
0.00999867
0.00732868
0.00526859
0.0035678
0.00229366
0.00141854
0.000855939
0.000495674
0.000271992
0.000141493
7.01017e-05
3.32138e-05
1.51026e-05
6.61736e-06
2.80725e-06
0.183393
0.180611
0.1746
0.165518
0.153541
0.139119
0.122891
0.105733
0.0890103
0.0744964
0.0628179
0.0536803
0.0457391
0.0379743
0.0304339
0.0234315
0.0173403
0.0125173
0.0090998
0.00672101
0.00477619
0.00320433
0.00204731
0.00126563
0.000762412
0.000439027
0.000239316
0.000123826
6.1083e-05
2.88339e-05
1.30689e-05
5.71151e-06
2.4186e-06
0.159507
0.156804
0.15091
0.142134
0.130993
0.117877
0.103219
0.0887188
0.075564
0.0646447
0.0557709
0.0481644
0.0407657
0.0334299
0.0264279
0.020095
0.0147836
0.0107778
0.00796615
0.00589326
0.00411651
0.00272946
0.00173337
0.00107311
0.000643891
0.000367648
0.000198724
0.000102133
5.01078e-05
2.3545e-05
1.06313e-05
4.63282e-06
1.95817e-06
0.124168
0.121414
0.116201
0.108449
0.0994277
0.0891967
0.0789016
0.0693035
0.0609213
0.0536803
0.046993
0.040266
0.0335025
0.0269411
0.0209008
0.0157023
0.0116318
0.00870452
0.0065635
0.00474985
0.00325465
0.0021312
0.00135141
0.000838045
0.000498554
0.000281073
0.000150325
7.66273e-05
3.73455e-05
1.74472e-05
7.84121e-06
3.4061e-06
1.43747e-06
0.0816819
0.0800158
0.0770191
0.0728297
0.0679135
0.0626624
0.057391
0.0521585
0.0468493
0.0412816
0.0355148
0.0297072
0.0240786
0.0189004
0.0144471
0.0109696
0.00840865
0.00646157
0.00476661
0.00333911
0.0022416
0.00145802
0.000929858
0.000571687
0.000334055
0.000185113
9.77576e-05
4.93438e-05
2.38502e-05
1.10674e-05
4.95129e-06
2.14647e-06
9.06384e-07
0.0527612
0.0520241
0.0506079
0.0485733
0.045972
0.0428387
0.0392341
0.0352301
0.0309316
0.0264819
0.022053
0.0178811
0.0142017
0.0111975
0.00885791
0.00701067
0.00541924
0.00399217
0.00282346
0.0019284
0.00128732
0.000841462
0.000529173
0.000316913
0.000180631
9.83805e-05
5.12854e-05
2.56102e-05
1.22742e-05
5.66718e-06
2.53293e-06
1.10137e-06
4.68086e-07
0.0303094
0.0297892
0.028778
0.027305
0.0254101
0.0231672
0.0206874
0.0180799
0.0154796
0.0130411
0.0108805
0.00902549
0.00743423
0.00605126
0.00473118
0.00358341
0.00262668
0.00187312
0.00130922
0.000895003
0.00059117
0.000375294
0.000228427
0.000133391
7.47287e-05
4.01933e-05
2.07684e-05
1.03233e-05
4.94978e-06
2.29803e-06
1.03741e-06
4.57282e-07
1.97585e-07
0.0123335
0.0121074
0.0116734
0.0110562
0.0102964
0.0094333
0.00850466
0.00754912
0.00659801
0.00562497
0.00467261
0.00379801
0.00301728
0.00234168
0.00177865
0.00132309
0.000960764
0.00067783
0.000465648
0.000310743
0.000200706
0.000125011
7.50473e-05
4.34442e-05
2.42332e-05
1.30219e-05
6.74718e-06
3.3777e-06
1.63841e-06
7.72674e-07
3.55528e-07
1.60163e-07
7.08748e-08
0.0040478
0.00397065
0.00382139
0.00360829
0.003344
0.00304117
0.0027128
0.00237363
0.0020357
0.00171022
0.00140662
0.00113208
0.000890199
0.000685403
0.000516884
0.000381019
0.000273765
0.00019146
0.000130198
8.59898e-05
5.50514e-05
3.41061e-05
2.04396e-05
1.18435e-05
6.63113e-06
3.58865e-06
1.87971e-06
9.54967e-07
4.71806e-07
2.27335e-07
1.07147e-07
4.95398e-08
2.25314e-08
0.00102142
0.00100169
0.00096345
0.000908839
0.000840893
0.000762977
0.000678714
0.000591839
0.000505754
0.000423396
0.000347046
0.000278489
0.000218749
0.000168151
0.000126369
9.27065e-05
6.63068e-05
4.61926e-05
3.13171e-05
2.06396e-05
1.32057e-05
8.19532e-06
4.93049e-06
2.87429e-06
1.62362e-06
8.89379e-07
4.73126e-07
2.44907e-07
1.23634e-07
6.1014e-08
2.95071e-08
1.40169e-08
6.55459e-09
0.000225653
0.00022132
0.000212906
0.000200878
0.000185879
0.00016866
0.000150033
0.000130821
0.000111785
9.35791e-05
7.67211e-05
6.15834e-05
4.83756e-05
3.71634e-05
2.78971e-05
2.04444e-05
1.4616e-05
1.01855e-05
6.91314e-06
4.56554e-06
2.93138e-06
1.82878e-06
1.10815e-06
6.52156e-07
3.72908e-07
2.07379e-07
1.12315e-07
5.93406e-08
3.06415e-08
1.54936e-08
7.68608e-09
3.74753e-09
1.79866e-09
5.41636e-05
5.31352e-05
5.11358e-05
4.82741e-05
4.46996e-05
4.05909e-05
3.61413e-05
3.15453e-05
2.69847e-05
2.26159e-05
1.85639e-05
1.49177e-05
1.17298e-05
9.01943e-06
6.77811e-06
4.97518e-06
3.56453e-06
2.49112e-06
1.69702e-06
1.12617e-06
7.27666e-07
4.57655e-07
2.8015e-07
1.66952e-07
9.69175e-08
5.48551e-08
3.03069e-08
1.63665e-08
8.65117e-09
4.48249e-09
2.27969e-09
1.13936e-09
5.60151e-10
1.38575
1.38402
1.38171
1.37421
1.36415
1.33914
1.29106
1.20999
1.07632
0.89043
0.664063
0.472641
0.35261
0.299436
0.264133
0.224935
0.181095
0.134441
0.0901302
0.0594677
0.0427909
0.0307809
0.0207118
0.0127796
0.00756273
0.00446085
0.00248801
0.00129147
0.000630325
0.00029151
0.000128676
5.44685e-05
2.2234e-05
1.38398
1.38248
1.38067
1.37508
1.36237
1.33761
1.29514
1.21686
1.08109
0.881442
0.65846
0.463971
0.347753
0.297318
0.261826
0.222278
0.178269
0.131942
0.0880156
0.0583064
0.0421074
0.0302381
0.0202905
0.0124849
0.00739435
0.00436281
0.00242977
0.00125966
0.00061437
0.000283983
0.000125307
5.30316e-05
2.16456e-05
1.38017
1.38009
1.37519
1.36721
1.35103
1.32102
1.27127
1.18246
1.03469
0.828732
0.613869
0.439273
0.336319
0.292085
0.256734
0.217053
0.172892
0.126334
0.0836271
0.0560798
0.0407819
0.0291774
0.0194283
0.0118729
0.00706725
0.00415355
0.00230482
0.00119224
0.000580545
0.000268149
0.000118213
4.99744e-05
2.03783e-05
1.37399
1.37147
1.36734
1.35735
1.33658
1.29863
1.23711
1.13207
0.967728
0.756316
0.553397
0.401918
0.320311
0.283422
0.247682
0.207347
0.162831
0.116622
0.076645
0.0525494
0.0385363
0.0273682
0.0180112
0.0109179
0.00654793
0.00382938
0.00211074
0.00108541
0.000526517
0.000242505
0.000106667
4.50178e-05
1.83368e-05
1.3585
1.35666
1.34588
1.32787
1.29485
1.23837
1.15216
1.01941
0.837603
0.64133
0.466551
0.355443
0.302938
0.269734
0.233026
0.191761
0.147065
0.102366
0.0675878
0.0480235
0.0353641
0.0247839
0.0160301
0.00965351
0.00582889
0.00340072
0.00185641
0.000948168
0.000457311
0.000209786
9.19335e-05
3.86789e-05
1.57184e-05
1.31169
1.3068
1.28673
1.25411
1.20104
1.12183
0.993885
0.831859
0.650913
0.491391
0.37502
0.313652
0.281792
0.248203
0.210277
0.168287
0.124337
0.0840082
0.0573523
0.0424087
0.0310401
0.0212929
0.013464
0.00812393
0.00493649
0.00285533
0.00153772
0.000778232
0.000372838
0.000170117
7.42205e-05
3.11214e-05
1.26179e-05
1.16443
1.14487
1.10898
1.04052
0.958288
0.838706
0.701482
0.55921
0.43706
0.352771
0.307396
0.279411
0.248271
0.212838
0.173602
0.132145
0.0923014
0.0631898
0.0466927
0.035096
0.025079
0.0166398
0.0102947
0.00637667
0.00385016
0.0021885
0.00115952
0.000580028
0.000275554
0.000124843
5.41358e-05
2.25978e-05
9.13834e-06
0.735022
0.710194
0.669885
0.609055
0.535377
0.458606
0.391678
0.339578
0.306895
0.283616
0.257892
0.228509
0.195281
0.158767
0.120265
0.0849231
0.0602994
0.0458816
0.0351032
0.0255903
0.0174341
0.0111028
0.00700917
0.00438659
0.00259914
0.00143413
0.000745995
0.000368326
0.000173227
7.77828e-05
3.35067e-05
1.39355e-05
5.63117e-06
0.346793
0.34086
0.330207
0.317455
0.304576
0.290876
0.274905
0.256404
0.234975
0.210194
0.181729
0.150283
0.117206
0.0867304
0.0639189
0.0495107
0.0390696
0.0299294
0.0217382
0.0148117
0.00962645
0.00632659
0.00404721
0.00245332
0.00139078
0.000746951
0.000381738
0.000185896
8.63765e-05
3.84574e-05
1.65082e-05
6.87479e-06
2.79307e-06
0.232015
0.229224
0.223771
0.21547
0.204093
0.189587
0.172169
0.1518
0.128809
0.104813
0.0829162
0.0653993
0.0526932
0.0429754
0.034503
0.0268256
0.0199017
0.0140351
0.00960103
0.00659582
0.00442195
0.00283027
0.00171763
0.000994286
0.000548976
0.000289464
0.000146004
7.05025e-05
3.26915e-05
1.46228e-05
6.34155e-06
2.67955e-06
1.10809e-06
0.0961997
0.0939585
0.0898667
0.0839301
0.0768985
0.0692998
0.0616021
0.0542078
0.0471614
0.0403337
0.0337999
0.0276794
0.0220278
0.0169549
0.0126899
0.00935083
0.00684329
0.00483622
0.0032981
0.00218982
0.00141141
0.000876678
0.00052078
0.000297466
0.000163342
8.60584e-05
4.35261e-05
2.11774e-05
9.9458e-06
4.52704e-06
2.00546e-06
8.68121e-07
3.68599e-07
0.0281222
0.0275343
0.0264125
0.0248181
0.0228722
0.0206554
0.0182846
0.0158844
0.0135466
0.0113468
0.00933411
0.00753331
0.00592849
0.00450796
0.00336635
0.00247414
0.001779
0.00124297
0.000841838
0.000552973
0.000352266
0.000216651
0.000128459
7.35035e-05
4.05308e-05
2.15205e-05
1.1015e-05
5.44768e-06
2.61148e-06
1.2176e-06
5.54084e-07
2.46934e-07
1.08128e-07
0.00627616
0.00614777
0.00590062
0.00555013
0.00511931
0.00462925
0.00410415
0.00356814
0.00304127
0.00253998
0.00207664
0.00166147
0.00129954
0.000994106
0.000745053
0.00054609
0.000390146
0.000271134
0.000183073
0.000120095
7.64105e-05
4.70552e-05
2.80335e-05
1.61483e-05
8.98694e-06
4.83338e-06
2.51579e-06
1.27014e-06
6.23663e-07
2.98688e-07
1.39936e-07
6.43196e-08
2.90844e-08
0.00123278
0.00120847
0.00116145
0.00109452
0.00101152
0.000916616
0.000814268
0.000708972
0.00060483
0.000505377
0.00041344
0.000331096
0.000259503
0.000199026
0.000149237
0.000109233
7.79422e-05
5.41648e-05
3.66327e-05
2.40869e-05
1.53765e-05
9.52107e-06
5.71515e-06
3.32411e-06
1.87335e-06
1.02378e-06
5.43355e-07
2.80613e-07
1.41338e-07
6.95946e-08
3.35825e-08
1.59182e-08
7.42787e-09
0.000265268
0.000260172
0.000250281
0.000236152
0.00021854
0.000198324
0.00017645
0.000153875
0.000131495
0.000110083
9.02546e-05
7.24464e-05
5.69068e-05
4.37153e-05
3.28146e-05
2.4049e-05
1.71947e-05
1.19846e-05
8.13618e-06
5.37511e-06
3.45287e-06
2.15557e-06
1.30734e-06
7.70277e-07
4.41091e-07
2.45723e-07
1.33348e-07
7.06093e-08
3.65472e-08
1.85259e-08
9.21376e-09
4.50372e-09
2.16686e-09
1.3651
1.36503
1.36578
1.36612
1.36573
1.36436
1.36316
1.3617
1.36106
1.35995
1.3619
1.36716
1.37561
1.38175
1.38448
1.37516
1.33369
1.20991
0.900489
0.481918
0.2976
0.232919
0.174126
0.113255
0.0612346
0.0344062
0.0196583
0.0101385
0.00484412
0.00215983
0.00091543
0.000370478
0.000144203
1.36513
1.36604
1.36578
1.36602
1.36589
1.36583
1.36419
1.36392
1.36217
1.3619
1.36284
1.36925
1.37635
1.3835
1.38389
1.37301
1.32974
1.20475
0.876642
0.463769
0.29318
0.23004
0.171457
0.110463
0.0595174
0.0336076
0.0191783
0.0098594
0.00470768
0.00209845
0.000889189
0.000359815
0.000140058
1.36572
1.36528
1.36444
1.36468
1.36553
1.36457
1.36372
1.3621
1.36017
1.36067
1.36369
1.36914
1.37602
1.38333
1.3852
1.37276
1.32262
1.17519
0.820864
0.432106
0.285523
0.224556
0.165517
0.10448
0.0561431
0.0320078
0.0182219
0.00932269
0.00444124
0.00197782
0.000837495
0.000338458
0.000131573
1.36369
1.36456
1.36404
1.36399
1.36361
1.36366
1.36308
1.36155
1.36002
1.36136
1.36534
1.37139
1.37826
1.38466
1.38449
1.3669
1.30338
1.1221
0.731875
0.384243
0.273032
0.214803
0.155682
0.0952206
0.0512132
0.0295898
0.0167138
0.00845202
0.0040086
0.00177997
0.000751932
0.000303387
0.000117824
1.36176
1.36266
1.36178
1.36125
1.36034
1.36008
1.35943
1.35832
1.35789
1.36097
1.36642
1.37356
1.38154
1.38416
1.37883
1.34961
1.25797
1.01315
0.602122
0.333838
0.256394
0.199753
0.140642
0.0822611
0.0450268
0.0264232
0.0147225
0.00739626
0.00347034
0.00153422
0.000645501
0.000259491
0.000100515
1.35836
1.35808
1.35817
1.35773
1.35678
1.35681
1.35653
1.35667
1.35829
1.36343
1.37027
1.37738
1.38336
1.38135
1.36585
1.31213
1.16296
0.823268
0.443798
0.293127
0.234395
0.178141
0.119206
0.0664054
0.0378086
0.0223713
0.0121399
0.00603738
0.00280357
0.00123331
0.000516375
0.000206885
7.99659e-05
1.35597
1.35537
1.35559
1.3551
1.35445
1.35382
1.35544
1.35857
1.36435
1.36967
1.3763
1.38215
1.38019
1.36439
1.31859
1.19747
0.914999
0.528043
0.318057
0.254488
0.201588
0.145391
0.0887121
0.0493034
0.029667
0.0173953
0.00911293
0.00446582
0.00205282
0.000896208
0.000372323
0.00014833
5.71376e-05
1.3532
1.35449
1.35441
1.35563
1.35761
1.36167
1.36637
1.37106
1.37542
1.37983
1.38059
1.37334
1.34921
1.28986
1.13803
0.831856
0.481741
0.311037
0.25389
0.204019
0.150883
0.0964196
0.0546953
0.0334399
0.0205093
0.0113778
0.0058125
0.00278892
0.00126835
0.000547635
0.000225583
8.94458e-05
3.44088e-05
1.36985
1.36959
1.36954
1.37156
1.37507
1.37637
1.37777
1.37669
1.37114
1.3593
1.3293
1.2651
1.11897
0.851813
0.53254
0.339531
0.273034
0.227117
0.179882
0.129803
0.0805809
0.0480808
0.0308339
0.0193686
0.0109914
0.00580051
0.00289055
0.00136519
0.000611662
0.000260831
0.000106841
4.23794e-05
1.63865e-05
1.36279
1.3617
1.36159
1.35948
1.35396
1.34284
1.32325
1.28065
1.19101
1.02562
0.792839
0.547568
0.374062
0.296566
0.250728
0.209238
0.16641
0.121077
0.0781464
0.0498147
0.0332474
0.0217762
0.013273
0.00754481
0.00411208
0.00211366
0.00103582
0.0004831
0.000215353
9.22965e-05
3.82702e-05
1.54409e-05
6.09228e-06
0.928363
0.90219
0.85821
0.780479
0.68828
0.587939
0.482696
0.393931
0.329424
0.288715
0.251255
0.214413
0.177924
0.140445
0.102983
0.0714842
0.050349
0.0354997
0.0240013
0.0156305
0.00989997
0.00619367
0.00363234
0.00203334
0.00109774
0.000566095
0.000278822
0.000131447
5.95739e-05
2.609e-05
1.10964e-05
4.60451e-06
1.87184e-06
0.217747
0.213293
0.204902
0.192494
0.177312
0.159263
0.139251
0.118555
0.0983701
0.0800544
0.0647516
0.051989
0.0405662
0.0302982
0.0218974
0.0156946
0.0112478
0.00789361
0.00538254
0.00349857
0.00221025
0.00135325
0.000792939
0.0004473
0.000242996
0.000126607
6.32951e-05
3.04425e-05
1.41399e-05
6.36934e-06
2.79388e-06
1.19804e-06
5.04048e-07
0.0382801
0.0374379
0.0358275
0.033543
0.0307715
0.0276181
0.0242565
0.0208876
0.017649
0.0146497
0.011947
0.00953436
0.00744161
0.00567587
0.00420875
0.00307491
0.00220064
0.00153272
0.00103266
0.000674035
0.000427068
0.000261423
0.000154294
8.79025e-05
4.82632e-05
2.55128e-05
1.29998e-05
6.40079e-06
3.0551e-06
1.41844e-06
6.42813e-07
2.85307e-07
1.24424e-07
0.00635843
0.00622735