/*--------------------------------*- C++ -*----------------------------------*\
| =========                 |                                                 |
| \\      /  F ield         | OpenFOAM: The Open Source CFD Toolbox           |
|  \\    /   O peration     | Version:  2312                                  |
|   \\  /    A nd           | Website:  www.openfoam.com                      |
|    \\/     M anipulation  |                                                 |
\*---------------------------------------------------------------------------*/
FoamFile
{
    version     2.0;
    format      ascii;
    arch        "LSB;label=32;scalar=64";
    class       volVectorField;
    location    "0.8";
    object      D;
}
// * * * * * * * * * * * * * * * * * * * * * * * * * * * * * * * * * * * * * //

dimensions      [0 1 0 0 0 0 0];

internalField   nonuniform List<vector> 
1620
(
(-0.00025606 0.000220989 -0.000132462)
(-0.000290544 0.000173167 -0.000132462)
(-0.000316201 0.000120084 -0.000132462)
(-0.00033225 6.33529e-05 -0.000132461)
(-0.000338203 4.69651e-06 -0.000132462)
(-0.00033388 -5.41034e-05 -0.000132462)
(-0.000319413 -0.000111259 -0.000132461)
(-0.00029524 -0.000165034 -0.000132461)
(-0.000262097 -0.000213795 -0.000132462)
(-0.000220989 -0.00025606 -0.000132462)
(-0.000173167 -0.000290544 -0.000132462)
(-0.000120084 -0.000316201 -0.000132462)
(-6.33529e-05 -0.00033225 -0.000132461)
(-4.69648e-06 -0.000338203 -0.000132462)
(5.41035e-05 -0.00033388 -0.000132462)
(0.000111259 -0.000319413 -0.000132461)
(0.000165034 -0.00029524 -0.000132461)
(0.000213795 -0.000262097 -0.000132462)
(0.00025606 -0.000220989 -0.000132462)
(0.000290544 -0.000173167 -0.000132462)
(0.000316201 -0.000120084 -0.000132462)
(0.00033225 -6.33529e-05 -0.000132461)
(0.000338203 -4.69648e-06 -0.000132462)
(0.00033388 5.41035e-05 -0.000132462)
(0.000319413 0.000111259 -0.000132461)
(0.00029524 0.000165034 -0.000132461)
(0.000262097 0.000213795 -0.000132462)
(0.000220989 0.00025606 -0.000132462)
(0.000173167 0.000290544 -0.000132462)
(0.000120084 0.000316201 -0.000132462)
(6.33529e-05 0.00033225 -0.000132461)
(4.69651e-06 0.000338203 -0.000132462)
(-5.41034e-05 0.00033388 -0.000132462)
(-0.000111259 0.000319413 -0.000132461)
(-0.000165034 0.00029524 -0.000132461)
(-0.000213795 0.000262097 -0.000132462)
(-0.000169338 0.00030014 -8.97347e-05)
(-0.000218884 0.000266174 -8.97349e-05)
(-0.000261779 0.000224122 -8.97348e-05)
(-0.000296721 0.00017526 -8.97346e-05)
(-0.000322647 0.000121072 -8.97347e-05)
(-0.000338769 6.32058e-05 -8.97347e-05)
(-0.000344598 3.41899e-06 -8.97346e-05)
(-0.000339956 -5.64716e-05 -8.97346e-05)
(-0.000324985 -0.000114647 -8.97347e-05)
(-0.00030014 -0.000169338 -8.97348e-05)
(-0.000266174 -0.000218884 -8.97349e-05)
(-0.000224122 -0.000261779 -8.97348e-05)
(-0.00017526 -0.000296721 -8.97346e-05)
(-0.000121072 -0.000322647 -8.97347e-05)
(-6.32057e-05 -0.000338769 -8.97347e-05)
(-3.41897e-06 -0.000344598 -8.97346e-05)
(5.64716e-05 -0.000339956 -8.97346e-05)
(0.000114647 -0.000324985 -8.97348e-05)
(0.000169338 -0.00030014 -8.97348e-05)
(0.000218884 -0.000266174 -8.97349e-05)
(0.000261779 -0.000224122 -8.97348e-05)
(0.000296721 -0.00017526 -8.97346e-05)
(0.000322647 -0.000121072 -8.97347e-05)
(0.000338769 -6.32057e-05 -8.97347e-05)
(0.000344598 -3.41896e-06 -8.97346e-05)
(0.000339956 5.64716e-05 -8.97346e-05)
(0.000324985 0.000114647 -8.97347e-05)
(0.00030014 0.000169338 -8.97348e-05)
(0.000266174 0.000218884 -8.97349e-05)
(0.000224122 0.000261779 -8.97348e-05)
(0.00017526 0.000296721 -8.97346e-05)
(0.000121072 0.000322647 -8.97347e-05)
(6.32057e-05 0.000338769 -8.97347e-05)
(3.41898e-06 0.000344598 -8.97346e-05)
(-5.64716e-05 0.000339956 -8.97346e-05)
(-0.000114647 0.000324985 -8.97347e-05)
(-0.000113032 0.00037919 -4.68768e-05)
(-0.000177161 0.000353801 -4.68768e-05)
(-0.000235906 0.000317663 -4.6877e-05)
(-0.000287484 0.000271872 -4.68768e-05)
(-0.000330327 0.000217821 -4.6877e-05)
(-0.000363132 0.000157151 -4.68768e-05)
(-0.000384905 9.1706e-05 -4.6877e-05)
(-0.000394982 2.34748e-05 -4.68771e-05)
(-0.000393057 -4.54696e-05 -4.68769e-05)
(-0.00037919 -0.000113032 -4.68768e-05)
(-0.000353801 -0.000177161 -4.68768e-05)
(-0.000317663 -0.000235906 -4.68771e-05)
(-0.000271872 -0.000287484 -4.68769e-05)
(-0.000217821 -0.000330327 -4.6877e-05)
(-0.000157151 -0.000363132 -4.68768e-05)
(-9.1706e-05 -0.000384905 -4.6877e-05)
(-2.34748e-05 -0.000394982 -4.68771e-05)
(4.54696e-05 -0.000393057 -4.68769e-05)
(0.000113032 -0.00037919 -4.68768e-05)
(0.000177161 -0.000353801 -4.68768e-05)
(0.000235906 -0.000317663 -4.68771e-05)
(0.000287484 -0.000271872 -4.68769e-05)
(0.000330327 -0.000217821 -4.6877e-05)
(0.000363132 -0.000157151 -4.68768e-05)
(0.000384905 -9.1706e-05 -4.6877e-05)
(0.000394982 -2.34748e-05 -4.68771e-05)
(0.000393057 4.54696e-05 -4.68769e-05)
(0.00037919 0.000113032 -4.68768e-05)
(0.000353801 0.000177161 -4.68768e-05)
(0.000317663 0.000235906 -4.6877e-05)
(0.000271872 0.000287484 -4.68768e-05)
(0.000217821 0.000330327 -4.6877e-05)
(0.000157151 0.000363132 -4.68768e-05)
(9.1706e-05 0.000384905 -4.6877e-05)
(2.34748e-05 0.000394982 -4.68771e-05)
(-4.54696e-05 0.000393057 -4.68769e-05)
(-0.000578453 0.000691135 -0.000442902)
(-0.00068968 0.000580188 -0.000442903)
(-0.000779951 0.000451612 -0.000442903)
(-0.000846524 0.000309315 -0.000442901)
(-0.000887375 0.000157619 -0.0004429)
(-0.000901264 1.13391e-06 -0.000442901)
(-0.000887769 -0.000155386 -0.000442902)
(-0.000847299 -0.000307185 -0.000442902)
(-0.000781083 -0.000449651 -0.000442902)
(-0.000691135 -0.000578453 -0.000442902)
(-0.000580188 -0.00068968 -0.000442903)
(-0.000451612 -0.000779951 -0.000442903)
(-0.000309315 -0.000846524 -0.000442901)
(-0.000157619 -0.000887375 -0.000442901)
(-1.13384e-06 -0.000901264 -0.000442901)
(0.000155387 -0.000887769 -0.000442902)
(0.000307185 -0.000847299 -0.000442902)
(0.000449651 -0.000781083 -0.000442902)
(0.000578453 -0.000691135 -0.000442903)
(0.00068968 -0.000580188 -0.000442903)
(0.000779951 -0.000451612 -0.000442903)
(0.000846524 -0.000309315 -0.000442901)
(0.000887375 -0.000157619 -0.000442901)
(0.000901264 -1.13382e-06 -0.000442901)
(0.000887769 0.000155387 -0.000442902)
(0.000847299 0.000307185 -0.000442902)
(0.000781083 0.000449651 -0.000442902)
(0.000691135 0.000578453 -0.000442902)
(0.000580188 0.00068968 -0.000442903)
(0.000451612 0.000779951 -0.000442903)
(0.000309315 0.000846524 -0.000442901)
(0.000157619 0.000887375 -0.0004429)
(1.1339e-06 0.000901264 -0.000442901)
(-0.000155386 0.000887769 -0.000442901)
(-0.000307185 0.000847299 -0.000442902)
(-0.000449651 0.000781083 -0.000442902)
(-0.000510984 0.000895325 -0.000322063)
(-0.000658692 0.000792991 -0.000322063)
(-0.000786386 0.000666563 -0.000322063)
(-0.000890187 0.000519883 -0.000322063)
(-0.00096694 0.000357406 -0.000322063)
(-0.00101431 0.000184068 -0.000322063)
(-0.00103087 5.13794e-06 -0.000322063)
(-0.0010161 -0.000173948 -0.000322063)
(-0.000970454 -0.000347749 -0.000322063)
(-0.000895325 -0.000510984 -0.000322063)
(-0.000792991 -0.000658692 -0.000322063)
(-0.000666563 -0.000786386 -0.000322063)
(-0.000519883 -0.000890187 -0.000322063)
(-0.000357406 -0.00096694 -0.000322063)
(-0.000184068 -0.00101431 -0.000322063)
(-5.13788e-06 -0.00103087 -0.000322063)
(0.000173948 -0.0010161 -0.000322063)
(0.000347749 -0.000970454 -0.000322063)
(0.000510984 -0.000895325 -0.000322063)
(0.000658692 -0.000792991 -0.000322063)
(0.000786386 -0.000666563 -0.000322064)
(0.000890187 -0.000519883 -0.000322063)
(0.00096694 -0.000357406 -0.000322063)
(0.00101431 -0.000184068 -0.000322063)
(0.00103087 -5.13785e-06 -0.000322063)
(0.0010161 0.000173948 -0.000322063)
(0.000970454 0.000347749 -0.000322063)
(0.000895325 0.000510984 -0.000322063)
(0.000792991 0.000658692 -0.000322063)
(0.000666563 0.000786387 -0.000322063)
(0.000519883 0.000890187 -0.000322063)
(0.000357406 0.000966941 -0.000322063)
(0.000184068 0.00101431 -0.000322063)
(5.13791e-06 0.00103087 -0.000322063)
(-0.000173948 0.0010161 -0.000322063)
(-0.000347749 0.000970454 -0.000322063)
(-0.000484311 0.00109631 -0.000203388)
(-0.000667324 0.000995554 -0.000203388)
(-0.000830062 0.00086455 -0.000203388)
(-0.000967578 0.000707277 -0.000203388)
(-0.0010757 0.000528513 -0.000203388)
(-0.00115113 0.000333691 -0.000203388)
(-0.00119159 0.000128729 -0.000203388)
(-0.00119584 -8.01428e-05 -0.000203388)
(-0.00116375 -0.000286581 -0.000203389)
(-0.00109631 -0.000484311 -0.000203389)
(-0.000995554 -0.000667324 -0.000203388)
(-0.00086455 -0.000830062 -0.000203388)
(-0.000707277 -0.000967578 -0.000203388)
(-0.000528513 -0.0010757 -0.000203388)
(-0.000333691 -0.00115113 -0.000203388)
(-0.000128729 -0.00119159 -0.000203389)
(8.01428e-05 -0.00119584 -0.000203388)
(0.000286581 -0.00116375 -0.000203389)
(0.000484311 -0.00109631 -0.000203389)
(0.000667324 -0.000995554 -0.000203388)
(0.000830062 -0.00086455 -0.000203388)
(0.000967578 -0.000707277 -0.000203388)
(0.0010757 -0.000528513 -0.000203388)
(0.00115113 -0.000333691 -0.000203388)
(0.00119159 -0.000128729 -0.000203388)
(0.00119584 8.01429e-05 -0.000203388)
(0.00116375 0.000286581 -0.000203389)
(0.00109631 0.000484311 -0.000203389)
(0.000995554 0.000667324 -0.000203388)
(0.00086455 0.000830062 -0.000203388)
(0.000707277 0.000967578 -0.000203388)
(0.000528513 0.0010757 -0.000203388)
(0.000333691 0.00115113 -0.000203388)
(0.000128729 0.00119159 -0.000203388)
(-8.01428e-05 0.00119584 -0.000203388)
(-0.000286581 0.00116375 -0.000203388)
(-0.000881869 0.00120281 -0.000824409)
(-0.00107734 0.0010314 -0.000824409)
(-0.00124007 0.000828655 -0.000824409)
(-0.00136513 0.00060073 -0.000824407)
(-0.0014487 0.000354554 -0.000824406)
(-0.00148826 9.7603e-05 -0.000824406)
(-0.0014826 -0.000162314 -0.000824406)
(-0.00143189 -0.000417299 -0.000824407)
(-0.00133767 -0.000659605 -0.000824408)
(-0.00120281 -0.000881869 -0.000824409)
(-0.0010314 -0.00107734 -0.000824409)
(-0.000828655 -0.00124007 -0.000824409)
(-0.00060073 -0.00136513 -0.000824407)
(-0.000354553 -0.0014487 -0.000824406)
(-9.76028e-05 -0.00148826 -0.000824406)
(0.000162314 -0.0014826 -0.000824406)
(0.000417299 -0.00143189 -0.000824407)
(0.000659605 -0.00133767 -0.000824408)
(0.000881869 -0.00120281 -0.000824409)
(0.00107734 -0.0010314 -0.000824409)
(0.00124007 -0.000828655 -0.000824409)
(0.00136513 -0.00060073 -0.000824407)
(0.0014487 -0.000354553 -0.000824406)
(0.00148826 -9.76028e-05 -0.000824406)
(0.0014826 0.000162314 -0.000824406)
(0.00143189 0.000417299 -0.000824407)
(0.00133767 0.000659605 -0.000824408)
(0.00120281 0.000881869 -0.000824409)
(0.0010314 0.00107734 -0.000824409)
(0.000828655 0.00124007 -0.000824408)
(0.00060073 0.00136513 -0.000824407)
(0.000354553 0.0014487 -0.000824406)
(9.76029e-05 0.00148826 -0.000824406)
(-0.000162314 0.0014826 -0.000824406)
(-0.000417299 0.00143189 -0.000824407)
(-0.000659605 0.00133767 -0.000824408)
(-0.00084548 0.00149169 -0.00064331)
(-0.00109166 0.00132221 -0.00064331)
(-0.00130468 0.00111256 -0.00064331)
(-0.00147805 0.000869103 -0.000643309)
(-0.00160652 0.000599239 -0.000643308)
(-0.00168617 0.000311166 -0.000643309)
(-0.00171458 1.36394e-05 -0.000643309)
(-0.0016909 -0.000284303 -0.000643309)
(-0.00161584 -0.000573605 -0.000643309)
(-0.00149169 -0.00084548 -0.00064331)
(-0.00132221 -0.00109166 -0.00064331)
(-0.00111256 -0.00130468 -0.00064331)
(-0.000869103 -0.00147805 -0.000643309)
(-0.000599239 -0.00160652 -0.000643308)
(-0.000311166 -0.00168616 -0.000643309)
(-1.36393e-05 -0.00171458 -0.000643309)
(0.000284303 -0.0016909 -0.000643309)
(0.000573605 -0.00161584 -0.000643309)
(0.00084548 -0.00149169 -0.00064331)
(0.00109166 -0.00132221 -0.00064331)
(0.00130468 -0.00111256 -0.00064331)
(0.00147805 -0.000869103 -0.000643309)
(0.00160652 -0.000599239 -0.000643308)
(0.00168617 -0.000311166 -0.000643309)
(0.00171458 -1.36392e-05 -0.000643309)
(0.0016909 0.000284303 -0.000643309)
(0.00161584 0.000573605 -0.000643309)
(0.00149169 0.00084548 -0.00064331)
(0.00132221 0.00109166 -0.00064331)
(0.00111256 0.00130468 -0.00064331)
(0.000869103 0.00147805 -0.000643309)
(0.000599239 0.00160652 -0.000643308)
(0.000311166 0.00168617 -0.000643308)
(1.36393e-05 0.00171458 -0.000643309)
(-0.000284303 0.0016909 -0.000643309)
(-0.000573605 0.00161584 -0.000643309)
(-0.000857864 0.00176554 -0.000467736)
(-0.00115141 0.00158975 -0.000467736)
(-0.00140998 0.00136566 -0.000467737)
(-0.0016257 0.00110007 -0.000467737)
(-0.00179203 0.00080106 -0.000467737)
(-0.00190391 0.000477707 -0.000467737)
(-0.00195793 0.000139839 -0.000467737)
(-0.00195247 -0.000202277 -0.000467737)
(-0.00188768 -0.000538247 -0.000467737)
(-0.00176554 -0.000857863 -0.000467736)
(-0.00158975 -0.00115141 -0.000467736)
(-0.00136566 -0.00140998 -0.000467737)
(-0.00110007 -0.0016257 -0.000467737)
(-0.00080106 -0.00179203 -0.000467737)
(-0.000477707 -0.00190391 -0.000467737)
(-0.000139839 -0.00195793 -0.000467737)
(0.000202277 -0.00195247 -0.000467737)
(0.000538247 -0.00188768 -0.000467737)
(0.000857864 -0.00176554 -0.000467737)
(0.00115141 -0.00158975 -0.000467736)
(0.00140998 -0.00136566 -0.000467737)
(0.0016257 -0.00110007 -0.000467737)
(0.00179203 -0.00080106 -0.000467737)
(0.00190391 -0.000477707 -0.000467737)
(0.00195793 -0.000139839 -0.000467737)
(0.00195247 0.000202277 -0.000467737)
(0.00188768 0.000538247 -0.000467737)
(0.00176554 0.000857864 -0.000467736)
(0.00158975 0.00115141 -0.000467736)
(0.00136566 0.00140998 -0.000467737)
(0.00110007 0.0016257 -0.000467737)
(0.00080106 0.00179203 -0.000467737)
(0.000477707 0.00190391 -0.000467737)
(0.000139839 0.00195793 -0.000467737)
(-0.000202277 0.00195247 -0.000467736)
(-0.000538247 0.00188768 -0.000467736)
(-0.00116559 0.00176787 -0.00124595)
(-0.00145487 0.00153861 -0.00124595)
(-0.00169994 0.0012626 -0.00124595)
(-0.00189336 0.000948224 -0.00124595)
(-0.00202925 0.00060504 -0.00124595)
(-0.00210349 0.000243472 -0.00124595)
(-0.00211381 -0.000125494 -0.00124595)
(-0.0020599 -0.000490648 -0.00124595)
(-0.00194341 -0.000840892 -0.00124595)
(-0.00176786 -0.00116559 -0.00124595)
(-0.0015386 -0.00145487 -0.00124595)
(-0.0012626 -0.00169994 -0.00124595)
(-0.000948224 -0.00189336 -0.00124595)
(-0.00060504 -0.00202925 -0.00124595)
(-0.000243472 -0.00210349 -0.00124595)
(0.000125494 -0.00211381 -0.00124595)
(0.000490648 -0.0020599 -0.00124595)
(0.000840892 -0.00194341 -0.00124595)
(0.00116559 -0.00176786 -0.00124595)
(0.00145487 -0.0015386 -0.00124595)
(0.00169994 -0.0012626 -0.00124595)
(0.00189336 -0.000948224 -0.00124595)
(0.00202925 -0.00060504 -0.00124595)
(0.00210349 -0.000243472 -0.00124595)
(0.00211381 0.000125494 -0.00124595)
(0.0020599 0.000490648 -0.00124595)
(0.00194341 0.000840892 -0.00124595)
(0.00176786 0.00116559 -0.00124595)
(0.00153861 0.00145487 -0.00124595)
(0.0012626 0.00169994 -0.00124595)
(0.000948224 0.00189336 -0.00124595)
(0.00060504 0.00202925 -0.00124595)
(0.000243472 0.00210349 -0.00124595)
(-0.000125494 0.00211381 -0.00124595)
(-0.000490648 0.0020599 -0.00124595)
(-0.000840892 0.00194341 -0.00124595)
(-0.00116673 0.00208206 -0.00102375)
(-0.00151055 0.00184783 -0.00102375)
(-0.00180847 0.00155745 -0.00102375)
(-0.00205145 0.00121975 -0.00102375)
(-0.00223209 0.00084499 -0.00102375)
(-0.00234491 0.000444555 -0.00102375)
(-0.00238648 3.06117e-05 -0.00102375)
(-0.00235554 -0.000384262 -0.00102375)
(-0.00225303 -0.00078746 -0.00102375)
(-0.00208206 -0.00116673 -0.00102375)
(-0.00184783 -0.00151055 -0.00102375)
(-0.00155745 -0.00180847 -0.00102375)
(-0.00121975 -0.00205145 -0.00102375)
(-0.00084499 -0.00223209 -0.00102375)
(-0.000444555 -0.00234491 -0.00102375)
(-3.06116e-05 -0.00238648 -0.00102375)
(0.000384262 -0.00235554 -0.00102375)
(0.00078746 -0.00225303 -0.00102375)
(0.00116673 -0.00208206 -0.00102375)
(0.00151055 -0.00184783 -0.00102375)
(0.00180847 -0.00155745 -0.00102375)
(0.00205145 -0.00121975 -0.00102375)
(0.00223209 -0.00084499 -0.00102375)
(0.00234491 -0.000444555 -0.00102375)
(0.00238648 -3.06115e-05 -0.00102375)
(0.00235554 0.000384262 -0.00102375)
(0.00225303 0.00078746 -0.00102375)
(0.00208206 0.00116673 -0.00102375)
(0.00184783 0.00151055 -0.00102375)
(0.00155745 0.00180847 -0.00102375)
(0.00121975 0.00205145 -0.00102375)
(0.00084499 0.00223209 -0.00102375)
(0.000444555 0.00234491 -0.00102375)
(3.06117e-05 0.00238648 -0.00102375)
(-0.000384262 0.00235554 -0.00102375)
(-0.00078746 0.00225303 -0.00102375)
(-0.00122152 0.00236624 -0.000811955)
(-0.00161386 0.00211818 -0.000811955)
(-0.00195715 0.00180576 -0.000811955)
(-0.00224099 0.00143847 -0.000811955)
(-0.00245673 0.00102747 -0.000811955)
(-0.00259782 0.000585255 -0.000811955)
(-0.00265999 0.000125256 -0.000811955)
(-0.00264132 -0.000338549 -0.000811955)
(-0.00254241 -0.000792068 -0.000811955)
(-0.00236624 -0.00122152 -0.000811955)
(-0.00211818 -0.00161386 -0.000811955)
(-0.00180576 -0.00195715 -0.000811955)
(-0.00143847 -0.00224099 -0.000811955)
(-0.00102747 -0.00245673 -0.000811955)
(-0.000585255 -0.00259782 -0.000811955)
(-0.000125255 -0.00265999 -0.000811955)
(0.000338549 -0.00264132 -0.000811955)
(0.000792068 -0.00254241 -0.000811955)
(0.00122152 -0.00236624 -0.000811955)
(0.00161386 -0.00211818 -0.000811955)
(0.00195715 -0.00180576 -0.000811955)
(0.00224099 -0.00143847 -0.000811955)
(0.00245673 -0.00102747 -0.000811955)
(0.00259782 -0.000585255 -0.000811955)
(0.00265999 -0.000125255 -0.000811955)
(0.00264133 0.000338549 -0.000811955)
(0.00254241 0.000792068 -0.000811955)
(0.00236624 0.00122152 -0.000811955)
(0.00211818 0.00161386 -0.000811955)
(0.00180576 0.00195716 -0.000811955)
(0.00143847 0.00224099 -0.000811955)
(0.00102747 0.00245673 -0.000811955)
(0.000585255 0.00259782 -0.000811955)
(0.000125256 0.00265999 -0.000811955)
(-0.000338549 0.00264133 -0.000811955)
(-0.000792068 0.00254241 -0.000811955)
(-0.00144423 0.00237262 -0.00169061)
(-0.00183429 0.00208578 -0.00169061)
(-0.00216861 0.00173557 -0.00169061)
(-0.00243704 0.00133263 -0.00169061)
(-0.00263143 0.000889199 -0.00169061)
(-0.00274586 0.000418747 -0.00169061)
(-0.00277686 -6.4428e-05 -0.00169061)
(-0.00272348 -0.000545646 -0.00169061)
(-0.00258736 -0.00101028 -0.00169061)
(-0.00237262 -0.00144423 -0.00169061)
(-0.00208578 -0.00183429 -0.00169061)
(-0.00173557 -0.00216861 -0.00169061)
(-0.00133263 -0.00243704 -0.00169061)
(-0.000889199 -0.00263143 -0.00169061)
(-0.000418747 -0.00274586 -0.00169061)
(6.44282e-05 -0.00277686 -0.00169061)
(0.000545646 -0.00272348 -0.00169061)
(0.00101028 -0.00258736 -0.00169061)
(0.00144423 -0.00237262 -0.00169061)
(0.00183429 -0.00208578 -0.00169061)
(0.00216861 -0.00173557 -0.00169061)
(0.00243704 -0.00133263 -0.00169061)
(0.00263143 -0.000889199 -0.00169061)
(0.00274586 -0.000418747 -0.00169061)
(0.00277686 6.44282e-05 -0.00169061)
(0.00272348 0.000545647 -0.00169061)
(0.00258736 0.00101028 -0.00169061)
(0.00237262 0.00144423 -0.00169061)
(0.00208578 0.00183429 -0.00169061)
(0.00173557 0.00216861 -0.00169061)
(0.00133263 0.00243704 -0.00169061)
(0.000889199 0.00263143 -0.00169061)
(0.000418747 0.00274586 -0.00169061)
(-6.4428e-05 0.00277686 -0.00169061)
(-0.000545646 0.00272348 -0.00169061)
(-0.00101028 0.00258736 -0.00169061)
(-0.00147725 0.00265855 -0.00144305)
(-0.00191646 0.00236164 -0.00144305)
(-0.00229744 0.00199297 -0.00144305)
(-0.00260861 0.00156375 -0.00144305)
(-0.00284052 0.00108701 -0.00144305)
(-0.00298612 0.000577246 -0.00144305)
(-0.00304099 4.9941e-05 -0.00144305)
(-0.00300347 -0.000478881 -0.00144305)
(-0.00287468 -0.000993153 -0.00144305)
(-0.00265855 -0.00147725 -0.00144305)
(-0.00236164 -0.00191646 -0.00144305)
(-0.00199297 -0.00229744 -0.00144305)
(-0.00156375 -0.00260861 -0.00144305)
(-0.00108701 -0.00284052 -0.00144305)
(-0.000577246 -0.00298612 -0.00144305)
(-4.99408e-05 -0.00304099 -0.00144305)
(0.000478881 -0.00300347 -0.00144305)
(0.000993153 -0.00287468 -0.00144305)
(0.00147725 -0.00265855 -0.00144305)
(0.00191646 -0.00236164 -0.00144305)
(0.00229744 -0.00199297 -0.00144305)
(0.00260861 -0.00156375 -0.00144305)
(0.00284052 -0.00108701 -0.00144305)
(0.00298612 -0.000577246 -0.00144305)
(0.00304099 -4.99408e-05 -0.00144305)
(0.00300347 0.000478881 -0.00144305)
(0.00287468 0.000993153 -0.00144305)
(0.00265855 0.00147725 -0.00144305)
(0.00236164 0.00191646 -0.00144305)
(0.00199297 0.00229744 -0.00144305)
(0.00156375 0.00260861 -0.00144305)
(0.00108701 0.00284052 -0.00144305)
(0.000577246 0.00298612 -0.00144305)
(4.9941e-05 0.00304099 -0.00144305)
(-0.000478881 0.00300347 -0.00144305)
(-0.000993153 0.00287468 -0.00144305)
(-0.00156446 0.00290069 -0.00121097)
(-0.0020444 0.00258496 -0.00121097)
(-0.00246221 0.00219068 -0.00121097)
(-0.00280521 0.00172984 -0.00121097)
(-0.00306298 0.00121644 -0.00121097)
(-0.00322768 0.000666083 -0.00121097)
(-0.0032943 9.54827e-05 -0.00121097)
(-0.00326084 -0.000478019 -0.00121097)
(-0.00312829 -0.00103699 -0.00121097)
(-0.00290069 -0.00156446 -0.00121097)
(-0.00258496 -0.0020444 -0.00121097)
(-0.00219068 -0.00246221 -0.00121097)
(-0.00172984 -0.00280521 -0.00121097)
(-0.00121644 -0.00306298 -0.00121097)
(-0.000666082 -0.00322768 -0.00121097)
(-9.54825e-05 -0.0032943 -0.00121097)
(0.000478019 -0.00326084 -0.00121097)
(0.001037 -0.00312829 -0.00121097)
(0.00156446 -0.00290069 -0.00121097)
(0.0020444 -0.00258496 -0.00121097)
(0.00246221 -0.00219068 -0.00121097)
(0.00280521 -0.00172984 -0.00121097)
(0.00306298 -0.00121644 -0.00121097)
(0.00322768 -0.000666082 -0.00121097)
(0.0032943 -9.54825e-05 -0.00121097)
(0.00326084 0.000478019 -0.00121097)
(0.00312829 0.001037 -0.00121097)
(0.00290069 0.00156446 -0.00121097)
(0.00258496 0.0020444 -0.00121097)
(0.00219068 0.00246221 -0.00121097)
(0.00172984 0.00280521 -0.00121097)
(0.00121644 0.00306298 -0.00121097)
(0.000666083 0.00322768 -0.00121097)
(9.54827e-05 0.0032943 -0.00121097)
(-0.000478019 0.00326084 -0.00121097)
(-0.001037 0.00312829 -0.00121097)
(-0.00173258 0.00298678 -0.00215413)
(-0.00222491 0.00264055 -0.00215413)
(-0.00264963 0.00221408 -0.00215413)
(-0.00299385 0.00172034 -0.00215413)
(-0.0032471 0.00117433 -0.00215413)
(-0.00340169 0.000592634 -0.00215413)
(-0.00345292 -7.06594e-06 -0.00215413)
(-0.00339923 -0.000606552 -0.00215413)
(-0.00324226 -0.00118761 -0.00215413)
(-0.00298678 -0.00173258 -0.00215413)
(-0.00264055 -0.00222491 -0.00215413)
(-0.00221408 -0.00264963 -0.00215413)
(-0.00172034 -0.00299385 -0.00215413)
(-0.00117433 -0.0032471 -0.00215413)
(-0.000592634 -0.00340169 -0.00215413)
(7.0662e-06 -0.00345292 -0.00215413)
(0.000606552 -0.00339923 -0.00215413)
(0.00118761 -0.00324226 -0.00215413)
(0.00173258 -0.00298678 -0.00215413)
(0.00222491 -0.00264055 -0.00215413)
(0.00264963 -0.00221408 -0.00215413)
(0.00299385 -0.00172034 -0.00215413)
(0.0032471 -0.00117433 -0.00215413)
(0.00340169 -0.000592634 -0.00215413)
(0.00345292 7.06622e-06 -0.00215413)
(0.00339923 0.000606552 -0.00215413)
(0.00324226 0.00118761 -0.00215413)
(0.00298678 0.00173258 -0.00215413)
(0.00264055 0.00222491 -0.00215413)
(0.00221408 0.00264963 -0.00215413)
(0.00172034 0.00299385 -0.00215413)
(0.00117433 0.0032471 -0.00215413)
(0.000592634 0.00340169 -0.00215413)
(-7.06599e-06 0.00345292 -0.00215413)
(-0.000606552 0.00339923 -0.00215413)
(-0.00118761 0.00324226 -0.00215413)
(-0.00178349 0.00320724 -0.00188853)
(-0.00231333 0.00284881 -0.00188854)
(-0.00277288 0.00240383 -0.00188853)
(-0.00314817 0.0018858 -0.00188853)
(-0.00342781 0.00131048 -0.00188853)
(-0.00360329 0.000695338 -0.00188853)
(-0.0036693 5.90695e-05 -0.00188853)
(-0.00362381 -0.000578995 -0.00188853)
(-0.00346821 -0.00119947 -0.00188853)
(-0.00320724 -0.00178349 -0.00188853)
(-0.00284881 -0.00231333 -0.00188854)
(-0.00240383 -0.00277288 -0.00188853)
(-0.0018858 -0.00314817 -0.00188853)
(-0.00131048 -0.00342781 -0.00188853)
(-0.000695338 -0.00360329 -0.00188853)
(-5.90693e-05 -0.0036693 -0.00188853)
(0.000578995 -0.00362381 -0.00188853)
(0.00119947 -0.00346821 -0.00188853)
(0.00178349 -0.00320724 -0.00188853)
(0.00231333 -0.00284881 -0.00188854)
(0.00277288 -0.00240383 -0.00188853)
(0.00314817 -0.0018858 -0.00188853)
(0.00342781 -0.00131048 -0.00188853)
(0.00360329 -0.000695338 -0.00188853)
(0.0036693 -5.90693e-05 -0.00188853)
(0.00362381 0.000578995 -0.00188853)
(0.00346821 0.00119947 -0.00188853)
(0.00320724 0.00178349 -0.00188853)
(0.00284881 0.00231333 -0.00188854)
(0.00240383 0.00277288 -0.00188853)
(0.0018858 0.00314817 -0.00188853)
(0.00131048 0.00342781 -0.00188853)
(0.000695338 0.00360329 -0.00188853)
(5.90695e-05 0.0036693 -0.00188853)
(-0.000578995 0.00362381 -0.00188853)
(-0.00119947 0.00346821 -0.00188853)
(-0.00188569 0.0033733 -0.00164306)
(-0.00244281 0.0029946 -0.00164306)
(-0.0029257 0.00252492 -0.00164306)
(-0.0033197 0.00197852 -0.00164306)
(-0.00361283 0.001372 -0.00164306)
(-0.00379619 0.000723794 -0.00164306)
(-0.0038642 5.35972e-05 -0.00164306)
(-0.00381481 -0.00061823 -0.00164306)
(-0.0036495 -0.00127127 -0.00164306)
(-0.0033733 -0.00188569 -0.00164306)
(-0.0029946 -0.00244281 -0.00164306)
(-0.00252492 -0.0029257 -0.00164306)
(-0.00197852 -0.0033197 -0.00164306)
(-0.001372 -0.00361283 -0.00164306)
(-0.000723794 -0.00379619 -0.00164306)
(-5.3597e-05 -0.0038642 -0.00164306)
(0.00061823 -0.00381481 -0.00164306)
(0.00127127 -0.0036495 -0.00164306)
(0.00188569 -0.0033733 -0.00164306)
(0.00244281 -0.0029946 -0.00164306)
(0.0029257 -0.00252492 -0.00164306)
(0.0033197 -0.00197852 -0.00164306)
(0.00361283 -0.001372 -0.00164306)
(0.00379619 -0.000723794 -0.00164306)
(0.0038642 -5.35969e-05 -0.00164306)
(0.00381481 0.00061823 -0.00164306)
(0.0036495 0.00127127 -0.00164306)
(0.0033733 0.00188569 -0.00164306)
(0.0029946 0.00244281 -0.00164306)
(0.00252492 0.0029257 -0.00164306)
(0.00197852 0.0033197 -0.00164306)
(0.001372 0.00361283 -0.00164306)
(0.000723794 0.00379619 -0.00164306)
(5.35972e-05 0.0038642 -0.00164306)
(-0.00061823 0.00381481 -0.00164306)
(-0.00127127 0.0036495 -0.00164306)
(-0.00204062 0.00357071 -0.00263734)
(-0.00262966 0.00316211 -0.00263734)
(-0.00313881 0.00265743 -0.00263734)
(-0.00355258 0.00207201 -0.00263735)
(-0.00385841 0.00142363 -0.00263734)
(-0.004047 0.000732001 -0.00263734)
(-0.00411263 1.81262e-05 -0.00263734)
(-0.0040533 -0.000696301 -0.00263734)
(-0.00387081 -0.00138957 -0.00263734)
(-0.00357071 -0.00204062 -0.00263734)
(-0.00316211 -0.00262966 -0.00263734)
(-0.00265743 -0.00313881 -0.00263735)
(-0.00207201 -0.00355258 -0.00263735)
(-0.00142363 -0.00385841 -0.00263734)
(-0.000732001 -0.004047 -0.00263734)
(-1.81259e-05 -0.00411263 -0.00263734)
(0.000696301 -0.0040533 -0.00263734)
(0.00138957 -0.00387081 -0.00263734)
(0.00204062 -0.00357071 -0.00263734)
(0.00262966 -0.00316211 -0.00263734)
(0.00313881 -0.00265743 -0.00263735)
(0.00355258 -0.00207201 -0.00263735)
(0.00385841 -0.00142363 -0.00263734)
(0.004047 -0.000732001 -0.00263734)
(0.00411263 -1.81259e-05 -0.00263734)
(0.0040533 0.000696301 -0.00263734)
(0.00387081 0.00138957 -0.00263734)
(0.00357071 0.00204062 -0.00263734)
(0.00316211 0.00262966 -0.00263734)
(0.00265743 0.00313881 -0.00263734)
(0.00207201 0.00355258 -0.00263735)
(0.00142363 0.00385841 -0.00263734)
(0.000732001 0.004047 -0.00263734)
(1.81261e-05 0.00411263 -0.00263734)
(-0.000696301 0.0040533 -0.00263734)
(-0.00138957 0.00387081 -0.00263734)
(-0.00209153 0.00370414 -0.00235372)
(-0.00270297 0.00328468 -0.00235372)
(-0.00323229 0.00276541 -0.00235372)
(-0.00366339 0.00216212 -0.00235372)
(-0.00398318 0.00149313 -0.00235372)
(-0.00418195 0.000778773 -0.00235372)
(-0.00425365 4.07529e-05 -0.00235372)
(-0.0041961 -0.000698504 -0.00235372)
(-0.00401106 -0.00141654 -0.00235372)
(-0.00370414 -0.00209153 -0.00235372)
(-0.00328468 -0.00270297 -0.00235372)
(-0.00276541 -0.00323229 -0.00235372)
(-0.00216212 -0.00366339 -0.00235372)
(-0.00149313 -0.00398318 -0.00235372)
(-0.000778773 -0.00418195 -0.00235372)
(-4.07526e-05 -0.00425365 -0.00235372)
(0.000698505 -0.0041961 -0.00235372)
(0.00141654 -0.00401106 -0.00235372)
(0.00209153 -0.00370414 -0.00235372)
(0.00270297 -0.00328468 -0.00235372)
(0.00323229 -0.00276541 -0.00235372)
(0.00366339 -0.00216212 -0.00235372)
(0.00398318 -0.00149313 -0.00235372)
(0.00418195 -0.000778773 -0.00235372)
(0.00425365 -4.07526e-05 -0.00235372)
(0.0041961 0.000698505 -0.00235372)
(0.00401106 0.00141654 -0.00235372)
(0.00370414 0.00209153 -0.00235372)
(0.00328468 0.00270297 -0.00235372)
(0.00276541 0.00323229 -0.00235372)
(0.00216212 0.00366339 -0.00235372)
(0.00149313 0.00398318 -0.00235372)
(0.000778773 0.00418195 -0.00235372)
(4.07528e-05 0.00425365 -0.00235372)
(-0.000698504 0.0041961 -0.00235372)
(-0.00141654 0.00401106 -0.00235372)
(-0.00218812 0.00377737 -0.00209398)
(-0.00281082 0.00334002 -0.00209398)
(-0.0033481 0.00280119 -0.00209398)
(-0.00378366 0.00217724 -0.00209398)
(-0.00410425 0.00148714 -0.00209398)
(-0.00430013 0.00075185 -0.00209398)
(-0.00436536 -6.28294e-06 -0.00209398)
(-0.00429795 -0.000764225 -0.00209398)
(-0.00409995 -0.00149895 -0.00209398)
(-0.00377737 -0.00218812 -0.00209398)
(-0.00334002 -0.00281082 -0.00209398)
(-0.00280119 -0.0033481 -0.00209398)
(-0.00217724 -0.00378366 -0.00209398)
(-0.00148714 -0.00410425 -0.00209398)
(-0.00075185 -0.00430013 -0.00209398)
(6.28321e-06 -0.00436536 -0.00209398)
(0.000764225 -0.00429795 -0.00209398)
(0.00149895 -0.00409995 -0.00209398)
(0.00218813 -0.00377737 -0.00209398)
(0.00281082 -0.00334002 -0.00209398)
(0.0033481 -0.00280119 -0.00209398)
(0.00378366 -0.00217724 -0.00209398)
(0.00410425 -0.00148714 -0.00209398)
(0.00430014 -0.00075185 -0.00209398)
(0.00436536 6.28322e-06 -0.00209398)
(0.00429795 0.000764225 -0.00209398)
(0.00409995 0.00149895 -0.00209398)
(0.00377737 0.00218813 -0.00209398)
(0.00334002 0.00281082 -0.00209398)
(0.00280119 0.0033481 -0.00209398)
(0.00217724 0.00378366 -0.00209398)
(0.00148714 0.00410425 -0.00209398)
(0.00075185 0.00430014 -0.00209398)
(-6.28296e-06 0.00436536 -0.00209398)
(-0.000764225 0.00429795 -0.00209398)
(-0.00149895 0.00409995 -0.00209398)
(-0.00236704 0.00407708 -0.00313853)
(-0.00303905 0.00360411 -0.00313853)
(-0.00361873 0.00302162 -0.00313854)
(-0.00408845 0.00234733 -0.00313854)
(-0.00443395 0.00160172 -0.00313854)
(-0.00464473 0.000807438 -0.00313854)
(-0.00471437 -1.13768e-05 -0.00313854)
(-0.00464077 -0.000829847 -0.00313854)
(-0.00442617 -0.0016231 -0.00313853)