/*--------------------------------*- C++ -*----------------------------------*\
| =========                 |                                                 |
| \\      /  F ield         | OpenFOAM: The Open Source CFD Toolbox           |
|  \\    /   O peration     | Version:  2312                                  |
|   \\  /    A nd           | Website:  www.openfoam.com                      |
|    \\/     M anipulation  |                                                 |
\*---------------------------------------------------------------------------*/
FoamFile
{
    version     2.0;
    format      ascii;
    arch        "LSB;label=32;scalar=64";
    class       volVectorField;
    location    "0.8";
    object      D;
}
// * * * * * * * * * * * * * * * * * * * * * * * * * * * * * * * * * * * * * //

dimensions      [0 1 0 0 0 0 0];

internalField   nonuniform List<vector> 
1620
(
(0.000521957 -8.23607e-05 0.000118006)
(0.000447564 -0.000137339 -3.59838e-05)
(0.000369152 -0.000209673 -0.000140627)
(0.00029842 -0.000251035 -0.000189839)
(0.000242489 -0.000256532 -0.000201495)
(0.000204924 -0.000239424 -0.000190655)
(0.000184988 -0.000210422 -0.000166643)
(0.000176919 -0.000173323 -0.000136097)
(0.00017128 -0.000128506 -0.000103736)
(0.000157485 -7.6053e-05 -7.19338e-05)
(0.000126014 -1.63756e-05 -4.02865e-05)
(6.96312e-05 5.03737e-05 -5.28777e-06)
(-1.62748e-05 0.000123306 3.97734e-05)
(-0.000132944 0.000195571 0.00010332)
(-0.000274294 0.000246929 0.00018856)
(-0.000419278 0.000246581 0.000277702)
(-0.000529229 0.000182287 0.000318935)
(-0.000563304 0.000101991 0.000259043)
(-0.000521957 8.23607e-05 0.000118006)
(-0.000447564 0.000137339 -3.59838e-05)
(-0.000369152 0.000209673 -0.000140627)
(-0.00029842 0.000251035 -0.000189839)
(-0.000242489 0.000256532 -0.000201495)
(-0.000204924 0.000239424 -0.000190655)
(-0.000184988 0.000210422 -0.000166643)
(-0.000176919 0.000173323 -0.000136097)
(-0.00017128 0.000128506 -0.000103736)
(-0.000157485 7.6053e-05 -7.19338e-05)
(-0.000126014 1.63756e-05 -4.02865e-05)
(-6.96312e-05 -5.03737e-05 -5.28777e-06)
(1.62748e-05 -0.000123306 3.97734e-05)
(0.000132944 -0.000195571 0.00010332)
(0.000274294 -0.000246929 0.00018856)
(0.000419278 -0.000246581 0.000277702)
(0.000529229 -0.000182287 0.000318935)
(0.000563304 -0.000101991 0.000259043)
(0.000432292 -0.0001865 7.858e-05)
(0.000444643 -0.00021753 1.2974e-05)
(0.00043905 -0.000225084 -4.10667e-05)
(0.000414754 -0.000200007 -8.13241e-05)
(0.000374963 -0.000154938 -0.000111346)
(0.000327349 -0.000105375 -0.000130705)
(0.000279508 -5.95647e-05 -0.000138108)
(0.000234732 -1.86984e-05 -0.000134019)
(0.000191363 1.90109e-05 -0.000120053)
(0.000144747 5.5061e-05 -9.76971e-05)
(8.99449e-05 8.94285e-05 -6.77951e-05)
(2.41257e-05 0.000120897 -3.07377e-05)
(-5.21571e-05 0.000147848 1.30287e-05)
(-0.000135298 0.000168134 6.19955e-05)
(-0.000219769 0.000178123 0.000111212)
(-0.000298358 0.000174602 0.000149147)
(-0.000362175 0.000163072 0.000159597)
(-0.000405694 0.000163692 0.000134091)
(-0.000432292 0.0001865 7.858e-05)
(-0.000444643 0.00021753 1.2974e-05)
(-0.00043905 0.000225084 -4.10667e-05)
(-0.000414754 0.000200007 -8.13241e-05)
(-0.000374963 0.000154938 -0.000111346)
(-0.000327349 0.000105375 -0.000130705)
(-0.000279508 5.95647e-05 -0.000138108)
(-0.000234732 1.86984e-05 -0.000134019)
(-0.000191363 -1.90109e-05 -0.000120053)
(-0.000144747 -5.5061e-05 -9.76971e-05)
(-8.99449e-05 -8.94285e-05 -6.77951e-05)
(-2.41257e-05 -0.000120897 -3.07377e-05)
(5.21571e-05 -0.000147848 1.30287e-05)
(0.000135298 -0.000168134 6.19955e-05)
(0.000219769 -0.000178123 0.000111212)
(0.000298358 -0.000174602 0.000149147)
(0.000362175 -0.000163072 0.000159597)
(0.000405694 -0.000163691 0.000134091)
(0.000309242 -0.000240833 3.21293e-05)
(0.000378323 -0.000266286 2.17945e-05)
(0.000434105 -0.000236601 4.03865e-06)
(0.000463108 -0.000167036 -2.763e-05)
(0.00045882 -8.23417e-05 -6.91602e-05)
(0.000424879 -9.64851e-07 -0.000109159)
(0.000370431 6.77452e-05 -0.00013754)
(0.000304189 0.000120599 -0.000149144)
(0.00023193 0.000157109 -0.000142748)
(0.000157042 0.000177284 -0.000119441)
(8.22768e-05 0.000180929 -8.2246e-05)
(1.13164e-05 0.000168357 -3.66872e-05)
(-5.09893e-05 0.000142283 8.9816e-06)
(-0.000100446 0.000110015 4.52079e-05)
(-0.000136489 8.43189e-05 6.44116e-05)
(-0.000164165 8.13801e-05 6.49168e-05)
(-0.000194596 0.000114057 5.38825e-05)
(-0.000242377 0.000177903 4.22913e-05)
(-0.000309242 0.000240833 3.21293e-05)
(-0.000378323 0.000266286 2.17945e-05)
(-0.000434105 0.000236601 4.03865e-06)
(-0.000463108 0.000167036 -2.763e-05)
(-0.00045882 8.23417e-05 -6.91602e-05)
(-0.000424879 9.64853e-07 -0.000109159)
(-0.000370431 -6.77452e-05 -0.00013754)
(-0.000304189 -0.000120599 -0.000149144)
(-0.00023193 -0.000157109 -0.000142748)
(-0.000157042 -0.000177284 -0.000119441)
(-8.22768e-05 -0.000180929 -8.2246e-05)
(-1.13164e-05 -0.000168357 -3.66872e-05)
(5.09893e-05 -0.000142283 8.9816e-06)
(0.000100446 -0.000110015 4.52079e-05)
(0.000136489 -8.43189e-05 6.44116e-05)
(0.000164165 -8.13801e-05 6.49168e-05)
(0.000194596 -0.000114057 5.38825e-05)
(0.000242377 -0.000177903 4.22913e-05)
(0.00138112 -0.000474648 0.000409875)
(0.00129337 -0.000612203 -2.23086e-05)
(0.00115834 -0.000704432 -0.000353052)
(0.00100573 -0.000691665 -0.000554827)
(0.000855125 -0.000605449 -0.000650641)
(0.000723176 -0.000493933 -0.000667795)
(0.000620582 -0.000382782 -0.000630667)
(0.000544678 -0.000275821 -0.000560555)
(0.000479669 -0.000168091 -0.000473365)
(0.000402649 -5.51024e-05 -0.000377215)
(0.000290868 6.46244e-05 -0.000271073)
(0.000127592 0.00019138 -0.000144595)
(-9.48045e-05 0.000325419 1.97581e-05)
(-0.000373851 0.00046048 0.000239042)
(-0.000693016 0.000568897 0.000511009)
(-0.00101167 0.000599896 0.000781669)
(-0.0012638 0.000529007 0.000921046)
(-0.00138863 0.000439401 0.000784724)
(-0.00138112 0.000474648 0.000409875)
(-0.00129337 0.000612203 -2.23086e-05)
(-0.00115834 0.000704432 -0.000353052)
(-0.00100573 0.000691665 -0.000554827)
(-0.000855125 0.000605449 -0.000650641)
(-0.000723176 0.000493933 -0.000667795)
(-0.000620582 0.000382782 -0.000630667)
(-0.000544678 0.000275821 -0.000560555)
(-0.000479669 0.000168091 -0.000473365)
(-0.000402649 5.51024e-05 -0.000377215)
(-0.000290868 -6.46244e-05 -0.000271073)
(-0.000127592 -0.00019138 -0.000144595)
(9.48045e-05 -0.000325419 1.97581e-05)
(0.000373851 -0.00046048 0.000239042)
(0.000693016 -0.000568897 0.000511009)
(0.00101167 -0.000599896 0.000781669)
(0.0012638 -0.000529007 0.000921046)
(0.00138863 -0.000439401 0.000784724)
(0.00122764 -0.000630939 0.000369891)
(0.00126018 -0.000718911 0.000133983)
(0.00124404 -0.000718925 -7.55857e-05)
(0.00117808 -0.00062885 -0.000245031)
(0.00107074 -0.000489227 -0.00036861)
(0.000942339 -0.000340181 -0.000442162)
(0.00081113 -0.000201483 -0.000467856)
(0.000683879 -7.66983e-05 -0.00045274)
(0.000555707 3.67287e-05 -0.000404182)
(0.000415074 0.000140506 -0.000326729)
(0.000250407 0.000233221 -0.000221434)
(5.61095e-05 0.000311988 -8.72326e-05)
(-0.000164276 0.000375721 7.61085e-05)
(-0.000399352 0.000425802 0.000263308)
(-0.000633491 0.000461902 0.000456176)
(-0.000848499 0.000481042 0.000613908)
(-0.00102527 0.000492579 0.000671567)
(-0.00115018 0.000536885 0.000577018)
(-0.00122764 0.000630939 0.000369891)
(-0.00126018 0.000718911 0.000133983)
(-0.00124404 0.000718925 -7.55857e-05)
(-0.00117808 0.00062885 -0.000245031)
(-0.00107074 0.000489227 -0.00036861)
(-0.000942339 0.000340181 -0.000442162)
(-0.00081113 0.000201483 -0.000467856)
(-0.000683879 7.66984e-05 -0.00045274)
(-0.000555707 -3.67287e-05 -0.000404182)
(-0.000415074 -0.000140506 -0.000326729)
(-0.000250407 -0.000233221 -0.000221434)
(-5.61095e-05 -0.000311988 -8.72326e-05)
(0.000164276 -0.000375721 7.61085e-05)
(0.000399352 -0.000425802 0.000263308)
(0.000633491 -0.000461902 0.000456176)
(0.000848499 -0.000481042 0.000613908)
(0.00102527 -0.000492579 0.000671567)
(0.00115018 -0.000536885 0.000577018)
(0.000984083 -0.000733032 0.000302991)
(0.00112021 -0.00079713 0.000226748)
(0.00122194 -0.000739072 0.000126576)
(0.00125556 -0.000594162 -5.99803e-06)
(0.0012156 -0.000410537 -0.000145999)
(0.00111809 -0.00022316 -0.000263102)
(0.000982434 -5.01765e-05 -0.000338607)
(0.000821783 0.000100414 -0.00036541)
(0.000642227 0.000224481 -0.000342453)
(0.000445914 0.000318263 -0.000271232)
(0.000235502 0.000377425 -0.000155917)
(1.83701e-05 0.000398786 -6.05917e-06)
(-0.000191641 0.00038484 0.000160362)
(-0.000377624 0.000349568 0.000316739)
(-0.000527996 0.00032111 0.000432986)
(-0.000644207 0.000335802 0.000484722)
(-0.000742287 0.000421749 0.000463599)
(-0.000848717 0.000578453 0.000389398)
(-0.000984083 0.000733032 0.000302991)
(-0.00112021 0.00079713 0.000226748)
(-0.00122194 0.000739072 0.000126576)
(-0.00125556 0.000594162 -5.99803e-06)
(-0.0012156 0.000410537 -0.000145999)
(-0.00111809 0.00022316 -0.000263102)
(-0.000982434 5.01765e-05 -0.000338607)
(-0.000821783 -0.000100414 -0.00036541)
(-0.000642227 -0.000224481 -0.000342453)
(-0.000445914 -0.000318263 -0.000271232)
(-0.000235502 -0.000377425 -0.000155917)
(-1.83701e-05 -0.000398786 -6.05917e-06)
(0.000191641 -0.00038484 0.000160362)
(0.000377624 -0.000349568 0.000316739)
(0.000527996 -0.00032111 0.000432986)
(0.000644207 -0.000335802 0.000484722)
(0.000742287 -0.000421749 0.000463599)
(0.000848717 -0.000578453 0.000389398)
(0.00210693 -0.00110963 0.000897964)
(0.00202015 -0.00125176 0.000165119)
(0.00183971 -0.00127789 -0.000453104)
(0.00161788 -0.00117468 -0.000874667)
(0.0013896 -0.000993527 -0.00111164)
(0.00118007 -0.000792459 -0.00120459)
(0.00100442 -0.000601277 -0.00119433)
(0.000861686 -0.000423964 -0.00111454)
(0.000733694 -0.000252928 -0.000989164)
(0.000590947 -8.01512e-05 -0.000829605)
(0.000402273 9.83876e-05 -0.000632694)
(0.000144564 0.000284075 -0.000381106)
(-0.000190928 0.000478034 -4.93122e-05)
(-0.000596935 0.000675973 0.000380593)
(-0.00104829 0.000853017 0.000889304)
(-0.0014949 0.000961314 0.0013799)
(-0.00186111 0.000980327 0.00165442)
(-0.00206853 0.00099816 0.00149431)
(-0.00210693 0.00110963 0.000897964)
(-0.00202015 0.00125176 0.000165119)
(-0.00183971 0.00127789 -0.000453104)
(-0.00161788 0.00117468 -0.000874667)
(-0.0013896 0.000993527 -0.00111164)
(-0.00118007 0.000792459 -0.00120459)
(-0.00100442 0.000601277 -0.00119433)
(-0.000861686 0.000423964 -0.00111454)
(-0.000733694 0.000252928 -0.000989164)
(-0.000590947 8.01512e-05 -0.000829605)
(-0.000402273 -9.83876e-05 -0.000632694)
(-0.000144564 -0.000284075 -0.000381106)
(0.000190928 -0.000478034 -4.93122e-05)
(0.000596935 -0.000675972 0.000380593)
(0.00104829 -0.000853017 0.000889304)
(0.0014949 -0.000961314 0.0013799)
(0.00186111 -0.000980327 0.00165442)
(0.00206853 -0.00099816 0.00149431)
(0.00190715 -0.00115083 0.000866455)
(0.00195716 -0.00124704 0.000418327)
(0.00192336 -0.00121302 -1.13072e-05)
(0.00181453 -0.00106278 -0.000359164)
(0.00165109 -0.00084717 -0.000606768)
(0.00146056 -0.000615343 -0.000754724)
(0.00126365 -0.000393395 -0.000814082)
(0.00106705 -0.000188993 -0.000799275)
(0.000864052 -1.78801e-06 -0.000722194)
(0.000640047 0.000168888 -0.000588753)
(0.000380411 0.00032101 -0.000398428)
(7.83539e-05 0.000451504 -0.000147256)
(-0.0002606 0.000560227 0.000165236)
(-0.000619641 0.000651273 0.000525522)
(-0.000975112 0.000729064 0.000894128)
(-0.00130039 0.000797862 0.00119718)
(-0.00157112 0.000874914 0.00133303)
(-0.00177376 0.000994477 0.00121466)
(-0.00190715 0.00115083 0.000866455)
(-0.00195716 0.00124704 0.000418327)
(-0.00192336 0.00121302 -1.13072e-05)
(-0.00181453 0.00106278 -0.000359164)
(-0.00165109 0.00084717 -0.000606768)
(-0.00146056 0.000615343 -0.000754724)
(-0.00126365 0.000393395 -0.000814082)
(-0.00106705 0.000188993 -0.000799275)
(-0.000864052 1.78801e-06 -0.000722194)
(-0.000640047 -0.000168888 -0.000588753)
(-0.000380411 -0.00032101 -0.000398428)
(-7.8354e-05 -0.000451504 -0.000147256)
(0.0002606 -0.000560227 0.000165236)
(0.000619641 -0.000651273 0.000525522)
(0.000975112 -0.000729064 0.000894128)
(0.00130039 -0.000797862 0.00119718)
(0.00157112 -0.000874914 0.00133303)
(0.00177376 -0.000994477 0.00121466)
(0.00156797 -0.00116358 0.000770356)
(0.00174829 -0.00124737 0.00057926)
(0.00186888 -0.00118276 0.000342902)
(0.00189185 -0.00100135 8.28369e-05)
(0.00181959 -0.000757149 -0.000160043)
(0.0016751 -0.000493763 -0.000349164)
(0.00148058 -0.000236885 -0.000465323)
(0.0012491 -9.80798e-07 -0.000502774)
(0.000986003 0.000204177 -0.000461254)
(0.000693388 0.00037029 -0.000341873)
(0.00037519 0.000490022 -0.000148062)
(4.15244e-05 0.000558925 0.000109376)
(-0.000289399 0.000580072 0.000405239)
(-0.000594398 0.00057084 0.000695904)
(-0.00085453 0.000567212 0.000926227)
(-0.00106492 0.000615418 0.00104974)
(-0.00123703 0.000744887 0.00104768)
(-0.00139278 0.000953237 0.000933865)
(-0.00156797 0.00116358 0.000770356)
(-0.00174829 0.00124737 0.00057926)
(-0.00186888 0.00118276 0.000342902)
(-0.00189185 0.00100135 8.28369e-05)
(-0.00181959 0.000757149 -0.000160043)
(-0.0016751 0.000493763 -0.000349164)
(-0.00148058 0.000236885 -0.000465323)
(-0.0012491 9.80806e-07 -0.000502774)
(-0.000986003 -0.000204177 -0.000461254)
(-0.000693388 -0.00037029 -0.000341873)
(-0.00037519 -0.000490022 -0.000148062)
(-4.15244e-05 -0.000558925 0.000109376)
(0.000289399 -0.000580072 0.000405239)
(0.000594398 -0.00057084 0.000695904)
(0.00085453 -0.000567212 0.000926227)
(0.00106492 -0.000615418 0.00104974)
(0.00123703 -0.000744887 0.00104768)
(0.00139278 -0.000953237 0.000933865)
(0.00265341 -0.00187824 0.00146418)
(0.00256642 -0.00195413 0.000516294)
(0.00235206 -0.00189193 -0.000360885)
(0.00207873 -0.00170996 -0.00101192)
(0.00179887 -0.00145752 -0.00141513)
(0.00153961 -0.00118607 -0.00161595)
(0.00131206 -0.000924461 -0.00166762)
(0.00111347 -0.000678627 -0.00161142)
(0.000925741 -0.000442154 -0.00147408)
(0.000719059 -0.000206448 -0.00126674)
(0.00046101 3.38402e-05 -0.000984017)
(0.000127461 0.00028085 -0.000606065)
(-0.000289685 0.000535769 -0.000108154)
(-0.000780111 0.000796216 0.000517656)
(-0.00131408 0.00104746 0.00122721)
(-0.0018392 0.00126626 0.00188871)
(-0.00228227 0.00145892 0.0022797)
(-0.00256342 0.00168076 0.00215865)
(-0.00265341 0.00187824 0.00146418)
(-0.00256642 0.00195413 0.000516295)
(-0.00235206 0.00189193 -0.000360885)
(-0.00207873 0.00170996 -0.00101192)
(-0.00179887 0.00145752 -0.00141513)
(-0.00153961 0.00118607 -0.00161595)
(-0.00131206 0.000924461 -0.00166762)
(-0.00111347 0.000678627 -0.00161142)
(-0.000925741 0.000442154 -0.00147408)
(-0.000719059 0.000206448 -0.00126674)
(-0.00046101 -3.38402e-05 -0.000984017)
(-0.000127461 -0.00028085 -0.000606065)
(0.000289685 -0.000535769 -0.000108154)
(0.000780111 -0.000796216 0.000517656)
(0.00131408 -0.00104746 0.00122721)
(0.0018392 -0.00126626 0.00188871)
(0.00228227 -0.00145892 0.0022797)
(0.00256342 -0.00168076 0.00215865)
(0.00243505 -0.00169241 0.00141024)
(0.00248049 -0.00177265 0.000794208)
(0.00241531 -0.00169982 0.000171061)
(0.00226542 -0.0015058 -0.000348959)
(0.00206131 -0.00124084 -0.00072565)
(0.00183046 -0.000951891 -0.000959695)
(0.00158983 -0.000666717 -0.0010682)
(0.00134335 -0.00039651 -0.00107006)
(0.00108338 -0.000144022 -0.000979115)
(0.000795328 8.98302e-05 -0.000801372)
(0.000464789 0.000302957 -0.000535366)
(8.4957e-05 0.000493057 -0.000176778)
(-0.000338931 0.000660763 0.00027142)
(-0.000789392 0.000811053 0.000784055)
(-0.00123895 0.000951614 0.00129968)
(-0.00165405 0.00109466 0.00171885)
(-0.00200374 0.00126466 0.00192636)
(-0.00227012 0.00148326 0.00183057)
(-0.00243505 0.00169241 0.00141024)
(-0.00248049 0.00177265 0.000794208)
(-0.00241531 0.00169982 0.000171061)
(-0.00226542 0.0015058 -0.000348959)
(-0.00206131 0.00124084 -0.00072565)
(-0.00183047 0.000951891 -0.000959695)
(-0.00158983 0.000666717 -0.0010682)
(-0.00134335 0.00039651 -0.00107006)
(-0.00108338 0.000144022 -0.000979115)
(-0.000795328 -8.98302e-05 -0.000801372)
(-0.000464789 -0.000302957 -0.000535366)
(-8.49571e-05 -0.000493057 -0.000176778)
(0.000338931 -0.000660763 0.00027142)
(0.000789392 -0.000811053 0.000784055)
(0.00123895 -0.000951614 0.00129968)
(0.00165405 -0.00109466 0.00171885)
(0.00200374 -0.00126466 0.00192636)
(0.00227012 -0.00148326 0.00183057)
(0.00210504 -0.00153787 0.00128031)
(0.00225996 -0.00162931 0.000979825)
(0.00234596 -0.00156052 0.000619625)
(0.00233457 -0.00136226 0.000246622)
(0.00222878 -0.00108622 -8.78402e-05)
(0.00204932 -0.000777342 -0.000342164)
(0.00181548 -0.000464745 -0.00049609)
(0.00153757 -0.000166863 -0.000544651)
(0.00121925 0.000102604 -0.000488484)
(0.000862507 0.000332325 -0.000329192)
(0.000472204 0.000513767 -7.06497e-05)
(5.87519e-05 0.000643047 0.000274646)
(-0.000360953 0.000724082 0.000675695)
(-0.000764772 0.000774106 0.00107538)
(-0.00113069 0.000828244 0.0013983)
(-0.00144503 0.000930238 0.00158099)
(-0.00170646 0.00110367 0.00160314)
(-0.00192329 0.00132818 0.00149025)
(-0.00210504 0.00153787 0.00128031)
(-0.00225996 0.00162931 0.000979825)
(-0.00234596 0.00156052 0.000619625)
(-0.00233457 0.00136226 0.000246622)
(-0.00222878 0.00108622 -8.78402e-05)
(-0.00204932 0.000777342 -0.000342164)
(-0.00181548 0.000464745 -0.00049609)
(-0.00153757 0.000166863 -0.000544651)
(-0.00121925 -0.000102604 -0.000488484)
(-0.000862507 -0.000332325 -0.000329192)
(-0.000472204 -0.000513767 -7.06497e-05)
(-5.87519e-05 -0.000643047 0.000274646)
(0.000360953 -0.000724082 0.000675695)
(0.000764772 -0.000774106 0.00107538)
(0.00113069 -0.000828244 0.0013983)
(0.00144503 -0.000930238 0.00158099)
(0.00170646 -0.00110367 0.00160314)
(0.00192329 -0.00132818 0.00149025)
(0.00300267 -0.00243183 0.00196068)
(0.0029279 -0.00252299 0.0009607)
(0.00269032 -0.00244484 -8.20175e-05)
(0.00238125 -0.0022407 -0.000920627)
(0.00207044 -0.00196053 -0.00148188)
(0.00178447 -0.00164957 -0.00179978)
(0.0015262 -0.00133692 -0.00193031)
(0.00128791 -0.00103289 -0.00191726)
(0.00105171 -0.000735282 -0.00178735)
(0.000791061 -0.000437793 -0.00155095)
(0.000477677 -0.000135458 -0.00120336)
(9.07091e-05 0.00017444 -0.000728752)
(-0.000376504 0.000493983 -0.000110933)
(-0.000913841 0.000823487 0.000643872)
(-0.00149184 0.00115781 0.00147022)
(-0.00205823 0.00149194 0.00221319)
(-0.00254042 0.00183321 0.00265)
(-0.00286805 0.0021729 0.00258359)
(-0.00300267 0.00243183 0.00196068)
(-0.0029279 0.00252299 0.0009607)
(-0.00269032 0.00244484 -8.20174e-05)
(-0.00238125 0.0022407 -0.000920627)
(-0.00207044 0.00196053 -0.00148188)
(-0.00178447 0.00164957 -0.00179978)
(-0.0015262 0.00133692 -0.00193031)
(-0.00128791 0.00103289 -0.00191726)
(-0.00105171 0.000735282 -0.00178735)
(-0.000791061 0.000437793 -0.00155095)
(-0.000477677 0.000135458 -0.00120336)
(-9.07092e-05 -0.00017444 -0.000728752)
(0.000376504 -0.000493983 -0.000110933)
(0.000913841 -0.000823487 0.000643872)
(0.00149184 -0.00115781 0.00147022)
(0.00205823 -0.00149194 0.00221319)
(0.00254042 -0.00183321 0.00265)
(0.00286805 -0.0021729 0.00258359)
(0.00277555 -0.0020967 0.00182879)
(0.00280589 -0.0021818 0.00117674)
(0.00271165 -0.0021109 0.000448356)
(0.00252956 -0.00191333 -0.00019884)
(0.00229944 -0.0016353 -0.000687029)
(0.0020465 -0.00132012 -0.00100493)
(0.00178151 -0.000996629 -0.00116851)
(0.0015045 -0.000679493 -0.00119723)
(0.00120715 -0.000374859 -0.00110524)
(0.000876489 -8.56133e-05 -0.000898995)
(0.000500357 0.000186051 -0.000578664)
(7.28688e-05 0.000438938 -0.000143684)
(-0.000402228 0.000674647 0.00039621)
(-0.000909989 0.00089837 0.00100525)
(-0.00142288 0.00111883 0.00160761)
(-0.0019028 0.00135043 0.00208953)
(-0.00230923 0.00160968 0.00232868)
(-0.00260806 0.0018821 0.0022417)
(-0.00277555 0.0020967 0.00182879)
(-0.00280589 0.0021818 0.00117674)
(-0.00271165 0.0021109 0.000448356)
(-0.00252956 0.00191333 -0.00019884)
(-0.00229944 0.0016353 -0.000687029)
(-0.0020465 0.00132012 -0.00100493)
(-0.00178151 0.000996629 -0.00116851)
(-0.0015045 0.000679493 -0.00119723)
(-0.00120715 0.000374859 -0.00110524)
(-0.000876489 8.56133e-05 -0.000898995)
(-0.000500357 -0.000186051 -0.000578664)
(-7.28688e-05 -0.000438938 -0.000143684)
(0.000402228 -0.000674647 0.00039621)
(0.000909989 -0.00089837 0.00100525)
(0.00142288 -0.00111883 0.00160761)
(0.0019028 -0.00135043 0.00208953)
(0.00230923 -0.00160968 0.00232868)
(0.00260806 -0.0018821 0.0022417)
(0.00250742 -0.00183265 0.00166206)
(0.0026069 -0.00190298 0.00132195)
(0.00263673 -0.00183792 0.000904771)
(0.00258319 -0.00164667 0.000462002)
(0.00244689 -0.00136821 6.10022e-05)
(0.00224281 -0.00104425 -0.000245597)
(0.00198543 -0.000704917 -0.00043244)
(0.00168174 -0.000370595 -0.000493146)
(0.00133365 -5.6994e-05 -0.00042879)
(0.000942796 0.000223257 -0.000242538)
(0.000513975 0.000461757 5.93271e-05)
(5.59839e-05 0.000655888 0.000461024)
(-0.000418414 0.00081004 0.000926578)
(-0.000891302 0.000938667 0.00139086)
(-0.00133992 0.00106952 0.00176882)
(-0.00174183 0.00123435 0.00198996)
(-0.0020791 0.00144295 0.00202937)
(-0.00233656 0.00166243 0.00190641)
(-0.00250742 0.00183265 0.00166206)
(-0.0026069 0.00190298 0.00132195)
(-0.00263673 0.00183792 0.000904771)
(-0.00258319 0.00164667 0.000462002)
(-0.00244689 0.00136821 6.10023e-05)
(-0.00224281 0.00104425 -0.000245597)
(-0.00198543 0.000704917 -0.00043244)
(-0.00168174 0.000370595 -0.000493146)
(-0.00133365 5.69941e-05 -0.00042879)
(-0.000942796 -0.000223257 -0.000242538)
(-0.000513975 -0.000461757 5.93271e-05)
(-5.5984e-05 -0.000655888 0.000461024)
(0.000418414 -0.00081004 0.000926578)
(0.000891302 -0.000938667 0.00139086)
(0.00133992 -0.00106952 0.00176882)
(0.00174183 -0.00123435 0.00198996)
(0.0020791 -0.00144295 0.00202937)
(0.00233656 -0.00166243 0.00190641)
(0.00313274 -0.00275196 0.00224919)
(0.00307419 -0.00289535 0.0013273)
(0.00284316 -0.00286383 0.000271164)
(0.00252652 -0.00269475 -0.000658013)
(0.00220427 -0.00243239 -0.00133238)
(0.00190765 -0.00211688 -0.001751)
(0.0016347 -0.00177881 -0.00195746)
(0.00137258 -0.00143452 -0.0019918)
(0.00110328 -0.00108824 -0.00187941)
(0.000804754 -0.000738068 -0.00163146)
(0.000455175 -0.000380813 -0.00124772)
(3.89138e-05 -1.32639e-05 -0.000721383)
(-0.000449142 0.000368275 -4.88345e-05)
(-0.00100074 0.000766214 0.000750209)
(-0.00158842 0.00117909 0.00159978)
(-0.0021601 0.00160469 0.00234664)
(-0.00264657 0.00203732 0.00279349)
(-0.00298476 0.00244318 0.00277749)
(-0.00313274 0.00275196 0.00224919)
(-0.00307419 0.00289535 0.0013273)
(-0.00284316 0.00286383 0.000271164)
(-0.00252652 0.00269475 -0.000658013)
(-0.00220427 0.00243239 -0.00133238)
(-0.00190765 0.00211688 -0.001751)
(-0.0016347 0.00177881 -0.00195746)
(-0.00137258 0.00143452 -0.0019918)
(-0.00110328 0.00108824 -0.00187941)
(-0.000804754 0.000738068 -0.00163146)
(-0.000455175 0.000380813 -0.00124772)
(-3.89138e-05 1.32639e-05 -0.000721383)
(0.000449142 -0.000368275 -4.88345e-05)
(0.00100074 -0.000766214 0.000750209)
(0.00158842 -0.00117909 0.00159978)
(0.0021601 -0.00160469 0.00234664)
(0.00264657 -0.00203732 0.00279349)
(0.00298476 -0.00244318 0.00277749)
(0.00292326 -0.00234747 0.0021047)
(0.00293823 -0.00245082 0.00148256)
(0.002826 -0.002411 0.000745417)
(0.00262709 -0.00224483 4.59846e-05)
(0.00238465 -0.00198757 -0.000512292)
(0.00212309 -0.00167625 -0.000895087)
(0.00184853 -0.00133973 -0.00110752)
(0.00155733 -0.000996055 -0.00116503)
(0.00124067 -0.000655164 -0.00108078)
(0.000887675 -0.000322456 -0.000862656)
(0.00048912 -7.50334e-07 -0.00051491)
(4.06014e-05 0.000309578 -4.37615e-05)
(-0.00045546 0.000610945 0.000532754)
(-0.00098698 0.00090777 0.00117114)
(-0.00152702 0.00120563 0.00179112)
(-0.00203308 0.00151163 0.00228207)
(-0.00245742 0.00182643 0.00253463)
(-0.00276168 0.00212279 0.00247788)
(-0.00292326 0.00234747 0.0021047)
(-0.00293823 0.00245082 0.00148256)
(-0.002826 0.002411 0.000745417)
(-0.00262709 0.00224483 4.59846e-05)
(-0.00238465 0.00198757 -0.000512292)
(-0.00212309 0.00167625 -0.000895087)
(-0.00184853 0.00133973 -0.00110752)
(-0.00155733 0.000996055 -0.00116503)
(-0.00124067 0.000655164 -0.00108078)
(-0.000887675 0.000322456 -0.000862656)
(-0.00048912 7.50351e-07 -0.00051491)
(-4.06014e-05 -0.000309578 -4.37615e-05)
(0.00045546 -0.000610945 0.000532754)
(0.00098698 -0.00090777 0.00117114)
(0.00152702 -0.00120563 0.00179112)
(0.00203308 -0.00151163 0.00228207)
(0.00245742 -0.00182643 0.00253463)
(0.00276168 -0.00212279 0.00247788)
(0.00271377 -0.00202511 0.00193959)
(0.00277498 -0.0020774 0.0015897)
(0.0027569 -0.00201955 0.00115914)
(0.00266497 -0.00185043 0.000694285)
(0.00250398 -0.00159295 0.000262484)
(0.00228469 -0.00127964 -7.52454e-05)
(0.00201665 -0.000938245 -0.000285413)
(0.00170357 -0.000589628 -0.000357627)
(0.00134582 -0.000250507 -0.000292369)
(0.000944465 6.60583e-05 -9.46401e-05)
(0.000503481 0.000352138 0.000225788)
(2.94226e-05 0.000605924 0.000648796)
(-0.000468765 0.000831239 0.00113411)
(-0.000976445 0.00103781 0.00161372)
(-0.0014698 0.00124194 0.00200355)
(-0.00191802 0.00145836 0.00223734)
(-0.00228879 0.00168254 0.00229197)
(-0.00255632 0.00188398 0.0021825)
(-0.00271377 0.00202511 0.00193959)
(-0.00277498 0.0020774 0.0015897)
(-0.0027569 0.00201955 0.00115914)
(-0.00266497 0.00185043 0.000694285)
(-0.00250398 0.00159295 0.000262484)
(-0.00228469 0.00127964 -7.52453e-05)
(-0.00201665 0.000938245 -0.000285413)
(-0.00170357 0.000589628 -0.000357627)
(-0.00134582 0.000250507 -0.000292369)
(-0.000944465 -6.60583e-05 -9.46401e-05)
(-0.000503481 -0.000352138 0.000225788)
(-2.94227e-05 -0.000605924 0.000648796)
(0.000468765 -0.000831239 0.00113411)
(0.000976445 -0.00103781 0.00161372)
(0.0014698 -0.00124194 0.00200355)
(0.00191802 -0.00145836 0.00223734)
(0.00228879 -0.00168254 0.00229197)
(0.00255632 -0.00188398 0.0021825)
(0.00306574 -0.00288101 0.00234743)
(0.00301879 -0.00308645 0.00155524)
(0.00281307 -0.00312972 0.000591871)
(0.00251716 -0.0030291 -0.000322976)
(0.0022043 -0.00281655 -0.00104154)
(0.00191016 -0.00252636 -0.00152329)
(0.00163418 -0.0021893 -0.00178713)
(0.00136177 -0.00182695 -0.00186261)
(0.00107555 -0.0014502 -0.00177207)
(0.000757938 -0.00106244 -0.00152858)
(0.000393441 -0.000662987 -0.00113836)
(-2.86425e-05 -0.000248732 -0.000604965)
(-0.000511987 0.00018462 6.33308e-05)
(-0.00104937 0.000639283 0.000837373)
(-0.00161423 0.00111267 0.00164084)
(-0.00215592 0.00159866 0.00233723)
(-0.00261151 0.00208305 0.0027606)
(-0.00292649 0.00252956 0.00277755)
(-0.00306574 0.00288101 0.00234743)
(-0.00301879 0.00308645 0.00155524)
(-0.00281307 0.00312972 0.000591871)
(-0.00251716 0.0030291 -0.000322976)
(-0.0022043 0.00281655 -0.00104154)
(-0.00191016 0.00252636 -0.00152329)
(-0.00163418 0.0021893 -0.00178713)
(-0.00136177 0.00182695 -0.00186261)
(-0.00107555 0.0014502 -0.00177207)
(-0.000757938 0.00106244 -0.00152858)
(-0.000393441 0.000662987 -0.00113836)
(2.86425e-05 0.000248732 -0.000604965)
(0.000511987 -0.00018462 6.33308e-05)
(0.00104937 -0.000639283 0.000837373)
(0.00161423 -0.00111267 0.00164084)
(0.00215592 -0.00159866 0.00233723)
(0.00261151 -0.00208305 0.0027606)
(0.00292649 -0.00252956 0.00277755)
(0.00288697 -0.00245919 0.0022364)
(0.00289296 -0.00259246 0.0016858)
(0.00277835 -0.00259833 0.00100499)
(0.00258044 -0.00248293 0.000322985)
(0.00233973 -0.0022688 -0.000253379)
(0.00208044 -0.00198467 -0.000669856)
(0.00180733 -0.00165727 -0.000915376)
(0.00151492 -0.00130689 -0.000997265)
(0.00119442 -0.000946975 -0.000926231)
(0.000837097 -0.000585604 -0.000711748)
(0.000436469 -0.000226692 -0.000363068)
(-1.0316e-05 0.000129394 0.000106287)
(-0.000501188 0.000484627 0.000670997)
(-0.00102498 0.000840812 0.00128405)
(-0.00155461 0.00119795 0.00186988)
(-0.00204678 0.00155448 0.00233257)
(-0.00245418 0.00190231 0.00258029)
(-0.00274056 0.00221685 0.00255161)
(-0.00288697 0.00245919 0.0022364)
(-0.00289296 0.00259246 0.0016858)
(-0.00277835 0.00259833 0.00100499)
(-0.00258044 0.00248293 0.000322985)
(-0.00233973 0.0022688 -0.000253379)
(-0.00208044 0.00198467 -0.000669856)
(-0.00180733 0.00165727 -0.000915376)
(-0.00151492 0.00130689 -0.000997265)
(-0.00119442 0.000946975 -0.000926231)
(-0.000837097 0.000585604 -0.000711748)
(-0.000436469 0.000226692 -0.000363068)
(1.0316e-05 -0.000129394 0.000106287)
(0.000501188 -0.000484627 0.000670997)
(0.00102498 -0.000840812 0.00128405)
(0.00155461 -0.00119795 0.00186988)
(0.00204678 -0.00155448 0.00233257)
(0.00245418 -0.00190231 0.00258029)
(0.00274056 -0.00221685 0.00255161)
(0.002739 -0.00211959 0.00210283)
(0.00277647 -0.00216866 0.00177523)
(0.0027292 -0.00212472 0.00136567)
(0.00261211 -0.00198527 0.000916555)
(0.00243588 -0.00176215 0.000488925)
(0.00221049 -0.00147672 0.00014485)
(0.00194225 -0.00115136 -7.55174e-05)
(0.0016323 -0.000805916 -0.000156483)
(0.00127983 -0.000457333 -9.67501e-05)
(0.000885282 -0.000118703 9.74336e-05)
(0.000451605 0.000202271 0.000412966)
(-1.64278e-05 0.000503532 0.00082555)
(-0.000511727 0.000786827 0.00129202)
(-0.00102038 0.00105582 0.00174652)
(-0.00151735 0.00131526 0.00211465)
(-0.00196847 0.00156628 0.00234168)
(-0.00233747 0.00179838 0.00240778)
(-0.00259683 0.00199021 0.00232123)
(-0.002739 0.00211959 0.00210283)
(-0.00277647 0.00216866 0.00177523)
(-0.0027292 0.00212472 0.00136567)
(-0.00261211 0.00198527 0.000916555)
(-0.00243588 0.00176215 0.000488925)
(-0.00221049 0.00147672 0.00014485)
(-0.00194225 0.00115136 -7.55174e-05)
(-0.0016323 0.000805916 -0.000156483)
(-0.00127983 0.000457333 -9.67501e-05)
(-0.000885282 0.000118703 9.74336e-05)
(-0.000451605 -0.000202271 0.000412966)
(1.64278e-05 -0.000503532 0.00082555)
(0.000511727 -0.000786827 0.00129202)
(0.00102038 -0.00105582 0.00174652)
(0.00151735 -0.00131526 0.00211465)
(0.00196847 -0.00156628 0.00234168)
(0.00233747 -0.00179838 0.00240778)
(0.00259683 -0.00199021 0.00232123)
(0.00283978 -0.00287298 0.0022929)
(0.00279899 -0.00313551 0.00164355)
(0.00262492 -0.00325378 0.00082373)
(0.00236709 -0.00322982 -1.77361e-07)
(0.00208167 -0.00308152 -0.00069304)
(0.00180248 -0.00283587 -0.00119011)
(0.00153328 -0.00252173 -0.00148361)
(0.00126205 -0.00216318 -0.00158804)
(0.000973814 -0.00177606 -0.00152041)
(0.000655205 -0.00136835 -0.00129495)
(0.000295702 -0.000942121 -0.00092361)
(-0.000111692 -0.000495526 -0.00041822)