/*--------------------------------*- C++ -*----------------------------------*\
| =========                 |                                                 |
| \\      /  F ield         | OpenFOAM: The Open Source CFD Toolbox           |
|  \\    /   O peration     | Version:  2312                                  |
|   \\  /    A nd           | Website:  www.openfoam.com                      |
|    \\/     M anipulation  |                                                 |
\*---------------------------------------------------------------------------*/
FoamFile
{
    version     2.0;
    format      ascii;
    arch        "LSB;label=32;scalar=64";
    class       volVectorField;
    location    "0.8";
    object      D_0;
}
// * * * * * * * * * * * * * * * * * * * * * * * * * * * * * * * * * * * * * //

dimensions      [0 1 0 0 0 0 0];

internalField   nonuniform List<vector> 
1620
(
(-0.000255052 0.000222479 -0.000131339)
(-0.00028981 0.00017481 -0.000131339)
(-0.000315763 0.000121829 -0.000131339)
(-0.000332122 6.51472e-05 -0.000131339)
(-0.000338389 6.48575e-06 -0.000131339)
(-0.000334374 -5.23736e-05 -0.000131339)
(-0.000320199 -0.000109642 -0.000131339)
(-0.000296296 -0.000163578 -0.000131338)
(-0.000263389 -0.000212544 -0.000131339)
(-0.000222479 -0.000255052 -0.000131339)
(-0.00017481 -0.00028981 -0.000131339)
(-0.000121829 -0.000315763 -0.000131339)
(-6.51472e-05 -0.000332122 -0.000131339)
(-6.48572e-06 -0.000338389 -0.000131339)
(5.23737e-05 -0.000334374 -0.000131339)
(0.000109642 -0.000320199 -0.000131339)
(0.000163578 -0.000296296 -0.000131338)
(0.000212544 -0.000263389 -0.000131339)
(0.000255052 -0.000222479 -0.000131339)
(0.00028981 -0.00017481 -0.000131339)
(0.000315763 -0.000121829 -0.000131339)
(0.000332122 -6.51472e-05 -0.000131339)
(0.000338389 -6.48572e-06 -0.000131339)
(0.000334374 5.23737e-05 -0.000131339)
(0.000320199 0.000109642 -0.000131339)
(0.000296296 0.000163578 -0.000131338)
(0.000263389 0.000212544 -0.000131339)
(0.000222479 0.000255052 -0.000131339)
(0.00017481 0.00028981 -0.000131339)
(0.000121829 0.000315763 -0.000131339)
(6.51472e-05 0.000332122 -0.000131339)
(6.48576e-06 0.000338389 -0.000131339)
(-5.23736e-05 0.000334374 -0.000131339)
(-0.000109642 0.0003202 -0.000131338)
(-0.000163578 0.000296296 -0.000131338)
(-0.000212544 0.000263389 -0.000131339)
(-0.000169015 0.000300731 -8.89124e-05)
(-0.000218669 0.000266813 -8.89126e-05)
(-0.000261678 0.000224788 -8.89125e-05)
(-0.000296737 0.000175933 -8.89123e-05)
(-0.00032278 0.000121733 -8.89124e-05)
(-0.000339014 6.3833e-05 -8.89124e-05)
(-0.000344948 3.99409e-06 -8.89123e-05)
(-0.000340402 -5.59661e-05 -8.89123e-05)
(-0.000325511 -0.000114226 -8.89124e-05)
(-0.000300731 -0.000169015 -8.89124e-05)
(-0.000266813 -0.000218669 -8.89126e-05)
(-0.000224788 -0.000261678 -8.89125e-05)
(-0.000175933 -0.000296737 -8.89123e-05)
(-0.000121733 -0.00032278 -8.89124e-05)
(-6.3833e-05 -0.000339014 -8.89124e-05)
(-3.99407e-06 -0.000344948 -8.89123e-05)
(5.59661e-05 -0.000340402 -8.89123e-05)
(0.000114226 -0.000325511 -8.89124e-05)
(0.000169015 -0.000300731 -8.89125e-05)
(0.000218669 -0.000266813 -8.89126e-05)
(0.000261678 -0.000224788 -8.89125e-05)
(0.000296737 -0.000175933 -8.89123e-05)
(0.00032278 -0.000121733 -8.89124e-05)
(0.000339014 -6.3833e-05 -8.89124e-05)
(0.000344948 -3.99406e-06 -8.89123e-05)
(0.000340402 5.59661e-05 -8.89123e-05)
(0.000325511 0.000114226 -8.89124e-05)
(0.000300731 0.000169015 -8.89124e-05)
(0.000266813 0.000218669 -8.89126e-05)
(0.000224788 0.000261678 -8.89125e-05)
(0.000175933 0.000296737 -8.89123e-05)
(0.000121733 0.00032278 -8.89124e-05)
(6.3833e-05 0.000339014 -8.89124e-05)
(3.99408e-06 0.000344948 -8.89123e-05)
(-5.59661e-05 0.000340402 -8.89123e-05)
(-0.000114226 0.000325511 -8.89124e-05)
(-0.000113234 0.000378796 -4.63677e-05)
(-0.000177291 0.000353378 -4.63677e-05)
(-0.000235961 0.000317224 -4.6368e-05)
(-0.000287461 0.00027143 -4.63678e-05)
(-0.000330228 0.000217389 -4.6368e-05)
(-0.00036296 0.000156743 -4.63678e-05)
(-0.000384664 9.13341e-05 -4.63679e-05)
(-0.000394681 2.31503e-05 -4.6368e-05)
(-0.000392704 -4.57369e-05 -4.63678e-05)
(-0.000378796 -0.000113234 -4.63678e-05)
(-0.000353378 -0.000177291 -4.63678e-05)
(-0.000317224 -0.000235961 -4.6368e-05)
(-0.00027143 -0.000287461 -4.63678e-05)
(-0.000217389 -0.000330228 -4.6368e-05)
(-0.000156743 -0.00036296 -4.63678e-05)
(-9.13341e-05 -0.000384664 -4.6368e-05)
(-2.31503e-05 -0.000394681 -4.63681e-05)
(4.57369e-05 -0.000392704 -4.63678e-05)
(0.000113234 -0.000378796 -4.63678e-05)
(0.000177291 -0.000353378 -4.63678e-05)
(0.000235961 -0.000317224 -4.6368e-05)
(0.000287461 -0.00027143 -4.63678e-05)
(0.000330228 -0.000217389 -4.6368e-05)
(0.00036296 -0.000156743 -4.63678e-05)
(0.000384664 -9.13341e-05 -4.6368e-05)
(0.000394681 -2.31502e-05 -4.6368e-05)
(0.000392704 4.57369e-05 -4.63678e-05)
(0.000378796 0.000113234 -4.63678e-05)
(0.000353378 0.000177291 -4.63678e-05)
(0.000317224 0.000235961 -4.6368e-05)
(0.00027143 0.000287462 -4.63678e-05)
(0.000217389 0.000330228 -4.63679e-05)
(0.000156743 0.00036296 -4.63678e-05)
(9.13341e-05 0.000384665 -4.63679e-05)
(2.31503e-05 0.000394681 -4.6368e-05)
(-4.57369e-05 0.000392704 -4.63678e-05)
(-0.000576986 0.000695172 -0.000439323)
(-0.000688936 0.000584418 -0.000439323)
(-0.000779953 0.000455907 -0.000439323)
(-0.000847272 0.000313544 -0.000439321)
(-0.000888846 0.000161655 -0.000439321)
(-0.000903413 4.85257e-06 -0.000439321)
(-0.000890532 -0.000152098 -0.000439322)
(-0.000850591 -0.000304426 -0.000439322)
(-0.000784804 -0.000447505 -0.000439322)
(-0.000695172 -0.000576986 -0.000439323)
(-0.000584418 -0.000688936 -0.000439324)
(-0.000455907 -0.000779953 -0.000439323)
(-0.000313544 -0.000847272 -0.000439321)
(-0.000161655 -0.000888846 -0.000439321)
(-4.8525e-06 -0.000903413 -0.000439321)
(0.000152098 -0.000890532 -0.000439322)
(0.000304426 -0.000850591 -0.000439322)
(0.000447505 -0.000784804 -0.000439322)
(0.000576986 -0.000695172 -0.000439323)
(0.000688936 -0.000584418 -0.000439324)
(0.000779953 -0.000455907 -0.000439323)
(0.000847272 -0.000313544 -0.000439321)
(0.000888846 -0.000161655 -0.000439321)
(0.000903413 -4.85249e-06 -0.000439321)
(0.000890532 0.000152098 -0.000439322)
(0.000850591 0.000304426 -0.000439322)
(0.000784804 0.000447505 -0.000439322)
(0.000695172 0.000576986 -0.000439323)
(0.000584418 0.000688936 -0.000439323)
(0.000455907 0.000779953 -0.000439323)
(0.000313544 0.000847272 -0.000439321)
(0.000161655 0.000888846 -0.000439321)
(4.85258e-06 0.000903413 -0.000439321)
(-0.000152098 0.000890532 -0.000439322)
(-0.000304426 0.000850591 -0.000439322)
(-0.000447505 0.000784804 -0.000439322)
(-0.000510021 0.000896987 -0.000319387)
(-0.000658032 0.000794794 -0.000319387)
(-0.00078605 0.000668454 -0.000319388)
(-0.000890184 0.000521804 -0.000319387)
(-0.000967271 0.000359298 -0.000319387)
(-0.00101497 0.000185874 -0.000319387)
(-0.00103182 6.80251e-06 -0.000319387)
(-0.00101733 -0.000172475 -0.000319387)
(-0.000971924 -0.000346513 -0.000319387)
(-0.000896986 -0.000510021 -0.000319387)
(-0.000794794 -0.000658032 -0.000319387)
(-0.000668454 -0.00078605 -0.000319388)
(-0.000521804 -0.000890184 -0.000319387)
(-0.000359298 -0.000967271 -0.000319387)
(-0.000185874 -0.00101497 -0.000319387)
(-6.80245e-06 -0.00103182 -0.000319387)
(0.000172475 -0.00101733 -0.000319387)
(0.000346513 -0.000971924 -0.000319387)
(0.000510021 -0.000896986 -0.000319387)
(0.000658032 -0.000794794 -0.000319387)
(0.00078605 -0.000668454 -0.000319388)
(0.000890184 -0.000521804 -0.000319387)
(0.000967271 -0.000359298 -0.000319387)
(0.00101497 -0.000185874 -0.000319387)
(0.00103182 -6.80243e-06 -0.000319387)
(0.00101733 0.000172475 -0.000319387)
(0.000971924 0.000346513 -0.000319387)
(0.000896986 0.000510021 -0.000319387)
(0.000794794 0.000658032 -0.000319387)
(0.000668454 0.00078605 -0.000319388)
(0.000521804 0.000890184 -0.000319387)
(0.000359298 0.000967271 -0.000319387)
(0.000185874 0.00101497 -0.000319387)
(6.80249e-06 0.00103182 -0.000319387)
(-0.000172475 0.00101733 -0.000319387)
(-0.000346513 0.000971924 -0.000319387)
(-0.000483556 0.0010955 -0.000201618)
(-0.000666441 0.000994888 -0.000201618)
(-0.000829076 0.000864047 -0.000201618)
(-0.00096652 0.000706953 -0.000201618)
(-0.0010746 0.000528378 -0.000201618)
(-0.00115002 0.000333748 -0.000201618)
(-0.00119051 0.000128978 -0.000201618)
(-0.00119482 -7.97108e-05 -0.000201618)
(-0.00116283 -0.000285978 -0.000201618)
(-0.0010955 -0.000483556 -0.000201618)
(-0.000994888 -0.000666441 -0.000201618)
(-0.000864047 -0.000829076 -0.000201618)
(-0.000706953 -0.00096652 -0.000201618)
(-0.000528378 -0.0010746 -0.000201618)
(-0.000333748 -0.00115002 -0.000201618)
(-0.000128978 -0.00119051 -0.000201618)
(7.97109e-05 -0.00119482 -0.000201618)
(0.000285978 -0.00116283 -0.000201618)
(0.000483556 -0.0010955 -0.000201618)
(0.000666441 -0.000994887 -0.000201618)
(0.000829076 -0.000864047 -0.000201618)
(0.00096652 -0.000706953 -0.000201618)
(0.0010746 -0.000528378 -0.000201618)
(0.00115002 -0.000333748 -0.000201618)
(0.00119051 -0.000128978 -0.000201618)
(0.00119482 7.97109e-05 -0.000201618)
(0.00116283 0.000285978 -0.000201618)
(0.0010955 0.000483556 -0.000201618)
(0.000994888 0.000666441 -0.000201618)
(0.000864047 0.000829076 -0.000201618)
(0.000706953 0.00096652 -0.000201618)
(0.000528378 0.0010746 -0.000201618)
(0.000333748 0.00115002 -0.000201618)
(0.000128978 0.00119051 -0.000201618)
(-7.97108e-05 0.00119482 -0.000201618)
(-0.000285978 0.00116283 -0.000201618)
(-0.000880195 0.00120842 -0.000818373)
(-0.00107666 0.00103721 -0.000818373)
(-0.00124042 0.000834494 -0.000818373)
(-0.00136648 0.000606421 -0.000818372)
(-0.00145102 0.000359923 -0.00081837)
(-0.00149148 0.000102488 -0.00081837)
(-0.00148662 -0.000158062 -0.000818371)
(-0.00143658 -0.000413809 -0.000818371)
(-0.0013429 -0.000656983 -0.000818373)
(-0.00120842 -0.000880195 -0.000818373)
(-0.00103721 -0.00107666 -0.000818373)
(-0.000834494 -0.00124042 -0.000818373)
(-0.000606421 -0.00136648 -0.000818372)
(-0.000359923 -0.00145102 -0.000818371)
(-0.000102488 -0.00149148 -0.00081837)
(0.000158062 -0.00148662 -0.000818371)
(0.000413809 -0.00143658 -0.000818371)
(0.000656983 -0.0013429 -0.000818373)
(0.000880195 -0.00120842 -0.000818373)
(0.00107666 -0.00103721 -0.000818373)
(0.00124042 -0.000834494 -0.000818373)
(0.00136648 -0.000606421 -0.000818372)
(0.00145102 -0.000359923 -0.00081837)
(0.00149148 -0.000102488 -0.00081837)
(0.00148662 0.000158062 -0.000818371)
(0.00143658 0.00041381 -0.000818371)
(0.0013429 0.000656983 -0.000818372)
(0.00120842 0.000880195 -0.000818373)
(0.00103721 0.00107666 -0.000818373)
(0.000834494 0.00124042 -0.000818373)
(0.000606421 0.00136648 -0.000818372)
(0.000359923 0.00145102 -0.00081837)
(0.000102488 0.00149148 -0.00081837)
(-0.000158062 0.00148662 -0.00081837)
(-0.000413809 0.00143658 -0.000818371)
(-0.000656983 0.0013429 -0.000818372)
(-0.000843913 0.00149404 -0.000638558)
(-0.00109053 0.0013248 -0.000638558)
(-0.00130401 0.0011153 -0.000638558)
(-0.00147787 0.000871923 -0.000638557)
(-0.00160683 0.000602047 -0.000638557)
(-0.00168696 0.000313878 -0.000638557)
(-0.00171583 1.6172e-05 -0.000638557)
(-0.00169258 -0.000282026 -0.000638557)
(-0.00161789 -0.000571654 -0.000638558)
(-0.00149404 -0.000843912 -0.000638558)
(-0.0013248 -0.00109053 -0.000638558)
(-0.0011153 -0.00130401 -0.000638558)
(-0.000871923 -0.00147787 -0.000638558)
(-0.000602047 -0.00160683 -0.000638557)
(-0.000313878 -0.00168696 -0.000638557)
(-1.61719e-05 -0.00171583 -0.000638557)
(0.000282026 -0.00169258 -0.000638557)
(0.000571654 -0.00161789 -0.000638558)
(0.000843913 -0.00149404 -0.000638558)
(0.00109053 -0.0013248 -0.000638558)
(0.00130401 -0.0011153 -0.000638558)
(0.00147787 -0.000871923 -0.000638558)
(0.00160683 -0.000602047 -0.000638557)
(0.00168696 -0.000313878 -0.000638557)
(0.00171583 -1.61718e-05 -0.000638557)
(0.00169258 0.000282026 -0.000638557)
(0.00161789 0.000571654 -0.000638558)
(0.00149404 0.000843913 -0.000638558)
(0.0013248 0.00109053 -0.000638558)
(0.0011153 0.00130401 -0.000638558)
(0.000871923 0.00147787 -0.000638557)
(0.000602047 0.00160683 -0.000638557)
(0.000313878 0.00168696 -0.000638557)
(1.6172e-05 0.00171583 -0.000638557)
(-0.000282026 0.00169258 -0.000638557)
(-0.000571654 0.00161789 -0.000638558)
(-0.000855969 0.00176468 -0.000464231)
(-0.0011494 0.00158924 -0.000464231)
(-0.0014079 0.0013655 -0.000464231)
(-0.00162363 0.00110028 -0.000464231)
(-0.00179003 0.000801622 -0.000464232)
(-0.00190203 0.000478608 -0.000464232)
(-0.00195625 0.000141052 -0.000464231)
(-0.00195102 -0.000200789 -0.000464231)
(-0.00188651 -0.00053653 -0.000464231)
(-0.00176468 -0.000855969 -0.000464231)
(-0.00158924 -0.0011494 -0.000464231)
(-0.0013655 -0.0014079 -0.000464231)
(-0.00110028 -0.00162363 -0.000464232)
(-0.000801622 -0.00179003 -0.000464232)
(-0.000478608 -0.00190203 -0.000464232)
(-0.000141052 -0.00195625 -0.000464232)
(0.000200789 -0.00195102 -0.000464231)
(0.00053653 -0.00188651 -0.000464231)
(0.000855969 -0.00176468 -0.000464231)
(0.0011494 -0.00158924 -0.000464231)
(0.0014079 -0.0013655 -0.000464231)
(0.00162363 -0.00110028 -0.000464232)
(0.00179003 -0.000801622 -0.000464232)
(0.00190203 -0.000478608 -0.000464232)
(0.00195625 -0.000141052 -0.000464231)
(0.00195102 0.000200789 -0.000464231)
(0.00188651 0.00053653 -0.000464231)
(0.00176468 0.000855969 -0.000464231)
(0.00158924 0.0011494 -0.000464231)
(0.0013655 0.0014079 -0.000464231)
(0.00110028 0.00162363 -0.000464231)
(0.000801622 0.00179003 -0.000464232)
(0.000478608 0.00190203 -0.000464232)
(0.000141052 0.00195625 -0.000464231)
(-0.000200789 0.00195102 -0.000464231)
(-0.00053653 0.00188651 -0.000464231)
(-0.00116395 0.00177371 -0.00123787)
(-0.00145427 0.00154464 -0.00123787)
(-0.0017004 0.00126865 -0.00123787)
(-0.00189487 0.000954101 -0.00123787)
(-0.00203176 0.000610566 -0.00123787)
(-0.00210691 0.000248479 -0.00123787)
(-0.00211805 -0.000121158 -0.00123787)
(-0.00206484 -0.000487114 -0.00123787)
(-0.00194888 -0.000838269 -0.00123787)
(-0.00177371 -0.00116395 -0.00123787)
(-0.00154464 -0.00145427 -0.00123787)
(-0.00126864 -0.0017004 -0.00123787)
(-0.000954101 -0.00189487 -0.00123787)
(-0.000610566 -0.00203176 -0.00123787)
(-0.000248479 -0.00210691 -0.00123787)
(0.000121158 -0.00211805 -0.00123787)
(0.000487114 -0.00206484 -0.00123787)
(0.000838269 -0.00194888 -0.00123787)
(0.00116395 -0.00177371 -0.00123787)
(0.00145427 -0.00154464 -0.00123787)
(0.0017004 -0.00126864 -0.00123787)
(0.00189487 -0.000954101 -0.00123787)
(0.00203176 -0.000610566 -0.00123787)
(0.00210691 -0.000248479 -0.00123787)
(0.00211805 0.000121158 -0.00123787)
(0.00206484 0.000487114 -0.00123787)
(0.00194888 0.000838269 -0.00123787)
(0.00177371 0.00116395 -0.00123787)
(0.00154464 0.00145427 -0.00123787)
(0.00126864 0.0017004 -0.00123787)
(0.000954101 0.00189487 -0.00123787)
(0.000610566 0.00203176 -0.00123787)
(0.000248479 0.00210692 -0.00123787)
(-0.000121158 0.00211805 -0.00123787)
(-0.000487114 0.00206484 -0.00123787)
(-0.000838269 0.00194888 -0.00123787)
(-0.00116472 0.00208451 -0.00101709)
(-0.001509 0.00185059 -0.00101709)
(-0.00180742 0.00156044 -0.00101709)
(-0.00205093 0.00122287 -0.00101709)
(-0.00223212 0.000848156 -0.00101709)
(-0.00234549 0.000447667 -0.00101709)
(-0.0023876 3.35754e-05 -0.00101709)
(-0.00235715 -0.000381537 -0.00101709)
(-0.00225509 -0.000785056 -0.00101709)
(-0.00208451 -0.00116472 -0.00101709)
(-0.00185059 -0.001509 -0.00101709)
(-0.00156044 -0.00180742 -0.00101709)
(-0.00122287 -0.00205093 -0.00101709)
(-0.000848156 -0.00223212 -0.00101709)
(-0.000447667 -0.00234549 -0.00101709)
(-3.35752e-05 -0.0023876 -0.00101709)
(0.000381537 -0.00235715 -0.00101709)
(0.000785056 -0.00225509 -0.00101709)
(0.00116472 -0.00208451 -0.00101709)
(0.001509 -0.00185059 -0.00101709)
(0.00180742 -0.00156044 -0.00101709)
(0.00205093 -0.00122287 -0.00101709)
(0.00223212 -0.000848156 -0.00101709)
(0.00234549 -0.000447667 -0.00101709)
(0.0023876 -3.35752e-05 -0.00101709)
(0.00235715 0.000381537 -0.00101709)
(0.00225509 0.000785056 -0.00101709)
(0.00208451 0.00116472 -0.00101709)
(0.00185059 0.001509 -0.00101709)
(0.00156044 0.00180742 -0.00101709)
(0.00122287 0.00205093 -0.00101709)
(0.000848156 0.00223212 -0.00101709)
(0.000447667 0.00234549 -0.00101709)
(3.35753e-05 0.0023876 -0.00101709)
(-0.000381537 0.00235715 -0.00101709)
(-0.000785056 0.00225509 -0.00101709)
(-0.00121864 0.00236554 -0.000806611)
(-0.0016109 0.00211799 -0.000806611)
(-0.00195421 0.00180608 -0.000806611)
(-0.00223814 0.0014393 -0.000806611)
(-0.00245407 0.00102878 -0.000806611)
(-0.00259543 0.000587008 -0.000806611)
(-0.00265794 0.000127396 -0.000806611)
(-0.00263968 -0.000336085 -0.000806612)
(-0.00254122 -0.000789355 -0.000806611)
(-0.00236554 -0.00121864 -0.000806611)
(-0.00211799 -0.0016109 -0.000806611)
(-0.00180608 -0.00195421 -0.000806611)
(-0.0014393 -0.00223814 -0.000806611)
(-0.00102878 -0.00245407 -0.000806611)
(-0.000587008 -0.00259543 -0.000806611)
(-0.000127396 -0.00265794 -0.000806611)
(0.000336085 -0.00263968 -0.000806612)
(0.000789355 -0.00254122 -0.000806611)
(0.00121864 -0.00236554 -0.000806611)
(0.0016109 -0.00211799 -0.000806611)
(0.00195421 -0.00180608 -0.000806611)
(0.00223814 -0.0014393 -0.000806611)
(0.00245407 -0.00102878 -0.000806611)
(0.00259543 -0.000587008 -0.000806611)
(0.00265794 -0.000127396 -0.000806611)
(0.00263968 0.000336085 -0.000806612)
(0.00254122 0.000789355 -0.000806611)
(0.00236554 0.00121864 -0.000806611)
(0.00211799 0.0016109 -0.000806611)
(0.00180608 0.00195421 -0.000806611)
(0.0014393 0.00223814 -0.000806611)
(0.00102878 0.00245407 -0.000806611)
(0.000587008 0.00259543 -0.000806611)
(0.000127396 0.00265794 -0.000806611)
(-0.000336085 0.00263968 -0.000806611)
(-0.000789355 0.00254122 -0.000806611)
(-0.00144279 0.00237748 -0.00168095)
(-0.00183372 0.00209082 -0.00168095)
(-0.00216893 0.00174063 -0.00168095)
(-0.00243823 0.00133756 -0.00168095)
(-0.00263346 0.000893843 -0.00168095)
(-0.00274866 0.000422968 -0.00168095)
(-0.00278035 -6.07579e-05 -0.00168095)
(-0.00272756 -0.000542639 -0.00168095)
(-0.00259189 -0.00100803 -0.00168095)
(-0.00237748 -0.00144279 -0.00168095)
(-0.00209082 -0.00183372 -0.00168095)
(-0.00174063 -0.00216893 -0.00168095)
(-0.00133756 -0.00243823 -0.00168095)
(-0.000893842 -0.00263346 -0.00168095)
(-0.000422968 -0.00274866 -0.00168095)
(6.07581e-05 -0.00278035 -0.00168095)
(0.000542639 -0.00272756 -0.00168095)
(0.00100803 -0.00259189 -0.00168095)
(0.00144279 -0.00237748 -0.00168095)
(0.00183372 -0.00209082 -0.00168095)
(0.00216893 -0.00174063 -0.00168095)
(0.00243823 -0.00133756 -0.00168095)
(0.00263346 -0.000893842 -0.00168095)
(0.00274866 -0.000422968 -0.00168095)
(0.00278035 6.07581e-05 -0.00168095)
(0.00272756 0.000542639 -0.00168095)
(0.00259189 0.00100803 -0.00168095)
(0.00237748 0.00144279 -0.00168095)
(0.00209082 0.00183372 -0.00168095)
(0.00174063 0.00216893 -0.00168095)
(0.00133756 0.00243823 -0.00168095)
(0.000893842 0.00263346 -0.00168095)
(0.000422968 0.00274866 -0.00168095)
(-6.07579e-05 0.00278035 -0.00168095)
(-0.000542639 0.00272756 -0.00168095)
(-0.00100803 0.00259189 -0.00168095)
(-0.00147502 0.00266034 -0.00143481)
(-0.00191457 0.00236379 -0.00143481)
(-0.00229596 0.00199542 -0.00143481)
(-0.00260757 0.00156641 -0.00143481)
(-0.00283996 0.00108982 -0.00143481)
(-0.00298606 0.000580105 -0.00143481)
(-0.00304143 5.27672e-05 -0.00143481)
(-0.00300439 -0.000476174 -0.00143481)
(-0.00287606 -0.000990647 -0.00143481)
(-0.00266034 -0.00147502 -0.00143481)
(-0.00236379 -0.00191457 -0.00143481)
(-0.00199542 -0.00229596 -0.00143481)
(-0.00156641 -0.00260757 -0.00143481)
(-0.00108982 -0.00283996 -0.00143481)
(-0.000580105 -0.00298606 -0.00143481)
(-5.2767e-05 -0.00304143 -0.00143481)
(0.000476174 -0.00300439 -0.00143481)
(0.000990647 -0.00287606 -0.00143481)
(0.00147502 -0.00266034 -0.00143481)
(0.00191457 -0.00236379 -0.00143481)
(0.00229596 -0.00199542 -0.00143481)
(0.00260757 -0.00156641 -0.00143481)
(0.00283996 -0.00108982 -0.00143481)
(0.00298606 -0.000580105 -0.00143481)
(0.00304143 -5.2767e-05 -0.00143481)
(0.00300439 0.000476174 -0.00143481)
(0.00287606 0.000990647 -0.00143481)
(0.00266034 0.00147502 -0.00143481)
(0.00236379 0.00191457 -0.00143481)
(0.00199542 0.00229596 -0.00143481)
(0.00156641 0.00260757 -0.00143481)
(0.00108982 0.00283996 -0.00143481)
(0.000580105 0.00298606 -0.00143481)
(5.27672e-05 0.00304143 -0.00143481)
(-0.000476174 0.00300439 -0.00143481)
(-0.000990647 0.00287606 -0.00143481)
(-0.00156096 0.00289985 -0.00120395)
(-0.0020408 0.00258474 -0.00120395)
(-0.00245863 0.00219109 -0.00120395)
(-0.00280175 0.00173087 -0.00120395)
(-0.00305975 0.00121805 -0.00120395)
(-0.00322478 0.000668226 -0.00120395)
(-0.00329182 9.80973e-05 -0.00120395)
(-0.00325885 -0.000475013 -0.00120395)
(-0.00312685 -0.00103369 -0.00120395)
(-0.00289985 -0.00156096 -0.00120395)
(-0.00258474 -0.0020408 -0.00120395)
(-0.00219109 -0.00245863 -0.00120395)
(-0.00173087 -0.00280175 -0.00120395)
(-0.00121805 -0.00305975 -0.00120395)
(-0.000668226 -0.00322478 -0.00120395)
(-9.80971e-05 -0.00329182 -0.00120395)
(0.000475013 -0.00325885 -0.00120395)
(0.00103369 -0.00312685 -0.00120395)
(0.00156096 -0.00289985 -0.00120395)
(0.0020408 -0.00258474 -0.00120395)
(0.00245863 -0.00219109 -0.00120395)
(0.00280175 -0.00173086 -0.00120395)
(0.00305975 -0.00121805 -0.00120395)
(0.00322478 -0.000668226 -0.00120395)
(0.00329182 -9.80971e-05 -0.00120395)
(0.00325885 0.000475013 -0.00120395)
(0.00312685 0.00103369 -0.00120395)
(0.00289985 0.00156096 -0.00120395)
(0.00258474 0.0020408 -0.00120395)
(0.00219109 0.00245863 -0.00120395)
(0.00173087 0.00280175 -0.00120395)
(0.00121805 0.00305975 -0.00120395)
(0.000668226 0.00322478 -0.00120395)
(9.80973e-05 0.00329182 -0.00120395)
(-0.000475013 0.00325885 -0.00120395)
(-0.00103369 0.00312685 -0.00120395)
(-0.00173136 0.00298974 -0.00214317)
(-0.00222422 0.00264367 -0.00214317)
(-0.0026495 0.00221728 -0.00214317)
(-0.00299427 0.00172351 -0.00214317)
(-0.00324807 0.00117737 -0.00214317)
(-0.00340317 0.000595467 -0.00214317)
(-0.00345487 -4.53446e-06 -0.00214317)
(-0.0034016 -0.000604399 -0.00214317)
(-0.00324497 -0.0011859 -0.00214317)
(-0.00298974 -0.00173136 -0.00214317)
(-0.00264367 -0.00222422 -0.00214317)
(-0.00221728 -0.0026495 -0.00214317)
(-0.00172351 -0.00299427 -0.00214317)
(-0.00117737 -0.00324807 -0.00214317)
(-0.000595466 -0.00340317 -0.00214317)
(4.53472e-06 -0.00345487 -0.00214317)
(0.000604399 -0.0034016 -0.00214317)
(0.0011859 -0.00324497 -0.00214317)
(0.00173136 -0.00298974 -0.00214317)
(0.00222422 -0.00264367 -0.00214317)
(0.0026495 -0.00221728 -0.00214317)
(0.00299428 -0.00172351 -0.00214317)
(0.00324807 -0.00117737 -0.00214317)
(0.00340317 -0.000595466 -0.00214317)
(0.00345487 4.53473e-06 -0.00214317)
(0.0034016 0.000604399 -0.00214317)
(0.00324497 0.0011859 -0.00214317)
(0.00298974 0.00173136 -0.00214317)
(0.00264367 0.00222422 -0.00214317)
(0.00221728 0.0026495 -0.00214317)
(0.00172351 0.00299428 -0.00214317)
(0.00117737 0.00324807 -0.00214317)
(0.000595467 0.00340317 -0.00214317)
(-4.53448e-06 0.00345487 -0.00214317)
(-0.000604399 0.0034016 -0.00214317)
(-0.0011859 0.00324497 -0.00214317)
(-0.00178121 0.00320763 -0.00187898)
(-0.00231114 0.0028496 -0.00187898)
(-0.00277086 0.00240498 -0.00187898)
(-0.00314638 0.00188729 -0.00187898)
(-0.00342631 0.00131225 -0.00187898)
(-0.00360212 0.000697344 -0.00187898)
(-0.00366849 6.12481e-05 -0.00187898)
(-0.00362339 -0.000576709 -0.00187898)
(-0.0034682 -0.00119714 -0.00187898)
(-0.00320763 -0.00178121 -0.00187898)
(-0.0028496 -0.00231114 -0.00187898)
(-0.00240498 -0.00277086 -0.00187898)
(-0.00188729 -0.00314638 -0.00187898)
(-0.00131225 -0.00342631 -0.00187898)
(-0.000697344 -0.00360212 -0.00187898)
(-6.12478e-05 -0.00366849 -0.00187898)
(0.00057671 -0.00362339 -0.00187898)
(0.00119715 -0.0034682 -0.00187898)
(0.00178121 -0.00320763 -0.00187898)
(0.00231114 -0.0028496 -0.00187898)
(0.00277086 -0.00240498 -0.00187898)
(0.00314638 -0.00188729 -0.00187898)
(0.00342631 -0.00131225 -0.00187898)
(0.00360212 -0.000697344 -0.00187898)
(0.00366849 -6.12478e-05 -0.00187898)
(0.00362339 0.00057671 -0.00187898)
(0.0034682 0.00119715 -0.00187898)
(0.00320763 0.00178121 -0.00187898)
(0.0028496 0.00231114 -0.00187898)
(0.00240498 0.00277086 -0.00187898)
(0.00188729 0.00314638 -0.00187898)
(0.00131225 0.00342631 -0.00187898)
(0.000697344 0.00360212 -0.00187898)
(6.12481e-05 0.00366849 -0.00187898)
(-0.00057671 0.00362339 -0.00187898)
(-0.00119715 0.0034682 -0.00187898)
(-0.00188189 0.00337171 -0.00163459)
(-0.00243879 0.0029937 -0.00163459)
(-0.00292159 0.00252473 -0.00163459)
(-0.00331562 0.00197905 -0.00163459)
(-0.00360891 0.00137323 -0.00163459)
(-0.00379254 0.000725686 -0.00163459)
(-0.00386093 5.60949e-05 -0.00163459)
(-0.00381202 -0.000615203 -0.00163459)
(-0.00364728 -0.00126781 -0.00163459)
(-0.00337171 -0.00188189 -0.00163459)
(-0.0029937 -0.00243879 -0.00163459)
(-0.00252473 -0.00292159 -0.00163459)
(-0.00197905 -0.00331562 -0.00163459)
(-0.00137323 -0.00360891 -0.00163459)
(-0.000725685 -0.00379254 -0.00163459)
(-5.60946e-05 -0.00386093 -0.00163459)
(0.000615203 -0.00381202 -0.00163459)
(0.00126781 -0.00364728 -0.00163459)
(0.00188189 -0.00337171 -0.00163459)
(0.00243879 -0.0029937 -0.00163459)
(0.00292159 -0.00252473 -0.00163459)
(0.00331562 -0.00197905 -0.00163459)
(0.00360891 -0.00137323 -0.00163459)
(0.00379254 -0.000725685 -0.00163459)
(0.00386093 -5.60946e-05 -0.00163459)
(0.00381202 0.000615203 -0.00163459)
(0.00364728 0.00126781 -0.00163459)
(0.00337171 0.00188189 -0.00163459)
(0.0029937 0.00243879 -0.00163459)
(0.00252473 0.00292159 -0.00163459)
(0.00197905 0.00331562 -0.00163459)
(0.00137323 0.00360891 -0.00163459)
(0.000725686 0.00379254 -0.00163459)
(5.60949e-05 0.00386093 -0.00163459)
(-0.000615203 0.00381202 -0.00163459)
(-0.00126781 0.00364728 -0.00163459)
(-0.0020394 0.0035712 -0.00262512)
(-0.00262855 0.00316281 -0.00262512)
(-0.00313784 0.00265832 -0.00262512)
(-0.00355178 0.00207305 -0.00262512)
(-0.0038578 0.0014248 -0.00262512)
(-0.0040466 0.000733252 -0.00262512)
(-0.00411245 1.94269e-05 -0.00262512)
(-0.00405335 -0.00069499 -0.00262512)
(-0.00387109 -0.00138829 -0.00262512)
(-0.0035712 -0.0020394 -0.00262512)
(-0.00316281 -0.00262855 -0.00262512)
(-0.00265832 -0.00313784 -0.00262512)
(-0.00207305 -0.00355178 -0.00262512)
(-0.0014248 -0.0038578 -0.00262512)
(-0.000733251 -0.0040466 -0.00262512)
(-1.94265e-05 -0.00411245 -0.00262512)
(0.00069499 -0.00405335 -0.00262512)
(0.00138829 -0.00387109 -0.00262512)
(0.0020394 -0.0035712 -0.00262512)
(0.00262855 -0.00316281 -0.00262512)
(0.00313784 -0.00265832 -0.00262512)
(0.00355178 -0.00207305 -0.00262512)
(0.0038578 -0.0014248 -0.00262512)
(0.0040466 -0.000733251 -0.00262512)
(0.00411246 -1.94266e-05 -0.00262512)
(0.00405335 0.00069499 -0.00262512)
(0.00387109 0.00138829 -0.00262512)
(0.0035712 0.0020394 -0.00262512)
(0.00316281 0.00262855 -0.00262512)
(0.00265832 0.00313784 -0.00262512)
(0.00207305 0.00355178 -0.00262512)
(0.0014248 0.0038578 -0.00262512)
(0.000733252 0.00404661 -0.00262512)
(1.94268e-05 0.00411246 -0.00262512)
(-0.00069499 0.00405335 -0.00262512)
(-0.00138829 0.00387109 -0.00262512)
(-0.00208915 0.0037026 -0.00234293)
(-0.00270036 0.00328357 -0.00234293)
(-0.00322952 0.00276477 -0.00234293)
(-0.00366056 0.00216197 -0.00234293)
(-0.00398036 0.00149347 -0.00234293)
(-0.00417923 0.000779603 -0.00234293)
(-0.00425112 4.20415e-05 -0.00234293)
(-0.00419383 -0.000696796 -0.00234293)
(-0.00400912 -0.00141446 -0.00234293)
(-0.0037026 -0.00208915 -0.00234293)
(-0.00328357 -0.00270036 -0.00234293)
(-0.00276477 -0.00322952 -0.00234293)
(-0.00216197 -0.00366056 -0.00234293)
(-0.00149347 -0.00398036 -0.00234293)
(-0.000779602 -0.00417923 -0.00234293)
(-4.20412e-05 -0.00425112 -0.00234293)
(0.000696796 -0.00419383 -0.00234293)
(0.00141446 -0.00400912 -0.00234293)
(0.00208915 -0.0037026 -0.00234293)
(0.00270036 -0.00328357 -0.00234293)
(0.00322952 -0.00276477 -0.00234293)
(0.00366056 -0.00216197 -0.00234293)
(0.00398036 -0.00149347 -0.00234293)
(0.00417923 -0.000779602 -0.00234293)
(0.00425112 -4.20412e-05 -0.00234293)
(0.00419383 0.000696796 -0.00234293)
(0.00400912 0.00141446 -0.00234293)
(0.0037026 0.00208915 -0.00234293)
(0.00328357 0.00270036 -0.00234293)
(0.00276477 0.00322952 -0.00234293)
(0.00216197 0.00366056 -0.00234293)
(0.00149347 0.00398036 -0.00234293)
(0.000779603 0.00417923 -0.00234293)
(4.20415e-05 0.00425112 -0.00234293)
(-0.000696796 0.00419383 -0.00234293)
(-0.00141446 0.00400912 -0.00234293)
(-0.0021842 0.00377448 -0.00208422)
(-0.00280645 0.00333786 -0.00208422)
(-0.00334342 0.00279981 -0.00208422)
(-0.00377881 0.0021767 -0.00208422)
(-0.00409938 0.00148745 -0.00208422)
(-0.0042954 0.000753 -0.00208422)
(-0.0043609 -4.32787e-06 -0.00208422)
(-0.00429389 -0.000761524 -0.00208422)
(-0.00409642 -0.00149558 -0.00208422)
(-0.00377448 -0.0021842 -0.00208422)
(-0.00333786 -0.00280645 -0.00208422)
(-0.00279981 -0.00334342 -0.00208422)
(-0.0021767 -0.00377881 -0.00208422)
(-0.00148745 -0.00409938 -0.00208422)
(-0.000753 -0.0042954 -0.00208422)
(4.32815e-06 -0.0043609 -0.00208422)
(0.000761524 -0.00429389 -0.00208422)
(0.00149558 -0.00409642 -0.00208422)
(0.0021842 -0.00377448 -0.00208422)
(0.00280645 -0.00333786 -0.00208422)
(0.00334342 -0.00279981 -0.00208422)
(0.00377881 -0.0021767 -0.00208422)
(0.00409938 -0.00148745 -0.00208422)
(0.0042954 -0.000753 -0.00208422)
(0.0043609 4.32814e-06 -0.00208422)
(0.00429389 0.000761524 -0.00208422)
(0.00409642 0.00149558 -0.00208422)
(0.00377448 0.0021842 -0.00208422)
(0.00333786 0.00280645 -0.00208422)
(0.00279981 0.00334342 -0.00208422)
(0.0021767 0.00377881 -0.00208422)
(0.00148745 0.00409938 -0.00208422)
(0.000753 0.0042954 -0.00208422)
(-4.32787e-06 0.0043609 -0.00208422)
(-0.000761524 0.00429389 -0.00208422)
(-0.00149558 0.00409642 -0.00208422)
(-0.00236534 0.00407498 -0.00312488)
(-0.00303702 0.00360234 -0.00312488)
(-0.00361642 0.00302023 -0.00312488)
(-0.00408594 0.00234636 -0.00312488)
(-0.0044313 0.0016012 -0.00312488)
(-0.00464203 0.00080739 -0.00312488)
(-0.00471171 -1.09559e-05 -0.00312488)
(-0.00463822 -0.00082897 -0.00312488)