/*--------------------------------*- C++ -*----------------------------------*\
| =========                 |                                                 |
| \\      /  F ield         | OpenFOAM: The Open Source CFD Toolbox           |
|  \\    /   O peration     | Version:  2312                                  |
|   \\  /    A nd           | Website:  www.openfoam.com                      |
|    \\/     M anipulation  |                                                 |
\*---------------------------------------------------------------------------*/
FoamFile
{
    version     2.0;
    format      ascii;
    arch        "LSB;label=32;scalar=64";
    class       volVectorField;
    location    "0.8";
    object      D_0_0;
}
// * * * * * * * * * * * * * * * * * * * * * * * * * * * * * * * * * * * * * //

dimensions      [0 1 0 0 0 0 0];

internalField   nonuniform List<vector> 
1620
(
(-0.000254041 0.000223964 -0.000130209)
(-0.000289072 0.000176447 -0.00013021)
(-0.000315321 0.00012357 -0.000130209)
(-0.000331988 6.69387e-05 -0.000130209)
(-0.000338568 8.27324e-06 -0.000130209)
(-0.000334861 -5.06445e-05 -0.000130209)
(-0.00032098 -0.000108023 -0.000130209)
(-0.000297345 -0.000162119 -0.000130209)
(-0.000264676 -0.00021129 -0.000130209)
(-0.000223964 -0.000254041 -0.000130209)
(-0.000176447 -0.000289072 -0.00013021)
(-0.00012357 -0.000315321 -0.000130209)
(-6.69387e-05 -0.000331988 -0.000130209)
(-8.27321e-06 -0.000338568 -0.000130209)
(5.06445e-05 -0.000334861 -0.000130209)
(0.000108023 -0.00032098 -0.000130209)
(0.000162119 -0.000297345 -0.000130209)
(0.00021129 -0.000264676 -0.000130209)
(0.000254041 -0.000223964 -0.000130209)
(0.000289072 -0.000176447 -0.00013021)
(0.000315321 -0.00012357 -0.000130209)
(0.000331988 -6.69387e-05 -0.000130209)
(0.000338568 -8.27321e-06 -0.000130209)
(0.000334861 5.06445e-05 -0.000130209)
(0.00032098 0.000108023 -0.000130209)
(0.000297345 0.000162119 -0.000130209)
(0.000264676 0.00021129 -0.000130209)
(0.000223964 0.000254041 -0.000130209)
(0.000176447 0.000289072 -0.00013021)
(0.00012357 0.000315321 -0.000130209)
(6.69387e-05 0.000331988 -0.000130209)
(8.27325e-06 0.000338568 -0.000130209)
(-5.06445e-05 0.000334861 -0.000130209)
(-0.000108023 0.00032098 -0.000130209)
(-0.000162119 0.000297345 -0.000130209)
(-0.00021129 0.000264676 -0.000130209)
(-0.000168693 0.000301306 -8.80891e-05)
(-0.000218452 0.000267435 -8.80893e-05)
(-0.000261572 0.000225439 -8.80892e-05)
(-0.000296745 0.000176592 -8.8089e-05)
(-0.000322903 0.00012238 -8.80891e-05)
(-0.000339248 6.44496e-05 -8.80891e-05)
(-0.000345286 4.56072e-06 -8.8089e-05)
(-0.000340832 -5.54667e-05 -8.8089e-05)
(-0.000326022 -0.000113809 -8.80891e-05)
(-0.000301306 -0.000168693 -8.80892e-05)
(-0.000267435 -0.000218452 -8.80893e-05)
(-0.000225439 -0.000261572 -8.80892e-05)
(-0.000176592 -0.000296745 -8.8089e-05)
(-0.00012238 -0.000322903 -8.80891e-05)
(-6.44496e-05 -0.000339248 -8.80891e-05)
(-4.5607e-06 -0.000345286 -8.8089e-05)
(5.54667e-05 -0.000340832 -8.8089e-05)
(0.000113809 -0.000326022 -8.80892e-05)
(0.000168693 -0.000301306 -8.80892e-05)
(0.000218452 -0.000267435 -8.80893e-05)
(0.000261572 -0.000225439 -8.80892e-05)
(0.000296746 -0.000176592 -8.8089e-05)
(0.000322903 -0.00012238 -8.80891e-05)
(0.000339248 -6.44496e-05 -8.80891e-05)
(0.000345286 -4.5607e-06 -8.8089e-05)
(0.000340832 5.54667e-05 -8.8089e-05)
(0.000326022 0.000113809 -8.80891e-05)
(0.000301306 0.000168693 -8.80892e-05)
(0.000267435 0.000218452 -8.80893e-05)
(0.000225439 0.000261572 -8.80892e-05)
(0.000176592 0.000296746 -8.8089e-05)
(0.00012238 0.000322903 -8.80891e-05)
(6.44496e-05 0.000339248 -8.80891e-05)
(4.56072e-06 0.000345286 -8.8089e-05)
(-5.54667e-05 0.000340832 -8.8089e-05)
(-0.000113809 0.000326022 -8.80891e-05)
(-0.000113436 0.000378378 -4.58633e-05)
(-0.000177418 0.000352931 -4.58633e-05)
(-0.000236008 0.000316762 -4.58635e-05)
(-0.000287428 0.000270967 -4.58633e-05)
(-0.000330115 0.000216939 -4.58635e-05)
(-0.00036277 0.00015632 -4.58633e-05)
(-0.000384404 9.09501e-05 -4.58635e-05)
(-0.000394357 2.28174e-05 -4.58636e-05)
(-0.000392327 -4.60085e-05 -4.58633e-05)
(-0.000378378 -0.000113436 -4.58633e-05)
(-0.000352931 -0.000177418 -4.58633e-05)
(-0.000316762 -0.000236008 -4.58635e-05)
(-0.000270967 -0.000287428 -4.58633e-05)
(-0.000216939 -0.000330115 -4.58635e-05)
(-0.00015632 -0.00036277 -4.58633e-05)
(-9.09501e-05 -0.000384404 -4.58635e-05)
(-2.28174e-05 -0.000394357 -4.58636e-05)
(4.60085e-05 -0.000392327 -4.58634e-05)
(0.000113436 -0.000378378 -4.58633e-05)
(0.000177418 -0.000352931 -4.58633e-05)
(0.000236008 -0.000316762 -4.58635e-05)
(0.000287428 -0.000270967 -4.58633e-05)
(0.000330115 -0.000216939 -4.58635e-05)
(0.00036277 -0.00015632 -4.58633e-05)
(0.000384404 -9.09501e-05 -4.58635e-05)
(0.000394357 -2.28174e-05 -4.58636e-05)
(0.000392327 4.60086e-05 -4.58633e-05)
(0.000378378 0.000113436 -4.58633e-05)
(0.000352931 0.000177418 -4.58633e-05)
(0.000316762 0.000236008 -4.58635e-05)
(0.000270967 0.000287428 -4.58633e-05)
(0.000216939 0.000330115 -4.58635e-05)
(0.00015632 0.00036277 -4.58633e-05)
(9.09501e-05 0.000384404 -4.58635e-05)
(2.28174e-05 0.000394357 -4.58635e-05)
(-4.60085e-05 0.000392327 -4.58633e-05)
(-0.000575518 0.000699192 -0.00043572)
(-0.000688188 0.000588631 -0.000435721)
(-0.000779948 0.000460186 -0.000435721)
(-0.00084801 0.000317759 -0.000435719)
(-0.000890305 0.000165678 -0.000435718)
(-0.000905548 8.56092e-06 -0.000435719)
(-0.000893278 -0.000148816 -0.000435719)
(-0.000853865 -0.000301671 -0.000435719)
(-0.000788507 -0.000445361 -0.00043572)
(-0.000699191 -0.000575518 -0.00043572)
(-0.000588631 -0.000688188 -0.000435721)
(-0.000460186 -0.000779948 -0.000435721)
(-0.000317759 -0.00084801 -0.000435719)
(-0.000165677 -0.000890305 -0.000435718)
(-8.56085e-06 -0.000905548 -0.000435719)
(0.000148816 -0.000893278 -0.000435719)
(0.000301672 -0.000853865 -0.000435719)
(0.000445361 -0.000788507 -0.00043572)
(0.000575518 -0.000699191 -0.00043572)
(0.000688188 -0.000588631 -0.000435721)
(0.000779948 -0.000460186 -0.000435721)
(0.00084801 -0.000317759 -0.000435719)
(0.000890305 -0.000165677 -0.000435718)
(0.000905548 -8.56084e-06 -0.000435719)
(0.000893278 0.000148816 -0.000435719)
(0.000853865 0.000301672 -0.000435719)
(0.000788507 0.000445361 -0.00043572)
(0.000699191 0.000575518 -0.00043572)
(0.000588631 0.000688188 -0.000435721)
(0.000460186 0.000779948 -0.000435721)
(0.000317759 0.00084801 -0.000435719)
(0.000165678 0.000890305 -0.000435718)
(8.56093e-06 0.000905548 -0.000435719)
(-0.000148816 0.000893278 -0.000435719)
(-0.000301671 0.000853865 -0.000435719)
(-0.000445361 0.000788507 -0.00043572)
(-0.000509059 0.000898604 -0.000316704)
(-0.000657365 0.000796554 -0.000316704)
(-0.000785699 0.000670303 -0.000316704)
(-0.000890159 0.000523685 -0.000316704)
(-0.000967573 0.000361155 -0.000316703)
(-0.00101559 0.00018765 -0.000316703)
(-0.00103274 8.44455e-06 -0.000316703)
(-0.00101852 -0.000171018 -0.000316703)
(-0.000973349 -0.000345284 -0.000316704)
(-0.000898603 -0.000509059 -0.000316704)
(-0.000796554 -0.000657365 -0.000316704)
(-0.000670303 -0.000785699 -0.000316704)
(-0.000523685 -0.000890159 -0.000316704)
(-0.000361155 -0.000967573 -0.000316703)
(-0.00018765 -0.00101559 -0.000316703)
(-8.44449e-06 -0.00103274 -0.000316703)
(0.000171018 -0.00101852 -0.000316703)
(0.000345284 -0.000973349 -0.000316704)
(0.000509059 -0.000898603 -0.000316704)
(0.000657365 -0.000796554 -0.000316704)
(0.000785699 -0.000670303 -0.000316704)
(0.000890159 -0.000523685 -0.000316704)
(0.000967573 -0.000361155 -0.000316703)
(0.00101559 -0.00018765 -0.000316703)
(0.00103274 -8.44448e-06 -0.000316703)
(0.00101852 0.000171018 -0.000316703)
(0.000973349 0.000345284 -0.000316704)
(0.000898603 0.000509059 -0.000316704)
(0.000796554 0.000657365 -0.000316704)
(0.000670303 0.000785699 -0.000316704)
(0.000523685 0.000890159 -0.000316704)
(0.000361155 0.000967573 -0.000316703)
(0.00018765 0.00101559 -0.000316703)
(8.44454e-06 0.00103274 -0.000316703)
(-0.000171018 0.00101852 -0.000316703)
(-0.000345284 0.000973349 -0.000316704)
(-0.000482798 0.00109462 -0.000199855)
(-0.000665542 0.000994154 -0.000199854)
(-0.000828063 0.000863481 -0.000199855)
(-0.000965424 0.000706571 -0.000199855)
(-0.00107345 0.000528192 -0.000199855)
(-0.00114886 0.000333764 -0.000199854)
(-0.00118937 0.000129195 -0.000199855)
(-0.00119373 -7.92991e-05 -0.000199855)
(-0.00116183 -0.000285384 -0.000199855)
(-0.00109462 -0.000482798 -0.000199855)
(-0.000994154 -0.000665542 -0.000199854)
(-0.00086348 -0.000828063 -0.000199855)
(-0.000706571 -0.000965424 -0.000199855)
(-0.000528192 -0.00107345 -0.000199855)
(-0.000333764 -0.00114886 -0.000199855)
(-0.000129195 -0.00118937 -0.000199855)
(7.92992e-05 -0.00119373 -0.000199855)
(0.000285384 -0.00116183 -0.000199855)
(0.000482798 -0.00109462 -0.000199855)
(0.000665542 -0.000994154 -0.000199854)
(0.000828063 -0.00086348 -0.000199855)
(0.000965424 -0.000706571 -0.000199855)
(0.00107345 -0.000528192 -0.000199855)
(0.00114886 -0.000333764 -0.000199854)
(0.00118937 -0.000129195 -0.000199855)
(0.00119373 7.92992e-05 -0.000199855)
(0.00116183 0.000285384 -0.000199855)
(0.00109462 0.000482798 -0.000199855)
(0.000994154 0.000665542 -0.000199854)
(0.00086348 0.000828063 -0.000199855)
(0.000706571 0.000965424 -0.000199855)
(0.000528192 0.00107345 -0.000199855)
(0.000333764 0.00114886 -0.000199854)
(0.000129195 0.00118937 -0.000199855)
(-7.92992e-05 0.00119373 -0.000199855)
(-0.000285384 0.00116183 -0.000199855)
(-0.000878523 0.00121399 -0.000812292)
(-0.00107598 0.00104299 -0.000812292)
(-0.00124075 0.000840304 -0.000812292)
(-0.00136782 0.000612084 -0.000812291)
(-0.00145333 0.000365267 -0.000812289)
(-0.00149467 0.000107351 -0.000812289)
(-0.00149061 -0.000153828 -0.00081229)
(-0.00144125 -0.000410332 -0.00081229)
(-0.0013481 -0.000654369 -0.000812291)
(-0.00121399 -0.000878523 -0.000812292)
(-0.00104299 -0.00107598 -0.000812292)
(-0.000840304 -0.00124075 -0.000812292)
(-0.000612084 -0.00136782 -0.000812291)
(-0.000365267 -0.00145333 -0.00081229)
(-0.000107351 -0.00149467 -0.000812289)
(0.000153828 -0.00149061 -0.00081229)
(0.000410332 -0.00144125 -0.00081229)
(0.000654369 -0.0013481 -0.000812292)
(0.000878523 -0.00121399 -0.000812292)
(0.00107598 -0.00104299 -0.000812292)
(0.00124075 -0.000840304 -0.000812292)
(0.00136782 -0.000612084 -0.000812291)
(0.00145333 -0.000365267 -0.000812289)
(0.00149467 -0.000107351 -0.000812289)
(0.00149061 0.000153828 -0.00081229)
(0.00144125 0.000410332 -0.00081229)
(0.0013481 0.000654369 -0.000812291)
(0.00121399 0.000878523 -0.000812292)
(0.00104299 0.00107598 -0.000812292)
(0.000840304 0.00124075 -0.000812292)
(0.000612084 0.00136782 -0.000812291)
(0.000365267 0.00145333 -0.000812289)
(0.000107351 0.00149467 -0.000812289)
(-0.000153828 0.00149061 -0.000812289)
(-0.000410332 0.00144125 -0.00081229)
(-0.000654369 0.0013481 -0.000812291)
(-0.000842345 0.00149632 -0.000633782)
(-0.00108938 0.00132732 -0.000633783)
(-0.00130332 0.00111798 -0.000633783)
(-0.00147765 0.000874681 -0.000633782)
(-0.00160709 0.000604802 -0.000633781)
(-0.0016877 0.000316544 -0.000633782)
(-0.00171702 1.86697e-05 -0.000633782)
(-0.00169418 -0.000279773 -0.000633782)
(-0.00161986 -0.000569714 -0.000633782)
(-0.00149632 -0.000842344 -0.000633783)
(-0.00132732 -0.00108938 -0.000633783)
(-0.00111798 -0.00130332 -0.000633783)
(-0.000874681 -0.00147765 -0.000633782)
(-0.000604801 -0.00160709 -0.000633781)
(-0.000316544 -0.0016877 -0.000633782)
(-1.86696e-05 -0.00171702 -0.000633782)
(0.000279773 -0.00169418 -0.000633782)
(0.000569714 -0.00161986 -0.000633782)
(0.000842345 -0.00149632 -0.000633783)
(0.00108938 -0.00132732 -0.000633783)
(0.00130332 -0.00111798 -0.000633783)
(0.00147765 -0.000874681 -0.000633782)
(0.00160709 -0.000604801 -0.000633781)
(0.0016877 -0.000316544 -0.000633782)
(0.00171702 -1.86696e-05 -0.000633782)
(0.00169418 0.000279773 -0.000633782)
(0.00161986 0.000569714 -0.000633782)
(0.00149632 0.000842345 -0.000633783)
(0.00132732 0.00108938 -0.000633783)
(0.00111798 0.00130332 -0.000633783)
(0.000874681 0.00147765 -0.000633782)
(0.000604802 0.00160709 -0.000633781)
(0.000316544 0.0016877 -0.000633781)
(1.86697e-05 0.00171702 -0.000633782)
(-0.000279773 0.00169418 -0.000633782)
(-0.000569714 0.00161986 -0.000633782)
(-0.000854066 0.00176372 -0.000460723)
(-0.00114736 0.00158862 -0.000460722)
(-0.00140579 0.00136525 -0.000460723)
(-0.0016215 0.0011004 -0.000460723)
(-0.00178795 0.000802107 -0.000460723)
(-0.00190007 0.000479446 -0.000460723)
(-0.00195446 0.000142218 -0.000460723)
(-0.00194946 -0.000199331 -0.000460723)
(-0.00188523 -0.000534823 -0.000460723)
(-0.00176372 -0.000854066 -0.000460723)
(-0.00158862 -0.00114736 -0.000460722)
(-0.00136525 -0.00140579 -0.000460723)
(-0.0011004 -0.0016215 -0.000460723)
(-0.000802107 -0.00178795 -0.000460723)
(-0.000479446 -0.00190007 -0.000460723)
(-0.000142218 -0.00195446 -0.000460723)
(0.000199331 -0.00194946 -0.000460723)
(0.000534823 -0.00188523 -0.000460723)
(0.000854066 -0.00176372 -0.000460723)
(0.00114736 -0.00158862 -0.000460722)
(0.00140579 -0.00136525 -0.000460723)
(0.0016215 -0.0011004 -0.000460723)
(0.00178795 -0.000802107 -0.000460723)
(0.00190007 -0.000479446 -0.000460723)
(0.00195446 -0.000142218 -0.000460723)
(0.00194946 0.000199331 -0.000460723)
(0.00188523 0.000534823 -0.000460723)
(0.00176372 0.000854066 -0.000460723)
(0.00158862 0.00114736 -0.000460722)
(0.00136525 0.00140579 -0.000460723)
(0.0011004 0.0016215 -0.000460723)
(0.000802107 0.00178795 -0.000460723)
(0.000479446 0.00190007 -0.000460723)
(0.000142218 0.00195446 -0.000460723)
(-0.000199331 0.00194946 -0.000460723)
(-0.000534823 0.00188523 -0.000460723)
(-0.00116232 0.0017795 -0.00122971)
(-0.00145367 0.00155063 -0.00122971)
(-0.00170085 0.00127465 -0.00122971)
(-0.00189635 0.000959936 -0.00122971)
(-0.00203424 0.000616054 -0.00122971)
(-0.00211031 0.000253454 -0.00122971)
(-0.00212226 -0.000116848 -0.00122971)
(-0.00206973 -0.0004836 -0.00122971)
(-0.0019543 -0.000835657 -0.00122971)
(-0.0017795 -0.00116232 -0.00122971)
(-0.00155063 -0.00145367 -0.00122971)
(-0.00127465 -0.00170085 -0.00122971)
(-0.000959936 -0.00189635 -0.00122971)
(-0.000616054 -0.00203424 -0.00122971)
(-0.000253454 -0.00211031 -0.00122971)
(0.000116848 -0.00212226 -0.00122971)
(0.0004836 -0.00206973 -0.00122971)
(0.000835657 -0.0019543 -0.00122971)
(0.00116232 -0.0017795 -0.00122971)
(0.00145367 -0.00155063 -0.00122971)
(0.00170085 -0.00127465 -0.00122971)
(0.00189635 -0.000959936 -0.00122971)
(0.00203424 -0.000616054 -0.00122971)
(0.00211031 -0.000253454 -0.00122971)
(0.00212226 0.000116848 -0.00122971)
(0.00206973 0.0004836 -0.00122971)
(0.00195431 0.000835657 -0.00122971)
(0.0017795 0.00116232 -0.00122971)
(0.00155063 0.00145367 -0.00122971)
(0.00127465 0.00170085 -0.00122971)
(0.000959936 0.00189635 -0.00122971)
(0.000616054 0.00203424 -0.00122971)
(0.000253454 0.00211031 -0.00122971)
(-0.000116848 0.00212226 -0.00122971)
(-0.0004836 0.00206973 -0.00122971)
(-0.000835657 0.00195431 -0.00122971)
(-0.00116271 0.00208686 -0.00101039)
(-0.00150742 0.00185325 -0.00101039)
(-0.00180634 0.00156334 -0.00101039)
(-0.00205036 0.00122592 -0.00101039)
(-0.00223209 0.000851255 -0.00101039)
(-0.002346 0.000450723 -0.00101039)
(-0.00238863 3.64963e-05 -0.00101039)
(-0.00235868 -0.00037884 -0.00101039)
(-0.00225706 -0.000782665 -0.00101039)
(-0.00208686 -0.00116271 -0.00101039)
(-0.00185325 -0.00150742 -0.00101039)
(-0.00156334 -0.00180634 -0.00101039)
(-0.00122592 -0.00205036 -0.00101039)
(-0.000851254 -0.00223209 -0.00101039)
(-0.000450723 -0.002346 -0.00101039)
(-3.64962e-05 -0.00238863 -0.00101039)
(0.00037884 -0.00235868 -0.00101039)
(0.000782665 -0.00225706 -0.00101039)
(0.00116271 -0.00208686 -0.00101039)
(0.00150742 -0.00185325 -0.00101039)
(0.00180634 -0.00156334 -0.00101039)
(0.00205036 -0.00122592 -0.00101039)
(0.00223209 -0.000851254 -0.00101039)
(0.002346 -0.000450723 -0.00101039)
(0.00238863 -3.64962e-05 -0.00101039)
(0.00235868 0.00037884 -0.00101039)
(0.00225706 0.000782665 -0.00101039)
(0.00208686 0.00116271 -0.00101039)
(0.00185325 0.00150742 -0.00101039)
(0.00156334 0.00180634 -0.00101039)
(0.00122592 0.00205036 -0.00101039)
(0.000851255 0.00223209 -0.00101039)
(0.000450723 0.002346 -0.00101039)
(3.64963e-05 0.00238863 -0.00101039)
(-0.00037884 0.00235868 -0.00101039)
(-0.000782665 0.00225706 -0.00101039)
(-0.00121575 0.0023647 -0.000801243)
(-0.0016079 0.00211767 -0.000801243)
(-0.0019512 0.00180628 -0.000801243)
(-0.00223522 0.00144002 -0.000801243)
(-0.00245132 0.00103 -0.000801243)
(-0.00259293 0.000588687 -0.000801243)
(-0.00265577 0.000129484 -0.000801243)
(-0.0026379 -0.000333652 -0.000801244)
(-0.00253989 -0.000786651 -0.000801243)
(-0.0023647 -0.00121575 -0.000801243)
(-0.00211767 -0.0016079 -0.000801244)
(-0.00180628 -0.0019512 -0.000801243)
(-0.00144002 -0.00223522 -0.000801243)
(-0.00103 -0.00245132 -0.000801243)
(-0.000588687 -0.00259293 -0.000801243)
(-0.000129484 -0.00265577 -0.000801244)
(0.000333652 -0.0026379 -0.000801244)
(0.000786651 -0.00253989 -0.000801243)
(0.00121575 -0.0023647 -0.000801243)
(0.0016079 -0.00211767 -0.000801244)
(0.0019512 -0.00180628 -0.000801243)
(0.00223522 -0.00144002 -0.000801243)
(0.00245132 -0.00103 -0.000801243)
(0.00259293 -0.000588687 -0.000801243)
(0.00265577 -0.000129484 -0.000801243)
(0.0026379 0.000333652 -0.000801244)
(0.00253989 0.000786651 -0.000801243)
(0.0023647 0.00121575 -0.000801243)
(0.00211767 0.0016079 -0.000801243)
(0.00180628 0.0019512 -0.000801243)
(0.00144002 0.00223522 -0.000801243)
(0.00103 0.00245132 -0.000801243)
(0.000588687 0.00259293 -0.000801243)
(0.000129484 0.00265577 -0.000801243)
(-0.000333652 0.0026379 -0.000801244)
(-0.000786651 0.00253989 -0.000801243)
(-0.00144136 0.00238227 -0.00167119)
(-0.00183314 0.00209579 -0.00167119)
(-0.00216922 0.00174563 -0.00167119)
(-0.00243939 0.00134243 -0.00167119)
(-0.00263544 0.000898439 -0.00167119)
(-0.00275141 0.00042715 -0.00167119)
(-0.00278379 -5.71173e-05 -0.00167119)
(-0.00273158 -0.00053965 -0.00167119)
(-0.00259637 -0.00100578 -0.00167119)
(-0.00238227 -0.00144136 -0.00167119)
(-0.00209579 -0.00183314 -0.00167119)
(-0.00174563 -0.00216922 -0.00167119)
(-0.00134243 -0.00243939 -0.00167119)
(-0.000898439 -0.00263544 -0.00167119)
(-0.00042715 -0.00275141 -0.00167119)
(5.71175e-05 -0.00278379 -0.00167119)
(0.00053965 -0.00273158 -0.00167119)
(0.00100578 -0.00259637 -0.00167119)
(0.00144136 -0.00238227 -0.00167119)
(0.00183314 -0.00209579 -0.00167119)
(0.00216922 -0.00174563 -0.00167119)
(0.00243939 -0.00134243 -0.00167119)
(0.00263544 -0.000898439 -0.00167119)
(0.00275141 -0.00042715 -0.00167119)
(0.00278379 5.71175e-05 -0.00167119)
(0.00273158 0.00053965 -0.00167119)
(0.00259637 0.00100578 -0.00167119)
(0.00238227 0.00144136 -0.00167119)
(0.00209579 0.00183314 -0.00167119)
(0.00174563 0.00216922 -0.00167119)
(0.00134243 0.00243939 -0.00167119)
(0.000898439 0.00263544 -0.00167119)
(0.00042715 0.00275141 -0.00167119)
(-5.71173e-05 0.00278379 -0.00167119)
(-0.00053965 0.00273158 -0.00167119)
(-0.00100578 0.00259637 -0.00167119)
(-0.00147278 0.00266203 -0.0014265)
(-0.00191266 0.00236584 -0.00142651)
(-0.00229443 0.00199777 -0.00142651)
(-0.00260648 0.00156899 -0.0014265)
(-0.00283933 0.00109255 -0.0014265)
(-0.00298591 0.000582905 -0.0014265)
(-0.00304177 5.55501e-05 -0.0014265)
(-0.00300521 -0.000473492 -0.0014265)
(-0.00287733 -0.000988148 -0.0014265)
(-0.00266203 -0.00147278 -0.0014265)
(-0.00236584 -0.00191266 -0.00142651)
(-0.00199777 -0.00229443 -0.00142651)
(-0.00156899 -0.00260648 -0.0014265)
(-0.00109255 -0.00283933 -0.0014265)
(-0.000582905 -0.00298591 -0.0014265)
(-5.55499e-05 -0.00304177 -0.0014265)
(0.000473492 -0.00300521 -0.0014265)
(0.000988148 -0.00287733 -0.0014265)
(0.00147278 -0.00266203 -0.0014265)
(0.00191266 -0.00236584 -0.00142651)
(0.00229443 -0.00199777 -0.00142651)
(0.00260648 -0.00156899 -0.0014265)
(0.00283933 -0.00109255 -0.0014265)
(0.00298591 -0.000582905 -0.0014265)
(0.00304177 -5.55499e-05 -0.0014265)
(0.00300521 0.000473492 -0.0014265)
(0.00287733 0.000988148 -0.0014265)
(0.00266203 0.00147278 -0.0014265)
(0.00236584 0.00191266 -0.00142651)
(0.00199777 0.00229443 -0.00142651)
(0.00156899 0.00260648 -0.0014265)
(0.00109255 0.00283933 -0.0014265)
(0.000582905 0.00298591 -0.0014265)
(5.55501e-05 0.00304177 -0.0014265)
(-0.000473492 0.00300521 -0.0014265)
(-0.000988148 0.00287733 -0.0014265)
(-0.00155743 0.00289886 -0.00119687)
(-0.00203715 0.00258438 -0.00119687)
(-0.00245497 0.00219137 -0.00119687)
(-0.0027982 0.00173177 -0.00119687)
(-0.00305641 0.00121956 -0.00119687)
(-0.00322175 0.000670296 -0.00119687)
(-0.0032892 0.000100661 -0.00119687)
(-0.00325671 -0.000472033 -0.00119687)
(-0.00312527 -0.00103038 -0.00119687)
(-0.00289886 -0.00155743 -0.00119687)
(-0.00258438 -0.00203715 -0.00119687)
(-0.00219137 -0.00245497 -0.00119687)
(-0.00173177 -0.0027982 -0.00119687)
(-0.00121956 -0.00305641 -0.00119687)
(-0.000670296 -0.00322175 -0.00119687)
(-0.000100661 -0.0032892 -0.00119687)
(0.000472033 -0.00325671 -0.00119687)
(0.00103038 -0.00312527 -0.00119687)
(0.00155743 -0.00289886 -0.00119687)
(0.00203715 -0.00258438 -0.00119687)
(0.00245497 -0.00219137 -0.00119687)
(0.0027982 -0.00173177 -0.00119687)
(0.00305641 -0.00121956 -0.00119687)
(0.00322175 -0.000670296 -0.00119687)
(0.0032892 -0.000100661 -0.00119687)
(0.00325671 0.000472033 -0.00119687)
(0.00312527 0.00103038 -0.00119687)
(0.00289886 0.00155743 -0.00119687)
(0.00258438 0.00203715 -0.00119687)
(0.00219137 0.00245497 -0.00119687)
(0.00173177 0.0027982 -0.00119687)
(0.00121956 0.00305641 -0.00119687)
(0.000670296 0.00322175 -0.00119687)
(0.000100661 0.0032892 -0.00119687)
(-0.000472033 0.00325671 -0.00119687)
(-0.00103038 0.00312527 -0.00119687)
(-0.00173013 0.00299262 -0.00213208)
(-0.00222351 0.00264672 -0.00213209)
(-0.00264933 0.0022204 -0.00213209)
(-0.00299465 0.00172662 -0.00213209)
(-0.00324897 0.00118037 -0.00213209)
(-0.00340458 0.00059826 -0.00213209)
(-0.00345675 -2.02882e-06 -0.00213209)
(-0.00340388 -0.000602257 -0.00213209)
(-0.00324759 -0.00118418 -0.00213208)
(-0.00299262 -0.00173013 -0.00213209)
(-0.00264672 -0.00222351 -0.00213209)
(-0.0022204 -0.00264933 -0.00213209)
(-0.00172662 -0.00299465 -0.00213209)
(-0.00118037 -0.00324897 -0.00213209)
(-0.00059826 -0.00340458 -0.00213209)
(2.02907e-06 -0.00345675 -0.00213209)
(0.000602257 -0.00340388 -0.00213209)
(0.00118419 -0.00324759 -0.00213208)
(0.00173013 -0.00299262 -0.00213209)
(0.00222351 -0.00264672 -0.00213209)
(0.00264933 -0.0022204 -0.00213209)
(0.00299465 -0.00172662 -0.00213209)
(0.00324898 -0.00118037 -0.00213209)
(0.00340458 -0.00059826 -0.00213209)
(0.00345675 2.02906e-06 -0.00213209)
(0.00340388 0.000602257 -0.00213209)
(0.00324759 0.00118419 -0.00213208)
(0.00299262 0.00173013 -0.00213208)
(0.00264672 0.00222351 -0.00213209)
(0.0022204 0.00264933 -0.00213209)
(0.00172662 0.00299465 -0.00213209)
(0.00118037 0.00324898 -0.00213209)
(0.00059826 0.00340458 -0.00213209)
(-2.02883e-06 0.00345675 -0.00213209)
(-0.000602257 0.00340388 -0.00213209)
(-0.00118418 0.00324759 -0.00213208)
(-0.00177889 0.00320791 -0.00186932)
(-0.00230891 0.00285027 -0.00186932)
(-0.00276878 0.00240603 -0.00186932)
(-0.00314452 0.00188868 -0.00186932)
(-0.00342471 0.00131395 -0.00186932)
(-0.00360085 0.000699294 -0.00186932)
(-0.00366757 6.339e-05 -0.00186932)
(-0.00362286 -0.00057444 -0.00186932)
(-0.00346807 -0.00119482 -0.00186932)
(-0.00320791 -0.00177889 -0.00186932)
(-0.00285027 -0.00230891 -0.00186932)
(-0.00240603 -0.00276878 -0.00186932)
(-0.00188868 -0.00314452 -0.00186932)
(-0.00131395 -0.00342471 -0.00186932)
(-0.000699294 -0.00360085 -0.00186932)
(-6.33897e-05 -0.00366757 -0.00186932)
(0.000574441 -0.00362286 -0.00186932)
(0.00119482 -0.00346807 -0.00186932)
(0.00177889 -0.00320791 -0.00186932)
(0.00230891 -0.00285027 -0.00186932)
(0.00276878 -0.00240603 -0.00186932)
(0.00314452 -0.00188868 -0.00186932)
(0.00342471 -0.00131395 -0.00186932)
(0.00360085 -0.000699294 -0.00186932)
(0.00366757 -6.33897e-05 -0.00186932)
(0.00362286 0.000574441 -0.00186932)
(0.00346807 0.00119482 -0.00186932)
(0.00320791 0.00177889 -0.00186932)
(0.00285027 0.00230891 -0.00186932)
(0.00240603 0.00276878 -0.00186932)
(0.00188868 0.00314452 -0.00186932)
(0.00131395 0.00342471 -0.00186932)
(0.000699294 0.00360085 -0.00186932)
(6.33899e-05 0.00366757 -0.00186932)
(-0.00057444 0.00362286 -0.00186932)
(-0.00119482 0.00346807 -0.00186932)
(-0.00187805 0.00336998 -0.00162604)
(-0.00243471 0.00299266 -0.00162604)
(-0.00291739 0.00252441 -0.00162604)
(-0.00331143 0.00197946 -0.00162604)
(-0.00360485 0.00137437 -0.00162604)
(-0.00378874 0.000727511 -0.00162604)
(-0.00385751 5.8551e-05 -0.00162604)
(-0.00380908 -0.00061219 -0.00162604)
(-0.0036449 -0.00126433 -0.00162604)
(-0.00336998 -0.00187805 -0.00162604)
(-0.00299266 -0.00243471 -0.00162604)
(-0.00252441 -0.00291739 -0.00162604)
(-0.00197946 -0.00331143 -0.00162604)
(-0.00137437 -0.00360485 -0.00162604)
(-0.00072751 -0.00378874 -0.00162604)
(-5.85508e-05 -0.00385751 -0.00162604)
(0.00061219 -0.00380908 -0.00162604)
(0.00126433 -0.0036449 -0.00162604)
(0.00187805 -0.00336998 -0.00162604)
(0.00243471 -0.00299266 -0.00162604)
(0.00291739 -0.00252441 -0.00162604)
(0.00331143 -0.00197946 -0.00162604)
(0.00360485 -0.00137437 -0.00162604)
(0.00378874 -0.00072751 -0.00162604)
(0.00385751 -5.85508e-05 -0.00162604)
(0.00380908 0.00061219 -0.00162604)
(0.0036449 0.00126433 -0.00162604)
(0.00336998 0.00187805 -0.00162604)
(0.00299266 0.00243471 -0.00162604)
(0.00252441 0.00291739 -0.00162604)
(0.00197946 0.00331143 -0.00162604)
(0.00137437 0.00360485 -0.00162604)
(0.000727511 0.00378874 -0.00162604)
(5.8551e-05 0.00385751 -0.00162604)
(-0.00061219 0.00380908 -0.00162604)
(-0.00126433 0.0036449 -0.00162604)
(-0.00203815 0.00357161 -0.00261274)
(-0.00262739 0.00316342 -0.00261274)
(-0.0031368 0.00265912 -0.00261274)
(-0.00355089 0.00207403 -0.00261274)
(-0.0038571 0.00142591 -0.00261274)
(-0.00404611 0.000734469 -0.00261274)
(-0.00411218 2.07121e-05 -0.00261274)
(-0.0040533 -0.000693675 -0.00261274)
(-0.00387127 -0.00138699 -0.00261274)
(-0.00357161 -0.00203815 -0.00261274)
(-0.00316342 -0.00262739 -0.00261274)
(-0.00265912 -0.0031368 -0.00261274)
(-0.00207403 -0.00355089 -0.00261274)
(-0.00142591 -0.0038571 -0.00261274)
(-0.000734469 -0.00404611 -0.00261274)
(-2.07118e-05 -0.00411218 -0.00261274)
(0.000693676 -0.0040533 -0.00261274)
(0.00138699 -0.00387127 -0.00261274)
(0.00203815 -0.00357161 -0.00261274)
(0.00262739 -0.00316342 -0.00261274)
(0.0031368 -0.00265912 -0.00261274)
(0.00355089 -0.00207403 -0.00261274)
(0.0038571 -0.00142591 -0.00261274)
(0.00404611 -0.000734469 -0.00261274)
(0.00411218 -2.07118e-05 -0.00261274)
(0.0040533 0.000693676 -0.00261274)
(0.00387127 0.00138699 -0.00261274)
(0.00357161 0.00203815 -0.00261274)
(0.00316342 0.00262739 -0.00261274)
(0.00265912 0.0031368 -0.00261274)
(0.00207403 0.00355089 -0.00261274)
(0.00142591 0.0038571 -0.00261274)
(0.000734469 0.00404611 -0.00261274)
(2.07121e-05 0.00411218 -0.00261274)
(-0.000693675 0.0040533 -0.00261274)
(-0.00138699 0.00387127 -0.00261274)
(-0.00208672 0.00370092 -0.002332)
(-0.00269768 0.00328234 -0.002332)
(-0.00322667 0.00276403 -0.002332)
(-0.00365762 0.00216173 -0.002332)
(-0.00397743 0.00149375 -0.002332)
(-0.00417639 0.000780386 -0.002332)
(-0.00424845 4.33061e-05 -0.002332)
(-0.00419143 -0.000695088 -0.002332)
(-0.00400705 -0.00141236 -0.002332)
(-0.00370092 -0.00208672 -0.002332)
(-0.00328234 -0.00269768 -0.002332)
(-0.00276403 -0.00322667 -0.002332)
(-0.00216173 -0.00365762 -0.002332)
(-0.00149375 -0.00397743 -0.002332)
(-0.000780385 -0.00417639 -0.002332)
(-4.33058e-05 -0.00424845 -0.002332)
(0.000695088 -0.00419143 -0.002332)
(0.00141236 -0.00400705 -0.002332)
(0.00208672 -0.00370092 -0.002332)
(0.00269768 -0.00328234 -0.002332)
(0.00322667 -0.00276403 -0.002332)
(0.00365762 -0.00216173 -0.002332)
(0.00397743 -0.00149375 -0.002332)
(0.00417639 -0.000780385 -0.002332)
(0.00424845 -4.33058e-05 -0.002332)
(0.00419143 0.000695088 -0.002332)
(0.00400705 0.00141236 -0.002332)
(0.00370092 0.00208672 -0.002332)
(0.00328234 0.00269768 -0.002332)
(0.00276403 0.00322667 -0.002332)
(0.00216173 0.00365762 -0.002332)
(0.00149375 0.00397743 -0.002332)
(0.000780386 0.00417639 -0.002332)
(4.33061e-05 0.00424845 -0.002332)
(-0.000695088 0.00419143 -0.002332)
(-0.00141236 0.00400705 -0.002332)
(-0.00218021 0.00377144 -0.00207437)
(-0.00280199 0.00333555 -0.00207437)
(-0.00333864 0.00279832 -0.00207437)
(-0.00377384 0.00217605 -0.00207437)
(-0.00409437 0.00148768 -0.00207437)
(-0.0042905 0.000754095 -0.00207437)
(-0.00435627 -2.40003e-06 -0.00207437)
(-0.00428967 -0.000758822 -0.00207437)
(-0.00409273 -0.00149219 -0.00207437)
(-0.00377144 -0.00218021 -0.00207437)
(-0.00333555 -0.00280199 -0.00207437)
(-0.00279832 -0.00333864 -0.00207437)
(-0.00217605 -0.00377384 -0.00207437)
(-0.00148768 -0.00409437 -0.00207437)
(-0.000754094 -0.0042905 -0.00207437)
(2.4003e-06 -0.00435627 -0.00207437)
(0.000758822 -0.00428967 -0.00207437)
(0.00149219 -0.00409273 -0.00207437)
(0.00218021 -0.00377144 -0.00207437)
(0.00280199 -0.00333555 -0.00207437)
(0.00333864 -0.00279832 -0.00207437)
(0.00377384 -0.00217605 -0.00207437)
(0.00409437 -0.00148768 -0.00207437)
(0.0042905 -0.000754094 -0.00207437)
(0.00435627 2.40027e-06 -0.00207437)
(0.00428967 0.000758822 -0.00207437)
(0.00409273 0.00149219 -0.00207437)
(0.00377144 0.00218021 -0.00207437)
(0.00333555 0.00280199 -0.00207437)
(0.00279832 0.00333864 -0.00207437)
(0.00217605 0.00377384 -0.00207437)
(0.00148768 0.00409437 -0.00207437)
(0.000754095 0.0042905 -0.00207437)
(-2.40001e-06 0.00435627 -0.00207437)
(-0.000758822 0.00428967 -0.00207437)
(-0.00149219 0.00409273 -0.00207437)
(-0.00236358 0.00407277 -0.00311103)
(-0.0030349 0.00360047 -0.00311103)
(-0.00361401 0.00301876 -0.00311103)
(-0.00408331 0.00234533 -0.00311103)
(-0.00442854 0.00160064 -0.00311103)
(-0.0046392 0.000807319 -0.00311103)
(-0.00470891 -1.05351e-05 -0.00311103)
(-0.00463555 -0.000828071 -0.00311103)
(-0.00442133 -0.00162044 -0.00311103)
(-0.00407277 -0.00236358 -0.00311103)