/*--------------------------------*- C++ -*----------------------------------*\
| =========                 |                                                 |
| \\      /  F ield         | OpenFOAM: The Open Source CFD Toolbox           |
|  \\    /   O peration     | Version:  2312                                  |
|   \\  /    A nd           | Website:  www.openfoam.com                      |
|    \\/     M anipulation  |                                                 |
\*---------------------------------------------------------------------------*/
FoamFile
{
    version     2.0;
    format      ascii;
    arch        "LSB;label=32;scalar=64";
    class       volTensorField;
    location    "0.8";
    object      F;
}
// * * * * * * * * * * * * * * * * * * * * * * * * * * * * * * * * * * * * * //

dimensions      [0 0 0 0 0 0 0];

internalField   nonuniform List<tensor> 
1620
(
(1.09403 -0.0279138 -0.43617 0.10652 0.998282 0.210477 0.0478361 -0.087939 0.852517)
(1.01598 -0.0449291 -0.435995 0.0875993 0.982472 0.25109 -0.0279122 -0.0907701 0.989078)
(0.95688 -0.0712974 -0.412393 0.0275095 0.973804 0.256274 -0.0715724 -0.0861818 1.1018)
(0.927741 -0.0986962 -0.373734 -0.034615 0.957968 0.223262 -0.0790326 -0.0784534 1.17985)
(0.927164 -0.113967 -0.32615 -0.0749049 0.930203 0.172126 -0.0641671 -0.0645261 1.2247)
(0.944598 -0.110307 -0.276701 -0.0887305 0.898287 0.120977 -0.0436471 -0.0434335 1.24147)
(0.968082 -0.0890605 -0.23192 -0.0823488 0.872056 0.0773328 -0.0276671 -0.0191752 1.23712)
(0.989271 -0.0565143 -0.194102 -0.0645849 0.857419 0.0410136 -0.0195518 0.00263868 1.21875)
(1.00433 -0.0199124 -0.160568 -0.0429804 0.855902 0.00911081 -0.0184932 0.0176278 1.19189)
(1.01285 0.0146899 -0.125425 -0.0233403 0.866576 -0.0208547 -0.0218763 0.0235892 1.15942)
(1.01684 0.0427522 -0.0822019 -0.0106555 0.887817 -0.0498886 -0.0270371 0.0208035 1.12112)
(1.0205 0.0607612 -0.0263379 -0.00964369 0.917868 -0.0781354 -0.0330916 0.0120368 1.07377)
(1.03055 0.0662347 0.0433241 -0.023087 0.954226 -0.106116 -0.0425899 0.00192324 1.01232)
(1.05465 0.0588547 0.12449 -0.0471953 0.992812 -0.134476 -0.061409 -0.00404516 0.933108)
(1.0958 0.0416539 0.211794 -0.0669432 1.0275 -0.160662 -0.0943791 -0.000135799 0.839605)
(1.14428 0.0202215 0.296186 -0.0587674 1.04959 -0.176556 -0.135127 0.0182624 0.750033)
(1.17552 -0.00064834 0.365884 -0.00767949 1.04862 -0.177311 -0.155712 0.047732 0.701904)
(1.15955 -0.0162302 0.413417 0.0657171 1.02545 -0.178892 -0.121812 0.0733988 0.738642)
(1.09403 -0.0279138 0.43617 0.10652 0.998282 -0.210477 -0.0478361 0.087939 0.852517)
(1.01598 -0.0449291 0.435995 0.0875993 0.982472 -0.25109 0.0279122 0.0907701 0.989078)
(0.95688 -0.0712974 0.412393 0.0275095 0.973804 -0.256274 0.0715724 0.0861818 1.1018)
(0.927741 -0.0986962 0.373734 -0.034615 0.957968 -0.223262 0.0790326 0.0784534 1.17985)
(0.927164 -0.113967 0.32615 -0.0749049 0.930203 -0.172126 0.0641671 0.0645261 1.2247)
(0.944598 -0.110307 0.276701 -0.0887305 0.898287 -0.120977 0.0436471 0.0434335 1.24147)
(0.968082 -0.0890605 0.23192 -0.0823488 0.872056 -0.0773328 0.0276671 0.0191752 1.23712)
(0.989271 -0.0565143 0.194102 -0.0645849 0.857419 -0.0410137 0.0195518 -0.00263868 1.21875)
(1.00433 -0.0199124 0.160568 -0.0429804 0.855902 -0.00911081 0.0184932 -0.0176278 1.19189)
(1.01285 0.0146899 0.125425 -0.0233403 0.866576 0.0208547 0.0218763 -0.0235892 1.15942)
(1.01684 0.0427522 0.0822019 -0.0106555 0.887817 0.0498886 0.0270371 -0.0208035 1.12112)
(1.0205 0.0607612 0.026338 -0.00964369 0.917868 0.0781354 0.0330916 -0.0120368 1.07377)
(1.03055 0.0662347 -0.0433241 -0.023087 0.954226 0.106116 0.0425899 -0.00192324 1.01232)
(1.05465 0.0588547 -0.12449 -0.0471953 0.992812 0.134476 0.061409 0.00404516 0.933108)
(1.0958 0.0416539 -0.211794 -0.0669432 1.0275 0.160662 0.0943791 0.000135798 0.839605)
(1.14428 0.0202215 -0.296186 -0.0587674 1.04959 0.176556 0.135127 -0.0182624 0.750033)
(1.17552 -0.00064834 -0.365884 -0.00767949 1.04862 0.177311 0.155712 -0.047732 0.701904)
(1.15955 -0.0162302 -0.413417 0.0657171 1.02545 0.178892 0.121812 -0.0733988 0.738642)
(1.10508 0.0228184 -0.403248 0.0815653 0.988303 0.235933 0.0467754 -0.0382761 0.852625)
(1.03255 0.0111589 -0.419191 0.0656913 1.00368 0.264162 -0.0180655 -0.0480061 0.935124)
(0.974403 -0.0234284 -0.41884 0.00883399 1.01086 0.256317 -0.053004 -0.0609745 1.01221)
(0.944807 -0.0659111 -0.401061 -0.0493152 0.995311 0.218474 -0.0536175 -0.0674416 1.07835)
(0.944666 -0.0984096 -0.368045 -0.0856106 0.961027 0.166168 -0.0356136 -0.0599499 1.12787)
(0.963994 -0.109416 -0.326362 -0.0960935 0.920709 0.11231 -0.016442 -0.0397413 1.15783)
(0.990073 -0.0976586 -0.2819 -0.086441 0.886098 0.0627985 -0.0055228 -0.0145759 1.1693)
(1.01329 -0.0690827 -0.237013 -0.0646207 0.864629 0.0188327 -0.00457311 0.00724394 1.16523)
(1.02865 -0.032325 -0.190616 -0.0380864 0.85959 -0.0199886 -0.0109466 0.0201079 1.14835)
(1.03512 0.00410548 -0.139675 -0.0133791 0.871367 -0.0537839 -0.0201967 0.0219043 1.12022)
(1.03471 0.0328759 -0.0812191 0.00345059 0.898478 -0.0818449 -0.0279813 0.0142716 1.08105)
(1.03217 0.04818 -0.0142285 0.00662322 0.937625 -0.10332 -0.0322581 0.00253207 1.03044)
(1.03509 0.046751 0.0593922 -0.00785866 0.982524 -0.118608 -0.0355263 -0.00560421 0.968603)
(1.0524 0.0302033 0.135398 -0.0376064 1.02269 -0.130055 -0.0451877 -0.00319962 0.898177)
(1.08898 0.00706159 0.208765 -0.0679873 1.04485 -0.14062 -0.0691947 0.0113745 0.826434)
(1.13713 -0.00918651 0.274807 -0.0727244 1.0397 -0.152237 -0.105253 0.0304757 0.767908)
(1.17236 -0.00745909 0.33016 -0.0314225 1.01236 -0.167884 -0.12888 0.0399654 0.745513)
(1.16294 0.0102721 0.37278 0.0383081 0.988453 -0.195987 -0.107204 0.0377201 0.779321)
(1.10508 0.0228184 0.403248 0.0815653 0.988303 -0.235933 -0.0467754 0.0382761 0.852625)
(1.03255 0.0111589 0.419191 0.0656913 1.00368 -0.264162 0.0180655 0.0480061 0.935124)
(0.974403 -0.0234284 0.41884 0.00883399 1.01086 -0.256317 0.053004 0.0609745 1.01221)
(0.944807 -0.0659111 0.401061 -0.0493152 0.995311 -0.218474 0.0536175 0.0674416 1.07835)
(0.944666 -0.0984096 0.368045 -0.0856106 0.961027 -0.166168 0.0356136 0.0599499 1.12787)
(0.963994 -0.109416 0.326362 -0.0960935 0.920709 -0.11231 0.016442 0.0397413 1.15783)
(0.990073 -0.0976586 0.2819 -0.086441 0.886098 -0.0627985 0.0055228 0.0145759 1.1693)
(1.01329 -0.0690827 0.237013 -0.0646207 0.864629 -0.0188327 0.00457311 -0.00724394 1.16523)
(1.02865 -0.032325 0.190616 -0.0380864 0.85959 0.0199886 0.0109466 -0.0201079 1.14835)
(1.03512 0.00410548 0.139675 -0.0133791 0.871367 0.0537839 0.0201967 -0.0219043 1.12022)
(1.03471 0.0328759 0.0812191 0.00345059 0.898478 0.0818449 0.0279813 -0.0142716 1.08105)
(1.03217 0.04818 0.0142285 0.00662322 0.937625 0.10332 0.0322581 -0.00253208 1.03044)
(1.03509 0.046751 -0.0593922 -0.00785866 0.982524 0.118608 0.0355263 0.00560421 0.968603)
(1.0524 0.0302033 -0.135398 -0.0376064 1.02269 0.130055 0.0451877 0.00319962 0.898177)
(1.08898 0.00706159 -0.208765 -0.0679873 1.04485 0.14062 0.0691947 -0.0113745 0.826434)
(1.13713 -0.00918651 -0.274807 -0.0727244 1.0397 0.152237 0.105253 -0.0304757 0.767908)
(1.17236 -0.00745909 -0.33016 -0.0314225 1.01236 0.167884 0.12888 -0.0399654 0.745513)
(1.16294 0.0102721 -0.37278 0.0383081 0.988453 0.195987 0.107204 -0.0377201 0.779321)
(1.11754 0.0643279 -0.341 0.0549712 0.969673 0.259429 0.0469039 -0.00404491 0.862915)
(1.05188 0.0650961 -0.380018 0.0436632 1.01343 0.279 -0.00519652 -0.0129097 0.892983)
(0.991695 0.033176 -0.408447 -0.00816316 1.03956 0.261522 -0.0318 -0.0364258 0.933048)
(0.956464 -0.0185354 -0.414838 -0.0626782 1.03069 0.219154 -0.0267931 -0.05415 0.98476)
(0.952813 -0.0685983 -0.399014 -0.0976072 0.995405 0.164886 -0.00696728 -0.0526299 1.0367)
(0.973622 -0.0987003 -0.367087 -0.108039 0.949333 0.107503 0.00950534 -0.0336388 1.07823)
(1.00534 -0.10164 -0.32447 -0.0969274 0.906055 0.0516648 0.0137299 -0.00802528 1.10426)
(1.03518 -0.0806364 -0.27387 -0.0699028 0.875859 3.26651e-05 0.00564258 0.0130893 1.11332)
(1.05455 -0.0451171 -0.216012 -0.0342856 0.865691 -0.0453228 -0.00982624 0.022651 1.1053)
(1.0601 -0.00697376 -0.150865 0.00114266 0.878703 -0.0823297 -0.0256936 0.0187584 1.08037)
(1.05381 0.0221706 -0.0789669 0.026791 0.913675 -0.10883 -0.0352694 0.00500019 1.0393)
(1.04262 0.033478 -0.00272783 0.0335457 0.964276 -0.123131 -0.035251 -0.00989286 0.984551)
(1.03732 0.0238693 0.0728679 0.0155291 1.0181 -0.125454 -0.0291789 -0.0148737 0.921768)
(1.04904 -0.00115092 0.141188 -0.0245332 1.057 -0.11998 -0.0280145 -0.00303061 0.860394)
(1.08289 -0.0272371 0.196896 -0.0691794 1.06228 -0.115917 -0.0435405 0.0209586 0.812294)
(1.13092 -0.0356589 0.239052 -0.0876002 1.02785 -0.12516 -0.0749496 0.0395506 0.788499)
(1.16863 -0.0131155 0.271703 -0.0556262 0.97533 -0.156127 -0.0995794 0.0359586 0.795314)
(1.16529 0.0311158 0.302472 0.00958415 0.948762 -0.208972 -0.0904085 0.0165575 0.826755)
(1.11754 0.0643279 0.341 0.0549712 0.969673 -0.259429 -0.0469039 0.00404491 0.862915)
(1.05188 0.0650961 0.380018 0.0436632 1.01343 -0.279 0.00519652 0.0129097 0.892983)
(0.991695 0.033176 0.408447 -0.00816316 1.03956 -0.261522 0.0318 0.0364258 0.933048)
(0.956464 -0.0185354 0.414838 -0.0626782 1.03069 -0.219154 0.0267931 0.05415 0.98476)
(0.952813 -0.0685983 0.399014 -0.0976072 0.995405 -0.164886 0.00696728 0.0526299 1.0367)
(0.973622 -0.0987003 0.367087 -0.108039 0.949333 -0.107503 -0.00950534 0.0336388 1.07823)
(1.00534 -0.10164 0.32447 -0.0969274 0.906055 -0.0516648 -0.0137299 0.00802528 1.10426)
(1.03518 -0.0806364 0.27387 -0.0699028 0.875859 -3.26668e-05 -0.00564259 -0.0130893 1.11332)
(1.05455 -0.0451171 0.216012 -0.0342856 0.865691 0.0453228 0.00982624 -0.022651 1.1053)
(1.0601 -0.00697376 0.150865 0.00114266 0.878703 0.0823297 0.0256936 -0.0187584 1.08037)
(1.05381 0.0221706 0.0789669 0.026791 0.913675 0.10883 0.0352694 -0.00500019 1.0393)
(1.04262 0.033478 0.00272784 0.0335457 0.964276 0.123131 0.035251 0.00989286 0.984551)
(1.03732 0.0238693 -0.0728679 0.0155291 1.0181 0.125454 0.0291789 0.0148737 0.921768)
(1.04904 -0.00115092 -0.141188 -0.0245332 1.057 0.11998 0.0280145 0.00303061 0.860394)
(1.08289 -0.0272371 -0.196896 -0.0691794 1.06228 0.115917 0.0435405 -0.0209586 0.812294)
(1.13092 -0.0356589 -0.239052 -0.0876002 1.02785 0.12516 0.0749496 -0.0395506 0.788499)
(1.16863 -0.0131155 -0.271703 -0.0556262 0.97533 0.156127 0.0995794 -0.0359586 0.795314)
(1.16529 0.0311158 -0.302472 0.00958415 0.948762 0.208972 0.0904085 -0.0165575 0.826755)
(1.15675 -0.0155596 -0.400727 0.165087 0.961338 0.274114 0.0610982 -0.24267 0.800294)
(1.05061 -0.0570474 -0.403845 0.121048 0.959605 0.293569 -0.0940563 -0.267011 0.939351)
(0.960203 -0.115723 -0.383737 0.0213932 0.983133 0.276535 -0.185274 -0.266278 1.06578)
(0.912607 -0.174517 -0.349282 -0.0696825 0.988201 0.235175 -0.202553 -0.25305 1.16046)
(0.909003 -0.213331 -0.307104 -0.124456 0.961154 0.184309 -0.174962 -0.223873 1.22026)
(0.933174 -0.220626 -0.262958 -0.143031 0.91458 0.134938 -0.133937 -0.18062 1.25015)
(0.969025 -0.195731 -0.221301 -0.136321 0.865661 0.0916593 -0.0979577 -0.132386 1.25709)
(1.00573 -0.145283 -0.183855 -0.114565 0.826388 0.0545306 -0.0739655 -0.089977 1.24733)
(1.03676 -0.07872 -0.148952 -0.0850305 0.803405 0.021643 -0.0617868 -0.0622183 1.22538)
(1.05855 -0.00606584 -0.112326 -0.0540447 0.800285 -0.00894361 -0.0574322 -0.054131 1.19336)
(1.07046 0.0624126 -0.0689876 -0.0295359 0.818673 -0.0382288 -0.0561961 -0.0654323 1.15068)
(1.07608 0.116239 -0.01543 -0.0216802 0.857571 -0.0664495 -0.0564762 -0.0895671 1.09425)
(1.08494 0.146341 0.0488299 -0.0388336 0.911827 -0.0940436 -0.0632784 -0.114397 1.02012)
(1.11047 0.148529 0.121125 -0.0776642 0.972248 -0.122043 -0.087881 -0.124811 0.927054)
(1.16031 0.126125 0.196561 -0.113484 1.02736 -0.150689 -0.139193 -0.105336 0.821787)
(1.22267 0.0889759 0.268825 -0.104372 1.06214 -0.178202 -0.206713 -0.0421174 0.724123)
(1.26274 0.0490781 0.330897 -0.0215688 1.05665 -0.204381 -0.246655 0.0651226 0.668287)
(1.2433 0.0147677 0.37562 0.10423 1.00759 -0.237214 -0.19765 0.174384 0.69179)
(1.15675 -0.0155596 0.400727 0.165087 0.961338 -0.274114 -0.0610982 0.24267 0.800294)
(1.05061 -0.0570474 0.403845 0.121048 0.959605 -0.293569 0.0940563 0.267011 0.939351)
(0.960203 -0.115723 0.383737 0.0213932 0.983133 -0.276535 0.185274 0.266278 1.06578)
(0.912607 -0.174517 0.349282 -0.0696825 0.988201 -0.235175 0.202553 0.25305 1.16046)
(0.909003 -0.213331 0.307104 -0.124456 0.961154 -0.184309 0.174962 0.223873 1.22026)
(0.933174 -0.220626 0.262958 -0.143031 0.91458 -0.134938 0.133937 0.18062 1.25015)
(0.969025 -0.195731 0.221301 -0.136321 0.865661 -0.0916593 0.0979577 0.132386 1.25709)
(1.00573 -0.145283 0.183855 -0.114565 0.826388 -0.0545306 0.0739655 0.089977 1.24733)
(1.03676 -0.07872 0.148952 -0.0850305 0.803405 -0.021643 0.0617868 0.0622183 1.22538)
(1.05855 -0.00606584 0.112326 -0.0540447 0.800285 0.00894361 0.0574322 0.054131 1.19336)
(1.07046 0.0624126 0.0689876 -0.0295359 0.818673 0.0382288 0.0561961 0.0654323 1.15068)
(1.07608 0.116239 0.01543 -0.0216802 0.857571 0.0664495 0.0564762 0.0895671 1.09425)
(1.08494 0.146341 -0.0488299 -0.0388336 0.911827 0.0940436 0.0632784 0.114397 1.02012)
(1.11047 0.148529 -0.121125 -0.0776642 0.972248 0.122043 0.087881 0.124811 0.927054)
(1.16031 0.126125 -0.196561 -0.113484 1.02736 0.150689 0.139193 0.105336 0.821787)
(1.22267 0.0889759 -0.268825 -0.104372 1.06214 0.178202 0.206713 0.0421174 0.724123)
(1.26274 0.0490781 -0.330897 -0.0215688 1.05665 0.204381 0.246655 -0.0651226 0.668287)
(1.2433 0.0147677 -0.37562 0.10423 1.00759 0.237214 0.19765 -0.174384 0.69179)
(1.19223 0.0546295 -0.372884 0.136546 0.949377 0.257762 0.0648816 -0.146612 0.796952)
(1.0797 0.0271679 -0.388425 0.0973102 0.994882 0.272428 -0.0835243 -0.180307 0.887303)
(0.980754 -0.0399939 -0.387115 0.00207906 1.035 0.257556 -0.164909 -0.220101 0.979283)
(0.929758 -0.12163 -0.369872 -0.0853948 1.03623 0.221651 -0.168995 -0.240825 1.0577)
(0.928055 -0.186109 -0.340569 -0.138785 1.00101 0.17494 -0.131842 -0.227307 1.11555)
(0.958435 -0.214348 -0.304331 -0.158222 0.945822 0.125727 -0.088855 -0.186149 1.15167)
(1.00311 -0.202744 -0.264758 -0.151949 0.887635 0.0784305 -0.0586776 -0.134406 1.16817)
(1.04839 -0.157341 -0.223129 -0.127442 0.839546 0.0348464 -0.046353 -0.0887478 1.16796)
(1.08459 -0.0892489 -0.178707 -0.0912005 0.810961 -0.00440893 -0.0486785 -0.0613083 1.15327)
(1.106 -0.0121035 -0.12956 -0.0507468 0.808028 -0.0389082 -0.057744 -0.0579906 1.12506)
(1.11136 0.0593397 -0.0738365 -0.0161507 0.833396 -0.0679882 -0.0643662 -0.0766482 1.08312)
(1.10513 0.110541 -0.0111298 -0.000132307 0.884822 -0.0910794 -0.0630697 -0.105834 1.02679)
(1.09923 0.130203 0.056723 -0.014366 0.952569 -0.108612 -0.0578595 -0.126644 0.956773)
(1.11132 0.115905 0.125926 -0.059371 1.01764 -0.122702 -0.0643 -0.119755 0.877325)
(1.15483 0.0793469 0.191896 -0.111589 1.05504 -0.136872 -0.100829 -0.0759602 0.798195)
(1.22238 0.0443296 0.250684 -0.123084 1.0458 -0.155367 -0.166696 -0.00365032 0.734862)
(1.27775 0.0325276 0.300434 -0.0544566 0.994795 -0.18267 -0.219525 0.0718993 0.706298)
(1.27346 0.0456375 0.341369 0.0685349 0.946444 -0.220112 -0.188597 0.120198 0.728531)
(1.19223 0.0546295 0.372884 0.136546 0.949377 -0.257762 -0.0648816 0.146612 0.796952)
(1.0797 0.0271679 0.388425 0.0973102 0.994882 -0.272428 0.0835243 0.180307 0.887303)
(0.980754 -0.0399939 0.387115 0.00207906 1.035 -0.257556 0.164909 0.220101 0.979283)
(0.929758 -0.12163 0.369872 -0.0853948 1.03623 -0.221651 0.168995 0.240825 1.0577)
(0.928055 -0.186109 0.340569 -0.138785 1.00101 -0.17494 0.131842 0.227307 1.11555)
(0.958435 -0.214348 0.304331 -0.158222 0.945822 -0.125727 0.088855 0.186149 1.15167)
(1.00311 -0.202744 0.264758 -0.151949 0.887635 -0.0784305 0.0586776 0.134406 1.16817)
(1.04839 -0.157341 0.223129 -0.127442 0.839546 -0.0348464 0.046353 0.0887478 1.16796)
(1.08459 -0.0892489 0.178707 -0.0912005 0.810961 0.00440893 0.0486785 0.0613082 1.15327)
(1.106 -0.0121035 0.12956 -0.0507468 0.808028 0.0389082 0.057744 0.0579906 1.12506)
(1.11136 0.0593397 0.0738365 -0.0161507 0.833396 0.0679882 0.0643662 0.0766482 1.08312)
(1.10513 0.110541 0.0111298 -0.000132306 0.884822 0.0910794 0.0630697 0.105834 1.02679)
(1.09923 0.130203 -0.056723 -0.014366 0.952569 0.108612 0.0578595 0.126644 0.956773)
(1.11132 0.115905 -0.125926 -0.059371 1.01764 0.122702 0.0643 0.119755 0.877325)
(1.15483 0.0793469 -0.191896 -0.111589 1.05504 0.136872 0.100829 0.0759602 0.798195)
(1.22238 0.0443296 -0.250684 -0.123084 1.0458 0.155367 0.166696 0.00365032 0.734862)
(1.27775 0.0325276 -0.300434 -0.0544566 0.994795 0.18267 0.219525 -0.0718993 0.706298)
(1.27346 0.0456375 -0.341369 0.0685349 0.946444 0.220112 0.188597 -0.120198 0.728531)
(1.23077 0.125999 -0.316783 0.105652 0.924018 0.246389 0.0688544 -0.0573655 0.808561)
(1.11067 0.12526 -0.350988 0.0713902 1.0167 0.260234 -0.0722951 -0.0902807 0.848186)
(0.999147 0.0575852 -0.373736 -0.0177015 1.07869 0.248355 -0.144027 -0.166866 0.900266)
(0.939746 -0.045196 -0.377137 -0.101861 1.08439 0.216636 -0.13461 -0.223446 0.958348)
(0.936547 -0.138931 -0.362846 -0.156462 1.04724 0.172941 -0.0872076 -0.228375 1.0119)
(0.973931 -0.195056 -0.335628 -0.18039 0.986301 0.123532 -0.0422317 -0.190688 1.05313)
(1.03207 -0.203436 -0.298881 -0.176693 0.918341 0.0726219 -0.0193717 -0.13553 1.07863)
(1.09195 -0.167173 -0.254042 -0.148155 0.859087 0.023421 -0.0216656 -0.0866261 1.08752)
(1.13785 -0.0987658 -0.201561 -0.100394 0.822929 -0.0212696 -0.0419836 -0.0603473 1.07961)
(1.15999 -0.0168969 -0.141824 -0.0438815 0.820255 -0.0589842 -0.0671317 -0.0636349 1.05476)
(1.15653 0.0571822 -0.0758919 0.00652703 0.854849 -0.0877147 -0.0820137 -0.0917023 1.01323)
(1.13462 0.103712 -0.00611379 0.0333348 0.921701 -0.106226 -0.0764311 -0.126651 0.956922)
(1.11087 0.109702 0.063522 0.0205642 1.00395 -0.114818 -0.0540415 -0.14132 0.891207)
(1.1085 0.0761835 0.127825 -0.0354574 1.07045 -0.116761 -0.0372689 -0.11242 0.826091)
(1.14608 0.0240646 0.182233 -0.109342 1.08309 -0.119529 -0.0569892 -0.0397138 0.77464)
(1.21927 -0.0104491 0.225139 -0.143478 1.02379 -0.132896 -0.122459 0.0439895 0.747718)
(1.29097 0.00423713 0.258356 -0.0879908 0.926045 -0.162011 -0.190284 0.0893018 0.749147)
(1.30427 0.0676147 0.2857 0.031895 0.875893 -0.205153 -0.178549 0.0782151 0.774619)
(1.23077 0.125999 0.316783 0.105652 0.924018 -0.246389 -0.0688544 0.0573655 0.808561)
(1.11067 0.12526 0.350988 0.0713902 1.0167 -0.260234 0.0722951 0.0902807 0.848186)
(0.999147 0.0575852 0.373736 -0.0177015 1.07869 -0.248355 0.144027 0.166866 0.900266)
(0.939746 -0.045196 0.377137 -0.101861 1.08439 -0.216636 0.13461 0.223446 0.958348)
(0.936547 -0.138931 0.362846 -0.156462 1.04724 -0.172941 0.0872076 0.228375 1.0119)
(0.973931 -0.195056 0.335628 -0.18039 0.986301 -0.123532 0.0422317 0.190688 1.05313)
(1.03207 -0.203436 0.298881 -0.176693 0.918341 -0.0726219 0.0193717 0.13553 1.07863)
(1.09195 -0.167173 0.254042 -0.148155 0.859087 -0.023421 0.0216656 0.0866261 1.08752)
(1.13785 -0.0987658 0.201561 -0.100394 0.822929 0.0212696 0.0419836 0.0603473 1.07961)
(1.15999 -0.0168969 0.141824 -0.0438815 0.820255 0.0589842 0.0671317 0.0636349 1.05476)
(1.15653 0.0571822 0.0758919 0.00652703 0.854849 0.0877147 0.0820137 0.0917023 1.01323)
(1.13462 0.103712 0.00611379 0.0333348 0.921701 0.106226 0.0764311 0.126651 0.956922)
(1.11087 0.109702 -0.063522 0.0205642 1.00395 0.114818 0.0540415 0.14132 0.891207)
(1.1085 0.0761835 -0.127825 -0.0354574 1.07045 0.116761 0.0372689 0.11242 0.826091)
(1.14608 0.0240646 -0.182233 -0.109342 1.08309 0.119529 0.0569892 0.0397138 0.77464)
(1.21927 -0.0104491 -0.225139 -0.143478 1.02379 0.132896 0.122459 -0.0439895 0.747718)
(1.29097 0.00423713 -0.258356 -0.0879908 0.926045 0.162011 0.190284 -0.0893018 0.749147)
(1.30427 0.0676147 -0.2857 0.031895 0.875893 0.205153 0.178549 -0.0782151 0.774619)
(1.19618 0.00237777 -0.328286 0.0580315 0.927585 0.363658 0.0638668 -0.400572 0.727224)
(1.07794 -0.0633314 -0.328984 0.0134783 0.950583 0.347318 -0.14415 -0.464408 0.85939)
(0.972082 -0.14813 -0.309019 -0.0652039 0.995483 0.307094 -0.270492 -0.475372 1.00007)
(0.914318 -0.227259 -0.278218 -0.137243 1.00958 0.263193 -0.307636 -0.46013 1.11612)
(0.906808 -0.281667 -0.245043 -0.181314 0.983231 0.220129 -0.283921 -0.425953 1.1958)
(0.933258 -0.299741 -0.212204 -0.195582 0.928854 0.178674 -0.234442 -0.378699 1.24361)
(0.977088 -0.278465 -0.179813 -0.186914 0.864584 0.139639 -0.182779 -0.327108 1.26691)
(1.02594 -0.221589 -0.147869 -0.161877 0.805573 0.103594 -0.140078 -0.281481 1.2708)
(1.07067 -0.13788 -0.115822 -0.125772 0.763243 0.0702033 -0.109066 -0.251437 1.25803)
(1.10475 -0.0397778 -0.0819523 -0.0851262 0.745964 0.0384382 -0.0876376 -0.24333 1.22936)
(1.12523 0.0576448 -0.0438351 -0.0500885 0.758553 0.00731813 -0.0723797 -0.257372 1.18367)
(1.13471 0.138386 0.000376416 -0.0344585 0.800442 -0.023621 -0.0629546 -0.285196 1.11855)
(1.14321 0.189006 0.0507504 -0.0504873 0.864116 -0.0546117 -0.0663988 -0.309419 1.03227)
(1.16596 0.203132 0.105224 -0.0975054 0.936076 -0.0866737 -0.0973184 -0.306753 0.927316)
(1.21372 0.18405 0.160382 -0.150475 0.999328 -0.123264 -0.167629 -0.253978 0.814667)
(1.27806 0.143346 0.213274 -0.162616 1.03307 -0.171764 -0.263513 -0.134106 0.714388)
(1.3232 0.0941755 0.262247 -0.0982065 1.0147 -0.240372 -0.323444 0.0506104 0.649956)
(1.29739 0.0490963 0.302674 0.00451542 0.960095 -0.321551 -0.262498 0.254117 0.645777)
(1.19618 0.00237777 0.328286 0.0580315 0.927585 -0.363658 -0.0638668 0.400572 0.727224)
(1.07794 -0.0633314 0.328984 0.0134783 0.950583 -0.347318 0.14415 0.464408 0.85939)
(0.972082 -0.14813 0.309019 -0.0652039 0.995483 -0.307094 0.270492 0.475372 1.00007)
(0.914318 -0.227259 0.278218 -0.137243 1.00958 -0.263193 0.307636 0.46013 1.11612)
(0.906808 -0.281667 0.245043 -0.181314 0.983231 -0.220129 0.283921 0.425953 1.1958)
(0.933258 -0.299741 0.212204 -0.195582 0.928854 -0.178674 0.234442 0.378699 1.24361)
(0.977088 -0.278465 0.179813 -0.186914 0.864584 -0.139639 0.182779 0.327108 1.26691)
(1.02594 -0.221589 0.147869 -0.161877 0.805573 -0.103594 0.140078 0.281481 1.2708)
(1.07067 -0.13788 0.115822 -0.125772 0.763243 -0.0702033 0.109066 0.251437 1.25803)
(1.10475 -0.0397778 0.0819523 -0.0851262 0.745964 -0.0384382 0.0876376 0.24333 1.22936)
(1.12523 0.0576448 0.0438351 -0.0500885 0.758553 -0.00731813 0.0723797 0.257372 1.18367)
(1.13471 0.138386 -0.000376413 -0.0344585 0.800442 0.023621 0.0629546 0.285196 1.11855)
(1.14321 0.189006 -0.0507504 -0.0504873 0.864116 0.0546117 0.0663988 0.309419 1.03227)
(1.16596 0.203132 -0.105224 -0.0975054 0.936076 0.0866737 0.0973184 0.306753 0.927316)
(1.21372 0.18405 -0.160382 -0.150475 0.999328 0.123264 0.167629 0.253978 0.814667)
(1.27806 0.143346 -0.213274 -0.162616 1.03307 0.171764 0.263513 0.134106 0.714388)
(1.3232 0.0941755 -0.262247 -0.0982065 1.0147 0.240372 0.323444 -0.0506104 0.649956)
(1.29739 0.0490963 -0.302674 0.00451543 0.960095 0.321551 0.262498 -0.254117 0.645777)
(1.25389 0.0848604 -0.316164 0.0413135 0.917338 0.27916 0.0803794 -0.265001 0.726569)
(1.12091 0.0381055 -0.319983 0.00799882 0.980235 0.27676 -0.129588 -0.343968 0.825119)
(0.99923 -0.0539138 -0.307581 -0.0660015 1.03841 0.25736 -0.253805 -0.410288 0.932974)
(0.934108 -0.159248 -0.285939 -0.139121 1.05457 0.229963 -0.278422 -0.442331 1.02482)
(0.927694 -0.242659 -0.260792 -0.188361 1.02697 0.197035 -0.241894 -0.432264 1.09141)
(0.962047 -0.284071 -0.234001 -0.210037 0.969264 0.160272 -0.1871 -0.390206 1.13386)
(1.01825 -0.277736 -0.205217 -0.207245 0.898873 0.121747 -0.139489 -0.33501 1.15596)
(1.08002 -0.226789 -0.173722 -0.182933 0.832187 0.0834809 -0.108706 -0.284877 1.16075)
(1.13348 -0.14152 -0.138839 -0.141149 0.784038 0.0469056 -0.0941405 -0.254032 1.14985)
(1.16857 -0.0383555 -0.0998328 -0.0898196 0.766251 0.0127397 -0.0887004 -0.250321 1.12364)
(1.18118 0.0623484 -0.0560404 -0.0420288 0.785258 -0.0188195 -0.0827272 -0.271757 1.08147)
(1.17545 0.139918 -0.00721077 -0.0149929 0.839527 -0.0479131 -0.0701122 -0.303525 1.02254)
(1.16498 0.178514 0.0461662 -0.0249337 0.917085 -0.074984 -0.0561067 -0.319035 0.947811)
(1.17038 0.173488 0.102474 -0.0754325 0.994177 -0.100991 -0.0615465 -0.289244 0.862649)
(1.20865 0.13671 0.158617 -0.14247 1.03886 -0.128138 -0.11265 -0.200152 0.778515)
(1.27591 0.0951336 0.210659 -0.173321 1.02606 -0.160637 -0.209408 -0.0671549 0.710708)
(1.33719 0.0764273 0.255695 -0.124403 0.964064 -0.202632 -0.29169 0.0719988 0.67195)
(1.33871 0.0851589 0.292863 -0.0222905 0.907694 -0.2489 -0.261002 0.182221 0.671894)
(1.25389 0.0848604 0.316164 0.0413135 0.917338 -0.27916 -0.0803794 0.265001 0.726569)
(1.12091 0.0381055 0.319983 0.00799882 0.980235 -0.27676 0.129588 0.343968 0.825119)
(0.99923 -0.0539138 0.307581 -0.0660015 1.03841 -0.25736 0.253805 0.410288 0.932974)
(0.934108 -0.159248 0.285939 -0.139121 1.05457 -0.229963 0.278422 0.442331 1.02482)
(0.927694 -0.242659 0.260792 -0.188361 1.02697 -0.197035 0.241894 0.432264 1.09141)
(0.962047 -0.284071 0.234001 -0.210037 0.969264 -0.160272 0.1871 0.390206 1.13386)
(1.01825 -0.277736 0.205217 -0.207245 0.898873 -0.121747 0.139489 0.33501 1.15596)
(1.08002 -0.226789 0.173722 -0.182933 0.832187 -0.0834809 0.108706 0.284877 1.16075)
(1.13348 -0.14152 0.138839 -0.141149 0.784038 -0.0469056 0.0941405 0.254032 1.14985)
(1.16857 -0.0383555 0.0998328 -0.0898196 0.766251 -0.0127397 0.0887004 0.250321 1.12364)
(1.18118 0.0623484 0.0560404 -0.0420288 0.785258 0.0188195 0.0827272 0.271757 1.08147)
(1.17545 0.139918 0.00721077 -0.0149929 0.839527 0.0479131 0.0701122 0.303525 1.02254)
(1.16498 0.178514 -0.0461662 -0.0249337 0.917085 0.074984 0.0561067 0.319035 0.947811)
(1.17038 0.173488 -0.102474 -0.0754325 0.994177 0.100991 0.0615465 0.289244 0.862649)
(1.20865 0.13671 -0.158617 -0.14247 1.03886 0.128138 0.11265 0.200152 0.778515)
(1.27591 0.0951336 -0.210659 -0.173321 1.02606 0.160637 0.209408 0.0671549 0.710708)
(1.33719 0.0764273 -0.255695 -0.124403 0.964064 0.202632 0.29169 -0.0719988 0.67195)
(1.33871 0.0851589 -0.292863 -0.0222905 0.907694 0.2489 0.261002 -0.182221 0.671894)
(1.31598 0.16521 -0.297655 0.0225994 0.888161 0.214598 0.100551 -0.128418 0.739113)
(1.16572 0.164493 -0.302804 0.00141506 0.992723 0.221739 -0.116423 -0.201784 0.797801)
(1.02282 0.0717035 -0.298976 -0.0668758 1.07346 0.21879 -0.242145 -0.324058 0.866251)
(0.945348 -0.0614671 -0.287453 -0.141904 1.10093 0.204588 -0.252556 -0.413519 0.929925)
(0.937805 -0.180355 -0.270331 -0.198691 1.07802 0.179992 -0.199766 -0.435271 0.98174)
(0.982065 -0.253449 -0.248756 -0.231017 1.01972 0.147587 -0.137536 -0.401589 1.01853)
(1.05575 -0.269005 -0.222664 -0.236159 0.943035 0.110295 -0.0946197 -0.343025 1.03974)
(1.13629 -0.227971 -0.191311 -0.2117 0.866835 0.0709327 -0.0787979 -0.288019 1.0458)
(1.20258 -0.142352 -0.154104 -0.160178 0.811249 0.0321018 -0.0847392 -0.256925 1.03712)
(1.23934 -0.0341049 -0.111093 -0.0924993 0.793016 -0.0041401 -0.0984977 -0.25938 1.01371)
(1.2416 0.0691928 -0.0629598 -0.0271131 0.820238 -0.0366586 -0.102323 -0.290208 0.975516)
(1.21684 0.141169 -0.0105855 0.0134676 0.888981 -0.065278 -0.083284 -0.326077 0.923415)
(1.18436 0.16409 0.0451896 0.00813809 0.98037 -0.0904071 -0.0456032 -0.329056 0.861009)
(1.17136 0.136723 0.102995 -0.0506645 1.05768 -0.112966 -0.0195934 -0.264423 0.796563)
(1.20075 0.0808516 0.160105 -0.136569 1.07465 -0.13491 -0.0499442 -0.131537 0.742199)
(1.27113 0.0362557 0.212569 -0.185706 1.01103 -0.158303 -0.150667 0.0185994 0.70817)
(1.34786 0.0376328 0.255869 -0.149716 0.9053 -0.18193 -0.259746 0.115841 0.697215)
(1.38005 0.0948109 0.285273 -0.0488892 0.842264 -0.200145 -0.263041 0.130324 0.707199)
(1.31598 0.16521 0.297656 0.0225994 0.888161 -0.214598 -0.100551 0.128418 0.739113)
(1.16572 0.164493 0.302804 0.00141506 0.992723 -0.221739 0.116423 0.201784 0.797801)
(1.02282 0.0717035 0.298976 -0.0668758 1.07346 -0.21879 0.242145 0.324058 0.866251)
(0.945348 -0.0614671 0.287453 -0.141904 1.10093 -0.204588 0.252556 0.413519 0.929925)
(0.937805 -0.180355 0.270331 -0.198691 1.07802 -0.179992 0.199766 0.435271 0.98174)
(0.982065 -0.253449 0.248756 -0.231017 1.01972 -0.147587 0.137536 0.401589 1.01853)
(1.05575 -0.269005 0.222664 -0.236159 0.943035 -0.110295 0.0946197 0.343025 1.03974)
(1.13629 -0.227971 0.191311 -0.2117 0.866835 -0.0709327 0.0787979 0.288019 1.0458)
(1.20258 -0.142352 0.154104 -0.160178 0.811249 -0.0321018 0.0847392 0.256924 1.03712)
(1.23934 -0.0341049 0.111093 -0.0924993 0.793016 0.0041401 0.0984977 0.25938 1.01371)
(1.2416 0.0691928 0.0629598 -0.0271131 0.820238 0.0366586 0.102323 0.290208 0.975516)
(1.21684 0.141169 0.0105855 0.0134676 0.888981 0.065278 0.083284 0.326077 0.923415)
(1.18436 0.16409 -0.0451896 0.00813809 0.98037 0.0904071 0.0456032 0.329056 0.861009)
(1.17136 0.136723 -0.102995 -0.0506645 1.05768 0.112966 0.0195934 0.264423 0.796563)
(1.20075 0.0808516 -0.160105 -0.136569 1.07465 0.13491 0.0499442 0.131537 0.742199)
(1.27113 0.0362557 -0.212569 -0.185706 1.01103 0.158303 0.150667 -0.0185994 0.70817)
(1.34786 0.0376328 -0.255869 -0.149716 0.9053 0.18193 0.259746 -0.115841 0.697215)
(1.38005 0.0948109 -0.285273 -0.0488892 0.842264 0.200145 0.263041 -0.130324 0.707199)
(1.20879 0.0191872 -0.242061 -0.161015 0.902033 0.351275 0.0892487 -0.496121 0.72199)
(1.09764 -0.0691977 -0.239297 -0.158724 0.953136 0.337843 -0.136868 -0.614213 0.805965)
(0.996834 -0.165959 -0.217856 -0.19153 0.993039 0.311258 -0.294024 -0.652521 0.927357)
(0.9365 -0.250886 -0.189742 -0.230197 1.00091 0.285624 -0.361219 -0.646322 1.04138)
(0.925055 -0.307996 -0.164964 -0.254662 0.971806 0.260509 -0.354753 -0.615861 1.12671)
(0.9508 -0.329695 -0.14387 -0.258465 0.91495 0.232787 -0.308448 -0.57506 1.18361)
(0.998005 -0.31249 -0.123015 -0.243221 0.845428 0.202325 -0.249708 -0.532221 1.21762)
(1.05335 -0.257124 -0.100349 -0.212075 0.778133 0.170532 -0.193859 -0.494919 1.23236)
(1.10613 -0.17018 -0.07548 -0.168823 0.726337 0.138405 -0.146945 -0.470769 1.22912)
(1.1482 -0.0640298 -0.0485045 -0.119873 0.700777 0.105966 -0.109682 -0.465035 1.20786)