/*--------------------------------*- C++ -*----------------------------------*\
| =========                 |                                                 |
| \\      /  F ield         | OpenFOAM: The Open Source CFD Toolbox           |
|  \\    /   O peration     | Version:  2312                                  |
|   \\  /    A nd           | Website:  www.openfoam.com                      |
|    \\/     M anipulation  |                                                 |
\*---------------------------------------------------------------------------*/
FoamFile
{
    version     2.0;
    format      ascii;
    arch        "LSB;label=32;scalar=64";
    class       pointVectorField;
    location    "0.8";
    object      pointD;
}
// * * * * * * * * * * * * * * * * * * * * * * * * * * * * * * * * * * * * * //

dimensions      [0 1 0 0 0 0 0];

internalField   nonuniform List<vector> 
2164
(
(0 0 0)
(0 0 0)
(0 0 0)
(0 0 0)
(0 0 0)
(0 0 0)
(0 0 0)
(0 0 0)
(0 0 0)
(0 0 0)
(0 0 0)
(0 0 0)
(0 0 0)
(0 0 0)
(0 0 0)
(0 0 0)
(0 0 0)
(0 0 0)
(0 0 0)
(0 0 0)
(0 0 0)
(0 0 0)
(0 0 0)
(0 0 0)
(0 0 0)
(0 0 0)
(0 0 0)
(0 0 0)
(0 0 0)
(0 0 0)
(0 0 0)
(0 0 0)
(0 0 0)
(0 0 0)
(0 0 0)
(0 0 0)
(0.000971211 -0.000232285 7.1388e-05)
(0.000818745 -0.000383024 -0.00025255)
(0.00066292 -0.00048262 -0.000441103)
(0.000526504 -0.000497066 -0.000515688)
(0.000421878 -0.000459697 -0.000515167)
(0.000355191 -0.00040347 -0.000468801)
(0.000323529 -0.000340551 -0.000398547)
(0.000312957 -0.000269804 -0.000321157)
(0.000302427 -0.000187477 -0.000247079)
(0.000269559 -9.16819e-05 -0.000179128)
(0.000195172 1.845e-05 -0.00011144)
(6.55728e-05 0.000144366 -2.88656e-05)
(-0.000126616 0.000283684 9.12292e-05)
(-0.000378754 0.000414892 0.000268976)
(-0.000665858 0.000482993 0.000494575)
(-0.00092754 0.00042583 0.000685609)
(-0.00108125 0.000267125 0.000690263)
(-0.00108167 0.000165076 0.000445724)
(-0.000971211 0.000232285 7.1388e-05)
(-0.000818745 0.000383024 -0.00025255)
(-0.00066292 0.00048262 -0.000441103)
(-0.000526504 0.000497066 -0.000515688)
(-0.000421878 0.000459697 -0.000515167)
(-0.000355191 0.00040347 -0.000468801)
(-0.000323529 0.000340551 -0.000398547)
(-0.000312957 0.000269804 -0.000321157)
(-0.000302427 0.000187477 -0.000247079)
(-0.000269559 9.16819e-05 -0.000179128)
(-0.000195172 -1.845e-05 -0.00011144)
(-6.55728e-05 -0.000144366 -2.88656e-05)
(0.000126616 -0.000283684 9.12292e-05)
(0.000378754 -0.000414892 0.000268976)
(0.000665858 -0.000482993 0.000494575)
(0.00092754 -0.00042583 0.000685609)
(0.00108125 -0.000267125 0.000690263)
(0.00108167 -0.000165076 0.000445724)
(0.000908524 -0.000370483 0.000111374)
(0.000862952 -0.000448375 -8.84115e-05)
(0.000791267 -0.00046144 -0.00022547)
(0.000701986 -0.000410045 -0.000307761)
(0.000607094 -0.000328797 -0.000347009)
(0.000520184 -0.000244451 -0.00035128)
(0.000447811 -0.000165544 -0.000329163)
(0.000385886 -9.00895e-05 -0.000289406)
(0.000322553 -1.44356e-05 -0.000238329)
(0.000243537 6.26165e-05 -0.000178249)
(0.000137228 0.00013999 -0.000107201)
(-1.93871e-06 0.000216403 -1.95484e-05)
(-0.000172724 0.000290186 9.20327e-05)
(-0.000367502 0.000353113 0.000230606)
(-0.000569761 0.000383776 0.00038116)
(-0.000750023 0.000360853 0.000492009)
(-0.00087186 0.000308023 0.000483612)
(-0.000918706 0.000300521 0.000333046)
(-0.000908524 0.000370483 0.000111374)
(-0.000862952 0.000448375 -8.84115e-05)
(-0.000791267 0.00046144 -0.00022547)
(-0.000701986 0.000410045 -0.000307761)
(-0.000607094 0.000328797 -0.000347009)
(-0.000520184 0.000244451 -0.00035128)
(-0.000447811 0.000165544 -0.000329163)
(-0.000385886 9.00895e-05 -0.000289406)
(-0.000322553 1.44356e-05 -0.000238329)
(-0.000243537 -6.26165e-05 -0.000178249)
(-0.000137228 -0.00013999 -0.000107201)
(1.93871e-06 -0.000216403 -1.95484e-05)
(0.000172724 -0.000290186 9.20327e-05)
(0.000367502 -0.000353112 0.000230606)
(0.000569761 -0.000383776 0.00038116)
(0.000750023 -0.000360853 0.000492009)
(0.00087186 -0.000308023 0.000483612)
(0.000918706 -0.000300521 0.000333046)
(0 0 0)
(0 0 0)
(0 0 0)
(0 0 0)
(0 0 0)
(0 0 0)
(0 0 0)
(0 0 0)
(0 0 0)
(0 0 0)
(0 0 0)
(0 0 0)
(0 0 0)
(0 0 0)
(0 0 0)
(0 0 0)
(0 0 0)
(0 0 0)
(0 0 0)
(0 0 0)
(0 0 0)
(0 0 0)
(0 0 0)
(0 0 0)
(0 0 0)
(0 0 0)
(0 0 0)
(0 0 0)
(0 0 0)
(0 0 0)
(0 0 0)
(0 0 0)
(0 0 0)
(0 0 0)
(0 0 0)
(0 0 0)
(0.000798297 -0.000495151 0.000129718)
(0.000854345 -0.000513485 4.2849e-05)
(0.000871261 -0.000451737 -4.56754e-05)
(0.000840559 -0.000340769 -0.000134329)
(0.00077028 -0.000216327 -0.000209958)
(0.0006773 -0.000100172 -0.000260396)
(0.000574909 4.49421e-07 -0.000281077)
(0.000468066 8.56154e-05 -0.000272787)
(0.000354987 0.000156564 -0.000237849)
(0.000231363 0.000212704 -0.000178455)
(9.49913e-05 0.00025158 -9.72715e-05)
(-5.08065e-05 0.00027132 8.46867e-07)
(-0.000197096 0.000273969 0.000107319)
(-0.000333272 0.000267002 0.00020908)
(-0.000452006 0.000262144 0.000288005)
(-0.000551653 0.000274772 0.000321863)
(-0.000637345 0.000325617 0.000295158)
(-0.000720195 0.000413473 0.0002197)
(-0.000798297 0.000495151 0.000129718)
(-0.000854345 0.000513485 4.2849e-05)
(-0.000871261 0.000451737 -4.56754e-05)
(-0.000840559 0.000340769 -0.000134329)
(-0.00077028 0.000216327 -0.000209958)
(-0.0006773 0.000100172 -0.000260396)
(-0.000574909 -4.49418e-07 -0.000281077)
(-0.000468066 -8.56154e-05 -0.000272787)
(-0.000354987 -0.000156564 -0.000237849)
(-0.000231363 -0.000212704 -0.000178455)
(-9.49913e-05 -0.00025158 -9.72715e-05)
(5.08065e-05 -0.00027132 8.46865e-07)
(0.000197096 -0.000273969 0.000107319)
(0.000333272 -0.000267002 0.00020908)
(0.000452006 -0.000262144 0.000288005)
(0.000551653 -0.000274772 0.000321863)
(0.000637345 -0.000325617 0.000295158)
(0.000720195 -0.000413473 0.0002197)
(0 0 0)
(0 0 0)
(0 0 0)
(0 0 0)
(0 0 0)
(0 0 0)
(0 0 0)
(0 0 0)
(0 0 0)
(0 0 0)
(0 0 0)
(0 0 0)
(0 0 0)
(0 0 0)
(0 0 0)
(0 0 0)
(0 0 0)
(0 0 0)
(0 0 0)
(0 0 0)
(0 0 0)
(0 0 0)
(0 0 0)
(0 0 0)
(0 0 0)
(0 0 0)
(0 0 0)
(0 0 0)
(0 0 0)
(0 0 0)
(0 0 0)
(0 0 0)
(0 0 0)
(0 0 0)
(0 0 0)
(0 0 0)
(0.00064308 -0.000569682 0.000124544)
(0.000783972 -0.000554494 0.000127201)
(0.000885786 -0.000444642 8.44547e-05)
(0.000922311 -0.000289867 -1.67948e-06)
(0.000892801 -0.000128026 -0.00010154)
(0.000811417 2.05806e-05 -0.000186408)
(0.000694297 0.000146576 -0.000239335)
(0.000553947 0.000245138 -0.000253211)
(0.000399152 0.000312753 -0.000226585)
(0.000237258 0.000346044 -0.000162138)
(7.70712e-05 0.000342252 -6.79938e-05)
(-6.92335e-05 0.000302151 4.01236e-05)
(-0.000187586 0.000235623 0.000139088)
(-0.000268297 0.000167398 0.000204024)
(-0.000314335 0.000136374 0.000219172)
(-0.00034587 0.000180936 0.000189437)
(-0.000397903 0.000311062 0.000144696)
(-0.000501019 0.000471567 0.000119152)
(-0.00064308 0.000569682 0.000124544)
(-0.000783972 0.000554494 0.000127201)
(-0.000885786 0.000444642 8.44547e-05)
(-0.000922311 0.000289867 -1.67947e-06)
(-0.000892801 0.000128026 -0.00010154)
(-0.000811417 -2.05806e-05 -0.000186408)
(-0.000694297 -0.000146576 -0.000239335)
(-0.000553947 -0.000245138 -0.000253211)
(-0.000399152 -0.000312753 -0.000226585)
(-0.000237258 -0.000346044 -0.000162138)
(-7.70712e-05 -0.000342252 -6.79938e-05)
(6.92335e-05 -0.000302151 4.01236e-05)
(0.000187586 -0.000235623 0.000139088)
(0.000268297 -0.000167398 0.000204024)
(0.000314335 -0.000136374 0.000219172)
(0.00034587 -0.000180936 0.000189437)
(0.000397903 -0.000311062 0.000144696)
(0.000501019 -0.000471567 0.000119152)
(0 0 0)
(0 0 0)
(0 0 0)
(0 0 0)
(0 0 0)
(0 0 0)
(0 0 0)
(0 0 0)
(0 0 0)
(0 0 0)
(0 0 0)
(0 0 0)
(0 0 0)
(0 0 0)
(0 0 0)
(0 0 0)
(0 0 0)
(0 0 0)
(0 0 0)
(0 0 0)
(0 0 0)
(0 0 0)
(0 0 0)
(0 0 0)
(0 0 0)
(0 0 0)
(0 0 0)
(0 0 0)
(0 0 0)
(0 0 0)
(0 0 0)
(0 0 0)
(0 0 0)
(0 0 0)
(0 0 0)
(0 0 0)
(0.00181703 -0.000788257 0.000280324)
(0.00161828 -0.000960142 -0.000382864)
(0.00137619 -0.00100213 -0.000824595)
(0.001139 -0.000919122 -0.00105424)
(0.000932761 -0.000779055 -0.00112684)
(0.00077492 -0.000634176 -0.00109437)
(0.000669657 -0.000499782 -0.000998783)
(0.0006019 -0.00036918 -0.000872054)
(0.00054093 -0.000231089 -0.000734147)
(0.000449773 -7.81239e-05 -0.000590137)
(0.000295202 9.30781e-05 -0.000427951)
(5.50936e-05 0.000285148 -0.000218732)
(-0.000278351 0.00049708 7.5757e-05)
(-0.000695439 0.000705458 0.000480832)
(-0.00115706 0.000842716 0.000963051)
(-0.00158097 0.000828201 0.00136852)
(-0.00185595 0.000697442 0.00142919)
(-0.00191951 0.000648434 0.000999058)
(-0.00181703 0.000788257 0.000280324)
(-0.00161828 0.000960142 -0.000382864)
(-0.00137619 0.00100213 -0.000824595)
(-0.001139 0.000919122 -0.00105424)
(-0.000932761 0.000779055 -0.00112684)
(-0.00077492 0.000634176 -0.00109437)
(-0.000669657 0.000499782 -0.000998783)
(-0.0006019 0.00036918 -0.000872054)
(-0.00054093 0.000231089 -0.000734147)
(-0.000449773 7.81239e-05 -0.000590137)
(-0.000295202 -9.30781e-05 -0.000427951)
(-5.50936e-05 -0.000285148 -0.000218732)
(0.000278351 -0.00049708 7.5757e-05)
(0.000695439 -0.000705458 0.000480832)
(0.00115706 -0.000842716 0.000963051)
(0.00158097 -0.000828201 0.00136851)
(0.00185595 -0.000697442 0.00142919)
(0.00191951 -0.000648434 0.000999058)
(0.00171233 -0.000891975 0.000380472)
(0.00165302 -0.000982432 -6.84472e-05)
(0.00153259 -0.000945203 -0.000408802)
(0.00137256 -0.000807191 -0.000631427)
(0.0011963 -0.00062856 -0.000751724)
(0.0010276 -0.000451946 -0.000788737)
(0.00087853 -0.000290767 -0.000762931)
(0.000744209 -0.000142099 -0.000692699)
(0.000606588 1.04204e-07 -0.000590232)
(0.000442623 0.000138358 -0.000459045)
(0.000233304 0.000271497 -0.000293686)
(-2.95649e-05 0.000398374 -8.22112e-05)
(-0.000341426 0.000519286 0.000187144)
(-0.000686535 0.000628113 0.000512323)
(-0.00103695 0.000701735 0.000854245)
(-0.00134999 0.000715872 0.00111026)
(-0.00157653 0.000704037 0.00112784)
(-0.00169299 0.000758789 0.000842303)
(-0.00171233 0.000891975 0.000380472)
(-0.00165302 0.000982432 -6.84472e-05)
(-0.00153259 0.000945203 -0.000408802)
(-0.00137256 0.000807191 -0.000631427)
(-0.0011963 0.00062856 -0.000751724)
(-0.0010276 0.000451946 -0.000788737)
(-0.00087853 0.000290767 -0.000762931)
(-0.000744209 0.000142099 -0.000692699)
(-0.000606588 -1.04197e-07 -0.000590232)
(-0.000442623 -0.000138358 -0.000459045)
(-0.000233304 -0.000271497 -0.000293686)
(2.95649e-05 -0.000398374 -8.22112e-05)
(0.000341426 -0.000519286 0.000187144)
(0.000686535 -0.000628113 0.000512323)
(0.00103695 -0.000701735 0.000854245)
(0.00134999 -0.000715872 0.00111026)
(0.00157653 -0.000704037 0.00112784)
(0.00169299 -0.000758789 0.000842303)
(0.001524 -0.000996267 0.000443317)
(0.00161081 -0.00102057 0.000204837)
(0.0016241 -0.000914697 -3.17696e-05)
(0.00155682 -0.000725835 -0.000244165)
(0.00142765 -0.000507945 -0.000408635)
(0.00126342 -0.000295351 -0.000511183)
(0.00108209 -0.00010168 -0.000550394)
(0.000888624 6.9732e-05 -0.000530787)
(0.000678702 0.000217605 -0.000456748)
(0.000445074 0.00033876 -0.000330532)
(0.000184607 0.000428255 -0.000154035)
(-9.63464e-05 0.000483145 6.66534e-05)
(-0.000381429 0.000507766 0.000315593)
(-0.00065016 0.000516458 0.000563039)
(-0.000886348 0.000531577 0.000765542)
(-0.00108349 0.000578947 0.000870799)
(-0.00124599 0.000687867 0.000833696)
(-0.00139241 0.000854551 0.000667907)
(-0.001524 0.000996267 0.000443317)
(-0.00161081 0.00102057 0.000204837)
(-0.0016241 0.000914697 -3.17696e-05)
(-0.00155682 0.000725835 -0.000244165)
(-0.00142765 0.000507945 -0.000408635)
(-0.00126342 0.000295351 -0.000511183)
(-0.00108209 0.00010168 -0.000550394)
(-0.000888624 -6.9732e-05 -0.000530787)
(-0.000678702 -0.000217605 -0.000456748)
(-0.000445074 -0.00033876 -0.000330532)
(-0.000184607 -0.000428255 -0.000154035)
(9.63464e-05 -0.000483145 6.66534e-05)
(0.000381429 -0.000507766 0.000315593)
(0.00065016 -0.000516458 0.000563039)
(0.000886348 -0.000531577 0.000765542)
(0.00108349 -0.000578947 0.000870799)
(0.00124599 -0.000687867 0.000833696)
(0.00139241 -0.000854551 0.000667907)
(0.00126465 -0.00105201 0.00045946)
(0.00148303 -0.00104219 0.000406453)
(0.00162769 -0.000893832 0.000277094)
(0.00166342 -0.000667979 9.06797e-05)
(0.00159849 -0.000416014 -0.000100525)
(0.001457 -0.000168066 -0.000253181)
(0.00126002 5.91253e-05 -0.000344109)
(0.00102163 0.000253915 -0.000363739)
(0.000751643 0.000406264 -0.000309094)
(0.000459676 0.000507038 -0.000182192)
(0.000159171 0.000549053 6.6322e-06)
(-0.000129809 0.000530983 0.000233116)
(-0.000382073 0.000465514 0.000455993)
(-0.000576387 0.000389182 0.000623868)
(-0.000709308 0.00036196 0.000696174)
(-0.000802788 0.000439912 0.000667912)
(-0.000898198 0.000639892 0.000577735)
(-0.00104869 0.000892073 0.000496447)
(-0.00126465 0.00105201 0.00045946)
(-0.00148303 0.00104219 0.000406453)
(-0.00162769 0.000893832 0.000277094)
(-0.00166342 0.000667979 9.06797e-05)
(-0.00159849 0.000416014 -0.000100525)
(-0.001457 0.000168066 -0.000253181)
(-0.00126002 -5.91253e-05 -0.000344109)
(-0.00102163 -0.000253915 -0.000363739)
(-0.000751643 -0.000406264 -0.000309094)
(-0.000459676 -0.000507038 -0.000182192)
(-0.000159171 -0.000549053 6.63219e-06)
(0.000129809 -0.000530983 0.000233116)
(0.000382073 -0.000465514 0.000455993)
(0.000576387 -0.000389182 0.000623868)
(0.000709308 -0.00036196 0.000696174)
(0.000802788 -0.000439912 0.000667912)
(0.000898198 -0.000639892 0.000577735)
(0.00104869 -0.000892073 0.000496447)
(0.00248932 -0.00162241 0.00070374)
(0.002262 -0.00168863 -0.000300188)
(0.0019565 -0.00160906 -0.00104814)
(0.00164486 -0.00141883 -0.00149861)
(0.00136604 -0.00118461 -0.00170672)
(0.00113898 -0.000955965 -0.00174639)
(0.000967882 -0.000747608 -0.00167678)
(0.0008381 -0.000551463 -0.00153915)
(0.000716619 -0.000352818 -0.0013574)
(0.000560635 -0.000140323 -0.00113562)
(0.000330273 9.17641e-05 -0.0008559)
(-1.59287e-09 0.000346459 -0.000480937)
(-0.000435727 0.000623153 3.18293e-05)
(-0.000960402 0.000903167 0.000696611)
(-0.00152853 0.00113414 0.00144441)
(-0.00205681 0.00126321 0.00206702)
(-0.00242761 0.00134247 0.00223185)
(-0.0025646 0.00146958 0.00170417)
(-0.00248932 0.00162241 0.00070374)
(-0.002262 0.00168863 -0.000300188)
(-0.0019565 0.00160906 -0.00104814)
(-0.00164486 0.00141883 -0.00149861)
(-0.00136604 0.00118461 -0.00170672)
(-0.00113898 0.000955965 -0.00174639)
(-0.000967882 0.000747608 -0.00167678)
(-0.0008381 0.000551463 -0.00153915)
(-0.000716619 0.000352818 -0.0013574)
(-0.000560635 0.000140323 -0.00113562)
(-0.000330273 -9.1764e-05 -0.0008559)
(1.57352e-09 -0.000346458 -0.000480937)
(0.000435727 -0.000623153 3.18293e-05)
(0.000960402 -0.000903167 0.000696611)
(0.00152853 -0.00113414 0.00144441)
(0.00205681 -0.00126321 0.00206702)
(0.00242761 -0.00134247 0.00223185)
(0.0025646 -0.00146958 0.00170417)
(0.00235394 -0.00154414 0.000834822)
(0.00227776 -0.00157575 0.000116694)
(0.00211146 -0.00146209 -0.000469247)
(0.00189499 -0.00124722 -0.000873735)
(0.00166122 -0.000991073 -0.00111065)
(0.00143438 -0.000736826 -0.00121282)
(0.00122508 -0.000500365 -0.00121226)
(0.00102756 -0.000280848 -0.00113377)
(0.000822213 -7.26307e-05 -0.000992015)
(0.000583228 0.000127564 -0.000789581)
(0.000288795 0.000319427 -0.000517292)
(-7.03243e-05 0.000502346 -0.000159387)
(-0.000487516 0.000677515 0.000294027)
(-0.000941578 0.000842221 0.000825791)
(-0.00139744 0.000983161 0.00136553)
(-0.00180767 0.00109383 0.00177299)
(-0.00212107 0.00121668 0.00186045)
(-0.00230567 0.00138983 0.00150718)
(-0.00235394 0.00154414 0.000834822)
(-0.00227776 0.00157575 0.000116694)
(-0.00211146 0.00146209 -0.000469247)
(-0.00189499 0.00124722 -0.000873735)
(-0.00166122 0.000991073 -0.00111065)
(-0.00143438 0.000736826 -0.00121282)
(-0.00122508 0.000500365 -0.00121226)
(-0.00102756 0.000280848 -0.00113377)
(-0.000822213 7.26307e-05 -0.000992015)
(-0.000583229 -0.000127564 -0.000789581)
(-0.000288795 -0.000319427 -0.000517292)
(7.03243e-05 -0.000502346 -0.000159387)
(0.000487516 -0.000677515 0.000294027)
(0.000941578 -0.000842221 0.000825791)
(0.00139744 -0.000983161 0.00136553)
(0.00180767 -0.00109383 0.00177299)
(0.00212107 -0.00121668 0.00186045)
(0.00230567 -0.00138983 0.00150718)
(0.00212527 -0.00147953 0.000918194)
(0.00220716 -0.00149188 0.000491297)
(0.00219352 -0.00135386 7.61825e-05)
(0.00208819 -0.00111723 -0.000275802)
(0.00191588 -0.000837943 -0.000536728)
(0.00170365 -0.000554428 -0.000697082)
(0.00146738 -0.000285343 -0.000760779)
(0.00121019 -3.88456e-05 -0.000735702)
(0.000926756 0.000180057 -0.000627316)
(0.000609746 0.00036607 -0.000437019)
(0.000256542 0.000513741 -0.000165108)
(-0.000125675 0.000620704 0.00018169)
(-0.000518942 0.000692456 0.000579399)
(-0.000898758 0.000745925 0.000978658)
(-0.00124175 0.000809074 0.00130866)
(-0.0015334 0.000914368 0.00149603)
(-0.00177338 0.00108808 0.00148739)
(-0.00197159 0.00131254 0.00127783)
(-0.00212527 0.00147953 0.000918194)
(-0.00220716 0.00149188 0.000491297)
(-0.00219352 0.00135386 7.61825e-05)
(-0.00208819 0.00111723 -0.000275802)
(-0.00191588 0.000837943 -0.000536728)
(-0.00170365 0.000554428 -0.000697082)
(-0.00146738 0.000285343 -0.000760779)
(-0.00121019 3.88456e-05 -0.000735702)
(-0.000926756 -0.000180057 -0.000627316)
(-0.000609746 -0.00036607 -0.000437019)
(-0.000256542 -0.000513741 -0.000165108)
(0.000125675 -0.000620704 0.00018169)
(0.000518942 -0.000692456 0.000579399)
(0.000898758 -0.000745925 0.000978658)
(0.00124175 -0.000809074 0.00130866)
(0.0015334 -0.000914368 0.00149603)
(0.00177338 -0.00108808 0.00148739)
(0.00197159 -0.00131254 0.00127783)
(0.00181794 -0.00140721 0.000935999)
(0.00204217 -0.00141611 0.000780237)
(0.00217927 -0.00126779 0.000543269)
(0.00219503 -0.0010168 0.000261446)
(0.00209984 -0.000717248 -5.32231e-06)
(0.00191829 -0.000405509 -0.000208808)
(0.00166998 -0.000104805 -0.000324256)
(0.00136714 0.000166785 -0.00034188)
(0.00101927 0.000393244 -0.000258326)
(0.000637822 0.000561165 -7.50784e-05)
(0.000239067 0.000661683 0.000196856)
(-0.000154831 0.000693706 0.00052831)
(-0.000517132 0.000670949 0.000864527)
(-0.000823399 0.000632311 0.00113112)
(-0.00106376 0.000640986 0.00126503)
(-0.00125065 0.000750725 0.0012552)
(-0.00141286 0.000966489 0.00115203)
(-0.00159203 0.00122769 0.00103927)
(-0.00181794 0.00140721 0.000935999)
(-0.00204217 0.00141611 0.000780237)
(-0.00217927 0.00126779 0.000543269)
(-0.00219503 0.0010168 0.000261446)
(-0.00209984 0.000717248 -5.3223e-06)
(-0.00191829 0.000405509 -0.000208808)
(-0.00166998 0.000104805 -0.000324256)
(-0.00136714 -0.000166785 -0.00034188)
(-0.00101927 -0.000393244 -0.000258326)
(-0.000637822 -0.000561165 -7.50784e-05)
(-0.000239067 -0.000661683 0.000196856)
(0.000154831 -0.000693706 0.00052831)
(0.000517132 -0.000670949 0.000864527)
(0.000823399 -0.000632311 0.00113112)
(0.00106376 -0.000640986 0.00126503)
(0.00125065 -0.000750725 0.0012552)
(0.00141285 -0.000966489 0.00115203)
(0.00159203 -0.00122769 0.00103927)
(0.0029672 -0.00241587 0.00124775)
(0.00272756 -0.00240379 1.93095e-05)
(0.00237755 -0.00224587 -0.00100145)
(0.00201695 -0.00199125 -0.0016798)
(0.00169664 -0.00169554 -0.00204918)
(0.00142871 -0.00140084 -0.00219525)
(0.00120985 -0.00112331 -0.00218819)
(0.00102417 -0.000858461 -0.00207297)
(0.00084089 -0.000593281 -0.0018727)
(0.000619734 -0.000316069 -0.00158933)
(0.000322872 -2.0229e-05 -0.00120353)
(-7.32729e-05 0.000297311 -0.000679844)
(-0.000571971 0.000636522 1.57752e-05)
(-0.00115426 0.000986628 0.000876401)
(-0.00177424 0.00132216 0.00179741)
(-0.00235311 0.00163062 0.002543)
(-0.00278658 0.00194613 0.00279403)
(-0.00299864 0.00224678 0.00231837)
(-0.0029672 0.00241587 0.00124775)
(-0.00272756 0.00240379 1.93095e-05)
(-0.00237755 0.00224587 -0.00100145)
(-0.00201695 0.00199125 -0.0016798)
(-0.00169664 0.00169554 -0.00204918)
(-0.00142871 0.00140084 -0.00219525)
(-0.00120985 0.00112331 -0.00218819)
(-0.00102417 0.000858461 -0.00207297)
(-0.00084089 0.000593281 -0.0018727)
(-0.000619734 0.000316069 -0.00158933)
(-0.000322872 2.0229e-05 -0.00120353)
(7.32729e-05 -0.000297311 -0.000679844)
(0.000571971 -0.000636522 1.57752e-05)
(0.00115426 -0.000986628 0.000876401)
(0.00177424 -0.00132216 0.00179741)
(0.00235311 -0.00163062 0.002543)
(0.00278658 -0.00194613 0.00279403)
(0.00299864 -0.00224678 0.00231837)
(0.00280068 -0.00213603 0.00132763)
(0.00270544 -0.00212914 0.000441978)
(0.00250003 -0.00197362 -0.000346587)
(0.00224381 -0.00171897 -0.000924769)
(0.00197649 -0.00141799 -0.00128738)
(0.00171627 -0.00111017 -0.00147252)
(0.00146745 -0.000813789 -0.00151874)
(0.00122242 -0.000531881 -0.00145332)
(0.000962685 -0.000261305 -0.00129083)
(0.000664497 7.38903e-07 -0.00103293)
(0.000307666 0.000254711 -0.000670341)
(-0.00011657 0.00050079 -0.000189954)
(-0.00060201 0.000740658 0.000409733)
(-0.0011269 0.000974936 0.00109376)
(-0.00165356 0.0012028 0.00176499)
(-0.00213111 0.00143588 0.00226234)
(-0.00250579 0.00170228 0.00240275)
(-0.00273676 0.00197235 0.00206664)
(-0.00280068 0.00213603 0.00132763)
(-0.00270544 0.00212914 0.000441978)
(-0.00250003 0.00197362 -0.000346587)
(-0.00224381 0.00171897 -0.000924769)
(-0.00197649 0.00141799 -0.00128738)
(-0.00171627 0.00111017 -0.00147252)
(-0.00146745 0.000813789 -0.00151874)
(-0.00122242 0.000531881 -0.00145332)
(-0.000962685 0.000261305 -0.00129083)
(-0.000664497 -7.38889e-07 -0.00103293)
(-0.000307666 -0.000254711 -0.000670341)
(0.00011657 -0.00050079 -0.000189954)
(0.00060201 -0.000740658 0.000409733)
(0.0011269 -0.000974936 0.00109376)
(0.00165356 -0.0012028 0.00176499)
(0.00213111 -0.00143588 0.00226234)
(0.00250579 -0.00170228 0.00240275)
(0.00273676 -0.00197235 0.00206664)
(0.00257385 -0.00188607 0.00136566)
(0.00261519 -0.0018903 0.000825657)
(0.0025592 -0.00174206 0.000279065)
(0.00241834 -0.0014878 -0.000191146)
(0.00221644 -0.00117902 -0.000541937)
(0.00197507 -0.000854118 -0.00076196)
(0.00170529 -0.000534695 -0.000856709)
(0.00140773 -0.000232476 -0.000835402)
(0.00107685 4.47214e-05 -0.000704183)
(0.000706449 0.000290467 -0.000464985)
(0.00029472 0.00050006 -0.000119169)
(-0.000152538 0.000672534 0.000323363)
(-0.000620622 0.000813634 0.000830542)
(-0.00108641 0.000939199 0.00133777)
(-0.00152214 0.00107609 0.00175535)
(-0.00190277 0.00125467 0.00199714)
(-0.00221235 0.00148569 0.00201109)
(-0.00243826 0.00172722 0.00178927)
(-0.00257385 0.00188607 0.00136566)
(-0.00261519 0.0018903 0.000825657)
(-0.0025592 0.00174206 0.000279065)
(-0.00241834 0.0014878 -0.000191146)
(-0.00221644 0.00117902 -0.000541937)
(-0.00197507 0.000854118 -0.000761959)
(-0.00170529 0.000534695 -0.000856709)
(-0.00140773 0.000232476 -0.000835402)
(-0.00107685 -4.47214e-05 -0.000704183)
(-0.000706449 -0.000290467 -0.000464985)
(-0.00029472 -0.00050006 -0.000119169)
(0.000152538 -0.000672534 0.000323363)
(0.000620622 -0.000813634 0.000830542)
(0.00108641 -0.000939199 0.00133777)
(0.00152214 -0.00107609 0.00175535)
(0.00190277 -0.00125467 0.00199714)
(0.00221235 -0.00148569 0.00201109)
(0.00243826 -0.00172722 0.00178927)
(0.00229493 -0.00167027 0.00135516)
(0.00245077 -0.00168088 0.0011324)
(0.00253521 -0.00154165 0.000827643)
(0.00251424 -0.00128954 0.000480197)
(0.00238945 -0.000973275 0.000158113)
(0.00217962 -0.000631078 -8.31814e-05)
(0.00190066 -0.000289072 -0.000215756)
(0.00156193 3.18466e-05 -0.000229626)
(0.00117151 0.000312973 -0.000122509)
(0.000740786 0.0005394 0.000102436)
(0.000285631 0.000702764 0.000432057)
(-0.000174819 0.000803293 0.000833482)
(-0.00061898 0.000853988 0.001244)
(-0.00102472 0.000888584 0.00157594)
(-0.00137632 0.000959138 0.0017535)
(-0.00167091 0.0011047 0.00176143)
(-0.00191454 0.00131256 0.00165553)
(-0.00211525 0.00152549 0.00151465)
(-0.00229493 0.00167027 0.00135516)
(-0.00245077 0.00168088 0.0011324)
(-0.00253521 0.00154165 0.000827643)
(-0.00251424 0.00128954 0.000480197)
(-0.00238945 0.000973275 0.000158113)
(-0.00217962 0.000631078 -8.31814e-05)
(-0.00190066 0.000289072 -0.000215756)
(-0.00156193 -3.18466e-05 -0.000229626)
(-0.00117151 -0.000312973 -0.000122509)
(-0.000740786 -0.0005394 0.000102436)
(-0.000285631 -0.000702764 0.000432057)
(0.000174819 -0.000803293 0.000833482)
(0.00061898 -0.000853988 0.001244)
(0.00102472 -0.000888584 0.00157594)
(0.00137632 -0.000959138 0.0017535)
(0.00167091 -0.0011047 0.00176143)
(0.00191454 -0.00131256 0.00165553)
(0.00211525 -0.00152549 0.00151465)
(0.00322574 -0.00293585 0.00172036)
(0.0030004 -0.00295913 0.000453349)
(0.00263527 -0.00281337 -0.000721554)
(0.00225037 -0.00255888 -0.00157915)
(0.00191006 -0.0022463 -0.00210116)
(0.0016221 -0.00191443 -0.00236116)
(0.00137376 -0.00158427 -0.00243007)
(0.0011457 -0.00125873 -0.00235294)
(0.000910472 -0.000930478 -0.00215171)
(0.000634836 -0.000590618 -0.00182881)
(0.000288388 -0.000232927 -0.00136993)
(-0.000147548 0.00014677 -0.000750146)
(-0.000675493 0.000550843 4.91417e-05)
(-0.00127852 0.000975663 0.00100123)
(-0.00191293 0.00141264 0.00198111)
(-0.00250339 0.00186016 0.00275299)
(-0.00296051 0.00231075 0.00304697)
(-0.00321558 0.00270399 0.00268778)
(-0.00322574 0.00293585 0.00172036)
(-0.0030004 0.00295913 0.000453349)
(-0.00263527 0.00281337 -0.000721554)
(-0.00225037 0.00255888 -0.00157915)
(-0.00191006 0.0022463 -0.00210116)
(-0.0016221 0.00191443 -0.00236116)
(-0.00137376 0.00158427 -0.00243007)
(-0.0011457 0.00125873 -0.00235294)
(-0.000910472 0.000930478 -0.00215171)
(-0.000634836 0.000590618 -0.00182881)
(-0.000288388 0.000232927 -0.00136993)
(0.000147548 -0.00014677 -0.000750146)
(0.000675492 -0.000550843 4.91417e-05)
(0.00127852 -0.000975663 0.00100123)
(0.00191293 -0.00141264 0.00198111)
(0.00250339 -0.00186016 0.00275299)
(0.00296051 -0.00231075 0.00304697)
(0.00321558 -0.00270399 0.00268778)
(0.00303863 -0.00252793 0.00172638)
(0.00293433 -0.002546 0.000814343)
(0.00270749 -0.00240914 -7.79642e-05)
(0.00242928 -0.00216365 -0.000782047)
(0.00214582 -0.00185626 -0.00125488)
(0.00187043 -0.00152405 -0.00152269)
(0.00160029 -0.00118889 -0.00162243)
(0.00132498 -0.000859135 -0.00158093)
(0.00102787 -0.00053574 -0.00141251)
(0.000689578 -0.000217758 -0.00112025)
(0.000294142 9.55726e-05 -0.00069947)
(-0.000165654 0.000405751 -0.000145309)
(-0.000685428 0.000715686 0.000532526)
(-0.00124601 0.00102809 0.00128569)
(-0.00180927 0.00134713 0.00200454)
(-0.00232026 0.00168281 0.00252673)
(-0.00272144 0.00203144 0.00269167)
(-0.00296929 0.00234055 0.00241233)
(-0.00303863 0.00252793 0.00172638)
(-0.00293433 0.002546 0.000814343)
(-0.00270749 0.00240914 -7.79642e-05)
(-0.00242928 0.00216365 -0.000782047)
(-0.00214582 0.00185626 -0.00125488)
(-0.00187043 0.00152405 -0.00152269)
(-0.00160029 0.00118889 -0.00162243)
(-0.00132498 0.000859135 -0.00158093)
(-0.00102787 0.00053574 -0.00141251)
(-0.000689578 0.000217758 -0.00112025)
(-0.000294142 -9.55726e-05 -0.000699471)
(0.000165654 -0.000405751 -0.000145309)
(0.000685428 -0.000715686 0.000532526)
(0.00124601 -0.00102809 0.00128569)
(0.00180927 -0.00134713 0.00200454)
(0.00232026 -0.00168281 0.00252673)
(0.00272143 -0.00203144 0.00269167)
(0.00296929 -0.00234055 0.00241233)
(0.00283053 -0.00216165 0.00170368)
(0.00283037 -0.002171 0.00114156)
(0.00273607 -0.0020418 0.000537721)
(0.00256769 -0.00180315 -5.85348e-06)
(0.00234767 -0.00149723 -0.00042482)
(0.0020917 -0.0011602 -0.000696611)
(0.00180565 -0.000815642 -0.000822682)
(0.00148772 -0.00047818 -0.000811326)
(0.00113249 -0.000157885 -0.000669415)
(0.000735166 0.000138108 -0.000401207)
(0.000294619 0.000406038 -1.21381e-05)
(-0.00018533 0.000646351 0.000482206)
(-0.000694366 0.000864515 0.00104264)
(-0.00121234 0.00107267 0.00159703)
(-0.00170828 0.00128986 0.00205042)
(-0.00214595 0.00153303 0.00231547)
(-0.00249176 0.00179308 0.00234113)
(-0.00272148 0.00202191 0.00212528)
(-0.00283053 0.00216165 0.00170368)
(-0.00283037 0.002171 0.00114156)
(-0.00273607 0.0020418 0.000537721)
(-0.00256769 0.00180315 -5.85346e-06)
(-0.00234767 0.00149723 -0.00042482)
(-0.0020917 0.0011602 -0.000696611)
(-0.00180565 0.000815642 -0.000822682)
(-0.00148772 0.00047818 -0.000811326)
(-0.00113249 0.000157885 -0.000669415)
(-0.000735166 -0.000138108 -0.000401207)
(-0.000294619 -0.000406038 -1.21381e-05)
(0.00018533 -0.000646351 0.000482206)
(0.000694366 -0.000864515 0.00104264)
(0.00121234 -0.00107267 0.00159703)
(0.00170828 -0.00128986 0.00205042)
(0.00214595 -0.00153303 0.00231547)
(0.00249176 -0.00179308 0.00234113)
(0.00272148 -0.00202191 0.00212528)
(0.00260494 -0.00184865 0.00166053)
(0.00268615 -0.00183953 0.00141265)
(0.00270767 -0.00171199 0.00108579)
(0.00264547 -0.00147759 0.000710921)
(0.00249443 -0.00117111 0.000359673)
(0.00226622 -0.000827212 9.5619e-05)
(0.00197245 -0.000471974 -4.78806e-05)
(0.00161984 -0.000126739 -5.94229e-05)
(0.00121469 0.000189464 6.19043e-05)
(0.000766805 0.000462127 0.000310069)
(0.000289362 0.000684185 0.000668593)
(-0.000203512 0.000856791 0.00110131)
(-0.000696347 0.000990397 0.0015419)
(-0.0011697 0.00110884 0.00189981)
(-0.00160188 0.00124524 0.00209917)
(-0.00197334 0.00141748 0.00212402)
(-0.00226669 0.00160458 0.0020205)
(-0.0024724 0.00176045 0.0018552)
(-0.00260494 0.00184865 0.00166053)
(-0.00268615 0.00183953 0.00141265)
(-0.00270767 0.00171199 0.00108579)
(-0.00264547 0.00147759 0.000710921)
(-0.00249443 0.00117111 0.000359673)
(-0.00226622 0.000827212 9.5619e-05)
(-0.00197245 0.000471974 -4.78806e-05)
(-0.00161984 0.000126739 -5.94229e-05)
(-0.00121469 -0.000189464 6.19043e-05)
(-0.000766805 -0.000462127 0.000310069)
(-0.000289362 -0.000684185 0.000668593)
(0.000203512 -0.000856791 0.00110131)
(0.000696347 -0.000990397 0.0015419)
(0.0011697 -0.00110884 0.00189981)
(0.00160188 -0.00124524 0.00209917)
(0.00197334 -0.00141748 0.00212402)
(0.00226669 -0.00160458 0.0020205)
(0.0024724 -0.00176045 0.0018552)
(0.00324962 -0.00320624 0.00198232)
(0.00305709 -0.00331161 0.000830544)
(0.00271683 -0.00324054 -0.000339868)
(0.00233928 -0.00303921 -0.00128013)
(0.00199716 -0.00275164 -0.0019105)
(0.0017027 -0.00241543 -0.00226639)
(0.00143908 -0.00205724 -0.00240538)
(0.00118404 -0.00168895 -0.00236857)
(0.000913393 -0.00131114 -0.00217767)
(0.000601927 -0.000919622 -0.00183904)
(0.00022795 -0.000509257 -0.00134783)
(-0.000222075 -7.44483e-05 -0.000693461)
(-0.00075075 0.000389411 0.000126361)
(-0.00134376 0.000881859 0.00107193)
(-0.00195912 0.00139796 0.00201879)
(-0.0025264 0.00193046 0.00275788)