/*--------------------------------*- C++ -*----------------------------------*\
| =========                 |                                                 |
| \\      /  F ield         | OpenFOAM: The Open Source CFD Toolbox           |
|  \\    /   O peration     | Version:  2312                                  |
|   \\  /    A nd           | Website:  www.openfoam.com                      |
|    \\/     M anipulation  |                                                 |
\*---------------------------------------------------------------------------*/
FoamFile
{
    version     2.0;
    format      ascii;
    arch        "LSB;label=32;scalar=64";
    class       volSymmTensorField;
    location    "0.8";
    object      sigma;
}
// * * * * * * * * * * * * * * * * * * * * * * * * * * * * * * * * * * * * * //

dimensions      [1 -1 -2 0 0 0 0];

internalField   nonuniform List<symmTensor> 
1620
(
(-143.562 -24327.7 -2358.29 5996.42 1739.54 -23071.5)
(27066.7 -22625.5 5377.43 30568.1 -7418.82 8725.62)
(43751.7 -19817.4 10382.5 41128.1 -11254.7 32848.6)
(52714.3 -17062.9 13612.9 45009.1 -12002.1 48377.9)
(55316.5 -14732.8 16056.4 44088.5 -11836.6 55578.9)
(53874.1 -12897.5 18001.4 40249.9 -11416.3 56778.1)
(50273.9 -11493.7 19446.2 35007.5 -10889.5 54310)
(45745.4 -10439.4 20420.3 29383.4 -10368.9 49997)
(41073.2 -9683.69 21038.6 24040.4 -9959.74 45103.8)
(36679.3 -9208.01 21434.1 19313.4 -9727.29 40309.4)
(32479.8 -9023.62 21698.8 15057.1 -9703.26 35603.3)
(27637.6 -9175.58 21862.6 10398.5 -9912.68 30105.7)
(20409.9 -9757.77 21901 3588.86 -10400.2 21935.3)
(8452.44 -10960.2 21750.9 -7689.71 -11237.8 8431.92)
(-9636.09 -13149.6 21266.4 -24820.6 -12473.1 -12549.1)
(-30515 -16695.7 19986.3 -44311.9 -13901 -38837.8)
(-42951.2 -20799.2 16913.9 -52997.4 -14494.4 -58610.3)
(-30499.2 -23572.8 10974.6 -31316.3 -11275.3 -51761.8)
(-143.563 -24327.7 2358.29 5996.42 -1739.54 -23071.5)
(27066.7 -22625.5 -5377.43 30568.1 7418.82 8725.62)
(43751.7 -19817.4 -10382.5 41128.1 11254.7 32848.6)
(52714.3 -17062.9 -13612.9 45009.1 12002.1 48377.9)
(55316.5 -14732.8 -16056.4 44088.5 11836.6 55578.9)
(53874.1 -12897.5 -18001.4 40249.9 11416.3 56778.1)
(50273.9 -11493.7 -19446.2 35007.5 10889.5 54310)
(45745.4 -10439.4 -20420.3 29383.4 10368.9 49997)
(41073.2 -9683.69 -21038.6 24040.4 9959.74 45103.8)
(36679.3 -9208.01 -21434.1 19313.4 9727.29 40309.4)
(32479.8 -9023.62 -21698.8 15057.1 9703.26 35603.3)
(27637.6 -9175.58 -21862.6 10398.5 9912.68 30105.7)
(20409.9 -9757.77 -21901 3588.86 10400.2 21935.3)
(8452.44 -10960.2 -21750.9 -7689.71 11237.8 8431.92)
(-9636.09 -13149.6 -21266.4 -24820.6 12473.1 -12549.1)
(-30515 -16695.7 -19986.3 -44311.9 13901 -38837.8)
(-42951.2 -20799.2 -16913.9 -52997.4 14494.4 -58610.3)
(-30499.2 -23572.8 -10974.6 -31316.3 11275.3 -51761.8)
(-39481 -4190.86 -201.687 4911.59 -6520.79 -40726)
(-23646.4 -3868.54 480.343 12194.5 -18101.3 -15927.4)
(-8352.56 -3662.47 632.889 17588.9 -22229.3 10277.3)
(3141.02 -3414.81 524.09 21681.7 -22420.7 30673.5)
(9985.58 -3095.58 508.213 23677.9 -21474.4 44003.7)
(13377.1 -2737.89 769.396 24041.1 -20481.5 51665.7)
(14563 -2387.11 1260.65 23427.2 -19727.1 55163.5)
(14170.9 -2084.04 1844.03 22097.5 -19258.6 55562)
(12390 -1860.82 2416.62 20030.9 -19075.6 53552.9)
(9159.57 -1742.8 2930.13 17051.6 -19171.8 49460.8)
(4240.03 -1749.82 3359.28 12873.3 -19548.5 43242.1)
(-2804.92 -1898.68 3681.91 7090.91 -20225 34464.1)
(-12657.4 -2216.98 3882.97 -824.93 -21226.4 22246.8)
(-26040.7 -2766.89 3955.1 -11281.3 -22508.5 5414)
(-42567.3 -3612.95 3858.42 -23411.6 -23751.6 -16413.7)
(-58452.1 -4566.7 3450.01 -32800.6 -23902.4 -40255.9)
(-65491 -4987.41 2588.05 -30733.5 -20407.3 -57554.7)
(-55515.3 -4688.66 1380.89 -11749.5 -9588.36 -56480.4)
(-39481 -4190.86 201.687 4911.59 6520.79 -40726)
(-23646.4 -3868.54 -480.343 12194.5 18101.3 -15927.4)
(-8352.56 -3662.47 -632.889 17588.9 22229.3 10277.3)
(3141.02 -3414.81 -524.09 21681.7 22420.7 30673.5)
(9985.58 -3095.58 -508.213 23677.9 21474.4 44003.7)
(13377.1 -2737.89 -769.396 24041.1 20481.5 51665.7)
(14563 -2387.11 -1260.65 23427.2 19727.1 55163.5)
(14170.9 -2084.04 -1844.03 22097.5 19258.6 55562)
(12390 -1860.82 -2416.62 20030.9 19075.6 53552.9)
(9159.57 -1742.8 -2930.13 17051.6 19171.8 49460.8)
(4240.03 -1749.82 -3359.28 12873.3 19548.5 43242.1)
(-2804.92 -1898.68 -3681.91 7090.91 20225 34464.1)
(-12657.4 -2216.98 -3882.97 -824.93 21226.4 22246.8)
(-26040.7 -2766.89 -3955.1 -11281.3 22508.5 5414)
(-42567.3 -3612.95 -3858.42 -23411.6 23751.6 -16413.7)
(-58452.1 -4566.7 -3450.01 -32800.6 23902.4 -40255.9)
(-65491 -4987.41 -2588.05 -30733.5 20407.3 -57554.7)
(-55515.3 -4688.66 -1380.89 -11749.5 9588.36 -56480.4)
(-33688.4 22747.2 -6811.46 -22711 -7716.16 -50865.9)
(-32093.5 20082.1 -13192.3 -27049.7 -13630.7 -42689.3)
(-25658.4 16729.7 -17521.2 -26620.9 -15350.4 -29401.1)
(-14898 13926.7 -20250.2 -20387 -14982.9 -13536.7)
(-3086.35 12007 -21986 -11747.7 -14131.9 1691.78)
(7758.91 10922.4 -23054.4 -3084.51 -13485.3 14701.2)
(16449.1 10534.4 -23553.1 4273.72 -13242.5 24614.7)
(22064.4 10661.8 -23491.3 9432.58 -13370.4 30711.7)
(23933.3 11091.2 -22917.3 11719.1 -13725.5 32472.8)
(21630.5 11638 -21971.7 10562.1 -14156.8 29597.7)
(14970 12222.1 -20841.4 5532.84 -14587.3 21972.5)
(4064.69 12883.3 -19647.5 -3422.7 -15022.2 9685.21)
(-10414.9 13719.6 -18365.4 -15608.9 -15469.2 -6750.82)
(-26594 14829.1 -16835.9 -28994.9 -15817.9 -25761.9)
(-40708.5 16350.5 -14796.2 -39660.7 -15702.5 -43977.5)
(-47985.6 18489.3 -11813.7 -42682.5 -14270.9 -56822.9)
(-46256.1 21109.2 -7231.89 -36169 -9967.47 -61344.9)
(-39213.2 23068.4 -690.528 -26153.2 -1734.12 -58292.5)
(-33688.4 22747.2 6811.46 -22711 7716.16 -50865.9)
(-32093.5 20082.1 13192.3 -27049.7 13630.7 -42689.3)
(-25658.4 16729.7 17521.2 -26620.9 15350.4 -29401.1)
(-14898 13926.7 20250.2 -20387 14982.9 -13536.7)
(-3086.35 12007 21986 -11747.7 14131.9 1691.78)
(7758.91 10922.4 23054.4 -3084.51 13485.3 14701.2)
(16449.1 10534.4 23553.1 4273.72 13242.5 24614.7)
(22064.4 10661.8 23491.3 9432.58 13370.4 30711.7)
(23933.3 11091.2 22917.3 11719.1 13725.5 32472.8)
(21630.5 11638 21971.7 10562.1 14156.8 29597.7)
(14970 12222.1 20841.4 5532.84 14587.3 21972.5)
(4064.69 12883.3 19647.5 -3422.7 15022.2 9685.22)
(-10414.9 13719.6 18365.4 -15608.9 15469.2 -6750.82)
(-26594 14829.1 16835.9 -28994.9 15817.9 -25761.9)
(-40708.5 16350.5 14796.2 -39660.7 15702.5 -43977.5)
(-47985.6 18489.3 11813.7 -42682.5 14270.9 -56822.9)
(-46256.1 21109.2 7231.89 -36169 9967.47 -61344.9)
(-39213.2 23068.4 690.528 -26153.2 1734.12 -58292.5)
(29505.9 -23585.6 -2310.03 36577.6 1812.86 6667.98)
(35982.7 -20307.2 9892.85 33306.4 -11432.4 20545.1)
(39666.4 -16116.7 14489.5 27957.5 -11960 32923.3)
(40429.5 -13301.4 16378.2 24383.4 -10173.7 39618.9)
(39017 -11233.6 17999 20482 -8766.48 41798.5)
(36455.6 -9488.52 19648.2 16131.6 -7772.97 40760)
(33384.3 -8008.88 21022.9 11756.6 -6944.61 37820.1)
(30505.9 -6804.12 22004.9 7976.42 -6230.21 34369.2)
(28464.6 -5851.28 22662.9 5335.52 -5656.59 31494.2)
(27661.2 -5117.64 23112 4150.82 -5239.97 29813.1)
(28133.3 -4590.58 23438.5 4407.53 -4977.09 29448.4)
(29539.3 -4296.33 23682.8 5723.08 -4865.13 30073.2)
(31222.1 -4311.03 23858.8 7359.26 -4925.18 30966.4)
(32239.9 -4799.32 23981.1 8152.98 -5223.7 30898.7)
(31639.3 -6150.81 24010.5 6512.61 -5882.19 27979.6)
(29806.8 -8939.7 23575.8 1566.93 -7090.34 20865.1)
(28393.6 -12706.1 22021 -1830.2 -9757.04 13742.1)
(25139.8 -18357 17254.2 11017.4 -14703.3 9806.69)
(29505.9 -23585.6 2310.03 36577.6 -1812.86 6667.98)
(35982.7 -20307.2 -9892.85 33306.4 11432.4 20545.1)
(39666.4 -16116.7 -14489.5 27957.5 11960 32923.3)
(40429.5 -13301.4 -16378.2 24383.4 10173.7 39618.9)
(39017 -11233.6 -17999 20482 8766.48 41798.5)
(36455.6 -9488.52 -19648.2 16131.6 7772.97 40760)
(33384.3 -8008.88 -21022.9 11756.6 6944.61 37820.1)
(30505.9 -6804.12 -22004.9 7976.42 6230.21 34369.2)
(28464.6 -5851.28 -22662.9 5335.52 5656.59 31494.2)
(27661.2 -5117.64 -23112 4150.82 5239.97 29813.1)
(28133.3 -4590.58 -23438.5 4407.53 4977.09 29448.4)
(29539.3 -4296.33 -23682.8 5723.08 4865.13 30073.2)
(31222.1 -4311.03 -23858.8 7359.26 4925.18 30966.4)
(32239.9 -4799.32 -23981.1 8152.98 5223.7 30898.7)
(31639.3 -6150.81 -24010.5 6512.61 5882.19 27979.6)
(29806.8 -8939.7 -23575.8 1566.93 7090.34 20865.1)
(28393.6 -12706.1 -22021 -1830.2 9757.04 13742.1)
(25139.8 -18357 -17254.2 11017.4 14703.3 9806.69)
(-24891.1 -4252.79 569.827 14622.2 -12322.3 -25370.7)
(-20217.5 -3418.52 1585.98 1272.85 -23208.6 -644.353)
(-13329 -3143.14 1296.69 -2315.51 -20963.3 19919.2)
(-10067.7 -3185.46 807.995 -3835.64 -17574.7 31309.2)
(-7678.73 -3182.37 814.488 -3988.71 -15066.3 38692.7)
(-5779.97 -2944.35 1344.69 -3696.25 -13401 43118.6)
(-4432.89 -2530.16 2108.89 -3357.26 -12357.1 45149.9)
(-3679.91 -2074.41 2892.66 -3129.96 -11783.6 45423.4)
(-3525.69 -1671.96 3605.51 -3115.01 -11576.3 44470.4)
(-3937.27 -1372 4219.79 -3356.17 -11663.4 42691.4)
(-4789.87 -1203.33 4727.72 -3774.32 -12011 40429.2)
(-5773.65 -1196.49 5128.7 -4072.59 -12637 38051.3)
(-6474.06 -1403.57 5427.68 -3812.99 -13622.3 35835.5)
(-6830.6 -1925.62 5622.42 -2870.51 -15106.8 33427.3)
(-7493.16 -2910.36 5644.4 -1795.81 -17250.2 29291.7)
(-9337.24 -4248.09 5233.58 -908.447 -20165.8 21129.1)
(-14524.5 -5075.57 4123.08 1640.45 -23178.1 4996.62)
(-21626.6 -5030.82 2115.58 14179.4 -16489.4 -20147.8)
(-24891.1 -4252.79 -569.827 14622.2 12322.3 -25370.7)
(-20217.5 -3418.52 -1585.98 1272.85 23208.6 -644.353)
(-13329 -3143.14 -1296.69 -2315.51 20963.3 19919.2)
(-10067.7 -3185.46 -807.995 -3835.64 17574.7 31309.2)
(-7678.73 -3182.37 -814.488 -3988.71 15066.3 38692.7)
(-5779.97 -2944.35 -1344.69 -3696.25 13401 43118.6)
(-4432.89 -2530.16 -2108.89 -3357.26 12357.1 45149.9)
(-3679.91 -2074.41 -2892.66 -3129.96 11783.6 45423.4)
(-3525.69 -1671.96 -3605.51 -3115.01 11576.3 44470.4)
(-3937.27 -1372 -4219.79 -3356.17 11663.4 42691.4)
(-4789.87 -1203.33 -4727.72 -3774.32 12011 40429.2)
(-5773.65 -1196.49 -5128.7 -4072.59 12637 38051.3)
(-6474.06 -1403.57 -5427.68 -3812.99 13622.3 35835.5)
(-6830.6 -1925.62 -5622.42 -2870.51 15106.8 33427.3)
(-7493.16 -2910.36 -5644.4 -1795.81 17250.2 29291.7)
(-9337.24 -4248.09 -5233.58 -908.447 20165.8 21129.1)
(-14524.5 -5075.57 -4123.08 1640.45 23178.1 4996.62)
(-21626.6 -5030.82 -2115.58 14179.4 16489.4 -20147.8)
(-29143.4 23197.6 -12500.9 -27965.1 -13931.5 -47621.7)
(-31056.9 16183.6 -21722.7 -40348.2 -16564 -33253.8)
(-31942.2 10676.3 -25048.3 -45143.6 -13479.9 -24503.6)
(-28754.8 7250.91 -26111.5 -43439 -10663.4 -16835.5)
(-20520.9 5205.11 -26455.6 -36339.6 -8787.67 -6856.58)
(-10314.4 4143.77 -26721.2 -27509.7 -7704.71 3722.13)
(-1033.03 3916.92 -26993.6 -19698.9 -7309.9 12747.1)
(5636.5 4422.98 -27066.3 -14114.6 -7544.17 18907.4)
(8849.72 5451.21 -26706.2 -11104.1 -8265.59 21547.2)
(8435.05 6679.11 -25827.2 -10606.4 -9235.08 20586.1)
(4950.44 7799.06 -24541.5 -12228.7 -10217.9 16595.4)
(-315.306 8666.75 -23085.4 -15130.7 -11111.8 10770.2)
(-5701.07 9349.3 -21654 -18079.8 -11991.2 4522.82)
(-10006.2 10055.9 -20283.9 -20069.6 -13015.4 -1418.01)
(-13266.5 11161.9 -18854.9 -21079.5 -14278.7 -7916.51)
(-16697.2 13491.7 -16935.3 -21596.5 -15551.3 -17483.2)
(-23266.7 18184.2 -12851.9 -22180.2 -14743.7 -34742.3)
(-28027.2 24024.4 -2691.66 -19379.4 -3670.21 -52049.2)
(-29143.4 23197.6 12500.9 -27965.1 13931.5 -47621.7)
(-31056.9 16183.6 21722.7 -40348.2 16564 -33253.8)
(-31942.2 10676.3 25048.3 -45143.6 13479.9 -24503.6)
(-28754.8 7250.91 26111.5 -43439 10663.4 -16835.5)
(-20520.9 5205.11 26455.6 -36339.6 8787.67 -6856.58)
(-10314.4 4143.77 26721.2 -27509.7 7704.71 3722.13)
(-1033.03 3916.92 26993.6 -19698.9 7309.9 12747.1)
(5636.5 4422.98 27066.3 -14114.6 7544.17 18907.4)
(8849.72 5451.21 26706.2 -11104.1 8265.59 21547.2)
(8435.05 6679.11 25827.2 -10606.4 9235.08 20586.1)
(4950.44 7799.06 24541.5 -12228.7 10217.9 16595.4)
(-315.305 8666.75 23085.4 -15130.7 11111.8 10770.2)
(-5701.07 9349.3 21654 -18079.8 11991.2 4522.82)
(-10006.2 10055.9 20283.9 -20069.6 13015.4 -1418.01)
(-13266.5 11161.9 18854.9 -21079.5 14278.7 -7916.51)
(-16697.2 13491.7 16935.3 -21596.5 15551.3 -17483.2)
(-23266.7 18184.2 12851.9 -22180.2 14743.7 -34742.3)
(-28027.2 24024.4 2691.66 -19379.4 3670.21 -52049.2)
(18469.6 -13782.9 11038.7 30695.7 -19688.4 23280.3)
(35623.9 -10943.6 18755.6 20727.6 -11698.8 37327.5)
(40623.7 -8293.36 18947.8 21270.1 -7782.28 44112.3)
(40661.6 -7447.95 18429.5 20511.8 -5816.93 48007)
(39731.1 -6863.82 18874.1 18748 -4630.54 50122.2)
(38470.4 -5769.54 20187.2 16101.7 -3748.1 49615.7)
(36986.5 -4368.55 21626.4 13301.4 -2972.81 47220)
(35656.9 -3015.07 22787.8 11021.7 -2266.6 44233)
(34989.6 -1839.34 23604.6 9710.34 -1633.86 41664.7)
(35291.4 -823.56 24124.7 9561.51 -1070.4 40035.3)
(36483.4 82.6234 24398.7 10451.7 -555.975 39366.2)
(38111.3 900.629 24457.5 11932.9 -52.0772 39268.4)
(39448.8 1617.17 24336.1 13209.6 511.274 39003.4)
(39431 2212.91 24067.3 12847.2 1250.06 37172.1)
(36693.4 2644.54 23505.3 8400.05 2374.62 31193)
(30949.9 3101.1 21950.2 -2545.31 4407.28 18505.5)
(20639.3 5896.71 19517.8 -15959.7 8320.34 3653.95)
(6127.17 8409.89 15048.7 -2337.06 16444.2 17173)
(18469.6 -13782.9 -11038.7 30695.7 19688.4 23280.3)
(35623.9 -10943.6 -18755.6 20727.6 11698.8 37327.5)
(40623.7 -8293.36 -18947.8 21270.1 7782.28 44112.3)
(40661.6 -7447.95 -18429.5 20511.8 5816.93 48007)
(39731.1 -6863.82 -18874.1 18748 4630.54 50122.2)
(38470.4 -5769.54 -20187.2 16101.7 3748.1 49615.7)
(36986.5 -4368.55 -21626.4 13301.4 2972.81 47220)
(35656.9 -3015.07 -22787.8 11021.7 2266.6 44233)
(34989.6 -1839.34 -23604.6 9710.34 1633.86 41664.7)
(35291.4 -823.56 -24124.7 9561.51 1070.4 40035.3)
(36483.4 82.6234 -24398.7 10451.7 555.975 39366.2)
(38111.3 900.629 -24457.5 11932.9 52.0772 39268.4)
(39448.8 1617.17 -24336.1 13209.6 -511.274 39003.4)
(39431 2212.91 -24067.3 12847.2 -1250.06 37172.1)
(36693.4 2644.54 -23505.3 8400.05 -2374.62 31193)
(30949.9 3101.1 -21950.2 -2545.31 -4407.28 18505.5)
(20639.3 5896.71 -19517.8 -15959.7 -8320.34 3653.95)
(6127.17 8409.89 -15048.7 -2337.06 -16444.2 17173)
(-42159.4 -989.055 2749.78 -42057 -14788.7 -7163)
(-25711.2 -902.052 2985.13 -28263 -6565.53 16528.6)
(-14527.3 -1354.16 1705.05 -16504.7 -4359.63 31811.2)
(-10075.1 -2185.71 568.186 -11437.8 -3345.88 40845.2)
(-7229.83 -2853.27 402.952 -8582.81 -2704.26 47210.1)
(-5167.23 -2885.14 1064.96 -7159.54 -2223.97 50467.4)
(-3680.05 -2383 2009.14 -6395.93 -1935.2 51344.6)
(-2718.23 -1679.97 2932.27 -5874.6 -1850.81 50788.5)
(-2320.58 -1008.31 3730.17 -5603.75 -1913.04 49331.9)
(-2532.59 -456.04 4371.18 -5723.97 -2051.06 47244.9)
(-3333.53 -36.3502 4861.56 -6285.81 -2216.52 44723.2)
(-4541.58 235.414 5242.3 -7131.17 -2371.14 42000.5)
(-5889.94 293.305 5561.22 -8052.84 -2448.21 39260.5)
(-7511 30.1503 5800.29 -9441.81 -2343.05 36121.5)
(-10336.1 -626.776 5780.09 -12861.3 -1959.21 31150.8)
(-15958.2 -1495.51 5117.87 -20930.8 -1306.15 22117.6)
(-26824.4 -1649.63 3892.52 -35747.2 -996.147 7591.97)
(-42232.5 -884.676 2908.49 -50169 -5424.48 -6717.53)
(-42159.4 -989.055 -2749.78 -42057 14788.7 -7163)
(-25711.2 -902.052 -2985.13 -28263 6565.53 16528.6)
(-14527.3 -1354.16 -1705.05 -16504.7 4359.63 31811.1)
(-10075.1 -2185.71 -568.186 -11437.8 3345.88 40845.2)
(-7229.83 -2853.27 -402.952 -8582.81 2704.26 47210.1)
(-5167.23 -2885.14 -1064.96 -7159.54 2223.97 50467.4)
(-3680.04 -2383 -2009.14 -6395.93 1935.2 51344.6)
(-2718.23 -1679.97 -2932.27 -5874.6 1850.81 50788.5)
(-2320.58 -1008.31 -3730.17 -5603.75 1913.04 49331.9)
(-2532.59 -456.04 -4371.18 -5723.97 2051.06 47244.9)
(-3333.53 -36.3502 -4861.56 -6285.81 2216.52 44723.2)
(-4541.58 235.414 -5242.3 -7131.17 2371.14 42000.5)
(-5889.94 293.305 -5561.22 -8052.84 2448.21 39260.5)
(-7511 30.1504 -5800.29 -9441.81 2343.05 36121.5)
(-10336.1 -626.776 -5780.09 -12861.3 1959.21 31150.8)
(-15958.2 -1495.51 -5117.87 -20930.8 1306.15 22117.6)
(-26824.4 -1649.63 -3892.52 -35747.2 996.147 7591.97)
(-42232.5 -884.676 -2908.49 -50169 5424.48 -6717.53)
(-57477.6 -2415.43 -19988.4 -77442.2 5246.68 -40191.3)
(-46356.5 -2449.31 -26764.2 -69080.2 3504.23 -34925)
(-44377.1 -2356.86 -28482.8 -64809.9 2247.74 -29236.9)
(-39142.5 -3014.87 -28789.8 -57780.2 1717.88 -21459.1)
(-29260.4 -3849.38 -28388 -47458.4 1490.98 -11280.5)
(-17966.1 -4374.14 -28168.3 -37348.4 1429.31 -1269.85)
(-8135.37 -4249.14 -28390 -29762.2 1253.5 6747.71)
(-1248.82 -3304.99 -28777.4 -25255.6 681.854 11979.7)
(1846.44 -1639.42 -28916 -23712.9 -372.481 13941.5)
(878.915 375.245 -28497.2 -24738.5 -1752.92 12484.2)
(-3600.2 2223.19 -27400 -27626.6 -3138.76 8116.18)
(-10146.1 3408.23 -25728.8 -31391.2 -4173.1 2093.89)
(-16826.9 3679.31 -23869.7 -35177.7 -4660.86 -4046.88)
(-22283.9 3252.16 -22378 -38872.7 -4774.01 -9528.98)
(-26643 2702.69 -21676.2 -43331.8 -4968.57 -15107.1)
(-30655.4 2812.46 -21990.7 -49568.9 -5829.81 -22168.3)
(-39352.2 5366.43 -22675.5 -60970.2 -8950.67 -35516.8)
(-58817.9 12882.4 -14822 -60690.3 -18938.9 -57926.7)
(-57477.6 -2415.43 19988.4 -77442.2 -5246.68 -40191.3)
(-46356.5 -2449.31 26764.2 -69080.2 -3504.23 -34925)
(-44377.1 -2356.86 28482.8 -64809.9 -2247.74 -29236.9)
(-39142.5 -3014.87 28789.8 -57780.2 -1717.88 -21459.1)
(-29260.4 -3849.38 28388 -47458.4 -1490.98 -11280.5)
(-17966.1 -4374.14 28168.3 -37348.4 -1429.31 -1269.85)
(-8135.37 -4249.14 28390 -29762.2 -1253.5 6747.71)
(-1248.82 -3304.99 28777.4 -25255.6 -681.854 11979.7)
(1846.44 -1639.42 28916 -23712.9 372.481 13941.5)
(878.915 375.245 28497.2 -24738.5 1752.92 12484.2)
(-3600.2 2223.19 27400 -27626.6 3138.76 8116.18)
(-10146.1 3408.23 25728.8 -31391.2 4173.1 2093.89)
(-16826.9 3679.31 23869.7 -35177.7 4660.86 -4046.88)
(-22283.9 3252.16 22378 -38872.7 4774.01 -9528.98)
(-26643 2702.69 21676.2 -43331.8 4968.57 -15107.1)
(-30655.4 2812.46 21990.7 -49568.9 5829.81 -22168.3)
(-39352.2 5366.43 22675.5 -60970.2 8950.67 -35516.8)
(-58817.9 12882.4 14822 -60690.3 18938.9 -57926.7)
(20784.7 12818.1 17382.4 11648 13831.8 18207.3)
(32125.6 4765.11 20498.5 12747.3 5998.22 35271.2)
(36023.5 1103.07 19782.8 15876.9 2320.55 41714.2)
(36888 -1427.62 18917.5 17341 703.798 47118.7)
(36667.8 -2694.07 19092.2 16572.2 398.935 50183.5)
(36296 -2349.1 20203.4 14455.1 771.488 50094.4)
(35870 -1050.97 21569.6 12234.3 1337.7 48031.4)
(35560.8 465.651 22742.6 10627.1 1934.96 45388)
(35746.2 1891.21 23572.3 9934.35 2533.01 43037.3)
(36679.6 3220.62 24026.2 10222 3134.39 41336.6)
(38271.4 4551.33 24082.4 11348.5 3751.61 40201.6)
(40098.2 5963.37 23709.5 12990.7 4428.87 39214.3)
(41521.9 7492.19 22895.8 14608.6 5300.69 37686.9)
(41626.9 9200.37 21623.7 15085.4 6610.91 34337.1)
(39000.9 11256.6 19587.4 12317.3 8577.87 26578.2)
(31983.7 13997.3 15713 4357.54 11121.8 10728.1)
(18397 18335.6 9205.79 -2571.04 12176 -12004.3)
(12443.4 21977.2 -2183.57 16592.9 -775.714 -13643.2)
(20784.7 12818.1 -17382.4 11648 -13831.8 18207.3)
(32125.6 4765.11 -20498.5 12747.3 -5998.22 35271.2)
(36023.5 1103.07 -19782.8 15876.9 -2320.55 41714.2)
(36888 -1427.62 -18917.5 17341 -703.798 47118.7)
(36667.8 -2694.07 -19092.2 16572.2 -398.935 50183.5)
(36296 -2349.1 -20203.4 14455.1 -771.488 50094.4)
(35870 -1050.97 -21569.6 12234.3 -1337.7 48031.4)
(35560.8 465.651 -22742.6 10627.1 -1934.97 45388)
(35746.2 1891.21 -23572.3 9934.35 -2533.01 43037.3)
(36679.6 3220.62 -24026.2 10222 -3134.39 41336.6)
(38271.4 4551.33 -24082.4 11348.5 -3751.61 40201.6)
(40098.2 5963.37 -23709.5 12990.7 -4428.87 39214.3)
(41521.9 7492.19 -22895.8 14608.6 -5300.69 37686.9)
(41626.9 9200.37 -21623.7 15085.4 -6610.91 34337.1)
(39000.9 11256.6 -19587.4 12317.3 -8577.87 26578.2)
(31983.7 13997.3 -15713 4357.54 -11121.8 10728.1)
(18397 18335.6 -9205.79 -2571.04 -12176 -12004.3)
(12443.4 21977.2 2183.57 16592.9 775.714 -13643.2)
(-37883.6 4026.86 2199.22 -4875.94 18302.7 -32782.5)
(-22944.7 2199.79 3201.73 -10096.9 21163.4 4830.3)
(-12533.7 419.114 2498.31 -6770.08 15830.3 25764.3)
(-7432.8 -1400.77 1546.2 -3931.18 11906.6 37885.9)
(-4366.41 -2760.08 1374 -2391.32 9697.81 45744)
(-2323 -3047.99 1915.45 -2191.47 8675.96 49649.2)
(-899.441 -2464.15 2659.72 -2444.12 8166.93 50887.3)
(42.3238 -1525.35 3346.3 -2605.89 7809.4 50680.1)
(546.831 -579.315 3895.78 -2656.73 7521.42 49628.3)
(612.748 257.396 4279.64 -2781.83 7322.17 47949.1)
(207.661 997.03 4507.72 -3108.72 7252.66 45673.9)
(-718.1 1644.17 4654.55 -3599.84 7431.18 42704.6)
(-2248.17 2087.83 4831.77 -4175.94 8196.62 38813.9)
(-4554.99 2173.54 5006.33 -5075.93 10063.8 33656.9)
(-7817.72 1977.4 4842.41 -6699.96 13273.1 26685.5)
(-12524 1818.49 3891.68 -8858.57 17698.5 16029.6)
(-20938.3 2275.26 2175.69 -9437.68 22240.1 -3613.12)
(-34578.3 3960.51 587.02 -191.726 14566.7 -36290.8)
(-37883.6 4026.86 -2199.22 -4875.94 -18302.7 -32782.5)
(-22944.7 2199.79 -3201.73 -10096.9 -21163.4 4830.3)
(-12533.7 419.114 -2498.31 -6770.08 -15830.3 25764.3)
(-7432.8 -1400.77 -1546.2 -3931.18 -11906.6 37885.9)
(-4366.41 -2760.08 -1374 -2391.32 -9697.81 45744)
(-2323 -3047.99 -1915.45 -2191.47 -8675.96 49649.2)
(-899.441 -2464.15 -2659.72 -2444.12 -8166.93 50887.3)
(42.3239 -1525.35 -3346.3 -2605.89 -7809.4 50680.1)
(546.831 -579.315 -3895.78 -2656.73 -7521.42 49628.3)
(612.748 257.396 -4279.64 -2781.83 -7322.17 47949.1)
(207.661 997.03 -4507.72 -3108.72 -7252.66 45673.9)
(-718.1 1644.17 -4654.55 -3599.84 -7431.18 42704.6)
(-2248.17 2087.83 -4831.77 -4175.94 -8196.62 38813.9)
(-4554.99 2173.54 -5006.33 -5075.93 -10063.8 33656.9)
(-7817.72 1977.4 -4842.41 -6699.96 -13273.1 26685.5)
(-12524 1818.49 -3891.68 -8858.57 -17698.5 16029.6)
(-20938.3 2275.26 -2175.69 -9437.68 -22240.1 -3613.12)
(-34578.3 3960.51 -587.02 -191.726 -14566.7 -36290.8)
(-39011.8 -23394.5 -3128.53 -27172 4885.7 -60068.1)
(-39108.1 -18500.6 -16380.2 -38857.3 16559.8 -44738)
(-38195.3 -14628.7 -22295.4 -45788.6 15487.6 -32929.6)
(-34888.6 -13216.8 -25157.5 -45460.6 12775.1 -23378.1)
(-26621.1 -13315.2 -26144.8 -39186.4 10613.9 -12647.5)
(-16164.9 -13607.2 -26539.9 -31942 9447.18 -2992.5)
(-6589.55 -13199.9 -27200.4 -26727.9 8832.61 4307.85)
(325.233 -11762.4 -28106.3 -24268.5 8144.54 8961.78)
(3534.25 -9397.87 -28863.8 -24429.2 7047.33 10697.1)
(2624.61 -6550.62 -29080.5 -26754.7 5561.58 9338.39)
(-2016.06 -3863.39 -28427.5 -30425.1 3997.33 5200.63)
(-9203.02 -2146.61 -26671.3 -34361.1 2956.8 -836.567)
(-17079.5 -2156.96 -24107.6 -37943.2 3181.56 -7611.54)
(-23525.5 -3810.52 -21874.5 -41215.7 4825.35 -13887.2)
(-27125.3 -6238.62 -20908.8 -43658.2 7284.97 -18741.8)
(-27549 -9244.59 -21153.4 -44074 10432.8 -22409.6)
(-26142.5 -13782.2 -21617.4 -41530.6 14764.7 -27820.6)
(-31968.6 -20576.9 -15435.8 -34152.6 15936 -46556)
(-39011.8 -23394.5 3128.53 -27172 -4885.7 -60068.1)
(-39108.1 -18500.6 16380.2 -38857.3 -16559.8 -44738)
(-38195.3 -14628.7 22295.4 -45788.6 -15487.6 -32929.6)
(-34888.6 -13216.8 25157.5 -45460.6 -12775.1 -23378.1)
(-26621.1 -13315.2 26144.8 -39186.4 -10613.9 -12647.5)
(-16164.9 -13607.2 26539.9 -31942 -9447.18 -2992.5)
(-6589.55 -13199.9 27200.4 -26727.9 -8832.61 4307.85)
(325.233 -11762.4 28106.3 -24268.5 -8144.54 8961.78)
(3534.25 -9397.87 28863.8 -24429.2 -7047.33 10697.1)
(2624.61 -6550.62 29080.5 -26754.7 -5561.58 9338.39)
(-2016.06 -3863.39 28427.5 -30425.1 -3997.33 5200.63)
(-9203.02 -2146.61 26671.3 -34361.1 -2956.8 -836.567)
(-17079.5 -2156.96 24107.6 -37943.2 -3181.56 -7611.54)
(-23525.5 -3810.52 21874.5 -41215.7 -4825.35 -13887.2)
(-27125.3 -6238.62 20908.8 -43658.2 -7284.97 -18741.8)
(-27549 -9244.59 21153.4 -44074 -10432.8 -22409.6)
(-26142.5 -13782.2 21617.4 -41530.6 -14764.7 -27820.6)
(-31968.6 -20576.9 15435.8 -34152.6 -15936 -46556)
(13201.6 18374.6 11650.6 8032.43 10019.7 -6313.81)
(20450.7 12928.9 16353.8 9202.92 11053.7 11375.1)
(27643.5 7714.15 17909.8 13387.1 8115.8 27241.3)
(30830.8 3493.84 18303.9 15453.9 5536.29 38164.5)
(31836.6 1148.25 18839 14800.5 4684.03 43771.6)
(32224.9 892.271 19773.7 12693.2 4830.6 44796.8)
(32558.6 1952.68 20850.9 10603.3 5236.4 43349.4)
(33002 3489.38 21779.8 9218.68 5692.8 41102.9)
(33814.6 5084.04 22392.1 8717.98 6171.62 38948.9)
(35216.8 6685.23 22590.7 9072.29 6658.32 37202.8)
(37179.4 8412.15 22275.4 10148.4 7126.81 35733.2)
(39354.1 10393.9 21311.9 11757 7573.73 34043.7)
(41025.4 12662.8 19595.8 13554.2 8114.38 31289.6)
(40946.6 15123 17173.4 14577.6 9006.53 26129.7)
(37394.7 17589.9 14070.6 13065.1 10225.4 16702.3)
(29242.6 19816 9802.8 8459.96 10714 1961.04)
(20357.6 21531.7 3867.42 7293.23 7818.25 -11537.3)
(16060.4 21763.7 -3694.73 12227 -1143.38 -13228.1)
(13201.6 18374.6 -11650.6 8032.43 -10019.7 -6313.81)
(20450.7 12928.9 -16353.8 9202.92 -11053.7 11375.1)
(27643.5 7714.15 -17909.8 13387.1 -8115.8 27241.3)
(30830.8 3493.84 -18303.9 15453.9 -5536.29 38164.5)
(31836.6 1148.25 -18839 14800.5 -4684.03 43771.6)
(32224.9 892.271 -19773.7 12693.2 -4830.6 44796.8)
(32558.6 1952.68 -20850.9 10603.3 -5236.4 43349.4)
(33002 3489.38 -21779.8 9218.68 -5692.8 41102.9)
(33814.6 5084.04 -22392.1 8717.98 -6171.62 38948.9)
(35216.8 6685.23 -22590.7 9072.29 -6658.32 37202.8)
(37179.4 8412.15 -22275.4 10148.4 -7126.81 35733.2)
(39354.1 10393.9 -21311.9 11757 -7573.73 34043.7)
(41025.4 12662.8 -19595.8 13554.2 -8114.38 31289.6)
(40946.6 15123 -17173.4 14577.6 -9006.53 26129.7)
(37394.7 17589.9 -14070.6 13065.1 -10225.4 16702.3)
(29242.6 19816 -9802.8 8459.96 -10714 1961.04)
(20357.6 21531.7 -3867.42 7293.23 -7818.25 -11537.3)
(16060.4 21763.7 3694.73 12227 1143.38 -13228.1)
(-21847.7 4195.95 1744.95 18528.1 9904.97 -22911.7)
(-21046.1 3104.32 2656.57 9384.04 20026.4 -9827.55)
(-12973.7 1225.23 2724.75 7971.91 20952.7 10784.5)
(-6594.21 -1202.82 2465.35 8174.83 18394.7 27465.3)
(-2726.99 -3122.25 2597.13 7343.96 16201.4 38297.3)
(-165.54 -3633.43 3040.04 5709.31 15190.8 43969.2)
(1684.17 -3012.92 3474.11 4205.21 14759.1 46448.9)
(2973.04 -1904.09 3778.61 3200.45 14467.4 47196.9)
(3832.88 -711.284 3927.44 2654.52 14199 46907.7)
(4339.82 441.5 3900.86 2376.01 13954.6 45794.5)
(4417.45 1586.03 3709.28 2219.29 13771.6 43736.4)
(3749.26 2730.4 3472.87 2198.81 13837.7 40233.5)
(1744.74 3672.88 3428.77 2386.01 14715.7 34448.2)
(-2107.27 4110.73 3612.59 2615.44 16992.2 25941.1)
(-7323.51 4149 3571.7 3149.78 20014.4 15336.6)
(-12556.3 4170.07 2854.55 5771.64 21833.6 2867.76)
(-15589.1 4317.77 1425.63 13666.2 19284.3 -10246.7)
(-17013.5 4488.54 -252.057 23130.6 7660.09 -20460.2)
(-21847.7 4195.95 -1744.95 18528.1 -9904.97 -22911.7)
(-21046.1 3104.32 -2656.57 9384.04 -20026.4 -9827.55)
(-12973.7 1225.23 -2724.75 7971.91 -20952.7 10784.5)
(-6594.21 -1202.82 -2465.35 8174.83 -18394.7 27465.3)
(-2726.99 -3122.25 -2597.13 7343.96 -16201.4 38297.3)
(-165.54 -3633.43 -3040.04 5709.31 -15190.8 43969.2)
(1684.17 -3012.92 -3474.11 4205.21 -14759.1 46448.9)
(2973.04 -1904.09 -3778.61 3200.45 -14467.4 47196.9)
(3832.88 -711.284 -3927.44 2654.52 -14199 46907.7)
(4339.82 441.5 -3900.86 2376.01 -13954.6 45794.5)
(4417.45 1586.03 -3709.28 2219.29 -13771.6 43736.4)
(3749.26 2730.4 -3472.87 2198.81 -13837.7 40233.5)
(1744.74 3672.88 -3428.77 2386.01 -14715.7 34448.2)
(-2107.27 4110.73 -3612.59 2615.44 -16992.2 25941.1)
(-7323.51 4149 -3571.7 3149.78 -20014.4 15336.6)
(-12556.3 4170.07 -2854.55 5771.64 -21833.6 2867.76)
(-15589.1 4317.77 -1425.63 13666.2 -19284.3 -10246.7)
(-17013.5 4488.54 252.057 23130.6 -7660.09 -20460.2)
(-10690.7 -25118.2 -557.122 2370.52 1492.42 -31471)
(-17596.3 -23223.9 -9523.28 -7443.33 11597.5 -31963.4)
(-21521.5 -21078.2 -15754.2 -17128.1 15602.5 -27262.6)
(-20916.6 -20472.3 -19709.5 -20945.4 15381.5 -19151.6)
(-15405.2 -21448.9 -21637.4 -19443.7 13781.1 -9298.09)
(-6748.72 -22341.3 -22632.7 -16448.8 12845.5 -526.405)
(2053.56 -21891 -23815.5 -14592.7 12658.7 6032.75)
(8710.65 -19932.9 -25302 -14671.5 12460.6 10255.2)
(11886.8 -16809.7 -26702.5 -16676.2 11757.3 11926.7)
(11037.9 -13110.3 -27569.2 -20240.5 10471.9 10812.6)
(6321.12 -9567.76 -27418.1 -24624 8882.77 6918.26)
(-1534.58 -7172.97 -25713.1 -28792.4 7746.94 417.805)
(-11046.8 -7034.89 -22563.4 -32156.7 8239.48 -8282.61)
(-19466.1 -9142.41 -19516 -34469.1 10606.2 -17294)
(-23646.4 -12179.8 -17749.6 -33729.5 13382.6 -23490.3)
(-22175.6 -15606.7 -16501.3 -27270.8 15330.8 -25978.7)
(-15892.8 -19821.9 -14375.1 -14824.4 15281.4 -26618.4)
(-9903.82 -24028.6 -9013.22 -1421.52 10063.8 -28747.1)
(-10690.7 -25118.2 557.122 2370.52 -1492.42 -31471)
(-17596.3 -23223.9 9523.28 -7443.33 -11597.5 -31963.4)
(-21521.5 -21078.2 15754.2 -17128.1 -15602.5 -27262.6)
(-20916.6 -20472.3 19709.5 -20945.4 -15381.5 -19151.6)
(-15405.2 -21448.9 21637.4 -19443.7 -13781.1 -9298.09)
(-6748.72 -22341.3 22632.7 -16448.8 -12845.5 -526.405)
(2053.56 -21891 23815.5 -14592.7 -12658.7 6032.75)
(8710.65 -19932.9 25302 -14671.5 -12460.6 10255.2)
(11886.8 -16809.7 26702.5 -16676.2 -11757.3 11926.7)
(11037.9 -13110.3 27569.2 -20240.5 -10471.9 10812.6)
(6321.12 -9567.76 27418.1 -24624 -8882.77 6918.26)
(-1534.58 -7172.97 25713.1 -28792.4 -7746.94 417.804)
(-11046.8 -7034.89 22563.4 -32156.7 -8239.48 -8282.61)
(-19466.1 -9142.41 19516 -34469.1 -10606.2 -17294)
(-23646.4 -12179.8 17749.6 -33729.5 -13382.6 -23490.3)
(-22175.6 -15606.7 16501.3 -27270.8 -15330.8 -25978.7)
(-15892.8 -19821.9 14375.1 -14824.4 -15281.4 -26618.4)
(-9903.82 -24028.6 9013.22 -1421.52 -10063.8 -28747.1)
(11724.2 19310.6 8996.85 7609.56 6653.28 -11895.4)
(14129.6 15815.3 13117.7 7418.98 9683.51 -2189.24)
(19833 11616.4 15572.3 10430.2 9447.43 12101.7)
(24187.1 7589.58 16896.5 12730 8183.72 25360)
(26398.2 5032.68 17831.1 12602.9 7811.55 33519.8)
(27520.4 4331.49 18686.9 10902.2 8084.22 36353.8)
(28454.5 4947.87 19471.5 9051.2 8415.67 36082.4)
(29526.5 6231.26 20065.3 7782.92 8697.68 34545.9)
(30922.6 7789.82 20337.7 7280.6 8956.89 32739.4)
(32808 9527.02 20164.9 7501.42 9178.39 31052.4)
(35195.2 11531.9 19395 8335.5 9298.74 29405.6)
(37772.1 13922.4 17829.8 9663.69 9261.03 27273.5)
(39622.4 16653.5 15350.9 11224.4 9143.9 23653.5)
(38989.8 19328.8 12249.5 12214.9 9220.15 17291.7)
(34127.5 21311.5 9097.85 11412.1 9419.4 7648.82)
(25564 22310.1 5746.77 8913.68 8614.24 -3981.75)
(17558.2 22450.3 1487.17 7770.46 5315.43 -13096.5)
(13353.7 21585.7 -3706.58 8654.15 -624.055 -15454.5)
(11724.2 19310.6 -8996.85 7609.56 -6653.28 -11895.4)