/*--------------------------------*- C++ -*----------------------------------*\
| =========                 |                                                 |
| \\      /  F ield         | OpenFOAM: The Open Source CFD Toolbox           |
|  \\    /   O peration     | Version:  2312                                  |
|   \\  /    A nd           | Website:  www.openfoam.com                      |
|    \\/     M anipulation  |                                                 |
\*---------------------------------------------------------------------------*/
FoamFile
{
    version     2.0;
    format      ascii;
    arch        "LSB;label=32;scalar=64";
    class       volSymmTensorField;
    location    "0.8";
    object      sigma;
}
// * * * * * * * * * * * * * * * * * * * * * * * * * * * * * * * * * * * * * //

dimensions      [1 -1 -2 0 0 0 0];

internalField   nonuniform List<symmTensor> 
1620
(
(24722 -3063.85 -1748.7 50838.3 22228.9 47456.4)
(26557.5 -7345.2 -5582.11 49003 21587.6 47456.4)
(29746.5 -10740.7 -9246 45814 20290.3 47456.4)
(33904.3 -12840.6 -12628.9 41655.6 18376.4 47456.3)
(38529.7 -13391.7 -15628 37030.2 15904.3 47456.3)
(43064.8 -12327.7 -18152.4 32495.3 12948.9 47456.4)
(46962.6 -9776.83 -20125.1 28597.7 9600.08 47456.2)
(49752.7 -6046.62 -21486.4 25807.6 5959.54 47456.4)
(51098.8 -1587.11 -22194.9 24461.7 2137.91 47456.4)
(50838.3 3063.85 -22228.9 24722 -1748.7 47456.4)
(49003 7345.2 -21587.6 26557.5 -5582.11 47456.4)
(45813.9 10740.7 -20290.3 29746.5 -9246 47456.4)
(41655.6 12840.6 -18376.5 33904.3 -12628.9 47456.3)
(37030.2 13391.7 -15904.3 38529.7 -15628 47456.3)
(32495.3 12327.7 -12948.9 43064.8 -18152.4 47456.4)
(28597.7 9776.83 -9600.08 46962.6 -20125.1 47456.2)
(25807.7 6046.62 -5959.54 49752.7 -21486.4 47456.4)
(24461.7 1587.11 -2137.91 51098.8 -22194.9 47456.4)
(24722 -3063.85 1748.7 50838.3 -22228.9 47456.4)
(26557.5 -7345.2 5582.11 49003 -21587.6 47456.4)
(29746.5 -10740.7 9246 45813.9 -20290.3 47456.4)
(33904.3 -12840.6 12628.9 41655.6 -18376.5 47456.3)
(38529.7 -13391.7 15628 37030.2 -15904.3 47456.3)
(43064.8 -12327.7 18152.4 32495.3 -12948.9 47456.4)
(46962.6 -9776.83 20125.1 28597.7 -9600.08 47456.2)
(49752.7 -6046.62 21486.4 25807.6 -5959.54 47456.4)
(51098.8 -1587.11 22194.9 24461.7 -2137.91 47456.4)
(50838.3 3063.85 22228.9 24722 1748.7 47456.4)
(49003 7345.2 21587.6 26557.5 5582.11 47456.4)
(45813.9 10740.7 20290.3 29746.5 9246 47456.4)
(41655.6 12840.6 18376.4 33904.3 12628.9 47456.3)
(37030.1 13391.7 15904.3 38529.7 15628 47456.3)
(32495.3 12327.7 12948.9 43064.8 18152.4 47456.4)
(28597.7 9776.83 9600.08 46962.6 20125.1 47456.2)
(25807.6 6046.62 5959.54 49752.7 21486.4 47456.4)
(24461.7 1587.11 2137.91 51098.8 22194.9 47456.4)
(12977.6 -5116.22 311.691 60351.2 2225.68 14134.3)
(16155.9 -12909 -79.5288 57172.8 2245.99 14134.3)
(21807.8 -19144.9 -468.328 51520.7 2198.04 14134.1)
(29251.8 -23071.5 -842.974 44076.9 2083.43 14134.3)
(37589.6 -24215.3 -1192.03 35739 1905.47 14134.2)
(45815.8 -22438.5 -1504.71 27512.6 1669.47 14134.1)
(52938.5 -17955.3 -1771.63 20390.2 1382.77 14134.2)
(58098.2 -11306.3 -1984.85 15230.6 1054.12 14134.3)
(60672.4 -3293.68 -2137.75 12656.2 693.442 14134.2)
(60351.2 5116.22 -2225.68 12977.6 311.691 14134.3)
(57172.8 12909 -2246 16155.9 -79.5288 14134.3)
(51520.7 19144.9 -2198.04 21807.8 -468.328 14134.1)
(44076.9 23071.5 -2083.43 29251.8 -842.974 14134.3)
(35739 24215.3 -1905.47 37589.6 -1192.03 14134.2)
(27512.6 22438.5 -1669.47 45815.8 -1504.71 14134.1)
(20390.2 17955.3 -1382.77 52938.5 -1771.63 14134.2)
(15230.6 11306.3 -1054.12 58098.2 -1984.85 14134.3)
(12656.2 3293.68 -693.442 60672.4 -2137.75 14134.2)
(12977.6 -5116.22 -311.691 60351.2 -2225.68 14134.3)
(16155.9 -12909 79.5287 57172.8 -2246 14134.3)
(21807.8 -19144.9 468.328 51520.7 -2198.04 14134.1)
(29251.8 -23071.5 842.974 44076.9 -2083.43 14134.3)
(37589.6 -24215.3 1192.03 35739 -1905.47 14134.2)
(45815.8 -22438.5 1504.71 27512.6 -1669.47 14134.1)
(52938.5 -17955.3 1771.63 20390.2 -1382.77 14134.2)
(58098.2 -11306.3 1984.85 15230.6 -1054.12 14134.3)
(60672.4 -3293.68 2137.75 12656.2 -693.442 14134.2)
(60351.2 5116.22 2225.68 12977.6 -311.691 14134.3)
(57172.8 12909 2246 16155.9 79.5287 14134.3)
(51520.7 19144.9 2198.04 21807.8 468.328 14134.1)
(44076.9 23071.5 2083.43 29251.8 842.974 14134.3)
(35739 24215.3 1905.47 37589.6 1192.03 14134.2)
(27512.6 22438.5 1669.47 45815.8 1504.71 14134.1)
(20390.2 17955.3 1382.77 52938.5 1771.63 14134.2)
(15230.6 11306.3 1054.12 58098.2 1984.85 14134.3)
(12656.2 3293.68 693.442 60672.4 2137.75 14134.2)
(-2874.4 -5145.39 4025.12 34521.2 -29530.4 17952.4)
(13.0162 -11230.1 9091.86 31633.7 -28382.8 17952.4)
(4807.27 -15960.3 13882.4 26839.1 -26372.8 17952.3)
(10930.4 -18765.5 18251.1 20716 -23561.5 17952.2)
(17643.8 -19307.3 22065.2 14003 -20034.3 17952.3)
(24137.4 -17520.2 25208.9 7509.3 -15898.4 17952.4)
(29628.3 -13620.1 27586.7 2018.42 -11279.4 17952.4)
(33454 -8077.05 29126.2 -1807.52 -6317.57 17952.3)
(35153.3 -1559.91 29780.7 -3506.67 -1163.91 17952.4)
(34521.2 5145.39 29530.4 -2874.4 4025.12 17952.4)
(31633.7 11230.1 28382.8 13.0198 9091.86 17952.4)
(26839.1 15960.3 26372.8 4807.28 13882.4 17952.3)
(20716 18765.5 23561.5 10930.4 18251.1 17952.2)
(14003 19307.3 20034.3 17643.8 22065.2 17952.3)
(7509.3 17520.2 15898.4 24137.4 25208.9 17952.4)
(2018.42 13620.1 11279.4 29628.3 27586.7 17952.5)
(-1807.52 8077.05 6317.57 33454 29126.2 17952.3)
(-3506.66 1559.91 1163.91 35153.3 29780.7 17952.4)
(-2874.4 -5145.39 -4025.12 34521.2 29530.4 17952.5)
(13.0214 -11230.1 -9091.86 31633.7 28382.8 17952.4)
(4807.28 -15960.3 -13882.4 26839.1 26372.8 17952.3)
(10930.4 -18765.5 -18251.1 20716 23561.5 17952.2)
(17643.8 -19307.3 -22065.2 14003 20034.3 17952.3)
(24137.4 -17520.2 -25208.9 7509.3 15898.4 17952.4)
(29628.3 -13620.1 -27586.7 2018.42 11279.4 17952.5)
(33454 -8077.05 -29126.2 -1807.52 6317.57 17952.3)
(35153.3 -1559.91 -29780.7 -3506.67 1163.91 17952.4)
(34521.2 5145.39 -29530.4 -2874.4 -4025.12 17952.4)
(31633.7 11230.1 -28382.8 13.0184 -9091.86 17952.4)
(26839.1 15960.3 -26372.8 4807.27 -13882.4 17952.3)
(20716 18765.5 -23561.5 10930.4 -18251.1 17952.2)
(14003 19307.3 -20034.3 17643.8 -22065.2 17952.3)
(7509.3 17520.2 -15898.4 24137.4 -25208.9 17952.4)
(2018.42 13620.1 -11279.4 29628.3 -27586.7 17952.4)
(-1807.52 8077.05 -6317.57 33454 -29126.2 17952.3)
(-3506.67 1559.91 -1163.91 35153.3 -29780.7 17952.4)
(8361.69 -3591.46 -2286.86 31745.6 22136.7 34126.9)
(10295.1 -7373.65 -6096.04 29812 21403.3 34127.1)
(13405.7 -10266.6 -9720.13 26701.8 20019.6 34127.1)
(17317.8 -11921.2 -13048.9 22789.1 18027.5 34127.1)
(21560.1 -12137.9 -15981.1 18546.9 15487.8 34127.1)
(25620.6 -10890.6 -18427.6 14486.5 12477.5 34127.2)
(29009.7 -8329.83 -20314.4 11097.3 9087.95 34126.8)
(31318.6 -4764.24 -21583.9 8788.6 5422.32 34127.1)
(32268.8 -624.11 -22197.5 7838.48 1591.99 34126.9)
(31745.6 3591.46 -22136.7 8361.69 -2286.86 34126.9)
(29812 7373.65 -21403.3 10295.1 -6096.04 34127.1)
(26701.8 10266.6 -20019.6 13405.7 -9720.13 34127.1)
(22789.1 11921.2 -18027.5 17317.8 -13048.9 34127.1)
(18546.9 12137.9 -15487.8 21560.1 -15981.1 34127.1)
(14486.5 10890.6 -12477.5 25620.6 -18427.6 34127.2)
(11097.3 8329.83 -9087.95 29009.7 -20314.4 34126.8)
(8788.6 4764.24 -5422.32 31318.6 -21583.9 34127.1)
(7838.48 624.11 -1591.99 32268.8 -22197.5 34126.9)
(8361.68 -3591.46 2286.86 31745.6 -22136.7 34126.9)
(10295.1 -7373.65 6096.04 29812 -21403.3 34127.1)
(13405.7 -10266.6 9720.13 26701.8 -20019.6 34127.1)
(17317.8 -11921.2 13048.9 22789.1 -18027.5 34127.1)
(21560.1 -12137.9 15981.1 18546.9 -15487.8 34127.1)
(25620.6 -10890.6 18427.6 14486.5 -12477.5 34127.2)
(29009.7 -8329.83 20314.4 11097.3 -9087.95 34126.8)
(31318.6 -4764.24 21583.9 8788.6 -5422.32 34127.1)
(32268.8 -624.11 22197.5 7838.48 -1591.99 34126.9)
(31745.6 3591.46 22136.7 8361.68 2286.86 34126.9)
(29812 7373.65 21403.3 10295.1 6096.04 34127.1)
(26701.8 10266.6 20019.6 13405.7 9720.13 34127.1)
(22789.1 11921.2 18027.5 17317.8 13048.9 34127.1)
(18546.9 12137.9 15487.8 21560.1 15981.1 34127.1)
(14486.5 10890.6 12477.5 25620.6 18427.6 34127.2)
(11097.3 8329.83 9087.95 29009.7 20314.4 34126.8)
(8788.6 4764.24 5422.32 31318.6 21583.9 34127.1)
(7838.48 624.11 1591.99 32268.8 22197.5 34126.9)
(-3365.87 -6255.74 248.141 42867.2 3359.74 -2207.11)
(167.789 -13784.7 -339.079 39333.6 3351.93 -2207.06)
(6063.37 -19651.2 -915.971 33437.8 3242.09 -2207.18)
(13610.1 -23147.3 -1465.09 25891.5 3033.85 -2206.89)
(21897.3 -23851.6 -1969.62 17604.3 2733.32 -2206.96)
(29925.4 -21679 -2414.37 9575.8 2349.8 -2207.14)
(36726.7 -16891.7 -2785.64 2774.96 1894.81 -2206.94)
(41479.9 -10066.9 -3072.4 -1978.79 1382.32 -2207.16)
(43612.7 -2027.96 -3265.61 -4111.33 827.797 -2207.1)
(42867.2 6255.74 -3359.74 -3365.87 248.141 -2207.11)
(39333.6 13784.7 -3351.93 167.789 -339.079 -2207.06)
(33437.8 19651.2 -3242.09 6063.36 -915.971 -2207.19)
(25891.5 23147.3 -3033.85 13610.1 -1465.09 -2206.89)
(17604.3 23851.6 -2733.32 21897.3 -1969.62 -2206.96)
(9575.8 21679 -2349.8 29925.4 -2414.37 -2207.14)
(2774.96 16891.7 -1894.81 36726.7 -2785.64 -2206.94)
(-1978.79 10066.9 -1382.32 41479.9 -3072.4 -2207.16)
(-4111.33 2027.97 -827.797 43612.7 -3265.61 -2207.1)
(-3365.86 -6255.74 -248.141 42867.2 -3359.74 -2207.11)
(167.789 -13784.7 339.079 39333.6 -3351.93 -2207.06)
(6063.36 -19651.2 915.971 33437.8 -3242.09 -2207.19)
(13610.1 -23147.3 1465.09 25891.5 -3033.85 -2206.89)
(21897.3 -23851.6 1969.62 17604.3 -2733.32 -2206.96)
(29925.4 -21679 2414.37 9575.8 -2349.8 -2207.14)
(36726.7 -16891.7 2785.64 2774.96 -1894.81 -2206.94)
(41479.9 -10066.9 3072.4 -1978.79 -1382.32 -2207.16)
(43612.7 -2027.96 3265.61 -4111.33 -827.798 -2207.1)
(42867.2 6255.74 3359.74 -3365.86 -248.141 -2207.11)
(39333.6 13784.7 3351.93 167.789 339.079 -2207.06)
(33437.8 19651.2 3242.09 6063.36 915.971 -2207.19)
(25891.5 23147.3 3033.85 13610.1 1465.09 -2206.89)
(17604.3 23851.6 2733.32 21897.3 1969.62 -2206.96)
(9575.8 21679 2349.8 29925.4 2414.37 -2207.14)
(2774.96 16891.7 1894.81 36726.7 2785.64 -2206.94)
(-1978.79 10066.9 1382.32 41479.9 3072.4 -2207.17)
(-4111.33 2027.97 827.797 43612.7 3265.61 -2207.1)
(-23737.7 -6996.52 5005.19 12948.2 -30146.1 -3855.37)
(-20238.7 -12848.2 10163.9 9448.95 -28818.9 -3855.54)
(-14949.1 -17150.2 15013.8 4159.49 -26616.2 -3855.39)
(-8507.34 -19383.7 19407.6 -2282.64 -23604.7 -3855.56)
(-1689.83 -19279.2 23211.7 -9099.74 -19876 -3855.44)
(4680.76 -16849.4 26310.5 -15470 -15543.4 -3855.17)
(9835.94 -12387.2 28609.9 -20625.4 -10738.4 -3855.32)
(13154.2 -6430.99 30039.9 -23943.4 -5607.22 -3855.32)
(14234.9 300.832 30557.2 -25024.4 -305.726 -3855.29)
(12948.2 6996.52 30146.1 -23737.7 5005.19 -3855.37)
(9448.95 12848.2 28818.9 -20238.7 10163.9 -3855.54)
(4159.49 17150.2 26616.2 -14949.1 15013.8 -3855.39)
(-2282.64 19383.7 23604.7 -8507.34 19407.6 -3855.56)
(-9099.74 19279.2 19876 -1689.83 23211.7 -3855.44)
(-15470 16849.4 15543.4 4680.76 26310.5 -3855.17)
(-20625.4 12387.2 10738.4 9835.95 28609.9 -3855.32)
(-23943.4 6430.99 5607.22 13154.2 30039.9 -3855.32)
(-25024.4 -300.832 305.726 14234.9 30557.2 -3855.29)
(-23737.7 -6996.52 -5005.19 12948.2 30146.1 -3855.36)
(-20238.7 -12848.2 -10163.9 9448.95 28818.9 -3855.54)
(-14949.1 -17150.2 -15013.8 4159.49 26616.2 -3855.39)
(-8507.34 -19383.7 -19407.6 -2282.64 23604.7 -3855.56)
(-1689.83 -19279.2 -23211.7 -9099.74 19876 -3855.44)
(4680.76 -16849.4 -26310.5 -15470 15543.4 -3855.17)
(9835.95 -12387.2 -28609.9 -20625.4 10738.4 -3855.32)
(13154.2 -6430.99 -30039.9 -23943.4 5607.22 -3855.32)
(14234.9 300.832 -30557.2 -25024.4 305.726 -3855.29)
(12948.2 6996.52 -30146.1 -23737.7 -5005.19 -3855.37)
(9448.95 12848.2 -28818.9 -20238.7 -10163.9 -3855.54)
(4159.49 17150.2 -26616.2 -14949.1 -15013.8 -3855.39)
(-2282.64 19383.7 -23604.7 -8507.34 -19407.6 -3855.56)
(-9099.74 19279.2 -19876 -1689.83 -23211.7 -3855.44)
(-15470 16849.4 -15543.4 4680.76 -26310.5 -3855.17)
(-20625.4 12387.2 -10738.4 9835.94 -28609.9 -3855.32)
(-23943.4 6430.99 -5607.22 13154.2 -30039.9 -3855.32)
(-25024.4 -300.832 -305.726 14234.9 -30557.2 -3855.3)
(9000.26 -3943.55 -2187.47 32137.5 21798.9 36222.8)
(11046.5 -7662.47 -5939.65 30090.7 21087.9 36222.5)
(14241.7 -10457.1 -9511.26 26896 19736.1 36222.7)
(18199.5 -11990.4 -12793.9 22937.6 17784.7 36222.7)
(22443.7 -12077.7 -15687.8 18694 15292.8 36222.6)
(26461.3 -10708 -18105 14676.3 12336.4 36222.9)
(29768.1 -8046.93 -19972.1 11369 9005.05 36222.4)
(31965.6 -4415.16 -21232.4 9171.77 5400.06 36222.7)
(32788.3 -250.981 -21847.6 8348.86 1631.11 36222.4)
(32137.5 3943.55 -21798.9 9000.26 -2187.47 36222.8)
(30090.7 7662.47 -21087.9 11046.5 -5939.65 36222.5)
(26896 10457.1 -19736.1 14241.7 -9511.26 36222.7)
(22937.6 11990.4 -17784.7 18199.5 -12793.9 36222.7)
(18694 12077.7 -15292.8 22443.7 -15687.8 36222.6)
(14676.3 10708 -12336.4 26461.3 -18105 36222.9)
(11369 8046.93 -9005.05 29768.1 -19972.1 36222.4)
(9171.77 4415.16 -5400.06 31965.6 -21232.4 36222.7)
(8348.86 250.981 -1631.11 32788.3 -21847.6 36222.4)
(9000.26 -3943.55 2187.47 32137.5 -21798.9 36222.8)
(11046.5 -7662.47 5939.65 30090.7 -21087.9 36222.5)
(14241.7 -10457.1 9511.26 26896 -19736.1 36222.7)
(18199.5 -11990.4 12793.9 22937.6 -17784.7 36222.7)
(22443.7 -12077.7 15687.8 18694 -15292.8 36222.6)
(26461.3 -10708 18105 14676.3 -12336.4 36222.9)
(29768.1 -8046.93 19972.1 11369 -9005.05 36222.4)
(31965.6 -4415.16 21232.4 9171.77 -5400.06 36222.7)
(32788.3 -250.981 21847.6 8348.86 -1631.11 36222.4)
(32137.5 3943.55 21798.9 9000.26 2187.47 36222.8)
(30090.7 7662.47 21087.9 11046.5 5939.65 36222.5)
(26896 10457.1 19736.1 14241.7 9511.26 36222.7)
(22937.6 11990.4 17784.7 18199.5 12793.9 36222.7)
(18694 12077.7 15292.8 22443.7 15687.8 36222.6)
(14676.3 10708 12336.4 26461.3 18105 36222.9)
(11369 8046.93 9005.05 29768.1 19972.1 36222.4)
(9171.77 4415.16 5400.06 31965.6 21232.4 36222.7)
(8348.86 250.981 1631.11 32788.3 21847.6 36222.4)
(-2222.36 -7637.5 358.77 42876.5 3129.72 -1184.58)
(1749.93 -14889.2 -190.176 38904.7 3144.57 -1184.31)
(7962.47 -20345.1 -733.338 32691.6 3063.77 -1184.55)
(15666.8 -23347.1 -1254.21 24987.8 2889.89 -1184.3)
(23933 -23533.1 -1736.87 16721.5 2628.09 -1184.39)
(31764.1 -20880.6 -2166.98 8889.87 2286.64 -1184.6)
(38216.1 -15709.7 -2531.11 2438.3 1875.61 -1184.38)
(42510.1 -8643.83 -2818.31 -1856.12 1407.58 -1184.62)
(44129 -535.528 -3019.87 -3474.38 896.802 -1184.34)
(42876.5 7637.5 -3129.72 -2222.36 358.77 -1184.58)
(38904.7 14889.2 -3144.52 1749.94 -190.161 -1184.32)
(32691.6 20345.1 -3063.77 7962.47 -733.338 -1184.55)
(24987.8 23347.1 -2889.89 15666.8 -1254.21 -1184.3)
(16721.5 23533.1 -2628.09 23933 -1736.87 -1184.39)
(8889.87 20880.6 -2286.64 31764.1 -2166.98 -1184.6)
(2438.3 15709.7 -1875.61 38216.1 -2531.11 -1184.38)
(-1856.12 8643.83 -1407.58 42510.1 -2818.31 -1184.61)
(-3474.38 535.528 -896.803 44129 -3019.87 -1184.33)
(-2222.36 -7637.5 -358.77 42876.5 -3129.72 -1184.58)
(1749.94 -14889.2 190.161 38904.7 -3144.52 -1184.32)
(7962.47 -20345.1 733.338 32691.6 -3063.77 -1184.55)
(15666.8 -23347.1 1254.21 24987.8 -2889.89 -1184.3)
(23933 -23533.1 1736.87 16721.5 -2628.09 -1184.39)
(31764.1 -20880.6 2166.98 8889.87 -2286.64 -1184.6)
(38216.1 -15709.7 2531.11 2438.3 -1875.61 -1184.38)
(42510.1 -8643.83 2818.31 -1856.12 -1407.58 -1184.62)
(44129 -535.528 3019.87 -3474.38 -896.803 -1184.33)
(42876.5 7637.5 3129.72 -2222.36 -358.77 -1184.58)
(38904.7 14889.2 3144.52 1749.94 190.161 -1184.32)
(32691.6 20345.1 3063.77 7962.47 733.338 -1184.55)
(24987.8 23347.1 2889.89 15666.8 1254.21 -1184.3)
(16721.5 23533.1 2628.09 23933 1736.87 -1184.39)
(8889.87 20880.6 2286.64 31764.1 2166.98 -1184.6)
(2438.3 15709.7 1875.61 38216.1 2531.11 -1184.39)
(-1856.12 8643.83 1407.59 42510.1 2818.36 -1184.61)
(-3474.38 535.528 896.802 44129 3019.87 -1184.34)
(-26288.7 -11892.9 8298.92 8125.71 -32352 -6780.19)
(-21183.6 -17060.9 13790.7 3020.27 -30419.4 -6780.45)
(-14618.3 -20171.1 18863.5 -3544.45 -27562.5 -6780.15)
(-7385.54 -20848.3 23363.1 -10777.4 -23868.2 -6780.15)
(-357.323 -19011 27152.8 -17805.8 -19448.6 -6780.31)
(5618.77 -14880.6 30117.6 -23781.7 -14438.1 -6780.17)
(9821.57 -8955.44 32167.1 -27984.8 -8988.89 -6780.38)
(11744.7 -1950.16 33239.3 -29907.4 -3266.63 -6780.11)
(11155.7 5290.41 33301.6 -29318.5 2554.96 -6780.14)
(8125.71 11892.9 32352 -26288.7 8298.92 -6780.19)
(3020.27 17060.9 30419.4 -21183.6 13790.7 -6780.45)
(-3544.45 20171.1 27562.5 -14618.3 18863.5 -6780.15)
(-10777.4 20848.3 23868.2 -7385.54 23363.1 -6780.15)
(-17805.8 19011 19448.6 -357.323 27152.8 -6780.31)
(-23781.7 14880.6 14438.1 5618.77 30117.6 -6780.17)
(-27984.8 8955.44 8988.89 9821.57 32167.1 -6780.38)
(-29907.4 1950.16 3266.63 11744.7 33239.3 -6780.11)
(-29318.5 -5290.41 -2554.96 11155.7 33301.6 -6780.13)
(-26288.7 -11892.9 -8298.92 8125.71 32352 -6780.19)
(-21183.6 -17060.9 -13790.7 3020.27 30419.4 -6780.45)
(-14618.3 -20171.1 -18863.5 -3544.45 27562.5 -6780.15)
(-7385.54 -20848.3 -23363.1 -10777.4 23868.2 -6780.15)
(-357.323 -19011 -27152.8 -17805.8 19448.6 -6780.31)
(5618.77 -14880.6 -30117.6 -23781.7 14438.1 -6780.17)
(9821.58 -8955.44 -32167.1 -27984.8 8988.89 -6780.38)
(11744.7 -1950.16 -33239.3 -29907.4 3266.63 -6780.11)
(11155.7 5290.41 -33301.6 -29318.5 -2554.96 -6780.14)
(8125.71 11892.9 -32352 -26288.7 -8298.92 -6780.19)
(3020.27 17060.9 -30419.4 -21183.6 -13790.7 -6780.45)
(-3544.45 20171.1 -27562.5 -14618.3 -18863.5 -6780.15)
(-10777.4 20848.3 -23868.2 -7385.54 -23363.1 -6780.15)
(-17805.8 19011 -19448.6 -357.323 -27152.8 -6780.31)
(-23781.7 14880.6 -14438.1 5618.77 -30117.6 -6780.18)
(-27984.8 8955.44 -8988.89 9821.57 -32167.1 -6780.38)
(-29907.4 1950.16 -3266.63 11744.7 -33239.3 -6780.11)
(-29318.5 -5290.41 2554.96 11155.7 -33301.6 -6780.13)
(9332.06 -3988.66 -1649.31 32075.5 21362.8 37831.8)
(11382.1 -7637.54 -5333.9 30025.7 20751.8 37831.7)
(14556.4 -10365.2 -8856.46 26851.2 19510.3 37831.6)
(18472.4 -11842.6 -12109.8 22935.4 17676 37831.8)
(22657.3 -11891.7 -14995.2 18750.5 15304.7 37831.8)
(26606.7 -10506.4 -17425 14801.1 12468.3 37831.8)
(29844.2 -7853.96 -19325.4 11563.8 9253.06 37831.7)
(31979 -4254.08 -20638.6 9428.57 5756.57 37831.6)
(32754 -141.199 -21324.6 8653.68 2085.3 37831.8)
(32075.6 3988.66 -21362.8 9332.06 -1649.31 37831.8)
(30025.7 7637.54 -20751.8 11382.1 -5333.9 37831.7)
(26851.2 10365.2 -19510.3 14556.4 -8856.46 37831.6)
(22935.4 11842.6 -17676 18472.4 -12109.8 37831.8)
(18750.5 11891.7 -15304.7 22657.3 -14995.2 37831.8)
(14801.1 10506.4 -12468.3 26606.7 -17425 37831.8)
(11563.8 7853.96 -9253.06 29844.2 -19325.4 37831.7)
(9428.57 4254.08 -5756.57 31979 -20638.6 37831.6)
(8653.68 141.199 -2085.3 32754 -21324.6 37831.8)
(9332.06 -3988.66 1649.31 32075.6 -21362.8 37831.8)
(11382.1 -7637.54 5333.9 30025.7 -20751.8 37831.7)
(14556.4 -10365.2 8856.46 26851.2 -19510.3 37831.6)
(18472.4 -11842.6 12109.8 22935.4 -17676 37831.8)
(22657.3 -11891.7 14995.2 18750.5 -15304.7 37831.8)
(26606.7 -10506.4 17425 14801.1 -12468.3 37831.8)
(29844.2 -7853.96 19325.4 11563.8 -9253.06 37831.7)
(31979 -4254.08 20638.6 9428.57 -5756.57 37831.6)
(32754 -141.199 21324.6 8653.68 -2085.3 37831.8)
(32075.6 3988.66 21362.8 9332.06 1649.31 37831.8)
(30025.7 7637.54 20751.8 11382.1 5333.9 37831.7)
(26851.2 10365.2 19510.3 14556.4 8856.46 37831.6)
(22935.4 11842.6 17676 18472.4 12109.8 37831.8)
(18750.5 11891.7 15304.7 22657.3 14995.2 37831.8)
(14801.1 10506.4 12468.3 26606.7 17425 37831.8)
(11563.8 7853.96 9253.06 29844.2 19325.4 37831.7)
(9428.57 4254.08 5756.57 31979 20638.6 37831.6)
(8653.68 141.199 2085.3 32754 21324.6 37831.8)
(-1374.26 -9312.76 312.874 41555.1 2841.05 -1000.73)
(3105.31 -16092.5 -185.227 37075.4 2852.22 -1000.79)
(9633.63 -20931.2 -677.699 30547.2 2776.72 -1000.76)
(17423.3 -23245.4 -1149.61 22757.7 2616.9 -1000.63)
(25534.3 -22755.7 -1586.56 14646.4 2377.52 -1000.78)
(32989 -19521.4 -1975.31 7191.88 2065.9 -1000.69)
(38887.8 -13932.6 -2303.98 1292.94 1691.49 -1000.79)
(42519.4 -6663.23 -2562.7 -2338.65 1265.71 -1000.78)
(43445.8 1409.81 -2743.55 -3264.93 801.464 -1000.74)
(41555.1 9312.76 -2841.05 -1374.26 312.874 -1000.73)
(37075.4 16092.5 -2852.22 3105.31 -185.227 -1000.79)
(30547.2 20931.2 -2776.72 9633.64 -677.698 -1000.76)
(22757.7 23245.4 -2616.9 17423.3 -1149.61 -1000.62)
(14646.4 22755.7 -2377.52 25534.3 -1586.56 -1000.78)
(7191.88 19521.4 -2065.9 32989 -1975.31 -1000.69)
(1292.95 13932.6 -1691.49 38887.8 -2303.98 -1000.79)
(-2338.65 6663.23 -1265.71 42519.4 -2562.7 -1000.78)
(-3264.93 -1409.81 -801.464 43445.8 -2743.55 -1000.74)
(-1374.26 -9312.76 -312.874 41555.1 -2841.05 -1000.73)
(3105.31 -16092.5 185.227 37075.4 -2852.22 -1000.79)
(9633.64 -20931.2 677.698 30547.2 -2776.72 -1000.76)
(17423.3 -23245.4 1149.61 22757.7 -2616.9 -1000.62)
(25534.3 -22755.7 1586.56 14646.4 -2377.52 -1000.78)
(32989 -19521.4 1975.31 7191.88 -2065.9 -1000.69)
(38887.8 -13932.6 2303.98 1292.95 -1691.49 -1000.79)
(42519.4 -6663.23 2562.7 -2338.65 -1265.71 -1000.78)
(43445.8 1409.81 2743.55 -3264.93 -801.464 -1000.74)
(41555.1 9312.76 2841.05 -1374.26 -312.874 -1000.73)
(37075.4 16092.5 2852.22 3105.31 185.227 -1000.79)
(30547.2 20931.2 2776.72 9633.64 677.698 -1000.76)
(22757.7 23245.4 2616.9 17423.3 1149.61 -1000.62)
(14646.4 22755.7 2377.52 25534.3 1586.56 -1000.78)
(7191.88 19521.4 2065.9 32989 1975.31 -1000.69)
(1292.95 13932.6 1691.49 38887.8 2303.98 -1000.78)
(-2338.65 6663.23 1265.71 42519.4 2562.7 -1000.78)
(-3264.94 -1409.81 801.464 43445.8 2743.55 -1000.74)
(-27309.7 -16982.5 11715.5 1900.33 -34056 -9358.67)
(-20620.6 -20953.6 17451.3 -4788.89 -31504.2 -9358.86)
(-12976.6 -22397.3 22656.9 -12432.7 -27995.2 -9358.69)
(-5299.92 -21139.6 27174 -20109.6 -23635.6 -9358.77)
(1483.55 -17332.1 30865.3 -26893.2 -18557.8 -9358.92)
(6556 -11434.1 33619 -31965.3 -12916.1 -9358.67)
(9304.94 -4157.02 35351.1 -34714.6 -6882.01 -9358.86)
(9399.58 3621.45 36009.1 -34808.9 -638.81 -9358.78)
(6827.92 10963.2 35573 -32237.2 5623.83 -9358.68)
(1900.33 16982.5 34056 -27309.7 11715.5 -9358.67)
(-4788.89 20953.6 31504.2 -20620.6 17451.3 -9358.86)
(-12432.7 22397.3 27995.2 -12976.6 22656.9 -9358.69)
(-20109.6 21139.6 23635.6 -5299.93 27174 -9358.78)
(-26893.2 17332.1 18557.8 1483.55 30865.3 -9358.92)
(-31965.3 11434.1 12916.1 6556 33619 -9358.67)
(-34714.6 4157.02 6882.01 9304.94 35351.1 -9358.86)
(-34808.9 -3621.45 638.81 9399.58 36009.1 -9358.78)
(-32237.2 -10963.2 -5623.83 6827.92 35573 -9358.68)
(-27309.7 -16982.5 -11715.5 1900.33 34056 -9358.67)
(-20620.6 -20953.6 -17451.3 -4788.89 31504.2 -9358.86)
(-12976.6 -22397.3 -22656.9 -12432.7 27995.2 -9358.69)
(-5299.93 -21139.6 -27174 -20109.6 23635.6 -9358.78)
(1483.55 -17332.1 -30865.3 -26893.2 18557.8 -9358.92)
(6556 -11434.1 -33619 -31965.3 12916.1 -9358.67)
(9304.94 -4157.02 -35351.1 -34714.6 6882.01 -9358.86)
(9399.58 3621.45 -36009.1 -34808.9 638.81 -9358.78)
(6827.92 10963.2 -35573 -32237.2 -5623.83 -9358.68)
(1900.33 16982.5 -34056 -27309.7 -11715.5 -9358.67)
(-4788.89 20953.6 -31504.2 -20620.6 -17451.3 -9358.86)
(-12432.7 22397.3 -27995.2 -12976.6 -22656.9 -9358.69)
(-20109.6 21139.6 -23635.6 -5299.93 -27174 -9358.78)
(-26893.2 17332.1 -18557.8 1483.55 -30865.3 -9358.93)
(-31965.3 11434.1 -12916.1 6556.01 -33619 -9358.67)
(-34714.6 4157.02 -6882.01 9304.94 -35351.1 -9358.86)
(-34808.9 -3621.45 -638.81 9399.58 -36009.1 -9358.78)
(-32237.2 -10963.2 5623.83 6827.92 -35573 -9358.68)
(9511.42 -3887.41 -982.043 31065.5 20795.9 39013.8)
(11491.1 -7338.96 -4578.31 29086.2 20309.4 39013.9)
(14531.5 -9905.3 -8035.46 26045.4 19205.9 39013.7)
(18266.8 -11277 -11248.5 22310.6 17518.7 39013.9)
(22245.4 -11288.3 -14119.7 18331.5 15299.3 39014)
(25988.3 -9938.33 -16561.8 14588.7 12615 39013.7)
(29043.9 -7389.52 -18500.8 11533.6 9547.47 39014)
(31042.9 -3949.43 -19877.6 9533.88 6189.76 39013.6)
(31745.3 -32.9483 -20650.5 8831.88 2644 39014)
(31065.5 3887.41 -20795.9 9511.42 -982.043 39013.8)
(29086.2 7338.96 -20309.4 11491.1 -4578.31 39013.9)
(26045.4 9905.3 -19205.9 14531.5 -8035.46 39013.7)
(22310.6 11277 -17518.7 18266.8 -11248.5 39013.9)
(18331.5 11288.3 -15299.3 22245.4 -14119.7 39014)
(14588.7 9938.33 -12615 25988.3 -16561.8 39013.7)
(11533.6 7389.52 -9547.47 29043.9 -18500.8 39014)
(9533.88 3949.43 -6189.76 31042.9 -19877.6 39013.6)
(8831.88 32.9484 -2644 31745.3 -20650.5 39014)
(9511.42 -3887.41 982.043 31065.5 -20795.9 39013.8)
(11491.1 -7338.96 4578.31 29086.2 -20309.4 39013.9)
(14531.5 -9905.3 8035.46 26045.4 -19205.9 39013.7)
(18266.8 -11277 11248.5 22310.6 -17518.7 39013.9)
(22245.4 -11288.3 14119.7 18331.5 -15299.3 39014)
(25988.3 -9938.33 16561.8 14588.7 -12615 39013.7)
(29043.9 -7389.52 18500.8 11533.6 -9547.47 39014)
(31042.9 -3949.43 19877.6 9533.88 -6189.76 39013.6)
(31745.3 -32.9485 20650.5 8831.88 -2644 39014)
(31065.5 3887.41 20795.9 9511.42 982.043 39013.8)
(29086.2 7338.96 20309.4 11491.1 4578.31 39013.9)
(26045.4 9905.3 19205.9 14531.5 8035.46 39013.7)
(22310.6 11277 17518.7 18266.8 11248.5 39013.9)
(18331.5 11288.3 15299.3 22245.4 14119.7 39014)
(14588.7 9938.33 12615 25988.3 16561.8 39013.7)
(11533.6 7389.52 9547.47 29043.9 18500.8 39014)
(9533.88 3949.43 6189.76 31042.9 19877.6 39013.6)
(8831.88 32.9486 2644 31745.3 20650.5 39014)
(-262.281 -10724.1 122.14 39208.7 2703.44 -1026.26)
(4595.44 -16827.3 -349.176 34350.3 2683.58 -1026.6)
(11248.3 -20900.9 -809.848 27698.2 2582.13 -1026.27)
(18892.7 -22453.5 -1245.9 20053.3 2402.24 -1026.53)
(26607.2 -21297.9 -1644.22 12338.9 2149.5 -1026.43)
(33461.5 -17573.5 -1992.36 5485.02 1831.26 -1026.29)
(38628.1 -11729.4 -2280.14 317.819 1457.48 -1026.54)
(41484.8 -4470.57 -2498.63 -2538.46 1039.41 -1026.34)
(41686.3 3327.49 -2641.16 -2740.09 589.731 -1026.41)
(39208.7 10724.1 -2703.44 -262.281 122.14 -1026.26)
(34350.3 16827.3 -2683.58 4595.45 -349.176 -1026.6)
(27698.2 20900.9 -2582.13 11248.3 -809.848 -1026.26)
(20053.3 22453.5 -2402.24 18892.7 -1245.9 -1026.54)
(12338.9 21297.9 -2149.5 26607.2 -1644.22 -1026.43)
(5485.02 17573.5 -1831.26 33461.5 -1992.36 -1026.29)
(317.819 11729.4 -1457.48 38628.1 -2280.14 -1026.54)
(-2538.46 4470.57 -1039.41 41484.8 -2498.63 -1026.34)
(-2740.09 -3327.49 -589.731 41686.3 -2641.16 -1026.41)
(-262.281 -10724.1 -122.14 39208.7 -2703.44 -1026.26)
(4595.45 -16827.3 349.176 34350.3 -2683.58 -1026.6)
(11248.3 -20900.9 809.848 27698.2 -2582.13 -1026.26)
(18892.7 -22453.5 1245.9 20053.3 -2402.24 -1026.54)
(26607.2 -21297.9 1644.22 12338.9 -2149.5 -1026.43)
(33461.5 -17573.5 1992.36 5485.02 -1831.26 -1026.29)
(38628.1 -11729.4 2280.14 317.819 -1457.48 -1026.54)
(41484.8 -4470.57 2498.63 -2538.46 -1039.41 -1026.34)
(41686.3 3327.49 2641.16 -2740.09 -589.731 -1026.41)
(39208.7 10724.1 2703.44 -262.281 -122.14 -1026.27)
(34350.3 16827.3 2683.58 4595.45 349.176 -1026.6)
(27698.2 20900.9 2582.13 11248.3 809.848 -1026.26)
(20053.3 22453.5 2402.24 18892.7 1245.9 -1026.54)
(12338.9 21297.9 2149.5 26607.2 1644.22 -1026.43)
(5485.02 17573.5 1831.26 33461.5 1992.36 -1026.29)
(317.819 11729.4 1457.48 38628.1 2280.14 -1026.54)
(-2538.46 4470.57 1039.41 41484.8 2498.63 -1026.34)
(-2740.1 -3327.49 589.731 41686.3 2641.16 -1026.41)
(-25673 -21223 14955.1 -4300.18 -35004.7 -10386.4)
(-17769.6 -23598.1 20806.5 -12203.2 -31876 -10386)
(-9530.8 -23126.9 26025.5 -20442.1 -27778.7 -10386.2)
(-1949.99 -19866.2 30453.9 -28023.1 -22837.4 -10386.2)
(4058.59 -14209.4 33956.9 -34031.2 -17202.2 -10386.1)
(7769.77 -6838.68 36428.2 -37742.7 -11044.3 -10386.2)
(8736.5 1356.83 37792.6 -38709.2 -4550.85 -10386.2)
(6841.57 9388.69 38008.7 -36814.7 2080.89 -10386.2)
(2314.32 16288.2 37069.9 -32287 8649.46 -10386.1)
(-4300.19 21222.9 35004.7 -25673 14955.1 -10386.4)
(-12203.2 23598.1 31876 -17769.6 20806.5 -10386)
(-20442.1 23126.9 27778.7 -9530.76 26025.6 -10386.2)
(-28023.1 19866.2 22837.4 -1949.99 30453.9 -10386.2)
(-34031.2 14209.4 17202.2 4058.58 33956.9 -10386.1)
(-37742.7 6838.68 11044.3 7769.77 36428.2 -10386.2)
(-38709.2 -1356.83 4550.85 8736.5 37792.6 -10386.2)
(-36814.7 -9388.69 -2080.89 6841.57 38008.7 -10386.2)
(-32286.9 -16288.2 -8649.46 2314.32 37069.9 -10386.1)
(-25673 -21222.9 -14955.1 -4300.19 35004.7 -10386.4)
(-17769.6 -23598.1 -20806.5 -12203.2 31876 -10386)
(-9530.76 -23126.9 -26025.6 -20442.1 27778.7 -10386.2)
(-1949.99 -19866.2 -30453.9 -28023.1 22837.4 -10386.2)
(4058.58 -14209.4 -33956.9 -34031.2 17202.2 -10386.1)
(7769.77 -6838.68 -36428.2 -37742.7 11044.3 -10386.2)
(8736.5 1356.83 -37792.6 -38709.2 4550.85 -10386.2)
(6841.57 9388.69 -38008.7 -36814.7 -2080.89 -10386.2)
(2314.32 16288.2 -37069.9 -32286.9 -8649.46 -10386.1)
(-4300.19 21223 -35004.7 -25673 -14955.1 -10386.4)
(-12203.2 23598.1 -31876 -17769.6 -20806.5 -10386)
(-20442.1 23126.9 -27778.7 -9530.76 -26025.6 -10386.2)
(-28023.1 19866.2 -22837.4 -1949.99 -30453.9 -10386.2)
(-34031.2 14209.4 -17202.2 4058.59 -33956.9 -10386.1)
(-37742.7 6838.68 -11044.3 7769.77 -36428.2 -10386.2)
(-38709.2 -1356.83 -4550.85 8736.5 -37792.6 -10386.2)
(-36814.7 -9388.69 2080.89 6841.57 -38008.7 -10386.2)
(-32286.9 -16288.2 8649.46 2314.33 -37069.9 -10386.1)
(9273.17 -3405.29 -108.233 28840.8 20191.7 39637.1)
(11028 -6546.18 -3612.84 27086.3 19866.2 39637.3)
(13751 -8897.47 -7007.65 24362.9 18937 39637.3)
(17114.3 -10175.7 -10189.6 21000.1 17432.5 39637.3)
(20711.7 -10226.5 -13061.9 17402.4 15398.2 39637.2)
(24109.6 -9043.9 -15537.4 14004.5 12896.1 39637.1)
(26898 -6770.39 -17540.7 11216.1 10002.2 39637.3)
(28740.7 -3680.35 -19011 9373.24 6804.31 39637.1)
(29415.7 -146.349 -19903.8 8698.72 3399.68 39637.3)
(28840.8 3405.29 -20191.7 9273.17 -108.233 39637.1)
(27086.3 6546.18 -19866.2 11028 -3612.84 39637.3)
(24362.9 8897.47 -18937 13751 -7007.65 39637.3)
(21000.1 10175.7 -17432.5 17114.3 -10189.6 39637.3)
(17402.4 10226.5 -15398.2 20711.7 -13061.9 39637.2)
(14004.5 9043.9 -12896.1 24109.6 -15537.4 39637.1)
(11216.1 6770.39 -10002.2 26898 -17540.7 39637.3)
(9373.24 3680.35 -6804.32 28740.7 -19011 39637.1)
(8698.72 146.349 -3399.68 29415.7 -19903.8 39637.3)
(9273.17 -3405.29 108.233 28840.8 -20191.7 39637.1)
(11028 -6546.18 3612.84 27086.3 -19866.2 39637.3)
(13751 -8897.47 7007.65 24362.9 -18937 39637.3)
(17114.3 -10175.7 10189.6 21000.1 -17432.5 39637.3)
(20711.7 -10226.5 13061.9 17402.4 -15398.2 39637.2)