/*--------------------------------*- C++ -*----------------------------------*\
| =========                 |                                                 |
| \\      /  F ield         | OpenFOAM: The Open Source CFD Toolbox           |
|  \\    /   O peration     | Version:  2312                                  |
|   \\  /    A nd           | Website:  www.openfoam.com                      |
|    \\/     M anipulation  |                                                 |
\*---------------------------------------------------------------------------*/
FoamFile
{
    version     2.0;
    format      ascii;
    arch        "LSB;label=32;scalar=64";
    class       volScalarField;
    location    "0.8";
    object      sigmaEq;
}
// * * * * * * * * * * * * * * * * * * * * * * * * * * * * * * * * * * * * * //

dimensions      [1 -1 -2 0 0 0 0];

internalField   nonuniform List<scalar> 
1620
(
50054.3
46909.2
44482.9
43660.9
44429.6
45779.9
46877.4
47495.4
47768.1
47898.7
48031.1
48240.1
48580.1
49181.2
50369.3
52527.1
54544.9
53339.9
50054.3
46909.2
44482.9
43660.9
44429.6
45779.9
46877.4
47495.4
47768.1
47898.7
48031.1
48240.1
48580.1
49181.2
50369.3
52527.1
54544.9
53339.9
46988.2
45782.7
45393.9
46208.2
47873.8
49539.6
50561.1
50831.8
50574.6
50059.5
49481.8
48956.5
48548.5
48298.8
48230.8
48317.5
48366.4
48021.8
46988.2
45782.7
45393.9
46208.2
47873.8
49539.6
50561.1
50831.8
50574.6
50059.5
49481.8
48956.5
48548.5
48298.8
48230.8
48317.5
48366.4
48021.8
49741.7
49804.8
49788.2
50249.2
51195.9
52335.7
53269.1
53632.3
53256.2
52249.6
50929.1
49626.1
48516.7
47635.4
47050.1
46992.7
47679.9
48894.4
49741.7
49804.8
49788.2
50249.2
51195.9
52335.7
53269.1
53632.3
53256.2
52249.6
50929.1
49626.1
48516.7
47635.4
47050.1
46992.7
47679.9
48894.4
49272.6
46119.7
44066
43487.4
44540.6
46136.6
47395.8
48140.6
48515.3
48697
48800.2
48879.6
48986.2
49253.6
49996
51797.2
53944.7
52636.8
49272.6
46119.7
44066
43487.4
44540.6
46136.6
47395.8
48140.6
48515.3
48697
48800.2
48879.6
48986.2
49253.6
49996
51797.2
53944.7
52636.8
45730
45638
47049.3
49518.1
52020.8
53513.7
53823.1
53282.3
52282.8
51133.6
50040.6
49104.5
48327.9
47618.9
46794.3
45812
45461.8
46220.8
45730
45638
47049.3
49518.1
52020.8
53513.7
53823.1
53282.3
52282.8
51133.6
50040.6
49104.5
48327.9
47618.9
46794.3
45812
45461.8
46220.8
55046.1
55634.4
55651.9
55470.7
55369.1
55729.2
56460.7
57057.1
56978.3
55968.1
54160.2
51972.8
49845.9
48034.6
46726.9
46398.2
47801.3
51509.7
55046.1
55634.4
55651.9
55470.7
55369.1
55729.2
56460.7
57057.1
56978.3
55968.1
54160.2
51972.8
49845.9
48034.6
46726.9
46398.2
47801.3
51509.7
47033.7
45556.2
43810.3
43529.8
45173.7
47312.3
48938.3
49922.5
50418.5
50577.4
50476.1
50138.7
49622.4
49079.9
48688.2
48913.4
49610.2
44608.9
47033.7
45556.2
43810.3
43529.8
45173.7
47312.3
48938.3
49922.5
50418.5
50577.4
50476.1
50138.7
49622.4
49079.9
48688.2
48913.4
49610.2
44608.9
43622.4
45354.1
48104.4
52086.6
55552.1
57037.2
56788.3
55555
53889.8
52128.8
50454.8
48917.1
47454.4
45925.7
44104.7
41883.5
40345.8
41499
43622.4
45354.1
48104.4
52086.6
55552.1
57037.2
56788.3
55555
53889.8
52128.8
50454.8
48917.1
47454.4
45925.7
44104.7
41883.5
40345.8
41499
48386.1
55772.8
58495.4
59264.8
58740.1
58497.3
59058.8
59895.5
60213
59448.6
57382.2
54168.5
50494.3
47454.1
45931.1
46548.2
49338
47317.6
48386.1
55772.8
58495.4
59264.8
58740.1
58497.3
59058.8
59895.5
60213
59448.6
57382.2
54168.5
50494.3
47454.1
45931.1
46548.2
49338
47317.6
45165.2
43393.4
41794.8
42046.9
44428.6
47028.3
48973.6
50267.8
51034.7
51354.4
51232.7
50631.8
49610.1
48496.6
47819.8
48242.6
49335.9
47655.8
45165.2
43393.4
41794.8
42046.9
44428.6
47028.3
48973.6
50267.8
51034.7
51354.4
51232.7
50631.8
49610.1
48496.6
47819.8
48242.6
49335.9
47655.8
44891.7
44368.9
45279.9
48432.6
52217.3
54396.5
54806.8
54118.6
52846.4
51273.1
49504.6
47515.6
45317.1
43284.2
41997.2
41462.6
41794.4
43919.4
44891.7
44368.9
45279.9
48432.6
52217.3
54396.5
54806.8
54118.6
52846.4
51273.1
49504.6
47515.6
45317.1
43284.2
41997.2
41462.6
41794.4
43919.4
50751.7
51842.2
54573.1
57256.6
58730.2
59720.8
60992.7
62256
62824.1
62161.2
59843.6
55565.6
50103.2
46100.3
45494.2
48059.6
53287.5
54153.4
50751.7
51842.2
54573.1
57256.6
58730.2
59720.8
60992.7
62256
62824.1
62161.2
59843.6
55565.6
50103.2
46100.3
45494.2
48059.6
53287.5
54153.4
45032.9
42156.4
39192.9
39200.5
42077.3
45060.8
47258.5
48793.1
49810.4
50373.6
50467
50020.3
49117.7
48357
48502.6
49192.4
48891.4
47181.4
45032.9
42156.4
39192.9
39200.5
42077.3
45060.8
47258.5
48793.1
49810.4
50373.6
50467
50020.3
49117.7
48357
48502.6
49192.4
48891.4
47181.4
45061.9
44313.9
43004.2
43735.7
46991.5
49826.9
51130.4
51257.9
50598.6
49337.4
47487.2
44978.5
42123.1
40405.5
40957.1
42401.2
43655.5
44704.1
45061.9
44313.9
43004.2
43735.7
46991.5
49826.9
51130.4
51257.9
50598.6
49337.4
47487.2
44978.5
42123.1
40405.5
40957.1
42401.2
43655.5
44704.1
52670.8
52430.9
53714.5
55997.2
58589.4
61010.7
63080
64525.7
64949.6
64001.1
61180.3
55838.3
48898.6
44645.8
45063.7
47683.8
51252.9
53539.9
52670.8
52430.9
53714.5
55997.2
58589.4
61010.7
63080
64525.7
64949.6
64001.1
61180.3
55838.3
48898.6
44645.8
45063.7
47683.8
51252.9
53539.9
44406.7
41829.8
38413.1
37098.2
39397.4
42437.5
44788.5
46458.5
47631.8
48414.5
48849.9
48966.4
48967
49322.8
49926.6
49730.8
48362.3
46441.6
44406.7
41829.8
38413.1
37098.2
39397.4
42437.5
44788.5
46458.5
47631.8
48414.5
48849.9
48966.4
48967
49322.8
49926.6
49730.8
48362.3
46441.6
44950.6
44241.1
42391.6
41138.3
43122.1
46133.1
48058.2
48772.9
48513.5
47377.6
45317.8
42308.4
39156.9
38363.2
40495
42814.5
44214.8
44884.3
44950.6
44241.1
42391.6
41138.3
43122.1
46133.1
48058.2
48772.9
48513.5
47377.6
45317.8
42308.4
39156.9
38363.2
40495
42814.5
44214.8
44884.3
53649.1
54486.5
55737.2
57912.4
60967.3
63969.2
65958.2
66819.7
66517.9
64840.3
61241.8
55007.8
47413.9
43515.9
44395.1
46649.5
49206
51953.4
53649.1
54486.5
55737.2
57912.4
60967.3
63969.2
65958.2
66819.7
66517.9
64840.3
61241.8
55007.8
47413.9
43515.9
44395.1
46649.5
49206
51953.4
43951.3
41765.5
38842.4
36618
37461.2
39945.2
42223.3
43940
45228.5
46249.4
47141.5
48050.1
49136.4
50259.7
50550.5
49511
47745.5
45849.5
43951.3
41765.5
38842.4
36618
37461.2
39945.2
42223.3
43940
45228.5
46249.4
47141.5
48050.1
49136.4
50259.7
50550.5
49511
47745.5
45849.5
44595.3
43960.8
42334
40425.2
40973.4
43510.4
45669.7
46723.3
46669.3
45524.7
43251
40013.7
37192.6
37488
40332.5
42807
44152.4
44653.9
44595.3
43960.8
42334
40425.2
40973.4
43510.4
45669.7
46723.3
46669.3
45524.7
43251
40013.7
37192.6
37488
40332.5
42807
44152.4
44653.9
53482.1
56152.9
58631.8
61398.2
64616.9
67337.9
68523.8
68320.7
66982
64379.3
59985
53278.7
45984.7
42818.4
43828.1
45872.9
48029
50576.3
53482.1
56152.9
58631.8
61398.2
64616.9
67337.9
68523.8
68320.7
66982
64379.3
59985
53278.7
45984.7
42818.4
43828.1
45872.9
48029
50576.3
43588.9
41740.8
39364.3
37006.3
36567.5
38076.8
40001.8
41658.7
43041.8
44313
45642.7
47152.1
48769.5
49926.7
49845.2
48624.7
46975.6
45277.9
43588.9
41740.8
39364.3
37006.3
36567.5
38076.8
40001.8
41658.7
43041.8
44313
45642.7
47152.1
48769.5
49926.7
49845.2
48624.7
46975.6
45277.9
44002
43411.1
42085.1
40272
39857.6
41494.5
43425.8
44513.7
44482.6
43284.3
40965.7
38006.9
36174.1
37420.8
40299.7
42541.6
43728.1
44125.4
44002
43411.1
42085.1
40272
39857.6
41494.5
43425.8
44513.7
44482.6
43284.3
40965.7
38006.9
36174.1
37420.8
40299.7
42541.6
43728.1
44125.4
52606.4
56348.7
60294.2
63940.5
67057.9
69046.7
69316.9
68159.5
65939.5
62589.4
57691.7
51109.9
44900.8
42621
43607.5
45453.5
47380.8
49606.7
52606.4
56348.7
60294.2
63940.5
67057.9
69046.7
69316.9
68159.5
65939.5
62589.4
57691.7
51109.9
44900.8
42621
43607.5
45453.5
47380.8
49606.7
43149.4
41560.3
39568.4
37405.4
36297.2
36865.6
38276.8
39782.7
41218.5
42672.7
44259.4
45994.2
47626.3
48560.3
48384.1
47378
46034.5
44602.2
43149.4
41560.3
39568.4
37405.4
36297.2
36865.6
38276.8
39782.7
41218.5
42672.7
44259.4
45994.2
47626.3
48560.3
48384.1
47378
46034.5
44602.2
43166.2
42571.5
41426.6
39869.1
39022.6
39739.7
41088.3
41923.2
41778.3
40574.8
38506.9
36372.7
35837.9
37648
40188.4
42049.2
43032.6
43338.3
43166.2
42571.5
41426.6
39869.1
39022.6
39739.7
41088.3
41923.2
41778.3
40574.8
38506.9
36372.7
35837.9
37648
40188.4
42049.2
43032.6
43338.3
51681.3
55465.6
59992.5
64152.3
67077.1
68390.5
68001.4
66265.7
63542.4
59826.1
54905.7
49109.6
44442.3
42972.6
43824.8
45398.4
47089.1
49014.7
51681.3
55465.6
59992.5
64152.3
67077.1
68390.5
68001.4
66265.7
63542.4
59826.1
54905.7
49109.6
44442.3
42972.6
43824.8
45398.4
47089.1
49014.7
42464.9
41076.6
39379.1
37522.2
36249.2
36188.1
37074.5
38346.2
39744.5
41253.5
42903.1
44615.4
46075.7
46827.4
46703.8
45953.4
44891.8
43706.9
42464.9
41076.6
39379.1
37522.2
36249.2
36188.1
37074.5
38346.2
39744.5
41253.5
42903.1
44615.4
46075.7
46827.4
46703.8
45953.4
44891.8
43706.9
42050.7
41414.3
40343.5
38985
37991.4
37988.4
38608
39010.9
38714.4
37667.4
36224.7
35278.8
35851.5
37769.9
39834.1
41301.2
42075.8
42283.7
42050.7
41414.3
40343.5
38985
37991.4
37988.4
38608
39010.9
38714.4
37667.4
36224.7
35278.8
35851.5
37769.9
39834.1
41301.2
42075.8
42283.7
50959.3
54254
58414
62348.4
64927.4
65773.2
65038.7
63100.1
60280.2
56663.7
52307.6
47846.7
44740
43843.7
44470.1
45686.7
47079.1
48706.7
50959.3
54254
58414
62348.4
64927.4
65773.2
65038.7
63100.1
60280.2
56663.7
52307.6
47846.7
44740
43843.7
44470.1
45686.7
47079.1
48706.7
41414.6
40235.6
38866.7
37427.9
36337.7
36020
36488.3
37454.3
38688.9
40113
41680.5
43235
44456.6
45038.4
44937
44340.9
43468.9
42474.5
41414.6
40235.6
38866.7
37427.9
36337.7
36020
36488.3
37454.3
38688.9
40113
41680.5
43235
44456.6
45038.4
44937
44340.9
43468.9
42474.5
40606.3
39921.3
38899.6
37699.3
36688.5
36212.3
36174
36136.6
35783.2
35138.8
34591
34744.5
35884.7
37577.5
39154.5
40257.1
40824.8
40918.5
40606.3
39921.3
38899.6
37699.3
36688.5
36212.3
36174
36136.6
35783.2
35138.8
34591
34744.5
35884.7
37577.5
39154.5
40257.1
40824.8
40918.5
50425.1
53045.8
56326.7
59453.4
61469.3
61987.5
61159.9
59331.3
56813.6
53800.4
50533
47583.5
45691.5
45099.2
45437.6
46245.4
47287
48596.9
50425.1
53045.8
56326.7
59453.4
61469.3
61987.5
61159.9
59331.3
56813.6
53800.4
50533
47583.5
45691.5
45099.2
45437.6
46245.4
47287
48596.9
40030.9
39169.4
38264.9
37380.7
36702.1
36436.6
36660.7
37301.3
38255.8
39453.2
40784.9
42029.8
42907.3
43241.7
43052.6
42486.1
41713.6
40874
40030.9
39169.4
38264.9
37380.7
36702.1
36436.6
36660.7
37301.3
38255.8
39453.2
40784.9
42029.8
42907.3
43241.7
43052.6
42486.1
41713.6
40874
38807.1
38140.8
37257.5
36283
35395.6
34747.1
34348.8
34078.8
33839.4
33700.3
33890.2
34603.2
35761.9
37047.3
38145.6
38886.5
39225.5
39184.7
38807.1
38140.8
37257.5
36283
35395.6
34747.1
34348.8
34078.8
33839.4
33700.3
33890.2
34603.2
35761.9
37047.3
38145.6
38886.5
39225.5
39184.7
50036.8
51938.7
54207.9
56332.1
57698.1
57991.5
57276.1
55825.9
53949.1
51887
49857.5
48143.5
47006.4
46519.2
46566.7
46982.8
47669.5
48647.5
50036.8
51938.7
54207.9
56332.1
57698.1
57991.5
57276.1
55825.8
53949.1
51887
49857.5
48143.5
47006.4
46519.2
46566.7
46982.8
47669.5
48647.5
38670.6
38275.2
37943.9
37658.6
37450.3
37379
37501
37859.3
38484.1
39345.2
40289.5
41075
41499.4
41493.6
41115.5
40499.1
39806.3
39175.6
38670.6
38275.2
37943.9
37658.6
37450.3
37379
37501
37859.3
38484.1
39345.2
40289.5
41075
41499.4
41493.6
41115.5
40499.1
39806.3
39175.6
36753.1
36256.7
35682.3
35084.5
34518.2
34035.4
33671.2
33440.4
33366.8
33515
33953.6
34661.7
35499.2
36284.9
36881.3
37219.2
37287.8
37115.8
36753.1
36256.7
35682.3
35084.5
34518.2
34035.4
33671.2
33440.4
33366.8
33515
33953.6
34661.7
35499.2
36284.9
36881.3
37219.1
37287.8
37115.8
49901.1
51140.5
52535.2
53805.3
54625.2
54790.5
54310.9
53380.1
52249.8
51100.2
50022.6
49085.7
48366.1
47923.8
47775.7
47904.3
48292
48948.3
49901.1
51140.5
52535.2
53805.3
54625.2
54790.5
54310.9
53380.1
52249.8
51100.2
50022.6
49085.7
48366.1
47923.8
47775.7
47904.3
48292
48948.3
37979.7
38050.8
38189.4
38327.7
38425.6
38477.9
38526.5
38668.8
39003.8
39512.3
40014.9
40300.7
40267.6
39937.3
39411.3
38832.1
38348.1
38059.2
37979.7
38050.8
38189.4
38327.7
38425.6
38477.9
38526.5
38668.8
39003.8
39512.3
40014.9
40300.7
40267.6
39937.3
39411.3
38832.1
38348.1
38059.2
34891.5
34672.5
34503.9
34371.6
34255.5
34142.2
34031.2
33949.1
33957.2
34123.7
34461
34894.4
35302.5
35582.4
35684.7
35613.6
35414.2
35152.2
34891.5
34672.5
34503.9
34371.6
34255.5
34142.2
34031.2
33949.1
33957.2
34123.7
34461
34894.4
35302.5
35582.4
35684.7
35613.6
35414.2
35152.2
50490.7
51209.3
51970.9
52631.6
53035.9
53085.3
52797.2
52296.6
51730.5
51183
50667.7
50183.6
49758.6
49443.5
49282.9
49301.5
49509.4
49909.6
50490.7
51209.3
51970.9
52631.6
53035.9
53085.3
52797.2
52296.6
51730.5
51183
50667.7
50183.6
49758.6
49443.5
49282.9
49301.5
49509.5
49909.6
39681.8
40029.3
40352.9
40567.6
40628.3
40557.5
40436
40356.4
40372.1
40469.1
40562.3
40537.8
40334.7
39992.7
39625.9
39360.6
39281.9
39405
39681.8
40029.3
40352.9
40567.6
40628.3
40557.5
40436
40356.4
40372.1
40469.1
40562.3
40537.8
40334.7
39992.7
39625.9
39360.6
39281.9
39405
33855.9
33759.1
33799.8
33954.3
34183
34441
34694.2
34923.6
35120.6
35280.7
35400.4
35471.3
35469.5
35361.4
35129.3
34795.5
34422.8
34088.3
33855.9
33759.1
33799.8
33954.3
34183
34441
34694.2
34923.6
35120.6
35280.7
35400.4
35471.3
35469.5
35361.4
35129.3
34795.5
34422.8
34088.3
51891.2
52276.3
52652.6
52930
53025.7
52915.9
52647.9
52300.7
51936.5
51587.4
51274.5
51023.7
50865.2
50819.4
50884.8
51041.5
51266.8
51550.1
51891.2
52276.3
52652.6
52930
53025.7
52915.9
52647.9
52300.7
51936.5
51587.4
51274.5
51023.7
50865.2
50819.4
50884.8
51041.5
51266.8
51550.1
)
;

boundaryField
{
    fixed
    {
        type            calculated;
        value           nonuniform List<scalar> 
108
(
50097.2
47412.2
45074.1
44012.2
44484.9
45640
46655.3
47260.6
47551.7
47712.8
47883.6
48144
48561.9
49294.6
50713.5
53136
54906.8
53142.1
50097.2
47412.2
45074.1
44012.2
44484.9
45640
46655.3
47260.6
47551.7
47712.8
47883.6
48144
48561.9
49294.6
50713.5
53136
54906.8
53142.1
47128.8
46137.4
45557.8
45920
47113.3
48494.5
49479
49890.8
49856.9
49580.1
49222.1
48890.1
48660.4
48592.6
48692
48785.3
48529.7
47945.8
47128.8
46137.4
45557.8
45920
47113.3
48494.5
49479
49890.8
49856.9
49580.1
49222.1
48890.1
48660.4
48592.6
48692
48785.3
48529.7
47945.8
49767.5
49708.8
49333.2
49353.5
49931.5
50863.1
51792.7
52357.2
52334.4
51732.1
50761.5
49698.4
48726.5
47907.7
47314.7
47175.8
47757.1
48917.4
49767.5
49708.8
49333.2
49353.5
49931.5
50863.1
51792.7
52357.2
52334.4
51732.1
50761.5
49698.4
48726.5
47907.7
47314.7
47175.8
47757.1
48917.4
)
;
    }
    inside
    {
        type            calculated;
        value           nonuniform List<scalar> 
540
(
53210.3
52507.3
51718.1
51494
51798.9
52361.9
52866
53027.2
52678.4
51840.3
50721.9
49603.5
48689.4
48101.2
48020.6
48767.4
50538.3
52564.3
53210.3
52507.3
51718.1
51494
51798.9
52361.9
52866
53027.2
52678.4
51840.3
50721.9
49603.5
48689.4
48101.2
48020.6
48767.4
50538.3
52564.3
69828.4
62083.6
57393.6
55178.9
54562.6
55206.7
56596.4
58024.2
58778
58321.3
56541.1
53945.4
51408.3
49640.4
49186.5
51140.6
57822.7
69292.9
69828.4
62083.6
57393.6
55178.9
54562.6
55206.7
56596.4
58024.2
58778
58321.3
56541.1
53945.4
51408.3
49640.4
49186.5
51140.6
57822.7
69292.9
58533.9
63394.8
60312.2
58122.4
57248.5
58478.2
61551.4
65361.4
68407.8
69162.6
66621.9
61265.5
55393.7
51526
50943.6
55561.7
68095.7
61802.7
58533.9
63394.8
60312.2
58122.4
57248.5
58478.2
61551.4
65361.4
68407.8
69162.6
66621.9
61265.5
55393.7
51526
50943.6
55561.7
68095.7
61802.7
62425.4
57335.4
57399.1
58296.4
59670.7
63089
68921.2
75857.5
81529.3
83292
79382.8
70389.8
60173.6
53678
52750.1
58170.4
73143.9
77836.5
62425.4
57335.4
57399.1
58296.4
59670.7
63089
68921.2
75857.5
81529.3
83292
79382.8
70389.8
60173.6
53678
52750.1
58170.4
73143.9
77836.5
62971.4
58054.8
57677.5
59836.8
64077.3
71015.1
80232.8
89840.4
96706.3
97625.6
91153.7
78668.8
64863.7
55979.9
53650.2
55990
63013.7
68661.5
62971.4
58054.8
57677.5
59836.8
64077.3
71015.1
80232.8
89840.4
96706.3
97625.6
91153.7
78668.8
64863.7
55979.9
53650.2
55990
63013.7
68661.5
62180
61088.4
61696.7
65310.1
72495.3
82907.5
94602.1
104993
110743
109062
99584.2
84518.9
68589.6
57922.4
53776.6
53462.1
56055.8
60664.9
62180
61088.4
61696.7
65310.1
72495.3
82907.5
94602.1
104993
110743
109062
99584.2
84518.9
68589.6
57922.4
53776.6
53462.1
56055.8
60664.9
60175.8
63596
67525.8
73831.8
83657.8
95983.6
107976
116864
119862
115231
103509
87129.2
70468.6
58972.7
53681.6
52130.5
53047.9
56171.1
60175.8
63596
67525.8
73831.8
83657.8
95983.6
107976
116864
119862
115231
103509
87129.2
70468.6
58972.7
53681.6
52130.5
53047.9
56171.1
57961.8
63924.4
71831.6
81755.6
93624.5
106028
116361
122410
122421
115655
102965
86585.9
70519
59317.2
53726.3
51692.9
51878.1
53941.8
57961.8
63924.4
71831.6
81755.6
93624.5
106028
116361
122410
122421
115655
102965
86585.9
70519
59317.2
53726.3
51692.9
51878.1
53941.8
56510
62932.9
72936
85521.4
98587.1
110060
118070
121364
119227
111555
99157.8
84022.6
69686.6
59592.4
54184.6
51935.5
51683.7
53075.3
56510
62932.9
72936
85521.4
98587.1
110060
118070
121364
119227
111555
99157.8
84022.6
69686.6
59592.4
54184.6
51935.5
51683.7
53075.3
55998.5
61941
71873.7
84760.1
97562.6
107629
113620
115076
111989
104608
93655.1
80841.3
68943
60281.3
55196.7
52769
52163.9
53104.2
55998.5
61941
71873.7
84760.1
97562.6
107629
113620
115076
111989
104608
93655.1
80841.3
68943
60281.3
55196.7
52769
52163.9
53104.2
56323.6
61493.2
70077.4
81208.3
92185.9
100479
104970
105550
102551
96426.1
87820.1
77979.6
68708.1
61476
56726
54128.3
53225.9
53849.5
56323.6
61493.2
70077.4
81208.3
92185.9
100479
104970
105550
102551
96426.1
87820.1
77979.6
68708.1
61476
56726
54128.3
53225.9
53849.5
57513.4
61787.2
68500.6
76938.6
85263.1
91590.4
94931.4
95209.7
92884.6
88512.2
82573.3
75711.6
68865.1
62988.3
58674.4
56047.6
54979
55399.7
57513.4
61787.2
68500.6
76938.6
85263.1
91590.4
94931.4
95209.7
92884.6
88512.2
82573.3
75711.6
68865.1
62988.3
58674.4
56047.6
54979
55399.7
60044.4
63370.7
68214.4
74024.1
79709.9
84061.9
86304.1
86381.1
84783.1
82034.3
78382.8
73989.5
69248.3
64800.9
61255.3
58943.8
57947.5
58283.5
60044.4
63370.7
68214.4
74024.1
79709.9
84061.9
86304.1
86381.1
84783
82034.3
78382.8
73989.5
69248.3
64800.9
61255.3
58943.8
57947.5
58283.5
65640.4
68060.2
71255.4
74804.2
78064.6
80358.1
81292.2
80967.3
79811.4
78176.5
76132
73636
70825.1
68071.3
65798.5
64307.8
63750.1
64188.1
65640.4
68060.2
71255.4
74804.2
78064.6
80358.1
81292.2
80967.3
79811.4
78176.5
76132
73636
70825.1
68071.3
65798.5
64307.8
63750.1
64188.1
75231.1
76986.5
78980.6
80885.4
82242.5
82697.7
82214.1
81035.9
79478.2
77764.6
76034.7
74420.7
73094
72225.5
71908.7
72126.6
72792.6
73832.2
75231.1
76986.5
78980.6
80885.4
82242.5
82697.7
82214.1
81035.9
79478.2
77764.6
76034.7
74420.7
73094
72225.5
71908.7
72126.6
72792.6
73832.2
)
;
    }
    outside
    {
        type            calculated;
        value           nonuniform List<scalar> 
540
(
53312.8
49660.4
46656.6
44792.4
44431
45009.8
45803.7
46457.7
46920.2
47267.1
47596.1
47991.3
48543
49440.8
51160.2
54427.5
58150.7
57468.3
53312.8
49660.4
46656.6
44792.4
44431
45009.8
45803.7
46457.7
46920.2
47267.1
47596.1
47991.3
48543
49440.8
51160.2
54427.5
58150.7
57468.3
52221.2
48234.8
45451.6
43775.8
43682.4
44600.1
45704.8
46625.5
47327.4
47881.5
48357.7
48807.7
49320
50162.9
52083.6
56648.3
61979
58103.7
52221.2
48234.8
45451.6
43775.8
43682.4
44600.1
45704.8
46625.5
47327.4
47881.5
48357.7
48807.7
49320
50162.9
52083.6
56648.3
61979
58103.7
48349.9
47123.2
44501.3
42659.1
42723
44061.6
45642.1
47014.6
48120
49017.7
49748.1
50305.8
50746.7
51422.4
53347.2
59204.7
64041
47429.9
48349.9
47123.2
44501.3
42659.1
42723
44061.6
45642.1
47014.6
48120
49017.7
49748.1
50305.8
50746.7
51422.4
53347.2
59204.7
64041
47429.9
47319.1
45698.7
43211.3
41532.8
42027.8
43813.1
45796
47558.5
49041
50306.7
51390
52236.3
52842.6
53641
55925.4
62198.4
65873.6
52288.2
47319.1
45698.7
43211.3
41532.8
42027.8
43813.1
45796
47558.5
49041
50306.7
51390
52236.3
52842.6
53641
55925.4
62198.4
65873.6
52288.2
49187.7
45504.8
42225.9
40417.3
41113.4
43147.8
45433.3
47557.9
49455
51215.1
52935.3
54608.5
56198.3
57977.2
60562.3
63652.4
62722.1
55027.3
49187.7
45504.8
42225.9
40417.3
41113.4
43147.8
45433.3
47557.9
49455
51215.1
52935.3
54608.5
56198.3
57977.2
60562.3
63652.4
62722.1
55027.3
49703.6
46105.7
42607.3
40146.6
40275.1
42118
44494.6
46906.2
49259.2
51681.3
54376.7
57449.9
60724.7
63526.2
64643.3
63256.5
59476.4
54280.6
49703.6
46105.7
42607.3
40146.6
40275.1
42118
44494.6
46906.2
49259.2
51681.3
54376.7
57449.9
60724.7
63526.2
64643.3
63256.5
59476.4
54280.6
49806.5
46804
43698.3
40933.8
40175.3
41422
43605.5
46138.3
48894.5
52009.4
55703.3
59990.6
64210
66625.4
65537.8
61654.2
57166
53187.4
49806.5
46804
43698.3
40933.8
40175.3
41422
43605.5
46138.3
48894.5
52009.4
55703.3
59990.6
64210
66625.4
65537.8
61654.2
57166
53187.4
49727
47299.7
44695.4
42101.6
40791.2
41378.6
43211.3
45713
48714.8
52275.8
56457.8
60977.5
64720.4
65798.9
63430.2
59292.5
55399.2
52309.7
49727
47299.7
44695.4
42101.6
40791.2
41378.6
43211.3
45713
48714.8
52275.8
56457.8
60977.5
64720.4
65798.9
63430.2
59292.5
55399.1
52309.7
49484.5
47477.3
45301.6
43084.9
41687.2
41839.7
43316.5
45656.4
48636.7
52181.4
56148
60017.7
62599.7
62578.2
60101.5
56785.9
53866.6
51525
49484.5
47477.3
45301.6
43084.9
41687.2
41839.7
43316.5
45656.4
48636.7
52181.4
56148
60017.7
62599.7
62578.2
60101.5
56785.9
53866.6
51525
48996.2
47303.7
45488.9
43703.5
42516.4
42502.5
43667.2
45697.5
48347.1
51443.5
54723.5
57601.2
59127.4
58675.6
56747
54437.7
52389.6
50639.1
48996.2
47303.7
45488.9
43703.5
42516.4
42502.5
43667.2
45697.5
48347.1
51443.5
54723.5
57601.2
59127.4
58675.6
56747
54437.7
52389.6
50639.1
48094.3
46705.3
45263.7
43938.2
43088.5
43067.8
43939.3
45523.9
47616.7
50029.3
52467.6
54413.3
55271.2
54857.4
53605.6
52119.5
50716.7
49409.2
48094.3
46705.3
45263.7
43938.2
43088.5
43067.8
43939.3
45523.9
47616.7
50029.3
52467.6
54413.3
55271.2
54857.4
53605.6
52119.5
50716.7
49409.2
46569
45559.2
44570.1
43731.7
43235.5
43253.8
43839.8
44926.2
46398.4
48097.9
49746.4
50956.1
51425.6
51153.5
50401.4
49462.2
48500.3
47545.9
46569
45559.2
44570.1
43731.7
43235.5
43253.8
43839.8
44926.2
46398.4
48097.9
49746.4
50956.1
51425.6
51153.5
50401.4
49462.2
48500.3
47545.9
44306.1
43786.4
43318.4
42952.4
42758.3
42804.6
43139.4
43784.8
44715.7
45800.6
46785.9
47412.2
47565.5
47302.6
46770.6
46121.8
45468.3
44862.8
44306.1
43786.4
43318.4
42952.4
42758.3
42804.6
43139.4
43784.8
44715.7
45800.6
46785.9
47412.2
47565.5
47302.6
46770.6
46121.8
45468.3
44862.8
41648.1
41639.8
41649
41655
41661.2
41693.1
41807.8
42087.6
42570.5
43152.9
43613.8
43782.4
43636.1
43257.8
42768.1
42291.5
41929.1
41723.8
41648.1
41639.8
41649
41655
41661.2
41693.1
41807.8
42087.6
42570.5
43152.9
43613.8
43782.4
43636.1
43257.8
42768.1
42291.5
41929.1
41723.8
39817.8
40165
40484.6
40692.4
40745.1
40667.6
40541.8
40460.6
40477
40576.1
40671.4
40648.1
40445.4
40104.5
39741
39481
39408.6
39537.5
39817.8
40165
40484.6
40692.4
40745.1
40667.6
40541.8
40460.6
40477
40576.1
40671.4
40648.1
40445.4
40104.5
39741
39481
39408.6
39537.5
)
;
    }
}


// ************************************************************************* //
