/*--------------------------------*- C++ -*----------------------------------*\
| =========                 |                                                 |
| \\      /  F ield         | OpenFOAM: The Open Source CFD Toolbox           |
|  \\    /   O peration     | Version:  2312                                  |
|   \\  /    A nd           | Website:  www.openfoam.com                      |
|    \\/     M anipulation  |                                                 |
\*---------------------------------------------------------------------------*/
FoamFile
{
    version     2.0;
    format      ascii;
    arch        "LSB;label=32;scalar=64";
    class       volScalarField;
    location    "0.8";
    object      sigmaEq;
}
// * * * * * * * * * * * * * * * * * * * * * * * * * * * * * * * * * * * * * //

dimensions      [1 -1 -2 0 0 0 0];

internalField   nonuniform List<scalar> 
1620
(
53816.5
55851.2
56603.8
54601.3
51472.2
48865.2
47102.2
45993.4
46314.7
47002.1
46987.1
48126.2
49800
51928.8
53905
54524.9
53373.7
51729.4
50750.7
50525.4
50497.5
50029.5
49076.2
47936
46837.9
45918.9
46331.3
47144.5
47262.5
48194.7
49582.4
51438.4
53309.7
54085.9
53413.2
52860.7
50601.1
50309.1
49712.1
49044
48409
47909.5
47568.3
47338.3
47295.3
47577.5
47900.9
48266.1
48705.2
49298.2
50036.7
50820.5
51641.8
52117.2
48653.4
49281.8
49040.9
48648.8
48253.3
47921.5
47655.9
47418.9
47313.5
47515.4
47778.4
48098
48516.7
49095.8
49801.9
50500.3
51131.6
51636.5
49514.6
48495.7
47464.3
46846.7
46537.7
46387.9
46335.5
46418.8
46958.6
45921.4
45487.6
45410.4
45409.5
45431.6
45540.2
45905
46700.6
47737.8
48151.8
47765.4
47262.8
46942.3
46782.1
46706.3
46672.6
46709.4
47063.7
45881
45494.4
45469.4
45553.4
45705.2
46004.3
46657.3
47867.4
49275.2
52774.3
55599
56641.1
54281.1
50610.6
47383.1
44887.9
42979.7
43455.4
44229.8
44294.8
45833.1
47661.3
49711.6
51647.9
52602.9
51962.1
50517.7
49702
49761.4
49884.3
49374.6
48190
46626.6
44928.5
43246.3
43634.1
44528.5
44716.9
46032.5
47577.5
49298.3
51039.8
52116.5
51900.4
51478.7
55304.3
56261.5
52646.1
50147.2
48456.2
47282.8
46439.3
45703.5
45222.4
45720.3
46643.9
47409.4
48140.6
49115.3
50563.2
52851.1
56734.4
56690.1
50680.2
53202.9
51212.9
49566.1
48377.4
47498.5
46783
46015.6
45308
45426.1
46147.9
46909.5
47698.7
48682.8
50070.2
52268.2
55923.4
55631.9
49630.9
49037.5
48089.2
47304.7
46690.5
46106.9
45493.9
44941.9
45109.7
43715.8
43845
44484.3
45143.2
45676.2
46071.1
46408.8
46812.8
47424
48042.2
48129.7
47771.9
47309
46853
46371.6
45836.6
45300.3
45138.2
43471.5
43675.8
44485.2
45353.8
46084.3
46686.5
47338.9
48229.7
49219.8
49238.2
52091.8
53661.9
52218
49018.2
45529.1
42371.1
39795.6
40015.9
41964.3
41253.8
43129.4
45185
47100.9
48626.4
49316.8
48768.7
47442.2
46858.9
47440.1
48012
47764.3
46614.9
44817.6
42680.8
40440.2
40157.8
42535.6
41857.7
43504.2
45411.2
47086.7
48377
49056
48769.4
48151.7
55587.2
64623.1
56704.9
51676.4
48724.3
46771
45324.2
43937.1
42706.7
43244.2
44934.4
46371.5
47487.1
48798.2
50787.3
54531.6
61985.1
55445.5
49524.5
57595.3
53918.9
50684.2
48578
47095.3
45899.4
44557.3
42960.2
42717.1
43905.2
45473.6
46846.4
48210.5
50002.7
53442.2
60545.5
54508.4
48453.4
49547.6
49166.1
48108.5
47008.2
45903.2
44735.3
43484.3
42730.4
41122.9
42004.4
43522.7
44868.8
45941.8
46675.3
46971.4
46593.7
45896.6
46788.8
48413.6
48592.6
47910.9
47028.6
46075.7
45051.4
43915.1
42974.1
40620.6
41516.2
43372.5
45122.5
46465.9
47449.6
48206.1
48454.2
47908.5
45197.1
47733.5
49667.5
49385.7
47060.1
43767.7
40585.2
38195.5
38184.9
42051.3
39805.5
41080.1
43029
44865.6
46144.6
46464.7
45579.6
43984.1
43446.6
44515.8
45624.4
45778.5
44872
43200.8
41201.9
39196.8
38356
42372.3
40655.6
41608.3
43505.2
45227.3
46300.4
46504.5
45676.9
44515.7
50395.4
65694.8
58860.4
52748.8
49028.9
46571.2
44819.7
43186.1
41510.4
41722.8
43558.1
45591
47019.3
48532.1
50767.4
55018.7
61982.6
50231.5
46094.4
57919.6
55463.4
51478
48769.5
46918.7
45520.3
44023
41981.9
41229.6
42094
44201.4
46082
47745.4
49681.7
53296.9
59538.4
49145
45869
49772.5
50695.5
49409.9
47751.2
46217.8
44827.7
43437.6
42238.4
40040.5
41201.2
43092.4
44778.9
46192.3
47243.6
47566.1
46254.6
43623
44683.3
48804.4
49923.8
48913.1
47542.8
46249
45056.4
43845.8
42633.4
39478.8
40509.1
42728.2
44992.2
46787
48185.6
49153.9
48401.1
45365
42202.4
44539.2
46474.3
46727.4
45080.5
42268.3
39516.7
37663.4
37619.7
41440.1
39861
39888.5
41246.7
42777
43869.5
43966.6
42802.9
41054
40634.5
41985.9
43433.8
43910.4
43337.5
42071.5
40590.3
39166.2
38278.3
40515.6
40958.8
40573.6
41872.6
43410.6
44387.1
44354.2
43152.3
41685.4
45674.1
59549
57467
52509.2
48901.1
46392.4
44665.1
43106.8
41266.3
41007.5
42615.3
45017.9
46670.4
48253.6
50482.3
54267.1
57786.5
45603.1
42743
54160.1
54544.3
51274.1
48614.3
46767.9
45452.9
44109.4
42061.5
40706.1
41019.7
43123.7
45298.6
47142.8
49061
51978.7
54634.6
44534.4
43446.3
49964.3
52273.8
50893.2
48816.1
47019.9
45598.5
44300.4
42971.5
40069.4
41277
43144.7
44889.3
46401.2
47657.3
48062.9
45977.5
41436.1
42649.7
49518.1
51641.7
50205.2
48368.1
46873.1
45705.9
44651.2
43504
40287.2
40469.2
42537.3
44937.8
46989.7
48768.5
50026.6
48353.5
42976.3
40346.6
42478.5
44220.5
44572.3
43341.4
41062.4
38850.5
37497.1
37497.2
39817.5
40897.3
39538.9
39996.3
40883
41599.5
41510.4
40330.3
38887.5
38830.6
40294.4
41816.5
42460.7
42201
41405.1
40482
39578.3
38804.9
39081.4
41915.4
40336.2
40658.3
41661.8
42421.5
42296.5
41074.1
39772.3
42605.5
52731.5
53872
50969.5
48111.4
45917
44407.8
43057.5
41295.4
40576.6
41933.8
44463.8
46308.3
47857.8
49831
52513.4
52653.6
42130.8
40188.1
49415.4
51757.5
49979
47930.4
46400.9
45337.3
44267.3
42500.6
40624.3
40564.8
42127.5
44385.8
46275.8
48016.2
49860
49501.5
41389.7
41724.8
50103.9
53413.9
52078.4
49839.8
47933.7
46495.3
45226.6
43791.3
40934.6
41588.6
43377.1
45087.2
46557.7
47887.3
48392.1
45801.9
39675.2
41102.1
50503
53438.9
51539.7
49309.7
47674.4
46533.5
45591.7
44588.8
42831.2
40473.7
42533
44852
47022.4
49086.4
50625.8
48332.8
41184.6
39276.8
41218.8
42683.3
42932.3
41909.9
40065.2
38320.5
37352.8
37453.8
39372.1
42437
39965.4
39383.4
39428.9
39529.4
39192.8
38229.6
37437.2
37914.2
39446.1
40866.9
41518.8
41453.8
41017.2
40515.8
39988.3
39399.4
39360.3
42028.5
40768.2
39986.9
40222.4
40543
40307.7
39299.6
38471
40610
47840
50060.3
48791.6
46808.6
45077.4
43878.2
42827.3
41330.7
40299.6
41401.2
43793.5
45830
47284.8
48782.1
50097.2
48022
39579
38419.7
45453.5
48522.9
48086.5
46829.3
45757.9
45024.5
44289.2
42940
40927.1
40547.1
41208.5
43291.7
45119.1
46533.9
47304.3
45295.4
39185.7
40523.7
50210.4
54025.4
52753
50548.5
48654.9
47206.8
45929.5
44499.7
42147
41551.7
43617.5
45284.5
46689.2
48012.8
48622.7
45771.2
38340.9
40050.8
51742.3
55152.5
52755.4
50212.8
48459.2
47305.1
46420.4
45582.4
44852.8
39674.2
42470
44662.9
46895.1
49143.6
50915.3
48255.6
39753.4
38696.7
40446
41592.3
41645.3
40684.6
39137.7
37757.1
37108.7
37356.2
39162.2
42849.9
41151.5
39448.9
38700
38114.6
37487.9
36856.5
36815
37803.7
39319.5
40506.7
41015.8
40986.2
40739.8
40504.3
40250.9
39880.6
39812.2
40257.7
41918.9
39991.7
39380.7
39148.3
38718.5
37962.7
37647.3
39245.2
44640.1
46931.7
46555.7
45243.4
43947
43076.3
42381.8
41270.9
40122.6
40950.9
43005.1
45214.7
46563.2
47473.9
47506
44393.2
38042.4
37517.9
42724.7
45745.6
46116.6
45514.2
44882.5
44488
44104.4
43211.8
41430.4
40566.7
40616.1
42078.1
43756.9
44806.4
44735.5
42094.7
37659.2
39767.3
50661.8
54461.8
53079.8
50945.7
49118
47685.6
46421.6
45084.3
43266.3
40576.1
43837.4
45487.8
46893
48220.6
48998.5
46203.3
37663.7
39690
53579.7
56891.9
53875.4
51068.5
49200.6
48004.7
47142.7
46407.4
46036.2
39083.7
42204.8
44405
46715.6
49118.7
51175.3
48464.9
38612.4
38620.4
39989.7
40722.5
40516.4
39536
38199.1
37118.6
36747
37180.8
38853.9
40735.6
43421.1
40316.7
38919.7
37815.4
36981.1
36687.1
37229.9
38459.2
39756.7
40575.7
40817.6
40688.1
40494.2
40410.2
40352.9
40166.1
40086.2
39951.9
43303.9
40807.2
39307.1
38606.2
38050.4
37548.4
37585.3
38575.6
42582.2
44548.1
44508.4
43596.3
42632.7
42043.6
41666.1
40951.5
39956.7
40449.5
42264.4
44512.9
45799.2
46198.7
45372.4
42232.8
37863
37696.4
41282.9
43747.2
44375.4
44155.5
43852.5
43747.5
43679.2
43218.9
41912
40531.3
40796.6
41000.1
42333.6
43143.4
42685.2
40182
37124.9
39989.7
52193.2
55215.4
53406.5
51241.9
49435.2
47997.9
46732.8
45439.6
43899.3
39294
44163.8
45829.1
47339.4
48769.6
49882.3
47717.8
38286.6
40532.1
56750.4
58842.7
55001.3
51943.5
49938.6
48659.6
47781
47067.8
46727.1
44188.7
41570.3
44259
46671.8
49297.7
51904.5
49900.9
38397
38992.4
39709.6
39898.9
39404.4
38413.8
37299.4
36523.4
36392.4
36980.4
38663.7
40684.4
47357.7
42381.7
40174
38783.4
37891.9
37807
38543.1
39620.1
40493.8
40866.7
40794
40508.6
40297.1
40292.8
40370.9
40328.3
40300.8
40812.6
41842.2
42543.2
40029.5
38924.1
38408.9
38174
38330.1
38740.1
41402.2
42766.1
42720
42016.2
41294.5
40904.8
40729.6
40323.9
39641.1
39971.5
41866.3
43862.9
45153.7
45268.3
44171.1
41727.8
39022
38891.2
40999.4
42578.4
43038.5
42933.9
42815
42905.8
43074.2
42980.9
42212.9
40808.9
41248.6
40665.6
41088
41781.4
41474.3
39716.5
37751.2
42300.5
56026.7
56738.9
54129.2
51738.1
49811.5
48265.7
46911.6
45553.1
44119.9
40276.6
44604.5
46590.2
48245.7
49933.7
51661.7
51144.2
41042.3
43227.1
62706.7
60990.8
56197.8
52876
50682.8
49261.5
48310.3
47567.5
47201.9
48491.7
39834.3
44318.1
46997.1
49974.6
53576.7
54163.5
39973.4
39421.3
39414.4
39042.5
38318.7
37416.8
36601.3
36149.1
36232.5
36963.4
38773.7
41531
47495.3
46455.1
42494.4
40825.6
39887.2
39716.2
40181.2
40840.2
41244.9
41223.1
40899.9
40494.5
40258.3
40294.2
40472.2
40588
40710.1
41490.1
40978.7
44530.2
41617.5
39881.1
39345.2
39248.2
39301.2
39532.8
40864.8
41462.9
41268.2
40698
40154.8
39863
39750.9
39540.7
39210.1
39595.1
41528.1
43547.5
44822
44844.6
43856.4
42292.9
40839.5
40604.5
41475.8
42131
42249.1
42102
42027.7
42175.4
42444.3
42590.3
42301.1
41313.6
40828.8
41670.2
40495.3
40814.8
40876.9
40090.9
39078.6
51623.3
63769.5
59461.6
55567.2
52660.7
50425.9
48622.8
47051.2
45540.1
44167.5
41881.3
43558.7
47978.4
49719.4
51859.5
54715.7
57774
49316.4
51582.3
71982
62745.9
57328.4
53719.9
51320.2
49743.6
48702.8
47929.6
47395.5
48197.3
41120.8
43677.9
47395
50967.7
55920.1
64024.9
46428.1
39719.5
39150.3
38398.1
37602.2
36915.5
36449.1
36299.2
36587.9
37537.6
39498.9
42106.1
41759.7
56887.9
46889.7
43894.4
42585.7
41984.3
41880.9
41974.1
41950.8
41674.1
41235.8
40814.7
40603.3
40678.5
40941.6
41226.9
41555.7
42512.4
44511
41363.2
43984.8
41579.2
40606.4
40321.8
40082
40271
40613.5
40639.7
40333.7
39865.4
39419.6
39109
38926.7
38791.9
38789.5
39375.2
41121.2
43960.1
44959.2
44971
44154.3
43118.6
42351.9
42050.3
42136.2
42222.8
42110.5
41895
41756.1
41802.9
41997.3
42203.1
42240
41861.5
41110.8
42116
41255.4
40569.3
40643.4
40415.2
40108.4
79473.6
68332.5
61145.3
56626.4
53490.7
51052.3
48980.3
47108
45325.9
43672.3
41735.9
40084.5
49474.5
51228.1
53667.1
57439.5
63510.6
74611.1
58888.5
67274.1
61198.6
56960.2
53769.8
51501.3
49920.5
48834.1
48043
47377.7
47242.7
49661.5
40573
45904.8
49896.4
54314.3
61584.9
55852.4
40442.3
39569.9
38720.2
38037.4
37597.8
37380.6
37381.5
37723.4
38621.6
40033.8
41077.9
41686.4
71024.3
58240.6
49185.2
46262
44761.7
43841.5
43207.8
42710.7
42275
41892.4
41621.7
41544.3
41698.3
42041.3
42491
43051.2
44054.7
46400
48267.8
42615.8
44176.1
42781.4
41898.9
41214.7
40726.4
40576.4
40342.6
39979.2
39562.8
39154.5
38797.7
38542.4
38464.7
38711.8
39495.9
41297.5
44855.7
45865
45713
44983.6
44093.5
43330.4
42825
42597.7
42491.8
42335
42122.4
41929
41839.6
41891.4
42063.7
42300.1
42488.8
42406.9
42161.7
42906.4
41870.1
41379.6
41158.9
40917.3
45304.2
51335.3
52833.9
52504.2
51434.9
49951.1
48208.5
46332.1
44404.2
42511
40787.6
39939.4
48002.5
51036.9
52275.1
53412.2
52859.3
47147.1
42651.9
47412.4
51190
52035.2
51435.4
50371.6
49301.5
48400.7
47692.4
47102
46617.7
46987.4
44780.2
42058.7
44228.1
44986.4
43320.8
40547.1
42556.1
41453.1
40479
39681.2
39057.4
38548.4
38178.6
38271.5
39423.4
41924.4
46588.5
61074.6
98081.5
88995.1
67553.9
54578.7
48749.6
45600.9
43693.9
42559.5
41949.7
41675.1
41603.8
41671.6
41872.1
42229.9
42769.4
43493
44421
45811.9
48520.4
48876.1
45906.6
45956.5
44959.8
43741.4
41660.9
40923
40287.2
39802.3
39470.5
39248.3
39088.4
39003.7
39083.1
39462.8
40343.8
42094.2
45679.2
49176
47273.5
46072.8
44899.9
43768.5
42824.9
42208.9
41918.6
41813.2
41766.5
41740.2
41761
41885.5
42166.5
42632.3
43274.2
43976.9
44502.8
44581.2
44623.5
43853.9
43115.9
42411.6
43340.5
44132.3
44902.1
45455.2
45699.7
45511.5
44878.1
43929
42835.6
41782
41034.4
41026.6
43446.3
48861.5
48407.9
48006
46706.7
44522.1
42826.2
42856.4
44213.7
45729.4
46732.7
47125.9
47093.1
46864.6
46603.4
46377.1
46190.9
46250.5
48178.2
43721.3
42655.5
42622.1
42623.8
42821
49020.9
46760.1
46843.1
47831
48455.5
48095.5
46913.4
45530.9
44373.2
43331.4
42549.5
44079.8
48944.2
53060
49456.4
48998.8
49059.8
49441
50536.7
51882.5
53309.4
54971.6
56703.2
58207.9
59354.4
60381.9
61957.8
65886
74761.5
88030.5
96208.9
100267
157810
120136
73322.4
55630.9
42885.8
40994
39416.3
38663
38753.4
39300.5
39948
40577.6
41247.9
42080.9
43260.1
45301.5
50689.9
58777.8
50855.5
48119.3
46364.2
44510.3
42455.2
40629.9
39486.9
38944.4
38765.8
38890.9
39311.7
39969.1
40797.7
41778.3
42923.4
44128.1
44975.9
45637.7
47139
46881.5
45941.9
44589.7
43994.4
43063
42172.8
41754.8
41848.5
42115.6
42253.4
42176.7
41956.4
41753.7
41823.8
42496
43953.7
46748.9
45810.2
45934.4
45972.2
45230.6
43681.5
41844.5
40686
40834.6
41984.1
43365.4
44453.9
45104.3
45391.3
45456.4
45479.4
45738.8
47392.9
48250.5
44633.1
44574.1
44739
44588.4
)
;

boundaryField
{
    fixed
    {
        type            calculated;
        value           nonuniform List<scalar> 
108
(
53769.2
55647.5
56346.4
54420.9
51353.9
48761
46974.3
45766
45491.4
46519.5
46895.8
48103.6
49769.1
51886.7
53881.4
54536.3
53379.8
51700.1
50705.3
50486.6
50462.6
49987.4
49034.1
47907.6
46821.3
45839.9
45534.8
46770.8
47071.1
48059.2
49456.5
51294.8
53129
53895.8
53305.1
52850.5
50713.6
50512.7
49870.8
49136.8
48452.9
47924.9
47569.6
47331.7
47260.2
47594
47915.3
48290.3
48751.8
49386.5
50194.5
51076.8
51984.7
52035
48561.9
49270.5
49077.9
48679.4
48269.4
47926.1
47653.5
47410.4
47275
47529.6
47791.2
48120.3
48560.1
49178.5
49950.8
50740.9
51450.8
51770.3
49431.3
48409.3
47399.1
46819.4
46539.9
46403.7
46348.8
46403.3
46760.1
45779.7
45405
45346.3
45358.2
45387.3
45492.3
45841.2
46613.3
47630.1
48056.3
47700.1
47215.6
46903.9
46743.2
46659.5
46613
46627.7
46893.1
45816.3
45504
45495.2
45576.7
45710.2
45973.3
46579.5
47761
49180.3
)
;
    }
    inside
    {
        type            calculated;
        value           nonuniform List<scalar> 
540
(
49495.2
48667
47709.8
46924.7
46331.5
45891.6
45624.9
45629.4
46024.6
45062.6
44669.3
44684.3
44933.9
45315.9
45822.4
46495.9
47299.3
47963.2
48021.5
47569.4
47028.8
46568.3
46217.7
45970.1
45842.8
45902.5
46284.4
45163.9
44915.1
45032.3
45369.9
45847.4
46483.2
47366.2
48489.2
49461.5
49525.6
48833.7
47908.8
47040.4
46223.4
45368.5
44502.3
43879.8
43973.6
42752
42786.6
43501.1
44423.3
45263.7
45944.7
46532
47097.3
47622.6
47762.9
47443.9
46980.9
46470.2
45930.5
45340.4
44724.5
44241.1
44309.9
42766.7
43020
43937.5
45012.4
45946.9
46717.1
47487.9
48405.4
49317.6
48148
48310
47852.1
47004.7
45918.3
44583.7
43099.9
41807.7
41632.9
40214.1
40656.5
42019.9
43588.9
44913
45784.2
46188.6
46165
46000.9
46257.3
46608
46551.9
46105
45397.2
44472
43402.6
42371.2
42114.3
40182.4
40855.7
42519.8
44385.3
45831.6
46770.7
47367.2
47691.3
47798.4
45282.4
46905.4
47533.1
47043.1
45859.7
44283.3
42665.7
41454
41917.1
40742.8
40350.8
41303.7
42948.1
44479.9
45462.8
45629.1
44804.2
43537.9
43830.6
45266.7
45968.7
45782.5
45078.8
44091.5
43015.2
42076.1
42245
40645.1
40771.3
41830.5
43872.3
45612.9
46681.1
47028.1
46384.5
44998.9
42562.7
45365.7
47034.1
47081.4
46067
44556
43128.3
42244.8
43145.9
42691.8
41680.9
41429.4
42626.8
43992.7
44923.4
44854.9
43326.7
41095.2
41427.6
43861.3
45359.8
45574.1
45076.7
44289.8
43491.1
42875.3
43297.7
42009.8
42585.1
42066.9
43556.8
45253.4
46363.3
46490.3
44997.7
42359.4
40552.1
44038
46421.8
47015.3
46380.8
45141.9
43955.6
43268.7
44061
44136
43940
42185.7
42631.6
43538.9
44193.1
43851.1
41805.4
39009.3
39497.7
42651.5
44825.9
45501
45333.9
44844.3
44334.1
43957.6
44325.8
42347.3
45084.4
43204.6
43513.3
44782.9
45754.1
45668.5
43614.2
40304.2
39045.4
42924.1
45761.2
46818.7
46635
45755
44788.2
44200.6
44842.4
44638.2
46581.4
43491.1
42934.1
43230.2
43414.3
42698.4
40265.9
37281.7
38057.9
41736.6
44446.3
45550.1
45724.1
45512.4
45216.9
44985.6
45291.3
41889.5
46873.2
45251.9
43906.3
44350.3
44930.4
44531.4
42092.5
38587.9
37850.9
42027
45152.5
46552.9
46783.6
46277.5
45533.4
45042.5
45654.9
44471.8
49144.5
45522.7
43618.9
43231.6
42872.3
41729.4
39041.1
36144
37255.5
41290.8
44333.8
45742
46192.4
46203.1
46064.6
45930.7
46179.3
41485.6
47600.4
48493.8
45220.5
44316.8
44233
43387.8
40617.1
37109.4
37265
41522.9
44730.8
46329.6
46897.1
46745.1
46239.7
45864.7
46438.8
44086.1
51508.5
48900.7
45039.7
43800.7
42937.7
41477.9
38789.1
36177
37485.5
41559.2
44618.4
46149.3
46784.2
46952.6
46920.9
46852.9
47037.7
41525.6
47153.3
52729.6
48475.8
45357
44209.3
42877.1
39917.9
36431.8
37665.5
41637.9
44631
46315.7
47165.3
47336.3
47069
46812.5
47294.9
44148.4
53796.7
54274.9
47886.4
45277.7
43887.4
42275.5
39913.5
37689.9
38907.8
42647.1
45393.8
46910.5
47654.3
47900.7
47900.3
47839.7
47947.5
41843.8
45944.4
55594.7
54774.5
48672.7
45513.5
43510.2
40574.5
37047.6
38950.3
42306.3
44993.8
46851.8
47994.6
48454.1
48400.2
48258.1
48579.4
45105.9
55799.9
60699.7
52851.9
48091.1
45875
43988
41930.3
40165.7
41081.2
44269.6
46703
48313.8
49123.7
49334.9
49257.1
49128.2
49128.4
42312.7
45347.3
55727.8
63477.8
55988.6
49280.3
45551.1
42340.8
38767.6
40454.1
43501
46407.8
48706.5
50234.3
50984.7
51106
51007.3
50509.5
47166.6
56745.7
65208.1
59820.5
52877
49388.2
46823.7
44435.8
42493.1
43010.3
46235.1
49094.1
51044.2
51841.9
51857
51547
51224
51051.8
43010.1
46005.1
53050
65569.3
66339.7
57808.7
50684.6
45338.3
40683.8
41478
46101.4
50488.4
53804.1
56011.8
57021.3
56946.5
56088.4
51495.1
50449.8
57453.4
65055.2
64944.7
59889
56207
53025.4
48674.7
43773.8
43587.7
49377.3
54965.4
57590.5
57911.5
57133.5
56079.3
55166.7
54645.7
43822.1
47280.3
51825.2
60185
68813.2
69515.7
63150.6
51851.9
42015.5
48400.9
61050.9
70173.9
74001.1
73699
70634.2
65978.3
59962.7
45249
54051.1
56831.8
60799.8
62985
63445.1
65543
71023.5
75314.1
56159.4
45568.1
76204.9
93092.8
87741.1
78306.5
70891.1
65951.3
63003.8
62420.8
43762.9
47508.3
50697.2
54884.6
59994.9
65994
72813.1
71836.4
44846
46076.3
52210.4
62241
70355
71214.4
65939.7
58342.8
50021.9
41707.5
55241.3
52931.1
52363.2
51492
51082.1
51635
52660.2
53271.3
50028.1
43296.3
45929.3
69750.5
93616.2
99130.5
92175.6
83146.2
77423.9
80694.8
43594
44750.7
46202.8
47346.4
47762.7
47479.9
46803.5
45712.2
44641.1
)
;
    }
    outside
    {
        type            calculated;
        value           nonuniform List<scalar> 
540
(
53671
54873.7
55213.5
53659.9
50959.4
48394.3
46394.1
44853.8
44232.8
44959.8
45371.1
46746.5
48410
50247.2
51835.3
52529.3
52219.9
51495.5
50806.5
50314.3
49942.1
49372.9
48489.3
47384
46172.1
44952.4
44333.6
45536.9
45862.4
47012.8
48449.8
50105.4
51630
52412.9
52482.5
52741.6
52538.4
54231.2
54798.4
53150.4
50136.2
47020.1
44216.9
41710.6
40714
41902.4
42611.7
44627.6
46651.3
48581.1
50199.4
51062.1
50962.8
50289.1
49734.3
49505.8
49285.7
48719
47657.1
46159.9
44338.3
42293.6
41020.7
42816.1
43255.3
44977.6
46743
48394.6
49834.8
50756.7
51057.3
51386
49008.5
50805.4
51851.9
51001.9
48468.5
45105.2
41560.1
38408.5
37875.8
39700.6
39400.7
41761.7
44220.7
46240.1
47645.4
48272.2
48038.2
47261.3
46901
47213.3
47438
47105.9
46052
44294.8
41998.7
39438.3
38091.4
41047.3
40286.3
42271.8
44572.1
46372.2
47558.4
48147.9
48172
48100
45011.1
46771.1
48207
48221.3
46440.8
43311.3
39837.7
37217.7
37631.9
41774.9
38695.5
39746.8
42018.5
44068.4
45380.8
45726.8
45062
43849.5
43488.4
44320.1
45110.6
45156.1
44315.2
42693.4
40621.5
38577.3
37892.8
43358.8
39976.5
40417.1
42575.1
44523.6
45652.3
45890.3
45303.5
44505
42033.3
43767.3
45326.1
45742.2
44540.9
41938.6
39048.3
37220
37785.1
45119.6
39976.3
38894
40256.4
41965.6
43161.4
43343.4
42378.5
40949
40663.6
41785.9
42973.4
43375.3
42884.2
41715.4
40286.1
39050.9
38700
46994.9
42061.3
39848
40914.1
42626.7
43749.1
43841.7
42886
41708.6
40188.7
41803.9
43285.9
43795.1
42977.3
40974
38773.2
37573.6
37932.1
48145.7
42345.3
39119
39161.9
40068.1
40880.9
40913.4
39950.9
38809
38840.2
40087.9
41421.2
42056.9
41925.9
41287.7
40518.2
39926.8
39722.5
50763.4
45836.2
40589.6
39852.1
40790.5
41704.5
41775.7
40845.3
39820.1
39140.1
40632.4
41908.1
42332.1
41718.4
40217.2
38609.8
37848.6
37967.6
51766.3
45765.7
40233.5
38828.8
38669.9
38797.7
38599
37887.8
37382.5
37910.2
39261.5
40562.2
41265.6
41376.1
41148.4
40864.1
40701.6
40665.2
55564.3
51273.3
42719
39626.6
39352.8
39730.6
39734.9
39080.3
38532.8
38589.3
39959.9
40952.1
41172.5
40605.5
39450.5
38312.1
37909.7
37835.1
57123.9
50548.8
42095
39250.3
38085.4
37419.7
36918.2
36558.3
36778.3
37798.9
39184.6
40308.8
40909.4
41088.4
41087.9
41108.8
41249.2
41444.5
61639.5
58633
47105.4
40607.8
38730.3
38324
38119
37752.5
37712.4
38544.2
39606.3
40197.5
40122.7
39494.6
38568.6
37826.7
37771.9
37540.2
63411.6
56055.1
44957.7
40514.7
38557.5
37257.7
36500.2
36452
37207.9
38462.9
39683.4
40484.8
40843
40942.1
41018.3
41218.5
41583
42017.3
68638.1
69243.7
55618.1
43433
39278.2
37984.6
37538.4
37382.6
37649.3
38943.9
39418.3
39468.1
39052.2
38349
37635.2
37282.9
37559.3
37107.7
71310.7
63918
49998.5
42852.1
40124.2
38469
37583.4
37660.7
38534.9
39633
40475.4
40869
40931.9
40885.6
40957.6
41260.4
41795.6
42494.5
76595.3
85128.4
69879.2
49593.8
41405.1
38860.7
38163.4
38113.8
38399.8
39395.8
39198.8
38697.7
38007.1
37327
36892.6
36933.8
37483.6
36665.6
87089.1
82521.8
60155.9
46344.8
42612.9
40769.2
39783.1
39666.1
40184.2
40853.4
41260
41293.9
41123.9
40961.8
41020.2
41400.6
42114
43222.3
81435.1
105740
96019.5
65045.6
46397.3
40970.9
39585.1
39363
39394.8
39728
39017.1
38184.6
37428.1
36946.8
36869.4
37256.1
37906.9
36704.1
120774
118132
79388.1
52656.7
46328.7
43898.6
42606.6
41997.8
41887.3
41974.3
41973
41780.2
41507.3
41334.7
41448.8
41958.7
42951.9
44842.7
73922.3
135195
145445
102350
60095.2
45436.8
41727.7
40729
40249.4
40613.4
39667.2
38843.4
38281.4
38073.1
38198.4
38530.9
38442.4
47155.1
241185
217347
122443
65181.9
52304.4
48380.4
46175.5
44785.7
43874.7
43239.9
42773
42426.7
42208.4
42191.9
42486.7
43215.1
44662.7
48288.4
46096.9
134393
197543
184225
103416
58072.3
46178.6
42956.3
41615.5
43517.7
42460.6
41510.9
40651.9
39875.8
39189.7
39177.4
48602.9
434120
883873
407983
155339
76188.9
62350.9
56613.3
51180.6
47763.8
45453.6
43841.1
42782.9
42161.5
41848
41752.3
41877.4
42392.7
43977.6
50889.1
46024.9
44371.9
56866.3
78366.6
81714.3
61180.8
50210.3
46587.3
44780.4
37598.2
38193.2
39625
41076
41904.3
42014.6
41817.7
41847.2
42249.5
120894
69254.1
46345.5
37449.8
35626.6
34426.4
33834.6
34575.5
41519
54243.1
64113.1
66659.2
62640.2
54783.3
46623.3
41170.8
39293.1
39446.3
49389.5
42832.2
40902
40465.2
39024.5
38037.2
38180.2
38445
37988.2
)
;
    }
}


// ************************************************************************* //
