/*--------------------------------*- C++ -*----------------------------------*\
| =========                 |                                                 |
| \\      /  F ield         | OpenFOAM: The Open Source CFD Toolbox           |
|  \\    /   O peration     | Version:  2312                                  |
|   \\  /    A nd           | Website:  www.openfoam.com                      |
|    \\/     M anipulation  |                                                 |
\*---------------------------------------------------------------------------*/
FoamFile
{
    version     2.0;
    format      ascii;
    arch        "LSB;label=32;scalar=64";
    class       volSymmTensorField;
    location    "0.8";
    object      sigma;
}
// * * * * * * * * * * * * * * * * * * * * * * * * * * * * * * * * * * * * * //

dimensions      [1 -1 -2 0 0 0 0];

internalField   nonuniform List<symmTensor> 
1620
(
(28586.2 69.799 -264.654 30527.4 -6521.84 82145.5)
(28166.1 -1058.68 3034.88 35153.7 -17415.6 77939.8)
(25989.2 -4260.43 8169.82 37414.2 -22945.8 67365.1)
(23101.3 -8221.44 13038.7 33502.2 -22930 53000.2)
(18688.9 -11152.6 16736 22645.2 -19773.6 36517.7)
(10053.8 -12093 19295.1 4671.49 -15514.9 16760.3)
(-5617.07 -10834.3 20916 -20688.8 -10994.3 -8566.21)
(-31236.1 -7761.85 21553.6 -54862.7 -6384.69 -43193)
(-47292.2 -3629.47 16988.6 -84193.2 -1504.2 -80290.9)
(-54403.6 3769.51 -20823.5 -86988.1 -2013.8 -78261.3)
(-39484.2 7119.91 -22870.7 -59524.1 -6895.97 -42974.9)
(-16800.4 9455.28 -21679.1 -29046 -11440.3 -11396.2)
(-1156.06 10233.7 -19553.2 -5118.26 -15676.8 13288.7)
(8356.01 9190.24 -16463.4 11959 -19256.4 32694.7)
(14136.1 6592.43 -12315.2 22543.8 -21269.6 48509)
(18843.3 3338.43 -7305.91 27668.7 -20193.4 61955.7)
(23192.4 851.216 -2427.66 28604.5 -14854.6 72212.1)
(26673.6 7.57789 668.023 28381.2 -5909.77 78199.2)
(26959.9 82.5043 816.874 28174.5 4193.19 77764.4)
(23834.1 -516.682 -1944.77 27794.6 12648.7 71079.5)
(19287.1 -2634.1 -6486.27 26100.8 17682.7 60510.8)
(14812.1 -5658.22 -11347.6 21410.6 19105.1 47993.3)
(10498.2 -8287.12 -15583.1 12932.1 17797.3 34502.7)
(4222.82 -9488.57 -18840.2 -321.401 14830.7 18908.5)
(-6895.28 -8861.67 -21089.6 -19351.1 10972.6 -1026.4)
(-27232.2 -6669.51 -22314.5 -47432.2 6617.35 -30707.4)
(-38025.3 -3587.39 -17965.8 -74059.9 1613.8 -68612.2)
(-48004.1 3679.68 19982.8 -82334.4 1847.19 -74650.1)
(-36842.4 7943.59 22261.8 -60848.3 6451.09 -48060.8)
(-17558.9 11071.8 21514 -33375.2 10884.8 -20633.2)
(-3150.6 12399.8 19899.2 -9569.67 15180.3 2966.67)
(6172.5 11576.4 17403.9 8744.45 19087.3 22861.2)
(12092.4 8769.16 13800.3 20839.8 21777.6 40124.2)
(17053.2 4832.33 8975.31 26968.1 21517 55935.2)
(22061.5 1478.3 3700.45 28229 16385.8 69544.9)
(26278.8 147.389 -1.66126 28033.3 6187.53 78896)
(15039.3 -1785.49 1401.09 44496.1 -24741.2 37374.6)
(11909.6 -10888.8 3133.85 52887.6 -13589.8 14166.8)
(10902.4 -17822 3508.79 43034.2 -8818.8 5200.81)
(11176 -22190.9 3699.29 29116.7 -6320.6 -2781.92)
(9460.5 -23667 3798.22 10919.8 -4627.35 -13345.5)
(4886.13 -22166.6 3848.65 -10118.1 -3324.38 -26591.2)
(-2848.11 -17929.5 3866.63 -32183 -2221.77 -41872.9)
(-12022.9 -11564 3742.87 -51745.6 -1180.14 -56584.7)
(-15011.4 -3934.99 2249.13 -60327.5 -141.782 -62868.6)
(-16518.8 4185.54 -3287.74 -61879.6 -244.18 -64403.5)
(-15522.9 11770.9 -4296.15 -55462.1 -1326.84 -60428.9)
(-7581.36 18131 -4396.64 -37213.8 -2434.97 -47077.2)
(-639.661 22407.2 -4369.31 -15999.7 -3621.45 -32658.6)
(3399.42 23983.1 -4297.66 4518.25 -5024.5 -19971.4)
(4707.79 22589.2 -4157.35 22426.5 -6837.04 -9784.61)
(4121.41 18264.8 -3890.36 36246 -9479.21 -2018.76)
(5634.72 11304 -3391.73 46881.2 -14453.9 7648.28)
(8800.89 1969.3 -1410.67 38576.2 -25662.3 31304.3)
(7837.39 -1742.12 -1264.59 35873.6 23861.4 29314.4)
(3146.51 -10804.1 -3048.5 43139.9 13042.5 4684.74)
(1626.71 -17718.9 -3415.34 32966.5 8298.14 -4724.53)
(2504.81 -22088.1 -3614.59 19813 5898.48 -11966.9)
(2803.74 -23590.8 -3747.42 3789.68 4336.28 -20358)
(1517.05 -22133.5 -3836.45 -13827.3 3146.77 -30162.2)
(-2256.91 -17943.5 -3874.39 -31834.9 2123.85 -41345.6)
(-8100.29 -11614.4 -3736.44 -48005.1 1128.94 -52626.4)
(-10237.8 -3987.84 -2142.49 -55692.6 94.6445 -58014.3)
(-12161.6 4127.96 3360.69 -57581.4 174.722 -59879.6)
(-11443 11708 4284.57 -51442.1 1188 -56187.1)
(-4798.55 18056.6 4376.68 -34536.5 2231.77 -44154.7)
(1612.18 22343.9 4366.04 -13951 3364.54 -30321.3)
(5912.14 23964.5 4327 6728.06 4721.99 -17427.3)
(8000.02 22639.3 4227.03 25354.5 6491.46 -6489.88)
(8463.85 18387.6 3996.4 40223.9 9075.22 2333.58)
(10712.8 11493.7 3536.43 51658.6 13946.3 12754.7)
(14711.7 2236.55 1708.67 44486.3 25283.6 37337.9)
(-5793.5 -188.79 -2531 -4538.95 5060.35 43355.7)
(-9956.82 -1527.46 -5444.12 -5960.39 12871.5 33837.5)
(-17512.7 -4354.65 -9759.72 -11464.4 16862.7 17600.8)
(-24418.9 -7732.84 -13969.4 -20012.3 17329.1 463.416)
(-29128.8 -10235.3 -17359.8 -30453.9 15512 -14817.8)
(-30763.2 -10886.3 -19792.9 -40338.4 12495.2 -26392)
(-27797.9 -9438.84 -21352.8 -45946 8957.21 -31956.5)
(-20226.5 -6317.68 -22078 -45751.2 5242.47 -31737.3)
(-6399.44 -2649.73 -17465.9 -44466 1337.04 -38726.2)
(-14623.9 2406.92 19411.6 -48904.3 1481.42 -40308.9)
(-24456.2 6966.73 20687.1 -51678.5 5025.58 -40910)
(-30777.7 10488.1 20157.5 -50511.2 8584.18 -40534.5)
(-33730 12220.1 18924.6 -44258.1 12107 -34901.5)
(-33753.2 11691.4 16880.5 -35139.2 15292.2 -24642.4)
(-31812.3 9046.7 13869.2 -26568.2 17483.5 -11479.3)
(-28288.7 5228.58 9892.24 -20959.8 17455.7 3255.8)
(-23843.7 1850.78 5557.51 -18988 13485.3 17504.2)
(-22485.1 212.997 2553.91 -21236.3 4760.03 24937.3)
(-23324.5 -341.474 2636.68 -22089.3 -6184.65 23999.6)
(-26058.1 -1955.51 5790.93 -21236.5 -14691.8 15140.3)
(-31760.7 -5322.22 10239.2 -24481.7 -18424.6 -262.096)
(-35721.8 -9162.72 14302.2 -30533.4 -18259.6 -15305.5)
(-36926.6 -11871.8 17376.9 -38411.6 -15898.2 -27671)
(-34890.3 -12482.6 19457 -45675 -12551.9 -35989.5)
(-28387.4 -10798.7 20678.4 -48703.7 -8871.47 -38378.7)
(-17629.8 -7279.48 21004.3 -46088.5 -5148.95 -35364.5)
(-2786.32 -3002.9 15182.5 -43101 -1300.21 -39447.7)
(-12688.9 2197.16 -20604.8 -44960 -1645.46 -34089.4)
(-19154.7 6334.36 -21534.3 -44222.3 -5331.76 -30415.9)
(-22977.9 9499.08 -20740.5 -41049.5 -8966.09 -27523.7)
(-23765.6 10985.1 -19189.6 -33413.3 -12431.3 -19932.2)
(-21737.3 10396.9 -16787.5 -23172.5 -15370.3 -7999.95)
(-17631.2 7942.66 -13446.4 -13266.9 -17106.7 6743.71)
(-12005 4566.21 -9306.71 -5897.13 -16552.3 22744.2)
(-6187.69 1702.52 -5104.23 -2087.1 -12450.8 37416.8)
(-4227.38 326.333 -2394.57 -2918.84 -4531.67 44879.2)
(9440.27 345.464 -1220.41 13440.1 -6477.64 62844.7)
(11220.6 -507.84 1690.29 20180.6 -17210.4 61886.1)
(12352.3 -3206.14 6548.7 25578.9 -22868.2 55689.6)
(14329.9 -6732.93 11457.9 26695.1 -23059.6 47096)
(17285.1 -9496.2 15436.3 23848.2 -20134.4 38665.7)
(19644.8 -10515.5 18357.8 17799.7 -15973.7 30314.1)
(19509.5 -9515.23 20329.3 9114.95 -11279.5 20695.3)
(12568 -6926.47 21304.9 -4960.71 -6069.22 4626.69)
(13134.4 -3609.57 16678.9 -18482.6 -278.667 -18945.7)
(6405.53 3541.26 -21649.5 -18881.8 -1002.72 -11711.2)
(11228 5992.64 -22307.9 -3345.74 -6428.86 12777.9)
(17162.1 7799.05 -20655.3 8460.59 -11183 27174.6)
(17813.2 8364.63 -18155.6 15818.1 -15189.6 36249.2)
(16173.1 7391.62 -14783.8 20394.4 -18262.9 43536.2)
(14082.6 5202.82 -10568 22253.7 -19773.6 50233.5)
(13150.9 2613.57 -5788.52 21827.2 -18615.6 56858.8)
(13062.9 712.789 -1297.46 19233 -13791.2 61911.9)
(13177.3 107.991 1539.41 16444.9 -5677.9 64209.2)
(13326.3 239.76 1746.5 16084.7 3634.32 63854.6)
(13989.7 -125.566 -710.809 18915.8 11687.5 61692.6)
(13838.5 -1767.49 -4947.17 21251.8 16755.5 56560.3)
(14258.9 -4298.2 -9687.47 21751 18517.3 50100.3)
(16057.8 -6632.85 -14015.6 20286.9 17633.5 43760.5)
(18132.2 -7823.82 -17509.8 16603.8 14966 37291)
(18823.1 -7466.89 -20072.5 10756.1 11149.9 29649.9)
(13309.6 -5865.47 -21716 -967.068 6444.16 14821.6)
(17234.2 -3816.41 -17378.5 -14231.8 612.29 -13007.4)
(8133.67 3165.71 21165.6 -19037.7 891.791 -12710)
(11564.8 6757.14 22251.2 -7116.83 5992.18 5016.35)
(16012.5 9520.01 21091.5 3664.22 10717.8 17157.1)
(15813.8 10699.1 19093.2 11378.9 14892.6 25697.1)
(13430.4 9895.98 16229.4 16737.4 18363.1 33154.4)
(10600.1 7395.52 12398.1 19220.7 20530.4 40593.3)
(8983.79 4096.95 7646.73 18756.2 20060.7 48675.6)
(8612.92 1386.17 2667.93 15495.5 15218.9 56056)
(8323.96 342.645 -829.096 11745.4 5616 60475.1)
(-1316.14 -522.165 463.453 31093.2 -26834.1 25334.8)
(-1600.02 -10468.4 3137.48 45549.6 -16018.2 2739.61)
(2245.8 -17696.1 3699.89 38193.1 -10307.9 -2212.16)
(9248.67 -22002.2 3963.02 29715.8 -7407.07 -3681.61)
(16274.3 -23368.8 4142.07 19818.7 -5531.68 -5554.67)
(22677.2 -21785 4319.72 9790.94 -4075.57 -7881.35)
(27728.5 -17514.9 4527.1 890.13 -2684.6 -10448.7)
(31484.6 -11226.3 4568.7 -4956.5 -1048.41 -12208.2)
(37760.8 -3875.68 2243.98 -3558.29 883.277 -9396.02)
(38744.8 3923.44 -4474.63 -2802.36 665.624 -8261.29)
(34837.7 11159.9 -5301.11 -2670.01 -1167.07 -9577.59)
(31829.8 17469.6 -5107.25 3490.89 -2758.19 -7413.53)
(26450.9 21884.5 -4830.42 11752.4 -4139.22 -5337.74)
(19389.3 23679.4 -4611.97 20939.5 -5608.18 -3714.48)
(11698.6 22570.8 -4422.42 30055.1 -7546.66 -2491.38)
(4092.1 18612.8 -4168.64 37864.4 -10616.9 -1565.22)
(375.266 11921.2 -3615.72 45738.1 -16706.2 3753.88)
(-260.387 1679.93 -728.036 32204.7 -27730 26285.6)
(-128.787 -578.683 -316.995 28473.5 24736 25035.1)
(-960.532 -10333.3 -3039.25 43187.2 14904 2289)
(2676.47 -17559.7 -3632.62 36895.1 9604.45 -2646.95)
(9831.8 -21923.4 -3937.57 29168.5 6935.33 -3816.2)
(17203.5 -23352.8 -4162.54 19909.3 5225.69 -5211.78)
(24056.5 -21830.9 -4369.57 10491.6 3893.82 -6924.47)
(29473.9 -17633.3 -4560.65 2065.3 2610.32 -8920.38)
(33063.7 -11418.5 -4500.15 -3872.82 1080.79 -10679)
(37555.4 -4078.12 -1846.3 -4072.02 -820.145 -9546.17)
(37508.2 3719.4 4746.42 -3815.16 -737.331 -9078.3)
(34296.2 10977.9 5405.26 -2844.38 935.054 -9636.22)
(31142.9 17316.6 5180.06 3065.75 2452.45 -7616.5)
(25722.4 21764.4 4892.94 11093.9 3772.28 -5656.2)
(18732.8 23591.1 4667.68 20141.9 5167.81 -4087.51)
(11196.1 22540.9 4482 29200 7006.4 -2869.51)
(3750.92 18728.3 4259.06 37035.6 9924.43 -1943.19)
(-332.502 12309.8 3810.53 44594.1 15758.1 2881.99)
(-1066.11 2259.37 1270.67 31077.9 27008.7 25561.4)
(-15868.9 -126.448 -3793.88 -12759.5 5087.07 34008.8)
(-15684.7 -1818.45 -6669.99 -10456.9 12841.1 28715.7)
(-15932.8 -4703.64 -10861.2 -9484.02 16618.3 19425.8)
(-14384.4 -7915.99 -14922.6 -10107.4 16888.2 10389.2)
(-9941.9 -10121.1 -18146.8 -11560.9 14912.8 3932.96)
(-2841.77 -10408.7 -20330.8 -12465.1 11828.1 810.091)
(6899.45 -8655 -21508.8 -10566 8452.56 1904.25)
(16272.8 -5497.75 -21780.5 -7470.75 5257.13 3965.27)
(33315.6 -2693.87 -13580.2 -4625.55 1987.84 -4847.32)
(23749.7 1536.32 19249.4 -6602.31 2355.94 -634.588)
(14648.3 5726.22 20282.2 -10856.2 5204.96 -2661.7)
(5287.95 9312.84 20202.9 -14351 8230.22 -5840.19)
(-3281.77 11458.1 19426.2 -14767.9 11585.9 -5820.49)
(-10479.7 11451.4 17676 -13202.1 14847.2 -2422.67)
(-15812.4 9255.17 14816.5 -11751.3 17163.7 3848.92)
(-18903.3 5744.55 10945.7 -12200.1 17193.8 12283)
(-20488.7 2467.44 6745.72 -15328.2 13203.5 20739.8)
(-23248 612.235 3897.65 -20668.1 4419.43 24288.6)
(-23876.7 -424.748 4026.32 -20949.7 -6501.51 23691.5)
(-21302.6 -2380.75 7036.2 -15362.6 -14796.3 19977.7)
(-19838.4 -5772.95 11273.2 -12251.2 -18278 11441.3)
(-17071.9 -9422.01 15142.4 -12114.2 -17917.3 2797.09)
(-12015 -11826.1 18022.3 -13919.2 -15397.9 -3628.19)
(-4698.64 -12100.8 19834.4 -15682.7 -11968 -6928.48)
(5270.24 -10184.4 20662.2 -14581.6 -8398.82 -6015.58)
(15344.5 -6716.6 20435.9 -11773.7 -5112.31 -4041.15)
(32285.3 -3250.25 9944.41 -7714.37 -1802.6 -10060.9)
(21391.8 1226.59 -20428.8 -6465.69 -2537.36 1813.93)
(15737 5093.59 -21082.9 -7404.1 -5610.24 3698.1)
(9048.65 8448.26 -20714.2 -8785.67 -8745.75 3224.44)
(2819.94 10415.5 -19599.7 -7586.49 -12065.7 5434.45)
(-2505.58 10319.2 -17497 -5008.43 -15092.4 10308.2)
(-6466.52 8240.63 -14339.6 -3011.96 -16985.8 17272.9)
(-8840.38 5121.42 -10338 -3124.63 -16583.5 25515.5)
(-10555.5 2364.26 -6253.43 -5954.78 -12607.6 32967.2)
(-13850.4 827.172 -3615.28 -11026.1 -4664.28 35625.1)
(3222.11 468.109 -412.288 9604.95 -5944.5 54232.7)
(6252.64 -562.291 2183.34 16584.7 -15725.5 54735.8)
(7791.41 -3046.95 6555.93 21418.6 -21225.8 49703.9)
(9432.54 -6200.9 11106.6 22204.7 -21955.9 41756.3)
(11849.3 -8657.26 14923.1 19525.1 -19582.2 33442.8)
(14026.3 -9488.05 17805.1 14283.2 -15599.9 25184.4)
(14581.7 -8457.27 19798.7 7550.63 -10627.9 16435.7)
(10509.2 -6037.11 20802.2 -1703.48 -4620.07 3905.71)
(11116.5 -3149.6 17980 -11127.5 1966.48 -14803.2)
(5022.96 2460.02 -20717.2 -16277.4 1852.77 -15857.5)
(2609.79 4499.4 -21966.2 -8018.01 -4329.41 4552.98)
(8870.53 6301.67 -20230.5 1624.37 -9801.17 18871.5)
(10166.9 7138.53 -17705.5 8069.63 -13893.3 28249.1)
(9679.13 6536.14 -14405.6 12885.2 -16678.5 36292.9)
(8500.12 4759.67 -10382.8 15281.5 -17794.9 43334.2)
(7794.87 2623.73 -5945.53 15488.5 -16526.8 49610.8)
(7159.21 1083.12 -1856.54 13692.6 -12204.4 53850.3)
(5985.91 503.941 744.284 11189 -5067.58 54966.3)
(5717.09 375.236 984.263 10852.3 3340.35 54536)
(7539.41 -172.502 -1249.79 14072.5 10892.1 53909)
(8288.8 -1727.17 -5179.72 16444.7 15826.1 49975.6)
(8872.27 -4001.42 -9626.59 16761 17682.2 43973.1)
(10437.9 -6048.26 -13730.9 15289.6 16974.9 37672.8)
(12392.3 -7026.17 -17091 12153.1 14391.9 31319.5)
(13713.4 -6609.5 -19589.3 8008.53 10416.8 24624.5)
(11505.8 -5139.94 -21155 1469.8 5169.95 14091.9)
(15207.6 -3483.68 -19219 -6323.36 -1136.59 -6354.6)
(9889.49 1665.74 19837.6 -14284.9 -1849.4 -15304.6)
(4338.51 5118.25 22062.5 -10628.6 3877.71 -2849.57)
(9007.16 8077.33 20882.1 -1794.8 9392.5 9649.46)
(9157.05 9627.93 18853.9 4785.14 13780.5 18531.4)
(7742.37 9182.47 16008.4 10251 17065 26802.2)
(5771.58 7002.23 12256.6 13215.7 18861 34669)
(4389.15 4096.39 7738.18 13322.5 18194 42376)
(3615.85 1777.69 3158.73 10991.1 13737.7 48921.6)
(2271.08 772.177 -29.2132 7739.98 5045.23 52101.2)
(-2722.26 -250.158 978.197 24574 -25941.2 33491.8)
(-3772.13 -9863.4 4232.04 49409.5 -21829.7 6093.63)
(998.628 -17443 5007.99 40704.4 -13823.4 -868.455)
(8114.51 -21675.5 5183.36 30826.5 -9651.59 -3201.83)
(14315 -22923.5 5182.42 19787.9 -7049.09 -6304.16)
(19339.1 -21268.5 5157.21 8680.95 -5038 -10266.5)
(22767.7 -17027.8 5180.86 -1133.37 -3032.71 -14636.4)
(24837 -10900.7 5071.91 -7407.72 -533.201 -18046.7)
(29533.4 -3938.69 3344.76 -5645.18 2575.67 -16264.2)
(31352.8 3121.31 -4368.82 -4527.56 2764.1 -14784.9)
(29112.7 10143.2 -5997.96 -5213.15 -309.541 -14855.6)
(28150.5 16500.5 -5913.54 1052.22 -2822.43 -10971.4)
(24417.7 21108.2 -5722.84 9886.64 -4768.36 -7210.22)
(18629.9 23143 -5656.39 19779.8 -6722.46 -4074.37)
(11816.7 22301.5 -5642.77 29520.1 -9320.35 -1604.83)
(4566.36 18804.1 -5529.8 37995 -13546.3 482.583)
(230.43 12859.6 -4960.25 46733.6 -21665.4 7920.53)
(-758.606 2475.68 -1388.69 25570.3 -26102.3 34454.1)
(-642.059 -286.91 -675.561 21915.1 22836.9 33105.6)
(-1944.93 -9498.07 -4016.58 44486.1 19626.7 6248.14)
(1755.33 -17140.1 -4929.54 38274 12926 -1234.9)
(8594.8 -21526.9 -5219.53 29523.2 9171.43 -3658.43)
(15140.2 -22896.9 -5300.48 19338.6 6742.53 -6279.23)
(20888.5 -21346 -5324.42 9146.07 4865.3 -9304.32)
(25080.8 -17225.5 -5347.58 163.87 3041.47 -12624.8)
(27427.2 -11241.3 -5172.72 -5857.03 808.743 -15542.5)
(30408.1 -4405.65 -3287.97 -5536.81 -2129.75 -15354.3)
(30454.6 2552.87 4501.08 -4906.01 -2840.24 -15197.8)
(28118.3 9668.62 6083.39 -5098.17 -175.758 -15109.5)
(26762.8 16207.1 6011.04 446.657 2325.02 -11610.7)
(22951.5 20958.9 5825.63 8825.95 4256.28 -8005.79)
(17397.2 23028.4 5733.88 18624.3 6134.77 -4807.43)
(10865.9 22188.3 5672.24 28293 8563.78 -2306.47)
(3633.18 18849.9 5538.63 36485.7 12437.7 -544.533)
(-1268.6 13462.4 5143.58 44782.7 19987.7 5831.86)
(-2413.63 3211.93 2110.82 23881.8 25342.6 32677.7)
(-6617.65 399.334 -1482.92 -61.4115 6280.77 43458.7)
(-7311.75 -1532.39 -5057.3 2139.84 15230.1 37518)
(-9039.9 -4904.21 -9950.48 1640.1 18795.1 26346.6)
(-8703.16 -8520.68 -14401.7 -606.398 18384.1 15625.6)
(-6664.48 -10938.1 -17777.1 -4946.55 15820.6 6429.15)
(-3624.53 -11282.7 -19954.2 -10173.2 12433.5 -1004.01)
(230.391 -9527.35 -21013.6 -14003.6 9153.66 -5939.5)
(3280.61 -6341.83 -21170.4 -16214.3 6584.47 -9717.62)
(10005.9 -3020.94 -18401.7 -16744.7 4449.08 -17028.4)
(10128.9 2033.39 17046.9 -16079.4 4897.89 -17800)
(5652.01 5792.02 19329.9 -15819.6 6898.51 -12449.2)
(1800.78 9444.66 19537.2 -15280.5 9108.09 -10457.2)
(-2306.71 11796.4 18969.5 -11852.8 12206.7 -6150.63)
(-5908.33 11976 17278 -6653.03 15636.3 852.782)
(-8618.96 9793.87 14298.7 -2204.16 18388 9828.34)
(-9945.56 6117 10109 -617.555 18925.2 20168.9)
(-10087 2688.4 5344.31 -2386.18 15063 30348.3)
(-12348.6 951.012 1889.52 -7266.16 5312.19 34791.3)
(-13702.7 94.4714 1983.48 -7484.59 -7446.8 33926)
(-13013.4 -2047.52 5563.39 -2886.33 -16747.7 28383)
(-13316.1 -5850.76 10334 -1486.82 -19995.2 17774.1)
(-12490 -9825.32 14494.4 -3705.2 -19056.5 7010.39)
(-10246.7 -12374.2 17517.3 -8763.16 -16089.8 -2193.33)
(-6947.92 -12667 19400.3 -14678.7 -12455 -9299.24)
(-2668.74 -10758.1 20290.4 -18878.6 -8985.62 -13605.7)
(994.752 -7324.78 20370.1 -21018.5 -6226.31 -16570.2)
(8159.95 -3580.48 17430.9 -20155.1 -4129.57 -21628.9)
(8127.96 1663.83 -17884.6 -15980.4 -5206.23 -16768.8)
(5708.09 5101.56 -19948.3 -12900 -7690.49 -7415.59)
(4258.81 8628.21 -19928 -10670.9 -9983.4 -2674.92)
(2480.28 10873.9 -19037.5 -5702.12 -13057.7 4074.05)
(1051.68 10869.9 -16972.8 796.148 -16265.5 13033.7)
(-132.082 8656.56 -13683.2 5783.91 -18566.3 22940.4)
(-1090.67 5325.02 -9352.74 7146.72 -18621.1 32780.5)
(-1735.41 2500.51 -4671.26 5314.5 -14703 41510.7)
(-4599.88 1163.76 -1357.45 838.506 -5597.12 44696.8)
(-1814.1 535.352 1556.4 6548.06 -5001.16 46038.1)
(2501.14 -807.573 3796.88 13060 -13297.8 48019.5)
(4762.03 -3117.96 7552.09 17237.9 -18435.6 44619.1)
(6562.16 -5840.19 11536.1 18147.1 -19798.9 38059.4)
(9385.43 -7897.36 14992.7 16655.9 -18160.2 31025.7)
(12876.4 -8528.98 17709 13660.1 -14497.9 24472.4)
(15801.5 -7548.47 19633.5 10055.8 -9417.29 18311.8)
(15880.8 -5300.62 20563.3 5736.12 -3101.84 10681.9)
(16164 -2436.23 19345.5 861.132 3818.15 -1394.98)
(19182.5 1092.15 -16735.1 -5923.19 4222.44 -13328.7)
(3195.6 2699.61 -22082.3 -5010.62 -1575.63 5555.36)
(8816.31 4593.08 -20279.8 2125.1 -7657.6 18923.5)
(7869.54 5737.01 -17784 4826.79 -11967 25515.1)
(6262.53 5648.91 -14653.1 7647.24 -14630.3 32044.3)
(4488.84 4457.89 -10958.3 9234.41 -15475.8 38071.5)
(3241.21 2860.52 -6980.2 9484.04 -14077.4 43301.7)
(1952.79 1689.3 -3397.34 8569.73 -10134.2 46411.8)
(-245.388 1114.08 -1145.05 7023.01 -4054.91 46260.7)
(-510.384 581.048 -924.356 7380.57 3048.93 45972.7)
(2487.31 -344.105 -2866.82 10682.5 9668.69 46906.4)
(4590.12 -1903.92 -6343.62 13031.4 14236.5 44706.7)
(6208.32 -3904.6 -10347.1 13611 16102.6 40071.9)
(8670.38 -5610.51 -14108 12943.5 15534.8 34978.7)
(11884.3 -6349.82 -17243.1 11422.1 13029.8 30197.5)
(15128.6 -5864.28 -19580.7 9739.12 8985.93 25857.3)
(16778.1 -4406.35 -20941.2 7898.45 3576.23 20402.6)
(19204.2 -2611.36 -20586.7 5346.34 -2850.68 8977.73)
(25902 194.957 13068.8 -3017.87 -4231.23 -13092.3)
(6468.63 3291 22090.1 -7301.67 1181.76 -3589.08)
(10111.4 6497.61 21123.8 -400.54 7410.95 9134.47)
(7807.64 8450.57 19151.6 2550.01 12162.5 15837.6)
(5060.09 8513.75 16440.3 5919.28 15429.1 22881.7)
(2529.65 6840.8 12925.5 8114.85 16984.2 30088.1)
(788.409 4385.33 8758.41 8379.45 16098.4 37051.6)
(-538.713 2386.99 4652.63 6960.76 11884.3 42434.1)
(-2687.38 1317.96 1876.81 4694.3 4292.94 44243.6)
(-2971.22 -453.737 2424.26 19132.2 -21262.1 36343.6)
(-5097.44 -8985.14 5424.51 47184.1 -24503.5 9465.62)
(-511.736 -16802.6 6386.17 40904.1 -16479.7 346.137)
(6426.8 -21146.7 6489.36 30723.4 -11587.6 -3081.25)
(12552.5 -22446.2 6307.81 19715.6 -8422.4 -6706.12)
(17803.9 -20913.5 6069.82 9148.26 -5876.36 -10740.4)
(21925.3 -16935.1 5852.59 347.063 -3282.91 -14634.1)
(24819.3 -11149.9 5446.41 -4763.77 -176.183 -17296.7)
(29290.4 -4445.87 3939.59 -2173.99 3667.53 -15327.6)
(31791.1 2191.31 -3544.04 141.423 4734.88 -13532.5)
(29121.8 9344.37 -6668.43 -2411.89 757.395 -14112.2)
(27683.8 15738 -6835.11 1662.25 -2715.73 -11121.6)
(23798.9 20393.9 -6776.06 9266.78 -5321 -7592.06)
(18230.5 22563.7 -6846.54 18613.3 -7829.71 -4013.77)
(11847.8 21930.5 -6960.85 28174.6 -11011.7 -614.563)
(5146.18 18816.2 -6888.01 36671 -15882.8 3008.31)
(521.317 13385.7 -6184.55 43626.1 -23825.2 12422.8)
(-498.944 3490.18 -2694.88 20708.4 -21262.8 37875.8)
(-1032.12 -260.919 -1871.93 18126.4 18815 36416)
(-3031.76 -8451.05 -5048.16 41803.4 22133.9 10080.3)
(426.052 -16385.5 -6251.18 37924.8 15673.6 151.815)
(7153.11 -20920.1 -6564.33 29155.7 11225.8 -3446.95)
(13772.1 -22370.1 -6528.59 19202.3 8161.92 -6477.31)
(19771.4 -20971.2 -6371.18 9572.7 5726.83 -9490.04)
(24546.9 -17123.9 -6168.02 1456.93 3381.19 -12377.6)
(27627.4 -11487.6 -5738.69 -3595.76 667.987 -14645.6)
(30405.3 -5004.34 -4212.24 -2533.55 -2845.1 -14279.4)
(30728.1 1225.69 3348.98 -522.671 -4719.75 -14264.6)
(27809.5 8393.01 6693.61 -1862.24 -1593.17 -14562.5)
(25890.1 15151.4 6920.16 1250.64 1957.39 -12014.5)
(21829 20120.4 6892.05 8083.64 4635.23 -8716.63)
(16491.9 22382.8 6947.88 17223.7 7085.74 -5069.7)
(10493.4 21713.1 6981.4 26729.7 10052.1 -1558.52)
(3831.43 18686.2 6813.51 34825.8 14386.9 1655.68)
(-1242.23 13806.8 6243.38 41290.8 21553.3 9748.85)
(-2428.61 4009.4 3332.77 18640.9 20442.5 35438.4)
(1501.76 1171.84 802.094 11217.6 7458.52 49490)
(-847.187 -881.725 -3340.47 13354.2 17822.2 42823.1)
(-4623.37 -4914.67 -8976.24 11049.1 21211.5 30080.1)
(-5953.03 -9088.37 -13860.9 6520.12 19983.7 17674.3)
(-5752.26 -11838.5 -17374.6 -334.856 16738.4 6525.26)
(-4806.32 -12418.1 -19530.3 -8121.75 13033.4 -3101.56)
(-3294.3 -10898.9 -20554.6 -14572.2 9798.67 -10432.5)
(-1356.2 -7874.08 -20784 -17706.1 7604.6 -15091.1)
(-375.3 -4397.13 -19635.6 -20087.6 6516.5 -22502.7)
(8263.05 2392.58 12341.1 -17221.4 6567.75 -27121.3)
(4117.05 6325.19 18385.3 -13776.5 8694.75 -14654.5)
(1454.54 10027.7 18778.9 -13029.1 10103.8 -11596.6)
(-850.214 12379.3 18327.9 -8172.93 12855.8 -5798.99)
(-2212.71 12546.6 16725.5 -716.12 16319.8 3178.71)
(-2827.32 10304 13730.2 6134.76 19439.2 14063.1)
(-2478.75 6458.01 9330.18 9704.85 20539.5 25958.6)
(-1079.92 2885.77 4059.46 9401.32 16959.8 37623.6)
(-2395.89 1362.79 -34.8712 5240.55 6364.22 43041.4)
(-4573.11 951.232 -83.2665 5262.51 -8300.41 41752.6)
(-6801.51 -1349.88 4056.08 8577.42 -18847.1 33812.4)
(-9421.82 -5754.08 9408.73 7687.68 -21834.6 20988.8)
(-10215.3 -10193.2 13837.3 3078.4 -20203.8 8648.37)
(-9607.96 -13026.3 16948.5 -4294.99 -16770.5 -1992.19)
(-8265.01 -13545.4 18885.5 -12569.7 -12968.4 -10747.1)
(-6516.39 -11879.9 19899.9 -19483 -9572.48 -17203.8)
(-4186.32 -8672.63 20305.2 -22633.9 -7100.72 -20718.3)
(-4304.03 -5032.09 19724.4 -24944.2 -5897.87 -26896.7)
(6715.94 1786.75 -11599 -18450.1 -6504.15 -29179.7)
(3090.5 5389.57 -18730.5 -11358.4 -9901.92 -11248.8)
(2389.57 9035.43 -19021.9 -9422.67 -11353 -5508.13)
(2080.74 11405.1 -18323.2 -3573.22 -14040.8 2635.62)
(2758.43 11384.7 -16333.8 5010.26 -17319.7 13686.9)
(3777.86 9010.36 -12997.2 12426.1 -20015.7 25808.7)
(4542.12 5458.04 -8429.97 15698.3 -20644.7 37352.2)
(5432.8 2511.49 -3204.55 15291.8 -16884.7 47304.8)
(3576.63 1418.42 764.105 11393.8 -6562.84 50788.3)
(-5774.13 664.617 3585.01 4006.91 -4296.91 39291.2)
(-960.591 -924.777 5536.01 9523.06 -11308.5 42005.9)
(2361.86 -3114.54 8791.37 13450.3 -15906.7 40272.9)
(4877.68 -5503.4 12257.5 14785.1 -17489.5 35337.8)
(8296.92 -7268.62 15336.1 14326.7 -16345.5 29734)
(12664 -7804.05 17845.7 12767.4 -13023.9 24531.8)
(16853.6 -6904.29 19643.2 10695.3 -8079.98 19832.1)
(19445.7 -4747.43 20448.9 8851.87 -1951.82 15066.7)
(20001.3 -1769.44 19701.6 6580.77 4744.2 7063.85)
(29908.2 1406.4 -4219.68 -884.668 5464.17 -14766.3)
(3028.65 1096.84 -22416.5 -4349.33 925.704 5204.21)
(9018.8 3056.09 -20508.7 2493.36 -5296.29 19363.6)
(6615.56 4409.64 -18034.6 2557.8 -9798.63 23739.4)
(3993.79 4738.95 -15029.4 3604.83 -12467.4 28667.6)
(1349.69 4125.36 -11632.5 4199.46 -13215 33393.7)
(-734.516 3092.55 -8093.21 4242.43 -11819.9 37393.2)
(-2819.99 2304.76 -4974.07 3886.22 -8239.96 39321.1)
(-5415.63 1771.05 -3043.4 3471.4 -3027.74 38543.7)
(-5323.67 906.215 -2875.85 4668.16 2930.98 38700.9)
(-1463.96 -372.096 -4593.62 7955.15 8594.28 40808.5)
(2014.11 -1995.87 -7681.08 10437.4 12653 40343.8)
(4800.69 -3817.22 -11290.9 11353.8 14379.5 37222.4)
(8134.44 -5292.77 -14748 11241.6 13840.4 33345.6)
(12243.6 -5884.12 -17671.7 10603.8 11393.6 29803.4)
(16590.9 -5337.2 -19825.4 10049.9 7423.84 26942.1)
(20431.4 -3792.09 -20972.2 10409.9 2222.45 24432.1)
(22807.7 -1739.09 -20783.3 10568.4 -3902.5 18199.9)
(33606.8 828.043 -3038.51 3108.6 -5860.47 -10122.5)
(10674 1881.25 21801.7 -4752.55 -1036.05 -4744)
(11515.6 5094.16 21493.6 495.036 5366.16 8234.62)
(7693.58 7272.35 19601.8 1357.38 10398.2 13878.4)
(3625.87 7745.43 17003.3 2843.26 13717.4 19733.3)
(202.716 6613.84 13735.8 4047.67 15150.7 26067.7)
(-2205.85 4657.27 9946.34 4229.32 14162.4 32199.2)
(-4307.89 2954.72 6282.49 3320.92 10186.8 36419.4)
(-6702.65 1822.27 3854.56 2159.93 3524.69 37565.3)
(-2887.56 -542.459 4118.36 15403.5 -16814.3 36840.3)
(-4641.51 -8015.48 6738.45 38975.9 -24337.9 13526.5)
(-1195.33 -15665.8 7843.43 37656.7 -18202.4 2244.56)
(5016.1 -20256.8 7899.95 29050.3 -13134.6 -2669.54)
(11118.7 -21813.3 7548.27 18975.3 -9532.17 -6725.58)
(16677.5 -20589.9 7099.55 9137.89 -6508.47 -10746.1)
(21243.2 -16977.5 6616.19 790.354 -3473.04 -14459)
(24425.2 -11520.5 5868.9 -4387.45 -129.492 -17073.9)
(27897.6 -4966.67 4276.83 -2936.01 3739.87 -16138)
(30602.2 1605.94 -1774.9 710.963 5723.89 -14277.1)
(28741.8 8697.54 -7310.05 -841.223 1712.14 -13683.9)
(26604 15119.9 -7878.56 1339.3 -2519.58 -11656.2)
(22810 19713.5 -7990.23 8086.35 -5753.32 -8191.6)
(17465.6 21894.7 -8153.36 16742.6 -8828.55 -4264.71)
(11431.1 21412.3 -8325.64 25693.9 -12493.6 9.31961)
(5406.65 18547.1 -8220.12 33498.4 -17517.7 5390.27)
(942.521 13222.4 -7308.79 36927.1 -23647.7 16542.2)
(-646.592 4402.71 -4181.28 17188.2 -16672.4 38213.7)
(-1761.44 -71.9857 -3361.26 15524.1 15117.7 36602.2)
(-3544.75 -7379.45 -6190.59 35131.2 22574 13709.8)
(-627.251 -15215.2 -7607.37 34773.5 17668 1888.37)
(5706.04 -19989 -7973.28 27323.4 12972.6 -3088.24)
(12433.1 -21689 -7861.65 18220.6 9386.34 -6519.6)
(18741 -20598.7 -7545.11 9243.5 6429.64 -9499.27)
(23973.9 -17099.5 -7091.84 1548.73 3664.41 -12147.6)
(27468 -11756.1 -6351.29 -3526.94 763.165 -14254.2)
(29617 -5432.39 -4826.62 -3491.27 -2674.67 -14635)
(30022 504.394 1064.65 -182.339 -5453.8 -14734.3)
(27532.7 7203.94 7165.64 130.931 -2853.67 -14191.7)
(24697.3 14111.8 7889.68 1390.54 1462.91 -12678.8)
(20633.1 19169 8063.11 7106.24 4879.34 -9495.1)
(15434.7 21540.6 8250.62 15378.5 7926.98 -5515.2)
(9805.49 21027.6 8357.58 24264.1 11359.3 -1050.07)
(3964.34 18139.4 8130.7 31733.5 15795.2 4081.41)
(-595.942 13151.7 7289.58 34800.9 21279.6 14195.4)
(-2106.21 4529.58 4710.99 15400.5 15812.9 36230.5)
(6517.28 2163.19 2703.4 18651.5 8391.15 51699)
(2328.83 195.074 -1768.35 21030.1 20008.5 43673.3)
(-3014.56 -4587.94 -7960.14 17879.3 23380.2 30059.7)
(-6147.06 -9503.41 -13215.9 10965.5 21481.8 16235.2)
(-7587.97 -12756.7 -16858 1617.51 17655.9 3608.67)
(-8074.64 -13712.1 -19016 -8428.55 13677 -7413.54)
(-8003.69 -12510.7 -20076 -17171.7 10398.9 -16203.9)
(-6830.84 -9680.12 -20479.5 -21838.6 8207.77 -21556.6)
(-8705.72 -6057.59 -20032.5 -25928.4 7382.76 -29424.3)
(6589.08 1725.74 1626.81 -21656.1 6158.52 -37140.3)
(936.808 7230.97 17425.2 -14320.1 10244.8 -18798.3)
(-1182.22 10916.6 17943.4 -13219.8 11102.5 -14919.5)
(-2307.07 13154.3 17509.3 -7265.93 13480.3 -8338.05)
(-2000.13 13148.2 16001 1972.89 16843.9 1822.58)
(-787.125 10754.3 13103.1 10916.4 20204.1 14110.7)
(1303.4 6719.45 8642.95 16517.4 21854.7 27458)
(4024.72 3011.14 3000.83 17346.6 18685.9 40335.5)
(3763.53 1817.19 -1662.21 13639.7 7453.31 46897.8)
(545.829 2151.64 -1934.01 13584.9 -8920.32 44849.7)
(-4599.22 -147.134 2628.97 16332 -20719.9 34409.4)
(-9182.93 -5330.76 8500.55 13845.9 -23504.2 19931.1)
(-11301.7 -10441.8 13139.2 6934.44 -21215.9 6522.39)
(-11768.7 -13731.2 16288.9 -2483.76 -17398.2 -4865.87)
(-11504 -14627.5 18273.9 -12654.1 -13505.6 -14357.9)
(-11135.2 -13291.6 19455.6 -21776.3 -10148 -21896.7)
(-9801.12 -10312.7 20197.5 -26719.8 -7662.1 -26010.4)
(-12858.8 -6711.33 20562.9 -31116.4 -6520.88 -32542.3)
(4084.99 74.4573 3923.4 -24430.7 -5389.83 -39835.2)
(-1862.73 5959.18 -17401.2 -13447.4 -11692.3 -18239.6)
(-2147.97 9556.92 -17991.9 -10818.6 -12734.3 -11111.9)
(-1281 11922.1 -17449.7 -4152.88 -14975.7 -1997.36)
(767.622 11807.8 -15578.7 5797.83 -18207.5 10221.8)
(3566.95 9253.79 -12280.7 15243.3 -21238.8 24016.7)
(6330.76 5452.95 -7567.71 20770.2 -22454.8 37480)
(8864.39 2344.96 -1915.71 21707.8 -18847.7 48769.3)
(8564.97 1601.62 2530.4 18318.5 -7396.76 53248.4)
(-8062.2 749.919 5595.91 1890.94 -3827.69 34517.1)
(-3259.43 -950.834 7298.09 6489.38 -9792.16 37433.7)
(975.848 -3005.2 10146 10310.4 -13803.6 36989.1)
(4338.3 -5108.33 13180.6 12096 -15310.8 33492)
(8359.14 -6636.52 15906.5 12467.1 -14401 29187.6)
(13308.2 -7087.72 18167.7 11939.6 -11376.2 25096.2)
(18147.3 -6201.65 19769.5 10830.6 -6711.35 21286.5)
(21692.2 -4016.83 20410.7 10037.7 -969.955 17640.6)
(21882.3 -866.816 19758.4 8564.22 5244.87 11094.3)
(28498 3140.35 10142.4 2956.77 7367.91 -8667.69)
(7127.16 -401.78 -22918.5 -1245.94 2956.52 7127.61)
(10067.2 1539.93 -20862.2 3499.08 -2830.59 20716)
(7075.75 3145.05 -18442.4 1944.29 -7437.8 23587.4)
(3514.16 3807.47 -15535.6 1319.89 -10167.1 26710)
(-3.01991 3704.35 -12360.3 870.592 -10945.5 29947.1)
(-3030.73 3228.21 -9194.52 468.134 -9684.49 32596.1)
(-5889.19 2807.81 -6493.37 276.295 -6517.88 33531.3)
(-8417.15 2288.15 -4869.73 619.96 -2033.32 32867.3)
(-7860.14 1187.37 -4803.9 2383.37 3025.52 33706)
(-3586.99 -318.332 -6391.29 5708.81 7809.43 36459)
(904.662 -1989.31 -9179.99 8493.09 11250.8 37272)
(4711.81 -3679.1 -12450.8 9843.12 12681 35474.4)