/*--------------------------------*- C++ -*----------------------------------*\
| =========                 |                                                 |
| \\      /  F ield         | OpenFOAM: The Open Source CFD Toolbox           |
|  \\    /   O peration     | Version:  2312                                  |
|   \\  /    A nd           | Website:  www.openfoam.com                      |
|    \\/     M anipulation  |                                                 |
\*---------------------------------------------------------------------------*/
FoamFile
{
    version     2.0;
    format      ascii;
    arch        "LSB;label=32;scalar=64";
    class       volVectorField;
    location    "0.8";
    object      traction;
}
// * * * * * * * * * * * * * * * * * * * * * * * * * * * * * * * * * * * * * //

dimensions      [1 -1 -2 0 0 0 0];

internalField   uniform (0 0 0);

boundaryField
{
    fixed
    {
        type            calculated;
        value           nonuniform List<vector> 
108
(
(-300.843 22377.5 47463.9)
(-4182.05 21985.3 47464)
(-7936.22 20925 47463.9)
(-11449.3 19229 47463.8)
(-14614.4 16948.8 47463.8)
(-17335.5 14153.6 47463.9)
(-19529.9 10928.2 47463.8)
(-21130.8 7370.86 47463.9)
(-22089.7 3589.57 47464)
(-22377.5 -300.843 47463.9)
(-21985.3 -4182.05 47464)
(-20925 -7936.22 47463.9)
(-19229 -11449.3 47463.8)
(-16948.8 -14614.4 47463.8)
(-14153.6 -17335.5 47463.9)
(-10928.2 -19529.9 47463.8)
(-7370.86 -21130.8 47463.9)
(-3589.57 -22089.7 47464)
(300.843 -22377.5 47463.9)
(4182.05 -21985.3 47464)
(7936.22 -20925 47463.9)
(11449.3 -19229 47463.8)
(14614.4 -16948.8 47463.8)
(17335.5 -14153.6 47463.9)
(19529.9 -10928.2 47463.8)
(21130.8 -7370.86 47463.9)
(22089.7 -3589.57 47464)
(22377.5 300.843 47463.9)
(21985.3 4182.05 47464)
(20925 7936.22 47463.9)
(19229 11449.3 47463.8)
(16948.8 14614.4 47463.8)
(14153.6 17335.5 47463.9)
(10928.2 19529.9 47463.8)
(7370.86 21130.8 47463.9)
(3589.57 22089.7 47464)
(889.652 2345.77 14147.8)
(468.802 2464.61 14147.8)
(33.7075 2508.54 14147.7)
(-402.483 2476.39 14147.9)
(-826.471 2368.96 14147.8)
(-1225.2 2189.4 14147.7)
(-1586.64 1943.33 14147.8)
(-1900.02 1638.29 14147.9)
(-2155.64 1283.47 14147.8)
(-2345.77 889.652 14147.8)
(-2464.61 468.802 14147.9)
(-2508.54 33.7074 14147.7)
(-2476.39 -402.483 14147.9)
(-2368.96 -826.471 14147.8)
(-2189.4 -1225.2 14147.7)
(-1943.33 -1586.64 14147.8)
(-1638.29 -1900.02 14147.9)
(-1283.47 -2155.64 14147.8)
(-889.652 -2345.77 14147.8)
(-468.802 -2464.61 14147.9)
(-33.7076 -2508.54 14147.7)
(402.482 -2476.39 14147.9)
(826.471 -2368.96 14147.8)
(1225.2 -2189.4 14147.7)
(1586.64 -1943.33 14147.8)
(1900.02 -1638.29 14147.9)
(2155.64 -1283.47 14147.8)
(2345.77 -889.652 14147.8)
(2464.61 -468.802 14147.8)
(2508.54 -33.7076 14147.7)
(2476.39 402.482 14147.9)
(2368.96 826.471 14147.8)
(2189.4 1225.2 14147.7)
(1943.33 1586.64 14147.8)
(1638.29 1900.02 14147.9)
(1283.47 2155.64 14147.8)
(4424.95 -29586 17950.8)
(9495.26 -28368.2 17950.7)
(14277.1 -26288.3 17950.6)
(18625.2 -23409.8 17950.6)
(22407.2 -19819.9 17950.6)
(25508.5 -15627.8 17950.7)
(27834.7 -10960.9 17950.7)
(29315.2 -5960.88 17950.6)
(29904.9 -779.807 17950.7)
(29586 4424.95 17950.8)
(28368.2 9495.26 17950.8)
(26288.3 14277.1 17950.6)
(23409.8 18625.2 17950.6)
(19819.9 22407.2 17950.6)
(15627.8 25508.5 17950.7)
(10960.9 27834.7 17950.8)
(5960.88 29315.2 17950.6)
(779.807 29904.9 17950.7)
(-4424.95 29586 17950.8)
(-9495.26 28368.2 17950.8)
(-14277.1 26288.3 17950.6)
(-18625.2 23409.8 17950.6)
(-22407.2 19819.9 17950.6)
(-25508.5 15627.8 17950.7)
(-27834.7 10960.9 17950.8)
(-29315.2 5960.88 17950.6)
(-29904.9 779.807 17950.7)
(-29586 -4424.95 17950.8)
(-28368.2 -9495.26 17950.8)
(-26288.3 -14277.1 17950.6)
(-23409.8 -18625.2 17950.6)
(-19819.9 -22407.2 17950.6)
(-15627.8 -25508.5 17950.7)
(-10960.9 -27834.7 17950.7)
(-5960.88 -29315.2 17950.6)
(-779.807 -29904.9 17950.7)
)
;
    }
    inside
    {
        type            calculated;
        value           nonuniform List<vector> 
540
(
(4675.99 471.607 1615.18)
(4523.08 1276.38 1615.18)
(4232.89 2042.5 1615.27)
(3813.89 2746.53 1615.17)
(3278.96 3366.95 1615.24)
(2644.47 3885.18 1615.25)
(1929.62 4285.33 1615.17)
(1156.19 4555.44 1615.25)
(347.515 4686.89 1615.12)
(-471.606 4675.99 1615.18)
(-1276.37 4523.07 1615.18)
(-2042.5 4232.88 1615.27)
(-2746.52 3813.89 1615.17)
(-3366.94 3278.96 1615.24)
(-3885.18 2644.47 1615.25)
(-4285.33 1929.61 1615.17)
(-4555.44 1156.19 1615.25)
(-4686.89 347.515 1615.12)
(-4675.99 -471.606 1615.18)
(-4523.07 -1276.37 1615.18)
(-4232.88 -2042.5 1615.27)
(-3813.89 -2746.52 1615.17)
(-3278.96 -3366.94 1615.25)
(-2644.47 -3885.18 1615.25)
(-1929.62 -4285.33 1615.17)
(-1156.19 -4555.44 1615.25)
(-347.516 -4686.89 1615.12)
(471.606 -4675.99 1615.18)
(1276.38 -4523.07 1615.18)
(2042.5 -4232.89 1615.27)
(2746.53 -3813.89 1615.17)
(3366.95 -3278.96 1615.25)
(3885.18 -2644.47 1615.25)
(4285.34 -1929.62 1615.17)
(4555.44 -1156.19 1615.25)
(4686.9 -347.516 1615.12)
(26206.3 5686.26 3571.36)
(24820.9 10150.4 3571.2)
(22681.2 14306.3 3571.23)
(19852.4 18027.7 3571.22)
(16420.2 21201 3571.26)
(12489.1 23730.1 3571.27)
(8178.73 25538.4 3571.25)
(3619.8 26570.6 3571.3)
(-1048.98 26795.5 3571.17)
(-5686.26 26206.3 3571.36)
(-10150.4 24820.9 3571.2)
(-14306.3 22681.2 3571.23)
(-18027.7 19852.4 3571.22)
(-21201 16420.2 3571.26)
(-23730.1 12489.1 3571.27)
(-25538.4 8178.73 3571.25)
(-26570.6 3619.8 3571.3)
(-26795.5 -1048.97 3571.17)
(-26206.3 -5686.26 3571.36)
(-24820.9 -10150.4 3571.2)
(-22681.2 -14306.3 3571.23)
(-19852.4 -18027.7 3571.22)
(-16420.2 -21201 3571.26)
(-12489.1 -23730.1 3571.27)
(-8178.73 -25538.4 3571.25)
(-3619.8 -26570.6 3571.3)
(1048.98 -26795.5 3571.17)
(5686.26 -26206.3 3571.36)
(10150.4 -24820.9 3571.2)
(14306.3 -22681.2 3571.23)
(18027.7 -19852.4 3571.22)
(21201 -16420.2 3571.26)
(23730.1 -12489.1 3571.27)
(25538.4 -8178.73 3571.25)
(26570.6 -3619.8 3571.3)
(26795.5 1048.98 3571.17)
(31873.5 12545.5 3234.43)
(29210.9 17889.8 3234.32)
(25660.4 22690.2 3234.4)
(21330.6 26801.4 3234.37)
(16352.5 30098.3 3234.4)
(10877.5 32480.6 3234.42)
(5072.03 33876.1 3234.37)
(-887.651 34242 3234.41)
(-6820.08 33567.7 3234.36)
(-12545.5 31873.5 3234.43)
(-17889.8 29210.9 3234.32)
(-22690.2 25660.4 3234.39)
(-26801.4 21330.6 3234.37)
(-30098.3 16352.5 3234.4)
(-32480.6 10877.5 3234.42)
(-33876.1 5072.03 3234.37)
(-34242 -887.651 3234.41)
(-33567.7 -6820.07 3234.36)
(-31873.5 -12545.5 3234.42)
(-29210.9 -17889.8 3234.32)
(-25660.4 -22690.2 3234.39)
(-21330.6 -26801.4 3234.37)
(-16352.5 -30098.3 3234.4)
(-10877.5 -32480.6 3234.42)
(-5072.03 -33876.1 3234.37)
(887.651 -34242 3234.41)
(6820.08 -33567.7 3234.36)
(12545.5 -31873.5 3234.42)
(17889.8 -29210.9 3234.32)
(22690.2 -25660.4 3234.39)
(26801.4 -21330.6 3234.37)
(30098.3 -16352.5 3234.4)
(32480.6 -10877.5 3234.42)
(33876.1 -5072.03 3234.37)
(34242 887.651 3234.41)
(33567.7 6820.08 3234.36)
(37039.5 21315.2 3179.09)
(32775.6 27423.3 3179.28)
(27515.6 32698 3179.19)
(21419.6 36979.4 3179.19)
(14672.8 40137.1 3179.18)
(7480.13 42075.1 3179.17)
(60.236 42735 3179.16)
(-7361.41 42096 3179.18)
(-14559.7 40178.2 3179.27)
(-21315.2 37039.5 3179.09)
(-27423.3 32775.6 3179.28)
(-32698 27515.6 3179.19)
(-36979.4 21419.6 3179.19)
(-40137.1 14672.8 3179.18)
(-42075.1 7480.13 3179.16)
(-42735 60.2364 3179.16)
(-42096 -7361.41 3179.18)
(-40178.2 -14559.7 3179.27)
(-37039.5 -21315.2 3179.09)
(-32775.6 -27423.3 3179.28)
(-27515.6 -32698 3179.19)
(-21419.6 -36979.4 3179.19)
(-14672.8 -40137.1 3179.18)
(-7480.13 -42075.1 3179.16)
(-60.2362 -42735 3179.16)
(7361.41 -42096 3179.18)
(14559.7 -40178.2 3179.27)
(21315.2 -37039.5 3179.09)
(27423.3 -32775.6 3179.28)
(32698 -27515.6 3179.19)
(36979.4 -21419.6 3179.19)
(40137.1 -14672.8 3179.18)
(42075.1 -7480.13 3179.16)
(42735 -60.2356 3179.16)
(42096 7361.41 3179.18)
(40178.2 14559.7 3179.27)
(40067.1 30628.3 3632.12)
(34139.6 37120.6 3632.3)
(27175.1 42485 3632.15)
(19384.8 46558.5 3632.2)
(11005.5 49217.2 3632.19)
(2291.86 50380.6 3632.17)
(-6491.5 50013.1 3632.23)
(-15077.5 48126.2 3632.11)
(-23205.6 44776.8 3632.32)
(-30628.3 40067.1 3632.12)
(-37120.6 34139.6 3632.3)
(-42485 27175.1 3632.15)
(-46558.5 19384.8 3632.2)
(-49217.2 11005.5 3632.19)
(-50380.6 2291.86 3632.17)
(-50013.1 -6491.5 3632.23)
(-48126.2 -15077.5 3632.11)
(-44776.8 -23205.6 3632.32)
(-40067.1 -30628.3 3632.12)
(-34139.6 -37120.6 3632.3)
(-27175.1 -42485 3632.15)
(-19384.8 -46558.5 3632.2)
(-11005.5 -49217.2 3632.19)
(-2291.86 -50380.6 3632.17)
(6491.5 -50013.1 3632.23)
(15077.5 -48126.2 3632.11)
(23205.6 -44776.8 3632.32)
(30628.3 -40067.1 3632.12)
(37120.6 -34139.6 3632.3)
(42485 -27175.1 3632.15)
(46558.5 -19384.8 3632.2)
(49217.2 -11005.5 3632.19)
(50380.6 -2291.86 3632.17)
(50013.1 6491.5 3632.23)
(48126.2 15077.5 3632.11)
(44776.8 23205.6 3632.32)
(41171.6 39558.4 4489.25)
(33676.7 46106.8 4489.37)
(25158.8 51254.5 4489.4)
(15876.4 54844.3 4489.31)
(6111.58 56768.2 4489.3)
(-3839 56967.2 4489.3)
(-13672.8 55434.8 4489.2)
(-23091.3 52218.6 4489.23)
(-31808.3 47415.3 4489.38)
(-39558.4 41171.6 4489.25)
(-46106.8 33676.7 4489.37)
(-51254.5 25158.8 4489.4)
(-54844.3 15876.4 4489.31)
(-56768.2 6111.58 4489.3)
(-56967.2 -3839 4489.3)
(-55434.8 -13672.8 4489.2)
(-52218.6 -23091.3 4489.23)
(-47415.3 -31808.3 4489.37)
(-41171.6 -39558.4 4489.25)
(-33676.7 -46106.8 4489.37)
(-25158.8 -51254.5 4489.4)
(-15876.4 -54844.3 4489.31)
(-6111.58 -56768.2 4489.3)
(3839 -56967.2 4489.3)
(13672.8 -55434.8 4489.2)
(23091.3 -52218.6 4489.23)
(31808.3 -47415.3 4489.37)
(39558.4 -41171.6 4489.25)
(46106.8 -33676.7 4489.37)
(51254.5 -25158.8 4489.4)
(54844.3 -15876.4 4489.31)
(56768.2 -6111.58 4489.3)
(56967.2 3839 4489.3)
(55434.8 13672.8 4489.2)
(52218.6 23091.3 4489.23)
(47415.3 31808.3 4489.38)
(40407.2 47069.2 5619.64)
(31619.7 53370.4 5619.63)
(21871.7 58050.5 5619.61)
(11458.9 60966.6 5619.66)
(698.193 62030.1 5619.62)
(-10083.8 61209 5619.53)
(-20559.5 58528.1 5619.63)
(-30410.4 54069 5619.54)
(-39337.1 47966.5 5619.64)
(-47069.2 40407.2 5619.64)
(-53370.4 31619.7 5619.63)
(-58050.5 21871.7 5619.61)
(-60966.6 11458.9 5619.66)
(-62030.1 698.193 5619.62)
(-61209 -10083.8 5619.53)
(-58528.1 -20559.5 5619.63)
(-54069 -30410.4 5619.54)
(-47966.5 -39337.1 5619.63)
(-40407.2 -47069.2 5619.64)
(-31619.7 -53370.4 5619.63)
(-21871.7 -58050.5 5619.61)
(-11458.9 -60966.6 5619.66)
(-698.193 -62030.1 5619.62)
(10083.8 -61209 5619.53)
(20559.5 -58528.1 5619.63)
(30410.4 -54069 5619.54)
(39337.1 -47966.5 5619.63)
(47069.2 -40407.2 5619.64)
(53370.4 -31619.7 5619.63)
(58050.5 -21871.7 5619.61)
(60966.6 -11458.9 5619.66)
(62030.1 -698.193 5619.62)
(61209 10083.8 5619.53)
(58528.1 20559.5 5619.63)
(54069 30410.4 5619.54)
(47966.5 39337.1 5619.64)
(37678.7 51595.4 6963.51)
(28146.7 57354.4 6963.64)
(17759.9 61370.4 6963.53)
(6833.06 63522.2 6963.66)
(-4301.21 63743.7 6963.58)
(-15304.7 62028.5 6963.53)
(-25843.6 58428.5 6963.7)
(-35596.8 53053.1 6963.48)
(-44268.8 46065.8 6963.59)
(-51595.4 37678.7 6963.51)
(-57354.4 28146.7 6963.64)
(-61370.4 17759.9 6963.53)
(-63522.2 6833.07 6963.66)
(-63743.7 -4301.21 6963.58)
(-62028.5 -15304.7 6963.53)
(-58428.5 -25843.6 6963.7)
(-53053.1 -35596.8 6963.48)
(-46065.8 -44268.8 6963.59)
(-37678.7 -51595.4 6963.51)
(-28146.7 -57354.4 6963.64)
(-17759.9 -61370.4 6963.53)
(-6833.07 -63522.2 6963.66)
(4301.21 -63743.7 6963.58)
(15304.7 -62028.5 6963.53)
(25843.6 -58428.5 6963.7)
(35596.8 -53053.1 6963.48)
(44268.8 -46065.8 6963.59)
(51595.4 -37678.7 6963.51)
(57354.4 -28146.7 6963.64)
(61370.4 -17759.9 6963.53)
(63522.2 -6833.06 6963.66)
(63743.7 4301.21 6963.58)
(62028.5 15304.7 6963.53)
(58428.5 25843.6 6963.7)
(53053.1 35596.8 6963.48)
(46065.8 44268.8 6963.59)
(32977.1 51060.5 8433.17)
(23609.3 56011.7 8433.47)
(13524.3 59260.2 8433.38)
(3028.51 60708.7 8433.33)
(-7559.33 60312.3 8433.32)
(-17917.6 58083.3 8433.28)
(-27731.5 54089.4 8433.31)
(-36702.7 48452.2 8433.27)
(-44559.1 41342.8 8433.46)
(-51060.5 32977.1 8433.17)
(-56011.7 23609.3 8433.47)
(-59260.2 13524.3 8433.38)
(-60708.7 3028.51 8433.33)
(-60312.3 -7559.33 8433.32)
(-58083.3 -17917.6 8433.28)
(-54089.4 -27731.5 8433.31)
(-48452.2 -36702.7 8433.27)
(-41342.8 -44559.1 8433.46)
(-32977.1 -51060.5 8433.17)
(-23609.3 -56011.7 8433.47)
(-13524.3 -59260.2 8433.38)
(-3028.51 -60708.7 8433.33)
(7559.33 -60312.3 8433.32)
(17917.6 -58083.3 8433.28)
(27731.5 -54089.4 8433.31)
(36702.7 -48452.2 8433.27)
(44559.1 -41342.8 8433.46)
(51060.5 -32977.1 8433.17)
(56011.7 -23609.3 8433.47)
(59260.2 -13524.3 8433.38)
(60708.7 -3028.51 8433.33)
(60312.3 7559.33 8433.32)
(58083.3 17917.6 8433.28)
(54089.4 27731.5 8433.31)
(48452.2 36702.7 8433.27)
(41342.8 44559.1 8433.46)
(26821.5 43889.7 9726.1)
(18792.6 47880.6 9726.23)
(10192.6 50416.5 9726.29)
(1283.1 51420.6 9726.18)
(-7665.58 50862.2 9726.18)
(-16381.2 48758.3 9726.24)
(-24599 45173.1 9726.15)
(-32069.5 40215.2 9726.23)
(-38565.9 34035.4 9726.28)
(-43889.7 26821.5 9726.1)
(-47880.6 18792.6 9726.23)
(-50416.5 10192.6 9726.29)
(-51420.6 1283.1 9726.18)
(-50862.2 -7665.58 9726.18)
(-48758.3 -16381.2 9726.24)
(-45173.1 -24599 9726.15)
(-40215.2 -32069.5 9726.23)
(-34035.4 -38565.9 9726.28)
(-26821.5 -43889.7 9726.1)
(-18792.6 -47880.6 9726.23)
(-10192.6 -50416.5 9726.29)
(-1283.1 -51420.6 9726.18)
(7665.58 -50862.2 9726.18)
(16381.2 -48758.3 9726.24)
(24599 -45173.1 9726.15)
(32069.5 -40215.2 9726.23)
(38565.9 -34035.4 9726.28)
(43889.7 -26821.5 9726.1)
(47880.6 -18792.6 9726.23)
(50416.5 -10192.6 9726.29)
(51420.6 -1283.1 9726.18)
(50862.2 7665.58 9726.18)
(48758.3 16381.2 9726.24)
(45173.1 24599 9726.15)
(40215.2 32069.5 9726.24)
(34035.4 38565.9 9726.28)
(20429.9 29755.9 10798.5)
(14952.5 32851.8 10798.5)
(9020.66 34948.9 10798.6)
(2814.85 35984.5 10798.5)
(-3476.57 35926.6 10798.6)
(-9662.46 34777.2 10798.6)
(-15554.7 32571.1 10798.4)
(-20974 29374.9 10798.5)
(-25756.5 25286.6 10798.5)
(-29755.9 20429.9 10798.5)
(-32851.8 14952.5 10798.5)
(-34948.9 9020.66 10798.6)
(-35984.5 2814.85 10798.5)
(-35926.6 -3476.57 10798.6)
(-34777.2 -9662.46 10798.6)
(-32571.1 -15554.7 10798.4)
(-29374.9 -20974 10798.5)
(-25286.6 -25756.5 10798.5)
(-20429.9 -29755.9 10798.5)
(-14952.5 -32851.8 10798.5)
(-9020.66 -34948.9 10798.6)
(-2814.85 -35984.5 10798.5)
(3476.57 -35926.6 10798.6)
(9662.46 -34777.2 10798.6)
(15554.7 -32571.1 10798.4)
(20974 -29374.9 10798.5)
(25756.5 -25286.6 10798.5)
(29755.9 -20429.9 10798.5)
(32851.8 -14952.5 10798.5)
(34948.9 -9020.65 10798.6)
(35984.5 -2814.85 10798.5)
(35926.6 3476.57 10798.6)
(34777.2 9662.46 10798.6)
(32571.1 15554.7 10798.4)
(29374.9 20974 10798.5)
(25286.6 25756.5 10798.5)
(15549.6 9204.85 13414.3)
(13715 11765.4 13414.1)
(11463.6 13968.1 13414.2)
(8863.84 15746.7 13414.1)
(5994.77 17046.7 13414.1)
(2943.53 17828.8 13414.1)
(-196.972 18068.8 13414.1)
(-3331.44 17760 13414.3)
(-6364.75 16911.6 13414.2)
(-9204.85 15549.6 13414.3)
(-11765.4 13715 13414.1)
(-13968.1 11463.6 13414.2)
(-15746.7 8863.84 13414.1)
(-17046.7 5994.77 13414.1)
(-17828.8 2943.53 13414.1)
(-18068.8 -196.975 13414.1)
(-17760 -3331.44 13414.3)
(-16911.6 -6364.76 13414.2)
(-15549.6 -9204.85 13414.3)
(-13715 -11765.4 13414.1)
(-11463.6 -13968.1 13414.2)
(-8863.84 -15746.7 13414.1)
(-5994.77 -17046.7 13414.1)
(-2943.53 -17828.8 13414.1)
(196.976 -18068.8 13414.1)
(3331.44 -17760 13414.3)
(6364.75 -16911.6 13414.2)
(9204.85 -15549.6 13414.3)
(11765.4 -13714.9 13414.1)
(13968.1 -11463.6 13414.2)
(15746.7 -8863.84 13414.1)
(17046.7 -5994.77 13414.1)
(17828.8 -2943.53 13414.1)
(18068.8 196.974 13414.1)
(17760 3331.44 13414.3)
(16911.6 6364.76 13414.2)
(13735.3 -15832.5 21878.4)
(16275.8 -13206.5 21878.2)
(18321.9 -10179.6 21878.3)
(19811.2 -6843.38 21878.2)
(20698.5 -3299.12 21878.1)
(20957.3 344.837 21878.5)
(20578.8 3979 21878.3)
(19575.8 7491.7 21878.7)
(17977.1 10777.3 21878.4)
(15832.5 13735.3 21878.4)
(13206.5 16275.8 21878.2)
(10179.6 18321.9 21878.3)
(6843.37 19811.2 21878.2)
(3299.11 20698.5 21878.1)
(-344.842 20957.3 21878.5)
(-3979 20578.8 21878.2)
(-7491.7 19575.8 21878.7)
(-10777.3 17977.1 21878.4)
(-13735.3 15832.5 21878.4)
(-16275.8 13206.5 21878.2)
(-18321.9 10179.6 21878.3)
(-19811.2 6843.37 21878.2)
(-20698.5 3299.11 21878.1)
(-20957.3 -344.841 21878.5)
(-20578.8 -3979 21878.2)
(-19575.8 -7491.7 21878.7)
(-17977.1 -10777.3 21878.4)
(-15832.5 -13735.3 21878.4)
(-13206.5 -16275.8 21878.2)
(-10179.6 -18321.9 21878.3)
(-6843.38 -19811.2 21878.2)
(-3299.12 -20698.5 21878.1)
(344.841 -20957.3 21878.5)
(3979 -20578.8 21878.2)
(7491.7 -19575.8 21878.7)
(10777.3 -17977.1 21878.4)
(14393.7 -36978.1 40800.7)
(20597 -33916.6 40800.7)
(26172.9 -29824.8 40800.5)
(30954.8 -24827 40801.2)
(34795.6 -19074.4 40800.9)
(37579.5 -12742.7 40801.3)
(39221.8 -6023.34 40801.7)
(39671.4 878.508 40801.2)
(38916.3 7754.81 40801.3)
(36978.1 14393.7 40800.7)
(33916.6 20597 40800.7)
(29824.8 26172.9 40800.5)
(24827 30954.8 40801.2)
(19074.4 34795.6 40800.9)
(12742.7 37579.5 40801.3)
(6023.33 39221.8 40801.7)
(-878.507 39671.4 40801.2)
(-7754.81 38916.3 40801.3)
(-14393.7 36978.1 40800.7)
(-20597 33916.6 40800.7)
(-26172.9 29824.8 40800.5)
(-30954.8 24827 40801.2)
(-34795.6 19074.4 40800.9)
(-37579.5 12742.7 40801.3)
(-39221.8 6023.34 40801.7)
(-39671.4 -878.504 40801.2)
(-38916.3 -7754.81 40801.3)
(-36978.1 -14393.7 40800.7)
(-33916.6 -20597 40800.7)
(-29824.8 -26172.9 40800.5)
(-24827 -30954.8 40801.2)
(-19074.4 -34795.6 40800.9)
(-12742.7 -37579.5 40801.3)
(-6023.34 -39221.8 40801.7)
(878.505 -39671.4 40801.2)
(7754.81 -38916.3 40801.3)
(14317.3 -26207.2 42452.1)
(18651 -23322.4 42451.2)
(22417.1 -19728.4 42448.3)
(25503.7 -15539.9 42459.3)
(27811.1 -10868.3 42440.7)
(29282.4 -5881.24 42463.1)
(29852 -701.823 42443.9)
(29525.1 4490.04 42455.8)
(28294.8 9549.72 42450.5)
(26207.1 14317.3 42452)
(23322.4 18651 42451.2)
(19728.4 22417.1 42448.2)
(15539.9 25503.7 42459.3)
(10868.3 27811.1 42440.7)
(5881.24 29282.4 42463.1)
(701.824 29852 42443.9)
(-4490.04 29525.1 42455.8)
(-9549.72 28294.8 42450.5)
(-14317.3 26207.2 42452)
(-18651 23322.5 42451.2)
(-22417.1 19728.4 42448.2)
(-25503.7 15539.9 42459.3)
(-27811.1 10868.3 42440.7)
(-29282.4 5881.25 42463.1)
(-29852 701.828 42443.9)
(-29525.1 -4490.04 42455.8)
(-28294.8 -9549.73 42450.5)
(-26207.2 -14317.3 42452.1)
(-23322.5 -18651 42451.2)
(-19728.4 -22417.1 42448.2)
(-15539.9 -25503.7 42459.3)
(-10868.3 -27811.1 42440.7)
(-5881.25 -29282.4 42463.1)
(-701.83 -29852 42443.9)
(4490.04 -29525.1 42455.8)
(9549.72 -28294.8 42450.5)
)
;
    }
    outside
    {
        type            calculated;
        value           nonuniform List<vector> 
540
(
(23655.5 1663.59 -1307.08)
(23007.2 5746.22 -1306.91)
(21659.9 9653.93 -1307.13)
(19654.3 13268.3 -1307.05)
(17051.6 16479.8 -1306.83)
(13930.9 19190.5 -1306.84)
(10387 21318 -1307.09)
(6527.46 22797.8 -1307.09)
(2469.39 23585 -1307.04)
(-1663.59 23655.5 -1307.08)
(-5746.22 23007.2 -1306.91)
(-9653.93 21659.9 -1307.13)
(-13268.3 19654.3 -1307.05)
(-16479.8 17051.6 -1306.83)
(-19190.5 13930.9 -1306.84)
(-21318 10387 -1307.1)
(-22797.8 6527.46 -1307.09)
(-23585 2469.39 -1307.04)
(-23655.5 -1663.59 -1307.09)
(-23007.2 -5746.22 -1306.92)
(-21659.9 -9653.93 -1307.13)
(-19654.3 -13268.3 -1307.05)
(-17051.6 -16479.8 -1306.83)
(-13930.9 -19190.5 -1306.84)
(-10387 -21318 -1307.1)
(-6527.46 -22797.8 -1307.09)
(-2469.39 -23585 -1307.04)
(1663.59 -23655.5 -1307.09)
(5746.21 -23007.2 -1306.92)
(9653.93 -21659.9 -1307.13)
(13268.3 -19654.3 -1307.05)
(16479.8 -17051.6 -1306.83)
(19190.5 -13930.9 -1306.84)
(21318 -10387 -1307.1)
(22797.8 -6527.46 -1307.09)
(23585 -2469.39 -1307.04)
(7116.39 -133.657 -1347.79)
(7031.43 1104.3 -1347.48)
(6732.98 2308.57 -1347.52)
(6229.72 3442.42 -1347.72)
(5537.33 4471.94 -1347.75)
(4676.57 5365.69 -1347.49)
(3673.78 6096.08 -1347.52)
(2559.46 6641.58 -1347.6)
(1367.21 6985.09 -1347.55)
(133.658 7116.39 -1347.79)
(-1104.3 7031.43 -1347.48)
(-2308.57 6732.98 -1347.52)
(-3442.41 6229.72 -1347.72)
(-4471.94 5537.33 -1347.75)
(-5365.69 4676.57 -1347.49)
(-6096.08 3673.78 -1347.52)
(-6641.58 2559.46 -1347.6)
(-6985.09 1367.21 -1347.55)
(-7116.39 133.658 -1347.79)
(-7031.43 -1104.3 -1347.48)
(-6732.98 -2308.57 -1347.52)
(-6229.72 -3442.41 -1347.72)
(-5537.33 -4471.94 -1347.75)
(-4676.57 -5365.69 -1347.49)
(-3673.78 -6096.08 -1347.52)
(-2559.46 -6641.58 -1347.6)
(-1367.21 -6985.09 -1347.55)
(-133.658 -7116.39 -1347.79)
(1104.3 -7031.43 -1347.48)
(2308.57 -6732.98 -1347.52)
(3442.41 -6229.72 -1347.72)
(4471.94 -5537.33 -1347.75)
(5365.69 -4676.57 -1347.49)
(6096.08 -3673.78 -1347.52)
(6641.58 -2559.46 -1347.6)
(6985.09 -1367.21 -1347.55)
(6987.96 514.833 -674.819)
(6792.15 1720.3 -674.946)
(6390.4 2873.81 -674.852)
(5794.16 3939.63 -674.94)
(5022.16 4886.06 -675.02)
(4097.45 5684 -674.994)
(3048.1 6308.85 -674.935)
(1906.25 6742.48 -674.911)
(706.361 6970.9 -674.673)
(-514.832 6987.96 -674.819)
(-1720.3 6792.15 -674.946)
(-2873.81 6390.4 -674.852)
(-3939.63 5794.16 -674.941)
(-4886.06 5022.16 -675.021)
(-5684 4097.45 -674.995)
(-6308.85 3048.1 -674.936)
(-6742.48 1906.25 -674.912)
(-6970.9 706.361 -674.674)
(-6987.96 -514.832 -674.819)
(-6792.15 -1720.3 -674.947)
(-6390.4 -2873.81 -674.853)
(-5794.16 -3939.63 -674.941)
(-5022.16 -4886.06 -675.022)
(-4097.45 -5684 -674.995)
(-3048.1 -6308.85 -674.936)
(-1906.25 -6742.48 -674.912)
(-706.361 -6970.9 -674.674)
(514.832 -6987.96 -674.819)
(1720.3 -6792.15 -674.946)
(2873.81 -6390.4 -674.853)
(3939.63 -5794.16 -674.94)
(4886.06 -5022.16 -675.021)
(5684 -4097.45 -674.994)
(6308.85 -3048.1 -674.936)
(6742.48 -1906.25 -674.911)
(6970.9 -706.361 -674.673)
(6333.48 1440.98 959.111)
(5987 2518.95 959.192)
(5458.59 3520.25 959.165)
(4764.47 4414.71 959.139)
(3925.42 5175.06 959.357)
(2967.22 5778.06 959.198)
(1918.83 6205.54 959.113)
(812.152 6444.27 958.998)
(-319.365 6487.51 959.187)
(-1440.98 6333.48 959.111)
(-2518.95 5987 959.192)
(-3520.25 5458.59 959.165)
(-4414.71 4764.47 959.139)
(-5175.06 3925.43 959.356)
(-5778.06 2967.22 959.197)
(-6205.54 1918.83 959.113)
(-6444.26 812.152 958.998)
(-6487.51 -319.364 959.187)
(-6333.48 -1440.98 959.111)
(-5987 -2518.95 959.191)
(-5458.59 -3520.25 959.164)
(-4764.47 -4414.71 959.138)
(-3925.43 -5175.06 959.356)
(-2967.22 -5778.06 959.197)
(-1918.83 -6205.54 959.113)
(-812.152 -6444.26 958.998)
(319.364 -6487.51 959.187)
(1440.98 -6333.48 959.111)
(2518.95 -5987 959.192)
(3520.25 -5458.59 959.165)
(4414.71 -4764.47 959.139)
(5175.06 -3925.43 959.356)
(5778.06 -2967.22 959.198)
(6205.54 -1918.83 959.113)
(6444.27 -812.152 958.998)
(6487.51 319.365 959.187)
(5405.48 2108.51 2628.18)
(4957.3 3015.33 2628.35)
(4358.26 3830.17 2628.31)
(3627.13 4528.92 2628.15)
(2785.49 5089.87 2628.27)
(1859.28 5496.17 2628.3)
(876.671 5735.82 2628.31)
(-132.572 5800.54 2628.18)
(-1137.93 5689.59 2628.27)
(-2108.51 5405.48 2628.18)
(-3015.33 4957.3 2628.35)
(-3830.17 4358.26 2628.31)
(-4528.92 3627.13 2628.15)
(-5089.87 2785.49 2628.27)
(-5496.17 1859.28 2628.3)
(-5735.82 876.672 2628.31)
(-5800.54 -132.572 2628.18)
(-5689.59 -1137.93 2628.27)
(-5405.48 -2108.51 2628.18)
(-4957.3 -3015.33 2628.35)
(-4358.26 -3830.17 2628.31)
(-3627.13 -4528.92 2628.15)
(-2785.49 -5089.87 2628.27)
(-1859.28 -5496.17 2628.3)
(-876.672 -5735.82 2628.31)
(132.572 -5800.54 2628.18)
(1137.93 -5689.59 2628.27)
(2108.51 -5405.48 2628.18)
(3015.33 -4957.3 2628.35)
(3830.17 -4358.26 2628.31)
(4528.92 -3627.13 2628.15)
(5089.87 -2785.49 2628.27)
(5496.17 -1859.28 2628.3)
(5735.82 -876.671 2628.31)
(5800.54 132.572 2628.18)
(5689.59 1137.93 2628.27)
(4120.43 2243.56 4146.83)
(3668.37 2925.17 4146.99)
(3104.57 3517.61 4147)
(2446.68 4003.32 4146.83)
(1714.29 4367.26 4146.82)
(929.841 4598.58 4146.93)
(117.208 4690.27 4146.93)
(-699.043 4639.25 4147.01)
(-1494.08 4447.58 4146.9)
(-2243.56 4120.43 4146.83)
(-2925.17 3668.37 4146.99)
(-3517.61 3104.57 4147)
(-4003.32 2446.68 4146.83)
(-4367.26 1714.29 4146.82)
(-4598.58 929.842 4146.93)
(-4690.27 117.208 4146.93)
(-4639.25 -699.042 4147.01)
(-4447.58 -1494.08 4146.9)
(-4120.43 -2243.56 4146.83)
(-3668.37 -2925.17 4146.99)
(-3104.57 -3517.61 4147)
(-2446.68 -4003.32 4146.83)
(-1714.29 -4367.26 4146.82)
(-929.842 -4598.58 4146.93)
(-117.208 -4690.27 4146.93)
(699.043 -4639.25 4147.01)
(1494.08 -4447.58 4146.9)
(2243.56 -4120.43 4146.83)
(2925.17 -3668.37 4146.99)
(3517.61 -3104.57 4147)
(4003.32 -2446.68 4146.83)
(4367.26 -1714.29 4146.82)
(4598.58 -929.841 4146.93)
(4690.27 -117.207 4146.93)
(4639.25 699.043 4147.01)
(4447.58 1494.08 4146.9)
(2515.56 1533.69 5393.29)
(2211.16 1947.34 5393.22)
(1839.15 2301.39 5393.34)
(1411.79 2586.22 5393.27)
(941.161 2791.68 5393.2)
(442.09 2912.68 5393.23)
(-70.4141 2945.49 5393.18)
(-580.824 2888.26 5393.37)
(-1073.6 2743.72 5393.31)
(-1533.69 2515.56 5393.29)
(-1947.34 2211.16 5393.22)
(-2301.39 1839.14 5393.34)
(-2586.22 1411.79 5393.27)
(-2791.68 941.16 5393.2)
(-2912.68 442.09 5393.22)
(-2945.49 -70.4137 5393.18)
(-2888.26 -580.823 5393.37)
(-2743.72 -1073.6 5393.31)
(-2515.56 -1533.69 5393.29)
(-2211.16 -1947.34 5393.22)
(-1839.14 -2301.39 5393.34)
(-1411.79 -2586.22 5393.27)
(-941.16 -2791.68 5393.2)
(-442.09 -2912.68 5393.22)
(70.4141 -2945.49 5393.18)
(580.824 -2888.26 5393.37)
(1073.6 -2743.72 5393.31)
(1533.69 -2515.56 5393.29)
(1947.34 -2211.16 5393.22)
(2301.39 -1839.14 5393.34)
(2586.22 -1411.79 5393.27)
(2791.68 -941.16 5393.2)
(2912.68 -442.089 5393.23)
(2945.49 70.4144 5393.18)
(2888.26 580.824 5393.37)
(2743.72 1073.6 5393.31)
(798.643 -219.141 6396.05)
(824.562 -77.1039 6396.22)
(825.322 67.0344 6396.18)
(801.197 209.553 6396.32)
(752.609 345.283 6396.27)
(681.2 470.817 6396.25)
(589.101 581.999 6396.15)
(479.088 675.415 6396.3)
(354.612 748.238 6396.14)
(219.141 798.642 6396.05)
(77.1048 824.561 6396.22)
(-67.0332 825.321 6396.18)
(-209.552 801.197 6396.32)
(-345.281 752.609 6396.27)
(-470.816 681.2 6396.24)
(-581.997 589.101 6396.15)
(-675.414 479.088 6396.3)
(-748.237 354.612 6396.14)
(-798.642 219.142 6396.05)
(-824.561 77.1051 6396.22)
(-825.321 -67.0332 6396.18)
(-801.196 -209.552 6396.32)
(-752.609 -345.282 6396.27)
(-681.2 -470.817 6396.25)
(-589.101 -581.998 6396.15)
(-479.087 -675.415 6396.3)
(-354.611 -748.238 6396.14)
(-219.141 -798.643 6396.05)
(-77.104 -824.562 6396.22)
(67.0341 -825.321 6396.18)
(209.553 -801.196 6396.32)
(345.282 -752.608 6396.27)
(470.817 -681.199 6396.25)
(581.998 -589.101 6396.15)
(675.415 -479.087 6396.3)
(748.238 -354.611 6396.14)
(-548.619 -2836.14 7535.47)
(-47.7293 -2888.26 7535.46)
(454.519 -2852.72 7535.46)
(942.989 -2730.44 7535.42)
(1402.79 -2525.25 7535.41)
(1819.99 -2243.29 7535.42)
(2181.89 -1893.27 7535.41)
(2477.47 -1485.49 7535.52)
(2697.74 -1032.66 7535.54)
(2836.14 -548.62 7535.47)
(2888.26 -47.7295 7535.46)
(2852.72 454.519 7535.46)
(2730.45 942.989 7535.42)
(2525.25 1402.79 7535.41)
(2243.29 1819.99 7535.42)
(1893.27 2181.89 7535.41)
(1485.5 2477.47 7535.52)
(1032.66 2697.74 7535.54)
(548.62 2836.14 7535.47)
(47.7298 2888.26 7535.46)
(-454.518 2852.72 7535.46)
(-942.988 2730.45 7535.42)
(-1402.79 2525.25 7535.41)
(-1819.99 2243.29 7535.42)
(-2181.89 1893.27 7535.41)
(-2477.47 1485.49 7535.52)
(-2697.74 1032.66 7535.54)
(-2836.14 548.619 7535.48)
(-2888.26 47.7294 7535.46)
(-2852.72 -454.519 7535.47)
(-2730.45 -942.988 7535.42)
(-2525.25 -1402.79 7535.41)
(-2243.29 -1819.99 7535.42)
(-1893.27 -2181.89 7535.41)
(-1485.49 -2477.47 7535.52)
(-1032.66 -2697.74 7535.54)
(-1137.69 -6026.94 9643.35)
(-73.9382 -6133.06 9643.3)
(992.211 -6052.66 9643.33)
(2028.21 -5788.3 9643.34)
(3002.51 -5348.22 9643.31)
(3885.62 -4745.66 9643.39)
(4650.65 -3998.83 9643.33)
(5274.33 -3130.38 9643.23)
(5737.81 -2166.96 9643.34)
(6026.94 -1137.69 9643.35)
(6133.06 -73.9383 9643.3)
(6052.66 992.211 9643.33)
(5788.3 2028.21 9643.34)
(5348.22 3002.51 9643.31)
(4745.66 3885.62 9643.39)
(3998.83 4650.65 9643.33)
(3130.38 5274.33 9643.23)
(2166.96 5737.81 9643.34)
(1137.69 6026.94 9643.35)
(73.9386 6133.06 9643.3)
(-992.21 6052.66 9643.33)
(-2028.21 5788.3 9643.34)
(-3002.51 5348.22 9643.31)
(-3885.62 4745.66 9643.39)
(-4650.65 3998.83 9643.33)
(-5274.33 3130.38 9643.23)
(-5737.81 2166.96 9643.34)
(-6026.94 1137.69 9643.35)
(-6133.06 73.9384 9643.3)
(-6052.66 -992.211 9643.33)
(-5788.3 -2028.21 9643.34)
(-5348.22 -3002.51 9643.31)
(-4745.66 -3885.62 9643.39)
(-3998.83 -4650.65 9643.33)
(-3130.38 -5274.33 9643.23)
(-2166.96 -5737.81 9643.34)
(-1105.42 -9941.56 13305.5)
(637.536 -9982.72 13305.4)
(2361.34 -9720.18 13305.4)
(4013.4 -9162.36 13305.4)
(5543.41 -8326.2 13305.4)
(6905.04 -7237.16 13305.4)
(8056.86 -5928.06 13305.4)
(8963.92 -4439.14 13305.4)
(9598.62 -2815.08 13305.5)
(9941.56 -1105.42 13305.5)
(9982.72 637.536 13305.4)
(9720.18 2361.34 13305.4)
(9162.37 4013.4 13305.4)
(8326.2 5543.42 13305.4)
(7237.16 6905.04 13305.4)
(5928.06 8056.86 13305.4)
(4439.14 8963.92 13305.4)
(2815.08 9598.62 13305.5)
(1105.42 9941.56 13305.5)
(-637.536 9982.72 13305.4)
(-2361.34 9720.18 13305.4)
(-4013.4 9162.37 13305.4)
(-5543.42 8326.2 13305.4)
(-6905.04 7237.16 13305.4)
(-8056.86 5928.06 13305.4)
(-8963.92 4439.14 13305.4)
(-9598.62 2815.08 13305.5)
(-9941.56 1105.42 13305.5)
(-9982.72 -637.536 13305.4)
(-9720.19 -2361.34 13305.4)
(-9162.37 -4013.4 13305.4)
(-8326.2 -5543.42 13305.4)
(-7237.17 -6905.05 13305.4)
(-5928.06 -8056.86 13305.4)
(-4439.14 -8963.92 13305.4)
(-2815.08 -9598.62 13305.5)
(-519.53 -13550.7 17928.1)
(1841.3 -13435 17928)
(4146.42 -12910.8 17928)
(6325.26 -11994.9 17928)
(8311.99 -10714.1 17928)
(10046.2 -9108.01 17928)
(11475.1 -7224.87 17928)
(12555.5 -5122.73 17928)
(13254.6 -2864.89 17928.3)
(13550.7 -519.53 17928.1)
(13435 1841.3 17928.1)
(12910.8 4146.42 17928)
(11994.9 6325.27 17928)
(10714.1 8311.99 17928)
(9108.01 10046.2 17928)
(7224.87 11475.1 17928)
(5122.73 12555.5 17928)
(2864.89 13254.6 17928.3)
(519.53 13550.7 17928.1)
(-1841.3 13435 17928.1)
(-4146.42 12910.8 17928)
(-6325.27 11994.9 17928)
(-8311.99 10714.1 17928)
(-10046.2 9108.01 17928)
(-11475.1 7224.87 17928)
(-12555.5 5122.73 17928)
(-13254.6 2864.89 17928.3)
(-13550.7 519.53 17928.1)
(-13435 -1841.3 17928.1)
(-12910.8 -4146.42 17928)
(-11994.9 -6325.27 17928)
(-10714.1 -8311.99 17928)
(-9108.01 -10046.2 17928)
(-7224.87 -11475.1 17928)