/*--------------------------------*- C++ -*----------------------------------*\
| =========                 |                                                 |
| \\      /  F ield         | OpenFOAM: The Open Source CFD Toolbox           |
|  \\    /   O peration     | Version:  2312                                  |
|   \\  /    A nd           | Website:  www.openfoam.com                      |
|    \\/     M anipulation  |                                                 |
\*---------------------------------------------------------------------------*/
FoamFile
{
    version     2.0;
    format      ascii;
    arch        "LSB;label=32;scalar=64";
    class       volVectorField;
    location    "0.8";
    object      U;
}
// * * * * * * * * * * * * * * * * * * * * * * * * * * * * * * * * * * * * * //

dimensions      [0 1 -1 0 0 0 0];

internalField   nonuniform List<vector> 
1620
(
(0.000229411 0.000112535 4.02102e-05)
(0.000186297 4.4277e-05 -0.000130043)
(0.000157858 -3.07519e-05 -0.000230356)
(0.000129712 -5.96677e-05 -0.000260732)
(9.99393e-05 -5.21947e-05 -0.000244073)
(7.58683e-05 -3.45701e-05 -0.000200452)
(6.24487e-05 -1.94555e-05 -0.000146946)
(5.69847e-05 -7.29031e-06 -9.69783e-05)
(5.18882e-05 3.70033e-06 -5.83614e-05)
(3.94104e-05 1.30171e-05 -3.36426e-05)
(1.50384e-05 1.95702e-05 -2.10732e-05)
(-2.1105e-05 2.63861e-05 -1.44684e-05)
(-6.57582e-05 4.29729e-05 -1.90987e-06)
(-0.000117073 7.68949e-05 3.46092e-05)
(-0.000176758 0.000112551 0.000111721)
(-0.000241098 0.000101482 0.000218549)
(-0.000286432 9.98705e-06 0.000281659)
(-0.000278614 -9.53912e-05 0.000209378)
(-0.000229411 -0.000112535 4.02102e-05)
(-0.000186297 -4.4277e-05 -0.000130043)
(-0.000157858 3.07519e-05 -0.000230356)
(-0.000129712 5.96677e-05 -0.000260732)
(-9.99393e-05 5.21947e-05 -0.000244073)
(-7.58683e-05 3.45701e-05 -0.000200452)
(-6.24487e-05 1.94555e-05 -0.000146946)
(-5.69847e-05 7.29031e-06 -9.69783e-05)
(-5.18882e-05 -3.70033e-06 -5.83614e-05)
(-3.94104e-05 -1.30171e-05 -3.36426e-05)
(-1.50384e-05 -1.95702e-05 -2.10732e-05)
(2.1105e-05 -2.63861e-05 -1.44684e-05)
(6.57582e-05 -4.29729e-05 -1.90987e-06)
(0.000117073 -7.68949e-05 3.46092e-05)
(0.000176758 -0.000112551 0.000111721)
(0.000241098 -0.000101482 0.000218549)
(0.000286432 -9.98705e-06 0.000281659)
(0.000278614 9.53912e-05 0.000209378)
(0.000219333 3.95886e-05 2.7276e-05)
(0.000244316 -3.04889e-06 -5.56385e-05)
(0.000258764 -2.81388e-05 -0.000113799)
(0.000254535 -1.89166e-05 -0.000145546)
(0.000231868 9.73525e-06 -0.0001588)
(0.00019906 4.02607e-05 -0.000157623)
(0.000164615 6.51932e-05 -0.000146422)
(0.000132074 8.46996e-05 -0.00013053)
(0.000100327 0.000100823 -0.000113473)
(6.62218e-05 0.000114232 -9.57377e-05)
(2.73007e-05 0.000123716 -7.54177e-05)
(-1.57591e-05 0.000127572 -4.95052e-05)
(-5.85097e-05 0.00012538 -1.50085e-05)
(-9.59844e-05 0.00011671 2.97766e-05)
(-0.000127496 9.56415e-05 8.17176e-05)
(-0.000155602 5.1591e-05 0.000126581)
(-0.000179105 -1.03634e-05 0.000139198)
(-0.000197321 -5.05079e-05 0.00010309)
(-0.000219333 -3.95886e-05 2.7276e-05)
(-0.000244316 3.04889e-06 -5.56385e-05)
(-0.000258764 2.81388e-05 -0.000113799)
(-0.000254535 1.89166e-05 -0.000145546)
(-0.000231868 -9.73525e-06 -0.0001588)
(-0.00019906 -4.02607e-05 -0.000157623)
(-0.000164615 -6.51932e-05 -0.000146422)
(-0.000132074 -8.46996e-05 -0.00013053)
(-0.000100327 -0.000100823 -0.000113473)
(-6.62218e-05 -0.000114232 -9.57377e-05)
(-2.73007e-05 -0.000123716 -7.54177e-05)
(1.57591e-05 -0.000127572 -4.95052e-05)
(5.85097e-05 -0.00012538 -1.50085e-05)
(9.59844e-05 -0.00011671 2.97766e-05)
(0.000127496 -9.56415e-05 8.17176e-05)
(0.000155602 -5.1591e-05 0.000126581)
(0.000179105 1.03634e-05 0.000139198)
(0.000197321 5.05079e-05 0.00010309)
(0.00016317 9.01085e-06 -7.75653e-06)
(0.000235505 -2.14689e-05 -3.19779e-05)
(0.000296739 -1.17241e-05 -5.69084e-05)
(0.000334293 2.78743e-05 -8.97023e-05)
(0.000341084 7.72163e-05 -0.000127538)
(0.000320483 0.000124515 -0.000159912)
(0.000281181 0.000165597 -0.000179477)
(0.000231132 0.000198997 -0.000184397)
(0.000175829 0.000223245 -0.000174675)
(0.000119274 0.000235872 -0.000149676)
(6.55758e-05 0.000233234 -0.000109098)
(2.01373e-05 0.000211192 -5.61245e-05)
(-1.11701e-05 0.000167183 -2.21418e-08)
(-2.61575e-05 0.000103379 4.5405e-05)
(-3.04991e-05 2.94115e-05 6.84043e-05)
(-3.53567e-05 -3.62372e-05 6.56088e-05)
(-5.24137e-05 -6.85179e-05 4.46079e-05)
(-9.49496e-05 -5.23533e-05 1.88946e-05)
(-0.00016317 -9.01085e-06 -7.75653e-06)
(-0.000235505 2.14689e-05 -3.19779e-05)
(-0.000296739 1.17241e-05 -5.69084e-05)
(-0.000334293 -2.78743e-05 -8.97023e-05)
(-0.000341084 -7.72163e-05 -0.000127538)
(-0.000320483 -0.000124515 -0.000159912)
(-0.000281181 -0.000165597 -0.000179477)
(-0.000231132 -0.000198997 -0.000184397)
(-0.000175829 -0.000223245 -0.000174675)
(-0.000119274 -0.000235872 -0.000149676)
(-6.55758e-05 -0.000233234 -0.000109098)
(-2.01373e-05 -0.000211192 -5.61245e-05)
(1.11701e-05 -0.000167183 -2.21437e-08)
(2.61575e-05 -0.000103379 4.5405e-05)
(3.04991e-05 -2.94115e-05 6.84043e-05)
(3.53567e-05 3.62372e-05 6.56088e-05)
(5.24137e-05 6.85179e-05 4.46079e-05)
(9.49496e-05 5.23533e-05 1.88946e-05)
(0.000606777 9.75575e-05 0.000152361)
(0.0006056 -6.19482e-05 -0.000302628)
(0.000590461 -0.000135835 -0.00060133)
(0.000530201 -8.09504e-05 -0.000728065)
(0.000433114 1.97091e-05 -0.00072726)
(0.000330511 9.97925e-05 -0.000648288)
(0.000246699 0.000146042 -0.000534758)
(0.000185009 0.000170339 -0.000420306)
(0.000132488 0.000184748 -0.000325982)
(7.03911e-05 0.000192372 -0.000260313)
(-1.53872e-05 0.000189648 -0.000219001)
(-0.000126024 0.000176698 -0.000182781)
(-0.000248552 0.000168445 -0.000116197)
(-0.000366693 0.000186933 2.52457e-05)
(-0.00047363 0.000219349 0.000268985)
(-0.000565965 0.000184497 0.000570351)
(-0.000625967 1.75371e-05 0.000749086)
(-0.000630685 -0.000143377 0.000581521)
(-0.000606777 -9.75575e-05 0.000152361)
(-0.0006056 6.19482e-05 -0.000302628)
(-0.000590461 0.000135835 -0.00060133)
(-0.000530201 8.09504e-05 -0.000728064)
(-0.000433114 -1.97091e-05 -0.00072726)
(-0.000330511 -9.97925e-05 -0.000648288)
(-0.000246699 -0.000146042 -0.000534758)
(-0.000185009 -0.000170339 -0.000420306)
(-0.000132488 -0.000184748 -0.000325982)
(-7.03911e-05 -0.000192372 -0.000260313)
(1.53872e-05 -0.000189648 -0.000219001)
(0.000126024 -0.000176698 -0.000182781)
(0.000248552 -0.000168445 -0.000116197)
(0.000366693 -0.000186933 2.52457e-05)
(0.00047363 -0.000219349 0.000268985)
(0.000565965 -0.000184497 0.000570351)
(0.000625967 -1.75371e-05 0.000749086)
(0.000630685 0.000143377 0.000581521)
(0.000597466 -6.24479e-06 0.000175394)
(0.000669127 -0.000111751 -0.000106651)
(0.000705114 -0.000132796 -0.000315985)
(0.000688726 -6.9518e-05 -0.00044558)
(0.000626873 2.34803e-05 -0.000502973)
(0.000544221 0.000109075 -0.000502497)
(0.000458623 0.000179035 -0.000466994)
(0.000374605 0.0002368 -0.000417269)
(0.000287583 0.000285383 -0.000364708)
(0.000189724 0.00032266 -0.000310147)
(7.63425e-05 0.000341472 -0.00024565)
(-4.78926e-05 0.000334651 -0.000157637)
(-0.000167788 0.000302966 -3.19448e-05)
(-0.000267423 0.000255657 0.000137957)
(-0.000344221 0.000194437 0.000338621)
(-0.000408109 0.000103772 0.00051984)
(-0.000465932 -9.05905e-06 0.000586108)
(-0.000523329 -6.05727e-05 0.000450768)
(-0.000597466 6.24479e-06 0.000175394)
(-0.000669127 0.000111751 -0.000106651)
(-0.000705114 0.000132796 -0.000315985)
(-0.000688726 6.9518e-05 -0.00044558)
(-0.000626873 -2.34803e-05 -0.000502973)
(-0.000544221 -0.000109075 -0.000502497)
(-0.000458623 -0.000179035 -0.000466994)
(-0.000374605 -0.0002368 -0.000417269)
(-0.000287583 -0.000285383 -0.000364708)
(-0.000189724 -0.00032266 -0.000310147)
(-7.63425e-05 -0.000341472 -0.00024565)
(4.78926e-05 -0.000334651 -0.000157637)
(0.000167788 -0.000302966 -3.19448e-05)
(0.000267423 -0.000255657 0.000137957)
(0.000344221 -0.000194437 0.000338621)
(0.000408109 -0.000103772 0.00051984)
(0.000465932 9.05905e-06 0.000586108)
(0.000523329 6.05727e-05 0.000450768)
(0.000477767 -8.02311e-05 0.000144482)
(0.000608654 -0.000145146 1.04462e-05)
(0.000715452 -0.000129307 -0.000115211)
(0.00077145 -6.18546e-05 -0.000241834)
(0.000774144 2.593e-05 -0.000346386)
(0.000735693 0.000121535 -0.000411924)
(0.000666084 0.000220043 -0.000440487)
(0.000571304 0.000314707 -0.000440008)
(0.000456329 0.000396474 -0.000412756)
(0.000326927 0.00045521 -0.000352869)
(0.000191147 0.000479923 -0.000250512)
(6.10764e-05 0.000459492 -0.000100455)
(-4.77355e-05 0.000386327 8.72534e-05)
(-0.000123639 0.000263763 0.000280661)
(-0.000170381 0.000114627 0.000432046)
(-0.000208084 -1.56132e-05 0.000496606)
(-0.000260513 -7.21939e-05 0.000450783)
(-0.000347637 -2.18414e-05 0.000310864)
(-0.000477767 8.02311e-05 0.000144482)
(-0.000608654 0.000145146 1.04462e-05)
(-0.000715452 0.000129307 -0.000115211)
(-0.00077145 6.18546e-05 -0.000241834)
(-0.000774144 -2.593e-05 -0.000346386)
(-0.000735693 -0.000121535 -0.000411924)
(-0.000666084 -0.000220043 -0.000440487)
(-0.000571304 -0.000314707 -0.000440008)
(-0.000456329 -0.000396474 -0.000412756)
(-0.000326927 -0.00045521 -0.000352869)
(-0.000191147 -0.000479923 -0.000250512)
(-6.10764e-05 -0.000459492 -0.000100455)
(4.77355e-05 -0.000386327 8.72534e-05)
(0.000123639 -0.000263763 0.000280661)
(0.000170381 -0.000114627 0.000432046)
(0.000208084 1.56132e-05 0.000496606)
(0.000260513 7.21939e-05 0.000450783)
(0.000347637 2.18414e-05 0.000310864)
(0.000884879 -0.00023188 0.000397316)
(0.000921786 -0.000409846 -0.000337968)
(0.000903791 -0.000399098 -0.000847523)
(0.000813318 -0.000243033 -0.00107579)
(0.000678043 -5.89546e-05 -0.00110507)
(0.00053262 8.52916e-05 -0.0010308)
(0.00040065 0.000179761 -0.000913929)
(0.000288235 0.000237631 -0.000789394)
(0.000185002 0.000272965 -0.000677895)
(7.13783e-05 0.000291791 -0.000587945)
(-6.93259e-05 0.000292566 -0.000511466)
(-0.00023803 0.000276379 -0.00041833)
(-0.000415517 0.0002605 -0.000256985)
(-0.000575074 0.000272687 2.93681e-05)
(-0.000702129 0.00030728 0.00046189)
(-0.000797512 0.00028687 0.000957117)
(-0.000862927 0.000153035 0.00126013)
(-0.000879541 8.47214e-05 0.00106069)
(-0.000884879 0.00023188 0.000397316)
(-0.000921786 0.000409846 -0.000337968)
(-0.000903791 0.000399098 -0.000847523)
(-0.000813318 0.000243033 -0.00107579)
(-0.000678043 5.89546e-05 -0.00110507)
(-0.00053262 -8.52916e-05 -0.0010308)
(-0.00040065 -0.000179761 -0.000913928)
(-0.000288235 -0.000237631 -0.000789394)
(-0.000185002 -0.000272965 -0.000677895)
(-7.13784e-05 -0.000291791 -0.000587945)
(6.93259e-05 -0.000292566 -0.000511466)
(0.00023803 -0.000276379 -0.00041833)
(0.000415517 -0.0002605 -0.000256985)
(0.000575074 -0.000272687 2.93681e-05)
(0.000702129 -0.00030728 0.00046189)
(0.000797512 -0.00028687 0.000957117)
(0.000862927 -0.000153035 0.00126013)
(0.000879541 -8.47214e-05 0.00106069)
(0.000908205 -0.00025565 0.000481961)
(0.000994263 -0.000360857 -2.23816e-05)
(0.00101862 -0.000336152 -0.000419413)
(0.000977439 -0.00021843 -0.000659174)
(0.000889983 -7.23178e-05 -0.000763038)
(0.00078104 6.47516e-05 -0.000775499)
(0.000663776 0.000183212 -0.00073846)
(0.000540764 0.000283182 -0.00067965)
(0.000407907 0.000364835 -0.000611479)
(0.000258818 0.000424306 -0.000532061)
(9.14615e-05 0.000453717 -0.000426107)
(-8.5384e-05 0.000446928 -0.000268236)
(-0.000252591 0.000408092 -3.3123e-05)
(-0.000392597 0.000350916 0.000285565)
(-0.000503134 0.000281648 0.000652691)
(-0.000596449 0.000193259 0.000975736)
(-0.000686188 0.000110663 0.00111082)
(-0.00078812 0.000125849 0.000932108)
(-0.000908205 0.00025565 0.000481961)
(-0.000994263 0.000360857 -2.23816e-05)
(-0.00101862 0.000336152 -0.000419413)
(-0.000977439 0.00021843 -0.000659174)
(-0.000889983 7.23178e-05 -0.000763038)
(-0.00078104 -6.47515e-05 -0.000775499)
(-0.000663776 -0.000183212 -0.00073846)
(-0.000540764 -0.000283182 -0.00067965)
(-0.000407907 -0.000364835 -0.000611479)
(-0.000258818 -0.000424306 -0.000532061)
(-9.14615e-05 -0.000453717 -0.000426107)
(8.5384e-05 -0.000446928 -0.000268236)
(0.000252591 -0.000408092 -3.3123e-05)
(0.000392597 -0.000350916 0.000285565)
(0.000503134 -0.000281648 0.000652691)
(0.000596449 -0.000193259 0.000975736)
(0.000686188 -0.000110663 0.00111082)
(0.00078812 -0.000125849 0.000932108)
(0.000741492 -0.000262088 0.000471412)
(0.000890813 -0.000321772 0.000187137)
(0.00100088 -0.000295899 -8.59007e-05)
(0.0010496 -0.000212693 -0.000319868)
(0.00104238 -9.91417e-05 -0.000483053)
(0.00099169 3.3204e-05 -0.000570668)
(0.000903477 0.000175915 -0.000601749)
(0.000780263 0.000316509 -0.000594759)
(0.000626327 0.000440006 -0.000554082)
(0.000450338 0.000531521 -0.000468929)
(0.000266113 0.000578082 -0.000319131)
(9.08982e-05 0.000569548 -8.66806e-05)
(-5.93193e-05 0.000499256 0.000225611)
(-0.00017696 0.000369314 0.000573262)
(-0.000269811 0.000206563 0.00086848)
(-0.000359213 7.41731e-05 0.00101922)
(-0.000465113 3.89784e-05 0.000978877)
(-0.00059207 0.00012529 0.000761366)
(-0.000741492 0.000262088 0.000471412)
(-0.000890813 0.000321772 0.000187137)
(-0.00100088 0.000295899 -8.59007e-05)
(-0.0010496 0.000212693 -0.000319868)
(-0.00104238 9.91417e-05 -0.000483053)
(-0.00099169 -3.3204e-05 -0.000570668)
(-0.000903477 -0.000175915 -0.000601749)
(-0.000780263 -0.000316509 -0.000594759)
(-0.000626327 -0.000440006 -0.000554082)
(-0.000450338 -0.000531521 -0.000468929)
(-0.000266113 -0.000578082 -0.000319131)
(-9.08982e-05 -0.000569548 -8.66806e-05)
(5.93193e-05 -0.000499256 0.000225611)
(0.00017696 -0.000369314 0.000573262)
(0.000269811 -0.000206563 0.00086848)
(0.000359213 -7.41731e-05 0.00101922)
(0.000465113 -3.89784e-05 0.000978877)
(0.00059207 -0.00012529 0.000761366)
(0.00114165 -0.00078691 0.000764463)
(0.00115599 -0.000864445 -0.000138324)
(0.00108997 -0.000757576 -0.000812295)
(0.000960607 -0.000541144 -0.00113836)
(0.000808998 -0.000311329 -0.00121955)
(0.000651945 -0.000120674 -0.00118663)
(0.00049846 2.04356e-05 -0.00110905)
(0.000352396 0.000120033 -0.00101504)
(0.000207992 0.000189271 -0.000916203)
(5.20581e-05 0.000235072 -0.000814046)
(-0.000126429 0.000258838 -0.000696809)
(-0.000324553 0.000263216 -0.000535232)
(-0.000522225 0.000263195 -0.000283617)
(-0.000695424 0.000284609 0.000106277)
(-0.000835091 0.000335181 0.000643812)
(-0.000950325 0.000381694 0.00122969)
(-0.00105024 0.000419729 0.00161494)
(-0.00110848 0.000573361 0.00148985)
(-0.00114165 0.00078691 0.000764463)
(-0.00115599 0.000864445 -0.000138324)
(-0.00108997 0.000757576 -0.000812295)
(-0.000960607 0.000541144 -0.00113836)
(-0.000808998 0.000311329 -0.00121955)
(-0.000651945 0.000120674 -0.00118663)
(-0.00049846 -2.04356e-05 -0.00110905)
(-0.000352396 -0.000120033 -0.00101504)
(-0.000207992 -0.000189271 -0.000916203)
(-5.20581e-05 -0.000235072 -0.000814046)
(0.000126429 -0.000258838 -0.000696809)
(0.000324553 -0.000263216 -0.000535232)
(0.000522225 -0.000263195 -0.000283617)
(0.000695424 -0.000284609 0.000106277)
(0.000835091 -0.000335181 0.000643812)
(0.000950325 -0.000381694 0.00122969)
(0.00105024 -0.000419729 0.00161494)
(0.00110848 -0.000573361 0.00148985)
(0.00113486 -0.000640588 0.00087402)
(0.00119353 -0.000697149 0.000225463)
(0.00117862 -0.000618667 -0.000317908)
(0.00110877 -0.000461197 -0.000657499)
(0.00100788 -0.000279182 -0.000818594)
(0.000888618 -0.000104507 -0.000867327)
(0.000754998 5.08346e-05 -0.000855603)
(0.000607419 0.000183123 -0.000811146)
(0.00044398 0.00029017 -0.000742909)
(0.000263153 0.000368266 -0.000645086)
(6.86124e-05 0.000412581 -0.000498949)
(-0.00012783 0.000421699 -0.000276851)
(-0.000310729 0.00040297 4.60745e-05)
(-0.000471791 0.000370537 0.000469442)
(-0.000614638 0.000334886 0.000940077)
(-0.00074825 0.000305876 0.00134043)
(-0.000879353 0.000327463 0.00152147)
(-0.00101442 0.000464415 0.0013723)
(-0.00113486 0.000640588 0.00087402)
(-0.00119353 0.000697149 0.000225463)
(-0.00117862 0.000618667 -0.000317908)
(-0.00110877 0.000461197 -0.000657499)
(-0.00100788 0.000279182 -0.000818594)
(-0.000888618 0.000104507 -0.000867327)
(-0.000754998 -5.08346e-05 -0.000855603)
(-0.000607419 -0.000183123 -0.000811146)
(-0.00044398 -0.00029017 -0.000742909)
(-0.000263153 -0.000368266 -0.000645086)
(-6.86124e-05 -0.000412581 -0.000498949)
(0.00012783 -0.000421699 -0.000276851)
(0.000310729 -0.00040297 4.60745e-05)
(0.000471791 -0.000370537 0.000469442)
(0.000614638 -0.000334886 0.000940077)
(0.00074825 -0.000305876 0.00134043)
(0.000879353 -0.000327463 0.00152147)
(0.00101442 -0.000464415 0.0013723)
(0.00095939 -0.000521483 0.00087547)
(0.00107041 -0.000566223 0.000479371)
(0.00114551 -0.000517113 8.70068e-05)
(0.00117087 -0.000409708 -0.000242477)
(0.00114762 -0.000268793 -0.000467709)
(0.00108294 -0.000108036 -0.000588545)
(0.000979797 6.11188e-05 -0.000633312)
(0.000838997 0.00022464 -0.000626531)
(0.000664468 0.000366724 -0.0005746)
(0.000467317 0.000472568 -0.000465948)
(0.000265978 0.000532194 -0.000277355)
(7.94235e-05 0.000541964 1.47265e-05)
(-8.35882e-05 0.000500805 0.000413016)
(-0.000228633 0.000410757 0.000867226)
(-0.000369013 0.000298053 0.00126139)
(-0.000516964 0.00022914 0.00146916)
(-0.000675665 0.000265187 0.00143927)
(-0.00083246 0.000390349 0.00121416)
(-0.00095939 0.000521483 0.00087547)
(-0.00107041 0.000566223 0.000479371)
(-0.00114551 0.000517113 8.70068e-05)
(-0.00117087 0.000409708 -0.000242477)
(-0.00114762 0.000268793 -0.000467709)
(-0.00108294 0.000108036 -0.000588545)
(-0.000979797 -6.11188e-05 -0.000633312)
(-0.000838997 -0.00022464 -0.000626531)
(-0.000664468 -0.000366724 -0.0005746)
(-0.000467317 -0.000472568 -0.000465948)
(-0.000265978 -0.000532194 -0.000277355)
(-7.94235e-05 -0.000541964 1.47265e-05)
(8.35882e-05 -0.000500805 0.000413016)
(0.000228633 -0.000410757 0.000867226)
(0.000369013 -0.000298053 0.00126139)
(0.000516964 -0.00022914 0.00146916)
(0.000675665 -0.000265187 0.00143927)
(0.00083246 -0.000390349 0.00121416)
(0.00136742 -0.00113296 0.00117186)
(0.00133173 -0.00118809 0.000292098)
(0.0011919 -0.00106438 -0.000466728)
(0.00101603 -0.00085126 -0.000886039)
(0.000851494 -0.000621305 -0.00104545)
(0.000693917 -0.000413764 -0.00107996)
(0.000534698 -0.000243507 -0.00105829)
(0.000371975 -0.000110117 -0.0010028)
(0.000202794 -7.25271e-06 -0.000917892)
(2.16749e-05 7.05399e-05 -0.000800403)
(-0.000173398 0.000125338 -0.000641388)
(-0.000373962 0.000160194 -0.000425794)
(-0.000563334 0.000188952 -0.000130136)
(-0.000732595 0.000238378 0.000277975)
(-0.000891588 0.000328645 0.000809046)
(-0.00105366 0.00045999 0.0013744)
(-0.00120624 0.000645606 0.00176013)
(-0.0013131 0.000901543 0.00173101)
(-0.00136742 0.00113296 0.00117186)
(-0.00133173 0.00118809 0.000292098)
(-0.0011919 0.00106438 -0.000466728)
(-0.00101603 0.00085126 -0.000886038)
(-0.000851494 0.000621305 -0.00104545)
(-0.000693917 0.000413764 -0.00107996)
(-0.000534698 0.000243507 -0.00105829)
(-0.000371975 0.000110117 -0.0010028)
(-0.000202794 7.25271e-06 -0.000917892)
(-2.16749e-05 -7.05399e-05 -0.000800403)
(0.000173398 -0.000125338 -0.000641388)
(0.000373962 -0.000160194 -0.000425794)
(0.000563334 -0.000188952 -0.000130136)
(0.000732595 -0.000238378 0.000277975)
(0.000891588 -0.000328645 0.000809046)
(0.00105366 -0.00045999 0.0013744)
(0.00120624 -0.000645606 0.00176013)
(0.0013131 -0.000901543 0.00173101)
(0.00126351 -0.000891443 0.00122685)
(0.00128 -0.00093767 0.00060424)
(0.00122278 -0.00085793 2.16955e-06)
(0.00112489 -0.000702492 -0.000416883)
(0.00101409 -0.000516564 -0.0006452)
(0.000891569 -0.000329273 -0.000745961)
(0.000752265 -0.00015653 -0.000771185)
(0.000593993 -6.09007e-06 -0.000746631)
(0.000416642 0.000117751 -0.000678898)
(0.000223429 0.000211607 -0.000561702)
(2.32574e-05 0.00027361 -0.000380052)
(-0.00017065 0.000306725 -0.000115067)
(-0.000349409 0.000321849 0.000247375)
(-0.000518086 0.000335654 0.000700016)
(-0.000689691 0.000363364 0.00118743)
(-0.0008675 0.000422325 0.00159218)
(-0.00103759 0.000545357 0.00177625)
(-0.00117689 0.000731535 0.00165379)
(-0.00126351 0.000891443 0.00122685)
(-0.00128 0.00093767 0.000604241)
(-0.00122278 0.00085793 2.16956e-06)
(-0.00112489 0.000702492 -0.000416883)
(-0.00101409 0.000516564 -0.0006452)
(-0.000891569 0.000329273 -0.000745961)
(-0.000752265 0.00015653 -0.000771185)
(-0.000593993 6.09007e-06 -0.000746631)
(-0.000416642 -0.000117751 -0.000678898)
(-0.000223429 -0.000211607 -0.000561702)
(-2.32574e-05 -0.00027361 -0.000380052)
(0.00017065 -0.000306725 -0.000115067)
(0.000349409 -0.000321849 0.000247375)
(0.000518086 -0.000335654 0.000700016)
(0.000689691 -0.000363364 0.00118743)
(0.0008675 -0.000422325 0.00159218)
(0.00103759 -0.000545357 0.00177625)
(0.00117689 -0.000731535 0.00165379)
(0.00108118 -0.000725523 0.00123322)
(0.00113567 -0.000752757 0.000825297)
(0.00116918 -0.000701985 0.000387621)
(0.00116765 -0.000590001 -6.62582e-06)
(0.00112605 -0.000439254 -0.000289217)
(0.00104818 -0.000268608 -0.000448396)
(0.000935297 -9.22483e-05 -0.00051254)
(0.000787224 7.59012e-05 -0.000508544)
(0.000607778 0.000221236 -0.000445236)
(0.000409132 0.000331214 -0.000314427)
(0.000210916 0.000400213 -9.71421e-05)
(3.02098e-05 0.000431402 0.00022726)
(-0.000132445 0.000430674 0.000662189)
(-0.000293373 0.000403279 0.00115702)
(-0.000467513 0.00037264 0.00158722)
(-0.000655341 0.000390637 0.00181804)
(-0.000840753 0.000490415 0.00179915)
(-0.000991288 0.000628024 0.00157612)
(-0.00108118 0.000725523 0.00123322)
(-0.00113567 0.000752757 0.000825297)
(-0.00116918 0.000701985 0.000387621)
(-0.00116765 0.000590001 -6.62581e-06)
(-0.00112605 0.000439254 -0.000289217)
(-0.00104818 0.000268608 -0.000448396)
(-0.000935297 9.22483e-05 -0.00051254)
(-0.000787224 -7.59012e-05 -0.000508544)
(-0.000607778 -0.000221236 -0.000445236)
(-0.000409132 -0.000331214 -0.000314427)
(-0.000210916 -0.000400213 -9.71421e-05)
(-3.02098e-05 -0.000431402 0.00022726)
(0.000132445 -0.000430674 0.000662189)
(0.000293373 -0.000403279 0.00115702)
(0.000467513 -0.00037264 0.00158722)
(0.000655341 -0.000390637 0.00181804)
(0.000840753 -0.000490415 0.00179915)
(0.000991288 -0.000628024 0.00157612)
(0.00146679 -0.00124213 0.00145476)
(0.00139291 -0.00131156 0.000755804)
(0.001212 -0.00122767 5.24973e-05)
(0.00100486 -0.00106331 -0.000414669)
(0.000827926 -0.00086963 -0.000649833)
(0.000670684 -0.00067521 -0.000753371)
(0.00051243 -0.000498244 -0.000783432)
(0.000344937 -0.000346227 -0.000757822)
(0.000166238 -0.000219482 -0.000678583)
(-2.2719e-05 -0.000116829 -0.000544192)
(-0.000215787 -3.79718e-05 -0.000355496)
(-0.000400586 2.06355e-05 -0.000117333)
(-0.000567332 7.49288e-05 0.000170025)
(-0.000726014 0.000154454 0.000526951)
(-0.000903971 0.000284488 0.000974909)
(-0.00110784 0.000474679 0.00145666)
(-0.00129888 0.000727625 0.00180921)
(-0.00142688 0.00101377 0.00184316)
(-0.00146679 0.00124213 0.00145476)
(-0.00139291 0.00131156 0.000755804)
(-0.001212 0.00122767 5.24973e-05)
(-0.00100486 0.00106331 -0.000414669)
(-0.000827926 0.00086963 -0.000649833)
(-0.000670685 0.00067521 -0.000753371)
(-0.00051243 0.000498244 -0.000783432)
(-0.000344937 0.000346227 -0.000757822)
(-0.000166238 0.000219482 -0.000678583)
(2.27189e-05 0.000116829 -0.000544192)
(0.000215787 3.79718e-05 -0.000355496)
(0.000400586 -2.06355e-05 -0.000117333)
(0.000567332 -7.49288e-05 0.000170025)
(0.000726014 -0.000154454 0.000526951)
(0.000903971 -0.000284488 0.000974909)
(0.00110784 -0.000474679 0.00145666)
(0.00129888 -0.000727625 0.00180921)
(0.00142688 -0.00101377 0.00184316)
(0.00130936 -0.000990775 0.00153325)
(0.00128175 -0.00104283 0.00100732)
(0.00118895 -0.00099077 0.000444192)
(0.00106746 -0.000867972 -3.75648e-06)
(0.000946297 -0.000707249 -0.000285817)
(0.000822777 -0.000532685 -0.000435597)
(0.000684913 -0.000361891 -0.000494847)
(0.000527109 -0.000206529 -0.00048618)
(0.000349874 -7.39707e-05 -0.000416283)
(0.00015945 3.12023e-05 -0.000282641)
(-3.23791e-05 0.000108119 -7.91811e-05)
(-0.000213047 0.000162561 0.000199268)
(-0.000380389 0.000209186 0.000553333)
(-0.000550129 0.000268034 0.000971049)
(-0.0007402 0.000354931 0.00140597)
(-0.000943712 0.000480429 0.00176454)
(-0.00112739 0.000651841 0.0019424)
(-0.00125625 0.000842868 0.00186937)
(-0.00130936 0.000990775 0.00153325)
(-0.00128175 0.00104283 0.00100732)
(-0.00118895 0.00099077 0.000444192)
(-0.00106746 0.000867972 -3.75646e-06)
(-0.000946297 0.000707249 -0.000285817)
(-0.000822777 0.000532685 -0.000435597)
(-0.000684913 0.000361891 -0.000494847)
(-0.000527109 0.000206529 -0.00048618)
(-0.000349874 7.39707e-05 -0.000416283)
(-0.00015945 -3.12023e-05 -0.000282641)
(3.23791e-05 -0.000108119 -7.91812e-05)
(0.000213047 -0.000162561 0.000199268)
(0.000380389 -0.000209186 0.000553333)
(0.000550129 -0.000268034 0.000971049)
(0.0007402 -0.000354931 0.00140597)
(0.000943712 -0.000480429 0.00176454)
(0.00112739 -0.000651841 0.0019424)
(0.00125625 -0.000842868 0.00186937)
(0.00112145 -0.000833651 0.00158452)
(0.0011335 -0.000855023 0.00119612)
(0.00112278 -0.000813197 0.000764367)
(0.00108785 -0.000714857 0.000351086)
(0.00102546 -0.000576501 3.36472e-05)
(0.000937558 -0.000416195 -0.000156384)
(0.000822155 -0.000248156 -0.000237851)
(0.000676754 -8.62865e-05 -0.000236605)
(0.000504493 5.53895e-05 -0.000164142)
(0.00031691 0.000166202 -1.79204e-05)
(0.000131449 0.000243654 0.000213321)
(-3.91532e-05 0.000295227 0.000543005)
(-0.000199944 0.000332443 0.000971054)
(-0.000370245 0.00036488 0.00144804)
(-0.000560452 0.000409878 0.00185746)
(-0.000759434 0.000494896 0.00208175)
(-0.000938323 0.00062329 0.0020817)
(-0.00106327 0.000751686 0.00189496)
(-0.00112145 0.000833651 0.00158452)
(-0.0011335 0.000855023 0.00119612)
(-0.00112278 0.000813197 0.000764367)
(-0.00108785 0.000714857 0.000351086)
(-0.00102546 0.000576501 3.36472e-05)
(-0.000937558 0.000416195 -0.000156384)
(-0.000822155 0.000248156 -0.000237851)
(-0.000676754 8.62865e-05 -0.000236605)
(-0.000504493 -5.53895e-05 -0.000164142)
(-0.00031691 -0.000166202 -1.79204e-05)
(-0.000131449 -0.000243654 0.000213321)
(3.91532e-05 -0.000295227 0.000543005)
(0.000199944 -0.000332443 0.000971054)
(0.000370245 -0.00036488 0.00144804)
(0.000560452 -0.000409878 0.00185746)
(0.000759434 -0.000494896 0.00208175)
(0.000938323 -0.00062329 0.0020817)
(0.00106327 -0.000751686 0.00189496)
(0.00143907 -0.00117194 0.00166341)
(0.0013378 -0.00126563 0.00116031)
(0.00114609 -0.00124092 0.000593081)
(0.000932181 -0.00114088 0.000145211)
(0.000749563 -0.00099948 -0.000131551)
(0.000592921 -0.000838063 -0.000282814)
(0.000438336 -0.000674471 -0.000347858)
(0.000273659 -0.000521524 -0.000339906)
(9.76196e-05 -0.000386251 -0.000262014)
(-8.42505e-05 -0.00027269 -0.000118765)
(-0.000261011 -0.00018271 7.69925e-05)
(-0.000420721 -0.000111566 0.000304469)
(-0.000563048 -4.1025e-05 0.00055023)
(-0.000711839 5.81297e-05 0.000831703)
(-0.000898153 0.000209166 0.00117951)
(-0.00111512 0.000419625 0.00156177)
(-0.00130967 0.000682052 0.00185683)
(-0.00142682 0.000957407 0.00191693)
(-0.00143907 0.00117194 0.00166341)
(-0.0013378 0.00126563 0.00116031)
(-0.00114609 0.00124092 0.000593081)
(-0.000932181 0.00114088 0.000145211)
(-0.000749563 0.00099948 -0.000131551)
(-0.000592922 0.000838063 -0.000282814)
(-0.000438336 0.000674471 -0.000347858)
(-0.000273659 0.000521524 -0.000339906)
(-9.76196e-05 0.000386251 -0.000262014)
(8.42505e-05 0.00027269 -0.000118765)
(0.000261011 0.00018271 7.69924e-05)
(0.000420721 0.000111566 0.000304469)
(0.000563048 4.1025e-05 0.00055023)
(0.000711839 -5.81297e-05 0.000831703)
(0.000898153 -0.000209166 0.00117951)
(0.00111512 -0.000419625 0.00156177)
(0.00130967 -0.000682052 0.00185683)
(0.00142682 -0.000957407 0.00191693)
(0.00127541 -0.000967979 0.0018028)
(0.0012166 -0.00103164 0.00139015)
(0.00110112 -0.00101433 0.000913827)
(0.000964425 -0.000934694 0.000489581)
(0.000834504 -0.00081316 0.000186613)
(0.00071058 -0.000667271 6.36428e-06)
(0.000577873 -0.000513146 -7.54554e-05)
(0.000427659 -0.000364779 -7.66526e-05)
(0.000260167 -0.000232735 -5.20616e-06)
(8.2854e-05 -0.000123568 0.000135619)
(-9.23066e-05 -3.82154e-05 0.00034212)
(-0.000255758 3.07037e-05 0.000607572)
(-0.000411316 9.97689e-05 0.00092313)
(-0.000578757 0.000188776 0.00127581)
(-0.000772408 0.000309413 0.00163218)
(-0.000975905 0.000463426 0.00192754)
(-0.00114873 0.000644877 0.00208656)
(-0.00125422 0.000827734 0.00205044)
(-0.00127541 0.000967979 0.0018028)
(-0.0012166 0.00103164 0.00139015)
(-0.00110112 0.00101433 0.000913827)
(-0.000964425 0.000934694 0.000489581)
(-0.000834504 0.00081316 0.000186613)
(-0.00071058 0.000667271 6.3643e-06)
(-0.000577873 0.000513146 -7.54554e-05)
(-0.000427659 0.000364779 -7.66525e-05)
(-0.000260167 0.000232735 -5.20615e-06)
(-8.2854e-05 0.000123568 0.000135619)
(9.23066e-05 3.82154e-05 0.00034212)
(0.000255758 -3.07037e-05 0.000607572)
(0.000411316 -9.97689e-05 0.00092313)
(0.000578757 -0.000188776 0.00127581)
(0.000772408 -0.000309413 0.00163218)
(0.000975905 -0.000463426 0.00192754)
(0.00114873 -0.000644877 0.00208656)
(0.00125422 -0.000827734 0.00205044)
(0.00111153 -0.000858234 0.00191197)
(0.00108991 -0.000881627 0.00156759)
(0.00104118 -0.000852046 0.00117339)
(0.000973532 -0.000775353 0.000780304)
(0.000890698 -0.00066213 0.000459162)
(0.000795334 -0.000524343 0.000254257)
(0.000682321 -0.000373826 0.00016144)
(0.000545973 -0.000224409 0.000159802)
(0.000387745 -9.00398e-05 0.000236098)
(0.000217029 1.97527e-05 0.000387323)
(4.7159e-05 0.000104136 0.000617226)
(-0.000114194 0.000172415 0.000931616)
(-0.000274413 0.000238814 0.00132469)
(-0.00044884 0.000314307 0.00174845)
(-0.00063957 0.000407763 0.0021051)
(-0.000828769 0.000526926 0.00230546)
(-0.000986313 0.000661841 0.00232073)
(-0.00108315 0.000781499 0.002175)
(-0.00111153 0.000858234 0.00191197)
(-0.00108991 0.000881627 0.00156759)
(-0.00104118 0.000852046 0.00117339)
(-0.000973532 0.000775353 0.000780304)
(-0.000890698 0.00066213 0.000459162)
(-0.000795334 0.000524343 0.000254257)
(-0.000682321 0.000373826 0.00016144)
(-0.000545973 0.000224409 0.000159802)
(-0.000387745 9.00398e-05 0.000236099)
(-0.000217029 -1.97527e-05 0.000387323)
(-4.7159e-05 -0.000104136 0.000617226)
(0.000114194 -0.000172415 0.000931616)
(0.000274413 -0.000238814 0.00132469)