/*--------------------------------*- C++ -*----------------------------------*\
| =========                 |                                                 |
| \\      /  F ield         | OpenFOAM: The Open Source CFD Toolbox           |
|  \\    /   O peration     | Version:  2312                                  |
|   \\  /    A nd           | Website:  www.openfoam.com                      |
|    \\/     M anipulation  |                                                 |
\*---------------------------------------------------------------------------*/
FoamFile
{
    version     2.0;
    format      ascii;
    arch        "LSB;label=32;scalar=64";
    class       volVectorField;
    location    "0.3";
    object      D_0_0;
}
// * * * * * * * * * * * * * * * * * * * * * * * * * * * * * * * * * * * * * //

dimensions      [0 1 0 0 0 0 0];

internalField   nonuniform List<vector> 
1620
(
(7.94956e-05 0.000232384 3.7657e-05)
(3.79349e-05 0.000242657 3.7657e-05)
(-4.77819e-06 0.000245558 3.76571e-05)
(-4.73463e-05 0.000240998 3.76573e-05)
(-8.84759e-05 0.000229115 3.76573e-05)
(-0.000126917 0.000210271 3.76572e-05)
(-0.000161502 0.000185037 3.76573e-05)
(-0.00019118 0.000154181 3.76572e-05)
(-0.000215049 0.000118641 3.7657e-05)
(-0.000232384 7.94956e-05 3.7657e-05)
(-0.000242657 3.79349e-05 3.7657e-05)
(-0.000245558 -4.77821e-06 3.76571e-05)
(-0.000240998 -4.73463e-05 3.76573e-05)
(-0.000229115 -8.84759e-05 3.76573e-05)
(-0.000210271 -0.000126917 3.76572e-05)
(-0.000185037 -0.000161502 3.76572e-05)
(-0.000154181 -0.00019118 3.76572e-05)
(-0.000118641 -0.000215049 3.7657e-05)
(-7.94956e-05 -0.000232384 3.7657e-05)
(-3.79349e-05 -0.000242657 3.7657e-05)
(4.77822e-06 -0.000245558 3.76571e-05)
(4.73463e-05 -0.000240998 3.76573e-05)
(8.84759e-05 -0.000229115 3.76573e-05)
(0.000126917 -0.000210271 3.76572e-05)
(0.000161502 -0.000185037 3.76573e-05)
(0.00019118 -0.000154181 3.76572e-05)
(0.000215049 -0.000118641 3.7657e-05)
(0.000232384 -7.94956e-05 3.7657e-05)
(0.000242657 -3.79349e-05 3.7657e-05)
(0.000245558 4.7782e-06 3.76571e-05)
(0.000240998 4.73463e-05 3.76573e-05)
(0.000229115 8.84759e-05 3.76573e-05)
(0.000210271 0.000126917 3.76572e-05)
(0.000185037 0.000161502 3.76573e-05)
(0.000154181 0.00019118 3.76572e-05)
(0.000118641 0.000215049 3.7657e-05)
(4.03108e-05 0.000233229 4.37731e-05)
(-8.01355e-07 0.000236685 4.37731e-05)
(-4.1889e-05 0.00023295 4.37732e-05)
(-8.17038e-05 0.000222137 4.37733e-05)
(-0.000119037 0.000204575 4.37733e-05)
(-0.000152752 0.000180796 4.37732e-05)
(-0.000181826 0.000151524 4.37732e-05)
(-0.000205376 0.000117649 4.37731e-05)
(-0.000222685 8.0198e-05 4.37731e-05)
(-0.000233229 4.03108e-05 4.37731e-05)
(-0.000236685 -8.01374e-07 4.37731e-05)
(-0.00023295 -4.1889e-05 4.37731e-05)
(-0.000222137 -8.17038e-05 4.37732e-05)
(-0.000204575 -0.000119037 4.37733e-05)
(-0.000180796 -0.000152752 4.37732e-05)
(-0.000151524 -0.000181826 4.37732e-05)
(-0.000117649 -0.000205376 4.37731e-05)
(-8.0198e-05 -0.000222685 4.37731e-05)
(-4.03108e-05 -0.000233229 4.37731e-05)
(8.01385e-07 -0.000236685 4.37731e-05)
(4.1889e-05 -0.00023295 4.37731e-05)
(8.17038e-05 -0.000222137 4.37732e-05)
(0.000119037 -0.000204575 4.37733e-05)
(0.000152752 -0.000180796 4.37732e-05)
(0.000181826 -0.000151524 4.37732e-05)
(0.000205376 -0.000117649 4.37731e-05)
(0.000222685 -8.0198e-05 4.37731e-05)
(0.000233229 -4.03108e-05 4.37731e-05)
(0.000236685 8.01369e-07 4.37731e-05)
(0.00023295 4.1889e-05 4.37732e-05)
(0.000222137 8.17038e-05 4.37733e-05)
(0.000204575 0.000119037 4.37733e-05)
(0.000180796 0.000152752 4.37732e-05)
(0.000151524 0.000181826 4.37732e-05)
(0.000117649 0.000205376 4.37731e-05)
(8.01981e-05 0.000222685 4.37731e-05)
(-1.09568e-05 0.000230082 4.5856e-05)
(-5.07437e-05 0.000224684 4.58561e-05)
(-8.89887e-05 0.000212459 4.58561e-05)
(-0.00012453 0.000193778 4.5856e-05)
(-0.000156287 0.000169211 4.58561e-05)
(-0.000183296 0.0001395 4.58561e-05)
(-0.000204735 0.000105552 4.58561e-05)
(-0.000219954 6.83965e-05 4.58559e-05)
(-0.000228489 2.91629e-05 4.5856e-05)
(-0.000230082 -1.09568e-05 4.5856e-05)
(-0.000224684 -5.07437e-05 4.58561e-05)
(-0.000212459 -8.89887e-05 4.58561e-05)
(-0.000193778 -0.00012453 4.5856e-05)
(-0.000169211 -0.000156287 4.58561e-05)
(-0.0001395 -0.000183296 4.58561e-05)
(-0.000105552 -0.000204735 4.58561e-05)
(-6.83965e-05 -0.000219954 4.58559e-05)
(-2.91628e-05 -0.000228489 4.58559e-05)
(1.09568e-05 -0.000230082 4.5856e-05)
(5.07437e-05 -0.000224684 4.58561e-05)
(8.89887e-05 -0.000212459 4.58561e-05)
(0.00012453 -0.000193778 4.5856e-05)
(0.000156287 -0.000169211 4.58561e-05)
(0.000183296 -0.0001395 4.58561e-05)
(0.000204735 -0.000105552 4.58561e-05)
(0.000219954 -6.83965e-05 4.58559e-05)
(0.000228489 -2.91629e-05 4.5856e-05)
(0.000230082 1.09568e-05 4.5856e-05)
(0.000224684 5.07437e-05 4.58561e-05)
(0.000212459 8.89887e-05 4.58561e-05)
(0.000193778 0.00012453 4.5856e-05)
(0.000169211 0.000156287 4.58561e-05)
(0.0001395 0.000183296 4.58561e-05)
(0.000105552 0.000204735 4.58561e-05)
(6.83965e-05 0.000219954 4.58559e-05)
(2.91629e-05 0.000228489 4.5856e-05)
(0.000156193 0.000686656 0.000141132)
(3.45842e-05 0.000703347 0.000141132)
(-8.8076e-05 0.000698667 0.000141133)
(-0.00020806 0.000672758 0.000141133)
(-0.000321722 0.000626408 0.000141133)
(-0.000425609 0.000561026 0.000141133)
(-0.000516565 0.000478596 0.000141133)
(-0.000591824 0.000381624 0.000141133)
(-0.000649101 0.000273057 0.000141132)
(-0.000686656 0.000156193 0.000141132)
(-0.000703347 3.45841e-05 0.000141132)
(-0.000698667 -8.80761e-05 0.000141133)
(-0.000672758 -0.00020806 0.000141133)
(-0.000626408 -0.000321722 0.000141133)
(-0.000561025 -0.000425609 0.000141133)
(-0.000478596 -0.000516565 0.000141133)
(-0.000381624 -0.000591824 0.000141133)
(-0.000273057 -0.000649101 0.000141132)
(-0.000156193 -0.000686656 0.000141132)
(-3.45841e-05 -0.000703347 0.000141132)
(8.80761e-05 -0.000698667 0.000141133)
(0.00020806 -0.000672758 0.000141133)
(0.000321722 -0.000626408 0.000141133)
(0.000425609 -0.000561026 0.000141133)
(0.000516565 -0.000478596 0.000141133)
(0.000591824 -0.000381624 0.000141133)
(0.000649101 -0.000273057 0.000141132)
(0.000686656 -0.000156193 0.000141132)
(0.000703347 -3.45841e-05 0.000141132)
(0.000698667 8.8076e-05 0.000141133)
(0.000672758 0.00020806 0.000141133)
(0.000626408 0.000321722 0.000141133)
(0.000561026 0.000425609 0.000141133)
(0.000478596 0.000516565 0.000141133)
(0.000381624 0.000591824 0.000141133)
(0.000273057 0.000649101 0.000141132)
(9.86753e-05 0.000688564 0.000163471)
(-2.23914e-05 0.000695238 0.000163471)
(-0.000142778 0.000680788 0.000163471)
(-0.000258826 0.000645652 0.000163472)
(-0.00036701 0.000590898 0.000163472)
(-0.000464043 0.00051819 0.000163472)
(-0.000546976 0.000429738 0.000163472)
(-0.000613289 0.000328227 0.000163471)
(-0.000660968 0.000216744 0.000163471)
(-0.000688564 9.86753e-05 0.000163471)
(-0.000695238 -2.23915e-05 0.000163471)
(-0.000680788 -0.000142778 0.000163471)
(-0.000645652 -0.000258826 0.000163472)
(-0.000590898 -0.00036701 0.000163472)
(-0.00051819 -0.000464043 0.000163472)
(-0.000429738 -0.000546976 0.000163472)
(-0.000328227 -0.000613289 0.000163471)
(-0.000216744 -0.000660968 0.000163471)
(-9.86752e-05 -0.000688564 0.000163471)
(2.23915e-05 -0.000695238 0.000163471)
(0.000142778 -0.000680788 0.000163471)
(0.000258826 -0.000645652 0.000163472)
(0.00036701 -0.000590898 0.000163472)
(0.000464043 -0.00051819 0.000163472)
(0.000546976 -0.000429738 0.000163472)
(0.000613289 -0.000328227 0.000163471)
(0.000660968 -0.000216744 0.000163471)
(0.000688564 -9.86753e-05 0.000163471)
(0.000695238 2.23914e-05 0.000163471)
(0.000680788 0.000142778 0.000163472)
(0.000645652 0.000258826 0.000163472)
(0.000590898 0.00036701 0.000163472)
(0.000518191 0.000464043 0.000163472)
(0.000429738 0.000546976 0.000163472)
(0.000328227 0.000613289 0.000163471)
(0.000216744 0.000660968 0.000163471)
(2.74641e-05 0.000686029 0.000180139)
(-9.20808e-05 0.000680376 0.000180139)
(-0.000208827 0.00065405 0.000180139)
(-0.000319229 0.000607851 0.000180139)
(-0.000419932 0.000543182 0.000180139)
(-0.000507875 0.000462009 0.000180139)
(-0.000580386 0.000366799 0.000180139)
(-0.000635263 0.000260444 0.000180139)
(-0.000670838 0.000146175 0.000180139)
(-0.000686029 2.7464e-05 0.000180139)
(-0.000680376 -9.20808e-05 0.000180139)
(-0.00065405 -0.000208828 0.000180139)
(-0.000607851 -0.000319229 0.000180139)
(-0.000543182 -0.000419932 0.000180139)
(-0.000462009 -0.000507875 0.000180139)
(-0.000366799 -0.000580386 0.000180139)
(-0.000260444 -0.000635263 0.000180139)
(-0.000146175 -0.000670838 0.000180139)
(-2.7464e-05 -0.000686029 0.000180139)
(9.20809e-05 -0.000680376 0.000180139)
(0.000208828 -0.00065405 0.000180139)
(0.000319229 -0.000607851 0.000180139)
(0.000419932 -0.000543182 0.000180139)
(0.000507875 -0.000462009 0.000180139)
(0.000580386 -0.000366799 0.000180139)
(0.000635263 -0.000260444 0.000180139)
(0.000670838 -0.000146175 0.000180139)
(0.000686029 -2.7464e-05 0.000180139)
(0.000680376 9.20808e-05 0.000180139)
(0.00065405 0.000208828 0.000180139)
(0.000607851 0.000319229 0.000180139)
(0.000543182 0.000419932 0.000180139)
(0.000462009 0.000507875 0.000180139)
(0.000366799 0.000580386 0.000180139)
(0.000260444 0.000635263 0.000180139)
(0.000146175 0.000670838 0.000180139)
(0.000208317 0.00113476 0.000306536)
(8.10396e-06 0.00115369 0.000306536)
(-0.000192356 0.00113757 0.000306536)
(-0.000386971 0.00108689 0.000306537)
(-0.000569827 0.00100318 0.000306537)
(-0.00073537 0.000888989 0.000306537)
(-0.00087857 0.000747787 0.000306537)
(-0.000995074 0.000583864 0.000306536)
(-0.00108134 0.000402201 0.000306536)
(-0.00113476 0.000208317 0.000306536)
(-0.00115369 8.10386e-06 0.000306536)
(-0.00113757 -0.000192356 0.000306536)
(-0.00108689 -0.000386971 0.000306536)
(-0.00100318 -0.000569827 0.000306537)
(-0.000888989 -0.00073537 0.000306537)
(-0.000747787 -0.00087857 0.000306537)
(-0.000583864 -0.000995074 0.000306536)
(-0.000402201 -0.00108134 0.000306536)
(-0.000208317 -0.00113476 0.000306536)
(-8.1038e-06 -0.00115369 0.000306536)
(0.000192356 -0.00113757 0.000306536)
(0.000386971 -0.00108689 0.000306536)
(0.000569827 -0.00100318 0.000306537)
(0.00073537 -0.000888989 0.000306537)
(0.00087857 -0.000747787 0.000306537)
(0.000995074 -0.000583864 0.000306536)
(0.00108134 -0.000402201 0.000306536)
(0.00113476 -0.000208317 0.000306536)
(0.00115369 -8.10389e-06 0.000306536)
(0.00113757 0.000192356 0.000306536)
(0.00108689 0.000386971 0.000306537)
(0.00100318 0.000569827 0.000306537)
(0.000888989 0.00073537 0.000306537)
(0.000747787 0.00087857 0.000306537)
(0.000583864 0.000995074 0.000306536)
(0.000402201 0.00108134 0.000306536)
(0.00013162 0.00112727 0.000337729)
(-6.61281e-05 0.001133 0.000337729)
(-0.000261867 0.00110431 0.000337729)
(-0.000449649 0.00104206 0.000337729)
(-0.000623769 0.000948144 0.000337729)
(-0.000778936 0.000825423 0.000337729)
(-0.000910435 0.000677622 0.000337729)
(-0.00101427 0.000509232 0.000337729)
(-0.00108729 0.000325369 0.000337729)
(-0.00112727 0.00013162 0.000337729)
(-0.001133 -6.61282e-05 0.000337729)
(-0.00110431 -0.000261867 0.000337729)
(-0.00104206 -0.000449649 0.000337729)
(-0.000948144 -0.000623769 0.000337729)
(-0.000825423 -0.000778936 0.000337729)
(-0.000677622 -0.000910435 0.000337729)
(-0.000509232 -0.00101427 0.000337729)
(-0.000325369 -0.00108729 0.000337729)
(-0.00013162 -0.00112727 0.000337729)
(6.61282e-05 -0.001133 0.000337729)
(0.000261867 -0.00110431 0.000337729)
(0.000449649 -0.00104206 0.000337729)
(0.000623769 -0.000948144 0.000337729)
(0.000778936 -0.000825423 0.000337729)
(0.000910435 -0.000677622 0.000337729)
(0.00101427 -0.000509232 0.000337729)
(0.00108729 -0.000325369 0.000337729)
(0.00112727 -0.00013162 0.000337729)
(0.001133 6.61282e-05 0.000337729)
(0.00110431 0.000261867 0.000337729)
(0.00104206 0.000449649 0.000337729)
(0.000948144 0.000623769 0.000337729)
(0.000825423 0.000778936 0.000337729)
(0.000677622 0.000910435 0.000337729)
(0.000509232 0.00101427 0.000337729)
(0.000325369 0.00108729 0.000337729)
(4.26681e-05 0.00111427 0.000363431)
(-0.000151471 0.00110475 0.000363431)
(-0.000341007 0.00106166 0.000363431)
(-0.000520182 0.00098632 0.000363431)
(-0.000683552 0.000881007 0.000363431)
(-0.000826153 0.000748924 0.000363431)
(-0.000943651 0.000594086 0.000363431)
(-0.00103248 0.000421198 0.000363431)
(-0.00108993 0.000235511 0.000363431)
(-0.00111427 4.2668e-05 0.000363431)
(-0.00110475 -0.000151471 0.000363431)
(-0.00106166 -0.000341007 0.000363431)
(-0.00098632 -0.000520182 0.000363431)
(-0.000881007 -0.000683552 0.000363431)
(-0.000748924 -0.000826153 0.000363431)
(-0.000594086 -0.000943651 0.000363431)
(-0.000421198 -0.00103248 0.000363431)
(-0.000235511 -0.00108993 0.000363431)
(-4.26679e-05 -0.00111427 0.000363431)
(0.000151471 -0.00110475 0.000363431)
(0.000341007 -0.00106166 0.000363431)
(0.000520182 -0.00098632 0.000363431)
(0.000683552 -0.000881007 0.000363431)
(0.000826153 -0.000748924 0.000363431)
(0.000943651 -0.000594086 0.000363431)
(0.00103248 -0.000421198 0.000363431)
(0.00108993 -0.000235511 0.000363431)
(0.00111427 -4.2668e-05 0.000363431)
(0.00110475 0.000151471 0.000363431)
(0.00106166 0.000341007 0.000363431)
(0.00098632 0.000520182 0.000363431)
(0.000881007 0.000683552 0.000363431)
(0.000748925 0.000826153 0.000363431)
(0.000594086 0.000943651 0.000363431)
(0.000421198 0.00103248 0.000363431)
(0.000235511 0.00108993 0.000363431)
(0.000220027 0.00156636 0.00051301)
(-5.53112e-05 0.00158077 0.00051301)
(-0.000328969 0.00154715 0.00051301)
(-0.000592631 0.00146652 0.000513011)
(-0.000838286 0.00134133 0.000513011)
(-0.00105847 0.00117539 0.000513011)
(-0.00124649 0.000973729 0.000513011)
(-0.00139664 0.000742484 0.000513011)
(-0.00150436 0.00048868 0.00051301)
(-0.00156636 0.000220027 0.00051301)
(-0.00158077 -5.53113e-05 0.00051301)
(-0.00154715 -0.000328969 0.00051301)
(-0.00146652 -0.000592631 0.00051301)
(-0.00134133 -0.000838286 0.000513011)
(-0.00117539 -0.00105847 0.000513011)
(-0.000973729 -0.00124649 0.000513011)
(-0.000742484 -0.00139664 0.000513011)
(-0.00048868 -0.00150436 0.00051301)
(-0.000220027 -0.00156636 0.00051301)
(5.53114e-05 -0.00158077 0.00051301)
(0.000328969 -0.00154715 0.00051301)
(0.000592631 -0.00146652 0.00051301)
(0.000838286 -0.00134133 0.000513011)
(0.00105847 -0.00117539 0.000513011)
(0.00124649 -0.000973729 0.000513011)
(0.00139664 -0.000742485 0.000513011)
(0.00150436 -0.00048868 0.00051301)
(0.00156636 -0.000220027 0.00051301)
(0.00158077 5.53113e-05 0.00051301)
(0.00154715 0.000328969 0.00051301)
(0.00146652 0.000592631 0.000513011)
(0.00134133 0.000838286 0.000513011)
(0.00117539 0.00105847 0.000513011)
(0.000973729 0.00124649 0.000513011)
(0.000742485 0.00139664 0.000513011)
(0.00048868 0.00150436 0.00051301)
(0.000132118 0.00153776 0.000547213)
(-0.000136918 0.00153734 0.000547213)
(-0.000401793 0.00149021 0.000547213)
(-0.00065446 0.0013978 0.000547213)
(-0.000887242 0.00126292 0.000547213)
(-0.00109307 0.00108966 0.000547213)
(-0.00126568 0.000883297 0.000547213)
(-0.00139983 0.000650095 0.000547213)
(-0.00149145 0.00039714 0.000547213)
(-0.00153776 0.000132118 0.000547213)
(-0.00153734 -0.000136918 0.000547213)
(-0.00149021 -0.000401793 0.000547213)
(-0.0013978 -0.000654461 0.000547213)
(-0.00126292 -0.000887242 0.000547213)
(-0.00108966 -0.00109307 0.000547213)
(-0.000883297 -0.00126568 0.000547213)
(-0.000650095 -0.00139983 0.000547213)
(-0.00039714 -0.00149145 0.000547213)
(-0.000132118 -0.00153776 0.000547213)
(0.000136918 -0.00153734 0.000547213)
(0.000401794 -0.00149021 0.000547213)
(0.000654461 -0.0013978 0.000547213)
(0.000887242 -0.00126292 0.000547213)
(0.00109307 -0.00108966 0.000547213)
(0.00126568 -0.000883297 0.000547213)
(0.00139983 -0.000650095 0.000547213)
(0.00149145 -0.00039714 0.000547213)
(0.00153776 -0.000132118 0.000547213)
(0.00153734 0.000136918 0.000547213)
(0.00149021 0.000401793 0.000547213)
(0.0013978 0.00065446 0.000547213)
(0.00126292 0.000887242 0.000547213)
(0.00108966 0.00109307 0.000547213)
(0.000883297 0.00126568 0.000547213)
(0.000650095 0.00139983 0.000547213)
(0.00039714 0.00149145 0.000547213)
(3.35849e-05 0.00150345 0.00057584)
(-0.000227997 0.00148645 0.00057584)
(-0.000482652 0.00142427 0.000575841)
(-0.000722641 0.00131882 0.00057584)
(-0.000940673 0.0011733 0.00057584)
(-0.00113012 0.000992129 0.00057584)
(-0.00128524 0.000780812 0.00057584)
(-0.0014013 0.000545771 0.00057584)
(-0.00147478 0.000294147 0.00057584)
(-0.00150345 3.35848e-05 0.00057584)
(-0.00148645 -0.000227997 0.00057584)
(-0.00142427 -0.000482652 0.00057584)
(-0.00131882 -0.000722641 0.00057584)
(-0.0011733 -0.000940673 0.00057584)
(-0.000992129 -0.00113012 0.00057584)
(-0.000780812 -0.00128524 0.00057584)
(-0.000545771 -0.0014013 0.00057584)
(-0.000294147 -0.00147478 0.00057584)
(-3.35847e-05 -0.00150345 0.00057584)
(0.000227998 -0.00148645 0.00057584)
(0.000482652 -0.00142427 0.00057584)
(0.000722641 -0.00131882 0.00057584)
(0.000940673 -0.0011733 0.00057584)
(0.00113012 -0.000992129 0.00057584)
(0.00128524 -0.000780812 0.00057584)
(0.0014013 -0.000545771 0.00057584)
(0.00147478 -0.000294147 0.00057584)
(0.00150345 -3.35848e-05 0.00057584)
(0.00148645 0.000227997 0.00057584)
(0.00142427 0.000482652 0.000575841)
(0.00131882 0.000722641 0.00057584)
(0.0011733 0.000940673 0.00057584)
(0.000992129 0.00113012 0.00057584)
(0.000780813 0.00128524 0.00057584)
(0.000545771 0.0014013 0.000575841)
(0.000294147 0.00147478 0.00057584)
(0.00019204 0.00196918 0.00074938)
(-0.000152821 0.00197261 0.000749379)
(-0.000493039 0.0019161 0.000749379)
(-0.000818276 0.00180138 0.00074938)
(-0.00111865 0.00163192 0.00074938)
(-0.00138503 0.00141287 0.00074938)
(-0.00160933 0.0011509 0.00074938)
(-0.00178474 0.000853957 0.00074938)
(-0.00190591 0.000531067 0.00074938)
(-0.00196918 0.00019204 0.000749379)
(-0.00197261 -0.000152821 0.000749379)
(-0.0019161 -0.000493039 0.000749379)
(-0.00180138 -0.000818276 0.000749379)
(-0.00163192 -0.00111865 0.00074938)
(-0.00141287 -0.00138503 0.00074938)
(-0.0011509 -0.00160933 0.00074938)
(-0.000853956 -0.00178474 0.00074938)
(-0.000531066 -0.00190591 0.00074938)
(-0.00019204 -0.00196918 0.000749379)
(0.000152821 -0.00197261 0.000749379)
(0.000493039 -0.0019161 0.000749379)
(0.000818276 -0.00180138 0.000749379)
(0.00111865 -0.00163192 0.00074938)
(0.00138503 -0.00141287 0.00074938)
(0.00160934 -0.0011509 0.00074938)
(0.00178474 -0.000853957 0.00074938)
(0.00190591 -0.000531067 0.00074938)
(0.00196918 -0.00019204 0.00074938)
(0.00197261 0.000152821 0.000749379)
(0.0019161 0.000493039 0.000749379)
(0.00180138 0.000818276 0.00074938)
(0.00163192 0.00111865 0.00074938)
(0.00141287 0.00138503 0.00074938)
(0.0011509 0.00160933 0.00074938)
(0.000853957 0.00178474 0.00074938)
(0.000531067 0.00190591 0.00074938)
(0.000100122 0.00190923 0.000781493)
(-0.000232934 0.00189761 0.000781493)
(-0.000558912 0.00182834 0.000781493)
(-0.000867908 0.00170351 0.000781493)
(-0.00115053 0.00152692 0.000781493)
(-0.0013982 0.00130393 0.000781493)
(-0.00160338 0.00104133 0.000781493)
(-0.00175985 0.000747081 0.000781493)
(-0.00186284 0.000430136 0.000781493)
(-0.00190923 0.000100122 0.000781493)
(-0.00189761 -0.000232934 0.000781493)
(-0.00182834 -0.000558912 0.000781493)
(-0.00170351 -0.000867908 0.000781493)
(-0.00152691 -0.00115053 0.000781493)
(-0.00130393 -0.0013982 0.000781493)
(-0.00104133 -0.00160338 0.000781493)
(-0.000747081 -0.00175985 0.000781493)
(-0.000430136 -0.00186284 0.000781493)
(-0.000100122 -0.00190923 0.000781493)
(0.000232934 -0.00189761 0.000781493)
(0.000558912 -0.00182834 0.000781493)
(0.000867908 -0.00170351 0.000781493)
(0.00115053 -0.00152692 0.000781493)
(0.0013982 -0.00130393 0.000781493)
(0.00160338 -0.00104133 0.000781493)
(0.00175985 -0.000747081 0.000781493)
(0.00186284 -0.000430136 0.000781493)
(0.00190923 -0.000100122 0.000781493)
(0.00189761 0.000232934 0.000781493)
(0.00182834 0.000558912 0.000781493)
(0.00170351 0.000867908 0.000781493)
(0.00152692 0.00115053 0.000781493)
(0.00130393 0.0013982 0.000781493)
(0.00104133 0.00160338 0.000781493)
(0.000747081 0.00175985 0.000781493)
(0.000430136 0.00186284 0.000781493)
(-8.73175e-07 0.00184416 0.000807935)
(-0.000321094 0.00181599 0.000807935)
(-0.000631559 0.00173264 0.000807936)
(-0.000922834 0.00159665 0.000807935)
(-0.00118607 0.00141214 0.000807936)
(-0.00141327 0.00118473 0.000807935)
(-0.00159752 0.000921322 0.000807935)
(-0.00173324 0.000629918 0.000807935)
(-0.00181629 0.000319375 0.000807935)
(-0.00184416 -8.73322e-07 0.000807935)
(-0.00181599 -0.000321094 0.000807935)
(-0.00173264 -0.000631559 0.000807935)
(-0.00159665 -0.000922834 0.000807935)
(-0.00141214 -0.00118607 0.000807935)
(-0.00118473 -0.00141327 0.000807935)
(-0.000921322 -0.00159752 0.000807935)
(-0.000629918 -0.00173324 0.000807935)
(-0.000319375 -0.00181629 0.000807935)
(8.73427e-07 -0.00184416 0.000807935)
(0.000321094 -0.00181599 0.000807935)
(0.000631559 -0.00173264 0.000807935)
(0.000922834 -0.00159665 0.000807935)
(0.00118607 -0.00141214 0.000807935)
(0.00141327 -0.00118473 0.000807935)
(0.00159752 -0.000921322 0.000807935)
(0.00173324 -0.000629918 0.000807935)
(0.00181629 -0.000319375 0.000807935)
(0.00184416 8.73289e-07 0.000807935)
(0.00181599 0.000321094 0.000807935)
(0.00173264 0.000631559 0.000807936)
(0.00159665 0.000922834 0.000807935)
(0.00141214 0.00118607 0.000807936)
(0.00118473 0.00141327 0.000807935)
(0.000921322 0.00159752 0.000807935)
(0.000629918 0.00173324 0.000807935)
(0.000319375 0.00181629 0.000807935)
(0.000130337 0.00233009 0.00100839)
(-0.000276259 0.00231733 0.00100839)
(-0.000674462 0.00223415 0.00100839)
(-0.00105217 0.00208309 0.00100839)
(-0.00139791 0.00186874 0.00100839)
(-0.00170118 0.0015976 0.00100839)
(-0.00195275 0.00127792 0.00100839)
(-0.00214499 0.000919416 0.00100839)
(-0.00227206 0.000532974 0.00100839)
(-0.00233009 0.000130337 0.00100839)
(-0.00231733 -0.000276259 0.00100839)
(-0.00223415 -0.000674462 0.00100839)
(-0.00208309 -0.00105217 0.00100839)
(-0.00186874 -0.00139791 0.00100839)
(-0.0015976 -0.00170118 0.00100839)
(-0.00127792 -0.00195275 0.00100839)
(-0.000919416 -0.00214499 0.00100839)
(-0.000532974 -0.00227206 0.00100839)
(-0.000130337 -0.00233009 0.00100839)
(0.00027626 -0.00231733 0.00100839)
(0.000674462 -0.00223415 0.00100839)
(0.00105217 -0.00208309 0.00100839)
(0.00139791 -0.00186874 0.00100839)
(0.00170118 -0.0015976 0.00100839)
(0.00195275 -0.00127792 0.00100839)
(0.00214499 -0.000919416 0.00100839)
(0.00227206 -0.000532974 0.00100839)
(0.00233009 -0.000130337 0.00100839)
(0.00231733 0.000276259 0.00100839)
(0.00223415 0.000674462 0.00100839)
(0.00208309 0.00105217 0.00100839)
(0.00186874 0.00139791 0.00100839)
(0.0015976 0.00170118 0.00100839)
(0.00127792 0.00195275 0.00100839)
(0.000919417 0.00214499 0.00100839)
(0.000532974 0.00227206 0.00100839)
(4.01731e-05 0.00223099 0.00103391)
(-0.000347844 0.00220407 0.00103391)
(-0.000725292 0.00211018 0.00103391)
(-0.0010807 0.00195218 0.00103391)
(-0.00140328 0.00173486 0.00103391)
(-0.00168321 0.00146483 0.00103391)
(-0.001912 0.00115028 0.00103391)
(-0.0020827 0.000800793 0.00103391)
(-0.00219012 0.000426969 0.00103391)
(-0.00223099 4.01729e-05 0.00103391)
(-0.00220407 -0.000347845 0.00103391)
(-0.00211018 -0.000725292 0.00103391)
(-0.00195218 -0.0010807 0.00103391)
(-0.00173486 -0.00140328 0.00103391)
(-0.00146483 -0.00168321 0.00103391)
(-0.00115028 -0.001912 0.00103391)
(-0.000800793 -0.0020827 0.00103391)
(-0.000426969 -0.00219012 0.00103391)
(-4.01728e-05 -0.00223099 0.00103391)
(0.000347845 -0.00220407 0.00103391)
(0.000725292 -0.00211018 0.00103391)
(0.0010807 -0.00195218 0.00103391)
(0.00140328 -0.00173486 0.00103391)
(0.00168321 -0.00146483 0.00103391)
(0.001912 -0.00115028 0.00103391)
(0.0020827 -0.000800793 0.00103391)
(0.00219012 -0.000426969 0.00103391)
(0.00223099 -4.0173e-05 0.00103391)
(0.00220407 0.000347845 0.00103391)
(0.00211018 0.000725292 0.00103391)
(0.00195218 0.0010807 0.00103391)
(0.00173486 0.00140328 0.00103391)
(0.00146483 0.00168321 0.00103391)
(0.00115028 0.001912 0.00103391)
(0.000800794 0.0020827 0.00103391)
(0.00042697 0.00219012 0.00103391)
(-5.74916e-05 0.00212792 0.00105361)
(-0.000426129 0.00208561 0.00105361)
(-0.000781818 0.00197993 0.00105361)
(-0.00111375 0.00181409 0.00105361)
(-0.00141184 0.00159313 0.00105361)
(-0.00166704 0.00132376 0.00105361)
(-0.00187158 0.00101417 0.00105361)
(-0.00201926 0.000673769 0.00105361)
(-0.00210558 0.000312892 0.00105361)
(-0.00212792 -5.74918e-05 0.00105361)
(-0.00208561 -0.000426129 0.00105361)
(-0.00197993 -0.000781818 0.00105361)
(-0.00181409 -0.00111375 0.00105361)
(-0.00159313 -0.00141184 0.00105361)
(-0.00132376 -0.00166704 0.00105361)
(-0.00101417 -0.00187158 0.00105361)
(-0.000673769 -0.00201926 0.00105361)
(-0.000312892 -0.00210558 0.00105361)
(5.74919e-05 -0.00212792 0.00105361)
(0.000426129 -0.00208561 0.00105361)
(0.000781818 -0.00197993 0.00105361)
(0.00111375 -0.00181409 0.00105361)
(0.00141184 -0.00159313 0.00105361)
(0.00166704 -0.00132376 0.00105361)
(0.00187158 -0.00101417 0.00105361)
(0.00201926 -0.000673769 0.00105361)
(0.00210558 -0.000312892 0.00105361)
(0.00212792 5.74917e-05 0.00105361)
(0.00208561 0.000426129 0.00105361)
(0.00197993 0.000781818 0.00105361)
(0.00181409 0.00111375 0.00105361)
(0.00159313 0.00141184 0.00105361)
(0.00132376 0.00166704 0.00105361)
(0.00101417 0.00187158 0.00105361)
(0.000673769 0.00201926 0.00105361)
(0.000312892 0.00210558 0.00105361)
(4.44336e-05 0.00263632 0.00128715)
(-0.000414034 0.00260399 0.00128715)
(-0.000859922 0.00249253 0.00128715)
(-0.00127968 0.00230534 0.00128715)
(-0.00166056 0.0020481 0.00128715)
(-0.00199098 0.00172863 0.00128715)
(-0.0022609 0.00135664 0.00128715)
(-0.00246213 0.000943428 0.00128715)
(-0.00258855 0.00050155 0.00128715)
(-0.00263632 4.44334e-05 0.00128715)
(-0.00260399 -0.000414034 0.00128715)
(-0.00249253 -0.000859922 0.00128715)
(-0.00230534 -0.00127968 0.00128715)
(-0.0020481 -0.00166056 0.00128715)
(-0.00172863 -0.00199098 0.00128715)
(-0.00135664 -0.0022609 0.00128715)
(-0.000943428 -0.00246213 0.00128715)
(-0.00050155 -0.00258855 0.00128715)
(-4.44332e-05 -0.00263632 0.00128715)
(0.000414034 -0.00260399 0.00128715)
(0.000859922 -0.00249253 0.00128715)
(0.00127968 -0.00230534 0.00128715)
(0.00166056 -0.0020481 0.00128715)
(0.00199098 -0.00172863 0.00128715)
(0.0022609 -0.00135664 0.00128715)
(0.00246213 -0.000943428 0.00128715)
(0.00258855 -0.00050155 0.00128715)
(0.00263632 -4.44334e-05 0.00128715)
(0.00260399 0.000414034 0.00128715)
(0.00249253 0.000859922 0.00128715)
(0.00230534 0.00127968 0.00128715)
(0.0020481 0.00166056 0.00128715)
(0.00172863 0.00199098 0.00128715)
(0.00135664 0.0022609 0.00128715)
(0.000943429 0.00246213 0.00128715)
(0.00050155 0.00258855 0.00128715)
(-3.9586e-05 0.00249236 0.00130181)
(-0.000471778 0.00244762 0.00130181)
(-0.000889636 0.00232851 0.00130181)
(-0.00128046 0.00213865 0.00130181)
(-0.00163238 0.00188381 0.00130181)
(-0.0019347 0.00157173 0.00130181)
(-0.00217824 0.0012119 0.00130181)
(-0.00235559 0.000815238 0.00130181)
(-0.00246137 0.000393808 0.00130181)
(-0.00249236 -3.95862e-05 0.00130181)
(-0.00244762 -0.000471779 0.00130181)
(-0.00232851 -0.000889636 0.00130181)
(-0.00213865 -0.00128046 0.00130181)
(-0.00188381 -0.00163238 0.00130181)
(-0.00157173 -0.0019347 0.00130181)
(-0.0012119 -0.00217824 0.00130181)
(-0.000815238 -0.00235559 0.00130181)
(-0.000393808 -0.00246137 0.00130181)
(3.95864e-05 -0.00249236 0.00130181)
(0.000471779 -0.00244762 0.00130181)
(0.000889636 -0.00232851 0.00130181)
(0.00128046 -0.00213865 0.00130181)
(0.00163238 -0.00188381 0.00130181)
(0.0019347 -0.00157173 0.00130181)
(0.00217824 -0.0012119 0.00130181)
(0.00235559 -0.000815238 0.00130181)
(0.00246137 -0.000393808 0.00130181)
(0.00249236 3.95861e-05 0.00130181)
(0.00244762 0.000471779 0.00130181)
(0.00232851 0.000889636 0.00130181)
(0.00213865 0.00128046 0.00130181)
(0.00188381 0.00163238 0.00130181)
(0.00157173 0.0019347 0.00130181)
(0.0012119 0.00217824 0.00130181)
(0.000815239 0.00235559 0.00130181)
(0.000393808 0.00246137 0.00130181)
(-0.000129359 0.00234622 0.00131041)
(-0.000534811 0.00228811 0.00131041)
(-0.000924013 0.00216048 0.00131041)
(-0.00128514 0.00196721 0.00131041)
(-0.00160722 0.00171416 0.00131041)
(-0.00188046 0.00140903 0.00131041)
(-0.00209657 0.00106108 0.00131041)
(-0.00224897 0.000680898 0.00131041)
(-0.00233304 0.000280024 0.00131041)
(-0.00234622 -0.00012936 0.00131041)
(-0.00228811 -0.000534811 0.00131041)
(-0.00216048 -0.000924013 0.00131041)
(-0.00196721 -0.00128514 0.00131041)
(-0.00171416 -0.00160722 0.00131041)
(-0.00140903 -0.00188046 0.00131041)
(-0.00106108 -0.00209657 0.00131041)
(-0.000680897 -0.00224897 0.00131041)
(-0.000280023 -0.00233304 0.00131041)
(0.00012936 -0.00234622 0.00131041)
(0.000534811 -0.00228811 0.00131041)
(0.000924013 -0.00216048 0.00131041)
(0.00128514 -0.00196721 0.00131041)
(0.00160722 -0.00171416 0.00131041)
(0.00188046 -0.00140903 0.00131041)
(0.00209657 -0.00106108 0.00131041)
(0.00224897 -0.000680898 0.00131041)
(0.00233304 -0.000280024 0.00131041)
(0.00234622 0.00012936 0.00131041)
(0.00228811 0.000534811 0.00131041)
(0.00216048 0.000924013 0.00131041)
(0.00196721 0.00128514 0.00131041)
(0.00171416 0.00160722 0.00131041)
(0.00140903 0.00188046 0.00131041)
(0.00106108 0.00209657 0.00131041)
(0.000680898 0.00224897 0.00131041)
(0.000280024 0.00233304 0.00131041)
(-5.3773e-05 0.00287515 0.00158573)
(-0.000552221 0.00282214 0.00158573)
(-0.00103389 0.00268337 0.00158573)
(-0.00148415 0.00246307 0.00158573)
(-0.00188931 0.00216793 0.00158573)
(-0.00223706 0.00180692 0.00158573)
(-0.00251684 0.00139101 0.00158573)
(-0.00272015 0.000932829 0.00158573)
(-0.00284081 0.000446308 0.00158573)
(-0.00287515 -5.37733e-05 0.00158573)
(-0.00282214 -0.000552221 0.00158573)
(-0.00268337 -0.00103389 0.00158573)
(-0.00246307 -0.00148415 0.00158573)
(-0.00216793 -0.00188931 0.00158573)
(-0.00180692 -0.00223706 0.00158573)
(-0.00139101 -0.00251684 0.00158573)
(-0.000932829 -0.00272015 0.00158573)
(-0.000446307 -0.00284081 0.00158573)
(5.37735e-05 -0.00287515 0.00158573)