/*--------------------------------*- C++ -*----------------------------------*\
| =========                 |                                                 |
| \\      /  F ield         | OpenFOAM: The Open Source CFD Toolbox           |
|  \\    /   O peration     | Version:  2312                                  |
|   \\  /    A nd           | Website:  www.openfoam.com                      |
|    \\/     M anipulation  |                                                 |
\*---------------------------------------------------------------------------*/
FoamFile
{
    version     2.0;
    format      ascii;
    arch        "LSB;label=32;scalar=64";
    class       pointVectorField;
    location    "0.3";
    object      pointD;
}
// * * * * * * * * * * * * * * * * * * * * * * * * * * * * * * * * * * * * * //

dimensions      [0 1 0 0 0 0 0];

internalField   nonuniform List<vector> 
2164
(
(0 0 0)
(0 0 0)
(0 0 0)
(0 0 0)
(0 0 0)
(0 0 0)
(0 0 0)
(0 0 0)
(0 0 0)
(0 0 0)
(0 0 0)
(0 0 0)
(0 0 0)
(0 0 0)
(0 0 0)
(0 0 0)
(0 0 0)
(0 0 0)
(0 0 0)
(0 0 0)
(0 0 0)
(0 0 0)
(0 0 0)
(0 0 0)
(0 0 0)
(0 0 0)
(0 0 0)
(0 0 0)
(0 0 0)
(0 0 0)
(0 0 0)
(0 0 0)
(0 0 0)
(0 0 0)
(0 0 0)
(0 0 0)
(0.000110047 0.000482913 7.57766e-05)
(2.45177e-05 0.000494686 7.57766e-05)
(-6.17561e-05 0.000491428 7.57771e-05)
(-0.000146153 0.000473239 7.57775e-05)
(-0.00022611 0.000440671 7.57775e-05)
(-0.000299196 0.000394712 7.57774e-05)
(-0.000363192 0.00033676 7.57772e-05)
(-0.000416152 0.000268576 7.57769e-05)
(-0.000456468 0.000192232 7.57767e-05)
(-0.000482913 0.000110046 7.57765e-05)
(-0.000494686 2.45176e-05 7.57766e-05)
(-0.000491428 -6.17561e-05 7.57771e-05)
(-0.000473239 -0.000146153 7.57775e-05)
(-0.00044067 -0.00022611 7.57775e-05)
(-0.000394712 -0.000299196 7.57773e-05)
(-0.00033676 -0.000363192 7.57772e-05)
(-0.000268576 -0.000416152 7.57769e-05)
(-0.000192232 -0.000456468 7.57767e-05)
(-0.000110046 -0.000482913 7.57765e-05)
(-2.45176e-05 -0.000494686 7.57766e-05)
(6.17562e-05 -0.000491428 7.57771e-05)
(0.000146153 -0.000473239 7.57775e-05)
(0.00022611 -0.000440671 7.57775e-05)
(0.000299196 -0.000394712 7.57774e-05)
(0.000363192 -0.00033676 7.57772e-05)
(0.000416152 -0.000268576 7.57769e-05)
(0.000456468 -0.000192232 7.57767e-05)
(0.000482913 -0.000110046 7.57766e-05)
(0.000494686 -2.45176e-05 7.57766e-05)
(0.000491428 6.17561e-05 7.57771e-05)
(0.000473239 0.000146153 7.57775e-05)
(0.000440671 0.00022611 7.57775e-05)
(0.000394712 0.000299196 7.57774e-05)
(0.00033676 0.000363192 7.57773e-05)
(0.000268576 0.000416152 7.57769e-05)
(0.000192232 0.000456468 7.57767e-05)
(6.04969e-05 0.000484663 9.32673e-05)
(-2.45829e-05 0.000487805 9.32672e-05)
(-0.000108915 0.000476126 9.32676e-05)
(-0.000189939 0.000449979 9.32679e-05)
(-0.000265192 0.00041016 9.32679e-05)
(-0.000332387 0.000357879 9.32677e-05)
(-0.000389482 0.000294724 9.32675e-05)
(-0.000434743 0.000222613 9.32674e-05)
(-0.000466795 0.000143739 9.32673e-05)
(-0.000484663 6.04968e-05 9.32673e-05)
(-0.000487805 -2.4583e-05 9.32672e-05)
(-0.000476126 -0.000108915 9.32675e-05)
(-0.000449979 -0.000189939 9.32679e-05)
(-0.00041016 -0.000265192 9.32679e-05)
(-0.000357879 -0.000332387 9.32677e-05)
(-0.000294724 -0.000389482 9.32675e-05)
(-0.000222613 -0.000434743 9.32674e-05)
(-0.000143739 -0.000466795 9.32672e-05)
(-6.04968e-05 -0.000484663 9.32672e-05)
(2.4583e-05 -0.000487805 9.32672e-05)
(0.000108915 -0.000476126 9.32675e-05)
(0.000189939 -0.000449979 9.32679e-05)
(0.000265192 -0.00041016 9.32679e-05)
(0.000332387 -0.000357879 9.32677e-05)
(0.000389482 -0.000294724 9.32675e-05)
(0.000434743 -0.000222613 9.32674e-05)
(0.000466795 -0.000143739 9.32673e-05)
(0.000484663 -6.04968e-05 9.32673e-05)
(0.000487805 2.45829e-05 9.32672e-05)
(0.000476126 0.000108915 9.32676e-05)
(0.000449979 0.000189939 9.32679e-05)
(0.00041016 0.000265192 9.32679e-05)
(0.000357879 0.000332387 9.32677e-05)
(0.000294724 0.000389482 9.32675e-05)
(0.000222613 0.000434743 9.32674e-05)
(0.000143739 0.000466795 9.32673e-05)
(0 0 0)
(0 0 0)
(0 0 0)
(0 0 0)
(0 0 0)
(0 0 0)
(0 0 0)
(0 0 0)
(0 0 0)
(0 0 0)
(0 0 0)
(0 0 0)
(0 0 0)
(0 0 0)
(0 0 0)
(0 0 0)
(0 0 0)
(0 0 0)
(0 0 0)
(0 0 0)
(0 0 0)
(0 0 0)
(0 0 0)
(0 0 0)
(0 0 0)
(0 0 0)
(0 0 0)
(0 0 0)
(0 0 0)
(0 0 0)
(0 0 0)
(0 0 0)
(0 0 0)
(0 0 0)
(0 0 0)
(0 0 0)
(1.98095e-06 0.00048377 0.000107522)
(-8.20546e-05 0.000476765 0.000107522)
(-0.000163598 0.000455273 0.000107522)
(-0.000240169 0.000419948 0.000107522)
(-0.000309444 0.000371863 0.000107522)
(-0.000369316 0.000312479 0.000107522)
(-0.000417966 0.000243601 0.000107522)
(-0.000453918 0.000167321 0.000107522)
(-0.000476077 8.59569e-05 0.000107522)
(-0.00048377 1.98091e-06 0.000107522)
(-0.000476765 -8.20547e-05 0.000107522)
(-0.000455273 -0.000163598 0.000107522)
(-0.000419948 -0.000240169 0.000107522)
(-0.000371863 -0.000309444 0.000107522)
(-0.000312479 -0.000369316 0.000107522)
(-0.000243601 -0.000417966 0.000107522)
(-0.000167321 -0.000453918 0.000107522)
(-8.59569e-05 -0.000476077 0.000107522)
(-1.98089e-06 -0.00048377 0.000107522)
(8.20547e-05 -0.000476765 0.000107522)
(0.000163598 -0.000455273 0.000107522)
(0.000240169 -0.000419948 0.000107522)
(0.000309444 -0.000371863 0.000107522)
(0.000369316 -0.000312479 0.000107522)
(0.000417966 -0.000243601 0.000107522)
(0.000453918 -0.000167321 0.000107522)
(0.000476077 -8.59569e-05 0.000107522)
(0.00048377 -1.98092e-06 0.000107522)
(0.000476765 8.20547e-05 0.000107522)
(0.000455273 0.000163598 0.000107522)
(0.000419948 0.000240169 0.000107522)
(0.000371863 0.000309444 0.000107522)
(0.000312479 0.000369316 0.000107522)
(0.000243601 0.000417966 0.000107522)
(0.000167321 0.000453918 0.000107522)
(8.5957e-05 0.000476077 0.000107522)
(0 0 0)
(0 0 0)
(0 0 0)
(0 0 0)
(0 0 0)
(0 0 0)
(0 0 0)
(0 0 0)
(0 0 0)
(0 0 0)
(0 0 0)
(0 0 0)
(0 0 0)
(0 0 0)
(0 0 0)
(0 0 0)
(0 0 0)
(0 0 0)
(0 0 0)
(0 0 0)
(0 0 0)
(0 0 0)
(0 0 0)
(0 0 0)
(0 0 0)
(0 0 0)
(0 0 0)
(0 0 0)
(0 0 0)
(0 0 0)
(0 0 0)
(0 0 0)
(0 0 0)
(0 0 0)
(0 0 0)
(0 0 0)
(-6.43688e-05 0.000477401 0.000118122)
(-0.00014629 0.00045897 0.000118122)
(-0.000223767 0.000426594 0.000118122)
(-0.000294445 0.000381256 0.000118122)
(-0.000356176 0.000324335 0.000118122)
(-0.000407085 0.000257557 0.000118122)
(-0.000445625 0.000182955 0.000118122)
(-0.000470625 0.000102793 0.000118122)
(-0.000481325 1.95091e-05 0.000118122)
(-0.0004774 -6.43688e-05 0.000118122)
(-0.00045897 -0.00014629 0.000118122)
(-0.000426594 -0.000223767 0.000118122)
(-0.000381256 -0.000294445 0.000118122)
(-0.000324335 -0.000356176 0.000118122)
(-0.000257557 -0.000407085 0.000118122)
(-0.000182955 -0.000445625 0.000118122)
(-0.000102793 -0.000470625 0.000118122)
(-1.95091e-05 -0.000481325 0.000118122)
(6.43688e-05 -0.000477401 0.000118122)
(0.00014629 -0.00045897 0.000118122)
(0.000223767 -0.000426594 0.000118122)
(0.000294445 -0.000381256 0.000118122)
(0.000356176 -0.000324335 0.000118122)
(0.000407085 -0.000257557 0.000118122)
(0.000445625 -0.000182955 0.000118122)
(0.000470625 -0.000102793 0.000118122)
(0.000481325 -1.95091e-05 0.000118122)
(0.000477401 6.43688e-05 0.000118122)
(0.00045897 0.00014629 0.000118122)
(0.000426595 0.000223767 0.000118122)
(0.000381256 0.000294445 0.000118122)
(0.000324335 0.000356176 0.000118122)
(0.000257557 0.000407085 0.000118122)
(0.000182955 0.000445625 0.000118122)
(0.000102793 0.000470625 0.000118122)
(1.95091e-05 0.000481325 0.000118122)
(0 0 0)
(0 0 0)
(0 0 0)
(0 0 0)
(0 0 0)
(0 0 0)
(0 0 0)
(0 0 0)
(0 0 0)
(0 0 0)
(0 0 0)
(0 0 0)
(0 0 0)
(0 0 0)
(0 0 0)
(0 0 0)
(0 0 0)
(0 0 0)
(0 0 0)
(0 0 0)
(0 0 0)
(0 0 0)
(0 0 0)
(0 0 0)
(0 0 0)
(0 0 0)
(0 0 0)
(0 0 0)
(0 0 0)
(0 0 0)
(0 0 0)
(0 0 0)
(0 0 0)
(0 0 0)
(0 0 0)
(0 0 0)
(0.000150563 0.000957848 0.000203692)
(-1.80529e-05 0.000969441 0.000203692)
(-0.000186121 0.000951579 0.000203693)
(-0.000348532 0.000904803 0.000203694)
(-0.000500354 0.000830535 0.000203694)
(-0.000636974 0.000731032 0.000203694)
(-0.000754239 0.000609316 0.000203693)
(-0.000848587 0.000469087 0.000203693)
(-0.000917151 0.000314604 0.000203692)
(-0.000957848 0.000150563 0.000203692)
(-0.000969441 -1.8053e-05 0.000203692)
(-0.000951578 -0.000186121 0.000203693)
(-0.000904803 -0.000348532 0.000203694)
(-0.000830535 -0.000500355 0.000203694)
(-0.000731031 -0.000636974 0.000203694)
(-0.000609316 -0.000754239 0.000203693)
(-0.000469087 -0.000848587 0.000203693)
(-0.000314604 -0.000917151 0.000203692)
(-0.000150563 -0.000957848 0.000203692)
(1.80531e-05 -0.000969441 0.000203692)
(0.000186121 -0.000951579 0.000203693)
(0.000348532 -0.000904803 0.000203694)
(0.000500355 -0.000830535 0.000203694)
(0.000636974 -0.000731032 0.000203694)
(0.000754239 -0.000609316 0.000203693)
(0.000848587 -0.000469087 0.000203693)
(0.000917151 -0.000314604 0.000203692)
(0.000957848 -0.000150563 0.000203692)
(0.000969441 1.8053e-05 0.000203692)
(0.000951579 0.000186121 0.000203693)
(0.000904803 0.000348532 0.000203694)
(0.000830535 0.000500355 0.000203694)
(0.000731032 0.000636974 0.000203694)
(0.000609316 0.000754239 0.000203693)
(0.000469087 0.000848587 0.000203693)
(0.000314604 0.000917151 0.000203692)
(8.0056e-05 0.000956145 0.000235504)
(-8.71936e-05 0.000955521 0.000235504)
(-0.000251792 0.000925864 0.000235505)
(-0.000408742 0.000868074 0.000235505)
(-0.000553271 0.000783909 0.000235505)
(-0.00068099 0.000675925 0.000235505)
(-0.000788018 0.000547403 0.000235505)
(-0.000871102 0.000402248 0.000235504)
(-0.000927718 0.000244872 0.000235504)
(-0.000956145 8.00559e-05 0.000235504)
(-0.000955521 -8.71937e-05 0.000235504)
(-0.000925864 -0.000251793 0.000235504)
(-0.000868074 -0.000408742 0.000235505)
(-0.000783909 -0.000553271 0.000235505)
(-0.000675925 -0.00068099 0.000235505)
(-0.000547403 -0.000788018 0.000235505)
(-0.000402248 -0.000871102 0.000235504)
(-0.000244872 -0.000927718 0.000235504)
(-8.00559e-05 -0.000956145 0.000235504)
(8.71938e-05 -0.000955521 0.000235504)
(0.000251793 -0.000925864 0.000235504)
(0.000408742 -0.000868074 0.000235505)
(0.000553271 -0.000783909 0.000235505)
(0.00068099 -0.000675925 0.000235505)
(0.000788018 -0.000547403 0.000235505)
(0.000871102 -0.000402248 0.000235504)
(0.000927718 -0.000244872 0.000235504)
(0.000956145 -8.00559e-05 0.000235504)
(0.000955521 8.71937e-05 0.000235504)
(0.000925864 0.000251793 0.000235505)
(0.000868074 0.000408742 0.000235505)
(0.000783909 0.000553271 0.000235505)
(0.000675925 0.00068099 0.000235505)
(0.000547403 0.000788018 0.000235505)
(0.000402248 0.000871102 0.000235504)
(0.000244872 0.000927718 0.000235504)
(-8.17794e-08 0.000952116 0.000263863)
(-0.000165412 0.000937637 0.000263863)
(-0.000325718 0.000894669 0.000263863)
(-0.000476128 0.000824516 0.000263864)
(-0.000612071 0.00072931 0.000263864)
(-0.000729415 0.000611945 0.000263863)
(-0.000824597 0.000475987 0.000263863)
(-0.000894723 0.000325566 0.000263863)
(-0.000937665 0.000165253 0.000263863)
(-0.000952116 -8.18494e-08 0.000263863)
(-0.000937637 -0.000165413 0.000263863)
(-0.000894669 -0.000325718 0.000263863)
(-0.000824516 -0.000476128 0.000263864)
(-0.00072931 -0.000612071 0.000263864)
(-0.000611945 -0.000729415 0.000263863)
(-0.000475987 -0.000824597 0.000263863)
(-0.000325566 -0.000894723 0.000263863)
(-0.000165253 -0.000937665 0.000263863)
(8.18938e-08 -0.000952116 0.000263863)
(0.000165413 -0.000937637 0.000263863)
(0.000325718 -0.000894669 0.000263863)
(0.000476128 -0.000824516 0.000263864)
(0.000612071 -0.00072931 0.000263864)
(0.000729415 -0.000611945 0.000263863)
(0.000824597 -0.000475987 0.000263863)
(0.000894723 -0.000325566 0.000263863)
(0.000937665 -0.000165253 0.000263863)
(0.000952116 8.18372e-08 0.000263863)
(0.000937637 0.000165413 0.000263863)
(0.000894669 0.000325718 0.000263863)
(0.000824516 0.000476128 0.000263864)
(0.00072931 0.000612071 0.000263864)
(0.000611945 0.000729415 0.000263863)
(0.000475987 0.000824597 0.000263863)
(0.000325567 0.000894723 0.000263863)
(0.000165253 0.000937665 0.000263863)
(-8.70025e-05 0.000940535 0.000287379)
(-0.000249003 0.000911139 0.000287379)
(-0.000403436 0.000854058 0.000287378)
(-0.000545612 0.000771027 0.000287378)
(-0.000671211 0.000664568 0.000287378)
(-0.000776415 0.000537917 0.000287378)
(-0.000858027 0.000394922 0.000287378)
(-0.00091357 0.000239927 0.000287378)
(-0.000941354 7.76423e-05 0.000287378)
(-0.000940535 -8.70025e-05 0.000287379)
(-0.000911139 -0.000249003 0.000287379)
(-0.000854058 -0.000403436 0.000287378)
(-0.000771027 -0.000545613 0.000287378)
(-0.000664568 -0.000671211 0.000287378)
(-0.000537917 -0.000776415 0.000287378)
(-0.000394922 -0.000858027 0.000287378)
(-0.000239927 -0.00091357 0.000287378)
(-7.76423e-05 -0.000941354 0.000287378)
(8.70026e-05 -0.000940535 0.000287379)
(0.000249003 -0.000911139 0.000287379)
(0.000403436 -0.000854058 0.000287378)
(0.000545613 -0.000771027 0.000287378)
(0.000671211 -0.000664568 0.000287378)
(0.000776415 -0.000537917 0.000287378)
(0.000858028 -0.000394922 0.000287378)
(0.00091357 -0.000239927 0.000287379)
(0.000941354 -7.76423e-05 0.000287378)
(0.000940535 8.70025e-05 0.000287379)
(0.000911139 0.000249003 0.000287379)
(0.000854058 0.000403436 0.000287378)
(0.000771027 0.000545613 0.000287378)
(0.000664568 0.000671211 0.000287378)
(0.000537917 0.000776415 0.000287378)
(0.000394922 0.000858027 0.000287378)
(0.000239927 0.00091357 0.000287379)
(7.76424e-05 0.000941354 0.000287378)
(0.000152161 0.00142497 0.000398089)
(-9.75937e-05 0.00142974 0.00039809)
(-0.000344384 0.00139108 0.00039809)
(-0.000580709 0.00131014 0.000398091)
(-0.000799391 0.0011894 0.000398091)
(-0.000993782 0.00103251 0.000398091)
(-0.00115798 0.00084426 0.000398091)
(-0.00128699 0.000630352 0.00039809)
(-0.0013769 0.000397293 0.000398089)
(-0.00142497 0.000152161 0.000398089)
(-0.00142974 -9.75939e-05 0.000398089)
(-0.00139108 -0.000344384 0.00039809)
(-0.00131014 -0.000580709 0.000398091)
(-0.0011894 -0.000799391 0.000398091)
(-0.00103251 -0.000993782 0.000398091)
(-0.00084426 -0.00115798 0.000398091)
(-0.000630352 -0.00128699 0.00039809)
(-0.000397292 -0.0013769 0.000398089)
(-0.000152161 -0.00142497 0.000398089)
(9.75939e-05 -0.00142974 0.000398089)
(0.000344385 -0.00139108 0.00039809)
(0.000580709 -0.00131014 0.000398091)
(0.000799391 -0.0011894 0.000398091)
(0.000993782 -0.00103251 0.000398091)
(0.00115798 -0.00084426 0.000398091)
(0.00128699 -0.000630352 0.00039809)
(0.0013769 -0.000397293 0.000398089)
(0.00142497 -0.000152161 0.000398089)
(0.00142974 9.75938e-05 0.00039809)
(0.00139108 0.000344384 0.00039809)
(0.00131014 0.000580709 0.000398091)
(0.0011894 0.000799391 0.000398091)
(0.00103252 0.000993782 0.000398091)
(0.00084426 0.00115798 0.000398091)
(0.000630352 0.00128699 0.00039809)
(0.000397293 0.0013769 0.000398089)
(6.56299e-05 0.00140735 0.000436293)
(-0.00017975 0.00139736 0.000436293)
(-0.000419669 0.00134492 0.000436293)
(-0.000646836 0.00125161 0.000436293)
(-0.000854348 0.00112028 0.000436293)
(-0.0010359 0.000954901 0.000436293)
(-0.00118598 0.000760511 0.000436293)
(-0.00130003 0.000543013 0.000436293)
(-0.00137457 0.000309016 0.000436293)
(-0.00140735 6.56298e-05 0.000436292)
(-0.00139736 -0.00017975 0.000436293)
(-0.00134492 -0.000419669 0.000436293)
(-0.00125161 -0.000646836 0.000436293)
(-0.00112028 -0.000854348 0.000436293)
(-0.000954901 -0.0010359 0.000436293)
(-0.00076051 -0.00118598 0.000436293)
(-0.000543013 -0.00130003 0.000436293)
(-0.000309016 -0.00137457 0.000436293)
(-6.56298e-05 -0.00140735 0.000436292)
(0.000179751 -0.00139736 0.000436293)
(0.000419669 -0.00134492 0.000436293)
(0.000646836 -0.00125161 0.000436293)
(0.000854348 -0.00112028 0.000436293)
(0.0010359 -0.000954901 0.000436293)
(0.00118598 -0.000760511 0.000436293)
(0.00130003 -0.000543013 0.000436293)
(0.00137457 -0.000309016 0.000436293)
(0.00140735 -6.56299e-05 0.000436292)
(0.00139736 0.00017975 0.000436293)
(0.00134492 0.000419669 0.000436293)
(0.00125161 0.000646836 0.000436293)
(0.00112028 0.000854348 0.000436293)
(0.000954901 0.0010359 0.000436293)
(0.000760511 0.00118598 0.000436293)
(0.000543013 0.00130003 0.000436293)
(0.000309016 0.00137457 0.000436293)
(-2.96929e-05 0.00138737 0.000470947)
(-0.000270156 0.00136114 0.000470947)
(-0.00050241 0.00129355 0.000470947)
(-0.000719398 0.00118665 0.000470947)
(-0.000914529 0.0010437 0.000470947)
(-0.00108187 0.000869037 0.000470947)
(-0.00121634 0.00066797 0.000470947)
(-0.00131386 0.000446605 0.000470947)
(-0.00137145 0.000211672 0.000470947)
(-0.00138737 -2.9693e-05 0.000470947)
(-0.00136114 -0.000270156 0.000470947)
(-0.00129355 -0.00050241 0.000470947)
(-0.00118665 -0.000719398 0.000470947)
(-0.0010437 -0.00091453 0.000470947)
(-0.000869037 -0.00108187 0.000470947)
(-0.00066797 -0.00121634 0.000470947)
(-0.000446605 -0.00131386 0.000470947)
(-0.000211672 -0.00137145 0.000470947)
(2.9693e-05 -0.00138737 0.000470947)
(0.000270156 -0.00136114 0.000470947)
(0.00050241 -0.00129355 0.000470947)
(0.000719398 -0.00118665 0.000470947)
(0.00091453 -0.0010437 0.000470947)
(0.00108187 -0.000869037 0.000470947)
(0.00121634 -0.00066797 0.000470947)
(0.00131386 -0.000446605 0.000470947)
(0.00137145 -0.000211672 0.000470947)
(0.00138737 2.96929e-05 0.000470947)
(0.00136114 0.000270156 0.000470947)
(0.00129355 0.00050241 0.000470947)
(0.00118665 0.000719398 0.000470947)
(0.0010437 0.00091453 0.000470947)
(0.000869037 0.00108187 0.000470947)
(0.00066797 0.00121634 0.000470947)
(0.000446605 0.00131386 0.000470947)
(0.000211672 0.00137145 0.000470947)
(-0.000129803 0.00135872 0.000500682)
(-0.00036377 0.00131554 0.000500682)
(-0.000586686 0.00123239 0.000500682)
(-0.000791774 0.00111179 0.000500682)
(-0.000972805 0.000957408 0.000500682)
(-0.00112428 0.000773937 0.000500682)
(-0.00124159 0.00056695 0.000500682)
(-0.00132118 0.000342737 0.000500682)
(-0.00136062 0.000108109 0.000500682)
(-0.00135872 -0.000129803 0.000500682)
(-0.00131554 -0.00036377 0.000500682)
(-0.00123239 -0.000586686 0.000500682)
(-0.00111179 -0.000791774 0.000500682)
(-0.000957408 -0.000972805 0.000500682)
(-0.000773937 -0.00112428 0.000500682)
(-0.00056695 -0.00124159 0.000500682)
(-0.000342737 -0.00132118 0.000500682)
(-0.000108109 -0.00136062 0.000500682)
(0.000129803 -0.00135872 0.000500682)
(0.00036377 -0.00131554 0.000500682)
(0.000586686 -0.00123239 0.000500682)
(0.000791774 -0.00111179 0.000500682)
(0.000972805 -0.000957408 0.000500682)
(0.00112428 -0.000773937 0.000500682)
(0.00124159 -0.00056695 0.000500682)
(0.00132118 -0.000342737 0.000500682)
(0.00136062 -0.000108109 0.000500682)
(0.00135872 0.000129803 0.000500682)
(0.00131554 0.00036377 0.000500682)
(0.00123239 0.000586686 0.000500682)
(0.00111179 0.000791774 0.000500682)
(0.000957408 0.000972805 0.000500682)
(0.000773937 0.00112428 0.000500682)
(0.00056695 0.00124159 0.000500682)
(0.000342737 0.00132118 0.000500682)
(0.000108109 0.00136062 0.000500682)
(0.000106017 0.00187104 0.000630123)
(-0.000220499 0.00186103 0.000630123)
(-0.000540312 0.00179447 0.000630123)
(-0.000843708 0.00167338 0.000630124)
(-0.00112147 0.00150145 0.000630124)
(-0.00136515 0.0012839 0.000630124)
(-0.00156736 0.00102733 0.000630124)
(-0.00172195 0.000739557 0.000630123)
(-0.00182421 0.000429308 0.000630123)
(-0.00187104 0.000106017 0.000630123)
(-0.00186103 -0.000220499 0.000630123)
(-0.00179447 -0.000540313 0.000630123)
(-0.00167338 -0.000843708 0.000630123)
(-0.00150145 -0.00112147 0.000630124)
(-0.0012839 -0.00136515 0.000630124)
(-0.00102733 -0.00156736 0.000630124)
(-0.000739556 -0.00172195 0.000630123)
(-0.000429308 -0.00182421 0.000630123)
(-0.000106017 -0.00187104 0.000630123)
(0.000220499 -0.00186103 0.000630123)
(0.000540313 -0.00179447 0.000630123)
(0.000843708 -0.00167338 0.000630123)
(0.00112147 -0.00150145 0.000630124)
(0.00136515 -0.0012839 0.000630124)
(0.00156736 -0.00102733 0.000630124)
(0.00172195 -0.000739557 0.000630123)
(0.00182421 -0.000429308 0.000630123)
(0.00187104 -0.000106017 0.000630123)
(0.00186103 0.000220499 0.000630123)
(0.00179447 0.000540312 0.000630123)
(0.00167338 0.000843708 0.000630124)
(0.00150145 0.00112147 0.000630124)
(0.0012839 0.00136515 0.000630124)
(0.00102733 0.00156736 0.000630124)
(0.000739557 0.00172195 0.000630123)
(0.000429308 0.00182421 0.000630123)
(1.34645e-05 0.00182581 0.000668777)
(-0.000303789 0.00180041 0.000668777)
(-0.000611811 0.00172031 0.000668777)
(-0.000901243 0.00158793 0.000668777)
(-0.00116329 0.00140731 0.000668778)
(-0.00139 0.00118392 0.000668778)
(-0.00157447 0.000924567 0.000668778)
(-0.0017111 0.000637116 0.000668778)
(-0.00179573 0.000330309 0.000668777)
(-0.00182581 1.34643e-05 0.000668777)
(-0.00180041 -0.000303789 0.000668777)
(-0.00172031 -0.000611811 0.000668777)
(-0.00158793 -0.000901244 0.000668777)
(-0.00140731 -0.00116329 0.000668778)
(-0.00118392 -0.00139 0.000668778)
(-0.000924567 -0.00157447 0.000668778)
(-0.000637116 -0.0017111 0.000668778)
(-0.000330309 -0.00179573 0.000668777)
(-1.34642e-05 -0.00182581 0.000668777)
(0.000303789 -0.00180041 0.000668777)
(0.000611812 -0.00172031 0.000668777)
(0.000901244 -0.00158793 0.000668777)
(0.00116329 -0.00140731 0.000668778)
(0.00139 -0.00118392 0.000668778)
(0.00157447 -0.000924567 0.000668778)
(0.0017111 -0.000637116 0.000668778)
(0.00179573 -0.000330309 0.000668777)
(0.00182581 -1.34643e-05 0.000668777)
(0.00180041 0.000303789 0.000668777)
(0.00172031 0.000611811 0.000668777)
(0.00158793 0.000901244 0.000668777)
(0.00140731 0.00116329 0.000668778)
(0.00118392 0.00139 0.000668778)
(0.000924567 0.00157447 0.000668778)
(0.000637116 0.0017111 0.000668778)
(0.000330309 0.00179573 0.000668777)
(-8.65978e-05 0.00177869 0.000703627)
(-0.000394148 0.00173663 0.000703627)
(-0.000689723 0.0016418 0.000703627)
(-0.000964341 0.00149709 0.000703627)
(-0.00120966 0.00130689 0.000703627)
(-0.00141822 0.00107698 0.000703628)
(-0.00158369 0.000814349 0.000703628)
(-0.00170104 0.000526974 0.000703627)
(-0.0017667 0.000223584 0.000703628)
(-0.00177869 -8.65979e-05 0.000703627)
(-0.00173663 -0.000394148 0.000703627)
(-0.0016418 -0.000689723 0.000703627)
(-0.00149709 -0.000964341 0.000703627)
(-0.00130689 -0.00120966 0.000703627)
(-0.00107698 -0.00141822 0.000703627)
(-0.000814349 -0.00158369 0.000703627)
(-0.000526974 -0.00170104 0.000703627)
(-0.000223584 -0.0017667 0.000703627)
(8.6598e-05 -0.00177869 0.000703627)
(0.000394148 -0.00173663 0.000703627)
(0.000689724 -0.0016418 0.000703627)
(0.000964341 -0.00149709 0.000703627)
(0.00120966 -0.00130689 0.000703627)
(0.00141822 -0.00107698 0.000703627)
(0.00158369 -0.000814349 0.000703628)
(0.00170104 -0.000526974 0.000703627)
(0.0017667 -0.000223584 0.000703628)
(0.00177869 8.65979e-05 0.000703627)
(0.00173663 0.000394148 0.000703627)
(0.0016418 0.000689723 0.000703627)
(0.00149709 0.000964341 0.000703628)
(0.00130689 0.00120966 0.000703628)
(0.00107698 0.00141822 0.000703628)
(0.00081435 0.00158369 0.000703628)
(0.000526974 0.00170104 0.000703627)
(0.000223584 0.0017667 0.000703628)
(-0.000190232 0.00172279 0.000733385)
(-0.000486501 0.00166358 0.000733385)
(-0.000767986 0.00155383 0.000733385)
(-0.00102614 0.00139686 0.000733385)
(-0.00125311 0.00119745 0.000733385)
(-0.00144201 0.00096166 0.000733384)
(-0.00158709 0.000696647 0.000733385)
(-0.00168395 0.000410469 0.000733385)
(-0.00172965 0.000111817 0.000733385)
(-0.00172279 -0.000190232 0.000733385)
(-0.00166358 -0.000486501 0.000733385)
(-0.00155383 -0.000767986 0.000733385)
(-0.00139686 -0.00102614 0.000733385)
(-0.00119745 -0.00125311 0.000733385)
(-0.00096166 -0.00144201 0.000733384)
(-0.000696647 -0.00158709 0.000733385)
(-0.000410468 -0.00168395 0.000733385)
(-0.000111816 -0.00172965 0.000733385)
(0.000190232 -0.00172279 0.000733385)
(0.000486501 -0.00166358 0.000733385)
(0.000767987 -0.00155383 0.000733385)
(0.00102614 -0.00139686 0.000733385)
(0.00125311 -0.00119745 0.000733385)
(0.00144201 -0.00096166 0.000733384)
(0.00158709 -0.000696647 0.000733385)
(0.00168395 -0.000410469 0.000733385)
(0.00172965 -0.000111817 0.000733385)
(0.00172279 0.000190232 0.000733385)
(0.00166358 0.000486501 0.000733385)
(0.00155383 0.000767986 0.000733385)
(0.00139686 0.00102614 0.000733385)
(0.00119745 0.00125311 0.000733385)
(0.00096166 0.00144201 0.000733384)
(0.000696647 0.00158709 0.000733385)
(0.000410469 0.00168395 0.000733385)
(0.000111817 0.00172965 0.000733385)
(1.9627e-05 0.00228163 0.000890267)
(-0.000376873 0.00225038 0.000890267)
(-0.000761919 0.00215075 0.000890267)
(-0.00112382 0.00198576 0.000890268)
(-0.00145157 0.00176045 0.000890268)
(-0.00173521 0.00148164 0.000890268)
(-0.00196614 0.00115781 0.000890268)
(-0.00213732 0.000798806 0.000890268)
(-0.00224356 0.000415529 0.000890268)
(-0.00228163 1.96268e-05 0.000890267)
(-0.00225038 -0.000376873 0.000890267)
(-0.00215074 -0.000761919 0.000890267)
(-0.00198576 -0.00112382 0.000890267)
(-0.00176045 -0.00145157 0.000890268)
(-0.00148164 -0.00173521 0.000890268)
(-0.00115781 -0.00196614 0.000890268)
(-0.000798806 -0.00213732 0.000890268)
(-0.000415529 -0.00224356 0.000890268)
(-1.96267e-05 -0.00228163 0.000890267)
(0.000376873 -0.00225038 0.000890267)
(0.000761919 -0.00215075 0.000890267)
(0.00112382 -0.00198576 0.000890267)
(0.00145157 -0.00176045 0.000890268)
(0.00173521 -0.00148164 0.000890268)
(0.00196614 -0.00115781 0.000890268)
(0.00213732 -0.000798806 0.000890268)
(0.00224356 -0.000415529 0.000890268)
(0.00228163 -1.96269e-05 0.000890267)
(0.00225038 0.000376873 0.000890267)
(0.00215075 0.000761919 0.000890267)
(0.00198576 0.00112382 0.000890268)
(0.00176045 0.00145157 0.000890268)
(0.00148164 0.00173521 0.000890268)
(0.00115781 0.00196614 0.000890268)
(0.000798806 0.00213732 0.000890268)
(0.000415529 0.00224356 0.000890268)
(-7.10321e-05 0.00219941 0.00092424)
(-0.000451875 0.00215366 0.00092424)
(-0.00081899 0.00204247 0.00092424)
(-0.00116122 0.00186923 0.000924241)
(-0.00146816 0.00163919 0.000924241)
(-0.0017305 0.00135934 0.000924241)
(-0.00194026 0.00103819 0.000924241)
(-0.00209106 0.000685495 0.000924241)
(-0.00217833 0.00031197 0.000924241)
(-0.00219941 -7.10323e-05 0.00092424)
(-0.00215366 -0.000451876 0.00092424)
(-0.00204247 -0.00081899 0.00092424)
(-0.00186923 -0.00116122 0.000924241)
(-0.00163919 -0.00146816 0.000924241)
(-0.00135934 -0.0017305 0.000924241)
(-0.00103819 -0.00194026 0.000924241)
(-0.000685495 -0.00209106 0.000924241)
(-0.00031197 -0.00217833 0.000924241)
(7.10324e-05 -0.00219941 0.00092424)
(0.000451876 -0.00215366 0.00092424)
(0.00081899 -0.00204247 0.00092424)
(0.00116122 -0.00186923 0.000924241)
(0.00146816 -0.00163919 0.000924241)
(0.0017305 -0.00135934 0.000924241)
(0.00194026 -0.00103819 0.000924241)
(0.00209106 -0.000685495 0.000924241)
(0.00217833 -0.00031197 0.000924241)
(0.00219941 7.10322e-05 0.00092424)
(0.00215366 0.000451876 0.00092424)
(0.00204247 0.00081899 0.00092424)
(0.00186923 0.00116122 0.000924241)
(0.00163919 0.00146816 0.000924241)
(0.00135934 0.0017305 0.000924241)
(0.00103819 0.00194026 0.000924241)
(0.000685495 0.00209106 0.000924241)
(0.000311971 0.00217833 0.000924241)
(-0.000168041 0.00211621 0.00095419)
(-0.000532963 0.00205488 0.00095419)
(-0.000881693 0.00193111 0.00095419)
(-0.00120363 0.00174867 0.000954191)
(-0.001489 0.0015131 0.000954191)
(-0.00172912 0.00123155 0.000954191)
(-0.00191671 0.000912577 0.000954191)
(-0.00204606 0.000565881 0.00095419)
(-0.00211324 0.000201988 0.000954191)
(-0.00211621 -0.000168041 0.00095419)
(-0.00205488 -0.000532963 0.00095419)
(-0.00193111 -0.000881693 0.00095419)
(-0.00174867 -0.00120363 0.000954191)
(-0.0015131 -0.001489 0.000954191)
(-0.00123155 -0.00172912 0.00095419)
(-0.000912577 -0.00191671 0.00095419)
(-0.000565881 -0.00204606 0.00095419)
(-0.000201988 -0.00211324 0.00095419)
(0.000168041 -0.00211621 0.00095419)
(0.000532963 -0.00205488 0.00095419)
(0.000881693 -0.00193111 0.00095419)
(0.00120363 -0.00174867 0.000954191)
(0.001489 -0.0015131 0.000954191)
(0.00172912 -0.00123155 0.00095419)
(0.00191671 -0.000912577 0.000954191)
(0.00204606 -0.000565881 0.00095419)
(0.00211324 -0.000201988 0.000954191)
(0.00211621 0.000168041 0.00095419)
(0.00205488 0.000532963 0.00095419)
(0.00193111 0.000881693 0.00095419)
(0.00174867 0.00120363 0.000954191)
(0.0015131 0.001489 0.000954191)
(0.00123155 0.00172912 0.000954191)
(0.000912577 0.00191671 0.000954191)
(0.000565881 0.00204606 0.000954191)
(0.000201988 0.00211324 0.000954191)
(-0.000267538 0.00202484 0.000978871)
(-0.000615085 0.00194763 0.000978871)
(-0.000943943 0.00181123 0.000978871)
(-0.00124412 0.0016198 0.000978871)
(-0.00150649 0.00137915 0.000978871)
(-0.00172309 0.0010966 0.000978871)
(-0.00188734 0.000780728 0.000978871)
(-0.00199424 0.000441134 0.000978871)
(-0.00204054 8.81361e-05 0.000978871)
(-0.00202484 -0.000267538 0.000978871)
(-0.00194762 -0.000615085 0.000978871)
(-0.00181123 -0.000943943 0.000978871)
(-0.0016198 -0.00124412 0.000978871)
(-0.00137915 -0.00150649 0.000978871)
(-0.0010966 -0.00172309 0.000978871)
(-0.000780728 -0.00188734 0.000978871)
(-0.000441133 -0.00199424 0.000978871)
(-8.8136e-05 -0.00204054 0.000978871)
(0.000267538 -0.00202484 0.000978871)
(0.000615086 -0.00194763 0.000978871)
(0.000943943 -0.00181123 0.000978871)
(0.00124412 -0.0016198 0.000978871)
(0.00150649 -0.00137915 0.000978871)
(0.00172309 -0.0010966 0.000978871)
(0.00188734 -0.000780728 0.000978871)
(0.00199424 -0.000441134 0.000978871)
(0.00204054 -8.81361e-05 0.000978871)
(0.00202485 0.000267538 0.000978871)
(0.00194763 0.000615085 0.000978871)
(0.00181123 0.000943943 0.000978871)
(0.0016198 0.00124412 0.000978871)
(0.00137915 0.00150649 0.000978871)
(0.0010966 0.00172309 0.000978871)
(0.000780729 0.00188734 0.000978871)
(0.000441134 0.00199424 0.000978871)
(8.81363e-05 0.00204054 0.000978871)
(-9.59953e-05 0.0026425 0.00117321)
(-0.000553402 0.00258568 0.00117321)
(-0.000993993 0.0024503 0.00117321)
(-0.00140438 0.00224047 0.00117321)
(-0.0017721 0.00196256 0.00117321)
(-0.00208597 0.00162503 0.00117321)
(-0.00233647 0.00123811 0.00117321)
(-0.00251597 0.000813581 0.00117321)
(-0.00261902 0.000364327 0.00117321)
(-0.0026425 -9.59955e-05 0.00117321)
(-0.00258568 -0.000553402 0.00117321)
(-0.0024503 -0.000993993 0.00117321)
(-0.00224047 -0.00140438 0.00117321)
(-0.00196256 -0.0017721 0.00117321)
(-0.00162503 -0.00208597 0.00117321)