/*--------------------------------*- C++ -*----------------------------------*\
| =========                 |                                                 |
| \\      /  F ield         | OpenFOAM: The Open Source CFD Toolbox           |
|  \\    /   O peration     | Version:  2312                                  |
|   \\  /    A nd           | Website:  www.openfoam.com                      |
|    \\/     M anipulation  |                                                 |
\*---------------------------------------------------------------------------*/
FoamFile
{
    version     2.0;
    format      ascii;
    arch        "LSB;label=32;scalar=64";
    class       volVectorField;
    location    "0.9";
    object      D_0_0_0;
}
// * * * * * * * * * * * * * * * * * * * * * * * * * * * * * * * * * * * * * //

dimensions      [0 1 0 0 0 0 0];

internalField   nonuniform List<vector> 
1620
(
(0.00039534 3.45877e-05 -0.000240213)
(0.000383327 0.000102712 -0.000240213)
(0.000359668 0.000167715 -0.000240213)
(0.00032508 0.000227623 -0.000240214)
(0.000280615 0.000280615 -0.000240214)
(0.000227623 0.00032508 -0.000240214)
(0.000167715 0.000359668 -0.000240213)
(0.000102712 0.000383327 -0.000240213)
(3.45877e-05 0.00039534 -0.000240213)
(-3.45877e-05 0.00039534 -0.000240213)
(-0.000102712 0.000383327 -0.000240213)
(-0.000167715 0.000359668 -0.000240213)
(-0.000227623 0.00032508 -0.000240214)
(-0.000280615 0.000280615 -0.000240214)
(-0.00032508 0.000227623 -0.000240214)
(-0.000359668 0.000167715 -0.000240213)
(-0.000383327 0.000102712 -0.000240213)
(-0.00039534 3.45877e-05 -0.000240213)
(-0.00039534 -3.45877e-05 -0.000240213)
(-0.000383327 -0.000102712 -0.000240213)
(-0.000359668 -0.000167715 -0.000240213)
(-0.00032508 -0.000227623 -0.000240214)
(-0.000280615 -0.000280615 -0.000240214)
(-0.000227623 -0.00032508 -0.000240214)
(-0.000167715 -0.000359668 -0.000240213)
(-0.000102712 -0.000383327 -0.000240213)
(-3.45877e-05 -0.00039534 -0.000240213)
(3.45877e-05 -0.00039534 -0.000240213)
(0.000102712 -0.000383327 -0.000240213)
(0.000167715 -0.000359668 -0.000240213)
(0.000227623 -0.00032508 -0.000240214)
(0.000280615 -0.000280615 -0.000240214)
(0.00032508 -0.000227623 -0.000240214)
(0.000359668 -0.000167715 -0.000240213)
(0.000383327 -0.000102712 -0.000240213)
(0.00039534 -3.45877e-05 -0.000240213)
(0.000589505 5.15748e-05 -0.000205111)
(0.000571593 0.000153157 -0.000205111)
(0.000536313 0.000250086 -0.000205111)
(0.000484738 0.000339417 -0.000205111)
(0.000418435 0.000418435 -0.000205111)
(0.000339417 0.000484738 -0.000205111)
(0.000250086 0.000536313 -0.000205111)
(0.000153157 0.000571593 -0.000205111)
(5.15748e-05 0.000589505 -0.000205111)
(-5.15748e-05 0.000589505 -0.000205111)
(-0.000153157 0.000571593 -0.000205111)
(-0.000250086 0.000536313 -0.000205111)
(-0.000339417 0.000484738 -0.000205111)
(-0.000418435 0.000418435 -0.000205111)
(-0.000484738 0.000339417 -0.000205111)
(-0.000536313 0.000250086 -0.000205111)
(-0.000571593 0.000153157 -0.000205111)
(-0.000589505 5.15748e-05 -0.000205111)
(-0.000589505 -5.15748e-05 -0.000205111)
(-0.000571593 -0.000153157 -0.000205111)
(-0.000536313 -0.000250086 -0.000205111)
(-0.000484738 -0.000339417 -0.000205111)
(-0.000418435 -0.000418435 -0.000205111)
(-0.000339417 -0.000484738 -0.000205111)
(-0.000250086 -0.000536313 -0.000205111)
(-0.000153157 -0.000571593 -0.000205111)
(-5.15748e-05 -0.000589505 -0.000205111)
(5.15748e-05 -0.000589505 -0.000205111)
(0.000153157 -0.000571593 -0.000205111)
(0.000250086 -0.000536313 -0.000205111)
(0.000339417 -0.000484738 -0.000205111)
(0.000418435 -0.000418435 -0.000205111)
(0.000484738 -0.000339417 -0.000205111)
(0.000536313 -0.000250086 -0.000205111)
(0.000571593 -0.000153157 -0.000205111)
(0.000589505 -5.15748e-05 -0.000205111)
(0.000819839 7.17264e-05 -0.00014924)
(0.000794929 0.000213 -0.00014924)
(0.000745865 0.000347802 -0.00014924)
(0.000674138 0.000472036 -0.00014924)
(0.000581928 0.000581928 -0.00014924)
(0.000472036 0.000674138 -0.00014924)
(0.000347802 0.000745865 -0.00014924)
(0.000213 0.000794929 -0.00014924)
(7.17264e-05 0.000819839 -0.00014924)
(-7.17264e-05 0.000819839 -0.00014924)
(-0.000213 0.000794929 -0.00014924)
(-0.000347802 0.000745865 -0.00014924)
(-0.000472036 0.000674138 -0.00014924)
(-0.000581928 0.000581928 -0.00014924)
(-0.000674138 0.000472036 -0.00014924)
(-0.000745865 0.000347802 -0.00014924)
(-0.000794929 0.000213 -0.00014924)
(-0.000819839 7.17264e-05 -0.00014924)
(-0.000819839 -7.17264e-05 -0.00014924)
(-0.000794929 -0.000213 -0.00014924)
(-0.000745865 -0.000347802 -0.00014924)
(-0.000674138 -0.000472036 -0.00014924)
(-0.000581928 -0.000581928 -0.00014924)
(-0.000472036 -0.000674138 -0.00014924)
(-0.000347802 -0.000745865 -0.00014924)
(-0.000213 -0.000794929 -0.00014924)
(-7.17264e-05 -0.000819839 -0.00014924)
(7.17264e-05 -0.000819839 -0.00014924)
(0.000213 -0.000794929 -0.00014924)
(0.000347802 -0.000745865 -0.00014924)
(0.000472036 -0.000674138 -0.00014924)
(0.000581928 -0.000581928 -0.00014924)
(0.000674138 -0.000472036 -0.00014924)
(0.000745865 -0.000347802 -0.00014924)
(0.000794929 -0.000213 -0.00014924)
(0.000819839 -7.17264e-05 -0.00014924)
(0.00139203 0.000121787 -0.000695354)
(0.00134974 0.000361661 -0.000695355)
(0.00126643 0.000590545 -0.000695356)
(0.00114464 0.000801486 -0.000695356)
(0.000988074 0.000988074 -0.000695356)
(0.000801486 0.00114464 -0.000695356)
(0.000590545 0.00126643 -0.000695356)
(0.000361661 0.00134974 -0.000695355)
(0.000121787 0.00139203 -0.000695354)
(-0.000121787 0.00139203 -0.000695354)
(-0.000361661 0.00134974 -0.000695355)
(-0.000590545 0.00126643 -0.000695356)
(-0.000801486 0.00114464 -0.000695356)
(-0.000988074 0.000988074 -0.000695356)
(-0.00114464 0.000801486 -0.000695356)
(-0.00126643 0.000590545 -0.000695356)
(-0.00134974 0.000361661 -0.000695355)
(-0.00139203 0.000121787 -0.000695354)
(-0.00139203 -0.000121787 -0.000695354)
(-0.00134974 -0.000361661 -0.000695355)
(-0.00126643 -0.000590545 -0.000695356)
(-0.00114464 -0.000801486 -0.000695356)
(-0.000988074 -0.000988074 -0.000695356)
(-0.000801486 -0.00114464 -0.000695356)
(-0.000590545 -0.00126643 -0.000695356)
(-0.000361661 -0.00134974 -0.000695355)
(-0.000121787 -0.00139203 -0.000695354)
(0.000121787 -0.00139203 -0.000695354)
(0.000361661 -0.00134974 -0.000695355)
(0.000590545 -0.00126643 -0.000695356)
(0.000801486 -0.00114464 -0.000695356)
(0.000988074 -0.000988074 -0.000695356)
(0.00114464 -0.000801486 -0.000695356)
(0.00126643 -0.000590545 -0.000695356)
(0.00134974 -0.000361661 -0.000695355)
(0.00139203 -0.000121787 -0.000695354)
(0.00171113 0.000149704 -0.000692332)
(0.00165914 0.000444564 -0.000692332)
(0.00155673 0.000725916 -0.000692333)
(0.00140703 0.000985211 -0.000692334)
(0.00121457 0.00121457 -0.000692334)
(0.000985211 0.00140703 -0.000692334)
(0.000725916 0.00155673 -0.000692333)
(0.000444564 0.00165914 -0.000692332)
(0.000149704 0.00171113 -0.000692332)
(-0.000149704 0.00171113 -0.000692332)
(-0.000444564 0.00165914 -0.000692332)
(-0.000725916 0.00155673 -0.000692333)
(-0.000985211 0.00140703 -0.000692334)
(-0.00121457 0.00121457 -0.000692334)
(-0.00140703 0.000985211 -0.000692334)
(-0.00155673 0.000725916 -0.000692333)
(-0.00165914 0.000444564 -0.000692332)
(-0.00171113 0.000149704 -0.000692332)
(-0.00171113 -0.000149704 -0.000692332)
(-0.00165914 -0.000444564 -0.000692332)
(-0.00155673 -0.000725916 -0.000692333)
(-0.00140703 -0.000985211 -0.000692334)
(-0.00121457 -0.00121457 -0.000692334)
(-0.000985211 -0.00140703 -0.000692334)
(-0.000725916 -0.00155673 -0.000692333)
(-0.000444564 -0.00165914 -0.000692332)
(-0.000149704 -0.00171113 -0.000692332)
(0.000149704 -0.00171113 -0.000692332)
(0.000444564 -0.00165914 -0.000692332)
(0.000725916 -0.00155673 -0.000692333)
(0.000985211 -0.00140703 -0.000692334)
(0.00121457 -0.00121457 -0.000692334)
(0.00140703 -0.000985211 -0.000692334)
(0.00155673 -0.000725916 -0.000692333)
(0.00165914 -0.000444564 -0.000692332)
(0.00171113 -0.000149704 -0.000692332)
(0.00208133 0.000182093 -0.000664372)
(0.00201809 0.000540746 -0.000664372)
(0.00189353 0.000882967 -0.000664372)
(0.00171144 0.00119836 -0.000664372)
(0.00147734 0.00147734 -0.000664372)
(0.00119836 0.00171144 -0.000664372)
(0.000882967 0.00189353 -0.000664372)
(0.000540746 0.00201809 -0.000664372)
(0.000182093 0.00208133 -0.000664372)
(-0.000182093 0.00208133 -0.000664372)
(-0.000540746 0.00201809 -0.000664372)
(-0.000882967 0.00189353 -0.000664372)
(-0.00119836 0.00171144 -0.000664372)
(-0.00147734 0.00147734 -0.000664372)
(-0.00171144 0.00119836 -0.000664372)
(-0.00189353 0.000882967 -0.000664372)
(-0.00201809 0.000540746 -0.000664372)
(-0.00208133 0.000182093 -0.000664372)
(-0.00208133 -0.000182093 -0.000664372)
(-0.00201809 -0.000540746 -0.000664372)
(-0.00189353 -0.000882967 -0.000664372)
(-0.00171144 -0.00119836 -0.000664372)
(-0.00147734 -0.00147734 -0.000664372)
(-0.00119836 -0.00171144 -0.000664372)
(-0.000882967 -0.00189353 -0.000664372)
(-0.000540746 -0.00201809 -0.000664372)
(-0.000182093 -0.00208133 -0.000664372)
(0.000182093 -0.00208133 -0.000664372)
(0.000540746 -0.00201809 -0.000664372)
(0.000882967 -0.00189353 -0.000664372)
(0.00119836 -0.00171144 -0.000664372)
(0.00147734 -0.00147734 -0.000664372)
(0.00171144 -0.00119836 -0.000664372)
(0.00189353 -0.000882967 -0.000664372)
(0.00201809 -0.000540746 -0.000664372)
(0.00208133 -0.000182093 -0.000664372)
(0.00226613 0.000198261 -0.00129546)
(0.00219728 0.000588758 -0.00129546)
(0.00206166 0.000961367 -0.00129546)
(0.0018634 0.00130476 -0.00129546)
(0.00160852 0.00160852 -0.00129546)
(0.00130476 0.0018634 -0.00129546)
(0.000961367 0.00206166 -0.00129546)
(0.000588758 0.00219728 -0.00129546)
(0.000198261 0.00226613 -0.00129546)
(-0.000198261 0.00226613 -0.00129546)
(-0.000588758 0.00219728 -0.00129546)
(-0.000961367 0.00206166 -0.00129546)
(-0.00130476 0.0018634 -0.00129546)
(-0.00160852 0.00160852 -0.00129546)
(-0.0018634 0.00130476 -0.00129546)
(-0.00206166 0.000961367 -0.00129546)
(-0.00219728 0.000588758 -0.00129546)
(-0.00226613 0.000198261 -0.00129546)
(-0.00226613 -0.000198261 -0.00129546)
(-0.00219728 -0.000588758 -0.00129546)
(-0.00206166 -0.000961367 -0.00129546)
(-0.0018634 -0.00130476 -0.00129546)
(-0.00160852 -0.00160852 -0.00129546)
(-0.00130476 -0.0018634 -0.00129546)
(-0.000961367 -0.00206166 -0.00129546)
(-0.000588758 -0.00219728 -0.00129546)
(-0.000198261 -0.00226613 -0.00129546)
(0.000198261 -0.00226613 -0.00129546)
(0.000588758 -0.00219728 -0.00129546)
(0.000961367 -0.00206166 -0.00129546)
(0.00130476 -0.0018634 -0.00129546)
(0.00160852 -0.00160852 -0.00129546)
(0.0018634 -0.00130476 -0.00129546)
(0.00206166 -0.000961367 -0.00129546)
(0.00219728 -0.000588758 -0.00129546)
(0.00226613 -0.000198261 -0.00129546)
(0.00266512 0.000233168 -0.00130972)
(0.00258414 0.000692417 -0.00130972)
(0.00242464 0.00113063 -0.00130972)
(0.00219147 0.00153449 -0.00130972)
(0.00189172 0.00189172 -0.00130972)
(0.00153449 0.00219147 -0.00130972)
(0.00113063 0.00242464 -0.00130972)
(0.000692417 0.00258414 -0.00130972)
(0.000233168 0.00266512 -0.00130972)
(-0.000233168 0.00266512 -0.00130972)
(-0.000692417 0.00258414 -0.00130972)
(-0.00113063 0.00242464 -0.00130972)
(-0.00153449 0.00219147 -0.00130972)
(-0.00189172 0.00189172 -0.00130972)
(-0.00219147 0.00153449 -0.00130972)
(-0.00242464 0.00113063 -0.00130972)
(-0.00258414 0.000692417 -0.00130972)
(-0.00266512 0.000233168 -0.00130972)
(-0.00266512 -0.000233168 -0.00130972)
(-0.00258414 -0.000692417 -0.00130972)
(-0.00242464 -0.00113063 -0.00130972)
(-0.00219147 -0.00153449 -0.00130972)
(-0.00189172 -0.00189172 -0.00130972)
(-0.00153449 -0.00219147 -0.00130972)
(-0.00113063 -0.00242464 -0.00130972)
(-0.000692417 -0.00258414 -0.00130972)
(-0.000233168 -0.00266512 -0.00130972)
(0.000233168 -0.00266512 -0.00130972)
(0.000692417 -0.00258414 -0.00130972)
(0.00113063 -0.00242464 -0.00130972)
(0.00153449 -0.00219147 -0.00130972)
(0.00189172 -0.00189172 -0.00130972)
(0.00219147 -0.00153449 -0.00130972)
(0.00242464 -0.00113063 -0.00130972)
(0.00258414 -0.000692417 -0.00130972)
(0.00266512 -0.000233168 -0.00130972)
(0.00312152 0.000273098 -0.00130157)
(0.00302667 0.000810994 -0.00130157)
(0.00283986 0.00132425 -0.00130157)
(0.00256676 0.00179727 -0.00130157)
(0.00221568 0.00221568 -0.00130157)
(0.00179727 0.00256676 -0.00130157)
(0.00132425 0.00283986 -0.00130157)
(0.000810994 0.00302667 -0.00130157)
(0.000273098 0.00312152 -0.00130157)
(-0.000273098 0.00312152 -0.00130157)
(-0.000810994 0.00302667 -0.00130157)
(-0.00132425 0.00283986 -0.00130157)
(-0.00179727 0.00256676 -0.00130157)
(-0.00221568 0.00221568 -0.00130157)
(-0.00256676 0.00179727 -0.00130157)
(-0.00283986 0.00132425 -0.00130157)
(-0.00302667 0.000810994 -0.00130157)
(-0.00312152 0.000273098 -0.00130157)
(-0.00312152 -0.000273098 -0.00130157)
(-0.00302667 -0.000810994 -0.00130157)
(-0.00283986 -0.00132425 -0.00130157)
(-0.00256676 -0.00179727 -0.00130157)
(-0.00221568 -0.00221568 -0.00130157)
(-0.00179727 -0.00256676 -0.00130157)
(-0.00132425 -0.00283986 -0.00130157)
(-0.000810994 -0.00302667 -0.00130157)
(-0.000273098 -0.00312152 -0.00130157)
(0.000273098 -0.00312152 -0.00130157)
(0.000810994 -0.00302667 -0.00130157)
(0.00132425 -0.00283986 -0.00130157)
(0.00179727 -0.00256676 -0.00130157)
(0.00221568 -0.00221568 -0.00130157)
(0.00256676 -0.00179727 -0.00130157)
(0.00283986 -0.00132425 -0.00130157)
(0.00302667 -0.000810994 -0.00130157)
(0.00312152 -0.000273098 -0.00130157)
(0.00291623 0.000255137 -0.00198645)
(0.00282762 0.000757658 -0.00198645)
(0.0026531 0.00123716 -0.00198645)
(0.00239796 0.00167907 -0.00198645)
(0.00206996 0.00206996 -0.00198645)
(0.00167907 0.00239796 -0.00198645)
(0.00123716 0.0026531 -0.00198645)
(0.000757658 0.00282762 -0.00198645)
(0.000255137 0.00291623 -0.00198645)
(-0.000255137 0.00291623 -0.00198645)
(-0.000757658 0.00282762 -0.00198645)
(-0.00123716 0.0026531 -0.00198645)
(-0.00167907 0.00239796 -0.00198645)
(-0.00206996 0.00206996 -0.00198645)
(-0.00239796 0.00167907 -0.00198645)
(-0.0026531 0.00123716 -0.00198645)
(-0.00282762 0.000757658 -0.00198645)
(-0.00291623 0.000255137 -0.00198645)
(-0.00291623 -0.000255137 -0.00198645)
(-0.00282762 -0.000757658 -0.00198645)
(-0.0026531 -0.00123716 -0.00198645)
(-0.00239796 -0.00167907 -0.00198645)
(-0.00206996 -0.00206996 -0.00198645)
(-0.00167907 -0.00239796 -0.00198645)
(-0.00123716 -0.0026531 -0.00198645)
(-0.000757658 -0.00282762 -0.00198645)
(-0.000255137 -0.00291623 -0.00198645)
(0.000255137 -0.00291623 -0.00198645)
(0.000757658 -0.00282762 -0.00198645)
(0.00123716 -0.0026531 -0.00198645)
(0.00167907 -0.00239796 -0.00198645)
(0.00206996 -0.00206996 -0.00198645)
(0.00239796 -0.00167907 -0.00198645)
(0.0026531 -0.00123716 -0.00198645)
(0.00282762 -0.000757658 -0.00198645)
(0.00291623 -0.000255137 -0.00198645)
(0.00335763 0.000293754 -0.00201644)
(0.00325561 0.000872337 -0.00201644)
(0.00305467 0.00142441 -0.00201644)
(0.00276091 0.00193321 -0.00201644)
(0.00238327 0.00238327 -0.00201644)
(0.00193321 0.00276091 -0.00201644)
(0.00142441 0.00305467 -0.00201644)
(0.000872337 0.00325561 -0.00201644)
(0.000293754 0.00335763 -0.00201644)
(-0.000293754 0.00335763 -0.00201644)
(-0.000872337 0.00325561 -0.00201644)
(-0.00142441 0.00305467 -0.00201644)
(-0.00193321 0.00276091 -0.00201644)
(-0.00238327 0.00238327 -0.00201644)
(-0.00276091 0.00193321 -0.00201644)
(-0.00305467 0.00142441 -0.00201644)
(-0.00325561 0.000872337 -0.00201644)
(-0.00335763 0.000293754 -0.00201644)
(-0.00335763 -0.000293754 -0.00201644)
(-0.00325561 -0.000872337 -0.00201644)
(-0.00305467 -0.00142441 -0.00201644)
(-0.00276091 -0.00193321 -0.00201644)
(-0.00238327 -0.00238327 -0.00201644)
(-0.00193321 -0.00276091 -0.00201644)
(-0.00142441 -0.00305467 -0.00201644)
(-0.000872337 -0.00325561 -0.00201644)
(-0.000293754 -0.00335763 -0.00201644)
(0.000293754 -0.00335763 -0.00201644)
(0.000872337 -0.00325561 -0.00201644)
(0.00142441 -0.00305467 -0.00201644)
(0.00193321 -0.00276091 -0.00201644)
(0.00238327 -0.00238327 -0.00201644)
(0.00276091 -0.00193321 -0.00201644)
(0.00305467 -0.00142441 -0.00201644)
(0.00325561 -0.000872337 -0.00201644)
(0.00335763 -0.000293754 -0.00201644)
(0.00386164 0.00033785 -0.00203033)
(0.00374431 0.00100328 -0.00203033)
(0.0035132 0.00163823 -0.00203033)
(0.00317535 0.00222341 -0.00203033)
(0.00274102 0.00274102 -0.00203033)
(0.00222341 0.00317535 -0.00203033)
(0.00163823 0.0035132 -0.00203033)
(0.00100328 0.00374431 -0.00203033)
(0.00033785 0.00386164 -0.00203033)
(-0.00033785 0.00386164 -0.00203033)
(-0.00100328 0.00374431 -0.00203033)
(-0.00163823 0.0035132 -0.00203033)
(-0.00222341 0.00317535 -0.00203033)
(-0.00274102 0.00274102 -0.00203033)
(-0.00317535 0.00222341 -0.00203033)
(-0.0035132 0.00163823 -0.00203033)
(-0.00374431 0.00100328 -0.00203033)
(-0.00386164 0.00033785 -0.00203033)
(-0.00386164 -0.00033785 -0.00203033)
(-0.00374431 -0.00100328 -0.00203033)
(-0.0035132 -0.00163823 -0.00203033)
(-0.00317535 -0.00222341 -0.00203033)
(-0.00274102 -0.00274102 -0.00203033)
(-0.00222341 -0.00317535 -0.00203033)
(-0.00163823 -0.0035132 -0.00203033)
(-0.00100328 -0.00374431 -0.00203033)
(-0.00033785 -0.00386164 -0.00203033)
(0.00033785 -0.00386164 -0.00203033)
(0.00100328 -0.00374431 -0.00203033)
(0.00163823 -0.0035132 -0.00203033)
(0.00222341 -0.00317535 -0.00203033)
(0.00274102 -0.00274102 -0.00203033)
(0.00317535 -0.00222341 -0.00203033)
(0.0035132 -0.00163823 -0.00203033)
(0.00374431 -0.00100328 -0.00203033)
(0.00386164 -0.00033785 -0.00203033)
(0.00330875 0.000289478 -0.00271686)
(0.00320822 0.000859638 -0.00271686)
(0.0030102 0.00140368 -0.00271686)
(0.00272072 0.00190507 -0.00271686)
(0.00234858 0.00234858 -0.00271686)
(0.00190507 0.00272072 -0.00271686)
(0.00140368 0.0030102 -0.00271686)
(0.000859638 0.00320822 -0.00271686)
(0.000289478 0.00330875 -0.00271686)
(-0.000289478 0.00330875 -0.00271686)
(-0.000859638 0.00320822 -0.00271686)
(-0.00140368 0.0030102 -0.00271686)
(-0.00190507 0.00272072 -0.00271686)
(-0.00234858 0.00234858 -0.00271686)
(-0.00272072 0.00190507 -0.00271686)
(-0.0030102 0.00140368 -0.00271686)
(-0.00320822 0.000859638 -0.00271686)
(-0.00330875 0.000289478 -0.00271686)
(-0.00330875 -0.000289478 -0.00271686)
(-0.00320822 -0.000859638 -0.00271686)
(-0.0030102 -0.00140368 -0.00271686)
(-0.00272072 -0.00190507 -0.00271686)
(-0.00234858 -0.00234858 -0.00271686)
(-0.00190507 -0.00272072 -0.00271686)
(-0.00140368 -0.0030102 -0.00271686)
(-0.000859638 -0.00320822 -0.00271686)
(-0.000289478 -0.00330875 -0.00271686)
(0.000289478 -0.00330875 -0.00271686)
(0.000859638 -0.00320822 -0.00271686)
(0.00140368 -0.0030102 -0.00271686)
(0.00190507 -0.00272072 -0.00271686)
(0.00234858 -0.00234858 -0.00271686)
(0.00272072 -0.00190507 -0.00271686)
(0.0030102 -0.00140368 -0.00271686)
(0.00320822 -0.000859638 -0.00271686)
(0.00330875 -0.000289478 -0.00271686)
(0.00376919 0.000329762 -0.00276605)
(0.00365466 0.000979264 -0.00276605)
(0.00342909 0.00159901 -0.00276605)
(0.00309933 0.00217018 -0.00276605)
(0.0026754 0.0026754 -0.00276605)
(0.00217018 0.00309933 -0.00276605)
(0.00159901 0.00342909 -0.00276605)
(0.000979264 0.00365466 -0.00276605)
(0.000329762 0.00376919 -0.00276605)
(-0.000329762 0.00376919 -0.00276605)
(-0.000979264 0.00365466 -0.00276605)
(-0.00159901 0.00342909 -0.00276605)
(-0.00217018 0.00309933 -0.00276605)
(-0.0026754 0.0026754 -0.00276605)
(-0.00309933 0.00217018 -0.00276605)
(-0.00342909 0.00159901 -0.00276605)
(-0.00365466 0.000979264 -0.00276605)
(-0.00376919 0.000329762 -0.00276605)
(-0.00376919 -0.000329762 -0.00276605)
(-0.00365466 -0.000979264 -0.00276605)
(-0.00342909 -0.00159901 -0.00276605)
(-0.00309933 -0.00217018 -0.00276605)
(-0.0026754 -0.0026754 -0.00276605)
(-0.00217018 -0.00309933 -0.00276605)
(-0.00159901 -0.00342909 -0.00276605)
(-0.000979264 -0.00365466 -0.00276605)
(-0.000329762 -0.00376919 -0.00276605)
(0.000329762 -0.00376919 -0.00276605)
(0.000979264 -0.00365466 -0.00276605)
(0.00159901 -0.00342909 -0.00276605)
(0.00217018 -0.00309933 -0.00276605)
(0.0026754 -0.0026754 -0.00276605)
(0.00309933 -0.00217018 -0.00276605)
(0.00342909 -0.00159901 -0.00276605)
(0.00365466 -0.000979264 -0.00276605)
(0.00376919 -0.000329762 -0.00276605)
(0.0042959 0.000375843 -0.00280714)
(0.00416537 0.00111611 -0.00280714)
(0.00390828 0.00182246 -0.00280714)
(0.00353244 0.00247344 -0.00280714)
(0.00304927 0.00304927 -0.00280715)
(0.00247344 0.00353244 -0.00280714)
(0.00182246 0.00390828 -0.00280714)
(0.00111611 0.00416537 -0.00280714)
(0.000375843 0.0042959 -0.00280714)
(-0.000375843 0.0042959 -0.00280714)
(-0.00111611 0.00416537 -0.00280714)
(-0.00182246 0.00390828 -0.00280714)
(-0.00247344 0.00353244 -0.00280714)
(-0.00304927 0.00304927 -0.00280715)
(-0.00353244 0.00247344 -0.00280714)
(-0.00390828 0.00182246 -0.00280714)
(-0.00416537 0.00111611 -0.00280714)
(-0.0042959 0.000375843 -0.00280714)
(-0.0042959 -0.000375843 -0.00280714)
(-0.00416537 -0.00111611 -0.00280714)
(-0.00390828 -0.00182246 -0.00280714)
(-0.00353244 -0.00247344 -0.00280714)
(-0.00304927 -0.00304927 -0.00280715)
(-0.00247344 -0.00353244 -0.00280714)
(-0.00182246 -0.00390828 -0.00280714)
(-0.00111611 -0.00416537 -0.00280714)
(-0.000375843 -0.0042959 -0.00280714)
(0.000375843 -0.0042959 -0.00280714)
(0.00111611 -0.00416537 -0.00280714)
(0.00182246 -0.00390828 -0.00280714)
(0.00247344 -0.00353244 -0.00280714)
(0.00304927 -0.00304927 -0.00280715)
(0.00353244 -0.00247344 -0.00280714)
(0.00390828 -0.00182246 -0.00280714)
(0.00416537 -0.00111611 -0.00280714)
(0.0042959 -0.000375843 -0.00280714)
(0.00346083 0.000302784 -0.00344573)
(0.00335567 0.00089915 -0.00344573)
(0.00314856 0.0014682 -0.00344573)
(0.00284577 0.00199263 -0.00344573)
(0.00245652 0.00245652 -0.00344573)
(0.00199263 0.00284577 -0.00344573)
(0.0014682 0.00314856 -0.00344573)
(0.00089915 0.00335567 -0.00344573)
(0.000302784 0.00346083 -0.00344573)
(-0.000302784 0.00346083 -0.00344573)
(-0.00089915 0.00335567 -0.00344573)
(-0.0014682 0.00314856 -0.00344573)
(-0.00199263 0.00284577 -0.00344573)
(-0.00245652 0.00245652 -0.00344573)
(-0.00284577 0.00199263 -0.00344573)
(-0.00314856 0.0014682 -0.00344573)
(-0.00335567 0.00089915 -0.00344573)
(-0.00346083 0.000302784 -0.00344573)
(-0.00346083 -0.000302784 -0.00344573)
(-0.00335567 -0.00089915 -0.00344573)
(-0.00314856 -0.0014682 -0.00344573)
(-0.00284577 -0.00199263 -0.00344573)
(-0.00245652 -0.00245652 -0.00344573)
(-0.00199263 -0.00284577 -0.00344573)
(-0.0014682 -0.00314856 -0.00344573)
(-0.00089915 -0.00335567 -0.00344573)
(-0.000302784 -0.00346083 -0.00344573)
(0.000302784 -0.00346083 -0.00344573)
(0.00089915 -0.00335567 -0.00344573)
(0.0014682 -0.00314856 -0.00344573)
(0.00199263 -0.00284577 -0.00344573)
(0.00245652 -0.00245652 -0.00344573)
(0.00284577 -0.00199263 -0.00344573)
(0.00314856 -0.0014682 -0.00344573)
(0.00335567 -0.00089915 -0.00344573)
(0.00346083 -0.000302784 -0.00344573)
(0.00392543 0.000343431 -0.00351628)
(0.00380616 0.00101986 -0.00351628)
(0.00357124 0.0016653 -0.00351628)
(0.00322781 0.00226014 -0.00351628)
(0.0027863 0.0027863 -0.00351628)
(0.00226014 0.00322781 -0.00351628)
(0.0016653 0.00357124 -0.00351628)
(0.00101986 0.00380616 -0.00351628)
(0.000343431 0.00392543 -0.00351628)
(-0.000343431 0.00392543 -0.00351628)
(-0.00101986 0.00380616 -0.00351628)
(-0.0016653 0.00357124 -0.00351628)
(-0.00226014 0.00322781 -0.00351628)
(-0.0027863 0.0027863 -0.00351628)
(-0.00322781 0.00226014 -0.00351628)
(-0.00357124 0.0016653 -0.00351628)
(-0.00380616 0.00101986 -0.00351628)
(-0.00392543 0.000343431 -0.00351628)
(-0.00392543 -0.000343431 -0.00351628)
(-0.00380616 -0.00101986 -0.00351628)
(-0.00357124 -0.0016653 -0.00351628)
(-0.00322781 -0.00226014 -0.00351628)
(-0.0027863 -0.0027863 -0.00351628)
(-0.00226014 -0.00322781 -0.00351628)
(-0.0016653 -0.00357124 -0.00351628)
(-0.00101986 -0.00380616 -0.00351628)
(-0.000343431 -0.00392543 -0.00351628)
(0.000343431 -0.00392543 -0.00351628)
(0.00101986 -0.00380616 -0.00351628)
(0.0016653 -0.00357124 -0.00351628)
(0.00226014 -0.00322781 -0.00351628)
(0.0027863 -0.0027863 -0.00351628)
(0.00322781 -0.00226014 -0.00351628)
(0.00357124 -0.0016653 -0.00351628)
(0.00380616 -0.00101986 -0.00351628)
(0.00392543 -0.000343431 -0.00351628)
(0.00445862 0.000390079 -0.00358703)
(0.00432315 0.00115838 -0.00358703)
(0.00405632 0.00189149 -0.00358703)
(0.00366624 0.00256713 -0.00358703)
(0.00316476 0.00316476 -0.00358703)
(0.00256713 0.00366624 -0.00358703)
(0.00189149 0.00405632 -0.00358703)
(0.00115838 0.00432315 -0.00358703)
(0.000390079 0.00445862 -0.00358703)
(-0.000390079 0.00445862 -0.00358703)
(-0.00115838 0.00432315 -0.00358703)
(-0.00189149 0.00405632 -0.00358703)
(-0.00256713 0.00366624 -0.00358703)
(-0.00316476 0.00316476 -0.00358703)
(-0.00366624 0.00256713 -0.00358703)
(-0.00405632 0.00189149 -0.00358703)
(-0.00432315 0.00115838 -0.00358703)
(-0.00445862 0.000390079 -0.00358703)
(-0.00445862 -0.000390079 -0.00358703)
(-0.00432315 -0.00115838 -0.00358703)
(-0.00405632 -0.00189149 -0.00358703)
(-0.00366624 -0.00256713 -0.00358703)
(-0.00316476 -0.00316476 -0.00358703)
(-0.00256713 -0.00366624 -0.00358703)
(-0.00189149 -0.00405632 -0.00358703)
(-0.00115838 -0.00432315 -0.00358703)
(-0.000390079 -0.00445862 -0.00358703)
(0.000390079 -0.00445862 -0.00358703)
(0.00115838 -0.00432315 -0.00358703)
(0.00189149 -0.00405632 -0.00358703)
(0.00256713 -0.00366624 -0.00358703)
(0.00316476 -0.00316476 -0.00358703)
(0.00366624 -0.00256713 -0.00358703)
(0.00405632 -0.00189149 -0.00358703)
(0.00432315 -0.00115838 -0.00358703)
(0.00445862 -0.000390079 -0.00358703)
(0.00341146 0.000298464 -0.004143)
(0.0033078 0.000886323 -0.004143)
(0.00310364 0.00144725 -0.004143)
(0.00280518 0.00196421 -0.004143)
(0.00242148 0.00242148 -0.004143)
(0.00196421 0.00280518 -0.004143)
(0.00144725 0.00310364 -0.004143)
(0.000886323 0.0033078 -0.004143)
(0.000298464 0.00341146 -0.004143)
(-0.000298464 0.00341146 -0.004143)
(-0.000886323 0.0033078 -0.004143)
(-0.00144725 0.00310364 -0.004143)
(-0.00196421 0.00280518 -0.004143)
(-0.00242148 0.00242148 -0.004143)
(-0.00280518 0.00196421 -0.004143)
(-0.00310364 0.00144725 -0.004143)
(-0.0033078 0.000886323 -0.004143)
(-0.00341146 0.000298464 -0.004143)
(-0.00341146 -0.000298464 -0.004143)
(-0.0033078 -0.000886323 -0.004143)
(-0.00310364 -0.00144725 -0.004143)
(-0.00280518 -0.00196421 -0.004143)
(-0.00242148 -0.00242148 -0.004143)
(-0.00196421 -0.00280518 -0.004143)
(-0.00144725 -0.00310364 -0.004143)
(-0.000886323 -0.0033078 -0.004143)
(-0.000298464 -0.00341146 -0.004143)
(0.000298464 -0.00341146 -0.004143)
(0.000886323 -0.0033078 -0.004143)
(0.00144725 -0.00310364 -0.004143)
(0.00196421 -0.00280518 -0.004143)
(0.00242148 -0.00242148 -0.004143)
(0.00280518 -0.00196421 -0.004143)
(0.00310364 -0.00144725 -0.004143)
(0.0033078 -0.000886323 -0.004143)
(0.00341146 -0.000298464 -0.004143)
(0.003871 0.000338668 -0.00423483)
(0.00375338 0.00100572 -0.00423483)
(0.00352171 0.0016422 -0.00423483)
(0.00318305 0.00222879 -0.00423483)
(0.00274766 0.00274766 -0.00423483)
(0.00222879 0.00318305 -0.00423483)
(0.0016422 0.00352171 -0.00423483)
(0.00100572 0.00375338 -0.00423483)
(0.000338668 0.003871 -0.00423483)
(-0.000338668 0.003871 -0.00423483)
(-0.00100572 0.00375338 -0.00423483)
(-0.0016422 0.00352171 -0.00423483)
(-0.00222879 0.00318305 -0.00423483)
(-0.00274766 0.00274766 -0.00423483)
(-0.00318305 0.00222879 -0.00423483)
(-0.00352171 0.0016422 -0.00423483)
(-0.00375338 0.00100572 -0.00423483)
(-0.003871 0.000338668 -0.00423483)
(-0.003871 -0.000338668 -0.00423483)
(-0.00375338 -0.00100572 -0.00423483)
(-0.00352171 -0.0016422 -0.00423483)
(-0.00318305 -0.00222879 -0.00423483)
(-0.00274766 -0.00274766 -0.00423483)
(-0.00222879 -0.00318305 -0.00423483)
(-0.0016422 -0.00352171 -0.00423483)
(-0.00100572 -0.00375338 -0.00423483)
(-0.000338668 -0.003871 -0.00423483)
(0.000338668 -0.003871 -0.00423483)
(0.00100572 -0.00375338 -0.00423483)
(0.0016422 -0.00352171 -0.00423483)
(0.00222879 -0.00318305 -0.00423483)
(0.00274766 -0.00274766 -0.00423483)
(0.00318305 -0.00222879 -0.00423483)
(0.00352171 -0.0016422 -0.00423483)
(0.00375338 -0.00100572 -0.00423483)
(0.003871 -0.000338668 -0.00423483)
(0.00440125 0.000385061 -0.00433507)
(0.00426752 0.00114348 -0.00433507)
(0.00400413 0.00186716 -0.00433507)
(0.00361907 0.0025341 -0.00433507)
(0.00312405 0.00312405 -0.00433507)
(0.0025341 0.00361907 -0.00433507)
(0.00186716 0.00400413 -0.00433507)
(0.00114348 0.00426752 -0.00433507)
(0.000385061 0.00440125 -0.00433507)
(-0.000385061 0.00440125 -0.00433507)
(-0.00114348 0.00426752 -0.00433507)
(-0.00186716 0.00400413 -0.00433507)
(-0.0025341 0.00361907 -0.00433507)
(-0.00312405 0.00312405 -0.00433507)
(-0.00361907 0.0025341 -0.00433507)
(-0.00400413 0.00186716 -0.00433507)
(-0.00426752 0.00114348 -0.00433507)
(-0.00440125 0.000385061 -0.00433507)
(-0.00440125 -0.000385061 -0.00433507)
(-0.00426752 -0.00114348 -0.00433507)
(-0.00400413 -0.00186716 -0.00433507)
(-0.00361907 -0.0025341 -0.00433507)
(-0.00312405 -0.00312405 -0.00433507)
(-0.0025341 -0.00361907 -0.00433507)
(-0.00186716 -0.00400413 -0.00433507)
(-0.00114348 -0.00426752 -0.00433507)
(-0.000385061 -0.00440125 -0.00433507)
(0.000385061 -0.00440125 -0.00433507)
(0.00114348 -0.00426752 -0.00433507)
(0.00186716 -0.00400413 -0.00433507)
(0.0025341 -0.00361907 -0.00433507)
(0.00312405 -0.00312405 -0.00433507)
(0.00361907 -0.0025341 -0.00433507)
(0.00400413 -0.00186716 -0.00433507)
(0.00426752 -0.00114348 -0.00433507)
(0.00440125 -0.000385061 -0.00433507)
(0.0032025 0.000280182 -0.00478607)
(0.00310519 0.000832034 -0.00478607)
(0.00291354 0.00135861 -0.00478607)
(0.00263336 0.0018439 -0.00478607)
(0.00227316 0.00227316 -0.00478607)
(0.0018439 0.00263336 -0.00478607)
(0.00135861 0.00291354 -0.00478607)
(0.000832034 0.00310519 -0.00478607)
(0.000280182 0.0032025 -0.00478607)
(-0.000280182 0.0032025 -0.00478607)
(-0.000832034 0.00310519 -0.00478607)
(-0.00135861 0.00291354 -0.00478607)
(-0.0018439 0.00263336 -0.00478607)
(-0.00227316 0.00227316 -0.00478607)
(-0.00263336 0.0018439 -0.00478607)
(-0.00291354 0.00135861 -0.00478607)
(-0.00310519 0.000832034 -0.00478607)
(-0.0032025 0.000280182 -0.00478607)