/*--------------------------------*- C++ -*----------------------------------*\
| =========                 |                                                 |
| \\      /  F ield         | OpenFOAM: The Open Source CFD Toolbox           |
|  \\    /   O peration     | Version:  2312                                  |
|   \\  /    A nd           | Website:  www.openfoam.com                      |
|    \\/     M anipulation  |                                                 |
\*---------------------------------------------------------------------------*/
FoamFile
{
    version     2.0;
    format      ascii;
    arch        "LSB;label=32;scalar=64";
    class       volTensorField;
    location    "0.9";
    object      F;
}
// * * * * * * * * * * * * * * * * * * * * * * * * * * * * * * * * * * * * * //

dimensions      [0 0 0 0 0 0 0];

internalField   nonuniform List<tensor> 
1620
(
(0.80531 -0.0208851 -0.541333 -0.0208849 1.0422 -0.0473605 -0.0363933 -0.00318406 1.23798)
(0.819596 -0.0601361 -0.524885 -0.0601358 1.02791 -0.140642 -0.0352875 -0.00945537 1.23798)
(0.846446 -0.092134 -0.492488 -0.0921337 1.00106 -0.229651 -0.0331095 -0.0154393 1.23798)
(0.88262 -0.113019 -0.445127 -0.113019 0.964891 -0.311681 -0.0299256 -0.0209542 1.23798)
(0.923755 -0.120272 -0.384242 -0.120272 0.923755 -0.384242 -0.0258324 -0.0258324 1.23798)
(0.964891 -0.113019 -0.311681 -0.113019 0.88262 -0.445127 -0.0209542 -0.0299256 1.23798)
(1.00106 -0.0921337 -0.229651 -0.092134 0.846446 -0.492488 -0.0154393 -0.0331095 1.23798)
(1.02791 -0.0601358 -0.140642 -0.0601361 0.819596 -0.524885 -0.00945537 -0.0352875 1.23798)
(1.0422 -0.0208849 -0.0473605 -0.0208851 0.80531 -0.541333 -0.00318406 -0.0363933 1.23798)
(1.0422 0.0208849 0.0473605 0.0208851 0.80531 -0.541333 0.00318406 -0.0363933 1.23798)
(1.02791 0.0601358 0.140642 0.0601361 0.819596 -0.524885 0.00945537 -0.0352875 1.23798)
(1.00106 0.0921337 0.229651 0.092134 0.846446 -0.492488 0.0154393 -0.0331095 1.23798)
(0.964891 0.113019 0.311681 0.113019 0.88262 -0.445127 0.0209542 -0.0299256 1.23798)
(0.923755 0.120272 0.384242 0.120272 0.923755 -0.384242 0.0258324 -0.0258324 1.23798)
(0.88262 0.113019 0.445127 0.113019 0.964891 -0.311681 0.0299256 -0.0209542 1.23798)
(0.846446 0.092134 0.492488 0.0921337 1.00106 -0.229651 0.0331095 -0.0154393 1.23798)
(0.819596 0.0601361 0.524885 0.0601358 1.02791 -0.140642 0.0352875 -0.00945537 1.23798)
(0.80531 0.0208851 0.541333 0.0208849 1.0422 -0.0473605 0.0363933 -0.00318406 1.23798)
(0.80531 -0.0208851 0.541333 -0.0208849 1.0422 0.0473605 0.0363933 0.00318406 1.23798)
(0.819596 -0.0601361 0.524885 -0.0601358 1.02791 0.140642 0.0352875 0.00945537 1.23798)
(0.846446 -0.092134 0.492488 -0.0921337 1.00106 0.229651 0.0331095 0.0154393 1.23798)
(0.88262 -0.113019 0.445127 -0.113019 0.964891 0.311681 0.0299256 0.0209542 1.23798)
(0.923755 -0.120272 0.384242 -0.120272 0.923755 0.384242 0.0258324 0.0258324 1.23798)
(0.964891 -0.113019 0.311681 -0.113019 0.88262 0.445127 0.0209542 0.0299256 1.23798)
(1.00106 -0.0921337 0.229651 -0.092134 0.846446 0.492488 0.0154393 0.0331095 1.23798)
(1.02791 -0.0601358 0.140642 -0.0601361 0.819596 0.524885 0.00945537 0.0352875 1.23798)
(1.0422 -0.0208849 0.0473605 -0.0208851 0.80531 0.541333 0.00318406 0.0363933 1.23798)
(1.0422 0.0208849 -0.0473605 0.0208851 0.80531 0.541333 -0.00318406 0.0363933 1.23798)
(1.02791 0.0601358 -0.140642 0.0601361 0.819596 0.524885 -0.00945537 0.0352875 1.23798)
(1.00106 0.0921337 -0.229651 0.092134 0.846446 0.492488 -0.0154393 0.0331095 1.23798)
(0.964891 0.113019 -0.311681 0.113019 0.88262 0.445127 -0.0209542 0.0299256 1.23798)
(0.923755 0.120272 -0.384242 0.120272 0.923755 0.384242 -0.0258324 0.0258324 1.23798)
(0.88262 0.113019 -0.445127 0.113019 0.964891 0.311681 -0.0299256 0.0209542 1.23798)
(0.846446 0.092134 -0.492488 0.0921337 1.00106 0.229651 -0.0331095 0.0154393 1.23798)
(0.819596 0.0601361 -0.524885 0.0601358 1.02791 0.140642 -0.0352875 0.00945537 1.23798)
(0.80531 0.0208851 -0.541333 0.0208849 1.0422 0.0473605 -0.0363933 0.00318406 1.23798)
(0.786753 -0.025074 -0.609313 -0.0250741 1.07116 -0.053308 -0.0465913 -0.00407625 1.25491)
(0.803905 -0.0721982 -0.590799 -0.0721979 1.05401 -0.158304 -0.0451757 -0.0121049 1.25491)
(0.836139 -0.110614 -0.554334 -0.110614 1.02177 -0.25849 -0.0423875 -0.0197657 1.25491)
(0.879569 -0.135688 -0.501026 -0.135688 0.978342 -0.350822 -0.0383114 -0.0268258 1.25491)
(0.928956 -0.144396 -0.432495 -0.144396 0.928956 -0.432495 -0.033071 -0.033071 1.25491)
(0.978342 -0.135688 -0.350822 -0.135688 0.879569 -0.501026 -0.0268258 -0.0383114 1.25491)
(1.02177 -0.110614 -0.25849 -0.110614 0.836139 -0.554334 -0.0197657 -0.0423875 1.25491)
(1.05401 -0.0721979 -0.158304 -0.0721982 0.803905 -0.590799 -0.0121049 -0.0451757 1.25491)
(1.07116 -0.0250741 -0.053308 -0.025074 0.786753 -0.609313 -0.00407625 -0.0465913 1.25491)
(1.07116 0.0250741 0.053308 0.025074 0.786753 -0.609313 0.00407625 -0.0465913 1.25491)
(1.05401 0.0721979 0.158304 0.0721982 0.803905 -0.590799 0.0121049 -0.0451757 1.25491)
(1.02177 0.110614 0.25849 0.110614 0.836139 -0.554334 0.0197657 -0.0423875 1.25491)
(0.978342 0.135688 0.350822 0.135688 0.879569 -0.501026 0.0268258 -0.0383114 1.25491)
(0.928956 0.144396 0.432495 0.144396 0.928956 -0.432495 0.033071 -0.033071 1.25491)
(0.879569 0.135688 0.501026 0.135688 0.978342 -0.350822 0.0383114 -0.0268258 1.25491)
(0.836139 0.110614 0.554334 0.110614 1.02177 -0.25849 0.0423875 -0.0197657 1.25491)
(0.803905 0.0721982 0.590799 0.0721979 1.05401 -0.158304 0.0451757 -0.0121049 1.25491)
(0.786753 0.025074 0.609313 0.0250741 1.07116 -0.053308 0.0465913 -0.00407625 1.25491)
(0.786753 -0.025074 0.609313 -0.0250741 1.07116 0.053308 0.0465913 0.00407625 1.25491)
(0.803905 -0.0721982 0.590799 -0.0721979 1.05401 0.158304 0.0451757 0.0121049 1.25491)
(0.836139 -0.110614 0.554334 -0.110614 1.02177 0.25849 0.0423875 0.0197657 1.25491)
(0.879569 -0.135688 0.501026 -0.135688 0.978342 0.350822 0.0383114 0.0268258 1.25491)
(0.928956 -0.144396 0.432495 -0.144396 0.928956 0.432495 0.033071 0.033071 1.25491)
(0.978342 -0.135688 0.350822 -0.135688 0.879569 0.501026 0.0268258 0.0383114 1.25491)
(1.02177 -0.110614 0.25849 -0.110614 0.836139 0.554334 0.0197657 0.0423875 1.25491)
(1.05401 -0.0721979 0.158304 -0.0721982 0.803905 0.590799 0.0121049 0.0451757 1.25491)
(1.07116 -0.0250741 0.053308 -0.025074 0.786753 0.609313 0.00407625 0.0465913 1.25491)
(1.07116 0.0250741 -0.053308 0.025074 0.786753 0.609313 -0.00407625 0.0465913 1.25491)
(1.05401 0.0721979 -0.158304 0.0721982 0.803905 0.590799 -0.0121049 0.0451757 1.25491)
(1.02177 0.110614 -0.25849 0.110614 0.836139 0.554334 -0.0197657 0.0423875 1.25491)
(0.978342 0.135688 -0.350822 0.135688 0.879569 0.501026 -0.0268258 0.0383114 1.25491)
(0.928956 0.144396 -0.432495 0.144396 0.928956 0.432495 -0.033071 0.033071 1.25491)
(0.879569 0.135688 -0.501026 0.135688 0.978342 0.350822 -0.0383114 0.0268258 1.25491)
(0.836139 0.110614 -0.554334 0.110614 1.02177 0.25849 -0.0423875 0.0197657 1.25491)
(0.803905 0.0721982 -0.590799 0.0721979 1.05401 0.158304 -0.0451757 0.0121049 1.25491)
(0.786753 0.025074 -0.609313 0.0250741 1.07116 0.053308 -0.0465913 0.00407625 1.25491)
(0.769986 -0.0302454 -0.686451 -0.0302455 1.11305 -0.0600567 -0.0570706 -0.00499307 1.26998)
(0.790675 -0.0870885 -0.665594 -0.0870886 1.09236 -0.178345 -0.0553367 -0.0148274 1.26998)
(0.829558 -0.133428 -0.624513 -0.133428 1.05348 -0.291214 -0.0519214 -0.0242113 1.26998)
(0.881945 -0.163674 -0.564456 -0.163673 1.00109 -0.395236 -0.0469284 -0.0328596 1.26998)
(0.941517 -0.174178 -0.487248 -0.174178 0.941517 -0.487248 -0.0405094 -0.0405094 1.26998)
(1.00109 -0.163673 -0.395236 -0.163674 0.881945 -0.564456 -0.0328596 -0.0469284 1.26998)
(1.05348 -0.133428 -0.291214 -0.133428 0.829558 -0.624513 -0.0242113 -0.0519214 1.26998)
(1.09236 -0.0870886 -0.178345 -0.0870885 0.790675 -0.665594 -0.0148274 -0.0553367 1.26998)
(1.11305 -0.0302455 -0.0600567 -0.0302454 0.769986 -0.686451 -0.00499307 -0.0570706 1.26998)
(1.11305 0.0302455 0.0600567 0.0302454 0.769986 -0.686451 0.00499307 -0.0570706 1.26998)
(1.09236 0.0870886 0.178345 0.0870885 0.790675 -0.665594 0.0148274 -0.0553367 1.26998)
(1.05348 0.133428 0.291214 0.133428 0.829558 -0.624513 0.0242113 -0.0519214 1.26998)
(1.00109 0.163673 0.395236 0.163674 0.881945 -0.564456 0.0328596 -0.0469284 1.26998)
(0.941517 0.174178 0.487248 0.174178 0.941517 -0.487248 0.0405094 -0.0405094 1.26998)
(0.881945 0.163674 0.564456 0.163673 1.00109 -0.395236 0.0469284 -0.0328596 1.26998)
(0.829558 0.133428 0.624513 0.133428 1.05348 -0.291214 0.0519214 -0.0242113 1.26998)
(0.790675 0.0870885 0.665594 0.0870886 1.09236 -0.178345 0.0553367 -0.0148274 1.26998)
(0.769986 0.0302454 0.686451 0.0302455 1.11305 -0.0600567 0.0570706 -0.00499307 1.26998)
(0.769986 -0.0302454 0.686451 -0.0302455 1.11305 0.0600567 0.0570706 0.00499307 1.26998)
(0.790675 -0.0870885 0.665594 -0.0870886 1.09236 0.178345 0.0553367 0.0148274 1.26998)
(0.829558 -0.133428 0.624513 -0.133428 1.05348 0.291214 0.0519214 0.0242113 1.26998)
(0.881945 -0.163674 0.564456 -0.163673 1.00109 0.395236 0.0469284 0.0328596 1.26998)
(0.941517 -0.174178 0.487248 -0.174178 0.941517 0.487248 0.0405094 0.0405094 1.26998)
(1.00109 -0.163673 0.395236 -0.163674 0.881945 0.564456 0.0328596 0.0469284 1.26998)
(1.05348 -0.133428 0.291214 -0.133428 0.829558 0.624513 0.0242113 0.0519214 1.26998)
(1.09236 -0.0870886 0.178345 -0.0870885 0.790675 0.665594 0.0148274 0.0553367 1.26998)
(1.11305 -0.0302455 0.0600567 -0.0302454 0.769986 0.686451 0.00499307 0.0570706 1.26998)
(1.11305 0.0302455 -0.0600567 0.0302454 0.769986 0.686451 -0.00499307 0.0570706 1.26998)
(1.09236 0.0870886 -0.178345 0.0870885 0.790675 0.665594 -0.0148274 0.0553367 1.26998)
(1.05348 0.133428 -0.291214 0.133428 0.829558 0.624513 -0.0242113 0.0519214 1.26998)
(1.00109 0.163673 -0.395236 0.163674 0.881945 0.564456 -0.0328596 0.0469284 1.26998)
(0.941517 0.174178 -0.487248 0.174178 0.941517 0.487248 -0.0405094 0.0405094 1.26998)
(0.881945 0.163674 -0.564456 0.163673 1.00109 0.395236 -0.0469284 0.0328596 1.26998)
(0.829558 0.133428 -0.624513 0.133428 1.05348 0.291214 -0.0519214 0.0242113 1.26998)
(0.790675 0.0870885 -0.665594 0.0870886 1.09236 0.178345 -0.0553367 0.0148274 1.26998)
(0.769986 0.0302454 -0.686451 0.0302455 1.11305 0.0600567 -0.0570706 0.00499307 1.26998)
(0.680742 -0.04125 -0.510098 -0.0412498 1.14862 -0.0446277 -0.00143816 -0.000125951 1.27932)
(0.708959 -0.118774 -0.494598 -0.118774 1.1204 -0.132527 -0.00139461 -0.000374 1.27932)
(0.761988 -0.181973 -0.464071 -0.181972 1.06737 -0.2164 -0.00130861 -0.00061055 1.27932)
(0.833435 -0.223223 -0.419443 -0.223222 0.995928 -0.293697 -0.00118294 -0.000828556 1.27932)
(0.914681 -0.237548 -0.362071 -0.237548 0.914681 -0.362071 -0.00102132 -0.00102132 1.27932)
(0.995928 -0.223222 -0.293697 -0.223223 0.833435 -0.419443 -0.000828556 -0.00118294 1.27932)
(1.06737 -0.181972 -0.2164 -0.181973 0.761988 -0.464071 -0.00061055 -0.00130861 1.27932)
(1.1204 -0.118774 -0.132527 -0.118774 0.708959 -0.494598 -0.000374 -0.00139461 1.27932)
(1.14862 -0.0412498 -0.0446277 -0.04125 0.680742 -0.510098 -0.000125951 -0.00143816 1.27932)
(1.14862 0.0412498 0.0446277 0.04125 0.680742 -0.510098 0.000125951 -0.00143816 1.27932)
(1.1204 0.118774 0.132527 0.118774 0.708959 -0.494598 0.000374 -0.00139461 1.27932)
(1.06737 0.181972 0.2164 0.181973 0.761988 -0.464071 0.00061055 -0.00130861 1.27932)
(0.995928 0.223222 0.293697 0.223223 0.833435 -0.419443 0.000828556 -0.00118294 1.27932)
(0.914681 0.237548 0.362071 0.237548 0.914681 -0.362071 0.00102132 -0.00102132 1.27932)
(0.833435 0.223223 0.419443 0.223222 0.995928 -0.293697 0.00118294 -0.000828556 1.27932)
(0.761988 0.181973 0.464071 0.181972 1.06737 -0.2164 0.00130861 -0.00061055 1.27932)
(0.708959 0.118774 0.494598 0.118774 1.1204 -0.132527 0.00139461 -0.000374 1.27932)
(0.680742 0.04125 0.510098 0.0412498 1.14862 -0.0446277 0.00143816 -0.000125951 1.27932)
(0.680742 -0.04125 0.510098 -0.0412498 1.14862 0.0446277 0.00143816 0.000125951 1.27932)
(0.708959 -0.118774 0.494598 -0.118774 1.1204 0.132527 0.00139461 0.000374 1.27932)
(0.761988 -0.181973 0.464071 -0.181972 1.06737 0.2164 0.00130861 0.00061055 1.27932)
(0.833435 -0.223223 0.419443 -0.223222 0.995928 0.293697 0.00118294 0.000828556 1.27932)
(0.914681 -0.237548 0.362071 -0.237548 0.914681 0.362071 0.00102132 0.00102132 1.27932)
(0.995928 -0.223222 0.293697 -0.223223 0.833435 0.419443 0.000828556 0.00118294 1.27932)
(1.06737 -0.181972 0.2164 -0.181973 0.761988 0.464071 0.00061055 0.00130861 1.27932)
(1.1204 -0.118774 0.132527 -0.118774 0.708959 0.494598 0.000374 0.00139461 1.27932)
(1.14862 -0.0412498 0.0446277 -0.04125 0.680742 0.510098 0.000125951 0.00143816 1.27932)
(1.14862 0.0412498 -0.0446277 0.04125 0.680742 0.510098 -0.000125951 0.00143816 1.27932)
(1.1204 0.118774 -0.132527 0.118774 0.708959 0.494598 -0.000374 0.00139461 1.27932)
(1.06737 0.181972 -0.2164 0.181973 0.761988 0.464071 -0.00061055 0.00130861 1.27932)
(0.995928 0.223222 -0.293697 0.223223 0.833435 0.419443 -0.000828556 0.00118294 1.27932)
(0.914681 0.237548 -0.362071 0.237548 0.914681 0.362071 -0.00102132 0.00102132 1.27932)
(0.833435 0.223223 -0.419443 0.223222 0.995928 0.293697 -0.00118294 0.000828556 1.27932)
(0.761988 0.181973 -0.464071 0.181972 1.06737 0.2164 -0.00130861 0.00061055 1.27932)
(0.708959 0.118774 -0.494598 0.118774 1.1204 0.132527 -0.00139461 0.000374 1.27932)
(0.680742 0.04125 -0.510098 0.0412498 1.14862 0.0446277 -0.00143816 0.000125951 1.27932)
(0.652522 -0.0486871 -0.567917 -0.048687 1.20476 -0.0496863 -0.0135549 -0.00118597 1.29409)
(0.685825 -0.140189 -0.550661 -0.140188 1.17145 -0.147549 -0.013143 -0.00352186 1.29409)
(0.748416 -0.214782 -0.516674 -0.214781 1.10886 -0.240929 -0.012332 -0.00575075 1.29409)
(0.832745 -0.263469 -0.466987 -0.263469 1.02453 -0.326988 -0.0111463 -0.00780483 1.29409)
(0.92864 -0.280378 -0.403111 -0.280378 0.92864 -0.403111 -0.00962185 -0.00962185 1.29409)
(1.02453 -0.263469 -0.326988 -0.263469 0.832745 -0.466987 -0.00780483 -0.0111463 1.29409)
(1.10886 -0.214781 -0.240929 -0.214782 0.748416 -0.516674 -0.00575075 -0.012332 1.29409)
(1.17145 -0.140188 -0.147549 -0.140189 0.685825 -0.550661 -0.00352186 -0.013143 1.29409)
(1.20476 -0.048687 -0.0496863 -0.0486871 0.652522 -0.567917 -0.00118597 -0.0135549 1.29409)
(1.20476 0.048687 0.0496863 0.0486871 0.652522 -0.567917 0.00118597 -0.0135549 1.29409)
(1.17145 0.140188 0.147549 0.140189 0.685825 -0.550661 0.00352186 -0.013143 1.29409)
(1.10886 0.214781 0.240929 0.214782 0.748416 -0.516674 0.00575075 -0.012332 1.29409)
(1.02453 0.263469 0.326988 0.263469 0.832745 -0.466987 0.00780483 -0.0111463 1.29409)
(0.92864 0.280378 0.403111 0.280378 0.92864 -0.403111 0.00962185 -0.00962185 1.29409)
(0.832745 0.263469 0.466987 0.263469 1.02453 -0.326988 0.0111463 -0.00780483 1.29409)
(0.748416 0.214782 0.516674 0.214781 1.10886 -0.240929 0.012332 -0.00575075 1.29409)
(0.685825 0.140189 0.550661 0.140188 1.17145 -0.147549 0.013143 -0.00352186 1.29409)
(0.652522 0.0486871 0.567917 0.048687 1.20476 -0.0496863 0.0135549 -0.00118597 1.29409)
(0.652522 -0.0486871 0.567917 -0.048687 1.20476 0.0496863 0.0135549 0.00118597 1.29409)
(0.685825 -0.140189 0.550661 -0.140188 1.17145 0.147549 0.013143 0.00352186 1.29409)
(0.748416 -0.214782 0.516674 -0.214781 1.10886 0.240929 0.012332 0.00575075 1.29409)
(0.832745 -0.263469 0.466987 -0.263469 1.02453 0.326988 0.0111463 0.00780483 1.29409)
(0.92864 -0.280378 0.403111 -0.280378 0.92864 0.403111 0.00962185 0.00962185 1.29409)
(1.02453 -0.263469 0.326988 -0.263469 0.832745 0.466987 0.00780483 0.0111463 1.29409)
(1.10886 -0.214781 0.240929 -0.214782 0.748416 0.516674 0.00575075 0.012332 1.29409)
(1.17145 -0.140188 0.147549 -0.140189 0.685825 0.550661 0.00352186 0.013143 1.29409)
(1.20476 -0.048687 0.0496863 -0.0486871 0.652522 0.567917 0.00118597 0.0135549 1.29409)
(1.20476 0.048687 -0.0496863 0.0486871 0.652522 0.567917 -0.00118597 0.0135549 1.29409)
(1.17145 0.140188 -0.147549 0.140189 0.685825 0.550661 -0.00352186 0.013143 1.29409)
(1.10886 0.214781 -0.240929 0.214782 0.748416 0.516674 -0.00575075 0.012332 1.29409)
(1.02453 0.263469 -0.326988 0.263469 0.832745 0.466987 -0.00780483 0.0111463 1.29409)
(0.92864 0.280378 -0.403111 0.280378 0.92864 0.403111 -0.00962185 0.00962185 1.29409)
(0.832745 0.263469 -0.466987 0.263469 1.02453 0.326988 -0.0111463 0.00780483 1.29409)
(0.748416 0.214782 -0.516674 0.214781 1.10886 0.240929 -0.012332 0.00575075 1.29409)
(0.685825 0.140189 -0.550661 0.140188 1.17145 0.147549 -0.013143 0.00352186 1.29409)
(0.652522 0.0486871 -0.567917 0.048687 1.20476 0.0496863 -0.0135549 0.00118597 1.29409)
(0.629401 -0.0576068 -0.632922 -0.0576065 1.28281 -0.0553735 -0.0254816 -0.00222941 1.30897)
(0.668806 -0.165872 -0.613691 -0.165871 1.2434 -0.164438 -0.0247074 -0.00662042 1.30897)
(0.742864 -0.25413 -0.575813 -0.25413 1.16934 -0.268506 -0.0231827 -0.0108103 1.30897)
(0.842641 -0.311737 -0.52044 -0.311736 1.06957 -0.364416 -0.0209535 -0.0146718 1.30897)
(0.956104 -0.331743 -0.449253 -0.331743 0.956104 -0.449253 -0.0180875 -0.0180875 1.30897)
(1.06957 -0.311736 -0.364416 -0.311737 0.842641 -0.52044 -0.0146718 -0.0209535 1.30897)
(1.16934 -0.25413 -0.268506 -0.25413 0.742864 -0.575813 -0.0108103 -0.0231827 1.30897)
(1.2434 -0.165871 -0.164438 -0.165872 0.668806 -0.613691 -0.00662042 -0.0247074 1.30897)
(1.28281 -0.0576065 -0.0553735 -0.0576068 0.629401 -0.632922 -0.00222941 -0.0254816 1.30897)
(1.28281 0.0576065 0.0553735 0.0576068 0.629401 -0.632922 0.00222941 -0.0254816 1.30897)
(1.2434 0.165871 0.164438 0.165872 0.668806 -0.613691 0.00662042 -0.0247074 1.30897)
(1.16934 0.25413 0.268506 0.25413 0.742864 -0.575813 0.0108103 -0.0231827 1.30897)
(1.06957 0.311736 0.364416 0.311737 0.842641 -0.52044 0.0146718 -0.0209535 1.30897)
(0.956104 0.331743 0.449253 0.331743 0.956104 -0.449253 0.0180875 -0.0180875 1.30897)
(0.842641 0.311737 0.52044 0.311736 1.06957 -0.364416 0.0209535 -0.0146718 1.30897)
(0.742864 0.25413 0.575813 0.25413 1.16934 -0.268506 0.0231827 -0.0108103 1.30897)
(0.668806 0.165872 0.613691 0.165871 1.2434 -0.164438 0.0247074 -0.00662042 1.30897)
(0.629401 0.0576068 0.632922 0.0576065 1.28281 -0.0553735 0.0254816 -0.00222941 1.30897)
(0.629401 -0.0576068 0.632922 -0.0576065 1.28281 0.0553735 0.0254816 0.00222941 1.30897)
(0.668806 -0.165872 0.613691 -0.165871 1.2434 0.164438 0.0247074 0.00662042 1.30897)
(0.742864 -0.25413 0.575813 -0.25413 1.16934 0.268506 0.0231827 0.0108103 1.30897)
(0.842641 -0.311737 0.52044 -0.311736 1.06957 0.364416 0.0209535 0.0146718 1.30897)
(0.956104 -0.331743 0.449253 -0.331743 0.956104 0.449253 0.0180875 0.0180875 1.30897)
(1.06957 -0.311736 0.364416 -0.311737 0.842641 0.52044 0.0146718 0.0209535 1.30897)
(1.16934 -0.25413 0.268506 -0.25413 0.742864 0.575813 0.0108103 0.0231827 1.30897)
(1.2434 -0.165871 0.164438 -0.165872 0.668806 0.613691 0.00662042 0.0247074 1.30897)
(1.28281 -0.0576065 0.0553735 -0.0576068 0.629401 0.632922 0.00222941 0.0254816 1.30897)
(1.28281 0.0576065 -0.0553735 0.0576068 0.629401 0.632922 -0.00222941 0.0254816 1.30897)
(1.2434 0.165871 -0.164438 0.165872 0.668806 0.613691 -0.00662042 0.0247074 1.30897)
(1.16934 0.25413 -0.268506 0.25413 0.742864 0.575813 -0.0108103 0.0231827 1.30897)
(1.06957 0.311736 -0.364416 0.311737 0.842641 0.52044 -0.0146718 0.0209535 1.30897)
(0.956104 0.331743 -0.449253 0.331743 0.956104 0.449253 -0.0180875 0.0180875 1.30897)
(0.842641 0.311737 -0.52044 0.311736 1.06957 0.364416 -0.0209535 0.0146718 1.30897)
(0.742864 0.25413 -0.575813 0.25413 1.16934 0.268506 -0.0231827 0.0108103 1.30897)
(0.668806 0.165872 -0.613691 0.165871 1.2434 0.164438 -0.0247074 0.00662042 1.30897)
(0.629401 0.0576068 -0.632922 0.0576065 1.28281 0.0553735 -0.0254816 0.00222941 1.30897)
(0.595772 -0.0568924 -0.402824 -0.0568923 1.24108 -0.0352426 0.0231931 0.00202896 1.34212)
(0.634689 -0.163815 -0.390585 -0.163814 1.20216 -0.104657 0.0224882 0.00602539 1.34212)
(0.707828 -0.250979 -0.366477 -0.250978 1.12902 -0.170891 0.0211003 0.00983891 1.34212)
(0.806368 -0.307872 -0.331235 -0.307871 1.03048 -0.231933 0.0190712 0.0133536 1.34212)
(0.918424 -0.32763 -0.285928 -0.32763 0.918424 -0.285928 0.0164626 0.0164626 1.34212)
(1.03048 -0.307871 -0.231933 -0.307872 0.806368 -0.331235 0.0133536 0.0190712 1.34212)
(1.12902 -0.250978 -0.170891 -0.250979 0.707828 -0.366477 0.00983891 0.0211003 1.34212)
(1.20216 -0.163814 -0.104657 -0.163815 0.634689 -0.390585 0.00602539 0.0224882 1.34212)
(1.24108 -0.0568923 -0.0352426 -0.0568924 0.595772 -0.402824 0.00202896 0.0231931 1.34212)
(1.24108 0.0568923 0.0352426 0.0568924 0.595772 -0.402824 -0.00202896 0.0231931 1.34212)
(1.20216 0.163814 0.104657 0.163815 0.634689 -0.390585 -0.00602539 0.0224882 1.34212)
(1.12902 0.250978 0.170891 0.250979 0.707828 -0.366477 -0.00983891 0.0211003 1.34212)
(1.03048 0.307871 0.231933 0.307872 0.806368 -0.331235 -0.0133536 0.0190712 1.34212)
(0.918424 0.32763 0.285928 0.32763 0.918424 -0.285928 -0.0164626 0.0164626 1.34212)
(0.806368 0.307872 0.331235 0.307871 1.03048 -0.231933 -0.0190712 0.0133536 1.34212)
(0.707828 0.250979 0.366477 0.250978 1.12902 -0.170891 -0.0211003 0.00983891 1.34212)
(0.634689 0.163815 0.390585 0.163814 1.20216 -0.104657 -0.0224882 0.00602539 1.34212)
(0.595772 0.0568924 0.402824 0.0568923 1.24108 -0.0352426 -0.0231931 0.00202896 1.34212)
(0.595772 -0.0568924 0.402824 -0.0568923 1.24108 0.0352426 -0.0231931 -0.00202896 1.34212)
(0.634689 -0.163815 0.390585 -0.163814 1.20216 0.104657 -0.0224882 -0.00602539 1.34212)
(0.707828 -0.250979 0.366477 -0.250978 1.12902 0.170891 -0.0211003 -0.00983891 1.34212)
(0.806368 -0.307872 0.331235 -0.307871 1.03048 0.231933 -0.0190712 -0.0133536 1.34212)
(0.918424 -0.32763 0.285928 -0.32763 0.918424 0.285928 -0.0164626 -0.0164626 1.34212)
(1.03048 -0.307871 0.231933 -0.307872 0.806368 0.331235 -0.0133536 -0.0190712 1.34212)
(1.12902 -0.250978 0.170891 -0.250979 0.707828 0.366477 -0.00983891 -0.0211003 1.34212)
(1.20216 -0.163814 0.104657 -0.163815 0.634689 0.390585 -0.00602539 -0.0224882 1.34212)
(1.24108 -0.0568923 0.0352426 -0.0568924 0.595772 0.402824 -0.00202896 -0.0231931 1.34212)
(1.24108 0.0568923 -0.0352426 0.0568924 0.595772 0.402824 0.00202896 -0.0231931 1.34212)
(1.20216 0.163814 -0.104657 0.163815 0.634689 0.390585 0.00602539 -0.0224882 1.34212)
(1.12902 0.250978 -0.170891 0.250979 0.707828 0.366477 0.00983891 -0.0211003 1.34212)
(1.03048 0.307871 -0.231933 0.307872 0.806368 0.331235 0.0133536 -0.0190712 1.34212)
(0.918424 0.32763 -0.285928 0.32763 0.918424 0.285928 0.0164626 -0.0164626 1.34212)
(0.806368 0.307872 -0.331235 0.307871 1.03048 0.231933 0.0190712 -0.0133536 1.34212)
(0.707828 0.250979 -0.366477 0.250978 1.12902 0.170891 0.0211003 -0.00983891 1.34212)
(0.634689 0.163815 -0.390585 0.163814 1.20216 0.104657 0.0224882 -0.00602539 1.34212)
(0.595772 0.0568924 -0.402824 0.0568923 1.24108 0.0352426 0.0231931 -0.00202896 1.34212)
(0.562126 -0.0665796 -0.440634 -0.0665792 1.31731 -0.0385505 0.0135715 0.00118726 1.35655)
(0.607669 -0.191707 -0.427246 -0.191707 1.27176 -0.11448 0.0131589 0.00352568 1.35655)
(0.693262 -0.293713 -0.400876 -0.293712 1.18617 -0.186932 0.0123469 0.00575706 1.35655)
(0.808581 -0.360292 -0.362326 -0.360292 1.07085 -0.253703 0.0111596 0.00781372 1.35655)
(0.939716 -0.383415 -0.312766 -0.383415 0.939716 -0.312766 0.00963304 0.00963304 1.35655)
(1.07085 -0.360292 -0.253703 -0.360292 0.808581 -0.362326 0.00781372 0.0111596 1.35655)
(1.18617 -0.293712 -0.186932 -0.293713 0.693262 -0.400876 0.00575706 0.0123469 1.35655)
(1.27176 -0.191707 -0.11448 -0.191707 0.607669 -0.427246 0.00352568 0.0131589 1.35655)
(1.31731 -0.0665792 -0.0385505 -0.0665796 0.562126 -0.440634 0.00118726 0.0135715 1.35655)
(1.31731 0.0665792 0.0385505 0.0665796 0.562126 -0.440634 -0.00118726 0.0135715 1.35655)
(1.27176 0.191707 0.11448 0.191707 0.607669 -0.427246 -0.00352568 0.0131589 1.35655)
(1.18617 0.293712 0.186932 0.293713 0.693262 -0.400876 -0.00575706 0.0123469 1.35655)
(1.07085 0.360292 0.253703 0.360292 0.808581 -0.362326 -0.00781372 0.0111596 1.35655)
(0.939716 0.383415 0.312766 0.383415 0.939716 -0.312766 -0.00963304 0.00963304 1.35655)
(0.808581 0.360292 0.362326 0.360292 1.07085 -0.253703 -0.0111596 0.00781372 1.35655)
(0.693262 0.293713 0.400876 0.293712 1.18617 -0.186932 -0.0123469 0.00575706 1.35655)
(0.607669 0.191707 0.427246 0.191707 1.27176 -0.11448 -0.0131589 0.00352568 1.35655)
(0.562126 0.0665796 0.440634 0.0665792 1.31731 -0.0385505 -0.0135715 0.00118726 1.35655)
(0.562126 -0.0665796 0.440634 -0.0665792 1.31731 0.0385505 -0.0135715 -0.00118726 1.35655)
(0.607669 -0.191707 0.427246 -0.191707 1.27176 0.11448 -0.0131589 -0.00352568 1.35655)
(0.693262 -0.293713 0.400876 -0.293712 1.18617 0.186932 -0.0123469 -0.00575706 1.35655)
(0.808581 -0.360292 0.362326 -0.360292 1.07085 0.253703 -0.0111596 -0.00781372 1.35655)
(0.939716 -0.383415 0.312766 -0.383415 0.939716 0.312766 -0.00963304 -0.00963304 1.35655)
(1.07085 -0.360292 0.253703 -0.360292 0.808581 0.362326 -0.00781372 -0.0111596 1.35655)
(1.18617 -0.293712 0.186932 -0.293713 0.693262 0.400876 -0.00575706 -0.0123469 1.35655)
(1.27176 -0.191707 0.11448 -0.191707 0.607669 0.427246 -0.00352568 -0.0131589 1.35655)
(1.31731 -0.0665792 0.0385505 -0.0665796 0.562126 0.440634 -0.00118726 -0.0135715 1.35655)
(1.31731 0.0665792 -0.0385505 0.0665796 0.562126 0.440634 0.00118726 -0.0135715 1.35655)
(1.27176 0.191707 -0.11448 0.191707 0.607669 0.427246 0.00352568 -0.0131589 1.35655)
(1.18617 0.293712 -0.186932 0.293713 0.693262 0.400876 0.00575706 -0.0123469 1.35655)
(1.07085 0.360292 -0.253703 0.360292 0.808581 0.362326 0.00781372 -0.0111596 1.35655)
(0.939716 0.383415 -0.312766 0.383415 0.939716 0.312766 0.00963304 -0.00963304 1.35655)
(0.808581 0.360292 -0.362326 0.360292 1.07085 0.253703 0.0111596 -0.00781372 1.35655)
(0.693262 0.293713 -0.400876 0.293712 1.18617 0.186932 0.0123469 -0.00575706 1.35655)
(0.607669 0.191707 -0.427246 0.191707 1.27176 0.11448 0.0131589 -0.00352568 1.35655)
(0.562126 0.0665796 -0.440634 0.0665792 1.31731 0.0385505 0.0135715 -0.00118726 1.35655)
(0.535866 -0.0780672 -0.483752 -0.0780668 1.42134 -0.0423229 0.00380779 0.000333102 1.37416)
(0.589267 -0.224785 -0.469054 -0.224784 1.36794 -0.125683 0.00369201 0.000989068 1.37416)
(0.689628 -0.34439 -0.440103 -0.34439 1.26758 -0.205224 0.00346421 0.00161494 1.37416)
(0.824844 -0.422457 -0.39778 -0.422457 1.13237 -0.278529 0.00313122 0.002192 1.37416)
(0.978606 -0.44957 -0.343371 -0.44957 0.978606 -0.343371 0.00270271 0.00270271 1.37416)
(1.13237 -0.422457 -0.278529 -0.422457 0.824844 -0.39778 0.002192 0.00313122 1.37416)
(1.26758 -0.34439 -0.205224 -0.34439 0.689628 -0.440103 0.00161494 0.00346421 1.37416)
(1.36794 -0.224784 -0.125683 -0.224785 0.589267 -0.469054 0.000989068 0.00369201 1.37416)
(1.42134 -0.0780668 -0.0423229 -0.0780672 0.535866 -0.483752 0.000333102 0.00380779 1.37416)
(1.42134 0.0780668 0.0423229 0.0780672 0.535866 -0.483752 -0.000333102 0.00380779 1.37416)
(1.36794 0.224784 0.125683 0.224785 0.589267 -0.469054 -0.000989068 0.00369201 1.37416)
(1.26758 0.34439 0.205224 0.34439 0.689628 -0.440103 -0.00161494 0.00346421 1.37416)
(1.13237 0.422457 0.278529 0.422457 0.824844 -0.39778 -0.002192 0.00313122 1.37416)
(0.978606 0.44957 0.343371 0.44957 0.978606 -0.343371 -0.00270271 0.00270271 1.37416)
(0.824844 0.422457 0.39778 0.422457 1.13237 -0.278529 -0.00313122 0.002192 1.37416)
(0.689628 0.34439 0.440103 0.34439 1.26758 -0.205224 -0.00346421 0.00161494 1.37416)
(0.589267 0.224785 0.469054 0.224784 1.36794 -0.125683 -0.00369201 0.000989068 1.37416)
(0.535866 0.0780672 0.483752 0.0780668 1.42134 -0.0423229 -0.00380779 0.000333102 1.37416)
(0.535866 -0.0780672 0.483752 -0.0780668 1.42134 0.0423229 -0.00380779 -0.000333102 1.37416)
(0.589267 -0.224785 0.469054 -0.224784 1.36794 0.125683 -0.00369201 -0.000989068 1.37416)
(0.689628 -0.34439 0.440103 -0.34439 1.26758 0.205224 -0.00346421 -0.00161494 1.37416)
(0.824844 -0.422457 0.39778 -0.422457 1.13237 0.278529 -0.00313122 -0.002192 1.37416)
(0.978606 -0.44957 0.343371 -0.44957 0.978606 0.343371 -0.00270271 -0.00270271 1.37416)
(1.13237 -0.422457 0.278529 -0.422457 0.824844 0.39778 -0.002192 -0.00313122 1.37416)
(1.26758 -0.34439 0.205224 -0.34439 0.689628 0.440103 -0.00161494 -0.00346421 1.37416)
(1.36794 -0.224784 0.125683 -0.224785 0.589267 0.469054 -0.000989068 -0.00369201 1.37416)
(1.42134 -0.0780668 0.0423229 -0.0780672 0.535866 0.483752 -0.000333102 -0.00380779 1.37416)
(1.42134 0.0780668 -0.0423229 0.0780672 0.535866 0.483752 0.000333102 -0.00380779 1.37416)
(1.36794 0.224784 -0.125683 0.224785 0.589267 0.469054 0.000989068 -0.00369201 1.37416)
(1.26758 0.34439 -0.205224 0.34439 0.689628 0.440103 0.00161494 -0.00346421 1.37416)
(1.13237 0.422457 -0.278529 0.422457 0.824844 0.39778 0.002192 -0.00313122 1.37416)
(0.978606 0.44957 -0.343371 0.44957 0.978606 0.343371 0.00270271 -0.00270271 1.37416)
(0.824844 0.422457 -0.39778 0.422457 1.13237 0.278529 0.00313122 -0.002192 1.37416)
(0.689628 0.34439 -0.440103 0.34439 1.26758 0.205224 0.00346421 -0.00161494 1.37416)
(0.589267 0.224785 -0.469054 0.224784 1.36794 0.125683 0.00369201 -0.000989068 1.37416)
(0.535866 0.0780672 -0.483752 0.0780668 1.42134 0.0423229 0.00380779 -0.000333102 1.37416)
(0.548531 -0.0672673 -0.253747 -0.0672671 1.31151 -0.0222 0.0535727 0.00468688 1.37562)
(0.594544 -0.193688 -0.246037 -0.193688 1.2655 -0.0659253 0.0519449 0.0139184 1.37562)
(0.681021 -0.296748 -0.230851 -0.296747 1.17902 -0.107648 0.0487387 0.022727 1.37562)
(0.797532 -0.364015 -0.208651 -0.364015 1.06251 -0.146099 0.0440516 0.030845 1.37562)
(0.930022 -0.387377 -0.180111 -0.387377 0.930022 -0.180111 0.038026 0.038026 1.37562)
(1.06251 -0.364015 -0.146099 -0.364015 0.797532 -0.208651 0.030845 0.0440516 1.37562)
(1.17902 -0.296747 -0.107648 -0.296748 0.681021 -0.230851 0.022727 0.0487387 1.37562)
(1.2655 -0.193688 -0.0659253 -0.193688 0.594544 -0.246037 0.0139184 0.0519449 1.37562)
(1.31151 -0.0672671 -0.0222 -0.0672673 0.548531 -0.253747 0.00468688 0.0535727 1.37562)