/*--------------------------------*- C++ -*----------------------------------*\
| =========                 |                                                 |
| \\      /  F ield         | OpenFOAM: The Open Source CFD Toolbox           |
|  \\    /   O peration     | Version:  2312                                  |
|   \\  /    A nd           | Website:  www.openfoam.com                      |
|    \\/     M anipulation  |                                                 |
\*---------------------------------------------------------------------------*/
FoamFile
{
    version     2.0;
    format      ascii;
    arch        "LSB;label=32;scalar=64";
    class       volVectorField;
    location    "0.6";
    object      D;
}
// * * * * * * * * * * * * * * * * * * * * * * * * * * * * * * * * * * * * * //

dimensions      [0 1 0 0 0 0 0];

internalField   nonuniform List<vector> 
1620
(
(0.000272896 2.38753e-05 -0.000153351)
(0.000264604 7.09004e-05 -0.000153351)
(0.000248272 0.000115771 -0.000153351)
(0.000224397 0.000157124 -0.000153351)
(0.000193704 0.000193704 -0.000153351)
(0.000157124 0.000224397 -0.000153351)
(0.000115771 0.000248272 -0.000153351)
(7.09004e-05 0.000264604 -0.000153351)
(2.38753e-05 0.000272896 -0.000153351)
(-2.38753e-05 0.000272896 -0.000153351)
(-7.09004e-05 0.000264604 -0.000153351)
(-0.000115771 0.000248272 -0.000153351)
(-0.000157124 0.000224397 -0.000153351)
(-0.000193704 0.000193704 -0.000153351)
(-0.000224397 0.000157124 -0.000153351)
(-0.000248272 0.000115771 -0.000153351)
(-0.000264604 7.09004e-05 -0.000153351)
(-0.000272896 2.38753e-05 -0.000153351)
(-0.000272896 -2.38753e-05 -0.000153351)
(-0.000264604 -7.09004e-05 -0.000153351)
(-0.000248272 -0.000115771 -0.000153351)
(-0.000224397 -0.000157124 -0.000153351)
(-0.000193704 -0.000193704 -0.000153351)
(-0.000157124 -0.000224397 -0.000153351)
(-0.000115771 -0.000248272 -0.000153351)
(-7.09004e-05 -0.000264604 -0.000153351)
(-2.38753e-05 -0.000272896 -0.000153351)
(2.38753e-05 -0.000272896 -0.000153351)
(7.09004e-05 -0.000264604 -0.000153351)
(0.000115771 -0.000248272 -0.000153351)
(0.000157124 -0.000224397 -0.000153351)
(0.000193704 -0.000193704 -0.000153351)
(0.000224397 -0.000157124 -0.000153351)
(0.000248272 -0.000115771 -0.000153351)
(0.000264604 -7.09004e-05 -0.000153351)
(0.000272896 -2.38753e-05 -0.000153351)
(0.000417973 3.65677e-05 -0.000137053)
(0.000405273 0.000108592 -0.000137053)
(0.000380258 0.000177317 -0.000137053)
(0.00034369 0.000240654 -0.000137053)
(0.00029668 0.00029668 -0.000137054)
(0.000240654 0.00034369 -0.000137053)
(0.000177317 0.000380258 -0.000137053)
(0.000108592 0.000405273 -0.000137053)
(3.65677e-05 0.000417973 -0.000137053)
(-3.65677e-05 0.000417973 -0.000137053)
(-0.000108592 0.000405273 -0.000137053)
(-0.000177317 0.000380258 -0.000137053)
(-0.000240654 0.00034369 -0.000137053)
(-0.00029668 0.00029668 -0.000137054)
(-0.00034369 0.000240654 -0.000137053)
(-0.000380258 0.000177317 -0.000137053)
(-0.000405273 0.000108592 -0.000137053)
(-0.000417973 3.65677e-05 -0.000137053)
(-0.000417973 -3.65677e-05 -0.000137053)
(-0.000405273 -0.000108592 -0.000137053)
(-0.000380258 -0.000177317 -0.000137053)
(-0.00034369 -0.000240654 -0.000137053)
(-0.00029668 -0.00029668 -0.000137054)
(-0.000240654 -0.00034369 -0.000137053)
(-0.000177317 -0.000380258 -0.000137053)
(-0.000108592 -0.000405273 -0.000137053)
(-3.65677e-05 -0.000417973 -0.000137053)
(3.65677e-05 -0.000417973 -0.000137053)
(0.000108592 -0.000405273 -0.000137053)
(0.000177317 -0.000380258 -0.000137053)
(0.000240654 -0.00034369 -0.000137053)
(0.00029668 -0.00029668 -0.000137054)
(0.00034369 -0.000240654 -0.000137053)
(0.000380258 -0.000177317 -0.000137053)
(0.000405273 -0.000108592 -0.000137053)
(0.000417973 -3.65677e-05 -0.000137053)
(0.000597084 5.22379e-05 -0.000104703)
(0.000578942 0.000155127 -0.000104703)
(0.00054321 0.000253302 -0.000104703)
(0.000490971 0.000343781 -0.000104703)
(0.000423815 0.000423815 -0.000104703)
(0.000343781 0.000490971 -0.000104703)
(0.000253302 0.00054321 -0.000104703)
(0.000155127 0.000578942 -0.000104703)
(5.22379e-05 0.000597084 -0.000104703)
(-5.22379e-05 0.000597084 -0.000104703)
(-0.000155127 0.000578942 -0.000104703)
(-0.000253302 0.00054321 -0.000104703)
(-0.000343781 0.000490971 -0.000104703)
(-0.000423815 0.000423815 -0.000104703)
(-0.000490971 0.000343781 -0.000104703)
(-0.00054321 0.000253302 -0.000104703)
(-0.000578942 0.000155127 -0.000104703)
(-0.000597084 5.22379e-05 -0.000104703)
(-0.000597084 -5.22379e-05 -0.000104703)
(-0.000578942 -0.000155127 -0.000104703)
(-0.00054321 -0.000253302 -0.000104703)
(-0.000490971 -0.000343781 -0.000104703)
(-0.000423815 -0.000423815 -0.000104703)
(-0.000343781 -0.000490971 -0.000104703)
(-0.000253302 -0.00054321 -0.000104703)
(-0.000155127 -0.000578942 -0.000104703)
(-5.22379e-05 -0.000597084 -0.000104703)
(5.22379e-05 -0.000597084 -0.000104703)
(0.000155127 -0.000578942 -0.000104703)
(0.000253302 -0.00054321 -0.000104703)
(0.000343781 -0.000490971 -0.000104703)
(0.000423815 -0.000423815 -0.000104703)
(0.000490971 -0.000343781 -0.000104703)
(0.00054321 -0.000253302 -0.000104703)
(0.000578942 -0.000155127 -0.000104703)
(0.000597084 -5.22379e-05 -0.000104703)
(0.000979612 8.5705e-05 -0.000458459)
(0.000949847 0.000254511 -0.00045846)
(0.000891221 0.000415583 -0.00045846)
(0.000805515 0.000564027 -0.00045846)
(0.000695335 0.000695335 -0.000458461)
(0.000564027 0.000805515 -0.00045846)
(0.000415583 0.000891221 -0.00045846)
(0.000254511 0.000949847 -0.00045846)
(8.5705e-05 0.000979612 -0.000458459)
(-8.5705e-05 0.000979612 -0.000458459)
(-0.000254511 0.000949847 -0.00045846)
(-0.000415583 0.000891221 -0.00045846)
(-0.000564027 0.000805515 -0.00045846)
(-0.000695335 0.000695335 -0.000458461)
(-0.000805515 0.000564027 -0.00045846)
(-0.000891221 0.000415583 -0.00045846)
(-0.000949847 0.000254511 -0.00045846)
(-0.000979612 8.5705e-05 -0.000458459)
(-0.000979612 -8.5705e-05 -0.000458459)
(-0.000949847 -0.000254511 -0.00045846)
(-0.000891221 -0.000415583 -0.00045846)
(-0.000805515 -0.000564027 -0.00045846)
(-0.000695335 -0.000695335 -0.000458461)
(-0.000564027 -0.000805515 -0.00045846)
(-0.000415583 -0.000891221 -0.00045846)
(-0.000254511 -0.000949847 -0.00045846)
(-8.5705e-05 -0.000979612 -0.000458459)
(8.5705e-05 -0.000979612 -0.000458459)
(0.000254511 -0.000949847 -0.00045846)
(0.000415583 -0.000891221 -0.00045846)
(0.000564027 -0.000805515 -0.00045846)
(0.000695335 -0.000695335 -0.000458461)
(0.000805515 -0.000564027 -0.00045846)
(0.000891221 -0.000415583 -0.00045846)
(0.000949847 -0.000254511 -0.00045846)
(0.000979612 -8.5705e-05 -0.000458459)
(0.00122613 0.000107272 -0.000468757)
(0.00118887 0.000318557 -0.000468757)
(0.00111549 0.000520162 -0.000468758)
(0.00100822 0.000705963 -0.000468758)
(0.000870314 0.000870314 -0.000468758)
(0.000705963 0.00100822 -0.000468758)
(0.000520162 0.00111549 -0.000468758)
(0.000318557 0.00118887 -0.000468757)
(0.000107272 0.00122613 -0.000468757)
(-0.000107272 0.00122613 -0.000468757)
(-0.000318557 0.00118887 -0.000468757)
(-0.000520162 0.00111549 -0.000468758)
(-0.000705963 0.00100822 -0.000468758)
(-0.000870314 0.000870314 -0.000468758)
(-0.00100822 0.000705963 -0.000468758)
(-0.00111549 0.000520162 -0.000468758)
(-0.00118887 0.000318557 -0.000468757)
(-0.00122613 0.000107272 -0.000468757)
(-0.00122613 -0.000107272 -0.000468757)
(-0.00118887 -0.000318557 -0.000468757)
(-0.00111549 -0.000520162 -0.000468758)
(-0.00100822 -0.000705963 -0.000468758)
(-0.000870314 -0.000870314 -0.000468758)
(-0.000705963 -0.00100822 -0.000468758)
(-0.000520162 -0.00111549 -0.000468758)
(-0.000318557 -0.00118887 -0.000468757)
(-0.000107272 -0.00122613 -0.000468757)
(0.000107272 -0.00122613 -0.000468757)
(0.000318557 -0.00118887 -0.000468757)
(0.000520162 -0.00111549 -0.000468758)
(0.000705963 -0.00100822 -0.000468758)
(0.000870314 -0.000870314 -0.000468758)
(0.00100822 -0.000705963 -0.000468758)
(0.00111549 -0.000520162 -0.000468758)
(0.00118887 -0.000318557 -0.000468757)
(0.00122613 -0.000107272 -0.000468757)
(0.00152224 0.000133179 -0.000459917)
(0.00147599 0.000395488 -0.000459917)
(0.00138489 0.000645781 -0.000459917)
(0.00125171 0.000876453 -0.000459917)
(0.00108049 0.00108049 -0.000459917)
(0.000876453 0.00125171 -0.000459917)
(0.000645781 0.00138489 -0.000459917)
(0.000395488 0.00147599 -0.000459917)
(0.000133179 0.00152224 -0.000459917)
(-0.000133179 0.00152224 -0.000459917)
(-0.000395488 0.00147599 -0.000459917)
(-0.000645781 0.00138489 -0.000459917)
(-0.000876453 0.00125171 -0.000459917)
(-0.00108049 0.00108049 -0.000459917)
(-0.00125171 0.000876453 -0.000459917)
(-0.00138489 0.000645781 -0.000459917)
(-0.00147599 0.000395488 -0.000459917)
(-0.00152224 0.000133179 -0.000459917)
(-0.00152224 -0.000133179 -0.000459917)
(-0.00147599 -0.000395488 -0.000459917)
(-0.00138489 -0.000645781 -0.000459917)
(-0.00125171 -0.000876453 -0.000459917)
(-0.00108049 -0.00108049 -0.000459917)
(-0.000876453 -0.00125171 -0.000459917)
(-0.000645781 -0.00138489 -0.000459917)
(-0.000395488 -0.00147599 -0.000459917)
(-0.000133179 -0.00152224 -0.000459917)
(0.000133179 -0.00152224 -0.000459917)
(0.000395488 -0.00147599 -0.000459917)
(0.000645781 -0.00138489 -0.000459917)
(0.000876453 -0.00125171 -0.000459917)
(0.00108049 -0.00108049 -0.000459917)
(0.00125171 -0.000876453 -0.000459917)
(0.00138489 -0.000645781 -0.000459917)
(0.00147599 -0.000395488 -0.000459917)
(0.00152224 -0.000133179 -0.000459917)
(0.0016169 0.00014146 -0.000876892)
(0.00156777 0.000420083 -0.000876892)
(0.00147101 0.000685941 -0.000876893)
(0.00132954 0.000930957 -0.000876893)
(0.00114769 0.00114769 -0.000876893)
(0.000930957 0.00132954 -0.000876893)
(0.000685941 0.00147101 -0.000876893)
(0.000420083 0.00156777 -0.000876892)
(0.00014146 0.0016169 -0.000876892)
(-0.00014146 0.0016169 -0.000876892)
(-0.000420083 0.00156777 -0.000876892)
(-0.000685941 0.00147101 -0.000876893)
(-0.000930957 0.00132954 -0.000876893)
(-0.00114769 0.00114769 -0.000876893)
(-0.00132954 0.000930957 -0.000876893)
(-0.00147101 0.000685941 -0.000876893)
(-0.00156777 0.000420083 -0.000876892)
(-0.0016169 0.00014146 -0.000876892)
(-0.0016169 -0.00014146 -0.000876892)
(-0.00156777 -0.000420083 -0.000876892)
(-0.00147101 -0.000685941 -0.000876893)
(-0.00132954 -0.000930957 -0.000876893)
(-0.00114769 -0.00114769 -0.000876893)
(-0.000930957 -0.00132954 -0.000876893)
(-0.000685941 -0.00147101 -0.000876893)
(-0.000420083 -0.00156777 -0.000876892)
(-0.00014146 -0.0016169 -0.000876892)
(0.00014146 -0.0016169 -0.000876892)
(0.000420083 -0.00156777 -0.000876892)
(0.000685941 -0.00147101 -0.000876893)
(0.000930957 -0.00132954 -0.000876893)
(0.00114769 -0.00114769 -0.000876893)
(0.00132954 -0.000930957 -0.000876893)
(0.00147101 -0.000685941 -0.000876893)
(0.00156777 -0.000420083 -0.000876892)
(0.0016169 -0.00014146 -0.000876892)
(0.00193282 0.0001691 -0.000900724)
(0.0018741 0.000502162 -0.000900725)
(0.00175842 0.000819966 -0.000900725)
(0.00158932 0.00111286 -0.000900725)
(0.00137193 0.00137193 -0.000900725)
(0.00111286 0.00158932 -0.000900725)
(0.000819966 0.00175842 -0.000900725)
(0.000502162 0.0018741 -0.000900725)
(0.0001691 0.00193282 -0.000900724)
(-0.0001691 0.00193282 -0.000900724)
(-0.000502162 0.0018741 -0.000900725)
(-0.000819966 0.00175842 -0.000900725)
(-0.00111286 0.00158932 -0.000900725)
(-0.00137193 0.00137193 -0.000900725)
(-0.00158932 0.00111286 -0.000900725)
(-0.00175842 0.000819966 -0.000900725)
(-0.0018741 0.000502162 -0.000900725)
(-0.00193282 0.0001691 -0.000900724)
(-0.00193282 -0.0001691 -0.000900724)
(-0.0018741 -0.000502162 -0.000900725)
(-0.00175842 -0.000819966 -0.000900725)
(-0.00158932 -0.00111286 -0.000900725)
(-0.00137193 -0.00137193 -0.000900725)
(-0.00111286 -0.00158932 -0.000900725)
(-0.000819966 -0.00175842 -0.000900725)
(-0.000502162 -0.0018741 -0.000900725)
(-0.0001691 -0.00193282 -0.000900724)
(0.0001691 -0.00193282 -0.000900724)
(0.000502162 -0.0018741 -0.000900725)
(0.000819966 -0.00175842 -0.000900725)
(0.00111286 -0.00158932 -0.000900725)
(0.00137193 -0.00137193 -0.000900725)
(0.00158932 -0.00111286 -0.000900725)
(0.00175842 -0.000819966 -0.000900725)
(0.0018741 -0.000502162 -0.000900725)
(0.00193282 -0.0001691 -0.000900724)
(0.00230523 0.000201681 -0.000906969)
(0.00223518 0.000598915 -0.000906969)
(0.00209723 0.000977951 -0.000906969)
(0.00189554 0.00132727 -0.00090697)
(0.00163627 0.00163627 -0.00090697)
(0.00132727 0.00189554 -0.00090697)
(0.000977951 0.00209723 -0.000906969)
(0.000598915 0.00223518 -0.000906969)
(0.000201681 0.00230523 -0.000906969)
(-0.000201681 0.00230523 -0.000906969)
(-0.000598915 0.00223518 -0.000906969)
(-0.000977951 0.00209723 -0.000906969)
(-0.00132727 0.00189554 -0.00090697)
(-0.00163627 0.00163627 -0.00090697)
(-0.00189554 0.00132727 -0.00090697)
(-0.00209723 0.000977951 -0.000906969)
(-0.00223518 0.000598915 -0.000906969)
(-0.00230523 0.000201681 -0.000906969)
(-0.00230523 -0.000201681 -0.000906969)
(-0.00223518 -0.000598915 -0.000906969)
(-0.00209723 -0.000977951 -0.000906969)
(-0.00189554 -0.00132727 -0.00090697)
(-0.00163627 -0.00163627 -0.00090697)
(-0.00132727 -0.00189554 -0.00090697)
(-0.000977951 -0.00209723 -0.000906969)
(-0.000598915 -0.00223518 -0.000906969)
(-0.000201681 -0.00230523 -0.000906969)
(0.000201681 -0.00230523 -0.000906969)
(0.000598915 -0.00223518 -0.000906969)
(0.000977951 -0.00209723 -0.000906969)
(0.00132727 -0.00189554 -0.00090697)
(0.00163627 -0.00163627 -0.00090697)
(0.00189554 -0.00132727 -0.00090697)
(0.00209723 -0.000977951 -0.000906969)
(0.00223518 -0.000598915 -0.000906969)
(0.00230523 -0.000201681 -0.000906969)
(0.00211584 0.000185112 -0.00136519)
(0.00205155 0.000549711 -0.00136519)
(0.00192493 0.000897608 -0.00136519)
(0.00173982 0.00121823 -0.00136519)
(0.00150184 0.00150184 -0.00136519)
(0.00121823 0.00173982 -0.00136519)
(0.000897608 0.00192493 -0.00136519)
(0.000549711 0.00205155 -0.00136519)
(0.000185112 0.00211584 -0.00136519)
(-0.000185112 0.00211584 -0.00136519)
(-0.000549711 0.00205155 -0.00136519)
(-0.000897608 0.00192493 -0.00136519)
(-0.00121823 0.00173982 -0.00136519)
(-0.00150184 0.00150184 -0.00136519)
(-0.00173982 0.00121823 -0.00136519)
(-0.00192493 0.000897608 -0.00136519)
(-0.00205155 0.000549711 -0.00136519)
(-0.00211584 0.000185112 -0.00136519)
(-0.00211584 -0.000185112 -0.00136519)
(-0.00205155 -0.000549711 -0.00136519)
(-0.00192493 -0.000897608 -0.00136519)
(-0.00173982 -0.00121823 -0.00136519)
(-0.00150184 -0.00150184 -0.00136519)
(-0.00121823 -0.00173982 -0.00136519)
(-0.000897608 -0.00192493 -0.00136519)
(-0.000549711 -0.00205155 -0.00136519)
(-0.000185112 -0.00211584 -0.00136519)
(0.000185112 -0.00211584 -0.00136519)
(0.000549711 -0.00205155 -0.00136519)
(0.000897608 -0.00192493 -0.00136519)
(0.00121823 -0.00173982 -0.00136519)
(0.00150184 -0.00150184 -0.00136519)
(0.00173982 -0.00121823 -0.00136519)
(0.00192493 -0.000897608 -0.00136519)
(0.00205155 -0.000549711 -0.00136519)
(0.00211584 -0.000185112 -0.00136519)
(0.00247062 0.000216151 -0.00139982)
(0.00239555 0.000641886 -0.00139982)
(0.0022477 0.00104812 -0.00139983)
(0.00203154 0.0014225 -0.00139983)
(0.00175367 0.00175367 -0.00139983)
(0.0014225 0.00203154 -0.00139983)
(0.00104812 0.0022477 -0.00139983)
(0.000641886 0.00239555 -0.00139982)
(0.000216151 0.00247062 -0.00139982)
(-0.000216151 0.00247062 -0.00139982)
(-0.000641886 0.00239555 -0.00139982)
(-0.00104812 0.0022477 -0.00139983)
(-0.0014225 0.00203154 -0.00139983)
(-0.00175367 0.00175367 -0.00139983)
(-0.00203154 0.0014225 -0.00139983)
(-0.0022477 0.00104812 -0.00139983)
(-0.00239555 0.000641886 -0.00139982)
(-0.00247062 0.000216151 -0.00139982)
(-0.00247062 -0.000216151 -0.00139982)
(-0.00239555 -0.000641886 -0.00139982)
(-0.0022477 -0.00104812 -0.00139983)
(-0.00203154 -0.0014225 -0.00139983)
(-0.00175367 -0.00175367 -0.00139983)
(-0.0014225 -0.00203154 -0.00139983)
(-0.00104812 -0.0022477 -0.00139983)
(-0.000641886 -0.00239555 -0.00139982)
(-0.000216151 -0.00247062 -0.00139982)
(0.000216151 -0.00247062 -0.00139982)
(0.000641886 -0.00239555 -0.00139982)
(0.00104812 -0.0022477 -0.00139983)
(0.0014225 -0.00203154 -0.00139983)
(0.00175367 -0.00175367 -0.00139983)
(0.00203154 -0.0014225 -0.00139983)
(0.0022477 -0.00104812 -0.00139983)
(0.00239555 -0.000641886 -0.00139982)
(0.00247062 -0.000216151 -0.00139982)
(0.0028882 0.000252685 -0.00142161)
(0.00280045 0.000750378 -0.00142161)
(0.0026276 0.00122527 -0.00142161)
(0.00237492 0.00166293 -0.00142161)
(0.00205007 0.00205007 -0.00142161)
(0.00166293 0.00237492 -0.00142161)
(0.00122527 0.0026276 -0.00142161)
(0.000750378 0.00280045 -0.00142161)
(0.000252685 0.0028882 -0.00142161)
(-0.000252685 0.0028882 -0.00142161)
(-0.000750378 0.00280045 -0.00142161)
(-0.00122527 0.0026276 -0.00142161)
(-0.00166293 0.00237492 -0.00142161)
(-0.00205007 0.00205007 -0.00142161)
(-0.00237492 0.00166293 -0.00142161)
(-0.0026276 0.00122527 -0.00142161)
(-0.00280045 0.000750378 -0.00142161)
(-0.0028882 0.000252685 -0.00142161)
(-0.0028882 -0.000252685 -0.00142161)
(-0.00280045 -0.000750378 -0.00142161)
(-0.0026276 -0.00122527 -0.00142161)
(-0.00237492 -0.00166293 -0.00142161)
(-0.00205007 -0.00205007 -0.00142161)
(-0.00166293 -0.00237492 -0.00142161)
(-0.00122527 -0.0026276 -0.00142161)
(-0.000750378 -0.00280045 -0.00142161)
(-0.000252685 -0.0028882 -0.00142161)
(0.000252685 -0.0028882 -0.00142161)
(0.000750378 -0.00280045 -0.00142161)
(0.00122527 -0.0026276 -0.00142161)
(0.00166293 -0.00237492 -0.00142161)
(0.00205007 -0.00205007 -0.00142161)
(0.00237492 -0.00166293 -0.00142161)
(0.0026276 -0.00122527 -0.00142161)
(0.00280045 -0.000750378 -0.00142161)
(0.0028882 -0.000252685 -0.00142161)
(0.00244044 0.000213511 -0.00188411)
(0.00236629 0.000634046 -0.00188411)
(0.00222024 0.00103532 -0.00188411)
(0.00200673 0.00140513 -0.00188411)
(0.00173224 0.00173224 -0.00188411)
(0.00140513 0.00200673 -0.00188411)
(0.00103532 0.00222024 -0.00188411)
(0.000634046 0.00236629 -0.00188411)
(0.000213511 0.00244044 -0.00188411)
(-0.000213511 0.00244044 -0.00188411)
(-0.000634046 0.00236629 -0.00188411)
(-0.00103532 0.00222024 -0.00188411)
(-0.00140513 0.00200673 -0.00188411)
(-0.00173224 0.00173224 -0.00188411)
(-0.00200673 0.00140513 -0.00188411)
(-0.00222024 0.00103532 -0.00188411)
(-0.00236629 0.000634046 -0.00188411)
(-0.00244044 0.000213511 -0.00188411)
(-0.00244044 -0.000213511 -0.00188411)
(-0.00236629 -0.000634046 -0.00188411)
(-0.00222024 -0.00103532 -0.00188411)
(-0.00200673 -0.00140513 -0.00188411)
(-0.00173224 -0.00173224 -0.00188411)
(-0.00140513 -0.00200673 -0.00188411)
(-0.00103532 -0.00222024 -0.00188411)
(-0.000634046 -0.00236629 -0.00188411)
(-0.000213511 -0.00244044 -0.00188411)
(0.000213511 -0.00244044 -0.00188411)
(0.000634046 -0.00236629 -0.00188411)
(0.00103532 -0.00222024 -0.00188411)
(0.00140513 -0.00200673 -0.00188411)
(0.00173224 -0.00173224 -0.00188411)
(0.00200673 -0.00140513 -0.00188411)
(0.00222024 -0.00103532 -0.00188411)
(0.00236629 -0.000634046 -0.00188411)
(0.00244044 -0.000213511 -0.00188411)
(0.00281391 0.000246185 -0.00193267)
(0.00272841 0.000731075 -0.00193267)
(0.00256001 0.00119375 -0.00193268)
(0.00231382 0.00162016 -0.00193268)
(0.00199733 0.00199733 -0.00193268)
(0.00162016 0.00231382 -0.00193268)
(0.00119375 0.00256001 -0.00193268)
(0.000731075 0.00272841 -0.00193267)
(0.000246185 0.00281391 -0.00193267)
(-0.000246185 0.00281391 -0.00193267)
(-0.000731075 0.00272841 -0.00193267)
(-0.00119375 0.00256001 -0.00193268)
(-0.00162016 0.00231382 -0.00193268)
(-0.00199733 0.00199733 -0.00193268)
(-0.00231382 0.00162016 -0.00193268)
(-0.00256001 0.00119375 -0.00193268)
(-0.00272841 0.000731075 -0.00193267)
(-0.00281391 0.000246185 -0.00193267)
(-0.00281391 -0.000246185 -0.00193267)
(-0.00272841 -0.000731075 -0.00193267)
(-0.00256001 -0.00119375 -0.00193268)
(-0.00231382 -0.00162016 -0.00193268)
(-0.00199733 -0.00199733 -0.00193268)
(-0.00162016 -0.00231382 -0.00193268)
(-0.00119375 -0.00256001 -0.00193268)
(-0.000731075 -0.00272841 -0.00193267)
(-0.000246185 -0.00281391 -0.00193267)
(0.000246185 -0.00281391 -0.00193267)
(0.000731075 -0.00272841 -0.00193267)
(0.00119375 -0.00256001 -0.00193268)
(0.00162016 -0.00231382 -0.00193268)
(0.00199733 -0.00199733 -0.00193268)
(0.00231382 -0.00162016 -0.00193268)
(0.00256001 -0.00119375 -0.00193268)
(0.00272841 -0.000731075 -0.00193267)
(0.00281391 -0.000246185 -0.00193267)
(0.00325601 0.000284864 -0.00197526)
(0.00315708 0.000845937 -0.00197526)
(0.00296222 0.00138131 -0.00197526)
(0.00267736 0.00187471 -0.00197526)
(0.00231114 0.00231114 -0.00197526)
(0.00187471 0.00267736 -0.00197526)
(0.00138131 0.00296222 -0.00197526)
(0.000845937 0.00315708 -0.00197526)
(0.000284864 0.00325601 -0.00197526)
(-0.000284864 0.00325601 -0.00197526)
(-0.000845937 0.00315708 -0.00197526)
(-0.00138131 0.00296222 -0.00197526)
(-0.00187471 0.00267736 -0.00197526)
(-0.00231114 0.00231114 -0.00197526)
(-0.00267736 0.00187471 -0.00197526)
(-0.00296222 0.00138131 -0.00197526)
(-0.00315708 0.000845937 -0.00197526)
(-0.00325601 0.000284864 -0.00197526)
(-0.00325601 -0.000284864 -0.00197526)
(-0.00315708 -0.000845937 -0.00197526)
(-0.00296222 -0.00138131 -0.00197526)
(-0.00267736 -0.00187471 -0.00197526)
(-0.00231114 -0.00231114 -0.00197526)
(-0.00187471 -0.00267736 -0.00197526)
(-0.00138131 -0.00296222 -0.00197526)
(-0.000845937 -0.00315708 -0.00197526)
(-0.000284864 -0.00325601 -0.00197526)
(0.000284864 -0.00325601 -0.00197526)
(0.000845937 -0.00315708 -0.00197526)
(0.00138131 -0.00296222 -0.00197526)
(0.00187471 -0.00267736 -0.00197526)
(0.00231114 -0.00231114 -0.00197526)
(0.00267736 -0.00187471 -0.00197526)
(0.00296222 -0.00138131 -0.00197526)
(0.00315708 -0.000845937 -0.00197526)
(0.00325601 -0.000284864 -0.00197526)
(0.00258655 0.000226294 -0.00240116)
(0.00250796 0.000672006 -0.00240116)
(0.00235317 0.0010973 -0.00240116)
(0.00212687 0.00148925 -0.00240116)
(0.00183595 0.00183595 -0.00240116)
(0.00148925 0.00212687 -0.00240116)
(0.0010973 0.00235317 -0.00240116)
(0.000672006 0.00250796 -0.00240116)
(0.000226294 0.00258655 -0.00240116)
(-0.000226294 0.00258655 -0.00240116)
(-0.000672006 0.00250796 -0.00240116)
(-0.0010973 0.00235317 -0.00240116)
(-0.00148925 0.00212687 -0.00240116)
(-0.00183595 0.00183595 -0.00240116)
(-0.00212687 0.00148925 -0.00240116)
(-0.00235317 0.0010973 -0.00240116)
(-0.00250796 0.000672006 -0.00240116)
(-0.00258655 0.000226294 -0.00240116)
(-0.00258655 -0.000226294 -0.00240116)
(-0.00250796 -0.000672006 -0.00240116)
(-0.00235317 -0.0010973 -0.00240116)
(-0.00212687 -0.00148925 -0.00240116)
(-0.00183595 -0.00183595 -0.00240116)
(-0.00148925 -0.00212687 -0.00240116)
(-0.0010973 -0.00235317 -0.00240116)
(-0.000672006 -0.00250796 -0.00240116)
(-0.000226294 -0.00258655 -0.00240116)
(0.000226294 -0.00258655 -0.00240116)
(0.000672006 -0.00250796 -0.00240116)
(0.0010973 -0.00235317 -0.00240116)
(0.00148925 -0.00212687 -0.00240116)
(0.00183595 -0.00183595 -0.00240116)
(0.00212687 -0.00148925 -0.00240116)
(0.00235317 -0.0010973 -0.00240116)
(0.00250796 -0.000672006 -0.00240116)
(0.00258655 -0.000226294 -0.00240116)
(0.00296477 0.000259384 -0.00246767)
(0.00287468 0.00077027 -0.00246767)
(0.00269726 0.00125775 -0.00246767)
(0.00243787 0.00170702 -0.00246767)
(0.00210442 0.00210442 -0.00246767)
(0.00170702 0.00243787 -0.00246767)
(0.00125775 0.00269726 -0.00246767)
(0.00077027 0.00287468 -0.00246767)
(0.000259384 0.00296477 -0.00246767)
(-0.000259384 0.00296477 -0.00246767)
(-0.00077027 0.00287468 -0.00246767)
(-0.00125775 0.00269726 -0.00246767)
(-0.00170702 0.00243787 -0.00246767)
(-0.00210442 0.00210442 -0.00246767)
(-0.00243787 0.00170702 -0.00246767)
(-0.00269726 0.00125775 -0.00246767)
(-0.00287468 0.00077027 -0.00246767)
(-0.00296477 0.000259384 -0.00246767)
(-0.00296477 -0.000259384 -0.00246767)
(-0.00287468 -0.00077027 -0.00246767)
(-0.00269726 -0.00125775 -0.00246767)
(-0.00243787 -0.00170702 -0.00246767)
(-0.00210442 -0.00210442 -0.00246767)
(-0.00170702 -0.00243787 -0.00246767)
(-0.00125775 -0.00269726 -0.00246767)
(-0.00077027 -0.00287468 -0.00246767)
(-0.000259384 -0.00296477 -0.00246767)
(0.000259384 -0.00296477 -0.00246767)
(0.00077027 -0.00287468 -0.00246767)
(0.00125775 -0.00269726 -0.00246767)
(0.00170702 -0.00243787 -0.00246767)
(0.00210442 -0.00210442 -0.00246767)
(0.00243787 -0.00170702 -0.00246767)
(0.00269726 -0.00125775 -0.00246767)
(0.00287468 -0.00077027 -0.00246767)
(0.00296477 -0.000259384 -0.00246767)
(0.00341627 0.000298885 -0.00253642)
(0.00331247 0.000887574 -0.00253642)
(0.00310802 0.0014493 -0.00253642)
(0.00280914 0.00196698 -0.00253643)
(0.0024249 0.0024249 -0.00253643)
(0.00196698 0.00280914 -0.00253643)
(0.0014493 0.00310802 -0.00253642)
(0.000887574 0.00331247 -0.00253642)
(0.000298885 0.00341627 -0.00253642)
(-0.000298885 0.00341627 -0.00253642)
(-0.000887574 0.00331247 -0.00253642)
(-0.0014493 0.00310802 -0.00253642)
(-0.00196698 0.00280914 -0.00253643)
(-0.0024249 0.0024249 -0.00253643)
(-0.00280914 0.00196698 -0.00253643)
(-0.00310802 0.0014493 -0.00253642)
(-0.00331247 0.000887574 -0.00253642)
(-0.00341627 0.000298885 -0.00253642)
(-0.00341627 -0.000298885 -0.00253642)
(-0.00331247 -0.000887574 -0.00253642)
(-0.00310802 -0.0014493 -0.00253642)
(-0.00280914 -0.00196698 -0.00253643)
(-0.0024249 -0.0024249 -0.00253643)
(-0.00196698 -0.00280914 -0.00253643)
(-0.0014493 -0.00310802 -0.00253642)
(-0.000887574 -0.00331247 -0.00253642)
(-0.000298885 -0.00341627 -0.00253642)
(0.000298885 -0.00341627 -0.00253642)
(0.000887574 -0.00331247 -0.00253642)
(0.0014493 -0.00310802 -0.00253642)
(0.00196698 -0.00280914 -0.00253643)
(0.0024249 -0.0024249 -0.00253643)
(0.00280914 -0.00196698 -0.00253643)
(0.00310802 -0.0014493 -0.00253642)
(0.00331247 -0.000887574 -0.00253642)
(0.00341627 -0.000298885 -0.00253642)
(0.00256907 0.000224764 -0.00289003)
(0.00249101 0.000667463 -0.00289003)
(0.00233726 0.00108988 -0.00289003)
(0.0021125 0.00147919 -0.00289003)
(0.00182354 0.00182354 -0.00289003)
(0.00147919 0.0021125 -0.00289003)
(0.00108988 0.00233726 -0.00289003)
(0.000667463 0.00249101 -0.00289003)
(0.000224764 0.00256907 -0.00289003)
(-0.000224764 0.00256907 -0.00289003)
(-0.000667463 0.00249101 -0.00289003)
(-0.00108988 0.00233726 -0.00289003)
(-0.00147919 0.0021125 -0.00289003)
(-0.00182354 0.00182354 -0.00289003)
(-0.0021125 0.00147919 -0.00289003)
(-0.00233726 0.00108988 -0.00289003)
(-0.00249101 0.000667463 -0.00289003)
(-0.00256907 0.000224764 -0.00289003)
(-0.00256907 -0.000224764 -0.00289003)
(-0.00249101 -0.000667463 -0.00289003)
(-0.00233726 -0.00108988 -0.00289003)
(-0.0021125 -0.00147919 -0.00289003)
(-0.00182354 -0.00182354 -0.00289003)
(-0.00147919 -0.0021125 -0.00289003)
(-0.00108988 -0.00233726 -0.00289003)
(-0.000667463 -0.00249101 -0.00289003)
(-0.000224764 -0.00256907 -0.00289003)
(0.000224764 -0.00256907 -0.00289003)
(0.000667463 -0.00249101 -0.00289003)
(0.00108988 -0.00233726 -0.00289003)
(0.00147919 -0.0021125 -0.00289003)
(0.00182354 -0.00182354 -0.00289003)
(0.0021125 -0.00147919 -0.00289003)
(0.00233726 -0.00108988 -0.00289003)
(0.00249101 -0.000667463 -0.00289003)
(0.00256907 -0.000224764 -0.00289003)
(0.0029419 0.000257383 -0.00297688)
(0.00285251 0.000764329 -0.00297688)
(0.00267645 0.00124805 -0.00297688)
(0.00241907 0.00169385 -0.00297688)
(0.00208818 0.00208818 -0.00297688)
(0.00169385 0.00241907 -0.00297688)
(0.00124805 0.00267645 -0.00297688)
(0.000764329 0.00285251 -0.00297688)
(0.000257383 0.0029419 -0.00297688)
(-0.000257383 0.0029419 -0.00297688)
(-0.000764329 0.00285251 -0.00297688)
(-0.00124805 0.00267645 -0.00297688)
(-0.00169385 0.00241907 -0.00297688)
(-0.00208818 0.00208818 -0.00297688)
(-0.00241907 0.00169385 -0.00297688)
(-0.00267645 0.00124805 -0.00297688)
(-0.00285251 0.000764329 -0.00297688)
(-0.0029419 0.000257383 -0.00297688)
(-0.0029419 -0.000257383 -0.00297688)
(-0.00285251 -0.000764329 -0.00297688)
(-0.00267645 -0.00124805 -0.00297688)
(-0.00241907 -0.00169385 -0.00297688)
(-0.00208818 -0.00208818 -0.00297688)
(-0.00169385 -0.00241907 -0.00297688)
(-0.00124805 -0.00267645 -0.00297688)
(-0.000764329 -0.00285251 -0.00297688)
(-0.000257383 -0.0029419 -0.00297688)
(0.000257383 -0.0029419 -0.00297688)
(0.000764329 -0.00285251 -0.00297688)
(0.00124805 -0.00267645 -0.00297688)
(0.00169385 -0.00241907 -0.00297688)
(0.00208818 -0.00208818 -0.00297688)
(0.00241907 -0.00169385 -0.00297688)
(0.00267645 -0.00124805 -0.00297688)
(0.00285251 -0.000764329 -0.00297688)
(0.0029419 -0.000257383 -0.00297688)
(0.00339142 0.000296712 -0.00307498)
(0.00328838 0.000881119 -0.00307498)
(0.00308541 0.00143875 -0.00307498)
(0.0027887 0.00195267 -0.00307498)
(0.00240726 0.00240726 -0.00307498)
(0.00195267 0.0027887 -0.00307498)
(0.00143875 0.00308541 -0.00307498)
(0.000881119 0.00328838 -0.00307498)
(0.000296712 0.00339142 -0.00307498)
(-0.000296712 0.00339142 -0.00307498)
(-0.000881119 0.00328838 -0.00307498)
(-0.00143875 0.00308541 -0.00307498)
(-0.00195267 0.0027887 -0.00307498)
(-0.00240726 0.00240726 -0.00307498)
(-0.0027887 0.00195267 -0.00307498)
(-0.00308541 0.00143875 -0.00307498)
(-0.00328838 0.000881119 -0.00307498)
(-0.00339142 0.000296712 -0.00307498)
(-0.00339142 -0.000296712 -0.00307498)
(-0.00328838 -0.000881119 -0.00307498)
(-0.00308541 -0.00143875 -0.00307498)
(-0.0027887 -0.00195267 -0.00307498)
(-0.00240726 -0.00240726 -0.00307498)
(-0.00195267 -0.0027887 -0.00307498)
(-0.00143875 -0.00308541 -0.00307498)
(-0.000881119 -0.00328838 -0.00307498)
(-0.000296712 -0.00339142 -0.00307498)
(0.000296712 -0.00339142 -0.00307498)
(0.000881119 -0.00328838 -0.00307498)
(0.00143875 -0.00308541 -0.00307498)
(0.00195267 -0.0027887 -0.00307498)
(0.00240726 -0.00240726 -0.00307498)
(0.0027887 -0.00195267 -0.00307498)
(0.00308541 -0.00143875 -0.00307498)
(0.00328838 -0.000881119 -0.00307498)
(0.00339142 -0.000296712 -0.00307498)
(0.00241274 0.000211087 -0.00332905)
(0.00233943 0.000626847 -0.00332905)
(0.00219503 0.00102356 -0.00332905)
(0.00198395 0.00138918 -0.00332905)
(0.00171258 0.00171258 -0.00332905)
(0.00138918 0.00198395 -0.00332905)
(0.00102356 0.00219503 -0.00332905)
(0.000626847 0.00233943 -0.00332905)
(0.000211087 0.00241274 -0.00332905)