/*--------------------------------*- C++ -*----------------------------------*\
| =========                 |                                                 |
| \\      /  F ield         | OpenFOAM: The Open Source CFD Toolbox           |
|  \\    /   O peration     | Version:  2312                                  |
|   \\  /    A nd           | Website:  www.openfoam.com                      |
|    \\/     M anipulation  |                                                 |
\*---------------------------------------------------------------------------*/
FoamFile
{
    version     2.0;
    format      ascii;
    arch        "LSB;label=32;scalar=64";
    class       volVectorField;
    location    "0.6";
    object      D_0_0_0;
}
// * * * * * * * * * * * * * * * * * * * * * * * * * * * * * * * * * * * * * //

dimensions      [0 1 0 0 0 0 0];

internalField   nonuniform List<vector> 
1620
(
(0.000254458 2.22622e-05 -0.000139792)
(0.000246726 6.61101e-05 -0.000139792)
(0.000231498 0.000107949 -0.000139792)
(0.000209236 0.000146508 -0.000139792)
(0.000180616 0.000180616 -0.000139792)
(0.000146508 0.000209236 -0.000139792)
(0.000107949 0.000231498 -0.000139792)
(6.61101e-05 0.000246726 -0.000139792)
(2.22622e-05 0.000254458 -0.000139792)
(-2.22622e-05 0.000254458 -0.000139792)
(-6.61101e-05 0.000246726 -0.000139792)
(-0.000107949 0.000231498 -0.000139792)
(-0.000146508 0.000209236 -0.000139792)
(-0.000180616 0.000180616 -0.000139792)
(-0.000209236 0.000146508 -0.000139792)
(-0.000231498 0.000107949 -0.000139792)
(-0.000246726 6.61101e-05 -0.000139792)
(-0.000254458 2.22622e-05 -0.000139792)
(-0.000254458 -2.22622e-05 -0.000139792)
(-0.000246726 -6.61101e-05 -0.000139792)
(-0.000231498 -0.000107949 -0.000139792)
(-0.000209236 -0.000146508 -0.000139792)
(-0.000180616 -0.000180616 -0.000139792)
(-0.000146508 -0.000209236 -0.000139792)
(-0.000107949 -0.000231498 -0.000139792)
(-6.61101e-05 -0.000246726 -0.000139792)
(-2.22622e-05 -0.000254458 -0.000139792)
(2.22622e-05 -0.000254458 -0.000139792)
(6.61101e-05 -0.000246726 -0.000139792)
(0.000107949 -0.000231498 -0.000139792)
(0.000146508 -0.000209236 -0.000139792)
(0.000180616 -0.000180616 -0.000139792)
(0.000209236 -0.000146508 -0.000139792)
(0.000231498 -0.000107949 -0.000139792)
(0.000246726 -6.61101e-05 -0.000139792)
(0.000254458 -2.22622e-05 -0.000139792)
(0.00039109 3.42158e-05 -0.000126871)
(0.000379207 0.000101608 -0.000126871)
(0.000355801 0.000165913 -0.000126871)
(0.000321585 0.000225176 -0.000126872)
(0.000277598 0.000277598 -0.000126872)
(0.000225176 0.000321585 -0.000126872)
(0.000165913 0.000355801 -0.000126871)
(0.000101608 0.000379207 -0.000126871)
(3.42158e-05 0.00039109 -0.000126871)
(-3.42158e-05 0.00039109 -0.000126871)
(-0.000101608 0.000379207 -0.000126871)
(-0.000165913 0.000355801 -0.000126871)
(-0.000225176 0.000321585 -0.000126872)
(-0.000277598 0.000277598 -0.000126872)
(-0.000321585 0.000225176 -0.000126872)
(-0.000355801 0.000165913 -0.000126871)
(-0.000379207 0.000101608 -0.000126871)
(-0.00039109 3.42158e-05 -0.000126871)
(-0.00039109 -3.42158e-05 -0.000126871)
(-0.000379207 -0.000101608 -0.000126871)
(-0.000355801 -0.000165913 -0.000126871)
(-0.000321585 -0.000225176 -0.000126872)
(-0.000277598 -0.000277598 -0.000126872)
(-0.000225176 -0.000321585 -0.000126872)
(-0.000165913 -0.000355801 -0.000126871)
(-0.000101608 -0.000379207 -0.000126871)
(-3.42158e-05 -0.00039109 -0.000126871)
(3.42158e-05 -0.00039109 -0.000126871)
(0.000101608 -0.000379207 -0.000126871)
(0.000165913 -0.000355801 -0.000126871)
(0.000225176 -0.000321585 -0.000126872)
(0.000277598 -0.000277598 -0.000126872)
(0.000321585 -0.000225176 -0.000126872)
(0.000355801 -0.000165913 -0.000126871)
(0.000379207 -0.000101608 -0.000126871)
(0.00039109 -3.42158e-05 -0.000126871)
(0.00056153 4.91273e-05 -9.87292e-05)
(0.000544468 0.000145889 -9.87294e-05)
(0.000510863 0.000238219 -9.87295e-05)
(0.000461735 0.00032331 -9.87292e-05)
(0.000398578 0.000398578 -9.87296e-05)
(0.00032331 0.000461735 -9.87292e-05)
(0.000238219 0.000510863 -9.87295e-05)
(0.000145889 0.000544468 -9.87294e-05)
(4.91273e-05 0.00056153 -9.87292e-05)
(-4.91273e-05 0.00056153 -9.87292e-05)
(-0.000145889 0.000544468 -9.87294e-05)
(-0.000238219 0.000510863 -9.87295e-05)
(-0.00032331 0.000461735 -9.87292e-05)
(-0.000398578 0.000398578 -9.87296e-05)
(-0.000461735 0.00032331 -9.87292e-05)
(-0.000510863 0.000238219 -9.87295e-05)
(-0.000544468 0.000145889 -9.87294e-05)
(-0.00056153 4.91273e-05 -9.87292e-05)
(-0.00056153 -4.91273e-05 -9.87292e-05)
(-0.000544468 -0.000145889 -9.87294e-05)
(-0.000510863 -0.000238219 -9.87295e-05)
(-0.000461735 -0.00032331 -9.87292e-05)
(-0.000398578 -0.000398578 -9.87296e-05)
(-0.00032331 -0.000461735 -9.87292e-05)
(-0.000238219 -0.000510863 -9.87295e-05)
(-0.000145889 -0.000544468 -9.87294e-05)
(-4.91273e-05 -0.00056153 -9.87292e-05)
(4.91273e-05 -0.00056153 -9.87292e-05)
(0.000145889 -0.000544468 -9.87294e-05)
(0.000238219 -0.000510863 -9.87295e-05)
(0.00032331 -0.000461735 -9.87292e-05)
(0.000398578 -0.000398578 -9.87296e-05)
(0.000461735 -0.00032331 -9.87292e-05)
(0.000510863 -0.000238219 -9.87295e-05)
(0.000544468 -0.000145889 -9.87294e-05)
(0.00056153 -4.91273e-05 -9.87292e-05)
(0.000915095 8.00604e-05 -0.000421298)
(0.00088729 0.000237749 -0.000421298)
(0.000832526 0.000388213 -0.000421299)
(0.000752464 0.00052688 -0.000421299)
(0.00064954 0.00064954 -0.000421299)
(0.00052688 0.000752464 -0.000421299)
(0.000388213 0.000832526 -0.000421299)
(0.000237749 0.00088729 -0.000421298)
(8.00604e-05 0.000915095 -0.000421298)
(-8.00604e-05 0.000915095 -0.000421298)
(-0.000237749 0.00088729 -0.000421298)
(-0.000388213 0.000832526 -0.000421299)
(-0.00052688 0.000752464 -0.000421299)
(-0.00064954 0.00064954 -0.000421299)
(-0.000752464 0.00052688 -0.000421299)
(-0.000832526 0.000388213 -0.000421299)
(-0.00088729 0.000237749 -0.000421298)
(-0.000915095 8.00604e-05 -0.000421298)
(-0.000915095 -8.00604e-05 -0.000421298)
(-0.00088729 -0.000237749 -0.000421298)
(-0.000832526 -0.000388213 -0.000421299)
(-0.000752464 -0.00052688 -0.000421299)
(-0.00064954 -0.00064954 -0.000421299)
(-0.00052688 -0.000752464 -0.000421299)
(-0.000388213 -0.000832526 -0.000421299)
(-0.000237749 -0.00088729 -0.000421298)
(-8.00604e-05 -0.000915095 -0.000421298)
(8.00604e-05 -0.000915095 -0.000421298)
(0.000237749 -0.00088729 -0.000421298)
(0.000388213 -0.000832526 -0.000421299)
(0.00052688 -0.000752464 -0.000421299)
(0.00064954 -0.00064954 -0.000421299)
(0.000752464 -0.00052688 -0.000421299)
(0.000832526 -0.000388213 -0.000421299)
(0.00088729 -0.000237749 -0.000421298)
(0.000915095 -8.00604e-05 -0.000421298)
(0.00114896 0.000100521 -0.000434915)
(0.00111405 0.000298508 -0.000434915)
(0.00104529 0.000487425 -0.000434915)
(0.000944767 0.000661532 -0.000434916)
(0.00081554 0.00081554 -0.000434916)
(0.000661532 0.000944767 -0.000434916)
(0.000487425 0.00104529 -0.000434915)
(0.000298508 0.00111405 -0.000434915)
(0.000100521 0.00114896 -0.000434915)
(-0.000100521 0.00114896 -0.000434915)
(-0.000298508 0.00111405 -0.000434915)
(-0.000487425 0.00104529 -0.000434915)
(-0.000661532 0.000944767 -0.000434916)
(-0.00081554 0.00081554 -0.000434916)
(-0.000944767 0.000661532 -0.000434916)
(-0.00104529 0.000487425 -0.000434915)
(-0.00111405 0.000298508 -0.000434915)
(-0.00114896 0.000100521 -0.000434915)
(-0.00114896 -0.000100521 -0.000434915)
(-0.00111405 -0.000298508 -0.000434915)
(-0.00104529 -0.000487425 -0.000434915)
(-0.000944767 -0.000661532 -0.000434916)
(-0.00081554 -0.00081554 -0.000434916)
(-0.000661532 -0.000944767 -0.000434916)
(-0.000487425 -0.00104529 -0.000434915)
(-0.000298508 -0.00111405 -0.000434915)
(-0.000100521 -0.00114896 -0.000434915)
(0.000100521 -0.00114896 -0.000434915)
(0.000298508 -0.00111405 -0.000434915)
(0.000487425 -0.00104529 -0.000434915)
(0.000661532 -0.000944767 -0.000434916)
(0.00081554 -0.00081554 -0.000434916)
(0.000944767 -0.000661532 -0.000434916)
(0.00104529 -0.000487425 -0.000434915)
(0.00111405 -0.000298508 -0.000434915)
(0.00114896 -0.000100521 -0.000434915)
(0.0014321 0.000125293 -0.000430472)
(0.00138859 0.00037207 -0.000430472)
(0.00130288 0.000607542 -0.000430472)
(0.00117759 0.000824555 -0.000430471)
(0.00101651 0.00101651 -0.000430471)
(0.000824555 0.00117759 -0.000430471)
(0.000607542 0.00130288 -0.000430472)
(0.00037207 0.00138859 -0.000430472)
(0.000125293 0.0014321 -0.000430472)
(-0.000125293 0.0014321 -0.000430472)
(-0.00037207 0.00138859 -0.000430472)
(-0.000607542 0.00130288 -0.000430472)
(-0.000824555 0.00117759 -0.000430471)
(-0.00101651 0.00101651 -0.000430471)
(-0.00117759 0.000824555 -0.000430471)
(-0.00130288 0.000607542 -0.000430472)
(-0.00138859 0.00037207 -0.000430472)
(-0.0014321 0.000125293 -0.000430472)
(-0.0014321 -0.000125293 -0.000430472)
(-0.00138859 -0.00037207 -0.000430472)
(-0.00130288 -0.000607542 -0.000430472)
(-0.00117759 -0.000824555 -0.000430471)
(-0.00101651 -0.00101651 -0.000430471)
(-0.000824555 -0.00117759 -0.000430471)
(-0.000607542 -0.00130288 -0.000430472)
(-0.00037207 -0.00138859 -0.000430472)
(-0.000125293 -0.0014321 -0.000430472)
(0.000125293 -0.0014321 -0.000430472)
(0.00037207 -0.00138859 -0.000430472)
(0.000607542 -0.00130288 -0.000430472)
(0.000824555 -0.00117759 -0.000430471)
(0.00101651 -0.00101651 -0.000430471)
(0.00117759 -0.000824555 -0.000430471)
(0.00130288 -0.000607542 -0.000430472)
(0.00138859 -0.00037207 -0.000430472)
(0.0014321 -0.000125293 -0.000430472)
(0.00151242 0.000132319 -0.000810455)
(0.00146646 0.000392937 -0.000810455)
(0.00137595 0.000641616 -0.000810456)
(0.00124363 0.000870799 -0.000810456)
(0.00107352 0.00107352 -0.000810456)
(0.000870799 0.00124363 -0.000810456)
(0.000641616 0.00137595 -0.000810456)
(0.000392937 0.00146646 -0.000810455)
(0.000132319 0.00151242 -0.000810455)
(-0.000132319 0.00151242 -0.000810455)
(-0.000392937 0.00146646 -0.000810455)
(-0.000641616 0.00137595 -0.000810456)
(-0.000870799 0.00124363 -0.000810456)
(-0.00107352 0.00107352 -0.000810456)
(-0.00124363 0.000870799 -0.000810456)
(-0.00137595 0.000641616 -0.000810456)
(-0.00146646 0.000392937 -0.000810455)
(-0.00151242 0.000132319 -0.000810455)
(-0.00151242 -0.000132319 -0.000810455)
(-0.00146646 -0.000392937 -0.000810455)
(-0.00137595 -0.000641616 -0.000810456)
(-0.00124363 -0.000870799 -0.000810456)
(-0.00107352 -0.00107352 -0.000810456)
(-0.000870799 -0.00124363 -0.000810456)
(-0.000641616 -0.00137595 -0.000810456)
(-0.000392937 -0.00146646 -0.000810455)
(-0.000132319 -0.00151242 -0.000810455)
(0.000132319 -0.00151242 -0.000810455)
(0.000392937 -0.00146646 -0.000810455)
(0.000641616 -0.00137595 -0.000810456)
(0.000870799 -0.00124363 -0.000810456)
(0.00107352 -0.00107352 -0.000810456)
(0.00124363 -0.000870799 -0.000810456)
(0.00137595 -0.000641616 -0.000810456)
(0.00146646 -0.000392937 -0.000810455)
(0.00151242 -0.000132319 -0.000810455)
(0.00181331 0.000158644 -0.000837669)
(0.00175822 0.000471112 -0.000837669)
(0.0016497 0.000769266 -0.000837669)
(0.00149105 0.00104404 -0.00083767)
(0.0012871 0.0012871 -0.00083767)
(0.00104404 0.00149105 -0.00083767)
(0.000769266 0.0016497 -0.000837669)
(0.000471112 0.00175822 -0.000837669)
(0.000158644 0.00181331 -0.000837669)
(-0.000158644 0.00181331 -0.000837669)
(-0.000471112 0.00175822 -0.000837669)
(-0.000769266 0.0016497 -0.000837669)
(-0.00104404 0.00149105 -0.00083767)
(-0.0012871 0.0012871 -0.00083767)
(-0.00149105 0.00104404 -0.00083767)
(-0.0016497 0.000769266 -0.000837669)
(-0.00175822 0.000471112 -0.000837669)
(-0.00181331 0.000158644 -0.000837669)
(-0.00181331 -0.000158644 -0.000837669)
(-0.00175822 -0.000471112 -0.000837669)
(-0.0016497 -0.000769266 -0.000837669)
(-0.00149105 -0.00104404 -0.00083767)
(-0.0012871 -0.0012871 -0.00083767)
(-0.00104404 -0.00149105 -0.00083767)
(-0.000769266 -0.0016497 -0.000837669)
(-0.000471112 -0.00175822 -0.000837669)
(-0.000158644 -0.00181331 -0.000837669)
(0.000158644 -0.00181331 -0.000837669)
(0.000471112 -0.00175822 -0.000837669)
(0.000769266 -0.0016497 -0.000837669)
(0.00104404 -0.00149105 -0.00083767)
(0.0012871 -0.0012871 -0.00083767)
(0.00149105 -0.00104404 -0.00083767)
(0.0016497 -0.000769266 -0.000837669)
(0.00175822 -0.000471112 -0.000837669)
(0.00181331 -0.000158644 -0.000837669)
(0.00217026 0.000189873 -0.000848324)
(0.00210432 0.00056385 -0.000848324)
(0.00197444 0.000920693 -0.000848325)
(0.00178456 0.00124956 -0.000848325)
(0.00154047 0.00154047 -0.000848326)
(0.00124956 0.00178456 -0.000848325)
(0.000920693 0.00197444 -0.000848325)
(0.00056385 0.00210432 -0.000848324)
(0.000189873 0.00217026 -0.000848324)
(-0.000189873 0.00217026 -0.000848324)
(-0.00056385 0.00210432 -0.000848324)
(-0.000920693 0.00197444 -0.000848325)
(-0.00124956 0.00178456 -0.000848325)
(-0.00154047 0.00154047 -0.000848326)
(-0.00178456 0.00124956 -0.000848325)
(-0.00197444 0.000920693 -0.000848325)
(-0.00210432 0.00056385 -0.000848324)
(-0.00217026 0.000189873 -0.000848324)
(-0.00217026 -0.000189873 -0.000848324)
(-0.00210432 -0.00056385 -0.000848324)
(-0.00197444 -0.000920693 -0.000848325)
(-0.00178456 -0.00124956 -0.000848325)
(-0.00154047 -0.00154047 -0.000848326)
(-0.00124956 -0.00178456 -0.000848325)
(-0.000920693 -0.00197444 -0.000848325)
(-0.00056385 -0.00210432 -0.000848324)
(-0.000189873 -0.00217026 -0.000848324)
(0.000189873 -0.00217026 -0.000848324)
(0.00056385 -0.00210432 -0.000848324)
(0.000920693 -0.00197444 -0.000848325)
(0.00124956 -0.00178456 -0.000848325)
(0.00154047 -0.00154047 -0.000848326)
(0.00178456 -0.00124956 -0.000848325)
(0.00197444 -0.000920693 -0.000848325)
(0.00210432 -0.00056385 -0.000848324)
(0.00217026 -0.000189873 -0.000848324)
(0.00198218 0.000173418 -0.00126528)
(0.00192195 0.000514986 -0.00126529)
(0.00180333 0.000840906 -0.00126529)
(0.00162991 0.00114128 -0.00126529)
(0.00140697 0.00140697 -0.00126529)
(0.00114128 0.00162991 -0.00126529)
(0.000840906 0.00180333 -0.00126529)
(0.000514986 0.00192195 -0.00126529)
(0.000173418 0.00198218 -0.00126528)
(-0.000173418 0.00198218 -0.00126528)
(-0.000514986 0.00192195 -0.00126529)
(-0.000840906 0.00180333 -0.00126529)
(-0.00114128 0.00162991 -0.00126529)
(-0.00140697 0.00140697 -0.00126529)
(-0.00162991 0.00114128 -0.00126529)
(-0.00180333 0.000840906 -0.00126529)
(-0.00192195 0.000514986 -0.00126529)
(-0.00198218 0.000173418 -0.00126528)
(-0.00198218 -0.000173418 -0.00126528)
(-0.00192195 -0.000514986 -0.00126529)
(-0.00180333 -0.000840906 -0.00126529)
(-0.00162991 -0.00114128 -0.00126529)
(-0.00140697 -0.00140697 -0.00126529)
(-0.00114128 -0.00162991 -0.00126529)
(-0.000840906 -0.00180333 -0.00126529)
(-0.000514986 -0.00192195 -0.00126529)
(-0.000173418 -0.00198218 -0.00126528)
(0.000173418 -0.00198218 -0.00126528)
(0.000514986 -0.00192195 -0.00126529)
(0.000840906 -0.00180333 -0.00126529)
(0.00114128 -0.00162991 -0.00126529)
(0.00140697 -0.00140697 -0.00126529)
(0.00162991 -0.00114128 -0.00126529)
(0.00180333 -0.000840906 -0.00126529)
(0.00192195 -0.000514986 -0.00126529)
(0.00198218 -0.000173418 -0.00126528)
(0.00232055 0.000203021 -0.00130289)
(0.00225004 0.000602895 -0.00130289)
(0.00211116 0.000984451 -0.00130289)
(0.00190814 0.00133609 -0.00130289)
(0.00164714 0.00164714 -0.00130289)
(0.00133609 0.00190814 -0.00130289)
(0.000984451 0.00211116 -0.00130289)
(0.000602895 0.00225004 -0.00130289)
(0.000203021 0.00232055 -0.00130289)
(-0.000203021 0.00232055 -0.00130289)
(-0.000602895 0.00225004 -0.00130289)
(-0.000984451 0.00211116 -0.00130289)
(-0.00133609 0.00190814 -0.00130289)
(-0.00164714 0.00164714 -0.00130289)
(-0.00190814 0.00133609 -0.00130289)
(-0.00211116 0.000984451 -0.00130289)
(-0.00225004 0.000602895 -0.00130289)
(-0.00232055 0.000203021 -0.00130289)
(-0.00232055 -0.000203021 -0.00130289)
(-0.00225004 -0.000602895 -0.00130289)
(-0.00211116 -0.000984451 -0.00130289)
(-0.00190814 -0.00133609 -0.00130289)
(-0.00164714 -0.00164714 -0.00130289)
(-0.00133609 -0.00190814 -0.00130289)
(-0.000984451 -0.00211116 -0.00130289)
(-0.000602895 -0.00225004 -0.00130289)
(-0.000203021 -0.00232055 -0.00130289)
(0.000203021 -0.00232055 -0.00130289)
(0.000602895 -0.00225004 -0.00130289)
(0.000984451 -0.00211116 -0.00130289)
(0.00133609 -0.00190814 -0.00130289)
(0.00164714 -0.00164714 -0.00130289)
(0.00190814 -0.00133609 -0.00130289)
(0.00211116 -0.000984451 -0.00130289)
(0.00225004 -0.000602895 -0.00130289)
(0.00232055 -0.000203021 -0.00130289)
(0.00272116 0.000238071 -0.00132848)
(0.00263848 0.000706979 -0.00132848)
(0.00247563 0.00115441 -0.00132848)
(0.00223756 0.00156676 -0.00132848)
(0.0019315 0.0019315 -0.00132848)
(0.00156676 0.00223756 -0.00132848)
(0.00115441 0.00247563 -0.00132848)
(0.000706979 0.00263848 -0.00132848)
(0.000238071 0.00272116 -0.00132848)
(-0.000238071 0.00272116 -0.00132848)
(-0.000706979 0.00263848 -0.00132848)
(-0.00115441 0.00247563 -0.00132848)
(-0.00156676 0.00223756 -0.00132848)
(-0.0019315 0.0019315 -0.00132848)
(-0.00223756 0.00156676 -0.00132848)
(-0.00247563 0.00115441 -0.00132848)
(-0.00263848 0.000706979 -0.00132848)
(-0.00272116 0.000238071 -0.00132848)
(-0.00272116 -0.000238071 -0.00132848)
(-0.00263848 -0.000706979 -0.00132848)
(-0.00247563 -0.00115441 -0.00132848)
(-0.00223756 -0.00156676 -0.00132848)
(-0.0019315 -0.0019315 -0.00132848)
(-0.00156676 -0.00223756 -0.00132848)
(-0.00115441 -0.00247563 -0.00132848)
(-0.000706979 -0.00263848 -0.00132848)
(-0.000238071 -0.00272116 -0.00132848)
(0.000238071 -0.00272116 -0.00132848)
(0.000706979 -0.00263848 -0.00132848)
(0.00115441 -0.00247563 -0.00132848)
(0.00156676 -0.00223756 -0.00132848)
(0.0019315 -0.0019315 -0.00132848)
(0.00223756 -0.00156676 -0.00132848)
(0.00247563 -0.00115441 -0.00132848)
(0.00263848 -0.000706979 -0.00132848)
(0.00272116 -0.000238071 -0.00132848)
(0.00228931 0.000200289 -0.00174813)
(0.00221975 0.00059478 -0.00174813)
(0.00208274 0.000971199 -0.00174813)
(0.00188245 0.00131811 -0.00174813)
(0.00162497 0.00162497 -0.00174813)
(0.00131811 0.00188245 -0.00174813)
(0.000971199 0.00208274 -0.00174813)
(0.00059478 0.00221975 -0.00174813)
(0.000200289 0.00228931 -0.00174813)
(-0.000200289 0.00228931 -0.00174813)
(-0.00059478 0.00221975 -0.00174813)
(-0.000971199 0.00208274 -0.00174813)
(-0.00131811 0.00188245 -0.00174813)
(-0.00162497 0.00162497 -0.00174813)
(-0.00188245 0.00131811 -0.00174813)
(-0.00208274 0.000971199 -0.00174813)
(-0.00221975 0.00059478 -0.00174813)
(-0.00228931 0.000200289 -0.00174813)
(-0.00228931 -0.000200289 -0.00174813)
(-0.00221975 -0.00059478 -0.00174813)
(-0.00208274 -0.000971199 -0.00174813)
(-0.00188245 -0.00131811 -0.00174813)
(-0.00162497 -0.00162497 -0.00174813)
(-0.00131811 -0.00188245 -0.00174813)
(-0.000971199 -0.00208274 -0.00174813)
(-0.00059478 -0.00221975 -0.00174813)
(-0.000200289 -0.00228931 -0.00174813)
(0.000200289 -0.00228931 -0.00174813)
(0.00059478 -0.00221975 -0.00174813)
(0.000971199 -0.00208274 -0.00174813)
(0.00131811 -0.00188245 -0.00174813)
(0.00162497 -0.00162497 -0.00174813)
(0.00188245 -0.00131811 -0.00174813)
(0.00208274 -0.000971199 -0.00174813)
(0.00221975 -0.00059478 -0.00174813)
(0.00228931 -0.000200289 -0.00174813)
(0.00264543 0.000231445 -0.0017987)
(0.00256505 0.000687303 -0.0017987)
(0.00240673 0.00112228 -0.0017987)
(0.00217529 0.00152315 -0.0017987)
(0.00187775 0.00187775 -0.0017987)
(0.00152315 0.00217529 -0.0017987)
(0.00112228 0.00240673 -0.0017987)
(0.000687303 0.00256505 -0.0017987)
(0.000231445 0.00264543 -0.0017987)
(-0.000231445 0.00264543 -0.0017987)
(-0.000687303 0.00256505 -0.0017987)
(-0.00112228 0.00240673 -0.0017987)
(-0.00152315 0.00217529 -0.0017987)
(-0.00187775 0.00187775 -0.0017987)
(-0.00217529 0.00152315 -0.0017987)
(-0.00240673 0.00112228 -0.0017987)
(-0.00256505 0.000687303 -0.0017987)
(-0.00264543 0.000231445 -0.0017987)
(-0.00264543 -0.000231445 -0.0017987)
(-0.00256505 -0.000687303 -0.0017987)
(-0.00240673 -0.00112228 -0.0017987)
(-0.00217529 -0.00152315 -0.0017987)
(-0.00187775 -0.00187775 -0.0017987)
(-0.00152315 -0.00217529 -0.0017987)
(-0.00112228 -0.00240673 -0.0017987)
(-0.000687303 -0.00256505 -0.0017987)
(-0.000231445 -0.00264543 -0.0017987)
(0.000231445 -0.00264543 -0.0017987)
(0.000687303 -0.00256505 -0.0017987)
(0.00112228 -0.00240673 -0.0017987)
(0.00152315 -0.00217529 -0.0017987)
(0.00187775 -0.00187775 -0.0017987)
(0.00217529 -0.00152315 -0.0017987)
(0.00240673 -0.00112228 -0.0017987)
(0.00256505 -0.000687303 -0.0017987)
(0.00264543 -0.000231445 -0.0017987)
(0.00306962 0.000268557 -0.00184392)
(0.00297635 0.000797512 -0.00184392)
(0.00279265 0.00130223 -0.00184392)
(0.00252409 0.00176739 -0.00184392)
(0.00217884 0.00217884 -0.00184392)
(0.00176739 0.00252409 -0.00184392)
(0.00130223 0.00279265 -0.00184392)
(0.000797512 0.00297635 -0.00184392)
(0.000268557 0.00306962 -0.00184392)
(-0.000268557 0.00306962 -0.00184392)
(-0.000797512 0.00297635 -0.00184392)
(-0.00130223 0.00279265 -0.00184392)
(-0.00176739 0.00252409 -0.00184392)
(-0.00217884 0.00217884 -0.00184392)
(-0.00252409 0.00176739 -0.00184392)
(-0.00279265 0.00130223 -0.00184392)
(-0.00297635 0.000797512 -0.00184392)
(-0.00306962 0.000268557 -0.00184392)
(-0.00306962 -0.000268557 -0.00184392)
(-0.00297635 -0.000797512 -0.00184392)
(-0.00279265 -0.00130223 -0.00184392)
(-0.00252409 -0.00176739 -0.00184392)
(-0.00217884 -0.00217884 -0.00184392)
(-0.00176739 -0.00252409 -0.00184392)
(-0.00130223 -0.00279265 -0.00184392)
(-0.000797512 -0.00297635 -0.00184392)
(-0.000268557 -0.00306962 -0.00184392)
(0.000268557 -0.00306962 -0.00184392)
(0.000797512 -0.00297635 -0.00184392)
(0.00130223 -0.00279265 -0.00184392)
(0.00176739 -0.00252409 -0.00184392)
(0.00217884 -0.00217884 -0.00184392)
(0.00252409 -0.00176739 -0.00184392)
(0.00279265 -0.00130223 -0.00184392)
(0.00297635 -0.000797512 -0.00184392)
(0.00306962 -0.000268557 -0.00184392)
(0.00242815 0.000212436 -0.0022278)
(0.00235438 0.000630853 -0.0022278)
(0.00220906 0.0010301 -0.0022278)
(0.00199662 0.00139805 -0.0022278)
(0.00172352 0.00172352 -0.0022278)
(0.00139805 0.00199662 -0.0022278)
(0.0010301 0.00220906 -0.0022278)
(0.000630853 0.00235438 -0.0022278)
(0.000212436 0.00242815 -0.0022278)
(-0.000212436 0.00242815 -0.0022278)
(-0.000630853 0.00235438 -0.0022278)
(-0.0010301 0.00220906 -0.0022278)
(-0.00139805 0.00199662 -0.0022278)
(-0.00172352 0.00172352 -0.0022278)
(-0.00199662 0.00139805 -0.0022278)
(-0.00220906 0.0010301 -0.0022278)
(-0.00235438 0.000630853 -0.0022278)
(-0.00242815 0.000212436 -0.0022278)
(-0.00242815 -0.000212436 -0.0022278)
(-0.00235438 -0.000630853 -0.0022278)
(-0.00220906 -0.0010301 -0.0022278)
(-0.00199662 -0.00139805 -0.0022278)
(-0.00172352 -0.00172352 -0.0022278)
(-0.00139805 -0.00199662 -0.0022278)
(-0.0010301 -0.00220906 -0.0022278)
(-0.000630853 -0.00235438 -0.0022278)
(-0.000212436 -0.00242815 -0.0022278)
(0.000212436 -0.00242815 -0.0022278)
(0.000630853 -0.00235438 -0.0022278)
(0.0010301 -0.00220906 -0.0022278)
(0.00139805 -0.00199662 -0.0022278)
(0.00172352 -0.00172352 -0.0022278)
(0.00199662 -0.00139805 -0.0022278)
(0.00220906 -0.0010301 -0.0022278)
(0.00235438 -0.000630853 -0.0022278)
(0.00242815 -0.000212436 -0.0022278)
(0.0027884 0.000243954 -0.00229504)
(0.00270368 0.000724449 -0.00229504)
(0.0025368 0.00118293 -0.00229504)
(0.00229285 0.00160547 -0.00229504)
(0.00197923 0.00197923 -0.00229504)
(0.00160547 0.00229285 -0.00229504)
(0.00118293 0.0025368 -0.00229504)
(0.000724449 0.00270368 -0.00229504)
(0.000243954 0.0027884 -0.00229504)
(-0.000243954 0.0027884 -0.00229504)
(-0.000724449 0.00270368 -0.00229504)
(-0.00118293 0.0025368 -0.00229504)
(-0.00160547 0.00229285 -0.00229504)
(-0.00197923 0.00197923 -0.00229504)
(-0.00229285 0.00160547 -0.00229504)
(-0.0025368 0.00118293 -0.00229504)
(-0.00270368 0.000724449 -0.00229504)
(-0.0027884 0.000243954 -0.00229504)
(-0.0027884 -0.000243954 -0.00229504)
(-0.00270368 -0.000724449 -0.00229504)
(-0.0025368 -0.00118293 -0.00229504)
(-0.00229285 -0.00160547 -0.00229504)
(-0.00197923 -0.00197923 -0.00229504)
(-0.00160547 -0.00229285 -0.00229504)
(-0.00118293 -0.0025368 -0.00229504)
(-0.000724449 -0.00270368 -0.00229504)
(-0.000243954 -0.0027884 -0.00229504)
(0.000243954 -0.0027884 -0.00229504)
(0.000724449 -0.00270368 -0.00229504)
(0.00118293 -0.0025368 -0.00229504)
(0.00160547 -0.00229285 -0.00229504)
(0.00197923 -0.00197923 -0.00229504)
(0.00229285 -0.00160547 -0.00229504)
(0.0025368 -0.00118293 -0.00229504)
(0.00270368 -0.000724449 -0.00229504)
(0.0027884 -0.000243954 -0.00229504)
(0.00322142 0.000281838 -0.00236499)
(0.00312354 0.00083695 -0.00236499)
(0.00293075 0.00136663 -0.00236499)
(0.00264891 0.00185479 -0.00236499)
(0.00228659 0.00228659 -0.00236499)
(0.00185479 0.00264891 -0.00236499)
(0.00136663 0.00293075 -0.00236499)
(0.00083695 0.00312354 -0.00236499)
(0.000281838 0.00322142 -0.00236499)
(-0.000281838 0.00322142 -0.00236499)
(-0.00083695 0.00312354 -0.00236499)
(-0.00136663 0.00293075 -0.00236499)
(-0.00185479 0.00264891 -0.00236499)
(-0.00228659 0.00228659 -0.00236499)
(-0.00264891 0.00185479 -0.00236499)
(-0.00293075 0.00136663 -0.00236499)
(-0.00312354 0.00083695 -0.00236499)
(-0.00322142 0.000281838 -0.00236499)
(-0.00322142 -0.000281838 -0.00236499)
(-0.00312354 -0.00083695 -0.00236499)
(-0.00293075 -0.00136663 -0.00236499)
(-0.00264891 -0.00185479 -0.00236499)
(-0.00228659 -0.00228659 -0.00236499)
(-0.00185479 -0.00264891 -0.00236499)
(-0.00136663 -0.00293075 -0.00236499)
(-0.00083695 -0.00312354 -0.00236499)
(-0.000281838 -0.00322142 -0.00236499)
(0.000281838 -0.00322142 -0.00236499)
(0.00083695 -0.00312354 -0.00236499)
(0.00136663 -0.00293075 -0.00236499)
(0.00185479 -0.00264891 -0.00236499)
(0.00228659 -0.00228659 -0.00236499)
(0.00264891 -0.00185479 -0.00236499)
(0.00293075 -0.00136663 -0.00236499)
(0.00312354 -0.00083695 -0.00236499)
(0.00322142 -0.000281838 -0.00236499)
(0.00241136 0.000210967 -0.00267903)
(0.00233809 0.00062649 -0.00267903)
(0.00219378 0.00102298 -0.00267903)
(0.00198282 0.00138838 -0.00267904)
(0.0017116 0.0017116 -0.00267903)
(0.00138838 0.00198282 -0.00267904)
(0.00102298 0.00219378 -0.00267903)
(0.00062649 0.00233809 -0.00267903)
(0.000210967 0.00241136 -0.00267903)
(-0.000210967 0.00241136 -0.00267903)
(-0.00062649 0.00233809 -0.00267903)
(-0.00102298 0.00219378 -0.00267903)
(-0.00138838 0.00198282 -0.00267904)
(-0.0017116 0.0017116 -0.00267903)
(-0.00198282 0.00138838 -0.00267904)
(-0.00219378 0.00102298 -0.00267903)
(-0.00233809 0.00062649 -0.00267903)
(-0.00241136 0.000210967 -0.00267903)
(-0.00241136 -0.000210967 -0.00267903)
(-0.00233809 -0.00062649 -0.00267903)
(-0.00219378 -0.00102298 -0.00267903)
(-0.00198282 -0.00138838 -0.00267904)
(-0.0017116 -0.0017116 -0.00267903)
(-0.00138838 -0.00198282 -0.00267904)
(-0.00102298 -0.00219378 -0.00267903)
(-0.00062649 -0.00233809 -0.00267903)
(-0.000210967 -0.00241136 -0.00267903)
(0.000210967 -0.00241136 -0.00267903)
(0.00062649 -0.00233809 -0.00267903)
(0.00102298 -0.00219378 -0.00267903)
(0.00138838 -0.00198282 -0.00267904)
(0.0017116 -0.0017116 -0.00267903)
(0.00198282 -0.00138838 -0.00267904)
(0.00219378 -0.00102298 -0.00267903)
(0.00233809 -0.00062649 -0.00267903)
(0.00241136 -0.000210967 -0.00267903)
(0.0027658 0.000241977 -0.00276528)
(0.00268177 0.000718578 -0.00276528)
(0.00251625 0.00117335 -0.00276528)
(0.00227427 0.00159246 -0.00276528)
(0.00196319 0.00196319 -0.00276528)
(0.00159246 0.00227427 -0.00276528)
(0.00117335 0.00251625 -0.00276528)
(0.000718578 0.00268177 -0.00276528)
(0.000241977 0.0027658 -0.00276528)
(-0.000241977 0.0027658 -0.00276528)
(-0.000718578 0.00268177 -0.00276528)
(-0.00117335 0.00251625 -0.00276528)
(-0.00159246 0.00227427 -0.00276528)
(-0.00196319 0.00196319 -0.00276528)
(-0.00227427 0.00159246 -0.00276528)
(-0.00251625 0.00117335 -0.00276528)
(-0.00268177 0.000718578 -0.00276528)
(-0.0027658 0.000241977 -0.00276528)
(-0.0027658 -0.000241977 -0.00276528)
(-0.00268177 -0.000718578 -0.00276528)
(-0.00251625 -0.00117335 -0.00276528)
(-0.00227427 -0.00159246 -0.00276528)
(-0.00196319 -0.00196319 -0.00276528)
(-0.00159246 -0.00227427 -0.00276528)
(-0.00117335 -0.00251625 -0.00276528)
(-0.000718578 -0.00268177 -0.00276528)
(-0.000241977 -0.0027658 -0.00276528)
(0.000241977 -0.0027658 -0.00276528)
(0.000718578 -0.00268177 -0.00276528)
(0.00117335 -0.00251625 -0.00276528)
(0.00159246 -0.00227427 -0.00276528)
(0.00196319 -0.00196319 -0.00276528)
(0.00227427 -0.00159246 -0.00276528)
(0.00251625 -0.00117335 -0.00276528)
(0.00268177 -0.000718578 -0.00276528)
(0.0027658 -0.000241977 -0.00276528)
(0.00319642 0.000279652 -0.00286313)
(0.0030993 0.000830456 -0.00286313)
(0.00290801 0.00135603 -0.00286313)
(0.00262836 0.0018404 -0.00286313)
(0.00226885 0.00226885 -0.00286313)
(0.0018404 0.00262836 -0.00286313)
(0.00135603 0.00290801 -0.00286313)
(0.000830456 0.0030993 -0.00286313)
(0.000279652 0.00319642 -0.00286313)
(-0.000279652 0.00319642 -0.00286313)
(-0.000830456 0.0030993 -0.00286313)
(-0.00135603 0.00290801 -0.00286313)
(-0.0018404 0.00262836 -0.00286313)
(-0.00226885 0.00226885 -0.00286313)
(-0.00262836 0.0018404 -0.00286313)
(-0.00290801 0.00135603 -0.00286313)
(-0.0030993 0.000830456 -0.00286313)
(-0.00319642 0.000279652 -0.00286313)
(-0.00319642 -0.000279652 -0.00286313)
(-0.0030993 -0.000830456 -0.00286313)
(-0.00290801 -0.00135603 -0.00286313)
(-0.00262836 -0.0018404 -0.00286313)
(-0.00226885 -0.00226885 -0.00286313)
(-0.0018404 -0.00262836 -0.00286313)
(-0.00135603 -0.00290801 -0.00286313)
(-0.000830456 -0.0030993 -0.00286313)
(-0.000279652 -0.00319642 -0.00286313)
(0.000279652 -0.00319642 -0.00286313)
(0.000830456 -0.0030993 -0.00286313)
(0.00135603 -0.00290801 -0.00286313)
(0.0018404 -0.00262836 -0.00286313)
(0.00226885 -0.00226885 -0.00286313)
(0.00262836 -0.0018404 -0.00286313)
(0.00290801 -0.00135603 -0.00286313)
(0.0030993 -0.000830456 -0.00286313)
(0.00319642 -0.000279652 -0.00286313)
(0.00226171 0.000197874 -0.00308113)
(0.00219299 0.00058761 -0.00308113)
(0.00205764 0.000959493 -0.00308113)
(0.00185976 0.00130222 -0.00308113)
(0.00160538 0.00160538 -0.00308113)
(0.00130222 0.00185976 -0.00308113)
(0.000959493 0.00205764 -0.00308113)
(0.00058761 0.00219299 -0.00308113)
(0.000197874 0.00226171 -0.00308113)
(-0.000197874 0.00226171 -0.00308113)
(-0.00058761 0.00219299 -0.00308113)