/*--------------------------------*- C++ -*----------------------------------*\
| =========                 |                                                 |
| \\      /  F ield         | OpenFOAM: The Open Source CFD Toolbox           |
|  \\    /   O peration     | Version:  2312                                  |
|   \\  /    A nd           | Website:  www.openfoam.com                      |
|    \\/     M anipulation  |                                                 |
\*---------------------------------------------------------------------------*/
FoamFile
{
    version     2.0;
    format      ascii;
    arch        "LSB;label=32;scalar=64";
    class       pointVectorField;
    location    "0.6";
    object      pointD;
}
// * * * * * * * * * * * * * * * * * * * * * * * * * * * * * * * * * * * * * //

dimensions      [0 1 0 0 0 0 0];

internalField   nonuniform List<vector> 
2164
(
(0 0 0)
(0 0 0)
(0 0 0)
(0 0 0)
(0 0 0)
(0 0 0)
(0 0 0)
(0 0 0)
(0 0 0)
(0 0 0)
(0 0 0)
(0 0 0)
(0 0 0)
(0 0 0)
(0 0 0)
(0 0 0)
(0 0 0)
(0 0 0)
(0 0 0)
(0 0 0)
(0 0 0)
(0 0 0)
(0 0 0)
(0 0 0)
(0 0 0)
(0 0 0)
(0 0 0)
(0 0 0)
(0 0 0)
(0 0 0)
(0 0 0)
(0 0 0)
(0 0 0)
(0 0 0)
(0 0 0)
(0 0 0)
(0.000532683 9.39267e-05 -0.000291633)
(0.000508281 0.000184999 -0.000291633)
(0.000468434 0.00027045 -0.000291633)
(0.000414353 0.000347683 -0.000291634)
(0.000347683 0.000414353 -0.000291634)
(0.00027045 0.000468434 -0.000291633)
(0.000184999 0.000508281 -0.000291633)
(9.39267e-05 0.000532683 -0.000291633)
(7.19887e-13 0.000540901 -0.000291632)
(-9.39267e-05 0.000532683 -0.000291633)
(-0.000184999 0.000508281 -0.000291633)
(-0.00027045 0.000468434 -0.000291633)
(-0.000347683 0.000414353 -0.000291634)
(-0.000414353 0.000347683 -0.000291634)
(-0.000468434 0.00027045 -0.000291633)
(-0.000508281 0.000184999 -0.000291633)
(-0.000532683 9.39267e-05 -0.000291633)
(-0.000540901 6.80953e-13 -0.000291632)
(-0.000532683 -9.39267e-05 -0.000291633)
(-0.000508281 -0.000184999 -0.000291633)
(-0.000468434 -0.00027045 -0.000291633)
(-0.000414353 -0.000347683 -0.000291634)
(-0.000347683 -0.000414353 -0.000291634)
(-0.00027045 -0.000468434 -0.000291633)
(-0.000184999 -0.000508281 -0.000291633)
(-9.39267e-05 -0.000532683 -0.000291633)
(-6.14883e-13 -0.000540901 -0.000291632)
(9.39267e-05 -0.000532683 -0.000291633)
(0.000184999 -0.000508281 -0.000291633)
(0.00027045 -0.000468434 -0.000291633)
(0.000347683 -0.000414353 -0.000291634)
(0.000414353 -0.000347683 -0.000291634)
(0.000468434 -0.00027045 -0.000291633)
(0.000508281 -0.000184999 -0.000291633)
(0.000532683 -9.39267e-05 -0.000291633)
(0.000540901 -5.78689e-13 -0.000291632)
(0.000723101 0.000127502 -0.000292711)
(0.000689974 0.00025113 -0.000292711)
(0.000635883 0.000367126 -0.000292711)
(0.000562472 0.000471969 -0.000292711)
(0.000471969 0.000562472 -0.000292711)
(0.000367126 0.000635883 -0.000292711)
(0.00025113 0.000689974 -0.000292711)
(0.000127502 0.000723101 -0.000292711)
(6.80217e-13 0.000734255 -0.000292711)
(-0.000127502 0.000723101 -0.000292711)
(-0.00025113 0.000689974 -0.000292711)
(-0.000367126 0.000635883 -0.000292711)
(-0.000471969 0.000562472 -0.000292711)
(-0.000562472 0.000471969 -0.000292711)
(-0.000635883 0.000367126 -0.000292711)
(-0.000689974 0.00025113 -0.000292711)
(-0.000723101 0.000127502 -0.000292711)
(-0.000734255 6.54907e-13 -0.000292711)
(-0.000723101 -0.000127502 -0.000292711)
(-0.000689974 -0.00025113 -0.000292711)
(-0.000635883 -0.000367126 -0.000292711)
(-0.000562472 -0.000471969 -0.000292711)
(-0.000471969 -0.000562472 -0.000292711)
(-0.000367126 -0.000635883 -0.000292711)
(-0.00025113 -0.000689974 -0.000292711)
(-0.000127502 -0.000723101 -0.000292711)
(-5.80991e-13 -0.000734255 -0.000292711)
(0.000127502 -0.000723101 -0.000292711)
(0.00025113 -0.000689974 -0.000292711)
(0.000367126 -0.000635883 -0.000292711)
(0.000471969 -0.000562472 -0.000292711)
(0.000562472 -0.000471969 -0.000292711)
(0.000635883 -0.000367126 -0.000292711)
(0.000689974 -0.00025113 -0.000292711)
(0.000723101 -0.000127502 -0.000292711)
(0.000734255 -5.60946e-13 -0.000292711)
(0 0 0)
(0 0 0)
(0 0 0)
(0 0 0)
(0 0 0)
(0 0 0)
(0 0 0)
(0 0 0)
(0 0 0)
(0 0 0)
(0 0 0)
(0 0 0)
(0 0 0)
(0 0 0)
(0 0 0)
(0 0 0)
(0 0 0)
(0 0 0)
(0 0 0)
(0 0 0)
(0 0 0)
(0 0 0)
(0 0 0)
(0 0 0)
(0 0 0)
(0 0 0)
(0 0 0)
(0 0 0)
(0 0 0)
(0 0 0)
(0 0 0)
(0 0 0)
(0 0 0)
(0 0 0)
(0 0 0)
(0 0 0)
(0.000944477 0.000166536 -0.000282534)
(0.000901208 0.000328012 -0.000282535)
(0.000830558 0.000479523 -0.000282535)
(0.000734671 0.000616461 -0.000282535)
(0.000616461 0.000734671 -0.000282535)
(0.000479523 0.000830558 -0.000282535)
(0.000328012 0.000901208 -0.000282535)
(0.000166536 0.000944477 -0.000282534)
(6.41889e-13 0.000959046 -0.000282534)
(-0.000166536 0.000944477 -0.000282534)
(-0.000328012 0.000901208 -0.000282535)
(-0.000479523 0.000830558 -0.000282535)
(-0.000616461 0.000734671 -0.000282535)
(-0.000734671 0.000616461 -0.000282535)
(-0.000830558 0.000479523 -0.000282535)
(-0.000901208 0.000328012 -0.000282535)
(-0.000944477 0.000166536 -0.000282534)
(-0.000959046 6.30998e-13 -0.000282534)
(-0.000944477 -0.000166536 -0.000282534)
(-0.000901208 -0.000328012 -0.000282535)
(-0.000830558 -0.000479523 -0.000282535)
(-0.000734671 -0.000616461 -0.000282535)
(-0.000616461 -0.000734671 -0.000282535)
(-0.000479523 -0.000830558 -0.000282535)
(-0.000328012 -0.000901208 -0.000282535)
(-0.000166536 -0.000944477 -0.000282534)
(-5.48926e-13 -0.000959046 -0.000282534)
(0.000166536 -0.000944477 -0.000282534)
(0.000328012 -0.000901208 -0.000282535)
(0.000479523 -0.000830558 -0.000282535)
(0.000616461 -0.000734671 -0.000282535)
(0.000734671 -0.000616461 -0.000282535)
(0.000830558 -0.000479523 -0.000282535)
(0.000901208 -0.000328012 -0.000282535)
(0.000944477 -0.000166536 -0.000282534)
(0.000959046 -5.45736e-13 -0.000282534)
(0 0 0)
(0 0 0)
(0 0 0)
(0 0 0)
(0 0 0)
(0 0 0)
(0 0 0)
(0 0 0)
(0 0 0)
(0 0 0)
(0 0 0)
(0 0 0)
(0 0 0)
(0 0 0)
(0 0 0)
(0 0 0)
(0 0 0)
(0 0 0)
(0 0 0)
(0 0 0)
(0 0 0)
(0 0 0)
(0 0 0)
(0 0 0)
(0 0 0)
(0 0 0)
(0 0 0)
(0 0 0)
(0 0 0)
(0 0 0)
(0 0 0)
(0 0 0)
(0 0 0)
(0 0 0)
(0 0 0)
(0 0 0)
(0.00118427 0.000208817 -0.000261199)
(0.00113001 0.000411289 -0.000261199)
(0.00104143 0.000601265 -0.000261199)
(0.000921194 0.000772974 -0.000261199)
(0.000772974 0.000921194 -0.000261199)
(0.000601265 0.00104143 -0.000261199)
(0.000411289 0.00113001 -0.000261199)
(0.000208817 0.00118427 -0.000261199)
(6.05974e-13 0.00120253 -0.000261199)
(-0.000208817 0.00118427 -0.000261199)
(-0.000411289 0.00113001 -0.000261199)
(-0.000601265 0.00104143 -0.000261199)
(-0.000772974 0.000921194 -0.000261199)
(-0.000921194 0.000772974 -0.000261199)
(-0.00104143 0.000601265 -0.000261199)
(-0.00113001 0.000411289 -0.000261199)
(-0.00118427 0.000208817 -0.000261199)
(-0.00120253 6.07321e-13 -0.000261199)
(-0.00118427 -0.000208817 -0.000261199)
(-0.00113001 -0.000411289 -0.000261199)
(-0.00104143 -0.000601265 -0.000261199)
(-0.000921194 -0.000772974 -0.000261199)
(-0.000772974 -0.000921194 -0.000261199)
(-0.000601265 -0.00104143 -0.000261199)
(-0.000411289 -0.00113001 -0.000261199)
(-0.000208817 -0.00118427 -0.000261199)
(-5.17159e-13 -0.00120253 -0.000261199)
(0.000208817 -0.00118427 -0.000261199)
(0.000411289 -0.00113001 -0.000261199)
(0.000601265 -0.00104143 -0.000261199)
(0.000772974 -0.000921194 -0.000261199)
(0.000921194 -0.000772974 -0.000261199)
(0.00104143 -0.000601265 -0.000261199)
(0.00113001 -0.000411289 -0.000261199)
(0.00118427 -0.000208817 -0.000261199)
(0.00120253 -5.28556e-13 -0.000261199)
(0 0 0)
(0 0 0)
(0 0 0)
(0 0 0)
(0 0 0)
(0 0 0)
(0 0 0)
(0 0 0)
(0 0 0)
(0 0 0)
(0 0 0)
(0 0 0)
(0 0 0)
(0 0 0)
(0 0 0)
(0 0 0)
(0 0 0)
(0 0 0)
(0 0 0)
(0 0 0)
(0 0 0)
(0 0 0)
(0 0 0)
(0 0 0)
(0 0 0)
(0 0 0)
(0 0 0)
(0 0 0)
(0 0 0)
(0 0 0)
(0 0 0)
(0 0 0)
(0 0 0)
(0 0 0)
(0 0 0)
(0 0 0)
(0.00117915 0.000207915 -0.000635165)
(0.00112513 0.000409513 -0.000635165)
(0.00103692 0.000598668 -0.000635166)
(0.000917212 0.000769632 -0.000635166)
(0.000769632 0.000917212 -0.000635166)
(0.000598668 0.00103692 -0.000635166)
(0.000409513 0.00112513 -0.000635165)
(0.000207915 0.00117915 -0.000635165)
(1.40116e-12 0.00119734 -0.000635164)
(-0.000207915 0.00117915 -0.000635165)
(-0.000409513 0.00112513 -0.000635165)
(-0.000598668 0.00103692 -0.000635166)
(-0.000769632 0.000917212 -0.000635166)
(-0.000917212 0.000769632 -0.000635166)
(-0.00103692 0.000598668 -0.000635166)
(-0.00112513 0.000409513 -0.000635165)
(-0.00117915 0.000207915 -0.000635165)
(-0.00119734 1.34398e-12 -0.000635164)
(-0.00117915 -0.000207915 -0.000635165)
(-0.00112513 -0.000409513 -0.000635165)
(-0.00103692 -0.000598668 -0.000635166)
(-0.000917212 -0.000769632 -0.000635166)
(-0.000769632 -0.000917212 -0.000635166)
(-0.000598668 -0.00103692 -0.000635166)
(-0.000409513 -0.00112513 -0.000635165)
(-0.000207915 -0.00117915 -0.000635165)
(-1.21104e-12 -0.00119734 -0.000635164)
(0.000207915 -0.00117915 -0.000635165)
(0.000409513 -0.00112513 -0.000635165)
(0.000598668 -0.00103692 -0.000635166)
(0.000769632 -0.000917212 -0.000635166)
(0.000917212 -0.000769632 -0.000635166)
(0.00103692 -0.000598668 -0.000635166)
(0.00112513 -0.000409513 -0.000635165)
(0.00117915 -0.000207915 -0.000635165)
(0.00119734 -1.15644e-12 -0.000635164)
(0.00145358 0.000256305 -0.000656649)
(0.00138699 0.000504823 -0.000656649)
(0.00127826 0.000738 -0.00065665)
(0.00113068 0.000948756 -0.00065665)
(0.000948756 0.00113068 -0.00065665)
(0.000738 0.00127826 -0.00065665)
(0.000504823 0.00138699 -0.000656649)
(0.000256305 0.00145358 -0.000656649)
(1.32321e-12 0.00147601 -0.000656649)
(-0.000256305 0.00145358 -0.000656649)
(-0.000504823 0.00138699 -0.000656649)
(-0.000738 0.00127826 -0.00065665)
(-0.000948756 0.00113068 -0.00065665)
(-0.00113068 0.000948756 -0.00065665)
(-0.00127826 0.000738 -0.00065665)
(-0.00138699 0.000504823 -0.000656649)
(-0.00145358 0.000256305 -0.000656649)
(-0.00147601 1.28128e-12 -0.000656649)
(-0.00145358 -0.000256305 -0.000656649)
(-0.00138699 -0.000504823 -0.000656649)
(-0.00127826 -0.000738 -0.00065665)
(-0.00113068 -0.000948756 -0.00065665)
(-0.000948756 -0.00113068 -0.00065665)
(-0.000738 -0.00127826 -0.00065665)
(-0.000504823 -0.00138699 -0.000656649)
(-0.000256305 -0.00145358 -0.000656649)
(-1.13305e-12 -0.00147601 -0.000656649)
(0.000256305 -0.00145358 -0.000656649)
(0.000504823 -0.00138699 -0.000656649)
(0.000738 -0.00127826 -0.00065665)
(0.000948756 -0.00113068 -0.00065665)
(0.00113068 -0.000948756 -0.00065665)
(0.00127826 -0.000738 -0.00065665)
(0.00138699 -0.000504823 -0.000656649)
(0.00145358 -0.000256305 -0.000656649)
(0.00147601 -1.09874e-12 -0.000656649)
(0.00176913 0.000311947 -0.000666022)
(0.00168809 0.000614412 -0.000666022)
(0.00155575 0.000898211 -0.000666023)
(0.00137614 0.00115472 -0.000666023)
(0.00115472 0.00137614 -0.000666023)
(0.000898211 0.00155575 -0.000666023)
(0.000614412 0.00168809 -0.000666022)
(0.000311947 0.00176913 -0.000666022)
(1.24833e-12 0.00179643 -0.000666022)
(-0.000311947 0.00176913 -0.000666022)
(-0.000614412 0.00168809 -0.000666022)
(-0.000898211 0.00155575 -0.000666023)
(-0.00115472 0.00137614 -0.000666023)
(-0.00137614 0.00115472 -0.000666023)
(-0.00155575 0.000898211 -0.000666023)
(-0.00168809 0.000614412 -0.000666022)
(-0.00176913 0.000311947 -0.000666022)
(-0.00179643 1.22264e-12 -0.000666022)
(-0.00176913 -0.000311947 -0.000666022)
(-0.00168809 -0.000614412 -0.000666022)
(-0.00155575 -0.000898211 -0.000666023)
(-0.00137614 -0.00115472 -0.000666023)
(-0.00115472 -0.00137614 -0.000666023)
(-0.000898211 -0.00155575 -0.000666023)
(-0.000614412 -0.00168809 -0.000666022)
(-0.000311947 -0.00176913 -0.000666022)
(-1.05913e-12 -0.00179643 -0.000666022)
(0.000311947 -0.00176913 -0.000666022)
(0.000614412 -0.00168809 -0.000666022)
(0.000898211 -0.00155575 -0.000666023)
(0.00115472 -0.00137614 -0.000666023)
(0.00137614 -0.00115472 -0.000666023)
(0.00155575 -0.000898211 -0.000666023)
(0.00168809 -0.000614412 -0.000666022)
(0.00176913 -0.000311947 -0.000666022)
(0.00179643 -1.04575e-12 -0.000666022)
(0.00210458 0.000371095 -0.000663306)
(0.00200817 0.000730913 -0.000663306)
(0.00185074 0.00106852 -0.000663306)
(0.00163707 0.00137366 -0.000663306)
(0.00137366 0.00163707 -0.000663306)
(0.00106852 0.00185074 -0.000663306)
(0.000730913 0.00200817 -0.000663306)
(0.000371095 0.00210458 -0.000663306)
(1.17661e-12 0.00213705 -0.000663306)
(-0.000371095 0.00210458 -0.000663306)
(-0.000730913 0.00200817 -0.000663306)
(-0.00106852 0.00185074 -0.000663306)
(-0.00137366 0.00163707 -0.000663306)
(-0.00163707 0.00137366 -0.000663306)
(-0.00185074 0.00106852 -0.000663306)
(-0.00200817 0.000730913 -0.000663306)
(-0.00210458 0.000371095 -0.000663306)
(-0.00213705 1.16499e-12 -0.000663306)
(-0.00210458 -0.000371095 -0.000663306)
(-0.00200817 -0.000730913 -0.000663306)
(-0.00185074 -0.00106852 -0.000663306)
(-0.00163707 -0.00137366 -0.000663306)
(-0.00137366 -0.00163707 -0.000663306)
(-0.00106852 -0.00185074 -0.000663306)
(-0.000730913 -0.00200817 -0.000663306)
(-0.000371095 -0.00210458 -0.000663306)
(-9.87917e-13 -0.00213705 -0.000663306)
(0.000371095 -0.00210458 -0.000663306)
(0.000730913 -0.00200817 -0.000663306)
(0.00106852 -0.00185074 -0.000663306)
(0.00137366 -0.00163707 -0.000663306)
(0.00163707 -0.00137366 -0.000663306)
(0.00185074 -0.00106852 -0.000663306)
(0.00200817 -0.000730913 -0.000663306)
(0.00210458 -0.000371095 -0.000663306)
(0.00213705 -9.93489e-13 -0.000663306)
(0.00173157 0.000305321 -0.00109328)
(0.00165224 0.000601366 -0.00109328)
(0.00152271 0.00087914 -0.00109328)
(0.00134692 0.0011302 -0.00109328)
(0.0011302 0.00134692 -0.00109328)
(0.00087914 0.00152271 -0.00109328)
(0.000601366 0.00165224 -0.00109328)
(0.000305321 0.00173157 -0.00109328)
(1.99418e-12 0.00175828 -0.00109328)
(-0.000305321 0.00173157 -0.00109328)
(-0.000601366 0.00165224 -0.00109328)
(-0.00087914 0.00152271 -0.00109328)
(-0.0011302 0.00134692 -0.00109328)
(-0.00134692 0.0011302 -0.00109328)
(-0.00152271 0.00087914 -0.00109328)
(-0.00165224 0.000601366 -0.00109328)
(-0.00173157 0.000305321 -0.00109328)
(-0.00175828 1.94328e-12 -0.00109328)
(-0.00173157 -0.000305321 -0.00109328)
(-0.00165224 -0.000601366 -0.00109328)
(-0.00152271 -0.00087914 -0.00109328)
(-0.00134692 -0.0011302 -0.00109328)
(-0.0011302 -0.00134692 -0.00109328)
(-0.00087914 -0.00152271 -0.00109328)
(-0.000601366 -0.00165224 -0.00109328)
(-0.000305321 -0.00173157 -0.00109328)
(-1.72675e-12 -0.00175828 -0.00109328)
(0.000305321 -0.00173157 -0.00109328)
(0.000601366 -0.00165224 -0.00109328)
(0.00087914 -0.00152271 -0.00109328)
(0.0011302 -0.00134692 -0.00109328)
(0.00134692 -0.0011302 -0.00109328)
(0.00152271 -0.00087914 -0.00109328)
(0.00165224 -0.000601366 -0.00109328)
(0.00173157 -0.000305321 -0.00109328)
(0.00175828 -1.67239e-12 -0.00109328)
(0.00205713 0.000362727 -0.00112572)
(0.00196289 0.000714433 -0.00112572)
(0.00180901 0.00104443 -0.00112572)
(0.00160016 0.00134269 -0.00112572)
(0.00134269 0.00160016 -0.00112572)
(0.00104443 0.00180901 -0.00112572)
(0.000714433 0.00196289 -0.00112572)
(0.000362727 0.00205713 -0.00112572)
(1.8845e-12 0.00208886 -0.00112572)
(-0.000362727 0.00205713 -0.00112572)
(-0.000714433 0.00196289 -0.00112572)
(-0.00104443 0.00180901 -0.00112572)
(-0.00134269 0.00160016 -0.00112572)
(-0.00160016 0.00134269 -0.00112572)
(-0.00180901 0.00104443 -0.00112572)
(-0.00196289 0.000714433 -0.00112572)
(-0.00205713 0.000362727 -0.00112572)
(-0.00208886 1.83828e-12 -0.00112572)
(-0.00205713 -0.000362727 -0.00112572)
(-0.00196289 -0.000714433 -0.00112572)
(-0.00180901 -0.00104443 -0.00112572)
(-0.00160016 -0.00134269 -0.00112572)
(-0.00134269 -0.00160016 -0.00112572)
(-0.00104443 -0.00180901 -0.00112572)
(-0.000714433 -0.00196289 -0.00112572)
(-0.000362727 -0.00205713 -0.00112572)
(-1.60513e-12 -0.00208886 -0.00112572)
(0.000362727 -0.00205713 -0.00112572)
(0.000714433 -0.00196289 -0.00112572)
(0.00104443 -0.00180901 -0.00112572)
(0.00134269 -0.00160016 -0.00112572)
(0.00160016 -0.00134269 -0.00112572)
(0.00180901 -0.00104443 -0.00112572)
(0.00196289 -0.000714433 -0.00112572)
(0.00205713 -0.000362727 -0.00112572)
(0.00208886 -1.56564e-12 -0.00112572)
(0.00242827 0.000428169 -0.00114711)
(0.00231703 0.000843328 -0.00114711)
(0.00213538 0.00123286 -0.00114711)
(0.00188886 0.00158494 -0.00114711)
(0.00158494 0.00188886 -0.00114711)
(0.00123286 0.00213538 -0.00114711)
(0.000843328 0.00231703 -0.00114711)
(0.000428169 0.00242827 -0.00114711)
(1.78106e-12 0.00246573 -0.00114711)
(-0.000428169 0.00242827 -0.00114711)
(-0.000843328 0.00231703 -0.00114711)
(-0.00123286 0.00213538 -0.00114711)
(-0.00158494 0.00188886 -0.00114711)
(-0.00188886 0.00158494 -0.00114711)
(-0.00213538 0.00123286 -0.00114711)
(-0.00231703 0.000843328 -0.00114711)
(-0.00242827 0.000428169 -0.00114711)
(-0.00246573 1.73933e-12 -0.00114711)
(-0.00242827 -0.000428169 -0.00114711)
(-0.00231703 -0.000843328 -0.00114711)
(-0.00213538 -0.00123286 -0.00114711)
(-0.00188886 -0.00158494 -0.00114711)
(-0.00158494 -0.00188886 -0.00114711)
(-0.00123286 -0.00213538 -0.00114711)
(-0.000843328 -0.00231703 -0.00114711)
(-0.000428169 -0.00242827 -0.00114711)
(-1.49009e-12 -0.00246573 -0.00114711)
(0.000428169 -0.00242827 -0.00114711)
(0.000843328 -0.00231703 -0.00114711)
(0.00123286 -0.00213538 -0.00114711)
(0.00158494 -0.00188886 -0.00114711)
(0.00188886 -0.00158494 -0.00114711)
(0.00213538 -0.00123286 -0.00114711)
(0.00231703 -0.000843328 -0.00114711)
(0.00242827 -0.000428169 -0.00114711)
(0.00246573 -1.465e-12 -0.00114711)
(0.00282105 0.000497428 -0.00115885)
(0.00269181 0.000979739 -0.00115885)
(0.00248079 0.00143228 -0.00115885)
(0.00219439 0.00184131 -0.00115885)
(0.00184131 0.00219439 -0.00115885)
(0.00143228 0.00248079 -0.00115885)
(0.000979739 0.00269181 -0.00115885)
(0.000497428 0.00282105 -0.00115885)
(1.67968e-12 0.00286457 -0.00115885)
(-0.000497428 0.00282105 -0.00115885)
(-0.000979739 0.00269181 -0.00115885)
(-0.00143228 0.00248079 -0.00115885)
(-0.00184131 0.00219439 -0.00115885)
(-0.00219439 0.00184131 -0.00115885)
(-0.00248079 0.00143228 -0.00115885)
(-0.00269181 0.000979739 -0.00115885)
(-0.00282105 0.000497428 -0.00115885)
(-0.00286457 1.6436e-12 -0.00115885)
(-0.00282105 -0.000497428 -0.00115885)
(-0.00269181 -0.000979739 -0.00115885)
(-0.00248079 -0.00143228 -0.00115885)
(-0.00219439 -0.00184131 -0.00115885)
(-0.00184131 -0.00219439 -0.00115885)
(-0.00143228 -0.00248079 -0.00115885)
(-0.000979739 -0.00269181 -0.00115885)
(-0.000497428 -0.00282105 -0.00115885)
(-1.38081e-12 -0.00286457 -0.00115885)
(0.000497428 -0.00282105 -0.00115885)
(0.000979739 -0.00269181 -0.00115885)
(0.00143228 -0.00248079 -0.00115885)
(0.00184131 -0.00219439 -0.00115885)
(0.00219439 -0.00184131 -0.00115885)
(0.00248079 -0.00143228 -0.00115885)
(0.00269181 -0.000979739 -0.00115885)
(0.00282105 -0.000497428 -0.00115885)
(0.00286457 -1.37106e-12 -0.00115885)
(0.00213279 0.000376067 -0.00160048)
(0.00203509 0.000740712 -0.00160048)
(0.00187554 0.00108285 -0.00160048)
(0.00165902 0.00139208 -0.00160048)
(0.00139208 0.00165902 -0.00160048)
(0.00108285 0.00187554 -0.00160048)
(0.000740712 0.00203509 -0.00160048)
(0.000376067 0.00213279 -0.00160048)
(2.49561e-12 0.00216569 -0.00160048)
(-0.000376067 0.00213279 -0.00160048)
(-0.000740712 0.00203509 -0.00160048)
(-0.00108285 0.00187554 -0.00160048)
(-0.00139208 0.00165902 -0.00160048)
(-0.00165902 0.00139208 -0.00160048)
(-0.00187554 0.00108285 -0.00160048)
(-0.00203509 0.000740712 -0.00160048)
(-0.00213279 0.000376067 -0.00160048)
(-0.00216569 2.44367e-12 -0.00160048)
(-0.00213279 -0.000376067 -0.00160048)
(-0.00203509 -0.000740712 -0.00160048)
(-0.00187554 -0.00108285 -0.00160048)
(-0.00165902 -0.00139208 -0.00160048)
(-0.00139208 -0.00165902 -0.00160048)
(-0.00108285 -0.00187554 -0.00160048)
(-0.000740712 -0.00203509 -0.00160048)
(-0.000376067 -0.00213279 -0.00160048)
(-2.1228e-12 -0.00216569 -0.00160048)
(0.000376067 -0.00213279 -0.00160048)
(0.000740712 -0.00203509 -0.00160048)
(0.00108285 -0.00187554 -0.00160048)
(0.00139208 -0.00165902 -0.00160048)
(0.00165902 -0.00139208 -0.00160048)
(0.00187554 -0.00108285 -0.00160048)
(0.00203509 -0.000740712 -0.00160048)
(0.00213279 -0.000376067 -0.00160048)
(0.00216569 -2.06578e-12 -0.00160048)
(0.00248412 0.000438017 -0.00164414)
(0.00237032 0.000862725 -0.00164414)
(0.0021845 0.00126122 -0.00164414)
(0.0019323 0.00162139 -0.00164414)
(0.00162139 0.0019323 -0.00164414)
(0.00126122 0.0021845 -0.00164414)
(0.000862725 0.00237032 -0.00164414)
(0.000438017 0.00248412 -0.00164414)
(2.34896e-12 0.00252244 -0.00164414)
(-0.000438017 0.00248412 -0.00164414)
(-0.000862725 0.00237032 -0.00164414)
(-0.00126122 0.0021845 -0.00164414)
(-0.00162139 0.0019323 -0.00164414)
(-0.0019323 0.00162139 -0.00164414)
(-0.0021845 0.00126122 -0.00164414)
(-0.00237032 0.000862725 -0.00164414)
(-0.00248412 0.000438017 -0.00164414)
(-0.00252244 2.29758e-12 -0.00164414)
(-0.00248412 -0.000438017 -0.00164414)
(-0.00237032 -0.000862725 -0.00164414)
(-0.0021845 -0.00126122 -0.00164414)
(-0.0019323 -0.00162139 -0.00164414)
(-0.00162139 -0.0019323 -0.00164414)
(-0.00126122 -0.0021845 -0.00164414)
(-0.000862725 -0.00237032 -0.00164414)
(-0.000438017 -0.00248412 -0.00164414)
(-1.96531e-12 -0.00252244 -0.00164414)
(0.000438017 -0.00248412 -0.00164414)
(0.000862725 -0.00237032 -0.00164414)
(0.00126122 -0.0021845 -0.00164414)
(0.00162139 -0.0019323 -0.00164414)
(0.0019323 -0.00162139 -0.00164414)
(0.0021845 -0.00126122 -0.00164414)
(0.00237032 -0.000862725 -0.00164414)
(0.00248412 -0.000438017 -0.00164414)
(0.00252244 -1.92533e-12 -0.00164414)
(0.00288513 0.000508728 -0.00168022)
(0.00275296 0.001002 -0.00168022)
(0.00253714 0.00146482 -0.00168022)
(0.00224424 0.00188314 -0.00168022)
(0.00188314 0.00224424 -0.00168022)
(0.00146482 0.00253714 -0.00168022)
(0.001002 0.00275296 -0.00168022)
(0.000508728 0.00288513 -0.00168022)
(2.21125e-12 0.00292964 -0.00168022)
(-0.000508728 0.00288513 -0.00168022)
(-0.001002 0.00275296 -0.00168022)
(-0.00146482 0.00253714 -0.00168022)
(-0.00188314 0.00224424 -0.00168022)
(-0.00224424 0.00188314 -0.00168022)
(-0.00253714 0.00146482 -0.00168022)
(-0.00275296 0.001002 -0.00168022)
(-0.00288513 0.000508728 -0.00168022)
(-0.00292964 2.16019e-12 -0.00168022)
(-0.00288513 -0.000508728 -0.00168022)
(-0.00275296 -0.001002 -0.00168022)
(-0.00253714 -0.00146482 -0.00168022)
(-0.00224424 -0.00188314 -0.00168022)
(-0.00188314 -0.00224424 -0.00168022)
(-0.00146482 -0.00253714 -0.00168022)
(-0.001002 -0.00275296 -0.00168022)
(-0.000508728 -0.00288513 -0.00168022)
(-1.817e-12 -0.00292964 -0.00168022)
(0.000508728 -0.00288513 -0.00168022)
(0.001002 -0.00275296 -0.00168022)
(0.00146482 -0.00253714 -0.00168022)
(0.00188314 -0.00224424 -0.00168022)
(0.00224424 -0.00188314 -0.00168022)
(0.00253714 -0.00146482 -0.00168022)
(0.00275296 -0.001002 -0.00168022)
(0.00288513 -0.000508728 -0.00168022)
(0.00292964 -1.79376e-12 -0.00168022)
(0.00331059 0.000583746 -0.00170997)
(0.00315893 0.00114976 -0.00170997)
(0.00291128 0.00168083 -0.00170997)
(0.00257518 0.00216083 -0.00170997)
(0.00216083 0.00257518 -0.00170997)
(0.00168083 0.00291128 -0.00170997)
(0.00114976 0.00315893 -0.00170997)
(0.000583746 0.00331059 -0.00170997)
(2.07842e-12 0.00336166 -0.00170997)
(-0.000583746 0.00331059 -0.00170997)
(-0.00114976 0.00315893 -0.00170997)
(-0.00168083 0.00291128 -0.00170997)
(-0.00216083 0.00257518 -0.00170997)
(-0.00257518 0.00216083 -0.00170997)
(-0.00291128 0.00168083 -0.00170997)
(-0.00315893 0.00114976 -0.00170997)
(-0.00331059 0.000583746 -0.00170997)
(-0.00336166 2.02913e-12 -0.00170997)
(-0.00331059 -0.000583746 -0.00170997)
(-0.00315893 -0.00114976 -0.00170997)
(-0.00291128 -0.00168083 -0.00170997)
(-0.00257518 -0.00216083 -0.00170997)
(-0.00216083 -0.00257518 -0.00170997)
(-0.00168083 -0.00291128 -0.00170997)
(-0.00114976 -0.00315893 -0.00170997)
(-0.000583746 -0.00331059 -0.00170997)
(-1.67679e-12 -0.00336166 -0.00170997)
(0.000583746 -0.00331059 -0.00170997)
(0.00114976 -0.00315893 -0.00170997)
(0.00168083 -0.00291128 -0.00170997)
(0.00216083 -0.00257518 -0.00170997)
(0.00257518 -0.00216083 -0.00170997)
(0.00291128 -0.00168083 -0.00170997)
(0.00315893 -0.00114976 -0.00170997)
(0.00331059 -0.000583746 -0.00170997)
(0.00336166 -1.67028e-12 -0.00170997)
(0.00236037 0.000416197 -0.00211883)
(0.00225224 0.000819748 -0.00211883)
(0.00207568 0.00119839 -0.00211883)
(0.00183604 0.00154062 -0.00211883)
(0.00154062 0.00183604 -0.00211883)
(0.00119839 0.00207568 -0.00211883)
(0.000819748 0.00225224 -0.00211883)
(0.000416197 0.00236037 -0.00211883)
(2.88562e-12 0.00239678 -0.00211883)
(-0.000416197 0.00236037 -0.00211883)
(-0.000819748 0.00225224 -0.00211883)
(-0.00119839 0.00207568 -0.00211883)
(-0.00154062 0.00183604 -0.00211883)
(-0.00183604 0.00154062 -0.00211883)
(-0.00207568 0.00119839 -0.00211883)
(-0.00225224 0.000819748 -0.00211883)
(-0.00236037 0.000416197 -0.00211883)
(-0.00239678 2.82287e-12 -0.00211883)
(-0.00236037 -0.000416197 -0.00211883)
(-0.00225224 -0.000819748 -0.00211883)
(-0.00207568 -0.00119839 -0.00211883)
(-0.00183604 -0.00154062 -0.00211883)
(-0.00154062 -0.00183604 -0.00211883)
(-0.00119839 -0.00207568 -0.00211883)
(-0.000819748 -0.00225224 -0.00211883)
(-0.000416197 -0.00236037 -0.00211883)
(-2.38462e-12 -0.00239678 -0.00211883)
(0.000416197 -0.00236037 -0.00211883)
(0.000819748 -0.00225224 -0.00211883)
(0.00119839 -0.00207568 -0.00211883)
(0.00154062 -0.00183604 -0.00211883)
(0.00183604 -0.00154062 -0.00211883)
(0.00207568 -0.00119839 -0.00211883)
(0.00225224 -0.000819748 -0.00211883)
(0.00236037 -0.000416197 -0.00211883)
(0.00239678 -2.33241e-12 -0.00211883)
(0.00272125 0.000479831 -0.00217741)
(0.00259658 0.000945079 -0.00217741)
(0.00239302 0.00138161 -0.00217741)
(0.00211676 0.00177617 -0.00217742)
(0.00177617 0.00211676 -0.00217742)
(0.00138161 0.00239302 -0.00217741)
(0.000945079 0.00259658 -0.00217741)
(0.000479831 0.00272125 -0.00217741)
(2.70108e-12 0.00276323 -0.00217741)
(-0.000479831 0.00272125 -0.00217741)
(-0.000945079 0.00259658 -0.00217741)
(-0.00138161 0.00239302 -0.00217741)
(-0.00177617 0.00211676 -0.00217742)
(-0.00211676 0.00177617 -0.00217742)
(-0.00239302 0.00138161 -0.00217741)
(-0.00259658 0.000945079 -0.00217741)
(-0.00272125 0.000479831 -0.00217741)
(-0.00276323 2.64363e-12 -0.00217741)
(-0.00272125 -0.000479831 -0.00217741)
(-0.00259658 -0.000945079 -0.00217741)
(-0.00239302 -0.00138161 -0.00217741)
(-0.00211676 -0.00177617 -0.00217742)
(-0.00177617 -0.00211676 -0.00217742)
(-0.00138161 -0.00239302 -0.00217741)
(-0.000945079 -0.00259658 -0.00217741)
(-0.000479831 -0.00272125 -0.00217741)
(-2.20225e-12 -0.00276323 -0.00217741)
(0.000479831 -0.00272125 -0.00217741)
(0.000945079 -0.00259658 -0.00217741)
(0.00138161 -0.00239302 -0.00217741)
(0.00177617 -0.00211676 -0.00217742)
(0.00211676 -0.00177617 -0.00217742)
(0.00239302 -0.00138161 -0.00217741)
(0.00259658 -0.000945079 -0.00217741)
(0.00272125 -0.000479831 -0.00217741)
(0.00276323 -2.17352e-12 -0.00217741)
(0.00313545 0.000552865 -0.00223359)
(0.00299181 0.00108893 -0.00223359)
(0.00275727 0.00159191 -0.00223359)
(0.00243895 0.00204652 -0.00223359)
(0.00204652 0.00243895 -0.00223359)
(0.00159191 0.00275727 -0.00223359)
(0.00108893 0.00299181 -0.00223359)
(0.000552865 0.00313545 -0.00223359)
(2.5275e-12 0.00318382 -0.00223359)
(-0.000552865 0.00313545 -0.00223359)
(-0.00108893 0.00299181 -0.00223359)
(-0.00159191 0.00275727 -0.00223359)
(-0.00204652 0.00243895 -0.00223359)
(-0.00243895 0.00204652 -0.00223359)
(-0.00275727 0.00159191 -0.00223359)
(-0.00299181 0.00108893 -0.00223359)
(-0.00313545 0.000552865 -0.00223359)
(-0.00318382 2.476e-12 -0.00223359)
(-0.00313545 -0.000552865 -0.00223359)
(-0.00299181 -0.00108893 -0.00223359)
(-0.00275727 -0.00159191 -0.00223359)
(-0.00243895 -0.00204652 -0.00223359)
(-0.00204652 -0.00243895 -0.00223359)
(-0.00159191 -0.00275727 -0.00223359)
(-0.00108893 -0.00299181 -0.00223359)
(-0.000552865 -0.00313545 -0.00223359)
(-2.03177e-12 -0.00318382 -0.00223359)
(0.000552865 -0.00313545 -0.00223359)
(0.00108893 -0.00299181 -0.00223359)
(0.00159191 -0.00275727 -0.00223359)
(0.00204652 -0.00243895 -0.00223359)
(0.00243895 -0.00204652 -0.00223359)
(0.00275727 -0.00159191 -0.00223359)
(0.00299181 -0.00108893 -0.00223359)
(0.00313545 -0.000552865 -0.00223359)
(0.00318382 -2.02683e-12 -0.00223359)
(0.00357698 0.000630718 -0.00228717)
(0.00341312 0.00124227 -0.00228717)
(0.00314555 0.00181609 -0.00228717)
(0.0027824 0.00233471 -0.00228717)
(0.00233471 0.0027824 -0.00228717)
(0.00181609 0.00314555 -0.00228717)
(0.00124227 0.00341312 -0.00228717)
(0.000630718 0.00357698 -0.00228717)
(2.36455e-12 0.00363217 -0.00228717)
(-0.000630718 0.00357698 -0.00228717)
(-0.00124227 0.00341312 -0.00228717)
(-0.00181609 0.00314555 -0.00228717)
(-0.00233471 0.0027824 -0.00228717)
(-0.0027824 0.00233471 -0.00228717)
(-0.00314555 0.00181609 -0.00228717)
(-0.00341312 0.00124227 -0.00228717)
(-0.00357698 0.000630718 -0.00228717)
(-0.00363217 2.31669e-12 -0.00228717)
(-0.00357698 -0.000630718 -0.00228717)
(-0.00341312 -0.00124227 -0.00228717)
(-0.00314555 -0.00181609 -0.00228717)
(-0.0027824 -0.00233471 -0.00228717)
(-0.00233471 -0.0027824 -0.00228717)
(-0.00181609 -0.00314555 -0.00228717)
(-0.00124227 -0.00341312 -0.00228717)
(-0.000630718 -0.00357698 -0.00228717)
(-1.87117e-12 -0.00363217 -0.00228717)
(0.000630718 -0.00357698 -0.00228717)
(0.00124227 -0.00341312 -0.00228717)
(0.00181609 -0.00314555 -0.00228717)
(0.00233471 -0.0027824 -0.00228717)
(0.0027824 -0.00233471 -0.00228717)
(0.00314555 -0.00181609 -0.00228717)
(0.00341312 -0.00124227 -0.00228717)
(0.00357698 -0.000630718 -0.00228717)
(0.00363217 -1.88662e-12 -0.00228717)
(0.00241988 0.00042669 -0.0026194)
(0.00230902 0.000840416 -0.0026194)
(0.00212801 0.00122861 -0.0026194)
(0.00188233 0.00157946 -0.0026194)
(0.00157946 0.00188233 -0.0026194)
(0.00122861 0.00212801 -0.0026194)
(0.000840416 0.00230902 -0.0026194)
(0.00042669 0.00241988 -0.0026194)
(3.13242e-12 0.00245721 -0.0026194)
(-0.00042669 0.00241988 -0.0026194)
(-0.000840416 0.00230902 -0.0026194)
(-0.00122861 0.00212801 -0.0026194)
(-0.00157946 0.00188233 -0.0026194)
(-0.00188233 0.00157946 -0.0026194)
(-0.00212801 0.00122861 -0.0026194)