/*--------------------------------*- C++ -*----------------------------------*\
| =========                 |                                                 |
| \\      /  F ield         | OpenFOAM: The Open Source CFD Toolbox           |
|  \\    /   O peration     | Version:  2312                                  |
|   \\  /    A nd           | Website:  www.openfoam.com                      |
|    \\/     M anipulation  |                                                 |
\*---------------------------------------------------------------------------*/
FoamFile
{
    version     2.0;
    format      ascii;
    arch        "LSB;label=32;scalar=64";
    class       volSymmTensorField;
    location    "0.6";
    object      sigma;
}
// * * * * * * * * * * * * * * * * * * * * * * * * * * * * * * * * * * * * * //

dimensions      [1 -1 -2 0 0 0 0];

internalField   nonuniform List<symmTensor> 
1620
(
(11167.1 14.6197 -3144.05 11001.3 -275.069 14411.2)
(11157.1 42.0951 -3048.52 11011.3 -816.849 14411.2)
(11138.4 64.4914 -2860.36 11030.2 -1333.81 14411.3)
(11113 79.1091 -2585.29 11055.4 -1810.24 14411.2)
(11084.1 84.1853 -2231.67 11084.1 -2231.67 14411.1)
(11055.4 79.1091 -1810.24 11113 -2585.29 14411.2)
(11030.2 64.4914 -1333.81 11138.4 -2860.36 14411.3)
(11011.3 42.0951 -816.849 11157.1 -3048.52 14411.2)
(11001.3 14.6197 -275.069 11167.1 -3144.05 14411.2)
(11001.3 -14.6197 275.069 11167.1 -3144.05 14411.2)
(11011.3 -42.0951 816.849 11157.1 -3048.52 14411.2)
(11030.2 -64.4914 1333.81 11138.4 -2860.36 14411.3)
(11055.4 -79.1091 1810.24 11113 -2585.29 14411.2)
(11084.1 -84.1853 2231.67 11084.1 -2231.67 14411.1)
(11113 -79.1091 2585.29 11055.4 -1810.24 14411.2)
(11138.4 -64.4914 2860.36 11030.2 -1333.81 14411.3)
(11157.1 -42.0951 3048.52 11011.3 -816.849 14411.2)
(11167.1 -14.6197 3144.05 11001.3 -275.069 14411.2)
(11167.1 14.6197 3144.05 11001.3 275.069 14411.2)
(11157.1 42.0951 3048.52 11011.3 816.849 14411.2)
(11138.4 64.4914 2860.36 11030.2 1333.81 14411.3)
(11113 79.1091 2585.29 11055.4 1810.24 14411.2)
(11084.1 84.1853 2231.67 11084.1 2231.67 14411.1)
(11055.4 79.1091 1810.24 11113 2585.29 14411.2)
(11030.2 64.4914 1333.81 11138.4 2860.36 14411.3)
(11011.3 42.0951 816.849 11157.1 3048.52 14411.2)
(11001.3 14.6197 275.069 11167.1 3144.05 14411.2)
(11001.3 -14.6197 -275.069 11167.1 3144.05 14411.2)
(11011.3 -42.0951 -816.849 11157.1 3048.52 14411.2)
(11030.2 -64.4914 -1333.81 11138.4 2860.36 14411.3)
(11055.4 -79.1091 -1810.24 11113 2585.29 14411.2)
(11084.1 -84.1853 -2231.67 11084.1 2231.67 14411.1)
(11113 -79.1091 -2585.29 11055.4 1810.24 14411.2)
(11138.4 -64.4914 -2860.36 11030.2 1333.81 14411.3)
(11157.1 -42.0951 -3048.52 11011.3 816.849 14411.2)
(11167.1 -14.6197 -3144.05 11001.3 275.069 14411.2)
(18184.6 32.9822 -4007.9 17810.5 -350.646 21861)
(18161.9 94.9658 -3886.12 17832.9 -1041.28 21860.8)
(18119.4 145.493 -3646.26 17875.3 -1700.28 21860.8)
(18062.4 178.473 -3295.62 17932.4 -2307.61 21860.8)
(17997.4 189.927 -2844.84 17997.4 -2844.84 21860.8)
(17932.4 178.473 -2307.61 18062.4 -3295.62 21860.8)
(17875.3 145.493 -1700.28 18119.4 -3646.26 21860.8)
(17832.9 94.9658 -1041.28 18161.9 -3886.12 21860.8)
(17810.5 32.9822 -350.646 18184.6 -4007.9 21861)
(17810.5 -32.9822 350.646 18184.6 -4007.9 21861)
(17832.9 -94.9658 1041.28 18161.9 -3886.12 21860.8)
(17875.3 -145.493 1700.28 18119.4 -3646.26 21860.8)
(17932.4 -178.473 2307.61 18062.4 -3295.62 21860.8)
(17997.4 -189.927 2844.84 17997.4 -2844.84 21860.8)
(18062.4 -178.473 3295.62 17932.4 -2307.61 21860.8)
(18119.4 -145.493 3646.26 17875.3 -1700.28 21860.8)
(18161.9 -94.9658 3886.12 17832.9 -1041.28 21860.8)
(18184.6 -32.9822 4007.9 17810.5 -350.646 21861)
(18184.6 32.9822 4007.9 17810.5 350.646 21861)
(18161.9 94.9658 3886.12 17832.9 1041.28 21860.8)
(18119.4 145.493 3646.26 17875.3 1700.28 21860.8)
(18062.4 178.473 3295.62 17932.4 2307.61 21860.8)
(17997.4 189.927 2844.84 17997.4 2844.84 21860.8)
(17932.4 178.473 2307.61 18062.4 3295.62 21860.8)
(17875.3 145.493 1700.28 18119.4 3646.26 21860.8)
(17832.9 94.9658 1041.28 18161.9 3886.12 21860.8)
(17810.5 32.9822 350.646 18184.6 4007.9 21861)
(17810.5 -32.9822 -350.646 18184.6 4007.9 21861)
(17832.9 -94.9658 -1041.28 18161.9 3886.12 21860.8)
(17875.3 -145.493 -1700.28 18119.4 3646.26 21860.8)
(17932.4 -178.473 -2307.61 18062.4 3295.62 21860.8)
(17997.4 -189.927 -2844.84 17997.4 2844.84 21860.8)
(18062.4 -178.473 -3295.62 17932.4 2307.61 21860.8)
(18119.4 -145.493 -3646.26 17875.3 1700.28 21860.8)
(18161.9 -94.9658 -3886.12 17832.9 1041.28 21860.8)
(18184.6 -32.9822 -4007.9 17810.5 350.646 21861)
(32539.9 57.4771 -5268.1 31888 -460.9 36663.5)
(32500.6 165.495 -5108.03 31927.3 -1368.69 36663.4)
(32426.6 253.547 -4792.75 32001.1 -2234.89 36663.4)
(32327.1 311.022 -4331.85 32100.7 -3033.19 36663.4)
(32214 330.983 -3739.33 32214 -3739.33 36663.5)
(32100.7 311.022 -3033.19 32327.1 -4331.85 36663.4)
(32001.1 253.547 -2234.89 32426.6 -4792.75 36663.4)
(31927.3 165.495 -1368.69 32500.6 -5108.03 36663.4)
(31888 57.4771 -460.9 32539.9 -5268.1 36663.5)
(31888 -57.4771 460.9 32539.9 -5268.1 36663.5)
(31927.3 -165.495 1368.69 32500.6 -5108.03 36663.4)
(32001.1 -253.547 2234.89 32426.6 -4792.75 36663.4)
(32100.7 -311.022 3033.19 32327.1 -4331.85 36663.4)
(32214 -330.983 3739.33 32214 -3739.33 36663.5)
(32327.1 -311.022 4331.85 32100.7 -3033.19 36663.4)
(32426.6 -253.547 4792.75 32001.1 -2234.89 36663.4)
(32500.6 -165.495 5108.03 31927.3 -1368.69 36663.4)
(32539.9 -57.4771 5268.1 31888 -460.9 36663.5)
(32539.9 57.4771 5268.1 31888 460.9 36663.5)
(32500.6 165.495 5108.03 31927.3 1368.69 36663.4)
(32426.6 253.547 4792.75 32001.1 2234.89 36663.4)
(32327.1 311.022 4331.85 32100.7 3033.19 36663.4)
(32214 330.983 3739.33 32214 3739.33 36663.5)
(32100.7 311.022 3033.19 32327.1 4331.85 36663.4)
(32001.1 253.547 2234.89 32426.6 4792.75 36663.4)
(31927.3 165.495 1368.69 32500.6 5108.03 36663.4)
(31888 57.4771 460.9 32539.9 5268.1 36663.5)
(31888 -57.4771 -460.9 32539.9 5268.1 36663.5)
(31927.3 -165.495 -1368.69 32500.6 5108.03 36663.4)
(32001.1 -253.547 -2234.89 32426.6 4792.75 36663.4)
(32100.7 -311.022 -3033.19 32327.1 4331.85 36663.4)
(32214 -330.983 -3739.33 32214 3739.33 36663.5)
(32327.1 -311.022 -4331.85 32100.7 3033.19 36663.4)
(32426.6 -253.547 -4792.75 32001.1 2234.89 36663.4)
(32500.6 -165.495 -5108.03 31927.3 1368.69 36663.4)
(32539.9 -57.4771 -5268.1 31888 460.9 36663.5)
(-7692.75 -153.946 -2722.56 -5946.62 -238.194 -3077.75)
(-7587.48 -443.267 -2639.84 -6051.95 -707.346 -3077.77)
(-7389.52 -679.125 -2476.91 -6249.81 -1155 -3077.72)
(-7123.14 -833.072 -2238.71 -6516.71 -1567.57 -3077.98)
(-6819.97 -886.537 -1932.5 -6819.97 -1932.5 -3078.03)
(-6516.71 -833.072 -1567.57 -7123.14 -2238.71 -3077.98)
(-6249.81 -679.125 -1155 -7389.52 -2476.91 -3077.72)
(-6051.95 -443.267 -707.346 -7587.48 -2639.84 -3077.77)
(-5946.62 -153.946 -238.194 -7692.75 -2722.56 -3077.75)
(-5946.62 153.946 238.194 -7692.75 -2722.56 -3077.75)
(-6051.95 443.267 707.346 -7587.48 -2639.84 -3077.77)
(-6249.81 679.125 1155 -7389.52 -2476.91 -3077.72)
(-6516.71 833.072 1567.57 -7123.14 -2238.71 -3077.98)
(-6819.97 886.537 1932.5 -6819.97 -1932.5 -3078.03)
(-7123.14 833.072 2238.71 -6516.71 -1567.57 -3077.98)
(-7389.52 679.125 2476.91 -6249.81 -1155 -3077.72)
(-7587.48 443.267 2639.84 -6051.95 -707.346 -3077.77)
(-7692.75 153.946 2722.56 -5946.62 -238.194 -3077.75)
(-7692.75 -153.946 2722.56 -5946.62 238.194 -3077.75)
(-7587.48 -443.267 2639.84 -6051.95 707.346 -3077.77)
(-7389.52 -679.125 2476.91 -6249.81 1155 -3077.72)
(-7123.14 -833.072 2238.71 -6516.71 1567.57 -3077.98)
(-6819.97 -886.537 1932.5 -6819.97 1932.5 -3078.03)
(-6516.71 -833.072 1567.57 -7123.14 2238.71 -3077.98)
(-6249.81 -679.125 1155 -7389.52 2476.91 -3077.72)
(-6051.95 -443.267 707.346 -7587.48 2639.84 -3077.77)
(-5946.62 -153.946 238.194 -7692.75 2722.56 -3077.75)
(-5946.62 153.946 -238.194 -7692.75 2722.56 -3077.75)
(-6051.95 443.267 -707.346 -7587.48 2639.84 -3077.77)
(-6249.81 679.125 -1155 -7389.52 2476.91 -3077.72)
(-6516.71 833.072 -1567.57 -7123.14 2238.71 -3077.98)
(-6819.97 886.537 -1932.5 -6819.97 1932.5 -3078.03)
(-7123.14 833.072 -2238.71 -6516.71 1567.57 -3077.98)
(-7389.52 679.125 -2476.91 -6249.81 1155 -3077.72)
(-7587.48 443.267 -2639.84 -6051.95 707.346 -3077.77)
(-7692.75 153.946 -2722.56 -5946.62 238.194 -3077.75)
(-1210.72 -208.023 -3422.32 1148.79 -299.414 3989.02)
(-1068.39 -598.976 -3318.33 1006.53 -889.146 3989.06)
(-800.907 -917.689 -3113.52 739.153 -1451.86 3989.12)
(-440.388 -1125.71 -2814.11 379.065 -1970.46 3989.33)
(-30.7291 -1197.96 -2429.19 -30.7291 -2429.19 3989.27)
(379.065 -1125.71 -1970.46 -440.388 -2814.11 3989.33)
(739.153 -917.689 -1451.86 -800.907 -3113.52 3989.12)
(1006.53 -598.976 -889.146 -1068.39 -3318.33 3989.06)
(1148.79 -208.023 -299.414 -1210.72 -3422.32 3989.02)
(1148.79 208.023 299.414 -1210.72 -3422.32 3989.02)
(1006.53 598.976 889.146 -1068.39 -3318.33 3989.06)
(739.153 917.689 1451.86 -800.907 -3113.52 3989.12)
(379.065 1125.71 1970.46 -440.388 -2814.11 3989.33)
(-30.7291 1197.96 2429.19 -30.7291 -2429.19 3989.27)
(-440.388 1125.71 2814.11 379.065 -1970.46 3989.33)
(-800.907 917.689 3113.52 739.153 -1451.86 3989.12)
(-1068.39 598.976 3318.33 1006.53 -889.146 3989.06)
(-1210.72 208.023 3422.32 1148.79 -299.414 3989.02)
(-1210.72 -208.023 3422.32 1148.79 299.414 3989.02)
(-1068.39 -598.976 3318.33 1006.53 889.146 3989.06)
(-800.907 -917.689 3113.52 739.153 1451.86 3989.12)
(-440.388 -1125.71 2814.11 379.065 1970.46 3989.33)
(-30.7291 -1197.96 2429.19 -30.7291 2429.19 3989.27)
(379.065 -1125.71 1970.46 -440.388 2814.11 3989.33)
(739.153 -917.689 1451.86 -800.907 3113.52 3989.12)
(1006.53 -598.976 889.146 -1068.39 3318.33 3989.06)
(1148.79 -208.023 299.414 -1210.72 3422.32 3989.02)
(1148.79 208.023 -299.414 -1210.72 3422.32 3989.02)
(1006.53 598.976 -889.146 -1068.39 3318.33 3989.06)
(739.153 917.689 -1451.86 -800.907 3113.52 3989.12)
(379.065 1125.71 -1970.46 -440.388 2814.11 3989.33)
(-30.7291 1197.96 -2429.19 -30.7291 2429.19 3989.27)
(-440.388 1125.71 -2814.11 379.065 1970.46 3989.33)
(-800.907 917.689 -3113.52 739.153 1451.86 3989.12)
(-1068.39 598.976 -3318.33 1006.53 889.146 3989.06)
(-1210.72 208.023 -3422.32 1148.79 299.414 3989.02)
(20154.4 -323.716 -4517.57 23826.2 -395.236 26177.5)
(20375.7 -932.1 -4380.31 23604.6 -1173.7 26177.4)
(20791.9 -1428.06 -4109.95 23188.5 -1916.5 26177.4)
(21352.3 -1751.78 -3714.71 22627.5 -2601.07 26177.1)
(21990.1 -1864.21 -3206.61 21990.1 -3206.61 26177.3)
(22627.5 -1751.78 -2601.07 21352.3 -3714.71 26177.1)
(23188.5 -1428.06 -1916.5 20791.9 -4109.95 26177.4)
(23604.6 -932.1 -1173.7 20375.7 -4380.31 26177.4)
(23826.2 -323.716 -395.236 20154.4 -4517.57 26177.5)
(23826.2 323.716 395.236 20154.4 -4517.57 26177.5)
(23604.6 932.1 1173.7 20375.7 -4380.31 26177.4)
(23188.5 1428.06 1916.5 20791.9 -4109.95 26177.4)
(22627.5 1751.78 2601.07 21352.3 -3714.71 26177.1)
(21990.1 1864.21 3206.61 21990.1 -3206.61 26177.3)
(21352.3 1751.78 3714.71 22627.5 -2601.07 26177.1)
(20791.9 1428.06 4109.95 23188.5 -1916.5 26177.4)
(20375.7 932.1 4380.31 23604.6 -1173.7 26177.4)
(20154.4 323.716 4517.57 23826.2 -395.236 26177.5)
(20154.4 -323.716 4517.57 23826.2 395.236 26177.5)
(20375.7 -932.1 4380.31 23604.6 1173.7 26177.4)
(20791.9 -1428.06 4109.95 23188.5 1916.5 26177.4)
(21352.3 -1751.78 3714.71 22627.5 2601.07 26177.1)
(21990.1 -1864.21 3206.61 21990.1 3206.61 26177.3)
(22627.5 -1751.78 2601.07 21352.3 3714.71 26177.1)
(23188.5 -1428.06 1916.5 20791.9 4109.95 26177.4)
(23604.6 -932.1 1173.7 20375.7 4380.31 26177.4)
(23826.2 -323.716 395.236 20154.4 4517.57 26177.5)
(23826.2 323.716 -395.236 20154.4 4517.57 26177.5)
(23604.6 932.1 -1173.7 20375.7 4380.31 26177.4)
(23188.5 1428.06 -1916.5 20791.9 4109.95 26177.4)
(22627.5 1751.78 -2601.07 21352.3 3714.71 26177.1)
(21990.1 1864.21 -3206.61 21990.1 3206.61 26177.3)
(21352.3 1751.78 -3714.71 22627.5 2601.07 26177.1)
(20791.9 1428.06 -4109.95 23188.5 1916.5 26177.4)
(20375.7 932.1 -4380.31 23604.6 1173.7 26177.4)
(20154.4 323.716 -4517.57 23826.2 395.236 26177.5)
(-8101.67 -342.232 -2284.13 -4219.87 -199.837 -1662.29)
(-7867.6 -985.419 -2214.73 -4454.02 -593.436 -1662.34)
(-7427.49 -1509.75 -2078.03 -4893.83 -969.005 -1662.18)
(-6834.76 -1851.98 -1878.19 -5486.63 -1315.13 -1662.22)
(-6160.58 -1970.84 -1621.29 -6160.58 -1621.29 -1662.11)
(-5486.63 -1851.98 -1315.13 -6834.76 -1878.19 -1662.22)
(-4893.83 -1509.75 -969.005 -7427.49 -2078.03 -1662.18)
(-4454.02 -985.419 -593.436 -7867.6 -2214.73 -1662.34)
(-4219.87 -342.232 -199.837 -8101.67 -2284.13 -1662.29)
(-4219.87 342.232 199.837 -8101.67 -2284.13 -1662.29)
(-4454.02 985.419 593.436 -7867.6 -2214.73 -1662.34)
(-4893.83 1509.75 969.005 -7427.49 -2078.03 -1662.18)
(-5486.63 1851.98 1315.13 -6834.76 -1878.19 -1662.22)
(-6160.58 1970.84 1621.29 -6160.58 -1621.29 -1662.11)
(-6834.76 1851.98 1878.19 -5486.63 -1315.13 -1662.22)
(-7427.49 1509.75 2078.03 -4893.83 -969.005 -1662.18)
(-7867.6 985.419 2214.73 -4454.02 -593.436 -1662.34)
(-8101.67 342.232 2284.13 -4219.87 -199.837 -1662.29)
(-8101.67 -342.232 2284.13 -4219.87 199.837 -1662.29)
(-7867.6 -985.419 2214.73 -4454.02 593.436 -1662.34)
(-7427.49 -1509.75 2078.03 -4893.83 969.005 -1662.18)
(-6834.76 -1851.98 1878.19 -5486.63 1315.13 -1662.22)
(-6160.58 -1970.84 1621.29 -6160.58 1621.29 -1662.11)
(-5486.63 -1851.98 1315.13 -6834.76 1878.19 -1662.22)
(-4893.83 -1509.75 969.005 -7427.49 2078.03 -1662.18)
(-4454.02 -985.419 593.436 -7867.6 2214.73 -1662.34)
(-4219.87 -342.232 199.837 -8101.67 2284.13 -1662.29)
(-4219.87 342.232 -199.837 -8101.67 2284.13 -1662.29)
(-4454.02 985.419 -593.436 -7867.6 2214.73 -1662.34)
(-4893.83 1509.75 -969.005 -7427.49 2078.03 -1662.18)
(-5486.63 1851.98 -1315.13 -6834.76 1878.19 -1662.22)
(-6160.58 1970.84 -1621.29 -6160.58 1621.29 -1662.11)
(-6834.76 1851.98 -1878.19 -5486.63 1315.13 -1662.22)
(-7427.49 1509.75 -2078.03 -4893.83 969.005 -1662.18)
(-7867.6 985.419 -2214.73 -4454.02 593.436 -1662.34)
(-8101.67 342.232 -2284.13 -4219.87 199.837 -1662.29)
(-2762.06 -495.382 -2798.04 2856.82 -244.797 4463.3)
(-2423.1 -1426.39 -2713.02 2518.06 -726.955 4463.41)
(-1786.31 -2185.36 -2545.57 1881.14 -1187.02 4463.34)
(-928.283 -2680.74 -2300.77 1023.14 -1611.02 4463.34)
(47.1779 -2852.78 -1986.07 47.1779 -1986.07 4463.09)
(1023.14 -2680.74 -1611.02 -928.283 -2300.77 4463.34)
(1881.14 -2185.36 -1187.02 -1786.31 -2545.57 4463.34)
(2518.06 -1426.39 -726.955 -2423.1 -2713.02 4463.41)
(2856.82 -495.382 -244.797 -2762.06 -2798.04 4463.3)
(2856.82 495.382 244.797 -2762.06 -2798.04 4463.3)
(2518.06 1426.39 726.955 -2423.1 -2713.02 4463.41)
(1881.14 2185.36 1187.02 -1786.31 -2545.57 4463.34)
(1023.14 2680.74 1611.02 -928.283 -2300.77 4463.34)
(47.1779 2852.78 1986.07 47.1779 -1986.07 4463.09)
(-928.283 2680.74 2300.77 1023.14 -1611.02 4463.34)
(-1786.31 2185.36 2545.57 1881.14 -1187.02 4463.34)
(-2423.1 1426.39 2713.02 2518.06 -726.955 4463.41)
(-2762.06 495.382 2798.04 2856.82 -244.797 4463.3)
(-2762.06 -495.382 2798.04 2856.82 244.797 4463.3)
(-2423.1 -1426.39 2713.02 2518.06 726.955 4463.41)
(-1786.31 -2185.36 2545.57 1881.14 1187.02 4463.34)
(-928.283 -2680.74 2300.77 1023.14 1611.02 4463.34)
(47.1779 -2852.78 1986.07 47.1779 1986.07 4463.09)
(1023.14 -2680.74 1611.02 -928.283 2300.77 4463.34)
(1881.14 -2185.36 1187.02 -1786.31 2545.57 4463.34)
(2518.06 -1426.39 726.955 -2423.1 2713.02 4463.41)
(2856.82 -495.382 244.797 -2762.06 2798.04 4463.3)
(2856.82 495.382 -244.797 -2762.06 2798.04 4463.3)
(2518.06 1426.39 -726.955 -2423.1 2713.02 4463.41)
(1881.14 2185.36 -1187.02 -1786.31 2545.57 4463.34)
(1023.14 2680.74 -1611.02 -928.283 2300.77 4463.34)
(47.1779 2852.78 -1986.07 47.1779 1986.07 4463.09)
(-928.283 2680.74 -2300.77 1023.14 1611.02 4463.34)
(-1786.31 2185.36 -2545.57 1881.14 1187.02 4463.34)
(-2423.1 1426.39 -2713.02 2518.06 726.955 4463.41)
(-2762.06 495.382 -2798.04 2856.82 244.797 4463.3)
(22924.8 -825.194 -3707.38 32284.6 -324.354 31581.4)
(23489.3 -2376.05 -3594.73 31720.1 -963.21 31581.4)
(24550.2 -3640.32 -3372.86 30659.4 -1572.8 31581.5)
(25979.5 -4465.52 -3048.5 29230.1 -2134.59 31581.5)
(27604.9 -4752.11 -2631.53 27604.9 -2631.53 31581.6)
(29230.1 -4465.52 -2134.59 25979.5 -3048.5 31581.5)
(30659.4 -3640.32 -1572.8 24550.2 -3372.86 31581.5)
(31720.1 -2376.05 -963.21 23489.3 -3594.73 31581.4)
(32284.6 -825.194 -324.354 22924.8 -3707.38 31581.4)
(32284.6 825.194 324.354 22924.8 -3707.38 31581.4)
(31720.1 2376.05 963.21 23489.3 -3594.73 31581.4)
(30659.4 3640.32 1572.8 24550.2 -3372.86 31581.5)
(29230.1 4465.52 2134.59 25979.5 -3048.5 31581.5)
(27604.9 4752.11 2631.53 27604.9 -2631.53 31581.6)
(25979.5 4465.52 3048.5 29230.1 -2134.59 31581.5)
(24550.2 3640.32 3372.86 30659.4 -1572.8 31581.5)
(23489.3 2376.05 3594.73 31720.1 -963.21 31581.4)
(22924.8 825.194 3707.38 32284.6 -324.354 31581.4)
(22924.8 -825.194 3707.38 32284.6 324.354 31581.4)
(23489.3 -2376.05 3594.73 31720.1 963.21 31581.4)
(24550.2 -3640.32 3372.86 30659.4 1572.8 31581.5)
(25979.5 -4465.52 3048.5 29230.1 2134.59 31581.5)
(27604.9 -4752.11 2631.53 27604.9 2631.53 31581.6)
(29230.1 -4465.52 2134.59 25979.5 3048.5 31581.5)
(30659.4 -3640.32 1572.8 24550.2 3372.86 31581.5)
(31720.1 -2376.05 963.21 23489.3 3594.73 31581.4)
(32284.6 -825.194 324.354 22924.8 3707.38 31581.4)
(32284.6 825.194 -324.354 22924.8 3707.38 31581.4)
(31720.1 2376.05 -963.21 23489.3 3594.73 31581.4)
(30659.4 3640.32 -1572.8 24550.2 3372.86 31581.5)
(29230.1 4465.52 -2134.59 25979.5 3048.5 31581.5)
(27604.9 4752.11 -2631.53 27604.9 2631.53 31581.6)
(25979.5 4465.52 -3048.5 29230.1 2134.59 31581.5)
(24550.2 3640.32 -3372.86 30659.4 1572.8 31581.5)
(23489.3 2376.05 -3594.73 31720.1 963.21 31581.4)
(22924.8 825.194 -3707.38 32284.6 324.354 31581.4)
(-8704.01 -529.284 -1437.87 -2700.56 -125.799 -1176.17)
(-8341.75 -1524.01 -1394.18 -3062.41 -373.572 -1175.97)
(-7661.42 -2334.93 -1308.13 -3742.95 -609.993 -1176.07)
(-6744.76 -2864.21 -1182.33 -4659.78 -827.88 -1176.16)
(-5702.18 -3048.03 -1020.61 -5702.18 -1020.61 -1176.07)
(-4659.78 -2864.21 -827.88 -6744.76 -1182.33 -1176.16)
(-3742.95 -2334.93 -609.993 -7661.42 -1308.13 -1176.07)
(-3062.41 -1524.01 -373.572 -8341.75 -1394.18 -1175.97)
(-2700.56 -529.284 -125.799 -8704.01 -1437.87 -1176.17)
(-2700.56 529.284 125.799 -8704.01 -1437.87 -1176.17)
(-3062.41 1524.01 373.572 -8341.75 -1394.18 -1175.97)
(-3742.95 2334.93 609.993 -7661.42 -1308.13 -1176.07)
(-4659.78 2864.21 827.88 -6744.76 -1182.33 -1176.16)
(-5702.18 3048.03 1020.61 -5702.18 -1020.61 -1176.07)
(-6744.76 2864.21 1182.33 -4659.78 -827.88 -1176.16)
(-7661.42 2334.93 1308.13 -3742.95 -609.993 -1176.07)
(-8341.75 1524.01 1394.18 -3062.41 -373.572 -1175.97)
(-8704.01 529.284 1437.87 -2700.56 -125.799 -1176.17)
(-8704.01 -529.284 1437.87 -2700.56 125.799 -1176.17)
(-8341.75 -1524.01 1394.18 -3062.41 373.572 -1175.97)
(-7661.42 -2334.93 1308.13 -3742.95 609.993 -1176.07)
(-6744.76 -2864.21 1182.33 -4659.78 827.88 -1176.16)
(-5702.18 -3048.03 1020.61 -5702.18 1020.61 -1176.07)
(-4659.78 -2864.21 827.88 -6744.76 1182.33 -1176.16)
(-3742.95 -2334.93 609.993 -7661.42 1308.13 -1176.07)
(-3062.41 -1524.01 373.572 -8341.75 1394.18 -1175.97)
(-2700.56 -529.284 125.799 -8704.01 1437.87 -1176.17)
(-2700.56 529.284 -125.799 -8704.01 1437.87 -1176.17)
(-3062.41 1524.01 -373.572 -8341.75 1394.18 -1175.97)
(-3742.95 2334.93 -609.993 -7661.42 1308.13 -1176.07)
(-4659.78 2864.21 -827.88 -6744.76 1182.33 -1176.16)
(-5702.18 3048.03 -1020.61 -5702.18 1020.61 -1176.07)
(-6744.76 2864.21 -1182.33 -4659.78 827.88 -1176.16)
(-7661.42 2334.93 -1308.13 -3742.95 609.993 -1176.07)
(-8341.75 1524.01 -1394.18 -3062.41 373.572 -1175.97)
(-8704.01 529.284 -1437.87 -2700.56 125.799 -1176.17)
(-3572.78 -793.257 -1779.12 5424.78 -155.656 5078.45)
(-3030.21 -2284.09 -1725.07 4882.11 -462.234 5078.4)
(-2010.39 -3499.43 -1618.59 3862.35 -754.766 5078.42)
(-636.486 -4292.69 -1462.94 2488.33 -1024.37 5078.37)
(926.131 -4568.19 -1262.84 926.131 -1262.84 5078.57)
(2488.33 -4292.69 -1024.37 -636.486 -1462.94 5078.37)
(3862.35 -3499.43 -754.766 -2010.39 -1618.59 5078.42)
(4882.11 -2284.09 -462.234 -3030.21 -1725.07 5078.4)
(5424.78 -793.257 -155.656 -3572.78 -1779.12 5078.45)
(5424.78 793.257 155.656 -3572.78 -1779.12 5078.45)
(4882.11 2284.09 462.234 -3030.21 -1725.07 5078.4)
(3862.35 3499.43 754.766 -2010.39 -1618.59 5078.42)
(2488.33 4292.69 1024.37 -636.486 -1462.94 5078.37)
(926.131 4568.19 1262.84 926.131 -1262.84 5078.57)
(-636.486 4292.69 1462.94 2488.33 -1024.37 5078.37)
(-2010.39 3499.43 1618.59 3862.35 -754.766 5078.42)
(-3030.21 2284.09 1725.07 4882.11 -462.234 5078.4)
(-3572.78 793.257 1779.12 5424.78 -155.656 5078.45)
(-3572.78 -793.257 1779.12 5424.78 155.656 5078.45)
(-3030.21 -2284.09 1725.07 4882.11 462.234 5078.4)
(-2010.39 -3499.43 1618.59 3862.35 754.766 5078.42)
(-636.486 -4292.69 1462.94 2488.33 1024.37 5078.37)
(926.131 -4568.19 1262.84 926.131 1262.84 5078.57)
(2488.33 -4292.69 1024.37 -636.486 1462.94 5078.37)
(3862.35 -3499.43 754.766 -2010.39 1618.59 5078.42)
(4882.11 -2284.09 462.234 -3030.21 1725.07 5078.4)
(5424.78 -793.257 155.656 -3572.78 1779.12 5078.45)
(5424.78 793.257 -155.656 -3572.78 1779.12 5078.45)
(4882.11 2284.09 -462.234 -3030.21 1725.07 5078.4)
(3862.35 3499.43 -754.766 -2010.39 1618.59 5078.42)
(2488.33 4292.69 -1024.37 -636.486 1462.94 5078.37)
(926.131 4568.19 -1262.84 926.131 1262.84 5078.57)
(-636.486 4292.69 -1462.94 2488.33 1024.37 5078.37)
(-2010.39 3499.43 -1618.59 3862.35 754.766 5078.42)
(-3030.21 2284.09 -1725.07 4882.11 462.234 5078.4)
(-3572.78 793.257 -1779.12 5424.78 155.656 5078.45)
(25261.9 -1396.17 -2476.48 41098.1 -216.667 36226.1)
(26217.2 -4020.13 -2401.24 40143.3 -643.415 36226.4)
(28011.9 -6159.19 -2253.03 38348.3 -1050.61 36226.2)
(30430 -7555.36 -2036.37 35929.9 -1425.88 36226)
(33180.2 -8040.25 -1757.83 33180.2 -1757.83 36226.2)
(35929.9 -7555.36 -1425.88 30430 -2036.37 36226)
(38348.3 -6159.19 -1050.61 28011.9 -2253.03 36226.2)
(40143.3 -4020.13 -643.415 26217.2 -2401.24 36226.4)
(41098.1 -1396.17 -216.667 25261.9 -2476.48 36226.1)
(41098.1 1396.17 216.667 25261.9 -2476.48 36226.1)
(40143.3 4020.13 643.415 26217.2 -2401.24 36226.4)
(38348.3 6159.19 1050.61 28011.9 -2253.03 36226.2)
(35929.9 7555.36 1425.88 30430 -2036.37 36226)
(33180.2 8040.25 1757.83 33180.2 -1757.83 36226.2)
(30430 7555.36 2036.37 35929.9 -1425.88 36226)
(28011.9 6159.19 2253.03 38348.3 -1050.61 36226.2)
(26217.2 4020.13 2401.24 40143.3 -643.415 36226.4)
(25261.9 1396.17 2476.48 41098.1 -216.667 36226.1)
(25261.9 -1396.17 2476.48 41098.1 216.667 36226.1)
(26217.2 -4020.13 2401.24 40143.3 643.415 36226.4)
(28011.9 -6159.19 2253.03 38348.3 1050.61 36226.2)
(30430 -7555.36 2036.37 35929.9 1425.88 36226)
(33180.2 -8040.25 1757.83 33180.2 1757.83 36226.2)
(35929.9 -7555.36 1425.88 30430 2036.37 36226)
(38348.3 -6159.19 1050.61 28011.9 2253.03 36226.2)
(40143.3 -4020.13 643.415 26217.2 2401.24 36226.4)
(41098.1 -1396.17 216.667 25261.9 2476.48 36226.1)
(41098.1 1396.17 -216.667 25261.9 2476.48 36226.1)
(40143.3 4020.13 -643.415 26217.2 2401.24 36226.4)
(38348.3 6159.19 -1050.61 28011.9 2253.03 36226.2)
(35929.9 7555.36 -1425.88 30430 2036.37 36226)
(33180.2 8040.25 -1757.83 33180.2 1757.83 36226.2)
(30430 7555.36 -2036.37 35929.9 1425.88 36226)
(28011.9 6159.19 -2253.03 38348.3 1050.61 36226.2)
(26217.2 4020.13 -2401.24 40143.3 643.415 36226.4)
(25261.9 1396.17 -2476.48 41098.1 216.667 36226.1)
(-9334.88 -676.142 -403.253 -1665.7 -35.2821 -1479.76)
(-8872.34 -1946.87 -391.002 -2128.18 -104.774 -1479.73)
(-8003.16 -2982.78 -366.868 -2997.47 -171.079 -1479.79)
(-6831.98 -3658.92 -331.589 -4168.5 -232.186 -1479.72)
(-5500.38 -3893.75 -286.236 -5500.38 -286.236 -1479.86)
(-4168.5 -3658.92 -232.186 -6831.98 -331.589 -1479.72)
(-2997.47 -2982.78 -171.079 -8003.16 -366.868 -1479.79)
(-2128.18 -1946.87 -104.774 -8872.34 -391.002 -1479.73)
(-1665.7 -676.142 -35.2821 -9334.88 -403.253 -1479.76)
(-1665.7 676.142 35.2821 -9334.88 -403.253 -1479.76)
(-2128.18 1946.87 104.774 -8872.34 -391.002 -1479.73)
(-2997.47 2982.78 171.079 -8003.16 -366.868 -1479.79)
(-4168.5 3658.92 232.186 -6831.98 -331.589 -1479.72)
(-5500.38 3893.75 286.236 -5500.38 -286.236 -1479.86)
(-6831.98 3658.92 331.589 -4168.5 -232.186 -1479.72)
(-8003.16 2982.78 366.868 -2997.47 -171.079 -1479.79)
(-8872.34 1946.87 391.002 -2128.18 -104.774 -1479.73)
(-9334.88 676.142 403.253 -1665.7 -35.2821 -1479.76)
(-9334.88 -676.142 403.253 -1665.7 35.2821 -1479.76)
(-8872.34 -1946.87 391.002 -2128.18 104.774 -1479.73)
(-8003.16 -2982.78 366.868 -2997.47 171.079 -1479.79)
(-6831.98 -3658.92 331.589 -4168.5 232.186 -1479.72)
(-5500.38 -3893.75 286.236 -5500.38 286.236 -1479.86)
(-4168.5 -3658.92 232.186 -6831.98 331.589 -1479.72)
(-2997.47 -2982.78 171.079 -8003.16 366.868 -1479.79)
(-2128.18 -1946.87 104.774 -8872.34 391.002 -1479.73)
(-1665.7 -676.142 35.2821 -9334.88 403.253 -1479.76)
(-1665.7 676.142 -35.2821 -9334.88 403.253 -1479.76)
(-2128.18 1946.87 -104.774 -8872.34 391.002 -1479.73)
(-2997.47 2982.78 -171.079 -8003.16 366.868 -1479.79)
(-4168.5 3658.92 -232.186 -6831.98 331.589 -1479.72)
(-5500.38 3893.75 -286.236 -5500.38 286.236 -1479.86)
(-6831.98 3658.92 -331.589 -4168.5 232.186 -1479.72)
(-8003.16 2982.78 -366.868 -2997.47 171.079 -1479.79)
(-8872.34 1946.87 -391.002 -2128.18 104.774 -1479.73)
(-9334.88 676.142 -403.253 -1665.7 35.2821 -1479.76)
(-3690.1 -1045.16 -542.643 8164.75 -47.4778 5666.58)
(-2974.97 -3009.44 -526.154 7450 -140.989 5666.77)
(-1631.5 -4610.72 -493.676 6106.2 -230.215 5666.61)
(178.766 -5655.89 -446.204 4295.91 -312.44 5666.59)
(2237.44 -6018.87 -385.174 2237.44 -385.174 5666.69)
(4295.91 -5655.89 -312.44 178.766 -446.204 5666.59)
(6106.2 -4610.72 -230.215 -1631.5 -493.676 5666.61)
(7450 -3009.44 -140.989 -2974.97 -526.154 5666.77)
(8164.75 -1045.16 -47.4778 -3690.1 -542.643 5666.58)
(8164.75 1045.16 47.4778 -3690.1 -542.643 5666.58)
(7450 3009.44 140.989 -2974.97 -526.154 5666.77)
(6106.2 4610.72 230.215 -1631.5 -493.676 5666.61)
(4295.91 5655.89 312.44 178.766 -446.204 5666.59)
(2237.44 6018.87 385.174 2237.44 -385.174 5666.69)
(178.766 5655.89 446.204 4295.91 -312.44 5666.59)
(-1631.5 4610.72 493.676 6106.2 -230.215 5666.61)
(-2974.97 3009.44 526.154 7450 -140.989 5666.77)
(-3690.1 1045.16 542.643 8164.75 -47.4778 5666.58)
(-3690.1 -1045.16 542.643 8164.75 47.4778 5666.58)
(-2974.97 -3009.44 526.154 7450 140.989 5666.77)
(-1631.5 -4610.72 493.676 6106.2 230.215 5666.61)
(178.766 -5655.89 446.204 4295.91 312.44 5666.59)
(2237.44 -6018.87 385.174 2237.44 385.174 5666.69)
(4295.91 -5655.89 312.44 178.766 446.204 5666.59)
(6106.2 -4610.72 230.215 -1631.5 493.676 5666.61)
(7450 -3009.44 140.989 -2974.97 526.154 5666.77)
(8164.75 -1045.16 47.4778 -3690.1 542.643 5666.58)
(8164.75 1045.16 -47.4778 -3690.1 542.643 5666.58)
(7450 3009.44 -140.989 -2974.97 526.154 5666.77)
(6106.2 4610.72 -230.215 -1631.5 493.676 5666.61)
(4295.91 5655.89 -312.44 178.766 446.204 5666.59)
(2237.44 6018.87 -385.174 2237.44 385.174 5666.69)
(178.766 5655.89 -446.204 4295.91 312.44 5666.59)
(-1631.5 4610.72 -493.676 6106.2 230.215 5666.61)
(-2974.97 3009.44 -526.154 7450 140.989 5666.77)
(-3690.1 1045.16 -542.643 8164.75 47.4778 5666.58)
(27395.7 -1941.83 -873.079 49421.1 -76.3872 40031.9)
(28724 -5591.3 -846.552 48092.8 -226.842 40031.8)
(31220.3 -8566.37 -794.3 45596.4 -370.402 40031.8)
(34583.7 -10508.2 -717.92 42233 -502.699 40031.8)
(38408.2 -11182.6 -619.724 38408.2 -619.724 40031.7)
(42233 -10508.2 -502.699 34583.7 -717.92 40031.8)
(45596.4 -8566.37 -370.402 31220.3 -794.3 40031.8)
(48092.8 -5591.3 -226.842 28724 -846.552 40031.8)
(49421.1 -1941.83 -76.3872 27395.7 -873.079 40031.9)
(49421.1 1941.83 76.3872 27395.7 -873.079 40031.9)
(48092.8 5591.3 226.842 28724 -846.552 40031.8)
(45596.4 8566.37 370.402 31220.3 -794.3 40031.8)
(42233 10508.2 502.699 34583.7 -717.92 40031.8)
(38408.2 11182.6 619.724 38408.2 -619.724 40031.7)
(34583.7 10508.2 717.92 42233 -502.699 40031.8)
(31220.3 8566.37 794.3 45596.4 -370.402 40031.8)
(28724 5591.3 846.552 48092.8 -226.842 40031.8)
(27395.7 1941.83 873.079 49421.1 -76.3872 40031.9)
(27395.7 -1941.83 873.079 49421.1 76.3872 40031.9)
(28724 -5591.3 846.552 48092.8 226.842 40031.8)
(31220.3 -8566.37 794.3 45596.4 370.402 40031.8)
(34583.7 -10508.2 717.92 42233 502.699 40031.8)
(38408.2 -11182.6 619.724 38408.2 619.724 40031.7)
(42233 -10508.2 502.699 34583.7 717.92 40031.8)
(45596.4 -8566.37 370.402 31220.3 794.3 40031.8)
(48092.8 -5591.3 226.842 28724 846.552 40031.8)
(49421.1 -1941.83 76.3872 27395.7 873.079 40031.9)
(49421.1 1941.83 -76.3872 27395.7 873.079 40031.9)
(48092.8 5591.3 -226.842 28724 846.552 40031.8)
(45596.4 8566.37 -370.402 31220.3 794.3 40031.8)
(42233 10508.2 -502.699 34583.7 717.92 40031.8)
(38408.2 11182.6 -619.724 38408.2 619.724 40031.7)
(34583.7 10508.2 -717.92 42233 502.699 40031.8)
(31220.3 8566.37 -794.3 45596.4 370.402 40031.8)
(28724 5591.3 -846.552 48092.8 226.842 40031.8)
(27395.7 1941.83 -873.079 49421.1 76.3872 40031.9)
(-9949.7 -756.64 619.606 -1367.47 54.2066 -2428.93)
(-9431.94 -2178.66 600.781 -1884.86 160.973 -2428.75)
(-8459.28 -3337.89 563.7 -2857.64 262.851 -2428.81)
(-7148.68 -4094.53 509.49 -4168.11 356.741 -2428.75)
(-5658.34 -4357.31 439.797 -5658.34 439.797 -2428.68)
(-4168.11 -4094.53 356.741 -7148.68 509.49 -2428.75)
(-2857.64 -3337.89 262.851 -8459.28 563.7 -2428.81)
(-1884.86 -2178.66 160.973 -9431.94 600.781 -2428.75)
(-1367.47 -756.64 54.2066 -9949.7 619.606 -2428.93)
(-1367.47 756.64 -54.2066 -9949.7 619.606 -2428.93)
(-1884.86 2178.66 -160.973 -9431.94 600.781 -2428.75)
(-2857.64 3337.89 -262.851 -8459.28 563.7 -2428.81)
(-4168.11 4094.53 -356.741 -7148.68 509.49 -2428.75)
(-5658.34 4357.31 -439.797 -5658.34 439.797 -2428.68)
(-7148.68 4094.53 -509.49 -4168.11 356.741 -2428.75)
(-8459.28 3337.89 -563.7 -2857.64 262.851 -2428.81)
(-9431.94 2178.66 -600.781 -1884.86 160.973 -2428.75)
(-9949.7 756.64 -619.606 -1367.47 54.2066 -2428.93)
(-9949.7 -756.64 -619.606 -1367.47 -54.2066 -2428.93)
(-9431.94 -2178.66 -600.781 -1884.86 -160.973 -2428.75)