/*--------------------------------*- C++ -*----------------------------------*\
| =========                 |                                                 |
| \\      /  F ield         | OpenFOAM: The Open Source CFD Toolbox           |
|  \\    /   O peration     | Version:  2312                                  |
|   \\  /    A nd           | Website:  www.openfoam.com                      |
|    \\/     M anipulation  |                                                 |
\*---------------------------------------------------------------------------*/
FoamFile
{
    version     2.0;
    format      ascii;
    arch        "LSB;label=32;scalar=64";
    class       volVectorField;
    location    "0.9";
    object      D;
}
// * * * * * * * * * * * * * * * * * * * * * * * * * * * * * * * * * * * * * //

dimensions      [0 1 0 0 0 0 0];

internalField   nonuniform List<vector> 
1620
(
(0.000172203 -0.000292546 4.95931e-05)
(0.000220387 -0.000258198 4.95935e-05)
(0.000261875 -0.000216006 4.95936e-05)
(0.000295406 -0.00016725 4.95934e-05)
(0.00031996 -0.000113413 4.95935e-05)
(0.000334793 -5.61289e-05 4.95934e-05)
(0.000339453 2.8598e-06 4.95928e-05)
(0.000333799 6.17615e-05 4.95926e-05)
(0.000318004 0.000118787 4.95929e-05)
(0.000292546 0.000172203 4.95931e-05)
(0.000258198 0.000220387 4.95935e-05)
(0.000216006 0.000261875 4.95936e-05)
(0.00016725 0.000295406 4.95934e-05)
(0.000113413 0.00031996 4.95935e-05)
(5.61289e-05 0.000334793 4.95934e-05)
(-2.8598e-06 0.000339453 4.95928e-05)
(-6.17615e-05 0.000333799 4.95926e-05)
(-0.000118787 0.000318004 4.95929e-05)
(-0.000172203 0.000292546 4.95931e-05)
(-0.000220387 0.000258198 4.95935e-05)
(-0.000261875 0.000216006 4.95936e-05)
(-0.000295406 0.00016725 4.95934e-05)
(-0.00031996 0.000113413 4.95935e-05)
(-0.000334793 5.61289e-05 4.95934e-05)
(-0.000339453 -2.8598e-06 4.95928e-05)
(-0.000333799 -6.17615e-05 4.95926e-05)
(-0.000318004 -0.000118787 4.95929e-05)
(-0.000292546 -0.000172203 4.95931e-05)
(-0.000258198 -0.000220387 4.95935e-05)
(-0.000216006 -0.000261875 4.95936e-05)
(-0.00016725 -0.000295406 4.95934e-05)
(-0.000113413 -0.00031996 4.95935e-05)
(-5.61289e-05 -0.000334793 4.95934e-05)
(2.8598e-06 -0.000339453 4.95928e-05)
(6.17615e-05 -0.000333799 4.95926e-05)
(0.000118787 -0.000318004 4.95929e-05)
(0.000109681 -0.000345129 8.31926e-05)
(0.000167946 -0.00032084 8.31929e-05)
(0.000221107 -0.000286802 8.31929e-05)
(0.000267551 -0.00024405 8.31929e-05)
(0.000305866 -0.000193882 8.31931e-05)
(0.000334885 -0.000137823 8.3193e-05)
(0.000353731 -7.75774e-05 8.31927e-05)
(0.000361828 -1.49745e-05 8.31926e-05)
(0.000358932 4.80837e-05 8.31927e-05)
(0.000345129 0.000109681 8.31926e-05)
(0.00032084 0.000167946 8.31929e-05)
(0.000286802 0.000221107 8.31929e-05)
(0.00024405 0.000267551 8.31929e-05)
(0.000193882 0.000305866 8.31931e-05)
(0.000137823 0.000334885 8.3193e-05)
(7.75774e-05 0.000353731 8.31927e-05)
(1.49745e-05 0.000361828 8.31926e-05)
(-4.80837e-05 0.000358932 8.31927e-05)
(-0.000109681 0.000345129 8.31926e-05)
(-0.000167946 0.00032084 8.31929e-05)
(-0.000221107 0.000286802 8.31929e-05)
(-0.000267551 0.00024405 8.31929e-05)
(-0.000305866 0.000193882 8.31931e-05)
(-0.000334885 0.000137823 8.3193e-05)
(-0.000353731 7.75774e-05 8.31927e-05)
(-0.000361828 1.49745e-05 8.31926e-05)
(-0.000358932 -4.80837e-05 8.31927e-05)
(-0.000345129 -0.000109681 8.31926e-05)
(-0.00032084 -0.000167946 8.31929e-05)
(-0.000286802 -0.000221107 8.31929e-05)
(-0.00024405 -0.000267551 8.31929e-05)
(-0.000193882 -0.000305866 8.31931e-05)
(-0.000137823 -0.000334885 8.3193e-05)
(-7.75774e-05 -0.000353731 8.31927e-05)
(-1.49745e-05 -0.000361828 8.31926e-05)
(4.80837e-05 -0.000358932 8.31927e-05)
(4.78781e-06 -0.000394688 0.000101485)
(7.3252e-05 -0.000387861 0.000101484)
(0.000139491 -0.000369249 0.000101485)
(0.000201491 -0.000339416 0.000101485)
(0.000257369 -0.000299272 0.000101485)
(0.000305427 -0.000250033 0.000101485)
(0.000344205 -0.000193198 0.000101485)
(0.000372524 -0.000130492 0.000101485)
(0.000389524 -6.38217e-05 0.000101485)
(0.000394688 4.78781e-06 0.000101485)
(0.000387861 7.3252e-05 0.000101484)
(0.000369249 0.000139491 0.000101485)
(0.000339416 0.000201491 0.000101485)
(0.000299272 0.000257369 0.000101485)
(0.000250033 0.000305427 0.000101485)
(0.000193198 0.000344205 0.000101485)
(0.000130492 0.000372524 0.000101485)
(6.38217e-05 0.000389524 0.000101485)
(-4.78781e-06 0.000394688 0.000101485)
(-7.3252e-05 0.000387861 0.000101484)
(-0.000139491 0.000369249 0.000101485)
(-0.000201491 0.000339416 0.000101485)
(-0.000257369 0.000299272 0.000101485)
(-0.000305427 0.000250033 0.000101485)
(-0.000344205 0.000193198 0.000101485)
(-0.000372524 0.000130492 0.000101485)
(-0.000389524 6.38217e-05 0.000101485)
(-0.000394688 -4.78781e-06 0.000101485)
(-0.000387861 -7.3252e-05 0.000101484)
(-0.000369249 -0.000139491 0.000101485)
(-0.000339416 -0.000201491 0.000101485)
(-0.000299272 -0.000257369 0.000101485)
(-0.000250033 -0.000305427 0.000101485)
(-0.000193198 -0.000344205 0.000101485)
(-0.000130492 -0.000372524 0.000101485)
(-6.38217e-05 -0.000389524 0.000101485)
(0.000382288 -0.000895297 0.000197166)
(0.000531947 -0.000815312 0.000197167)
(0.000665444 -0.000710554 0.000197168)
(0.00077872 -0.000584205 0.000197168)
(0.000868336 -0.000440106 0.000197168)
(0.000931567 -0.000282635 0.000197167)
(0.000966494 -0.000116577 0.000197166)
(0.000972054 5.30243e-05 0.000197166)
(0.000948079 0.000221014 0.000197166)
(0.000895297 0.000382288 0.000197166)
(0.000815312 0.000531947 0.000197167)
(0.000710554 0.000665444 0.000197168)
(0.000584205 0.00077872 0.000197168)
(0.000440106 0.000868336 0.000197168)
(0.000282635 0.000931567 0.000197167)
(0.000116577 0.000966494 0.000197166)
(-5.30243e-05 0.000972054 0.000197166)
(-0.000221014 0.000948079 0.000197166)
(-0.000382288 0.000895297 0.000197166)
(-0.000531947 0.000815312 0.000197167)
(-0.000665444 0.000710554 0.000197168)
(-0.00077872 0.000584205 0.000197168)
(-0.000868336 0.000440106 0.000197168)
(-0.000931567 0.000282635 0.000197167)
(-0.000966494 0.000116577 0.000197166)
(-0.000972054 -5.30243e-05 0.000197166)
(-0.000948079 -0.000221014 0.000197166)
(-0.000895297 -0.000382288 0.000197166)
(-0.000815312 -0.000531947 0.000197167)
(-0.000710554 -0.000665444 0.000197168)
(-0.000584205 -0.00077872 0.000197168)
(-0.000440106 -0.000868336 0.000197168)
(-0.000282635 -0.000931567 0.000197167)
(-0.000116577 -0.000966494 0.000197166)
(5.30243e-05 -0.000972054 0.000197166)
(0.000221014 -0.000948079 0.000197166)
(0.000276765 -0.00102665 0.000294288)
(0.000450835 -0.00096299 0.000294288)
(0.000611208 -0.000870073 0.000294289)
(0.00075301 -0.00075072 0.000294289)
(0.000871931 -0.000608556 0.000294289)
(0.00096436 -0.000447901 0.000294289)
(0.00102749 -0.000273637 0.000294288)
(0.00105939 -9.10594e-05 0.000294287)
(0.00105911 9.42849e-05 0.000294288)
(0.00102665 0.000276765 0.000294288)
(0.00096299 0.000450835 0.000294288)
(0.000870073 0.000611208 0.000294289)
(0.00075072 0.00075301 0.000294289)
(0.000608556 0.000871931 0.000294289)
(0.000447901 0.00096436 0.000294289)
(0.000273637 0.00102749 0.000294288)
(9.10594e-05 0.00105939 0.000294287)
(-9.42849e-05 0.00105911 0.000294288)
(-0.000276765 0.00102665 0.000294288)
(-0.000450835 0.00096299 0.000294288)
(-0.000611208 0.000870073 0.000294289)
(-0.00075301 0.00075072 0.000294289)
(-0.000871931 0.000608556 0.000294289)
(-0.00096436 0.000447901 0.000294289)
(-0.00102749 0.000273637 0.000294288)
(-0.00105939 9.10594e-05 0.000294287)
(-0.00105911 -9.42849e-05 0.000294288)
(-0.00102665 -0.000276765 0.000294288)
(-0.00096299 -0.000450835 0.000294288)
(-0.000870073 -0.000611208 0.000294289)
(-0.00075072 -0.00075301 0.000294289)
(-0.000608556 -0.000871931 0.000294289)
(-0.000447901 -0.00096436 0.000294289)
(-0.000273637 -0.00102749 0.000294288)
(-9.10594e-05 -0.00105939 0.000294287)
(9.42849e-05 -0.00105911 0.000294288)
(0.000121243 -0.0011497 0.000368376)
(0.000319045 -0.00111118 0.000368376)
(0.000507152 -0.0010389 0.000368376)
(0.000679851 -0.000935051 0.000368376)
(0.000831893 -0.00080279 0.000368376)
(0.000958658 -0.000646137 0.000368376)
(0.00105629 -0.000469852 0.000368376)
(0.00112184 -0.000279291 0.000368376)
(0.00115329 -8.02433e-05 0.000368376)
(0.0011497 0.000121243 0.000368376)
(0.00111118 0.000319045 0.000368376)
(0.0010389 0.000507152 0.000368376)
(0.000935051 0.000679851 0.000368376)
(0.00080279 0.000831893 0.000368376)
(0.000646137 0.000958658 0.000368376)
(0.000469852 0.00105629 0.000368376)
(0.000279291 0.00112184 0.000368376)
(8.02433e-05 0.00115329 0.000368376)
(-0.000121243 0.0011497 0.000368376)
(-0.000319045 0.00111118 0.000368376)
(-0.000507152 0.0010389 0.000368376)
(-0.000679851 0.000935051 0.000368376)
(-0.000831893 0.00080279 0.000368376)
(-0.000958658 0.000646137 0.000368376)
(-0.00105629 0.000469852 0.000368376)
(-0.00112184 0.000279291 0.000368376)
(-0.00115329 8.02433e-05 0.000368376)
(-0.0011497 -0.000121243 0.000368376)
(-0.00111118 -0.000319045 0.000368376)
(-0.0010389 -0.000507152 0.000368376)
(-0.000935051 -0.000679851 0.000368376)
(-0.00080279 -0.000831893 0.000368376)
(-0.000646137 -0.000958658 0.000368376)
(-0.000469852 -0.00105629 0.000368376)
(-0.000279291 -0.00112184 0.000368376)
(-8.02433e-05 -0.00115329 0.000368376)
(0.000533768 -0.00152169 0.000444043)
(0.000789897 -0.00140588 0.000444045)
(0.00102203 -0.00124736 0.000444045)
(0.0012231 -0.00105093 0.000444046)
(0.00138701 -0.000822579 0.000444045)
(0.00150878 -0.00056923 0.000444044)
(0.0015847 -0.000298585 0.000444043)
(0.00161248 -1.88685e-05 0.000444042)
(0.00159126 0.000261421 0.000444043)
(0.00152169 0.000533768 0.000444043)
(0.00140588 0.000789897 0.000444045)
(0.00124736 0.00102203 0.000444045)
(0.00105093 0.0012231 0.000444046)
(0.000822579 0.00138701 0.000444045)
(0.00056923 0.00150878 0.000444044)
(0.000298585 0.0015847 0.000444043)
(1.88685e-05 0.00161248 0.000444042)
(-0.000261421 0.00159126 0.000444043)
(-0.000533768 0.00152169 0.000444043)
(-0.000789897 0.00140588 0.000444045)
(-0.00102203 0.00124736 0.000444045)
(-0.0012231 0.00105093 0.000444046)
(-0.00138701 0.000822579 0.000444045)
(-0.00150878 0.00056923 0.000444044)
(-0.0015847 0.000298585 0.000444043)
(-0.00161248 1.88685e-05 0.000444042)
(-0.00159126 -0.000261421 0.000444043)
(-0.00152169 -0.000533768 0.000444043)
(-0.00140588 -0.000789897 0.000444045)
(-0.00124736 -0.00102203 0.000444045)
(-0.00105093 -0.0012231 0.000444046)
(-0.000822579 -0.00138701 0.000444045)
(-0.00056923 -0.00150878 0.000444044)
(-0.000298585 -0.0015847 0.000444043)
(-1.88685e-05 -0.00161248 0.000444042)
(0.000261421 -0.00159126 0.000444043)
(0.00038908 -0.00169222 0.000574181)
(0.00067702 -0.00159895 0.000574182)
(0.000944388 -0.00145709 0.000574182)
(0.00118306 -0.00127096 0.000574182)
(0.00138579 -0.00104622 0.000574182)
(0.00154641 -0.000789681 0.000574182)
(0.00166004 -0.000509154 0.000574181)
(0.00172324 -0.000213155 0.000574181)
(0.00173407 8.93191e-05 0.000574181)
(0.00169222 0.00038908 0.000574181)
(0.00159895 0.00067702 0.000574182)
(0.00145709 0.000944388 0.000574182)
(0.00127096 0.00118306 0.000574182)
(0.00104622 0.00138579 0.000574182)
(0.000789681 0.00154641 0.000574182)
(0.000509154 0.00166004 0.000574181)
(0.000213155 0.00172324 0.000574181)
(-8.93191e-05 0.00173407 0.000574181)
(-0.00038908 0.00169222 0.000574181)
(-0.00067702 0.00159895 0.000574182)
(-0.000944388 0.00145709 0.000574182)
(-0.00118306 0.00127096 0.000574182)
(-0.00138579 0.00104622 0.000574182)
(-0.00154641 0.000789681 0.000574182)
(-0.00166004 0.000509154 0.000574181)
(-0.00172324 0.000213155 0.000574181)
(-0.00173407 -8.93191e-05 0.000574181)
(-0.00169222 -0.00038908 0.000574181)
(-0.00159895 -0.00067702 0.000574182)
(-0.00145709 -0.000944388 0.000574182)
(-0.00127096 -0.00118306 0.000574182)
(-0.00104622 -0.00138579 0.000574182)
(-0.000789681 -0.00154641 0.000574182)
(-0.000509154 -0.00166004 0.000574181)
(-0.000213155 -0.00172324 0.000574181)
(8.93191e-05 -0.00173407 0.000574181)
(0.000199736 -0.00184848 0.000680237)
(0.000517687 -0.00178571 0.000680237)
(0.000819908 -0.00166869 0.000680237)
(0.00109722 -0.00150096 0.000680237)
(0.00134119 -0.00128763 0.000680237)
(0.00154441 -0.00103517 0.000680237)
(0.0017007 -0.000751262 0.000680237)
(0.00180532 -0.000444526 0.000680237)
(0.00185508 -0.000124284 0.000680237)
(0.00184848 0.000199736 0.000680237)
(0.00178571 0.000517687 0.000680237)
(0.00166869 0.000819908 0.000680237)
(0.00150096 0.00109722 0.000680237)
(0.00128763 0.00134119 0.000680237)
(0.00103517 0.00154441 0.000680237)
(0.000751262 0.0017007 0.000680237)
(0.000444526 0.00180532 0.000680237)
(0.000124284 0.00185508 0.000680237)
(-0.000199736 0.00184848 0.000680237)
(-0.000517687 0.00178571 0.000680237)
(-0.000819908 0.00166869 0.000680237)
(-0.00109722 0.00150096 0.000680237)
(-0.00134119 0.00128763 0.000680237)
(-0.00154441 0.00103517 0.000680237)
(-0.0017007 0.000751262 0.000680237)
(-0.00180532 0.000444526 0.000680237)
(-0.00185508 0.000124284 0.000680237)
(-0.00184848 -0.000199736 0.000680237)
(-0.00178571 -0.000517687 0.000680237)
(-0.00166869 -0.000819908 0.000680237)
(-0.00150096 -0.00109722 0.000680237)
(-0.00128763 -0.00134119 0.000680237)
(-0.00103517 -0.00154441 0.000680237)
(-0.000751262 -0.0017007 0.000680237)
(-0.000444526 -0.00180532 0.000680237)
(-0.000124284 -0.00185508 0.000680237)
(0.000592388 -0.00215601 0.000733089)
(0.000957775 -0.00202039 0.00073309)
(0.00129406 -0.00182338 0.00073309)
(0.00159103 -0.00157096 0.00073309)
(0.00183965 -0.00127082 0.000733089)
(0.00203238 -0.00093206 0.000733088)
(0.00216335 -0.000564981 0.000733088)
(0.00222859 -0.000180735 0.000733087)
(0.00222612 0.000209001 0.000733088)
(0.00215601 0.000592388 0.000733089)
(0.00202039 0.000957775 0.00073309)
(0.00182338 0.00129406 0.00073309)
(0.00157096 0.00159103 0.00073309)
(0.00127082 0.00183965 0.000733089)
(0.00093206 0.00203238 0.000733088)
(0.000564981 0.00216335 0.000733088)
(0.000180735 0.00222859 0.000733087)
(-0.000209001 0.00222612 0.000733088)
(-0.000592388 0.00215601 0.000733089)
(-0.000957775 0.00202039 0.00073309)
(-0.00129406 0.00182338 0.00073309)
(-0.00159103 0.00157096 0.00073309)
(-0.00183965 0.00127082 0.000733089)
(-0.00203238 0.00093206 0.000733088)
(-0.00216335 0.000564981 0.000733088)
(-0.00222859 0.000180735 0.000733087)
(-0.00222612 -0.000209001 0.000733088)
(-0.00215601 -0.000592388 0.000733089)
(-0.00202039 -0.000957775 0.00073309)
(-0.00182338 -0.00129406 0.00073309)
(-0.00157096 -0.00159103 0.00073309)
(-0.00127082 -0.00183965 0.000733089)
(-0.00093206 -0.00203238 0.000733088)
(-0.000564981 -0.00216335 0.000733088)
(-0.000180735 -0.00222859 0.000733087)
(0.000209001 -0.00222612 0.000733088)
(0.00043069 -0.00232258 0.000873748)
(0.000827458 -0.0022125 0.000873748)
(0.00119908 -0.0020352 0.000873748)
(0.00153428 -0.00179606 0.000873748)
(0.00182285 -0.00150235 0.000873748)
(0.00205604 -0.00116299 0.000873748)
(0.00222675 -0.000788299 0.000873747)
(0.00232981 -0.000389651 0.000873747)
(0.00236208 2.08359e-05 0.000873748)
(0.00232258 0.00043069 0.000873748)
(0.0022125 0.000827458 0.000873748)
(0.0020352 0.00119908 0.000873748)
(0.00179606 0.00153428 0.000873748)
(0.00150235 0.00182285 0.000873748)
(0.00116299 0.00205604 0.000873748)
(0.000788299 0.00222675 0.000873747)
(0.000389651 0.00232981 0.000873747)
(-2.08359e-05 0.00236208 0.000873748)
(-0.00043069 0.00232258 0.000873748)
(-0.000827458 0.0022125 0.000873748)
(-0.00119908 0.0020352 0.000873748)
(-0.00153428 0.00179606 0.000873748)
(-0.00182285 0.00150235 0.000873748)
(-0.00205604 0.00116299 0.000873748)
(-0.00222675 0.000788299 0.000873747)
(-0.00232981 0.000389651 0.000873747)
(-0.00236208 -2.08359e-05 0.000873748)
(-0.00232258 -0.00043069 0.000873748)
(-0.0022125 -0.000827458 0.000873748)
(-0.0020352 -0.00119908 0.000873748)
(-0.00179606 -0.00153428 0.000873748)
(-0.00150235 -0.00182285 0.000873748)
(-0.00116299 -0.00205604 0.000873748)
(-0.000788299 -0.00222675 0.000873747)
(-0.000389651 -0.00232981 0.000873747)
(2.08359e-05 -0.00236208 0.000873748)
(0.000230482 -0.00247319 0.000990488)
(0.000656447 -0.0023956 0.000990488)
(0.00106247 -0.00224521 0.000990488)
(0.0014362 -0.00202661 0.000990488)
(0.0017663 -0.00174642 0.000990487)
(0.00204273 -0.00141318 0.000990488)
(0.00225709 -0.00103699 0.000990488)
(0.00240287 -0.0006293 0.000990488)
(0.00247564 -0.000202485 0.000990488)
(0.00247319 0.000230482 0.000990488)
(0.0023956 0.000656447 0.000990488)
(0.00224521 0.00106247 0.000990488)
(0.00202661 0.0014362 0.000990488)
(0.00174642 0.0017663 0.000990487)
(0.00141318 0.00204273 0.000990488)
(0.00103699 0.00225709 0.000990488)
(0.0006293 0.00240287 0.000990488)
(0.000202485 0.00247564 0.000990488)
(-0.000230482 0.00247319 0.000990488)
(-0.000656447 0.0023956 0.000990488)
(-0.00106247 0.00224521 0.000990488)
(-0.0014362 0.00202661 0.000990488)
(-0.0017663 0.00174642 0.000990487)
(-0.00204273 0.00141318 0.000990488)
(-0.00225709 0.00103699 0.000990488)
(-0.00240287 0.0006293 0.000990488)
(-0.00247564 0.000202485 0.000990488)
(-0.00247319 -0.000230482 0.000990488)
(-0.0023956 -0.000656447 0.000990488)
(-0.00224521 -0.00106247 0.000990488)
(-0.00202661 -0.0014362 0.000990488)
(-0.00174642 -0.0017663 0.000990487)
(-0.00141318 -0.00204273 0.000990488)
(-0.00103699 -0.00225709 0.000990488)
(-0.0006293 -0.00240287 0.000990488)
(-0.000202485 -0.00247564 0.000990488)
(0.000566219 -0.00276093 0.00103329)
(0.00103705 -0.00262066 0.00103329)
(0.00147637 -0.00240077 0.00103329)
(0.00187083 -0.00210793 0.00103329)
(0.00220844 -0.00175104 0.00103329)
(0.00247896 -0.00134094 0.00103329)
(0.00267415 -0.000890106 0.00103329)
(0.00278809 -0.000412222 0.00103329)
(0.00281731 7.81861e-05 0.00103329)
(0.00276093 0.000566219 0.00103329)
(0.00262066 0.00103705 0.00103329)
(0.00240077 0.00147637 0.00103329)
(0.00210793 0.00187083 0.00103329)
(0.00175104 0.00220844 0.00103329)
(0.00134094 0.00247896 0.00103329)
(0.000890106 0.00267415 0.00103329)
(0.000412222 0.00278809 0.00103329)
(-7.81861e-05 0.00281731 0.00103329)
(-0.000566219 0.00276093 0.00103329)
(-0.00103705 0.00262066 0.00103329)
(-0.00147637 0.00240077 0.00103329)
(-0.00187083 0.00210793 0.00103329)
(-0.00220844 0.00175104 0.00103329)
(-0.00247896 0.00134094 0.00103329)
(-0.00267415 0.000890106 0.00103329)
(-0.00278809 0.000412222 0.00103329)
(-0.00281731 -7.81861e-05 0.00103329)
(-0.00276093 -0.000566219 0.00103329)
(-0.00262066 -0.00103705 0.00103329)
(-0.00240077 -0.00147637 0.00103329)
(-0.00210793 -0.00187083 0.00103329)
(-0.00175104 -0.00220844 0.00103329)
(-0.00134094 -0.00247896 0.00103329)
(-0.000890106 -0.00267415 0.00103329)
(-0.000412222 -0.00278809 0.00103329)
(7.81861e-05 -0.00281731 0.00103329)
(0.000402153 -0.00289553 0.00117042)
(0.000898847 -0.0027817 0.00117042)
(0.00136823 -0.00258336 0.00117042)
(0.00179604 -0.00230652 0.00117042)
(0.00216928 -0.0019596 0.00117042)
(0.0024766 -0.00155314 0.00117042)
(0.00270868 -0.00109949 0.00117042)
(0.00285845 -0.00061243 0.00117042)
(0.00292137 -0.000106761 0.00117042)
(0.00289553 0.000402153 0.00117042)
(0.0027817 0.000898847 0.00117042)
(0.00258336 0.00136823 0.00117042)
(0.00230652 0.00179604 0.00117042)
(0.0019596 0.00216928 0.00117042)
(0.00155314 0.0024766 0.00117042)
(0.00109949 0.00270868 0.00117042)
(0.00061243 0.00285845 0.00117042)
(0.000106761 0.00292137 0.00117042)
(-0.000402153 0.00289553 0.00117042)
(-0.000898847 0.0027817 0.00117042)
(-0.00136823 0.00258336 0.00117042)
(-0.00179604 0.00230652 0.00117042)
(-0.00216928 0.0019596 0.00117042)
(-0.0024766 0.00155314 0.00117042)
(-0.00270868 0.00109949 0.00117042)
(-0.00285845 0.00061243 0.00117042)
(-0.00292137 0.000106761 0.00117042)
(-0.00289553 -0.000402153 0.00117042)
(-0.0027817 -0.000898847 0.00117042)
(-0.00258336 -0.00136823 0.00117042)
(-0.00230652 -0.00179604 0.00117042)
(-0.0019596 -0.00216928 0.00117042)
(-0.00155314 -0.0024766 0.00117042)
(-0.00109949 -0.00270868 0.00117042)
(-0.00061243 -0.00285845 0.00117042)
(-0.000106761 -0.00292137 0.00117042)
(0.000205489 -0.00301486 0.00128413)
(0.000725892 -0.00293337 0.00128413)
(0.00122424 -0.00276276 0.00128413)
(0.00168539 -0.0025082 0.00128413)
(0.00209533 -0.00217743 0.00128413)
(0.0024416 -0.0017805 0.00128413)
(0.00271369 -0.00132947 0.00128413)
(0.00290332 -0.000838046 0.00128413)
(0.00300474 -0.000321158 0.00128413)
(0.00301486 0.000205489 0.00128413)
(0.00293337 0.000725892 0.00128413)
(0.00276276 0.00122424 0.00128413)
(0.0025082 0.00168539 0.00128413)
(0.00217743 0.00209533 0.00128413)
(0.0017805 0.0024416 0.00128413)
(0.00132947 0.00271369 0.00128413)
(0.000838046 0.00290332 0.00128413)
(0.000321158 0.00300474 0.00128413)
(-0.000205489 0.00301486 0.00128413)
(-0.000725892 0.00293337 0.00128413)
(-0.00122424 0.00276276 0.00128413)
(-0.00168539 0.0025082 0.00128413)
(-0.00209533 0.00217743 0.00128413)
(-0.0024416 0.0017805 0.00128413)
(-0.00271369 0.00132947 0.00128413)
(-0.00290332 0.000838046 0.00128413)
(-0.00300474 0.000321158 0.00128413)
(-0.00301486 -0.000205489 0.00128413)
(-0.00293337 -0.000725892 0.00128413)
(-0.00276276 -0.00122424 0.00128413)
(-0.0025082 -0.00168539 0.00128413)
(-0.00217743 -0.00209533 0.00128413)
(-0.0017805 -0.0024416 0.00128413)
(-0.00132947 -0.00271369 0.00128413)
(-0.000838046 -0.00290332 0.00128413)
(-0.000321158 -0.00300474 0.00128413)
(0.000476111 -0.0032978 0.00133125)
(0.00104153 -0.00316502 0.00133125)
(0.00157531 -0.00293607 0.00133125)
(0.00206122 -0.00261792 0.00133125)
(0.0024845 -0.00222022 0.00133125)
(0.0028323 -0.00175506 0.00133125)
(0.00309403 -0.00123657 0.00133125)
(0.00326176 -0.000680515 0.00133125)
(0.00333037 -0.000103779 0.00133125)
(0.0032978 0.000476111 0.00133125)
(0.00316502 0.00104153 0.00133125)
(0.00293607 0.00157531 0.00133125)
(0.00261792 0.00206122 0.00133125)
(0.00222022 0.0024845 0.00133125)
(0.00175506 0.0028323 0.00133125)
(0.00123657 0.00309403 0.00133125)
(0.000680515 0.00326176 0.00133125)
(0.000103779 0.00333037 0.00133125)
(-0.000476111 0.0032978 0.00133125)
(-0.00104153 0.00316502 0.00133125)
(-0.00157531 0.00293607 0.00133125)
(-0.00206122 0.00261792 0.00133125)
(-0.0024845 0.00222022 0.00133125)
(-0.0028323 0.00175506 0.00133125)
(-0.00309403 0.00123657 0.00133125)
(-0.00326176 0.000680515 0.00133125)
(-0.00333037 0.000103779 0.00133125)
(-0.0032978 -0.000476111 0.00133125)
(-0.00316502 -0.00104153 0.00133125)
(-0.00293607 -0.00157531 0.00133125)
(-0.00261792 -0.00206122 0.00133125)
(-0.00222022 -0.0024845 0.00133125)
(-0.00175506 -0.0028323 0.00133125)
(-0.00123657 -0.00309403 0.00133125)
(-0.000680515 -0.00326176 0.00133125)
(-0.000103779 -0.00333037 0.00133125)
(0.00031459 -0.00338619 0.00145575)
(0.000897817 -0.00328012 0.00145575)
(0.00145376 -0.00307438 0.00145575)
(0.00196554 -0.00277523 0.00145575)
(0.00241759 -0.00239176 0.00145575)
(0.00279619 -0.00193561 0.00145575)
(0.00308982 -0.00142065 0.00145575)
(0.00328957 -0.000862527 0.00145575)
(0.00338937 -0.000278195 0.00145575)
(0.00338619 0.00031459 0.00145575)
(0.00328012 0.000897817 0.00145575)
(0.00307438 0.00145376 0.00145575)
(0.00277523 0.00196554 0.00145575)
(0.00239176 0.00241759 0.00145575)
(0.00193561 0.00279619 0.00145575)
(0.00142065 0.00308982 0.00145575)
(0.000862527 0.00328957 0.00145575)
(0.000278195 0.00338937 0.00145575)
(-0.00031459 0.00338619 0.00145575)
(-0.000897817 0.00328012 0.00145575)
(-0.00145376 0.00307438 0.00145575)
(-0.00196554 0.00277523 0.00145575)
(-0.00241759 0.00239176 0.00145575)
(-0.00279619 0.00193561 0.00145575)
(-0.00308982 0.00142065 0.00145575)
(-0.00328957 0.000862527 0.00145575)
(-0.00338937 0.000278195 0.00145575)
(-0.00338619 -0.00031459 0.00145575)
(-0.00328012 -0.000897817 0.00145575)
(-0.00307438 -0.00145376 0.00145575)
(-0.00277523 -0.00196554 0.00145575)
(-0.00239176 -0.00241759 0.00145575)
(-0.00193561 -0.00279619 0.00145575)
(-0.00142065 -0.00308982 0.00145575)
(-0.000862527 -0.00328957 0.00145575)
(-0.000278195 -0.00338937 0.00145575)
(0.000127207 -0.00346167 0.00155698)
(0.000726388 -0.00338699 0.00155698)
(0.0013035 -0.0032094 0.00155698)
(0.001841 -0.00293429 0.00155698)
(0.00232257 -0.00257003 0.00155698)
(0.00273356 -0.00212767 0.00155698)
(0.0030615 -0.00162067 0.00155698)
(0.00329641 -0.00106443 0.00155698)
(0.00343117 -0.000475839 0.00155698)
(0.00346167 0.000127207 0.00155698)
(0.00338699 0.000726388 0.00155698)
(0.0032094 0.0013035 0.00155698)
(0.00293429 0.001841 0.00155698)
(0.00257003 0.00232257 0.00155698)
(0.00212767 0.00273356 0.00155698)
(0.00162067 0.0030615 0.00155698)
(0.00106443 0.00329641 0.00155698)
(0.000475839 0.00343117 0.00155698)
(-0.000127207 0.00346167 0.00155698)
(-0.000726388 0.00338699 0.00155698)
(-0.0013035 0.0032094 0.00155698)
(-0.001841 0.00293429 0.00155698)
(-0.00232257 0.00257003 0.00155698)
(-0.00273356 0.00212767 0.00155698)
(-0.0030615 0.00162067 0.00155698)
(-0.00329641 0.00106443 0.00155698)
(-0.00343117 0.000475839 0.00155698)
(-0.00346167 -0.000127207 0.00155698)
(-0.00338699 -0.000726388 0.00155698)
(-0.0032094 -0.0013035 0.00155698)
(-0.00293429 -0.001841 0.00155698)
(-0.00257003 -0.00232257 0.00155698)
(-0.00212767 -0.00273356 0.00155698)
(-0.00162067 -0.0030615 0.00155698)
(-0.00106443 -0.00329641 0.00155698)
(-0.000475839 -0.00343117 0.00155698)
(0.00034903 -0.00373431 0.00163078)
(0.000992184 -0.00361697 0.00163078)
(0.00160519 -0.00338973 0.00163078)
(0.00216943 -0.0030595 0.00163078)
(0.00266774 -0.0026363 0.00163078)
(0.003085 -0.002133 0.00163078)
(0.00340853 -0.00156489 0.00163078)
(0.00362848 -0.000949228 0.00163078)
(0.00373819 -0.000304728 0.00163078)
(0.00373431 0.00034903 0.00163078)
(0.00361697 0.000992184 0.00163078)
(0.00338973 0.00160519 0.00163078)
(0.0030595 0.00216943 0.00163078)
(0.0026363 0.00266774 0.00163078)
(0.002133 0.003085 0.00163078)
(0.00156489 0.00340853 0.00163078)
(0.000949228 0.00362848 0.00163078)
(0.000304728 0.00373819 0.00163078)
(-0.00034903 0.00373431 0.00163078)
(-0.000992184 0.00361697 0.00163078)
(-0.00160519 0.00338973 0.00163078)
(-0.00216943 0.0030595 0.00163078)
(-0.00266774 0.0026363 0.00163078)
(-0.003085 0.002133 0.00163078)
(-0.00340853 0.00156489 0.00163078)
(-0.00362848 0.000949228 0.00163078)
(-0.00373819 0.000304728 0.00163078)
(-0.00373431 -0.00034903 0.00163078)
(-0.00361697 -0.000992184 0.00163078)
(-0.00338973 -0.00160519 0.00163078)
(-0.0030595 -0.00216943 0.00163078)
(-0.0026363 -0.00266774 0.00163078)
(-0.002133 -0.003085 0.00163078)
(-0.00156489 -0.00340853 0.00163078)
(-0.000949228 -0.00362848 0.00163078)
(-0.000304728 -0.00373819 0.00163078)
(0.000187331 -0.00376919 0.00173472)
(0.000838999 -0.00367939 0.00173472)
(0.00146517 -0.0034778 0.00173472)
(0.00204683 -0.00317054 0.00173472)
(0.00256629 -0.00276695 0.00173472)
(0.00300778 -0.00227928 0.00173472)
(0.00335788 -0.00172236 0.00173472)
(0.00360595 -0.0011131 0.00173472)
(0.00374445 -0.000470026 0.00173472)
(0.00376919 0.000187331 0.00173472)
(0.00367939 0.000838999 0.00173472)
(0.0034778 0.00146517 0.00173472)
(0.00317054 0.00204683 0.00173472)
(0.00276695 0.00256629 0.00173472)
(0.00227928 0.00300778 0.00173472)
(0.00172236 0.00335788 0.00173472)
(0.0011131 0.00360595 0.00173472)
(0.000470026 0.00374445 0.00173472)
(-0.000187331 0.00376919 0.00173472)
(-0.000838999 0.00367939 0.00173472)
(-0.00146517 0.0034778 0.00173472)
(-0.00204683 0.00317054 0.00173472)
(-0.00256629 0.00276695 0.00173472)
(-0.00300778 0.00227928 0.00173472)
(-0.00335788 0.00172236 0.00173472)
(-0.00360595 0.0011131 0.00173472)
(-0.00374445 0.000470026 0.00173472)
(-0.00376919 -0.000187331 0.00173472)
(-0.00367939 -0.000838999 0.00173472)
(-0.0034778 -0.00146517 0.00173472)
(-0.00317054 -0.00204683 0.00173472)
(-0.00276695 -0.00256629 0.00173472)
(-0.00227928 -0.00300778 0.00173472)
(-0.00172236 -0.00335788 0.00173472)
(-0.0011131 -0.00360595 0.00173472)
(-0.000470026 -0.00374445 0.00173472)
(8.17801e-06 -0.00379583 0.00181474)
(0.000667193 -0.00373674 0.00181474)
(0.00130593 -0.00356412 0.00181474)
(0.001905 -0.0032832 0.00181474)
(0.00244618 -0.00290252 0.00181474)
(0.00291303 -0.00243365 0.00181474)
(0.00329137 -0.00189083 0.00181474)
(0.00356971 -0.00129057 0.00181474)
(0.00373958 -0.000651087 0.00181474)
(0.00379583 8.17801e-06 0.00181474)
(0.00373674 0.000667193 0.00181474)
(0.00356412 0.00130593 0.00181474)
(0.0032832 0.001905 0.00181474)
(0.00290252 0.00244618 0.00181474)
(0.00243365 0.00291303 0.00181474)
(0.00189083 0.00329137 0.00181474)
(0.00129057 0.00356971 0.00181474)
(0.000651087 0.00373958 0.00181474)
(-8.17801e-06 0.00379583 0.00181474)
(-0.000667193 0.00373674 0.00181474)
(-0.00130593 0.00356412 0.00181474)
(-0.001905 0.0032832 0.00181474)
(-0.00244618 0.00290252 0.00181474)
(-0.00291303 0.00243365 0.00181474)
(-0.00329137 0.00189083 0.00181474)
(-0.00356971 0.00129057 0.00181474)
(-0.00373958 0.000651087 0.00181474)
(-0.00379583 -8.17801e-06 0.00181474)
(-0.00373674 -0.000667193 0.00181474)
(-0.00356412 -0.00130593 0.00181474)
(-0.0032832 -0.001905 0.00181474)
(-0.00290252 -0.00244618 0.00181474)
(-0.00243365 -0.00291303 0.00181474)
(-0.00189083 -0.00329137 0.00181474)
(-0.00129057 -0.00356971 0.00181474)
(-0.000651087 -0.00373958 0.00181474)
(0.000215128 -0.00404412 0.00194704)
(0.000914113 -0.00394532 0.00194704)
(0.00158532 -0.00372665 0.00194704)
(0.00220837 -0.00339474 0.00194704)
(0.00276431 -0.00295969 0.00194704)
(0.00323626 -0.00243471 0.00194704)
(0.00360987 -0.00183575 0.00194704)
(0.00387381 -0.00118101 0.00194704)
(0.00402004 -0.000490392 0.00194704)
(0.00404412 0.000215128 0.00194704)
(0.00394532 0.000914113 0.00194704)
(0.00372665 0.00158532 0.00194704)
(0.00339474 0.00220837 0.00194704)
(0.00295969 0.00276431 0.00194704)
(0.00243471 0.00323626 0.00194704)
(0.00183575 0.00360987 0.00194704)
(0.00118101 0.00387381 0.00194704)
(0.000490392 0.00402004 0.00194704)
(-0.000215128 0.00404412 0.00194704)
(-0.000914113 0.00394532 0.00194704)
(-0.00158532 0.00372665 0.00194704)
(-0.00220837 0.00339474 0.00194704)
(-0.00276431 0.00295969 0.00194704)
(-0.00323626 0.00243471 0.00194704)
(-0.00360987 0.00183575 0.00194704)
(-0.00387381 0.00118101 0.00194704)
(-0.00402004 0.000490392 0.00194704)
(-0.00404412 -0.000215128 0.00194704)