/*--------------------------------*- C++ -*----------------------------------*\
| =========                 |                                                 |
| \\      /  F ield         | OpenFOAM: The Open Source CFD Toolbox           |
|  \\    /   O peration     | Version:  2312                                  |
|   \\  /    A nd           | Website:  www.openfoam.com                      |
|    \\/     M anipulation  |                                                 |
\*---------------------------------------------------------------------------*/
FoamFile
{
    version     2.0;
    format      ascii;
    arch        "LSB;label=32;scalar=64";
    class       volVectorField;
    location    "0.9";
    object      D_0_0;
}
// * * * * * * * * * * * * * * * * * * * * * * * * * * * * * * * * * * * * * //

dimensions      [0 1 0 0 0 0 0];

internalField   nonuniform List<vector> 
1620
(
(0.00017105 -0.000291706 4.96669e-05)
(0.000219106 -0.000257572 4.96673e-05)
(0.000260504 -0.000215611 4.96674e-05)
(0.000293988 -0.0001671 4.96671e-05)
(0.000318538 -0.000113511 4.96673e-05)
(0.000333409 -5.64725e-05 4.96672e-05)
(0.00033815 2.2812e-06 4.96666e-05)
(0.000332617 6.09654e-05 4.96664e-05)
(0.000316977 0.000117797 4.96667e-05)
(0.000291706 0.00017105 4.96669e-05)
(0.000257572 0.000219106 4.96673e-05)
(0.000215611 0.000260504 4.96674e-05)
(0.0001671 0.000293988 4.96671e-05)
(0.000113511 0.000318538 4.96673e-05)
(5.64725e-05 0.000333409 4.96672e-05)
(-2.2812e-06 0.00033815 4.96666e-05)
(-6.09654e-05 0.000332617 4.96664e-05)
(-0.000117797 0.000316977 4.96667e-05)
(-0.00017105 0.000291706 4.96669e-05)
(-0.000219106 0.000257572 4.96673e-05)
(-0.000260504 0.000215611 4.96674e-05)
(-0.000293988 0.0001671 4.96671e-05)
(-0.000318538 0.000113511 4.96673e-05)
(-0.000333409 5.64725e-05 4.96672e-05)
(-0.00033815 -2.2812e-06 4.96666e-05)
(-0.000332617 -6.09654e-05 4.96664e-05)
(-0.000316977 -0.000117797 4.96667e-05)
(-0.000291706 -0.00017105 4.96669e-05)
(-0.000257572 -0.000219106 4.96673e-05)
(-0.000215611 -0.000260504 4.96674e-05)
(-0.0001671 -0.000293988 4.96671e-05)
(-0.000113511 -0.000318538 4.96673e-05)
(-5.64725e-05 -0.000333409 4.96672e-05)
(2.2812e-06 -0.00033815 4.96666e-05)
(6.09654e-05 -0.000332617 4.96664e-05)
(0.000117797 -0.000316977 4.96667e-05)
(0.000108869 -0.000343099 8.22744e-05)
(0.000166793 -0.000318982 8.22746e-05)
(0.00021965 -0.000285172 8.22747e-05)
(0.000265833 -0.000242698 8.22747e-05)
(0.000303939 -0.00019285 8.22749e-05)
(0.000332809 -0.000137141 8.22747e-05)
(0.000351567 -7.72659e-05 8.22745e-05)
(0.000359643 -1.50435e-05 8.22744e-05)
(0.000356792 4.76363e-05 8.22744e-05)
(0.000343099 0.000108869 8.22744e-05)
(0.000318982 0.000166793 8.22746e-05)
(0.000285172 0.00021965 8.22747e-05)
(0.000242698 0.000265833 8.22747e-05)
(0.00019285 0.000303939 8.22749e-05)
(0.000137141 0.000332809 8.22747e-05)
(7.72659e-05 0.000351567 8.22745e-05)
(1.50435e-05 0.000359643 8.22744e-05)
(-4.76363e-05 0.000356792 8.22744e-05)
(-0.000108869 0.000343099 8.22744e-05)
(-0.000166793 0.000318982 8.22746e-05)
(-0.00021965 0.000285172 8.22747e-05)
(-0.000265833 0.000242698 8.22747e-05)
(-0.000303939 0.00019285 8.22749e-05)
(-0.000332809 0.000137141 8.22747e-05)
(-0.000351567 7.72659e-05 8.22745e-05)
(-0.000359643 1.50435e-05 8.22744e-05)
(-0.000356792 -4.76363e-05 8.22744e-05)
(-0.000343099 -0.000108869 8.22744e-05)
(-0.000318982 -0.000166793 8.22746e-05)
(-0.000285172 -0.00021965 8.22747e-05)
(-0.000242698 -0.000265833 8.22747e-05)
(-0.00019285 -0.000303939 8.22749e-05)
(-0.000137141 -0.000332809 8.22747e-05)
(-7.72659e-05 -0.000351567 8.22745e-05)
(-1.50435e-05 -0.000359643 8.22744e-05)
(4.76363e-05 -0.000356792 8.22744e-05)
(5.13433e-06 -0.000391576 9.99769e-05)
(7.30527e-05 -0.000384736 9.99768e-05)
(0.000138752 -0.000366205 9.99772e-05)
(0.000200234 -0.000336548 9.99772e-05)
(0.000255634 -0.000296665 9.99773e-05)
(0.000303265 -0.000247767 9.9977e-05)
(0.000341682 -0.000191341 9.99771e-05)
(0.000369718 -0.000129102 9.99772e-05)
(0.000386519 -6.294e-05 9.9977e-05)
(0.000391576 5.13433e-06 9.99769e-05)
(0.000384736 7.30527e-05 9.99768e-05)
(0.000366205 0.000138752 9.99772e-05)
(0.000336548 0.000200234 9.99772e-05)
(0.000296665 0.000255634 9.99773e-05)
(0.000247767 0.000303265 9.9977e-05)
(0.000191341 0.000341682 9.99771e-05)
(0.000129102 0.000369718 9.99772e-05)
(6.294e-05 0.000386519 9.9977e-05)
(-5.13433e-06 0.000391576 9.99769e-05)
(-7.30527e-05 0.000384736 9.99768e-05)
(-0.000138752 0.000366205 9.99772e-05)
(-0.000200234 0.000336548 9.99772e-05)
(-0.000255634 0.000296665 9.99773e-05)
(-0.000303265 0.000247767 9.9977e-05)
(-0.000341682 0.000191341 9.99771e-05)
(-0.000369718 0.000129102 9.99772e-05)
(-0.000386519 6.294e-05 9.9977e-05)
(-0.000391576 -5.13433e-06 9.99769e-05)
(-0.000384736 -7.30527e-05 9.99768e-05)
(-0.000366205 -0.000138752 9.99772e-05)
(-0.000336548 -0.000200234 9.99772e-05)
(-0.000296665 -0.000255634 9.99773e-05)
(-0.000247767 -0.000303265 9.9977e-05)
(-0.000191341 -0.000341682 9.99771e-05)
(-0.000129102 -0.000369718 9.99772e-05)
(-6.294e-05 -0.000386519 9.9977e-05)
(0.000379942 -0.000892243 0.000196897)
(0.000529106 -0.000812712 0.000196898)
(0.000662194 -0.000708486 0.000196898)
(0.000775161 -0.000582733 0.000196898)
(0.000864575 -0.000439275 0.000196899)
(0.000927719 -0.000282469 0.000196898)
(0.000962676 -0.000117081 0.000196896)
(0.000968381 5.1864e-05 0.000196896)
(0.000944663 0.000219233 0.000196896)
(0.000892243 0.000379942 0.000196897)
(0.000812712 0.000529106 0.000196898)
(0.000708486 0.000662194 0.000196898)
(0.000582733 0.000775161 0.000196898)
(0.000439275 0.000864575 0.000196899)
(0.000282469 0.000927719 0.000196898)
(0.000117081 0.000962676 0.000196896)
(-5.1864e-05 0.000968381 0.000196896)
(-0.000219233 0.000944663 0.000196896)
(-0.000379942 0.000892243 0.000196897)
(-0.000529106 0.000812712 0.000196898)
(-0.000662194 0.000708486 0.000196898)
(-0.000775161 0.000582733 0.000196898)
(-0.000864575 0.000439275 0.000196899)
(-0.000927719 0.000282469 0.000196898)
(-0.000962676 0.000117081 0.000196896)
(-0.000968381 -5.1864e-05 0.000196896)
(-0.000944663 -0.000219233 0.000196896)
(-0.000892243 -0.000379942 0.000196897)
(-0.000812712 -0.000529106 0.000196898)
(-0.000708486 -0.000662194 0.000196898)
(-0.000582733 -0.000775161 0.000196898)
(-0.000439275 -0.000864575 0.000196899)
(-0.000282469 -0.000927719 0.000196898)
(-0.000117081 -0.000962676 0.000196896)
(5.1864e-05 -0.000968381 0.000196896)
(0.000219233 -0.000944663 0.000196896)
(0.000275233 -0.00102059 0.000291582)
(0.000448275 -0.000957293 0.000291582)
(0.000607698 -0.000864907 0.000291583)
(0.000748655 -0.000746242 0.000291583)
(0.000866865 -0.000604902 0.000291584)
(0.000958736 -0.000445182 0.000291583)
(0.00102148 -0.000271936 0.000291582)
(0.00105318 -9.04279e-05 0.000291582)
(0.00105288 9.38277e-05 0.000291582)
(0.00102059 0.000275233 0.000291582)
(0.000957293 0.000448275 0.000291582)
(0.000864907 0.000607698 0.000291583)
(0.000746242 0.000748655 0.000291583)
(0.000604902 0.000866865 0.000291584)
(0.000445182 0.000958736 0.000291583)
(0.000271936 0.00102148 0.000291582)
(9.04279e-05 0.00105318 0.000291582)
(-9.38277e-05 0.00105288 0.000291582)
(-0.000275233 0.00102059 0.000291582)
(-0.000448275 0.000957293 0.000291582)
(-0.000607698 0.000864907 0.000291583)
(-0.000748655 0.000746242 0.000291583)
(-0.000866865 0.000604902 0.000291584)
(-0.000958736 0.000445182 0.000291583)
(-0.00102148 0.000271936 0.000291582)
(-0.00105318 9.04279e-05 0.000291582)
(-0.00105288 -9.38277e-05 0.000291582)
(-0.00102059 -0.000275233 0.000291582)
(-0.000957293 -0.000448275 0.000291582)
(-0.000864907 -0.000607698 0.000291583)
(-0.000746242 -0.000748655 0.000291583)
(-0.000604902 -0.000866865 0.000291584)
(-0.000445182 -0.000958736 0.000291583)
(-0.000271936 -0.00102148 0.000291582)
(-9.04279e-05 -0.00105318 0.000291582)
(9.38277e-05 -0.00105288 0.000291582)
(0.000121499 -0.00114087 0.000363835)
(0.000317763 -0.00110244 0.000363835)
(0.000504371 -0.00103051 0.000363835)
(0.000675655 -0.000927271 0.000363835)
(0.00082641 -0.000795857 0.000363835)
(0.000952054 -0.000640262 0.000363835)
(0.00104877 -0.000465212 0.000363835)
(0.00111362 -0.000276028 0.000363835)
(0.00114464 -7.8457e-05 0.000363835)
(0.00114087 0.000121499 0.000363835)
(0.00110244 0.000317763 0.000363835)
(0.00103051 0.000504371 0.000363835)
(0.000927271 0.000675655 0.000363835)
(0.000795857 0.00082641 0.000363835)
(0.000640262 0.000952054 0.000363835)
(0.000465212 0.00104877 0.000363835)
(0.000276028 0.00111362 0.000363835)
(7.8457e-05 0.00114464 0.000363835)
(-0.000121499 0.00114087 0.000363835)
(-0.000317763 0.00110244 0.000363835)
(-0.000504371 0.00103051 0.000363835)
(-0.000675655 0.000927271 0.000363835)
(-0.00082641 0.000795857 0.000363835)
(-0.000952054 0.000640262 0.000363835)
(-0.00104877 0.000465212 0.000363835)
(-0.00111362 0.000276028 0.000363835)
(-0.00114464 7.8457e-05 0.000363835)
(-0.00114087 -0.000121499 0.000363835)
(-0.00110244 -0.000317763 0.000363835)
(-0.00103051 -0.000504371 0.000363835)
(-0.000927271 -0.000675655 0.000363835)
(-0.000795857 -0.00082641 0.000363835)
(-0.000640262 -0.000952054 0.000363835)
(-0.000465212 -0.00104877 0.000363835)
(-0.000276028 -0.00111362 0.000363835)
(-7.8457e-05 -0.00114464 0.000363835)
(0.000531571 -0.00151551 0.000442943)
(0.000786662 -0.00140018 0.000442944)
(0.00101785 -0.00124231 0.000442945)
(0.00121811 -0.00104669 0.000442945)
(0.00138136 -0.000819263 0.000442945)
(0.00150264 -0.000566946 0.000442944)
(0.00157826 -0.000297402 0.000442942)
(0.00160592 -1.8822e-05 0.000442942)
(0.0015848 0.000260329 0.000442942)
(0.00151551 0.000531571 0.000442943)
(0.00140018 0.000786662 0.000442944)
(0.00124231 0.00101785 0.000442945)
(0.00104669 0.00121811 0.000442945)
(0.000819263 0.00138136 0.000442945)
(0.000566946 0.00150264 0.000442944)
(0.000297402 0.00157826 0.000442942)
(1.8822e-05 0.00160592 0.000442942)
(-0.000260329 0.0015848 0.000442942)
(-0.000531571 0.00151551 0.000442943)
(-0.000786662 0.00140018 0.000442944)
(-0.00101785 0.00124231 0.000442945)
(-0.00121811 0.00104669 0.000442945)
(-0.00138136 0.000819263 0.000442945)
(-0.00150264 0.000566946 0.000442944)
(-0.00157826 0.000297402 0.000442942)
(-0.00160592 1.8822e-05 0.000442942)
(-0.0015848 -0.000260329 0.000442942)
(-0.00151551 -0.000531571 0.000442943)
(-0.00140018 -0.000786662 0.000442944)
(-0.00124231 -0.00101785 0.000442945)
(-0.00104669 -0.00121811 0.000442945)
(-0.000819263 -0.00138136 0.000442945)
(-0.000566946 -0.00150264 0.000442944)
(-0.000297402 -0.00157826 0.000442942)
(-1.8822e-05 -0.00160592 0.000442942)
(0.000260329 -0.0015848 0.000442942)
(0.000387781 -0.0016821 0.000569931)
(0.000673983 -0.0015892 0.000569932)
(0.000939706 -0.00144802 0.000569932)
(0.00117688 -0.00126285 0.000569932)
(0.00137829 -0.0010393 0.000569932)
(0.00153782 -0.000784171 0.000569931)
(0.00165063 -0.000505219 0.000569931)
(0.00171328 -0.000210915 0.000569931)
(0.00172388 8.97969e-05 0.000569931)
(0.0016821 0.000387781 0.000569931)
(0.0015892 0.000673983 0.000569932)
(0.00144802 0.000939706 0.000569932)
(0.00126285 0.00117688 0.000569932)
(0.0010393 0.00137829 0.000569932)
(0.000784171 0.00153782 0.000569931)
(0.000505219 0.00165063 0.000569931)
(0.000210915 0.00171328 0.000569931)
(-8.97969e-05 0.00172388 0.000569931)
(-0.000387781 0.0016821 0.000569931)
(-0.000673983 0.0015892 0.000569932)
(-0.000939706 0.00144802 0.000569932)
(-0.00117688 0.00126285 0.000569932)
(-0.00137829 0.0010393 0.000569932)
(-0.00153782 0.000784171 0.000569931)
(-0.00165063 0.000505219 0.000569931)
(-0.00171328 0.000210915 0.000569931)
(-0.00172388 -8.97969e-05 0.000569931)
(-0.0016821 -0.000387781 0.000569931)
(-0.0015892 -0.000673983 0.000569932)
(-0.00144802 -0.000939706 0.000569932)
(-0.00126285 -0.00117688 0.000569932)
(-0.0010393 -0.00137829 0.000569932)
(-0.000784171 -0.00153782 0.000569931)
(-0.000505219 -0.00165063 0.000569931)
(-0.000210915 -0.00171328 0.000569931)
(8.97969e-05 -0.00172388 0.000569931)
(0.000200207 -0.00183474 0.000673429)
(0.000515765 -0.0017721 0.000673429)
(0.000815651 -0.00165561 0.000673429)
(0.00109075 -0.00148883 0.00067343)
(0.00133272 -0.0012768 0.000673429)
(0.00153418 -0.00102598 0.000673429)
(0.00168903 -0.000743983 0.000673429)
(0.00179257 -0.000439384 0.000673429)
(0.00184163 -0.000121433 0.000673429)
(0.00183474 0.000200207 0.000673429)
(0.0017721 0.000515765 0.000673429)
(0.00165561 0.000815651 0.000673429)
(0.00148883 0.00109075 0.00067343)
(0.0012768 0.00133272 0.000673429)
(0.00102598 0.00153418 0.000673429)
(0.000743983 0.00168903 0.000673429)
(0.000439384 0.00179257 0.000673429)
(0.000121433 0.00184163 0.000673429)
(-0.000200207 0.00183474 0.000673429)
(-0.000515765 0.0017721 0.000673429)
(-0.000815651 0.00165561 0.000673429)
(-0.00109075 0.00148883 0.00067343)
(-0.00133272 0.0012768 0.000673429)
(-0.00153418 0.00102598 0.000673429)
(-0.00168903 0.000743983 0.000673429)
(-0.00179257 0.000439384 0.000673429)
(-0.00184163 0.000121433 0.000673429)
(-0.00183474 -0.000200207 0.000673429)
(-0.0017721 -0.000515765 0.000673429)
(-0.00165561 -0.000815651 0.000673429)
(-0.00148883 -0.00109075 0.00067343)
(-0.0012768 -0.00133272 0.000673429)
(-0.00102598 -0.00153418 0.000673429)
(-0.000743983 -0.00168903 0.000673429)
(-0.000439384 -0.00179257 0.000673429)
(-0.000121433 -0.00184163 0.000673429)
(0.000592032 -0.00214617 0.000731796)
(0.000955716 -0.00201076 0.000731797)
(0.00129036 -0.00181425 0.000731798)
(0.0015858 -0.00156262 0.000731798)
(0.00183305 -0.00126351 0.000731797)
(0.00202461 -0.000926007 0.000731796)
(0.00215465 -0.000560369 0.000731795)
(0.00221923 -0.000177704 0.000731795)
(0.00221637 0.00021036 0.000731796)
(0.00214617 0.000592032 0.000731796)
(0.00201076 0.000955716 0.000731797)
(0.00181425 0.00129036 0.000731798)
(0.00156262 0.0015858 0.000731798)
(0.00126351 0.00183305 0.000731797)
(0.000926007 0.00202461 0.000731796)
(0.000560369 0.00215465 0.000731795)
(0.000177704 0.00221923 0.000731795)
(-0.00021036 0.00221637 0.000731796)
(-0.000592032 0.00214617 0.000731796)
(-0.000955716 0.00201076 0.000731797)
(-0.00129036 0.00181425 0.000731798)
(-0.0015858 0.00156262 0.000731798)
(-0.00183305 0.00126351 0.000731797)
(-0.00202461 0.000926007 0.000731796)
(-0.00215465 0.000560369 0.000731795)
(-0.00221923 0.000177704 0.000731795)
(-0.00221637 -0.00021036 0.000731796)
(-0.00214617 -0.000592032 0.000731796)
(-0.00201076 -0.000955716 0.000731797)
(-0.00181425 -0.00129036 0.000731798)
(-0.00156262 -0.0015858 0.000731798)
(-0.00126351 -0.00183305 0.000731797)
(-0.000926007 -0.00202461 0.000731796)
(-0.000560369 -0.00215465 0.000731795)
(-0.000177704 -0.00221923 0.000731795)
(0.00021036 -0.00221637 0.000731796)
(0.000430768 -0.00230852 0.000868992)
(0.000825094 -0.00219865 0.000868992)
(0.00119435 -0.00202197 0.000868992)
(0.00152732 -0.00178385 0.000868992)
(0.00181388 -0.00149154 0.000868992)
(0.00204532 -0.0011539 0.000868992)
(0.00221462 -0.000781204 0.000868991)
(0.00231663 -0.000384771 0.000868991)
(0.00234825 2.33532e-05 0.000868992)
(0.00230852 0.000430768 0.000868992)
(0.00219865 0.000825094 0.000868992)
(0.00202197 0.00119435 0.000868992)
(0.00178385 0.00152732 0.000868992)
(0.00149154 0.00181388 0.000868992)
(0.0011539 0.00204532 0.000868992)
(0.000781204 0.00221462 0.000868991)
(0.000384771 0.00231663 0.000868991)
(-2.33532e-05 0.00234825 0.000868992)
(-0.000430768 0.00230852 0.000868992)
(-0.000825094 0.00219865 0.000868992)
(-0.00119435 0.00202197 0.000868992)
(-0.00152732 0.00178385 0.000868992)
(-0.00181388 0.00149154 0.000868992)
(-0.00204532 0.0011539 0.000868992)
(-0.00221462 0.000781204 0.000868991)
(-0.00231663 0.000384771 0.000868991)
(-0.00234825 -2.33532e-05 0.000868992)
(-0.00230852 -0.000430768 0.000868992)
(-0.00219865 -0.000825094 0.000868992)
(-0.00202197 -0.00119435 0.000868992)
(-0.00178385 -0.00152732 0.000868992)
(-0.00149154 -0.00181388 0.000868992)
(-0.0011539 -0.00204532 0.000868992)
(-0.000781204 -0.00221462 0.000868991)
(-0.000384771 -0.00231663 0.000868991)
(2.33532e-05 -0.00234825 0.000868992)
(0.000231792 -0.00245528 0.000982813)
(0.000654626 -0.00237773 0.000982813)
(0.00105757 -0.00222793 0.000982813)
(0.00142838 -0.00201044 0.000982813)
(0.00175579 -0.00173186 0.000982813)
(0.00202985 -0.00140066 0.000982813)
(0.00224223 -0.0010269 0.000982813)
(0.00238649 -0.000621942 0.000982813)
(0.00245823 -0.000198084 0.000982813)
(0.00245528 0.000231792 0.000982813)
(0.00237773 0.000654626 0.000982813)
(0.00222793 0.00105757 0.000982813)
(0.00201044 0.00142838 0.000982813)
(0.00173186 0.00175579 0.000982813)
(0.00140066 0.00202985 0.000982813)
(0.0010269 0.00224223 0.000982813)
(0.000621942 0.00238649 0.000982813)
(0.000198084 0.00245823 0.000982813)
(-0.000231792 0.00245528 0.000982813)
(-0.000654626 0.00237773 0.000982813)
(-0.00105757 0.00222793 0.000982813)
(-0.00142838 0.00201044 0.000982813)
(-0.00175579 0.00173186 0.000982813)
(-0.00202985 0.00140066 0.000982813)
(-0.00224223 0.0010269 0.000982813)
(-0.00238649 0.000621942 0.000982813)
(-0.00245823 0.000198084 0.000982813)
(-0.00245528 -0.000231792 0.000982813)
(-0.00237773 -0.000654626 0.000982813)
(-0.00222793 -0.00105757 0.000982813)
(-0.00201044 -0.00142838 0.000982813)
(-0.00173186 -0.00175579 0.000982813)
(-0.00140066 -0.00202985 0.000982813)
(-0.0010269 -0.00224223 0.000982813)
(-0.000621942 -0.00238649 0.000982813)
(-0.000198084 -0.00245823 0.000982813)
(0.00056895 -0.00274768 0.00103309)
(0.00103744 -0.00260714 0.00103309)
(0.0014744 -0.00238738 0.00103309)
(0.00186657 -0.00209509 0.00103309)
(0.00220202 -0.00173913 0.00103309)
(0.00247056 -0.00133033 0.00103309)
(0.00266404 -0.000881115 0.00103309)
(0.00277657 -0.000405123 0.00103309)
(0.00280474 8.31767e-05 0.00103309)
(0.00274768 0.00056895 0.00103309)
(0.00260714 0.00103744 0.00103309)
(0.00238738 0.0014744 0.00103309)
(0.00209509 0.00186657 0.00103309)
(0.00173913 0.00220202 0.00103309)
(0.00133033 0.00247056 0.00103309)
(0.000881115 0.00266404 0.00103309)
(0.000405123 0.00277657 0.00103309)
(-8.31767e-05 0.00280474 0.00103309)
(-0.00056895 0.00274768 0.00103309)
(-0.00103744 0.00260714 0.00103309)
(-0.0014744 0.00238738 0.00103309)
(-0.00186657 0.00209509 0.00103309)
(-0.00220202 0.00173913 0.00103309)
(-0.00247056 0.00133033 0.00103309)
(-0.00266404 0.000881115 0.00103309)
(-0.00277657 0.000405123 0.00103309)
(-0.00280474 -8.31767e-05 0.00103309)
(-0.00274768 -0.00056895 0.00103309)
(-0.00260714 -0.00103744 0.00103309)
(-0.00238738 -0.0014744 0.00103309)
(-0.00209509 -0.00186657 0.00103309)
(-0.00173913 -0.00220202 0.00103309)
(-0.00133033 -0.00247056 0.00103309)
(-0.000881115 -0.00266404 0.00103309)
(-0.000405123 -0.00277657 0.00103309)
(8.31767e-05 -0.00280474 0.00103309)
(0.000404641 -0.00287793 0.00116657)
(0.000898241 -0.00276394 0.00116657)
(0.00136455 -0.00256597 0.00116657)
(0.00178939 -0.00229004 0.00116657)
(0.00215987 -0.00194452 0.00116657)
(0.00246472 -0.00153992 0.00116657)
(0.00269468 -0.00108853 0.00116657)
(0.00284276 -0.000604071 0.00116657)
(0.00290447 -0.000101254 0.00116657)
(0.00287793 0.000404641 0.00116657)
(0.00276394 0.000898241 0.00116657)
(0.00256597 0.00136455 0.00116657)
(0.00229004 0.00178939 0.00116657)
(0.00194452 0.00215987 0.00116657)
(0.00153992 0.00246472 0.00116657)
(0.00108853 0.00269468 0.00116657)
(0.000604071 0.00284276 0.00116657)
(0.000101254 0.00290447 0.00116657)
(-0.000404641 0.00287793 0.00116657)
(-0.000898241 0.00276394 0.00116657)
(-0.00136455 0.00256597 0.00116657)
(-0.00178939 0.00229004 0.00116657)
(-0.00215987 0.00194452 0.00116657)
(-0.00246472 0.00153992 0.00116657)
(-0.00269468 0.00108853 0.00116657)
(-0.00284276 0.000604071 0.00116657)
(-0.00290447 0.000101254 0.00116657)
(-0.00287793 -0.000404641 0.00116657)
(-0.00276394 -0.000898241 0.00116657)
(-0.00256597 -0.00136455 0.00116657)
(-0.00229004 -0.00178939 0.00116657)
(-0.00194452 -0.00215987 0.00116657)
(-0.00153992 -0.00246472 0.00116657)
(-0.00108853 -0.00269468 0.00116657)
(-0.000604071 -0.00284276 0.00116657)
(-0.000101254 -0.00290447 0.00116657)
(0.000208482 -0.00299328 0.00127713)
(0.000725093 -0.0029116 0.00127713)
(0.00121967 -0.00274146 0.00127713)
(0.00167719 -0.00248802 0.00127713)
(0.00208375 -0.00215898 0.00127713)
(0.002427 -0.00176434 0.00127713)
(0.0026965 -0.00131609 0.00127713)
(0.00288407 -0.000827854 0.00127713)
(0.00298401 -0.000314464 0.00127713)
(0.00299328 0.000208482 0.00127713)
(0.0029116 0.000725093 0.00127713)
(0.00274146 0.00121967 0.00127713)
(0.00248802 0.00167719 0.00127713)
(0.00215898 0.00208375 0.00127713)
(0.00176434 0.002427 0.00127713)
(0.00131609 0.0026965 0.00127713)
(0.000827854 0.00288407 0.00127713)
(0.000314464 0.00298401 0.00127713)
(-0.000208482 0.00299328 0.00127713)
(-0.000725093 0.0029116 0.00127713)
(-0.00121967 0.00274146 0.00127713)
(-0.00167719 0.00248802 0.00127713)
(-0.00208375 0.00215898 0.00127713)
(-0.002427 0.00176434 0.00127713)
(-0.0026965 0.00131609 0.00127713)
(-0.00288407 0.000827854 0.00127713)
(-0.00298401 0.000314464 0.00127713)
(-0.00299328 -0.000208482 0.00127713)
(-0.0029116 -0.000725093 0.00127713)
(-0.00274146 -0.00121967 0.00127713)
(-0.00248802 -0.00167719 0.00127713)
(-0.00215898 -0.00208375 0.00127713)
(-0.00176434 -0.002427 0.00127713)
(-0.00131609 -0.0026965 0.00127713)
(-0.000827854 -0.00288407 0.00127713)
(-0.000314464 -0.00298401 0.00127713)
(0.000482607 -0.003282 0.00133362)
(0.00104519 -0.00314834 0.00133362)
(0.00157601 -0.00291901 0.00133362)
(0.00205895 -0.00260099 0.00133362)
(0.00247933 -0.00220395 0.00133362)
(0.00282437 -0.00173993 0.00133362)
(0.0030836 -0.00122305 0.00133362)
(0.00324914 -0.000669009 0.00133362)
(0.00331595 -9.46388e-05 0.00133362)
(0.003282 0.000482607 0.00133362)
(0.00314834 0.00104519 0.00133362)
(0.00291901 0.00157601 0.00133362)
(0.00260099 0.00205895 0.00133362)
(0.00220395 0.00247933 0.00133362)
(0.00173993 0.00282437 0.00133362)
(0.00122305 0.0030836 0.00133362)
(0.000669009 0.00324914 0.00133362)
(9.46388e-05 0.00331595 0.00133362)
(-0.000482607 0.003282 0.00133362)
(-0.00104519 0.00314834 0.00133362)
(-0.00157601 0.00291901 0.00133362)
(-0.00205895 0.00260099 0.00133362)
(-0.00247933 0.00220395 0.00133362)
(-0.00282437 0.00173993 0.00133362)
(-0.0030836 0.00122305 0.00133362)
(-0.00324914 0.000669009 0.00133362)
(-0.00331595 9.46388e-05 0.00133362)
(-0.003282 -0.000482607 0.00133362)
(-0.00314834 -0.00104519 0.00133362)
(-0.00291901 -0.00157601 0.00133362)
(-0.00260099 -0.00205895 0.00133362)
(-0.00220395 -0.00247933 0.00133362)
(-0.00173993 -0.00282437 0.00133362)
(-0.00122305 -0.0030836 0.00133362)
(-0.000669009 -0.00324914 0.00133362)
(-9.46388e-05 -0.00331595 0.00133362)
(0.000320274 -0.00336575 0.00145428)
(0.000899866 -0.003259 0.00145428)
(0.00145212 -0.00305323 0.00145428)
(0.00196024 -0.00275469 0.00145428)
(0.00240881 -0.00237245 0.00145428)
(0.00278418 -0.00191812 0.00145428)
(0.00307496 -0.00140551 0.00145428)
(0.00327231 -0.000850197 0.00145428)
(0.00337023 -0.000269048 0.00145428)
(0.00336575 0.000320274 0.00145428)
(0.003259 0.000899866 0.00145428)
(0.00305323 0.00145212 0.00145428)
(0.00275469 0.00196024 0.00145428)
(0.00237245 0.00240881 0.00145428)
(0.00191812 0.00278418 0.00145428)
(0.00140551 0.00307496 0.00145428)
(0.000850197 0.00327231 0.00145428)
(0.000269048 0.00337023 0.00145428)
(-0.000320274 0.00336575 0.00145428)
(-0.000899866 0.003259 0.00145428)
(-0.00145212 0.00305323 0.00145428)
(-0.00196024 0.00275469 0.00145428)
(-0.00240881 0.00237245 0.00145428)
(-0.00278418 0.00191812 0.00145428)
(-0.00307496 0.00140551 0.00145428)
(-0.00327231 0.000850197 0.00145428)
(-0.00337023 0.000269048 0.00145428)
(-0.00336575 -0.000320274 0.00145428)
(-0.003259 -0.000899866 0.00145428)
(-0.00305323 -0.00145212 0.00145428)
(-0.00275469 -0.00196024 0.00145428)
(-0.00237245 -0.00240881 0.00145428)
(-0.00191812 -0.00278418 0.00145428)
(-0.00140551 -0.00307496 0.00145428)
(-0.000850197 -0.00327231 0.00145428)
(-0.000269048 -0.00337023 0.00145428)
(0.000132745 -0.00343699 0.00155215)
(0.000727556 -0.00336172 0.00155215)
(0.00130026 -0.00318431 0.00155215)
(0.00183346 -0.00291015 0.00155215)
(0.00231094 -0.00254756 0.00155215)
(0.00271822 -0.00210757 0.00155215)
(0.00304289 -0.00160354 0.00155215)
(0.00327512 -0.00105078 0.00155215)
(0.00340783 -0.000466099 0.00155215)
(0.00343699 0.000132745 0.00155215)
(0.00336172 0.000727556 0.00155215)
(0.00318431 0.00130026 0.00155215)
(0.00291015 0.00183346 0.00155215)
(0.00254756 0.00231094 0.00155215)
(0.00210757 0.00271822 0.00155215)
(0.00160354 0.00304289 0.00155215)
(0.00105078 0.00327512 0.00155215)
(0.000466099 0.00340783 0.00155215)
(-0.000132745 0.00343699 0.00155215)
(-0.000727556 0.00336172 0.00155215)
(-0.00130026 0.00318431 0.00155215)
(-0.00183346 0.00291015 0.00155215)
(-0.00231094 0.00254756 0.00155215)
(-0.00271822 0.00210757 0.00155215)
(-0.00304289 0.00160354 0.00155215)
(-0.00327512 0.00105078 0.00155215)
(-0.00340783 0.000466099 0.00155215)
(-0.00343699 -0.000132745 0.00155215)
(-0.00336172 -0.000727556 0.00155215)
(-0.00318431 -0.00130026 0.00155215)
(-0.00291015 -0.00183346 0.00155215)
(-0.00254756 -0.00231094 0.00155215)
(-0.00210757 -0.00271822 0.00155215)
(-0.00160354 -0.00304289 0.00155215)
(-0.00105078 -0.00327512 0.00155215)
(-0.000466099 -0.00340783 0.00155215)
(0.000359407 -0.00371717 0.00163694)
(0.000999425 -0.00359828 0.00163693)
(0.00160908 -0.00337007 0.00163693)
(0.00216984 -0.00303946 0.00163693)
(0.00266467 -0.00261649 0.00163693)
(0.00307854 -0.00211403 0.00163693)
(0.00339886 -0.00154733 0.00163693)
(0.00361592 -0.000933613 0.00163693)
(0.0037231 -0.000291531 0.00163694)
(0.00371717 0.000359407 0.00163694)
(0.00359828 0.000999425 0.00163693)
(0.00337007 0.00160908 0.00163693)
(0.00303946 0.00216984 0.00163693)
(0.00261649 0.00266467 0.00163693)
(0.00211403 0.00307854 0.00163693)
(0.00154733 0.00339886 0.00163693)
(0.000933613 0.00361592 0.00163693)
(0.000291531 0.0037231 0.00163694)
(-0.000359407 0.00371717 0.00163694)
(-0.000999425 0.00359828 0.00163693)
(-0.00160908 0.00337007 0.00163693)
(-0.00216984 0.00303946 0.00163693)
(-0.00266467 0.00261649 0.00163693)
(-0.00307854 0.00211403 0.00163693)
(-0.00339886 0.00154733 0.00163693)
(-0.00361592 0.000933613 0.00163693)
(-0.0037231 0.000291531 0.00163694)
(-0.00371717 -0.000359407 0.00163694)
(-0.00359828 -0.000999425 0.00163693)
(-0.00337007 -0.00160908 0.00163693)
(-0.00303946 -0.00216984 0.00163693)
(-0.00261649 -0.00266467 0.00163693)
(-0.00211403 -0.00307854 0.00163693)
(-0.00154733 -0.00339886 0.00163693)
(-0.000933613 -0.00361592 0.00163693)
(-0.000291531 -0.0037231 0.00163694)
(0.000196634 -0.00374695 0.0017369)
(0.000844298 -0.00365588 0.0017369)
(0.00146631 -0.00345372 0.0017369)
(0.00204376 -0.00314663 0.0017369)
(0.00255912 -0.00274393 0.0017369)
(0.00299672 -0.00225786 0.0017369)
(0.00334327 -0.00170318 0.0017369)
(0.00358823 -0.00109676 0.0017369)
(0.00372417 -0.000457003 0.0017369)
(0.00374695 0.000196634 0.0017369)
(0.00365588 0.000844298 0.0017369)
(0.00345372 0.00146631 0.0017369)
(0.00314663 0.00204376 0.0017369)
(0.00274393 0.00255912 0.0017369)
(0.00225786 0.00299672 0.0017369)
(0.00170318 0.00334327 0.0017369)
(0.00109676 0.00358823 0.0017369)
(0.000457003 0.00372417 0.0017369)
(-0.000196634 0.00374695 0.0017369)
(-0.000844298 0.00365588 0.0017369)
(-0.00146631 0.00345372 0.0017369)
(-0.00204376 0.00314663 0.0017369)
(-0.00255912 0.00274393 0.0017369)
(-0.00299672 0.00225786 0.0017369)
(-0.00334327 0.00170318 0.0017369)
(-0.00358823 0.00109676 0.0017369)
(-0.00372417 0.000457003 0.0017369)
(-0.00374695 -0.000196634 0.0017369)
(-0.00365588 -0.000844298 0.0017369)
(-0.00345372 -0.00146631 0.0017369)
(-0.00314663 -0.00204376 0.0017369)
(-0.00274393 -0.00255912 0.0017369)
(-0.00225786 -0.00299672 0.0017369)
(-0.00170318 -0.00334327 0.0017369)
(-0.00109676 -0.00358823 0.0017369)
(-0.000457003 -0.00372417 0.0017369)
(1.69212e-05 -0.00376887 0.00181342)
(0.000671122 -0.00370868 0.00181342)
(0.00130493 -0.00353579 0.00181342)
(0.00189909 -0.00325548 0.00181342)
(0.00243555 -0.00287625 0.00181342)
(0.002898 -0.00240962 0.00181342)
(0.0032724 -0.00186978 0.00181342)
(0.00354737 -0.00127313 0.00181342)
(0.00371455 -0.000637795 0.00181342)
(0.00376887 1.69212e-05 0.00181342)
(0.00370868 0.000671122 0.00181342)
(0.00353579 0.00130493 0.00181342)
(0.00325548 0.00189909 0.00181342)
(0.00287625 0.00243555 0.00181342)
(0.00240962 0.002898 0.00181342)
(0.00186978 0.0032724 0.00181342)
(0.00127313 0.00354737 0.00181342)
(0.000637795 0.00371455 0.00181342)
(-1.69212e-05 0.00376887 0.00181342)
(-0.000671122 0.00370868 0.00181342)
(-0.00130493 0.00353579 0.00181342)
(-0.00189909 0.00325548 0.00181342)
(-0.00243555 0.00287625 0.00181342)
(-0.002898 0.00240962 0.00181342)
(-0.0032724 0.00186978 0.00181342)
(-0.00354737 0.00127313 0.00181342)
(-0.00371455 0.000637795 0.00181342)
(-0.00376887 -1.69212e-05 0.00181342)
(-0.00370868 -0.000671122 0.00181342)
(-0.00353579 -0.00130493 0.00181342)
(-0.00325548 -0.00189909 0.00181342)
(-0.00287625 -0.00243555 0.00181342)
(-0.00240962 -0.002898 0.00181342)
(-0.00186978 -0.0032724 0.00181342)
(-0.00127313 -0.00354737 0.00181342)
(-0.000637795 -0.00371455 0.00181342)
(0.000228886 -0.00402695 0.00195765)
(0.000924681 -0.00392603 0.00195765)
(0.00159238 -0.00370581 0.00195765)
(0.0022117 -0.003373 0.00195765)
(0.00276381 -0.0029377 0.00195765)
(0.00323195 -0.00241314 0.00195765)
(0.00360189 -0.00181525 0.00195765)
(0.00386238 -0.00116221 0.00195765)
(0.00400552 -0.000473862 0.00195765)
(0.00402695 0.000228886 0.00195765)
(0.00392603 0.000924681 0.00195765)
(0.00370581 0.00159238 0.00195765)
(0.003373 0.0022117 0.00195765)
(0.0029377 0.00276381 0.00195765)
(0.00241314 0.00323195 0.00195765)
(0.00181525 0.00360189 0.00195765)
(0.00116221 0.00386238 0.00195765)
(0.000473862 0.00400552 0.00195765)
(-0.000228886 0.00402695 0.00195765)
(-0.000924681 0.00392603 0.00195765)
(-0.00159238 0.00370581 0.00195765)
(-0.0022117 0.003373 0.00195765)
(-0.00276381 0.0029377 0.00195765)
(-0.00323195 0.00241314 0.00195765)
(-0.00360189 0.00181525 0.00195765)
(-0.00386238 0.00116221 0.00195765)
(-0.00400552 0.000473862 0.00195765)