/*--------------------------------*- C++ -*----------------------------------*\
| =========                 |                                                 |
| \\      /  F ield         | OpenFOAM: The Open Source CFD Toolbox           |
|  \\    /   O peration     | Version:  2312                                  |
|   \\  /    A nd           | Website:  www.openfoam.com                      |
|    \\/     M anipulation  |                                                 |
\*---------------------------------------------------------------------------*/
FoamFile
{
    version     2.0;
    format      ascii;
    arch        "LSB;label=32;scalar=64";
    class       volVectorField;
    location    "0.9";
    object      D_0_0_0;
}
// * * * * * * * * * * * * * * * * * * * * * * * * * * * * * * * * * * * * * //

dimensions      [0 1 0 0 0 0 0];

internalField   nonuniform List<vector> 
1620
(
(0.000170472 -0.000291267 4.96993e-05)
(0.00021846 -0.00025724 4.96997e-05)
(0.00025981 -0.000215397 4.96998e-05)
(0.000293267 -0.000167009 4.96995e-05)
(0.000317812 -0.000113546 4.96997e-05)
(0.000332701 -5.66333e-05 4.96996e-05)
(0.00033748 1.99972e-06 4.9699e-05)
(0.000332006 6.05719e-05 4.96988e-05)
(0.000316444 0.000117304 4.96991e-05)
(0.000291267 0.000170472 4.96993e-05)
(0.00025724 0.00021846 4.96997e-05)
(0.000215397 0.00025981 4.96998e-05)
(0.000167009 0.000293267 4.96995e-05)
(0.000113546 0.000317812 4.96997e-05)
(5.66333e-05 0.000332701 4.96996e-05)
(-1.99972e-06 0.00033748 4.9699e-05)
(-6.05719e-05 0.000332006 4.96988e-05)
(-0.000117304 0.000316444 4.96991e-05)
(-0.000170472 0.000291267 4.96993e-05)
(-0.00021846 0.00025724 4.96997e-05)
(-0.00025981 0.000215397 4.96998e-05)
(-0.000293267 0.000167009 4.96995e-05)
(-0.000317812 0.000113546 4.96997e-05)
(-0.000332701 5.66333e-05 4.96996e-05)
(-0.00033748 -1.99972e-06 4.9699e-05)
(-0.000332006 -6.05719e-05 4.96988e-05)
(-0.000316444 -0.000117304 4.96991e-05)
(-0.000291267 -0.000170472 4.96993e-05)
(-0.00025724 -0.00021846 4.96997e-05)
(-0.000215397 -0.00025981 4.96998e-05)
(-0.000167009 -0.000293267 4.96995e-05)
(-0.000113546 -0.000317812 4.96997e-05)
(-5.66333e-05 -0.000332701 4.96996e-05)
(1.99972e-06 -0.00033748 4.9699e-05)
(6.05719e-05 -0.000332006 4.96988e-05)
(0.000117304 -0.000316444 4.96991e-05)
(0.000108466 -0.00034206 8.18106e-05)
(0.000166216 -0.000318028 8.18108e-05)
(0.000218916 -0.000284333 8.18109e-05)
(0.000264964 -0.000241999 8.18108e-05)
(0.000302962 -0.000192312 8.1811e-05)
(0.000331753 -0.000136781 8.18109e-05)
(0.000350465 -7.70946e-05 8.18106e-05)
(0.000358528 -1.50661e-05 8.18106e-05)
(0.000355698 4.74205e-05 8.18106e-05)
(0.00034206 0.000108466 8.18106e-05)
(0.000318028 0.000166216 8.18108e-05)
(0.000284333 0.000218916 8.18109e-05)
(0.000241999 0.000264964 8.18108e-05)
(0.000192312 0.000302962 8.1811e-05)
(0.000136781 0.000331753 8.18109e-05)
(7.70946e-05 0.000350465 8.18106e-05)
(1.50661e-05 0.000358528 8.18106e-05)
(-4.74205e-05 0.000355698 8.18106e-05)
(-0.000108466 0.00034206 8.18106e-05)
(-0.000166216 0.000318028 8.18108e-05)
(-0.000218916 0.000284333 8.18109e-05)
(-0.000264964 0.000241999 8.18108e-05)
(-0.000302962 0.000192312 8.1811e-05)
(-0.000331753 0.000136781 8.18109e-05)
(-0.000350465 7.70946e-05 8.18106e-05)
(-0.000358528 1.50661e-05 8.18106e-05)
(-0.000355698 -4.74205e-05 8.18106e-05)
(-0.00034206 -0.000108466 8.18106e-05)
(-0.000318028 -0.000166216 8.18108e-05)
(-0.000284333 -0.000218916 8.18109e-05)
(-0.000241999 -0.000264964 8.18108e-05)
(-0.000192312 -0.000302962 8.1811e-05)
(-0.000136781 -0.000331753 8.18109e-05)
(-7.70946e-05 -0.000350465 8.18106e-05)
(-1.50661e-05 -0.000358528 8.18106e-05)
(4.74205e-05 -0.000355698 8.18106e-05)
(5.32038e-06 -0.000389988 9.92174e-05)
(7.29603e-05 -0.00038314 9.92173e-05)
(0.000138384 -0.00036465 9.92177e-05)
(0.000199602 -0.00033508 9.92177e-05)
(0.000254756 -0.000295329 9.92178e-05)
(0.000302169 -0.000246604 9.92175e-05)
(0.000340401 -0.000190387 9.92176e-05)
(0.00036829 -0.000128384 9.92177e-05)
(0.000384988 -6.24811e-05 9.92175e-05)
(0.000389988 5.32038e-06 9.92174e-05)
(0.00038314 7.29603e-05 9.92173e-05)
(0.00036465 0.000138384 9.92177e-05)
(0.00033508 0.000199602 9.92177e-05)
(0.000295329 0.000254756 9.92178e-05)
(0.000246604 0.000302169 9.92175e-05)
(0.000190387 0.000340401 9.92176e-05)
(0.000128384 0.00036829 9.92177e-05)
(6.24811e-05 0.000384988 9.92175e-05)
(-5.32038e-06 0.000389988 9.92174e-05)
(-7.29603e-05 0.00038314 9.92173e-05)
(-0.000138384 0.00036465 9.92177e-05)
(-0.000199602 0.00033508 9.92177e-05)
(-0.000254756 0.000295329 9.92178e-05)
(-0.000302169 0.000246604 9.92175e-05)
(-0.000340401 0.000190387 9.92176e-05)
(-0.00036829 0.000128384 9.92177e-05)
(-0.000384988 6.24811e-05 9.92175e-05)
(-0.000389988 -5.32038e-06 9.92174e-05)
(-0.00038314 -7.29603e-05 9.92173e-05)
(-0.00036465 -0.000138384 9.92177e-05)
(-0.00033508 -0.000199602 9.92177e-05)
(-0.000295329 -0.000254756 9.92178e-05)
(-0.000246604 -0.000302169 9.92175e-05)
(-0.000190387 -0.000340401 9.92176e-05)
(-0.000128384 -0.00036829 9.92177e-05)
(-6.24811e-05 -0.000384988 9.92175e-05)
(0.000378769 -0.000890657 0.000196745)
(0.000527676 -0.000811354 0.000196746)
(0.000660549 -0.000707398 0.000196747)
(0.000773352 -0.000581947 0.000196747)
(0.000862657 -0.000438814 0.000196747)
(0.000925751 -0.000282349 0.000196746)
(0.000960716 -0.000117305 0.000196745)
(0.00096649 5.1304e-05 0.000196744)
(0.000942898 0.000218353 0.000196745)
(0.000890657 0.000378769 0.000196745)
(0.000811354 0.000527676 0.000196746)
(0.000707398 0.000660549 0.000196747)
(0.000581947 0.000773352 0.000196747)
(0.000438814 0.000862657 0.000196747)
(0.000282349 0.000925751 0.000196746)
(0.000117305 0.000960716 0.000196745)
(-5.1304e-05 0.00096649 0.000196744)
(-0.000218353 0.000942898 0.000196745)
(-0.000378769 0.000890657 0.000196745)
(-0.000527676 0.000811354 0.000196746)
(-0.000660549 0.000707398 0.000196747)
(-0.000773352 0.000581947 0.000196747)
(-0.000862657 0.000438814 0.000196747)
(-0.000925751 0.000282349 0.000196746)
(-0.000960716 0.000117305 0.000196745)
(-0.00096649 -5.1304e-05 0.000196744)
(-0.000942898 -0.000218353 0.000196745)
(-0.000890657 -0.000378769 0.000196745)
(-0.000811354 -0.000527676 0.000196746)
(-0.000707398 -0.000660549 0.000196747)
(-0.000581947 -0.000773352 0.000196747)
(-0.000438814 -0.000862657 0.000196747)
(-0.000282349 -0.000925751 0.000196746)
(-0.000117305 -0.000960716 0.000196745)
(5.1304e-05 -0.00096649 0.000196744)
(0.000218353 -0.000942898 0.000196745)
(0.000274479 -0.00101749 0.000290209)
(0.000446995 -0.000954368 0.000290209)
(0.000605929 -0.000862249 0.00029021)
(0.000746452 -0.000743932 0.00029021)
(0.000864294 -0.00060301 0.00029021)
(0.000955875 -0.000443765 0.00029021)
(0.00101841 -0.000271038 0.000290209)
(0.00105 -9.00748e-05 0.000290209)
(0.00104969 9.36244e-05 0.000290209)
(0.00101749 0.000274479 0.000290209)
(0.000954368 0.000446995 0.000290209)
(0.000862249 0.000605929 0.00029021)
(0.000743932 0.000746452 0.00029021)
(0.00060301 0.000864294 0.00029021)
(0.000443765 0.000955875 0.00029021)
(0.000271038 0.00101841 0.000290209)
(9.00748e-05 0.00105 0.000290209)
(-9.36244e-05 0.00104969 0.000290209)
(-0.000274479 0.00101749 0.000290209)
(-0.000446995 0.000954368 0.000290209)
(-0.000605929 0.000862249 0.00029021)
(-0.000746452 0.000743932 0.00029021)
(-0.000864294 0.00060301 0.00029021)
(-0.000955875 0.000443765 0.00029021)
(-0.00101841 0.000271038 0.000290209)
(-0.00105 9.00748e-05 0.000290209)
(-0.00104969 -9.36244e-05 0.000290209)
(-0.00101749 -0.000274479 0.000290209)
(-0.000954368 -0.000446995 0.000290209)
(-0.000862249 -0.000605929 0.00029021)
(-0.000743932 -0.000746452 0.00029021)
(-0.00060301 -0.000864294 0.00029021)
(-0.000443765 -0.000955875 0.00029021)
(-0.000271038 -0.00101841 0.000290209)
(-9.00748e-05 -0.00105 0.000290209)
(9.36244e-05 -0.00104969 0.000290209)
(0.000121656 -0.00113636 0.00036154)
(0.000317134 -0.00109797 0.00036154)
(0.000502977 -0.00102622 0.00036154)
(0.000673536 -0.000923287 0.000361541)
(0.000823632 -0.000792302 0.00036154)
(0.000948701 -0.000637243 0.00036154)
(0.00104494 -0.000462822 0.00036154)
(0.00110944 -0.000274339 0.00036154)
(0.00114022 -7.75192e-05 0.00036154)
(0.00113636 0.000121656 0.00036154)
(0.00109797 0.000317134 0.00036154)
(0.00102622 0.000502977 0.00036154)
(0.000923287 0.000673536 0.000361541)
(0.000792302 0.000823632 0.00036154)
(0.000637243 0.000948701 0.00036154)
(0.000462822 0.00104494 0.00036154)
(0.000274339 0.00110944 0.00036154)
(7.75192e-05 0.00114022 0.00036154)
(-0.000121656 0.00113636 0.00036154)
(-0.000317134 0.00109797 0.00036154)
(-0.000502977 0.00102622 0.00036154)
(-0.000673536 0.000923287 0.000361541)
(-0.000823632 0.000792302 0.00036154)
(-0.000948701 0.000637243 0.00036154)
(-0.00104494 0.000462822 0.00036154)
(-0.00110944 0.000274339 0.00036154)
(-0.00114022 7.75192e-05 0.00036154)
(-0.00113636 -0.000121656 0.00036154)
(-0.00109797 -0.000317134 0.00036154)
(-0.00102622 -0.000502977 0.00036154)
(-0.000923287 -0.000673536 0.000361541)
(-0.000792302 -0.000823632 0.00036154)
(-0.000637243 -0.000948701 0.00036154)
(-0.000462822 -0.00104494 0.00036154)
(-0.000274339 -0.00110944 0.00036154)
(-7.75192e-05 -0.00114022 0.00036154)
(0.000530472 -0.00151233 0.000442354)
(0.000785027 -0.00139724 0.000442355)
(0.00101573 -0.00123969 0.000442356)
(0.00121557 -0.00104448 0.000442356)
(0.00137847 -0.000817531 0.000442356)
(0.00149949 -0.000565742 0.000442355)
(0.00157495 -0.000296762 0.000442354)
(0.00160256 -1.87658e-05 0.000442353)
(0.00158147 0.0002598 0.000442354)
(0.00151233 0.000530472 0.000442354)
(0.00139724 0.000785027 0.000442355)
(0.00123969 0.00101573 0.000442356)
(0.00104448 0.00121557 0.000442356)
(0.000817531 0.00137847 0.000442356)
(0.000565742 0.00149949 0.000442355)
(0.000296762 0.00157495 0.000442354)
(1.87658e-05 0.00160256 0.000442353)
(-0.0002598 0.00158147 0.000442354)
(-0.000530472 0.00151233 0.000442354)
(-0.000785027 0.00139724 0.000442355)
(-0.00101573 0.00123969 0.000442356)
(-0.00121557 0.00104448 0.000442356)
(-0.00137847 0.000817531 0.000442356)
(-0.00149949 0.000565742 0.000442355)
(-0.00157495 0.000296762 0.000442354)
(-0.00160256 1.87658e-05 0.000442353)
(-0.00158147 -0.0002598 0.000442354)
(-0.00151233 -0.000530472 0.000442354)
(-0.00139724 -0.000785027 0.000442355)
(-0.00123969 -0.00101573 0.000442356)
(-0.00104448 -0.00121557 0.000442356)
(-0.000817531 -0.00137847 0.000442356)
(-0.000565742 -0.00149949 0.000442355)
(-0.000296762 -0.00157495 0.000442354)
(-1.87658e-05 -0.00160256 0.000442353)
(0.0002598 -0.00158147 0.000442354)
(0.000387153 -0.00167691 0.000567762)
(0.000672464 -0.00158421 0.000567763)
(0.000937343 -0.00144337 0.000567763)
(0.00117374 -0.00125867 0.000567763)
(0.00137448 -0.00103573 0.000567763)
(0.00153345 -0.000781322 0.000567763)
(0.00164583 -0.000503172 0.000567762)
(0.0017082 -0.000209733 0.000567762)
(0.00171867 9.00778e-05 0.000567762)
(0.00167691 0.000387153 0.000567762)
(0.00158421 0.000672464 0.000567763)
(0.00144337 0.000937343 0.000567763)
(0.00125867 0.00117374 0.000567763)
(0.00103573 0.00137448 0.000567763)
(0.000781322 0.00153345 0.000567763)
(0.000503172 0.00164583 0.000567762)
(0.000209733 0.0017082 0.000567762)
(-9.00778e-05 0.00171867 0.000567762)
(-0.000387153 0.00167691 0.000567762)
(-0.000672464 0.00158421 0.000567763)
(-0.000937343 0.00144337 0.000567763)
(-0.00117374 0.00125867 0.000567763)
(-0.00137448 0.00103573 0.000567763)
(-0.00153345 0.000781322 0.000567763)
(-0.00164583 0.000503172 0.000567762)
(-0.0017082 0.000209733 0.000567762)
(-0.00171867 -9.00778e-05 0.000567762)
(-0.00167691 -0.000387153 0.000567762)
(-0.00158421 -0.000672464 0.000567763)
(-0.00144337 -0.000937343 0.000567763)
(-0.00125867 -0.00117374 0.000567763)
(-0.00103573 -0.00137448 0.000567763)
(-0.000781322 -0.00153345 0.000567763)
(-0.000503172 -0.00164583 0.000567762)
(-0.000209733 -0.0017082 0.000567762)
(9.00778e-05 -0.00171867 0.000567762)
(0.000200489 -0.00182772 0.000669977)
(0.000514824 -0.00176514 0.000669977)
(0.000813516 -0.00164892 0.000669977)
(0.00108749 -0.00148261 0.000669977)
(0.00132842 -0.00127124 0.000669977)
(0.00152899 -0.00102125 0.000669977)
(0.0016831 -0.000740231 0.000669977)
(0.00178607 -0.000436719 0.000669977)
(0.00183477 -0.000119937 0.000669977)
(0.00182772 0.000200489 0.000669977)
(0.00176514 0.000514824 0.000669977)
(0.00164892 0.000813516 0.000669977)
(0.00148261 0.00108749 0.000669977)
(0.00127124 0.00132842 0.000669977)
(0.00102125 0.00152899 0.000669977)
(0.000740231 0.0016831 0.000669977)
(0.000436719 0.00178607 0.000669977)
(0.000119937 0.00183477 0.000669977)
(-0.000200489 0.00182772 0.000669977)
(-0.000514824 0.00176514 0.000669977)
(-0.000813516 0.00164892 0.000669977)
(-0.00108749 0.00148261 0.000669977)
(-0.00132842 0.00127124 0.000669977)
(-0.00152899 0.00102125 0.000669977)
(-0.0016831 0.000740231 0.000669977)
(-0.00178607 0.000436719 0.000669977)
(-0.00183477 0.000119937 0.000669977)
(-0.00182772 -0.000200489 0.000669977)
(-0.00176514 -0.000514824 0.000669977)
(-0.00164892 -0.000813516 0.000669977)
(-0.00148261 -0.00108749 0.000669977)
(-0.00127124 -0.00132842 0.000669977)
(-0.00102125 -0.00152899 0.000669977)
(-0.000740231 -0.0016831 0.000669977)
(-0.000436719 -0.00178607 0.000669977)
(-0.000119937 -0.00183477 0.000669977)
(0.000591854 -0.00214111 0.000731084)
(0.000954662 -0.00200581 0.000731085)
(0.00128846 -0.00180956 0.000731085)
(0.00158312 -0.00155833 0.000731085)
(0.00182967 -0.00125975 0.000731084)
(0.00202062 -0.000922891 0.000731084)
(0.00215018 -0.000557993 0.000731083)
(0.00221441 -0.000176141 0.000731083)
(0.00221136 0.000211063 0.000731083)
(0.00214111 0.000591854 0.000731084)
(0.00200581 0.000954662 0.000731085)
(0.00180956 0.00128846 0.000731085)
(0.00155833 0.00158312 0.000731085)
(0.00125975 0.00182967 0.000731084)
(0.000922891 0.00202062 0.000731084)
(0.000557993 0.00215018 0.000731083)
(0.000176141 0.00221441 0.000731083)
(-0.000211063 0.00221136 0.000731083)
(-0.000591854 0.00214111 0.000731084)
(-0.000954662 0.00200581 0.000731085)
(-0.00128846 0.00180956 0.000731085)
(-0.00158312 0.00155833 0.000731085)
(-0.00182967 0.00125975 0.000731084)
(-0.00202062 0.000922891 0.000731084)
(-0.00215018 0.000557993 0.000731083)
(-0.00221441 0.000176141 0.000731083)
(-0.00221136 -0.000211063 0.000731083)
(-0.00214111 -0.000591854 0.000731084)
(-0.00200581 -0.000954662 0.000731085)
(-0.00180956 -0.00128846 0.000731085)
(-0.00155833 -0.00158312 0.000731085)
(-0.00125975 -0.00182967 0.000731084)
(-0.000922891 -0.00202062 0.000731084)
(-0.000557993 -0.00215018 0.000731083)
(-0.000176141 -0.00221441 0.000731083)
(0.000211063 -0.00221136 0.000731083)
(0.000430836 -0.00230133 0.000866543)
(0.000823912 -0.00219155 0.000866543)
(0.00119195 -0.00201518 0.000866543)
(0.00152378 -0.00177759 0.000866543)
(0.0018093 -0.00148598 0.000866543)
(0.00203986 -0.00114922 0.000866542)
(0.00220843 -0.000777548 0.000866542)
(0.0023099 -0.000382247 0.000866542)
(0.00234118 2.46694e-05 0.000866542)
(0.00230133 0.000430836 0.000866543)
(0.00219155 0.000823912 0.000866543)
(0.00201518 0.00119195 0.000866543)
(0.00177759 0.00152378 0.000866543)
(0.00148598 0.0018093 0.000866543)
(0.00114922 0.00203986 0.000866542)
(0.000777548 0.00220843 0.000866542)
(0.000382247 0.0023099 0.000866542)
(-2.46694e-05 0.00234118 0.000866542)
(-0.000430836 0.00230133 0.000866543)
(-0.000823912 0.00219155 0.000866543)
(-0.00119195 0.00201518 0.000866543)
(-0.00152378 0.00177759 0.000866543)
(-0.0018093 0.00148598 0.000866543)
(-0.00203986 0.00114922 0.000866542)
(-0.00220843 0.000777548 0.000866542)
(-0.0023099 0.000382247 0.000866542)
(-0.00234118 -2.46694e-05 0.000866542)
(-0.00230133 -0.000430836 0.000866543)
(-0.00219155 -0.000823912 0.000866543)
(-0.00201518 -0.00119195 0.000866543)
(-0.00177759 -0.00152378 0.000866543)
(-0.00148598 -0.0018093 0.000866543)
(-0.00114922 -0.00203986 0.000866542)
(-0.000777548 -0.00220843 0.000866542)
(-0.000382247 -0.0023099 0.000866542)
(2.46694e-05 -0.00234118 0.000866542)
(0.000232508 -0.00244613 0.000978901)
(0.000653742 -0.00236859 0.000978901)
(0.00105511 -0.00221909 0.000978901)
(0.00142442 -0.00200215 0.000978901)
(0.00175045 -0.00172439 0.000978901)
(0.0020233 -0.00139423 0.000978901)
(0.00223466 -0.00102171 0.000978901)
(0.00237813 -0.000618139 0.000978901)
(0.00244934 -0.000195791 0.000978901)
(0.00244613 0.000232508 0.000978901)
(0.00236859 0.000653742 0.000978901)
(0.00221909 0.00105511 0.000978901)
(0.00200215 0.00142442 0.000978901)
(0.00172439 0.00175045 0.000978901)
(0.00139423 0.0020233 0.000978901)
(0.00102171 0.00223466 0.000978901)
(0.000618139 0.00237813 0.000978901)
(0.000195791 0.00244934 0.000978901)
(-0.000232508 0.00244613 0.000978901)
(-0.000653742 0.00236859 0.000978901)
(-0.00105511 0.00221909 0.000978901)
(-0.00142442 0.00200215 0.000978901)
(-0.00175045 0.00172439 0.000978901)
(-0.0020233 0.00139423 0.000978901)
(-0.00223466 0.00102171 0.000978901)
(-0.00237813 0.000618139 0.000978901)
(-0.00244934 0.000195791 0.000978901)
(-0.00244613 -0.000232508 0.000978901)
(-0.00236859 -0.000653742 0.000978901)
(-0.00221909 -0.00105511 0.000978901)
(-0.00200215 -0.00142442 0.000978901)
(-0.00172439 -0.00175045 0.000978901)
(-0.00139423 -0.0020233 0.000978901)
(-0.00102171 -0.00223466 0.000978901)
(-0.000618139 -0.00237813 0.000978901)
(-0.000195791 -0.00244934 0.000978901)
(0.000570317 -0.00274087 0.00103289)
(0.0010376 -0.0026002 0.00103289)
(0.00147336 -0.00238052 0.00103289)
(0.00186435 -0.00208851 0.00103289)
(0.00219869 -0.00173304 0.00103289)
(0.00246622 -0.00132491 0.00103289)
(0.00265883 -0.000876529 0.00103289)
(0.00277064 -0.000401512 0.00103289)
(0.00279827 8.57043e-05 0.00103289)
(0.00274087 0.000570317 0.00103289)
(0.0026002 0.0010376 0.00103289)
(0.00238052 0.00147336 0.00103289)
(0.00208851 0.00186435 0.00103289)
(0.00173304 0.00219869 0.00103289)
(0.00132491 0.00246622 0.00103289)
(0.000876529 0.00265883 0.00103289)
(0.000401512 0.00277064 0.00103289)
(-8.57043e-05 0.00279827 0.00103289)
(-0.000570317 0.00274087 0.00103289)
(-0.0010376 0.0026002 0.00103289)
(-0.00147336 0.00238052 0.00103289)
(-0.00186435 0.00208851 0.00103289)
(-0.00219869 0.00173304 0.00103289)
(-0.00246622 0.00132491 0.00103289)
(-0.00265883 0.000876529 0.00103289)
(-0.00277064 0.000401512 0.00103289)
(-0.00279827 -8.57043e-05 0.00103289)
(-0.00274087 -0.000570317 0.00103289)
(-0.0026002 -0.0010376 0.00103289)
(-0.00238052 -0.00147336 0.00103289)
(-0.00208851 -0.00186435 0.00103289)
(-0.00173304 -0.00219869 0.00103289)
(-0.00132491 -0.00246622 0.00103289)
(-0.000876529 -0.00265883 0.00103289)
(-0.000401512 -0.00277064 0.00103289)
(8.57043e-05 -0.00279827 0.00103289)
(0.000405921 -0.00286892 0.00116454)
(0.000897938 -0.00275485 0.00116454)
(0.00136267 -0.00255707 0.00116454)
(0.001786 -0.0022816 0.00116454)
(0.00215506 -0.0019368 0.00116454)
(0.00245864 -0.00153315 0.00116454)
(0.00268752 -0.00108292 0.00116454)
(0.00283474 -0.000599789 0.00116454)
(0.00289582 -9.84294e-05 0.00116454)
(0.00286892 0.000405921 0.00116454)
(0.00275485 0.000897938 0.00116454)
(0.00255707 0.00136267 0.00116454)
(0.0022816 0.001786 0.00116454)
(0.0019368 0.00215506 0.00116454)
(0.00153315 0.00245864 0.00116454)
(0.00108292 0.00268752 0.00116454)
(0.000599789 0.00283474 0.00116454)
(9.84294e-05 0.00289582 0.00116454)
(-0.000405921 0.00286892 0.00116454)
(-0.000897938 0.00275485 0.00116454)
(-0.00136267 0.00255707 0.00116454)
(-0.001786 0.0022816 0.00116454)
(-0.00215506 0.0019368 0.00116454)
(-0.00245864 0.00153315 0.00116454)
(-0.00268752 0.00108292 0.00116454)
(-0.00283474 0.000599789 0.00116454)
(-0.00289582 9.84294e-05 0.00116454)
(-0.00286892 -0.000405921 0.00116454)
(-0.00275485 -0.000897938 0.00116454)
(-0.00255707 -0.00136267 0.00116454)
(-0.0022816 -0.001786 0.00116454)
(-0.0019368 -0.00215506 0.00116454)
(-0.00153315 -0.00245864 0.00116454)
(-0.00108292 -0.00268752 0.00116454)
(-0.000599789 -0.00283474 0.00116454)
(-9.84294e-05 -0.00289582 0.00116454)
(0.00021005 -0.00298227 0.00127352)
(0.000724724 -0.00290048 0.00127352)
(0.00121738 -0.00273057 0.00127352)
(0.00167304 -0.00247769 0.00127352)
(0.00207787 -0.00214953 0.00127352)
(0.00241957 -0.00175606 0.00127352)
(0.00268774 -0.00130923 0.00127352)
(0.00287426 -0.000822614 0.00127352)
(0.00297343 -0.000311007 0.00127352)
(0.00298227 0.00021005 0.00127352)
(0.00290048 0.000724724 0.00127352)
(0.00273057 0.00121738 0.00127352)
(0.00247769 0.00167304 0.00127352)
(0.00214953 0.00207787 0.00127352)
(0.00175606 0.00241957 0.00127352)
(0.00130923 0.00268774 0.00127352)
(0.000822614 0.00287426 0.00127352)
(0.000311007 0.00297343 0.00127352)
(-0.00021005 0.00298227 0.00127352)
(-0.000724724 0.00290048 0.00127352)
(-0.00121738 0.00273057 0.00127352)
(-0.00167304 0.00247769 0.00127352)
(-0.00207787 0.00214953 0.00127352)
(-0.00241957 0.00175606 0.00127352)
(-0.00268774 0.00130923 0.00127352)
(-0.00287426 0.000822614 0.00127352)
(-0.00297343 0.000311007 0.00127352)
(-0.00298227 -0.00021005 0.00127352)
(-0.00290048 -0.000724724 0.00127352)
(-0.00273057 -0.00121738 0.00127352)
(-0.00247769 -0.00167304 0.00127352)
(-0.00214953 -0.00207787 0.00127352)
(-0.00175606 -0.00241957 0.00127352)
(-0.00130923 -0.00268774 0.00127352)
(-0.000822614 -0.00287426 0.00127352)
(-0.000311007 -0.00297343 0.00127352)
(0.000485856 -0.00327389 0.00133465)
(0.00104698 -0.00313978 0.00133465)
(0.00157629 -0.00291028 0.00133465)
(0.00205771 -0.00259234 0.00133465)
(0.0024766 -0.00219564 0.00133465)
(0.00282025 -0.00173223 0.00133465)
(0.0030782 -0.00121618 0.00133465)
(0.00324262 -0.000663181 0.00133465)
(0.00330852 -9.00305e-05 0.00133465)
(0.00327389 0.000485856 0.00133465)
(0.00313978 0.00104698 0.00133465)
(0.00291028 0.00157629 0.00133465)
(0.00259234 0.00205771 0.00133465)
(0.00219564 0.0024766 0.00133465)
(0.00173223 0.00282025 0.00133465)
(0.00121618 0.0030782 0.00133465)
(0.000663181 0.00324262 0.00133465)
(9.00305e-05 0.00330852 0.00133465)
(-0.000485856 0.00327389 0.00133465)
(-0.00104698 0.00313978 0.00133465)
(-0.00157629 0.00291028 0.00133465)
(-0.00205771 0.00259234 0.00133465)
(-0.0024766 0.00219564 0.00133465)
(-0.00282025 0.00173223 0.00133465)
(-0.0030782 0.00121618 0.00133465)
(-0.00324262 0.000663181 0.00133465)
(-0.00330852 9.00305e-05 0.00133465)
(-0.00327389 -0.000485856 0.00133465)
(-0.00313978 -0.00104698 0.00133465)
(-0.00291028 -0.00157629 0.00133465)
(-0.00259234 -0.00205771 0.00133465)
(-0.00219564 -0.0024766 0.00133465)
(-0.00173223 -0.00282025 0.00133465)
(-0.00121618 -0.0030782 0.00133465)
(-0.000663181 -0.00324262 0.00133465)
(-9.00305e-05 -0.00330852 0.00133465)
(0.000323156 -0.0033553 0.00145341)
(0.000900889 -0.00324821 0.00145341)
(0.00145125 -0.00304243 0.00145341)
(0.00195751 -0.0027442 0.00145341)
(0.0024043 -0.00236259 0.00145341)
(0.00277803 -0.00190919 0.00145341)
(0.00306735 -0.00139779 0.00145341)
(0.00326348 -0.000843915 0.00145341)
(0.00336044 -0.000264396 0.00145341)
(0.0033553 0.000323156 0.00145341)
(0.00324821 0.000900889 0.00145341)
(0.00304243 0.00145125 0.00145341)
(0.0027442 0.00195751 0.00145341)
(0.00236259 0.0024043 0.00145341)
(0.00190919 0.00277803 0.00145341)
(0.00139779 0.00306735 0.00145341)
(0.000843915 0.00326348 0.00145341)
(0.000264396 0.00336044 0.00145341)
(-0.000323156 0.0033553 0.00145341)
(-0.000900889 0.00324821 0.00145341)
(-0.00145125 0.00304243 0.00145341)
(-0.00195751 0.0027442 0.00145341)
(-0.0024043 0.00236259 0.00145341)
(-0.00277803 0.00190919 0.00145341)
(-0.00306735 0.00139779 0.00145341)
(-0.00326348 0.000843915 0.00145341)
(-0.00336044 0.000264396 0.00145341)
(-0.0033553 -0.000323156 0.00145341)
(-0.00324821 -0.000900889 0.00145341)
(-0.00304243 -0.00145125 0.00145341)
(-0.0027442 -0.00195751 0.00145341)
(-0.00236259 -0.0024043 0.00145341)
(-0.00190919 -0.00277803 0.00145341)
(-0.00139779 -0.00306735 0.00145341)
(-0.000843915 -0.00326348 0.00145341)
(-0.000264396 -0.00336044 0.00145341)
(0.00013559 -0.0034244 0.0015496)
(0.000728171 -0.00334883 0.0015496)
(0.00129863 -0.00317151 0.0015496)
(0.00182962 -0.00289782 0.0015496)
(0.00230503 -0.00253609 0.0015496)
(0.0027104 -0.00209729 0.0015496)
(0.00303341 -0.00159478 0.0015496)
(0.00326426 -0.0010438 0.0015496)
(0.00339592 -0.000461111 0.0015496)
(0.0034244 0.00013559 0.0015496)
(0.00334883 0.000728171 0.0015496)
(0.00317151 0.00129863 0.0015496)
(0.00289782 0.00182962 0.0015496)
(0.00253609 0.00230503 0.0015496)
(0.00209729 0.0027104 0.0015496)
(0.00159478 0.00303341 0.0015496)
(0.0010438 0.00326426 0.0015496)
(0.000461111 0.00339592 0.0015496)
(-0.00013559 0.0034244 0.0015496)
(-0.000728171 0.00334883 0.0015496)
(-0.00129863 0.00317151 0.0015496)
(-0.00182962 0.00289782 0.0015496)
(-0.00230503 0.00253609 0.0015496)
(-0.0027104 0.00209729 0.0015496)
(-0.00303341 0.00159478 0.0015496)
(-0.00326426 0.0010438 0.0015496)
(-0.00339592 0.000461111 0.0015496)
(-0.0034244 -0.00013559 0.0015496)
(-0.00334883 -0.000728171 0.0015496)
(-0.00317151 -0.00129863 0.0015496)
(-0.00289782 -0.00182962 0.0015496)
(-0.00253609 -0.00230503 0.0015496)
(-0.00209729 -0.0027104 0.0015496)
(-0.00159478 -0.00303341 0.0015496)
(-0.0010438 -0.00326426 0.0015496)
(-0.000461111 -0.00339592 0.0015496)
(0.000364589 -0.00370835 0.00163981)
(0.001003 -0.0035887 0.00163981)
(0.00161093 -0.00336001 0.00163981)
(0.00216992 -0.00302923 0.00163981)
(0.00266297 -0.0026064 0.00163981)
(0.00307511 -0.00210439 0.00163981)
(0.00339382 -0.00153843 0.00163981)
(0.0036094 -0.000925727 0.00163981)
(0.00371532 -0.000284897 0.00163981)
(0.00370835 0.000364589 0.00163981)
(0.0035887 0.001003 0.00163981)
(0.00336001 0.00161093 0.00163981)
(0.00302923 0.00216992 0.00163981)
(0.0026064 0.00266297 0.00163981)
(0.00210439 0.00307511 0.00163981)
(0.00153843 0.00339382 0.00163981)
(0.000925727 0.0036094 0.00163981)
(0.000284897 0.00371532 0.00163981)
(-0.000364589 0.00370835 0.00163981)
(-0.001003 0.0035887 0.00163981)
(-0.00161093 0.00336001 0.00163981)
(-0.00216992 0.00302923 0.00163981)
(-0.00266297 0.0026064 0.00163981)
(-0.00307511 0.00210439 0.00163981)
(-0.00339382 0.00153843 0.00163981)
(-0.0036094 0.000925727 0.00163981)
(-0.00371532 0.000284897 0.00163981)
(-0.00370835 -0.000364589 0.00163981)
(-0.0035887 -0.001003 0.00163981)
(-0.00336001 -0.00161093 0.00163981)
(-0.00302923 -0.00216992 0.00163981)
(-0.0026064 -0.00266297 0.00163981)
(-0.00210439 -0.00307511 0.00163981)
(-0.00153843 -0.00339382 0.00163981)
(-0.000925727 -0.0036094 0.00163981)
(-0.000284897 -0.00371532 0.00163981)
(0.000201321 -0.00373557 0.0017378)
(0.000846939 -0.00364386 0.0017378)
(0.00146682 -0.00344143 0.0017378)
(0.00204214 -0.00313444 0.0017378)
(0.0025554 -0.00273221 0.0017378)
(0.00299102 -0.00224696 0.0017378)
(0.00333576 -0.00169344 0.0017378)
(0.00357915 -0.00108846 0.0017378)
(0.00371378 -0.000450412 0.0017378)
(0.00373557 0.000201321 0.0017378)
(0.00364386 0.000846939 0.0017378)
(0.00344143 0.00146682 0.0017378)
(0.00313444 0.00204214 0.0017378)
(0.00273221 0.0025554 0.0017378)
(0.00224696 0.00299102 0.0017378)
(0.00169344 0.00333576 0.0017378)
(0.00108846 0.00357915 0.0017378)
(0.000450412 0.00371378 0.0017378)
(-0.000201321 0.00373557 0.0017378)
(-0.000846939 0.00364386 0.0017378)
(-0.00146682 0.00344143 0.0017378)
(-0.00204214 0.00313444 0.0017378)
(-0.0025554 0.00273221 0.0017378)
(-0.00299102 0.00224696 0.0017378)
(-0.00333576 0.00169344 0.0017378)
(-0.00357915 0.00108846 0.0017378)
(-0.00371378 0.000450412 0.0017378)
(-0.00373557 -0.000201321 0.0017378)
(-0.00364386 -0.000846939 0.0017378)
(-0.00344143 -0.00146682 0.0017378)
(-0.00313444 -0.00204214 0.0017378)
(-0.00273221 -0.0025554 0.0017378)
(-0.00224696 -0.00299102 0.0017378)
(-0.00169344 -0.00333576 0.0017378)
(-0.00108846 -0.00357915 0.0017378)
(-0.000450412 -0.00371378 0.0017378)
(2.13664e-05 -0.00375512 0.00181259)
(0.000673112 -0.00369437 0.00181259)
(0.00130441 -0.00352136 0.00181259)
(0.00189607 -0.00324135 0.00181259)
(0.00243011 -0.00286286 0.00181259)
(0.00289033 -0.00239738 0.00181259)
(0.00326272 -0.00185906 0.00181259)
(0.00353597 -0.00126425 0.00181259)
(0.00370179 -0.00063103 0.00181259)
(0.00375512 2.13664e-05 0.00181259)
(0.00369437 0.000673112 0.00181259)
(0.00352136 0.00130441 0.00181259)
(0.00324135 0.00189607 0.00181259)
(0.00286286 0.00243011 0.00181259)
(0.00239738 0.00289033 0.00181259)
(0.00185906 0.00326272 0.00181259)
(0.00126425 0.00353597 0.00181259)
(0.00063103 0.00370179 0.00181259)
(-2.13664e-05 0.00375512 0.00181259)
(-0.000673112 0.00369437 0.00181259)
(-0.00130441 0.00352136 0.00181259)
(-0.00189607 0.00324135 0.00181259)
(-0.00243011 0.00286286 0.00181259)
(-0.00289033 0.00239738 0.00181259)
(-0.00326272 0.00185906 0.00181259)
(-0.00353597 0.00126425 0.00181259)
(-0.00370179 0.00063103 0.00181259)
(-0.00375512 -2.13664e-05 0.00181259)
(-0.00369437 -0.000673112 0.00181259)
(-0.00352136 -0.00130441 0.00181259)
(-0.00324135 -0.00189607 0.00181259)
(-0.00286286 -0.00243011 0.00181259)
(-0.00239738 -0.00289033 0.00181259)
(-0.00185906 -0.00326272 0.00181259)
(-0.00126425 -0.00353597 0.00181259)
(-0.00063103 -0.00370179 0.00181259)
(0.000235743 -0.00401811 0.00196269)
(0.000929898 -0.00391613 0.00196269)
(0.0015958 -0.00369516 0.00196269)
(0.00221321 -0.00336191 0.00196269)
(0.00276338 -0.00292652 0.00196269)
(0.00322958 -0.0024022 0.00196269)
(0.00359766 -0.00180489 0.00196269)
(0.00385642 -0.00115275 0.00196269)
(0.003998 -0.000465574 0.00196269)
(0.00401811 0.000235743 0.00196269)
(0.00391613 0.000929898 0.00196269)
(0.00369516 0.0015958 0.00196269)
(0.00336191 0.00221321 0.00196269)
(0.00292652 0.00276338 0.00196269)
(0.0024022 0.00322958 0.00196269)
(0.00180489 0.00359766 0.00196269)
(0.00115275 0.00385642 0.00196269)
(0.000465574 0.003998 0.00196269)
(-0.000235743 0.00401811 0.00196269)
(-0.000929898 0.00391613 0.00196269)
(-0.0015958 0.00369516 0.00196269)
(-0.00221321 0.00336191 0.00196269)
(-0.00276338 0.00292652 0.00196269)
(-0.00322958 0.0024022 0.00196269)
(-0.00359766 0.00180489 0.00196269)
(-0.00385642 0.00115275 0.00196269)
(-0.003998 0.000465574 0.00196269)
(-0.00401811 -0.000235743 0.00196269)
(-0.00391613 -0.000929898 0.00196269)
(-0.00369516 -0.0015958 0.00196269)