/*--------------------------------*- C++ -*----------------------------------*\
| =========                 |                                                 |
| \\      /  F ield         | OpenFOAM: The Open Source CFD Toolbox           |
|  \\    /   O peration     | Version:  2312                                  |
|   \\  /    A nd           | Website:  www.openfoam.com                      |
|    \\/     M anipulation  |                                                 |
\*---------------------------------------------------------------------------*/
FoamFile
{
    version     2.0;
    format      ascii;
    arch        "LSB;label=32;scalar=64";
    class       volTensorField;
    location    "0.9";
    object      F;
}
// * * * * * * * * * * * * * * * * * * * * * * * * * * * * * * * * * * * * * //

dimensions      [0 0 0 0 0 0 0];

internalField   nonuniform List<tensor> 
1620
(
(1.05968 0.0369463 -0.103555 0.0497415 1.02303 0.314871 -0.0332235 -0.0029065 0.921318)
(1.04375 0.0405999 -0.156659 0.0533948 1.03896 0.292106 -0.0322138 -0.00863148 0.921318)
(1.02753 0.0385848 -0.205002 0.0513797 1.05517 0.260464 -0.0302255 -0.0140945 0.921318)
(1.01298 0.0311442 -0.247117 0.0439393 1.06973 0.220909 -0.0273191 -0.0191292 0.921317)
(1.00185 0.0191752 -0.281723 0.0319707 1.08086 0.174641 -0.0235824 -0.0235824 0.921317)
(0.995484 0.00412186 -0.307769 0.0169174 1.08722 0.123067 -0.019129 -0.0273193 0.921318)
(0.994652 -0.0122003 -0.324464 0.000595343 1.08805 0.0677539 -0.0140945 -0.0302262 0.921318)
(0.999453 -0.0278224 -0.3313 -0.0150268 1.08325 0.0103819 -0.00863187 -0.0322144 0.921318)
(1.00931 -0.0408603 -0.32807 -0.0280649 1.0734 -0.0473053 -0.00290684 -0.0332236 0.921318)
(1.02303 -0.0497415 -0.314871 -0.0369463 1.05968 -0.103555 0.0029065 -0.0332235 0.921318)
(1.03896 -0.0533948 -0.292106 -0.0405999 1.04375 -0.156659 0.00863148 -0.0322138 0.921318)
(1.05517 -0.0513797 -0.260464 -0.0385848 1.02753 -0.205002 0.0140945 -0.0302255 0.921318)
(1.06973 -0.0439393 -0.220909 -0.0311442 1.01298 -0.247117 0.0191292 -0.0273191 0.921317)
(1.08086 -0.0319707 -0.174641 -0.0191752 1.00185 -0.281723 0.0235824 -0.0235824 0.921317)
(1.08722 -0.0169174 -0.123067 -0.00412186 0.995484 -0.307769 0.0273193 -0.019129 0.921318)
(1.08805 -0.000595343 -0.0677539 0.0122003 0.994652 -0.324464 0.0302262 -0.0140945 0.921318)
(1.08325 0.0150268 -0.0103819 0.0278224 0.999453 -0.3313 0.0322144 -0.00863187 0.921318)
(1.0734 0.0280649 0.0473053 0.0408603 1.00931 -0.32807 0.0332236 -0.00290684 0.921318)
(1.05968 0.0369463 0.103555 0.0497415 1.02303 -0.314871 0.0332235 0.0029065 0.921318)
(1.04375 0.0405999 0.156659 0.0533948 1.03896 -0.292106 0.0322138 0.00863148 0.921318)
(1.02753 0.0385848 0.205002 0.0513797 1.05517 -0.260464 0.0302255 0.0140945 0.921318)
(1.01298 0.0311442 0.247117 0.0439393 1.06973 -0.220909 0.0273191 0.0191292 0.921317)
(1.00185 0.0191752 0.281723 0.0319707 1.08086 -0.174641 0.0235824 0.0235824 0.921317)
(0.995484 0.00412186 0.307769 0.0169174 1.08722 -0.123067 0.019129 0.0273193 0.921318)
(0.994652 -0.0122003 0.324464 0.000595343 1.08805 -0.0677539 0.0140945 0.0302262 0.921318)
(0.999453 -0.0278224 0.3313 -0.0150268 1.08325 -0.0103819 0.00863187 0.0322144 0.921318)
(1.00931 -0.0408603 0.32807 -0.0280649 1.0734 0.0473053 0.00290684 0.0332236 0.921318)
(1.02303 -0.0497415 0.314871 -0.0369463 1.05968 0.103555 -0.0029065 0.0332235 0.921318)
(1.03896 -0.0533948 0.292106 -0.0405999 1.04375 0.156659 -0.00863148 0.0322138 0.921318)
(1.05517 -0.0513797 0.260464 -0.0385848 1.02753 0.205002 -0.0140945 0.0302255 0.921318)
(1.06973 -0.0439393 0.220909 -0.0311442 1.01298 0.247117 -0.0191292 0.0273191 0.921317)
(1.08086 -0.0319707 0.174641 -0.0191752 1.00185 0.281723 -0.0235824 0.0235824 0.921317)
(1.08722 -0.0169174 0.123067 -0.00412186 0.995484 0.307769 -0.0273193 0.019129 0.921318)
(1.08805 -0.000595343 0.0677539 0.0122003 0.994652 0.324464 -0.0302262 0.0140945 0.921318)
(1.08325 0.0150268 0.0103819 0.0278224 0.999453 0.3313 -0.0322144 0.00863187 0.921318)
(1.0734 0.0280649 -0.0473053 0.0408603 1.00931 0.32807 -0.0332236 0.00290684 0.921318)
(1.07926 0.0488634 -0.0801636 0.0492504 1.01763 0.35623 -0.0260598 -0.00227988 0.888851)
(1.06062 0.0564433 -0.140804 0.0568301 1.03627 0.336898 -0.0252677 -0.00677031 0.888851)
(1.04052 0.0571919 -0.197167 0.0575788 1.05638 0.307329 -0.0237083 -0.0110553 0.888851)
(1.02137 0.0510188 -0.247539 0.0514059 1.07552 0.268422 -0.0214286 -0.0150045 0.888851)
(1.00548 0.0386687 -0.290389 0.0390559 1.09141 0.22136 -0.0184975 -0.0184974 0.888851)
(0.994783 0.0216313 -0.324416 0.0220185 1.10211 0.167571 -0.0150043 -0.0214285 0.888851)
(0.990555 0.00196156 -0.348586 0.00234893 1.10634 0.108691 -0.0110553 -0.0237087 0.888851)
(0.993309 -0.0179682 -0.362164 -0.0175807 1.10358 0.0465084 -0.00677058 -0.0252684 0.888851)
(1.00271 -0.0357539 -0.364738 -0.0353667 1.09418 -0.0170872 -0.00227996 -0.0260599 0.888851)
(1.01763 -0.0492504 -0.35623 -0.0488634 1.07926 -0.0801636 0.00227988 -0.0260598 0.888851)
(1.03627 -0.0568301 -0.336898 -0.0564433 1.06062 -0.140804 0.00677031 -0.0252677 0.888851)
(1.05638 -0.0575788 -0.307329 -0.0571919 1.04052 -0.197167 0.0110553 -0.0237083 0.888851)
(1.07552 -0.0514059 -0.268422 -0.0510188 1.02137 -0.247539 0.0150045 -0.0214286 0.888851)
(1.09141 -0.0390559 -0.22136 -0.0386687 1.00548 -0.290389 0.0184974 -0.0184975 0.888851)
(1.10211 -0.0220185 -0.167571 -0.0216313 0.994783 -0.324416 0.0214285 -0.0150043 0.888851)
(1.10634 -0.00234893 -0.108691 -0.00196156 0.990555 -0.348586 0.0237087 -0.0110553 0.888851)
(1.10358 0.0175807 -0.0465084 0.0179682 0.993309 -0.362164 0.0252684 -0.00677058 0.888851)
(1.09418 0.0353667 0.0170872 0.0357539 1.00271 -0.364738 0.0260599 -0.00227996 0.888851)
(1.07926 0.0488634 0.0801636 0.0492504 1.01763 -0.35623 0.0260598 0.00227988 0.888851)
(1.06062 0.0564433 0.140804 0.0568301 1.03627 -0.336898 0.0252677 0.00677031 0.888851)
(1.04052 0.0571919 0.197167 0.0575788 1.05638 -0.307329 0.0237083 0.0110553 0.888851)
(1.02137 0.0510188 0.247539 0.0514059 1.07552 -0.268422 0.0214286 0.0150045 0.888851)
(1.00548 0.0386687 0.290389 0.0390559 1.09141 -0.22136 0.0184975 0.0184974 0.888851)
(0.994783 0.0216313 0.324416 0.0220185 1.10211 -0.167571 0.0150043 0.0214285 0.888851)
(0.990555 0.00196156 0.348586 0.00234893 1.10634 -0.108691 0.0110553 0.0237087 0.888851)
(0.993309 -0.0179682 0.362164 -0.0175807 1.10358 -0.0465084 0.00677058 0.0252684 0.888851)
(1.00271 -0.0357539 0.364738 -0.0353667 1.09418 0.0170872 0.00227996 0.0260599 0.888851)
(1.01763 -0.0492504 0.35623 -0.0488634 1.07926 0.0801636 -0.00227988 0.0260598 0.888851)
(1.03627 -0.0568301 0.336898 -0.0564433 1.06062 0.140804 -0.00677031 0.0252677 0.888851)
(1.05638 -0.0575788 0.307329 -0.0571919 1.04052 0.197167 -0.0110553 0.0237083 0.888851)
(1.07552 -0.0514059 0.268422 -0.0510188 1.02137 0.247539 -0.0150045 0.0214286 0.888851)
(1.09141 -0.0390559 0.22136 -0.0386687 1.00548 0.290389 -0.0184974 0.0184975 0.888851)
(1.10211 -0.0220185 0.167571 -0.0216313 0.994783 0.324416 -0.0214285 0.0150043 0.888851)
(1.10634 -0.00234893 0.108691 -0.00196156 0.990555 0.348586 -0.0237087 0.0110553 0.888851)
(1.10358 0.0175807 0.0465084 0.0179682 0.993309 0.362164 -0.0252684 0.00677058 0.888851)
(1.09418 0.0353667 -0.0170872 0.0357539 1.00271 0.364738 -0.0260599 0.00227996 0.888851)
(1.09945 0.0631937 -0.0525335 0.048346 1.00489 0.395579 -0.0180923 -0.00158298 0.860092)
(1.07752 0.0760006 -0.120427 0.061153 1.02682 0.380447 -0.0175422 -0.00470036 0.860092)
(1.05254 0.0805364 -0.184661 0.0656886 1.0518 0.353755 -0.0164596 -0.00767504 0.860092)
(1.02751 0.0762537 -0.243285 0.0614056 1.07683 0.316314 -0.0148769 -0.0104169 0.860092)
(1.00546 0.0636687 -0.294516 0.048821 1.09888 0.269263 -0.0128418 -0.0128419 0.860092)
(0.989037 0.0442997 -0.336799 0.0294523 1.1153 0.21403 -0.0104167 -0.0148767 0.860092)
(0.980232 0.0204834 -0.368849 0.00563587 1.12411 0.152294 -0.00767533 -0.0164596 0.860092)
(0.980104 -0.00490841 -0.38969 -0.019756 1.12424 0.0859306 -0.00470061 -0.0175428 0.860092)
(0.988668 -0.0288125 -0.398692 -0.0436602 1.11567 0.0169562 -0.00158278 -0.0180924 0.860092)
(1.00489 -0.048346 -0.395579 -0.0631937 1.09945 -0.0525335 0.00158298 -0.0180923 0.860092)
(1.02682 -0.061153 -0.380447 -0.0760006 1.07752 -0.120427 0.00470036 -0.0175422 0.860092)
(1.0518 -0.0656886 -0.353755 -0.0805364 1.05254 -0.184661 0.00767504 -0.0164596 0.860092)
(1.07683 -0.0614056 -0.316314 -0.0762537 1.02751 -0.243285 0.0104169 -0.0148769 0.860092)
(1.09888 -0.048821 -0.269263 -0.0636687 1.00546 -0.294516 0.0128419 -0.0128418 0.860092)
(1.1153 -0.0294523 -0.21403 -0.0442997 0.989037 -0.336799 0.0148767 -0.0104167 0.860092)
(1.12411 -0.00563587 -0.152294 -0.0204834 0.980232 -0.368849 0.0164596 -0.00767533 0.860092)
(1.12424 0.019756 -0.0859306 0.00490841 0.980104 -0.38969 0.0175428 -0.00470061 0.860092)
(1.11567 0.0436602 -0.0169562 0.0288125 0.988668 -0.398692 0.0180924 -0.00158278 0.860092)
(1.09945 0.0631937 0.0525335 0.048346 1.00489 -0.395579 0.0180923 0.00158298 0.860092)
(1.07752 0.0760006 0.120427 0.061153 1.02682 -0.380447 0.0175422 0.00470036 0.860092)
(1.05254 0.0805364 0.184661 0.0656886 1.0518 -0.353755 0.0164596 0.00767504 0.860092)
(1.02751 0.0762537 0.243285 0.0614056 1.07683 -0.316314 0.0148769 0.0104169 0.860092)
(1.00546 0.0636687 0.294516 0.048821 1.09888 -0.269263 0.0128418 0.0128419 0.860092)
(0.989037 0.0442997 0.336799 0.0294523 1.1153 -0.21403 0.0104167 0.0148767 0.860092)
(0.980232 0.0204834 0.368849 0.00563587 1.12411 -0.152294 0.00767533 0.0164596 0.860092)
(0.980104 -0.00490841 0.38969 -0.019756 1.12424 -0.0859306 0.00470061 0.0175428 0.860092)
(0.988668 -0.0288125 0.398692 -0.0436602 1.11567 -0.0169562 0.00158278 0.0180924 0.860092)
(1.00489 -0.048346 0.395579 -0.0631937 1.09945 0.0525335 -0.00158298 0.0180923 0.860092)
(1.02682 -0.061153 0.380447 -0.0760006 1.07752 0.120427 -0.00470036 0.0175422 0.860092)
(1.0518 -0.0656886 0.353755 -0.0805364 1.05254 0.184661 -0.00767504 0.0164596 0.860092)
(1.07683 -0.0614056 0.316314 -0.0762537 1.02751 0.243285 -0.0104169 0.0148769 0.860092)
(1.09888 -0.048821 0.269263 -0.0636687 1.00546 0.294516 -0.0128419 0.0128418 0.860092)
(1.1153 -0.0294523 0.21403 -0.0442997 0.989037 0.336799 -0.0148767 0.0104167 0.860092)
(1.12411 -0.00563587 0.152294 -0.0204834 0.980232 0.368849 -0.0164596 0.00767533 0.860092)
(1.12424 0.019756 0.0859306 0.00490841 0.980104 0.38969 -0.0175428 0.00470061 0.860092)
(1.11567 0.0436602 0.0169562 0.0288125 0.988668 0.398692 -0.0180924 0.00158278 0.860092)
(1.09663 0.10401 -0.0877048 0.12666 1.05188 0.324112 -0.0970846 -0.00849345 0.892882)
(1.05584 0.104707 -0.142654 0.127357 1.09268 0.303959 -0.0941345 -0.0252228 0.892882)
(1.01726 0.0914089 -0.193268 0.114059 1.13125 0.274569 -0.0883245 -0.0411861 0.892882)
(0.985562 0.0657194 -0.238011 0.0883699 1.16295 0.236837 -0.0798308 -0.0558979 0.892882)
(0.96456 0.030737 -0.275521 0.0533878 1.18396 0.191909 -0.0689108 -0.068911 0.892882)
(0.95679 -0.00931876 -0.30466 0.0133323 1.19173 0.14115 -0.0558974 -0.0798312 0.892882)
(0.963187 -0.0496165 -0.324542 -0.0269651 1.18533 0.0861016 -0.0411862 -0.0883258 0.892882)
(0.982982 -0.0852952 -0.334563 -0.062644 1.16553 0.0284374 -0.0252236 -0.0941355 0.892882)
(1.01379 -0.112052 -0.334418 -0.0894013 1.13473 -0.0300909 -0.00849418 -0.0970849 0.892883)
(1.05188 -0.12666 -0.324112 -0.10401 1.09663 -0.0877048 0.00849345 -0.0970846 0.892882)
(1.09268 -0.127357 -0.303959 -0.104707 1.05584 -0.142654 0.0252228 -0.0941345 0.892882)
(1.13125 -0.114059 -0.274569 -0.0914089 1.01726 -0.193268 0.0411861 -0.0883245 0.892882)
(1.16295 -0.0883699 -0.236837 -0.0657194 0.985562 -0.238011 0.0558979 -0.0798308 0.892882)
(1.18396 -0.0533878 -0.191909 -0.030737 0.96456 -0.275521 0.068911 -0.0689108 0.892882)
(1.19173 -0.0133323 -0.14115 0.00931876 0.95679 -0.30466 0.0798312 -0.0558974 0.892882)
(1.18533 0.0269651 -0.0861016 0.0496165 0.963187 -0.324542 0.0883258 -0.0411862 0.892882)
(1.16553 0.062644 -0.0284374 0.0852952 0.982982 -0.334563 0.0941355 -0.0252236 0.892882)
(1.13473 0.0894013 0.0300909 0.112052 1.01379 -0.334418 0.0970849 -0.00849418 0.892883)
(1.09663 0.10401 0.0877048 0.12666 1.05188 -0.324112 0.0970846 0.00849345 0.892882)
(1.05584 0.104707 0.142654 0.127357 1.09268 -0.303959 0.0941345 0.0252228 0.892882)
(1.01726 0.0914089 0.193268 0.114059 1.13125 -0.274569 0.0883245 0.0411861 0.892882)
(0.985562 0.0657194 0.238011 0.0883699 1.16295 -0.236837 0.0798308 0.0558979 0.892882)
(0.96456 0.030737 0.275521 0.0533878 1.18396 -0.191909 0.0689108 0.068911 0.892882)
(0.95679 -0.00931876 0.30466 0.0133323 1.19173 -0.14115 0.0558974 0.0798312 0.892882)
(0.963187 -0.0496165 0.324542 -0.0269651 1.18533 -0.0861016 0.0411862 0.0883258 0.892882)
(0.982982 -0.0852952 0.334563 -0.062644 1.16553 -0.0284374 0.0252236 0.0941355 0.892882)
(1.01379 -0.112052 0.334418 -0.0894013 1.13473 0.0300909 0.00849418 0.0970849 0.892883)
(1.05188 -0.12666 0.324112 -0.10401 1.09663 0.0877048 -0.00849345 0.0970846 0.892882)
(1.09268 -0.127357 0.303959 -0.104707 1.05584 0.142654 -0.0252228 0.0941345 0.892882)
(1.13125 -0.114059 0.274569 -0.0914089 1.01726 0.193268 -0.0411861 0.0883245 0.892882)
(1.16295 -0.0883699 0.236837 -0.0657194 0.985562 0.238011 -0.0558979 0.0798308 0.892882)
(1.18396 -0.0533878 0.191909 -0.030737 0.96456 0.275521 -0.068911 0.0689108 0.892882)
(1.19173 -0.0133323 0.14115 0.00931876 0.95679 0.30466 -0.0798312 0.0558974 0.892882)
(1.18533 0.0269651 0.0861016 0.0496165 0.963187 0.324542 -0.0883258 0.0411862 0.892882)
(1.16553 0.062644 0.0284374 0.0852952 0.982982 0.334563 -0.0941355 0.0252236 0.892882)
(1.13473 0.0894013 -0.0300909 0.112052 1.01379 0.334418 -0.0970849 0.00849418 0.892883)
(1.11847 0.132925 -0.0658322 0.12509 1.04398 0.356568 -0.0865874 -0.00757525 0.867617)
(1.0721 0.137883 -0.126749 0.130048 1.09035 0.339719 -0.0839563 -0.0224957 0.867617)
(1.02683 0.126683 -0.183816 0.118848 1.13562 0.312548 -0.0787743 -0.0367327 0.867616)
(0.988125 0.100675 -0.235296 0.0928399 1.17433 0.275881 -0.0711989 -0.0498538 0.867616)
(0.960646 0.0629966 -0.279628 0.0551616 1.20181 0.230831 -0.0614598 -0.06146 0.867616)
(0.947712 0.0181924 -0.315463 0.0103576 1.21474 0.178767 -0.0498537 -0.0711992 0.867616)
(0.950881 -0.0283336 -0.341713 -0.0361676 1.21157 0.121272 -0.0367331 -0.0787754 0.867617)
(0.969773 -0.0709693 -0.35758 -0.0788035 1.19268 0.0600913 -0.0224962 -0.0839572 0.867617)
(1.00211 -0.104573 -0.362583 -0.112407 1.16035 -0.00291471 -0.00757554 -0.0865876 0.867617)
(1.04398 -0.12509 -0.356568 -0.132925 1.11847 -0.0658322 0.00757525 -0.0865874 0.867617)
(1.09035 -0.130048 -0.339719 -0.137883 1.0721 -0.126749 0.0224957 -0.0839563 0.867617)
(1.13562 -0.118848 -0.312548 -0.126683 1.02683 -0.183816 0.0367327 -0.0787743 0.867616)
(1.17433 -0.0928399 -0.275881 -0.100675 0.988125 -0.235296 0.0498538 -0.0711989 0.867616)
(1.20181 -0.0551616 -0.230831 -0.0629966 0.960646 -0.279628 0.06146 -0.0614598 0.867616)
(1.21474 -0.0103576 -0.178767 -0.0181924 0.947712 -0.315463 0.0711992 -0.0498537 0.867616)
(1.21157 0.0361676 -0.121272 0.0283336 0.950881 -0.341713 0.0787754 -0.0367331 0.867617)
(1.19268 0.0788035 -0.0600913 0.0709693 0.969773 -0.35758 0.0839572 -0.0224962 0.867617)
(1.16035 0.112407 0.00291471 0.104573 1.00211 -0.362583 0.0865876 -0.00757554 0.867617)
(1.11847 0.132925 0.0658322 0.12509 1.04398 -0.356568 0.0865874 0.00757525 0.867617)
(1.0721 0.137883 0.126749 0.130048 1.09035 -0.339719 0.0839563 0.0224957 0.867617)
(1.02683 0.126683 0.183816 0.118848 1.13562 -0.312548 0.0787743 0.0367327 0.867616)
(0.988125 0.100675 0.235296 0.0928399 1.17433 -0.275881 0.0711989 0.0498538 0.867616)
(0.960646 0.0629966 0.279628 0.0551616 1.20181 -0.230831 0.0614598 0.06146 0.867616)
(0.947712 0.0181924 0.315463 0.0103576 1.21474 -0.178767 0.0498537 0.0711992 0.867616)
(0.950881 -0.0283336 0.341713 -0.0361676 1.21157 -0.121272 0.0367331 0.0787754 0.867617)
(0.969773 -0.0709693 0.35758 -0.0788035 1.19268 -0.0600913 0.0224962 0.0839572 0.867617)
(1.00211 -0.104573 0.362583 -0.112407 1.16035 0.00291471 0.00757554 0.0865876 0.867617)
(1.04398 -0.12509 0.356568 -0.132925 1.11847 0.0658322 -0.00757525 0.0865874 0.867617)
(1.09035 -0.130048 0.339719 -0.137883 1.0721 0.126749 -0.0224957 0.0839563 0.867617)
(1.13562 -0.118848 0.312548 -0.126683 1.02683 0.183816 -0.0367327 0.0787743 0.867616)
(1.17433 -0.0928399 0.275881 -0.100675 0.988125 0.235296 -0.0498538 0.0711989 0.867616)
(1.20181 -0.0551616 0.230831 -0.0629966 0.960646 0.279628 -0.06146 0.0614598 0.867616)
(1.21474 -0.0103576 0.178767 -0.0181924 0.947712 0.315463 -0.0711992 0.0498537 0.867616)
(1.21157 0.0361676 0.121272 0.0283336 0.950881 0.341713 -0.0787754 0.0367331 0.867617)
(1.19268 0.0788035 0.0600913 0.0709693 0.969773 0.35758 -0.0839572 0.0224962 0.867617)
(1.16035 0.112407 -0.00291471 0.104573 1.00211 0.362583 -0.0865876 0.00757554 0.867617)
(1.14092 0.167944 -0.0428459 0.121356 1.02703 0.386842 -0.0748825 -0.00655138 0.844206)
(1.08801 0.178697 -0.109369 0.132108 1.07994 0.373524 -0.0726068 -0.0194548 0.844206)
(1.03461 0.170705 -0.17257 0.124117 1.13333 0.348858 -0.0681254 -0.0317671 0.844206)
(0.987174 0.144935 -0.230527 0.098346 1.18077 0.313592 -0.061574 -0.0431144 0.844206)
(0.951408 0.104492 -0.281479 0.0579032 1.21654 0.268797 -0.0531516 -0.0531517 0.844206)
(0.931631 0.0542548 -0.323879 0.00766702 1.23631 0.215835 -0.0431146 -0.0615742 0.844206)
(0.930229 0.000283924 -0.356438 -0.0463037 1.23771 0.156315 -0.0317676 -0.0681262 0.844206)
(0.947371 -0.0509117 -0.378166 -0.0974991 1.22057 0.0920454 -0.019455 -0.0726078 0.844206)
(0.980989 -0.0931564 -0.388405 -0.139744 1.18696 0.0249793 -0.0065513 -0.0748826 0.844206)
(1.02703 -0.121356 -0.386842 -0.167944 1.14092 -0.0428459 0.00655138 -0.0748825 0.844206)
(1.07994 -0.132108 -0.373524 -0.178697 1.08801 -0.109369 0.0194548 -0.0726068 0.844206)
(1.13333 -0.124117 -0.348858 -0.170705 1.03461 -0.17257 0.0317671 -0.0681254 0.844206)
(1.18077 -0.098346 -0.313592 -0.144935 0.987174 -0.230527 0.0431144 -0.061574 0.844206)
(1.21654 -0.0579032 -0.268797 -0.104492 0.951408 -0.281479 0.0531517 -0.0531516 0.844206)
(1.23631 -0.00766702 -0.215835 -0.0542548 0.931631 -0.323879 0.0615742 -0.0431146 0.844206)
(1.23771 0.0463037 -0.156315 -0.000283924 0.930229 -0.356438 0.0681262 -0.0317676 0.844206)
(1.22057 0.0974991 -0.0920454 0.0509117 0.947371 -0.378166 0.0726078 -0.019455 0.844206)
(1.18696 0.139744 -0.0249793 0.0931564 0.980989 -0.388405 0.0748826 -0.0065513 0.844206)
(1.14092 0.167944 0.0428459 0.121356 1.02703 -0.386842 0.0748825 0.00655138 0.844206)
(1.08801 0.178697 0.109369 0.132108 1.07994 -0.373524 0.0726068 0.0194548 0.844206)
(1.03461 0.170705 0.17257 0.124117 1.13333 -0.348858 0.0681254 0.0317671 0.844206)
(0.987174 0.144935 0.230527 0.098346 1.18077 -0.313592 0.061574 0.0431144 0.844206)
(0.951408 0.104492 0.281479 0.0579032 1.21654 -0.268797 0.0531516 0.0531517 0.844206)
(0.931631 0.0542548 0.323879 0.00766702 1.23631 -0.215835 0.0431146 0.0615742 0.844206)
(0.930229 0.000283924 0.356438 -0.0463037 1.23771 -0.156315 0.0317676 0.0681262 0.844206)
(0.947371 -0.0509117 0.378166 -0.0974991 1.22057 -0.0920454 0.019455 0.0726078 0.844206)
(0.980989 -0.0931564 0.388405 -0.139744 1.18696 -0.0249793 0.0065513 0.0748826 0.844206)
(1.02703 -0.121356 0.386842 -0.167944 1.14092 0.0428459 -0.00655138 0.0748825 0.844206)
(1.07994 -0.132108 0.373524 -0.178697 1.08801 0.109369 -0.0194548 0.0726068 0.844206)
(1.13333 -0.124117 0.348858 -0.170705 1.03461 0.17257 -0.0317671 0.0681254 0.844206)
(1.18077 -0.098346 0.313592 -0.144935 0.987174 0.230527 -0.0431144 0.061574 0.844206)
(1.21654 -0.0579032 0.268797 -0.104492 0.951408 0.281479 -0.0531517 0.0531516 0.844206)
(1.23631 -0.00766702 0.215835 -0.0542548 0.931631 0.323879 -0.0615742 0.0431146 0.844206)
(1.23771 0.0463037 0.156315 -0.000283924 0.930229 0.356438 -0.0681262 0.0317676 0.844206)
(1.22057 0.0974991 0.0920454 0.0509117 0.947371 0.378166 -0.0726078 0.019455 0.844206)
(1.18696 0.139744 0.0249793 0.0931564 0.980989 0.388405 -0.0748826 0.0065513 0.844206)
(1.12883 0.172757 -0.0537435 0.169947 1.07151 0.326892 -0.132213 -0.0115665 0.860771)
(1.0685 0.172225 -0.109691 0.169415 1.13185 0.312593 -0.128196 -0.0343492 0.860771)
(1.01198 0.15109 -0.162306 0.148279 1.18836 0.288796 -0.120283 -0.0560885 0.860771)
(0.966105 0.1119 -0.209989 0.109089 1.23424 0.256225 -0.108716 -0.0761236 0.860772)
(0.936399 0.0593822 -0.251292 0.0565721 1.26394 0.215868 -0.093845 -0.0938455 0.860772)
(0.926446 -0.000127891 -0.284959 -0.00293777 1.2739 0.168952 -0.0761232 -0.108716 0.860772)
(0.937447 -0.0594529 -0.309968 -0.0622629 1.2629 0.116903 -0.0560888 -0.120284 0.860771)
(0.968075 -0.111437 -0.325559 -0.114247 1.23227 0.0613012 -0.0343501 -0.128197 0.860771)
(1.01464 -0.149811 -0.331258 -0.152622 1.18571 0.00383719 -0.0115674 -0.132214 0.860771)
(1.07151 -0.169947 -0.326892 -0.172757 1.12883 -0.0537435 0.0115665 -0.132213 0.860771)
(1.13185 -0.169415 -0.312593 -0.172225 1.0685 -0.109691 0.0343492 -0.128196 0.860771)
(1.18836 -0.148279 -0.288796 -0.15109 1.01198 -0.162306 0.0560885 -0.120283 0.860771)
(1.23424 -0.109089 -0.256225 -0.1119 0.966105 -0.209989 0.0761236 -0.108716 0.860772)
(1.26394 -0.0565721 -0.215868 -0.0593822 0.936399 -0.251292 0.0938455 -0.093845 0.860772)
(1.2739 0.00293777 -0.168952 0.000127891 0.926446 -0.284959 0.108716 -0.0761232 0.860772)
(1.2629 0.0622629 -0.116903 0.0594529 0.937447 -0.309968 0.120284 -0.0560888 0.860771)
(1.23227 0.114247 -0.0613012 0.111437 0.968075 -0.325559 0.128197 -0.0343501 0.860771)
(1.18571 0.152622 -0.00383719 0.149811 1.01464 -0.331258 0.132214 -0.0115674 0.860771)
(1.12883 0.172757 0.0537435 0.169947 1.07151 -0.326892 0.132213 0.0115665 0.860771)
(1.0685 0.172225 0.109691 0.169415 1.13185 -0.312593 0.128196 0.0343492 0.860771)
(1.01198 0.15109 0.162306 0.148279 1.18836 -0.288796 0.120283 0.0560885 0.860771)
(0.966105 0.1119 0.209989 0.109089 1.23424 -0.256225 0.108716 0.0761236 0.860772)
(0.936399 0.0593822 0.251292 0.0565721 1.26394 -0.215868 0.093845 0.0938455 0.860772)
(0.926446 -0.000127891 0.284959 -0.00293777 1.2739 -0.168952 0.0761232 0.108716 0.860772)
(0.937447 -0.0594529 0.309968 -0.0622629 1.2629 -0.116903 0.0560888 0.120284 0.860771)
(0.968075 -0.111437 0.325559 -0.114247 1.23227 -0.0613012 0.0343501 0.128197 0.860771)
(1.01464 -0.149811 0.331258 -0.152622 1.18571 -0.00383719 0.0115674 0.132214 0.860771)
(1.07151 -0.169947 0.326892 -0.172757 1.12883 0.0537435 -0.0115665 0.132213 0.860771)
(1.13185 -0.169415 0.312593 -0.172225 1.0685 0.109691 -0.0343492 0.128196 0.860771)
(1.18836 -0.148279 0.288796 -0.15109 1.01198 0.162306 -0.0560885 0.120283 0.860771)
(1.23424 -0.109089 0.256225 -0.1119 0.966105 0.209989 -0.0761236 0.108716 0.860772)
(1.26394 -0.0565721 0.215868 -0.0593822 0.936399 0.251292 -0.0938455 0.093845 0.860772)
(1.2739 0.00293777 0.168952 0.000127891 0.926446 0.284959 -0.108716 0.0761232 0.860772)
(1.2629 0.0622629 0.116903 0.0594529 0.937447 0.309968 -0.120284 0.0560888 0.860771)
(1.23227 0.114247 0.0613012 0.111437 0.968075 0.325559 -0.128197 0.0343501 0.860771)
(1.18571 0.152622 0.00383719 0.149811 1.01464 0.331258 -0.132214 0.0115674 0.860771)
(1.14745 0.213662 -0.0397303 0.167078 1.06078 0.341047 -0.122271 -0.010697 0.847141)
(1.07972 0.217002 -0.0983489 0.170418 1.1285 0.328966 -0.118555 -0.0317664 0.847141)
(1.01494 0.196979 -0.153979 0.150394 1.19328 0.30689 -0.111238 -0.0518707 0.847142)
(0.960913 0.156005 -0.204931 0.109421 1.24731 0.27549 -0.10054 -0.070399 0.847142)
(0.924158 0.0990248 -0.249656 0.0524411 1.28406 0.235719 -0.086788 -0.0867883 0.847142)
(0.909108 0.0329097 -0.286795 -0.0136738 1.29911 0.188785 -0.070399 -0.100541 0.847142)
(0.917579 -0.0343651 -0.31522 -0.0809484 1.29064 0.136116 -0.0518712 -0.111239 0.847142)
(0.948548 -0.0946855 -0.334068 -0.141269 1.25967 0.0793107 -0.0317669 -0.118556 0.847141)
(0.99828 -0.140776 -0.342765 -0.18736 1.20994 0.0200955 -0.0106974 -0.122271 0.847142)
(1.06078 -0.167078 -0.341047 -0.213662 1.14745 -0.0397303 0.010697 -0.122271 0.847141)
(1.1285 -0.170418 -0.328966 -0.217002 1.07972 -0.0983489 0.0317664 -0.118555 0.847141)
(1.19328 -0.150394 -0.30689 -0.196979 1.01494 -0.153979 0.0518707 -0.111238 0.847142)
(1.24731 -0.109421 -0.27549 -0.156005 0.960913 -0.204931 0.070399 -0.10054 0.847142)
(1.28406 -0.0524411 -0.235719 -0.0990248 0.924158 -0.249656 0.0867883 -0.086788 0.847142)
(1.29911 0.0136738 -0.188785 -0.0329097 0.909108 -0.286795 0.100541 -0.070399 0.847142)
(1.29064 0.0809484 -0.136116 0.0343651 0.917579 -0.31522 0.111239 -0.0518712 0.847142)
(1.25967 0.141269 -0.0793107 0.0946855 0.948548 -0.334068 0.118556 -0.0317669 0.847141)
(1.20994 0.18736 -0.0200955 0.140776 0.99828 -0.342765 0.122271 -0.0106974 0.847142)
(1.14745 0.213662 0.0397303 0.167078 1.06078 -0.341047 0.122271 0.010697 0.847141)
(1.07972 0.217002 0.0983489 0.170418 1.1285 -0.328966 0.118555 0.0317664 0.847141)
(1.01494 0.196979 0.153979 0.150394 1.19328 -0.30689 0.111238 0.0518707 0.847142)
(0.960913 0.156005 0.204931 0.109421 1.24731 -0.27549 0.10054 0.070399 0.847142)
(0.924158 0.0990248 0.249656 0.0524411 1.28406 -0.235719 0.086788 0.0867883 0.847142)
(0.909108 0.0329097 0.286795 -0.0136738 1.29911 -0.188785 0.070399 0.100541 0.847142)
(0.917579 -0.0343651 0.31522 -0.0809484 1.29064 -0.136116 0.0518712 0.111239 0.847142)
(0.948548 -0.0946855 0.334068 -0.141269 1.25967 -0.0793107 0.0317669 0.118556 0.847141)
(0.99828 -0.140776 0.342765 -0.18736 1.20994 -0.0200955 0.0106974 0.122271 0.847142)
(1.06078 -0.167078 0.341047 -0.213662 1.14745 0.0397303 -0.010697 0.122271 0.847141)
(1.1285 -0.170418 0.328966 -0.217002 1.07972 0.0983489 -0.0317664 0.118555 0.847141)
(1.19328 -0.150394 0.30689 -0.196979 1.01494 0.153979 -0.0518707 0.111238 0.847142)
(1.24731 -0.109421 0.27549 -0.156005 0.960913 0.204931 -0.070399 0.10054 0.847142)
(1.28406 -0.0524411 0.235719 -0.0990248 0.924158 0.249656 -0.0867883 0.086788 0.847142)
(1.29911 0.0136738 0.188785 -0.0329097 0.909108 0.286795 -0.100541 0.070399 0.847142)
(1.29064 0.0809484 0.136116 0.0343651 0.917579 0.31522 -0.111239 0.0518712 0.847142)
(1.25967 0.141269 0.0793107 0.0946855 0.948548 0.334068 -0.118556 0.0317669 0.847141)
(1.20994 0.18736 0.0200955 0.140776 0.99828 0.342765 -0.122271 0.0106974 0.847142)
(1.16622 0.262954 -0.0280038 0.160399 1.04088 0.353897 -0.110353 -0.00965454 0.833262)
(1.09004 0.271624 -0.089032 0.169068 1.11705 0.343657 -0.106999 -0.0286702 0.833262)
(1.01549 0.253717 -0.147355 0.151161 1.1916 0.322976 -0.100395 -0.0468147 0.833262)
(0.951566 0.211392 -0.201201 0.108836 1.25553 0.292482 -0.0907402 -0.0635369 0.833262)
(0.905969 0.149755 -0.248933 0.0471996 1.30113 0.2531 -0.0783285 -0.0783286 0.833262)
(0.884203 0.0762399 -0.289101 -0.026315 1.32289 0.206028 -0.0635372 -0.0907406 0.833262)
(0.888894 -0.00028553 -0.320485 -0.10284 1.3182 0.152696 -0.0468153 -0.100396 0.833262)
(0.919475 -0.0705917 -0.342132 -0.173146 1.28762 0.0947249 -0.0286705 -0.107 0.833262)
(0.972257 -0.126198 -0.353383 -0.228753 1.23484 0.0338752 -0.00965459 -0.110353 0.833262)
(1.04088 -0.160399 -0.353897 -0.262954 1.16622 -0.0280038 0.00965454 -0.110353 0.833262)
(1.11705 -0.169068 -0.343657 -0.271624 1.09004 -0.089032 0.0286702 -0.106999 0.833262)
(1.1916 -0.151161 -0.322976 -0.253717 1.01549 -0.147355 0.0468147 -0.100395 0.833262)
(1.25553 -0.108836 -0.292482 -0.211392 0.951566 -0.201201 0.0635369 -0.0907402 0.833262)
(1.30113 -0.0471996 -0.2531 -0.149755 0.905969 -0.248933 0.0783286 -0.0783285 0.833262)
(1.32289 0.026315 -0.206028 -0.0762399 0.884203 -0.289101 0.0907406 -0.0635372 0.833262)
(1.3182 0.10284 -0.152696 0.00028553 0.888894 -0.320485 0.100396 -0.0468153 0.833262)
(1.28762 0.173146 -0.0947249 0.0705917 0.919475 -0.342132 0.107 -0.0286705 0.833262)
(1.23484 0.228753 -0.0338752 0.126198 0.972257 -0.353383 0.110353 -0.00965459 0.833262)
(1.16622 0.262954 0.0280038 0.160399 1.04088 -0.353897 0.110353 0.00965454 0.833262)
(1.09004 0.271624 0.089032 0.169068 1.11705 -0.343657 0.106999 0.0286702 0.833262)
(1.01549 0.253717 0.147355 0.151161 1.1916 -0.322976 0.100395 0.0468147 0.833262)
(0.951566 0.211392 0.201201 0.108836 1.25553 -0.292482 0.0907402 0.0635369 0.833262)
(0.905969 0.149755 0.248933 0.0471996 1.30113 -0.2531 0.0783285 0.0783286 0.833262)
(0.884203 0.0762399 0.289101 -0.026315 1.32289 -0.206028 0.0635372 0.0907406 0.833262)
(0.888894 -0.00028553 0.320485 -0.10284 1.3182 -0.152696 0.0468153 0.100396 0.833262)
(0.919475 -0.0705917 0.342132 -0.173146 1.28762 -0.0947249 0.0286705 0.107 0.833262)
(0.972257 -0.126198 0.353383 -0.228753 1.23484 -0.0338752 0.00965459 0.110353 0.833262)
(1.04088 -0.160399 0.353897 -0.262954 1.16622 0.0280038 -0.00965454 0.110353 0.833262)
(1.11705 -0.169068 0.343657 -0.271624 1.09004 0.089032 -0.0286702 0.106999 0.833262)
(1.1916 -0.151161 0.322976 -0.253717 1.01549 0.147355 -0.0468147 0.100395 0.833262)
(1.25553 -0.108836 0.292482 -0.211392 0.951566 0.201201 -0.0635369 0.0907402 0.833262)
(1.30113 -0.0471996 0.2531 -0.149755 0.905969 0.248933 -0.0783286 0.0783285 0.833262)
(1.32289 0.026315 0.206028 -0.0762399 0.884203 0.289101 -0.0907406 0.0635372 0.833262)
(1.3182 0.10284 0.152696 0.00028553 0.888894 0.320485 -0.100396 0.0468153 0.833262)
(1.28762 0.173146 0.0947249 0.0705917 0.919475 0.342132 -0.107 0.0286705 0.833262)
(1.23484 0.228753 0.0338752 0.126198 0.972257 0.353383 -0.110353 0.00965459 0.833262)
(1.14047 0.242038 -0.0156254 0.176187 1.07854 0.314055 -0.148309 -0.0129749 0.853398)
(1.06708 0.240017 -0.069923 0.174166 1.15193 0.306571 -0.143802 -0.0385312 0.853398)
(0.998806 0.213018 -0.122096 0.147167 1.2202 0.289771 -0.134926 -0.0629172 0.853399)
(0.943887 0.164296 -0.17056 0.0984455 1.27512 0.264167 -0.121951 -0.0853912 0.853399)
(0.908943 0.0997296 -0.213841 0.0338788 1.31006 0.230536 -0.10527 -0.105271 0.853399)
(0.89819 0.0271053 -0.250624 -0.0387451 1.32082 0.189901 -0.0853912 -0.121952 0.853399)
(0.912924 -0.0448166 -0.279793 -0.110667 1.30608 0.143496 -0.0629175 -0.134927 0.853398)
(0.951369 -0.107362 -0.30046 -0.173213 1.26764 0.0927303 -0.0385321 -0.143803 0.853398)