/*--------------------------------*- C++ -*----------------------------------*\
| =========                 |                                                 |
| \\      /  F ield         | OpenFOAM: The Open Source CFD Toolbox           |
|  \\    /   O peration     | Version:  2412                                  |
|   \\  /    A nd           | Website:  www.openfoam.com                      |
|    \\/     M anipulation  |                                                 |
\*---------------------------------------------------------------------------*/
FoamFile
{
    version     2.0;
    format      ascii;
    arch        "LSB;label=32;scalar=64";
    class       volScalarField;
    location    "0.0400007";
    object      ionicCurrent;
}
// * * * * * * * * * * * * * * * * * * * * * * * * * * * * * * * * * * * * * //

dimensions      [1 2 -4 0 0 -1 0];

internalField   nonuniform List<scalar> 
8670
(
-0.952605
-0.939533
-0.923701
-0.908233
-0.88718
-0.859701
-0.825108
-0.781944
-0.729511
-0.666789
-0.596797
-0.509442
-0.408248
-0.291768
-0.170783
-0.0265559
0.143502
0.320195
0.528247
0.767639
1.0051
1.29462
1.5816
1.91837
2.24398
2.62471
2.95788
3.34968
3.61563
3.87891
3.79193
3.49585
-0.951006
-0.943392
-0.92537
-0.903901
-0.881943
-0.853975
-0.818819
-0.775149
-0.725727
-0.662674
-0.5877
-0.499474
-0.39769
-0.292173
-0.165842
-0.0140037
0.158341
0.330844
0.544071
0.763539
1.02165
1.31421
1.5982
1.94256
2.26462
2.65385
2.98997
3.38742
3.65935
3.80844
3.84177
3.54531
-0.945933
-0.938143
-0.927065
-0.910775
-0.886996
-0.849652
-0.810352
-0.764795
-0.711354
-0.656654
-0.58395
-0.501494
-0.399632
-0.282007
-0.146909
-0.00714905
0.159187
0.353008
0.547895
0.787431
1.05581
1.31886
1.6386
1.94441
2.31497
2.65032
3.05389
3.376
3.64504
3.90076
3.81084
3.49823
-0.947157
-0.938709
-0.925989
-0.901021
-0.875914
-0.845668
-0.807958
-0.762241
-0.707306
-0.641646
-0.565136
-0.486014
-0.389906
-0.272194
-0.135774
0.0191444
0.174642
0.369087
0.58915
0.808145
1.07606
1.33977
1.66081
1.97238
2.33813
2.67836
3.07474
3.39198
3.75105
3.89991
3.93038
3.62442
-0.945276
-0.936307
-0.923809
-0.904844
-0.873035
-0.839788
-0.800453
-0.752987
-0.696493
-0.63004
-0.561295
-0.473035
-0.37315
-0.252519
-0.113409
0.0445767
0.202631
0.400151
0.623571
0.845356
1.11652
1.38294
1.70748
2.01646
2.39069
2.72758
3.13212
3.44995
3.81064
3.95626
3.98123
3.66388
-0.947915
-0.931246
-0.912367
-0.893664
-0.869008
-0.837708
-0.798932
-0.751095
-0.693469
-0.624959
-0.548758
-0.45464
-0.345798
-0.221157
-0.0920922
0.0614528
0.242947
0.447219
0.650601
0.899695
1.15153
1.44783
1.78018
2.09468
2.47652
2.81838
3.23212
3.55724
3.81881
4.07824
3.95638
3.61435
-0.944817
-0.928228
-0.908712
-0.888901
-0.86306
-0.830214
-0.789593
-0.740029
-0.680352
-0.60921
-0.526225
-0.433897
-0.322119
-0.193724
-0.0479172
0.103014
0.281938
0.489209
0.70172
0.951261
1.23454
1.51023
1.84462
2.16075
2.54411
2.89056
3.29679
3.6138
3.97528
4.10706
4.1129
3.75953
-0.936664
-0.925804
-0.908858
-0.879994
-0.850885
-0.811842
-0.768857
-0.716511
-0.653614
-0.580115
-0.49785
-0.397052
-0.281074
-0.14741
0.00449039
0.155453
0.34471
0.558408
0.771342
1.03209
1.32221
1.60305
1.94396
2.26428
2.65309
2.99621
3.41099
3.72547
4.08557
4.20444
4.1919
3.80887
-0.933459
-0.920014
-0.89497
-0.865671
-0.835202
-0.79802
-0.752036
-0.695535
-0.620401
-0.549649
-0.461011
-0.357058
-0.241423
-0.10424
0.0524573
0.228622
0.40996
0.623867
0.868106
1.11418
1.40306
1.72648
2.03349
2.40571
2.74817
3.15255
3.57843
3.89765
4.14512
4.3734
4.34781
3.93417
-0.92443
-0.905303
-0.884451
-0.850036
-0.815144
-0.774373
-0.721031
-0.661971
-0.591689
-0.509741
-0.414076
-0.308031
-0.181855
-0.0375711
0.126096
0.31007
0.497975
0.71918
0.972405
1.25365
1.52529
1.85523
2.16634
2.54445
2.9502
3.29816
3.72506
4.03595
4.39857
4.48998
4.43834
3.98532
-0.918891
-0.891471
-0.867964
-0.837499
-0.793388
-0.747535
-0.689876
-0.625979
-0.55082
-0.463388
-0.362197
-0.245786
-0.112684
0.0337567
0.204602
0.396739
0.611751
0.85127
1.08584
1.37224
1.68808
1.98718
2.3504
2.74243
3.08726
3.51187
3.84683
4.25637
4.47692
4.69106
4.61427
4.11912
-0.904521
-0.874144
-0.846352
-0.805858
-0.764483
-0.711927
-0.652451
-0.573631
-0.489988
-0.395062
-0.286211
-0.162087
-0.0210635
0.138834
0.319289
0.521635
0.747295
0.968625
1.23816
1.53622
1.86231
2.1671
2.53859
2.93706
3.27939
3.70262
4.13512
4.42476
4.77446
4.81258
4.6971
4.13868
-0.875818
-0.847385
-0.810545
-0.769696
-0.724304
-0.662126
-0.596947
-0.516152
-0.416783
-0.313457
-0.197231
-0.065549
0.083373
0.251474
0.440499
0.651317
0.885883
1.14478
1.39936
1.69766
2.02794
2.3843
2.76728
3.10036
3.51308
3.94162
4.25163
4.64155
4.9774
4.97858
4.822
4.19722
-0.842296
-0.809608
-0.772178
-0.72595
-0.672378
-0.607098
-0.532758
-0.44253
-0.348415
-0.242124
-0.119955
0.037275
0.196349
0.372781
0.568861
0.786371
1.02705
1.29173
1.58135
1.89579
2.18402
2.53727
2.91372
3.31096
3.72656
4.03939
4.43901
4.81119
5.12523
5.07873
4.87239
4.17365
-0.803257
-0.768602
-0.72224
-0.68112
-0.620622
-0.560751
-0.47866
-0.396066
-0.287006
-0.17773
-0.0532829
0.10704
0.268244
0.446928
0.645344
0.864542
1.10591
1.3699
1.65686
1.96662
2.2984
2.65129
3.02351
3.41365
3.8195
4.23065
4.50361
4.85571
5.13411
5.25686
4.75499
4.28002
-0.963982
-0.959934
-0.956185
-0.944041
-0.926498
-0.903702
-0.881646
-0.851351
-0.807472
-0.761857
-0.704162
-0.629604
-0.555478
-0.455936
-0.349674
-0.222281
-0.0814805
0.0851889
0.26114
0.47869
0.699433
0.969442
1.23726
1.52555
1.87415
2.2001
2.5279
2.91077
3.19264
3.37377
3.45767
3.24668
-0.962725
-0.95916
-0.951212
-0.938586
-0.921357
-0.905778
-0.882796
-0.846426
-0.801783
-0.759943
-0.697203
-0.621098
-0.546156
-0.446007
-0.343248
-0.210422
-0.0737925
0.0986941
0.275358
0.494422
0.715472
0.958065
1.25403
1.54427
1.85742
2.22265
2.55454
2.87622
3.22551
3.41228
3.50562
3.16937
-0.96725
-0.963499
-0.955459
-0.943245
-0.929202
-0.905613
-0.87561
-0.845971
-0.806897
-0.753532
-0.696805
-0.62605
-0.536602
-0.446919
-0.32987
-0.209467
-0.0563527
0.100897
0.29729
0.496396
0.721204
0.986203
1.2557
1.58221
1.89541
2.22062
2.60871
2.93351
3.21241
3.4919
3.47179
3.2578
-0.957936
-0.954289
-0.952859
-0.942248
-0.925312
-0.905475
-0.874858
-0.836591
-0.802387
-0.748719
-0.68339
-0.61949
-0.531258
-0.441385
-0.323271
-0.197329
-0.0477589
0.115913
0.309181
0.510828
0.758099
1.00691
1.31018
1.6059
1.91864
2.29625
2.63394
2.95576
3.31862
3.51002
3.48015
3.25414
-0.957846
-0.959205
-0.952579
-0.939921
-0.925297
-0.900746
-0.868632
-0.829344
-0.793852
-0.738647
-0.671345
-0.605395
-0.515495
-0.423916
-0.304061
-0.180411
-0.0236926
0.137807
0.338463
0.542898
0.793562
1.0454
1.35247
1.65133
1.96701
2.34863
2.68905
3.01307
3.37913
3.5695
3.53291
3.2971
-0.963565
-0.958373
-0.948777
-0.934086
-0.913891
-0.887638
-0.862595
-0.828339
-0.780057
-0.729758
-0.666604
-0.586098
-0.505423
-0.398729
-0.284487
-0.147527
0.016225
0.180933
0.369381
0.592514
0.823359
1.10457
1.38376
1.72261
2.04535
2.3793
2.7802
3.1132
3.39783
3.57787
3.63968
3.39554
-0.961254
-0.958225
-0.947807
-0.932212
-0.910853
-0.883511
-0.856491
-0.820484
-0.769386
-0.708721
-0.649367
-0.566544
-0.468951
-0.370742
-0.243659
-0.113213
0.0518532
0.220722
0.430584
0.643638
0.904801
1.16487
1.44567
1.78654
2.11079
2.50242
2.84849
3.1756
3.54626
3.72951
3.6715
3.40564
-0.956083
-0.948482
-0.936297
-0.919607
-0.904438
-0.878192
-0.847082
-0.802611
-0.749504
-0.694211
-0.625439
-0.538388
-0.450832
-0.335243
-0.200705
-0.0650923
0.106493
0.281123
0.498046
0.716038
0.960207
1.24766
1.53554
1.8839
2.21329
2.61197
2.96121
3.28901
3.66161
3.83792
3.76321
3.47531
-0.956428
-0.9475
-0.933682
-0.914578
-0.890471
-0.866821
-0.83437
-0.788045
-0.730968
-0.664263
-0.598458
-0.508248
-0.402297
-0.295396
-0.158682
-0.0182355
0.158692
0.360901
0.563628
0.791313
1.05989
1.33126
1.6599
1.97623
2.35903
2.70709
3.05652
3.45812
3.73427
4.01027
3.9197
3.60988
-0.957222
-0.947312
-0.93258
-0.911874
-0.88874
-0.855055
-0.812792
-0.761576
-0.701069
-0.63826
-0.560948
-0.464784
-0.363028
-0.241235
-0.0957948
0.0520647
0.235472
0.427964
0.654442
0.915137
1.17219
1.45469
1.78696
2.1091
2.49908
2.84977
3.2738
3.60855
3.87917
4.14874
4.02825
3.68142
-0.948776
-0.937443
-0.921051
-0.898524
-0.869052
-0.832156
-0.786953
-0.732004
-0.667368
-0.599929
-0.517385
-0.414837
-0.296092
-0.176279
-0.0245895
0.148971
0.324101
0.540066
0.757935
1.02503
1.32327
1.61202
1.92476
2.29347
2.63794
3.05582
3.40694
3.82759
4.09812
4.22878
4.21437
3.82696
-0.939104
-0.924945
-0.905869
-0.88045
-0.847915
-0.80794
-0.758679
-0.699346
-0.628778
-0.546515
-0.451091
-0.35133
-0.231894
-0.0885463
0.0743465
0.238606
0.441775
0.671581
0.899143
1.17667
1.44943
1.78058
2.14473
2.48209
2.83369
3.25138
3.59731
4.01493
4.26539
4.51724
4.32021
3.87901
-0.924063
-0.906546
-0.884245
-0.850538
-0.805015
-0.757115
-0.701969
-0.637243
-0.562073
-0.484586
-0.390514
-0.275287
-0.142358
0.00936505
0.18138
0.353534
0.566079
0.805541
1.07178
1.3305
1.64528
1.94511
2.31053
2.70632
3.05551
3.48623
3.82677
4.24414
4.47601
4.71331
4.46613
3.96587
-0.892173
-0.870274
-0.839404
-0.807856
-0.76933
-0.72087
-0.650404
-0.580226
-0.499845
-0.406929
-0.299681
-0.176737
-0.0364523
0.122085
0.279669
0.47541
0.696195
0.942233
1.21424
1.4759
1.79494
2.14258
2.51415
2.85387
3.26805
3.60552
4.02512
4.42835
4.6384
4.85199
4.54297
3.97578
-0.85179
-0.83213
-0.799758
-0.763969
-0.724839
-0.665318
-0.606618
-0.538473
-0.457089
-0.351144
-0.239653
-0.11346
0.0296153
0.191529
0.372951
0.556452
0.777096
1.02278
1.29364
1.59001
1.91331
2.25918
2.57853
2.96674
3.37773
3.70288
4.11214
4.50532
4.67509
4.84381
4.68531
4.07559
-0.960885
-0.958934
-0.962908
-0.954529
-0.940771
-0.932119
-0.909576
-0.890068
-0.85379
-0.820616
-0.775381
-0.716287
-0.651984
-0.563733
-0.473881
-0.369167
-0.232985
-0.0924179
0.0667081
0.266588
0.470667
0.69597
0.944303
1.24746
1.54396
1.85463
2.17206
2.54251
2.8308
3.03808
3.06285
2.91206
-0.959188
-0.962475
-0.961717
-0.952721
-0.948985
-0.93215
-0.918598
-0.890054
-0.862754
-0.818813
-0.775029
-0.71086
-0.646607
-0.570964
-0.468749
-0.363362
-0.237131
-0.0855307
0.0753741
0.256584
0.481159
0.709245
0.959313
1.23679
1.56208
1.87697
2.1977
2.51006
2.86024
3.07093
3.09828
2.95013
-0.96281
-0.961002
-0.955133
-0.955575
-0.943224
-0.935073
-0.912844
-0.892959
-0.856818
-0.821572
-0.767316
-0.712525
-0.635339
-0.557968
-0.467004
-0.346985
-0.223504
-0.0824075
0.0964346
0.279953
0.4839
0.715893
0.989822
1.26694
1.56315
1.87555
2.24706
2.56854
2.85457
3.05637
3.17736
2.91462
-0.963054
-0.965525
-0.959913
-0.955753
-0.945813
-0.926109
-0.91064
-0.880416
-0.853674
-0.81537
-0.765195
-0.710453
-0.632887
-0.553118
-0.446633
-0.337903
-0.213439
-0.0531036
0.111445
0.294772
0.500478
0.754754
1.01058
1.28775
1.59055
1.94424
2.27377
2.59428
2.87841
3.08001
3.18432
3.02263
-0.962042
-0.963609
-0.957503
-0.957169
-0.94411
-0.930683
-0.910442
-0.884719
-0.85092
-0.809923
-0.757532
-0.700536
-0.621459
-0.540802
-0.44236
-0.323276
-0.194697
-0.0312857
0.13624
0.322788
0.531714
0.789752
1.04897
1.32914
1.63521
1.99301
2.32578
2.64918
2.93529
3.13666
3.23828
3.06854
-0.962026
-0.964277
-0.962345
-0.951606
-0.945727
-0.925674
-0.898307
-0.874896
-0.834148
-0.796576
-0.750385
-0.682026
-0.611905
-0.517109
-0.420263
-0.303358
-0.162767
-0.0134313
0.159781
0.365642
0.580627
0.818358
1.10905
1.39677
1.7031
2.02519
2.40982
2.74085
3.03407
3.23719
3.24495
3.05516
-0.963112
-0.958835
-0.960358
-0.949026
-0.932106
-0.919897
-0.893148
-0.868567
-0.826787
-0.786223
-0.725541
-0.665404
-0.590198
-0.497204
-0.395986
-0.265079
-0.130427
0.0220671
0.214322
0.411067
0.629561
0.898347
1.16725
1.45674
1.76624
2.1395
2.47881
2.80627
3.09189
3.37908
3.37971
3.18978
-0.959444
-0.963641
-0.955636
-0.942118
-0.934067
-0.911969
-0.892739
-0.857523
-0.823314
-0.770849
-0.717632
-0.64286
-0.566191
-0.464045
-0.359775
-0.235077
-0.0855374
0.0739456
0.273263
0.476151
0.699888
0.952056
1.24918
1.5464
1.86253
2.24385
2.58834
2.91908
3.20508
3.4927
3.48048
3.27227
-0.960325
-0.96368
-0.954741
-0.940121
-0.930244
-0.90559
-0.872555
-0.84324
-0.79606
-0.749976
-0.682691
-0.614606
-0.521936
-0.428333
-0.320112
-0.180208
-0.034936
0.147978
0.334682
0.542135
0.798203
1.055
1.33441
1.67478
2.00143
2.34033
2.68231
3.08475
3.38129
3.57399
3.54338
3.29841
-0.966744
-0.959048
-0.952853
-0.941084
-0.919583
-0.897751
-0.867177
-0.824172
-0.783549
-0.723782
-0.663144
-0.579528
-0.493516
-0.381125
-0.265113
-0.116923
0.0343742
0.209773
0.417375
0.634502
0.900293
1.16549
1.45281
1.80231
2.13536
2.47949
2.89357
3.23687
3.53045
3.71108
3.78618
3.37889
-0.964455
-0.960552
-0.947607
-0.92855
-0.903786
-0.883359
-0.846568
-0.799824
-0.755685
-0.691659
-0.626311
-0.536441
-0.429762
-0.323816
-0.202393
-0.0477488
0.111839
0.310301
0.513101
0.761899
1.01187
1.28839
1.61372
1.93351
2.32204
2.67791
3.03256
3.37115
3.74535
3.92099
3.8407
3.52916
-0.964995
-0.95398
-0.937753
-0.915552
-0.887647
-0.863983
-0.823751
-0.772295
-0.710011
-0.650876
-0.569393
-0.485862
-0.374839
-0.24466
-0.113599
0.0528204
0.221626
0.432118
0.643539
0.876613
1.16106
1.44278
1.78459
2.11137
2.50935
2.86837
3.22187
3.64315
3.92499
4.07112
4.09077
3.74718
-0.948411
-0.935941
-0.918019
-0.893716
-0.862228
-0.824339
-0.790151
-0.737122
-0.671737
-0.594689
-0.518068
-0.415829
-0.296132
-0.174485
-0.0204523
0.156697
0.334684
0.554929
0.77575
1.04583
1.31261
1.63706
1.94876
2.32821
2.67588
3.10102
3.45676
3.77907
4.15052
4.27094
4.25765
3.85359
-0.91975
-0.906399
-0.887663
-0.862876
-0.830949
-0.790959
-0.742631
-0.684448
-0.614698
-0.532604
-0.437909
-0.343077
-0.219942
-0.0771188
0.0854707
0.249305
0.452671
0.681665
0.908747
1.18638
1.48922
1.78837
2.14762
2.47881
2.88522
3.23416
3.66275
3.97255
4.33607
4.42502
4.37389
3.91083
-0.888247
-0.874497
-0.845629
-0.820273
-0.788831
-0.749464
-0.701218
-0.642911
-0.573261
-0.490917
-0.394814
-0.28362
-0.156003
-0.00980644
0.15686
0.339928
0.530455
0.760148
1.01632
1.26615
1.57059
1.90439
2.21481
2.5945
2.99594
3.34229
3.76542
4.05931
4.40875
4.46486
4.37485
3.86725
-0.948561
-0.951145
-0.95894
-0.956722
-0.95944
-0.955798
-0.946363
-0.937207
-0.919005
-0.892098
-0.863808
-0.827893
-0.771659
-0.715676
-0.649908
-0.570679
-0.4624
-0.350768
-0.224298
-0.0799717
0.0842498
0.275739
0.502925
0.738842
0.996312
1.27446
1.56945
1.87958
2.22914
2.51458
2.73166
2.79131
2.69015
-0.944965
-0.947235
-0.955847
-0.962609
-0.957495
-0.955876
-0.941595
-0.931998
-0.917482
-0.886391
-0.857783
-0.822779
-0.778235
-0.711367
-0.643943
-0.564942
-0.471121
-0.345602
-0.216016
-0.0699283
0.095635
0.282314
0.497455
0.752172
1.01301
1.29363
1.59138
1.89933
2.2037
2.48651
2.76605
2.83307
2.63356
-0.942046
-0.951794
-0.951412
-0.957076
-0.960688
-0.951573
-0.946852
-0.93752
-0.913052
-0.891234
-0.862657
-0.815438
-0.769199
-0.713614
-0.646176
-0.55249
-0.456441
-0.346476
-0.21948
-0.0682872
0.113235
0.305259
0.518307
0.754353
1.01304
1.29883
1.63199
1.94843
2.26047
2.54531
2.76036
2.8147
2.70642
-0.946618
-0.956813
-0.956235
-0.960804
-0.954352
-0.952835
-0.947586
-0.928209
-0.912199
-0.890551
-0.851019
-0.812516
-0.766695
-0.710126
-0.628941
-0.546094
-0.450729
-0.338765
-0.192555
-0.0409262
0.129145
0.320266
0.534281
0.772321
1.06446
1.35364
1.65937
1.97485
2.28653
2.56968
2.77975
2.91965
2.71039
-0.946211
-0.95586
-0.955245
-0.960407
-0.959568
-0.953152
-0.945902
-0.924802
-0.908002
-0.886341
-0.852996
-0.808229
-0.759462
-0.700476
-0.617319
-0.532608
-0.435129
-0.322072
-0.185706
-0.0211941
0.153516
0.348642
0.566251
0.806958
1.07695
1.39333
1.70398
2.02348
2.33847
2.62386
2.83401
2.97188
2.75349
-0.951684
-0.95318
-0.959816
-0.955566
-0.956836
-0.955343
-0.939876
-0.928164
-0.907114
-0.876966
-0.845015
-0.804657
-0.743664
-0.682507
-0.610151
-0.524001
-0.408627
-0.289802
-0.155211
-0.00136177
0.17865
0.393098
0.617228
0.863852
1.13337
1.42437
1.73838
2.10042
2.42348
2.71579
2.93163
2.97343
2.84392
-0.955298
-0.956448
-0.96252
-0.95803
-0.958511
-0.952209
-0.939462
-0.925611
-0.896407
-0.869787
-0.836406
-0.782884
-0.729983
-0.667678
-0.592609
-0.489661
-0.383666
-0.263202
-0.124115
0.0534727
0.236703
0.440261
0.666456
0.91623
1.19481
1.52256
1.84237
2.17036
2.49236
2.78159
2.98913
3.11833
2.87059
-0.954832
-0.963111
-0.961279
-0.963602
-0.954387
-0.948779
-0.929399
-0.914751
-0.894486
-0.856465
-0.820366
-0.775599
-0.708968
-0.642315
-0.564538
-0.471745
-0.348668
-0.221817
-0.0781388
0.0860483
0.292417
0.503991
0.737318
0.994252
1.27468
1.61583
1.94234
2.27607
2.60244
2.8937
3.09888
3.22201
2.95303
-0.956956
-0.964623
-0.962009
-0.963552
-0.953394
-0.946505
-0.926017
-0.909438
-0.887163
-0.847126
-0.807268
-0.747236
-0.687877
-0.618572
-0.536184
-0.425198
-0.310439
-0.179118
-0.0110847
0.161949
0.354581
0.569601
0.813594
1.10235
1.39385
1.70493
2.03209
2.36613
2.75706
3.058
3.2694
3.27987
3.10178
-0.964271
-0.961522
-0.964654
-0.956855
-0.952763
-0.935876
-0.922161
-0.893115
-0.867566
-0.835043
-0.782823
-0.729752
-0.654237
-0.579005
-0.492094
-0.384962
-0.255414
-0.11717
0.040371
0.23811
0.440665
0.664838
0.91269
1.21609
1.51558
1.83381
2.16731
2.56602
2.90675
3.20721
3.41221
3.40266
3.19647
-0.960639
-0.966178
-0.960535
-0.959266
-0.946006
-0.9356
-0.911769
-0.889442
-0.851018
-0.813384
-0.756788
-0.69933
-0.618435
-0.537564
-0.443044
-0.319112
-0.191267
-0.0460123
0.137406
0.325846
0.535749
0.794348
1.05443
1.33682
1.64147
2.0106
2.35623
2.70487
3.03887
3.41669
3.61772
3.58827
3.35282
-0.968601
-0.964072
-0.964645
-0.953184
-0.935552
-0.92292
-0.895936
-0.870478
-0.827586
-0.77367
-0.723054
-0.658086
-0.577766
-0.489814
-0.374915
-0.255838
-0.103695
0.0511864
0.225988
0.443186
0.663882
0.907237
1.20385
1.4973
1.81103
2.1914
2.54299
2.89445
3.31038
3.6092
3.79479
3.72999
3.44889
-0.966829
-0.962715
-0.953282
-0.938555
-0.918073
-0.902635
-0.871816
-0.83213
-0.795486
-0.739574
-0.683326
-0.605144
-0.510954
-0.416701
-0.29301
-0.166773
-0.00559887
0.157614
0.340638
0.567325
0.797158
1.07748
1.35585
1.69482
2.01924
2.35893
2.77185
3.12918
3.46239
3.84451
4.01235
3.90826
3.57854
-0.940527
-0.934529
-0.923732
-0.908363
-0.886916
-0.858833
-0.82809
-0.793749
-0.744555
-0.683586
-0.614997
-0.539826
-0.443943
-0.345682
-0.217423
-0.0691527
0.0812424
0.269404
0.460399
0.695662
0.931425
1.21896
1.50063
1.84346
2.16751
2.56225
2.91293
3.33992
3.66964
3.9297
4.18891
4.03605
3.65274
-0.904645
-0.90032
-0.89145
-0.87771
-0.858219
-0.832121
-0.798578
-0.756967
-0.705884
-0.644024
-0.570297
-0.482964
-0.385826
-0.281409
-0.150803
-0.00389725
0.152807
0.343584
0.555101
0.775258
1.03881
1.2983
1.61446
1.95718
2.28512
2.67584
3.02624
3.44502
3.76807
4.0082
4.24271
4.22035
3.61911
-0.928937
-0.939594
-0.949782
-0.953892
-0.953193
-0.954088
-0.952762
-0.947079
-0.925569
-0.907261
-0.884462
-0.855286
-0.817976
-0.771411
-0.708365
-0.628072
-0.541046
-0.440982
-0.325465
-0.192449
-0.0401826
0.132582
0.32771
0.551146
0.815202
1.08369
1.36903
1.66584
1.96244
2.23833
2.45661
2.5376
2.46998
-0.933073
-0.939538
-0.948365
-0.955973
-0.956972
-0.952902
-0.950077
-0.944635
-0.934545
-0.914298
-0.884575
-0.852936
-0.814221
-0.76633
-0.708316
-0.637643
-0.547982
-0.437372
-0.318252
-0.183103
-0.0292655
0.145208
0.341518
0.560719
0.802586
1.06618
1.3536
1.68429
1.98713
2.26861
2.49267
2.57936
2.42375
-0.932443
-0.944421
-0.950661
-0.953149
-0.957363
-0.959214
-0.953009
-0.939899
-0.926978
-0.910242
-0.887512
-0.857552
-0.81394
-0.7569
-0.695318
-0.623417
-0.538883
-0.439533
-0.323944
-0.189514
-0.0294996
0.162496
0.365366
0.589731
0.83687
1.10525
1.39208
1.69116
1.99023
2.26792
2.48642
2.56455
2.49152
-0.935755
-0.944306
-0.94883
-0.955475
-0.960266
-0.957904
-0.949244
-0.941003
-0.929555
-0.91272
-0.888537
-0.845304
-0.803239
-0.753334
-0.693331
-0.621312
-0.536033
-0.435008
-0.311312
-0.161381
-0.000880472
0.179453
0.381695
0.607012
0.855664
1.12626
1.41531
1.71634
2.01652
2.29376
2.50903
2.66417
2.50203
-0.937535
-0.948535
-0.948644
-0.95472
-0.958892
-0.959418
-0.945952
-0.936983
-0.924859
-0.907747
-0.884203
-0.847274
-0.798394
-0.745676
-0.683479
-0.609749
-0.522107
-0.419132
-0.293061
-0.139827
0.0238615
0.207258
0.412703
0.641433
0.893433
1.16765
1.46052
1.76485
2.06807
2.34734
2.5626
2.71596
2.5456
-0.934688
-0.944554
-0.953726
-0.960285
-0.954594
-0.954107
-0.950846
-0.942833
-0.918489
-0.897232
-0.871184
-0.837967
-0.79553
-0.742184
-0.664191
-0.584622
-0.492985
-0.386898
-0.264169
-0.12264
0.0390786
0.223056
0.435724
0.687987
0.948295
1.22951
1.52899
1.83985
2.14896
2.43355
2.65289
2.71983
2.62824
-0.938312
-0.947916
-0.956736
-0.959266
-0.956769
-0.955596
-0.951672
-0.938929
-0.917405
-0.895046
-0.867391
-0.831908
-0.786651
-0.718289
-0.648693
-0.567922
-0.473965
-0.364727
-0.238358
-0.0915177
0.0952392
0.288582
0.503294
0.741527
1.00342
1.2878
1.59081
1.90483
2.21648
2.50128
2.71596
2.86248
2.66633
-0.947115
-0.953647
-0.956167
-0.96055
-0.961664
-0.950266
-0.943499
-0.933624
-0.917361
-0.883815
-0.85233
-0.814446
-0.767588
-0.710102
-0.635149
-0.54195
-0.441434
-0.326863
-0.195319
-0.0443551
0.128512
0.34575
0.568775
0.814627
1.08386
1.37498
1.68469
2.0051
2.32196
2.61025
2.82424
2.96622
2.75141
-0.950028
-0.959134
-0.957761
-0.961478
-0.961791
-0.949452
-0.94147
-0.929932
-0.908353
-0.876516
-0.84269
-0.801688
-0.750684
-0.675856
-0.599772
-0.511608
-0.409384
-0.290885
-0.147779
0.0242615
0.206663
0.410077
0.636535
0.887006
1.16076
1.46202
1.81389
2.14605
2.47254
2.76831
2.98613
3.02616
2.89131
-0.95725
-0.956981
-0.96202
-0.964759
-0.95568
-0.950544
-0.941283
-0.916955
-0.895417
-0.867247
-0.819967
-0.774011
-0.719602
-0.654108
-0.5708
-0.468112
-0.357764
-0.232045
-0.0866853
0.098661
0.289598
0.501435
0.736366
0.99527
1.27712
1.58602
1.94697
2.28524
2.61623
2.91359
3.12738
3.15064
2.9907
-0.956326
-0.962696
-0.958026
-0.959788
-0.957733
-0.942611
-0.931321
-0.910542
-0.881142
-0.849654
-0.805574
-0.749667
-0.688703
-0.616285
-0.517703
-0.416361
-0.300817
-0.167198
0.00366299
0.180076
0.376397
0.595451
0.843662
1.13734
1.43381
1.74992
2.08182
2.42016
2.81678
3.12076
3.33297
3.33919
3.15332
-0.963752
-0.961172
-0.963885
-0.954477
-0.949899
-0.931053
-0.91751
-0.89806
-0.861551
-0.825468
-0.770663
-0.715981
-0.650523
-0.560486
-0.467736
-0.360169
-0.220804
-0.0774447
0.0851622
0.289587
0.498184
0.727944
0.981948
1.29312
1.59941
1.92478
2.26451
2.60851
3.01276
3.31459
3.51594
3.49317
3.26788
-0.965736
-0.962765
-0.955124
-0.952592
-0.937127
-0.9141
-0.896533
-0.862684
-0.831611
-0.781712
-0.73372
-0.671233
-0.593879
-0.508637
-0.39678
-0.28077
-0.131623
0.0202148
0.191313
0.405585
0.622991
0.8625
1.15596
1.44649
1.75756
2.13613
2.48671
2.83825
3.17182
3.55073
3.73927
3.68311
3.41436
-0.938708
-0.933494
-0.928557
-0.923075
-0.907444
-0.885081
-0.86644
-0.831644
-0.787351
-0.744555
-0.681194
-0.605046
-0.529189
-0.427339
-0.323078
-0.18781
-0.0490662
0.126518
0.305515
0.528696
0.752432
0.997893
1.29851
1.59261
1.95085
2.2874
2.63226
3.04868
3.38138
3.65383
3.92565
3.82717
3.50977
-0.912115
-0.902605
-0.894421
-0.890224
-0.876545
-0.855536
-0.82729
-0.790782
-0.744976
-0.694077
-0.637186
-0.561884
-0.475955
-0.380664
-0.261139
-0.125975
0.0195904
0.197342
0.378422
0.602487
0.828089
1.10394
1.3754
1.70602
2.01996
2.40249
2.74471
3.16054
3.48512
3.74337
3.99943
3.86372
3.50824
-0.91962
-0.925887
-0.934587
-0.942879
-0.94946
-0.953808
-0.955489
-0.952913
-0.940886
-0.920457
-0.899106
-0.8725
-0.838341
-0.795717
-0.743454
-0.679843
-0.60376
-0.513604
-0.407515
-0.284406
-0.142713
0.0195317
0.203296
0.409469
0.638313
0.888558
1.16234
1.44397
1.72722
1.99299
2.20809
2.36807
2.25218
-0.921384
-0.932752
-0.933628
-0.940307
-0.946214
-0.950028
-0.951023
-0.948561
-0.942035
-0.929776
-0.911194
-0.880684
-0.838591
-0.792901
-0.738703
-0.673804
-0.59654
-0.50522
-0.398463
-0.27454
-0.131751
0.0314443
0.216335
0.423847
0.654269
0.906213
1.17697
1.46048
1.74596
2.01446
2.2329
2.32906
2.28597
-0.917244
-0.929578
-0.940358
-0.949479
-0.955706
-0.954533
-0.947259
-0.940614
-0.931281
-0.917684
-0.898662
-0.873065
-0.839584
-0.797132
-0.744579
-0.680655
-0.603596
-0.512197
-0.404948
-0.280309
-0.132133
0.032372
0.218801
0.428765
0.681252
0.915685
1.18631
1.50344
1.79696
2.02501
2.29556
2.39856
2.27474
-0.922268
-0.935262
-0.945983
-0.950185
-0.949719
-0.950635
-0.949413
-0.945108
-0.936726
-0.923317
-0.904259
-0.877933
-0.843789
-0.800427
-0.741404
-0.665663
-0.582992
-0.48748
-0.376513
-0.248087
-0.100732
0.0672338
0.257203
0.470147
0.706408
0.96458
1.24192
1.53245
1.82496
2.10028
2.32451
2.4228
2.29207
-0.923598
-0.935462
-0.945936
-0.953153
-0.948159
-0.948292
-0.946583
-0.941855
-0.93304
-0.919066
-0.899149
-0.872475
-0.837292
-0.792924
-0.737817
-0.665227
-0.573883
-0.47449
-0.360319
-0.228741
-0.0781647
0.0931187
0.286498
0.502929
0.742596
1.00448
1.28556
1.57955
1.87509
2.15261
2.37728
2.47265
2.33461
-0.928373
-0.933873
-0.941894
-0.949283
-0.954561
-0.957343
-0.957089
-0.952134
-0.937179
-0.913862
-0.889187
-0.858586
-0.820399
-0.773464
-0.716043
-0.646674
-0.564125
-0.467008
-0.352909
-0.220993
-0.0693422
0.103879
0.299174
0.51777
0.764424
1.02859
1.31172
1.60696
1.90207
2.17647
2.45544
2.55238
2.40803
-0.931773
-0.937112
-0.9449
-0.951939
-0.956799
-0.959374
-0.957946
-0.947273
-0.928424
-0.908568
-0.883702
-0.852111
-0.812317
-0.762926
-0.702891
-0.631104
-0.545561
-0.445006
-0.327828
-0.187709
-0.0307328
0.162953
0.368039
0.595333
0.845727
1.11833
1.41027
1.71466
2.01945
2.30363
2.52961
2.61565
2.45486
-0.933412
-0.94459
-0.954087
-0.956472
-0.95405
-0.953019
-0.950014
-0.943211
-0.9313
-0.911795
-0.874237
-0.838315
-0.795329
-0.743143
-0.680093
-0.604342
-0.515135
-0.410492
-0.288665
-0.148032
0.0126181
0.200439
0.407836
0.659705
0.919158
1.17277
1.49825
1.81201
2.12453
2.41399
2.64083
2.71951
2.54163
-0.937247
-0.947828
-0.956366
-0.958424
-0.955108
-0.953086
-0.948806
-0.94022
-0.925708
-0.893475
-0.863339
-0.826695
-0.781517
-0.726387
-0.660002
-0.581031
-0.487206
-0.371794
-0.23098
-0.0797042
0.0902057
0.281466
0.495803
0.734408
0.99702
1.28199
1.58602
1.90112
2.21406
2.50043
2.71704
2.86572
2.67095
-0.945775
-0.954406
-0.952371
-0.955959
-0.957848
-0.956682
-0.946678
-0.928703
-0.910327
-0.887086
-0.856785
-0.817443
-0.755904
-0.694261
-0.622586
-0.538176
-0.439038
-0.323499
-0.187909
-0.0140092
0.165973
0.36663
0.590141
0.837485
1.1087
1.40213
1.71403
2.03608
2.35388
2.64682
2.93497
2.9945
2.77082
-0.955266
-0.955769
-0.96113
-0.96396
-0.954612
-0.9499
-0.942319
-0.928554
-0.898287
-0.870584
-0.836565
-0.792743
-0.726718
-0.660268
-0.583287
-0.492942
-0.387414
-0.259555
-0.10456
0.060846
0.246114
0.453535
0.684646
0.94064
1.25421
1.56315
1.8886
2.22323
2.55213
2.84839
3.06295
3.09159
2.9404
-0.957161
-0.963336
-0.95896
-0.960686
-0.958889
-0.943631
-0.932597
-0.916278
-0.882886
-0.85173
-0.812679
-0.752891
-0.693054
-0.622822
-0.539185
-0.426815
-0.310951
-0.179735
-0.0292401
0.147489
0.357891
0.577887
0.820045
1.08607
1.38098
1.72835
2.06454
2.40773
2.74231
3.03912
3.24359
3.35904
3.0586
-0.956246
-0.954143
-0.957661
-0.948986
-0.945176
-0.926941
-0.914282
-0.895726
-0.860278
-0.825237
-0.771112
-0.717948
-0.653984
-0.565454
-0.474371
-0.368401
-0.231063
-0.0895167
0.0711706
0.273242
0.479528
0.707021
0.958737
1.26676
1.56991
1.8921
2.22886
2.63224
2.97369
3.27168
3.46919
3.44913
3.21724
-0.939034
-0.938053
-0.932619
-0.932425
-0.919742
-0.899989
-0.885067
-0.854735
-0.825995
-0.778904
-0.723869
-0.663456
-0.596336
-0.504237
-0.408344
-0.283505
-0.154067
0.0103431
0.179065
0.386105
0.603857
0.838608
1.12812
1.41322
1.71857
2.09096
2.43509
2.77999
3.10638
3.47615
3.65502
3.59162
3.32084
-0.901546
-0.904268
-0.900467
-0.898789
-0.888057
-0.870139
-0.845299
-0.817168
-0.784681
-0.737879
-0.679794
-0.621766
-0.540765
-0.447811
-0.345729
-0.218204
-0.0869568
0.0794873
0.249969
0.462599
0.677695
0.942539
1.20474
1.48718
1.83161
2.15564
2.54947
2.8915
3.21006
3.57165
3.72591
3.77389
3.32082
-0.892911
-0.907106
-0.919698
-0.930998
-0.940672
-0.948361
-0.95387
-0.956522
-0.955632
-0.947213
-0.937434
-0.921872
-0.898725
-0.860874
-0.82083
-0.781274
-0.725856
-0.656758
-0.572588
-0.463863
-0.357087
-0.225807
-0.0737193
0.0997734
0.295452
0.513563
0.753269
1.01194
1.28407
1.55453
1.81566
2.0326
2.14555
2.11781
-0.88987
-0.903822
-0.91674
-0.928229
-0.938101
-0.945905
-0.951529
-0.953879
-0.952778
-0.947616
-0.937657
-0.922107
-0.900051
-0.870332
-0.832367
-0.785008
-0.726707
-0.656153
-0.57192
-0.472417
-0.356445
-0.22213
-0.0679627
0.107395
0.304903
0.524698
0.765827
1.02585
1.29888
1.57512
1.83743
2.05604
2.16478
2.14364
-0.897629
-0.90485
-0.914453
-0.923819
-0.931992
-0.938399
-0.942487
-0.943649
-0.94153
-0.935435
-0.924594
-0.9082
-0.885369
-0.855123
-0.816387
-0.767956
-0.708542
-0.637034
-0.551741
-0.451127
-0.333591
-0.197505
-0.0413102
0.136196
0.335108
0.537262
0.775969
1.06048
1.30865
1.58177
1.84123
2.05628
2.22263
2.12843
-0.893488
-0.906748
-0.919015
-0.929897
-0.939
-0.945875
-0.950308
-0.951745
-0.949613
-0.943276
-0.932366
-0.915512
-0.892179
-0.86141
-0.822099
-0.772983
-0.712649
-0.639942
-0.553293
-0.451089
-0.33174
-0.193885
-0.0355824
0.14389
0.345676
0.569861
0.815775
1.08087
1.35928
1.6412
1.90941
2.13335
2.24467
2.1427
-0.894398
-0.907006
-0.918754
-0.929234
-0.938035
-0.944664
-0.948856
-0.950023
-0.947546
-0.940773
-0.929014
-0.911458
-0.887144
-0.855338
-0.814986
-0.764582
-0.702749
-0.628346
-0.539785
-0.435342
-0.313726
-0.173307
-0.0123505
0.169994
0.374899
0.602542
0.852016
1.12059
1.4026
1.6878
1.95857
2.18352
2.29258
2.18416
-0.903213
-0.916863
-0.928791
-0.939288
-0.947991
-0.954505
-0.958443
-0.959472
-0.952978
-0.94515
-0.932019
-0.911914
-0.877955
-0.84221
-0.807006
-0.755892
-0.684397
-0.614975
-0.525289
-0.409153
-0.294219
-0.152518
0.0239372
0.196347
0.401486
0.630573
0.881862
1.15218
1.43538
1.72042
1.98851
2.20693
2.37176
2.25872
-0.906486
-0.920031
-0.931856
-0.942193
-0.950649
-0.956802
-0.956539
-0.956117
-0.950537
-0.933637
-0.916072
-0.894071
-0.865465
-0.828986
-0.783716
-0.728317
-0.661068
-0.581333
-0.48701
-0.376364
-0.248484
-0.101389
0.0670894
0.257321
0.470638
0.707202
0.966346
1.24488
1.53681
1.83111
2.10854
2.33504
2.43559
2.30607
-0.909047
-0.919384
-0.92959
-0.938843
-0.946455
-0.951781
-0.954478