/*--------------------------------*- C++ -*----------------------------------*\
| =========                 |                                                 |
| \\      /  F ield         | OpenFOAM: The Open Source CFD Toolbox           |
|  \\    /   O peration     | Version:  2412                                  |
|   \\  /    A nd           | Website:  www.openfoam.com                      |
|    \\/     M anipulation  |                                                 |
\*---------------------------------------------------------------------------*/
FoamFile
{
    version     2.0;
    format      ascii;
    arch        "LSB;label=32;scalar=64";
    class       volScalarField;
    location    "0.0400007";
    object      Jsi;
}
// * * * * * * * * * * * * * * * * * * * * * * * * * * * * * * * * * * * * * //

dimensions      [0 0 0 0 0 0 0];

internalField   nonuniform List<scalar> 
8670
(
-0.218329
-0.216392
-0.21443
-0.212495
-0.210522
-0.208505
-0.206442
-0.204322
-0.202148
-0.199918
-0.197682
-0.195327
-0.192916
-0.190453
-0.188032
-0.185529
-0.182882
-0.180236
-0.177484
-0.174557
-0.171684
-0.168564
-0.165403
-0.16209
-0.158634
-0.155
-0.151263
-0.14717
-0.143008
-0.138508
-0.134334
-0.131536
-0.218249
-0.216375
-0.214387
-0.212371
-0.21038
-0.208352
-0.206281
-0.204157
-0.202024
-0.199796
-0.197503
-0.195147
-0.192742
-0.19038
-0.187941
-0.185343
-0.182669
-0.180082
-0.177283
-0.174454
-0.171499
-0.16835
-0.165235
-0.161846
-0.158456
-0.154748
-0.15101
-0.146912
-0.142771
-0.138454
-0.134135
-0.131323
-0.218052
-0.216179
-0.21428
-0.212333
-0.210314
-0.208168
-0.206036
-0.203888
-0.201716
-0.199588
-0.197342
-0.195071
-0.192671
-0.190203
-0.187666
-0.185166
-0.182571
-0.179829
-0.177145
-0.174231
-0.171184
-0.168189
-0.164931
-0.161684
-0.158138
-0.154575
-0.150673
-0.146742
-0.142535
-0.138116
-0.133862
-0.131116
-0.217847
-0.215969
-0.214049
-0.211999
-0.20997
-0.207914
-0.205813
-0.20367
-0.201483
-0.199244
-0.196967
-0.194734
-0.192429
-0.18998
-0.18744
-0.184839
-0.182322
-0.179585
-0.17674
-0.173966
-0.170955
-0.16797
-0.164711
-0.161391
-0.157906
-0.154256
-0.150405
-0.146431
-0.142078
-0.137695
-0.133328
-0.130495
-0.217531
-0.21565
-0.213741
-0.211769
-0.209671
-0.207587
-0.205477
-0.203326
-0.201135
-0.198906
-0.196718
-0.194414
-0.192078
-0.189612
-0.187062
-0.184447
-0.181922
-0.179175
-0.176319
-0.173537
-0.170518
-0.167522
-0.164248
-0.160978
-0.157412
-0.153809
-0.14987
-0.145874
-0.141497
-0.137091
-0.132704
-0.129861
-0.217167
-0.215197
-0.213216
-0.211265
-0.209275
-0.207243
-0.205167
-0.203036
-0.20085
-0.19861
-0.196366
-0.194001
-0.191571
-0.189085
-0.186637
-0.184102
-0.181399
-0.178617
-0.175915
-0.172986
-0.17002
-0.166902
-0.163563
-0.160253
-0.156638
-0.153013
-0.149036
-0.14504
-0.140835
-0.136282
-0.132043
-0.129194
-0.216625
-0.214676
-0.212705
-0.21076
-0.208775
-0.206746
-0.20467
-0.202541
-0.200354
-0.198104
-0.195799
-0.193483
-0.191046
-0.188542
-0.185983
-0.183456
-0.18083
-0.178053
-0.175269
-0.172368
-0.169279
-0.166229
-0.162915
-0.159597
-0.155978
-0.152253
-0.14832
-0.14426
-0.139819
-0.135347
-0.13091
-0.128036
-0.215906
-0.214045
-0.212126
-0.210091
-0.208083
-0.205997
-0.203914
-0.201778
-0.199583
-0.197341
-0.195086
-0.192706
-0.19026
-0.187737
-0.185153
-0.182674
-0.179979
-0.177184
-0.17445
-0.171475
-0.168363
-0.165293
-0.161957
-0.158612
-0.154967
-0.151272
-0.147238
-0.143138
-0.138654
-0.134134
-0.129653
-0.126753
-0.215125
-0.213246
-0.211251
-0.209228
-0.207232
-0.205202
-0.203116
-0.200962
-0.198676
-0.19649
-0.194208
-0.191847
-0.189467
-0.18696
-0.184371
-0.181723
-0.179088
-0.176342
-0.173434
-0.170508
-0.167447
-0.164187
-0.160947
-0.15742
-0.153786
-0.149953
-0.145819
-0.141677
-0.137244
-0.132584
-0.128009
-0.125146
-0.214126
-0.212201
-0.21028
-0.208233
-0.206215
-0.204175
-0.202038
-0.1999
-0.197706
-0.19546
-0.19315
-0.190827
-0.188384
-0.185859
-0.183256
-0.180585
-0.177935
-0.175173
-0.172219
-0.169144
-0.166136
-0.16287
-0.159597
-0.156016
-0.152227
-0.148429
-0.144271
-0.140063
-0.135466
-0.130843
-0.126263
-0.123317
-0.212979
-0.210991
-0.209076
-0.207112
-0.205033
-0.202975
-0.200836
-0.198693
-0.196498
-0.194248
-0.191937
-0.189558
-0.187105
-0.184632
-0.182018
-0.179315
-0.176526
-0.173649
-0.170843
-0.167782
-0.164579
-0.161405
-0.157936
-0.154274
-0.150615
-0.146622
-0.142573
-0.13815
-0.133633
-0.12878
-0.124102
-0.121118
-0.21152
-0.209535
-0.207608
-0.205578
-0.203576
-0.201492
-0.199385
-0.197139
-0.194904
-0.192636
-0.190314
-0.187932
-0.185482
-0.182949
-0.180326
-0.177614
-0.174817
-0.172093
-0.169137
-0.166028
-0.162788
-0.159572
-0.15605
-0.152342
-0.148624
-0.14455
-0.140237
-0.135882
-0.131138
-0.126377
-0.121691
-0.118685
-0.209703
-0.207782
-0.205805
-0.203813
-0.201816
-0.199691
-0.19758
-0.195356
-0.193033
-0.190746
-0.188426
-0.186049
-0.183605
-0.181081
-0.178464
-0.175759
-0.172954
-0.170057
-0.167148
-0.164107
-0.160836
-0.157403
-0.153801
-0.150205
-0.146278
-0.14212
-0.137921
-0.133325
-0.128461
-0.123619
-0.118867
-0.115821
-0.207811
-0.205896
-0.203952
-0.201962
-0.199921
-0.19782
-0.19566
-0.193425
-0.191216
-0.188968
-0.18664
-0.184084
-0.181595
-0.17906
-0.176455
-0.173762
-0.170962
-0.168048
-0.165012
-0.161862
-0.158746
-0.15533
-0.151713
-0.14791
-0.143911
-0.139876
-0.135467
-0.130772
-0.125831
-0.120915
-0.116093
-0.112978
-0.206273
-0.20436
-0.202352
-0.20045
-0.198391
-0.196384
-0.194209
-0.192084
-0.189776
-0.187537
-0.185229
-0.182693
-0.18023
-0.177719
-0.175138
-0.172471
-0.169696
-0.166804
-0.163784
-0.160622
-0.157308
-0.153825
-0.150172
-0.146328
-0.142277
-0.138097
-0.133742
-0.129055
-0.124087
-0.118998
-0.114173
-0.110894
-0.222218
-0.220262
-0.218314
-0.21627
-0.214178
-0.212053
-0.20997
-0.207836
-0.205588
-0.203371
-0.201094
-0.1987
-0.196393
-0.193917
-0.191456
-0.188922
-0.186326
-0.183649
-0.180956
-0.178045
-0.175174
-0.172066
-0.169005
-0.165827
-0.162357
-0.158884
-0.155248
-0.15124
-0.147178
-0.142936
-0.138654
-0.135908
-0.222135
-0.220181
-0.218177
-0.216127
-0.214043
-0.212005
-0.209916
-0.207705
-0.205446
-0.203276
-0.200936
-0.198523
-0.196209
-0.193733
-0.19132
-0.188724
-0.186185
-0.183444
-0.180753
-0.177844
-0.174995
-0.172055
-0.168858
-0.165679
-0.162301
-0.15874
-0.155092
-0.151184
-0.147022
-0.142746
-0.138456
-0.135818
-0.222064
-0.22011
-0.218108
-0.216066
-0.21402
-0.211882
-0.209704
-0.207571
-0.205388
-0.203097
-0.200825
-0.198486
-0.196024
-0.19365
-0.191107
-0.188624
-0.185953
-0.183337
-0.180511
-0.177751
-0.174851
-0.171819
-0.168727
-0.165375
-0.162042
-0.158559
-0.154733
-0.150875
-0.146807
-0.142373
-0.138244
-0.135462
-0.221705
-0.21976
-0.217848
-0.215835
-0.21376
-0.211674
-0.209492
-0.207267
-0.205144
-0.202859
-0.200513
-0.198261
-0.195837
-0.193479
-0.190938
-0.188401
-0.185789
-0.183107
-0.180332
-0.177545
-0.174529
-0.171534
-0.168279
-0.165067
-0.16173
-0.158059
-0.154376
-0.150514
-0.146249
-0.141975
-0.137866
-0.135077
-0.221399
-0.219518
-0.217549
-0.215515
-0.213475
-0.211339
-0.209147
-0.20692
-0.204793
-0.202503
-0.20015
-0.197889
-0.195465
-0.193108
-0.190572
-0.188087
-0.185414
-0.182783
-0.179946
-0.177148
-0.174119
-0.171111
-0.167839
-0.164612
-0.161258
-0.157568
-0.153866
-0.149984
-0.145699
-0.141406
-0.137279
-0.134479
-0.221065
-0.219106
-0.217101
-0.215046
-0.212947
-0.210808
-0.20872
-0.206577
-0.204322
-0.202099
-0.199814
-0.197413
-0.195092
-0.192603
-0.190116
-0.187544
-0.184819
-0.182195
-0.179451
-0.176588
-0.173686
-0.17054
-0.167396
-0.163979
-0.16059
-0.157052
-0.15316
-0.149246
-0.145143
-0.140772
-0.136514
-0.133672
-0.220506
-0.218588
-0.216586
-0.214536
-0.212441
-0.210308
-0.208215
-0.206069
-0.203795
-0.201478
-0.199243
-0.196835
-0.19436
-0.191972
-0.18941
-0.186911
-0.184215
-0.181576
-0.178719
-0.175903
-0.172853
-0.169846
-0.166728
-0.163322
-0.159897
-0.156147
-0.152386
-0.148444
-0.144099
-0.139739
-0.135556
-0.132723
-0.219781
-0.217815
-0.215807
-0.213766
-0.211769
-0.209676
-0.207564
-0.205337
-0.203067
-0.200831
-0.198534
-0.196113
-0.193769
-0.191239
-0.188627
-0.186109
-0.183387
-0.18073
-0.177855
-0.17505
-0.172093
-0.168997
-0.165832
-0.162389
-0.158928
-0.155137
-0.15134
-0.147357
-0.142967
-0.138564
-0.134346
-0.131495
-0.219016
-0.21705
-0.215038
-0.212985
-0.210905
-0.208863
-0.206763
-0.204543
-0.202256
-0.199937
-0.197701
-0.195289
-0.192807
-0.190408
-0.187834
-0.185312
-0.182579
-0.179739
-0.176989
-0.17411
-0.171097
-0.168032
-0.164706
-0.161362
-0.157724
-0.154077
-0.150183
-0.146051
-0.141764
-0.13712
-0.132829
-0.129954
-0.218096
-0.216145
-0.214151
-0.212107
-0.210064
-0.20793
-0.205737
-0.203494
-0.201214
-0.198976
-0.196675
-0.194253
-0.191848
-0.18937
-0.186759
-0.184218
-0.181492
-0.178736
-0.175871
-0.172818
-0.169846
-0.166714
-0.163427
-0.160049
-0.15637
-0.152658
-0.148595
-0.144497
-0.140191
-0.135524
-0.131184
-0.128281
-0.216831
-0.214897
-0.212919
-0.21089
-0.208808
-0.206677
-0.204496
-0.202262
-0.19999
-0.197756
-0.195457
-0.193023
-0.190523
-0.188102
-0.185495
-0.182798
-0.180173
-0.177342
-0.174544
-0.171492
-0.168302
-0.165188
-0.161882
-0.158409
-0.154829
-0.150928
-0.146971
-0.142647
-0.138265
-0.133629
-0.129154
-0.126197
-0.215339
-0.213404
-0.211432
-0.209411
-0.207341
-0.205225
-0.203052
-0.200824
-0.198541
-0.196214
-0.193838
-0.191494
-0.189073
-0.186505
-0.183866
-0.1813
-0.178528
-0.175641
-0.172827
-0.169778
-0.166735
-0.163421
-0.159924
-0.156478
-0.152812
-0.148935
-0.144922
-0.140537
-0.136067
-0.131264
-0.126805
-0.123828
-0.213577
-0.21164
-0.209669
-0.207587
-0.205411
-0.203251
-0.20107
-0.198852
-0.196602
-0.194401
-0.192137
-0.189734
-0.187248
-0.184686
-0.182051
-0.179489
-0.176711
-0.173801
-0.170788
-0.167845
-0.164644
-0.161443
-0.157939
-0.154246
-0.15056
-0.146525
-0.142449
-0.137984
-0.133449
-0.128568
-0.124059
-0.121051
-0.211569
-0.209626
-0.207612
-0.205622
-0.20359
-0.201486
-0.199193
-0.196969
-0.194716
-0.192417
-0.190062
-0.187646
-0.185166
-0.182633
-0.180186
-0.177534
-0.17475
-0.171848
-0.16884
-0.165879
-0.162644
-0.159238
-0.155729
-0.15212
-0.14825
-0.144338
-0.140039
-0.135544
-0.13087
-0.125922
-0.121348
-0.118279
-0.209942
-0.208054
-0.206056
-0.204052
-0.202055
-0.199883
-0.197774
-0.195629
-0.193406
-0.191023
-0.188656
-0.186246
-0.183782
-0.181256
-0.178675
-0.176111
-0.173384
-0.17052
-0.167524
-0.164397
-0.161121
-0.157761
-0.154309
-0.150603
-0.146684
-0.142739
-0.138422
-0.13384
-0.129194
-0.124198
-0.119435
-0.116273
-0.225411
-0.223377
-0.221414
-0.219304
-0.217141
-0.215062
-0.212847
-0.210703
-0.208408
-0.206204
-0.203918
-0.201553
-0.199201
-0.196684
-0.194246
-0.191756
-0.189071
-0.186452
-0.183774
-0.180869
-0.178026
-0.175117
-0.172098
-0.168797
-0.165518
-0.162126
-0.158555
-0.1546
-0.150602
-0.146456
-0.142429
-0.139666
-0.225321
-0.223351
-0.221333
-0.21922
-0.217185
-0.215014
-0.212907
-0.210659
-0.208464
-0.206132
-0.203859
-0.201432
-0.199086
-0.196705
-0.194146
-0.191653
-0.189047
-0.18635
-0.183661
-0.1809
-0.177916
-0.174982
-0.171962
-0.168758
-0.165384
-0.161959
-0.158395
-0.154626
-0.150459
-0.146264
-0.14222
-0.139459
-0.225223
-0.223191
-0.221111
-0.219116
-0.216982
-0.214917
-0.212713
-0.21057
-0.208281
-0.20605
-0.203665
-0.201341
-0.198856
-0.196461
-0.194017
-0.191389
-0.188834
-0.18622
-0.183392
-0.18063
-0.177807
-0.174819
-0.17169
-0.168532
-0.165267
-0.161835
-0.158064
-0.154269
-0.150295
-0.146124
-0.141898
-0.13927
-0.225007
-0.223032
-0.220959
-0.218908
-0.216801
-0.214597
-0.212472
-0.210215
-0.208047
-0.205795
-0.203477
-0.201169
-0.198691
-0.196273
-0.193679
-0.191168
-0.18861
-0.185835
-0.183135
-0.180394
-0.177558
-0.174466
-0.171412
-0.168264
-0.164911
-0.16136
-0.157742
-0.153976
-0.150002
-0.145749
-0.141556
-0.1388
-0.224675
-0.222694
-0.220622
-0.218628
-0.216493
-0.214371
-0.212202
-0.210002
-0.207763
-0.205487
-0.203156
-0.200836
-0.19836
-0.195955
-0.193451
-0.190869
-0.188281
-0.185492
-0.18278
-0.180022
-0.177172
-0.174065
-0.170998
-0.167841
-0.164473
-0.160904
-0.157268
-0.153482
-0.149488
-0.145215
-0.141006
-0.138238
-0.224255
-0.222287
-0.220271
-0.218155
-0.216111
-0.213918
-0.211669
-0.209508
-0.207199
-0.204987
-0.202741
-0.200321
-0.197959
-0.19543
-0.192978
-0.190413
-0.187764
-0.185128
-0.182369
-0.179498
-0.176615
-0.173634
-0.170394
-0.16719
-0.163883
-0.160404
-0.156575
-0.152723
-0.148702
-0.144497
-0.140329
-0.137587
-0.223731
-0.221687
-0.219717
-0.217602
-0.215436
-0.213353
-0.211133
-0.208977
-0.206671
-0.204436
-0.202046
-0.199737
-0.197342
-0.194869
-0.192393
-0.189739
-0.187155
-0.184516
-0.181651
-0.178844
-0.175957
-0.172818
-0.169717
-0.166523
-0.163178
-0.1595
-0.155814
-0.151968
-0.147892
-0.143433
-0.139268
-0.136439
-0.223021
-0.221088
-0.219014
-0.216886
-0.214847
-0.212669
-0.210557
-0.208302
-0.206106
-0.203763
-0.201476
-0.199033
-0.196653
-0.194108
-0.191641
-0.189063
-0.186395
-0.183718
-0.180829
-0.178011
-0.175131
-0.172077
-0.168874
-0.165625
-0.162236
-0.158518
-0.154795
-0.150911
-0.146798
-0.142301
-0.138104
-0.135258
-0.222233
-0.220304
-0.218234
-0.216111
-0.214066
-0.211873
-0.209617
-0.20745
-0.205133
-0.202891
-0.200487
-0.198152
-0.195652
-0.193241
-0.190781
-0.188126
-0.185513
-0.18269
-0.179937
-0.177115
-0.174043
-0.171015
-0.167869
-0.16443
-0.161013
-0.157469
-0.15373
-0.14961
-0.145439
-0.141106
-0.136839
-0.134048
-0.221342
-0.219297
-0.217281
-0.215218
-0.213061
-0.210927
-0.208734
-0.206443
-0.204239
-0.201889
-0.1996
-0.19715
-0.194759
-0.192208
-0.189715
-0.187035
-0.184431
-0.181696
-0.178855
-0.175982
-0.172876
-0.169817
-0.166639
-0.163164
-0.1597
-0.156088
-0.152106
-0.148095
-0.143906
-0.139525
-0.135122
-0.132382
-0.220097
-0.218134
-0.216069
-0.213947
-0.211786
-0.209712
-0.207489
-0.205202
-0.203007
-0.200665
-0.198378
-0.195914
-0.193369
-0.190942
-0.188465
-0.185795
-0.183169
-0.180336
-0.177541
-0.174522
-0.17154
-0.1684
-0.165105
-0.161732
-0.158046
-0.154378
-0.150555
-0.146442
-0.142071
-0.137604
-0.133225
-0.130382
-0.218678
-0.216653
-0.21458
-0.212458
-0.210303
-0.208239
-0.206028
-0.203738
-0.201394
-0.199164
-0.196781
-0.194455
-0.191941
-0.189337
-0.186828
-0.184117
-0.181483
-0.178629
-0.175852
-0.17298
-0.16986
-0.166729
-0.163328
-0.159919
-0.156191
-0.152466
-0.148566
-0.144272
-0.139918
-0.135387
-0.130845
-0.127874
-0.216795
-0.214799
-0.212754
-0.210657
-0.208511
-0.206339
-0.204261
-0.202029
-0.199723
-0.197373
-0.195108
-0.192671
-0.190154
-0.187706
-0.185073
-0.18234
-0.179692
-0.176828
-0.174015
-0.170966
-0.167935
-0.164642
-0.161341
-0.157746
-0.154134
-0.150181
-0.146214
-0.142035
-0.137453
-0.132827
-0.128208
-0.12527
-0.214743
-0.212788
-0.210791
-0.208751
-0.206663
-0.204523
-0.20234
-0.200105
-0.197812
-0.195466
-0.193084
-0.190787
-0.188315
-0.185751
-0.18312
-0.180559
-0.177789
-0.17491
-0.172082
-0.169008
-0.165848
-0.162606
-0.159143
-0.155677
-0.151887
-0.148061
-0.14387
-0.139615
-0.134964
-0.130282
-0.125605
-0.122616
-0.213163
-0.211235
-0.209153
-0.207146
-0.205111
-0.20303
-0.2009
-0.198715
-0.196471
-0.194165
-0.1918
-0.189377
-0.186892
-0.184335
-0.181702
-0.179061
-0.176388
-0.173544
-0.170586
-0.167658
-0.164477
-0.161142
-0.157807
-0.154174
-0.150398
-0.146481
-0.142271
-0.137992
-0.133329
-0.128615
-0.123897
-0.120769
-0.230065
-0.228021
-0.226032
-0.223918
-0.221866
-0.219746
-0.217573
-0.215424
-0.213193
-0.210901
-0.20864
-0.206345
-0.203883
-0.201501
-0.199098
-0.196636
-0.193973
-0.191388
-0.188788
-0.186141
-0.183425
-0.180549
-0.177545
-0.174525
-0.171425
-0.168219
-0.164879
-0.161289
-0.157456
-0.153516
-0.149423
-0.145446
-0.142696
-0.229937
-0.22789
-0.225916
-0.223917
-0.221772
-0.219675
-0.217441
-0.215288
-0.213106
-0.210764
-0.208502
-0.206224
-0.2039
-0.201401
-0.198982
-0.196532
-0.194022
-0.191301
-0.188658
-0.18599
-0.183266
-0.180465
-0.177497
-0.174388
-0.17126
-0.168043
-0.164701
-0.1612
-0.157511
-0.153524
-0.149299
-0.145295
-0.14271
-0.229758
-0.2278
-0.225714
-0.223701
-0.221668
-0.219488
-0.217376
-0.21523
-0.212933
-0.210705
-0.208445
-0.206027
-0.203687
-0.201321
-0.198904
-0.196303
-0.193781
-0.191234
-0.188631
-0.185892
-0.183041
-0.180189
-0.17728
-0.174279
-0.171173
-0.167862
-0.164359
-0.160792
-0.157088
-0.153198
-0.149121
-0.145135
-0.142383
-0.229603
-0.227653
-0.225563
-0.223533
-0.221375
-0.219287
-0.21717
-0.214907
-0.212717
-0.210501
-0.208123
-0.205814
-0.203492
-0.201122
-0.198566
-0.196089
-0.193589
-0.191022
-0.188237
-0.185516
-0.18276
-0.179943
-0.177037
-0.174015
-0.170702
-0.167412
-0.16402
-0.160497
-0.156808
-0.152912
-0.148801
-0.144599
-0.141979
-0.229273
-0.227319
-0.225233
-0.223218
-0.221135
-0.218994
-0.216856
-0.214577
-0.212387
-0.210185
-0.207889
-0.205525
-0.203178
-0.200791
-0.198229
-0.19575
-0.193247
-0.190695
-0.188005
-0.185207
-0.182418
-0.179578
-0.176661
-0.173648
-0.170435
-0.167054
-0.163619
-0.160063
-0.156345
-0.152423
-0.148288
-0.144064
-0.141431
-0.228913
-0.226861
-0.224867
-0.222742
-0.220691
-0.218618
-0.216393
-0.214236
-0.212
-0.209706
-0.207442
-0.205138
-0.202672
-0.200283
-0.197862
-0.195386
-0.192718
-0.190128
-0.18751
-0.184824
-0.181993
-0.179041
-0.176082
-0.173046
-0.169907
-0.166636
-0.163137
-0.159427
-0.155632
-0.151669
-0.147529
-0.143487
-0.140701
-0.228423
-0.226371
-0.224374
-0.222251
-0.220196
-0.21807
-0.215888
-0.213716
-0.211397
-0.209153
-0.206886
-0.204451
-0.202097
-0.199725
-0.197299
-0.194677
-0.19213
-0.189558
-0.186913
-0.184039
-0.181223
-0.178363
-0.175427
-0.172392
-0.16916
-0.165742
-0.162269
-0.158671
-0.154905
-0.150931
-0.146743
-0.142483
-0.139826
-0.227746
-0.225787
-0.223701
-0.221666
-0.219499
-0.21739
-0.215139
-0.212978
-0.210787
-0.208433
-0.206158
-0.203848
-0.20137
-0.198979
-0.196564
-0.194082
-0.191402
-0.188797
-0.186152
-0.183424
-0.180464
-0.177559
-0.174593
-0.171525
-0.168324
-0.164807
-0.1613
-0.157672
-0.153873
-0.149867
-0.145648
-0.141357
-0.138685
-0.226936
-0.224978
-0.222895
-0.220865
-0.218704
-0.216597
-0.214354
-0.212192
-0.210003
-0.207652
-0.205357
-0.202906
-0.200544
-0.198166
-0.19574
-0.19312
-0.190563
-0.187955
-0.185129
-0.18237
-0.17957
-0.176691
-0.173642
-0.170434
-0.167196
-0.163852
-0.160358
-0.156672
-0.15261
-0.148505
-0.144249
-0.140116
-0.137284
-0.226
-0.223924
-0.221925
-0.219802
-0.217736
-0.215537
-0.213401
-0.21112
-0.208927
-0.206703
-0.204312
-0.201978
-0.199482
-0.197086
-0.194668
-0.192128
-0.189502
-0.186889
-0.184202
-0.181293
-0.178446
-0.175534
-0.172515
-0.169219
-0.165949
-0.162568
-0.159015
-0.155103
-0.151159
-0.147043
-0.142756
-0.138588
-0.135734
-0.224675
-0.222729
-0.220654
-0.218641
-0.216501
-0.214416
-0.212202
-0.21004
-0.207737
-0.205496
-0.203107
-0.200778
-0.19828
-0.195878
-0.193432
-0.190803
-0.18824
-0.185624
-0.18279
-0.18001
-0.177155
-0.174056
-0.170999
-0.167845
-0.164553
-0.160953
-0.157352
-0.153595
-0.149613
-0.145233
-0.140836
-0.136607
-0.133727
-0.223262
-0.221225
-0.219254
-0.217149
-0.214988
-0.212916
-0.210711
-0.208561
-0.206257
-0.203887
-0.201629
-0.199286
-0.196878
-0.194466
-0.191886
-0.189362
-0.186647
-0.184021
-0.181322
-0.178402
-0.175529
-0.172556
-0.169331
-0.166119
-0.162783
-0.159137
-0.155481
-0.151652
-0.147429
-0.143155
-0.138736
-0.134458
-0.131549
-0.221481
-0.21949
-0.217437
-0.215332
-0.213181
-0.211123
-0.208923
-0.206668
-0.204502
-0.202185
-0.199931
-0.197521
-0.195027
-0.192627
-0.190042
-0.187533
-0.184824
-0.182205
-0.179515
-0.176593
-0.173692
-0.170549
-0.167413
-0.164002
-0.160624
-0.157096
-0.153227
-0.149342
-0.145254
-0.14075
-0.136239
-0.131904
-0.128963
-0.219341
-0.217369
-0.215349
-0.21329
-0.211182
-0.20903
-0.206892
-0.204754
-0.202506
-0.200188
-0.197872
-0.195555
-0.193131
-0.190769
-0.188218
-0.185588
-0.183034
-0.180282
-0.177577
-0.174654
-0.171756
-0.168616
-0.16548
-0.162072
-0.158653
-0.154929
-0.151172
-0.147062
-0.142922
-0.138557
-0.133826
-0.129402
-0.126397
-0.217615
-0.215702
-0.21375
-0.211758
-0.209722
-0.207639
-0.205507
-0.203327
-0.201093
-0.198803
-0.196459
-0.194057
-0.191664
-0.189273
-0.186751
-0.184196
-0.181613
-0.178878
-0.176097
-0.173253
-0.170247
-0.167239
-0.163967
-0.160585
-0.157095
-0.153419
-0.149591
-0.145537
-0.141314
-0.136931
-0.132165
-0.127578
-0.124581
-0.232127
-0.230132
-0.228124
-0.226033
-0.223884
-0.221762
-0.219624
-0.217446
-0.215098
-0.212823
-0.210545
-0.208249
-0.20592
-0.203553
-0.201067
-0.198493
-0.195942
-0.193374
-0.190776
-0.188131
-0.185427
-0.182651
-0.179781
-0.176737
-0.173534
-0.1703
-0.166969
-0.163502
-0.15987
-0.156049
-0.152043
-0.148115
-0.145386
-0.232109
-0.230062
-0.228037
-0.225991
-0.223861
-0.221676
-0.21952
-0.217352
-0.215152
-0.212859
-0.2105
-0.20817
-0.205823
-0.203443
-0.201031
-0.198564
-0.195978
-0.193301
-0.190649
-0.187972
-0.185247
-0.182457
-0.179591
-0.176635
-0.173578
-0.170398
-0.167001
-0.16339
-0.159692
-0.155829
-0.1518
-0.147896
-0.145347
-0.231961
-0.229985
-0.227928
-0.22582
-0.223732
-0.221619
-0.219416
-0.217151
-0.214917
-0.212678
-0.210411
-0.208108
-0.2057
-0.203219
-0.200769
-0.198302
-0.195804
-0.193258
-0.190659
-0.187984
-0.185161
-0.182217
-0.179271
-0.176268
-0.173177
-0.169987
-0.166671
-0.163204
-0.159569
-0.15574
-0.151716
-0.147765
-0.145025
-0.231783
-0.229766
-0.227689
-0.225632
-0.223552
-0.221388
-0.21916
-0.21696
-0.214755
-0.212522
-0.21024
-0.207783
-0.205404
-0.203014
-0.200596
-0.198138
-0.195637
-0.193071
-0.190364
-0.187551
-0.184747
-0.181898
-0.178986
-0.175994
-0.172905
-0.169711
-0.166395
-0.162929
-0.159289
-0.155439
-0.151373
-0.147215
-0.144611
-0.231493
-0.229504
-0.227371
-0.225308
-0.223224
-0.221099
-0.218816
-0.216612
-0.214406
-0.21218
-0.209921
-0.207548
-0.205107
-0.202694
-0.200263
-0.197801
-0.195289
-0.19272
-0.190009
-0.187182
-0.184366
-0.18151
-0.178589
-0.175585
-0.172486
-0.169277
-0.165943
-0.162464
-0.158807
-0.15494
-0.150856
-0.146679
-0.144066
-0.231027
-0.229027
-0.227014
-0.224964
-0.222764
-0.220637
-0.218491
-0.216304
-0.213948
-0.21167
-0.209389
-0.207082
-0.204732
-0.202326
-0.199731
-0.197217
-0.194689
-0.192129
-0.18952
-0.186845
-0.184098
-0.181261
-0.178259
-0.175115
-0.171947
-0.168694
-0.165324
-0.16181
-0.158126
-0.154242
-0.150158
-0.146153
-0.143378
-0.230534
-0.228534
-0.22652
-0.224425
-0.222272
-0.220145
-0.218
-0.215765
-0.213456
-0.211177
-0.208891
-0.206573
-0.204206
-0.201654
-0.199177
-0.196684
-0.194164
-0.191601
-0.188978
-0.186259
-0.183302
-0.180396
-0.177438
-0.174401
-0.171268
-0.16802
-0.164645
-0.161123
-0.157418
-0.153503
-0.149371
-0.145157
-0.142519
-0.229968
-0.227934
-0.225845
-0.223778
-0.221674
-0.219428
-0.217259
-0.21508
-0.212854
-0.210462
-0.208148
-0.205828
-0.203478
-0.201085
-0.198578
-0.195989
-0.193425
-0.19084
-0.188205
-0.185497
-0.182692
-0.179637
-0.176635
-0.173565
-0.170404
-0.167131
-0.163721
-0.160161
-0.156424
-0.152473
-0.148306
-0.144059
-0.141407
-0.229154
-0.227159
-0.225032
-0.222968
-0.220869
-0.218629
-0.216464
-0.214287
-0.212019
-0.209677
-0.207365
-0.205038
-0.202669
-0.200117
-0.197646
-0.195152
-0.192623
-0.190037
-0.187302
-0.184457
-0.181622
-0.178739
-0.175782
-0.172728
-0.169561
-0.166179
-0.162592
-0.158935
-0.15513
-0.151139
-0.146963
-0.14288
-0.140065
-0.228192
-0.226091
-0.224055
-0.221998
-0.219807
-0.21768
-0.215524
-0.213218
-0.210984
-0.208719
-0.206288
-0.203944
-0.201585
-0.19919
-0.196683
-0.194095
-0.191529
-0.188926
-0.186238
-0.183312
-0.180457
-0.177559
-0.174586
-0.171514
-0.168328
-0.164922
-0.161312
-0.157624
-0.153784
-0.149752
-0.145531
-0.141413
-0.138578
-0.226878
-0.224879
-0.222749
-0.220708
-0.218633
-0.21642
-0.214279
-0.212055
-0.209774
-0.207517
-0.205169
-0.202768
-0.200384
-0.197962
-0.195362
-0.192839
-0.190289
-0.187669
-0.184828
-0.182048
-0.179227
-0.176324
-0.173249
-0.170014
-0.166743
-0.163369
-0.159849
-0.15614
-0.152041
-0.147895
-0.143607
-0.139451
-0.136598
-0.225418
-0.223339
-0.221328
-0.21918
-0.217107
-0.214886
-0.212764
-0.210607
-0.208294
-0.206036
-0.203634
-0.201307
-0.198942
-0.196408
-0.193939
-0.191421
-0.188712
-0.186077
-0.183376
-0.180444
-0.177578
-0.174654
-0.171611
-0.168284
-0.164987
-0.161578
-0.158025
-0.154277
-0.15014
-0.145949
-0.141607
-0.13739
-0.134509
-0.223651
-0.221605
-0.219507
-0.217481
-0.215317
-0.213088
-0.210961
-0.208688
-0.206497
-0.204152
-0.201899
-0.199555
-0.197151
-0.194738
-0.192158
-0.189633
-0.186913
-0.184283
-0.181589
-0.178659
-0.175788
-0.172828
-0.169603
-0.166397
-0.163073
-0.159434
-0.155802
-0.152014
-0.14801
-0.1436
-0.139169
-0.134902
-0.131991
-0.221447
-0.219416
-0.217402
-0.215395
-0.213287
-0.211127
-0.209045
-0.206818
-0.204533
-0.202324
-0.199957
-0.197534
-0.195201
-0.192703
-0.190271
-0.187653
-0.185099
-0.182341
-0.179643
-0.176714
-0.173857
-0.1709
-0.167675
-0.164452
-0.160945
-0.157441
-0.153784
-0.149776
-0.145727
-0.141449
-0.136802
-0.132453
-0.129479
-0.219797
-0.217752
-0.215736
-0.213787
-0.211748
-0.209644
-0.207486
-0.205273
-0.203008
-0.200757
-0.1985
-0.196135
-0.193756
-0.19135
-0.188823
-0.186265
-0.183681
-0.18096
-0.178285
-0.175401
-0.17254
-0.169449
-0.166359
-0.163008
-0.159642
-0.15598
-0.152282
-0.148247
-0.144173
-0.139877
-0.135212
-0.130807
-0.127765
-0.233893
-0.23181
-0.229748
-0.22768
-0.225592
-0.223481
-0.221343
-0.21916
-0.216872
-0.214512
-0.212178
-0.209834
-0.207462
-0.205064
-0.202638
-0.200174
-0.197674
-0.195131
-0.19254
-0.1899
-0.187204
-0.184438
-0.181595
-0.178664
-0.175635
-0.172499
-0.169178
-0.165771
-0.162192
-0.158409
-0.154412
-0.150391
-0.147802
-0.233849
-0.231829
-0.229666
-0.22757
-0.225467
-0.223345
-0.221198
-0.219024
-0.216821
-0.214574
-0.212284
-0.209891
-0.207423
-0.204981
-0.202527
-0.200045
-0.197527
-0.194968
-0.192366
-0.189714
-0.187003
-0.184227
-0.181375
-0.178439
-0.175404
-0.172265
-0.168997
-0.165583
-0.161999
-0.15822
-0.154243
-0.150331
-0.147602
-0.233659
-0.231655
-0.229621
-0.227557
-0.225452
-0.223252
-0.220988
-0.218749
-0.216508
-0.21425
-0.211968
-0.209657
-0.207308
-0.204923
-0.202499
-0.200036
-0.197527
-0.19497
-0.192361
-0.189695
-0.186908
-0.184103
-0.18122
-0.178238
-0.175074
-0.171987
-0.168704
-0.16515
-0.16152
-0.157821
-0.153743
-0.149828
-0.147284
-0.233517
-0.231524
-0.229487
-0.227356
-0.225164
-0.222993
-0.22081
-0.218613
-0.216394
-0.214149
-0.211875
-0.209562
-0.207212
-0.204817
-0.202306
-0.199704
-0.197117
-0.194506
-0.191854
-0.189149
-0.18639
-0.183568
-0.180674
-0.177696
-0.174623
-0.171446
-0.168146
-0.164699
-0.161085
-0.157279
-0.153287
-0.149403
-0.146868
-0.233222
-0.231212
-0.229173
-0.227081
-0.224834
-0.222657
-0.220474
-0.218277
-0.216058
-0.213811
-0.211535
-0.209229
-0.20688
-0.204489
-0.202048
-0.199484
-0.196827
-0.194184
-0.191511
-0.18879
-0.186017
-0.183181
-0.180274
-0.177284
-0.174202
-0.171013
-0.1677
-0.164243
-0.160616
-0.156792
-0.152781
-0.148881
-0.146337
-0.232864
-0.230771
-0.228703
-0.226626
-0.224525
-0.222399
-0.220244
-0.218043
-0.215738
-0.213368
-0.211026
-0.208673
-0.206299
-0.203898
-0.201462
-0.198984
-0.196465
-0.193902
-0.191279
-0.188599
-0.185851
-0.183024
-0.180123
-0.177131
-0.173985
-0.170786
-0.16746
-0.163984
-0.160328
-0.156447
-0.152255
-0.148258
-0.14568
-0.232361
-0.230271
-0.228205
-0.22613
-0.22403
-0.221907
-0.219742
-0.217474
-0.215131
-0.212811
-0.210482
-0.208134
-0.20576
-0.203352
-0.200913
-0.198439
-0.19592
-0.19335
-0.190721
-0.187966
-0.185169
-0.182191
-0.179206
-0.176159
-0.173028
-0.169795
-0.166436
-0.162934
-0.159262
-0.155393
-0.151338
-0.147397
-0.144827
-0.23169
-0.229681
-0.227643
-0.225511
-0.223322
-0.22116
-0.218992
-0.216799
-0.214568
-0.212274
-0.209811
-0.207428
-0.205039
-0.202627
-0.200183
-0.197697
-0.195172
-0.192595
-0.189959
-0.187256
-0.184482
-0.181558
-0.178585
-0.175415
-0.17224
-0.16907
-0.165588
-0.162014
-0.158289
-0.154379
-0.150288
-0.146318
-0.143735
-0.230878
-0.228867
-0.226824
-0.224697
-0.222509
-0.220349
-0.218183
-0.215986
-0.213743
-0.211323
-0.208979
-0.206624
-0.204246
-0.201837
-0.199395
-0.196913
-0.194371
-0.191698
-0.188914
-0.186137
-0.183328
-0.180463
-0.177525
-0.174496
-0.171366
-0.16812
-0.164732
-0.161193
-0.15747
-0.153534
-0.149381
-0.145152
-0.1425
-0.229924
-0.227893
-0.225728
-0.223636
-0.221534
-0.219407
-0.217186
-0.214898
-0.212639
-0.210371
-0.208072
-0.205726
-0.203198
-0.200754
-0.198299
-0.19581
-0.193271
-0.190672
-0.187977
-0.185052
-0.182196
-0.179302
-0.176341
-0.173296
-0.170146
-0.166878
-0.163471
-0.159907
-0.156148
-0.152088
-0.147778
-0.143672
-0.141022
-0.228742
-0.226631
-0.224577
-0.222498
-0.22028
-0.218137
-0.215984
-0.213782
-0.211419
-0.209136
-0.206839
-0.20449
-0.201966
-0.199525
-0.197072
-0.194582
-0.192041
-0.189372
-0.186592
-0.183821
-0.181006
-0.178124
-0.175147
-0.17204
-0.168632
-0.165246
-0.161759
-0.158131
-0.154328
-0.150323
-0.14612
-0.14201
-0.139176
-0.227195
-0.225176
-0.223032
-0.220973
-0.218883
-0.21665
-0.214495
-0.212309
-0.20996
-0.207688
-0.205385
-0.202918
-0.200531
-0.198121
-0.19566
-0.193009
-0.190434
-0.187834
-0.185164
-0.182348
-0.17942
-0.176493
-0.173497
-0.170388
-0.167075
-0.163576
-0.160019
-0.156328
-0.152463
-0.148394
-0.144119
-0.139785
-0.137066
-0.225342
-0.223263
-0.221255
-0.21911
-0.217037
-0.214815
-0.212694
-0.210539
-0.208229
-0.205974
-0.203568
-0.201248
-0.198889
-0.19636
-0.193898
-0.191385
-0.188684
-0.186053
-0.183359
-0.180437
-0.177583
-0.174669
-0.171636
-0.168328
-0.165045
-0.161643
-0.158075
-0.154153
-0.150192
-0.146052
-0.141736
-0.137458
-0.134636
-0.223229
-0.22121
-0.219143
-0.21715
-0.215023
-0.212834
-0.210737
-0.208499
-0.206324
-0.203994
-0.201646
-0.19931
-0.19699
-0.194502
-0.19206
-0.189445
-0.18688
-0.18412
-0.181419
-0.178543
-0.175636
-0.172703
-0.169497
-0.166331
-0.163044
-0.159441
-0.155844
-0.152093
-0.14813
-0.143768
-0.139369
-0.135099
-0.132157
-0.221403
-0.219468
-0.217463
-0.215495
-0.213434
-0.211307
-0.209128
-0.206957
-0.204776
-0.202494
-0.200156
-0.19789
-0.195466
-0.193016
-0.190549
-0.187961
-0.185433
-0.182717
-0.18005
-0.177166
-0.174323
-0.171247
-0.168213
-0.165065
-0.161629
-0.158165
-0.154386
-0.150588
-0.146598
-0.142209
-0.137761
-0.133268
-0.130405
-0.237249
-0.235275
-0.233264
-0.231226
-0.22916
-0.227065
-0.224944
-0.222791
-0.2206
-0.21833
-0.216067
-0.213766
-0.211413
-0.208942
-0.206515