/*--------------------------------*- C++ -*----------------------------------*\
| =========                 |                                                 |
| \\      /  F ield         | OpenFOAM: The Open Source CFD Toolbox           |
|  \\    /   O peration     | Version:  2412                                  |
|   \\  /    A nd           | Website:  www.openfoam.com                      |
|    \\/     M anipulation  |                                                 |
\*---------------------------------------------------------------------------*/
FoamFile
{
    version     2.0;
    format      ascii;
    arch        "LSB;label=32;scalar=64";
    class       volScalarField;
    location    "0.0400007";
    object      Vm;
}
// * * * * * * * * * * * * * * * * * * * * * * * * * * * * * * * * * * * * * //

dimensions      [0 0 0 0 0 0 0];

internalField   nonuniform List<scalar> 
8670
(
1.11055
1.10752
1.1045
1.1015
1.09854
1.09563
1.09279
1.09003
1.08739
1.08488
1.08256
1.08044
1.07859
1.07707
1.07594
1.07523
1.075
1.07535
1.07631
1.07796
1.08044
1.08378
1.08812
1.09347
1.09995
1.10752
1.11624
1.12581
1.1361
1.14626
1.15545
1.16139
1.11045
1.10742
1.10439
1.10137
1.0984
1.09548
1.09263
1.08988
1.08724
1.08475
1.08243
1.08033
1.0785
1.07701
1.07588
1.07516
1.07493
1.0753
1.07628
1.07798
1.08046
1.08381
1.08817
1.09354
1.10006
1.10767
1.11643
1.12609
1.1365
1.14691
1.15597
1.16187
1.11021
1.10719
1.10418
1.10117
1.09819
1.09524
1.09237
1.08961
1.08699
1.08453
1.08226
1.0802
1.07839
1.0769
1.07578
1.07511
1.07493
1.07531
1.07635
1.07809
1.08061
1.08407
1.08847
1.09397
1.10052
1.10828
1.11709
1.12699
1.13754
1.14796
1.15736
1.16344
1.10984
1.10682
1.1038
1.10079
1.09781
1.09489
1.09204
1.08929
1.08668
1.08422
1.08197
1.07997
1.07822
1.07678
1.0757
1.07507
1.07497
1.07541
1.07649
1.07835
1.081
1.08458
1.0891
1.09472
1.10141
1.10929
1.11822
1.1282
1.1387
1.14929
1.15853
1.16455
1.10934
1.10633
1.10332
1.10033
1.09735
1.09444
1.09161
1.08889
1.0863
1.08389
1.08169
1.07971
1.07801
1.07662
1.0756
1.07503
1.075
1.07553
1.07671
1.07868
1.08145
1.08516
1.08982
1.0956
1.10246
1.11052
1.11964
1.12983
1.14053
1.15134
1.16077
1.16693
1.10867
1.10565
1.10265
1.09968
1.09676
1.09391
1.09113
1.08846
1.08591
1.08353
1.08136
1.07941
1.07774
1.07641
1.0755
1.07504
1.07508
1.07573
1.07708
1.07917
1.0821
1.08591
1.0907
1.09665
1.1037
1.112
1.12139
1.13193
1.14314
1.15421
1.1642
1.17067
1.10782
1.10482
1.10185
1.09891
1.09603
1.09321
1.09048
1.08785
1.08536
1.08303
1.0809
1.07902
1.07743
1.07619
1.07536
1.07504
1.07524
1.07604
1.07756
1.07982
1.08293
1.08703
1.09212
1.09836
1.1057
1.1143
1.12398
1.13477
1.14609
1.15752
1.16753
1.17407
1.10675
1.1038
1.10086
1.09794
1.09508
1.09229
1.0896
1.08702
1.08459
1.08234
1.0803
1.07851
1.07703
1.0759
1.0752
1.07504
1.07541
1.0764
1.07814
1.08064
1.084
1.08837
1.09376
1.10032
1.10802
1.11697
1.12702
1.1382
1.1499
1.1617
1.17202
1.17877
1.10549
1.10255
1.09963
1.09675
1.09394
1.09121
1.08858
1.08607
1.08371
1.08157
1.07965
1.078
1.07668
1.07572
1.0752
1.0752
1.07579
1.07703
1.07898
1.08178
1.08545
1.09011
1.09589
1.10277
1.11088
1.12015
1.13061
1.14229
1.15463
1.1667
1.17732
1.18433
1.10396
1.10105
1.09818
1.09535
1.09259
1.08993
1.08737
1.08495
1.08271
1.08068
1.0789
1.07741
1.07625
1.07548
1.07517
1.07539
1.07625
1.07776
1.08
1.08309
1.08718
1.09225
1.09847
1.10578
1.1143
1.12418
1.13522
1.14746
1.16026
1.17314
1.18438
1.19177
1.10212
1.09926
1.09645
1.09369
1.09101
1.08842
1.08596
1.08366
1.08156
1.07968
1.07806
1.07675
1.07581
1.07528
1.07522
1.07571
1.07684
1.0787
1.08139
1.08493
1.08943
1.09504
1.10171
1.10956
1.11879
1.12925
1.14108
1.15386
1.16746
1.18077
1.19252
1.20029
1.09991
1.0971
1.09436
1.09168
1.0891
1.08663
1.08429
1.0821
1.08014
1.07843
1.07701
1.07594
1.07526
1.07503
1.0753
1.07616
1.07771
1.08005
1.08318
1.08721
1.09226
1.09844
1.10572
1.11423
1.12414
1.13524
1.14762
1.16124
1.17545
1.1898
1.2024
1.21074
1.09735
1.09463
1.09197
1.08939
1.08692
1.08457
1.08237
1.08035
1.07856
1.07706
1.07589
1.0751
1.07473
1.07485
1.07552
1.07681
1.07881
1.08161
1.08533
1.08996
1.09559
1.10231
1.11026
1.11958
1.13014
1.14204
1.15536
1.16959
1.18452
1.19969
1.21306
1.22194
1.09479
1.09215
1.08959
1.08712
1.08477
1.08255
1.0805
1.07866
1.07709
1.07583
1.07489
1.07433
1.07425
1.07471
1.07578
1.07751
1.07997
1.08324
1.08742
1.09261
1.09895
1.10637
1.11498
1.12491
1.13623
1.14904
1.16294
1.17784
1.19351
1.20945
1.22354
1.23289
1.09294
1.09036
1.08785
1.08548
1.08323
1.08113
1.07921
1.07752
1.07608
1.07497
1.07421
1.07385
1.074
1.07473
1.07609
1.07815
1.08095
1.0846
1.08915
1.0947
1.10132
1.10908
1.1181
1.12844
1.14017
1.15337
1.16802
1.1835
1.19957
1.21559
1.23021
1.23931
1.11686
1.11366
1.11045
1.10723
1.10401
1.10083
1.0977
1.09465
1.09167
1.08881
1.0861
1.08356
1.08126
1.07922
1.07751
1.07617
1.07527
1.07485
1.07502
1.0758
1.07733
1.07966
1.08292
1.08716
1.09238
1.0987
1.10605
1.11416
1.12295
1.13175
1.13937
1.14433
1.11675
1.11354
1.11032
1.10709
1.10388
1.10071
1.09759
1.09451
1.09153
1.08868
1.08596
1.08342
1.08112
1.0791
1.0774
1.07606
1.07517
1.07477
1.07495
1.07576
1.07735
1.07975
1.08301
1.08729
1.09259
1.09891
1.1063
1.11457
1.12331
1.13214
1.1399
1.14517
1.11654
1.11334
1.11012
1.1069
1.10369
1.1005
1.09736
1.0943
1.09134
1.08849
1.0858
1.08328
1.08099
1.07899
1.07729
1.076
1.07512
1.07477
1.07497
1.07587
1.0775
1.07992
1.08325
1.08754
1.09292
1.09936
1.10676
1.11515
1.12412
1.13298
1.14096
1.14612
1.11612
1.11293
1.10973
1.10653
1.10332
1.10015
1.09701
1.09395
1.09102
1.08819
1.08551
1.08305
1.08081
1.07885
1.0772
1.07594
1.07513
1.07482
1.07509
1.07604
1.0777
1.08021
1.08359
1.08803
1.09352
1.10002
1.10763
1.11617
1.12519
1.13436
1.14255
1.1478
1.11561
1.11243
1.10923
1.10603
1.10284
1.09967
1.09654
1.0935
1.09058
1.08778
1.08514
1.08271
1.08051
1.07861
1.07702
1.07583
1.07508
1.07486
1.07521
1.07625
1.07801
1.08063
1.08415
1.08873
1.09437
1.10104
1.10885
1.1176
1.12684
1.13624
1.14462
1.15
1.11494
1.11175
1.10854
1.10534
1.10216
1.09901
1.09594
1.09295
1.09005
1.08729
1.0847
1.08229
1.08015
1.07829
1.07677
1.07564
1.07497
1.07487
1.07537
1.07654
1.07848
1.08124
1.08495
1.08966
1.09551
1.10248
1.11047
1.11952
1.12925
1.13894
1.14737
1.15283
1.11405
1.11088
1.10769
1.10451
1.10135
1.09824
1.0952
1.09224
1.08937
1.08664
1.08409
1.08174
1.07964
1.07786
1.07643
1.07543
1.07489
1.07492
1.07556
1.07691
1.07903
1.08206
1.08605
1.09102
1.09711
1.10427
1.11262
1.12196
1.1318
1.14182
1.15079
1.15655
1.11293
1.10976
1.10659
1.10344
1.10034
1.09727
1.09427
1.09134
1.08852
1.08586
1.08338
1.08111
1.07912
1.07742
1.07609
1.07522
1.07483
1.07503
1.07586
1.07746
1.07986
1.08313
1.08738
1.09264
1.09904
1.10655
1.11528
1.12499
1.13523
1.14565
1.155
1.16102
1.11163
1.10848
1.10533
1.10221
1.09912
1.0961
1.09315
1.09028
1.08752
1.08493
1.08256
1.0804
1.07852
1.07699
1.07583
1.07514
1.07493
1.07531
1.0764
1.07826
1.08092
1.08452
1.08907
1.09474
1.10152
1.10955
1.11873
1.12881
1.13962
1.1503
1.15998
1.16623
1.11007
1.10695
1.10385
1.10077
1.09773
1.09474
1.09182
1.08901
1.08635
1.08388
1.08162
1.07959
1.07788
1.0765
1.07553
1.07505
1.07509
1.07575
1.07709
1.07919
1.08222
1.08622
1.09121
1.09733
1.10458
1.11309
1.12272
1.13351
1.14501
1.15634
1.1666
1.17324
1.10809
1.10502
1.10197
1.09894
1.09596
1.09305
1.09022
1.08751
1.08497
1.08263
1.08051
1.07865
1.0771
1.07595
1.07521
1.07497
1.07532
1.0763
1.07803
1.08052
1.08391
1.08837
1.09391
1.10056
1.10846
1.11754
1.1279
1.13924
1.15143
1.16361
1.17424
1.1812
1.10574
1.10272
1.09972
1.09677
1.09387
1.09105
1.08833
1.08574
1.08332
1.08112
1.07918
1.07755
1.07625
1.07533
1.07488
1.07498
1.07567
1.07703
1.0792
1.08219
1.08614
1.09107
1.09709
1.10442
1.11304
1.12284
1.13395
1.14603
1.15896
1.17174
1.18336
1.19092
1.10303
1.10006
1.09713
1.09424
1.0914
1.08867
1.08607
1.08364
1.08141
1.07944
1.07774
1.07635
1.07531
1.07471
1.0746
1.0751
1.07619
1.07799
1.08061
1.08416
1.08866
1.09425
1.10092
1.10882
1.11811
1.12865
1.14055
1.15343
1.1672
1.18083
1.19327
1.20138
1.10024
1.09734
1.0945
1.09172
1.08902
1.08643
1.08394
1.08165
1.07958
1.07776
1.07625
1.07508
1.07433
1.07407
1.07437
1.07525
1.07677
1.07903
1.08214
1.08622
1.09126
1.09737
1.1047
1.11339
1.12335
1.13474
1.14724
1.16084
1.17539
1.18981
1.20299
1.21161
1.09826
1.09542
1.09263
1.08992
1.08732
1.08481
1.08247
1.08032
1.07838
1.07667
1.0753
1.0743
1.07374
1.07368
1.07421
1.0754
1.07726
1.07985
1.08328
1.08765
1.09304
1.09959
1.10745
1.11652
1.12693
1.13885
1.15189
1.16601
1.18105
1.19577
1.20885
1.21752
1.12222
1.11889
1.11554
1.11216
1.10877
1.10541
1.10207
1.09879
1.09557
1.09246
1.08946
1.08662
1.08396
1.08152
1.07938
1.07757
1.07612
1.07514
1.07468
1.07479
1.07559
1.07715
1.07953
1.08276
1.087
1.09223
1.09838
1.10525
1.11276
1.12038
1.12716
1.13148
1.12211
1.11878
1.11542
1.11205
1.10868
1.10532
1.102
1.09871
1.0955
1.09237
1.08937
1.08651
1.08386
1.08146
1.07931
1.07751
1.07608
1.0751
1.07466
1.07481
1.07561
1.07719
1.0796
1.08291
1.08713
1.09239
1.09862
1.10564
1.11309
1.12068
1.12747
1.13183
1.12187
1.11854
1.11518
1.11182
1.10845
1.1051
1.10178
1.09851
1.09529
1.09218
1.08918
1.08634
1.08368
1.08128
1.07917
1.07737
1.07598
1.07505
1.07462
1.07482
1.0757
1.07732
1.07976
1.08314
1.0875
1.09282
1.09904
1.10618
1.11391
1.12164
1.12838
1.13295
1.12151
1.11819
1.11483
1.11147
1.10809
1.10473
1.10141
1.09814
1.09496
1.09187
1.08891
1.0861
1.08347
1.08109
1.07898
1.07723
1.07588
1.07497
1.07462
1.07489
1.07584
1.07751
1.08006
1.08355
1.08799
1.0934
1.09985
1.1072
1.1151
1.12295
1.12973
1.13412
1.12098
1.11766
1.11431
1.11096
1.1076
1.10426
1.10095
1.0977
1.09453
1.09145
1.08851
1.08574
1.08315
1.08082
1.07878
1.07707
1.07578
1.07493
1.07465
1.07501
1.07605
1.07783
1.0805
1.08413
1.08872
1.09429
1.10092
1.10847
1.11659
1.12466
1.13162
1.13612
1.12029
1.11697
1.11363
1.11027
1.10693
1.10358
1.10027
1.09704
1.09388
1.09086
1.08796
1.08523
1.0827
1.08041
1.07845
1.07683
1.07561
1.0749
1.07473
1.07517
1.07633
1.07828
1.08107
1.08486
1.08968
1.09551
1.10228
1.11004
1.11845
1.1269
1.13438
1.13916
1.1194
1.11607
1.11274
1.10939
1.10604
1.10273
1.09946
1.09626
1.09313
1.09013
1.08726
1.08458
1.08212
1.07992
1.07803
1.07649
1.0754
1.0748
1.07475
1.07536
1.07671
1.07883
1.08188
1.08592
1.09097
1.097
1.10415
1.11223
1.12087
1.12937
1.13702
1.14194
1.11829
1.11498
1.11164
1.10831
1.105
1.10172
1.09849
1.09532
1.09224
1.08928
1.08648
1.08385
1.08146
1.07934
1.07756
1.07616
1.07519
1.07474
1.07486
1.07568
1.07726
1.07966
1.08294
1.08724
1.09259
1.09895
1.10647
1.11494
1.12398
1.13288
1.14091
1.14607
1.11695
1.11366
1.11035
1.10703
1.10375
1.10048
1.09727
1.09414
1.09111
1.08822
1.08548
1.08296
1.08067
1.07869
1.07706
1.0758
1.07502
1.07474
1.07511
1.07617
1.07797
1.08066
1.08429
1.08889
1.09465
1.10155
1.10952
1.11834
1.12793
1.1376
1.14624
1.15179
1.11534
1.11205
1.10877
1.1055
1.10224
1.09903
1.09587
1.09279
1.08985
1.08704
1.08442
1.082
1.07985
1.078
1.07653
1.07547
1.07491
1.07491
1.07552
1.07686
1.07898
1.08202
1.08604
1.09106
1.09726
1.10462
1.11302
1.12253
1.13277
1.14304
1.15205
1.15817
1.1133
1.11006
1.10682
1.10357
1.10037
1.09723
1.09414
1.09115
1.08831
1.08561
1.08312
1.08084
1.07884
1.0772
1.07595
1.07514
1.07485
1.07512
1.07608
1.07777
1.08032
1.08381
1.08826
1.09383
1.10051
1.10849
1.11767
1.12785
1.13859
1.14951
1.15927
1.16557
1.11089
1.10768
1.10447
1.10128
1.09815
1.09509
1.0921
1.0892
1.08646
1.08392
1.08158
1.07951
1.07772
1.07627
1.07527
1.07473
1.07477
1.07542
1.07681
1.079
1.08201
1.086
1.09099
1.09716
1.10448
1.11313
1.123
1.13378
1.14539
1.157
1.16711
1.17369
1.10803
1.10488
1.10174
1.09863
1.09557
1.0926
1.08975
1.08701
1.08442
1.08204
1.07991
1.07804
1.0765
1.07536
1.07464
1.07444
1.07485
1.07591
1.07775
1.08038
1.08395
1.08848
1.09415
1.10094
1.10904
1.11836
1.12904
1.14078
1.15306
1.16544
1.17626
1.18335
1.10511
1.10204
1.09899
1.09599
1.09304
1.09018
1.08743
1.08481
1.08237
1.08015
1.07819
1.07657
1.07529
1.07441
1.07402
1.07421
1.07499
1.07646
1.07874
1.08185
1.08591
1.09105
1.09731
1.10485
1.1136
1.12375
1.13505
1.14755
1.16064
1.17384
1.1854
1.19301
1.10306
1.10003
1.09703
1.0941
1.09124
1.08848
1.08584
1.08334
1.08102
1.07892
1.0771
1.07559
1.07446
1.07377
1.07358
1.074
1.07508
1.07686
1.07944
1.08294
1.08738
1.09289
1.09963
1.10753
1.11674
1.12739
1.13923
1.15233
1.16601
1.17979
1.19184
1.19979
1.13007
1.1267
1.12328
1.11983
1.11636
1.11288
1.10939
1.10592
1.10248
1.09908
1.09577
1.09256
1.08946
1.08653
1.08382
1.08133
1.07912
1.07729
1.07588
1.07496
1.07457
1.07477
1.07563
1.07728
1.07978
1.08319
1.0875
1.09264
1.09847
1.10488
1.11139
1.11718
1.12087
1.12993
1.12656
1.12315
1.11972
1.11624
1.11276
1.10926
1.10579
1.10236
1.09896
1.09565
1.09245
1.08937
1.08644
1.08373
1.08127
1.07909
1.07723
1.07582
1.07489
1.07452
1.07475
1.07566
1.07731
1.07983
1.08327
1.08764
1.09289
1.0989
1.10538
1.11184
1.11771
1.12166
1.1297
1.12632
1.1229
1.11946
1.11601
1.11252
1.10905
1.10559
1.10215
1.09877
1.09546
1.09225
1.08918
1.08628
1.08358
1.08111
1.07896
1.07717
1.07579
1.07487
1.07448
1.07474
1.07571
1.07746
1.08005
1.08352
1.08787
1.09318
1.09931
1.10599
1.1127
1.11866
1.12247
1.12936
1.12599
1.12256
1.11911
1.11564
1.11216
1.10869
1.10522
1.1018
1.09843
1.09513
1.09195
1.0889
1.08602
1.08333
1.0809
1.07879
1.07702
1.07564
1.07476
1.07446
1.0748
1.07585
1.07767
1.08029
1.08387
1.08842
1.09392
1.10023
1.10705
1.11385
1.11974
1.12375
1.12883
1.12546
1.12204
1.1186
1.11514
1.11166
1.10819
1.10472
1.10132
1.09797
1.09471
1.09154
1.08851
1.08566
1.083
1.08062
1.07856
1.07686
1.07556
1.07474
1.07452
1.07495
1.07611
1.07806
1.08085
1.08454
1.08923
1.09488
1.10136
1.10837
1.11536
1.12143
1.12554
1.12814
1.12476
1.12134
1.1179
1.11444
1.11099
1.10752
1.10408
1.10068
1.09733
1.09409
1.09096
1.08795
1.08514
1.08256
1.08024
1.07821
1.07659
1.07541
1.07473
1.07461
1.07512
1.0764
1.0785
1.0815
1.08544
1.09032
1.09608
1.10275
1.11001
1.11732
1.1238
1.12793
1.12727
1.12389
1.12048
1.11703
1.11358
1.11012
1.10667
1.10324
1.09985
1.09653
1.09331
1.0902
1.08726
1.08451
1.08199
1.07972
1.0778
1.07628
1.0752
1.0746
1.07461
1.07532
1.0768
1.07911
1.0823
1.08641
1.09157
1.09774
1.10478
1.11236
1.11993
1.12653
1.131
1.12618
1.1228
1.11938
1.11595
1.11249
1.10903
1.10559
1.10219
1.09885
1.09556
1.09238
1.08933
1.08644
1.08376
1.08133
1.07919
1.07736
1.07595
1.07502
1.07461
1.07478
1.07568
1.07737
1.07992
1.08338
1.08777
1.09325
1.09978
1.10719
1.11517
1.12314
1.13009
1.1348
1.12481
1.12144
1.11803
1.11461
1.11117
1.10774
1.10432
1.10095
1.09765
1.09441
1.09128
1.08828
1.08547
1.0829
1.08058
1.07854
1.07687
1.07561
1.07482
1.07461
1.07506
1.07623
1.07819
1.081
1.08481
1.08966
1.09557
1.10247
1.11016
1.11858
1.1271
1.13467
1.13951
1.12313
1.11975
1.11636
1.11295
1.10954
1.10614
1.10277
1.09944
1.09619
1.09303
1.08997
1.08707
1.08435
1.08189
1.07971
1.07784
1.07635
1.0753
1.07476
1.07478
1.07549
1.07696
1.07926
1.08243
1.08664
1.09192
1.09827
1.1056
1.11395
1.12301
1.13215
1.14029
1.1455
1.12101
1.11767
1.11431
1.11095
1.10758
1.10424
1.10092
1.09767
1.09448
1.0914
1.08844
1.08566
1.08307
1.08075
1.07873
1.07704
1.07578
1.07498
1.0747
1.07505
1.07611
1.07791
1.08062
1.0843
1.089
1.09473
1.10167
1.10973
1.11872
1.12825
1.13796
1.14665
1.15222
1.11851
1.1152
1.11187
1.10854
1.10521
1.10193
1.09868
1.09551
1.09241
1.08942
1.08661
1.08399
1.08158
1.07945
1.07761
1.07617
1.07515
1.07466
1.07475
1.07546
1.07693
1.07922
1.08238
1.08656
1.09183
1.09818
1.10578
1.11452
1.12415
1.1346
1.14518
1.15463
1.16068
1.11557
1.11231
1.10903
1.10574
1.10247
1.09926
1.09609
1.09301
1.09005
1.08721
1.08455
1.08208
1.07985
1.07794
1.07636
1.0752
1.0745
1.07437
1.07486
1.076
1.07793
1.08068
1.0844
1.08912
1.09504
1.10215
1.11042
1.11997
1.13057
1.14172
1.15308
1.16328
1.16984
1.1125
1.10928
1.10607
1.10286
1.09967
1.09654
1.09348
1.09052
1.08766
1.08495
1.08243
1.08016
1.07815
1.07648
1.07516
1.07428
1.07392
1.07413
1.075
1.07658
1.07899
1.08227
1.08657
1.09191
1.09846
1.10618
1.11524
1.12546
1.13691
1.14907
1.16105
1.17191
1.17896
1.1103
1.10714
1.10399
1.10086
1.09776
1.09471
1.09173
1.08883
1.08606
1.08344
1.08102
1.07884
1.07696
1.07544
1.07431
1.07363
1.0735
1.07395
1.07507
1.07697
1.07969
1.08336
1.08799
1.09371
1.10069
1.10888
1.11846
1.12922
1.14124
1.15398
1.16642
1.17754
1.1852
1.13377
1.13035
1.12689
1.12338
1.11984
1.11629
1.11273
1.10917
1.10559
1.10207
1.09863
1.09527
1.09202
1.08891
1.08596
1.08321
1.08074
1.0786
1.07685
1.07555
1.07474
1.07449
1.07487
1.07592
1.07771
1.08035
1.08387
1.08822
1.0933
1.09887
1.1045
1.10949
1.11267
1.13367
1.13024
1.12677
1.12327
1.11973
1.11617
1.11261
1.10905
1.10552
1.102
1.09854
1.09518
1.09193
1.08882
1.08589
1.08318
1.08071
1.07854
1.07677
1.07545
1.07464
1.07441
1.07482
1.07594
1.07784
1.08056
1.0841
1.08841
1.09349
1.09909
1.10479
1.10992
1.11335
1.13344
1.13002
1.12655
1.12304
1.11951
1.11595
1.11238
1.1088
1.10526
1.10177
1.09834
1.09499
1.09173
1.08861
1.08569
1.083
1.08058
1.07848
1.07675
1.07544
1.07461
1.07433
1.07474
1.07588
1.07783
1.08064
1.08431
1.08883
1.09409
1.09985
1.10566
1.11081
1.1141
1.13309
1.12967
1.1262
1.12269
1.11916
1.11559
1.11202
1.10846
1.10494
1.10146
1.09803
1.09466
1.09142
1.08834
1.08545
1.08279
1.08039
1.0783
1.07656
1.07524
1.07446
1.07428
1.07477
1.07601
1.07807
1.08099
1.08481
1.08949
1.09491
1.1008
1.10669
1.1118
1.11529
1.13259
1.12916
1.12568
1.12217
1.11864
1.11508
1.1115
1.10795
1.10443
1.10097
1.09757
1.09423
1.09101
1.08795
1.08509
1.08246
1.0801
1.07806
1.07638
1.07513
1.07442
1.07433
1.07492
1.07627
1.07845
1.08151
1.08547
1.09032
1.09591
1.10198
1.10805
1.11332
1.11691
1.13189
1.12846
1.125
1.1215
1.11795
1.11441
1.11086
1.10731
1.10377
1.1003
1.09691
1.09361
1.09044
1.08741
1.08456
1.08197
1.07967
1.07773
1.07619
1.0751
1.07454
1.07457
1.07526
1.07669
1.07898
1.08219
1.08633
1.09137
1.09718
1.1035
1.10985
1.11547
1.11906
1.13103
1.12759
1.12413
1.12062
1.11709
1.11355
1.11001
1.10647
1.10295
1.0995
1.09613
1.09286
1.08972
1.08673
1.08395
1.08143
1.07923
1.07738
1.07593
1.07492
1.07442
1.07457
1.07544
1.0771
1.07964
1.08311
1.08753
1.09287
1.099
1.10564
1.11227
1.11804
1.12196
1.12994
1.12651
1.12303
1.11952
1.116
1.11245
1.10892
1.10541
1.10193
1.09849
1.09515
1.09193
1.08886
1.08596
1.08326
1.08081
1.07869
1.07694
1.07562
1.07478
1.07448
1.07479
1.07586
1.07775
1.08055
1.08429
1.08901
1.09468
1.10117
1.10819
1.11521
1.12132
1.12547
1.12857
1.12513
1.12165
1.11816
1.11465
1.11112
1.10761
1.10413
1.10068
1.09729
1.094
1.09084
1.08783
1.08498
1.08239
1.08007
1.07809
1.07648
1.07529
1.0746
1.07453
1.07515
1.07653
1.07875
1.08188
1.08593
1.09091
1.09692
1.10381
1.11129
1.11882
1.12548
1.12974
1.12686
1.12342
1.11996
1.11648
1.11298
1.10949
1.10602
1.10256
1.09916
1.09584
1.0926
1.08952
1.0866
1.08389
1.08142
1.07923
1.0774
1.07597
1.07499
1.07452
1.0747
1.07562
1.07734
1.07992
1.08344
1.08792
1.09337
1.09988
1.10731
1.11536
1.12348
1.13069
1.13529
1.12472
1.12131
1.11786
1.11441
1.11096
1.10751
1.10409
1.1007
1.09737
1.09413
1.09099
1.088
1.0852
1.08261
1.08028
1.07827
1.07665
1.07545
1.07471
1.07457
1.07511
1.07638
1.07844
1.08138
1.08532
1.09034
1.09644
1.10354
1.11145
1.12008
1.12881
1.13659
1.14156
1.12218
1.11878
1.11537
1.11195
1.10853
1.10512
1.10177
1.09847
1.09522
1.09207
1.08905
1.0862
1.08356
1.08113
1.07901
1.07722
1.07581
1.07489
1.0745
1.07468
1.07559
1.07728
1.07981
1.08324
1.08775
1.09338
1.10015
1.10798
1.11664
1.12606
1.13561
1.14412
1.14957
1.11921
1.11586
1.11249
1.10912
1.10574
1.10239
1.0991
1.09587
1.09273
1.08971
1.08684
1.08416
1.08169
1.07948
1.07757
1.07604
1.07492
1.07433
1.07431
1.0749
1.07625
1.07841
1.08143
1.08548
1.0906
1.09682
1.10428
1.11292
1.12252
1.13267
1.143
1.15226
1.1582
1.11607
1.11276
1.10945
1.10616
1.10287
1.09961
1.09642
1.09329
1.09025
1.08736
1.08461
1.08207
1.07978
1.07778
1.07613
1.07486
1.07406
1.07378
1.07412
1.07513
1.07695
1.07962
1.08318
1.0878
1.0935
1.10045
1.10865
1.11793
1.12837
1.13948
1.15044
1.16037
1.16677
1.11383
1.11057
1.10731
1.10408
1.10087
1.09768
1.09454
1.09147
1.08851
1.0857
1.08307
1.08065
1.07849
1.07664
1.07514
1.07406
1.07348
1.07344
1.07406
1.07536
1.07749
1.08046
1.08443
1.08942
1.0956
1.10293
1.11157
1.12137
1.13238
1.14409
1.15561
1.16606
1.17285
1.13678
1.13332
1.12982
1.1263
1.12274
1.11916
1.11556
1.11195
1.10832
1.1047
1.10113
1.09764
1.09425
1.09099
1.0879
1.085
1.08235
1.07999
1.07798
1.07637
1.07522
1.0746
1.07458
1.07521
1.07658
1.07871
1.08165
1.08535
1.08972
1.09452
1.09933
1.10351
1.10635
1.13667
1.13322
1.12971
1.12616
1.1226
1.11901
1.11541
1.1118
1.1082
1.10462
1.10108
1.09758
1.09417
1.0909
1.0878
1.08489
1.08224
1.07987
1.07785
1.07623
1.07508
1.07447
1.07445
1.07511
1.07649
1.07866
1.08163
1.08536
1.08977
1.09462
1.09953
1.10389
1.10667
1.13645
1.133
1.12951
1.12597
1.12239
1.11877
1.11513
1.11149
1.10788
1.10431
1.10078
1.09733
1.09397
1.09073
1.08765
1.08477
1.08213
1.07978
1.07777
1.07616
1.07501
1.0744
1.0744
1.07507
1.07646
1.07871
1.08174
1.08549
1.08997
1.09498
1.09993
1.1044
1.10741
1.13613
1.13268
1.12918
1.12563
1.12203
1.11841
1.11479
1.11117
1.10758
1.10402
1.10051
1.09707
1.09372
1.09049
1.08739
1.08448
1.08181
1.07945
1.07744
1.07585
1.07473
1.07416
1.07421
1.07496
1.07646
1.07877
1.0819
1.08583
1.09046
1.09557
1.10076
1.10543
1.10858
1.13563
1.13218
1.12867
1.12512
1.12151
1.1179
1.11428
1.11067
1.10708
1.10353
1.10003
1.09661
1.09328
1.09008
1.08703
1.08416
1.08152
1.07919
1.07723
1.07569
1.07464
1.07415
1.07429
1.07514
1.07676
1.0792
1.08248
1.08657
1.09137
1.09664
1.102
1.10682
1.11007
1.13497
1.13149
1.12799
1.12445
1.12088
1.11729
1.11369
1.11008
1.10646
1.10287
1.09935
1.09592
1.09261
1.08945
1.08645
1.08368
1.08116
1.07895
1.07711
1.0757
1.07477
1.0744
1.07468
1.07567
1.07744
1.08006
1.08355
1.08786
1.09287
1.09831
1.10372
1.10865
1.11198
1.1341
1.13062
1.12712
1.12358
1.12002
1.11643
1.11283
1.10921
1.10559
1.10203
1.09853
1.09513
1.09185
1.08873
1.08579
1.08309
1.08065
1.07853
1.07678
1.07545
1.0746
1.0743
1.07467
1.0758
1.07775
1.08057
1.08427
1.08884
1.09415
1.09997
1.10587
1.11118
1.11475
1.13299
1.12953
1.12602
1.12247
1.11889
1.1153
1.11172
1.10814
1.10458
1.10105
1.09756
1.09419
1.09095
1.08788
1.08501
1.08238
1.08003
1.07802
1.07638
1.0752
1.07453
1.07445
1.07503
1.07635
1.07855
1.08167
1.08563
1.0905
1.09616
1.10235
1.10862
1.11425
1.11804
1.1316
1.12814
1.12464
1.12109
1.11752
1.11394
1.11038
1.10682
1.10329
1.09978
1.09635
1.09305
1.08988
1.08689
1.08411
1.08157
1.07933
1.07741
1.07587
1.07483
1.07436
1.07454
1.07543
1.07713
1.07969
1.08316
1.08758
1.09292
1.09904
1.10567
1.1123
1.11809
1.12201
1.1299
1.12643
1.12291
1.11938
1.11584
1.11229
1.10873
1.10519
1.1017
1.09828
1.09494
1.09171
1.0886
1.08569
1.08301
1.08061
1.07852
1.07678
1.07546
1.07461
1.07437
1.07482
1.07603
1.07807
1.081
1.0849
1.08978
1.09561
1.10225
1.10938
1.11644
1.12283
1.12713
1.1278
1.12433
1.12084
1.11733
1.1138
1.11028
1.10678
1.1033
1.09985
1.09648
1.09322
1.09008
1.08708
1.0843
1.08177
1.07953
1.07763
1.07611
1.07502
1.07449
1.07459
1.0754
1.07696
1.07935
1.08261
1.08691
1.09228
1.09868
1.10596
1.11383
1.12175
1.12877
1.13326
1.12523
1.12179
1.11831
1.11484
1.11136
1.10788
1.10443
1.10102
1.09765
1.09437
1.09121
1.08818
1.08534
1.08272
1.08036
1.07829
1.07661
1.07537
1.07462
1.07442
1.07485
1.07605
1.07806
1.08096
1.08481
1.08965
1.09564
1.10271
1.11072
1.11936
1.128
1.13555
1.14064
1.1222
1.11879
1.11537
1.11194
1.10851
1.10508
1.10171
1.0984
1.09513
1.09197
1.08892
1.08605
1.08338
1.08094
1.07879
1.07697
1.07554
1.07458
1.07416
1.07431
1.07519
1.07685
1.07936
1.08276
1.08724
1.09282
1.09952
1.10723
1.11599
1.12545
1.13499
1.14348
1.14892
1.11903
1.11568
1.11232
1.10896
1.10559
1.10224
1.09895
1.09571
1.09256
1.0895
1.08659
1.08388
1.08139
1.07914
1.07721
1.07563
1.07448
1.0738
1.07372
1.07425
1.07555
1.07767
1.08064
1.08466
1.08974
1.09592
1.10334
1.11194
1.12151
1.13161
1.14186
1.15105
1.15696
1.11672
1.11343
1.11012
1.10682
1.10352
1.10024
1.09699
1.09382
1.09075
1.08778
1.08497
1.08236
1.07997
1.07785
1.07607
1.07466
1.07373
1.07329
1.07346
1.07428
1.07588
1.07829
1.08169
1.08611
1.09156
1.09821
1.10601
1.11508
1.12518
1.13578
1.1465
1.15597
1.16243
1.14259
1.13921
1.13577
1.13228
1.12875
1.12519
1.12159
1.11796
1.11432
1.11066
1.10702
1.1034
1.09984
1.09634
1.09297
1.08978
1.08675
1.08394
1.08137
1.07911
1.07725
1.07582
1.07488
1.0745
1.07475
1.07568
1.07734
1.07977
1.08292
1.0867
1.09089
1.09512
1.09885
1.10123
1.14249
1.1391
1.13565
1.13216
1.12862
1.12504
1.12143
1.1178
1.11416
1.11052
1.10688
1.10328
1.09974
1.09626
1.0929
1.08968
1.08664
1.08382
1.08126
1.07901
1.07714
1.0757
1.07476
1.07438
1.07464
1.0756
1.0773
1.07975
1.08293
1.08673
1.09093
1.09519
1.09895
1.10134
1.14235
1.13891
1.13543
1.13191
1.12834
1.12474
1.12111
1.11746
1.11381
1.11015
1.10652
1.10292
1.09938
1.09591
1.09256
1.08935
1.08631
1.0835
1.08095
1.07873
1.07687
1.07545
1.07454
1.0742
1.07452
1.07557
1.07734
1.07982
1.08312
1.08703
1.09133
1.09566
1.09945
1.10203
1.142
1.13858
1.13511
1.1316
1.12804
1.12444
1.12081
1.11717
1.11352
1.10987
1.10625
1.10266
1.09912
1.09567
1.09233
1.08912
1.08609
1.08329
1.08076
1.07855
1.07672
1.07534
1.07447
1.07418
1.07454
1.0756
1.07741
1.08
1.08333
1.0873
1.09172
1.09623
1.10029
1.10303
1.14149
1.13807
1.1346
1.13109
1.12753
1.12393
1.12031
1.11667
1.11302
1.10938
1.10576
1.10218
1.09865
1.09522
1.0919
1.08872
1.08573
1.08296
1.08047
1.07831
1.07654
1.07523
1.07443
1.07423
1.07468
1.07585
1.07778
1.0805
1.08398
1.08811
1.09268
1.09736
1.10157
1.10441
1.14084
1.13743
1.13396
1.13045
1.1269
1.12331
1.1197
1.11606
1.1124
1.10874
1.10511
1.10152
1.09799
1.09457
1.09129
1.08816
1.08522
1.08254
1.08012
1.07804
1.07637
1.07516
1.07446
1.07441
1.07502
1.07636
1.07849
1.08141
1.08511
1.08947
1.09426
1.09909
1.10332
1.10621
1.13997
1.13656
1.13309
1.12958
1.12602
1.12243
1.1188
1.11516
1.11149
1.10782
1.10419
1.10062
1.09712
1.09373
1.09047
1.08739
1.08451
1.08187
1.07954
1.07754
1.07596
1.07485
1.07428
1.07433
1.07507
1.07658
1.07889
1.08202
1.08597
1.09061
1.09572
1.10092
1.10559
1.10873
1.13889
1.13545
1.13196
1.12844
1.12488
1.1213
1.11769
1.11408
1.11046
1.10685
1.10327
1.09974
1.09628
1.09292
1.08971
1.08667
1.08384
1.08129
1.07904
1.07712
1.07566
1.0747
1.07427
1.0745
1.07546
1.07724
1.07978
1.08319
1.08746
1.09249
1.09806
1.10354
1.1085
1.11183
1.13754
1.13409
1.13059
1.12706
1.1235
1.11992
1.11632
1.11271
1.10912
1.10553
1.10197
1.09847
1.09504
1.09173
1.08858
1.08563
1.0829
1.08045
1.07832
1.07657
1.07528
1.07452
1.07434
1.07485
1.0761
1.07818
1.08112
1.08496
1.08967
1.09512
1.10106
1.10704
1.11232
1.1157
1.13582
1.13236
1.12888
1.12535
1.1218
1.11823
1.11463
1.111
1.10741
1.10386
1.10036
1.09695
1.09363
1.09044
1.08741
1.08456
1.08194
1.07959
1.0776
1.07603
1.07494
1.0744
1.07449
1.07529
1.07687
1.0793
1.08264
1.08691
1.0921
1.09805
1.10449
1.11093
1.11654
1.12035
1.13371
1.13027
1.1268
1.12328
1.11972
1.11616
1.1126
1.10904
1.10549
1.10196
1.09851
1.09516
1.09193
1.08885
1.08593
1.08321
1.08073
1.07858
1.07681
1.07548
1.07466
1.07442
1.07484
1.07598
1.07789
1.08064
1.08438
1.08914
1.09487
1.10144
1.10857
1.11573
1.12206
1.12609
1.13112
1.12771
1.12424
1.12075
1.11724
1.11372
1.11019
1.10667
1.10318
1.09972
1.09636
1.0931
1.08998
1.087
1.0842
1.08164
1.07939
1.07748
1.07596
1.07487
1.07434
1.07444
1.07525
1.07682
1.07924
1.08255
1.08681
1.09216
1.09855
1.10584
1.11372
1.12165
1.12867
1.13315
1.12808
1.1247
1.12127
1.11782
1.11434
1.11086
1.10738
1.10393
1.10053
1.09717
1.0939
1.09075
1.08773
1.0849
1.08228
1.0799
1.07786
1.0762
1.07497
1.07421
1.07405
1.07456
1.07581
1.07786
1.08077
1.0847
1.0897
1.09577
1.10286
1.11076
1.11938
1.1281
1.13585
1.14079
1.12485
1.12149
1.11811
1.1147
1.11128
1.10786
1.10446
1.10109
1.09777
1.09452
1.09136
1.08833
1.08546
1.0828
1.08037
1.07821
1.0764
1.07497
1.07403
1.07363
1.07381
1.07471
1.07638
1.07888
1.08238
1.08692
1.09255
1.09924
1.1071
1.11594
1.12535
1.13463
1.143
1.14837
1.12251
1.11919
1.11585
1.11248
1.10912
1.10576
1.10242
1.0991
1.09586
1.09268
1.0896
1.08667
1.0839
1.08135
1.07903
1.077
1.07535
1.07412
1.07339
1.07324
1.07369
1.07486
1.07682
1.07971
1.08358
1.08843
1.09445
1.10158
1.10994
1.11934
1.12933
1.13916
1.14804
1.15376
1.14457
1.14117
1.13773
1.13423
1.13069
1.12712
1.12352
1.11988
1.1162
1.11254
1.10888
1.10524
1.10164
1.09811
1.09467
1.09137
1.08823
1.08528
1.08256
1.08012
1.07803
1.07633
1.0751
1.0744
1.0743
1.07485
1.07612
1.07811
1.08081
1.08414
1.08794
1.09175
1.09511
1.09724
1.14453
1.14115
1.13771
1.13422
1.13067
1.12708
1.12345
1.1198
1.11612
1.11244
1.10876
1.10513
1.10153
1.09799
1.09455
1.09123
1.08808
1.08512
1.0824
1.07997
1.07789
1.0762
1.07499
1.07432
1.07426
1.07488
1.07625
1.07831
1.08105
1.08439
1.08811
1.09189
1.09524
1.09738
1.14442
1.14101
1.13754
1.13402
1.13046
1.12685
1.12321
1.11954
1.11585
1.11216
1.10847
1.10481
1.1012
1.09765
1.09421
1.09089
1.08775
1.08484
1.08217
1.07979
1.07777
1.07615
1.075
1.07438
1.07436
1.075
1.07635
1.07841
1.08116
1.08451
1.08827
1.09212
1.09558
1.09792
1.14412
1.14071
1.13723
1.13371
1.13014
1.12653
1.12288
1.11922
1.11554
1.11186
1.10818
1.10453
1.10093
1.09739
1.09395
1.09064
1.08749
1.08456
1.08188
1.07951
1.07752
1.07598
1.07491
1.07438
1.07445
1.07518
1.07661
1.07877
1.08161
1.08507
1.08892
1.09286
1.09637
1.09862
1.1436
1.14018
1.13671
1.13319
1.12962
1.12601
1.12236
1.1187
1.11502
1.11134
1.10767
1.10403
1.10045
1.09693
1.09351
1.09023
1.08711
1.08421
1.08157
1.07925
1.07731
1.07584
1.07484
1.07439
1.07455
1.07538
1.07692
1.0792
1.08219
1.0858
1.08982
1.09391
1.09756
1.0999
1.14282
1.1394
1.13593
1.1324
1.12883
1.12523
1.1216
1.11796
1.11429
1.11062
1.10697
1.10336
1.0998
1.09632
1.09295
1.08972
1.08668
1.08386
1.0813
1.07905
1.07718
1.07573
1.07479
1.07441
1.07467
1.07561
1.0773
1.07973
1.08291
1.08671
1.09096
1.09529
1.09918
1.10179
1.14194
1.13851
1.13504
1.13151
1.12794
1.12433
1.12068
1.11702
1.11335
1.10968
1.10605
1.10247
1.09893
1.09547
1.09213
1.08897
1.086
1.08325
1.08077
1.07861
1.07684
1.07551
1.07469
1.07446
1.07489
1.07603
1.07792
1.0806
1.08403
1.08811
1.09264
1.09723
1.10131
1.10392
1.14095
1.13752
1.13403
1.1305
1.12693
1.12332
1.11969
1.11603
1.11238
1.10873
1.1051
1.10153
1.09802
1.09461
1.09132
1.08819