/*--------------------------------*- C++ -*----------------------------------*\
| =========                 |                                                 |
| \\      /  F ield         | OpenFOAM: The Open Source CFD Toolbox           |
|  \\    /   O peration     | Version:  2412                                  |
|   \\  /    A nd           | Website:  www.openfoam.com                      |
|    \\/     M anipulation  |                                                 |
\*---------------------------------------------------------------------------*/
FoamFile
{
    version     2.0;
    format      ascii;
    arch        "LSB;label=32;scalar=64";
    class       volScalarField;
    location    "0.0400007";
    object      Vm_0;
}
// * * * * * * * * * * * * * * * * * * * * * * * * * * * * * * * * * * * * * //

dimensions      [1 2 -3 0 0 -1 0];

internalField   nonuniform List<scalar> 
8670
(
0.0111742
0.0109146
0.0106554
0.0103986
0.0101449
0.00989561
0.00965204
0.00941574
0.00918901
0.00897453
0.00877543
0.00859405
0.00843539
0.00830468
0.00820793
0.00814728
0.00812784
0.00815755
0.00823943
0.00838108
0.00859403
0.00888007
0.0092522
0.00971061
0.0102661
0.0109144
0.0116616
0.0124815
0.0133634
0.0142343
0.0150217
0.0155308
0.0111651
0.0109061
0.0106461
0.0103875
0.0101327
0.00988258
0.00963857
0.00940241
0.00917656
0.00896278
0.008764
0.00858392
0.00842725
0.00829945
0.00820267
0.00814095
0.00812148
0.00815282
0.00823682
0.008383
0.00859525
0.00888238
0.00925623
0.0097164
0.0102755
0.0109269
0.0116784
0.0125059
0.0133984
0.0142901
0.0150665
0.0155721
0.0111449
0.0108861
0.0106279
0.0103706
0.0101149
0.00986215
0.00961619
0.00937958
0.00915472
0.00894444
0.0087493
0.008573
0.00841825
0.00829011
0.00819397
0.00813676
0.00812129
0.00815376
0.00824332
0.00839191
0.00860846
0.00890477
0.00928185
0.00975288
0.010315
0.0109798
0.0117348
0.0125832
0.0134873
0.0143803
0.0151856
0.0157069
0.0111133
0.0108546
0.010596
0.0103375
0.0100823
0.00983182
0.00958779
0.00935247
0.00912826
0.00891782
0.0087247
0.00855302
0.00840385
0.00828026
0.00818783
0.00813342
0.00812451
0.00816227
0.00825551
0.00841485
0.00864197
0.00894882
0.00933583
0.0098171
0.0103909
0.0110663
0.0118318
0.0126872
0.0135865
0.0144942
0.0152858
0.0158023
0.0110706
0.0108121
0.0105545
0.010298
0.0100433
0.00979377
0.0095513
0.00931798
0.00909633
0.00888925
0.00870062
0.00853144
0.00838544
0.00826597
0.00817858
0.00812986
0.00812749
0.00817273
0.0082744
0.00844319
0.00868067
0.00899858
0.00939773
0.00989285
0.0104805
0.0111718
0.011953
0.0128261
0.0137438
0.0146701
0.0154782
0.0160057
0.0110134
0.0107544
0.0104968
0.0102427
0.0099925
0.0097477
0.00950987
0.00928075
0.00906282
0.00885894
0.00867235
0.00850517
0.00836194
0.0082481
0.00817014
0.00813052
0.00813433
0.00818977
0.00830609
0.00848458
0.00873573
0.00906209
0.00947323
0.00998307
0.0105872
0.0112987
0.0121033
0.0130063
0.0139674
0.0149159
0.0157723
0.0163263
0.0109399
0.0106834
0.0104283
0.0101768
0.00992959
0.00968805
0.00945376
0.00922865
0.00901492
0.00881531
0.00863315
0.00847223
0.00833572
0.00822911
0.00815844
0.00813056
0.00814778
0.00821668
0.00834674
0.00854076
0.00880729
0.00915847
0.00959437
0.0101291
0.0107589
0.0114953
0.0123255
0.0132499
0.0142199
0.0151993
0.016057
0.0166182
0.0108488
0.0105957
0.0103437
0.0100935
0.00984832
0.00960909
0.00937831
0.00915749
0.00894912
0.00875629
0.00858201
0.00842865
0.00830106
0.00820436
0.00814502
0.00813079
0.00816234
0.00824778
0.00839686
0.00861072
0.00889885
0.00927371
0.00973541
0.0102977
0.0109569
0.0117246
0.0125859
0.0135436
0.0145466
0.0155579
0.0164422
0.0170206
0.0107404
0.0104889
0.0102382
0.00999127
0.00975044
0.00951683
0.00929158
0.00907651
0.0088741
0.00869041
0.0085262
0.00838498
0.00827137
0.00818928
0.00814457
0.00814422
0.00819559
0.00830129
0.00846892
0.00870878
0.00902336
0.00942214
0.00991785
0.0105071
0.0112026
0.0119968
0.0128932
0.013894
0.0149521
0.0159861
0.0168966
0.017497
0.0106095
0.0103603
0.0101142
0.00987134
0.00963505
0.00940662
0.00918736
0.00898051
0.00878858
0.00861463
0.00846176
0.00833409
0.00823475
0.00816869
0.0081418
0.00816109
0.0082344
0.00836383
0.00855608
0.00882107
0.00917118
0.00960625
0.0101389
0.010765
0.0114953
0.0123423
0.0132883
0.014337
0.015434
0.0165378
0.0175017
0.0181343
0.0104516
0.0102062
0.00996544
0.00972947
0.00949914
0.00927784
0.00906707
0.00887004
0.00868942
0.00852823
0.00838978
0.00827781
0.00819663
0.00815145
0.00814657
0.00818877
0.00828545
0.00844448
0.00867547
0.00897834
0.00936424
0.00984495
0.0104162
0.0110897
0.0118807
0.0127771
0.0137903
0.0148862
0.0160514
0.0171918
0.0181985
0.0188649
0.010262
0.0100217
0.00978665
0.00955709
0.00933587
0.00912392
0.00892351
0.00873633
0.0085677
0.00842112
0.00830001
0.00820829
0.00815002
0.0081298
0.00815329
0.0082272
0.00835935
0.00855987
0.00882882
0.00917422
0.00960629
0.0101365
0.01076
0.0114899
0.0123391
0.0132905
0.0143509
0.0155182
0.016736
0.0179656
0.0190456
0.0197604
0.0100432
0.00981001
0.00958189
0.00936108
0.00914933
0.00894731
0.00875904
0.00858619
0.00843239
0.0083039
0.00820388
0.00813597
0.00810465
0.00811477
0.00817187
0.00828265
0.00845398
0.00869416
0.00901276
0.0094096
0.00989177
0.0104683
0.011149
0.0119481
0.0128533
0.0138727
0.0150144
0.0162336
0.0175136
0.0188138
0.0199594
0.0207201
0.00982342
0.00959759
0.00937812
0.00916648
0.00896464
0.00877443
0.00859895
0.00844133
0.00830682
0.00819832
0.00811838
0.00806984
0.00806312
0.0081029
0.00819412
0.00834222
0.00855314
0.0088338
0.00919202
0.0096368
0.01018
0.0108156
0.0115542
0.0124051
0.0133745
0.0144727
0.0156643
0.0169408
0.0182835
0.0196499
0.0208571
0.0216591
0.00966535
0.00944365
0.00922914
0.00902565
0.00883241
0.00865313
0.00848837
0.0083435
0.00821997
0.00812472
0.00806015
0.00802893
0.00804212
0.00810446
0.00822105
0.00839705
0.00863782
0.00895004
0.00934035
0.00981558
0.0103827
0.0110484
0.011821
0.0127071
0.0137129
0.0148439
0.0160992
0.017426
0.0188033
0.0201761
0.0214294
0.0222089
0.0117151
0.011441
0.0111658
0.0108894
0.0106137
0.0103409
0.0100733
0.00981113
0.00955573
0.00931107
0.00907853
0.00886096
0.00866419
0.00848941
0.00834302
0.00822814
0.00815059
0.00811501
0.00812895
0.00819577
0.0083273
0.00852655
0.00880665
0.00917003
0.00961687
0.010159
0.0107881
0.0114836
0.0122372
0.0129909
0.0136439
0.0140688
0.0117051
0.0114305
0.0111543
0.0108776
0.0106024
0.0103309
0.0100631
0.00979986
0.00954419
0.00929978
0.00906657
0.00884881
0.00865237
0.0084785
0.0083332
0.00821858
0.00814233
0.00810739
0.00812309
0.00819294
0.00832859
0.00853444
0.00881419
0.00918077
0.00963536
0.0101764
0.0108103
0.0115186
0.0122678
0.0130245
0.013689
0.014141
0.0116876
0.0114132
0.0111374
0.0108612
0.0105861
0.0103127
0.0100436
0.00978169
0.00952779
0.00928356
0.00905271
0.00883731
0.00864066
0.00846901
0.00832406
0.0082128
0.00813779
0.00810751
0.00812533
0.00820202
0.00834159
0.00854908
0.00883488
0.00920201
0.00966309
0.0102153
0.0108495
0.0115685
0.0123375
0.0130962
0.0137806
0.0142225
0.0116514
0.0113779
0.0111041
0.0108293
0.0105548
0.0102826
0.010014
0.00975192
0.0095
0.00925757
0.00902845
0.00881753
0.00862526
0.00845763
0.00831623
0.00820847
0.00813825
0.00811219
0.00813536
0.00821671
0.00835892
0.00857374
0.00886409
0.00924425
0.00971473
0.0102714
0.0109241
0.0116556
0.0124285
0.0132145
0.0139167
0.0143669
0.0116077
0.011335
0.0110611
0.0107866
0.0105131
0.0102413
0.00997375
0.0097132
0.00946309
0.00922291
0.00899643
0.00878854
0.00860005
0.00843683
0.00830064
0.00819881
0.00813414
0.00811522
0.00814528
0.00823451
0.00838552
0.00861018
0.00891144
0.00930386
0.00978791
0.0103595
0.0110287
0.0117783
0.0125704
0.0133758
0.0140942
0.0145547
0.0115502
0.0112767
0.0110022
0.0107277
0.0104547
0.0101852
0.00992197
0.00966543
0.00941709
0.00918091
0.00895851
0.00875266
0.00856901
0.00840911
0.00827913
0.00818244
0.00812474
0.008116
0.00815937
0.00825956
0.00842606
0.00866219
0.0089806
0.00938368
0.0098853
0.0104827
0.011167
0.0119431
0.0127764
0.0136075
0.0143297
0.0147974
0.0114738
0.011202
0.0109291
0.0106564
0.0103857
0.010119
0.00985853
0.00960475
0.00935886
0.00912485
0.00890686
0.00870529
0.00852528
0.00837287
0.00825012
0.00816448
0.00811838
0.008121
0.00817508
0.00829133
0.00847298
0.00873285
0.00907477
0.0095
0.0100219
0.0106356
0.0113517
0.0121516
0.0129956
0.0138543
0.0146228
0.0151163
0.0113778
0.0111063
0.0108349
0.0105649
0.0102987
0.010036
0.00977862
0.00952754
0.0092862
0.00905849
0.00884605
0.0086515
0.00848072
0.00833514
0.00822111
0.00814646
0.00811292
0.00813015
0.00820149
0.00833842
0.00854441
0.00882428
0.00918869
0.00963892
0.0101881
0.0108312
0.0115793
0.012412
0.0132895
0.0141825
0.0149838
0.0154991
0.0112669
0.0109969
0.0107272
0.0104592
0.0101949
0.00993619
0.00968317
0.00943694
0.0092008
0.00897892
0.0087753
0.00859022
0.00842898
0.0082979
0.00819884
0.00813939
0.00812161
0.00815412
0.00824779
0.00840651
0.00863461
0.008943
0.00933352
0.00981943
0.0103999
0.0110885
0.0118752
0.0127389
0.0136651
0.0145804
0.01541
0.0159463
0.0111326
0.0108658
0.0105998
0.0103356
0.0100751
0.00981893
0.00956914
0.00932845
0.0091003
0.00888854
0.00869457
0.00852114
0.00837406
0.00825632
0.0081728
0.00813159
0.0081352
0.00819195
0.00830619
0.00848654
0.00874629
0.00908878
0.00951662
0.0100416
0.0106622
0.0113919
0.0122167
0.0131417
0.0141272
0.0150987
0.0159772
0.0165465
0.010963
0.0107003
0.0104388
0.0101795
0.00992398
0.00967401
0.00943168
0.00919973
0.00898165
0.00878127
0.00859989
0.00844021
0.00830771
0.00820899
0.00814549
0.00812455
0.00815485
0.00823886
0.00838689
0.00860043
0.00889149
0.0092737
0.0097483
0.0103179
0.0109954
0.0117731
0.0126614
0.0136325
0.0146778
0.0157213
0.0166326
0.0172286
0.0107619
0.010503
0.0102463
0.00999295
0.0097444
0.00950262
0.00926959
0.00904791
0.00884093
0.00865238
0.00848584
0.00834588
0.00823441
0.0081557
0.00811681
0.00812582
0.0081845
0.00830143
0.00848745
0.00874388
0.00908254
0.00950442
0.010021
0.0106492
0.0113871
0.0122273
0.0131798
0.0142146
0.0153226
0.0164184
0.0174144
0.0180617
0.0105297
0.0102756
0.0100242
0.00977599
0.00953287
0.00929874
0.00907609
0.00886758
0.00867674
0.00850794
0.00836245
0.00824288
0.00815422
0.00810228
0.00809357
0.00813583
0.00822985
0.00838386
0.00860789
0.00891267
0.00929812
0.00977722
0.0103487
0.011026
0.0118223
0.012725
0.0137452
0.0148493
0.0160293
0.0171972
0.0182635
0.0189586
0.0102902
0.0100424
0.00979824
0.00956025
0.00932937
0.00910666
0.00889385
0.00869722
0.00851961
0.00836413
0.0082344
0.00813472
0.00807035
0.00804754
0.00807364
0.00814886
0.00827923
0.00847275
0.008739
0.00908897
0.00952083
0.010045
0.0106728
0.0114173
0.0122711
0.0132475
0.0143188
0.0154839
0.016731
0.0179664
0.0190966
0.0198354
0.0101207
0.00987737
0.00963831
0.0094064
0.00918309
0.00896859
0.00876804
0.0085835
0.00841686
0.00827088
0.00815283
0.00806719
0.00801925
0.0080147
0.00806
0.00816199
0.00832091
0.00854342
0.00883741
0.00921132
0.00967346
0.010235
0.0109083
0.0116857
0.0125783
0.0135991
0.0147166
0.015927
0.0172164
0.0184772
0.0195983
0.0203417
0.0121744
0.0118887
0.0116016
0.0113118
0.0110214
0.0107334
0.0104473
0.0101662
0.00989014
0.00962357
0.00936709
0.00912292
0.00889548
0.00868664
0.00850317
0.00834778
0.00822366
0.00813984
0.00810046
0.00810915
0.00817781
0.00831178
0.00851588
0.00879273
0.00915548
0.00960408
0.0101312
0.0107196
0.0113638
0.0120168
0.0125974
0.0129678
0.0121645
0.0118794
0.0115919
0.0113026
0.0110142
0.0107262
0.0104413
0.0101595
0.00988401
0.00961572
0.00935859
0.00911384
0.00888714
0.00868073
0.00849678
0.00834224
0.00822035
0.00813641
0.00809859
0.00811149
0.0081797
0.00831506
0.00852212
0.0088052
0.00916743
0.00961819
0.0101518
0.0107531
0.0113919
0.0120426
0.0126242
0.0129981
0.0121446
0.0118588
0.0115708
0.011283
0.0109943
0.0107075
0.0104224
0.010142
0.00986663
0.00959989
0.00934249
0.00909922
0.00887166
0.00866611
0.00848471
0.0083306
0.00821174
0.00813184
0.00809489
0.00811182
0.00818754
0.0083267
0.00853532
0.00882494
0.00919838
0.0096549
0.0101878
0.0107998
0.0114619
0.0121243
0.0127026
0.0130939
0.0121138
0.0118288
0.0115411
0.0112526
0.0109637
0.0106753
0.0103908
0.0101104
0.00983789
0.00957342
0.00931923
0.00907889
0.00885361
0.00864951
0.00846876
0.00831887
0.00820316
0.00812492
0.00809483
0.00811825
0.00819947
0.00834263
0.00856122
0.00886003
0.00924107
0.00970396
0.0102571
0.010887
0.0115643
0.0122372
0.0128175
0.0131939
0.0120683
0.0117836
0.0114967
0.0112097
0.0109217
0.0106352
0.0103515
0.0100728
0.00980083
0.00953766
0.00928545
0.00904768
0.00882594
0.00862634
0.0084514
0.0083053
0.0081941
0.00812147
0.00809776
0.00812822
0.00821746
0.0083698
0.00859891
0.00890962
0.00930347
0.00978032
0.010349
0.010996
0.0116917
0.0123832
0.0129798
0.0133658
0.0120086
0.0117245
0.0114382
0.0111504
0.0108636
0.010577
0.0102935
0.0100164
0.00974578
0.00948629
0.0092386
0.00900379
0.00878746
0.00859155
0.00842284
0.00828394
0.00818004
0.00811878
0.00810418
0.00814186
0.00824171
0.00840864
0.00864752
0.0089722
0.00938516
0.00988497
0.0104651
0.0111304
0.0118511
0.0125753
0.0132163
0.0136263
0.0119322
0.0116473
0.0113617
0.0110745
0.0107877
0.0105042
0.0102236
0.00994919
0.00968113
0.00942372
0.00917782
0.00894857
0.00873785
0.00854884
0.00838686
0.00825501
0.00816164
0.00811076
0.00810582
0.00815855
0.00827374
0.00845544
0.00871705
0.00906308
0.00949572
0.0100128
0.0106255
0.0113183
0.0120584
0.0127871
0.0134427
0.013864
0.0118371
0.0115536
0.0112679
0.0109821
0.0106987
0.0104172
0.0101405
0.00986865
0.00960528
0.0093513
0.009111
0.00888578
0.00868126
0.00849936
0.00834696
0.00822675
0.00814363
0.0081051
0.00811513
0.00818552
0.00832127
0.00852687
0.00880787
0.0091763
0.00963455
0.0101802
0.0108243
0.0115501
0.0123249
0.0130882
0.0137759
0.0142183
0.011723
0.0114407
0.0111567
0.0108726
0.0105912
0.0103114
0.0100358
0.00976797
0.009508
0.00926023
0.0090256
0.0088093
0.00861324
0.00844406
0.00830425
0.00819646
0.00812895
0.00810535
0.00813671
0.00822775
0.00838201
0.00861269
0.00892353
0.0093179
0.00981129
0.0104031
0.0110861
0.0118417
0.0126632
0.0134926
0.0142326
0.0147085
0.0115847
0.011303
0.0110218
0.0107411
0.0104618
0.0101865
0.00991594
0.00965239
0.00939996
0.00915913
0.00893442
0.00872708
0.00854318
0.00838493
0.00825892
0.00816768
0.00812017
0.0081198
0.00817211
0.00828679
0.00846821
0.00872952
0.00907386
0.00950398
0.0100352
0.0106661
0.0113861
0.0122011
0.0130786
0.0139581
0.0147306
0.0152548
0.0114097
0.0111324
0.0108541
0.0105764
0.0103015
0.0100323
0.00976802
0.00951174
0.00926794
0.00903705
0.00882342
0.00862787
0.00845622
0.00831588
0.0082093
0.00813922
0.00811456
0.00813808
0.00822041
0.00836482
0.00858382
0.00888235
0.00926399
0.00974113
0.0103137
0.0109975
0.0117847
0.0126565
0.0135771
0.0145129
0.0153494
0.0158892
0.0112036
0.0109283
0.0106533
0.0103801
0.010111
0.00984886
0.0095926
0.0093448
0.00910946
0.00889157
0.00869156
0.00851409
0.00836032
0.00823653
0.00815048
0.00810444
0.00810784
0.00816346
0.008283
0.00847006
0.00872814
0.00906978
0.00949745
0.0100262
0.0106538
0.0113954
0.012241
0.0131649
0.0141596
0.0151548
0.0160209
0.0165855
0.0109583
0.0106883
0.0104194
0.0101528
0.00989077
0.00963596
0.00939141
0.00915658
0.00893481
0.00873047
0.00854808
0.00838814
0.00825584
0.00815798
0.00809672
0.0080794
0.00811502
0.0082058
0.00836279
0.00858829
0.00889424
0.00928305
0.00976841
0.0103508
0.011045
0.0118433
0.0127583
0.0137651
0.0148174
0.0158781
0.0168051
0.0174129
0.0107082
0.0104449
0.0101837
0.00992622
0.00967389
0.00942861
0.00919265
0.00896847
0.00875913
0.00856849
0.00840114
0.00826212
0.00815217
0.00807704
0.00804355
0.00805954
0.00812629
0.00825224
0.0084479
0.00871443
0.00906225
0.00950341
0.0100395
0.0106856
0.0114359
0.0123051
0.0132735
0.0143454
0.0154669
0.0165982
0.0175891
0.0182409
0.0105319
0.0102729
0.0100155
0.00976408
0.00951943
0.00928285
0.00905638
0.00884238
0.0086437
0.00846384
0.00830707
0.00817794
0.00808108
0.00802169
0.00800607
0.00804161
0.00813439
0.00828655
0.00850759
0.00880837
0.00918885
0.00966093
0.0102384
0.0109157
0.0117045
0.0126173
0.0136323
0.0147546
0.0159268
0.0171077
0.0181407
0.0188224
0.0128473
0.0125578
0.0122654
0.0119694
0.0116722
0.0113736
0.0110748
0.0107777
0.0104826
0.0101915
0.00990762
0.00963222
0.00936634
0.00911577
0.00888295
0.00867038
0.00848091
0.00832337
0.00820283
0.00812373
0.00809045
0.00810756
0.00818121
0.00832252
0.00853702
0.00882897
0.00919849
0.0096394
0.0101386
0.0106881
0.0112458
0.0117424
0.012059
0.0128353
0.0125458
0.0122541
0.0119597
0.0116619
0.0113632
0.0110636
0.0107666
0.0104722
0.0101809
0.00989725
0.00962284
0.00935914
0.00910802
0.00887564
0.00866454
0.00847782
0.00831897
0.00819744
0.00811822
0.00808615
0.00810643
0.00818415
0.00832551
0.00854172
0.00883631
0.00921045
0.0096607
0.0101758
0.0107313
0.0112845
0.0117881
0.0121263
0.0128151
0.0125259
0.0122327
0.0119381
0.0116417
0.0113432
0.0110455
0.010749
0.010454
0.0101645
0.00988133
0.00960562
0.00934254
0.00909406
0.00886274
0.00865114
0.00846677
0.00831344
0.00819519
0.00811633
0.00808304
0.00810505
0.00818828
0.0083383
0.00856049
0.00885782
0.00923071
0.00968553
0.010211
0.010783
0.0113587
0.0118691
0.0121958
0.0127861
0.012497
0.0122035
0.011908
0.01161
0.0113121
0.0110144
0.0107171
0.010424
0.0101358
0.00985281
0.00957977
0.00931893
0.00907202
0.00884112
0.00863334
0.00845223
0.00830077
0.00818227
0.00810711
0.00808136
0.00811078
0.00820074
0.00835634
0.00858088
0.00888731
0.00927736
0.00974863
0.0102893
0.0108738
0.0114566
0.0119621
0.012305
0.0127408
0.0124517
0.0121585
0.0118638
0.0115672
0.0112692
0.0109715
0.0106747
0.0103828
0.0100964
0.00981629
0.00954467
0.00928538
0.00904068
0.00881283
0.00860894
0.00843236
0.00828672
0.00817567
0.00810554
0.00808598
0.00812292
0.00822227
0.00838971
0.00862926
0.00894488
0.00934659
0.00983113
0.0103868
0.0109875
0.0115866
0.0121064
0.0124589
0.0126817
0.0123916
0.0120992
0.0118038
0.0115079
0.0112114
0.0109142
0.0106194
0.0103279
0.0100416
0.00976361
0.00949512
0.0092376
0.00899692
0.00877544
0.0085764
0.00840296
0.00826362
0.00816263
0.00810436
0.00809395
0.00813803
0.00824739
0.0084278
0.00868487
0.00902216
0.00944019
0.00993431
0.0105057
0.011128
0.0117547
0.0123095
0.0126638
0.0126073
0.0123172
0.0120248
0.0117295
0.0114337
0.0111374
0.0108414
0.0105477
0.0102567
0.00997268
0.00969683
0.00943004
0.00917781
0.00894254
0.00872655
0.00853231
0.00836775
0.00823726
0.00814445
0.00809298
0.00809434
0.00815521
0.00828183
0.00847995
0.00875349
0.00910568
0.00954767
0.0100763
0.0106793
0.0113296
0.0119782
0.0125433
0.0129265
0.0125133
0.0122239
0.011931
0.0116366
0.0113401
0.0110443
0.010749
0.0104579
0.0101711
0.00988918
0.00961694
0.00935583
0.00910756
0.00887827
0.00867025
0.00848617
0.00832948
0.00820894
0.00812884
0.00809368
0.00810849
0.00818547
0.00833054
0.008549
0.00884564
0.00922214
0.00969175
0.0102508
0.0108859
0.0115703
0.0122532
0.0128487
0.0132527
0.012396
0.012107
0.0118149
0.0115217
0.0112268
0.010933
0.0106401
0.0103518
0.0100686
0.00979057
0.00952236
0.00926526
0.00902507
0.00880429
0.00860539
0.00843053
0.0082874
0.00818
0.00811191
0.00809411
0.00813268
0.00823326
0.00840101
0.00864154
0.00896782
0.00938378
0.00989008
0.0104813
0.0111411
0.0118623
0.0125921
0.0132413
0.013656
0.0122521
0.0119624
0.0116718
0.0113796
0.0110878
0.0107961
0.0105074
0.0102218
0.00994335
0.0096727
0.00941056
0.00916209
0.00892906
0.00871804
0.00853129
0.00837127
0.00824293
0.00815355
0.00810705
0.00810824
0.00816933
0.00829576
0.0084929
0.00876445
0.00912507
0.00957777
0.0101219
0.0107495
0.0114657
0.0122419
0.0130256
0.0137229
0.0141689
0.0120705
0.0117843
0.0114962
0.0112081
0.0109196
0.0106333
0.0103492
0.0100702
0.00979667
0.00953277
0.00927919
0.00904072
0.00881879
0.00862012
0.00844709
0.0083024
0.00819404
0.008126
0.00810164
0.00813197
0.00822227
0.0083769
0.00860911
0.00892415
0.0093269
0.00981829
0.0104131
0.0111042
0.0118746
0.0126906
0.013523
0.0142683
0.0147454
0.0118564
0.0115722
0.0112877
0.0110017
0.0107165
0.0104351
0.0101571
0.00988511
0.00961921
0.00936329
0.00912244
0.00889757
0.00869145
0.00850856
0.00835147
0.0082276
0.00813996
0.00809824
0.00810585
0.00816686
0.00829326
0.00848933
0.0087596
0.00911843
0.00957007
0.0101141
0.0107652
0.0115144
0.0123396
0.0132351
0.0141418
0.0149514
0.0154703
0.0116046
0.011325
0.0110435
0.0107617
0.0104817
0.0102065
0.00993531
0.00967105
0.00941719
0.00917401
0.00894623
0.00873459
0.00854355
0.00837945
0.00824383
0.00814455
0.00808455
0.00807383
0.00811574
0.00821344
0.00837855
0.00861404
0.00893276
0.00933781
0.00984502
0.0104546
0.0111628
0.0119816
0.0128897
0.0138457
0.0148192
0.0156933
0.0162557
0.011341
0.0110657
0.0107899
0.0105149
0.0102421
0.00997331
0.00971117
0.00945731
0.00921251
0.00898006
0.00876435
0.00856929
0.00839746
0.0082544
0.00814144
0.00806564
0.00803536
0.00805278
0.00812772
0.00826294
0.0084698
0.00875081
0.00911915
0.00957633
0.0101379
0.0108
0.0115764
0.012452
0.013433
0.0144751
0.0155017
0.0164329
0.0170372
0.0111525
0.010882
0.0106123
0.010344
0.0100784
0.00981684
0.00956105
0.0093131
0.00907537
0.00885083
0.00864305
0.00845619
0.00829544
0.00816538
0.0080681
0.00801049
0.00799935
0.00803759
0.00813384
0.00829666
0.00852978
0.00884409
0.00924033
0.00973092
0.010329
0.0110314
0.0118517
0.0127743
0.0138045
0.0148959
0.0159624
0.0169149
0.0175719
0.0131643
0.0128711
0.0125745
0.012274
0.0119706
0.0116661
0.011361
0.0110555
0.0107495
0.0104477
0.0101522
0.00986444
0.00958629
0.00931976
0.00906674
0.00883116
0.00861937
0.00843612
0.00828617
0.00817425
0.00810525
0.00808422
0.00811625
0.00820619
0.00835939
0.00858628
0.00888785
0.00926082
0.00969576
0.0101728
0.0106553
0.0110829
0.0113555
0.0131552
0.0128615
0.0125646
0.0122646
0.0119612
0.0116558
0.0113504
0.0110458
0.0107427
0.0104416
0.0101451
0.00985658
0.00957807
0.00931194
0.00906109
0.00882832
0.00861671
0.00843121
0.0082794
0.00816628
0.00809686
0.00807666
0.00811165
0.00820776
0.00837056
0.00860378
0.0089072
0.00927665
0.00971217
0.0101923
0.0106808
0.0111203
0.0114142
0.0131357
0.0128429
0.0125457
0.0122449
0.0119421
0.0116372
0.0113307
0.0110243
0.0107209
0.0104216
0.0101275
0.00984025
0.00956139
0.00929429
0.00904382
0.00881317
0.0086059
0.00842587
0.00827745
0.00816517
0.00809395
0.00807046
0.00810494
0.00820321
0.00837044
0.00861088
0.00892576
0.00931296
0.00976384
0.0102573
0.0107551
0.0111964
0.0114785
0.013106
0.0128127
0.012515
0.0122146
0.0119117
0.0116063
0.0112998
0.0109949
0.010693
0.0103947
0.0101009
0.00981249
0.00953505
0.00927105
0.00902321
0.0087948
0.00858933
0.00841023
0.00826118
0.00814834
0.00808103
0.00806544
0.00810783
0.00821425
0.00839037
0.00864115
0.00896854
0.00936965
0.00983387
0.0103385
0.010843
0.0112816
0.01158
0.0130629
0.0127693
0.0124707
0.0121701
0.0118671
0.0115622
0.0112555
0.010951
0.0106498
0.010353
0.0100613
0.00977587
0.00949978
0.00923752
0.00899196
0.0087665
0.00856456
0.00838981
0.00824587
0.00813871
0.00807801
0.00806999
0.00812072
0.00823636
0.0084229
0.00868503
0.0090251
0.00944025
0.00991956
0.0104398
0.0109598
0.0114119
0.0117193
0.0130031
0.0127092
0.0124123
0.0121122
0.0118086
0.0115046
0.0112004
0.0108966
0.0105933
0.0102955
0.0100048
0.00972262
0.00945068
0.00919124
0.00894674
0.00872442
0.00852801
0.00836155
0.00822931
0.00813617
0.00808784
0.00809041
0.00814966
0.00827202
0.00846876
0.00874395
0.00909885
0.00953035
0.0100282
0.0105696
0.0111139
0.0115956
0.0119036
0.0129289
0.0126348
0.0123378
0.0120375
0.0117347
0.0114314
0.011128
0.0108247
0.0105231
0.010227
0.00993828
0.00965848
0.00938929
0.0091324
0.00889439
0.00867888
0.00848988
0.00833127
0.00820696
0.00812097
0.00807813
0.00809042
0.00816483
0.00830777
0.00852535
0.00882225
0.00920095
0.00965867
0.0101841
0.010753
0.0113213
0.0118158
0.0121519
0.0128362
0.0125416
0.0122435
0.0119433
0.0116409
0.0113367
0.011034
0.0107336
0.0104355
0.0101407
0.00985431
0.00957849
0.00931509
0.00906639
0.00883502
0.00862524
0.0084434
0.00829384
0.00818073
0.00810873
0.00808308
0.00810942
0.00820081
0.00836335
0.00860283
0.0089236
0.00932785
0.0098138
0.0103702
0.010972
0.0115733
0.0120968
0.0124525
0.0127181
0.0124239
0.0121258
0.0118263
0.0115252
0.0112226
0.010922
0.0106239
0.0103286
0.010038
0.00975602
0.00948499
0.00922675
0.00898305
0.00876046
0.00856226
0.00839237
0.00825454
0.00815261
0.00809329
0.00808693
0.00813994
0.00825873
0.00844929
0.00871693
0.00906412
0.0094912
0.010006
0.0105962
0.0112371
0.0118825
0.0124541
0.0128189
0.0125719
0.0122768
0.0119803
0.0116823
0.0113824
0.0110833
0.0107856
0.0104892
0.0101982
0.0099135
0.0096361
0.00937148
0.00912185
0.00888973
0.00867763
0.00848985
0.0083328
0.00821043
0.00812658
0.00808618
0.00810208
0.00818062
0.0083277
0.00854913
0.00885066
0.00923479
0.00970161
0.0102593
0.0108961
0.0115865
0.0122822
0.0129002
0.0132944
0.0123889
0.012096
0.0118006
0.0115052
0.0112095
0.0109134
0.0106203
0.01033
0.0100445
0.00976684
0.00949816
0.00924166
0.00900137
0.00877987
0.00857961
0.00840798
0.00826881
0.00816575
0.0081026
0.0080907
0.00813652
0.00824551
0.00842271
0.00867386
0.00901233
0.00944227
0.00996464
0.0105736
0.0112512
0.0119905
0.0127393
0.0134062
0.0138313
0.0121706
0.0118795
0.0115875
0.0112938
0.0110011
0.0107092
0.0104217
0.0101386
0.00986021
0.00959077
0.00933159
0.00908762
0.00886077
0.00865298
0.00847085
0.0083178
0.00819713
0.00811806
0.00808432
0.00810001
0.00817769
0.00832281
0.00853994
0.00883384
0.00922028
0.00970269
0.0102827
0.0109535
0.0116958
0.0125037
0.0133217
0.0140511
0.0145178
0.0119167
0.0116292
0.01134
0.0110512
0.010762
0.0104746
0.0101927
0.00991568
0.00964721
0.00938789
0.00914255
0.0089125
0.00870078
0.00851165
0.00834781
0.00821643
0.0081205
0.00806978
0.00806799
0.00811859
0.00823446
0.00841993
0.00867858
0.00902524
0.00946463
0.00999722
0.0106371
0.0113771
0.0122003
0.0130695
0.0139548
0.0147485
0.0152575
0.0116469
0.0113635
0.0110802
0.0107979
0.0105161
0.010237
0.00996343
0.00969497
0.0094347
0.00918655
0.00895117
0.00873301
0.00853746
0.00836572
0.00822414
0.00811515
0.00804715
0.00802291
0.00805242
0.0081386
0.00829429
0.00852309
0.00882826
0.00922431
0.00971286
0.0103088
0.0110109
0.0118069
0.0127014
0.0136537
0.0145926
0.0154434
0.0159924
0.0114553
0.0111756
0.0108966
0.01062
0.0103446
0.0100713
0.00980207
0.00953909
0.00928524
0.00904429
0.00881909
0.00861153
0.00842643
0.00826808
0.00813928
0.0080466
0.00799683
0.0079936
0.00804657
0.00815841
0.00834059
0.00859548
0.0089359
0.00936341
0.00989252
0.0105208
0.0112618
0.0121013
0.0130447
0.0140484
0.015036
0.0159316
0.016513
0.0134218
0.0131255
0.0128259
0.0125236
0.0122189
0.0119122
0.0116038
0.0112939
0.0109827
0.0106725
0.0103669
0.0100677
0.00977719
0.0094979
0.00923272
0.00898467
0.00875747
0.00855525
0.00838259
0.00824464
0.00814648
0.00809348
0.00809137
0.00814592
0.00826259
0.00844583
0.00869699
0.00901475
0.00938919
0.00980006
0.0102125
0.0105711
0.0108143
0.0134129
0.0131171
0.0128159
0.0125123
0.0122066
0.0118991
0.0115904
0.0112815
0.0109731
0.0106663
0.0103625
0.010063
0.00977079
0.00949019
0.00922409
0.00897543
0.00874767
0.00854486
0.00837172
0.00823325
0.00813473
0.00808186
0.00808054
0.00813661
0.00825547
0.00844139
0.00869551
0.00901542
0.00939302
0.00980921
0.01023
0.0106031
0.0108417
0.0133935
0.0130982
0.0127988
0.0124956
0.0121888
0.0118785
0.0115663
0.0112549
0.0109454
0.010639
0.010337
0.010041
0.00975286
0.00947536
0.00921148
0.00896458
0.00873839
0.00853706
0.00836503
0.00822713
0.00812844
0.00807605
0.00807584
0.00813327
0.008253
0.00844571
0.00870479
0.00902614
0.00941068
0.00984017
0.0102638
0.0106471
0.0109052
0.0133661
0.013071
0.0127711
0.0124663
0.0121578
0.0118478
0.0115373
0.0112276
0.0109198
0.0106148
0.0103141
0.0100192
0.00973213
0.00945492
0.00918955
0.00893978
0.00871153
0.00850908
0.00833687
0.00819998
0.00810418
0.0080555
0.00806006
0.00812386
0.00825246
0.00845039
0.00871905
0.009056
0.00945271
0.00989019
0.0103349
0.0107354
0.0110052
0.0133234
0.0130275
0.0127273
0.0124227
0.0121137
0.0118037
0.0114937
0.0111844
0.010877
0.0105726
0.0102728
0.00997939
0.00969425
0.00941978
0.00915834
0.00891239
0.00868642
0.00848696
0.00831866
0.00818659
0.00809655
0.00805456
0.00806683
0.00813946
0.00827808
0.0084871
0.0087683
0.00911914
0.00953024
0.0099821
0.0104412
0.0108546
0.0111332
0.0132666
0.0129689
0.0126683
0.012365
0.0120593
0.0117519
0.0114432
0.0111336
0.0108237
0.0105162
0.0102145
0.00992072
0.0096369
0.00936547
0.00910904
0.00887103
0.00865543
0.00846644
0.00830858
0.00818716
0.00810771
0.00807635
0.00810001
0.00818493
0.00833685
0.0085615
0.00886013
0.00922947
0.00965872
0.0101252
0.0105891
0.0110112
0.0112963
0.0131921
0.0128943
0.0125938
0.0122907
0.0119853
0.0116782
0.0113695
0.0110592
0.0107495
0.0104436
0.0101439
0.00985259
0.00957178
0.00930404
0.00905253
0.00882063
0.00861196
0.00843043
0.00828021
0.00816564
0.0080929
0.00806723
0.0080995
0.00819616
0.00836314
0.00860474
0.00892231
0.00931361
0.00976891
0.0102675
0.0107732
0.0112282
0.0115343
0.0130969
0.0128004
0.0125002
0.0121959
0.011889
0.0115815
0.0112743
0.0109678
0.0106627
0.0103599
0.0100612
0.00977199
0.00949468
0.00923165
0.00898566
0.00876003
0.0085588
0.00838596
0.00824612
0.00814478
0.0080876
0.00808004
0.00813014
0.00824327
0.00843145
0.0086992
0.00903825
0.00945552
0.00994059
0.0104714
0.0110088
0.0114914
0.0118157
0.0129784
0.0126816
0.0123812
0.0120774
0.0117712
0.0114649
0.0111592
0.0108546
0.0105516
0.0102509
0.0099576
0.00967408
0.00940268
0.00914622
0.00890788
0.00869084
0.00849832
0.00833366
0.00820226
0.00811306
0.0080728
0.00808786
0.00816471
0.00830973
0.00852907
0.00882722
0.00920573
0.00966282
0.0101876
0.010756
0.0113244
0.0118204
0.0121565
0.0128322
0.0125347
0.0122332
0.0119306
0.0116272
0.0113231
0.0110184
0.0107149
0.0104156
0.0101222
0.00983618
0.00955915
0.00929277
0.00904349
0.00881425
0.00860816
0.00842885
0.00828035
0.00816702
0.00809407
0.00807366
0.00811216
0.00821571
0.0083904
0.00864213
0.00897603
0.0093942
0.0098939
0.0104627
0.0110735
0.0116785
0.0122265
0.0125947
0.0126521
0.0123549
0.0120559
0.011755
0.0114523
0.0111506
0.0108507
0.0105525
0.0102568
0.00996856
0.00968928
0.0094202
0.00916318
0.00892475
0.0087079
0.008516
0.00835291
0.00822224
0.00812952
0.00808419
0.00809277