/*--------------------------------*- C++ -*----------------------------------*\
| =========                 |                                                 |
| \\      /  F ield         | OpenFOAM: The Open Source CFD Toolbox           |
|  \\    /   O peration     | Version:  2312                                  |
|   \\  /    A nd           | Website:  www.openfoam.com                      |
|    \\/     M anipulation  |                                                 |
\*---------------------------------------------------------------------------*/
FoamFile
{
    version     2.0;
    format      ascii;
    arch        "LSB;label=32;scalar=64";
    class       volVectorField;
    location    "1";
    object      D_0;
}
// * * * * * * * * * * * * * * * * * * * * * * * * * * * * * * * * * * * * * //

dimensions      [0 1 0 0 0 0 0];

internalField   nonuniform List<vector> 
1620
(
(0.000135573 0.000279562 -3.8166e-05)
(8.49681e-05 0.000298857 -3.81662e-05)
(3.17817e-05 0.000309071 -3.81661e-05)
(-2.23705e-05 0.000309895 -3.81658e-05)
(-7.58435e-05 0.000301303 -3.81658e-05)
(-0.000127012 0.000283555 -3.81659e-05)
(-0.000174321 0.000257191 -3.81653e-05)
(-0.000216334 0.000223013 -3.81653e-05)
(-0.000251773 0.000182059 -3.81659e-05)
(-0.000279562 0.000135573 -3.8166e-05)
(-0.000298857 8.49681e-05 -3.81663e-05)
(-0.000309071 3.17816e-05 -3.81661e-05)
(-0.000309895 -2.23705e-05 -3.81658e-05)
(-0.000301303 -7.58435e-05 -3.81658e-05)
(-0.000283555 -0.000127012 -3.81659e-05)
(-0.000257191 -0.000174321 -3.81653e-05)
(-0.000223013 -0.000216334 -3.81653e-05)
(-0.000182059 -0.000251773 -3.81659e-05)
(-0.000135573 -0.000279562 -3.8166e-05)
(-8.49681e-05 -0.000298857 -3.81663e-05)
(-3.17816e-05 -0.000309071 -3.81661e-05)
(2.23705e-05 -0.000309895 -3.81658e-05)
(7.58435e-05 -0.000301303 -3.81658e-05)
(0.000127012 -0.000283555 -3.81659e-05)
(0.000174321 -0.000257191 -3.81653e-05)
(0.000216334 -0.000223013 -3.81653e-05)
(0.000251773 -0.000182059 -3.81659e-05)
(0.000279562 -0.000135573 -3.8166e-05)
(0.000298857 -8.49681e-05 -3.81662e-05)
(0.000309071 -3.17816e-05 -3.81661e-05)
(0.000309895 2.23705e-05 -3.81657e-05)
(0.000301303 7.58435e-05 -3.81658e-05)
(0.000283555 0.000127012 -3.81659e-05)
(0.000257191 0.000174321 -3.81653e-05)
(0.000223013 0.000216334 -3.81653e-05)
(0.000182059 0.000251773 -3.81659e-05)
(6.62322e-05 0.000365509 3.82756e-05)
(1.75606e-06 0.000371457 3.82756e-05)
(-6.27731e-05 0.000366119 3.82757e-05)
(-0.000125395 0.000349656 3.82758e-05)
(-0.000184208 0.00032257 3.82758e-05)
(-0.000237423 0.000285682 3.82758e-05)
(-0.000283424 0.000240113 3.82759e-05)
(-0.000320813 0.000187249 3.82758e-05)
(-0.000348455 0.000128696 3.82756e-05)
(-0.000365509 6.62322e-05 3.82756e-05)
(-0.000371457 1.75604e-06 3.82756e-05)
(-0.000366119 -6.27731e-05 3.82757e-05)
(-0.000349656 -0.000125395 3.82758e-05)
(-0.00032257 -0.000184208 3.82758e-05)
(-0.000285682 -0.000237423 3.82758e-05)
(-0.000240113 -0.000283424 3.82759e-05)
(-0.000187249 -0.000320813 3.82758e-05)
(-0.000128696 -0.000348455 3.82755e-05)
(-6.62322e-05 -0.000365509 3.82756e-05)
(-1.75603e-06 -0.000371457 3.82756e-05)
(6.27731e-05 -0.000366119 3.82757e-05)
(0.000125395 -0.000349656 3.82758e-05)
(0.000184208 -0.00032257 3.82758e-05)
(0.000237423 -0.000285682 3.82758e-05)
(0.000283424 -0.000240113 3.82759e-05)
(0.000320813 -0.000187249 3.82758e-05)
(0.000348455 -0.000128696 3.82756e-05)
(0.000365509 -6.62322e-05 3.82756e-05)
(0.000371457 -1.75604e-06 3.82756e-05)
(0.000366119 6.27731e-05 3.82757e-05)
(0.000349656 0.000125395 3.82758e-05)
(0.00032257 0.000184208 3.82758e-05)
(0.000285682 0.000237423 3.82758e-05)
(0.000240113 0.000283424 3.82759e-05)
(0.000187249 0.000320813 3.82758e-05)
(0.000128696 0.000348455 3.82756e-05)
(-4.28618e-05 0.000444312 5.51366e-05)
(-0.000119364 0.000430119 5.51369e-05)
(-0.000192241 0.000402857 5.51367e-05)
(-0.000259275 0.000363354 5.51367e-05)
(-0.000318432 0.000312812 5.51371e-05)
(-0.000367914 0.000252764 5.51369e-05)
(-0.000406217 0.000185036 5.51369e-05)
(-0.000432176 0.000111686 5.51365e-05)
(-0.000445004 3.49431e-05 5.51365e-05)
(-0.000444312 -4.28618e-05 5.51366e-05)
(-0.000430119 -0.000119364 5.51368e-05)
(-0.000402857 -0.000192241 5.51367e-05)
(-0.000363354 -0.000259275 5.51367e-05)
(-0.000312812 -0.000318432 5.51371e-05)
(-0.000252764 -0.000367914 5.51369e-05)
(-0.000185036 -0.000406217 5.51369e-05)
(-0.000111686 -0.000432176 5.51365e-05)
(-3.49431e-05 -0.000445004 5.51365e-05)
(4.28618e-05 -0.000444312 5.51366e-05)
(0.000119365 -0.000430119 5.51368e-05)
(0.000192241 -0.000402857 5.51367e-05)
(0.000259275 -0.000363354 5.51367e-05)
(0.000318432 -0.000312812 5.51371e-05)
(0.000367914 -0.000252764 5.51369e-05)
(0.000406217 -0.000185036 5.51369e-05)
(0.000432176 -0.000111686 5.51365e-05)
(0.000445004 -3.49431e-05 5.51365e-05)
(0.000444312 4.28618e-05 5.51366e-05)
(0.000430119 0.000119365 5.51369e-05)
(0.000402857 0.000192241 5.51367e-05)
(0.000363354 0.000259275 5.51367e-05)
(0.000312812 0.000318432 5.51371e-05)
(0.000252764 0.000367914 5.51369e-05)
(0.000185036 0.000406217 5.51369e-05)
(0.000111686 0.000432176 5.51365e-05)
(3.49431e-05 0.000445004 5.51365e-05)
(0.000256706 0.000936779 9.02955e-05)
(9.01365e-05 0.000967124 9.0295e-05)
(-7.91718e-05 0.000968083 9.02953e-05)
(-0.000246074 0.000939627 9.02971e-05)
(-0.0004055 0.000882622 9.02979e-05)
(-0.000552606 0.000798799 9.02973e-05)
(-0.000682921 0.000690705 9.02974e-05)
(-0.000792486 0.000561623 9.02969e-05)
(-0.00087797 0.000415476 9.02958e-05)
(-0.000936779 0.000256706 9.02954e-05)
(-0.000967124 9.01365e-05 9.0295e-05)
(-0.000968083 -7.91719e-05 9.02953e-05)
(-0.000939627 -0.000246075 9.0297e-05)
(-0.000882622 -0.0004055 9.02979e-05)
(-0.000798799 -0.000552606 9.02973e-05)
(-0.000690704 -0.000682921 9.02974e-05)
(-0.000561623 -0.000792486 9.02969e-05)
(-0.000415476 -0.00087797 9.02958e-05)
(-0.000256706 -0.000936779 9.02954e-05)
(-9.01364e-05 -0.000967124 9.0295e-05)
(7.91719e-05 -0.000968083 9.02953e-05)
(0.000246075 -0.000939627 9.0297e-05)
(0.0004055 -0.000882622 9.02979e-05)
(0.000552606 -0.000798799 9.02973e-05)
(0.000682921 -0.000690705 9.02974e-05)
(0.000792486 -0.000561623 9.0297e-05)
(0.00087797 -0.000415476 9.02958e-05)
(0.000936779 -0.000256706 9.02955e-05)
(0.000967124 -9.01365e-05 9.0295e-05)
(0.000968083 7.91719e-05 9.02953e-05)
(0.000939627 0.000246075 9.02971e-05)
(0.000882622 0.0004055 9.02979e-05)
(0.000798799 0.000552606 9.02973e-05)
(0.000690705 0.000682921 9.02974e-05)
(0.000561623 0.000792486 9.0297e-05)
(0.000415476 0.00087797 9.02958e-05)
(0.000134273 0.00108844 0.000223959)
(-5.67713e-05 0.00109522 0.000223959)
(-0.000246091 0.00106872 0.000223959)
(-0.000427932 0.00100975 0.00022396)
(-0.000596773 0.0009201 0.000223961)
(-0.000747481 0.000802492 0.000223961)
(-0.000875475 0.000660502 0.00022396)
(-0.00097687 0.000498442 0.00022396)
(-0.00104858 0.000321238 0.000223959)
(-0.00108844 0.000134273 0.000223959)
(-0.00109522 -5.67713e-05 0.000223959)
(-0.00106872 -0.000246091 0.000223959)
(-0.00100975 -0.000427933 0.00022396)
(-0.0009201 -0.000596773 0.000223961)
(-0.000802492 -0.000747481 0.000223961)
(-0.000660502 -0.000875475 0.00022396)
(-0.000498442 -0.00097687 0.00022396)
(-0.000321238 -0.00104858 0.000223959)
(-0.000134273 -0.00108844 0.000223959)
(5.67713e-05 -0.00109522 0.000223959)
(0.000246091 -0.00106872 0.000223959)
(0.000427933 -0.00100975 0.00022396)
(0.000596773 -0.0009201 0.000223961)
(0.000747481 -0.000802492 0.000223961)
(0.000875475 -0.000660502 0.00022396)
(0.00097687 -0.000498442 0.00022396)
(0.00104858 -0.000321238 0.000223959)
(0.00108844 -0.000134273 0.000223959)
(0.00109522 5.67713e-05 0.000223959)
(0.00106872 0.000246091 0.000223959)
(0.00100975 0.000427933 0.00022396)
(0.0009201 0.000596773 0.000223961)
(0.000802492 0.000747481 0.000223961)
(0.000660502 0.000875475 0.00022396)
(0.000498442 0.00097687 0.00022396)
(0.000321238 0.00104858 0.000223959)
(-3.62193e-05 0.00122092 0.000321216)
(-0.000247679 0.00119608 0.000321216)
(-0.000451612 0.0011349 0.000321216)
(-0.000641824 0.00103924 0.000321216)
(-0.000812534 0.000911996 0.000321216)
(-0.000958557 0.000757044 0.000321216)
(-0.00107545 0.000579091 0.000321216)
(-0.00115967 0.000383543 0.000321216)
(-0.00120866 0.000176341 0.000321216)
(-0.00122092 -3.62194e-05 0.000321216)
(-0.00119608 -0.000247679 0.000321216)
(-0.0011349 -0.000451612 0.000321216)
(-0.00103924 -0.000641824 0.000321216)
(-0.000911996 -0.000812534 0.000321216)
(-0.000757044 -0.000958557 0.000321216)
(-0.000579091 -0.00107545 0.000321216)
(-0.000383543 -0.00115967 0.000321216)
(-0.000176341 -0.00120866 0.000321216)
(3.62194e-05 -0.00122092 0.000321216)
(0.000247679 -0.00119608 0.000321216)
(0.000451612 -0.0011349 0.000321216)
(0.000641824 -0.00103924 0.000321216)
(0.000812535 -0.000911996 0.000321216)
(0.000958557 -0.000757044 0.000321216)
(0.00107545 -0.000579091 0.000321216)
(0.00115967 -0.000383543 0.000321216)
(0.00120866 -0.000176341 0.000321216)
(0.00122092 3.62194e-05 0.000321216)
(0.00119608 0.000247679 0.000321216)
(0.0011349 0.000451612 0.000321216)
(0.00103924 0.000641824 0.000321216)
(0.000911996 0.000812535 0.000321216)
(0.000757044 0.000958557 0.000321216)
(0.000579091 0.00107545 0.000321216)
(0.000383543 0.00115967 0.000321216)
(0.000176341 0.00120866 0.000321216)
(0.000293686 0.00160802 0.000316946)
(9.99445e-06 0.00163459 0.000316946)
(-0.000274001 0.00161149 0.000316946)
(-0.000549671 0.00153943 0.000316948)
(-0.000808639 0.00142059 0.000316949)
(-0.00104304 0.00125859 0.000316949)
(-0.00124574 0.00105835 0.000316949)
(-0.0014106 0.000825951 0.000316948)
(-0.00153259 0.000568454 0.000316946)
(-0.00160802 0.000293686 0.000316946)
(-0.00163459 9.99437e-06 0.000316946)
(-0.00161149 -0.000274001 0.000316946)
(-0.00153943 -0.000549671 0.000316948)
(-0.00142059 -0.000808639 0.000316949)
(-0.00125859 -0.00104304 0.000316949)
(-0.00105835 -0.00124574 0.000316949)
(-0.00082595 -0.0014106 0.000316948)
(-0.000568454 -0.00153259 0.000316946)
(-0.000293686 -0.00160802 0.000316946)
(-9.9943e-06 -0.00163459 0.000316946)
(0.000274001 -0.00161149 0.000316946)
(0.000549671 -0.00153943 0.000316948)
(0.000808639 -0.00142059 0.000316949)
(0.00104304 -0.00125859 0.000316949)
(0.00124574 -0.00105835 0.000316949)
(0.0014106 -0.000825951 0.000316948)
(0.00153259 -0.000568454 0.000316946)
(0.00160802 -0.000293686 0.000316946)
(0.00163459 -9.99436e-06 0.000316946)
(0.00161149 0.000274001 0.000316946)
(0.00153943 0.000549671 0.000316948)
(0.00142059 0.000808639 0.000316949)
(0.00125859 0.00104304 0.000316949)
(0.00105835 0.00124574 0.000316949)
(0.000825951 0.0014106 0.000316948)
(0.000568454 0.00153259 0.000316946)
(0.000129436 0.00178531 0.000482667)
(-0.000182545 0.00178066 0.000482667)
(-0.00048898 0.00172191 0.000482667)
(-0.000780556 0.00161084 0.000482668)
(-0.00104842 0.00145082 0.000482668)
(-0.00128442 0.00124673 0.000482668)
(-0.0014814 0.00100475 0.000482668)
(-0.00163337 0.000732241 0.000482668)
(-0.00173571 0.000437485 0.000482667)
(-0.00178531 0.000129436 0.000482667)
(-0.00178066 -0.000182545 0.000482667)
(-0.00172191 -0.00048898 0.000482667)
(-0.00161084 -0.000780557 0.000482668)
(-0.00145082 -0.00104842 0.000482668)
(-0.00124673 -0.00128442 0.000482668)
(-0.00100475 -0.0014814 0.000482668)
(-0.000732241 -0.00163337 0.000482668)
(-0.000437485 -0.00173571 0.000482667)
(-0.000129436 -0.00178531 0.000482667)
(0.000182545 -0.00178066 0.000482667)
(0.00048898 -0.00172191 0.000482667)
(0.000780557 -0.00161084 0.000482668)
(0.00104842 -0.00145082 0.000482668)
(0.00128442 -0.00124673 0.000482668)
(0.0014814 -0.00100475 0.000482668)
(0.00163337 -0.000732241 0.000482668)
(0.00173571 -0.000437485 0.000482667)
(0.00178531 -0.000129436 0.000482667)
(0.00178066 0.000182545 0.000482667)
(0.00172191 0.00048898 0.000482667)
(0.00161084 0.000780557 0.000482668)
(0.00145082 0.00104842 0.000482668)
(0.00124673 0.00128442 0.000482668)
(0.00100475 0.0014814 0.000482669)
(0.000732241 0.00163337 0.000482668)
(0.000437485 0.00173571 0.000482667)
(-7.74791e-05 0.00193932 0.000618971)
(-0.000413061 0.0018964 0.000618971)
(-0.000736092 0.00179587 0.000618971)
(-0.00103676 0.00164076 0.000618971)
(-0.00130592 0.0014358 0.000618971)
(-0.00153541 0.00118722 0.000618971)
(-0.00171824 0.000902561 0.000618971)
(-0.00184886 0.00059048 0.000618971)
(-0.00192331 0.000260458 0.000618971)
(-0.00193932 -7.74791e-05 0.000618971)
(-0.0018964 -0.000413061 0.000618971)
(-0.00179587 -0.000736092 0.000618971)
(-0.00164076 -0.00103676 0.000618971)
(-0.0014358 -0.00130592 0.000618971)
(-0.00118722 -0.00153541 0.000618971)
(-0.000902561 -0.00171824 0.000618971)
(-0.00059048 -0.00184886 0.000618971)
(-0.000260458 -0.00192331 0.000618971)
(7.74792e-05 -0.00193932 0.000618971)
(0.000413061 -0.0018964 0.000618971)
(0.000736092 -0.00179587 0.000618971)
(0.00103676 -0.00164076 0.000618971)
(0.00130592 -0.0014358 0.000618971)
(0.00153541 -0.00118722 0.000618971)
(0.00171824 -0.000902561 0.000618971)
(0.00184886 -0.00059048 0.000618971)
(0.00192331 -0.000260458 0.000618971)
(0.00193932 7.74792e-05 0.000618971)
(0.0018964 0.000413061 0.000618971)
(0.00179587 0.000736092 0.000618971)
(0.00164076 0.00103676 0.000618971)
(0.0014358 0.00130592 0.000618971)
(0.00118722 0.00153541 0.000618971)
(0.000902561 0.00171824 0.000618971)
(0.00059048 0.00184886 0.000618971)
(0.000260458 0.00192331 0.000618971)
(0.000215659 0.00226823 0.000582157)
(-0.000181491 0.00227122 0.000582156)
(-0.000573126 0.00220519 0.000582157)
(-0.000947346 0.00207217 0.000582158)
(-0.00129278 0.00187618 0.000582159)
(-0.00159894 0.00162319 0.00058216)
(-0.00185651 0.00132088 0.000582159)
(-0.00205767 0.000978432 0.000582159)
(-0.00219632 0.000606256 0.000582158)
(-0.00226823 0.000215659 0.000582157)
(-0.00227122 -0.000181491 0.000582156)
(-0.00220519 -0.000573126 0.000582157)
(-0.00207217 -0.000947346 0.000582158)
(-0.00187618 -0.00129278 0.000582159)
(-0.00162319 -0.00159894 0.00058216)
(-0.00132088 -0.00185651 0.000582159)
(-0.000978432 -0.00205767 0.000582159)
(-0.000606256 -0.00219632 0.000582157)
(-0.000215659 -0.00226823 0.000582157)
(0.000181491 -0.00227122 0.000582156)
(0.000573126 -0.00220519 0.000582157)
(0.000947347 -0.00207217 0.000582158)
(0.00129278 -0.00187618 0.000582159)
(0.00159894 -0.00162319 0.00058216)
(0.00185651 -0.00132088 0.00058216)
(0.00205767 -0.000978432 0.000582159)
(0.00219632 -0.000606256 0.000582158)
(0.00226823 -0.000215659 0.000582157)
(0.00227122 0.000181491 0.000582156)
(0.00220519 0.000573126 0.000582157)
(0.00207217 0.000947346 0.000582158)
(0.00187619 0.00129278 0.000582159)
(0.00162319 0.00159894 0.00058216)
(0.00132088 0.00185651 0.00058216)
(0.000978432 0.00205767 0.000582159)
(0.000606256 0.00219632 0.000582158)
(4.06728e-05 0.00243522 0.000759435)
(-0.000382817 0.00240529 0.000759435)
(-0.000794675 0.00230227 0.000759435)
(-0.00118239 0.0021293 0.000759436)
(-0.00153417 0.00189163 0.000759436)
(-0.00183934 0.00159649 0.000759436)
(-0.00208863 0.00125284 0.000759437)
(-0.00227445 0.000871116 0.000759436)
(-0.00239116 0.000462927 0.000759436)
(-0.00243522 4.06727e-05 0.000759435)
(-0.00240529 -0.000382817 0.000759435)
(-0.00230227 -0.000794675 0.000759435)
(-0.0021293 -0.00118239 0.000759435)
(-0.00189163 -0.00153417 0.000759436)
(-0.00159649 -0.00183934 0.000759436)
(-0.00125284 -0.00208863 0.000759436)
(-0.000871116 -0.00227445 0.000759436)
(-0.000462927 -0.00239116 0.000759436)
(-4.06727e-05 -0.00243522 0.000759435)
(0.000382817 -0.00240529 0.000759435)
(0.000794675 -0.00230227 0.000759435)
(0.00118239 -0.0021293 0.000759435)
(0.00153417 -0.00189163 0.000759436)
(0.00183934 -0.00159649 0.000759436)
(0.00208863 -0.00125284 0.000759437)
(0.00227445 -0.000871116 0.000759436)
(0.00239116 -0.000462927 0.000759436)
(0.00243522 -4.06727e-05 0.000759435)
(0.00240529 0.000382817 0.000759435)
(0.00230227 0.000794675 0.000759435)
(0.0021293 0.00118239 0.000759436)
(0.00189163 0.00153417 0.000759436)
(0.00159649 0.00183934 0.000759436)
(0.00125284 0.00208863 0.000759437)
(0.000871116 0.00227445 0.000759436)
(0.000462927 0.00239116 0.000759436)
(-0.000171988 0.00257874 0.000910659)
(-0.000617169 0.0025097 0.000910659)
(-0.0010436 0.0023644 0.000910659)
(-0.00143832 0.00214726 0.000910659)
(-0.00178933 0.00186488 0.000910659)
(-0.00208598 0.00152583 0.000910659)
(-0.00231925 0.00114043 0.000910659)
(-0.00248205 0.000720367 0.000910659)
(-0.00256943 0.000278419 0.000910659)
(-0.00257874 -0.000171988 0.000910659)
(-0.0025097 -0.000617169 0.000910659)
(-0.0023644 -0.0010436 0.000910659)
(-0.00214726 -0.00143832 0.000910659)
(-0.00186488 -0.00178933 0.000910658)
(-0.00152583 -0.00208598 0.000910659)
(-0.00114043 -0.00231925 0.000910659)
(-0.000720367 -0.00248205 0.000910659)
(-0.000278419 -0.00256943 0.000910659)
(0.000171988 -0.00257874 0.000910659)
(0.000617169 -0.0025097 0.000910659)
(0.0010436 -0.0023644 0.000910659)
(0.00143832 -0.00214726 0.000910659)
(0.00178933 -0.00186488 0.000910658)
(0.00208598 -0.00152583 0.000910659)
(0.00231925 -0.00114043 0.000910659)
(0.00248205 -0.000720367 0.000910659)
(0.00256943 -0.000278419 0.000910659)
(0.00257874 0.000171988 0.000910659)
(0.0025097 0.000617169 0.000910659)
(0.0023644 0.0010436 0.000910659)
(0.00214726 0.00143832 0.000910659)
(0.00186488 0.00178933 0.000910659)
(0.00152583 0.00208598 0.000910659)
(0.00114043 0.00231925 0.000910659)
(0.000720367 0.00248205 0.000910659)
(0.000278419 0.00256943 0.000910659)
(4.34384e-05 0.00288033 0.00084949)
(-0.000457385 0.00284411 0.000849488)
(-0.000944312 0.00272148 0.000849489)
(-0.00140255 0.00251616 0.00084949)
(-0.00181816 0.00223438 0.000849491)
(-0.00217854 0.00188472 0.000849491)
(-0.00247272 0.00147778 0.000849491)
(-0.00269177 0.00102595 0.000849491)
(-0.00282903 0.000542942 0.000849491)
(-0.00288033 4.34382e-05 0.00084949)
(-0.00284411 -0.000457385 0.000849488)
(-0.00272148 -0.000944312 0.000849489)
(-0.00251616 -0.00140255 0.00084949)
(-0.00223438 -0.00181816 0.000849491)
(-0.00188472 -0.00217854 0.000849491)
(-0.00147778 -0.00247272 0.000849491)
(-0.00102595 -0.00269177 0.000849491)
(-0.000542942 -0.00282903 0.000849491)
(-4.34381e-05 -0.00288033 0.00084949)
(0.000457386 -0.00284411 0.000849488)
(0.000944313 -0.00272148 0.000849489)
(0.00140255 -0.00251616 0.00084949)
(0.00181816 -0.00223438 0.000849491)
(0.00217854 -0.00188472 0.000849491)
(0.00247272 -0.00147778 0.000849491)
(0.00269177 -0.00102595 0.000849491)
(0.00282903 -0.000542942 0.000849491)
(0.00288033 -4.34382e-05 0.00084949)
(0.00284411 0.000457385 0.000849489)
(0.00272148 0.000944313 0.000849489)
(0.00251616 0.00140255 0.00084949)
(0.00223438 0.00181816 0.000849491)
(0.00188472 0.00217854 0.000849491)
(0.00147778 0.00247272 0.000849491)
(0.00102595 0.00269177 0.000849491)
(0.000542943 0.00282903 0.000849491)
(-0.000122807 0.00301575 0.00102606)
(-0.000644621 0.00294861 0.00102606)
(-0.00114685 0.00279188 0.00102606)
(-0.00161423 0.00255031 0.00102606)
(-0.00203256 0.00223126 0.00102606)
(-0.00238914 0.00184441 0.00102606)
(-0.00267312 0.00140152 0.00102606)
(-0.00287588 0.000916048 0.00102606)
(-0.00299126 0.000402739 0.00102606)
(-0.00301575 -0.000122807 0.00102606)
(-0.00294861 -0.000644621 0.00102606)
(-0.00279188 -0.00114685 0.00102606)
(-0.00255031 -0.00161423 0.00102606)
(-0.00223126 -0.00203256 0.00102606)
(-0.00184441 -0.00238914 0.00102606)
(-0.00140152 -0.00267312 0.00102606)
(-0.000916048 -0.00287588 0.00102606)
(-0.000402739 -0.00299126 0.00102606)
(0.000122807 -0.00301575 0.00102606)
(0.000644621 -0.00294861 0.00102606)
(0.00114685 -0.00279188 0.00102606)
(0.00161423 -0.00255031 0.00102606)
(0.00203256 -0.00223126 0.00102606)
(0.00238914 -0.00184441 0.00102606)
(0.00267312 -0.00140152 0.00102606)
(0.00287588 -0.000916048 0.00102606)
(0.00299126 -0.000402739 0.00102606)
(0.00301575 0.000122807 0.00102606)
(0.00294861 0.000644621 0.00102606)
(0.00279188 0.00114685 0.00102606)
(0.00255031 0.00161423 0.00102606)
(0.00223126 0.00203256 0.00102606)
(0.00184441 0.00238914 0.00102606)
(0.00140152 0.00267312 0.00102606)
(0.000916048 0.00287588 0.00102606)
(0.000402739 0.00299126 0.00102606)
(-0.000322214 0.0031287 0.00117821)
(-0.000860613 0.00302522 0.0011782)
(-0.00137286 0.00282982 0.00117821)
(-0.0018434 0.00254843 0.0011782)
(-0.00225792 0.00218961 0.00117821)
(-0.00260384 0.00176426 0.0011782)
(-0.00287064 0.00128531 0.00117821)
(-0.00305022 0.000767299 0.00117821)
(-0.00313712 0.000225976 0.00117821)
(-0.0031287 -0.000322214 0.00117821)
(-0.00302522 -0.000860613 0.0011782)
(-0.00282982 -0.00137286 0.00117821)
(-0.00254843 -0.0018434 0.0011782)
(-0.00218961 -0.00225792 0.00117821)
(-0.00176426 -0.00260384 0.0011782)
(-0.00128531 -0.00287064 0.00117821)
(-0.000767299 -0.00305022 0.00117821)
(-0.000225976 -0.00313712 0.00117821)
(0.000322214 -0.0031287 0.00117821)
(0.000860613 -0.00302522 0.0011782)
(0.00137286 -0.00282982 0.00117821)
(0.0018434 -0.00254843 0.0011782)
(0.00225792 -0.00218961 0.00117821)
(0.00260384 -0.00176426 0.0011782)
(0.00287064 -0.00128531 0.00117821)
(0.00305022 -0.000767299 0.00117821)
(0.00313712 -0.000225976 0.00117821)
(0.00312871 0.000322214 0.00117821)
(0.00302522 0.000860613 0.00117821)
(0.00282982 0.00137286 0.00117821)
(0.00254843 0.0018434 0.0011782)
(0.00218961 0.00225792 0.00117821)
(0.00176426 0.00260384 0.0011782)
(0.00128531 0.00287064 0.00117821)
(0.000767299 0.00305022 0.00117821)
(0.000225976 0.00313712 0.00117821)
(-0.000189852 0.00340992 0.00110224)
(-0.000779094 0.00332515 0.00110224)
(-0.00134466 0.00313934 0.00110224)
(-0.00186938 0.00285815 0.00110224)
(-0.00233729 0.00249012 0.00110224)
(-0.00273418 0.00204642 0.00110224)
(-0.003048 0.00154054 0.00110224)
(-0.00326921 0.000987858 0.00110224)
(-0.00339108 0.000405158 0.00110224)
(-0.00340992 -0.000189852 0.00110224)
(-0.00332515 -0.000779094 0.00110224)
(-0.00313934 -0.00134466 0.00110224)
(-0.00285815 -0.00186938 0.00110224)
(-0.00249012 -0.00233729 0.00110224)
(-0.00204642 -0.00273418 0.00110224)
(-0.00154054 -0.003048 0.00110224)
(-0.000987858 -0.00326921 0.00110224)
(-0.000405158 -0.00339108 0.00110224)
(0.000189853 -0.00340992 0.00110224)
(0.000779095 -0.00332515 0.00110224)
(0.00134466 -0.00313934 0.00110224)
(0.00186938 -0.00285815 0.00110224)
(0.00233729 -0.00249012 0.00110224)
(0.00273418 -0.00204642 0.00110224)
(0.003048 -0.00154054 0.00110224)
(0.00326921 -0.000987858 0.00110224)
(0.00339108 -0.000405158 0.00110224)
(0.00340992 0.000189853 0.00110224)
(0.00332515 0.000779094 0.00110224)
(0.00313934 0.00134466 0.00110224)
(0.00285815 0.00186938 0.00110224)
(0.00249012 0.00233729 0.00110224)
(0.00204642 0.00273418 0.00110224)
(0.00154054 0.003048 0.00110224)
(0.000987858 0.00326921 0.00110224)
(0.000405158 0.00339108 0.00110224)
(-0.000340914 0.00350344 0.00127098)
(-0.000944101 0.00339102 0.00127098)
(-0.0015186 0.00317556 0.00127098)
(-0.00204696 0.00286361 0.00127098)
(-0.00251312 0.00246466 0.00127098)
(-0.00290292 0.00199081 0.00127098)
(-0.00320452 0.00145648 0.00127098)
(-0.00340876 0.000877894 0.00127098)
(-0.00350941 0.000272632 0.00127098)
(-0.00350344 -0.000340914 0.00127098)
(-0.00339102 -0.000944102 0.00127098)
(-0.00317556 -0.0015186 0.00127098)
(-0.00286361 -0.00204696 0.00127098)
(-0.00246466 -0.00251312 0.00127098)
(-0.00199081 -0.00290292 0.00127098)
(-0.00145648 -0.00320452 0.00127098)
(-0.000877894 -0.00340876 0.00127098)
(-0.000272631 -0.00350941 0.00127098)
(0.000340914 -0.00350344 0.00127098)
(0.000944102 -0.00339102 0.00127098)
(0.0015186 -0.00317556 0.00127098)
(0.00204696 -0.00286361 0.00127098)
(0.00251312 -0.00246466 0.00127098)
(0.00290292 -0.00199081 0.00127098)
(0.00320452 -0.00145648 0.00127098)
(0.00340876 -0.000877894 0.00127098)
(0.00350941 -0.000272632 0.00127098)
(0.00350344 0.000340914 0.00127098)
(0.00339102 0.000944102 0.00127098)
(0.00317556 0.0015186 0.00127098)
(0.00286361 0.00204696 0.00127098)
(0.00246466 0.00251312 0.00127098)
(0.00199081 0.00290292 0.00127098)
(0.00145648 0.00320452 0.00127098)
(0.000877894 0.00340876 0.00127098)
(0.000272632 0.00350941 0.00127098)
(-0.000519784 0.00357676 0.00141575)
(-0.00113299 0.00343216 0.00141575)
(-0.00171176 0.00318328 0.00141575)
(-0.00223853 0.00283767 0.00141575)
(-0.00269727 0.00240585 0.00141575)
(-0.00307407 0.00190092 0.00141575)
(-0.00335746 0.00133823 0.00141575)
(-0.00353883 0.000734887 0.00141575)
(-0.00361268 0.000109211 0.00141575)
(-0.00357676 -0.000519784 0.00141575)
(-0.00343216 -0.00113299 0.00141575)
(-0.00318328 -0.00171176 0.00141575)
(-0.00283767 -0.00223853 0.00141575)
(-0.00240585 -0.00269727 0.00141575)
(-0.00190092 -0.00307407 0.00141575)
(-0.00133823 -0.00335746 0.00141575)
(-0.000734887 -0.00353883 0.00141575)
(-0.000109211 -0.00361268 0.00141575)
(0.000519784 -0.00357676 0.00141575)
(0.00113299 -0.00343216 0.00141575)
(0.00171176 -0.00318328 0.00141575)
(0.00223853 -0.00283767 0.00141575)
(0.00269727 -0.00240585 0.00141575)
(0.00307407 -0.00190092 0.00141575)
(0.00335746 -0.00133823 0.00141575)
(0.00353883 -0.000734887 0.00141575)
(0.00361268 -0.000109211 0.00141575)
(0.00357676 0.000519784 0.00141575)
(0.00343216 0.00113299 0.00141575)
(0.00318328 0.00171176 0.00141575)
(0.00283767 0.00223853 0.00141575)
(0.00240585 0.00269727 0.00141575)
(0.00190092 0.00307407 0.00141575)
(0.00133824 0.00335746 0.00141575)
(0.000734888 0.00353883 0.00141575)
(0.000109211 0.00361268 0.00141575)
(-0.000447043 0.00383057 0.00134365)
(-0.00110542 0.00369474 0.00134365)
(-0.00173021 0.00344666 0.00134365)
(-0.00230243 0.00309385 0.00134365)
(-0.00280469 0.00264703 0.00134365)
(-0.00322174 0.00211978 0.00134365)
(-0.00354089 0.00152813 0.00134365)
(-0.00375245 0.000890046 0.00134365)
(-0.00385 0.000224918 0.00134365)
(-0.00383056 -0.000447043 0.00134365)
(-0.00369474 -0.00110542 0.00134365)
(-0.00344666 -0.00173021 0.00134365)
(-0.00309385 -0.00230243 0.00134365)
(-0.00264703 -0.00280469 0.00134365)
(-0.00211978 -0.00322174 0.00134365)
(-0.00152813 -0.00354089 0.00134365)
(-0.000890046 -0.00375245 0.00134365)
(-0.000224918 -0.00385 0.00134365)
(0.000447043 -0.00383057 0.00134365)
(0.00110542 -0.00369474 0.00134365)
(0.00173021 -0.00344666 0.00134365)
(0.00230243 -0.00309385 0.00134365)
(0.00280469 -0.00264703 0.00134365)
(0.00322174 -0.00211978 0.00134365)
(0.00354089 -0.00152813 0.00134365)
(0.00375245 -0.000890046 0.00134365)
(0.00385 -0.000224918 0.00134365)
(0.00383057 0.000447043 0.00134365)
(0.00369474 0.00110542 0.00134365)
(0.00344666 0.00173021 0.00134365)
(0.00309385 0.00230243 0.00134365)
(0.00264703 0.00280469 0.00134365)
(0.00211978 0.00322174 0.00134365)
(0.00152813 0.00354089 0.00134365)
(0.000890046 0.00375245 0.00134365)
(0.000224918 0.00385 0.00134365)
(-0.000585881 0.00387588 0.00149824)
(-0.00125002 0.00371526 0.00149824)
(-0.00187618 0.00344175 0.00149824)
(-0.00244533 0.00306367 0.00149824)
(-0.00294018 0.0025925 0.00149824)
(-0.00334569 0.00204256 0.00149824)
(-0.00364955 0.00143055 0.00149824)
(-0.00384252 0.000775081 0.00149824)
(-0.00391873 9.60578e-05 0.00149824)
(-0.00387588 -0.000585881 0.00149824)
(-0.00371526 -0.00125002 0.00149824)
(-0.00344175 -0.00187618 0.00149824)
(-0.00306367 -0.00244533 0.00149824)
(-0.0025925 -0.00294018 0.00149824)
(-0.00204256 -0.00334569 0.00149824)
(-0.00143055 -0.00364955 0.00149824)
(-0.00077508 -0.00384252 0.00149824)
(-9.60575e-05 -0.00391873 0.00149824)
(0.000585882 -0.00387588 0.00149824)
(0.00125002 -0.00371526 0.00149824)
(0.00187618 -0.00344175 0.00149824)
(0.00244533 -0.00306367 0.00149824)
(0.00294018 -0.0025925 0.00149824)
(0.00334569 -0.00204256 0.00149824)
(0.00364955 -0.00143055 0.00149824)
(0.00384252 -0.000775081 0.00149824)
(0.00391873 -9.60577e-05 0.00149824)
(0.00387588 0.000585881 0.00149824)
(0.00371526 0.00125002 0.00149824)
(0.00344175 0.00187618 0.00149824)
(0.00306367 0.00244533 0.00149824)
(0.0025925 0.00294018 0.00149824)
(0.00204256 0.00334569 0.00149824)
(0.00143055 0.00364955 0.00149824)
(0.000775081 0.00384252 0.00149824)
(9.60579e-05 0.00391873 0.00149824)
(-0.000745194 0.00390611 0.0016281)
(-0.00141216 0.00371737 0.0016281)
(-0.00203622 0.00341567 0.0016281)
(-0.00259841 0.00301019 0.0016281)
(-0.00308165 0.00251325 0.0016281)
(-0.00347125 0.00193995 0.0016281)
(-0.00375539 0.0013077 0.0016281)
(-0.00392541 0.000635716 0.0016281)
(-0.00397617 -5.55824e-05 0.0016281)
(-0.00390611 -0.000745194 0.0016281)
(-0.00371737 -0.00141216 0.0016281)
(-0.00341567 -0.00203622 0.0016281)
(-0.00301019 -0.00259841 0.0016281)
(-0.00251325 -0.00308165 0.0016281)
(-0.00193995 -0.00347125 0.0016281)
(-0.0013077 -0.00375539 0.0016281)
(-0.000635716 -0.00392541 0.0016281)
(5.55826e-05 -0.00397617 0.0016281)
(0.000745194 -0.00390611 0.0016281)
(0.00141216 -0.00371737 0.0016281)
(0.00203622 -0.00341567 0.0016281)
(0.00259841 -0.00301019 0.0016281)
(0.00308165 -0.00251325 0.0016281)
(0.00347125 -0.00193995 0.0016281)
(0.00375539 -0.0013077 0.0016281)
(0.00392541 -0.000635716 0.0016281)
(0.00397617 5.55825e-05 0.0016281)
(0.00390611 0.000745194 0.0016281)
(0.00371737 0.00141216 0.0016281)
(0.00341567 0.00203622 0.0016281)
(0.00301019 0.00259841 0.0016281)
(0.00251325 0.00308165 0.0016281)
(0.00193995 0.00347125 0.0016281)
(0.0013077 0.00375539 0.0016281)
(0.000635717 0.00392541 0.0016281)
(-5.55822e-05 0.00397617 0.0016281)
(-0.000688204 0.00412134 0.00159158)
(-0.00139341 0.00393922 0.00159158)
(-0.00205628 0.00363742 0.00159158)
(-0.00265667 0.00322508 0.00159158)
(-0.00317634 0.00271476 0.00159158)
(-0.0035995 0.00212195 0.00159158)
(-0.00391329 0.00146467 0.00159158)
(-0.00410817 0.00076288 0.00159158)
(-0.00417823 3.7913e-05 0.00159158)
(-0.00412134 -0.000688204 0.00159158)
(-0.00393922 -0.00139341 0.00159158)
(-0.00363741 -0.00205628 0.00159158)
(-0.00322508 -0.00265667 0.00159158)
(-0.00271476 -0.00317634 0.00159158)
(-0.00212195 -0.0035995 0.00159158)
(-0.00146467 -0.00391329 0.00159158)
(-0.00076288 -0.00410817 0.00159158)
(-3.79127e-05 -0.00417823 0.00159158)
(0.000688204 -0.00412134 0.00159158)
(0.00139341 -0.00393922 0.00159158)
(0.00205628 -0.00363742 0.00159158)
(0.00265667 -0.00322508 0.00159158)
(0.00317634 -0.00271476 0.00159158)
(0.0035995 -0.00212195 0.00159158)
(0.00391329 -0.00146467 0.00159158)