/*--------------------------------*- C++ -*----------------------------------*\
| =========                 |                                                 |
| \\      /  F ield         | OpenFOAM: The Open Source CFD Toolbox           |
|  \\    /   O peration     | Version:  2312                                  |
|   \\  /    A nd           | Website:  www.openfoam.com                      |
|    \\/     M anipulation  |                                                 |
\*---------------------------------------------------------------------------*/
FoamFile
{
    version     2.0;
    format      ascii;
    arch        "LSB;label=32;scalar=64";
    class       volVectorField;
    location    "1";
    object      D_0_0_0;
}
// * * * * * * * * * * * * * * * * * * * * * * * * * * * * * * * * * * * * * //

dimensions      [0 1 0 0 0 0 0];

internalField   nonuniform List<vector> 
1620
(
(0.000134376 0.00027944 -3.61427e-05)
(8.38107e-05 0.000298528 -3.61429e-05)
(3.06989e-05 0.000308547 -3.61428e-05)
(-2.33457e-05 0.000309191 -3.61424e-05)
(-7.66815e-05 0.00030044 -3.61425e-05)
(-0.000127688 0.00028256 -3.61426e-05)
(-0.000174814 0.000256094 -3.6142e-05)
(-0.000216628 0.000221847 -3.6142e-05)
(-0.00025186 0.000180859 -3.61426e-05)
(-0.00027944 0.000134376 -3.61427e-05)
(-0.000298528 8.38107e-05 -3.61429e-05)
(-0.000308547 3.06989e-05 -3.61428e-05)
(-0.000309191 -2.33457e-05 -3.61424e-05)
(-0.00030044 -7.66816e-05 -3.61425e-05)
(-0.00028256 -0.000127688 -3.61426e-05)
(-0.000256094 -0.000174814 -3.6142e-05)
(-0.000221847 -0.000216628 -3.6142e-05)
(-0.000180859 -0.00025186 -3.61426e-05)
(-0.000134376 -0.00027944 -3.61427e-05)
(-8.38107e-05 -0.000298528 -3.61429e-05)
(-3.06989e-05 -0.000308547 -3.61428e-05)
(2.33458e-05 -0.000309191 -3.61424e-05)
(7.66816e-05 -0.00030044 -3.61425e-05)
(0.000127688 -0.00028256 -3.61426e-05)
(0.000174814 -0.000256094 -3.6142e-05)
(0.000216628 -0.000221847 -3.6142e-05)
(0.00025186 -0.000180859 -3.61426e-05)
(0.00027944 -0.000134376 -3.61427e-05)
(0.000298528 -8.38107e-05 -3.61429e-05)
(0.000308547 -3.06989e-05 -3.61428e-05)
(0.000309191 2.33457e-05 -3.61424e-05)
(0.00030044 7.66816e-05 -3.61425e-05)
(0.00028256 0.000127688 -3.61426e-05)
(0.000256094 0.000174814 -3.6142e-05)
(0.000221847 0.000216628 -3.6142e-05)
(0.000180859 0.00025186 -3.61426e-05)
(6.53151e-05 0.000363488 3.84692e-05)
(1.20384e-06 0.000369308 3.84692e-05)
(-6.29436e-05 0.000363906 3.84693e-05)
(-0.000125179 0.000347447 3.84694e-05)
(-0.000183611 0.000320432 3.84694e-05)
(-0.000236464 0.00028368 3.84694e-05)
(-0.000282132 0.000238308 3.84695e-05)
(-0.000319228 0.000185696 3.84694e-05)
(-0.000346624 0.000127442 3.84691e-05)
(-0.000363488 6.53151e-05 3.84692e-05)
(-0.000369308 1.20383e-06 3.84692e-05)
(-0.000363906 -6.29436e-05 3.84693e-05)
(-0.000347447 -0.000125179 3.84694e-05)
(-0.000320432 -0.000183611 3.84693e-05)
(-0.00028368 -0.000236464 3.84694e-05)
(-0.000238308 -0.000282132 3.84695e-05)
(-0.000185696 -0.000319228 3.84694e-05)
(-0.000127442 -0.000346624 3.84691e-05)
(-6.53151e-05 -0.000363488 3.84692e-05)
(-1.20382e-06 -0.000369308 3.84691e-05)
(6.29436e-05 -0.000363906 3.84693e-05)
(0.000125179 -0.000347447 3.84694e-05)
(0.000183611 -0.000320432 3.84694e-05)
(0.000236464 -0.00028368 3.84694e-05)
(0.000282132 -0.000238308 3.84695e-05)
(0.000319228 -0.000185696 3.84694e-05)
(0.000346624 -0.000127442 3.84691e-05)
(0.000363488 -6.53151e-05 3.84692e-05)
(0.000369308 -1.20383e-06 3.84692e-05)
(0.000363906 6.29436e-05 3.84693e-05)
(0.000347447 0.000125179 3.84694e-05)
(0.000320432 0.000183611 3.84694e-05)
(0.00028368 0.000236464 3.84694e-05)
(0.000238308 0.000282132 3.84695e-05)
(0.000185696 0.000319228 3.84694e-05)
(0.000127442 0.000346624 3.84691e-05)
(-4.28546e-05 0.00044056 5.48005e-05)
(-0.000118706 0.000426426 5.48008e-05)
(-0.000190951 0.000399335 5.48007e-05)
(-0.000257393 0.000360109 5.48007e-05)
(-0.000316016 0.000309943 5.4801e-05)
(-0.000365035 0.000250358 5.48009e-05)
(-0.000402964 0.000183167 5.48008e-05)
(-0.000428648 0.00011041 5.48004e-05)
(-0.000441309 3.42987e-05 5.48005e-05)
(-0.00044056 -4.28547e-05 5.48005e-05)
(-0.000426426 -0.000118706 5.48008e-05)
(-0.000399335 -0.000190951 5.48007e-05)
(-0.000360109 -0.000257393 5.48006e-05)
(-0.000309943 -0.000316016 5.4801e-05)
(-0.000250358 -0.000365035 5.48008e-05)
(-0.000183167 -0.000402964 5.48008e-05)
(-0.00011041 -0.000428648 5.48004e-05)
(-3.42987e-05 -0.000441309 5.48005e-05)
(4.28547e-05 -0.00044056 5.48005e-05)
(0.000118706 -0.000426426 5.48008e-05)
(0.000190951 -0.000399335 5.48007e-05)
(0.000257393 -0.000360109 5.48006e-05)
(0.000316016 -0.000309943 5.4801e-05)
(0.000365035 -0.000250358 5.48008e-05)
(0.000402964 -0.000183167 5.48008e-05)
(0.000428648 -0.00011041 5.48004e-05)
(0.000441309 -3.42987e-05 5.48005e-05)
(0.00044056 4.28547e-05 5.48005e-05)
(0.000426426 0.000118706 5.48008e-05)
(0.000399335 0.000190951 5.48007e-05)
(0.000360109 0.000257393 5.48007e-05)
(0.000309943 0.000316016 5.4801e-05)
(0.000250358 0.000365035 5.48009e-05)
(0.000183167 0.000402964 5.48008e-05)
(0.00011041 0.000428648 5.48004e-05)
(3.42987e-05 0.000441309 5.48005e-05)
(0.000254278 0.000934005 9.28458e-05)
(8.82271e-05 0.000963971 9.28454e-05)
(-8.05048e-05 0.000964647 9.28457e-05)
(-0.00024679 0.000936012 9.28474e-05)
(-0.000405578 0.000878937 9.28482e-05)
(-0.000552042 0.000795157 9.28476e-05)
(-0.000681733 0.000687215 9.28477e-05)
(-0.00079071 0.000558393 9.28473e-05)
(-0.000875661 0.000412603 9.28461e-05)
(-0.000934005 0.000254278 9.28458e-05)
(-0.000963971 8.8227e-05 9.28453e-05)
(-0.000964647 -8.05048e-05 9.28456e-05)
(-0.000936012 -0.000246791 9.28474e-05)
(-0.000878937 -0.000405578 9.28482e-05)
(-0.000795157 -0.000552042 9.28476e-05)
(-0.000687215 -0.000681733 9.28477e-05)
(-0.000558393 -0.00079071 9.28472e-05)
(-0.000412603 -0.000875661 9.28461e-05)
(-0.000254278 -0.000934005 9.28458e-05)
(-8.8227e-05 -0.000963971 9.28454e-05)
(8.05049e-05 -0.000964647 9.28456e-05)
(0.000246791 -0.000936012 9.28474e-05)
(0.000405578 -0.000878937 9.28482e-05)
(0.000552042 -0.000795157 9.28476e-05)
(0.000681733 -0.000687215 9.28477e-05)
(0.00079071 -0.000558393 9.28473e-05)
(0.000875661 -0.000412603 9.28462e-05)
(0.000934005 -0.000254278 9.28458e-05)
(0.000963971 -8.8227e-05 9.28454e-05)
(0.000964647 8.05048e-05 9.28457e-05)
(0.000936012 0.000246791 9.28474e-05)
(0.000878937 0.000405578 9.28482e-05)
(0.000795157 0.000552042 9.28476e-05)
(0.000687215 0.000681733 9.28477e-05)
(0.000558393 0.00079071 9.28473e-05)
(0.000412603 0.000875661 9.28462e-05)
(0.000132601 0.00108236 0.000223495)
(-5.73636e-05 0.00108895 0.000223494)
(-0.000245585 0.00106244 0.000223495)
(-0.000426345 0.00100366 0.000223496)
(-0.000594151 0.000914374 0.000223496)
(-0.000743904 0.000797309 0.000223496)
(-0.000871054 0.000656018 0.000223496)
(-0.000971737 0.000494794 0.000223495)
(-0.00104289 0.000318537 0.000223495)
(-0.00108236 0.000132601 0.000223495)
(-0.00108895 -5.73636e-05 0.000223494)
(-0.00106244 -0.000245585 0.000223495)
(-0.00100366 -0.000426345 0.000223496)
(-0.000914374 -0.000594151 0.000223496)
(-0.000797309 -0.000743904 0.000223496)
(-0.000656018 -0.000871054 0.000223496)
(-0.000494794 -0.000971737 0.000223495)
(-0.000318537 -0.00104289 0.000223495)
(-0.000132601 -0.00108236 0.000223495)
(5.73636e-05 -0.00108895 0.000223494)
(0.000245585 -0.00106244 0.000223495)
(0.000426345 -0.00100366 0.000223496)
(0.000594151 -0.000914374 0.000223496)
(0.000743905 -0.000797309 0.000223496)
(0.000871054 -0.000656018 0.000223496)
(0.000971737 -0.000494794 0.000223495)
(0.00104289 -0.000318537 0.000223495)
(0.00108236 -0.000132601 0.000223495)
(0.00108895 5.73636e-05 0.000223494)
(0.00106244 0.000245585 0.000223495)
(0.00100366 0.000426345 0.000223496)
(0.000914374 0.000594151 0.000223496)
(0.000797309 0.000743904 0.000223496)
(0.000656018 0.000871054 0.000223496)
(0.000494794 0.000971737 0.000223495)
(0.000318537 0.00104289 0.000223495)
(-3.6339e-05 0.00121196 0.000318567)
(-0.000246241 0.00118723 0.000318567)
(-0.00044866 0.00112644 0.000318567)
(-0.000637447 0.00103142 0.000318567)
(-0.000806866 0.000905054 0.000318567)
(-0.000951769 0.000751193 0.000318567)
(-0.00106775 0.000574507 0.000318567)
(-0.00115129 0.000380366 0.000318567)
(-0.00119985 0.000174667 0.000318567)
(-0.00121196 -3.6339e-05 0.000318567)
(-0.00118723 -0.000246241 0.000318567)
(-0.00112644 -0.00044866 0.000318567)
(-0.00103142 -0.000637447 0.000318567)
(-0.000905054 -0.000806866 0.000318567)
(-0.000751193 -0.000951769 0.000318567)
(-0.000574507 -0.00106775 0.000318567)
(-0.000380366 -0.00115129 0.000318567)
(-0.000174667 -0.00119985 0.000318567)
(3.6339e-05 -0.00121196 0.000318567)
(0.000246241 -0.00118723 0.000318567)
(0.00044866 -0.00112644 0.000318567)
(0.000637447 -0.00103142 0.000318567)
(0.000806866 -0.000905054 0.000318567)
(0.000951769 -0.000751193 0.000318567)
(0.00106775 -0.000574507 0.000318567)
(0.00115129 -0.000380366 0.000318567)
(0.00119985 -0.000174667 0.000318567)
(0.00121196 3.6339e-05 0.000318567)
(0.00118723 0.000246241 0.000318567)
(0.00112644 0.00044866 0.000318567)
(0.00103142 0.000637447 0.000318567)
(0.000905054 0.000806866 0.000318567)
(0.000751193 0.000951769 0.000318567)
(0.000574507 0.00106775 0.000318567)
(0.000380366 0.00115129 0.000318567)
(0.000174667 0.00119985 0.000318567)
(0.000291907 0.00160207 0.000319855)
(9.27645e-06 0.00162842 0.000319855)
(-0.000273636 0.00160529 0.000319855)
(-0.000548235 0.00153339 0.000319857)
(-0.000806175 0.00141489 0.000319858)
(-0.00103962 0.0012534 0.000319858)
(-0.00124148 0.00105383 0.000319858)
(-0.00140561 0.000822243 0.000319857)
(-0.00152704 0.000565669 0.000319855)
(-0.00160207 0.000291907 0.000319855)
(-0.00162842 9.27637e-06 0.000319855)
(-0.00160529 -0.000273636 0.000319855)
(-0.00153339 -0.000548235 0.000319857)
(-0.00141489 -0.000806175 0.000319858)
(-0.0012534 -0.00103962 0.000319858)
(-0.00105383 -0.00124148 0.000319858)
(-0.000822243 -0.00140561 0.000319857)
(-0.000565668 -0.00152704 0.000319855)
(-0.000291907 -0.00160207 0.000319855)
(-9.2763e-06 -0.00162842 0.000319855)
(0.000273636 -0.00160529 0.000319855)
(0.000548235 -0.00153339 0.000319857)
(0.000806175 -0.00141489 0.000319858)
(0.00103962 -0.0012534 0.000319858)
(0.00124148 -0.00105383 0.000319858)
(0.00140561 -0.000822243 0.000319857)
(0.00152704 -0.000565669 0.000319855)
(0.00160207 -0.000291907 0.000319855)
(0.00162842 -9.27636e-06 0.000319855)
(0.00160529 0.000273636 0.000319855)
(0.00153339 0.000548235 0.000319857)
(0.00141489 0.000806175 0.000319858)
(0.0012534 0.00103962 0.000319858)
(0.00105383 0.00124148 0.000319858)
(0.000822243 0.00140561 0.000319857)
(0.000565669 0.00152704 0.000319855)
(0.000128351 0.00177534 0.000481935)
(-0.000181882 0.00177065 0.000481935)
(-0.000486589 0.00171217 0.000481935)
(-0.000776511 0.00160166 0.000481936)
(-0.00104284 0.00144249 0.000481936)
(-0.00127748 0.00123949 0.000481936)
(-0.00147331 0.000998825 0.000481936)
(-0.00162437 0.000727812 0.000481936)
(-0.00172608 0.000434686 0.000481935)
(-0.00177534 0.000128351 0.000481935)
(-0.00177065 -0.000181882 0.000481935)
(-0.00171217 -0.000486589 0.000481935)
(-0.00160166 -0.000776511 0.000481936)
(-0.00144249 -0.00104284 0.000481936)
(-0.00123949 -0.00127748 0.000481936)
(-0.000998825 -0.00147331 0.000481936)
(-0.000727812 -0.00162437 0.000481936)
(-0.000434686 -0.00172608 0.000481935)
(-0.000128351 -0.00177534 0.000481935)
(0.000181882 -0.00177065 0.000481935)
(0.000486589 -0.00171217 0.000481935)
(0.000776511 -0.00160166 0.000481936)
(0.00104284 -0.00144249 0.000481936)
(0.00127748 -0.00123949 0.000481936)
(0.00147331 -0.000998825 0.000481936)
(0.00162437 -0.000727812 0.000481936)
(0.00172608 -0.000434686 0.000481935)
(0.00177534 -0.000128351 0.000481935)
(0.00177065 0.000181882 0.000481935)
(0.00171217 0.000486589 0.000481935)
(0.00160166 0.000776511 0.000481936)
(0.00144249 0.00104284 0.000481936)
(0.00123949 0.00127748 0.000481936)
(0.000998825 0.00147331 0.000481936)
(0.000727812 0.00162437 0.000481936)
(0.000434686 0.00172608 0.000481935)
(-7.71376e-05 0.00192579 0.000615229)
(-0.000410374 0.00188313 0.000615229)
(-0.000731142 0.00178326 0.000615229)
(-0.00102969 0.00162921 0.000615229)
(-0.00129696 0.00142566 0.000615229)
(-0.00152482 0.00117878 0.00061523)
(-0.00170635 0.00089609 0.000615229)
(-0.00183603 0.000586172 0.000615229)
(-0.00190992 0.000258444 0.000615229)
(-0.00192579 -7.71377e-05 0.000615229)
(-0.00188313 -0.000410374 0.000615229)
(-0.00178326 -0.000731142 0.000615229)
(-0.00162921 -0.00102969 0.000615229)
(-0.00142566 -0.00129696 0.000615229)
(-0.00117878 -0.00152482 0.000615229)
(-0.00089609 -0.00170635 0.000615229)
(-0.000586172 -0.00183603 0.000615229)
(-0.000258444 -0.00190992 0.000615229)
(7.71377e-05 -0.00192579 0.000615229)
(0.000410374 -0.00188313 0.000615229)
(0.000731142 -0.00178326 0.000615229)
(0.00102969 -0.00162921 0.000615229)
(0.00129696 -0.00142566 0.000615229)
(0.00152482 -0.00117878 0.00061523)
(0.00170635 -0.00089609 0.000615229)
(0.00183603 -0.000586172 0.000615229)
(0.00190992 -0.000258444 0.000615229)
(0.00192579 7.71377e-05 0.000615229)
(0.00188313 0.000410374 0.000615229)
(0.00178326 0.000731142 0.000615229)
(0.00162921 0.00102969 0.000615229)
(0.00142566 0.00129696 0.000615229)
(0.00117878 0.00152482 0.00061523)
(0.00089609 0.00170635 0.000615229)
(0.000586172 0.00183603 0.000615229)
(0.000258444 0.00190992 0.000615229)
(0.000216567 0.002259 0.00058628)
(-0.000178996 0.00226229 0.00058628)
(-0.000569119 0.00219684 0.00058628)
(-0.000941949 0.00206464 0.000586282)
(-0.00128616 0.0018697 0.000586282)
(-0.00159129 0.00161796 0.000586283)
(-0.00184807 0.00131705 0.000586283)
(-0.0020487 0.00097613 0.000586283)
(-0.00218708 0.000605548 0.000586281)
(-0.002259 0.000216566 0.00058628)
(-0.00226229 -0.000178996 0.00058628)
(-0.00219684 -0.000569119 0.00058628)
(-0.00206464 -0.000941949 0.000586282)
(-0.0018697 -0.00128616 0.000586282)
(-0.00161796 -0.00159129 0.000586283)
(-0.00131705 -0.00184807 0.000586283)
(-0.00097613 -0.0020487 0.000586283)
(-0.000605548 -0.00218708 0.000586281)
(-0.000216566 -0.002259 0.00058628)
(0.000178996 -0.00226229 0.00058628)
(0.000569119 -0.00219684 0.00058628)
(0.00094195 -0.00206464 0.000586282)
(0.00128616 -0.0018697 0.000586282)
(0.00159129 -0.00161796 0.000586283)
(0.00184807 -0.00131705 0.000586283)
(0.0020487 -0.00097613 0.000586283)
(0.00218708 -0.000605548 0.000586281)
(0.002259 -0.000216566 0.00058628)
(0.00226229 0.000178996 0.00058628)
(0.00219684 0.000569119 0.00058628)
(0.00206464 0.000941949 0.000586282)
(0.0018697 0.00128616 0.000586282)
(0.00161796 0.00159129 0.000586283)
(0.00131705 0.00184807 0.000586283)
(0.000976131 0.0020487 0.000586283)
(0.000605548 0.00218708 0.000586281)
(4.1631e-05 0.00242166 0.000759579)
(-0.000379518 0.0023921 0.000759578)
(-0.000789136 0.00228985 0.000759579)
(-0.00117478 0.00211803 0.000759579)
(-0.00152472 0.00188186 0.000759579)
(-0.00182834 0.0015885 0.00075958)
(-0.0020764 0.00124688 0.00075958)
(-0.00226138 0.000867377 0.00075958)
(-0.00237764 0.000461515 0.000759579)
(-0.00242166 4.16309e-05 0.000759579)
(-0.0023921 -0.000379518 0.000759578)
(-0.00228985 -0.000789136 0.000759579)
(-0.00211803 -0.00117478 0.000759579)
(-0.00188186 -0.00152472 0.000759579)
(-0.0015885 -0.00182834 0.00075958)
(-0.00124688 -0.0020764 0.00075958)
(-0.000867377 -0.00226138 0.00075958)
(-0.000461515 -0.00237764 0.000759579)
(-4.16308e-05 -0.00242166 0.000759579)
(0.000379518 -0.0023921 0.000759578)
(0.000789136 -0.00228985 0.000759579)
(0.00117478 -0.00211803 0.000759579)
(0.00152472 -0.00188186 0.000759579)
(0.00182834 -0.0015885 0.00075958)
(0.0020764 -0.00124688 0.00075958)
(0.00226138 -0.000867377 0.00075958)
(0.00237764 -0.000461515 0.000759579)
(0.00242166 -4.16309e-05 0.000759579)
(0.0023921 0.000379518 0.000759578)
(0.00228985 0.000789136 0.000759579)
(0.00211803 0.00117478 0.000759579)
(0.00188186 0.00152472 0.00075958)
(0.0015885 0.00182834 0.00075958)
(0.00124688 0.0020764 0.00075958)
(0.000867377 0.00226138 0.00075958)
(0.000461516 0.00237764 0.000759579)
(-0.000170257 0.0025613 0.000907327)
(-0.000612435 0.00249282 0.000907327)
(-0.00103601 0.00234861 0.000907327)
(-0.0014281 0.00213302 0.000907327)
(-0.00177679 0.00185263 0.000907326)
(-0.00207151 0.00151595 0.000907327)
(-0.00230328 0.0011332 0.000907327)
(-0.00246507 0.000716028 0.000907327)
(-0.00255195 0.000277095 0.000907327)
(-0.0025613 -0.000170257 0.000907327)
(-0.00249282 -0.000612436 0.000907327)
(-0.00234861 -0.00103601 0.000907327)
(-0.00213302 -0.0014281 0.000907327)
(-0.00185263 -0.00177679 0.000907326)
(-0.00151595 -0.00207151 0.000907327)
(-0.0011332 -0.00230328 0.000907327)
(-0.000716028 -0.00246507 0.000907327)
(-0.000277095 -0.00255195 0.000907327)
(0.000170257 -0.0025613 0.000907327)
(0.000612436 -0.00249282 0.000907327)
(0.00103601 -0.00234861 0.000907327)
(0.0014281 -0.00213302 0.000907327)
(0.00177679 -0.00185263 0.000907326)
(0.00207151 -0.00151595 0.000907327)
(0.00230328 -0.0011332 0.000907327)
(0.00246507 -0.000716028 0.000907327)
(0.00255195 -0.000277095 0.000907327)
(0.0025613 0.000170257 0.000907327)
(0.00249282 0.000612436 0.000907327)
(0.00234861 0.00103601 0.000907327)
(0.00213302 0.0014281 0.000907327)
(0.00185263 0.00177679 0.000907327)
(0.00151595 0.00207151 0.000907327)
(0.0011332 0.00230328 0.000907327)
(0.000716028 0.00246507 0.000907327)
(0.000277095 0.00255195 0.000907327)
(4.84388e-05 0.00286837 0.000856421)
(-0.000450385 0.00283321 0.000856419)
(-0.000935524 0.00271196 0.00085642)
(-0.00139224 0.0025083 0.000856421)
(-0.00180665 0.00222844 0.000856421)
(-0.00216616 0.00188086 0.000856422)
(-0.00245986 0.00147614 0.000856422)
(-0.00267882 0.00102656 0.000856422)
(-0.00281638 0.000545791 0.000856422)
(-0.00286837 4.84387e-05 0.000856421)
(-0.00283321 -0.000450385 0.000856419)
(-0.00271196 -0.000935524 0.00085642)
(-0.0025083 -0.00139224 0.000856421)
(-0.00222844 -0.00180665 0.000856421)
(-0.00188086 -0.00216616 0.000856422)
(-0.00147614 -0.00245986 0.000856422)
(-0.00102656 -0.00267882 0.000856422)
(-0.000545791 -0.00281638 0.000856422)
(-4.84385e-05 -0.00286837 0.000856421)
(0.000450385 -0.00283321 0.000856419)
(0.000935524 -0.00271196 0.00085642)
(0.00139224 -0.0025083 0.000856421)
(0.00180665 -0.00222844 0.000856421)
(0.00216616 -0.00188086 0.000856422)
(0.00245986 -0.00147614 0.000856422)
(0.00267882 -0.00102656 0.000856422)
(0.00281638 -0.000545791 0.000856422)
(0.00286837 -4.84387e-05 0.000856421)
(0.00283321 0.000450385 0.000856419)
(0.00271196 0.000935524 0.00085642)
(0.0025083 0.00139224 0.000856421)
(0.00222844 0.00180665 0.000856422)
(0.00188086 0.00216616 0.000856422)
(0.00147614 0.00245986 0.000856422)
(0.00102656 0.00267882 0.000856422)
(0.000545791 0.00281638 0.000856422)
(-0.000118558 0.00299911 0.00102869)
(-0.000637547 0.00293296 0.00102869)
(-0.00113716 0.00277769 0.00102869)
(-0.00160223 0.00253802 0.00102869)
(-0.00201861 0.00222124 0.00102869)
(-0.00237366 0.00183697 0.00102869)
(-0.00265658 0.00139688 0.00102869)
(-0.00285879 0.000914348 0.00102869)
(-0.00297413 0.000404033 0.00102869)
(-0.00299911 -0.000118558 0.00102869)
(-0.00293296 -0.000637547 0.00102869)
(-0.00277769 -0.00113716 0.00102869)
(-0.00253802 -0.00160223 0.00102869)
(-0.00222124 -0.00201861 0.00102869)
(-0.00183697 -0.00237366 0.00102869)
(-0.00139688 -0.00265658 0.00102869)
(-0.000914348 -0.00285879 0.00102869)
(-0.000404033 -0.00297413 0.00102869)
(0.000118558 -0.00299911 0.00102869)
(0.000637547 -0.00293296 0.00102869)
(0.00113716 -0.00277769 0.00102869)
(0.00160223 -0.00253802 0.00102869)
(0.00201861 -0.00222124 0.00102869)
(0.00237366 -0.00183697 0.00102869)
(0.00265658 -0.00139688 0.00102869)
(0.00285879 -0.000914348 0.00102869)
(0.00297413 -0.000404033 0.00102869)
(0.00299911 0.000118558 0.00102869)
(0.00293296 0.000637547 0.00102869)
(0.00277769 0.00113716 0.00102869)
(0.00253802 0.00160223 0.00102869)
(0.00222124 0.00201861 0.00102869)
(0.00183697 0.00237366 0.00102869)
(0.00139688 0.00265658 0.00102869)
(0.000914348 0.00285879 0.00102869)
(0.000404033 0.00297413 0.00102869)
(-0.000317977 0.0031079 0.00117695)
(-0.000852828 0.00300547 0.00117695)
(-0.00136177 0.00281172 0.00117695)
(-0.00182933 0.00253253 0.00117695)
(-0.00224131 0.0021764 0.00117695)
(-0.00258518 0.00175414 0.00117695)
(-0.00285051 0.00127858 0.00117695)
(-0.00302923 0.000764165 0.00117695)
(-0.0031159 0.000226536 0.00117695)
(-0.0031079 -0.000317977 0.00117695)
(-0.00300547 -0.000852828 0.00117695)
(-0.00281172 -0.00136177 0.00117695)
(-0.00253253 -0.00182933 0.00117695)
(-0.0021764 -0.00224131 0.00117695)
(-0.00175414 -0.00258518 0.00117695)
(-0.00127858 -0.00285051 0.00117695)
(-0.000764165 -0.00302923 0.00117695)
(-0.000226536 -0.0031159 0.00117695)
(0.000317977 -0.0031079 0.00117695)
(0.000852828 -0.00300547 0.00117695)
(0.00136177 -0.00281172 0.00117695)
(0.00182933 -0.00253253 0.00117695)
(0.00224131 -0.0021764 0.00117695)
(0.00258518 -0.00175414 0.00117695)
(0.00285051 -0.00127858 0.00117695)
(0.00302923 -0.000764165 0.00117695)
(0.0031159 -0.000226536 0.00117695)
(0.0031079 0.000317977 0.00117695)
(0.00300547 0.000852828 0.00117695)
(0.00281172 0.00136177 0.00117695)
(0.00253253 0.00182933 0.00117695)
(0.0021764 0.00224131 0.00117695)
(0.00175414 0.00258518 0.00117695)
(0.00127858 0.00285051 0.00117695)
(0.000764165 0.00302923 0.00117695)
(0.000226536 0.0031159 0.00117695)
(-0.000179973 0.00339612 0.00111385)
(-0.000766968 0.00331327 0.00111384)
(-0.00133066 0.00312975 0.00111384)
(-0.00185392 0.00285114 0.00111384)
(-0.00232085 0.00248589 0.00111384)
(-0.00271726 0.00204512 0.00111384)
(-0.00303111 0.0015422 0.00111384)
(-0.00325286 0.000992422 0.00111385)
(-0.00337577 0.000412491 0.00111385)
(-0.00339612 -0.000179973 0.00111385)
(-0.00331327 -0.000766968 0.00111384)
(-0.00312975 -0.00133066 0.00111384)
(-0.00285114 -0.00185392 0.00111384)
(-0.00248589 -0.00232085 0.00111384)
(-0.00204512 -0.00271726 0.00111384)
(-0.0015422 -0.00303111 0.00111384)
(-0.000992421 -0.00325286 0.00111385)
(-0.000412491 -0.00337577 0.00111385)
(0.000179973 -0.00339612 0.00111385)
(0.000766968 -0.00331327 0.00111384)
(0.00133066 -0.00312975 0.00111384)
(0.00185392 -0.00285114 0.00111384)
(0.00232085 -0.00248589 0.00111384)
(0.00271726 -0.00204512 0.00111384)
(0.00303111 -0.0015422 0.00111384)
(0.00325286 -0.000992421 0.00111385)
(0.00337577 -0.000412491 0.00111385)
(0.00339612 0.000179973 0.00111385)
(0.00331327 0.000766968 0.00111384)
(0.00312975 0.00133066 0.00111384)
(0.00285114 0.00185392 0.00111384)
(0.00248589 0.00232085 0.00111384)
(0.00204512 0.00271726 0.00111384)
(0.0015422 0.00303111 0.00111384)
(0.000992422 0.00325286 0.00111385)
(0.000412491 0.00337577 0.00111385)
(-0.000332426 0.00348446 0.00127782)
(-0.000932446 0.0033738 0.00127782)
(-0.00150413 0.00316062 0.00127782)
(-0.00203012 0.00285142 0.00127782)
(-0.00249442 0.00245557 0.00127782)
(-0.00288293 0.00198511 0.00127782)
(-0.00318384 0.00145434 0.00127782)
(-0.00338801 0.000879377 0.00127782)
(-0.00348925 0.000277694 0.00127782)
(-0.00348446 -0.000332426 0.00127782)
(-0.0033738 -0.000932447 0.00127782)
(-0.00316062 -0.00150413 0.00127782)
(-0.00285142 -0.00203012 0.00127782)
(-0.00245557 -0.00249442 0.00127782)
(-0.00198511 -0.00288293 0.00127782)
(-0.00145434 -0.00318384 0.00127782)
(-0.000879377 -0.00338801 0.00127782)
(-0.000277694 -0.00348925 0.00127782)
(0.000332426 -0.00348446 0.00127782)
(0.000932447 -0.0033738 0.00127782)
(0.00150413 -0.00316062 0.00127782)
(0.00203012 -0.00285142 0.00127782)
(0.00249442 -0.00245557 0.00127782)
(0.00288293 -0.00198511 0.00127782)
(0.00318384 -0.00145434 0.00127782)
(0.00338801 -0.000879377 0.00127782)
(0.00348925 -0.000277694 0.00127782)
(0.00348446 0.000332426 0.00127782)
(0.0033738 0.000932447 0.00127782)
(0.00316062 0.00150413 0.00127782)
(0.00285142 0.00203012 0.00127782)
(0.00245557 0.00249442 0.00127782)
(0.00198511 0.00288293 0.00127782)
(0.00145434 0.00318384 0.00127782)
(0.000879378 0.00338801 0.00127782)
(0.000277694 0.00348925 0.00127782)
(-0.000511965 0.00355323 0.00141822)
(-0.0011212 0.00341034 0.00141822)
(-0.00169637 0.00316384 0.00141822)
(-0.00221999 0.0028212 0.00141822)
(-0.00267616 0.00239284 0.00141822)
(-0.00305101 0.00189178 0.00141822)
(-0.00333317 0.00133324 0.00141822)
(-0.00351404 0.000734185 0.00141822)
(-0.00358815 0.000112824 0.00141822)
(-0.00355323 -0.000511966 0.00141822)
(-0.00341034 -0.0011212 0.00141822)
(-0.00316384 -0.00169637 0.00141822)
(-0.0028212 -0.00221999 0.00141822)
(-0.00239284 -0.00267616 0.00141822)
(-0.00189178 -0.00305101 0.00141822)
(-0.00133324 -0.00333317 0.00141822)
(-0.000734185 -0.00351404 0.00141822)
(-0.000112824 -0.00358815 0.00141822)
(0.000511966 -0.00355323 0.00141822)
(0.0011212 -0.00341034 0.00141822)
(0.00169637 -0.00316384 0.00141822)
(0.00221999 -0.0028212 0.00141822)
(0.00267616 -0.00239284 0.00141822)
(0.00305101 -0.00189178 0.00141822)
(0.00333317 -0.00133324 0.00141822)
(0.00351404 -0.000734185 0.00141822)
(0.00358815 -0.000112824 0.00141822)
(0.00355323 0.000511966 0.00141822)
(0.00341034 0.0011212 0.00141822)
(0.00316384 0.00169637 0.00141822)
(0.0028212 0.00221999 0.00141822)
(0.00239284 0.00267616 0.00141822)
(0.00189178 0.00305101 0.00141822)
(0.00133324 0.00333317 0.00141822)
(0.000734185 0.00351404 0.00141822)
(0.000112824 0.00358815 0.00141822)
(-0.00043202 0.00381591 0.00136158)
(-0.00108808 0.00368291 0.00136158)
(-0.00171108 0.00343802 0.00136158)
(-0.00228209 0.00308866 0.00136158)
(-0.00278376 0.00264546 0.00136158)
(-0.00320085 0.00212187 0.00136158)
(-0.00352068 0.00153381 0.00136158)
(-0.00373354 0.000899149 0.00136158)
(-0.00383295 0.000237167 0.00136158)
(-0.00381591 -0.00043202 0.00136158)
(-0.00368291 -0.00108808 0.00136158)
(-0.00343802 -0.00171108 0.00136158)
(-0.00308866 -0.00228209 0.00136158)
(-0.00264546 -0.00278376 0.00136158)
(-0.00212187 -0.00320085 0.00136158)
(-0.00153381 -0.00352068 0.00136158)
(-0.000899149 -0.00373354 0.00136158)
(-0.000237166 -0.00383295 0.00136158)
(0.000432021 -0.00381591 0.00136158)
(0.00108808 -0.00368291 0.00136158)
(0.00171108 -0.00343802 0.00136158)
(0.00228209 -0.00308866 0.00136158)
(0.00278376 -0.00264546 0.00136158)
(0.00320085 -0.00212187 0.00136158)
(0.00352068 -0.00153381 0.00136158)
(0.00373354 -0.000899149 0.00136158)
(0.00383295 -0.000237167 0.00136158)
(0.00381591 0.00043202 0.00136158)
(0.00368291 0.00108808 0.00136158)
(0.00343802 0.00171108 0.00136158)
(0.00308866 0.00228209 0.00136158)
(0.00264546 0.00278376 0.00136158)
(0.00212187 0.00320085 0.00136158)
(0.00153381 0.00352068 0.00136158)
(0.000899149 0.00373354 0.00136158)
(0.000237167 0.00383295 0.00136158)
(-0.00057257 0.00385549 0.00151085)
(-0.00123337 0.00369749 0.00151085)
(-0.00185669 0.00342714 0.00151085)
(-0.0024236 0.00305266 0.00151085)
(-0.00291687 0.00258543 0.00151085)
(-0.00332151 0.00203964 0.00151085)
(-0.00362523 0.00143188 0.00151085)
(-0.0038188 0.000780614 0.00151085)
(-0.00389634 0.000105625 0.00151085)
(-0.00385549 -0.000572571 0.00151085)
(-0.00369749 -0.00123337 0.00151085)
(-0.00342714 -0.00185669 0.00151085)
(-0.00305266 -0.0024236 0.00151085)
(-0.00258543 -0.00291687 0.00151085)
(-0.00203964 -0.00332151 0.00151085)
(-0.00143188 -0.00362523 0.00151085)
(-0.000780613 -0.0038188 0.00151085)
(-0.000105625 -0.00389634 0.00151085)
(0.000572571 -0.00385549 0.00151085)
(0.00123337 -0.00369749 0.00151085)
(0.00185669 -0.00342714 0.00151085)
(0.0024236 -0.00305266 0.00151085)
(0.00291687 -0.00258543 0.00151085)
(0.00332151 -0.00203964 0.00151085)
(0.00362523 -0.00143188 0.00151085)
(0.0038188 -0.000780614 0.00151085)
(0.00389634 -0.000105625 0.00151085)
(0.00385549 0.000572571 0.00151085)
(0.00369749 0.00123337 0.00151085)
(0.00342714 0.00185669 0.00151085)
(0.00305266 0.0024236 0.00151085)
(0.00258543 0.00291687 0.00151085)
(0.00203964 0.00332151 0.00151085)
(0.00143188 0.00362523 0.00151085)
(0.000780614 0.0038188 0.00151085)
(0.000105625 0.00389634 0.00151085)
(-0.000732979 0.00388066 0.00163577)
(-0.00139571 0.00369442 0.00163577)
(-0.00201604 0.00339593 0.00163577)
(-0.00257511 0.00299426 0.00163577)
(-0.00305593 0.0025016 0.00163577)
(-0.0034439 0.00193294 0.00163577)
(-0.00372723 0.00130555 0.00163577)
(-0.00389732 0.000638489 0.00163577)
(-0.00394898 -4.79731e-05 0.00163577)
(-0.00388065 -0.000732979 0.00163577)
(-0.00369442 -0.00139571 0.00163577)
(-0.00339593 -0.00201604 0.00163577)
(-0.00299426 -0.00257511 0.00163577)
(-0.0025016 -0.00305593 0.00163577)
(-0.00193294 -0.0034439 0.00163577)
(-0.00130555 -0.00372723 0.00163577)
(-0.000638489 -0.00389732 0.00163577)
(4.79733e-05 -0.00394898 0.00163577)
(0.000732979 -0.00388066 0.00163577)
(0.00139571 -0.00369442 0.00163577)
(0.00201604 -0.00339593 0.00163577)
(0.00257511 -0.00299426 0.00163577)
(0.00305593 -0.0025016 0.00163577)
(0.0034439 -0.00193294 0.00163577)
(0.00372723 -0.00130555 0.00163577)
(0.00389732 -0.000638489 0.00163577)
(0.00394898 4.79732e-05 0.00163577)
(0.00388066 0.000732979 0.00163577)
(0.00369442 0.00139571 0.00163577)
(0.00339593 0.00201604 0.00163577)
(0.00299426 0.00257511 0.00163577)
(0.0025016 0.00305593 0.00163577)
(0.00193294 0.0034439 0.00163577)
(0.00130555 0.00372723 0.00163577)
(0.000638489 0.00389732 0.00163577)
(-4.79729e-05 0.00394898 0.00163577)
(-0.000668376 0.00410685 0.00161686)
(-0.00137137 0.00392839 0.00161686)
(-0.00203269 0.00363058 0.00161686)
(-0.00263226 0.00322245 0.00161686)
(-0.00315184 0.0027164 0.00161686)
(-0.00357565 0.00212782 0.00161686)
(-0.00389082 0.00147459 0.00161686)
(-0.00408777 0.000776555 0.00161686)
(-0.00416052 5.49228e-05 0.00161686)
(-0.00410685 -0.000668376 0.00161686)
(-0.00392839 -0.00137137 0.00161686)
(-0.00363058 -0.00203269 0.00161686)
(-0.00322245 -0.00263226 0.00161686)
(-0.0027164 -0.00315184 0.00161686)
(-0.00212782 -0.00357565 0.00161686)
(-0.00147459 -0.00389082 0.00161686)
(-0.000776555 -0.00408777 0.00161686)
(-5.49225e-05 -0.00416052 0.00161686)
(0.000668376 -0.00410685 0.00161686)
(0.00137137 -0.00392839 0.00161686)
(0.00203269 -0.00363058 0.00161686)
(0.00263226 -0.00322245 0.00161686)
(0.00315184 -0.0027164 0.00161686)
(0.00357565 -0.00212782 0.00161686)
(0.00389082 -0.00147459 0.00161686)