/*--------------------------------*- C++ -*----------------------------------*\
| =========                 |                                                 |
| \\      /  F ield         | OpenFOAM: The Open Source CFD Toolbox           |
|  \\    /   O peration     | Version:  2312                                  |
|   \\  /    A nd           | Website:  www.openfoam.com                      |
|    \\/     M anipulation  |                                                 |
\*---------------------------------------------------------------------------*/
FoamFile
{
    version     2.0;
    format      ascii;
    arch        "LSB;label=32;scalar=64";
    class       volVectorField;
    location    "1";
    object      D_0_0;
}
// * * * * * * * * * * * * * * * * * * * * * * * * * * * * * * * * * * * * * //

dimensions      [0 1 0 0 0 0 0];

internalField   nonuniform List<vector> 
1620
(
(0.000134973 0.000279507 -3.71531e-05)
(8.43861e-05 0.000298698 -3.71533e-05)
(3.12361e-05 0.000308814 -3.71532e-05)
(-2.28631e-05 0.000309547 -3.71528e-05)
(-7.62682e-05 0.000300875 -3.71529e-05)
(-0.000127356 0.00028306 -3.7153e-05)
(-0.000174574 0.000256644 -3.71524e-05)
(-0.000216487 0.00022243 -3.71524e-05)
(-0.000251823 0.000181458 -3.7153e-05)
(-0.000279507 0.000134973 -3.71531e-05)
(-0.000298698 8.43861e-05 -3.71533e-05)
(-0.000308814 3.1236e-05 -3.71532e-05)
(-0.000309547 -2.28631e-05 -3.71529e-05)
(-0.000300875 -7.62682e-05 -3.71529e-05)
(-0.00028306 -0.000127356 -3.7153e-05)
(-0.000256644 -0.000174574 -3.71524e-05)
(-0.00022243 -0.000216487 -3.71524e-05)
(-0.000181458 -0.000251823 -3.7153e-05)
(-0.000134973 -0.000279507 -3.71531e-05)
(-8.43861e-05 -0.000298698 -3.71533e-05)
(-3.1236e-05 -0.000308814 -3.71532e-05)
(2.28632e-05 -0.000309547 -3.71528e-05)
(7.62682e-05 -0.000300875 -3.71529e-05)
(0.000127356 -0.00028306 -3.7153e-05)
(0.000174574 -0.000256644 -3.71524e-05)
(0.000216488 -0.00022243 -3.71524e-05)
(0.000251823 -0.000181458 -3.7153e-05)
(0.000279507 -0.000134973 -3.71531e-05)
(0.000298698 -8.43861e-05 -3.71533e-05)
(0.000308814 -3.12361e-05 -3.71532e-05)
(0.000309547 2.28631e-05 -3.71528e-05)
(0.000300875 7.62682e-05 -3.71529e-05)
(0.00028306 0.000127356 -3.7153e-05)
(0.000256644 0.000174574 -3.71524e-05)
(0.00022243 0.000216487 -3.71524e-05)
(0.000181458 0.000251823 -3.7153e-05)
(6.57695e-05 0.000364506 3.83737e-05)
(1.47469e-06 0.000370389 3.83737e-05)
(-6.28646e-05 0.000365017 3.83739e-05)
(-0.000125294 0.000348555 3.8374e-05)
(-0.000183917 0.000321504 3.83739e-05)
(-0.000236951 0.000284682 3.8374e-05)
(-0.000282786 0.000239211 3.83741e-05)
(-0.000320029 0.000186471 3.8374e-05)
(-0.000347547 0.000128066 3.83737e-05)
(-0.000364506 6.57695e-05 3.83737e-05)
(-0.000370389 1.47468e-06 3.83737e-05)
(-0.000365017 -6.28646e-05 3.83738e-05)
(-0.000348555 -0.000125294 3.83739e-05)
(-0.000321504 -0.000183917 3.83739e-05)
(-0.000284682 -0.000236951 3.83739e-05)
(-0.000239211 -0.000282786 3.83741e-05)
(-0.000186471 -0.000320029 3.8374e-05)
(-0.000128066 -0.000347547 3.83737e-05)
(-6.57695e-05 -0.000364506 3.83737e-05)
(-1.47466e-06 -0.000370389 3.83737e-05)
(6.28646e-05 -0.000365017 3.83738e-05)
(0.000125294 -0.000348555 3.83739e-05)
(0.000183917 -0.000321504 3.83739e-05)
(0.000236951 -0.000284682 3.8374e-05)
(0.000282786 -0.000239211 3.83741e-05)
(0.000320029 -0.000186471 3.8374e-05)
(0.000347547 -0.000128066 3.83737e-05)
(0.000364506 -6.57695e-05 3.83737e-05)
(0.000370389 -1.47467e-06 3.83737e-05)
(0.000365017 6.28646e-05 3.83739e-05)
(0.000348555 0.000125294 3.8374e-05)
(0.000321504 0.000183917 3.83739e-05)
(0.000284682 0.000236951 3.8374e-05)
(0.000239211 0.000282786 3.83741e-05)
(0.000186471 0.000320029 3.8374e-05)
(0.000128066 0.000347547 3.83737e-05)
(-4.28656e-05 0.000442444 5.49703e-05)
(-0.000119044 0.000428279 5.49705e-05)
(-0.000191605 0.000401101 5.49704e-05)
(-0.000258345 0.000361735 5.49704e-05)
(-0.000317235 0.000311379 5.49707e-05)
(-0.000366485 0.000251561 5.49706e-05)
(-0.000404601 0.000184099 5.49705e-05)
(-0.000430422 0.000111044 5.49701e-05)
(-0.000443166 3.46151e-05 5.49702e-05)
(-0.000442444 -4.28656e-05 5.49702e-05)
(-0.000428279 -0.000119044 5.49705e-05)
(-0.000401101 -0.000191605 5.49704e-05)
(-0.000361735 -0.000258345 5.49704e-05)
(-0.000311379 -0.000317235 5.49707e-05)
(-0.000251561 -0.000366485 5.49706e-05)
(-0.000184099 -0.000404601 5.49705e-05)
(-0.000111044 -0.000430422 5.49701e-05)
(-3.4615e-05 -0.000443166 5.49702e-05)
(4.28656e-05 -0.000442444 5.49702e-05)
(0.000119044 -0.000428279 5.49705e-05)
(0.000191605 -0.000401101 5.49704e-05)
(0.000258345 -0.000361735 5.49704e-05)
(0.000317235 -0.000311379 5.49707e-05)
(0.000366485 -0.000251561 5.49706e-05)
(0.000404601 -0.000184099 5.49705e-05)
(0.000430422 -0.000111044 5.49701e-05)
(0.000443166 -3.4615e-05 5.49702e-05)
(0.000442444 4.28656e-05 5.49702e-05)
(0.000428279 0.000119044 5.49705e-05)
(0.000401101 0.000191605 5.49704e-05)
(0.000361735 0.000258345 5.49704e-05)
(0.000311379 0.000317235 5.49707e-05)
(0.000251561 0.000366485 5.49706e-05)
(0.000184099 0.000404601 5.49706e-05)
(0.000111044 0.000430422 5.49702e-05)
(3.46151e-05 0.000443166 5.49702e-05)
(0.000255483 0.00093541 9.15754e-05)
(8.91703e-05 0.000965563 9.15749e-05)
(-7.98524e-05 0.000966379 9.15752e-05)
(-0.000246449 0.00093783 9.1577e-05)
(-0.000405557 0.000880788 9.15778e-05)
(-0.000552343 0.000796983 9.15772e-05)
(-0.000682347 0.000688961 9.15773e-05)
(-0.000791618 0.000560006 9.15768e-05)
(-0.000876834 0.000414034 9.15757e-05)
(-0.00093541 0.000255483 9.15754e-05)
(-0.000965563 8.91702e-05 9.15749e-05)
(-0.000966378 -7.98525e-05 9.15752e-05)
(-0.00093783 -0.000246449 9.15769e-05)
(-0.000880788 -0.000405557 9.15778e-05)
(-0.000796983 -0.000552343 9.15772e-05)
(-0.000688961 -0.000682347 9.15773e-05)
(-0.000560006 -0.000791618 9.15768e-05)
(-0.000414034 -0.000876834 9.15757e-05)
(-0.000255483 -0.00093541 9.15754e-05)
(-8.91702e-05 -0.000965563 9.15749e-05)
(7.98525e-05 -0.000966378 9.15752e-05)
(0.000246449 -0.00093783 9.1577e-05)
(0.000405557 -0.000880788 9.15778e-05)
(0.000552343 -0.000796983 9.15772e-05)
(0.000682347 -0.000688961 9.15773e-05)
(0.000791618 -0.000560006 9.15769e-05)
(0.000876834 -0.000414034 9.15758e-05)
(0.00093541 -0.000255483 9.15754e-05)
(0.000965563 -8.91702e-05 9.1575e-05)
(0.000966379 7.98525e-05 9.15752e-05)
(0.000937831 0.000246449 9.1577e-05)
(0.000880788 0.000405557 9.15778e-05)
(0.000796983 0.000552343 9.15772e-05)
(0.000688961 0.000682347 9.15773e-05)
(0.000560006 0.000791618 9.15769e-05)
(0.000414034 0.000876834 9.15758e-05)
(0.000133424 0.00108542 0.000223733)
(-5.70839e-05 0.0010921 0.000223733)
(-0.000245857 0.0010656 0.000223733)
(-0.00042716 0.00100671 0.000223734)
(-0.000595486 0.000917245 0.000223735)
(-0.000745717 0.000799904 0.000223735)
(-0.000873289 0.000658259 0.000223734)
(-0.000974327 0.000496613 0.000223734)
(-0.00104576 0.000319878 0.000223733)
(-0.00108542 0.000133424 0.000223733)
(-0.0010921 -5.7084e-05 0.000223733)
(-0.0010656 -0.000245857 0.000223733)
(-0.00100671 -0.000427161 0.000223734)
(-0.000917245 -0.000595486 0.000223735)
(-0.000799904 -0.000745717 0.000223735)
(-0.000658259 -0.000873289 0.000223734)
(-0.000496613 -0.000974328 0.000223734)
(-0.000319878 -0.00104576 0.000223733)
(-0.000133424 -0.00108542 0.000223733)
(5.7084e-05 -0.0010921 0.000223733)
(0.000245857 -0.0010656 0.000223733)
(0.000427161 -0.00100671 0.000223734)
(0.000595486 -0.000917245 0.000223735)
(0.000745717 -0.000799904 0.000223735)
(0.000873289 -0.000658259 0.000223734)
(0.000974328 -0.000496613 0.000223734)
(0.00104576 -0.000319878 0.000223733)
(0.00108542 -0.000133424 0.000223733)
(0.0010921 5.7084e-05 0.000223733)
(0.0010656 0.000245857 0.000223733)
(0.00100671 0.000427161 0.000223734)
(0.000917245 0.000595486 0.000223735)
(0.000799904 0.000745717 0.000223735)
(0.000658259 0.000873289 0.000223734)
(0.000496613 0.000974328 0.000223734)
(0.000319878 0.00104576 0.000223733)
(-3.62984e-05 0.00121646 0.000319899)
(-0.000246983 0.00119168 0.000319899)
(-0.000450162 0.00113069 0.000319899)
(-0.000639664 0.00103534 0.000319899)
(-0.000809731 0.000908531 0.000319899)
(-0.000955194 0.000754119 0.000319899)
(-0.00107163 0.000576795 0.000319899)
(-0.00115551 0.000381945 0.000319899)
(-0.00120428 0.000175489 0.000319899)
(-0.00121646 -3.62985e-05 0.000319899)
(-0.00119168 -0.000246983 0.000319899)
(-0.00113069 -0.000450162 0.000319899)
(-0.00103534 -0.000639664 0.000319899)
(-0.000908531 -0.000809731 0.000319899)
(-0.000754119 -0.000955194 0.000319899)
(-0.000576795 -0.00107163 0.000319899)
(-0.000381945 -0.00115551 0.000319899)
(-0.000175489 -0.00120428 0.000319899)
(3.62985e-05 -0.00121646 0.000319899)
(0.000246983 -0.00119168 0.000319899)
(0.000450162 -0.00113069 0.000319899)
(0.000639664 -0.00103534 0.000319899)
(0.000809731 -0.000908531 0.000319899)
(0.000955194 -0.000754119 0.000319899)
(0.00107163 -0.000576795 0.000319899)
(0.00115551 -0.000381945 0.000319899)
(0.00120428 -0.000175489 0.000319899)
(0.00121646 3.62985e-05 0.000319899)
(0.00119168 0.000246983 0.000319899)
(0.00113069 0.000450162 0.000319899)
(0.00103534 0.000639664 0.000319899)
(0.000908531 0.000809731 0.000319899)
(0.000754119 0.000955194 0.000319899)
(0.000576795 0.00107163 0.000319899)
(0.000381945 0.00115551 0.000319899)
(0.000175489 0.00120428 0.000319899)
(0.000292782 0.00160507 0.000318411)
(9.61631e-06 0.00163153 0.000318411)
(-0.000273842 0.00160841 0.000318411)
(-0.00054898 0.00153643 0.000318413)
(-0.000807437 0.00141776 0.000318414)
(-0.00104136 0.00125601 0.000318414)
(-0.00124364 0.00105609 0.000318414)
(-0.00140814 0.000824094 0.000318413)
(-0.00152985 0.000567052 0.000318411)
(-0.00160507 0.000292782 0.000318411)
(-0.00163153 9.61623e-06 0.000318411)
(-0.00160841 -0.000273842 0.000318411)
(-0.00153643 -0.00054898 0.000318413)
(-0.00141776 -0.000807437 0.000318414)
(-0.00125601 -0.00104136 0.000318414)
(-0.00105609 -0.00124364 0.000318414)
(-0.000824093 -0.00140814 0.000318413)
(-0.000567052 -0.00152985 0.000318411)
(-0.000292782 -0.00160507 0.000318411)
(-9.61616e-06 -0.00163153 0.000318411)
(0.000273842 -0.00160841 0.000318411)
(0.00054898 -0.00153643 0.000318413)
(0.000807437 -0.00141776 0.000318414)
(0.00104136 -0.00125601 0.000318414)
(0.00124364 -0.00105609 0.000318414)
(0.00140814 -0.000824094 0.000318413)
(0.00152985 -0.000567052 0.000318411)
(0.00160507 -0.000292782 0.000318411)
(0.00163153 -9.61622e-06 0.000318411)
(0.00160841 0.000273842 0.000318411)
(0.00153643 0.00054898 0.000318413)
(0.00141776 0.000807437 0.000318414)
(0.00125601 0.00104136 0.000318414)
(0.00105609 0.00124364 0.000318414)
(0.000824094 0.00140814 0.000318413)
(0.000567053 0.00152985 0.000318411)
(0.000128872 0.00178036 0.000482314)
(-0.000182241 0.00177569 0.000482314)
(-0.000487817 0.00171707 0.000482314)
(-0.00077857 0.00160627 0.000482315)
(-0.00104567 0.00144667 0.000482316)
(-0.00128099 0.00124311 0.000482316)
(-0.0014774 0.00100178 0.000482316)
(-0.00162891 0.000730018 0.000482315)
(-0.00173093 0.00043607 0.000482314)
(-0.00178036 0.000128872 0.000482314)
(-0.00177569 -0.000182241 0.000482314)
(-0.00171706 -0.000487817 0.000482314)
(-0.00160627 -0.00077857 0.000482315)
(-0.00144667 -0.00104567 0.000482316)
(-0.00124311 -0.00128099 0.000482315)
(-0.00100178 -0.0014774 0.000482316)
(-0.000730018 -0.00162891 0.000482315)
(-0.00043607 -0.00173093 0.000482314)
(-0.000128872 -0.00178036 0.000482314)
(0.000182241 -0.00177569 0.000482314)
(0.000487817 -0.00171706 0.000482314)
(0.00077857 -0.00160627 0.000482315)
(0.00104567 -0.00144667 0.000482316)
(0.00128099 -0.00124311 0.000482316)
(0.0014774 -0.00100178 0.000482316)
(0.00162891 -0.000730018 0.000482315)
(0.00173093 -0.00043607 0.000482314)
(0.00178036 -0.000128872 0.000482314)
(0.00177569 0.000182241 0.000482314)
(0.00171707 0.000487817 0.000482314)
(0.00160627 0.00077857 0.000482315)
(0.00144667 0.00104567 0.000482316)
(0.00124311 0.00128099 0.000482316)
(0.00100179 0.0014774 0.000482316)
(0.000730018 0.00162891 0.000482315)
(0.00043607 0.00173093 0.000482314)
(-7.73394e-05 0.00193259 0.000617116)
(-0.000411755 0.0018898 0.000617116)
(-0.000733659 0.00178959 0.000617116)
(-0.00103327 0.00163501 0.000617116)
(-0.00130149 0.00143074 0.000617116)
(-0.00153016 0.001183 0.000617116)
(-0.00171234 0.000899318 0.000617116)
(-0.00184249 0.00058831 0.000617116)
(-0.00191666 0.000259427 0.000617116)
(-0.00193259 -7.73395e-05 0.000617116)
(-0.0018898 -0.000411755 0.000617115)
(-0.00178959 -0.000733659 0.000617116)
(-0.00163501 -0.00103327 0.000617116)
(-0.00143074 -0.00130149 0.000617116)
(-0.001183 -0.00153016 0.000617116)
(-0.000899318 -0.00171234 0.000617116)
(-0.00058831 -0.00184249 0.000617116)
(-0.000259427 -0.00191666 0.000617116)
(7.73395e-05 -0.00193259 0.000617115)
(0.000411755 -0.0018898 0.000617115)
(0.000733659 -0.00178959 0.000617116)
(0.00103327 -0.00163501 0.000617116)
(0.00130149 -0.00143074 0.000617116)
(0.00153016 -0.001183 0.000617116)
(0.00171234 -0.000899318 0.000617116)
(0.00184249 -0.00058831 0.000617116)
(0.00191666 -0.000259427 0.000617116)
(0.00193259 7.73395e-05 0.000617116)
(0.0018898 0.000411755 0.000617116)
(0.00178959 0.000733659 0.000617116)
(0.00163501 0.00103327 0.000617116)
(0.00143074 0.00130149 0.000617116)
(0.001183 0.00153016 0.000617116)
(0.000899318 0.00171234 0.000617116)
(0.00058831 0.00184249 0.000617116)
(0.000259427 0.00191666 0.000617116)
(0.000216092 0.00226366 0.000584237)
(-0.000180271 0.00226679 0.000584236)
(-0.000571157 0.00220105 0.000584237)
(-0.000944687 0.00206843 0.000584238)
(-0.00128951 0.00187296 0.000584239)
(-0.00159516 0.00162059 0.00058424)
(-0.00185234 0.00131897 0.00058424)
(-0.00205323 0.000977276 0.000584239)
(-0.00219174 0.000605889 0.000584238)
(-0.00226366 0.000216092 0.000584237)
(-0.00226679 -0.000180271 0.000584236)
(-0.00220105 -0.000571157 0.000584237)
(-0.00206843 -0.000944687 0.000584238)
(-0.00187296 -0.00128951 0.000584239)
(-0.00162059 -0.00159516 0.00058424)
(-0.00131897 -0.00185234 0.000584239)
(-0.000977276 -0.00205323 0.000584239)
(-0.000605889 -0.00219174 0.000584238)
(-0.000216092 -0.00226366 0.000584237)
(0.000180271 -0.00226679 0.000584236)
(0.000571157 -0.00220105 0.000584237)
(0.000944687 -0.00206843 0.000584238)
(0.00128951 -0.00187296 0.000584239)
(0.00159516 -0.00162059 0.00058424)
(0.00185234 -0.00131897 0.00058424)
(0.00205323 -0.000977276 0.000584239)
(0.00219174 -0.000605889 0.000584238)
(0.00226366 -0.000216092 0.000584237)
(0.00226679 0.000180271 0.000584236)
(0.00220105 0.000571157 0.000584237)
(0.00206843 0.000944687 0.000584238)
(0.00187296 0.00128951 0.000584239)
(0.00162059 0.00159516 0.00058424)
(0.00131897 0.00185234 0.00058424)
(0.000977276 0.00205323 0.000584239)
(0.000605889 0.00219174 0.000584238)
(4.11211e-05 0.00242849 0.000759529)
(-0.000381206 0.00239874 0.000759528)
(-0.000791951 0.0022961 0.000759528)
(-0.00117863 0.00212369 0.000759529)
(-0.0015295 0.00188676 0.000759529)
(-0.0018339 0.0015925 0.000759529)
(-0.00208257 0.00124986 0.00075953)
(-0.00226797 0.000869234 0.000759529)
(-0.00238445 0.000462199 0.000759529)
(-0.00242849 4.1121e-05 0.000759528)
(-0.00239874 -0.000381206 0.000759528)
(-0.0022961 -0.000791951 0.000759528)
(-0.00212369 -0.00117863 0.000759529)
(-0.00188676 -0.0015295 0.000759529)
(-0.0015925 -0.0018339 0.000759529)
(-0.00124986 -0.00208257 0.00075953)
(-0.000869233 -0.00226797 0.000759529)
(-0.000462199 -0.00238445 0.000759529)
(-4.11209e-05 -0.00242849 0.000759528)
(0.000381206 -0.00239874 0.000759528)
(0.000791951 -0.0022961 0.000759528)
(0.00117863 -0.00212369 0.000759529)
(0.0015295 -0.00188676 0.000759529)
(0.0018339 -0.0015925 0.000759529)
(0.00208257 -0.00124986 0.00075953)
(0.00226797 -0.000869234 0.000759529)
(0.00238445 -0.000462199 0.000759529)
(0.00242849 -4.1121e-05 0.000759529)
(0.00239874 0.000381206 0.000759528)
(0.0022961 0.000791951 0.000759528)
(0.00212369 0.00117863 0.000759529)
(0.00188676 0.0015295 0.000759529)
(0.0015925 0.0018339 0.000759529)
(0.00124986 0.00208257 0.00075953)
(0.000869234 0.00226797 0.000759529)
(0.000462199 0.00238445 0.000759529)
(-0.000171164 0.00257007 0.000909017)
(-0.000614852 0.00250131 0.000909017)
(-0.00103986 0.00235654 0.000909017)
(-0.00143327 0.00214017 0.000909017)
(-0.00178313 0.00185877 0.000909017)
(-0.00207881 0.00152089 0.000909017)
(-0.00231133 0.0011368 0.000909017)
(-0.00247362 0.000718176 0.000909017)
(-0.00256075 0.000277725 0.000909017)
(-0.00257007 -0.000171164 0.000909017)
(-0.00250131 -0.000614852 0.000909017)
(-0.00235654 -0.00103986 0.000909017)
(-0.00214017 -0.00143327 0.000909017)
(-0.00185877 -0.00178313 0.000909016)
(-0.00152089 -0.00207881 0.000909017)
(-0.0011368 -0.00231133 0.000909017)
(-0.000718176 -0.00247362 0.000909017)
(-0.000277725 -0.00256075 0.000909017)
(0.000171164 -0.00257007 0.000909017)
(0.000614852 -0.00250131 0.000909017)
(0.00103986 -0.00235654 0.000909017)
(0.00143327 -0.00214017 0.000909017)
(0.00178313 -0.00185877 0.000909017)
(0.00207881 -0.00152089 0.000909017)
(0.00231133 -0.0011368 0.000909017)
(0.00247362 -0.000718176 0.000909017)
(0.00256075 -0.000277725 0.000909017)
(0.00257007 0.000171164 0.000909017)
(0.00250131 0.000614852 0.000909017)
(0.00235654 0.00103986 0.000909017)
(0.00214017 0.00143327 0.000909017)
(0.00185877 0.00178313 0.000909017)
(0.00152089 0.00207881 0.000909017)
(0.0011368 0.00231133 0.000909017)
(0.000718176 0.00247362 0.000909017)
(0.000277725 0.00256075 0.000909017)
(4.59105e-05 0.00287441 0.000852984)
(-0.000453922 0.00283871 0.000852982)
(-0.000939963 0.00271676 0.000852983)
(-0.00139744 0.00251226 0.000852984)
(-0.00181246 0.00223143 0.000852984)
(-0.00217241 0.0018828 0.000852985)
(-0.00246635 0.00147696 0.000852985)
(-0.00268535 0.00102625 0.000852985)
(-0.00282276 0.000544348 0.000852985)
(-0.00287441 4.59104e-05 0.000852984)
(-0.00283871 -0.000453922 0.000852982)
(-0.00271676 -0.000939964 0.000852983)
(-0.00251226 -0.00139744 0.000852984)
(-0.00223143 -0.00181246 0.000852984)
(-0.0018828 -0.00217241 0.000852985)
(-0.00147696 -0.00246635 0.000852985)
(-0.00102625 -0.00268535 0.000852985)
(-0.000544348 -0.00282276 0.000852985)
(-4.59102e-05 -0.00287441 0.000852984)
(0.000453922 -0.00283871 0.000852982)
(0.000939964 -0.00271676 0.000852983)
(0.00139744 -0.00251226 0.000852984)
(0.00181246 -0.00223143 0.000852985)
(0.00217241 -0.0018828 0.000852985)
(0.00246635 -0.00147696 0.000852985)
(0.00268535 -0.00102625 0.000852985)
(0.00282276 -0.000544348 0.000852985)
(0.00287441 -4.59103e-05 0.000852984)
(0.00283871 0.000453922 0.000852982)
(0.00271676 0.000939964 0.000852983)
(0.00251227 0.00139744 0.000852984)
(0.00223143 0.00181246 0.000852985)
(0.0018828 0.00217241 0.000852985)
(0.00147696 0.00246635 0.000852985)
(0.00102625 0.00268535 0.000852985)
(0.000544349 0.00282276 0.000852985)
(-0.000120722 0.00300749 0.00102741)
(-0.000641133 0.00294083 0.0010274)
(-0.00114206 0.00278483 0.00102741)
(-0.00160829 0.0025442 0.00102741)
(-0.00202565 0.00222627 0.00102741)
(-0.00238147 0.0018407 0.00102741)
(-0.00266492 0.0013992 0.00102741)
(-0.0028674 0.000915181 0.00102741)
(-0.00298276 0.000403357 0.00102741)
(-0.00300749 -0.000120722 0.00102741)
(-0.00294083 -0.000641133 0.0010274)
(-0.00278483 -0.00114206 0.00102741)
(-0.0025442 -0.00160829 0.00102741)
(-0.00222627 -0.00202565 0.00102741)
(-0.0018407 -0.00238147 0.00102741)
(-0.0013992 -0.00266492 0.00102741)
(-0.000915181 -0.0028674 0.00102741)
(-0.000403357 -0.00298276 0.00102741)
(0.000120722 -0.00300749 0.00102741)
(0.000641133 -0.00294083 0.0010274)
(0.00114206 -0.00278483 0.00102741)
(0.00160829 -0.0025442 0.00102741)
(0.00202565 -0.00222627 0.00102741)
(0.00238147 -0.0018407 0.00102741)
(0.00266492 -0.0013992 0.00102741)
(0.0028674 -0.000915181 0.00102741)
(0.00298276 -0.000403357 0.00102741)
(0.00300749 0.000120722 0.00102741)
(0.00294083 0.000641133 0.0010274)
(0.00278483 0.00114206 0.00102741)
(0.0025442 0.00160829 0.00102741)
(0.00222627 0.00202565 0.00102741)
(0.0018407 0.00238147 0.00102741)
(0.0013992 0.00266492 0.00102741)
(0.000915181 0.0028674 0.00102741)
(0.000403357 0.00298276 0.00102741)
(-0.000320146 0.00311837 0.00117761)
(-0.000856781 0.0030154 0.00117761)
(-0.00136738 0.00282081 0.00117761)
(-0.00183644 0.00254051 0.00117761)
(-0.00224969 0.00218302 0.00117761)
(-0.00259459 0.0017592 0.00117761)
(-0.00286066 0.00128193 0.00117761)
(-0.0030398 0.000765705 0.00117761)
(-0.00312658 0.000226217 0.00117761)
(-0.00311837 -0.000320146 0.00117761)
(-0.0030154 -0.000856781 0.00117761)
(-0.00282081 -0.00136738 0.00117761)
(-0.00254051 -0.00183644 0.00117761)
(-0.00218302 -0.00224969 0.00117761)
(-0.0017592 -0.00259459 0.00117761)
(-0.00128193 -0.00286066 0.00117761)
(-0.000765705 -0.0030398 0.00117761)
(-0.000226216 -0.00312658 0.00117761)
(0.000320147 -0.00311837 0.00117761)
(0.000856781 -0.0030154 0.00117761)
(0.00136738 -0.00282081 0.00117761)
(0.00183644 -0.00254051 0.00117761)
(0.00224969 -0.00218302 0.00117761)
(0.00259459 -0.0017592 0.00117761)
(0.00286066 -0.00128193 0.00117761)
(0.0030398 -0.000765705 0.00117761)
(0.00312658 -0.000226217 0.00117761)
(0.00311837 0.000320146 0.00117761)
(0.0030154 0.000856781 0.00117761)
(0.00282081 0.00136738 0.00117761)
(0.00254051 0.00183644 0.00117761)
(0.00218302 0.00224969 0.00117761)
(0.0017592 0.00259459 0.00117761)
(0.00128193 0.00286066 0.00117761)
(0.000765706 0.0030398 0.00117761)
(0.000226217 0.00312658 0.00117761)
(-0.000184947 0.00340308 0.00110809)
(-0.000773076 0.00331927 0.00110808)
(-0.00133772 0.0031346 0.00110808)
(-0.00186171 0.00285468 0.00110808)
(-0.00232913 0.00248803 0.00110808)
(-0.00272579 0.00204578 0.00110808)
(-0.00303963 0.00154137 0.00110808)
(-0.00326111 0.00099013 0.00110808)
(-0.0033835 0.000408802 0.00110809)
(-0.00340308 -0.000184947 0.00110808)
(-0.00331927 -0.000773076 0.00110808)
(-0.0031346 -0.00133772 0.00110808)
(-0.00285468 -0.00186171 0.00110808)
(-0.00248803 -0.00232913 0.00110808)
(-0.00204578 -0.00272579 0.00110808)
(-0.00154137 -0.00303963 0.00110808)
(-0.00099013 -0.00326111 0.00110808)
(-0.000408802 -0.0033835 0.00110809)
(0.000184947 -0.00340308 0.00110808)
(0.000773076 -0.00331927 0.00110808)
(0.00133772 -0.0031346 0.00110808)
(0.00186171 -0.00285468 0.00110808)
(0.00232914 -0.00248803 0.00110808)
(0.00272579 -0.00204578 0.00110808)
(0.00303963 -0.00154137 0.00110808)
(0.00326111 -0.00099013 0.00110809)
(0.0033835 -0.000408802 0.00110809)
(0.00340308 0.000184947 0.00110809)
(0.00331927 0.000773076 0.00110808)
(0.0031346 0.00133772 0.00110808)
(0.00285468 0.00186171 0.00110808)
(0.00248803 0.00232914 0.00110808)
(0.00204578 0.00272579 0.00110808)
(0.00154137 0.00303963 0.00110808)
(0.00099013 0.00326111 0.00110809)
(0.000408803 0.0033835 0.00110809)
(-0.000336716 0.00349402 0.00127444)
(-0.000938331 0.00338247 0.00127444)
(-0.00151143 0.00316814 0.00127444)
(-0.00203861 0.00285755 0.00127444)
(-0.00250385 0.00246014 0.00127444)
(-0.00289301 0.00198797 0.00127444)
(-0.00319426 0.0014554 0.00127444)
(-0.00339846 0.000878615 0.00127444)
(-0.0034994 0.000275129 0.00127444)
(-0.00349402 -0.000336716 0.00127444)
(-0.00338247 -0.000938331 0.00127444)
(-0.00316814 -0.00151143 0.00127444)
(-0.00285755 -0.00203861 0.00127444)
(-0.00246014 -0.00250385 0.00127444)
(-0.00198797 -0.00289301 0.00127444)
(-0.0014554 -0.00319426 0.00127444)
(-0.000878615 -0.00339846 0.00127444)
(-0.000275129 -0.0034994 0.00127444)
(0.000336716 -0.00349402 0.00127444)
(0.000938331 -0.00338247 0.00127444)
(0.00151143 -0.00316814 0.00127444)
(0.00203861 -0.00285755 0.00127444)
(0.00250385 -0.00246014 0.00127444)
(0.00289301 -0.00198797 0.00127444)
(0.00319426 -0.0014554 0.00127444)
(0.00339846 -0.000878615 0.00127444)
(0.0034994 -0.000275129 0.00127444)
(0.00349402 0.000336716 0.00127444)
(0.00338247 0.000938331 0.00127444)
(0.00316814 0.00151143 0.00127444)
(0.00285755 0.00203861 0.00127444)
(0.00246014 0.00250385 0.00127444)
(0.00198797 0.00289301 0.00127444)
(0.0014554 0.00319426 0.00127444)
(0.000878616 0.00339846 0.00127444)
(0.000275129 0.0034994 0.00127444)
(-0.000515932 0.00356506 0.00141702)
(-0.00112716 0.00342131 0.00141703)
(-0.00170414 0.0031736 0.00141702)
(-0.00222934 0.00282947 0.00141703)
(-0.00268681 0.00239936 0.00141702)
(-0.00306263 0.00189635 0.00141703)
(-0.0033454 0.00133572 0.00141702)
(-0.00352652 0.000734507 0.00141702)
(-0.00360049 0.000110973 0.00141702)
(-0.00356506 -0.000515932 0.00141702)
(-0.00342131 -0.00112716 0.00141702)
(-0.0031736 -0.00170414 0.00141702)
(-0.00282947 -0.00222934 0.00141702)
(-0.00239936 -0.00268681 0.00141702)
(-0.00189635 -0.00306263 0.00141702)
(-0.00133572 -0.0033454 0.00141702)
(-0.000734507 -0.00352652 0.00141702)
(-0.000110973 -0.00360049 0.00141702)
(0.000515932 -0.00356506 0.00141702)
(0.00112716 -0.00342131 0.00141702)
(0.00170414 -0.0031736 0.00141702)
(0.00222934 -0.00282947 0.00141703)
(0.00268681 -0.00239936 0.00141702)
(0.00306263 -0.00189635 0.00141703)
(0.0033454 -0.00133572 0.00141702)
(0.00352652 -0.000734507 0.00141703)
(0.00360049 -0.000110973 0.00141702)
(0.00356506 0.000515932 0.00141702)
(0.00342131 0.00112716 0.00141703)
(0.0031736 0.00170414 0.00141703)
(0.00282947 0.00222934 0.00141703)
(0.00239936 0.00268681 0.00141703)
(0.00189635 0.00306263 0.00141703)
(0.00133572 0.0033454 0.00141703)
(0.000734507 0.00352652 0.00141703)
(0.000110973 0.00360049 0.00141702)
(-0.000439567 0.00382331 0.00135267)
(-0.0010968 0.00368889 0.00135267)
(-0.00172071 0.00344239 0.00135267)
(-0.00229233 0.0030913 0.00135267)
(-0.0027943 0.00264627 0.00135267)
(-0.00321137 0.00212084 0.00135267)
(-0.00353086 0.00153098 0.00135267)
(-0.00374307 0.000894588 0.00135267)
(-0.00384155 0.000231019 0.00135267)
(-0.0038233 -0.000439567 0.00135267)
(-0.00368889 -0.0010968 0.00135267)
(-0.00344239 -0.00172071 0.00135267)
(-0.0030913 -0.00229233 0.00135267)
(-0.00264627 -0.0027943 0.00135267)
(-0.00212084 -0.00321137 0.00135267)
(-0.00153098 -0.00353086 0.00135267)
(-0.000894588 -0.00374307 0.00135267)
(-0.000231019 -0.00384155 0.00135267)
(0.000439567 -0.00382331 0.00135267)
(0.0010968 -0.00368889 0.00135267)
(0.00172071 -0.00344239 0.00135267)
(0.00229233 -0.0030913 0.00135267)
(0.0027943 -0.00264627 0.00135267)
(0.00321137 -0.00212084 0.00135267)
(0.00353086 -0.00153098 0.00135267)
(0.00374307 -0.000894588 0.00135267)
(0.00384155 -0.000231019 0.00135267)
(0.00382331 0.000439567 0.00135267)
(0.00368889 0.0010968 0.00135267)
(0.00344239 0.00172071 0.00135267)
(0.0030913 0.00229233 0.00135267)
(0.00264627 0.0027943 0.00135267)
(0.00212084 0.00321137 0.00135267)
(0.00153098 0.00353086 0.00135267)
(0.000894588 0.00374307 0.00135267)
(0.00023102 0.00384155 0.00135267)
(-0.000579275 0.00386576 0.0015046)
(-0.00124176 0.00370644 0.0015046)
(-0.00186651 0.0034345 0.0015046)
(-0.00243454 0.0030582 0.0015046)
(-0.00292861 0.00258899 0.0015046)
(-0.00333369 0.00204111 0.0015046)
(-0.00363748 0.00143121 0.0015046)
(-0.00383074 0.000777826 0.0015046)
(-0.00390761 0.000100806 0.0015046)
(-0.00386575 -0.000579275 0.0015046)
(-0.00370644 -0.00124176 0.0015046)
(-0.0034345 -0.00186651 0.0015046)
(-0.0030582 -0.00243454 0.0015046)
(-0.00258899 -0.00292861 0.0015046)
(-0.00204111 -0.00333369 0.0015046)
(-0.00143121 -0.00363748 0.0015046)
(-0.000777826 -0.00383074 0.0015046)
(-0.000100806 -0.00390761 0.0015046)
(0.000579275 -0.00386575 0.0015046)
(0.00124176 -0.00370644 0.0015046)
(0.00186651 -0.0034345 0.0015046)
(0.00243455 -0.0030582 0.0015046)
(0.00292861 -0.00258899 0.0015046)
(0.00333369 -0.00204111 0.0015046)
(0.00363748 -0.00143121 0.0015046)
(0.00383074 -0.000777826 0.0015046)
(0.00390762 -0.000100806 0.0015046)
(0.00386576 0.000579275 0.0015046)
(0.00370644 0.00124176 0.0015046)
(0.0034345 0.00186651 0.0015046)
(0.0030582 0.00243454 0.0015046)
(0.00258899 0.00292861 0.0015046)
(0.00204111 0.00333369 0.0015046)
(0.00143121 0.00363748 0.0015046)
(0.000777826 0.00383074 0.0015046)
(0.000100806 0.00390762 0.0015046)
(-0.000739147 0.00389346 0.00163198)
(-0.00140401 0.00370596 0.00163198)
(-0.00202621 0.00340585 0.00163198)
(-0.00258685 0.00300226 0.00163198)
(-0.00306889 0.00250745 0.00163198)
(-0.00345768 0.00193645 0.00163198)
(-0.00374141 0.00130661 0.00163198)
(-0.00391146 0.000637072 0.00163198)
(-0.00396266 -5.18241e-05 0.00163198)
(-0.00389346 -0.000739147 0.00163198)
(-0.00370596 -0.00140401 0.00163198)
(-0.00340585 -0.00202621 0.00163198)
(-0.00300226 -0.00258685 0.00163198)
(-0.00250745 -0.00306889 0.00163198)
(-0.00193645 -0.00345768 0.00163198)
(-0.00130661 -0.00374141 0.00163198)
(-0.000637072 -0.00391146 0.00163198)
(5.18243e-05 -0.00396266 0.00163198)
(0.000739147 -0.00389346 0.00163198)
(0.00140401 -0.00370596 0.00163198)
(0.00202621 -0.00340585 0.00163198)
(0.00258685 -0.00300226 0.00163198)
(0.00306889 -0.00250745 0.00163198)
(0.00345768 -0.00193645 0.00163198)
(0.00374141 -0.00130661 0.00163198)
(0.00391146 -0.000637072 0.00163198)
(0.00396266 5.18241e-05 0.00163198)
(0.00389346 0.000739147 0.00163198)
(0.00370596 0.00140401 0.00163198)
(0.00340585 0.00202621 0.00163198)
(0.00300226 0.00258685 0.00163198)
(0.00250745 0.00306889 0.00163198)
(0.00193645 0.00345768 0.00163198)
(0.00130661 0.00374141 0.00163198)
(0.000637072 0.00391146 0.00163198)
(-5.18239e-05 0.00396266 0.00163198)
(-0.000678319 0.00411416 0.0016043)
(-0.00138243 0.00393387 0.0016043)
(-0.00204454 0.00363405 0.0016043)
(-0.00264452 0.00322381 0.0016043)
(-0.00316416 0.00271562 0.00160429)
(-0.00358765 0.00212491 0.0016043)
(-0.00390213 0.00146964 0.0016043)
(-0.00409805 0.000769713 0.0016043)
(-0.00416945 4.64007e-05 0.0016043)
(-0.00411416 -0.00067832 0.0016043)
(-0.00393387 -0.00138243 0.0016043)
(-0.00363405 -0.00204454 0.0016043)
(-0.00322381 -0.00264452 0.0016043)
(-0.00271562 -0.00316416 0.00160429)
(-0.00212491 -0.00358765 0.0016043)
(-0.00146964 -0.00390213 0.0016043)
(-0.000769713 -0.00409805 0.0016043)
(-4.64004e-05 -0.00416945 0.0016043)
(0.00067832 -0.00411416 0.0016043)
(0.00138243 -0.00393387 0.0016043)
(0.00204454 -0.00363405 0.0016043)
(0.00264452 -0.00322381 0.0016043)
(0.00316416 -0.00271562 0.00160429)
(0.00358765 -0.00212491 0.0016043)
(0.00390213 -0.00146964 0.0016043)
(0.00409805 -0.000769713 0.0016043)
(0.00416945 -4.64006e-05 0.0016043)