/*--------------------------------*- C++ -*----------------------------------*\
| =========                 |                                                 |
| \\      /  F ield         | OpenFOAM: The Open Source CFD Toolbox           |
|  \\    /   O peration     | Version:  2312                                  |
|   \\  /    A nd           | Website:  www.openfoam.com                      |
|    \\/     M anipulation  |                                                 |
\*---------------------------------------------------------------------------*/
FoamFile
{
    version     2.0;
    format      ascii;
    arch        "LSB;label=32;scalar=64";
    class       pointVectorField;
    location    "1";
    object      pointD;
}
// * * * * * * * * * * * * * * * * * * * * * * * * * * * * * * * * * * * * * //

dimensions      [0 1 0 0 0 0 0];

internalField   nonuniform List<vector> 
2164
(
(0 0 0)
(0 0 0)
(0 0 0)
(0 0 0)
(0 0 0)
(0 0 0)
(0 0 0)
(0 0 0)
(0 0 0)
(0 0 0)
(0 0 0)
(0 0 0)
(0 0 0)
(0 0 0)
(0 0 0)
(0 0 0)
(0 0 0)
(0 0 0)
(0 0 0)
(0 0 0)
(0 0 0)
(0 0 0)
(0 0 0)
(0 0 0)
(0 0 0)
(0 0 0)
(0 0 0)
(0 0 0)
(0 0 0)
(0 0 0)
(0 0 0)
(0 0 0)
(0 0 0)
(0 0 0)
(0 0 0)
(0 0 0)
(0.00020767 0.000568445 -4.13122e-05)
(0.000105806 0.000595871 -4.13119e-05)
(7.26498e-07 0.000605192 -4.13108e-05)
(-0.000104374 0.000596124 -4.13101e-05)
(-0.000206304 0.000568944 -4.13104e-05)
(-0.000301967 0.000524476 -4.13099e-05)
(-0.000388454 0.000464071 -4.13096e-05)
(-0.000463137 0.000389567 -4.1311e-05)
(-0.000523748 0.000303225 -4.13112e-05)
(-0.000568445 0.00020767 -4.13122e-05)
(-0.000595871 0.000105806 -4.1312e-05)
(-0.000605192 7.26456e-07 -4.13108e-05)
(-0.000596124 -0.000104374 -4.13101e-05)
(-0.000568944 -0.000206304 -4.13104e-05)
(-0.000524476 -0.000301967 -4.13099e-05)
(-0.000464071 -0.000388454 -4.13096e-05)
(-0.000389567 -0.000463137 -4.1311e-05)
(-0.000303225 -0.000523748 -4.13112e-05)
(-0.00020767 -0.000568445 -4.13122e-05)
(-0.000105806 -0.000595871 -4.1312e-05)
(-7.26433e-07 -0.000605192 -4.13108e-05)
(0.000104374 -0.000596124 -4.13101e-05)
(0.000206304 -0.000568944 -4.13104e-05)
(0.000301967 -0.000524476 -4.13099e-05)
(0.000388454 -0.000464071 -4.13096e-05)
(0.000463137 -0.000389567 -4.1311e-05)
(0.000523748 -0.000303225 -4.13112e-05)
(0.000568445 -0.00020767 -4.13122e-05)
(0.000595871 -0.000105806 -4.13119e-05)
(0.000605192 -7.26465e-07 -4.13108e-05)
(0.000596124 0.000104374 -4.13101e-05)
(0.000568944 0.000206304 -4.13104e-05)
(0.000524476 0.000301967 -4.13099e-05)
(0.000464071 0.000388454 -4.13096e-05)
(0.000389567 0.000463137 -4.1311e-05)
(0.000303225 0.000523748 -4.13112e-05)
(0.0001057 0.000684631 7.25961e-05)
(-1.47903e-05 0.000692584 7.25956e-05)
(-0.000134831 0.000679494 7.25964e-05)
(-0.000250776 0.000645758 7.25974e-05)
(-0.000359101 0.000592401 7.25973e-05)
(-0.000456515 0.000521044 7.2597e-05)
(-0.000540057 0.000433855 7.25969e-05)
(-0.000607192 0.000333483 7.25967e-05)
(-0.000655875 0.000222979 7.25961e-05)
(-0.000684631 0.0001057 7.25961e-05)
(-0.000692584 -1.47903e-05 7.25956e-05)
(-0.000679494 -0.000134831 7.25964e-05)
(-0.000645758 -0.000250776 7.25973e-05)
(-0.000592401 -0.000359101 7.25973e-05)
(-0.000521044 -0.000456515 7.2597e-05)
(-0.000433855 -0.000540057 7.25969e-05)
(-0.000333483 -0.000607192 7.25967e-05)
(-0.000222979 -0.000655875 7.25961e-05)
(-0.0001057 -0.000684631 7.25961e-05)
(1.47903e-05 -0.000692584 7.25956e-05)
(0.000134831 -0.000679494 7.25964e-05)
(0.000250776 -0.000645758 7.25973e-05)
(0.000359102 -0.000592401 7.25973e-05)
(0.000456515 -0.000521044 7.2597e-05)
(0.000540057 -0.000433855 7.25969e-05)
(0.000607192 -0.000333483 7.25967e-05)
(0.000655875 -0.000222979 7.25961e-05)
(0.000684631 -0.0001057 7.25961e-05)
(0.000692584 1.47903e-05 7.25956e-05)
(0.000679494 0.000134831 7.25964e-05)
(0.000645758 0.000250776 7.25974e-05)
(0.000592401 0.000359101 7.25973e-05)
(0.000521044 0.000456515 7.2597e-05)
(0.000433855 0.000540057 7.25969e-05)
(0.000333483 0.000607192 7.25967e-05)
(0.000222979 0.000655875 7.25961e-05)
(0 0 0)
(0 0 0)
(0 0 0)
(0 0 0)
(0 0 0)
(0 0 0)
(0 0 0)
(0 0 0)
(0 0 0)
(0 0 0)
(0 0 0)
(0 0 0)
(0 0 0)
(0 0 0)
(0 0 0)
(0 0 0)
(0 0 0)
(0 0 0)
(0 0 0)
(0 0 0)
(0 0 0)
(0 0 0)
(0 0 0)
(0 0 0)
(0 0 0)
(0 0 0)
(0 0 0)
(0 0 0)
(0 0 0)
(0 0 0)
(0 0 0)
(0 0 0)
(0 0 0)
(0 0 0)
(0 0 0)
(0 0 0)
(-2.5153e-05 0.000793762 0.000159758)
(-0.000162605 0.000777335 0.000159758)
(-0.000295118 0.00073729 0.000159759)
(-0.000418662 0.000674842 0.000159758)
(-0.000529487 0.000591889 0.000159759)
(-0.000624224 0.000490952 0.000159759)
(-0.000699993 0.000375098 0.000159758)
(-0.000754495 0.000247846 0.000159758)
(-0.00078607 0.000113065 0.000159758)
(-0.000793762 -2.5153e-05 0.000159758)
(-0.000777335 -0.000162605 0.000159758)
(-0.000737289 -0.000295118 0.000159759)
(-0.000674842 -0.000418662 0.000159758)
(-0.000591889 -0.000529487 0.000159759)
(-0.000490952 -0.000624224 0.000159759)
(-0.000375098 -0.000699993 0.000159758)
(-0.000247846 -0.000754495 0.000159758)
(-0.000113065 -0.00078607 0.000159758)
(2.51531e-05 -0.000793762 0.000159758)
(0.000162605 -0.000777335 0.000159758)
(0.000295118 -0.000737289 0.000159759)
(0.000418662 -0.000674842 0.000159758)
(0.000529487 -0.000591889 0.000159759)
(0.000624224 -0.000490952 0.000159759)
(0.000699993 -0.000375098 0.000159758)
(0.000754495 -0.000247846 0.000159758)
(0.00078607 -0.000113065 0.000159758)
(0.000793762 2.51531e-05 0.000159758)
(0.000777335 0.000162605 0.000159758)
(0.00073729 0.000295118 0.000159759)
(0.000674842 0.000418662 0.000159758)
(0.000591889 0.000529487 0.000159759)
(0.000490952 0.000624224 0.000159759)
(0.000375098 0.000699993 0.000159758)
(0.000247846 0.000754495 0.000159758)
(0.000113065 0.00078607 0.000159758)
(0 0 0)
(0 0 0)
(0 0 0)
(0 0 0)
(0 0 0)
(0 0 0)
(0 0 0)
(0 0 0)
(0 0 0)
(0 0 0)
(0 0 0)
(0 0 0)
(0 0 0)
(0 0 0)
(0 0 0)
(0 0 0)
(0 0 0)
(0 0 0)
(0 0 0)
(0 0 0)
(0 0 0)
(0 0 0)
(0 0 0)
(0 0 0)
(0 0 0)
(0 0 0)
(0 0 0)
(0 0 0)
(0 0 0)
(0 0 0)
(0 0 0)
(0 0 0)
(0 0 0)
(0 0 0)
(0 0 0)
(0 0 0)
(-0.000180624 0.000886202 0.00021395)
(-0.000331767 0.000841374 0.00021395)
(-0.00047283 0.000770981 0.00021395)
(-0.000599526 0.000677161 0.00021395)
(-0.000708005 0.000562767 0.00021395)
(-0.000794973 0.000431272 0.00021395)
(-0.000857785 0.000286675 0.00021395)
(-0.000894534 0.000133367 0.00021395)
(-0.000904103 -2.39925e-05 0.00021395)
(-0.000886202 -0.000180624 0.00021395)
(-0.000841374 -0.000331767 0.00021395)
(-0.000770981 -0.00047283 0.00021395)
(-0.000677161 -0.000599526 0.00021395)
(-0.000562767 -0.000708005 0.00021395)
(-0.000431272 -0.000794973 0.00021395)
(-0.000286675 -0.000857785 0.00021395)
(-0.000133367 -0.000894534 0.00021395)
(2.39926e-05 -0.000904103 0.00021395)
(0.000180624 -0.000886202 0.00021395)
(0.000331767 -0.000841374 0.00021395)
(0.00047283 -0.000770981 0.00021395)
(0.000599526 -0.000677161 0.00021395)
(0.000708006 -0.000562767 0.00021395)
(0.000794973 -0.000431272 0.00021395)
(0.000857785 -0.000286675 0.00021395)
(0.000894534 -0.000133367 0.00021395)
(0.000904103 2.39926e-05 0.00021395)
(0.000886202 0.000180624 0.00021395)
(0.000841374 0.000331767 0.00021395)
(0.000770981 0.00047283 0.00021395)
(0.000677161 0.000599526 0.00021395)
(0.000562767 0.000708006 0.00021395)
(0.000431272 0.000794973 0.00021395)
(0.000286675 0.000857785 0.00021395)
(0.000133367 0.000894534 0.00021395)
(-2.39925e-05 0.000904103 0.00021395)
(0 0 0)
(0 0 0)
(0 0 0)
(0 0 0)
(0 0 0)
(0 0 0)
(0 0 0)
(0 0 0)
(0 0 0)
(0 0 0)
(0 0 0)
(0 0 0)
(0 0 0)
(0 0 0)
(0 0 0)
(0 0 0)
(0 0 0)
(0 0 0)
(0 0 0)
(0 0 0)
(0 0 0)
(0 0 0)
(0 0 0)
(0 0 0)
(0 0 0)
(0 0 0)
(0 0 0)
(0 0 0)
(0 0 0)
(0 0 0)
(0 0 0)
(0 0 0)
(0 0 0)
(0 0 0)
(0 0 0)
(0 0 0)
(0.00026706 0.00122581 0.000110706)
(5.01435e-05 0.00125356 0.000110706)
(-0.000168297 0.00124322 0.000110709)
(-0.000381623 0.00119511 0.000110711)
(-0.000583354 0.00111069 0.000110711)
(-0.00076736 0.000992515 0.000110711)
(-0.00092805 0.000844186 0.00011071)
(-0.00106054 0.000670206 0.000110708)
(-0.00116081 0.000475861 0.000110708)
(-0.00122581 0.00026706 0.000110706)
(-0.00125356 5.01435e-05 0.000110706)
(-0.00124322 -0.000168298 0.000110709)
(-0.00119511 -0.000381623 0.000110711)
(-0.00111069 -0.000583354 0.000110711)
(-0.000992515 -0.00076736 0.000110711)
(-0.000844186 -0.000928051 0.00011071)
(-0.000670206 -0.00106054 0.000110708)
(-0.000475861 -0.00116081 0.000110708)
(-0.00026706 -0.00122581 0.000110706)
(-5.01434e-05 -0.00125356 0.000110706)
(0.000168298 -0.00124322 0.000110709)
(0.000381623 -0.00119511 0.000110711)
(0.000583354 -0.00111069 0.000110711)
(0.00076736 -0.000992515 0.000110711)
(0.000928051 -0.000844186 0.00011071)
(0.00106054 -0.000670206 0.000110708)
(0.00116081 -0.000475861 0.000110708)
(0.00122581 -0.00026706 0.000110706)
(0.00125356 -5.01435e-05 0.000110706)
(0.00124322 0.000168298 0.000110709)
(0.00119511 0.000381623 0.000110711)
(0.00111069 0.000583354 0.000110711)
(0.000992515 0.00076736 0.000110711)
(0.000844186 0.000928051 0.00011071)
(0.000670206 0.00106054 0.000110708)
(0.000475861 0.00116081 0.000110708)
(0.000111049 0.00138611 0.00026916)
(-0.000131335 0.00138434 0.00026916)
(-0.000369725 0.0013405 0.00026916)
(-0.000596884 0.00125593 0.000269162)
(-0.000805906 0.00113321 0.000269162)
(-0.000990441 0.000976045 0.000269161)
(-0.00114488 0.000789227 0.000269162)
(-0.00126454 0.000578429 0.000269161)
(-0.00134577 0.000350056 0.00026916)
(-0.00138611 0.000111049 0.000269159)
(-0.00138434 -0.000131335 0.00026916)
(-0.0013405 -0.000369725 0.00026916)
(-0.00125593 -0.000596884 0.000269162)
(-0.0011332 -0.000805906 0.000269162)
(-0.000976045 -0.000990441 0.000269161)
(-0.000789227 -0.00114488 0.000269162)
(-0.000578429 -0.00126454 0.000269161)
(-0.000350056 -0.00134577 0.00026916)
(-0.000111049 -0.00138611 0.000269159)
(0.000131335 -0.00138434 0.00026916)
(0.000369725 -0.0013405 0.00026916)
(0.000596885 -0.00125593 0.000269162)
(0.000805907 -0.0011332 0.000269162)
(0.000990441 -0.000976045 0.000269161)
(0.00114488 -0.000789227 0.000269162)
(0.00126454 -0.000578429 0.000269161)
(0.00134577 -0.000350056 0.00026916)
(0.00138611 -0.000111049 0.00026916)
(0.00138434 0.000131335 0.00026916)
(0.0013405 0.000369725 0.00026916)
(0.00125593 0.000596885 0.000269162)
(0.00113321 0.000805907 0.000269162)
(0.000976045 0.000990441 0.000269161)
(0.000789227 0.00114488 0.000269162)
(0.000578429 0.00126454 0.000269161)
(0.000350056 0.00134577 0.00026916)
(-7.65309e-05 0.00153657 0.000411472)
(-0.000342189 0.00149994 0.000411473)
(-0.000597452 0.00141773 0.000411473)
(-0.000834563 0.00129245 0.000411474)
(-0.00104632 0.00112789 0.000411474)
(-0.00122628 0.000929064 0.000411474)
(-0.00136898 0.000702008 0.000411473)
(-0.00147008 0.000453624 0.000411473)
(-0.00152652 0.000191455 0.000411472)
(-0.00153657 -7.6531e-05 0.000411472)
(-0.00149994 -0.000342189 0.000411473)
(-0.00141773 -0.000597452 0.000411473)
(-0.00129245 -0.000834563 0.000411474)
(-0.00112789 -0.00104632 0.000411474)
(-0.000929063 -0.00122628 0.000411474)
(-0.000702008 -0.00136898 0.000411473)
(-0.000453624 -0.00147008 0.000411473)
(-0.000191455 -0.00152652 0.000411472)
(7.6531e-05 -0.00153657 0.000411472)
(0.000342189 -0.00149994 0.000411473)
(0.000597452 -0.00141773 0.000411473)
(0.000834563 -0.00129245 0.000411474)
(0.00104632 -0.00112789 0.000411474)
(0.00122628 -0.000929063 0.000411474)
(0.00136898 -0.000702008 0.000411473)
(0.00147008 -0.000453624 0.000411473)
(0.00152652 -0.000191455 0.000411472)
(0.00153657 7.6531e-05 0.000411472)
(0.00149994 0.000342189 0.000411473)
(0.00141773 0.000597452 0.000411473)
(0.00129245 0.000834563 0.000411474)
(0.00112789 0.00104632 0.000411474)
(0.000929064 0.00122628 0.000411474)
(0.000702008 0.00136898 0.000411473)
(0.000453624 0.00147008 0.000411473)
(0.000191455 0.00152652 0.000411472)
(-0.000285804 0.00166103 0.000528443)
(-0.000569896 0.00158616 0.000528442)
(-0.00083667 0.00146311 0.000528442)
(-0.00107802 0.00129559 0.000528441)
(-0.00128662 0.00108871 0.000528441)
(-0.00145613 0.00084875 0.000528441)
(-0.00158139 0.000583001 0.000528442)
(-0.0016586 0.000299537 0.000528442)
(-0.00168542 6.97353e-06 0.000528441)
(-0.00166103 -0.000285804 0.000528442)
(-0.00158616 -0.000569896 0.000528442)
(-0.0014631 -0.00083667 0.000528441)
(-0.00129559 -0.00107802 0.000528441)
(-0.00108871 -0.00128662 0.000528441)
(-0.00084875 -0.00145613 0.000528441)
(-0.000583001 -0.00158139 0.000528442)
(-0.000299537 -0.0016586 0.000528442)
(-6.97349e-06 -0.00168542 0.000528441)
(0.000285804 -0.00166103 0.000528442)
(0.000569896 -0.00158616 0.000528442)
(0.00083667 -0.0014631 0.000528441)
(0.00107802 -0.00129559 0.000528441)
(0.00128662 -0.00108871 0.000528441)
(0.00145613 -0.00084875 0.000528441)
(0.00158139 -0.000583001 0.000528442)
(0.0016586 -0.000299537 0.000528442)
(0.00168542 -6.9735e-06 0.000528441)
(0.00166103 0.000285804 0.000528443)
(0.00158616 0.000569896 0.000528442)
(0.00146311 0.00083667 0.000528442)
(0.00129559 0.00107802 0.000528441)
(0.00108871 0.00128662 0.000528441)
(0.00084875 0.00145613 0.000528441)
(0.000583001 0.00158139 0.000528442)
(0.000299537 0.0016586 0.000528442)
(6.97356e-06 0.00168542 0.000528441)
(0.00020077 0.00189788 0.000357926)
(-0.000131844 0.00190391 0.000357926)
(-0.000460453 0.00185209 0.000357928)
(-0.00077507 0.001744 0.00035793)
(-0.00106614 0.00158291 0.000357931)
(-0.00132481 0.00137373 0.000357931)
(-0.00154323 0.00112281 0.00035793)
(-0.00171476 0.000837776 0.000357928)
(-0.00183419 0.000527284 0.000357926)
(-0.00189788 0.00020077 0.000357926)
(-0.00190391 -0.000131844 0.000357926)
(-0.00185209 -0.000460454 0.000357928)
(-0.001744 -0.00077507 0.00035793)
(-0.00158291 -0.00106614 0.000357931)
(-0.00137373 -0.00132481 0.000357931)
(-0.00112281 -0.00154323 0.00035793)
(-0.000837775 -0.00171476 0.000357928)
(-0.000527283 -0.00183419 0.000357926)
(-0.00020077 -0.00189788 0.000357926)
(0.000131844 -0.00190391 0.000357926)
(0.000460454 -0.00185209 0.000357928)
(0.00077507 -0.001744 0.00035793)
(0.00106614 -0.00158291 0.000357931)
(0.00132481 -0.00137373 0.000357931)
(0.00154323 -0.00112281 0.00035793)
(0.00171476 -0.000837776 0.000357928)
(0.00183419 -0.000527284 0.000357926)
(0.00189788 -0.00020077 0.000357926)
(0.00190391 0.000131844 0.000357926)
(0.00185209 0.000460454 0.000357928)
(0.001744 0.00077507 0.00035793)
(0.00158291 0.00106614 0.000357931)
(0.00137373 0.00132481 0.000357931)
(0.00112281 0.00154323 0.00035793)
(0.000837776 0.00171476 0.000357928)
(0.000527284 0.00183419 0.000357926)
(1.66752e-05 0.00206223 0.000537047)
(-0.000341681 0.0020338 0.000537047)
(-0.000689653 0.00194356 0.000537047)
(-0.00101667 0.00179428 0.000537049)
(-0.0013128 0.00159048 0.000537049)
(-0.00156904 0.00133835 0.000537049)
(-0.0017776 0.00104556 0.00053705)
(-0.00193216 0.000720994 0.000537048)
(-0.002028 0.000374523 0.000537048)
(-0.00206223 1.66751e-05 0.000537047)
(-0.0020338 -0.000341681 0.000537047)
(-0.00194356 -0.000689653 0.000537047)
(-0.00179428 -0.00101667 0.000537049)
(-0.00159048 -0.0013128 0.000537049)
(-0.00133835 -0.00156904 0.000537049)
(-0.00104556 -0.0017776 0.00053705)
(-0.000720994 -0.00193216 0.000537048)
(-0.000374523 -0.002028 0.000537048)
(-1.66751e-05 -0.00206223 0.000537047)
(0.000341681 -0.0020338 0.000537047)
(0.000689653 -0.00194356 0.000537047)
(0.00101667 -0.00179428 0.000537049)
(0.0013128 -0.00159048 0.000537049)
(0.00156904 -0.00133835 0.000537049)
(0.0017776 -0.00104556 0.00053705)
(0.00193216 -0.000720994 0.000537048)
(0.002028 -0.000374523 0.000537048)
(0.00206223 -1.66751e-05 0.000537047)
(0.0020338 0.000341681 0.000537047)
(0.00194356 0.000689653 0.000537047)
(0.00179428 0.00101667 0.000537049)
(0.00159048 0.0013128 0.000537049)
(0.00133835 0.00156904 0.000537049)
(0.00104556 0.0017776 0.00053705)
(0.000720994 0.00193216 0.000537048)
(0.000374524 0.002028 0.000537048)
(-0.000195115 0.00221578 0.000701625)
(-0.000576917 0.00214824 0.000701625)
(-0.000941189 0.00201542 0.000701626)
(-0.00127686 0.00182137 0.000701625)
(-0.00157374 0.00157197 0.000701626)
(-0.0018228 0.00127481 0.000701626)
(-0.00201648 0.000938915 0.000701626)
(-0.00214888 0.000574492 0.000701626)
(-0.002216 0.000192615 0.000701625)
(-0.00221578 -0.000195115 0.000701625)
(-0.00214824 -0.000576917 0.000701625)
(-0.00201542 -0.000941189 0.000701625)
(-0.00182137 -0.00127686 0.000701625)
(-0.00157197 -0.00157374 0.000701626)
(-0.00127481 -0.0018228 0.000701626)
(-0.000938915 -0.00201648 0.000701626)
(-0.000574491 -0.00214888 0.000701626)
(-0.000192615 -0.002216 0.000701625)
(0.000195115 -0.00221578 0.000701625)
(0.000576917 -0.00214824 0.000701625)
(0.000941189 -0.00201542 0.000701625)
(0.00127686 -0.00182137 0.000701625)
(0.00157374 -0.00157197 0.000701626)
(0.0018228 -0.00127481 0.000701626)
(0.00201648 -0.000938915 0.000701626)
(0.00214888 -0.000574491 0.000701626)
(0.002216 -0.000192615 0.000701625)
(0.00221578 0.000195115 0.000701625)
(0.00214824 0.000576917 0.000701625)
(0.00201542 0.000941189 0.000701626)
(0.00182137 0.00127686 0.000701625)
(0.00157197 0.00157374 0.000701626)
(0.00127481 0.0018228 0.000701626)
(0.000938915 0.00201648 0.000701626)
(0.000574492 0.00214888 0.000701626)
(0.000192615 0.002216 0.000701625)
(-0.00042398 0.00234157 0.000844285)
(-0.000824146 0.00223237 0.000844284)
(-0.00119927 0.00205534 0.000844285)
(-0.00153796 0.00181587 0.000844284)
(-0.00182992 0.00152122 0.000844284)
(-0.00206627 0.00118034 0.000844285)
(-0.00223984 0.000803607 0.000844284)
(-0.00234536 0.000402454 0.000844285)
(-0.00237962 -1.09302e-05 0.000844285)
(-0.00234157 -0.00042398 0.000844285)
(-0.00223237 -0.000824146 0.000844284)
(-0.00205534 -0.00119927 0.000844285)
(-0.00181587 -0.00153796 0.000844284)
(-0.00152122 -0.00182992 0.000844284)
(-0.00118034 -0.00206627 0.000844285)
(-0.000803607 -0.00223984 0.000844284)
(-0.000402454 -0.00234536 0.000844285)
(1.09303e-05 -0.00237962 0.000844285)
(0.00042398 -0.00234157 0.000844285)
(0.000824146 -0.00223237 0.000844284)
(0.00119927 -0.00205534 0.000844285)
(0.00153796 -0.00181587 0.000844284)
(0.00182992 -0.00152122 0.000844284)
(0.00206627 -0.00118034 0.000844285)
(0.00223984 -0.000803607 0.000844284)
(0.00234536 -0.000402454 0.000844285)
(0.00237962 1.09303e-05 0.000844286)
(0.00234157 0.00042398 0.000844285)
(0.00223237 0.000824146 0.000844284)
(0.00205535 0.00119927 0.000844285)
(0.00181587 0.00153796 0.000844285)
(0.00152122 0.00182992 0.000844285)
(0.00118034 0.00206627 0.000844285)
(0.000803607 0.00223984 0.000844284)
(0.000402454 0.00234536 0.000844285)
(-1.09302e-05 0.00237962 0.000844286)
(9.59427e-06 0.00254446 0.000627636)
(-0.000432395 0.00250747 0.000627637)
(-0.000861241 0.00239429 0.000627638)
(-0.00126392 0.00220836 0.000627639)
(-0.00162819 0.00195533 0.00062764)
(-0.001943 0.00164289 0.000627641)
(-0.00219876 0.00128054 0.000627641)
(-0.00238772 0.000879268 0.000627639)
(-0.00250413 0.000451287 0.000627639)
(-0.00254446 9.59414e-06 0.000627636)
(-0.00250747 -0.000432395 0.000627637)
(-0.00239429 -0.000861242 0.000627638)
(-0.00220836 -0.00126392 0.000627638)
(-0.00195533 -0.00162819 0.00062764)
(-0.00164289 -0.001943 0.00062764)
(-0.00128054 -0.00219876 0.000627641)
(-0.000879268 -0.00238772 0.000627639)
(-0.000451286 -0.00250413 0.000627639)
(-9.59402e-06 -0.00254446 0.000627636)
(0.000432395 -0.00250747 0.000627637)
(0.000861242 -0.00239429 0.000627638)
(0.00126392 -0.00220836 0.000627639)
(0.00162819 -0.00195533 0.00062764)
(0.001943 -0.00164289 0.000627641)
(0.00219876 -0.00128054 0.000627641)
(0.00238772 -0.000879268 0.000627639)
(0.00250413 -0.000451287 0.000627639)
(0.00254446 -9.59412e-06 0.000627636)
(0.00250747 0.000432395 0.000627637)
(0.00239429 0.000861242 0.000627638)
(0.00220836 0.00126392 0.000627639)
(0.00195533 0.00162819 0.00062764)
(0.00164289 0.001943 0.000627641)
(0.00128054 0.00219876 0.000627641)
(0.000879269 0.00238772 0.000627639)
(0.000451287 0.00250413 0.000627639)
(-0.000172206 0.00268561 0.000811142)
(-0.000635941 0.00261491 0.000811141)
(-0.00108035 0.00246475 0.000811143)
(-0.00149194 0.00223971 0.000811143)
(-0.00185819 0.00194661 0.000811143)
(-0.00216799 0.00159436 0.000811144)
(-0.00241191 0.00119367 0.000811143)
(-0.00258255 0.000756713 0.000811144)
(-0.00267471 0.000296762 0.000811142)
(-0.00268561 -0.000172206 0.000811142)
(-0.00261491 -0.000635941 0.000811141)
(-0.00246475 -0.00108035 0.000811143)
(-0.00223971 -0.00149194 0.000811143)
(-0.00194661 -0.00185819 0.000811143)
(-0.00159436 -0.00216799 0.000811144)
(-0.00119367 -0.00241191 0.000811143)
(-0.000756712 -0.00258255 0.000811143)
(-0.000296762 -0.00267471 0.000811142)
(0.000172206 -0.00268561 0.000811142)
(0.000635942 -0.00261491 0.000811141)
(0.00108035 -0.00246475 0.000811143)
(0.00149194 -0.00223971 0.000811143)
(0.00185819 -0.00194661 0.000811143)
(0.00216799 -0.00159436 0.000811144)
(0.00241191 -0.00119367 0.000811144)
(0.00258255 -0.000756713 0.000811144)
(0.00267471 -0.000296762 0.000811142)
(0.00268561 0.000172206 0.000811142)
(0.00261491 0.000635941 0.000811141)
(0.00246475 0.00108035 0.000811143)
(0.00223971 0.00149194 0.000811143)
(0.00194661 0.00185819 0.000811143)
(0.00159436 0.00216799 0.000811145)
(0.00119367 0.00241191 0.000811144)
(0.000756713 0.00258255 0.000811144)
(0.000296763 0.00267471 0.000811142)
(-0.000377289 0.00281609 0.000980764)
(-0.000860566 0.00270779 0.000980765)
(-0.0013177 0.00251722 0.000980765)
(-0.00173479 0.00225016 0.000980765)
(-0.00209917 0.00191474 0.000980765)
(-0.00239977 0.00152113 0.000980765)
(-0.00262745 0.0010813 0.000980765)
(-0.0027753 0.000608626 0.000980765)
(-0.00283882 0.000117452 0.000980765)
(-0.00281609 -0.000377289 0.000980764)
(-0.00270779 -0.000860566 0.000980764)
(-0.00251722 -0.0013177 0.000980765)
(-0.00225016 -0.00173479 0.000980765)
(-0.00191474 -0.00209917 0.000980765)
(-0.00152113 -0.00239977 0.000980765)
(-0.0010813 -0.00262745 0.000980765)
(-0.000608626 -0.0027753 0.000980765)
(-0.000117452 -0.00283882 0.000980765)
(0.000377289 -0.00281609 0.000980764)
(0.000860566 -0.00270779 0.000980764)
(0.0013177 -0.00251722 0.000980765)
(0.00173479 -0.00225016 0.000980765)
(0.00209917 -0.00191474 0.000980765)
(0.00239977 -0.00152113 0.000980765)
(0.00262745 -0.0010813 0.000980765)
(0.0027753 -0.000608626 0.000980765)
(0.00283882 -0.000117452 0.000980766)
(0.00281609 0.000377289 0.000980764)
(0.00270779 0.000860566 0.000980765)
(0.00251722 0.0013177 0.000980765)
(0.00225016 0.00173479 0.000980765)
(0.00191474 0.00209917 0.000980765)
(0.00152113 0.00239977 0.000980765)
(0.0010813 0.00262745 0.000980765)
(0.000608626 0.0027753 0.000980765)
(0.000117452 0.00283882 0.000980766)
(-0.000597619 0.00291943 0.0011305)
(-0.00109549 0.0027713 0.0011305)
(-0.00156008 0.00253897 0.0011305)
(-0.00197727 0.00222949 0.0011305)
(-0.00233437 0.00185227 0.0011305)
(-0.00262055 0.00141877 0.0011305)
(-0.00282711 0.00094216 0.0011305)
(-0.00294776 0.000436925 0.0011305)
(-0.00297885 -8.15869e-05 0.0011305)
(-0.00291943 -0.000597619 0.0011305)
(-0.0027713 -0.00109549 0.0011305)
(-0.00253897 -0.00156008 0.0011305)
(-0.00222949 -0.00197727 0.0011305)
(-0.00185227 -0.00233437 0.0011305)
(-0.00141877 -0.00262055 0.0011305)
(-0.00094216 -0.00282711 0.0011305)
(-0.000436925 -0.00294776 0.0011305)
(8.15869e-05 -0.00297885 0.0011305)
(0.000597619 -0.00291943 0.0011305)
(0.00109549 -0.0027713 0.0011305)
(0.00156008 -0.00253897 0.0011305)
(0.00197727 -0.00222949 0.0011305)
(0.00233437 -0.00185227 0.0011305)
(0.00262055 -0.00141877 0.0011305)
(0.00282711 -0.00094216 0.0011305)
(0.00294776 -0.000436925 0.0011305)
(0.00297885 8.15869e-05 0.0011305)
(0.00291943 0.000597619 0.0011305)
(0.0027713 0.00109549 0.0011305)
(0.00253897 0.00156008 0.0011305)
(0.00222949 0.00197727 0.0011305)
(0.00185227 0.00233437 0.0011305)
(0.00141877 0.00262055 0.0011305)
(0.00094216 0.00282711 0.0011305)
(0.000436925 0.00294776 0.0011305)
(-8.15868e-05 0.00297885 0.0011305)
(-0.000263256 0.00312402 0.000889914)
(-0.000801738 0.00303085 0.000889913)
(-0.00131586 0.00284558 0.000889914)
(-0.00179 0.00257385 0.000889914)
(-0.00220974 0.00222392 0.000889915)
(-0.00256236 0.00180641 0.000889915)
(-0.00283711 0.00133402 0.000889916)
(-0.00302566 0.000821097 0.000889916)
(-0.00312227 0.000283223 0.000889915)
(-0.00312402 -0.000263256 0.000889914)
(-0.00303085 -0.000801738 0.000889913)
(-0.00284558 -0.00131586 0.000889913)
(-0.00257385 -0.00179 0.000889914)
(-0.00222392 -0.00220974 0.000889915)
(-0.00180641 -0.00256236 0.000889915)
(-0.00133402 -0.00283711 0.000889916)
(-0.000821096 -0.00302566 0.000889916)
(-0.000283223 -0.00312227 0.000889915)
(0.000263256 -0.00312402 0.000889914)
(0.000801738 -0.00303085 0.000889913)
(0.00131586 -0.00284558 0.000889914)
(0.00179 -0.00257385 0.000889914)
(0.00220974 -0.00222392 0.000889915)
(0.00256236 -0.00180641 0.000889916)
(0.00283711 -0.00133402 0.000889916)
(0.00302566 -0.000821096 0.000889916)
(0.00312227 -0.000283223 0.000889916)
(0.00312402 0.000263256 0.000889914)
(0.00303085 0.000801738 0.000889913)
(0.00284558 0.00131586 0.000889914)
(0.00257385 0.00179 0.000889915)
(0.00222392 0.00220974 0.000889915)
(0.00180641 0.00256236 0.000889916)
(0.00133402 0.00283711 0.000889916)
(0.000821097 0.00302566 0.000889916)
(0.000283223 0.00312227 0.000889916)
(-0.000428325 0.00322772 0.00106879)
(-0.000982305 0.00310431 0.00106879)
(-0.00150644 0.00288657 0.00106879)
(-0.0019848 0.00258113 0.00106879)
(-0.00240285 0.00219726 0.00106879)
(-0.0027479 0.00174663 0.00106879)
(-0.00300945 0.00124292 0.00106879)
(-0.00317956 0.000701455 0.00106879)
(-0.00325307 0.000138671 0.00106879)
(-0.00322772 -0.000428325 0.00106879)
(-0.00310431 -0.000982305 0.00106879)
(-0.00288657 -0.00150644 0.00106879)
(-0.00258113 -0.0019848 0.00106879)
(-0.00219726 -0.00240285 0.00106879)
(-0.00174663 -0.0027479 0.00106879)
(-0.00124292 -0.00300945 0.00106879)
(-0.000701455 -0.00317956 0.00106879)
(-0.000138671 -0.00325307 0.00106879)
(0.000428325 -0.00322772 0.00106879)
(0.000982305 -0.00310431 0.00106879)
(0.00150644 -0.00288657 0.00106879)
(0.0019848 -0.00258113 0.00106879)
(0.00240286 -0.00219726 0.00106879)
(0.0027479 -0.00174663 0.00106879)
(0.00300945 -0.00124292 0.00106879)
(0.00317956 -0.000701455 0.00106879)
(0.00325307 -0.000138671 0.00106879)
(0.00322773 0.000428325 0.00106879)
(0.00310431 0.000982305 0.00106879)
(0.00288657 0.00150644 0.00106879)
(0.00258113 0.0019848 0.00106879)
(0.00219726 0.00240285 0.00106879)
(0.00174663 0.0027479 0.00106879)
(0.00124292 0.00300945 0.00106879)
(0.000701455 0.00317956 0.00106879)
(0.000138671 0.00325307 0.00106879)
(-0.000612776 0.0033221 0.00123407)
(-0.00118034 0.00316522 0.00123407)
(-0.00171204 0.00291217 0.00123407)
(-0.00219173 0.00257063 0.00123407)
(-0.00260482 0.00215099 0.00123407)
(-0.00293876 0.00166599 0.00123407)
(-0.00318341 0.00113037 0.00123407)
(-0.00333133 0.000560405 0.00123407)
(-0.00337803 -2.65899e-05 0.00123407)
(-0.0033221 -0.000612776 0.00123407)
(-0.00316522 -0.00118034 0.00123407)
(-0.00291217 -0.00171204 0.00123407)
(-0.00257063 -0.00219173 0.00123407)
(-0.00215099 -0.00260482 0.00123407)
(-0.00166599 -0.00293876 0.00123407)
(-0.00113037 -0.00318341 0.00123407)
(-0.000560405 -0.00333133 0.00123407)
(2.659e-05 -0.00337803 0.00123407)
(0.000612776 -0.0033221 0.00123407)
(0.00118034 -0.00316522 0.00123407)
(0.00171204 -0.00291217 0.00123407)
(0.00219173 -0.00257063 0.00123407)
(0.00260482 -0.00215099 0.00123407)
(0.00293876 -0.00166599 0.00123407)
(0.00318341 -0.00113037 0.00123407)
(0.00333133 -0.000560405 0.00123407)
(0.00337803 2.65899e-05 0.00123407)
(0.0033221 0.000612776 0.00123407)
(0.00316522 0.00118034 0.00123407)
(0.00291217 0.00171204 0.00123407)
(0.00257063 0.00219173 0.00123407)
(0.00215099 0.00260482 0.00123407)
(0.00166599 0.00293876 0.00123407)
(0.00113037 0.00318341 0.00123407)
(0.000560405 0.00333133 0.00123407)
(-2.65897e-05 0.00337803 0.00123407)
(-0.000810407 0.00339044 0.00138036)
(-0.00138684 0.0031982 0.00138036)
(-0.00192113 0.00290879 0.00138036)
(-0.00239705 0.002531 0.00138036)
(-0.00280014 0.0020763 0.00138036)
(-0.00311814 0.00155852 0.00138036)
(-0.00334141 0.000993387 0.00138036)
(-0.00346314 0.000398063 0.00138036)
(-0.00347965 -0.000209353 0.00138036)
(-0.00339044 -0.000810407 0.00138036)
(-0.0031982 -0.00138684 0.00138036)
(-0.00290879 -0.00192113 0.00138036)
(-0.002531 -0.00239705 0.00138036)
(-0.0020763 -0.00280014 0.00138036)
(-0.00155852 -0.00311814 0.00138036)
(-0.000993386 -0.00334141 0.00138036)
(-0.000398063 -0.00346314 0.00138036)
(0.000209353 -0.00347965 0.00138036)
(0.000810407 -0.00339044 0.00138036)
(0.00138684 -0.0031982 0.00138036)
(0.00192113 -0.00290879 0.00138036)
(0.00239705 -0.002531 0.00138036)
(0.00280014 -0.0020763 0.00138036)
(0.00311814 -0.00155852 0.00138036)
(0.00334141 -0.000993387 0.00138036)
(0.00346314 -0.000398063 0.00138036)
(0.00347965 0.000209353 0.00138036)
(0.00339044 0.000810407 0.00138036)
(0.0031982 0.00138684 0.00138036)
(0.00290879 0.00192113 0.00138036)
(0.002531 0.00239705 0.00138036)
(0.0020763 0.00280014 0.00138036)
(0.00155852 0.00311814 0.00138036)
(0.000993387 0.00334141 0.00138036)
(0.000398063 0.00346314 0.00138036)
(-0.000209353 0.00347965 0.00138036)
(-0.000572597 0.00360569 0.00113715)
(-0.00119002 0.00345148 0.00113714)
(-0.00177128 0.0031924 0.00113715)
(-0.00229873 0.00283632 0.00113715)
(-0.00275633 0.00239406 0.00113715)
(-0.00313017 0.00187906 0.00113715)
(-0.00340891 0.00130696 0.00113715)
(-0.00358408 0.000695153 0.00113715)
(-0.00365034 6.22227e-05 0.00113715)
(-0.00360569 -0.000572597 0.00113715)
(-0.00345148 -0.00119002 0.00113714)
(-0.0031924 -0.00177128 0.00113715)
(-0.00283632 -0.00229873 0.00113715)
(-0.00239406 -0.00275633 0.00113715)
(-0.00187906 -0.00313017 0.00113715)
(-0.00130696 -0.00340891 0.00113715)
(-0.000695153 -0.00358408 0.00113715)
(-6.22225e-05 -0.00365034 0.00113715)
(0.000572597 -0.00360569 0.00113715)
(0.00119002 -0.00345148 0.00113714)
(0.00177128 -0.0031924 0.00113715)
(0.00229873 -0.00283632 0.00113715)
(0.00275633 -0.00239406 0.00113715)
(0.00313018 -0.00187906 0.00113715)
(0.00340891 -0.00130696 0.00113715)
(0.00358408 -0.000695153 0.00113715)
(0.00365034 -6.22227e-05 0.00113715)
(0.00360569 0.000572597 0.00113715)
(0.00345148 0.00119002 0.00113714)