/*--------------------------------*- C++ -*----------------------------------*\
| =========                 |                                                 |
| \\      /  F ield         | OpenFOAM: The Open Source CFD Toolbox           |
|  \\    /   O peration     | Version:  2312                                  |
|   \\  /    A nd           | Website:  www.openfoam.com                      |
|    \\/     M anipulation  |                                                 |
\*---------------------------------------------------------------------------*/
FoamFile
{
    version     2.0;
    format      ascii;
    arch        "LSB;label=32;scalar=64";
    class       volSymmTensorField;
    location    "1";
    object      sigma;
}
// * * * * * * * * * * * * * * * * * * * * * * * * * * * * * * * * * * * * * //

dimensions      [1 -1 -2 0 0 0 0];

internalField   nonuniform List<symmTensor> 
1620
(
(-6947.86 -1684.22 -3337.28 5598.66 22987.5 38029.1)
(-5993.45 -3728.21 -7278.3 4644.34 22058.7 38029.2)
(-4397.5 -5322.59 -10998.2 3048.52 20459.8 38029.1)
(-2352.91 -6274.82 -14383.8 1003.14 18239 38029.1)
(-105.715 -6470.31 -17332.4 -1244.24 15464.2 38029)
(2073.03 -5885.44 -19754.4 -3422.74 12219.6 38029.1)
(3920.55 -4590.73 -21576.4 -5269.87 8603.63 38028.9)
(5213.49 -2742.22 -22742.5 -6562.84 4726.23 38029)
(5796.38 -562.954 -23217.8 -7145.58 705.19 38029.1)
(5598.66 1684.22 -22987.5 -6947.86 -3337.28 38029.1)
(4644.34 3728.21 -22058.7 -5993.45 -7278.3 38029.2)
(3048.52 5322.59 -20459.8 -4397.5 -10998.2 38029.1)
(1003.14 6274.82 -18239 -2352.91 -14383.8 38029.1)
(-1244.24 6470.31 -15464.2 -105.714 -17332.4 38029)
(-3422.74 5885.44 -12219.6 2073.03 -19754.4 38029.1)
(-5269.87 4590.73 -8603.63 3920.55 -21576.4 38028.9)
(-6562.84 2742.22 -4726.23 5213.49 -22742.5 38029)
(-7145.58 562.954 -705.19 5796.38 -23217.8 38029.1)
(-6947.86 -1684.22 3337.28 5598.66 -22987.5 38029.1)
(-5993.45 -3728.21 7278.3 4644.34 -22058.7 38029.2)
(-4397.5 -5322.59 10998.2 3048.52 -20459.8 38029.1)
(-2352.91 -6274.82 14383.8 1003.14 -18239 38029.1)
(-105.716 -6470.31 17332.4 -1244.24 -15464.2 38029)
(2073.03 -5885.44 19754.4 -3422.74 -12219.6 38029.1)
(3920.54 -4590.73 21576.4 -5269.87 -8603.63 38028.9)
(5213.49 -2742.22 22742.5 -6562.84 -4726.23 38029)
(5796.37 -562.954 23217.8 -7145.58 -705.19 38029.1)
(5598.66 1684.22 22987.5 -6947.87 3337.28 38029.1)
(4644.34 3728.21 22058.7 -5993.45 7278.3 38029.2)
(3048.52 5322.59 20459.8 -4397.5 10998.2 38029.1)
(1003.14 6274.82 18239 -2352.91 14383.8 38029.1)
(-1244.24 6470.31 15464.2 -105.717 17332.4 38029)
(-3422.74 5885.44 12219.6 2073.03 19754.4 38029.1)
(-5269.87 4590.73 8603.63 3920.54 21576.4 38028.9)
(-6562.84 2742.22 4726.23 5213.49 22742.5 38029)
(-7145.58 562.954 705.19 5796.37 23217.8 38029.1)
(-21941.8 -6018.77 -767.059 36427.5 6444.71 -22393)
(-18123.2 -15637.5 -1874.52 32609 6213.61 -22392.9)
(-11244.9 -23370.2 -2925.02 25730.9 5793.69 -22392.8)
(-2136.98 -28284 -3886.79 16622.7 5197.93 -22392.8)
(8102.17 -29786.3 -4730.47 6383.24 4444.16 -22392.9)
(18237.9 -27696.1 -5430.18 -3752.31 3555.12 -22392.9)
(27047.7 -22265.3 -5964.81 -12561.7 2558.07 -22392.8)
(33468.4 -14148.9 -6318.39 -18982.7 1483.42 -22392.9)
(36725.9 -4325.95 -6480 -22240.4 363.707 -22393)
(36427.5 6018.77 -6444.71 -21941.8 -767.059 -22393)
(32609 15637.5 -6213.61 -18123.2 -1874.52 -22392.9)
(25730.9 23370.2 -5793.69 -11244.9 -2925.02 -22392.8)
(16622.7 28284 -5197.93 -2136.98 -3886.79 -22392.8)
(6383.24 29786.3 -4444.16 8102.17 -4730.47 -22392.9)
(-3752.31 27696.1 -3555.12 18237.9 -5430.18 -22392.9)
(-12561.7 22265.3 -2558.07 27047.7 -5964.81 -22392.8)
(-18982.7 14148.9 -1483.42 33468.4 -6318.39 -22392.9)
(-22240.4 4325.95 -363.707 36725.9 -6480 -22393)
(-21941.8 -6018.77 767.059 36427.5 -6444.71 -22393)
(-18123.2 -15637.5 1874.52 32609 -6213.61 -22392.9)
(-11244.9 -23370.2 2925.02 25730.9 -5793.69 -22392.8)
(-2136.98 -28284 3886.79 16622.7 -5197.93 -22392.8)
(8102.17 -29786.3 4730.47 6383.24 -4444.16 -22392.9)
(18237.9 -27696.1 5430.18 -3752.31 -3555.12 -22392.9)
(27047.7 -22265.3 5964.81 -12561.7 -2558.07 -22392.8)
(33468.4 -14148.9 6318.39 -18982.7 -1483.42 -22392.9)
(36725.9 -4325.95 6480 -22240.4 -363.707 -22393)
(36427.5 6018.77 6444.71 -21941.8 767.059 -22393)
(32609 15637.5 6213.61 -18123.2 1874.52 -22392.9)
(25730.9 23370.2 5793.69 -11244.9 2925.02 -22392.8)
(16622.7 28284 5197.93 -2136.98 3886.79 -22392.8)
(6383.24 29786.3 4444.16 8102.16 4730.47 -22392.9)
(-3752.31 27696.1 3555.12 18237.9 5430.18 -22392.9)
(-12561.7 22265.3 2558.07 27047.7 5964.81 -22392.8)
(-18982.7 14148.9 1483.42 33468.4 6318.39 -22393)
(-22240.4 4325.95 363.707 36725.9 6480 -22393)
(-61127.8 -1987.86 1755.26 -37385.9 -31232.8 -22418.3)
(-59732.1 -5928.08 7152.11 -38781.8 -30453.5 -22418.4)
(-57073 -9153.29 12331.7 -41441.3 -28748.9 -22418.6)
(-53470.8 -11274.5 17136.6 -45043.1 -26170.7 -22418.4)
(-49360.6 -12035.9 21420.7 -49153.2 -22797.5 -22418.7)
(-45237.9 -11345.4 25054 -53275.9 -18731.5 -22418.4)
(-41600 -9286.57 27926 -56914 -14096.3 -22418.4)
(-38885.6 -6107.63 29949.6 -59628.6 -9032.73 -22418.6)
(-37422.1 -2192.1 31063.1 -61091.9 -3694.9 -22418.4)
(-37385.9 1987.86 31232.8 -61127.8 1755.26 -22418.3)
(-38781.8 5928.08 30453.5 -59732.1 7152.11 -22418.4)
(-41441.3 9153.29 28748.9 -57073 12331.7 -22418.6)
(-45043.1 11274.5 26170.7 -53470.8 17136.6 -22418.4)
(-49153.2 12035.9 22797.5 -49360.6 21420.7 -22418.7)
(-53275.9 11345.4 18731.5 -45237.9 25054 -22418.4)
(-56914 9286.57 14096.3 -41600 27926 -22418.4)
(-59628.6 6107.63 9032.73 -38885.6 29949.6 -22418.6)
(-61091.9 2192.1 3694.9 -37422 31063.1 -22418.4)
(-61127.8 -1987.86 -1755.26 -37385.9 31232.8 -22418.3)
(-59732.1 -5928.08 -7152.11 -38781.8 30453.5 -22418.4)
(-57073 -9153.29 -12331.7 -41441.3 28748.9 -22418.6)
(-53470.8 -11274.5 -17136.6 -45043.1 26170.7 -22418.4)
(-49360.6 -12035.9 -21420.7 -49153.2 22797.5 -22418.7)
(-45237.9 -11345.4 -25054 -53275.9 18731.5 -22418.4)
(-41600 -9286.57 -27926 -56914 14096.3 -22418.4)
(-38885.6 -6107.63 -29949.6 -59628.6 9032.73 -22418.6)
(-37422.1 -2192.1 -31063.1 -61091.9 3694.9 -22418.4)
(-37385.9 1987.86 -31232.8 -61127.8 -1755.26 -22418.3)
(-38781.8 5928.08 -30453.5 -59732.1 -7152.11 -22418.4)
(-41441.3 9153.29 -28748.9 -57073 -12331.7 -22418.6)
(-45043.1 11274.5 -26170.7 -53470.8 -17136.6 -22418.4)
(-49153.2 12035.9 -22797.5 -49360.6 -21420.7 -22418.7)
(-53275.9 11345.4 -18731.5 -45237.9 -25054 -22418.4)
(-56914 9286.57 -14096.3 -41600 -27926 -22418.4)
(-59628.6 6107.63 -9032.73 -38885.6 -29949.6 -22418.6)
(-61091.9 2192.1 -3694.9 -37422.1 -31063.1 -22418.4)
(8933.63 -2280.17 -3870.78 17317.4 20032.5 56236.6)
(9966.14 -3576.29 -7290.46 16284.5 19055.9 56236.7)
(11380.1 -4441.19 -10488.8 14871.1 17500.5 56236.7)
(13004.2 -4770.23 -13368.3 13246.7 15413.1 56237)
(14643.1 -4524.02 -15841.7 11607.9 12857.5 56237)
(16098.7 -3732.15 -17833.6 10152.1 9911.41 56237)
(17195.9 -2490.22 -19284 9054.74 6664.12 56236.4)
(17802.2 -947.787 -20148.1 8448.65 3214.22 56236.7)
(17844.5 708.91 -20400.3 8406.59 -333.28 56236.6)
(17317.4 2280.17 -20032.5 8933.63 -3870.78 56236.6)
(16284.5 3576.29 -19055.9 9966.14 -7290.46 56236.7)
(14871.1 4441.19 -17500.5 11380.1 -10488.8 56236.7)
(13246.7 4770.23 -15413.1 13004.2 -13368.3 56237)
(11607.9 4524.02 -12857.5 14643.1 -15841.7 56237)
(10152.1 3732.15 -9911.41 16098.7 -17833.6 56237)
(9054.74 2490.22 -6664.12 17195.9 -19284 56236.4)
(8448.65 947.787 -3214.22 17802.2 -20148.1 56236.7)
(8406.59 -708.91 333.28 17844.5 -20400.3 56236.6)
(8933.62 -2280.17 3870.78 17317.4 -20032.5 56236.6)
(9966.14 -3576.29 7290.46 16284.5 -19055.9 56236.7)
(11380.1 -4441.19 10488.8 14871.1 -17500.5 56236.7)
(13004.2 -4770.23 13368.3 13246.7 -15413.1 56237)
(14643.1 -4524.02 15841.7 11607.9 -12857.5 56237)
(16098.7 -3732.15 17833.6 10152.1 -9911.41 56237)
(17195.9 -2490.22 19284 9054.74 -6664.12 56236.4)
(17802.2 -947.787 20148.1 8448.65 -3214.22 56236.7)
(17844.5 708.91 20400.3 8406.59 333.28 56236.6)
(17317.4 2280.17 20032.5 8933.63 3870.78 56236.6)
(16284.5 3576.29 19055.9 9966.14 7290.46 56236.7)
(14871.1 4441.19 17500.5 11380.1 10488.8 56236.7)
(13246.7 4770.23 15413.1 13004.2 13368.3 56237)
(11607.9 4524.02 12857.5 14643.1 15841.7 56237)
(10152.1 3732.15 9911.41 16098.7 17833.6 56237)
(9054.74 2490.22 6664.12 17195.9 19284 56236.4)
(8448.65 947.787 3214.22 17802.2 20148.1 56236.7)
(8406.59 -708.91 -333.28 17844.5 20400.3 56236.6)
(-4681.13 -8030.61 -1223.96 51946.8 8889.03 -6247.68)
(-226.906 -17230.1 -2748.98 47492.7 8541.67 -6247.48)
(7104.99 -24351.6 -4190.42 40160.6 7934.44 -6247.65)
(16430.4 -28535.8 -5504.65 30835.1 7086.38 -6247.61)
(26624.6 -29278.3 -6651.52 20640.9 6022.81 -6247.63)
(36457.7 -26489.3 -7596.37 10807.4 4776.33 -6247.79)
(44744.5 -20505.4 -8310.2 2521.3 3384.6 -6247.54)
(50484.5 -12048.1 -8771.79 -3218.82 1890.15 -6247.54)
(52985.9 -2137.79 -8966.52 -5720.18 338.226 -6247.65)
(51946.8 8030.61 -8889.03 -4681.13 -1223.96 -6247.68)
(47492.7 17230.1 -8541.67 -226.906 -2748.98 -6247.48)
(40160.6 24351.6 -7934.44 7104.99 -4190.42 -6247.65)
(30835.1 28535.8 -7086.38 16430.4 -5504.65 -6247.61)
(20640.9 29278.3 -6022.81 26624.6 -6651.52 -6247.63)
(10807.4 26489.3 -4776.33 36457.7 -7596.37 -6247.79)
(2521.3 20505.4 -3384.6 44744.5 -8310.2 -6247.54)
(-3218.82 12048.1 -1890.15 50484.5 -8771.79 -6247.54)
(-5720.18 2137.79 -338.226 52985.9 -8966.52 -6247.65)
(-4681.13 -8030.61 1223.96 51946.8 -8889.03 -6247.67)
(-226.906 -17230.1 2748.98 47492.7 -8541.67 -6247.48)
(7104.99 -24351.6 4190.42 40160.6 -7934.44 -6247.65)
(16430.4 -28535.8 5504.65 30835.1 -7086.38 -6247.61)
(26624.6 -29278.3 6651.52 20640.9 -6022.81 -6247.63)
(36457.7 -26489.3 7596.37 10807.4 -4776.33 -6247.79)
(44744.5 -20505.4 8310.2 2521.3 -3384.6 -6247.54)
(50484.5 -12048.1 8771.79 -3218.82 -1890.15 -6247.54)
(52985.9 -2137.79 8966.52 -5720.18 -338.226 -6247.65)
(51946.8 8030.61 8889.03 -4681.13 1223.96 -6247.68)
(47492.7 17230.1 8541.67 -226.906 2748.98 -6247.48)
(40160.6 24351.6 7934.44 7104.99 4190.42 -6247.65)
(30835.1 28535.8 7086.38 16430.4 5504.65 -6247.61)
(20640.9 29278.3 6022.81 26624.6 6651.52 -6247.63)
(10807.4 26489.3 4776.33 36457.7 7596.37 -6247.79)
(2521.3 20505.4 3384.6 44744.5 8310.2 -6247.54)
(-3218.82 12048.1 1890.15 50484.5 8771.79 -6247.54)
(-5720.18 2137.79 338.226 52985.9 8966.52 -6247.65)
(-39553.3 -3059.95 1248.67 -15534.2 -31695.1 -3586.82)
(-37782.5 -6982.91 6733.46 -17305 -30996.8 -3586.93)
(-34776.8 -10063.6 12013.7 -20310.8 -29356.6 -3586.89)
(-30898.6 -11930.5 16928.9 -24189 -26824.5 -3586.83)
(-26615.6 -12358.5 21329.7 -28471.5 -23477.3 -3586.77)
(-22444.6 -11295.7 25082.4 -32642.2 -19416.7 -3586.44)
(-18888.9 -8870.61 28073.1 -36198.4 -14766.2 -3586.76)
(-16376.8 -5375.53 30210.8 -38710.4 -9666.98 -3586.81)
(-15211.9 -1232.14 31430.4 -39875.6 -4274.17 -3586.82)
(-15534.2 3059.95 31695.1 -39553.3 1248.67 -3586.81)
(-17305 6982.91 30996.8 -37782.5 6733.46 -3586.92)
(-20310.8 10063.6 29356.6 -34776.8 12013.7 -3586.89)
(-24189 11930.5 26824.5 -30898.6 16928.9 -3586.83)
(-28471.5 12358.5 23477.3 -26615.6 21329.7 -3586.77)
(-32642.2 11295.7 19416.7 -22444.6 25082.4 -3586.44)
(-36198.4 8870.61 14766.2 -18888.9 28073.1 -3586.76)
(-38710.4 5375.53 9666.98 -16376.8 30210.8 -3586.81)
(-39875.6 1232.14 4274.17 -15211.9 31430.4 -3586.82)
(-39553.3 -3059.95 -1248.67 -15534.2 31695.1 -3586.81)
(-37782.5 -6982.91 -6733.46 -17305 30996.8 -3586.92)
(-34776.8 -10063.6 -12013.7 -20310.8 29356.6 -3586.89)
(-30898.6 -11930.5 -16928.9 -24189 26824.5 -3586.83)
(-26615.6 -12358.5 -21329.7 -28471.5 23477.3 -3586.77)
(-22444.6 -11295.7 -25082.4 -32642.2 19416.7 -3586.44)
(-18888.9 -8870.61 -28073.1 -36198.4 14766.2 -3586.76)
(-16376.8 -5375.53 -30210.8 -38710.4 9666.98 -3586.81)
(-15211.9 -1232.14 -31430.4 -39875.6 4274.17 -3586.82)
(-15534.2 3059.95 -31695.1 -39553.3 -1248.67 -3586.82)
(-17305 6982.91 -30996.8 -37782.5 -6733.46 -3586.93)
(-20310.8 10063.6 -29356.6 -34776.8 -12013.7 -3586.89)
(-24189 11930.5 -26824.5 -30898.6 -16928.9 -3586.83)
(-28471.5 12358.5 -23477.3 -26615.6 -21329.7 -3586.77)
(-32642.2 11295.7 -19416.7 -22444.6 -25082.4 -3586.44)
(-36198.4 8870.61 -14766.2 -18888.9 -28073.1 -3586.76)
(-38710.4 5375.53 -9666.98 -16376.8 -30210.8 -3586.82)
(-39875.6 1232.14 -4274.17 -15211.9 -31430.4 -3586.82)
(7619.53 -3005.6 -2989.98 15275 20150 52999.9)
(8878.22 -4133.56 -6443.71 14016 19324.6 52999.8)
(10447 -4762.87 -9701.45 12447.5 17912.1 52999.9)
(12136.2 -4817.65 -12664.4 10758 15955.2 53000)
(13742.7 -4291.56 -15242.7 9152.12 13513.9 52999.9)
(15071.9 -3247.58 -17357.6 7822.62 10661.5 53000.2)
(15963.9 -1812.1 -18945.4 6930.28 7485.53 52999.7)
(16311.4 -157.944 -19957.4 6583.01 4081.92 52999.9)
(16072 1515.18 -20363.1 6822.19 554.468 52999.7)
(15275 3005.6 -20150 7619.53 -2989.98 52999.9)
(14016 4133.56 -19324.6 8878.22 -6443.71 52999.8)
(12447.5 4762.87 -17912.1 10447 -9701.45 52999.9)
(10758 4817.65 -15955.2 12136.2 -12664.4 53000)
(9152.12 4291.56 -13513.9 13742.7 -15242.7 52999.9)
(7822.62 3247.58 -10661.5 15071.9 -17357.6 53000.2)
(6930.28 1812.1 -7485.54 15963.9 -18945.4 52999.7)
(6583.01 157.944 -4081.92 16311.4 -19957.4 52999.9)
(6822.19 -1515.18 -554.468 16072 -20363.1 52999.7)
(7619.53 -3005.6 2989.98 15275 -20150 52999.9)
(8878.22 -4133.56 6443.71 14016 -19324.6 52999.8)
(10447 -4762.87 9701.45 12447.5 -17912.1 52999.9)
(12136.2 -4817.65 12664.4 10758 -15955.2 53000)
(13742.7 -4291.56 15242.7 9152.12 -13513.9 52999.9)
(15071.9 -3247.58 17357.6 7822.62 -10661.5 53000.2)
(15963.9 -1812.1 18945.4 6930.28 -7485.54 52999.7)
(16311.4 -157.944 19957.4 6583.01 -4081.92 52999.9)
(16072 1515.18 20363.1 6822.19 -554.468 52999.7)
(15275 3005.6 20150 7619.53 2989.98 52999.9)
(14016 4133.56 19324.6 8878.22 6443.71 52999.8)
(12447.5 4762.87 17912.1 10447 9701.45 52999.9)
(10758 4817.65 15955.2 12136.2 12664.4 53000)
(9152.12 4291.56 13513.9 13742.7 15242.7 52999.9)
(7822.62 3247.58 10661.5 15071.9 17357.6 53000.2)
(6930.28 1812.1 7485.53 15963.9 18945.4 52999.7)
(6583.01 157.944 4081.92 16311.4 19957.4 52999.9)
(6822.19 -1515.18 554.468 16072 20363.1 52999.7)
(-5299.11 -10329.7 -1409.33 49744.5 9400.22 -9716.79)
(-106.324 -19119.7 -3020.27 44551.8 9012.79 -9716.66)
(7779.58 -25603.7 -4539.45 36665.8 8351.4 -9716.71)
(17407.6 -28999.4 -5920.71 27038.1 7436.32 -9716.49)
(27616.5 -28897.5 -7121.86 16829.2 6295.02 -9716.65)
(37174.5 -25309.9 -8107.02 7270.75 4962.83 -9716.72)
(44929.4 -18669.7 -8845.59 -483.859 3479.65 -9716.62)
(49945.2 -9777.65 -9315.44 -5500.16 1890.77 -9716.87)
(51617.8 293.656 -9502.13 -7172.18 244.435 -9716.68)
(49744.5 10329.7 -9400.22 -5299.11 -1409.33 -9716.79)
(44551.8 19119.7 -9012.79 -106.324 -3020.27 -9716.66)
(36665.8 25603.7 -8351.4 7779.58 -4539.45 -9716.71)
(27038.1 28999.4 -7436.32 17407.7 -5920.71 -9716.49)
(16829.2 28897.5 -6295.02 27616.5 -7121.86 -9716.65)
(7270.75 25309.9 -4962.83 37174.5 -8107.02 -9716.72)
(-483.859 18669.7 -3479.65 44929.4 -8845.59 -9716.62)
(-5500.16 9777.65 -1890.77 49945.2 -9315.44 -9716.87)
(-7172.18 -293.656 -244.435 51617.8 -9502.13 -9716.68)
(-5299.11 -10329.7 1409.33 49744.5 -9400.22 -9716.79)
(-106.324 -19119.7 3020.27 44551.8 -9012.79 -9716.65)
(7779.58 -25603.7 4539.45 36665.8 -8351.4 -9716.71)
(17407.6 -28999.4 5920.71 27038.1 -7436.32 -9716.49)
(27616.5 -28897.5 7121.86 16829.2 -6295.02 -9716.65)
(37174.5 -25309.9 8107.02 7270.75 -4962.83 -9716.72)
(44929.4 -18669.7 8845.59 -483.859 -3479.65 -9716.62)
(49945.2 -9777.65 9315.44 -5500.16 -1890.77 -9716.87)
(51617.8 293.656 9502.13 -7172.19 -244.435 -9716.69)
(49744.5 10329.7 9400.22 -5299.11 1409.33 -9716.79)
(44551.8 19119.7 9012.79 -106.325 3020.27 -9716.66)
(36665.8 25603.7 8351.4 7779.58 4539.45 -9716.71)
(27038.1 28999.4 7436.32 17407.6 5920.71 -9716.49)
(16829.2 28897.5 6295.02 27616.5 7121.86 -9716.65)
(7270.75 25309.9 4962.83 37174.5 8107.02 -9716.72)
(-483.86 18669.7 3479.65 44929.4 8845.59 -9716.62)
(-5500.16 9777.65 1890.77 49945.2 9315.44 -9716.87)
(-7172.18 -293.656 244.435 51617.8 9502.13 -9716.68)
(-34141.3 -6980.15 3561.92 -11995.7 -31693.9 -1786.64)
(-31086.2 -10346.3 9011.35 -15050.8 -30593.9 -1786.75)
(-27063.8 -12464.6 14187 -19072.8 -28564.3 -1786.57)
(-22559.9 -13079.4 18931.6 -23577 -25666.7 -1786.63)
(-18117.2 -12116.7 23101.1 -28019.9 -21989.3 -1786.8)
(-14271.7 -9692.44 26568.5 -31865.5 -17643.8 -1786.72)
(-11487.2 -6099.23 29228.7 -34650 -12762.2 -1786.85)
(-10099.3 -1770.37 31000.8 -36037.3 -7492.86 -1786.58)
(-10276 2772.07 31830.9 -35860.8 -1995.8 -1786.56)
(-11995.7 6980.15 31693.9 -34141.3 3561.92 -1786.64)
(-15050.8 10346.3 30593.9 -31086.2 9011.35 -1786.75)
(-19072.8 12464.6 28564.3 -27063.8 14187 -1786.57)
(-23577 13079.4 25666.7 -22559.9 18931.6 -1786.62)
(-28019.9 12116.7 21989.3 -18117.2 23101.1 -1786.8)
(-31865.5 9692.44 17643.8 -14271.6 26568.5 -1786.72)
(-34650 6099.23 12762.2 -11487.2 29228.7 -1786.85)
(-36037.3 1770.37 7492.86 -10099.3 31000.8 -1786.58)
(-35860.8 -2772.07 1995.8 -10276 31830.9 -1786.56)
(-34141.3 -6980.15 -3561.92 -11995.7 31693.9 -1786.64)
(-31086.2 -10346.3 -9011.35 -15050.8 30593.9 -1786.75)
(-27063.8 -12464.6 -14187 -19072.8 28564.3 -1786.57)
(-22559.9 -13079.4 -18931.6 -23577 25666.7 -1786.62)
(-18117.2 -12116.7 -23101.1 -28019.9 21989.3 -1786.8)
(-14271.7 -9692.44 -26568.5 -31865.5 17643.8 -1786.72)
(-11487.2 -6099.23 -29228.7 -34650 12762.2 -1786.85)
(-10099.3 -1770.37 -31000.8 -36037.3 7492.86 -1786.58)
(-10276 2772.07 -31830.9 -35860.8 1995.8 -1786.56)
(-11995.7 6980.15 -31693.9 -34141.3 -3561.92 -1786.64)
(-15050.8 10346.3 -30593.9 -31086.2 -9011.35 -1786.75)
(-19072.8 12464.6 -28564.3 -27063.8 -14187 -1786.57)
(-23577 13079.4 -25666.7 -22559.9 -18931.6 -1786.63)
(-28019.9 12116.7 -21989.3 -18117.2 -23101.1 -1786.81)
(-31865.5 9692.44 -17643.8 -14271.7 -26568.5 -1786.72)
(-34650 6099.23 -12762.2 -11487.2 -29228.7 -1786.86)
(-36037.3 1770.37 -7492.86 -10099.3 -31000.7 -1786.58)
(-35860.8 -2772.07 -1995.8 -10276 -31830.9 -1786.56)
(8003.93 -3030.28 -781.61 15309.4 20580 51625.2)
(9260.69 -4096.89 -4343.51 14052.9 20131.7 51625.1)
(10806.3 -4669.35 -7773.4 12507.1 19071.6 51625)
(12454.8 -4678.55 -10967 10858.8 17431.9 51625.3)
(14006.8 -4123.49 -13827.3 9306.94 15262.8 51625.3)
(15275.4 -3071.05 -16267.7 8038.23 12629.7 51625.4)
(16107.7 -1648.29 -18213.7 7206.25 9613.15 51625.3)
(16402.8 -26.6084 -19606.3 6910.67 6304.22 51625.1)
(16125.6 1598.25 -20403 7187.87 2803.89 51625.3)
(15309.4 3030.28 -20580 8003.93 -781.61 51625.2)
(14052.9 4096.89 -20131.7 9260.69 -4343.51 51625.1)
(12507.1 4669.35 -19071.6 10806.3 -7773.4 51625)
(10858.8 4678.55 -17431.9 12454.8 -10967 51625.3)
(9306.94 4123.49 -15262.8 14006.8 -13827.3 51625.3)
(8038.23 3071.05 -12629.7 15275.4 -16267.7 51625.4)
(7206.25 1648.29 -9613.15 16107.7 -18213.7 51625.3)
(6910.67 26.6087 -6304.22 16402.8 -19606.3 51625.1)
(7187.87 -1598.25 -2803.89 16125.6 -20403 51625.3)
(8003.93 -3030.28 781.61 15309.4 -20580 51625.2)
(9260.69 -4096.89 4343.51 14052.9 -20131.7 51625.1)
(10806.3 -4669.35 7773.4 12507.1 -19071.6 51625)
(12454.8 -4678.55 10967 10858.8 -17431.9 51625.3)
(14006.8 -4123.49 13827.3 9306.94 -15262.8 51625.3)
(15275.4 -3071.05 16267.7 8038.23 -12629.7 51625.4)
(16107.7 -1648.29 18213.7 7206.25 -9613.15 51625.3)
(16402.8 -26.6086 19606.3 6910.67 -6304.22 51625.1)
(16125.6 1598.25 20403 7187.87 -2803.89 51625.3)
(15309.4 3030.28 20580 8003.93 781.61 51625.2)
(14052.9 4096.89 20131.7 9260.69 4343.51 51625.1)
(12507.1 4669.35 19071.6 10806.3 7773.4 51625)
(10858.8 4678.55 17431.9 12454.8 10967 51625.3)
(9306.94 4123.49 15262.8 14006.8 13827.3 51625.3)
(8038.23 3071.05 12629.7 15275.4 16267.7 51625.4)
(7206.25 1648.29 9613.15 16107.7 18213.7 51625.3)
(6910.67 26.6084 6304.22 16402.8 19606.3 51625.1)
(7187.87 -1598.25 2803.89 16125.6 20403 51625.3)
(-3440 -12448.1 -1514.87 49526.1 9704.37 -11003)
(2414.58 -20755.1 -3176.99 43671.5 9293.83 -11003.1)
(10757.4 -26558.9 -4742.57 35328.7 8600.9 -11003.1)
(20582 -29159.1 -6164.12 25504.2 7646.8 -11003)
(30703.2 -28242.3 -7398.35 15382.7 6460.28 -11003.1)
(39900.8 -23919.2 -8407.71 6185.4 5077.4 -11003)
(47065 -16711 -9161.55 -978.88 3540.24 -11003.1)
(51331.8 -7487.14 -9637.18 -5245.69 1895.56 -11003.1)
(52186.5 2639.69 -9819.99 -6100.39 193.286 -11003.1)
(49526.1 12448.1 -9704.37 -3440 -1514.87 -11003)
(43671.5 20755.1 -9293.83 2414.58 -3176.99 -11003.1)
(35328.7 26558.9 -8600.9 10757.4 -4742.57 -11003.1)
(25504.2 29159.1 -7646.8 20582 -6164.12 -11003)
(15382.7 28242.3 -6460.28 30703.2 -7398.35 -11003.1)
(6185.4 23919.2 -5077.4 39900.8 -8407.71 -11003)
(-978.879 16711 -3540.24 47065 -9161.55 -11003.1)
(-5245.69 7487.14 -1895.56 51331.8 -9637.18 -11003.1)
(-6100.39 -2639.69 -193.286 52186.5 -9819.99 -11003.1)
(-3440 -12448.1 1514.87 49526.1 -9704.37 -11003)
(2414.58 -20755.1 3176.99 43671.5 -9293.83 -11003.1)
(10757.4 -26558.9 4742.57 35328.7 -8600.9 -11003.1)
(20582 -29159.1 6164.12 25504.2 -7646.8 -11003)
(30703.2 -28242.3 7398.35 15382.7 -6460.28 -11003.1)
(39900.8 -23919.2 8407.71 6185.4 -5077.4 -11003)
(47065 -16711 9161.55 -978.879 -3540.24 -11003.1)
(51331.8 -7487.14 9637.18 -5245.69 -1895.56 -11003.1)
(52186.5 2639.69 9819.99 -6100.39 -193.286 -11003.1)
(49526.1 12448.1 9704.37 -3440 1514.87 -11003)
(43671.5 20755.1 9293.83 2414.58 3176.99 -11003.1)
(35328.7 26558.9 8600.9 10757.4 4742.57 -11003.1)
(25504.2 29159.1 7646.8 20582 6164.12 -11003)
(15382.7 28242.3 6460.28 30703.2 7398.35 -11003.1)
(6185.4 23919.2 5077.4 39900.8 8407.71 -11003)
(-978.88 16711 3540.24 47065 9161.55 -11003.1)
(-5245.69 7487.14 1895.56 51331.8 9637.18 -11003.1)
(-6100.39 -2639.69 193.286 52186.5 9819.99 -11003.1)
(-28847.4 -11072.7 5969.97 -9687.11 -31674.1 -1005.78)
(-24482.6 -13681.5 11379.4 -14052 -30156.3 -1005.94)
(-19488.6 -14640.2 16443.2 -19045.8 -27722.1 -1005.8)
(-14468.2 -13833 21007.2 -24066.5 -24445.6 -1005.83)
(-10026.4 -11357.4 24933 -28508.3 -20426.4 -1006.03)
(-6699.22 -7511.84 28101.2 -31835.3 -15786.5 -1005.8)
(-4888.08 -2760.28 30415.6 -33646.7 -10666.9 -1005.95)
(-4810.96 2324.17 31805.8 -33723.5 -5223.27 -1005.91)
(-6477.73 7128.37 32229.6 -32056.7 379.154 -1005.78)
(-9687.1 11072.7 31674.1 -28847.4 5969.98 -1005.78)
(-14052 13681.5 30156.3 -24482.6 11379.4 -1005.93)
(-19045.8 14640.2 27722.1 -19488.6 16443.2 -1005.8)
(-24066.5 13833 24445.6 -14468.2 21007.2 -1005.83)
(-28508.3 11357.4 20426.4 -10026.4 24933 -1006.02)
(-31835.3 7511.84 15786.5 -6699.22 28101.2 -1005.8)
(-33646.7 2760.28 10666.9 -4888.08 30415.6 -1005.95)
(-33723.5 -2324.17 5223.27 -4810.96 31805.8 -1005.91)
(-32056.7 -7128.37 -379.155 -6477.73 32229.6 -1005.78)
(-28847.4 -11072.7 -5969.98 -9687.1 31674.1 -1005.78)
(-24482.6 -13681.5 -11379.4 -14052 30156.3 -1005.93)
(-19488.6 -14640.2 -16443.2 -19045.8 27722.1 -1005.8)
(-14468.2 -13833 -21007.2 -24066.5 24445.6 -1005.83)
(-10026.4 -11357.4 -24933 -28508.3 20426.4 -1006.03)
(-6699.22 -7511.84 -28101.2 -31835.3 15786.5 -1005.8)
(-4888.08 -2760.28 -30415.6 -33646.7 10666.9 -1005.95)
(-4810.97 2324.17 -31805.8 -33723.5 5223.27 -1005.91)
(-6477.73 7128.37 -32229.6 -32056.7 -379.154 -1005.78)
(-9687.11 11072.7 -31674.1 -28847.4 -5969.97 -1005.78)
(-14052 13681.5 -30156.3 -24482.6 -11379.4 -1005.94)
(-19045.8 14640.2 -27722.1 -19488.6 -16443.2 -1005.8)
(-24066.5 13833 -24445.6 -14468.2 -21007.2 -1005.83)
(-28508.3 11357.4 -20426.4 -10026.4 -24933 -1006.03)
(-31835.3 7511.84 -15786.5 -6699.22 -28101.2 -1005.81)
(-33646.7 2760.28 -10666.9 -4888.09 -30415.6 -1005.95)
(-33723.5 -2324.17 -5223.27 -4810.97 -31805.8 -1005.91)
(-32056.7 -7128.37 379.154 -6477.73 -32229.6 -1005.78)
(7911.36 -2425.04 1675.87 14672.6 20993.3 50101.9)
(8944.76 -3435.04 -1995.07 13639.5 20965.5 50101.9)
(10260.9 -4030.72 -5605.37 12322.9 20300.6 50101.6)
(11701.9 -4140.31 -9045.53 10882.2 19018.7 50101.8)
(13093 -3750.33 -12210.5 9490.69 17159 50101.8)
(14267.3 -2908.21 -15004.8 8316.73 14778 50101.7)
(15082.7 -1715.22 -17342.9 7501.76 11948.1 50102)
(15440.5 -315.371 -19154.2 7143.39 8754.95 50101.6)
(15298.2 1122.59 -20383.4 7285.85 5295.79 50101.9)
(14672.6 2425.04 -20993.3 7911.36 1675.87 50101.9)
(13639.5 3435.04 -20965.5 8944.76 -1995.07 50101.9)
(12322.9 4030.72 -20300.6 10260.9 -5605.37 50101.6)
(10882.2 4140.31 -19018.7 11701.9 -9045.53 50101.8)
(9490.69 3750.33 -17159 13093 -12210.5 50101.8)
(8316.73 2908.21 -14778 14267.3 -15004.8 50101.7)
(7501.76 1715.22 -11948.1 15082.7 -17342.9 50102)
(7143.39 315.371 -8754.95 15440.5 -19154.2 50101.6)
(7285.85 -1122.59 -5295.79 15298.2 -20383.4 50101.9)
(7911.36 -2425.04 -1675.87 14672.6 -20993.3 50101.9)
(8944.76 -3435.04 1995.07 13639.5 -20965.5 50101.9)
(10260.9 -4030.72 5605.37 12322.9 -20300.6 50101.6)
(11701.9 -4140.31 9045.53 10882.2 -19018.7 50101.8)
(13093 -3750.33 12210.5 9490.69 -17159 50101.8)
(14267.3 -2908.21 15004.8 8316.73 -14778 50101.7)
(15082.7 -1715.22 17342.9 7501.76 -11948.1 50102)
(15440.5 -315.371 19154.2 7143.39 -8754.95 50101.6)
(15298.2 1122.59 20383.4 7285.85 -5295.79 50101.9)
(14672.6 2425.04 20993.3 7911.36 -1675.87 50101.9)
(13639.5 3435.04 20965.5 8944.76 1995.07 50101.9)
(12322.9 4030.72 20300.6 10260.9 5605.37 50101.6)
(10882.2 4140.31 19018.7 11701.9 9045.53 50101.8)
(9490.69 3750.33 17159 13093 12210.5 50101.8)
(8316.73 2908.21 14778 14267.3 15004.8 50101.7)
(7501.76 1715.22 11948.1 15082.7 17342.9 50102)
(7143.39 315.371 8754.95 15440.5 19154.2 50101.6)
(7285.85 -1122.59 5295.79 15298.2 20383.4 50101.9)
(-1982.97 -13668.6 -1581.9 48459.2 10160.1 -12172.1)
(4212.76 -21470.4 -3322.16 42263 9731.04 -12172.3)
(12703.7 -26682.6 -4961.43 33772.6 9006.22 -12172.1)
(22464.9 -28676.5 -6449.97 24011.1 8007.84 -12172.3)
(32319.3 -27211.4 -7742.63 14156.7 6766.3 -12172.1)
(41078.6 -22464.5 -8799.8 5397.71 5318.93 -12172.1)
(47685.9 -15007.8 -9589.74 -1209.92 3710.04 -12172.3)
(51344.6 -5741.08 -10088.4 -4868.34 1988.46 -12172.1)
(51613.1 4218.21 -10280.4 -5136.97 206.407 -12172.2)
(48459.2 13668.6 -10160.1 -1982.97 -1581.9 -12172.1)
(42263 21470.4 -9731.04 4212.76 -3322.16 -12172.3)
(33772.7 26682.6 -9006.22 12703.7 -4961.42 -12172.1)
(24011.1 28676.5 -8007.84 22464.9 -6449.97 -12172.3)
(14156.7 27211.4 -6766.3 32319.3 -7742.63 -12172.1)
(5397.71 22464.5 -5318.93 41078.6 -8799.8 -12172.1)
(-1209.92 15007.8 -3710.04 47685.9 -9589.74 -12172.3)
(-4868.33 5741.08 -1988.47 51344.6 -10088.4 -12172.1)
(-5136.97 -4218.21 -206.407 51613.1 -10280.4 -12172.2)
(-1982.97 -13668.6 1581.9 48459.2 -10160.1 -12172.1)
(4212.76 -21470.4 3322.16 42263 -9731.04 -12172.3)
(12703.7 -26682.6 4961.42 33772.7 -9006.22 -12172.1)
(22464.9 -28676.5 6449.97 24011.1 -8007.84 -12172.3)
(32319.3 -27211.4 7742.63 14156.7 -6766.3 -12172.1)
(41078.6 -22464.5 8799.8 5397.71 -5318.93 -12172.1)
(47685.9 -15007.8 9589.74 -1209.92 -3710.04 -12172.3)
(51344.6 -5741.08 10088.4 -4868.34 -1988.46 -12172.1)
(51613.1 4218.21 10280.4 -5136.97 -206.407 -12172.2)
(48459.2 13668.6 10160.1 -1982.97 1581.9 -12172.1)
(42263 21470.4 9731.04 4212.76 3322.16 -12172.3)
(33772.6 26682.6 9006.22 12703.7 4961.42 -12172.1)
(24011.1 28676.5 8007.84 22464.9 6449.97 -12172.3)
(14156.7 27211.4 6766.3 32319.3 7742.63 -12172.1)
(5397.71 22464.5 5318.93 41078.6 8799.8 -12172.1)
(-1209.92 15007.8 3710.04 47685.9 9589.74 -12172.3)
(-4868.34 5741.08 1988.46 51344.6 10088.4 -12172.1)
(-5136.97 -4218.21 206.407 51613.1 10280.4 -12172.2)
(-23890.3 -14793.2 8409.65 -8735.08 -31587.6 -1218.72)
(-18373.6 -16492.7 13767 -14251.6 -29647.3 -1218.35)
(-12608.5 -16203 18706.1 -20016.8 -26806.3 -1218.56)
(-7290.23 -13958.9 23076.8 -25335.3 -23150.7 -1218.52)
(-3059.96 -10031.2 26746.3 -29565.2 -18791.8 -1218.47)
(-428.445 -4893.61 29603.1 -32197 -13861.9 -1218.53)
(287.416 834.223 31560.5 -32912.8 -8510.78 -1218.63)
(-999.183 6461.48 32558.9 -31626.4 -2901.05 -1218.59)
(-4132.3 11309.4 32568 -28492.7 2796.85 -1218.57)
(-8735.07 14793.2 31587.6 -23890.3 8409.65 -1218.71)
(-14251.6 16492.7 29647.3 -18373.6 13767 -1218.35)
(-20016.8 16203 26806.3 -12608.5 18706.1 -1218.56)
(-25335.3 13958.9 23150.7 -7290.23 23076.8 -1218.52)
(-29565.2 10031.2 18791.8 -3059.96 26746.3 -1218.47)
(-32197 4893.61 13861.9 -428.444 29603.1 -1218.53)
(-32912.8 -834.223 8510.78 287.417 31560.5 -1218.63)
(-31626.4 -6461.48 2901.05 -999.183 32558.9 -1218.59)
(-28492.7 -11309.4 -2796.85 -4132.3 32568 -1218.57)
(-23890.3 -14793.2 -8409.65 -8735.07 31587.6 -1218.71)
(-18373.6 -16492.7 -13767 -14251.6 29647.3 -1218.35)
(-12608.5 -16203 -18706.1 -20016.8 26806.3 -1218.56)
(-7290.23 -13958.9 -23076.8 -25335.3 23150.7 -1218.52)
(-3059.96 -10031.2 -26746.3 -29565.2 18791.8 -1218.47)
(-428.446 -4893.61 -29603.1 -32197 13861.9 -1218.53)
(287.415 834.223 -31560.5 -32912.8 8510.78 -1218.63)
(-999.185 6461.48 -32558.9 -31626.4 2901.05 -1218.6)
(-4132.3 11309.4 -32568 -28492.7 -2796.85 -1218.57)
(-8735.08 14793.2 -31587.6 -23890.3 -8409.65 -1218.72)
(-14251.6 16492.7 -29647.3 -18373.6 -13767 -1218.35)
(-20016.8 16203 -26806.3 -12608.5 -18706.1 -1218.56)
(-25335.3 13958.9 -23150.7 -7290.23 -23076.8 -1218.52)
(-29565.2 10031.2 -18791.8 -3059.96 -26746.3 -1218.48)
(-32197 4893.61 -13861.9 -428.447 -29603.1 -1218.53)
(-32912.8 -834.223 -8510.78 287.414 -31560.5 -1218.63)
(-31626.4 -6461.48 -2901.05 -999.185 -32558.9 -1218.6)
(-28492.7 -11309.4 2796.85 -4132.3 -32568 -1218.57)
(7421.01 -1318.64 4174.88 13306.4 21365.2 48107.2)
(8049.59 -2245.54 401.486 12678 21765.6 48107.4)
(8957 -2901.58 -3384.1 11770.2 21504.6 48107.3)
(10034.4 -3207.79 -7067.1 10693.2 20590.3 48107.2)
(11151.3 -3126.96 -10535.2 9576.05 19050.2 48107.3)
(12173.3 -2669.04 -13683.2 8554.14 16931.5 48107.1)
(12977 -1889.08 -16415.2 7750.45 14298.2 48107.4)
(13465.4 -881.416 -18648.8 7261.84 11230.5 48107.2)
(13580 232.666 -20315.7 7147.56 7821.48 48107.3)
(13306.4 1318.64 -21365.2 7421.01 4174.88 48107.2)
(12678 2245.54 -21765.6 8049.59 401.486 48107.4)
(11770.2 2901.58 -21504.6 8957 -3384.1 48107.3)
(10693.2 3207.79 -20590.3 10034.4 -7067.1 48107.2)
(9576.05 3126.96 -19050.2 11151.3 -10535.2 48107.3)
(8554.14 2669.04 -16931.5 12173.3 -13683.2 48107.1)
(7750.45 1889.08 -14298.2 12977 -16415.2 48107.4)
(7261.84 881.417 -11230.5 13465.4 -18648.8 48107.2)
(7147.56 -232.666 -7821.48 13580 -20315.7 48107.3)
(7421.01 -1318.64 -4174.88 13306.4 -21365.2 48107.2)