/*--------------------------------*- C++ -*----------------------------------*\
| =========                 |                                                 |
| \\      /  F ield         | OpenFOAM: The Open Source CFD Toolbox           |
|  \\    /   O peration     | Version:  2312                                  |
|   \\  /    A nd           | Website:  www.openfoam.com                      |
|    \\/     M anipulation  |                                                 |
\*---------------------------------------------------------------------------*/
FoamFile
{
    version     2.0;
    format      ascii;
    arch        "LSB;label=32;scalar=64";
    class       volVectorField;
    location    "1";
    object      traction;
}
// * * * * * * * * * * * * * * * * * * * * * * * * * * * * * * * * * * * * * //

dimensions      [1 -1 -2 0 0 0 0];

internalField   uniform (0 0 0);

boundaryField
{
    fixed
    {
        type            calculated;
        value           nonuniform List<vector> 
108
(
(-774.11 -1637.92 -8528.69)
(-477.927 -1747.46 -8528.62)
(-167.214 -1803.92 -8528.6)
(148.557 -1805.56 -8528.88)
(459.818 -1752.33 -8528.96)
(757.125 -1645.86 -8528.86)
(1031.43 -1489.37 -8528.77)
(1274.38 -1287.63 -8528.75)
(1478.61 -1046.77 -8528.69)
(1637.92 -774.109 -8528.68)
(1747.46 -477.926 -8528.62)
(1803.92 -167.214 -8528.6)
(1805.56 148.557 -8528.88)
(1752.33 459.818 -8528.96)
(1645.86 757.125 -8528.86)
(1489.37 1031.43 -8528.77)
(1287.63 1274.38 -8528.75)
(1046.77 1478.61 -8528.69)
(774.109 1637.92 -8528.68)
(477.926 1747.46 -8528.62)
(167.214 1803.92 -8528.6)
(-148.557 1805.56 -8528.88)
(-459.818 1752.33 -8528.96)
(-757.125 1645.86 -8528.86)
(-1031.43 1489.37 -8528.78)
(-1274.38 1287.63 -8528.75)
(-1478.61 1046.77 -8528.7)
(-1637.92 774.109 -8528.69)
(-1747.46 477.927 -8528.62)
(-1803.92 167.214 -8528.6)
(-1805.56 -148.557 -8528.88)
(-1752.33 -459.818 -8528.96)
(-1645.86 -757.125 -8528.86)
(-1489.37 -1031.43 -8528.78)
(-1287.63 -1274.38 -8528.75)
(-1046.77 -1478.61 -8528.7)
(-1011.03 -1872.55 -23569.5)
(-670.503 -2019.67 -23569.4)
(-309.594 -2105.42 -23569.3)
(60.7044 -2127.19 -23569.4)
(429.156 -2084.34 -23569.5)
(784.579 -1978.15 -23569.4)
(1116.17 -1811.84 -23569.3)
(1413.83 -1590.49 -23569.4)
(1668.54 -1320.83 -23569.5)
(1872.55 -1011.03 -23569.5)
(2019.67 -670.503 -23569.4)
(2105.42 -309.593 -23569.3)
(2127.19 60.7045 -23569.4)
(2084.34 429.156 -23569.5)
(1978.15 784.579 -23569.4)
(1811.84 1116.17 -23569.3)
(1590.49 1413.83 -23569.4)
(1320.83 1668.54 -23569.5)
(1011.03 1872.55 -23569.5)
(670.503 2019.67 -23569.4)
(309.593 2105.42 -23569.3)
(-60.7046 2127.19 -23569.4)
(-429.156 2084.34 -23569.5)
(-784.579 1978.15 -23569.4)
(-1116.17 1811.84 -23569.3)
(-1413.83 1590.49 -23569.4)
(-1668.54 1320.83 -23569.5)
(-1872.55 1011.03 -23569.5)
(-2019.67 670.503 -23569.4)
(-2105.42 309.593 -23569.3)
(-2127.2 -60.7045 -23569.4)
(-2084.34 -429.156 -23569.5)
(-1978.15 -784.579 -23569.5)
(-1811.84 -1116.17 -23569.3)
(-1590.49 -1413.83 -23569.4)
(-1320.83 -1668.54 -23569.5)
(-686.583 -1955.49 -61401.4)
(-336.596 -2045.01 -61401.5)
(23.653 -2072.39 -61401.7)
(383.16 -2036.79 -61401.5)
(731.007 -1939.33 -61401.6)
(1056.66 -1782.92 -61401.5)
(1350.22 -1572.33 -61401.5)
(1602.74 -1313.97 -61401.6)
(1806.56 -1015.72 -61401.5)
(1955.49 -686.583 -61401.4)
(2045.01 -336.596 -61401.5)
(2072.39 23.653 -61401.7)
(2036.79 383.16 -61401.5)
(1939.33 731.007 -61401.6)
(1782.92 1056.66 -61401.5)
(1572.33 1350.22 -61401.5)
(1313.97 1602.74 -61401.6)
(1015.72 1806.56 -61401.5)
(686.583 1955.49 -61401.4)
(336.596 2045.01 -61401.5)
(-23.6532 2072.39 -61401.7)
(-383.16 2036.79 -61401.5)
(-731.007 1939.33 -61401.6)
(-1056.66 1782.92 -61401.5)
(-1350.22 1572.33 -61401.5)
(-1602.74 1313.97 -61401.7)
(-1806.56 1015.72 -61401.5)
(-1955.49 686.583 -61401.4)
(-2045.01 336.596 -61401.5)
(-2072.39 -23.6532 -61401.7)
(-2036.79 -383.16 -61401.5)
(-1939.33 -731.007 -61401.6)
(-1782.92 -1056.66 -61401.5)
(-1572.33 -1350.22 -61401.5)
(-1313.97 -1602.74 -61401.7)
(-1015.72 -1806.56 -61401.5)
)
;
    }
    inside
    {
        type            calculated;
        value           nonuniform List<vector> 
540
(
(58847.2 6450.48 11637.5)
(56833.2 16571.1 11637.1)
(53092.2 26188.6 11637.5)
(47737.9 35010 11637.3)
(40933.4 42767.7 11637.2)
(32884.9 49225.9 11637.4)
(23837.4 54188.5 11637.1)
(14065.4 57504.7 11637.5)
(3866.18 59073.4 11637.4)
(-6450.48 58847.2 11637.5)
(-16571.1 56833.2 11637.1)
(-26188.6 53092.2 11637.5)
(-35010 47737.9 11637.3)
(-42767.7 40933.4 11637.2)
(-49225.9 32884.9 11637.4)
(-54188.5 23837.4 11637.1)
(-57504.7 14065.4 11637.5)
(-59073.4 3866.18 11637.4)
(-58847.2 -6450.48 11637.5)
(-56833.2 -16571.1 11637.1)
(-53092.2 -26188.6 11637.5)
(-47737.9 -35010 11637.3)
(-40933.4 -42767.7 11637.2)
(-32884.9 -49225.9 11637.4)
(-23837.4 -54188.5 11637.1)
(-14065.4 -57504.7 11637.5)
(-3866.18 -59073.4 11637.4)
(6450.48 -58847.2 11637.5)
(16571.1 -56833.2 11637.1)
(26188.6 -53092.2 11637.5)
(35010 -47737.9 11637.3)
(42767.7 -40933.4 11637.2)
(49225.9 -32885 11637.4)
(54188.5 -23837.4 11637.1)
(57504.7 -14065.4 11637.5)
(59073.4 -3866.18 11637.4)
(38218.2 3449.52 6985.69)
(37038.6 10033.8 6985.46)
(34733.6 16312.9 6985.6)
(31373.1 22096.6 6985.78)
(27059.4 27208.6 6985.76)
(21923.5 31493.8 6985.72)
(16121.6 34822.6 6985.63)
(9829.91 37093.1 6985.56)
(3239.31 38236.6 6985.45)
(-3449.52 38218.2 6985.69)
(-10033.8 37038.6 6985.46)
(-16312.9 34733.6 6985.6)
(-22096.6 31373.1 6985.78)
(-27208.6 27059.4 6985.76)
(-31493.8 21923.5 6985.72)
(-34822.6 16121.6 6985.63)
(-37093.1 9829.91 6985.55)
(-38236.6 3239.31 6985.45)
(-38218.2 -3449.52 6985.69)
(-37038.6 -10033.8 6985.46)
(-34733.6 -16312.9 6985.6)
(-31373.1 -22096.6 6985.78)
(-27059.4 -27208.6 6985.76)
(-21923.5 -31493.8 6985.72)
(-16121.6 -34822.6 6985.63)
(-9829.91 -37093.1 6985.56)
(-3239.31 -38236.6 6985.45)
(3449.52 -38218.2 6985.69)
(10033.8 -37038.6 6985.46)
(16312.9 -34733.6 6985.6)
(22096.6 -31373.1 6985.78)
(27208.6 -27059.4 6985.76)
(31493.8 -21923.5 6985.72)
(34822.6 -16121.6 6985.63)
(37093.1 -9829.91 6985.56)
(38236.6 -3239.31 6985.45)
(33997.9 3611.72 4874.33)
(32854.2 9460.58 4874.46)
(30712.2 15021.8 4874.28)
(27637.1 20126.8 4874.11)
(23722.4 24620.2 4874.18)
(19086.7 28365.5 4874.18)
(13871.1 31249 4874.32)
(8234.05 33182.7 4874.5)
(2346.81 34108.4 4874.26)
(-3611.72 33997.9 4874.33)
(-9460.58 32854.2 4874.45)
(-15021.8 30712.2 4874.27)
(-20126.8 27637.1 4874.11)
(-24620.2 23722.4 4874.18)
(-28365.5 19086.7 4874.18)
(-31249 13871.1 4874.32)
(-33182.7 8234.05 4874.5)
(-34108.4 2346.81 4874.26)
(-33997.9 -3611.72 4874.33)
(-32854.2 -9460.58 4874.45)
(-30712.2 -15021.8 4874.27)
(-27637.1 -20126.8 4874.11)
(-23722.4 -24620.2 4874.18)
(-19086.7 -28365.5 4874.18)
(-13871.1 -31249 4874.32)
(-8234.05 -33182.7 4874.5)
(-2346.81 -34108.4 4874.26)
(3611.72 -33997.9 4874.33)
(9460.58 -32854.2 4874.45)
(15021.8 -30712.2 4874.27)
(20126.8 -27637.1 4874.11)
(24620.2 -23722.4 4874.18)
(28365.5 -19086.7 4874.18)
(31249 -13871.1 4874.32)
(33182.7 -8234.05 4874.5)
(34108.4 -2346.81 4874.26)
(30490.7 4069.23 2325.87)
(29321 9302.06 2325.82)
(27260.1 14252.2 2325.86)
(24371.2 18769.4 2325.95)
(20741.7 22716.3 2325.89)
(16481.9 25972.9 2325.93)
(11721.3 28440.5 2325.88)
(6604.65 30043.6 2325.77)
(1287.34 30734.1 2325.99)
(-4069.23 30490.7 2325.87)
(-9302.05 29321 2325.82)
(-14252.2 27260.1 2325.85)
(-18769.4 24371.2 2325.95)
(-22716.3 20741.7 2325.88)
(-25972.9 16481.9 2325.93)
(-28440.5 11721.3 2325.87)
(-30043.6 6604.65 2325.77)
(-30734.1 1287.34 2325.99)
(-30490.7 -4069.23 2325.86)
(-29321 -9302.05 2325.82)
(-27260.1 -14252.2 2325.85)
(-24371.2 -18769.4 2325.95)
(-20741.7 -22716.3 2325.88)
(-16481.9 -25972.9 2325.93)
(-11721.3 -28440.5 2325.88)
(-6604.65 -30043.6 2325.77)
(-1287.34 -30734.1 2325.99)
(4069.23 -30490.7 2325.87)
(9302.06 -29321 2325.82)
(14252.2 -27260.1 2325.86)
(18769.4 -24371.2 2325.95)
(22716.3 -20741.7 2325.89)
(25972.9 -16481.9 2325.93)
(28440.5 -11721.3 2325.88)
(30043.6 -6604.65 2325.77)
(30734.1 -1287.34 2325.99)
(27703.8 4287.46 -604.58)
(26538.4 9032.82 -604.395)
(24566.7 13504.2 -604.519)
(21848.5 17564.9 -604.532)
(18466.4 21091.9 -604.503)
(14523.3 23978.3 -604.553)
(10138.9 26135.9 -604.504)
(5446.28 27499.6 -604.484)
(588.466 28027.4 -604.461)
(-4287.46 27703.8 -604.582)
(-9032.82 26538.4 -604.397)
(-13504.2 24566.7 -604.521)
(-17564.9 21848.5 -604.534)
(-21091.9 18466.4 -604.504)
(-23978.3 14523.3 -604.555)
(-26135.9 10139 -604.505)
(-27499.6 5446.28 -604.485)
(-28027.4 588.467 -604.462)
(-27703.8 -4287.46 -604.583)
(-26538.4 -9032.82 -604.397)
(-24566.7 -13504.2 -604.521)
(-21848.5 -17564.9 -604.534)
(-18466.4 -21091.9 -604.504)
(-14523.3 -23978.3 -604.554)
(-10139 -26135.9 -604.504)
(-5446.28 -27499.6 -604.484)
(-588.466 -28027.4 -604.461)
(4287.46 -27703.8 -604.581)
(9032.82 -26538.4 -604.396)
(13504.2 -24566.7 -604.52)
(17564.9 -21848.5 -604.532)
(21091.9 -18466.4 -604.502)
(23978.3 -14523.3 -604.552)
(26135.9 -10138.9 -604.503)
(27499.6 -5446.28 -604.483)
(28027.4 -588.465 -604.46)
(24763.1 3869.97 -3682.53)
(23714.8 8111.1 -3682.55)
(21946.2 12106.1 -3682.57)
(19510.4 15733 -3682.69)
(16482.1 18882 -3682.72)
(12952.9 21457.4 -3682.7)
(9030.01 23380.5 -3682.67)
(4832.84 24593.5 -3682.64)
(488.88 25059 -3682.48)
(-3869.97 24763.1 -3682.53)
(-8111.1 23714.8 -3682.55)
(-12106.1 21946.2 -3682.57)
(-15733 19510.4 -3682.69)
(-18882 16482.1 -3682.72)
(-21457.4 12952.9 -3682.7)
(-23380.5 9030.01 -3682.68)
(-24593.5 4832.84 -3682.64)
(-25059 488.88 -3682.48)
(-24763.1 -3869.97 -3682.53)
(-23714.8 -8111.1 -3682.55)
(-21946.2 -12106.1 -3682.57)
(-19510.4 -15733 -3682.69)
(-16482.1 -18882 -3682.72)
(-12952.9 -21457.4 -3682.7)
(-9030.01 -23380.5 -3682.67)
(-4832.84 -24593.5 -3682.64)
(-488.879 -25059 -3682.48)
(3869.97 -24763.1 -3682.53)
(8111.1 -23714.8 -3682.55)
(12106.1 -21946.2 -3682.57)
(15733 -19510.4 -3682.69)
(18882 -16482.1 -3682.72)
(21457.4 -12952.9 -3682.7)
(23380.5 -9030.01 -3682.67)
(24593.5 -4832.84 -3682.64)
(25059 -488.879 -3682.48)
(21104.8 2461.48 -6593.58)
(20356.5 6088.66 -6593.51)
(18990.1 9531.22 -6593.43)
(17046.5 12683.9 -6593.3)
(14585 15451.3 -6593.36)
(11680.2 17749.3 -6593.37)
(8420.74 19507.8 -6593.4)
(4905.24 20673.8 -6593.6)
(1240.88 21211.2 -6593.55)
(-2461.48 21104.8 -6593.58)
(-6088.66 20356.5 -6593.52)
(-9531.22 18990.1 -6593.43)
(-12683.9 17046.5 -6593.3)
(-15451.3 14585 -6593.36)
(-17749.3 11680.2 -6593.37)
(-19507.8 8420.74 -6593.41)
(-20673.8 4905.24 -6593.6)
(-21211.2 1240.88 -6593.55)
(-21104.8 -2461.48 -6593.58)
(-20356.5 -6088.66 -6593.52)
(-18990.1 -9531.22 -6593.43)
(-17046.5 -12683.9 -6593.3)
(-14585 -15451.3 -6593.36)
(-11680.2 -17749.4 -6593.37)
(-8420.74 -19507.8 -6593.41)
(-4905.24 -20673.8 -6593.6)
(-1240.88 -21211.2 -6593.55)
(2461.48 -21104.8 -6593.58)
(6088.66 -20356.5 -6593.52)
(9531.22 -18990.1 -6593.43)
(12683.9 -17046.5 -6593.3)
(15451.3 -14585 -6593.36)
(17749.4 -11680.2 -6593.37)
(19507.8 -8420.74 -6593.4)
(20673.8 -4905.24 -6593.6)
(21211.2 -1240.88 -6593.55)
(16503.9 -498.805 -8962.48)
(16339.8 2374.45 -8962.41)
(15679.1 5175.72 -8962.59)
(14542.3 7819.68 -8962.53)
(12963.4 10226.3 -8962.55)
(10990.6 12322.2 -8962.63)
(8684 14043.5 -8962.59)
(6113.42 15337.9 -8962.49)
(3357.23 16166.5 -8962.46)
(498.807 16503.9 -8962.48)
(-2374.45 16339.8 -8962.41)
(-5175.72 15679.1 -8962.59)
(-7819.67 14542.3 -8962.53)
(-10226.3 12963.4 -8962.55)
(-12322.2 10990.6 -8962.63)
(-14043.5 8684 -8962.6)
(-15337.9 6113.42 -8962.49)
(-16166.5 3357.23 -8962.46)
(-16503.9 498.806 -8962.48)
(-16339.8 -2374.45 -8962.41)
(-15679.1 -5175.72 -8962.59)
(-14542.3 -7819.68 -8962.53)
(-12963.4 -10226.3 -8962.55)
(-10990.6 -12322.2 -8962.63)
(-8684 -14043.5 -8962.6)
(-6113.42 -15338 -8962.49)
(-3357.23 -16166.5 -8962.46)
(-498.804 -16503.9 -8962.48)
(2374.45 -16339.8 -8962.41)
(5175.72 -15679.1 -8962.59)
(7819.68 -14542.3 -8962.53)
(10226.3 -12963.4 -8962.55)
(12322.2 -10990.6 -8962.63)
(14043.5 -8684 -8962.59)
(15338 -6113.42 -8962.49)
(16166.5 -3357.23 -8962.46)
(11205.5 -5371.24 -10372.7)
(11968.3 -3343.84 -10372.6)
(12367 -1214.77 -10372.5)
(12390.1 951.379 -10372.7)
(12036.7 3088.38 -10372.7)
(11317.6 5131.4 -10372.6)
(10254.6 7018.8 -10372.6)
(8879.88 8692.81 -10372.6)
(7235.59 10103 -10372.7)
(5371.24 11205.5 -10372.7)
(3343.84 11968.3 -10372.6)
(1214.77 12367 -10372.5)
(-951.377 12390.1 -10372.7)
(-3088.37 12036.7 -10372.7)
(-5131.4 11317.6 -10372.6)
(-7018.8 10254.6 -10372.6)
(-8692.81 8879.88 -10372.6)
(-10103 7235.59 -10372.7)
(-11205.5 5371.24 -10372.7)
(-11968.3 3343.84 -10372.6)
(-12367 1214.77 -10372.5)
(-12390.1 -951.382 -10372.7)
(-12036.7 -3088.38 -10372.7)
(-11317.6 -5131.41 -10372.6)
(-10254.6 -7018.8 -10372.6)
(-8879.88 -8692.81 -10372.6)
(-7235.58 -10103 -10372.7)
(-5371.24 -11205.5 -10372.7)
(-3343.84 -11968.3 -10372.6)
(-1214.77 -12367 -10372.5)
(951.383 -12390.1 -10372.7)
(3088.38 -12036.7 -10372.7)
(5131.41 -11317.6 -10372.6)
(7018.8 -10254.6 -10372.6)
(8692.81 -8879.88 -10372.6)
(10103 -7235.59 -10372.7)
(5895.2 -11702.5 -10511.4)
(7837.92 -10500.9 -10511.5)
(9542.33 -8980.28 -10511.5)
(10956.7 -7186.79 -10511.4)
(12038.3 -5175.17 -10511.3)
(12754.1 -3006.22 -10511.3)
(13082.3 -745.881 -10511.4)
(13013 1537.28 -10511.4)
(12548.4 3773.83 -10511.5)
(11702.5 5895.21 -10511.4)
(10500.9 7837.92 -10511.5)
(8980.28 9542.33 -10511.5)
(7186.79 10956.7 -10511.4)
(5175.17 12038.3 -10511.3)
(3006.22 12754.1 -10511.3)
(745.88 13082.3 -10511.4)
(-1537.29 13013 -10511.5)
(-3773.84 12548.4 -10511.5)
(-5895.21 11702.5 -10511.4)
(-7837.93 10500.9 -10511.5)
(-9542.33 8980.28 -10511.5)
(-10956.7 7186.78 -10511.4)
(-12038.3 5175.16 -10511.3)
(-12754.1 3006.21 -10511.3)
(-13082.3 745.876 -10511.4)
(-13013 -1537.29 -10511.5)
(-12548.4 -3773.84 -10511.5)
(-11702.5 -5895.21 -10511.4)
(-10500.9 -7837.93 -10511.5)
(-8980.28 -9542.33 -10511.5)
(-7186.78 -10956.7 -10511.4)
(-5175.16 -12038.3 -10511.3)
(-3006.21 -12754.1 -10511.3)
(-745.877 -13082.3 -10511.4)
(1537.29 -13013 -10511.4)
(3773.84 -12548.4 -10511.5)
(1528.03 -17817.1 -9504.75)
(4598.89 -17280.9 -9504.9)
(7529.74 -16219.9 -9504.83)
(10231.8 -14665.8 -9504.93)
(12623.1 -12666.3 -9504.9)
(14630.9 -10281.9 -9504.9)
(16194 -7585.02 -9504.94)
(17265.2 -4657.9 -9504.81)
(17811.7 -1588.92 -9504.86)
(17817.1 1528.03 -9504.75)
(17280.9 4598.89 -9504.9)
(16219.9 7529.75 -9504.84)
(14665.8 10231.8 -9504.93)
(12666.3 12623.1 -9504.9)
(10281.9 14630.9 -9504.91)
(7585.01 16194 -9504.94)
(4657.89 17265.1 -9504.81)
(1588.91 17811.7 -9504.86)
(-1528.03 17817.1 -9504.75)
(-4598.89 17280.9 -9504.91)
(-7529.75 16219.9 -9504.84)
(-10231.8 14665.8 -9504.93)
(-12623.1 12666.3 -9504.91)
(-14630.9 10281.9 -9504.91)
(-16194 7585.01 -9504.94)
(-17265.1 4657.89 -9504.81)
(-17811.7 1588.91 -9504.86)
(-17817.1 -1528.03 -9504.75)
(-17280.9 -4598.89 -9504.91)
(-16219.9 -7529.75 -9504.84)
(-14665.8 -10231.8 -9504.93)
(-12666.3 -12623.1 -9504.91)
(-10281.9 -14630.9 -9504.91)
(-7585.01 -16194 -9504.94)
(-4657.89 -17265.1 -9504.81)
(-1588.91 -17811.7 -9504.86)
(-1001.6 -21234 -8301.79)
(2700.84 -21085.1 -8301.91)
(6321.36 -20295.9 -8301.84)
(9749.54 -18889.8 -8301.88)
(12881.6 -16909.9 -8301.83)
(15622.4 -14416.2 -8301.89)
(17888.3 -11484.5 -8301.75)
(19611 -8203.79 -8301.71)
(20737.4 -4673.8 -8301.69)
(21234 -1001.6 -8301.79)
(21085.1 2700.84 -8301.91)
(20295.9 6321.36 -8301.85)
(18889.8 9749.54 -8301.88)
(16909.9 12881.6 -8301.84)
(14416.2 15622.4 -8301.89)
(11484.5 17888.3 -8301.75)
(8203.78 19611 -8301.71)
(4673.79 20737.4 -8301.7)
(1001.6 21234 -8301.79)
(-2700.84 21085.1 -8301.91)
(-6321.36 20295.9 -8301.85)
(-9749.54 18889.8 -8301.88)
(-12881.6 16909.9 -8301.84)
(-15622.4 14416.2 -8301.89)
(-17888.3 11484.5 -8301.75)
(-19611 8203.78 -8301.71)
(-20737.4 4673.79 -8301.69)
(-21234 1001.6 -8301.79)
(-21085.1 -2700.84 -8301.91)
(-20295.9 -6321.36 -8301.85)
(-18889.8 -9749.54 -8301.88)
(-16909.9 -12881.6 -8301.84)
(-14416.2 -15622.4 -8301.89)
(-11484.5 -17888.3 -8301.75)
(-8203.78 -19611 -8301.71)
(-4673.79 -20737.4 -8301.69)
(-657.203 -19303.4 -9821.56)
(2704.94 -19124 -9821.85)
(5984.76 -18363.8 -9821.74)
(9082.69 -17045.5 -9821.79)
(11904.6 -15209.5 -9821.69)
(14365 -12911.4 -9821.65)
(16388.6 -10220.7 -9821.69)
(17914.6 -7219.8 -9821.4)
(18896 -3999.22 -9821.54)
(19303.4 -657.207 -9821.56)
(19124 2704.94 -9821.85)
(18363.8 5984.76 -9821.75)
(17045.5 9082.69 -9821.79)
(15209.5 11904.6 -9821.7)
(12911.3 14365 -9821.66)
(10220.7 16388.6 -9821.7)
(7219.79 17914.6 -9821.41)
(3999.22 18896 -9821.54)
(657.205 19303.4 -9821.56)
(-2704.94 19124 -9821.85)
(-5984.76 18363.8 -9821.75)
(-9082.69 17045.5 -9821.79)
(-11904.6 15209.5 -9821.7)
(-14365 12911.3 -9821.66)
(-16388.6 10220.7 -9821.7)
(-17914.6 7219.79 -9821.41)
(-18896 3999.23 -9821.54)
(-19303.4 657.208 -9821.56)
(-19124 -2704.93 -9821.85)
(-18363.8 -5984.76 -9821.74)
(-17045.5 -9082.69 -9821.79)
(-15209.5 -11904.6 -9821.69)
(-12911.3 -14365 -9821.66)
(-10220.7 -16388.6 -9821.7)
(-7219.79 -17914.6 -9821.41)
(-3999.22 -18896 -9821.54)
(665.484 -13662.7 -14062.4)
(3028.2 -13339.6 -14062.9)
(5298.45 -12610.9 -14062.8)
(7407.95 -11499.4 -14062.6)
(9292.24 -10038.3 -14062.8)
(10894.2 -8272.26 -14062.8)
(12165.3 -6254.88 -14062.7)
(13066.5 -4047.65 -14062.2)
(13571.1 -1717.07 -14062.4)
(13662.7 665.478 -14062.4)
(13339.6 3028.19 -14062.9)
(12610.9 5298.44 -14062.8)
(11499.4 7407.95 -14062.6)
(10038.3 9292.24 -14062.8)
(8272.25 10894.2 -14062.8)
(6254.87 12165.3 -14062.7)
(4047.64 13066.5 -14062.2)
(1717.07 13571.1 -14062.4)
(-665.479 13662.7 -14062.4)
(-3028.19 13339.6 -14062.9)
(-5298.45 12610.9 -14062.8)
(-7407.95 11499.4 -14062.6)
(-9292.24 10038.3 -14062.8)
(-10894.2 8272.26 -14062.8)
(-12165.3 6254.88 -14062.7)
(-13066.5 4047.65 -14062.2)
(-13571.1 1717.08 -14062.4)
(-13662.7 -665.473 -14062.4)
(-13339.7 -3028.19 -14062.9)
(-12610.9 -5298.44 -14062.8)
(-11499.4 -7407.95 -14062.6)
(-10038.3 -9292.24 -14062.8)
(-8272.26 -10894.2 -14062.8)
(-6254.87 -12165.3 -14062.7)
(-4047.64 -13066.5 -14062.2)
(-1717.07 -13571.1 -14062.4)
(8164.76 2960.85 -69795.2)
(7526.29 4333.51 -69794.3)
(6659.83 5575.13 -69797)
(5590.47 6646.47 -69794.2)
(4351.28 7516.57 -69796.4)
(2980.19 8157.33 -69794.2)
(1517.95 8551.56 -69796.5)
(10.5296 8684.57 -69793.3)
(-1498.09 8554.54 -69795)
(-2960.85 8164.76 -69795.2)
(-4333.51 7526.29 -69794.3)
(-5575.12 6659.84 -69797)
(-6646.48 5590.47 -69794.2)
(-7516.58 4351.28 -69796.4)
(-8157.34 2980.19 -69794.2)
(-8551.56 1517.95 -69796.5)
(-8684.56 10.5261 -69793.3)
(-8554.53 -1498.09 -69795)
(-8164.76 -2960.85 -69795.2)
(-7526.28 -4333.51 -69794.3)
(-6659.83 -5575.12 -69797)
(-5590.46 -6646.48 -69794.2)
(-4351.27 -7516.57 -69796.4)
(-2980.19 -8157.33 -69794.2)
(-1517.94 -8551.55 -69796.5)
(-10.5238 -8684.56 -69793.3)
(1498.09 -8554.52 -69795)
(2960.85 -8164.75 -69795.2)
(4333.5 -7526.27 -69794.3)
(5575.11 -6659.82 -69797)
(6646.47 -5590.46 -69794.2)
(7516.57 -4351.27 -69796.4)
(8157.33 -2980.19 -69794.2)
(8551.56 -1517.94 -69796.5)
(8684.57 -10.5231 -69793.3)
(8554.53 1498.09 -69795)
)
;
    }
    outside
    {
        type            calculated;
        value           nonuniform List<vector> 
540
(
(-7937.78 -54.5777 -2199.75)
(-7807.7 -1431.91 -2199.75)
(-7440.33 -2766.13 -2199.73)
(-6847.09 -4016.39 -2199.8)
(-6045.81 -5144.27 -2199.85)
(-5060.78 -6115.77 -2199.82)
(-3921.75 -6901.64 -2199.77)
(-2663.51 -7477.82 -2199.76)
(-1324.74 -7826.66 -2199.75)
(54.5774 -7937.78 -2199.75)
(1431.91 -7807.7 -2199.75)
(2766.13 -7440.33 -2199.73)
(4016.39 -6847.09 -2199.8)
(5144.27 -6045.81 -2199.85)
(6115.77 -5060.78 -2199.82)
(6901.64 -3921.74 -2199.77)
(7477.82 -2663.51 -2199.76)
(7826.66 -1324.74 -2199.75)
(7937.78 54.5776 -2199.75)
(7807.7 1431.91 -2199.75)
(7440.33 2766.13 -2199.73)
(6847.09 4016.39 -2199.8)
(6045.81 5144.27 -2199.85)
(5060.78 6115.77 -2199.82)
(3921.75 6901.64 -2199.77)
(2663.51 7477.83 -2199.76)
(1324.74 7826.66 -2199.75)
(-54.5778 7937.78 -2199.75)
(-1431.91 7807.71 -2199.76)
(-2766.13 7440.33 -2199.73)
(-4016.39 6847.09 -2199.8)
(-5144.27 6045.81 -2199.85)
(-6115.77 5060.78 -2199.82)
(-6901.64 3921.75 -2199.77)
(-7477.83 2663.51 -2199.76)
(-7826.66 1324.74 -2199.75)
(6637.64 4590.94 429.266)
(5739.36 5674.21 429.262)
(4667.06 6584.6 429.295)
(3452.96 7294.67 429.282)
(2133.58 7783.75 429.281)
(749.222 8036.16 429.28)
(-657.363 8043.8 429.26)
(-2044.04 7807.55 429.277)
(-3369.22 7334.09 429.272)
(-4590.94 6637.64 429.266)
(-5674.21 5739.36 429.262)
(-6584.6 4667.06 429.295)
(-7294.67 3452.95 429.282)
(-7783.75 2133.58 429.281)
(-8036.16 749.222 429.28)
(-8043.8 -657.363 429.26)
(-7807.55 -2044.04 429.277)
(-7334.09 -3369.22 429.272)
(-6637.64 -4590.94 429.266)
(-5739.36 -5674.21 429.262)
(-4667.06 -6584.6 429.295)
(-3452.95 -7294.67 429.282)
(-2133.58 -7783.75 429.281)
(-749.222 -8036.16 429.28)
(657.363 -8043.8 429.26)
(2044.04 -7807.55 429.277)
(3369.22 -7334.09 429.272)
(4590.94 -6637.64 429.266)
(5674.21 -5739.36 429.262)
(6584.6 -4667.06 429.295)
(7294.67 -3452.95 429.282)
(7783.75 -2133.58 429.281)
(8036.16 -749.222 429.28)
(8043.8 657.363 429.26)
(7807.55 2044.04 429.277)
(7334.09 3369.22 429.272)
(4359.7 6365.58 -459.454)
(3187.91 7026.01 -459.472)
(1919.48 7473 -459.465)
(592.685 7692.67 -459.463)
(-752.047 7678.86 -459.448)
(-2074.05 7431.59 -459.448)
(-3332.98 6958.28 -459.462)
(-4490.73 6273.92 -459.456)
(-5512.09 5398.64 -459.473)
(-6365.58 4359.7 -459.454)
(-7026.01 3187.91 -459.472)
(-7473 1919.48 -459.465)
(-7692.67 592.685 -459.463)
(-7678.86 -752.047 -459.447)
(-7431.59 -2074.05 -459.448)
(-6958.28 -3332.98 -459.462)
(-6273.92 -4490.73 -459.456)
(-5398.64 -5512.09 -459.473)
(-4359.7 -6365.58 -459.454)
(-3187.91 -7026.01 -459.472)
(-1919.48 -7473 -459.465)
(-592.685 -7692.67 -459.463)
(752.047 -7678.86 -459.447)
(2074.05 -7431.59 -459.448)
(3332.98 -6958.28 -459.462)
(4490.73 -6273.92 -459.456)
(5512.09 -5398.64 -459.473)
(6365.58 -4359.7 -459.454)
(7026.01 -3187.91 -459.472)
(7473 -1919.48 -459.465)
(7692.67 -592.685 -459.463)
(7678.86 752.047 -459.448)
(7431.59 2074.05 -459.448)
(6958.28 3332.98 -459.462)
(6273.92 4490.73 -459.456)
(5398.64 5512.09 -459.473)
(3837.19 8493.95 -669.105)
(2303.87 9031.57 -669.114)
(700.555 9294.08 -669.112)
(-923.846 9274.66 -669.108)
(-2520.34 8973.4 -669.105)
(-4040.29 8399.43 -669.1)
(-5437.42 7570.33 -669.099)
(-6669.12 6510.78 -669.093)
(-7698.71 5253.86 -669.109)
(-8493.95 3837.19 -669.105)
(-9031.57 2303.86 -669.114)
(-9294.08 700.555 -669.111)
(-9274.66 -923.846 -669.108)
(-8973.4 -2520.34 -669.105)
(-8399.43 -4040.29 -669.099)
(-7570.33 -5437.42 -669.098)
(-6510.78 -6669.12 -669.093)
(-5253.86 -7698.71 -669.109)
(-3837.19 -8493.95 -669.105)
(-2303.87 -9031.57 -669.114)
(-700.555 -9294.08 -669.111)
(923.846 -9274.66 -669.108)
(2520.34 -8973.4 -669.105)
(4040.29 -8399.43 -669.099)
(5437.42 -7570.33 -669.099)
(6669.12 -6510.78 -669.093)
(7698.71 -5253.86 -669.109)
(8493.95 -3837.19 -669.105)
(9031.57 -2303.87 -669.114)
(9294.08 -700.555 -669.112)
(9274.66 923.846 -669.108)
(8973.4 2520.34 -669.105)
(8399.43 4040.29 -669.1)
(7570.33 5437.42 -669.099)
(6510.78 6669.12 -669.093)
(5253.86 7698.71 -669.109)
(2936.32 10925.7 -532.906)
(994.438 11270 -532.935)
(-977.703 11271 -532.91)
(-2919.89 10930 -532.918)
(-4773.67 10257 -532.909)
(-6482.39 9272.38 -532.912)
(-7993.91 8006.02 -532.932)
(-9262.37 6495.87 -532.89)
(-10250 4788.9 -532.914)
(-10925.7 2936.32 -532.906)
(-11270 994.437 -532.935)
(-11271 -977.704 -532.91)
(-10930 -2919.89 -532.918)
(-10257 -4773.67 -532.909)
(-9272.38 -6482.39 -532.911)
(-8006.02 -7993.91 -532.932)
(-6495.87 -9262.37 -532.889)
(-4788.9 -10250 -532.914)
(-2936.32 -10925.7 -532.906)
(-994.437 -11270 -532.935)
(977.703 -11271 -532.91)
(2919.89 -10930 -532.918)
(4773.67 -10257 -532.909)
(6482.39 -9272.38 -532.912)
(7993.91 -8006.02 -532.932)
(9262.37 -6495.87 -532.89)
(10250 -4788.9 -532.914)
(10925.7 -2936.32 -532.906)
(11270 -994.437 -532.935)
(11271 977.703 -532.91)
(10930 2919.89 -532.918)
(10257 4773.67 -532.909)
(9272.38 6482.39 -532.912)
(8006.02 7993.91 -532.932)
(6495.87 9262.37 -532.89)
(4788.9 10250 -532.914)
(1746.65 13418.4 -158.316)
(-609.924 13518 -158.357)
(-2948.18 13206.7 -158.338)
(-5196.55 12494.2 -158.349)
(-7287.26 11401.9 -158.326)
(-9156.49 9963.24 -158.326)
(-10747.4 8221.9 -158.339)
(-12011.9 6230.62 -158.319)
(-12911.4 4050.26 -158.338)
(-13418.4 1746.65 -158.315)
(-13518 -609.924 -158.356)
(-13206.7 -2948.18 -158.338)
(-12494.2 -5196.55 -158.349)
(-11401.9 -7287.26 -158.326)
(-9963.24 -9156.49 -158.326)
(-8221.9 -10747.4 -158.339)
(-6230.62 -12011.9 -158.319)
(-4050.26 -12911.4 -158.338)
(-1746.65 -13418.4 -158.315)
(609.923 -13518 -158.356)
(2948.18 -13206.7 -158.338)
(5196.55 -12494.2 -158.349)
(7287.26 -11401.9 -158.326)
(9156.49 -9963.24 -158.326)
(10747.4 -8221.9 -158.339)
(12011.9 -6230.62 -158.319)
(12911.4 -4050.26 -158.339)
(13418.4 -1746.65 -158.315)
(13518 609.923 -158.357)
(13206.7 2948.18 -158.338)
(12494.2 5196.55 -158.349)
(11401.9 7287.26 -158.326)
(9963.24 9156.49 -158.326)
(8221.9 10747.4 -158.339)
(6230.62 12011.9 -158.32)
(4050.26 12911.4 -158.339)
(-1.36809 15404.9 545.858)
(-2676.31 15170.6 545.848)
(-5270.28 14475.4 545.896)
(-7703.64 13340.8 545.791)
(-9903.19 11800 545.862)
(-11801.7 9900.8 545.901)
(-13341.6 7701.33 545.837)
(-14476.5 5267.38 545.9)
(-15171.2 2673.66 545.859)
(-15404.9 -1.36859 545.858)
(-15170.6 -2676.31 545.848)
(-14475.4 -5270.28 545.897)
(-13340.8 -7703.64 545.792)
(-11800 -9903.19 545.862)
(-9900.8 -11801.7 545.901)
(-7701.33 -13341.6 545.837)
(-5267.38 -14476.5 545.9)
(-2673.67 -15171.2 545.859)
(1.36771 -15404.9 545.858)
(2676.31 -15170.6 545.848)
(5270.28 -14475.4 545.896)
(7703.64 -13340.8 545.791)
(9903.19 -11800 545.862)
(11801.7 -9900.8 545.9)
(13341.6 -7701.33 545.837)
(14476.5 -5267.38 545.899)
(15171.2 -2673.67 545.859)
(15404.9 1.36752 545.858)
(15170.6 2676.31 545.847)
(14475.4 5270.28 545.896)
(13340.8 7703.64 545.791)
(11800 9903.19 545.862)
(9900.8 11801.7 545.9)
(7701.33 13341.6 545.836)
(5267.38 14476.5 545.899)
(2673.66 15171.2 545.859)
(-2325.44 16487.8 1813.28)
(-5153.25 15833.4 1813.29)
(-7824.49 14698.2 1813.3)
(-10257.9 13116.4 1813.21)
(-12379.7 11135.6 1813.27)
(-14125.2 8816.58 1813.28)
(-15441.6 6229.88 1813.28)
(-16289 3453.86 1813.29)
(-16641.2 572.835 1813.33)
(-16487.8 -2325.44 1813.28)
(-15833.4 -5153.25 1813.29)
(-14698.2 -7824.49 1813.3)
(-13116.4 -10257.9 1813.21)
(-11135.6 -12379.7 1813.27)
(-8816.58 -14125.2 1813.28)
(-6229.88 -15441.6 1813.28)
(-3453.86 -16289 1813.29)
(-572.836 -16641.2 1813.33)
(2325.44 -16487.8 1813.28)
(5153.25 -15833.4 1813.29)
(7824.49 -14698.2 1813.3)
(10257.9 -13116.4 1813.21)
(12379.7 -11135.6 1813.26)
(14125.2 -8816.58 1813.28)
(15441.6 -6229.88 1813.28)
(16289 -3453.86 1813.29)
(16641.2 -572.836 1813.33)
(16487.8 2325.44 1813.28)
(15833.4 5153.25 1813.29)
(14698.2 7824.49 1813.3)
(13116.4 10257.9 1813.21)
(11135.6 12379.7 1813.26)
(8816.58 14125.2 1813.28)
(6229.88 15441.6 1813.28)
(3453.86 16289 1813.29)
(572.835 16641.2 1813.33)
(-4967.89 16487 3925.86)
(-7755.26 15374 3925.85)
(-10307.1 13793.9 3925.81)
(-12545.8 11794.4 3925.85)
(-14403.3 9436.64 3925.88)
(-15823.2 6792.15 3925.89)
(-16762.1 3941.23 3925.88)
(-17192 970.746 3925.83)
(-17099.6 -2029.21 3925.77)
(-16487 -4967.89 3925.86)
(-15374 -7755.26 3925.85)
(-13793.9 -10307.1 3925.81)
(-11794.4 -12545.8 3925.85)
(-9436.64 -14403.3 3925.88)
(-6792.15 -15823.2 3925.89)
(-3941.23 -16762.2 3925.88)
(-970.748 -17192 3925.83)
(2029.21 -17099.6 3925.77)
(4967.89 -16487 3925.86)
(7755.26 -15374 3925.85)
(10307.1 -13794 3925.81)
(12545.8 -11794.4 3925.85)
(14403.3 -9436.64 3925.88)
(15823.2 -6792.16 3925.89)
(16762.2 -3941.23 3925.88)
(17192 -970.748 3925.83)
(17099.6 2029.21 3925.77)
(16487 4967.89 3925.86)
(15374 7755.26 3925.84)
(13794 10307.1 3925.81)
(11794.4 12545.8 3925.85)
(9436.64 14403.3 3925.88)
(6792.15 15823.2 3925.89)
(3941.23 16762.2 3925.88)
(970.747 17192 3925.83)
(-2029.21 17099.6 3925.77)
(-7317.67 15489 7103.35)
(-9896.12 13983 7103.4)
(-12173.8 12052.1 7103.31)
(-14081.7 9755.12 7103.23)
(-15561.8 7161.61 7103.3)
(-16569 4350.53 7103.32)
(-17072.7 1407.17 7103.36)
(-17057.7 -1578.7 7103.29)
(-16524.4 -4516.73 7103.29)
(-15489 -7317.67 7103.36)
(-13983 -9896.12 7103.4)
(-12052.1 -12173.8 7103.31)
(-9755.12 -14081.7 7103.23)
(-7161.61 -15561.8 7103.3)
(-4350.53 -16569 7103.32)
(-1407.17 -17072.7 7103.36)
(1578.7 -17057.7 7103.29)
(4516.73 -16524.4 7103.29)
(7317.67 -15489 7103.35)
(9896.12 -13983 7103.4)
(12173.8 -12052.1 7103.31)
(14081.7 -9755.12 7103.23)
(15561.8 -7161.61 7103.3)
(16569 -4350.53 7103.32)
(17072.7 -1407.17 7103.36)
(17057.7 1578.7 7103.29)
(16524.4 4516.73 7103.29)
(15489 7317.67 7103.35)
(13983 9896.12 7103.39)
(12052.1 12173.8 7103.31)
(9755.12 14081.7 7103.23)
(7161.61 15561.8 7103.3)
(4350.53 16569 7103.32)
(1407.17 17072.7 7103.36)
(-1578.7 17057.7 7103.29)
(-4516.74 16524.4 7103.29)
(-8394.53 13897.9 11150)
(-10680.4 12229 11150.1)
(-12641.5 10188.4 11150)
(-14218.8 7838.5 11150.1)
(-15363.9 5250.35 11150.1)
(-16042.2 2502.67 11150.1)
(-16233.2 -320.87 11150)
(-15930.6 -3135.2 11150.1)
(-15144.1 -5853.87 11150.1)
(-13897.9 -8394.53 11150)
(-12229 -10680.4 11150.1)
(-10188.4 -12641.5 11150)
(-7838.5 -14218.8 11150.1)
(-5250.35 -15363.9 11150.1)
(-2502.67 -16042.2 11150.1)
(320.866 -16233.2 11150)
(3135.2 -15930.6 11150.1)
(5853.87 -15144.1 11150.1)
(8394.52 -13897.9 11150)
(10680.4 -12229 11150.1)
(12641.5 -10188.4 11150)
(14218.8 -7838.5 11150.1)
(15363.9 -5250.36 11150.1)
(16042.2 -2502.67 11150.1)
(16233.2 320.867 11150)
(15930.6 3135.2 11150.1)
(15144.1 5853.87 11150.1)
(13897.9 8394.53 11150)
(12229 10680.4 11150.1)
(10188.4 12641.5 11150)
(7838.5 14218.8 11150.1)
(5250.35 15363.9 11150.1)
(2502.67 16042.2 11150.1)
(-320.867 16233.2 11150)
(-3135.2 15930.6 11150.1)
(-5853.87 15144.1 11150.1)
(-7017.46 12313.9 14551.3)
(-9049.05 10908 14551.2)
(-10805.7 9171.02 14551.1)
(-12234.2 7155.27 14551.3)
(-13290.8 4922.08 14551.2)
(-13943.6 2539.3 14551.3)
(-14172.8 79.6661 14551.1)
(-13971.3 -2382.74 14551.3)
(-13344.8 -4772.94 14551.6)
(-12313.9 -7017.46 14551.3)
(-10908 -9049.05 14551.2)
(-9171.03 -10805.7 14551.1)
(-7155.27 -12234.2 14551.3)