/*--------------------------------*- C++ -*----------------------------------*\
| =========                 |                                                 |
| \\      /  F ield         | OpenFOAM: The Open Source CFD Toolbox           |
|  \\    /   O peration     | Version:  2312                                  |
|   \\  /    A nd           | Website:  www.openfoam.com                      |
|    \\/     M anipulation  |                                                 |
\*---------------------------------------------------------------------------*/
FoamFile
{
    version     2.0;
    format      ascii;
    arch        "LSB;label=32;scalar=64";
    class       volVectorField;
    location    "1";
    object      U;
}
// * * * * * * * * * * * * * * * * * * * * * * * * * * * * * * * * * * * * * //

dimensions      [0 1 -1 0 0 0 0];

internalField   nonuniform List<vector> 
1620
(
(6.07727e-05 3.72518e-06 -0.000101636)
(5.92026e-05 1.42215e-05 -0.000101636)
(5.58337e-05 2.42856e-05 -0.000101636)
(5.07686e-05 3.36123e-05 -0.000101636)
(4.41605e-05 4.19181e-05 -0.000101636)
(3.62101e-05 4.89497e-05 -0.000101636)
(2.716e-05 5.44935e-05 -0.000101635)
(1.72845e-05 5.83819e-05 -0.000101635)
(6.8843e-06 6.04963e-05 -0.000101635)
(-3.72517e-06 6.07727e-05 -0.000101636)
(-1.42215e-05 5.92025e-05 -0.000101636)
(-2.42856e-05 5.58337e-05 -0.000101636)
(-3.36123e-05 5.07686e-05 -0.000101636)
(-4.19181e-05 4.41605e-05 -0.000101636)
(-4.89497e-05 3.62101e-05 -0.000101636)
(-5.44935e-05 2.716e-05 -0.000101635)
(-5.83819e-05 1.72845e-05 -0.000101635)
(-6.04963e-05 6.8843e-06 -0.000101635)
(-6.07727e-05 -3.72517e-06 -0.000101636)
(-5.92026e-05 -1.42215e-05 -0.000101636)
(-5.58337e-05 -2.42856e-05 -0.000101636)
(-5.07686e-05 -3.36123e-05 -0.000101636)
(-4.41605e-05 -4.19181e-05 -0.000101636)
(-3.62101e-05 -4.89497e-05 -0.000101636)
(-2.716e-05 -5.44936e-05 -0.000101635)
(-1.72845e-05 -5.83819e-05 -0.000101635)
(-6.8843e-06 -6.04963e-05 -0.000101635)
(3.72518e-06 -6.07727e-05 -0.000101636)
(1.42215e-05 -5.92026e-05 -0.000101636)
(2.42856e-05 -5.58337e-05 -0.000101636)
(3.36123e-05 -5.07686e-05 -0.000101636)
(4.19181e-05 -4.41605e-05 -0.000101636)
(4.89497e-05 -3.62101e-05 -0.000101636)
(5.44936e-05 -2.716e-05 -0.000101635)
(5.83819e-05 -1.72845e-05 -0.000101635)
(6.04963e-05 -6.8843e-06 -0.000101635)
(4.74841e-05 9.82867e-05 -1.02046e-05)
(2.96955e-05 0.000105039 -1.02047e-05)
(1.10048e-05 0.0001086 -1.02046e-05)
(-8.0204e-06 0.00010886 -1.02045e-05)
(-2.68024e-05 0.000105814 -1.02046e-05)
(-4.47699e-05 9.95524e-05 -1.02045e-05)
(-6.13767e-05 9.02657e-05 -1.02043e-05)
(-7.6119e-05 7.82364e-05 -1.02043e-05)
(-8.85481e-05 6.38299e-05 -1.02046e-05)
(-9.82867e-05 4.74841e-05 -1.02046e-05)
(-0.000105039 2.96955e-05 -1.02047e-05)
(-0.0001086 1.10048e-05 -1.02047e-05)
(-0.00010886 -8.0204e-06 -1.02045e-05)
(-0.000105814 -2.68024e-05 -1.02046e-05)
(-9.95524e-05 -4.47699e-05 -1.02045e-05)
(-9.02657e-05 -6.13767e-05 -1.02043e-05)
(-7.82364e-05 -7.6119e-05 -1.02043e-05)
(-6.38299e-05 -8.85481e-05 -1.02046e-05)
(-4.74841e-05 -9.82867e-05 -1.02046e-05)
(-2.96955e-05 -0.000105039 -1.02047e-05)
(-1.10048e-05 -0.0001086 -1.02046e-05)
(8.02039e-06 -0.00010886 -1.02045e-05)
(2.68024e-05 -0.000105814 -1.02046e-05)
(4.47699e-05 -9.95524e-05 -1.02045e-05)
(6.13767e-05 -9.02657e-05 -1.02043e-05)
(7.6119e-05 -7.82364e-05 -1.02043e-05)
(8.85481e-05 -6.38299e-05 -1.02046e-05)
(9.82867e-05 -4.74841e-05 -1.02046e-05)
(0.000105039 -2.96955e-05 -1.02047e-05)
(0.0001086 -1.10048e-05 -1.02046e-05)
(0.00010886 8.02039e-06 -1.02045e-05)
(0.000105814 2.68024e-05 -1.02046e-05)
(9.95524e-05 4.47699e-05 -1.02045e-05)
(9.02657e-05 6.13767e-05 -1.02043e-05)
(7.82364e-05 7.6119e-05 -1.02043e-05)
(6.38299e-05 8.85481e-05 -1.02046e-05)
(2.55316e-06 0.00018436 1.61368e-05)
(-2.94992e-05 0.000182002 1.61369e-05)
(-6.06554e-05 0.000174115 1.61369e-05)
(-8.99687e-05 0.000160937 1.61369e-05)
(-0.000116548 0.000142869 1.61372e-05)
(-0.000139587 0.00012046 1.61372e-05)
(-0.000158384 9.43908e-05 1.6137e-05)
(-0.000172368 6.54536e-05 1.61367e-05)
(-0.000181116 3.45279e-05 1.61368e-05)
(-0.00018436 2.55318e-06 1.61368e-05)
(-0.000182002 -2.94992e-05 1.61369e-05)
(-0.000174115 -6.06553e-05 1.61368e-05)
(-0.000160937 -8.99687e-05 1.61369e-05)
(-0.000142869 -0.000116548 1.61372e-05)
(-0.00012046 -0.000139587 1.61371e-05)
(-9.43908e-05 -0.000158384 1.6137e-05)
(-6.54536e-05 -0.000172368 1.61367e-05)
(-3.45279e-05 -0.000181116 1.61368e-05)
(-2.55318e-06 -0.00018436 1.61368e-05)
(2.94992e-05 -0.000182002 1.61369e-05)
(6.06553e-05 -0.000174115 1.61368e-05)
(8.99687e-05 -0.000160937 1.61369e-05)
(0.000116548 -0.000142869 1.61372e-05)
(0.000139587 -0.00012046 1.61372e-05)
(0.000158384 -9.43908e-05 1.6137e-05)
(0.000172368 -6.54536e-05 1.61368e-05)
(0.000181116 -3.45279e-05 1.61368e-05)
(0.00018436 -2.55317e-06 1.61368e-05)
(0.000182002 2.94992e-05 1.61369e-05)
(0.000174115 6.06554e-05 1.61369e-05)
(0.000160937 8.99687e-05 1.61369e-05)
(0.000142869 0.000116548 1.61372e-05)
(0.00012046 0.000139587 1.61372e-05)
(9.43908e-05 0.000158384 1.6137e-05)
(6.54536e-05 0.000172368 1.61368e-05)
(3.45279e-05 0.000181116 1.61368e-05)
(0.000124861 0.000131671 -0.000129303)
(0.0001001 0.000151352 -0.000129303)
(7.22971e-05 0.000166435 -0.000129303)
(4.22976e-05 0.00017646 -0.000129302)
(1.10127e-05 0.000181125 -0.000129301)
(-2.0607e-05 0.000180286 -0.000129301)
(-5.16004e-05 0.000173969 -0.000129301)
(-8.10259e-05 0.000162365 -0.000129301)
(-0.000107989 0.000145828 -0.000129302)
(-0.000131671 0.000124861 -0.000129303)
(-0.000151352 0.0001001 -0.000129304)
(-0.000166435 7.22971e-05 -0.000129303)
(-0.00017646 4.22976e-05 -0.000129302)
(-0.000181125 1.10127e-05 -0.000129301)
(-0.000180286 -2.0607e-05 -0.000129301)
(-0.000173969 -5.16004e-05 -0.000129301)
(-0.000162365 -8.10259e-05 -0.000129301)
(-0.000145828 -0.000107989 -0.000129302)
(-0.000124861 -0.000131671 -0.000129303)
(-0.0001001 -0.000151352 -0.000129303)
(-7.22971e-05 -0.000166435 -0.000129303)
(-4.22976e-05 -0.00017646 -0.000129301)
(-1.10127e-05 -0.000181125 -0.000129301)
(2.0607e-05 -0.000180286 -0.000129301)
(5.16004e-05 -0.000173969 -0.000129301)
(8.10259e-05 -0.000162365 -0.000129301)
(0.000107989 -0.000145828 -0.000129302)
(0.000131671 -0.000124861 -0.000129303)
(0.000151352 -0.0001001 -0.000129303)
(0.000166435 -7.22971e-05 -0.000129303)
(0.00017646 -4.22976e-05 -0.000129301)
(0.000181125 -1.10127e-05 -0.000129301)
(0.000180286 2.06069e-05 -0.000129301)
(0.000173969 5.16004e-05 -0.000129301)
(0.000162365 8.10259e-05 -0.000129301)
(0.000145828 0.000107989 -0.000129302)
(8.87831e-05 0.000295242 2.088e-05)
(3.61666e-05 0.000306173 2.08796e-05)
(-1.7549e-05 0.000307802 2.08797e-05)
(-7.07315e-05 0.000300079 2.08806e-05)
(-0.000121766 0.000283237 2.08812e-05)
(-0.0001691 0.00025779 2.08811e-05)
(-0.000211295 0.000224509 2.08809e-05)
(-0.000247071 0.000184407 2.08806e-05)
(-0.00027534 0.000138702 2.08802e-05)
(-0.000295242 8.87831e-05 2.088e-05)
(-0.000306173 3.61666e-05 2.08795e-05)
(-0.000307802 -1.7549e-05 2.08797e-05)
(-0.000300079 -7.07315e-05 2.08805e-05)
(-0.000283238 -0.000121766 2.08812e-05)
(-0.00025779 -0.0001691 2.08811e-05)
(-0.000224509 -0.000211295 2.08809e-05)
(-0.000184407 -0.000247071 2.08806e-05)
(-0.000138702 -0.00027534 2.08802e-05)
(-8.87832e-05 -0.000295242 2.088e-05)
(-3.61666e-05 -0.000306173 2.08795e-05)
(1.7549e-05 -0.000307802 2.08797e-05)
(7.07315e-05 -0.000300079 2.08806e-05)
(0.000121766 -0.000283238 2.08812e-05)
(0.0001691 -0.00025779 2.08811e-05)
(0.000211295 -0.000224509 2.0881e-05)
(0.000247071 -0.000184407 2.08806e-05)
(0.00027534 -0.000138702 2.08802e-05)
(0.000295242 -8.87832e-05 2.088e-05)
(0.000306173 -3.61666e-05 2.08796e-05)
(0.000307802 1.7549e-05 2.08797e-05)
(0.000300079 7.07315e-05 2.08806e-05)
(0.000283238 0.000121766 2.08812e-05)
(0.00025779 0.0001691 2.08811e-05)
(0.000224509 0.000211295 2.0881e-05)
(0.000184407 0.000247071 2.08806e-05)
(0.000138702 0.00027534 2.08802e-05)
(1.36008e-05 0.000438435 0.000129517)
(-6.27388e-05 0.000434136 0.000129517)
(-0.000137172 0.000416646 0.000129517)
(-0.000207438 0.000386496 0.000129517)
(-0.000271401 0.000344603 0.000129517)
(-0.000327118 0.000292239 0.000129517)
(-0.000372895 0.000230996 0.000129517)
(-0.000407342 0.000162734 0.000129517)
(-0.000429412 8.95275e-05 0.000129517)
(-0.000438435 1.36008e-05 0.000129517)
(-0.000434136 -6.27388e-05 0.000129517)
(-0.000416646 -0.000137172 0.000129517)
(-0.000386496 -0.000207438 0.000129517)
(-0.000344603 -0.000271401 0.000129517)
(-0.000292239 -0.000327118 0.000129517)
(-0.000230996 -0.000372895 0.000129517)
(-0.000162734 -0.000407342 0.000129517)
(-8.95275e-05 -0.000429412 0.000129517)
(-1.36008e-05 -0.000438435 0.000129517)
(6.27388e-05 -0.000434136 0.000129517)
(0.000137172 -0.000416646 0.000129517)
(0.000207438 -0.000386496 0.000129517)
(0.000271401 -0.000344603 0.000129517)
(0.000327118 -0.000292239 0.000129517)
(0.000372895 -0.000230996 0.000129517)
(0.000407342 -0.000162734 0.000129517)
(0.000429412 -8.95275e-05 0.000129517)
(0.000438435 -1.36008e-05 0.000129517)
(0.000434136 6.27388e-05 0.000129517)
(0.000416646 0.000137172 0.000129517)
(0.000386496 0.000207438 0.000129517)
(0.000344603 0.000271401 0.000129517)
(0.000292239 0.000327118 0.000129517)
(0.000230995 0.000372895 0.000129517)
(0.000162734 0.000407342 0.000129517)
(8.95274e-05 0.000429412 0.000129517)
(9.46754e-05 0.000285891 -0.000149392)
(4.3593e-05 0.000297987 -0.000149392)
(-8.81406e-06 0.00030103 -0.000149392)
(-6.09535e-05 0.000294926 -0.00014939)
(-0.000111241 0.000279861 -0.000149389)
(-0.000158149 0.000256292 -0.000149388)
(-0.000200251 0.000224937 -0.000149388)
(-0.000236268 0.000186746 -0.000149389)
(-0.000265107 0.000142882 -0.000149391)
(-0.00028589 9.46753e-05 -0.000149392)
(-0.000297987 4.3593e-05 -0.000149392)
(-0.00030103 -8.81406e-06 -0.000149392)
(-0.000294926 -6.09535e-05 -0.00014939)
(-0.000279861 -0.000111241 -0.000149389)
(-0.000256292 -0.000158149 -0.000149388)
(-0.000224937 -0.000200251 -0.000149388)
(-0.000186746 -0.000236268 -0.000149389)
(-0.000142882 -0.000265107 -0.000149391)
(-9.46754e-05 -0.00028589 -0.000149392)
(-4.35931e-05 -0.000297987 -0.000149392)
(8.81402e-06 -0.00030103 -0.000149392)
(6.09535e-05 -0.000294926 -0.00014939)
(0.000111241 -0.000279861 -0.000149389)
(0.000158149 -0.000256292 -0.000149388)
(0.000200251 -0.000224937 -0.000149388)
(0.000236268 -0.000186746 -0.000149389)
(0.000265107 -0.000142882 -0.000149391)
(0.000285891 -9.46754e-05 -0.000149392)
(0.000297987 -4.35931e-05 -0.000149392)
(0.00030103 8.81401e-06 -0.000149392)
(0.000294926 6.09535e-05 -0.00014939)
(0.000279861 0.000111241 -0.000149389)
(0.000256292 0.000158149 -0.000149388)
(0.000224937 0.000200251 -0.000149388)
(0.000186746 0.000236268 -0.000149389)
(0.000142882 0.000265107 -0.000149391)
(6.29242e-05 0.00048473 3.15371e-05)
(-2.22038e-05 0.000488292 3.15369e-05)
(-0.000106657 0.000477019 3.15368e-05)
(-0.00018787 0.000451251 3.15375e-05)
(-0.000263375 0.000411772 3.15384e-05)
(-0.000330877 0.000359781 3.15384e-05)
(-0.000388326 0.000296859 3.15386e-05)
(-0.000433976 0.000224917 3.15383e-05)
(-0.000466439 0.000146141 3.15376e-05)
(-0.00048473 6.29242e-05 3.1537e-05)
(-0.000488292 -2.22038e-05 3.15368e-05)
(-0.000477019 -0.000106657 3.15367e-05)
(-0.000451251 -0.00018787 3.15374e-05)
(-0.000411772 -0.000263375 3.15384e-05)
(-0.000359781 -0.000330877 3.15384e-05)
(-0.000296859 -0.000388326 3.15386e-05)
(-0.000224917 -0.000433976 3.15383e-05)
(-0.000146141 -0.000466439 3.15376e-05)
(-6.29242e-05 -0.00048473 3.15371e-05)
(2.22038e-05 -0.000488292 3.15369e-05)
(0.000106657 -0.000477019 3.15368e-05)
(0.00018787 -0.000451251 3.15375e-05)
(0.000263375 -0.000411772 3.15384e-05)
(0.000330877 -0.000359781 3.15385e-05)
(0.000388326 -0.000296859 3.15387e-05)
(0.000433976 -0.000224917 3.15384e-05)
(0.000466439 -0.000146141 3.15377e-05)
(0.00048473 -6.29242e-05 3.15371e-05)
(0.000488292 2.22038e-05 3.15369e-05)
(0.000477019 0.000106657 3.15368e-05)
(0.000451251 0.00018787 3.15375e-05)
(0.000411772 0.000263375 3.15385e-05)
(0.000359781 0.000330877 3.15385e-05)
(0.000296859 0.000388326 3.15387e-05)
(0.000224917 0.000433976 3.15384e-05)
(0.000146141 0.000466439 3.15376e-05)
(-4.77442e-06 0.000661252 0.000181039)
(-0.000119527 0.000650377 0.000181039)
(-0.000230647 0.000619742 0.000181038)
(-0.00033476 0.000570275 0.000181038)
(-0.000428701 0.000503481 0.000181039)
(-0.000509617 0.000421388 0.000181039)
(-0.000575048 0.000326491 0.000181039)
(-0.000623006 0.000221675 0.000181039)
(-0.000652035 0.000110123 0.000181039)
(-0.000661252 -4.77441e-06 0.000181039)
(-0.000650377 -0.000119527 0.000181038)
(-0.000619742 -0.000230647 0.000181038)
(-0.000570275 -0.00033476 0.000181038)
(-0.000503481 -0.000428701 0.000181038)
(-0.000421388 -0.000509617 0.000181039)
(-0.000326491 -0.000575048 0.000181039)
(-0.000221675 -0.000623006 0.000181039)
(-0.000110123 -0.000652035 0.000181039)
(4.77437e-06 -0.000661252 0.000181039)
(0.000119527 -0.000650377 0.000181039)
(0.000230647 -0.000619742 0.000181038)
(0.00033476 -0.000570275 0.000181038)
(0.000428701 -0.000503481 0.000181039)
(0.000509617 -0.000421388 0.000181039)
(0.000575048 -0.000326491 0.000181039)
(0.000623006 -0.000221675 0.000181039)
(0.000652035 -0.000110123 0.000181039)
(0.000661252 4.77438e-06 0.000181039)
(0.000650377 0.000119527 0.000181039)
(0.000619742 0.000230647 0.000181038)
(0.000570275 0.00033476 0.000181038)
(0.000503481 0.000428701 0.000181039)
(0.000421388 0.000509617 0.000181039)
(0.000326491 0.000575048 0.000181039)
(0.000221675 0.000623006 0.000181039)
(0.000110123 0.000652035 0.000181039)
(-3.69461e-05 0.000444287 -0.00021303)
(-0.000113535 0.000431122 -0.000213031)
(-0.000186673 0.000404857 -0.000213031)
(-0.00025414 0.000366291 -0.00021303)
(-0.000313884 0.000316595 -0.000213029)
(-0.000364092 0.000257279 -0.000213028)
(-0.000403237 0.000190147 -0.000213028)
(-0.00043013 0.000117237 -0.000213028)
(-0.000443953 4.07649e-05 -0.00021303)
(-0.000444287 -3.69461e-05 -0.00021303)
(-0.000431122 -0.000113535 -0.000213031)
(-0.000404857 -0.000186673 -0.000213031)
(-0.000366291 -0.00025414 -0.00021303)
(-0.000316595 -0.000313884 -0.000213029)
(-0.000257279 -0.000364092 -0.000213028)
(-0.000190147 -0.000403237 -0.000213028)
(-0.000117237 -0.00043013 -0.000213028)
(-4.07649e-05 -0.000443953 -0.000213029)
(3.6946e-05 -0.000444287 -0.00021303)
(0.000113535 -0.000431122 -0.000213031)
(0.000186673 -0.000404857 -0.000213031)
(0.00025414 -0.000366291 -0.00021303)
(0.000313884 -0.000316595 -0.000213029)
(0.000364092 -0.00025728 -0.000213028)
(0.000403237 -0.000190147 -0.000213028)
(0.00043013 -0.000117237 -0.000213028)
(0.000443953 -4.0765e-05 -0.000213029)
(0.000444287 3.6946e-05 -0.00021303)
(0.000431122 0.000113535 -0.000213031)
(0.000404857 0.000186673 -0.000213031)
(0.000366291 0.00025414 -0.00021303)
(0.000316595 0.000313884 -0.000213029)
(0.00025728 0.000364092 -0.000213028)
(0.000190147 0.000403237 -0.000213028)
(0.000117237 0.00043013 -0.000213028)
(4.07649e-05 0.000443953 -0.000213029)
(-3.55934e-05 0.000659409 -1.54013e-05)
(-0.000149558 0.00064321 -1.54017e-05)
(-0.000258978 0.000607468 -1.54016e-05)
(-0.000360528 0.000553269 -1.54013e-05)
(-0.000451125 0.000482258 -1.5401e-05)
(-0.000528015 0.000396594 -1.54005e-05)
(-0.000588861 0.00029888 -1.54001e-05)
(-0.000631815 0.000192084 -1.54002e-05)
(-0.000655572 7.94526e-05 -1.54007e-05)
(-0.000659409 -3.55934e-05 -1.54014e-05)
(-0.00064321 -0.000149558 -1.54019e-05)
(-0.000607468 -0.000258978 -1.54017e-05)
(-0.000553269 -0.000360528 -1.54013e-05)
(-0.000482258 -0.000451125 -1.54011e-05)
(-0.000396594 -0.000528015 -1.54005e-05)
(-0.00029888 -0.000588861 -1.54001e-05)
(-0.000192084 -0.000631815 -1.54002e-05)
(-7.94526e-05 -0.000655572 -1.54007e-05)
(3.55933e-05 -0.000659409 -1.54013e-05)
(0.000149558 -0.00064321 -1.54018e-05)
(0.000258978 -0.000607468 -1.54016e-05)
(0.000360528 -0.000553269 -1.54012e-05)
(0.000451125 -0.000482258 -1.54009e-05)
(0.000528015 -0.000396594 -1.54004e-05)
(0.000588861 -0.00029888 -1.54e-05)
(0.000631815 -0.000192084 -1.54001e-05)
(0.000655572 -7.94526e-05 -1.54006e-05)
(0.000659409 3.55933e-05 -1.54012e-05)
(0.00064321 0.000149558 -1.54017e-05)
(0.000607468 0.000258978 -1.54015e-05)
(0.000553269 0.000360528 -1.54012e-05)
(0.000482258 0.000451125 -1.54009e-05)
(0.000396594 0.000528015 -1.54004e-05)
(0.00029888 0.000588861 -1.54e-05)
(0.000192084 0.000631815 -1.54001e-05)
(7.94526e-05 0.000655572 -1.54006e-05)
(-6.99537e-05 0.000851598 0.000157259)
(-0.000216769 0.000826513 0.000157258)
(-0.000356998 0.000776315 0.000157258)
(-0.00048638 0.000702529 0.000157258)
(-0.000600983 0.000607397 0.000157258)
(-0.000697327 0.00049381 0.000157259)
(-0.000772482 0.000365218 0.000157259)
(-0.000824165 0.000225529 0.000157259)
(-0.000850807 7.89874e-05 0.000157259)
(-0.000851598 -6.99537e-05 0.000157259)
(-0.000826513 -0.000216769 0.000157258)
(-0.000776315 -0.000356998 0.000157258)
(-0.000702529 -0.00048638 0.000157258)
(-0.000607397 -0.000600983 0.000157258)
(-0.00049381 -0.000697327 0.000157258)
(-0.000365218 -0.000772482 0.000157258)
(-0.000225529 -0.000824165 0.000157258)
(-7.89874e-05 -0.000850807 0.000157259)
(6.99537e-05 -0.000851598 0.000157259)
(0.000216769 -0.000826513 0.000157258)
(0.000356998 -0.000776315 0.000157258)
(0.00048638 -0.000702529 0.000157258)
(0.000600983 -0.000607397 0.000157258)
(0.000697327 -0.00049381 0.000157259)
(0.000772482 -0.000365218 0.000157259)
(0.000824165 -0.000225529 0.000157259)
(0.000850807 -7.89874e-05 0.000157259)
(0.000851598 6.99537e-05 0.000157259)
(0.000826513 0.000216769 0.000157258)
(0.000776315 0.000356998 0.000157258)
(0.000702529 0.00048638 0.000157258)
(0.000607397 0.000600983 0.000157258)
(0.00049381 0.000697327 0.000157259)
(0.000365218 0.000772482 0.000157259)
(0.000225529 0.000824165 0.000157259)
(7.89874e-05 0.000850807 0.000157259)
(-0.000238554 0.000576107 -0.000357261)
(-0.00033497 0.00052593 -0.000357262)
(-0.000421208 0.000459773 -0.000357262)
(-0.000494647 0.000379646 -0.000357261)
(-0.000553056 0.000287984 -0.00035726)
(-0.000594662 0.000187571 -0.00035726)
(-0.000618199 8.14591e-05 -0.00035726)
(-0.000622953 -2.71279e-05 -0.000357259)
(-0.000608779 -0.00013489 -0.00035726)
(-0.000576107 -0.000238554 -0.000357261)
(-0.00052593 -0.00033497 -0.000357262)
(-0.000459773 -0.000421208 -0.000357262)
(-0.000379646 -0.000494647 -0.000357261)
(-0.000287984 -0.000553056 -0.00035726)
(-0.000187571 -0.000594662 -0.00035726)
(-8.14591e-05 -0.000618199 -0.00035726)
(2.71278e-05 -0.000622953 -0.000357259)
(0.00013489 -0.000608779 -0.00035726)
(0.000238554 -0.000576107 -0.000357261)
(0.00033497 -0.00052593 -0.000357262)
(0.000421208 -0.000459773 -0.000357262)
(0.000494647 -0.000379646 -0.000357261)
(0.000553056 -0.000287984 -0.00035726)
(0.000594662 -0.000187571 -0.00035726)
(0.000618199 -8.14592e-05 -0.000357259)
(0.000622953 2.71277e-05 -0.000357259)
(0.000608779 0.00013489 -0.00035726)
(0.000576107 0.000238554 -0.000357261)
(0.00052593 0.00033497 -0.000357262)
(0.000459773 0.000421208 -0.000357262)
(0.000379646 0.000494647 -0.000357261)
(0.000287984 0.000553056 -0.00035726)
(0.000187571 0.000594662 -0.00035726)
(8.14592e-05 0.000618199 -0.000357259)
(-2.71278e-05 0.000622953 -0.000357259)
(-0.00013489 0.000608779 -0.00035726)
(-0.000196613 0.000809032 -0.000143125)
(-0.000334114 0.000762599 -0.000143126)
(-0.000461462 0.000692996 -0.000143126)
(-0.000574788 0.000602336 -0.000143125)
(-0.00067065 0.000493374 -0.000143125)
(-0.000746135 0.000369422 -0.000143125)
(-0.000798949 0.000234244 -0.000143125)
(-0.000827487 9.19492e-05 -0.000143125)
(-0.000830883 -5.31392e-05 -0.000143125)
(-0.000809032 -0.000196613 -0.000143125)
(-0.000762599 -0.000334114 -0.000143126)
(-0.000692996 -0.000461462 -0.000143126)
(-0.000602336 -0.000574788 -0.000143125)
(-0.000493374 -0.00067065 -0.000143125)
(-0.000369422 -0.000746135 -0.000143125)
(-0.000234244 -0.000798949 -0.000143125)
(-9.19493e-05 -0.000827487 -0.000143125)
(5.31392e-05 -0.000830883 -0.000143125)
(0.000196613 -0.000809032 -0.000143125)
(0.000334114 -0.000762599 -0.000143126)
(0.000461462 -0.000692996 -0.000143126)
(0.000574788 -0.000602336 -0.000143125)
(0.00067065 -0.000493375 -0.000143125)
(0.000746135 -0.000369422 -0.000143125)
(0.000798949 -0.000234244 -0.000143125)
(0.000827487 -9.19493e-05 -0.000143125)
(0.000830883 5.31391e-05 -0.000143125)
(0.000809032 0.000196613 -0.000143125)
(0.000762599 0.000334114 -0.000143126)
(0.000692996 0.000461462 -0.000143126)
(0.000602336 0.000574788 -0.000143125)
(0.000493374 0.00067065 -0.000143125)
(0.000369422 0.000746135 -0.000143125)
(0.000234244 0.000798949 -0.000143125)
(9.19492e-05 0.000827487 -0.000143125)
(-5.31392e-05 0.000830883 -0.000143125)
(-0.000191602 0.00101545 5.00157e-05)
(-0.000365022 0.00096675 5.00155e-05)
(-0.000527351 0.000888678 5.00154e-05)
(-0.000673657 0.000783604 5.00155e-05)
(-0.000799494 0.00065472 5.00152e-05)
(-0.000901038 0.000505943 5.00152e-05)
(-0.000975205 0.000341793 5.00153e-05)
(-0.00101974 0.000167257 5.00154e-05)
(-0.00103329 -1.23603e-05 5.00155e-05)
(-0.00101545 -0.000191602 5.00155e-05)
(-0.000966751 -0.000365022 5.00153e-05)
(-0.000888678 -0.000527351 5.00153e-05)
(-0.000783604 -0.000673657 5.00153e-05)
(-0.00065472 -0.000799494 5.0015e-05)
(-0.000505943 -0.000901038 5.00152e-05)
(-0.000341793 -0.000975205 5.00152e-05)
(-0.000167257 -0.00101974 5.00153e-05)
(1.23602e-05 -0.00103329 5.00155e-05)
(0.000191602 -0.00101545 5.00156e-05)
(0.000365022 -0.000966751 5.00154e-05)
(0.000527351 -0.000888678 5.00154e-05)
(0.000673657 -0.000783604 5.00155e-05)
(0.000799494 -0.00065472 5.00152e-05)
(0.000901038 -0.000505943 5.00153e-05)
(0.000975205 -0.000341793 5.00154e-05)
(0.00101974 -0.000167257 5.00155e-05)
(0.00103329 1.23602e-05 5.00157e-05)
(0.00101545 0.000191602 5.00158e-05)
(0.00096675 0.000365022 5.00155e-05)
(0.000888678 0.000527351 5.00155e-05)
(0.000783604 0.000673657 5.00156e-05)
(0.00065472 0.000799494 5.00153e-05)
(0.000505943 0.000901038 5.00154e-05)
(0.000341793 0.000975205 5.00154e-05)
(0.000167257 0.00101974 5.00155e-05)
(-1.23602e-05 0.00103329 5.00157e-05)
(-0.000480003 0.00066455 -0.000595978)
(-0.000588109 0.000571102 -0.00059598)
(-0.000678345 0.000460302 -0.00059598)
(-0.00074797 0.000335515 -0.000595979)
(-0.000794867 0.000200534 -0.000595979)
(-0.000817614 5.94605e-05 -0.000595979)
(-0.000815518 -8.34201e-05 -0.000595979)
(-0.000788643 -0.000223766 -0.000595979)
(-0.000737805 -0.000357313 -0.000595978)
(-0.00066455 -0.000480003 -0.000595978)
(-0.000571102 -0.000588109 -0.00059598)
(-0.000460301 -0.000678345 -0.00059598)
(-0.000335515 -0.00074797 -0.000595979)
(-0.000200534 -0.000794867 -0.000595979)
(-5.94605e-05 -0.000817614 -0.000595979)
(8.34201e-05 -0.000815518 -0.000595979)
(0.000223766 -0.000788643 -0.000595979)
(0.000357313 -0.000737805 -0.000595978)
(0.000480003 -0.00066455 -0.000595978)
(0.000588109 -0.000571102 -0.00059598)
(0.000678345 -0.000460301 -0.00059598)
(0.00074797 -0.000335515 -0.000595979)
(0.000794867 -0.000200534 -0.000595978)
(0.000817614 -5.94606e-05 -0.000595979)
(0.000815518 8.342e-05 -0.000595979)
(0.000788643 0.000223766 -0.000595979)
(0.000737805 0.000357313 -0.000595978)
(0.00066455 0.000480003 -0.000595978)
(0.000571102 0.000588109 -0.00059598)
(0.000460302 0.000678345 -0.00059598)
(0.000335515 0.00074797 -0.000595979)
(0.000200534 0.000794867 -0.000595978)
(5.94606e-05 0.000817614 -0.000595979)
(-8.342e-05 0.000815518 -0.000595979)
(-0.000223766 0.000788643 -0.000595979)
(-0.000357313 0.000737805 -0.000595978)
(-0.000405762 0.00092246 -0.000358141)
(-0.000559782 0.000837986 -0.000358142)
(-0.000696792 0.00072805 -0.000358142)
(-0.000812631 0.000595993 -0.000358142)
(-0.000903778 0.000445827 -0.000358142)
(-0.000967464 0.000282114 -0.000358142)
(-0.00100175 0.00010983 -0.000358142)
(-0.00100561 -6.57919e-05 -0.000358142)
(-0.000978906 -0.000239414 -0.000358141)
(-0.00092246 -0.000405762 -0.000358142)
(-0.000837986 -0.000559782 -0.000358142)
(-0.00072805 -0.000696792 -0.000358142)
(-0.000595993 -0.000812631 -0.000358142)
(-0.000445827 -0.000903778 -0.000358142)
(-0.000282114 -0.000967464 -0.000358142)
(-0.00010983 -0.00100175 -0.000358142)
(6.57919e-05 -0.00100561 -0.000358142)
(0.000239414 -0.000978906 -0.000358141)
(0.000405762 -0.00092246 -0.000358142)
(0.000559782 -0.000837986 -0.000358142)
(0.000696792 -0.00072805 -0.000358142)
(0.000812631 -0.000595993 -0.000358142)
(0.000903778 -0.000445827 -0.000358142)
(0.000967464 -0.000282114 -0.000358142)
(0.00100175 -0.00010983 -0.000358142)
(0.00100561 6.57918e-05 -0.000358142)
(0.000978906 0.000239414 -0.000358141)
(0.00092246 0.000405762 -0.000358141)
(0.000837986 0.000559782 -0.000358142)
(0.00072805 0.000696792 -0.000358142)
(0.000595993 0.000812631 -0.000358142)
(0.000445827 0.000903778 -0.000358142)
(0.000282114 0.000967464 -0.000358142)
(0.00010983 0.00100175 -0.000358142)
(-6.57919e-05 0.00100561 -0.000358142)
(-0.000239414 0.000978906 -0.000358141)
(-0.000367956 0.00114848 -0.000139415)
(-0.000561799 0.00106714 -0.000139415)
(-0.000738571 0.000953374 -0.000139415)
(-0.000892902 0.000810639 -0.000139415)
(-0.0010201 0.000643273 -0.000139416)
(-0.00111631 0.000456361 -0.000139416)
(-0.00117859 0.000255584 -0.000139415)
(-0.00120507 4.70395e-05 -0.000139416)
(-0.00119493 -0.000162934 -0.000139415)
(-0.00114848 -0.000367956 -0.000139415)
(-0.00106714 -0.000561799 -0.000139416)
(-0.000953374 -0.000738571 -0.000139415)
(-0.000810639 -0.000892902 -0.000139416)
(-0.000643273 -0.0010201 -0.000139416)
(-0.000456361 -0.00111631 -0.000139416)
(-0.000255584 -0.00117859 -0.000139415)
(-4.70396e-05 -0.00120507 -0.000139416)
(0.000162933 -0.00119493 -0.000139415)
(0.000367956 -0.00114848 -0.000139415)
(0.000561799 -0.00106714 -0.000139415)
(0.000738571 -0.000953374 -0.000139415)
(0.000892902 -0.000810639 -0.000139415)
(0.0010201 -0.000643273 -0.000139416)
(0.00111631 -0.000456361 -0.000139416)
(0.00117859 -0.000255584 -0.000139415)
(0.00120507 -4.70396e-05 -0.000139416)
(0.00119493 0.000162933 -0.000139415)
(0.00114848 0.000367956 -0.000139415)
(0.00106714 0.000561799 -0.000139415)
(0.000953374 0.000738571 -0.000139415)
(0.000810639 0.000892902 -0.000139415)
(0.000643273 0.0010201 -0.000139415)
(0.000456361 0.00111631 -0.000139416)
(0.000255584 0.00117859 -0.000139415)
(4.70395e-05 0.00120507 -0.000139416)
(-0.000162934 0.00119493 -0.000139415)
(-0.000736447 0.000705543 -0.000918515)
(-0.000847775 0.000566941 -0.000918516)
(-0.000933344 0.000411113 -0.000918516)
(-0.000990554 0.000242794 -0.000918516)
(-0.00101767 6.70973e-05 -0.000918516)
(-0.00101386 -0.000110637 -0.000918516)
(-0.000979242 -0.000285011 -0.000918516)
(-0.000914873 -0.000450724 -0.000918516)
(-0.000822707 -0.000602743 -0.000918515)
(-0.000705543 -0.000736447 -0.000918515)
(-0.000566941 -0.000847775 -0.000918516)
(-0.000411113 -0.000933344 -0.000918516)
(-0.000242794 -0.000990554 -0.000918517)
(-6.70973e-05 -0.00101767 -0.000918516)
(0.000110638 -0.00101386 -0.000918516)
(0.000285011 -0.000979242 -0.000918516)
(0.000450724 -0.000914873 -0.000918516)
(0.000602743 -0.000822707 -0.000918515)
(0.000736447 -0.000705543 -0.000918515)
(0.000847775 -0.000566941 -0.000918516)
(0.000933344 -0.000411113 -0.000918516)
(0.000990554 -0.000242794 -0.000918516)
(0.00101767 -6.70973e-05 -0.000918516)
(0.00101386 0.000110637 -0.000918516)
(0.000979242 0.000285011 -0.000918516)
(0.000914873 0.000450724 -0.000918515)
(0.000822707 0.000602743 -0.000918515)
(0.000705543 0.000736447 -0.000918515)
(0.000566941 0.000847775 -0.000918515)
(0.000411113 0.000933344 -0.000918516)
(0.000242794 0.000990554 -0.000918516)
(6.70974e-05 0.00101767 -0.000918516)
(-0.000110637 0.00101386 -0.000918516)
(-0.000285011 0.000979242 -0.000918516)
(-0.000450724 0.000914873 -0.000918515)
(-0.000602743 0.000822707 -0.000918515)
(-0.000645723 0.000991008 -0.000650729)
(-0.000808 0.000863823 -0.000650729)
(-0.000945727 0.000710392 -0.000650729)
(-0.00105472 0.000535376 -0.00065073)
(-0.00113166 0.000344093 -0.00065073)
(-0.00117422 0.000142355 -0.00065073)
(-0.0011811 -6.37085e-05 -0.00065073)
(-0.00115209 -0.000267836 -0.00065073)
(-0.00108808 -0.000463827 -0.000650729)
(-0.000991008 -0.000645723 -0.000650729)
(-0.000863823 -0.000808 -0.000650729)
(-0.000710392 -0.000945727 -0.00065073)
(-0.000535376 -0.00105472 -0.00065073)
(-0.000344093 -0.00113166 -0.00065073)
(-0.000142355 -0.00117422 -0.00065073)
(6.37085e-05 -0.0011811 -0.00065073)
(0.000267836 -0.00115209 -0.00065073)
(0.000463827 -0.00108808 -0.000650729)
(0.000645723 -0.000991008 -0.000650729)
(0.000808 -0.000863823 -0.000650729)
(0.000945726 -0.000710393 -0.000650729)
(0.00105472 -0.000535376 -0.00065073)
(0.00113166 -0.000344093 -0.00065073)
(0.00117422 -0.000142355 -0.00065073)
(0.0011811 6.37084e-05 -0.00065073)
(0.00115209 0.000267836 -0.000650729)
(0.00108808 0.000463827 -0.000650729)
(0.000991008 0.000645723 -0.000650729)
(0.000863824 0.000808 -0.000650729)
(0.000710393 0.000945726 -0.000650729)
(0.000535376 0.00105472 -0.00065073)
(0.000344093 0.00113166 -0.00065073)
(0.000142355 0.00117422 -0.00065073)
(-6.37085e-05 0.0011811 -0.00065073)
(-0.000267836 0.00115209 -0.000650729)
(-0.000463827 0.00108808 -0.000650729)
(-0.000586354 0.00124198 -0.00040232)
(-0.000793113 0.00112129 -0.00040232)
(-0.000975775 0.000966536 -0.00040232)
(-0.00112879 0.000782411 -0.00040232)
(-0.0012475 0.000574512 -0.00040232)
(-0.00132831 0.000349158 -0.000402321)
(-0.00136876 0.000113194 -0.000402321)
(-0.00136763 -0.000126209 -0.00040232)
(-0.00132493 -0.000361777 -0.00040232)
(-0.00124198 -0.000586354 -0.000402321)
(-0.00112129 -0.000793114 -0.00040232)
(-0.000966536 -0.000975775 -0.000402321)
(-0.000782411 -0.00112879 -0.000402321)
(-0.000574512 -0.0012475 -0.000402321)
(-0.000349158 -0.00132831 -0.000402321)
(-0.000113194 -0.00136876 -0.000402321)
(0.000126209 -0.00136763 -0.00040232)
(0.000361777 -0.00132493 -0.00040232)
(0.000586354 -0.00124198 -0.000402321)
(0.000793113 -0.00112129 -0.00040232)
(0.000975775 -0.000966537 -0.00040232)
(0.00112879 -0.000782411 -0.00040232)
(0.0012475 -0.000574512 -0.00040232)