# Probe 0 (0 0 0.007)
# Probe 1 (0.0002 3e-05 0.00693)
# Probe 2 (0.0004 6e-05 0.00686)
# Probe 3 (0.0006 9e-05 0.00679)
# Probe 4 (0.0008 0.00012 0.00672)
# Probe 5 (0.001 0.00015 0.00665)
# Probe 6 (0.0012 0.00018 0.00658)
# Probe 7 (0.0014 0.00021 0.00651)
# Probe 8 (0.0016 0.00024 0.00644)
# Probe 9 (0.0018 0.00027 0.00637)
# Probe 10 (0.002 0.0003 0.0063)
# Probe 11 (0.0022 0.00033 0.00623)
# Probe 12 (0.0024 0.00036 0.00616)
# Probe 13 (0.0026 0.00039 0.00609)
# Probe 14 (0.0028 0.00042 0.00602)
# Probe 15 (0.003 0.00045 0.00595)
# Probe 16 (0.0032 0.00048 0.00588)
# Probe 17 (0.0034 0.00051 0.00581)
# Probe 18 (0.0036 0.00054 0.00574)
# Probe 19 (0.0038 0.00057 0.00567)
# Probe 20 (0.004 0.0006 0.0056)
# Probe 21 (0.0042 0.00063 0.00553)
# Probe 22 (0.0044 0.00066 0.00546)
# Probe 23 (0.0046 0.00069 0.00539)
# Probe 24 (0.0048 0.00072 0.00532)
# Probe 25 (0.005 0.00075 0.00525)
# Probe 26 (0.0052 0.00078 0.00518)
# Probe 27 (0.0054 0.00081 0.00511)
# Probe 28 (0.0056 0.00084 0.00504)
# Probe 29 (0.0058 0.00087 0.00497)
# Probe 30 (0.006 0.0009 0.0049)
# Probe 31 (0.0062 0.00093 0.00483)
# Probe 32 (0.0064 0.00096 0.00476)
# Probe 33 (0.0066 0.00099 0.00469)
# Probe 34 (0.0068 0.00102 0.00462)
# Probe 35 (0.007 0.00105 0.00455)
# Probe 36 (0.0072 0.00108 0.00448)
# Probe 37 (0.0074 0.00111 0.00441)
# Probe 38 (0.0076 0.00114 0.00434)
# Probe 39 (0.0078 0.00117 0.00427)
# Probe 40 (0.008 0.0012 0.0042)
# Probe 41 (0.0082 0.00123 0.00413)
# Probe 42 (0.0084 0.00126 0.00406)
# Probe 43 (0.0086 0.00129 0.00399)
# Probe 44 (0.0088 0.00132 0.00392)
# Probe 45 (0.009 0.00135 0.00385)
# Probe 46 (0.0092 0.00138 0.00378)
# Probe 47 (0.0094 0.00141 0.00371)
# Probe 48 (0.0096 0.00144 0.00364)
# Probe 49 (0.0098 0.00147 0.00357)
# Probe 50 (0.01 0.0015 0.0035)
# Probe 51 (0.0102 0.00153 0.00343)
# Probe 52 (0.0104 0.00156 0.00336)
# Probe 53 (0.0106 0.00159 0.00329)
# Probe 54 (0.0108 0.00162 0.00322)
# Probe 55 (0.011 0.00165 0.00315)
# Probe 56 (0.0112 0.00168 0.00308)
# Probe 57 (0.0114 0.00171 0.00301)
# Probe 58 (0.0116 0.00174 0.00294)
# Probe 59 (0.0118 0.00177 0.00287)
# Probe 60 (0.012 0.0018 0.0028)
# Probe 61 (0.0122 0.00183 0.00273)
# Probe 62 (0.0124 0.00186 0.00266)
# Probe 63 (0.0126 0.00189 0.00259)
# Probe 64 (0.0128 0.00192 0.00252)
# Probe 65 (0.013 0.00195 0.00245)
# Probe 66 (0.0132 0.00198 0.00238)
# Probe 67 (0.0134 0.00201 0.00231)
# Probe 68 (0.0136 0.00204 0.00224)
# Probe 69 (0.0138 0.00207 0.00217)
# Probe 70 (0.014 0.0021 0.0021)
# Probe 71 (0.0142 0.00213 0.00203)
# Probe 72 (0.0144 0.00216 0.00196)
# Probe 73 (0.0146 0.00219 0.00189)
# Probe 74 (0.0148 0.00222 0.00182)
# Probe 75 (0.015 0.00225 0.00175)
# Probe 76 (0.0152 0.00228 0.00168)
# Probe 77 (0.0154 0.00231 0.00161)
# Probe 78 (0.0156 0.00234 0.00154)
# Probe 79 (0.0158 0.00237 0.00147)
# Probe 80 (0.016 0.0024 0.0014)
# Probe 81 (0.0162 0.00243 0.00133)
# Probe 82 (0.0164 0.00246 0.00126)
# Probe 83 (0.0166 0.00249 0.00119)
# Probe 84 (0.0168 0.00252 0.00112)
# Probe 85 (0.017 0.00255 0.00105)
# Probe 86 (0.0172 0.00258 0.00098)
# Probe 87 (0.0174 0.00261 0.00091)
# Probe 88 (0.0176 0.00264 0.00084)
# Probe 89 (0.0178 0.00267 0.00077)
# Probe 90 (0.018 0.0027 0.0007)
# Probe 91 (0.0182 0.00273 0.00063)
# Probe 92 (0.0184 0.00276 0.00056)
# Probe 93 (0.0186 0.00279 0.00049)
# Probe 94 (0.0188 0.00282 0.00042)
# Probe 95 (0.019 0.00285 0.00035)
# Probe 96 (0.0192 0.00288 0.00028)
# Probe 97 (0.0194 0.00291 0.00021)
# Probe 98 (0.0196 0.00294 0.00014)
# Probe 99 (0.0198 0.00297 7e-05)
# Probe 100 (0.02 0.003 0)
# Time        0             1             2             3             4             5             6             7             8             9             10            11            12            13            14            15            16            17            18            19            20            21            22            23            24            25            26            27            28            29            30            31            32            33            34            35            36            37            38            39            40            41            42            43            44            45            46            47            48            49            50            51            52            53            54            55            56            57            58            59            60            61            62            63            64            65            66            67            68            69            70            71            72            73            74            75            76            77            78            79            80            81            82            83            84            85            86            87            88            89            90            91            92            93            94            95            96            97            98            99            100          
0.08          0.00119337    0.00119337    0.00119374    0.00119525    0.00119988    0.00121333    0.00125464    0.00140906    0.0016627     0.00187099    0.00222582    0.00258557    0.00294139    0.00330647    0.00370377    0.00409302    0.00445883    0.00482597    0.00527843    0.00565076    0.00623316    0.00663611    0.00700442    0.00776261    0.00810951    0.00845928    0.0093849     0.00976474    0.0100898     0.0111433     0.0114422     0.011746      0.0128848     0.0131665     0.0135433     0.014743      0.0150105     0.0152824     0.0165243     0.0167812     0.0180702     0.0184337     0.0186808     0.0199897     0.020227      0.0204674     0.0217933     0.0221644     0.0223977     0.0237338     0.0239597     0.0241884     0.0255362     0.0257584     0.0261365     0.0274895     0.0277073     0.0279272     0.029289      0.0295041     0.0308795     0.0312499     0.0314613     0.0328382     0.0330458     0.0332552     0.0346377     0.0350091     0.0352155     0.0365977     0.036801      0.037006      0.0383931     0.0385952     0.0389615     0.0403473     0.0405471     0.0407483     0.0421384     0.0423373     0.0437348     0.0440746     0.0442716     0.0456667     0.0458618     0.0460581     0.0474567     0.0477619     0.0479567     0.0493532     0.0495463     0.0497403     0.0511391     0.0513305     0.0515799     0.0529628     0.0531434     0.0533148     0.0543883     0.0545176     0.0545957    
