/*--------------------------------*- C++ -*----------------------------------*\
| =========                 |                                                 |
| \\      /  F ield         | OpenFOAM: The Open Source CFD Toolbox           |
|  \\    /   O peration     | Version:  2312                                  |
|   \\  /    A nd           | Website:  www.openfoam.com                      |
|    \\/     M anipulation  |                                                 |
\*---------------------------------------------------------------------------*/
FoamFile
{
    version     2.0;
    format      ascii;
    arch        "LSB;label=32;scalar=64";
    class       volVectorField;
    location    "1";
    object      D_0;
}
// * * * * * * * * * * * * * * * * * * * * * * * * * * * * * * * * * * * * * //

dimensions      [0 1 0 0 0 0 0];

internalField   nonuniform List<vector> 
1620
(
(0.000864767 -9.13018e-05 -0.00240351)
(0.00121631 0.000215449 -0.0022228)
(0.00125372 0.000554802 -0.00175817)
(0.00105992 0.000783611 -0.00114123)
(0.000764012 0.000877504 -0.000531748)
(0.000450253 0.000868534 -2.82503e-05)
(0.000157261 0.000789977 0.000337209)
(-0.000102205 0.000669821 0.000573651)
(-0.000328121 0.000534866 0.000712703)
(-0.000525343 0.000405873 0.000797533)
(-0.0006976 0.000290484 0.000873161)
(-0.000842435 0.000182964 0.00097746)
(-0.000947477 7.45932e-05 0.00113335)
(-0.000988291 -2.62716e-05 0.00134365)
(-0.00092677 -7.76637e-05 0.00159282)
(-0.000710281 -2.58077e-05 0.00185765)
(-0.000291433 0.000115319 0.00211405)
(0.000294586 0.000206175 0.00232483)
(0.000864767 9.13018e-05 0.00240351)
(0.00121631 -0.000215449 0.0022228)
(0.00125372 -0.000554802 0.00175817)
(0.00105992 -0.000783611 0.00114123)
(0.000764012 -0.000877504 0.000531748)
(0.000450253 -0.000868534 2.82503e-05)
(0.000157261 -0.000789977 -0.000337209)
(-0.000102205 -0.000669821 -0.000573651)
(-0.000328121 -0.000534866 -0.000712703)
(-0.000525343 -0.000405873 -0.000797533)
(-0.0006976 -0.000290484 -0.000873161)
(-0.000842435 -0.000182964 -0.00097746)
(-0.000947477 -7.45932e-05 -0.00113335)
(-0.000988291 2.62716e-05 -0.00134365)
(-0.00092677 7.76637e-05 -0.00159282)
(-0.000710281 2.58077e-05 -0.00185765)
(-0.000291433 -0.000115319 -0.00211405)
(0.000294586 -0.000206175 -0.00232483)
(0.000372656 0.000426584 -0.00216065)
(0.000511902 0.000494225 -0.00193834)
(0.000520567 0.000631059 -0.00162034)
(0.000401517 0.0008059 -0.00123211)
(0.000191646 0.000977577 -0.000817554)
(-5.89558e-05 0.00111505 -0.000415661)
(-0.000306065 0.0011995 -4.82518e-05)
(-0.000520088 0.00122514 0.000280103)
(-0.000686509 0.00119574 0.000577472)
(-0.000800897 0.0011166 0.000858317)
(-0.000862633 0.000988071 0.0011365)
(-0.000870818 0.000805123 0.00141878)
(-0.000823927 0.000564418 0.00169945)
(-0.000722705 0.000278218 0.00195776)
(-0.000572195 -1.20925e-05 0.00216309)
(-0.000376653 -0.000241983 0.00228969)
(-0.000134132 -0.000364743 0.00232912)
(0.000137812 -0.000401884 0.00228543)
(0.000372656 -0.000426584 0.00216065)
(0.000511902 -0.000494225 0.00193834)
(0.000520567 -0.000631059 0.00162034)
(0.000401517 -0.0008059 0.00123211)
(0.000191646 -0.000977577 0.000817554)
(-5.89558e-05 -0.00111505 0.000415661)
(-0.000306065 -0.0011995 4.82518e-05)
(-0.000520088 -0.00122514 -0.000280103)
(-0.000686509 -0.00119574 -0.000577472)
(-0.000800897 -0.0011166 -0.000858317)
(-0.000862633 -0.000988071 -0.0011365)
(-0.000870818 -0.000805123 -0.00141878)
(-0.000823927 -0.000564418 -0.00169945)
(-0.000722705 -0.000278218 -0.00195776)
(-0.000572195 1.20925e-05 -0.00216309)
(-0.000376653 0.000241983 -0.00228969)
(-0.000134132 0.000364743 -0.00232912)
(0.000137812 0.000401884 -0.00228543)
(4.24013e-06 0.000687392 -0.00193932)
(1.72106e-05 0.000605425 -0.00170977)
(1.18917e-05 0.000619391 -0.0015088)
(-4.95756e-05 0.000784932 -0.00129688)
(-0.000195947 0.00106167 -0.00103485)
(-0.000411691 0.0013692 -0.000707864)
(-0.000650401 0.00163717 -0.000322082)
(-0.000864523 0.00182187 0.00010777)
(-0.00102195 0.00190084 0.000565189)
(-0.0011059 0.00186394 0.0010319)
(-0.00110871 0.00170834 0.00148601)
(-0.0010282 0.0014374 0.00190105)
(-0.000870132 0.00106276 0.00224593)
(-0.000655465 0.000609982 0.00248711)
(-0.000425099 0.000126829 0.00259653)
(-0.000228679 -0.000311176 0.00256593)
(-9.63323e-05 -0.00061391 0.00241663)
(-2.55454e-05 -0.000727539 0.0021906)
(4.24013e-06 -0.000687392 0.00193932)
(1.72106e-05 -0.000605425 0.00170977)
(1.18917e-05 -0.000619391 0.0015088)
(-4.95756e-05 -0.000784932 0.00129688)
(-0.000195947 -0.00106167 0.00103485)
(-0.000411691 -0.0013692 0.000707864)
(-0.000650401 -0.00163717 0.000322082)
(-0.000864523 -0.00182187 -0.00010777)
(-0.00102195 -0.00190084 -0.000565189)
(-0.0011059 -0.00186394 -0.0010319)
(-0.00110871 -0.00170834 -0.00148601)
(-0.0010282 -0.0014374 -0.00190105)
(-0.000870132 -0.00106276 -0.00224593)
(-0.000655465 -0.000609982 -0.00248711)
(-0.000425099 -0.000126829 -0.00259653)
(-0.000228679 0.000311176 -0.00256593)
(-9.63323e-05 0.00061391 -0.00241663)
(-2.55454e-05 0.000727539 -0.0021906)
(0.00267093 0.00058635 -0.00633625)
(0.00346759 0.00104455 -0.00560438)
(0.00328112 0.00158668 -0.00440453)
(0.00243316 0.00205437 -0.00301807)
(0.0013334 0.00241323 -0.00168083)
(0.00024486 0.00263611 -0.000522394)
(-0.000715188 0.00270055 0.000409853)
(-0.0015154 0.00262224 0.00112465)
(-0.00216273 0.00244593 0.00167557)
(-0.00267378 0.00221078 0.00214407)
(-0.00305748 0.00192541 0.00261557)
(-0.00330458 0.00156628 0.00315557)
(-0.00338223 0.00110026 0.0037891)
(-0.00323213 0.000530412 0.00448834)
(-0.0027713 -4.75414e-05 0.00518187)
(-0.00190063 -0.000437739 0.00579314)
(-0.000554822 -0.000501633 0.00626166)
(0.00113802 -0.000415503 0.00648275)
(0.00267093 -0.00058635 0.00633625)
(0.00346759 -0.00104455 0.00560438)
(0.00328112 -0.00158668 0.00440453)
(0.00243316 -0.00205437 0.00301807)
(0.0013334 -0.00241323 0.00168083)
(0.00024486 -0.00263611 0.000522394)
(-0.000715188 -0.00270055 -0.000409853)
(-0.0015154 -0.00262224 -0.00112465)
(-0.00216273 -0.00244593 -0.00167557)
(-0.00267378 -0.00221078 -0.00214407)
(-0.00305748 -0.00192541 -0.00261557)
(-0.00330458 -0.00156628 -0.00315557)
(-0.00338223 -0.00110026 -0.0037891)
(-0.00323213 -0.000530412 -0.00448834)
(-0.0027713 4.75414e-05 -0.00518187)
(-0.00190063 0.000437739 -0.00579314)
(-0.000554822 0.000501633 -0.00626166)
(0.00113802 0.000415503 -0.00648275)
(0.00179416 0.00136513 -0.00605817)
(0.00227042 0.00144698 -0.00543213)
(0.0022075 0.00173862 -0.00455809)
(0.00166358 0.00217856 -0.0035065)
(0.000842918 0.00266309 -0.00236864)
(-5.17758e-05 0.00307298 -0.00123639)
(-0.000881029 0.00332546 -0.000174796)
(-0.00157357 0.0033965 0.000791151)
(-0.00210433 0.00329968 0.00167113)
(-0.00246932 0.00305479 0.00249343)
(-0.00266758 0.00266966 0.00328703)
(-0.00269173 0.00213945 0.00406671)
(-0.00252679 0.0014607 0.00482174)
(-0.00215755 0.000658613 0.00550962)
(-0.00158392 -0.000177683 0.00606149)
(-0.000834921 -0.000879994 0.00640968)
(4.10583e-05 -0.00127793 0.00652772)
(0.000976662 -0.00136581 0.00641412)
(0.00179416 -0.00136513 0.00605817)
(0.00227042 -0.00144698 0.00543213)
(0.0022075 -0.00173862 0.00455809)
(0.00166358 -0.00217856 0.0035065)
(0.000842918 -0.00266309 0.00236864)
(-5.17758e-05 -0.00307298 0.00123639)
(-0.000881029 -0.00332546 0.000174796)
(-0.00157357 -0.0033965 -0.000791151)
(-0.00210433 -0.00329968 -0.00167113)
(-0.00246932 -0.00305479 -0.00249343)
(-0.00266758 -0.00266966 -0.00328703)
(-0.00269173 -0.00213945 -0.00406671)
(-0.00252679 -0.0014607 -0.00482174)
(-0.00215755 -0.000658613 -0.00550962)
(-0.00158392 0.000177683 -0.00606149)
(-0.000834921 0.000879994 -0.00640968)
(4.10583e-05 0.00127793 -0.00652772)
(0.000976662 0.00136581 -0.00641412)
(0.00103889 0.00184144 -0.00563096)
(0.00129377 0.00166336 -0.00514782)
(0.00135843 0.00177008 -0.00459183)
(0.00110065 0.00220623 -0.00385879)
(0.000538886 0.00283365 -0.00291932)
(-0.000188426 0.00345316 -0.00182507)
(-0.000923062 0.00391928 -0.000651356)
(-0.00155343 0.00416249 0.000548008)
(-0.00202021 0.0041578 0.00173933)
(-0.00229598 0.00390114 0.00289265)
(-0.00236722 0.00340212 0.00397307)
(-0.00222602 0.00268356 0.0049397)
(-0.00187306 0.00178366 0.00574721)
(-0.00133394 0.000761261 0.00634674)
(-0.000686159 -0.000290664 0.00668775)
(-6.78876e-05 -0.00122185 0.00673399)
(0.000397133 -0.00183291 0.0065088)
(0.000730708 -0.0019942 0.00611221)
(0.00103889 -0.00184144 0.00563096)
(0.00129377 -0.00166336 0.00514782)
(0.00135843 -0.00177008 0.00459183)
(0.00110065 -0.00220623 0.00385879)
(0.000538886 -0.00283365 0.00291932)
(-0.000188426 -0.00345316 0.00182507)
(-0.000923062 -0.00391928 0.000651356)
(-0.00155343 -0.00416249 -0.000548008)
(-0.00202021 -0.0041578 -0.00173933)
(-0.00229598 -0.00390114 -0.00289265)
(-0.00236722 -0.00340212 -0.00397307)
(-0.00222602 -0.00268356 -0.0049397)
(-0.00187306 -0.00178366 -0.00574721)
(-0.00133394 -0.000761261 -0.00634674)
(-0.000686159 0.000290664 -0.00668775)
(-6.78876e-05 0.00122185 -0.00673399)
(0.000397133 0.00183291 -0.0065088)
(0.000730708 0.0019942 -0.00611221)
(0.00548846 0.00228493 -0.00944564)
(0.00616323 0.00256318 -0.00831847)
(0.00513891 0.00290804 -0.00662865)
(0.00321798 0.00330257 -0.00475147)
(0.00109712 0.00370663 -0.0029386)
(-0.000840946 0.00400283 -0.00130574)
(-0.00246202 0.00410333 0.00010027)
(-0.00375279 0.0040019 0.00128072)
(-0.00473893 0.00374071 0.00228535)
(-0.00544796 0.00335693 0.00319657)
(-0.00589287 0.00285388 0.00410101)
(-0.00606417 0.00220262 0.00506019)
(-0.00592416 0.0013692 0.00608692)
(-0.00539597 0.000362263 0.00713647)
(-0.00434173 -0.000707697 0.0081248)
(-0.00256667 -0.00159719 0.00897225)
(1.06114e-05 -0.00205393 0.00961016)
(0.00300344 -0.00212985 0.00984115)
(0.00548846 -0.00228493 0.00944564)
(0.00616323 -0.00256318 0.00831847)
(0.00513891 -0.00290804 0.00662865)
(0.00321798 -0.00330257 0.00475147)
(0.00109712 -0.00370663 0.0029386)
(-0.000840946 -0.00400283 0.00130574)
(-0.00246202 -0.00410333 -0.00010027)
(-0.00375279 -0.0040019 -0.00128072)
(-0.00473893 -0.00374071 -0.00228535)
(-0.00544796 -0.00335693 -0.00319657)
(-0.00589287 -0.00285388 -0.00410101)
(-0.00606417 -0.00220262 -0.00506019)
(-0.00592416 -0.0013692 -0.00608692)
(-0.00539597 -0.000362263 -0.00713647)
(-0.00434173 0.000707697 -0.0081248)
(-0.00256667 0.00159719 -0.00897225)
(1.06114e-05 0.00205393 -0.00961016)
(0.00300344 0.00212985 -0.00984115)
(0.00425475 0.00256285 -0.00903388)
(0.00477919 0.00261322 -0.00809915)
(0.00427428 0.00291697 -0.00682555)
(0.00303174 0.0034585 -0.00529418)
(0.00145206 0.00408599 -0.00362968)
(-0.000133947 0.00460554 -0.00195951)
(-0.00153267 0.00489511 -0.000367309)
(-0.00266462 0.00492421 0.00111324)
(-0.00351012 0.00471062 0.00248454)
(-0.00406954 0.00427915 0.0037687)
(-0.00434228 0.00364268 0.00498999)
(-0.00431709 0.00280318 0.0061583)
(-0.0039692 0.00176781 0.00725665)
(-0.00326242 0.000576705 0.00823663)
(-0.00215783 -0.00065986 0.00902521)
(-0.000644763 -0.00173235 0.00954474)
(0.00117474 -0.00239976 0.00974358)
(0.00295696 -0.00259956 0.00959163)
(0.00425475 -0.00256285 0.00903388)
(0.00477919 -0.00261322 0.00809915)
(0.00427428 -0.00291697 0.00682555)
(0.00303174 -0.0034585 0.00529418)
(0.00145206 -0.00408599 0.00362968)
(-0.000133947 -0.00460554 0.00195951)
(-0.00153267 -0.00489511 0.000367309)
(-0.00266462 -0.00492421 -0.00111324)
(-0.00351012 -0.00471062 -0.00248454)
(-0.00406954 -0.00427915 -0.0037687)
(-0.00434228 -0.00364268 -0.00498999)
(-0.00431709 -0.00280318 -0.0061583)
(-0.0039692 -0.00176781 -0.00725665)
(-0.00326242 -0.000576705 -0.00823663)
(-0.00215783 0.00065986 -0.00902521)
(-0.000644763 0.00173235 -0.00954474)
(0.00117474 0.00239976 -0.00974358)
(0.00295696 0.00259956 -0.00959163)
(0.00320819 0.00269971 -0.00842279)
(0.00365485 0.00258461 -0.00776074)
(0.00362235 0.00282646 -0.00685396)
(0.00301661 0.00345478 -0.00563017)
(0.00195525 0.00426843 -0.00412448)
(0.000700762 0.00500304 -0.00245734)
(-0.000503024 0.00549399 -0.000732261)
(-0.00151374 0.0056761 0.000994929)
(-0.00226529 0.0055298 0.002685)
(-0.00272748 0.00505938 0.00429673)
(-0.00288271 0.0042879 0.00578544)
(-0.0027156 0.00325532 0.00710496)
(-0.00221405 0.00201847 0.00820833)
(-0.00138562 0.00065451 0.0090461)
(-0.000295405 -0.0007236 0.00956167)
(0.000886671 -0.00193044 0.00969602)
(0.00191113 -0.00271362 0.00944764)
(0.0026218 -0.00291432 0.0089682)
(0.00320819 -0.00269971 0.00842279)
(0.00365485 -0.00258461 0.00776074)
(0.00362235 -0.00282646 0.00685396)
(0.00301661 -0.00345478 0.00563017)
(0.00195525 -0.00426843 0.00412448)
(0.000700762 -0.00500304 0.00245734)
(-0.000503024 -0.00549399 0.000732261)
(-0.00151374 -0.0056761 -0.000994929)
(-0.00226529 -0.0055298 -0.002685)
(-0.00272748 -0.00505938 -0.00429673)
(-0.00288271 -0.0042879 -0.00578544)
(-0.0027156 -0.00325532 -0.00710496)
(-0.00221405 -0.00201847 -0.00820833)
(-0.00138562 -0.00065451 -0.0090461)
(-0.000295405 0.0007236 -0.00956167)
(0.000886671 0.00193044 -0.00969602)
(0.00191113 0.00271362 -0.00944764)
(0.0026218 0.00291432 -0.0089682)
(0.00807044 0.00419416 -0.0112817)
(0.00824317 0.00386339 -0.00993665)
(0.00637226 0.00383579 -0.00808627)
(0.00352991 0.00405784 -0.00604706)
(0.000610099 0.00434322 -0.00402577)
(-0.00194892 0.00452756 -0.00212456)
(-0.00403995 0.00451968 -0.000385988)
(-0.00567468 0.00429996 0.00117918)
(-0.00688359 0.00388975 0.00259253)
(-0.00768968 0.00331136 0.00390346)
(-0.0081009 0.002565 0.00516978)
(-0.0081041 0.00163009 0.00643148)
(-0.00765645 0.000488385 0.00768926)
(-0.00666652 -0.000837601 0.0089017)
(-0.00495732 -0.00224087 0.01001)
(-0.00226919 -0.00350507 0.0109631)
(0.00144478 -0.00434399 0.0116636)
(0.00541221 -0.00453733 0.0118739)
(0.00807044 -0.00419416 0.0112817)
(0.00824317 -0.00386339 0.00993665)
(0.00637226 -0.00383579 0.00808627)
(0.00352991 -0.00405784 0.00604706)
(0.000610099 -0.00434322 0.00402577)
(-0.00194892 -0.00452756 0.00212456)
(-0.00403995 -0.00451968 0.000385988)
(-0.00567468 -0.00429996 -0.00117918)
(-0.00688359 -0.00388975 -0.00259253)
(-0.00768968 -0.00331136 -0.00390346)
(-0.0081009 -0.002565 -0.00516978)
(-0.0081041 -0.00163009 -0.00643148)
(-0.00765645 -0.000488385 -0.00768926)
(-0.00666652 0.000837601 -0.0089017)
(-0.00495732 0.00224087 -0.01001)
(-0.00226919 0.00350507 -0.0109631)
(0.00144478 0.00434399 -0.0116636)
(0.00541221 0.00453733 -0.0118739)
(0.00673209 0.00370939 -0.0108868)
(0.00696508 0.00362784 -0.00977848)
(0.00594033 0.00387859 -0.0082588)
(0.00408389 0.00439413 -0.00643218)
(0.00190244 0.00495558 -0.00446666)
(-0.000205493 0.00537337 -0.00249893)
(-0.00202786 0.0055467 -0.000595017)
(-0.00348473 0.00544624 0.00121584)
(-0.00455478 0.00508031 0.00292045)
(-0.00523405 0.00446875 0.00451886)
(-0.00551737 0.00362836 0.00601787)
(-0.00538883 0.00257157 0.0074176)
(-0.00481689 0.00131875 0.0086984)
(-0.003753 -7.9234e-05 0.00981755)
(-0.00213705 -0.00151206 0.0107208)
(5.95208e-05 -0.00278417 0.0113557)
(0.00267108 -0.00363732 0.0116544)
(0.00514396 -0.00389157 0.011523)
(0.00673209 -0.00370939 0.0108868)
(0.00696508 -0.00362784 0.00977848)
(0.00594033 -0.00387859 0.0082588)
(0.00408389 -0.00439413 0.00643218)
(0.00190244 -0.00495558 0.00446666)
(-0.000205493 -0.00537337 0.00249893)
(-0.00202786 -0.0055467 0.000595017)
(-0.00348473 -0.00544624 -0.00121584)
(-0.00455478 -0.00508031 -0.00292045)
(-0.00523405 -0.00446875 -0.00451886)
(-0.00551737 -0.00362836 -0.00601787)
(-0.00538883 -0.00257157 -0.0074176)
(-0.00481689 -0.00131875 -0.0086984)
(-0.00375301 7.9234e-05 -0.00981755)
(-0.00213705 0.00151206 -0.0107208)
(5.95208e-05 0.00278417 -0.0113557)
(0.00267108 0.00363732 -0.0116544)
(0.00514396 0.00389157 -0.011523)
(0.00547487 0.00353523 -0.0105397)
(0.00587874 0.0036326 -0.00967114)
(0.00568741 0.0040098 -0.00837336)
(0.00478692 0.0046723 -0.00669479)
(0.00332644 0.00542093 -0.00478389)
(0.00165294 0.00603163 -0.00278519)
(7.54229e-05 0.00637692 -0.000769556)
(-0.00123785 0.00640313 0.00123087)
(-0.00221184 0.00609207 0.00317605)
(-0.00281152 0.00545332 0.00501662)
(-0.00301484 0.00451882 0.0067049)
(-0.00280099 0.00333666 0.00819832)
(-0.00214992 0.0019693 0.00945631)
(-0.00105934 0.000497096 0.0104374)
(0.000407481 -0.000969043 0.0110993)
(0.00204956 -0.00225626 0.0114075)
(0.00355269 -0.00314064 0.01137)
(0.00469485 -0.00350908 0.0110606)
(0.00547487 -0.00353523 0.0105397)
(0.00587874 -0.0036326 0.00967114)
(0.00568741 -0.0040098 0.00837336)
(0.00478692 -0.0046723 0.00669479)
(0.00332644 -0.00542093 0.00478389)
(0.00165294 -0.00603163 0.00278519)
(7.54229e-05 -0.00637692 0.000769556)
(-0.00123785 -0.00640313 -0.00123087)
(-0.00221184 -0.00609207 -0.00317605)
(-0.00281152 -0.00545332 -0.00501662)
(-0.00301484 -0.00451882 -0.0067049)
(-0.00280099 -0.00333666 -0.00819832)
(-0.00214992 -0.0019693 -0.00945631)
(-0.00105934 -0.000497096 -0.0104374)
(0.000407481 0.000969043 -0.0110993)
(0.00204956 0.00225626 -0.0114075)
(0.00355269 0.00314064 -0.01137)
(0.00469485 0.00350908 -0.0110606)
(0.00898618 0.00531314 -0.0118005)
(0.00889464 0.0047367 -0.0104777)
(0.00675954 0.00443505 -0.0087103)
(0.00358539 0.00436927 -0.00672304)
(0.000343823 0.00435323 -0.00470188)
(-0.00249762 0.00426727 -0.00273492)
(-0.00483882 0.00404291 -0.000851541)
(-0.00668374 0.0036422 0.000931682)
(-0.0080389 0.00305482 0.00260612)
(-0.00890188 0.00228333 0.00417847)
(-0.00926153 0.00132843 0.00566695)
(-0.00909181 0.00018781 0.0070851)
(-0.00833975 -0.00112682 0.00842731)
(-0.00690405 -0.00255836 0.00967295)
(-0.00460952 -0.00397144 0.010807)
(-0.00127492 -0.00514341 0.0117928)
(0.00286839 -0.00581186 0.0124506)
(0.00674176 -0.00582004 0.0124946)
(0.00898618 -0.00531314 0.0118005)
(0.00889464 -0.0047367 0.0104777)
(0.00675954 -0.00443505 0.0087103)
(0.00358539 -0.00436927 0.00672304)
(0.000343823 -0.00435323 0.00470188)
(-0.00249762 -0.00426727 0.00273492)
(-0.00483882 -0.00404291 0.000851541)
(-0.00668374 -0.0036422 -0.000931682)
(-0.0080389 -0.00305482 -0.00260612)
(-0.00890188 -0.00228333 -0.00417847)
(-0.00926153 -0.00132843 -0.00566695)
(-0.00909181 -0.00018781 -0.0070851)
(-0.00833975 0.00112682 -0.00842731)
(-0.00690405 0.00255836 -0.00967295)
(-0.00460952 0.00397144 -0.010807)
(-0.00127492 0.00514341 -0.0117928)
(0.00286839 0.00581186 -0.0124506)
(0.00674176 0.00582004 -0.0124946)
(0.00781235 0.00452841 -0.0117123)
(0.00793979 0.00449823 -0.0105578)
(0.00674825 0.00466891 -0.00892011)
(0.00465566 0.00498373 -0.00696964)
(0.00221687 0.00527806 -0.00490613)
(-0.000141905 0.00543425 -0.00284787)
(-0.00219812 0.00538838 -0.000831341)
(-0.00385519 0.00510654 0.00112394)
(-0.00507032 0.00457897 0.00299156)
(-0.00582082 0.003815 0.00474763)
(-0.00608835 0.00283441 0.00637719)
(-0.00584891 0.00166338 0.00786817)
(-0.00506632 0.000341881 0.00920133)
(-0.00369084 -0.00105864 0.0103492)
(-0.00167459 -0.00241679 0.0112876)
(0.000942769 -0.00355732 0.0119882)
(0.00383035 -0.00429472 0.0123685)
(0.00633103 -0.00456167 0.0123069)
(0.00781235 -0.00452841 0.0117123)
(0.00793979 -0.00449823 0.0105578)
(0.00674825 -0.00466891 0.00892011)
(0.00465566 -0.00498373 0.00696964)
(0.00221687 -0.00527806 0.00490613)
(-0.000141905 -0.00543425 0.00284787)
(-0.00219812 -0.00538838 0.000831341)
(-0.00385519 -0.00510654 -0.00112394)
(-0.00507032 -0.00457897 -0.00299156)
(-0.00582082 -0.003815 -0.00474763)
(-0.00608835 -0.00283441 -0.00637719)
(-0.00584891 -0.00166338 -0.00786817)
(-0.00506632 -0.000341881 -0.00920133)
(-0.00369084 0.00105864 -0.0103492)
(-0.00167459 0.00241679 -0.0112876)
(0.000942769 0.00355732 -0.0119882)
(0.00383035 0.00429472 -0.0123685)
(0.00633103 0.00456167 -0.0123069)
(0.00672295 0.00414937 -0.0118928)
(0.00711772 0.00461963 -0.0108452)
(0.00686273 0.00513111 -0.00921371)
(0.0058414 0.00567983 -0.00722269)
(0.00420068 0.00617468 -0.00509828)
(0.00230981 0.00650596 -0.00296759)
(0.000514257 0.00660414 -0.000858921)
(-0.000988548 0.00642724 0.0012212)
(-0.00210439 0.00595505 0.00323884)
(-0.00278601 0.00519622 0.00514291)
(-0.00300391 0.00418522 0.00688466)
(-0.00273401 0.00297476 0.00842432)
(-0.00195705 0.00163301 0.00972822)
(-0.000677149 0.000247064 0.0107684)
(0.00102223 -0.00107522 0.0115329)
(0.00289446 -0.00221119 0.0120354)
(0.00458277 -0.00306768 0.0123041)
(0.00586531 -0.00366821 0.0123143)
(0.00672295 -0.00414937 0.0118928)
(0.00711772 -0.00461963 0.0108452)
(0.00686273 -0.00513111 0.00921371)
(0.0058414 -0.00567983 0.00722269)
(0.00420068 -0.00617468 0.00509828)
(0.00230981 -0.00650596 0.00296759)
(0.000514257 -0.00660414 0.000858921)
(-0.000988548 -0.00642724 -0.0012212)
(-0.00210439 -0.00595505 -0.00323884)
(-0.00278601 -0.00519622 -0.00514291)
(-0.00300391 -0.00418522 -0.00688466)
(-0.00273401 -0.00297476 -0.00842432)
(-0.00195705 -0.00163301 -0.00972822)
(-0.000677149 -0.000247064 -0.0107684)
(0.00102223 0.00107522 -0.0115329)
(0.00289446 0.00221119 -0.0120354)
(0.00458277 0.00306768 -0.0123041)
(0.00586531 0.00366821 -0.0123143)
(0.00871716 0.00562424 -0.0114866)
(0.0084623 0.00498502 -0.0103204)
(0.00638483 0.00450898 -0.00874007)
(0.00333516 0.00415617 -0.0069138)
(0.000172281 0.00380985 -0.00501168)
(-0.00265969 0.00341588 -0.00312177)
(-0.00504919 0.00294071 -0.00126393)
(-0.00697266 0.0023436 0.000552212)
(-0.00839905 0.00159253 0.00230625)
(-0.00928911 0.00067361 0.00397547)
(-0.00960358 -0.000410478 0.00554364)
(-0.00930003 -0.00163946 0.00699931)
(-0.0083219 -0.0029634 0.00833277)
(-0.0065836 -0.004283 0.00954308)
(-0.00397381 -0.00543881 0.0106367)
(-0.00048088 -0.00623081 0.0115597)
(0.00346555 -0.00649649 0.0121208)
(0.0068794 -0.00622937 0.0121131)
(0.00871716 -0.00562424 0.0114866)
(0.0084623 -0.00498502 0.0103204)
(0.00638483 -0.00450898 0.00874007)
(0.00333516 -0.00415617 0.0069138)
(0.000172281 -0.00380985 0.00501168)
(-0.00265969 -0.00341588 0.00312177)
(-0.00504919 -0.00294071 0.00126393)
(-0.00697266 -0.0023436 -0.000552212)
(-0.00839905 -0.00159253 -0.00230625)
(-0.00928911 -0.00067361 -0.00397547)
(-0.00960358 0.000410478 -0.00554364)
(-0.00930003 0.00163946 -0.00699931)
(-0.0083219 0.0029634 -0.00833277)
(-0.0065836 0.004283 -0.00954308)
(-0.00397381 0.00543881 -0.0106367)
(-0.00048088 0.00623081 -0.0115597)
(0.00346555 0.00649649 -0.0121208)
(0.0068794 0.00622937 -0.0121131)
(0.00783671 0.00481688 -0.0116752)
(0.00785619 0.00487696 -0.0105965)
(0.00668173 0.00499043 -0.00901074)
(0.00466984 0.00508217 -0.00710456)
(0.00229122 0.00507089 -0.00508421)
(-6.57251e-05 0.00492511 -0.00306638)
(-0.00217237 0.00462675 -0.00107928)
(-0.00390453 0.00414981 0.000867757)
(-0.0051869 0.00347421 0.00274798)
(-0.00596941 0.00259958 0.00452496)
(-0.00621513 0.00154681 0.0061668)
(-0.00589129 0.000355866 0.00764977)
(-0.0049639 -0.000910606 0.00895599)
(-0.00340122 -0.00215864 0.010075)
(-0.00120599 -0.00326335 0.0110064)
(0.00148154 -0.00409516 0.0117304)
(0.00426016 -0.00458199 0.0121633)
(0.00655048 -0.00477054 0.0121811)
(0.00783671 -0.00481688 0.0116752)
(0.00785619 -0.00487696 0.0105965)
(0.00668173 -0.00499043 0.00901074)
(0.00466984 -0.00508217 0.00710456)
(0.00229122 -0.00507089 0.00508421)
(-6.57251e-05 -0.00492511 0.00306638)
(-0.00217237 -0.00462675 0.00107928)
(-0.00390453 -0.00414981 -0.000867757)
(-0.0051869 -0.00347421 -0.00274798)
(-0.00596941 -0.00259958 -0.00452496)
(-0.00621513 -0.00154681 -0.0061668)
(-0.00589129 -0.000355866 -0.00764977)
(-0.0049639 0.000910606 -0.00895599)
(-0.00340122 0.00215864 -0.010075)
(-0.00120599 0.00326335 -0.0110064)
(0.00148154 0.00409516 -0.0117304)
(0.00426016 0.00458199 -0.0121633)
(0.00655048 0.00477054 -0.0121811)
(0.00698316 0.0044517 -0.0122701)
(0.00733006 0.00519053 -0.0111967)
(0.00706715 0.00578642 -0.00947602)
(0.00608957 0.00618908 -0.00740271)
(0.00449354 0.00639988 -0.00523447)
(0.0025986 0.00642234 -0.00309827)
(0.000752726 0.00625148 -0.00101376)
(-0.000818188 0.00586688 0.0010261)
(-0.0019938 0.00525129 0.0029992)
(-0.00270914 0.00441067 0.00486032)
(-0.00292495 0.00337801 0.00656272)
(-0.00261505 0.00220864 0.00806896)
(-0.0017673 0.000976562 0.00935313)
(-0.000405754 -0.00022788 0.0104052)
(0.00135077 -0.00131331 0.0112422)
(0.00322886 -0.00222426 0.0119001)
(0.00489491 -0.00298375 0.0123882)
(0.00615792 -0.00369646 0.0125996)
(0.00698316 -0.0044517 0.0122701)
(0.00733006 -0.00519053 0.0111967)
(0.00706715 -0.00578642 0.00947602)
(0.00608957 -0.00618908 0.00740271)
(0.00449354 -0.00639988 0.00523447)
(0.0025986 -0.00642234 0.00309827)
(0.000752726 -0.00625148 0.00101376)
(-0.000818188 -0.00586688 -0.0010261)
(-0.0019938 -0.00525129 -0.0029992)
(-0.00270914 -0.00441067 -0.00486032)
(-0.00292495 -0.00337801 -0.00656272)
(-0.00261505 -0.00220864 -0.00806896)
(-0.0017673 -0.000976562 -0.00935313)
(-0.000405754 0.00022788 -0.0104052)
(0.00135077 0.00131331 -0.0112422)
(0.00322886 0.00222426 -0.0119001)
(0.00489491 0.00298375 -0.0123882)
(0.00615792 0.00369646 -0.0125996)
(0.00760912 0.00551806 -0.0106867)
(0.00737409 0.00476195 -0.00977775)
(0.0055638 0.00409091 -0.00846875)
(0.00284382 0.00346618 -0.00687707)
(-6.50023e-05 0.00282527 -0.00515764)
(-0.0027375 0.00215379 -0.00341906)
(-0.00504058 0.0014455 -0.00169134)
(-0.00693049 0.000670524 2.42845e-05)
(-0.00835043 -0.000208375 0.00171278)
(-0.00923132 -0.00121278 0.0033426)
(-0.00950936 -0.00233693 0.00487803)
(-0.00913135 -0.00354117 0.00628949)
(-0.00805015 -0.00474481 0.00756216)
(-0.00621824 -0.00582202 0.00870274)
(-0.00360769 -0.00661222 0.0097204)
(-0.000329974 -0.00696238 0.0105602)
(0.00315911 -0.00681584 0.0110757)
(0.00606973 -0.0062685 0.0111303)
(0.00760912 -0.00551806 0.0106867)
(0.00737409 -0.00476195 0.00977775)
(0.0055638 -0.00409091 0.00846875)
(0.00284382 -0.00346618 0.00687707)
(-6.50023e-05 -0.00282527 0.00515764)
(-0.0027375 -0.00215379 0.00341906)
(-0.00504058 -0.0014455 0.00169134)
(-0.00693049 -0.000670524 -2.42845e-05)
(-0.00835043 0.000208375 -0.00171278)
(-0.00923132 0.00121278 -0.0033426)
(-0.00950936 0.00233693 -0.00487803)
(-0.00913135 0.00354117 -0.00628949)
(-0.00805015 0.00474481 -0.00756216)
(-0.00621824 0.00582202 -0.00870274)
(-0.00360769 0.00661222 -0.0097204)
(-0.000329974 0.00696238 -0.0105602)
(0.00315911 0.00681584 -0.0110757)
(0.00606973 0.0062685 -0.0111303)
(0.00700957 0.00480503 -0.0110292)
(0.00702014 0.00480888 -0.0101244)
(0.00600225 0.00478728 -0.00873066)
(0.00423006 0.00465545 -0.00700406)
(0.00207697 0.00437439 -0.00513232)
(-0.000122087 0.00396006 -0.00324249)
(-0.00214226 0.00343068 -0.00137723)
(-0.00384076 0.0027787 0.000456109)
(-0.00511633 0.00198615 0.0022382)
(-0.00589429 0.00104882 0.00393267)
(-0.00612061 -1.18226e-05 0.00550026)
(-0.00575715 -0.0011457 0.00691006)
(-0.00478021 -0.00227378 0.00814542)
(-0.00318931 -0.00329134 0.00920734)
(-0.00104458 -0.00408626 0.0101065)
(0.00145463 -0.00458207 0.0108272)
(0.0039287 -0.00479179 0.0112959)
(0.00591263 -0.00482131 0.0113996)
(0.00700957 -0.00480503 0.0110292)
(0.00702014 -0.00480888 0.0101244)
(0.00600225 -0.00478728 0.00873066)
(0.00423006 -0.00465545 0.00700406)
(0.00207697 -0.00437439 0.00513232)
(-0.000122087 -0.00396006 0.00324249)
(-0.00214226 -0.00343068 0.00137723)
(-0.00384076 -0.0027787 -0.000456109)
(-0.00511633 -0.00198615 -0.0022382)
(-0.00589429 -0.00104882 -0.00393267)
(-0.00612061 1.18226e-05 -0.00550026)
(-0.00575715 0.0011457 -0.00691006)
(-0.00478021 0.00227378 -0.00814542)
(-0.00318931 0.00329134 -0.00920734)
(-0.00104458 0.00408626 -0.0101065)
(0.00145463 0.00458207 -0.0108272)
(0.0039287 0.00479179 -0.0112959)
(0.00591263 0.00482131 -0.0113996)
(0.00637199 0.00455087 -0.0118837)
(0.00668816 0.00532385 -0.0109047)
(0.00648842 0.00586928 -0.00929366)
(0.00566877 0.00610821 -0.00733132)
(0.00427096 0.00607392 -0.00526242)
(0.00253543 0.00583033 -0.00321977)
(0.000780285 0.00542287 -0.00123886)
(-0.000751389 0.00485861 0.000684382)
(-0.00191434 0.00413008 0.00253777)
(-0.00262514 0.00324332 0.00428599)
(-0.00283458 0.0022293 0.00588801)
(-0.00251576 0.00114363 0.007311)
(-0.00166737 6.17978e-05 0.00853741)
(-0.00033874 -0.000931687 0.00957195)
(0.00131981 -0.00177189 0.0104452)
(0.00303668 -0.0024574 0.0111917)
(0.00452809 -0.00307363 0.011798)
(0.00564536 -0.00375392 0.0121208)
(0.00637199 -0.00455087 0.0118837)
(0.00668816 -0.00532385 0.0109047)
(0.00648842 -0.00586928 0.00929366)
(0.00566877 -0.00610821 0.00733132)
(0.00427096 -0.00607392 0.00526242)
(0.00253543 -0.00583033 0.00321977)
(0.000780285 -0.00542287 0.00123886)
(-0.000751389 -0.00485861 -0.000684382)
(-0.00191434 -0.00413008 -0.00253777)
(-0.00262514 -0.00324332 -0.00428599)
(-0.00283458 -0.0022293 -0.00588801)
(-0.00251576 -0.00114363 -0.007311)
(-0.00166737 -6.17978e-05 -0.00853741)
(-0.00033874 0.000931687 -0.00957195)
(0.00131981 0.00177189 -0.0104452)
(0.00303668 0.0024574 -0.0111917)
(0.00452809 0.00307363 -0.011798)
(0.00564536 0.00375392 -0.0121208)
(0.00589794 0.00530473 -0.00959024)
(0.00582618 0.00433323 -0.0089994)
(0.00441692 0.00340719 -0.00803756)
(0.00213508 0.00250664 -0.00676557)
(-0.000440409 0.00160165 -0.00530097)
(-0.00289207 0.000692663 -0.00376539)
(-0.00504238 -0.000214363 -0.00221949)
(-0.00682643 -0.00113637 -0.000673137)
(-0.00817908 -0.00210453 0.000865299)
(-0.00901989 -0.0031391 0.00236834)
(-0.00927419 -0.00423036 0.00379609)
(-0.00888834 -0.00532809 0.0051113)
(-0.00783324 -0.00633903 0.00629504)
(-0.00610275 -0.0071347 0.00735315)
(-0.00373095 -0.00757406 0.00829347)
(-0.00087321 -0.00755276 0.00907687)
(0.00208206 -0.00707467 0.00960741)
(0.00453834 -0.00626614 0.00979211)
(0.00589794 -0.00530473 0.00959024)
(0.00582618 -0.00433323 0.0089994)
(0.00441692 -0.00340719 0.00803756)
(0.00213508 -0.00250664 0.00676557)
(-0.000440409 -0.00160165 0.00530097)
(-0.00289207 -0.000692663 0.00376539)
(-0.00504238 0.000214363 0.00221949)
(-0.00682643 0.00113637 0.000673137)
(-0.00817908 0.00210453 -0.000865299)
(-0.00901989 0.0031391 -0.00236834)
(-0.00927419 0.00423036 -0.00379609)
(-0.00888834 0.00532809 -0.0051113)
(-0.00783324 0.00633903 -0.00629504)
(-0.00610275 0.0071347 -0.00735315)
(-0.00373095 0.00757406 -0.00829347)
(-0.00087321 0.00755276 -0.00907687)
(0.00208206 0.00707467 -0.00960741)
(0.00453834 0.00626614 -0.00979211)
(0.0055718 0.00467874 -0.00997048)
(0.00564854 0.00447566 -0.00930578)
(0.00486957 0.0042206 -0.00819976)