/*--------------------------------*- C++ -*----------------------------------*\
| =========                 |                                                 |
| \\      /  F ield         | OpenFOAM: The Open Source CFD Toolbox           |
|  \\    /   O peration     | Version:  2312                                  |
|   \\  /    A nd           | Website:  www.openfoam.com                      |
|    \\/     M anipulation  |                                                 |
\*---------------------------------------------------------------------------*/
FoamFile
{
    version     2.0;
    format      ascii;
    arch        "LSB;label=32;scalar=64";
    class       volVectorField;
    location    "1";
    object      D_0_0;
}
// * * * * * * * * * * * * * * * * * * * * * * * * * * * * * * * * * * * * * //

dimensions      [0 1 0 0 0 0 0];

internalField   nonuniform List<vector> 
1620
(
(0.000877406 -5.6515e-05 -0.00239504)
(0.0012241 0.000249801 -0.00220984)
(0.00125672 0.000584797 -0.00174198)
(0.0010596 0.000806231 -0.00112346)
(0.000762504 0.000891732 -0.000513358)
(0.000449434 0.000875018 -9.40219e-06)
(0.000158163 0.00079007 0.000356721)
(-9.94012e-05 0.000664699 0.000593987)
(-0.000323691 0.000525129 0.000733737)
(-0.000519585 0.000391634 0.000818795)
(-0.000690567 0.000271677 0.000893906)
(-0.000833889 0.0001597 0.000996739)
(-0.000937027 4.75144e-05 0.00115009)
(-0.000975663 -5.57947e-05 0.00135678)
(-0.000912031 -0.000107923 0.00160169)
(-0.000693903 -5.59468e-05 0.00186219)
(-0.000274424 8.45257e-05 0.00211444)
(0.000310462 0.00017338 0.00232099)
(0.000877406 5.6515e-05 0.00239504)
(0.0012241 -0.000249801 0.00220984)
(0.00125672 -0.000584797 0.00174198)
(0.0010596 -0.000806231 0.00112346)
(0.000762504 -0.000891732 0.000513358)
(0.000449434 -0.000875018 9.40219e-06)
(0.000158163 -0.00079007 -0.000356721)
(-9.94012e-05 -0.000664699 -0.000593987)
(-0.000323691 -0.000525129 -0.000733737)
(-0.000519585 -0.000391634 -0.000818795)
(-0.000690567 -0.000271677 -0.000893906)
(-0.000833889 -0.0001597 -0.000996739)
(-0.000937027 -4.75144e-05 -0.00115009)
(-0.000975663 5.57947e-05 -0.00135678)
(-0.000912031 0.000107923 -0.00160169)
(-0.000693903 5.59468e-05 -0.00186219)
(-0.000274424 -8.45257e-05 -0.00211444)
(0.000310462 -0.00017338 -0.00232099)
(0.000383459 0.000454182 -0.00214511)
(0.000520488 0.000520481 -0.00191938)
(0.000526848 0.000653577 -0.00159849)
(0.000406196 0.000822306 -0.00120828)
(0.000195893 0.00098658 -0.000792622)
(-5.40998e-05 0.00111658 -0.000390306)
(-0.000300058 0.00119424 -2.30477e-05)
(-0.000512864 0.00121399 0.000304535)
(-0.000678239 0.00117952 0.000600428)
(-0.000791749 0.00109599 0.000879082)
(-0.000852653 0.000963641 0.00115441)
(-0.000859943 0.000777483 0.00143323)
(-0.000812123 0.000534381 0.00170982)
(-0.000710118 0.00024696 0.00196347)
(-0.000559178 -4.31451e-05 0.00216387)
(-0.00036355 -0.000271771 0.00228575)
(-0.000121186 -0.000393225 0.002321)
(0.000150094 -0.000429776 0.00227354)
(0.000383459 -0.000454182 0.00214511)
(0.000520488 -0.000520481 0.00191938)
(0.000526848 -0.000653577 0.00159849)
(0.000406196 -0.000822306 0.00120828)
(0.000195893 -0.00098658 0.000792622)
(-5.40998e-05 -0.00111658 0.000390306)
(-0.000300058 -0.00119424 2.30477e-05)
(-0.000512864 -0.00121399 -0.000304535)
(-0.000678239 -0.00117952 -0.000600428)
(-0.000791749 -0.00109599 -0.000879082)
(-0.000852653 -0.000963641 -0.00115441)
(-0.000859943 -0.000777483 -0.00143323)
(-0.000812123 -0.000534381 -0.00170982)
(-0.000710118 -0.00024696 -0.00196347)
(-0.000559178 4.31451e-05 -0.00216387)
(-0.00036355 0.000271771 -0.00228575)
(-0.000121186 0.000393225 -0.002321)
(0.000150094 0.000429776 -0.00227354)
(1.24922e-05 0.000710372 -0.00191648)
(2.4927e-05 0.000625764 -0.00168413)
(1.90741e-05 0.000635778 -0.00148028)
(-4.26616e-05 0.000795475 -0.00126591)
(-0.000188772 0.00106488 -0.00100244)
(-0.000403756 0.00136451 -0.000675362)
(-0.000641444 0.00162484 -0.000290921)
(-0.000854492 0.0018027 0.000136165)
(-0.00101088 0.00187598 0.000589559)
(-0.00109384 0.00183466 0.00105131)
(-0.00109572 0.00167591 0.00149995)
(-0.00101446 0.00140295 0.00190931)
(-0.000856046 0.00102732 0.00224847)
(-0.000641727 0.000574616 0.00248403)
(-0.000412488 9.27356e-05 0.0025881)
(-0.000217599 -0.00034278 0.00255279)
(-8.65737e-05 -0.000642346 0.00239964)
(-1.66804e-05 -0.000753008 0.0021705)
(1.24922e-05 -0.000710372 0.00191648)
(2.4927e-05 -0.000625764 0.00168413)
(1.90741e-05 -0.000635778 0.00148028)
(-4.26616e-05 -0.000795475 0.00126591)
(-0.000188772 -0.00106488 0.00100244)
(-0.000403756 -0.00136451 0.000675362)
(-0.000641444 -0.00162484 0.000290921)
(-0.000854492 -0.0018027 -0.000136165)
(-0.00101088 -0.00187598 -0.000589559)
(-0.00109384 -0.00183466 -0.00105131)
(-0.00109572 -0.00167591 -0.00149995)
(-0.00101446 -0.00140295 -0.00190931)
(-0.000856046 -0.00102732 -0.00224847)
(-0.000641727 -0.000574616 -0.00248403)
(-0.000412488 -9.27356e-05 -0.0025881)
(-0.000217599 0.00034278 -0.00255279)
(-8.65737e-05 0.000642346 -0.00239964)
(-1.66804e-05 0.000753008 -0.0021705)
(0.00270561 0.000681498 -0.00630037)
(0.00348825 0.00113474 -0.00555886)
(0.00329043 0.00166352 -0.00435257)
(0.00243662 0.0021108 -0.00296142)
(0.0013367 0.00244619 -0.00162054)
(0.000252006 0.00264687 -0.000459367)
(-0.000702507 0.00269244 0.000474725)
(-0.00149738 0.00259832 0.00119035)
(-0.00214048 0.0024081 0.00174073)
(-0.00264841 0.00215992 0.00220702)
(-0.0030295 0.00186197 0.00267433)
(-0.00327377 0.00149094 0.00320792)
(-0.00334775 0.00101463 0.00383247)
(-0.00319295 0.000437679 0.00452008)
(-0.00272681 -0.000142714 0.00520004)
(-0.0018517 -0.000531497 0.00579735)
(-0.000504707 -0.000594271 0.00625223)
(0.00118354 -0.000509852 0.00645974)
(0.00270561 -0.000681498 0.00630037)
(0.00348825 -0.00113474 0.00555886)
(0.00329043 -0.00166352 0.00435257)
(0.00243662 -0.0021108 0.00296142)
(0.0013367 -0.00244619 0.00162054)
(0.000252006 -0.00264687 0.000459367)
(-0.000702507 -0.00269244 -0.000474725)
(-0.00149738 -0.00259832 -0.00119035)
(-0.00214048 -0.0024081 -0.00174073)
(-0.00264841 -0.00215992 -0.00220702)
(-0.0030295 -0.00186197 -0.00267433)
(-0.00327377 -0.00149094 -0.00320792)
(-0.00334775 -0.00101463 -0.00383247)
(-0.00319295 -0.000437679 -0.00452008)
(-0.00272681 0.000142714 -0.00520004)
(-0.0018517 0.000531497 -0.00579735)
(-0.000504707 0.000594271 -0.00625223)
(0.00118354 0.000509852 -0.00645974)
(0.00182435 0.00144648 -0.00601581)
(0.00229254 0.00152284 -0.00537919)
(0.00222267 0.00180237 -0.00449635)
(0.00167534 0.00222415 -0.00343856)
(0.000855105 0.00268751 -0.00229708)
(-3.66762e-05 0.00307664 -0.00116333)
(-0.000862112 0.0033106 -0.000102078)
(-0.00155097 0.00336554 0.000861637)
(-0.0020786 0.00325467 0.0017374)
(-0.00244092 0.00299737 0.00255357)
(-0.0026367 0.00260131 0.00333935)
(-0.00265826 0.0020617 0.00410971)
(-0.00249054 0.00137548 0.00485394)
(-0.00211869 0.000568655 0.00552955)
(-0.00154334 -0.000268725 0.00606805)
(-0.000794166 -0.000968665 0.0064029)
(8.04847e-05 -0.00136327 0.00650856)
(0.00101285 -0.00144923 0.00638321)
(0.00182435 -0.00144648 0.00601581)
(0.00229254 -0.00152284 0.00537919)
(0.00222267 -0.00180237 0.00449635)
(0.00167534 -0.00222415 0.00343856)
(0.000855105 -0.00268751 0.00229708)
(-3.66762e-05 -0.00307664 0.00116333)
(-0.000862112 -0.0033106 0.000102078)
(-0.00155097 -0.00336554 -0.000861637)
(-0.0020786 -0.00325467 -0.0017374)
(-0.00244092 -0.00299737 -0.00255357)
(-0.0026367 -0.00260131 -0.00333935)
(-0.00265826 -0.0020617 -0.00410971)
(-0.00249054 -0.00137548 -0.00485394)
(-0.00211869 -0.000568655 -0.00552955)
(-0.00154334 0.000268725 -0.00606805)
(-0.000794166 0.000968665 -0.0064029)
(8.04847e-05 0.00136327 -0.00650856)
(0.00101285 0.00144923 -0.00638321)
(0.00106347 0.00191162 -0.00558175)
(0.00131486 0.00172695 -0.00508711)
(0.00137643 0.00182214 -0.00452032)
(0.00111752 0.00224157 -0.00377965)
(0.000556837 0.00284926 -0.00283648)
(-0.000168209 0.00344871 -0.0017419)
(-0.000900302 0.00389609 -0.000570745)
(-0.00152813 0.00412253 0.000623189)
(-0.00199232 0.0041034 0.00180634)
(-0.00226533 0.00383492 0.0029493)
(-0.00233366 0.00332673 0.00401796)
(-0.00218957 0.00260151 0.00497217)
(-0.00183424 0.00169722 0.00576705)
(-0.0012942 0.000672657 0.00635386)
(-0.000647876 -0.000378845 0.00668211)
(-3.32903e-05 -0.00130668 0.00671607)
(0.000427783 -0.00191254 0.0064799)
(0.000758358 -0.00206897 0.00607329)
(0.00106347 -0.00191162 0.00558175)
(0.00131486 -0.00172695 0.00508711)
(0.00137643 -0.00182214 0.00452032)
(0.00111752 -0.00224157 0.00377965)
(0.000556837 -0.00284926 0.00283648)
(-0.000168209 -0.00344871 0.0017419)
(-0.000900302 -0.00389609 0.000570745)
(-0.00152813 -0.00412253 -0.000623189)
(-0.00199232 -0.0041034 -0.00180634)
(-0.00226533 -0.00383492 -0.0029493)
(-0.00233366 -0.00332673 -0.00401796)
(-0.00218957 -0.00260151 -0.00497217)
(-0.00183424 -0.00169722 -0.00576705)
(-0.0012942 -0.000672657 -0.00635386)
(-0.000647876 0.000378845 -0.00668211)
(-3.32903e-05 0.00130668 -0.00671607)
(0.000427783 0.00191254 -0.0064799)
(0.000758358 0.00206897 -0.00607329)
(0.00553584 0.00242374 -0.00938969)
(0.00619057 0.00269265 -0.00824604)
(0.00515628 0.00301801 -0.00654434)
(0.0032336 0.00338357 -0.00465759)
(0.00111632 0.00375446 -0.00283701)
(-0.000815386 0.0040191 -0.00119887)
(-0.00242931 0.00409206 0.000209697)
(-0.00371363 0.00396676 0.00138993)
(-0.0046947 0.00368415 0.00239157)
(-0.00539989 0.00328049 0.00329709)
(-0.00584153 0.00275875 0.00419314)
(-0.00600925 0.00209033 0.0051411)
(-0.0058645 0.00124227 0.00615351)
(-0.00532961 0.000224842 0.00718568)
(-0.00426659 -0.00084978 0.00815445)
(-0.00248343 -0.00173847 0.00898161)
(9.40564e-05 -0.0021934 0.00959851)
(0.00307412 -0.00227039 0.00980688)
(0.00553584 -0.00242374 0.00938969)
(0.00619057 -0.00269265 0.00824604)
(0.00515628 -0.00301801 0.00654434)
(0.0032336 -0.00338357 0.00465759)
(0.00111632 -0.00375446 0.00283701)
(-0.000815386 -0.0040191 0.00119887)
(-0.00242931 -0.00409206 -0.000209697)
(-0.00371363 -0.00396676 -0.00138993)
(-0.0046947 -0.00368415 -0.00239157)
(-0.00539989 -0.00328049 -0.00329709)
(-0.00584153 -0.00275875 -0.00419314)
(-0.00600925 -0.00209033 -0.0051411)
(-0.0058645 -0.00124227 -0.00615351)
(-0.00532961 -0.000224842 -0.00718568)
(-0.00426659 0.00084978 -0.00815445)
(-0.00248343 0.00173847 -0.00898161)
(9.40564e-05 0.0021934 -0.00959851)
(0.00307412 0.00227039 -0.00980688)
(0.00429506 0.00268649 -0.00897414)
(0.00480834 0.00272698 -0.008021)
(0.0042971 0.003012 -0.00673235)
(0.00305366 0.00352671 -0.00519031)
(0.00147701 0.00412365 -0.00351915)
(-0.000104211 0.00461363 -0.00184559)
(-0.00149788 0.00487659 -0.000253158)
(-0.00262516 0.00488201 0.00122435)
(-0.00346658 0.0046472 0.0025894)
(-0.00402238 0.00419666 0.00386439)
(-0.00429162 0.00354326 0.00507397)
(-0.00426273 0.0026892 0.00622839)
(-0.00391081 0.00164217 0.00731085)
(-0.00319993 0.000443177 0.00827318)
(-0.0020922 -0.000796504 0.00904288)
(-0.000579077 -0.00186726 0.00954316)
(0.00123536 -0.00253068 0.00972296)
(0.00300828 -0.00272726 0.00955161)
(0.00429506 -0.00268649 0.00897414)
(0.00480834 -0.00272698 0.008021)
(0.0042971 -0.003012 0.00673235)
(0.00305366 -0.00352671 0.00519031)
(0.00147701 -0.00412365 0.00351915)
(-0.000104211 -0.00461363 0.00184559)
(-0.00149788 -0.00487659 0.000253158)
(-0.00262516 -0.00488201 -0.00122435)
(-0.00346658 -0.0046472 -0.0025894)
(-0.00402238 -0.00419666 -0.00386439)
(-0.00429162 -0.00354326 -0.00507397)
(-0.00426273 -0.0026892 -0.00622839)
(-0.00391081 -0.00164217 -0.00731085)
(-0.00319993 -0.000443177 -0.00827318)
(-0.0020922 0.000796504 -0.00904288)
(-0.000579077 0.00186726 -0.00954316)
(0.00123536 0.00253068 -0.00972296)
(0.00300828 0.00272726 -0.00955161)
(0.00323894 0.0028087 -0.00835988)
(0.00368196 0.00268264 -0.00767722)
(0.00364711 0.0029064 -0.00675317)
(0.0030417 0.00350989 -0.0055181)
(0.00198312 0.00429536 -0.00400667)
(0.000732161 0.00500218 -0.00233774)
(-0.000468292 0.00546719 -0.000614413)
(-0.00147573 0.00562556 0.00110713)
(-0.00222376 0.00545806 0.00278774)
(-0.00268208 0.00496941 0.00438676)
(-0.00283312 0.00418296 0.00586038)
(-0.00266172 0.00313877 0.00716336)
(-0.00215645 0.0018936 0.00824944)
(-0.00132619 0.000524594 0.00906961)
(-0.000238053 -0.000854816 0.00956741)
(0.000936995 -0.00205852 0.00968436)
(0.0019524 -0.00283539 0.00941979)
(0.00265677 -0.0030296 0.00892427)
(0.00323894 -0.0028087 0.00835988)
(0.00368196 -0.00268264 0.00767722)
(0.00364711 -0.0029064 0.00675317)
(0.0030417 -0.00350989 0.0055181)
(0.00198312 -0.00429536 0.00400667)
(0.000732161 -0.00500218 0.00233774)
(-0.000468292 -0.00546719 0.000614413)
(-0.00147573 -0.00562556 -0.00110713)
(-0.00222376 -0.00545806 -0.00278774)
(-0.00268208 -0.00496941 -0.00438676)
(-0.00283312 -0.00418296 -0.00586038)
(-0.00266172 -0.00313877 -0.00716336)
(-0.00215645 -0.0018936 -0.00824944)
(-0.00132619 -0.000524594 -0.00906961)
(-0.000238053 0.000854816 -0.00956741)
(0.000936995 0.00205852 -0.00968436)
(0.0019524 0.00283539 -0.00941979)
(0.00265677 0.0030296 -0.00892427)
(0.00812338 0.00435222 -0.0112188)
(0.00827361 0.00401328 -0.00985048)
(0.00639616 0.0039646 -0.00798096)
(0.0035574 0.00415448 -0.00592593)
(0.000644376 0.00440386 -0.00389234)
(-0.00190746 0.00455344 -0.00198304)
(-0.00399148 0.00451369 -0.000240958)
(-0.00561978 0.00426488 0.00132337)
(-0.00682313 0.00382776 0.00273197)
(-0.00762434 0.00322424 0.00403467)
(-0.00803088 0.00245455 0.00528949)
(-0.00802905 0.00149868 0.00653636)
(-0.00757537 0.000339571 0.00777601)
(-0.00657743 -0.000998674 0.00896755)
(-0.0048573 -0.00240763 0.0100534)
(-0.00215832 -0.00367104 0.010983)
(0.00155392 -0.00450603 0.0116573)
(0.00549809 -0.00469685 0.0118386)
(0.00812338 -0.00435222 0.0112188)
(0.00827361 -0.00401328 0.00985048)
(0.00639616 -0.0039646 0.00798096)
(0.0035574 -0.00415448 0.00592593)
(0.000644376 -0.00440386 0.00389234)
(-0.00190746 -0.00455344 0.00198304)
(-0.00399148 -0.00451369 0.000240958)
(-0.00561978 -0.00426488 -0.00132337)
(-0.00682313 -0.00382776 -0.00273197)
(-0.00762434 -0.00322424 -0.00403467)
(-0.00803088 -0.00245455 -0.00528949)
(-0.00802905 -0.00149868 -0.00653636)
(-0.00757537 -0.000339571 -0.00777601)
(-0.00657743 0.000998674 -0.00896755)
(-0.0048573 0.00240763 -0.0100534)
(-0.00215832 0.00367104 -0.010983)
(0.00155392 0.00450603 -0.0116573)
(0.00549809 0.00469685 -0.0118386)
(0.0067765 0.00386071 -0.0108211)
(0.00699823 0.00376668 -0.00968785)
(0.00596946 0.00399428 -0.0081475)
(0.0041151 0.00447811 -0.00630582)
(0.00193877 0.00500502 -0.00433004)
(-0.000163444 0.00538947 -0.00235621)
(-0.00198033 0.00553185 -0.000450644)
(-0.0034321 0.00540281 0.00135737)
(-0.0044974 0.00501054 0.003055)
(-0.00517215 0.00437491 0.0046428)
(-0.00545091 0.00351293 0.00612802)
(-0.00531758 0.00243752 0.00751114)
(-0.00474057 0.00116978 0.00877295)
(-0.00367165 -0.000238614 0.00987142)
(-0.0020517 -0.00167663 0.0107531)
(0.00014479 -0.00294859 0.0113658)
(0.00274793 -0.00379801 0.0116406)
(0.00520494 -0.00404803 0.0114836)
(0.0067765 -0.00386071 0.0108211)
(0.00699823 -0.00376668 0.00968785)
(0.00596946 -0.00399428 0.0081475)
(0.0041151 -0.00447811 0.00630582)
(0.00193877 -0.00500502 0.00433004)
(-0.000163444 -0.00538947 0.00235621)
(-0.00198033 -0.00553185 0.000450644)
(-0.0034321 -0.00540281 -0.00135737)
(-0.0044974 -0.00501054 -0.003055)
(-0.00517215 -0.00437491 -0.0046428)
(-0.00545091 -0.00351293 -0.00612802)
(-0.00531758 -0.00243752 -0.00751114)
(-0.00474057 -0.00116978 -0.00877295)
(-0.00367165 0.000238614 -0.00987142)
(-0.0020517 0.00167663 -0.0107531)
(0.00014479 0.00294859 -0.0113658)
(0.00274793 0.00379801 -0.0116406)
(0.00520494 0.00404803 -0.0114836)
(0.00550947 0.00367602 -0.0104699)
(0.00591101 0.00375655 -0.00957424)
(0.00571822 0.00410899 -0.00825604)
(0.00481887 0.00474096 -0.00656444)
(0.00336219 0.00545721 -0.00464571)
(0.00169323 0.00603653 -0.00264285)
(0.000119975 0.00635211 -0.000627102)
(-0.00118912 0.00635045 0.00136883)
(-0.00215878 0.00601378 0.00330508)
(-0.00275385 0.00535216 0.00513288)
(-0.0029523 0.004398 0.00680527)
(-0.0027335 0.00319982 0.00828052)
(-0.00207805 0.0018203 0.00951895)
(-0.000985293 0.000339787 0.0104799)
(0.000478573 -0.00113063 0.0111217)
(0.00211047 -0.0024175 0.0114099)
(0.0036003 -0.00329754 0.0113517)
(0.00473332 -0.00365947 0.0110186)
(0.00550947 -0.00367602 0.0104699)
(0.00591101 -0.00375655 0.00957424)
(0.00571822 -0.00410899 0.00825604)
(0.00481887 -0.00474096 0.00656444)
(0.00336219 -0.00545721 0.00464571)
(0.00169323 -0.00603653 0.00264285)
(0.000119975 -0.00635211 0.000627102)
(-0.00118912 -0.00635045 -0.00136883)
(-0.00215878 -0.00601378 -0.00330508)
(-0.00275385 -0.00535216 -0.00513288)
(-0.0029523 -0.004398 -0.00680527)
(-0.0027335 -0.00319982 -0.00828052)
(-0.00207805 -0.0018203 -0.00951895)
(-0.000985293 -0.000339787 -0.0104799)
(0.000478573 0.00113063 -0.0111217)
(0.00211047 0.0024175 -0.0114099)
(0.0036003 0.00329754 -0.0113517)
(0.00473332 0.00365947 -0.0110186)
(0.00905022 0.0054788 -0.0117417)
(0.00893217 0.00489159 -0.0103898)
(0.00678842 0.00456757 -0.00859687)
(0.00361837 0.00447047 -0.00658857)
(0.00038427 0.00442051 -0.00455114)
(-0.00244985 0.00430093 -0.00257323)
(-0.0047839 0.00404392 -0.000684513)
(-0.00662174 0.00361178 0.00109869)
(-0.00797001 0.00299437 0.00276833)
(-0.00882627 0.00219449 0.00433164)
(-0.00917921 0.00121332 0.00580712)
(-0.0090026 4.94805e-05 0.00720848)
(-0.00824307 -0.00128396 0.00853059)
(-0.00679837 -0.00272845 0.00975398)
(-0.00449205 -0.00414766 0.010865)
(-0.00114651 -0.00531951 0.011826)
(0.002993 -0.00598489 0.0124548)
(0.00684079 -0.00598999 0.012467)
(0.00905022 -0.0054788 0.0117417)
(0.00893217 -0.00489159 0.0103898)
(0.00678842 -0.00456757 0.00859687)
(0.00361837 -0.00447047 0.00658857)
(0.00038427 -0.00442051 0.00455114)
(-0.00244985 -0.00430093 0.00257323)
(-0.0047839 -0.00404392 0.000684513)
(-0.00662174 -0.00361178 -0.00109869)
(-0.00797001 -0.00299437 -0.00276833)
(-0.00882627 -0.00219449 -0.00433164)
(-0.00917921 -0.00121332 -0.00580712)
(-0.0090026 -4.94805e-05 -0.00720848)
(-0.00824307 0.00128396 -0.00853059)
(-0.00679837 0.00272845 -0.00975398)
(-0.00449205 0.00414766 -0.010865)
(-0.00114651 0.00531951 -0.011826)
(0.002993 0.00598489 -0.0124548)
(0.00684079 0.00598999 -0.012467)
(0.00786613 0.00469432 -0.0116478)
(0.00797931 0.00464729 -0.0104638)
(0.0067823 0.00479159 -0.00880188)
(0.00469158 0.00507389 -0.00683328)
(0.00225809 0.00533425 -0.00475662)
(-9.46009e-05 0.00545723 -0.0026898)
(-0.00214464 0.00537932 -0.000669803)
(-0.00379558 0.00506682 0.0012838)
(-0.00500465 0.00451023 0.00314502)
(-0.00574915 0.00371929 0.00489052)
(-0.00601064 0.0027143 0.00650583)
(-0.00576507 0.00152215 0.00797931)
(-0.00497638 0.000183663 0.00929242)
(-0.00359511 -0.00122906 0.0104187)
(-0.00157445 -0.00259442 0.011335)
(0.00104251 -0.00373746 0.0120122)
(0.00392059 -0.00447367 0.0123658)
(0.00640393 -0.00473639 0.0122741)
(0.00786613 -0.00469432 0.0116478)
(0.00797931 -0.00464729 0.0104638)
(0.0067823 -0.00479159 0.00880188)
(0.00469158 -0.00507389 0.00683328)
(0.00225809 -0.00533425 0.00475662)
(-9.46009e-05 -0.00545723 0.0026898)
(-0.00214464 -0.00537932 0.000669803)
(-0.00379558 -0.00506682 -0.0012838)
(-0.00500465 -0.00451023 -0.00314502)
(-0.00574915 -0.00371929 -0.00489052)
(-0.00601064 -0.0027143 -0.00650583)
(-0.00576507 -0.00152215 -0.00797931)
(-0.00497638 -0.000183663 -0.00929242)
(-0.00359511 0.00122906 -0.0104187)
(-0.00157445 0.00259442 -0.011335)
(0.00104251 0.00373746 -0.0120122)
(0.00392059 0.00447367 -0.0123658)
(0.00640393 0.00473639 -0.0122741)
(0.00676563 0.00431174 -0.0118196)
(0.00715675 0.00475783 -0.0107411)
(0.00689915 0.0052388 -0.00908852)
(0.00587782 0.00575461 -0.00708408)
(0.00424044 0.00621666 -0.00495058)
(0.00235466 0.00651622 -0.00281403)
(0.000564598 0.00658382 -0.000703553)
(-0.000932644 0.00637761 0.00137363)
(-0.00204286 0.00587786 0.00338371)
(-0.00271875 0.00509375 0.00527608)
(-0.00293086 0.00406037 0.00700263)
(-0.00265526 0.00283102 0.00852434)
(-0.00187335 0.00147433 0.00980849)
(-0.000590915 7.73555e-05 0.0108282)
(0.00110534 -0.00125254 0.0115725)
(0.00296659 -0.00239285 0.0120538)
(0.00464086 -0.00324971 0.0122978)
(0.00591336 -0.00384487 0.0122766)
(0.00676563 -0.00431174 0.0118196)
(0.00715675 -0.00475783 0.0107411)
(0.00689915 -0.0052388 0.00908852)
(0.00587782 -0.00575461 0.00708408)
(0.00424044 -0.00621666 0.00495058)
(0.00235466 -0.00651622 0.00281403)
(0.000564598 -0.00658382 0.000703553)
(-0.000932644 -0.00637761 -0.00137363)
(-0.00204286 -0.00587786 -0.00338371)
(-0.00271875 -0.00509375 -0.00527608)
(-0.00293086 -0.00406037 -0.00700263)
(-0.00265526 -0.00283102 -0.00852434)
(-0.00187335 -0.00147433 -0.00980849)
(-0.000590915 -7.73555e-05 -0.0108282)
(0.00110534 0.00125254 -0.0115725)
(0.00296659 0.00239285 -0.0120538)
(0.00464086 0.00324971 -0.0122978)
(0.00591336 0.00384487 -0.0122766)
(0.00879129 0.00578938 -0.0114357)
(0.00850781 0.00513582 -0.0102368)
(0.00641816 0.00463631 -0.00862704)
(0.00337003 0.00425415 -0.00677672)
(0.000213705 0.00387705 -0.00485619)
(-0.00261115 0.00345221 -0.00295339)
(-0.00499318 0.00294596 -0.00108822)
(-0.00690856 0.00231773 0.000729717)
(-0.00832636 0.00153598 0.00248027)
(-0.0092076 0.000587575 0.00414108)
(-0.00951321 -0.000523791 0.00569622)
(-0.00920087 -0.00177656 0.00713473)
(-0.00821375 -0.00311935 0.00844788)
(-0.00646526 -0.00445163 0.00963638)
(-0.00384328 -0.00561363 0.0107076)
(-0.000340945 -0.00640658 0.0116056)
(0.00359993 -0.006671 0.0121367)
(0.00698853 -0.00640122 0.0120959)
(0.00879129 -0.00578938 0.0114357)
(0.00850781 -0.00513582 0.0102368)
(0.00641816 -0.00463631 0.00862704)
(0.00337003 -0.00425415 0.00677672)
(0.000213705 -0.00387705 0.00485619)
(-0.00261115 -0.00345221 0.00295339)
(-0.00499318 -0.00294596 0.00108822)
(-0.00690856 -0.00231773 -0.000729717)
(-0.00832636 -0.00153598 -0.00248027)
(-0.0092076 -0.000587575 -0.00414108)
(-0.00951321 0.000523791 -0.00569622)
(-0.00920087 0.00177656 -0.00713473)
(-0.00821375 0.00311935 -0.00844788)
(-0.00646526 0.00445163 -0.00963638)
(-0.00384328 0.00561363 -0.0107076)
(-0.000340945 0.00640658 -0.0116056)
(0.00359993 0.006671 -0.0121367)
(0.00698853 0.00640122 -0.0120959)
(0.00790073 0.00498693 -0.0116159)
(0.00790376 0.00502618 -0.0105045)
(0.00672073 0.00511094 -0.00889212)
(0.00470792 0.0051707 -0.00696617)
(0.00233311 0.00512754 -0.00493155)
(-1.79159e-05 0.00495066 -0.00290406)
(-0.00211764 0.00462165 -0.00091205)
(-0.00384232 0.00411452 0.00103488)
(-0.00511695 0.00340962 0.00291009)
(-0.00589164 0.00250732 0.00467754)
(-0.00612959 0.0014293 0.00630577)
(-0.00579816 0.000216491 0.00777168)
(-0.00486353 -0.00106757 0.00905828)
(-0.00329426 -0.00232843 0.0101564)
(-0.00109435 -0.00344146 0.0110662)
(0.00159241 -0.00427799 0.0117666)
(0.0043615 -0.00476637 0.0121715)
(0.00663457 -0.00495166 0.0121566)
(0.00790073 -0.00498693 0.0116159)
(0.00790376 -0.00502618 0.0105045)
(0.00672073 -0.00511094 0.00889212)
(0.00470792 -0.0051707 0.00696617)
(0.00233311 -0.00512754 0.00493155)
(-1.79159e-05 -0.00495066 0.00290406)
(-0.00211764 -0.00462165 0.00091205)
(-0.00384232 -0.00411452 -0.00103488)
(-0.00511695 -0.00340962 -0.00291009)
(-0.00589164 -0.00250732 -0.00467754)
(-0.00612959 -0.0014293 -0.00630577)
(-0.00579816 -0.000216491 -0.00777168)
(-0.00486353 0.00106757 -0.00905828)
(-0.00329426 0.00232843 -0.0101564)
(-0.00109435 0.00344146 -0.0110662)
(0.00159241 0.00427799 -0.0117666)
(0.0043615 0.00476637 -0.0121715)
(0.00663457 0.00495166 -0.0121566)
(0.00703721 0.00462341 -0.012199)
(0.00737848 0.00533303 -0.0110912)
(0.00710987 0.00589444 -0.00934817)
(0.00612903 0.00626342 -0.0072614)
(0.00453421 0.00644263 -0.00508425)
(0.00264416 0.00643499 -0.00294201)
(0.000804839 0.00623486 -0.000854823)
(-0.000758959 0.00582173 0.00118345)
(-0.00192732 0.00517877 0.00315051)
(-0.00263543 0.00431257 0.00500143)
(-0.00284416 0.00325686 0.00668997)
(-0.00252756 0.00206769 0.00817944)
(-0.00167418 0.000819596 0.00944486)
(-0.000309791 -0.000397126 0.0104774)
(0.00144371 -0.00149199 0.0112948)
(0.0033115 -0.00241038 0.0119315)
(0.00496468 -0.00317436 0.0123931)
(0.00621808 -0.00388428 0.0125691)
(0.00703721 -0.00462341 0.012199)
(0.00737848 -0.00533303 0.0110912)
(0.00710987 -0.00589444 0.00934817)
(0.00612903 -0.00626342 0.0072614)
(0.00453421 -0.00644263 0.00508425)
(0.00264416 -0.00643499 0.00294201)
(0.000804839 -0.00623486 0.000854823)
(-0.000758959 -0.00582173 -0.00118345)
(-0.00192732 -0.00517877 -0.00315051)
(-0.00263543 -0.00431257 -0.00500143)
(-0.00284416 -0.00325686 -0.00668997)
(-0.00252756 -0.00206769 -0.00817944)
(-0.00167418 -0.000819596 -0.00944486)
(-0.000309791 0.000397126 -0.0104774)
(0.00144371 0.00149199 -0.0112948)
(0.0033115 0.00241038 -0.0119315)
(0.00496468 0.00317436 -0.0123931)
(0.00621808 0.00388428 -0.0125691)
(0.00769099 0.0056728 -0.0106437)
(0.00742673 0.00490124 -0.00970082)
(0.00560114 0.00420745 -0.00836104)
(0.00287948 0.00355607 -0.00674408)
(-2.41621e-05 0.00288778 -0.00500549)
(-0.00268975 0.00218881 -0.00325319)
(-0.00498507 0.00145237 -0.00151676)
(-0.006866 0.000648412 0.000202447)
(-0.00827588 -0.000259773 0.00188922)
(-0.0091461 -0.00129273 0.00351202)
(-0.0094134 -0.00244332 0.00503538)
(-0.00902493 -0.00367029 0.00643047)
(-0.00793337 -0.0048915 0.00768391)
(-0.00609033 -0.00598019 0.00880407)
(-0.00346794 -0.00677589 0.00980029)
(-0.000183062 -0.00712739 0.0106153)
(0.00329892 -0.00698058 0.0111008)
(0.00618521 -0.00643088 0.0111219)
(0.00769099 -0.0056728 0.0106437)
(0.00742673 -0.00490124 0.00970082)
(0.00560114 -0.00420745 0.00836104)
(0.00287948 -0.00355607 0.00674408)
(-2.41621e-05 -0.00288778 0.00500549)
(-0.00268975 -0.00218881 0.00325319)
(-0.00498507 -0.00145237 0.00151676)
(-0.006866 -0.000648412 -0.000202447)
(-0.00827588 0.000259773 -0.00188922)
(-0.0091461 0.00129273 -0.00351202)
(-0.0094134 0.00244332 -0.00503538)
(-0.00902493 0.00367029 -0.00643047)
(-0.00793337 0.0048915 -0.00768391)
(-0.00609033 0.00598019 -0.00880407)
(-0.00346794 0.00677589 -0.00980029)
(-0.000183062 0.00712739 -0.0106153)
(0.00329892 0.00698058 -0.0111008)
(0.00618521 0.00643088 -0.0111219)
(0.00708254 0.00496766 -0.0109763)
(0.00707543 0.0049496 -0.0100377)
(0.00604609 0.0048993 -0.00861625)
(0.00426987 0.00473714 -0.00686919)
(0.00211859 0.00442687 -0.00498307)
(-7.51552e-05 0.00398445 -0.00308344)
(-0.00208801 0.00342722 -0.00121249)
(-0.00377794 0.00274726 0.000622113)
(-0.00504425 0.00192701 0.00240076)
(-0.00581271 0.000963108 0.00408717)
(-0.00602965 -0.00012189 0.00564246)
(-0.00565726 -0.0012768 0.00703643)
(-0.00467208 -0.00242167 0.00825352)
(-0.00307406 -0.00345149 0.00929597)
(-0.000924847 -0.00425469 0.0101746)
(0.00157304 -0.00475603 0.010872)
(0.00403778 -0.00496857 0.0113123)
(0.0060053 -0.00499554 0.0113826)
(0.00708254 -0.00496766 0.0109763)
(0.00707543 -0.0049496 0.0100377)
(0.00604609 -0.0048993 0.00861625)
(0.00426987 -0.00473714 0.00686919)
(0.00211859 -0.00442687 0.00498307)
(-7.51553e-05 -0.00398445 0.00308344)
(-0.00208801 -0.00342722 0.00121249)
(-0.00377794 -0.00274726 -0.000622113)
(-0.00504425 -0.00192701 -0.00240076)
(-0.00581271 -0.000963108 -0.00408717)
(-0.00602965 0.00012189 -0.00564246)
(-0.00565726 0.0012768 -0.00703643)
(-0.00467208 0.00242167 -0.00825352)
(-0.00307406 0.00345149 -0.00929597)
(-0.000924847 0.00425469 -0.0101746)
(0.00157304 0.00475603 -0.010872)
(0.00403778 0.00496857 -0.0113123)
(0.0060053 0.00499554 -0.0113826)
(0.00643689 0.00471896 -0.0118177)
(0.00674594 0.00546135 -0.0108025)
(0.00653768 0.00597125 -0.00916788)
(0.00571141 0.00617698 -0.00719193)
(0.0043121 0.00611305 -0.0051148)
(0.00258039 0.00584206 -0.00306673)
(0.000832207 0.00540801 -0.00108298)
(-0.000691193 0.00481748 0.000839635)
(-0.00184546 0.00406331 0.00268838)
(-0.00254759 0.00315225 0.00442794)
(-0.00274867 0.00211614 0.00601771)
(-0.00242217 0.00101133 0.00742554)
(-0.0015676 -8.6113e-05 0.00863483)
(-0.00023609 -0.00109187 0.00965139)
(0.00141942 -0.00194207 0.0105061)
(0.00312701 -0.00263639 0.0112318)
(0.00460734 -0.00325905 0.0118111)
(0.00571629 -0.00393814 0.0120971)
(0.00643689 -0.00471896 0.0118177)
(0.00674594 -0.00546135 0.0108025)
(0.00653768 -0.00597125 0.00916788)
(0.00571141 -0.00617698 0.00719193)
(0.0043121 -0.00611305 0.0051148)
(0.00258039 -0.00584206 0.00306673)
(0.000832207 -0.00540801 0.00108298)
(-0.000691193 -0.00481748 -0.000839635)
(-0.00184546 -0.00406331 -0.00268838)
(-0.00254759 -0.00315225 -0.00442794)
(-0.00274867 -0.00211614 -0.00601771)
(-0.00242217 -0.00101133 -0.00742554)
(-0.0015676 8.6113e-05 -0.00863483)
(-0.00023609 0.00109187 -0.00965139)
(0.00141942 0.00194207 -0.0105061)
(0.00312701 0.00263639 -0.0112318)
(0.00460734 0.00325905 -0.0118111)
(0.00571629 0.00393814 -0.0120971)
(0.00598547 0.0054403 -0.00955599)
(0.00588548 0.0044547 -0.0089321)
(0.00445897 0.00350868 -0.00793967)
(0.00217234 0.00258523 -0.00664177)
(-0.000399782 0.00165679 -0.00515729)
(-0.00284489 0.00072416 -0.00360748)
(-0.00498729 -0.000207348 -0.00205211)
(-0.0067619 -0.00115501 -0.000500931)
(-0.00810361 -0.00214954 0.00103731)
(-0.00893256 -0.00321008 0.00253488)
(-0.00917484 -0.00432535 0.00395205)
(-0.00877741 -0.00544347 0.00525246)
(-0.00771119 -0.00646977 0.00641872)
(-0.00596951 -0.00727508 0.00745805)
(-0.00358722 -0.00771873 0.00837795)
(-0.000724648 -0.0076983 0.00913723)
(0.00222274 -0.0072198 0.0096389)
(0.00465658 -0.00640893 0.00979137)
(0.00598547 -0.0054403 0.00955599)
(0.00588548 -0.0044547 0.0089321)
(0.00445897 -0.00350868 0.00793967)
(0.00217234 -0.00258523 0.00664177)
(-0.000399782 -0.00165679 0.00515729)
(-0.00284489 -0.00072416 0.00360748)
(-0.00498729 0.000207348 0.00205211)
(-0.0067619 0.00115501 0.000500931)
(-0.00810361 0.00214954 -0.00103731)
(-0.00893256 0.00321008 -0.00253488)
(-0.00917484 0.00432535 -0.00395205)
(-0.00877741 0.00544347 -0.00525246)
(-0.00771119 0.00646977 -0.00641872)
(-0.00596951 0.00727508 -0.00745805)
(-0.00358722 0.00771873 -0.00837795)
(-0.000724648 0.0076983 -0.00913723)
(0.00222274 0.0072198 -0.0096389)
(0.00465658 0.00640893 -0.00979137)
(0.00565129 0.00482407 -0.00992529)
(0.00571056 0.00460047 -0.00922773)
(0.00491862 0.00431918 -0.00809419)