/*--------------------------------*- C++ -*----------------------------------*\
| =========                 |                                                 |
| \\      /  F ield         | OpenFOAM: The Open Source CFD Toolbox           |
|  \\    /   O peration     | Version:  2312                                  |
|   \\  /    A nd           | Website:  www.openfoam.com                      |
|    \\/     M anipulation  |                                                 |
\*---------------------------------------------------------------------------*/
FoamFile
{
    version     2.0;
    format      ascii;
    arch        "LSB;label=32;scalar=64";
    class       volTensorField;
    location    "1";
    object      F;
}
// * * * * * * * * * * * * * * * * * * * * * * * * * * * * * * * * * * * * * //

dimensions      [0 0 0 0 0 0 0];

internalField   nonuniform List<tensor> 
1620
(
(0.820576 0.0946357 -0.13455 -0.0716874 1.02407 0.153471 0.410034 0.00172557 1.07188)
(0.776453 0.087028 -0.188297 -0.0841699 1.03484 0.0935202 0.352592 0.032803 1.09552)
(0.799513 0.077742 -0.198005 -0.103028 1.03744 0.0416918 0.278658 0.0693411 1.07723)
(0.866283 0.0736967 -0.180365 -0.128411 1.0213 0.0220726 0.202364 0.104115 1.04076)
(0.948907 0.0782273 -0.154671 -0.158849 0.986669 0.0261229 0.12984 0.128694 1.01099)
(1.02912 0.0886761 -0.128082 -0.186925 0.939205 0.0347358 0.0633342 0.136657 0.998498)
(1.09848 0.0993101 -0.100786 -0.205854 0.887486 0.0342687 0.00425801 0.124343 1.00097)
(1.15465 0.104045 -0.0728546 -0.213797 0.841379 0.0200827 -0.0471466 0.0913899 1.01001)
(1.19809 0.0985372 -0.046655 -0.2123 0.809898 -0.00596913 -0.0927935 0.0414508 1.01635)
(1.22987 0.0810995 -0.0261347 -0.203072 0.799376 -0.0384253 -0.136225 -0.0179988 1.01284)
(1.25047 0.0526539 -0.0153616 -0.186125 0.812334 -0.0698451 -0.181166 -0.0769301 0.996185)
(1.25925 0.0165002 -0.0171756 -0.159613 0.846779 -0.091672 -0.230028 -0.124661 0.967836)
(1.25425 -0.0218613 -0.0315881 -0.121045 0.895752 -0.0948511 -0.282605 -0.15204 0.93401)
(1.23237 -0.0555855 -0.0535003 -0.0698509 0.947538 -0.071002 -0.335354 -0.153921 0.904938)
(1.18955 -0.0792508 -0.0706112 -0.0115107 0.988486 -0.0160744 -0.382174 -0.131872 0.892871)
(1.12175 -0.0924582 -0.065024 0.0390254 1.00999 0.062275 -0.417367 -0.0951406 0.907797)
(1.02767 -0.098601 -0.0226683 0.0646687 1.01544 0.138222 -0.437327 -0.0569691 0.951573)
(0.916632 -0.0988666 0.0529953 0.0671703 1.01714 0.175233 -0.435632 -0.0256278 1.01427)
(0.820576 -0.0946357 0.13455 0.0716874 1.02407 0.153471 -0.410034 0.00172557 1.07188)
(0.776453 -0.087028 0.188297 0.0841699 1.03484 0.0935202 -0.352592 0.032803 1.09552)
(0.799513 -0.077742 0.198005 0.103028 1.03744 0.0416918 -0.278658 0.0693411 1.07723)
(0.866283 -0.0736967 0.180365 0.128411 1.0213 0.0220726 -0.202364 0.104115 1.04076)
(0.948907 -0.0782273 0.154671 0.158849 0.986669 0.0261229 -0.12984 0.128694 1.01099)
(1.02912 -0.0886761 0.128082 0.186925 0.939205 0.0347358 -0.0633342 0.136657 0.998498)
(1.09848 -0.0993101 0.100786 0.205854 0.887486 0.0342687 -0.00425801 0.124343 1.00097)
(1.15465 -0.104045 0.0728546 0.213797 0.841379 0.0200827 0.0471466 0.0913899 1.01001)
(1.19809 -0.0985372 0.046655 0.2123 0.809898 -0.00596913 0.0927935 0.0414508 1.01635)
(1.22987 -0.0810995 0.0261347 0.203072 0.799376 -0.0384253 0.136225 -0.0179988 1.01284)
(1.25047 -0.0526539 0.0153616 0.186125 0.812334 -0.0698451 0.181166 -0.0769301 0.996185)
(1.25925 -0.0165002 0.0171756 0.159613 0.846779 -0.091672 0.230028 -0.124661 0.967836)
(1.25425 0.0218613 0.0315881 0.121045 0.895752 -0.0948511 0.282605 -0.15204 0.93401)
(1.23237 0.0555855 0.0535003 0.0698509 0.947538 -0.071002 0.335354 -0.153921 0.904938)
(1.18955 0.0792508 0.0706112 0.0115107 0.988486 -0.0160744 0.382174 -0.131872 0.892871)
(1.12175 0.0924582 0.065024 -0.0390254 1.00999 0.062275 0.417367 -0.0951406 0.907797)
(1.02767 0.098601 0.0226683 -0.0646687 1.01544 0.138222 0.437327 -0.0569691 0.951573)
(0.916632 0.0988666 -0.0529953 -0.0671703 1.01714 0.175233 0.435632 -0.0256278 1.01427)
(0.859064 0.0482701 -0.120403 -0.097921 0.999316 0.114613 0.4074 0.0276623 1.06925)
(0.825824 0.0596375 -0.163992 -0.0967364 1.00498 0.0618887 0.365675 0.0319505 1.08516)
(0.833128 0.0667009 -0.168062 -0.111179 1.02429 0.0236044 0.310343 0.0478806 1.06198)
(0.876321 0.0660681 -0.150957 -0.139598 1.02865 0.0215642 0.244703 0.0781555 1.02685)
(0.939128 0.0664995 -0.131213 -0.175169 1.00391 0.041769 0.172124 0.109154 1.00537)
(1.006 0.0741226 -0.112508 -0.207579 0.954777 0.060489 0.0972696 0.125104 1.00574)
(1.0668 0.0864652 -0.0912 -0.229209 0.895288 0.0624773 0.0244888 0.116703 1.02204)
(1.11682 0.0962904 -0.0652646 -0.237562 0.840743 0.0436017 -0.0438848 0.0824387 1.04259)
(1.15469 0.0968413 -0.0367799 -0.233293 0.803939 0.00744879 -0.107637 0.0275603 1.05572)
(1.18029 0.0843524 -0.0104598 -0.217687 0.79322 -0.0378212 -0.167728 -0.0374364 1.05309)
(1.19349 0.0584118 0.00819589 -0.191451 0.811195 -0.0817562 -0.225205 -0.0991358 1.03186)
(1.19364 0.0219894 0.0142386 -0.154664 0.854349 -0.113605 -0.280399 -0.144215 0.995443)
(1.17946 -0.0182345 0.00496974 -0.107452 0.913628 -0.123809 -0.332363 -0.162531 0.952818)
(1.14962 -0.0522928 -0.0170539 -0.0512562 0.975751 -0.104968 -0.378539 -0.150028 0.916715)
(1.10412 -0.070364 -0.0405101 0.00895867 1.02539 -0.0539374 -0.414801 -0.111225 0.900658)
(1.04631 -0.0694938 -0.0457646 0.0622124 1.04912 0.0220459 -0.436801 -0.0594254 0.914156)
(0.982047 -0.0572106 -0.0152167 0.0946185 1.04268 0.0974675 -0.442921 -0.0120952 0.957063)
(0.916301 -0.0465232 0.0496109 0.101637 1.01798 0.134659 -0.433199 0.0173507 1.01707)
(0.859064 -0.0482701 0.120403 0.097921 0.999316 0.114613 -0.4074 0.0276623 1.06925)
(0.825824 -0.0596375 0.163992 0.0967364 1.00498 0.0618887 -0.365675 0.0319505 1.08516)
(0.833128 -0.0667009 0.168062 0.111179 1.02429 0.0236044 -0.310343 0.0478806 1.06198)
(0.876321 -0.0660681 0.150957 0.139598 1.02865 0.0215642 -0.244703 0.0781555 1.02685)
(0.939128 -0.0664995 0.131213 0.175169 1.00391 0.041769 -0.172124 0.109154 1.00537)
(1.006 -0.0741226 0.112508 0.207579 0.954777 0.060489 -0.0972696 0.125104 1.00574)
(1.0668 -0.0864652 0.0912 0.229209 0.895288 0.0624773 -0.0244888 0.116703 1.02204)
(1.11682 -0.0962904 0.0652646 0.237562 0.840743 0.0436017 0.0438848 0.0824387 1.04259)
(1.15469 -0.0968413 0.0367799 0.233293 0.803939 0.00744879 0.107637 0.0275603 1.05572)
(1.18029 -0.0843524 0.0104598 0.217687 0.79322 -0.0378212 0.167728 -0.0374364 1.05309)
(1.19349 -0.0584118 -0.00819589 0.191451 0.811195 -0.0817562 0.225205 -0.0991358 1.03186)
(1.19364 -0.0219894 -0.0142386 0.154664 0.854349 -0.113605 0.280399 -0.144215 0.995443)
(1.17946 0.0182345 -0.00496974 0.107452 0.913628 -0.123809 0.332363 -0.162531 0.952818)
(1.14962 0.0522928 0.0170539 0.0512562 0.975751 -0.104968 0.378539 -0.150028 0.916715)
(1.10412 0.070364 0.0405101 -0.00895867 1.02539 -0.0539374 0.414801 -0.111225 0.900658)
(1.04631 0.0694938 0.0457646 -0.0622124 1.04912 0.0220459 0.436801 -0.0594254 0.914156)
(0.982047 0.0572106 0.0152167 -0.0946185 1.04268 0.0974675 0.442921 -0.0120952 0.957063)
(0.916301 0.0465232 -0.0496109 -0.101637 1.01798 0.134659 0.433199 0.0173507 1.01707)
(0.897686 0.0141244 -0.103839 -0.119297 0.980155 0.0730489 0.387374 0.0479652 1.06622)
(0.873822 0.0375195 -0.135957 -0.107369 0.984312 0.0311722 0.361706 0.029628 1.07419)
(0.866386 0.0550145 -0.135418 -0.116008 1.01933 0.00894908 0.327216 0.0283319 1.04771)
(0.88601 0.0555873 -0.120153 -0.145379 1.04415 0.0266408 0.275915 0.0539746 1.01513)
(0.928729 0.0503356 -0.108239 -0.185129 1.03021 0.0656969 0.207507 0.0906601 1.00291)
(0.982091 0.0536036 -0.100423 -0.221873 0.978998 0.0964415 0.128198 0.11468 1.01795)
(1.03426 0.0673913 -0.0881795 -0.24683 0.909722 0.100603 0.0450657 0.110309 1.0506)
(1.07822 0.0835564 -0.0661905 -0.256656 0.84435 0.074306 -0.0376115 0.0740944 1.08464)
(1.11084 0.0922609 -0.0357953 -0.250644 0.800774 0.0236417 -0.117635 0.0130769 1.10465)
(1.1308 0.0868517 -0.00257249 -0.229171 0.789981 -0.0390665 -0.193244 -0.0582369 1.10054)
(1.13738 0.0649669 0.026206 -0.193481 0.814323 -0.0987736 -0.262472 -0.121895 1.07037)
(1.12994 0.028891 0.0430099 -0.145754 0.867599 -0.141596 -0.323247 -0.161372 1.021)
(1.10803 -0.0135726 0.0418683 -0.0890315 0.93728 -0.157673 -0.373655 -0.166188 0.966164)
(1.07238 -0.0491362 0.0221955 -0.0270356 1.00769 -0.141824 -0.411892 -0.135366 0.922576)
(1.02728 -0.0634957 -0.00607504 0.0354009 1.06202 -0.0933284 -0.43566 -0.0789267 0.904995)
(0.982685 -0.0515359 -0.021809 0.0903059 1.08356 -0.0199337 -0.442276 -0.0157668 0.920645)
(0.949049 -0.0251565 -0.00408986 0.125532 1.06354 0.0534274 -0.432331 0.0335452 0.964815)
(0.924171 -0.00749384 0.0472885 0.131867 1.0166 0.08974 -0.412515 0.0552196 1.02139)
(0.897686 -0.0141244 0.103839 0.119297 0.980155 0.0730489 -0.387374 0.0479652 1.06622)
(0.873822 -0.0375195 0.135957 0.107369 0.984312 0.0311722 -0.361706 0.029628 1.07419)
(0.866386 -0.0550145 0.135418 0.116008 1.01933 0.00894908 -0.327216 0.0283319 1.04771)
(0.88601 -0.0555873 0.120153 0.145379 1.04415 0.0266408 -0.275915 0.0539746 1.01513)
(0.928729 -0.0503356 0.108239 0.185129 1.03021 0.0656969 -0.207507 0.0906601 1.00291)
(0.982091 -0.0536036 0.100423 0.221873 0.978998 0.0964415 -0.128198 0.11468 1.01795)
(1.03426 -0.0673913 0.0881795 0.24683 0.909722 0.100603 -0.0450657 0.110309 1.0506)
(1.07822 -0.0835564 0.0661905 0.256656 0.84435 0.074306 0.0376115 0.0740944 1.08464)
(1.11084 -0.0922609 0.0357953 0.250644 0.800774 0.0236417 0.117635 0.0130769 1.10465)
(1.1308 -0.0868517 0.00257249 0.229171 0.789981 -0.0390665 0.193244 -0.0582369 1.10054)
(1.13738 -0.0649669 -0.026206 0.193481 0.814323 -0.0987736 0.262472 -0.121895 1.07037)
(1.12994 -0.028891 -0.0430099 0.145754 0.867599 -0.141596 0.323247 -0.161372 1.021)
(1.10803 0.0135726 -0.0418683 0.0890315 0.93728 -0.157673 0.373655 -0.166188 0.966164)
(1.07238 0.0491362 -0.0221955 0.0270356 1.00769 -0.141824 0.411892 -0.135366 0.922576)
(1.02728 0.0634957 0.00607504 -0.0354009 1.06202 -0.0933284 0.43566 -0.0789267 0.904995)
(0.982685 0.0515359 0.021809 -0.0903059 1.08356 -0.0199337 0.442276 -0.0157668 0.920645)
(0.949049 0.0251565 0.00408986 -0.125532 1.06354 0.0534274 0.432331 0.0335452 0.964815)
(0.924171 0.00749384 -0.0472885 -0.131867 1.0166 0.08974 0.412515 0.0552196 1.02139)
(0.768207 0.227108 -0.23398 -0.126618 1.03518 0.23245 0.367327 0.0665703 1.08918)
(0.754086 0.143787 -0.321839 -0.12143 1.05506 0.138495 0.31992 0.147746 1.09331)
(0.80804 0.0512475 -0.320109 -0.119628 1.06314 0.0803761 0.260137 0.222202 1.05518)
(0.895181 -0.0110757 -0.279859 -0.128925 1.04105 0.0740189 0.19853 0.275575 1.01987)
(0.9879 -0.0350632 -0.235727 -0.147622 0.988116 0.0896148 0.138343 0.295119 1.01248)
(1.07111 -0.0327596 -0.196604 -0.166759 0.914873 0.0949957 0.0800063 0.27465 1.03031)
(1.1395 -0.0216155 -0.1608 -0.179283 0.839924 0.0770909 0.0244388 0.215132 1.05836)
(1.19259 -0.0159578 -0.127735 -0.182959 0.781964 0.0385273 -0.027596 0.12303 1.08166)
(1.23137 -0.0242856 -0.100369 -0.178246 0.754453 -0.01182 -0.0765467 0.0102454 1.08891)
(1.25679 -0.0498064 -0.0835999 -0.165785 0.763903 -0.0636681 -0.123857 -0.106813 1.07382)
(1.26924 -0.0915177 -0.0823225 -0.145339 0.809394 -0.10677 -0.171066 -0.209764 1.03642)
(1.26839 -0.144926 -0.0997156 -0.115899 0.882561 -0.131768 -0.218851 -0.281831 0.983428)
(1.25314 -0.20248 -0.135054 -0.0764627 0.968191 -0.130461 -0.2663 -0.311508 0.926564)
(1.22123 -0.254317 -0.180016 -0.0272676 1.04526 -0.0948811 -0.310785 -0.295496 0.880212)
(1.16833 -0.29054 -0.213282 0.0282427 1.0901 -0.0180494 -0.348762 -0.240649 0.860056)
(1.08826 -0.305946 -0.198354 0.0805728 1.08854 0.0961665 -0.377366 -0.163083 0.880528)
(0.980162 -0.302548 -0.101003 0.115467 1.05526 0.214843 -0.394625 -0.0808741 0.942718)
(0.861714 -0.278558 0.0680524 0.126186 1.03109 0.274525 -0.393287 -0.00772469 1.02141)
(0.768207 -0.227108 0.23398 0.126618 1.03518 0.23245 -0.367327 0.0665703 1.08918)
(0.754086 -0.143787 0.321839 0.12143 1.05506 0.138495 -0.31992 0.147746 1.09331)
(0.80804 -0.0512475 0.320109 0.119628 1.06314 0.0803761 -0.260137 0.222202 1.05518)
(0.895181 0.0110757 0.279859 0.128925 1.04105 0.0740189 -0.19853 0.275575 1.01987)
(0.9879 0.0350632 0.235727 0.147622 0.988116 0.0896148 -0.138343 0.295119 1.01248)
(1.07111 0.0327596 0.196604 0.166759 0.914873 0.0949957 -0.0800063 0.27465 1.03031)
(1.1395 0.0216155 0.1608 0.179283 0.839924 0.0770909 -0.0244388 0.215132 1.05836)
(1.19259 0.0159578 0.127735 0.182959 0.781964 0.0385273 0.027596 0.12303 1.08166)
(1.23137 0.0242856 0.100369 0.178246 0.754453 -0.01182 0.0765467 0.0102454 1.08891)
(1.25679 0.0498064 0.0835999 0.165785 0.763903 -0.0636681 0.123857 -0.106813 1.07382)
(1.26924 0.0915177 0.0823225 0.145339 0.809394 -0.10677 0.171066 -0.209764 1.03642)
(1.26839 0.144926 0.0997156 0.115899 0.882561 -0.131768 0.218851 -0.281831 0.983428)
(1.25314 0.20248 0.135054 0.0764627 0.968191 -0.130461 0.2663 -0.311508 0.926564)
(1.22123 0.254317 0.180016 0.0272676 1.04526 -0.0948811 0.310785 -0.295496 0.880212)
(1.16833 0.29054 0.213282 -0.0282427 1.0901 -0.0180494 0.348762 -0.240649 0.860056)
(1.08826 0.305946 0.198354 -0.0805728 1.08854 0.0961665 0.377366 -0.163083 0.880528)
(0.980162 0.302548 0.101003 -0.115467 1.05526 0.214843 0.394625 -0.0808741 0.942718)
(0.861714 0.278558 -0.0680524 -0.126186 1.03109 0.274525 0.393287 -0.00772469 1.02141)
(0.804102 0.147782 -0.220608 -0.113707 0.992321 0.185443 0.359853 0.0842533 1.10652)
(0.786523 0.121596 -0.291522 -0.109765 1.01232 0.101302 0.324667 0.122811 1.09859)
(0.812266 0.0648893 -0.276775 -0.116796 1.05418 0.0598581 0.27871 0.181196 1.05211)
(0.868466 0.00226034 -0.235006 -0.136763 1.0625 0.0750253 0.222774 0.24509 1.0207)
(0.93798 -0.0364317 -0.20102 -0.163159 1.02047 0.109246 0.159681 0.284296 1.02841)
(1.00661 -0.0445052 -0.175375 -0.186375 0.942358 0.124547 0.0936827 0.278506 1.06645)
(1.06624 -0.0348047 -0.148856 -0.200287 0.855656 0.106482 0.0281664 0.2242 1.11435)
(1.11383 -0.0247235 -0.118084 -0.203146 0.785931 0.0583644 -0.0350109 0.128473 1.15305)
(1.14878 -0.0270222 -0.0863571 -0.195318 0.751779 -0.00867093 -0.095073 0.00612324 1.16758)
(1.1711 -0.0481553 -0.0602461 -0.17759 0.762737 -0.0797621 -0.151807 -0.121468 1.14941)
(1.18069 -0.0889709 -0.0470996 -0.150611 0.817454 -0.138968 -0.205101 -0.23014 1.09944)
(1.17702 -0.145124 -0.0532606 -0.114978 0.903886 -0.172859 -0.254543 -0.298903 1.02854)
(1.15903 -0.206727 -0.0817754 -0.071603 1.00233 -0.173052 -0.299155 -0.315461 0.954376)
(1.12521 -0.25778 -0.128053 -0.0222249 1.08974 -0.135309 -0.337362 -0.279123 0.896282)
(1.07401 -0.278376 -0.172318 0.0296058 1.14326 -0.0571014 -0.367051 -0.200931 0.871697)
(1.00574 -0.2567 -0.173936 0.0766094 1.14523 0.0565293 -0.385695 -0.102965 0.894117)
(0.92678 -0.208179 -0.090131 0.108282 1.09578 0.173173 -0.391411 -0.0135362 0.962377)
(0.853874 -0.167053 0.0694833 0.118441 1.02871 0.228499 -0.383451 0.0471862 1.04558)
(0.804102 -0.147782 0.220608 0.113707 0.992321 0.185443 -0.359853 0.0842533 1.10652)
(0.786523 -0.121596 0.291522 0.109765 1.01232 0.101302 -0.324667 0.122811 1.09859)
(0.812266 -0.0648893 0.276775 0.116796 1.05418 0.0598581 -0.27871 0.181196 1.05211)
(0.868466 -0.00226034 0.235006 0.136763 1.0625 0.0750253 -0.222774 0.24509 1.0207)
(0.93798 0.0364317 0.20102 0.163159 1.02047 0.109246 -0.159681 0.284296 1.02841)
(1.00661 0.0445052 0.175375 0.186375 0.942358 0.124547 -0.0936827 0.278506 1.06645)
(1.06624 0.0348047 0.148856 0.200287 0.855656 0.106482 -0.0281664 0.2242 1.11435)
(1.11383 0.0247235 0.118084 0.203146 0.785931 0.0583644 0.0350109 0.128473 1.15305)
(1.14878 0.0270222 0.0863571 0.195318 0.751779 -0.00867093 0.095073 0.00612324 1.16758)
(1.1711 0.0481553 0.0602461 0.17759 0.762737 -0.0797621 0.151807 -0.121468 1.14941)
(1.18069 0.0889709 0.0470996 0.150611 0.817454 -0.138968 0.205101 -0.23014 1.09944)
(1.17702 0.145124 0.0532606 0.114978 0.903886 -0.172859 0.254543 -0.298903 1.02854)
(1.15903 0.206727 0.0817754 0.071603 1.00233 -0.173052 0.299155 -0.315461 0.954376)
(1.12521 0.25778 0.128053 0.0222249 1.08974 -0.135309 0.337362 -0.279123 0.896282)
(1.07401 0.278376 0.172318 -0.0296058 1.14326 -0.0571014 0.367051 -0.200931 0.871697)
(1.00574 0.2567 0.173936 -0.0766094 1.14523 0.0565293 0.385695 -0.102965 0.894117)
(0.92678 0.208179 0.090131 -0.108282 1.09578 0.173173 0.391411 -0.0135362 0.962377)
(0.853874 0.167053 -0.0694833 -0.118441 1.02871 0.228499 0.383451 0.0471862 1.04558)
(0.836623 0.0816062 -0.205529 -0.106048 0.952274 0.135193 0.340554 0.093244 1.12684)
(0.815876 0.107033 -0.258881 -0.102382 0.97605 0.0654756 0.320262 0.0878842 1.10498)
(0.816159 0.0845512 -0.230277 -0.113292 1.0499 0.042304 0.287033 0.131466 1.04958)
(0.842222 0.0196862 -0.18606 -0.138554 1.09188 0.0813264 0.237362 0.208158 1.02246)
(0.888194 -0.0384314 -0.163952 -0.169304 1.06457 0.137461 0.174015 0.270341 1.04693)
(0.941645 -0.0610856 -0.155711 -0.194944 0.982388 0.165042 0.103795 0.282744 1.10864)
(0.991935 -0.0543303 -0.142404 -0.209844 0.881953 0.146814 0.0319335 0.235825 1.18091)
(1.03366 -0.0389062 -0.116328 -0.212393 0.797469 0.0859243 -0.0391389 0.136689 1.23909)
(1.06468 -0.0330539 -0.0806134 -0.202315 0.754645 -0.00399014 -0.107769 0.00345453 1.26257)
(1.08405 -0.0476367 -0.0436889 -0.180099 0.767362 -0.101409 -0.172109 -0.13603 1.23912)
(1.09108 -0.0861291 -0.0159691 -0.147112 0.833547 -0.181823 -0.230258 -0.249889 1.17083)
(1.08507 -0.144569 -0.00783375 -0.105572 0.93565 -0.225904 -0.280567 -0.311762 1.07487)
(1.0652 -0.210228 -0.0271081 -0.0583049 1.04728 -0.225396 -0.321815 -0.309067 0.977728)
(1.0311 -0.259719 -0.0736975 -0.00840367 1.14215 -0.181943 -0.353092 -0.245947 0.90594)
(0.9847 -0.262364 -0.129046 0.0406576 1.19821 -0.0999457 -0.373107 -0.140897 0.879112)
(0.933309 -0.202148 -0.14716 0.0833319 1.19533 0.0133219 -0.37953 -0.0244203 0.907779)
(0.889424 -0.113195 -0.0767114 0.110851 1.12321 0.126447 -0.371609 0.0646661 0.98575)
(0.861111 -0.0660196 0.0721182 0.116455 1.01708 0.176738 -0.356197 0.101465 1.07453)
(0.836623 -0.0816062 0.205529 0.106048 0.952274 0.135193 -0.340554 0.093244 1.12684)
(0.815876 -0.107033 0.258881 0.102382 0.97605 0.0654756 -0.320262 0.0878842 1.10498)
(0.816159 -0.0845512 0.230277 0.113292 1.0499 0.042304 -0.287033 0.131466 1.04958)
(0.842222 -0.0196862 0.18606 0.138554 1.09188 0.0813264 -0.237362 0.208158 1.02246)
(0.888194 0.0384314 0.163952 0.169304 1.06457 0.137461 -0.174015 0.270341 1.04693)
(0.941645 0.0610856 0.155711 0.194944 0.982388 0.165042 -0.103795 0.282744 1.10864)
(0.991935 0.0543303 0.142404 0.209844 0.881953 0.146814 -0.0319335 0.235825 1.18091)
(1.03366 0.0389062 0.116328 0.212393 0.797469 0.0859243 0.0391389 0.136689 1.23909)
(1.06468 0.0330539 0.0806134 0.202315 0.754645 -0.00399014 0.107769 0.00345453 1.26257)
(1.08405 0.0476367 0.0436889 0.180099 0.767362 -0.101409 0.172109 -0.13603 1.23912)
(1.09108 0.0861291 0.0159691 0.147112 0.833547 -0.181823 0.230258 -0.249889 1.17083)
(1.08507 0.144569 0.00783375 0.105572 0.93565 -0.225904 0.280567 -0.311762 1.07487)
(1.0652 0.210228 0.0271081 0.0583049 1.04728 -0.225396 0.321815 -0.309067 0.977728)
(1.0311 0.259719 0.0736975 0.00840367 1.14215 -0.181943 0.353092 -0.245947 0.90594)
(0.9847 0.262364 0.129046 -0.0406576 1.19821 -0.0999457 0.373107 -0.140897 0.879112)
(0.933309 0.202148 0.14716 -0.0833319 1.19533 0.0133219 0.37953 -0.0244203 0.907779)
(0.889424 0.113195 0.0767114 -0.110851 1.12321 0.126447 0.371609 0.0646661 0.98575)
(0.861111 0.0660196 -0.0721182 -0.116455 1.01708 0.176738 0.356197 0.101465 1.07453)
(0.718605 0.308853 -0.330009 -0.185402 1.03048 0.0938973 0.259831 0.117368 1.12695)
(0.750649 0.0775688 -0.394805 -0.14391 1.04861 0.0377083 0.228761 0.217614 1.12114)
(0.838241 -0.124786 -0.334865 -0.11433 1.0577 0.0382912 0.19593 0.304555 1.07472)
(0.942436 -0.25597 -0.246929 -0.102097 1.0324 0.0841744 0.162799 0.353639 1.05085)
(1.03774 -0.31997 -0.180234 -0.0989679 0.968221 0.126096 0.12771 0.354646 1.06695)
(1.11481 -0.340406 -0.140963 -0.0977197 0.880904 0.132302 0.0892156 0.308229 1.10561)
(1.17413 -0.343166 -0.120875 -0.09478 0.796759 0.100296 0.0470582 0.219421 1.14545)
(1.21794 -0.345108 -0.113848 -0.0882548 0.73832 0.0422767 0.00228876 0.0973535 1.17084)
(1.24746 -0.354546 -0.118088 -0.0768332 0.7194 -0.027422 -0.0433423 -0.0423714 1.17169)
(1.26301 -0.374555 -0.134496 -0.0595708 0.744477 -0.0956866 -0.0880576 -0.179311 1.14407)
(1.26451 -0.404859 -0.164941 -0.0360032 0.809044 -0.15113 -0.130327 -0.292325 1.09132)
(1.25176 -0.442787 -0.2106 -0.00629479 0.900652 -0.184952 -0.168747 -0.364093 1.02341)
(1.22421 -0.484113 -0.269503 0.0287404 1.00078 -0.191288 -0.202001 -0.384963 0.954548)
(1.1802 -0.524295 -0.331707 0.0680325 1.08671 -0.165828 -0.229347 -0.355354 0.900355)
(1.11495 -0.558917 -0.371793 0.11097 1.13343 -0.104703 -0.251454 -0.285876 0.877028)
(1.02016 -0.577851 -0.345207 0.156601 1.12345 -0.0112736 -0.269731 -0.193313 0.901242)
(0.896555 -0.558112 -0.206876 0.197409 1.07125 0.0887457 -0.282314 -0.0890257 0.977825)
(0.777495 -0.477419 0.0464903 0.21248 1.0324 0.143166 -0.282391 0.0152205 1.0664)
(0.718605 -0.308853 0.330009 0.185402 1.03048 0.0938973 -0.259831 0.117368 1.12695)
(0.750649 -0.0775688 0.394805 0.14391 1.04861 0.0377083 -0.228761 0.217614 1.12114)
(0.838241 0.124786 0.334865 0.11433 1.0577 0.0382912 -0.19593 0.304555 1.07472)
(0.942436 0.25597 0.246929 0.102097 1.0324 0.0841744 -0.162799 0.353639 1.05085)
(1.03774 0.31997 0.180234 0.0989679 0.968221 0.126096 -0.12771 0.354646 1.06695)
(1.11481 0.340406 0.140963 0.0977197 0.880904 0.132302 -0.0892156 0.308229 1.10561)
(1.17413 0.343166 0.120875 0.09478 0.796759 0.100296 -0.0470582 0.219421 1.14545)
(1.21794 0.345108 0.113848 0.0882548 0.73832 0.0422767 -0.00228876 0.0973535 1.17084)
(1.24746 0.354546 0.118088 0.0768332 0.7194 -0.027422 0.0433423 -0.0423714 1.17169)
(1.26301 0.374555 0.134496 0.0595708 0.744477 -0.0956866 0.0880576 -0.179311 1.14407)
(1.26451 0.404859 0.164941 0.0360032 0.809044 -0.15113 0.130327 -0.292325 1.09132)
(1.25176 0.442787 0.2106 0.00629479 0.900652 -0.184952 0.168747 -0.364093 1.02341)
(1.22421 0.484113 0.269503 -0.0287404 1.00078 -0.191288 0.202001 -0.384963 0.954548)
(1.1802 0.524295 0.331707 -0.0680325 1.08671 -0.165828 0.229347 -0.355354 0.900355)
(1.11495 0.558917 0.371793 -0.11097 1.13343 -0.104703 0.251454 -0.285876 0.877028)
(1.02016 0.577851 0.345207 -0.156601 1.12345 -0.0112736 0.269731 -0.193313 0.901242)
(0.896555 0.558112 0.206876 -0.197409 1.07125 0.0887457 0.282314 -0.0890257 0.977825)
(0.777495 0.477419 -0.0464903 -0.21248 1.0324 0.143166 0.282391 0.0152205 1.0664)
(0.738569 0.206775 -0.302111 -0.120829 0.996349 0.0694975 0.257294 0.12779 1.14997)
(0.751733 0.0962104 -0.343439 -0.112225 1.03223 0.0226077 0.232649 0.184462 1.12456)
(0.802378 -0.0614861 -0.267292 -0.11051 1.07908 0.0348531 0.199537 0.260763 1.07783)
(0.871644 -0.208071 -0.180838 -0.115227 1.08017 0.0932642 0.159349 0.328719 1.06778)
(0.943651 -0.304335 -0.131667 -0.119998 1.02134 0.144956 0.116054 0.352561 1.10354)
(1.00797 -0.346421 -0.112826 -0.121095 0.926611 0.154725 0.0720488 0.320383 1.16179)
(1.06068 -0.356313 -0.10654 -0.117619 0.830567 0.119389 0.0273794 0.236765 1.21911)
(1.10129 -0.356454 -0.104692 -0.109271 0.76086 0.0508858 -0.0176992 0.111908 1.25774)
(1.12995 -0.360856 -0.106643 -0.0957166 0.735838 -0.0350444 -0.0619021 -0.0364295 1.26372)
(1.14664 -0.376573 -0.11523 -0.0769167 0.762727 -0.120605 -0.103652 -0.182915 1.23051)
(1.15112 -0.405658 -0.134711 -0.0533244 0.835954 -0.188463 -0.141704 -0.300514 1.16263)
(1.14292 -0.446047 -0.169158 -0.0258539 0.938659 -0.225983 -0.175229 -0.367958 1.07494)
(1.12118 -0.491438 -0.220214 0.00421354 1.04743 -0.227693 -0.203707 -0.37536 0.988144)
(1.08415 -0.530024 -0.282216 0.0354786 1.13767 -0.193427 -0.227092 -0.325786 0.92295)
(1.0287 -0.542794 -0.332176 0.0667946 1.18607 -0.124016 -0.246162 -0.232475 0.897101)
(0.951843 -0.506899 -0.319197 0.0968282 1.17462 -0.0253929 -0.261807 -0.116236 0.926395)
(0.859813 -0.413421 -0.184051 0.121153 1.10722 0.0739004 -0.271895 -0.00585896 1.01336)
(0.778578 -0.296831 0.0683946 0.130408 1.0266 0.118535 -0.271522 0.0740054 1.10871)
(0.738569 -0.206775 0.302111 0.120829 0.996349 0.0694975 -0.257294 0.12779 1.14997)
(0.751733 -0.0962104 0.343439 0.112225 1.03223 0.0226077 -0.232649 0.184462 1.12456)
(0.802378 0.0614861 0.267292 0.11051 1.07908 0.0348531 -0.199537 0.260763 1.07783)
(0.871644 0.208071 0.180838 0.115227 1.08017 0.0932642 -0.159349 0.328719 1.06778)
(0.943651 0.304335 0.131667 0.119998 1.02134 0.144956 -0.116054 0.352561 1.10354)
(1.00797 0.346421 0.112826 0.121095 0.926611 0.154725 -0.0720488 0.320383 1.16179)
(1.06068 0.356313 0.10654 0.117619 0.830567 0.119389 -0.0273794 0.236765 1.21911)
(1.10129 0.356454 0.104692 0.109271 0.76086 0.0508858 0.0176992 0.111908 1.25774)
(1.12995 0.360856 0.106643 0.0957166 0.735838 -0.0350444 0.0619021 -0.0364295 1.26372)
(1.14664 0.376573 0.11523 0.0769167 0.762727 -0.120605 0.103652 -0.182915 1.23051)
(1.15112 0.405658 0.134711 0.0533244 0.835954 -0.188463 0.141704 -0.300514 1.16263)
(1.14292 0.446047 0.169158 0.0258539 0.938659 -0.225983 0.175229 -0.367958 1.07494)
(1.12118 0.491438 0.220214 -0.00421354 1.04743 -0.227693 0.203707 -0.37536 0.988144)
(1.08415 0.530024 0.282216 -0.0354786 1.13767 -0.193427 0.227092 -0.325786 0.92295)
(1.0287 0.542794 0.332176 -0.0667946 1.18607 -0.124016 0.246162 -0.232475 0.897101)
(0.951843 0.506899 0.319197 -0.0968282 1.17462 -0.0253929 0.261807 -0.116236 0.926395)
(0.859813 0.413421 0.184051 -0.121153 1.10722 0.0739004 0.271895 -0.00585896 1.01336)
(0.778578 0.296831 -0.0683946 -0.130408 1.0266 0.118535 0.271522 0.0740054 1.10871)
(0.760608 0.139556 -0.276304 -0.087498 0.96103 0.0452489 0.265302 0.112753 1.17599)
(0.753191 0.126951 -0.293564 -0.103104 1.01462 0.00975802 0.245572 0.138445 1.13032)
(0.766776 0.0151653 -0.197084 -0.118348 1.09558 0.0319375 0.206353 0.213922 1.08598)
(0.80085 -0.148096 -0.108256 -0.13104 1.12891 0.102686 0.155951 0.300432 1.08957)
(0.848778 -0.283673 -0.0774978 -0.137966 1.08341 0.166813 0.104102 0.347463 1.14403)
(0.899489 -0.353889 -0.0835221 -0.137947 0.985048 0.183206 0.0557731 0.331829 1.2227)
(0.94484 -0.373668 -0.0958043 -0.132016 0.876967 0.146117 0.0106292 0.255855 1.30041)
(0.98169 -0.371711 -0.102382 -0.120982 0.793831 0.0654501 -0.0325203 0.129616 1.35614)
(1.00911 -0.369209 -0.103042 -0.105152 0.760784 -0.0418593 -0.0732964 -0.0274057 1.36957)
(1.02665 -0.378544 -0.102644 -0.0852183 0.789466 -0.150994 -0.1106 -0.183936 1.32959)
(1.03381 -0.405033 -0.108531 -0.0623624 0.873053 -0.235606 -0.143691 -0.305228 1.242)
(1.02989 -0.447477 -0.128779 -0.0379404 0.988563 -0.277568 -0.172431 -0.364918 1.12851)
(1.0138 -0.49668 -0.170119 -0.0132711 1.10594 -0.272483 -0.197033 -0.353079 1.01876)
(0.984043 -0.531103 -0.232638 0.0104541 1.19811 -0.226616 -0.217857 -0.276659 0.940171)
(0.939895 -0.513566 -0.295731 0.0322384 1.24347 -0.14738 -0.235362 -0.153783 0.912793)
(0.884753 -0.409153 -0.298269 0.050945 1.22199 -0.0430633 -0.249787 -0.013604 0.951334)
(0.82894 -0.242814 -0.160602 0.0654916 1.12787 0.0555992 -0.260556 0.092937 1.05367)
(0.785495 -0.136477 0.0958526 0.0770005 1.0073 0.0905501 -0.266267 0.122401 1.15768)
(0.760608 -0.139556 0.276304 0.087498 0.96103 0.0452489 -0.265302 0.112753 1.17599)
(0.753191 -0.126951 0.293564 0.103104 1.01462 0.00975802 -0.245572 0.138445 1.13032)
(0.766776 -0.0151653 0.197084 0.118348 1.09558 0.0319375 -0.206353 0.213922 1.08598)
(0.80085 0.148096 0.108256 0.13104 1.12891 0.102686 -0.155951 0.300432 1.08957)
(0.848778 0.283673 0.0774978 0.137966 1.08341 0.166813 -0.104102 0.347463 1.14403)
(0.899489 0.353889 0.0835221 0.137947 0.985048 0.183206 -0.0557731 0.331829 1.2227)
(0.94484 0.373668 0.0958043 0.132016 0.876967 0.146117 -0.0106292 0.255855 1.30041)
(0.98169 0.371711 0.102382 0.120982 0.793831 0.0654501 0.0325203 0.129616 1.35614)
(1.00911 0.369209 0.103042 0.105152 0.760784 -0.0418593 0.0732964 -0.0274057 1.36957)
(1.02665 0.378544 0.102644 0.0852183 0.789466 -0.150994 0.1106 -0.183936 1.32959)
(1.03381 0.405033 0.108531 0.0623624 0.873053 -0.235606 0.143691 -0.305228 1.242)
(1.02989 0.447477 0.128779 0.0379404 0.988563 -0.277568 0.172431 -0.364918 1.12851)
(1.0138 0.49668 0.170119 0.0132711 1.10594 -0.272483 0.197033 -0.353079 1.01876)
(0.984043 0.531103 0.232638 -0.0104541 1.19811 -0.226616 0.217857 -0.276659 0.940171)
(0.939895 0.513566 0.295731 -0.0322384 1.24347 -0.14738 0.235362 -0.153783 0.912793)
(0.884753 0.409153 0.298269 -0.050945 1.22199 -0.0430633 0.249787 -0.013604 0.951334)
(0.82894 0.242814 0.160602 -0.0654916 1.12787 0.0555992 0.260556 0.092937 1.05367)
(0.785495 0.136477 -0.0958526 -0.0770005 1.0073 0.0905501 0.266267 0.122401 1.15768)
(0.805966 0.28583 -0.363274 -0.161808 0.952757 -0.12671 0.126876 0.153214 1.12415)
(0.845619 -0.0431791 -0.39745 -0.114805 0.985484 -0.0572277 0.115321 0.254296 1.11071)
(0.91071 -0.317802 -0.289752 -0.0782704 1.00924 0.0310496 0.109201 0.32808 1.09091)
(0.985213 -0.50162 -0.161908 -0.051333 0.981961 0.113369 0.102291 0.355774 1.10459)
(1.05088 -0.597133 -0.0813206 -0.0266508 0.90806 0.159048 0.0914699 0.335361 1.14568)
(1.1026 -0.635596 -0.0525206 -0.00448786 0.815389 0.155843 0.0749917 0.274785 1.19376)
(1.14303 -0.649411 -0.0578744 0.0139598 0.731286 0.110085 0.051727 0.180417 1.23352)
(1.17393 -0.656112 -0.0828243 0.030315 0.675648 0.0359311 0.0224432 0.0596228 1.25355)
(1.19478 -0.663167 -0.120022 0.0473124 0.660437 -0.051466 -0.0100987 -0.0733073 1.24623)
(1.20426 -0.673569 -0.166975 0.0668305 0.688444 -0.138206 -0.0423408 -0.199096 1.21022)
(1.20119 -0.688092 -0.223202 0.0892096 0.753634 -0.213057 -0.0711239 -0.298762 1.15099)
(1.18468 -0.706242 -0.288016 0.11338 0.843187 -0.268517 -0.0942619 -0.358114 1.0792)
(1.1538 -0.727192 -0.35781 0.137297 0.940136 -0.300732 -0.110935 -0.370622 1.00844)
(1.10687 -0.751131 -0.420431 0.15864 1.0255 -0.308089 -0.122375 -0.33898 0.953721)
(1.04094 -0.778572 -0.446021 0.176079 1.07962 -0.29015 -0.132156 -0.274094 0.930618)