/*--------------------------------*- C++ -*----------------------------------*\
| =========                 |                                                 |
| \\      /  F ield         | OpenFOAM: The Open Source CFD Toolbox           |
|  \\    /   O peration     | Version:  2312                                  |
|   \\  /    A nd           | Website:  www.openfoam.com                      |
|    \\/     M anipulation  |                                                 |
\*---------------------------------------------------------------------------*/
FoamFile
{
    version     2.0;
    format      ascii;
    arch        "LSB;label=32;scalar=64";
    class       volScalarField;
    location    "1";
    object      sigmaHyd;
}
// * * * * * * * * * * * * * * * * * * * * * * * * * * * * * * * * * * * * * //

dimensions      [1 -1 -2 0 0 0 0];

internalField   nonuniform List<scalar> 
1620
(
-30201.4
-42927.1
-41481.8
-31827.5
-21056.6
-12217.5
-5426.99
10.6179
4705.91
9024.2
13071.2
16688.7
19448.2
20615.2
19098.2
13558.1
3132.08
-12641.7
-30201.4
-42927.1
-41481.8
-31827.5
-21056.6
-12217.5
-5426.99
10.6179
4705.91
9024.2
13071.2
16688.7
19448.2
20615.2
19098.2
13558.1
3132.08
-12641.7
-28555.1
-33185
-32533
-26735.9
-19230.6
-12390.4
-6837.02
-2529.91
615.16
2648.99
3584.25
3387.09
1984.45
-755.992
-5143.8
-11402.2
-18379.2
-24251.9
-28555.1
-33185
-32533
-26735.9
-19230.6
-12390.4
-6837.02
-2529.91
615.16
2648.99
3584.25
3387.09
1984.45
-755.992
-5143.8
-11402.2
-18379.2
-24251.9
-23060.3
-23572.2
-22747.3
-18140.2
-11038.2
-4215.36
819.895
3691.46
4306.77
2685.67
-963.924
-6217.11
-12402.8
-18607.9
-23849.4
-26957.8
-26483.7
-23789.1
-23060.3
-23572.2
-22747.3
-18140.2
-11038.2
-4215.36
819.895
3691.46
4306.77
2685.67
-963.924
-6217.11
-12402.8
-18607.9
-23849.4
-26957.8
-26483.7
-23789.1
-4092.67
-5727.65
-3390.1
-1652.68
-969.335
-803.972
-583.522
45.6627
1408.81
3728.35
6916.2
10508.4
13739.3
15695.8
15764.9
13988.9
9532.12
2863.32
-4092.67
-5727.65
-3390.1
-1652.68
-969.335
-803.972
-583.522
45.6626
1408.81
3728.35
6916.2
10508.4
13739.3
15695.8
15764.9
13988.9
9532.12
2863.32
-20504.5
-16809.2
-11755.2
-10313.8
-9476.34
-8112.84
-6415.6
-4896.87
-3845.97
-3339.05
-3427.73
-4200.72
-5762.53
-8294.81
-11991.9
-16718.4
-23484
-28052.3
-20504.5
-16809.2
-11755.2
-10313.8
-9476.34
-8112.84
-6415.6
-4896.87
-3845.97
-3339.05
-3427.73
-4200.72
-5762.53
-8294.81
-11991.9
-16718.4
-23484
-28052.3
-31087.6
-27534.4
-21490.1
-17388.3
-13027.2
-8202.22
-3907.69
-1105.2
-523.066
-2486.79
-6855.14
-13128
-20560.7
-28180.2
-34574.4
-37832.8
-38108.7
-35583.8
-31087.6
-27534.4
-21490.1
-17388.3
-13027.2
-8202.22
-3907.69
-1105.2
-523.066
-2486.79
-6855.14
-13128
-20560.7
-28180.2
-34574.4
-37832.8
-38108.7
-35583.8
-5814.04
-3413.11
7833.98
13743.7
15176.5
14711
13803.6
13232.5
13555.4
15033.3
17442.2
20127.9
22161.7
22464.8
20245.9
16199.7
8965.04
-4540.25
-5814.04
-3413.11
7833.98
13743.7
15176.5
14711
13803.6
13232.5
13555.4
15033.3
17442.2
20127.9
22161.7
22464.8
20245.9
16199.7
8965.04
-4540.25
-46888.8
-28698.1
-16715.9
-12168.8
-8930.18
-5570.79
-2861.98
-1175.2
-377.491
-204.082
-516.406
-1317.2
-2774.1
-5540.37
-11021.7
-19710.8
-31617.3
-49693.3
-46888.8
-28698.1
-16715.9
-12168.8
-8930.18
-5570.79
-2861.98
-1175.2
-377.491
-204.082
-516.406
-1317.2
-2774.1
-5540.37
-11021.7
-19710.8
-31617.3
-49693.3
-56665
-45847.7
-42242.3
-40660.5
-35033.4
-26564.2
-18588.5
-12809.4
-10113.7
-10714.9
-14218.4
-19871.6
-26917.7
-34900.8
-43213
-48560.5
-48235.9
-51991.7
-56665
-45847.7
-42242.3
-40660.5
-35033.4
-26564.2
-18588.5
-12809.4
-10113.7
-10714.9
-14218.4
-19871.6
-26917.7
-34900.8
-43213
-48560.5
-48235.9
-51991.7
-21031.6
-10597.2
4552.52
13752.2
17626.6
18305.8
17747.4
17116.2
17094.9
17948.5
19501.6
21226.1
22353.7
21899.6
18502.9
10984.8
160.862
-13984
-21031.6
-10597.2
4552.52
13752.2
17626.6
18305.8
17747.4
17116.2
17094.9
17948.5
19501.6
21226.1
22353.7
21899.6
18502.9
10984.8
160.862
-13984
-40090.7
-22110.8
-14775.6
-9592
-3585.93
1157.66
3961.27
5347.38
5803.06
5599.3
4818.73
3443.55
1307.09
-2160.12
-8397.07
-19120.9
-32125.9
-41731
-40090.7
-22110.8
-14775.6
-9592
-3585.93
1157.66
3961.27
5347.38
5803.06
5599.3
4818.73
3443.55
1307.09
-2160.12
-8397.07
-19120.9
-32125.9
-41731
-22243.5
-27513.3
-38983.8
-42894.5
-36496.1
-25954.9
-16180.1
-8554.97
-3920.44
-2716.14
-4856.26
-9742.56
-16433.2
-23865.2
-30603.4
-32548.7
-26027
-19984.5
-22243.5
-27513.3
-38983.8
-42894.5
-36496.1
-25954.9
-16180.1
-8554.97
-3920.44
-2716.14
-4856.26
-9742.56
-16433.2
-23865.2
-30603.4
-32548.7
-26027
-19984.5
-21529.4
-17266.7
-5694.04
7123.15
15021.7
17945.5
18322.9
17885.9
17546.7
17654.8
18181.7
18808.2
18940.5
17478.2
11957.1
-448.395
-14871.3
-22017.1
-21529.4
-17266.7
-5694.04
7123.15
15021.7
17945.5
18322.9
17885.9
17546.7
17654.8
18181.7
18808.2
18940.5
17478.2
11957.1
-448.395
-14871.3
-22017.1
-17013.2
-15610.5
-13309.1
-5703.68
3033.93
8540.61
10915.6
11673.2
11633.7
11056
9944.65
8212.88
5663.81
1796.85
-4806.28
-14728.7
-22190.9
-21483.6
-17013.2
-15610.5
-13309.1
-5703.68
3033.93
8540.61
10915.6
11673.2
11633.7
11056
9944.65
8212.88
5663.81
1796.85
-4806.28
-14728.7
-22190.9
-21483.6
11636.5
-5732.5
-25394.4
-32521.4
-26212.6
-15337.7
-5612.96
2326.23
8071.48
11013.9
10822.6
7708.75
2519.56
-3268.68
-7766.03
-7169.25
1728.07
12833.6
11636.5
-5732.5
-25394.4
-32521.4
-26212.6
-15337.7
-5612.96
2326.23
8071.48
11013.9
10822.6
7708.75
2519.56
-3268.68
-7766.03
-7169.25
1728.07
12833.6
-30659.4
-25905.7
-15077.9
-1287.24
9347.68
14664.7
16472.4
16683.3
16334.9
15857.5
15348.2
14655.2
13305.6
10108.5
2553.49
-10245.6
-22552.5
-29569.8
-30659.4
-25905.7
-15077.9
-1287.24
9347.68
14664.7
16472.4
16683.3
16334.9
15857.5
15348.2
14655.2
13305.6
10108.5
2553.49
-10245.6
-22552.5
-29569.8
-13376.6
-11986.3
-9038.66
-2375.29
5867.51
11573.1
13857.8
14333.7
14015.3
13213.4
11959.1
10177
7692.68
4014.45
-2005.67
-9120.01
-13051.5
-13850.8
-13376.6
-11986.3
-9038.66
-2375.29
5867.51
11573.1
13857.8
14333.7
14015.3
13213.4
11959.1
10177
7692.68
4014.45
-2005.67
-9120.01
-13051.5
-13850.8
25513.4
7859.77
-12363.8
-21931
-18197.4
-8542.48
384.235
7833.07
13840.1
17839.3
19331.3
18284
15316.8
11710.3
9208.95
11299.8
19886.1
28721.3
25513.4
7859.77
-12363.8
-21931
-18197.4
-8542.48
384.235
7833.07
13840.1
17839.3
19331.3
18284
15316.8
11710.3
9208.95
11299.8
19886.1
28721.3
-40582.2
-36520.6
-26563.4
-13238.2
-957.218
6865.12
10605.9
12075.3
12362.9
11907.3
10854.6
9164.95
6494.4
1760.54
-6901.91
-19045.1
-30506.7
-38244.6
-40582.2
-36520.6
-26563.4
-13238.2
-957.218
6865.12
10605.9
12075.3
12362.9
11907.3
10854.6
9164.95
6494.4
1760.54
-6901.91
-19045.1
-30506.7
-38244.6
-11221.8
-9483.57
-5739.23
-505.321
6104.07
11570.8
13901.3
14246
13768.9
12863.1
11622
10023.7
7895.33
4668.6
-296.217
-5134.12
-7955.87
-10123.9
-11221.8
-9483.57
-5739.23
-505.321
6104.07
11570.8
13901.3
14246
13768.9
12863.1
11622
10023.7
7895.33
4668.6
-296.217
-5134.12
-7955.87
-10123.9
34906.2
18407.2
-1305.99
-13098.4
-13148.2
-5818.9
2046.69
8678.4
14356.9
18725.3
21275.1
21856.4
20876.1
19239.6
18609.8
22023.5
30388.3
38197.1
34906.2
18407.2
-1305.99
-13098.4
-13148.2
-5818.9
2046.69
8678.4
14356.9
18725.3
21275.1
21856.4
20876.1
19239.6
18609.8
22023.5
30388.3
38197.1
-50557.5
-47933.1
-39510.9
-27538.8
-14971.4
-5051.35
855.748
3883.28
5216.7
5313.18
4291.9
2154.28
-1329.4
-7019.21
-16061.6
-27537.4
-38593.3
-46949.7
-50557.5
-47933.1
-39510.9
-27538.8
-14971.4
-5051.35
855.748
3883.28
5216.7
5313.18
4291.9
2154.28
-1329.4
-7019.21
-16061.6
-27537.4
-38593.3
-46949.7
-10362.2
-7756.61
-3322.09
1025.08
5984.45
10915.3
13482.5
13819.9
13162.8
12118.5
10881.5
9472.18
7684.02
4937.24
988.82
-2727.06
-5799.22
-9014.35
-10362.2
-7756.61
-3322.09
1025.08
5984.45
10915.3
13482.5
13819.9
13162.8
12118.5
10881.5
9472.18
7684.02
4937.24
988.82
-2727.06
-5799.22
-9014.35
43317.4
28542
9260.89
-4354.94
-8023.43
-3642.37
3121.69
9102.14
14266.9
18568
21622.3
23225.2
23573.8
23308.3
24062.7
28404
37055.6
45254
43317.4
28542
9260.89
-4354.94
-8023.43
-3642.37
3121.69
9102.14
14266.9
18568
21622.3
23225.2
23573.8
23308.3
24062.7
28404
37055.6
45254
-59284.8
-58499.4
-52440.7
-42650.7
-31258.8
-20544.6
-12684.7
-7932.56
-5341.72
-4380.07
-4947.48
-7044.8
-10806.6
-16800.9
-25591.4
-36228.1
-46618.5
-54885.1
-59284.8
-58499.4
-52440.7
-42650.7
-31258.8
-20544.6
-12684.7
-7932.56
-5341.72
-4380.07
-4947.48
-7044.8
-10806.6
-16800.9
-25591.4
-36228.1
-46618.5
-54885.1
-10627.5
-7535.73
-2386.42
1971.32
5849.55
9915.51
12766
13509.4
12896.3
11749.8
10466.3
9149.73
7590.2
5264.24
2047.32
-1358.58
-5135.77
-9154.51
-10627.5
-7535.73
-2386.42
1971.32
5849.55
9915.51
12766
13509.4
12896.3
11749.8
10466.3
9149.73
7590.2
5264.24
2047.32
-1358.58
-5135.77
-9154.51
53236
40687.1
22011.1
6739.48
-301.433
472.963
5394.52
10753.7
15492.9
19622.1
22958.4
25300.7
26700.6
27681.6
29750.4
35004.9
44173.5
53194.9
53236
40687.1
22011.1
6739.48
-301.433
472.963
5394.52
10753.7
15492.9
19622.1
22958.4
25300.7
26700.6
27681.6
29750.4
35004.9
44173.5
53194.9
-65589.9
-66333.6
-63217.6
-56604.3
-47772.7
-38231.9
-29779.4
-23672
-19828.3
-17856.3
-17666.4
-19281.6
-22757.4
-28336.7
-36116.9
-45250.4
-54164.3
-61329.2
-65589.9
-66333.6
-63217.6
-56604.3
-47772.7
-38231.9
-29779.4
-23672
-19828.3
-17856.3
-17666.4
-19281.6
-22757.4
-28336.7
-36116.9
-45250.4
-54164.3
-61329.2
-13033.6
-10166.5
-4594.81
488.302
4391.84
7856.07
10706.3
12104.9
12020.4
11069.4
9794.85
8447.2
6915.45
4793.43
1880.48
-1755.56
-6373.89
-11120.3
-13033.6
-10166.5
-4594.81
488.302
4391.84
7856.07
10706.3
12104.9
12020.4
11069.4
9794.85
8447.2
6915.45
4793.43
1880.48
-1755.56
-6373.89
-11120.3
65084.1
55701.1
38750.5
22472.3
12307.6
9046.04
10777.5
14628.5
18741.4
22627
26138.7
29114.7
31554.2
33927.5
37474.2
43782.2
53380.1
62918.6
65084.1
55701.1
38750.5
22472.3
12307.6
9046.04
10777.5
14628.5
18741.4
22627
26138.7
29114.7
31554.2
33927.5
37474.2
43782.2
53380.1
62918.6
-68331.2
-69749.8
-69278.6
-66422.5
-61294.2
-54691.4
-47775.8
-41808.6
-37446.9
-34759.4
-33760.9
-34522
-37058
-41327.9
-47106.2
-53706.9
-60062.5
-65126.2
-68331.2
-69749.8
-69278.6
-66422.5
-61294.2
-54691.4
-47775.8
-41808.6
-37446.9
-34759.4
-33760.9
-34522
-37058
-41327.9
-47106.2
-53706.9
-60062.5
-65126.2
-18967.2
-17060.2
-11794.9
-5928.23
-1005.05
2946.72
6090.27
8178.41
8965.33
8604.6
7505.44
6021.37
4231.16
1897.38
-1275.82
-5542.79
-10966.4
-16330.2
-18967.2
-17060.2
-11794.9
-5928.23
-1005.05
2946.72
6090.27
8178.41
8965.33
8604.6
7505.44
6021.37
4231.16
1897.38
-1275.82
-5542.79
-10966.4
-16330.2
77131.8
71510.2
58223
43037.9
31141
24405.9
22302.3
23267.9
25721.6
28767.1
32049.5
35391.5
38779.3
42565.7
47588.8
54830.9
64359.8
73521.7
77131.8
71510.2
58223
43037.9
31141
24405.9
22302.3
23267.9
25721.6
28767.1
32049.5
35391.5
38779.3
42565.7
47588.8
54830.9
64359.8
73521.7
-66645
-67879.4
-68895.2
-69145
-67942.6
-65195.6
-61392.2
-57376.7
-53935.8
-51483.5
-50157
-50038.4
-51148.8
-53339.1
-56289.5
-59551.6
-62601.6
-64998.9
-66645
-67879.4
-68895.2
-69145
-67942.6
-65195.6
-61392.2
-57376.7
-53935.8
-51483.5
-50157
-50038.4
-51148.8
-53339.1
-56289.5
-59551.6
-62601.6
-64998.9
-28784.2
-28268.3
-24268.7
-18501.5
-12583.9
-7297.67
-2912.06
384.17
2376.72
2943.24
2219.81
531.628
-1851.54
-4921.06
-8889.98
-13953.6
-19890.1
-25500
-28784.2
-28268.3
-24268.7
-18501.5
-12583.9
-7297.67
-2912.06
384.17
2376.72
2943.24
2219.81
531.628
-1851.54
-4921.06
-8889.98
-13953.6
-19890.1
-25500
86186.1
83779.1
75570
64447.5
53948.1
46166.9
41541.7
39593.8
39555.1
40785.1
42945.5
45891.4
49590.1
54158.3
59877.4
67014.2
75183
82558.6
86186.1
83779.1
75570
64447.5
53948.1
46166.9
41541.7
39593.8
39555.1
40785.1
42945.5
45891.4
49590.1
54158.3
59877.4
67014.2
75183
82558.6
-60588.9
-61250.7
-62619.3
-64407.9
-65894.9
-66457
-65923.4
-64593.1
-63019.3
-61709.2
-60872.9
-60425.6
-60290.5
-60372.8
-60492.5
-60527.9
-60478.3
-60434.3
-60588.9
-61250.7
-62619.3
-64407.9
-65894.9
-66457
-65923.4
-64593.1
-63019.3
-61709.2
-60872.9
-60425.6
-60290.5
-60372.8
-60492.5
-60527.9
-60478.3
-60434.3
-40652.5
-41460
-39537.2
-35524.7
-30329.2
-24731.5
-19311.9
-14569.3
-10976.2
-8994.46
-8851.9
-10373.9
-13172.6
-16899.7
-21408.3
-26619.3
-32185.7
-37254.1
-40652.5
-41460
-39537.2
-35524.7
-30329.2
-24731.5
-19311.9
-14569.3
-10976.2
-8994.46
-8851.9
-10373.9
-13172.6
-16899.7
-21408.3
-26619.3
-32185.7
-37254.1
91595
90655
86774
80985.3
74826.2
69515.2
65596.7
63097.3
61808.5
61493
62087.3
63707.6
66463.4
70329
75067.5
80298.3
85440
89578.7
91595
90655
86774
80985.3
74826.2
69515.2
65596.7
63097.3
61808.5
61493
62087.3
63707.6
66463.4
70329
75067.5
80298.3
85440
89578.7
-50094.5
-49658.8
-50377.6
-52009.8
-53980.8
-55684.6
-56816.5
-57368.2
-57502.4
-57564.5
-57919.5
-58456.8
-58729.1
-58495.5
-57564.6
-55869
-53686.2
-51569.4
-50094.5
-49658.8
-50377.6
-52009.8
-53980.8
-55684.6
-56816.5
-57368.2
-57502.4
-57564.5
-57919.5
-58456.8
-58729.1
-58495.5
-57564.6
-55869
-53686.2
-51569.4
-53989.2
-55060.1
-54830.5
-53290.8
-50609.6
-47101.7
-43151
-39161.4
-35580.4
-33015.4
-32061.6
-32880.7
-35187.8
-38448.6
-42067.9
-45633.9
-48954.4
-51840
-53989.2
-55060.1
-54830.5
-53290.8
-50609.6
-47101.7
-43151
-39161.4
-35580.4
-33015.4
-32061.6
-32880.7
-35187.8
-38448.6
-42067.9
-45633.9
-48954.4
-51840
96519.6
96404.8
95263.2
93425.4
91317.2
89286.9
87557
86234.8
85304.9
84615.2
84068.7
83841.2
84281.5
85674.2
87983.9
90783.6
93467.9
95497.2
96519.6
96404.8
95263.2
93425.4
91317.2
89286.9
87557
86234.8
85304.9
84615.2
84068.7
83841.2
84281.5
85674.2
87983.9
90783.6
93467.9
95497.2
-42127.9
-43828.2
-45866.8
-48196.1
-50727.5
-53224.9
-55078
-55679.5
-54850.7
-52892.8
-50324.6
-47544.1
-44678.3
-42060.7
-40257.8
-39559.9
-39840.2
-40773
-42127.9
-43828.2
-45866.8
-48196.1
-50727.5
-53224.9
-55078
-55679.5
-54850.7
-52892.8
-50324.6
-47544.1
-44678.3
-42060.7
-40257.8
-39559.9
-39840.2
-40773
-55142.9
-57002.1
-58535.5
-59693.9
-60423.5
-60579.6
-59906.6
-58292.3
-55911.7
-53192.3
-50597
-48452.6
-46955.4
-46448.7
-47081.6
-48672.9
-50790.9
-53031.9
-55142.9
-57002.1
-58535.5
-59693.9
-60423.5
-60579.6
-59906.6
-58292.3
-55911.7
-53192.3
-50597
-48452.6
-46955.4
-46448.7
-47081.6
-48672.9
-50790.9
-53031.9
90728.9
90135.4
89523.8
88995.5
88743.2
89068
90119.2
91756.7
93559.8
95070.8
96045.8
96482.4
96294.6
95482.8
94276.3
93055.4
92062.4
91326.6
90728.9
90135.4
89523.8
88995.5
88743.2
89068
90119.2
91756.7
93559.8
95070.8
96045.8
96482.4
96294.6
95482.8
94276.3
93055.4
92062.4
91326.6
)
;

boundaryField
{
    fixed
    {
        type            zeroGradient;
    }
    inside
    {
        type            zeroGradient;
    }
    outside
    {
        type            zeroGradient;
    }
}


// ************************************************************************* //
