/*--------------------------------*- C++ -*----------------------------------*\
| =========                 |                                                 |
| \\      /  F ield         | OpenFOAM: The Open Source CFD Toolbox           |
|  \\    /   O peration     | Version:  2312                                  |
|   \\  /    A nd           | Website:  www.openfoam.com                      |
|    \\/     M anipulation  |                                                 |
\*---------------------------------------------------------------------------*/
FoamFile
{
    version     2.0;
    format      ascii;
    arch        "LSB;label=32;scalar=64";
    class       volScalarField;
    location    "1";
    object      sigmaEq;
}
// * * * * * * * * * * * * * * * * * * * * * * * * * * * * * * * * * * * * * //

dimensions      [1 -1 -2 0 0 0 0];

internalField   nonuniform List<scalar> 
1620
(
60558.6
60889
60361.8
59769
59482
59468
59660.9
60018.1
60471.9
60881.3
61021.9
60651.4
59682.5
58381.6
57382
57308
58190.3
59453.9
60558.6
60889
60361.8
59769
59482
59468
59660.9
60018.1
60471.9
60881.3
61021.9
60651.4
59682.5
58381.6
57382
57308
58190.3
59453.9
59738
59834.7
60011.7
60225.4
60575.5
61142.8
61935.4
62909.1
63960.8
64908
65497.5
65466.7
64657.1
63175.5
61517.8
60329.5
59830.4
59729.8
59738
59834.7
60011.7
60225.4
60575.5
61142.8
61935.4
62909.1
63960.8
64908
65497.5
65466.7
64657.1
63175.5
61517.8
60329.5
59830.4
59729.8
61570.8
60565.2
60216.3
60615.7
61616.1
63020.7
64552.1
65851.7
66599.8
66625.7
65971.4
64897.9
63796.1
63014.7
62725
62877.4
63075.1
62659.5
61570.8
60565.2
60216.3
60615.7
61616.1
63020.7
64552.1
65851.7
66599.8
66625.7
65971.4
64897.9
63796.1
63014.7
62725
62877.4
63075.1
62659.5
59062.1
58623.3
58226
58147.5
58459.4
59141.7
60044.5
61056.2
62118
63130.2
63885
64066.2
63304.9
61378.2
58848.1
57351.8
57600.3
58593.3
59062.1
58623.3
58226
58147.5
58459.4
59141.7
60044.5
61056.2
62118
63130.2
63885
64066.2
63304.9
61378.2
58848.1
57351.8
57600.3
58593.3
59257.2
58808.7
59025
59575.8
60429.7
61556.9
62878.7
64388.4
66106.5
68019.2
70087.7
72249.9
74221.8
74932.4
72503.2
67213.9
62695.6
60439.6
59257.2
58808.7
59025
59575.8
60429.7
61556.9
62878.7
64388.4
66106.5
68019.2
70087.7
72249.9
74221.8
74932.4
72503.2
67213.9
62695.6
60439.6
63887
61640
61379
63157.8
67704.5
73815.9
78002.1
78862
77195.9
74111.3
70641.9
67820.8
66564.5
67404.5
69904.8
71844.2
71001.8
67784.1
63887
61640
61379
63157.8
67704.5
73815.9
78002.1
78862
77195.9
74111.3
70641.9
67820.8
66564.5
67404.5
69904.8
71844.2
71001.8
67784.1
58833.4
58076.8
57701.9
57820.8
59026.9
61081.8
63308.9
65432.9
67394.5
69036.7
70036.7
69971.7
68404.7
64973.8
59893.7
55898.9
56167.6
58551
58833.4
58076.8
57701.9
57820.8
59026.9
61081.8
63308.9
65432.9
67394.5
69036.7
70036.7
69971.7
68404.7
64973.8
59893.7
55898.9
56167.6
58551
56675.5
56716.3
56874.9
57140.8
58476.2
60848.4
63428.5
65982.6
68617.2
71395.6
74269
77088.2
79433.4
79850.9
75194.3
65736.1
59345.7
58071.1
56675.5
56716.3
56874.9
57140.8
58476.2
60848.4
63428.5
65982.6
68617.2
71395.6
74269
77088.2
79433.4
79850.9
75194.3
65736.1
59345.7
58071.1
60936.7
60155.8
59354.6
60942
69959
84601.2
93777.5
95552
92581.7
86904.3
80263.7
74527.2
71402
71768.9
73870.3
72185.2
66671.6
63333.5
60936.7
60155.8
59354.6
60942
69959
84601.2
93777.5
95552
92581.7
86904.3
80263.7
74527.2
71402
71768.9
73870.3
72185.2
66671.6
63333.5
60802.2
60721.1
59726.1
59655.2
61941.3
65294.1
68033.4
69807.6
70818.1
71135.4
70583.7
68838.2
65572.6
60458.5
52983.4
46307.8
50687.9
57708.5
60802.2
60721.1
59726.1
59655.2
61941.3
65294.1
68033.4
69807.6
70818.1
71135.4
70583.7
68838.2
65572.6
60458.5
52983.4
46307.8
50687.9
57708.5
60187.6
58474.5
55407.3
51850.5
51621.7
55454.6
60027.8
64011.2
67279.2
69754
71246
71521.1
70212.7
66290.9
58241.9
51574.2
54511.9
58718.3
60187.6
58474.5
55407.3
51850.5
51621.7
55454.6
60027.8
64011.2
67279.2
69754
71246
71521.1
70212.7
66290.9
58241.9
51574.2
54511.9
58718.3
61202.7
59172.9
55726.9
53216.5
63622.9
84826.8
99733.9
106873
108584
105861
99586.1
91463.2
83739.4
77605.8
71693.2
65770.6
62500.8
61562
61202.7
59172.9
55726.9
53216.5
63622.9
84826.8
99733.9
106873
108584
105861
99586.1
91463.2
83739.4
77605.8
71693.2
65770.6
62500.8
61562
59106.4
61296.4
64629
69278.4
71748.7
72788.3
72688.4
71557.6
69957
68106.6
65814.4
62672.3
58216.8
51891.1
43558.6
40398.7
49718.9
56191.8
59106.4
61296.4
64629
69278.4
71748.7
72788.3
72688.4
71557.6
69957
68106.6
65814.4
62672.3
58216.8
51891.1
43558.6
40398.7
49718.9
56191.8
60783.9
60012.2
56555.7
50112.5
46769.9
50234
55879
60976.9
64869.9
67242.9
67891
66761.7
63775.8
58397.3
50742.4
49380
55899.9
59647.6
60783.9
60012.2
56555.7
50112.5
46769.9
50234
55879
60976.9
64869.9
67242.9
67891
66761.7
63775.8
58397.3
50742.4
49380
55899.9
59647.6
62224.9
57954.9
52278.2
46971.3
56730.4
79394
97397.1
109095
116342
119508
118634
114350
108003
100571
91416
82272.6
74833.9
67969.8
62224.9
57954.9
52278.2
46971.3
56730.4
79394
97397.1
109095
116342
119508
118634
114350
108003
100571
91416
82272.6
74833.9
67969.8
58285.1
60936.7
66127.2
74262.6
78481.1
78297.5
75667.7
71758.8
67720.8
64043.4
60540.1
56685.2
51838
45403.2
38901.4
41364.9
49947.3
55133.1
58285.1
60936.7
66127.2
74262.6
78481.1
78297.5
75667.7
71758.8
67720.8
64043.4
60540.1
56685.2
51838
45403.2
38901.4
41364.9
49947.3
55133.1
60968.4
60674.7
58139.9
52185.4
46821.4
48433.6
53897.3
59275.2
63415.9
65791.5
66098.7
64345.6
60673.8
55151
49758.3
51533.2
56941.2
59914.2
60968.4
60674.7
58139.9
52185.4
46821.4
48433.6
53897.3
59275.2
63415.9
65791.5
66098.7
64345.6
60673.8
55151
49758.3
51533.2
56941.2
59914.2
63527.5
56799.7
49425.5
43400.5
49411.1
69751.7
88839.9
102886
113424
120831
125097
126484
125639
123035
117934
110008
96159.7
76811.7
63527.5
56799.7
49425.5
43400.5
49411.1
69751.7
88839.9
102886
113424
120831
125097
126484
125639
123035
117934
110008
96159.7
76811.7
57526.2
60104.7
64254.2
70867.7
75988.2
76889.6
74380.5
70039
65271.4
60863.2
56882.9
52921
48373.8
42926.1
39327.7
43766.5
50373.7
54466.3
57526.2
60104.7
64254.2
70867.7
75988.2
76889.6
74380.5
70039
65271.4
60863.2
56882.9
52921
48373.8
42926.1
39327.7
43766.5
50373.7
54466.3
60240.8
60230.6
58345.8
53250.9
46726.1
46231.3
51357.8
56904
61186
63655.6
63974.2
62137
58360.6
53103.3
49429
52045.4
56412.8
59042.6
60240.8
60230.6
58345.8
53250.9
46726.1
46231.3
51357.8
56904
61186
63655.6
63974.2
62137
58360.6
53103.3
49429
52045.4
56412.8
59042.6
63781.2
56051
48383.5
41969.4
43675.8
59755.3
78378
92849.3
104256
113183
119744
124195
126977
128124
126535
119656
102125
78810.9
63781.2
56051
48383.5
41969.4
43675.8
59755.3
78378
92849.3
104256
113183
119744
124195
126977
128124
126535
119656
102125
78810.9
56582.6
58957
61727.4
65801.9
70022.3
71823.9
70344.8
66778.2
62509.1
58351.1
54533.1
50842.9
46864.8
42611.2
40900.2
45243.7
50456.3
53791.1
56582.6
58957
61727.4
65801.9
70022.3
71823.9
70344.8
66778.2
62509.1
58351.1
54533.1
50842.9
46864.8
42611.2
40900.2
45243.7
50456.3
53791.1
58771
58884.3
57441.7
53496.9
47245.1
44406.3
48416.8
54063.6
58497.5
61101.9
61600.7
59973.5
56414.1
51600.9
48822.1
51259.7
55004
57491
58771
58884.3
57441.7
53496.9
47245.1
44406.3
48416.8
54063.6
58497.5
61101.9
61600.7
59973.5
56414.1
51600.9
48822.1
51259.7
55004
57491
62842.8
55937.9
49228.3
43114.4
42024.9
52098.1
68391
82318.5
93358
102209
109135
114426
118365
120623
119735
112133
94500.2
74896.8
62842.8
55937.9
49228.3
43114.4
42024.9
52098.1
68391
82318.5
93358
102209
109135
114426
118365
120623
119735
112133
94500.2
74896.8
55335.2
57531.1
59514.4
61791.4
64317.3
65892.7
65274.5
62733.6
59354.7
55890.7
52590.2
49358.7
45989.6
42773.1
42043.5
45710.6
50009.9
52883.8
55335.2
57531.1
59514.4
61791.4
64317.3
65892.7
65274.5
62733.6
59354.7
55890.7
52590.2
49358.7
45989.6
42773.1
42043.5
45710.6
50009.9
52883.8
56900.4
57150.7
56122.1
53252.7
48248.5
43896.2
45242.1
50238.9
54793.6
57614.7
58400
57123.8
53979.2
49815.2
47638.6
49745.6
53157.1
55587.5
56900.4
57150.7
56122.1
53252.7
48248.5
43896.2
45242.1
50238.9
54793.6
57614.7
58400
57123.8
53979.2
49815.2
47638.6
49745.6
53157.1
55587.5
61724.8
56457.7
51418.5
46455.9
44203.1
48626.5
60111.5
72421.5
82682.6
90979.6
97609.2
102837
106798
109010
107844
99982.4
84766.9
70261.5
61724.8
56457.7
51418.5
46455.9
44203.1
48626.5
60111.5
72421.5
82682.6
90979.6
97609.2
102837
106798
109010
107844
99982.4
84766.9
70261.5
53692.1
55704.6
57405.2
58846.6
60085.4
60701.6
60077.3
58190.6
55641.6
52975.8
50369.3
47752.9
45089.5
42865.2
42707.9
45495.7
48963.2
51543.1
53692.1
55704.6
57405.2
58846.6
60085.4
60701.6
60077.3
58190.6
55641.6
52975.8
50369.3
47752.9
45089.5
42865.2
42707.9
45495.7
48963.2
51543.1
54733.2
55151.5
54510.1
52446.3
48692.6
44268.6
42514
44961.3
48853.1
51832.4
53071.1
52401
50053.5
47023.9
45725
47686.7
50894.9
53352.4
54733.2
55151.5
54510.1
52446.3
48692.6
44268.6
42514
44961.3
48853.1
51832.4
53071.1
52401
50053.5
47023.9
45725
47686.7
50894.9
53352.4
60956.6
57304.2
54007.8
50724.8
48601.2
49770.6
55696.5
64489.2
73233.9
80785.9
86981.7
91871.4
95434.2
97164.5
95568.7
88431.1
76824.6
66789.2
60956.6
57304.2
54007.8
50724.8
48601.2
49770.6
55696.5
64489.2
73233.9
80785.9
86981.7
91871.4
95434.2
97164.5
95568.7
88431.1
76824.6
66789.2
51370.7
53217.5
54849.8
56081.7
56816
56834.8
55868.5
54044.6
51889.6
49836.2
47967.8
46161.6
44409
43129.5
43179.1
44883.9
47278.1
49446
51370.7
53217.5
54849.8
56081.7
56816
56834.8
55868.5
54044.6
51889.6
49836.2
47967.8
46161.6
44409
43129.5
43179.1
44883.9
47278.1
49446
52185.8
52795.4
52476.2
51025.6
48280.5
44632.3
41510.5
40684.8
42157.3
44299.7
45736.6
45877.8
44822.6
43445.9
43311.9
45253.7
48182.3
50659.2
52185.8
52795.4
52476.2
51025.6
48280.5
44632.3
41510.5
40684.8
42157.3
44299.7
45736.6
45877.8
44822.6
43445.9
43311.9
45253.7
48182.3
50659.2
60654.7
58182.2
56235.7
54498
53356.2
53706.4
56309.2
61056.4
66968.4
72974.9
78354
82664
85591.4
86646
84820.8
79213.6
71317.3
64683.2
60654.7
58182.2
56235.7
54498
53356.2
53706.4
56309.2
61056.4
66968.4
72974.9
78354
82664
85591.4
86646
84820.8
79213.6
71317.3
64683.2
47855
49501.7
51156.5
52529.2
53372.4
53481.8
52686.9
51080.1
49153.7
47458.1
46184.7
45184.2
44299.5
43631.2
43484.5
44026.5
45080.1
46380.6
47855
49501.7
51156.5
52529.2
53372.4
53481.8
52686.9
51080.1
49153.7
47458.1
46184.7
45184.2
44299.5
43631.2
43484.5
44026.5
45080.1
46380.6
48888.8
49729.5
49716.8
48783.7
46910
44307.3
41550.5
39466.1
38653.5
38960.3
39673.8
40149.7
40206.3
40223.4
40901.4
42620.2
44989.6
47250.2
48888.8
49729.5
49716.8
48783.7
46910
44307.3
41550.5
39466.1
38653.5
38960.3
39673.8
40149.7
40206.3
40223.4
40901.4
42620.2
44989.6
47250.2
60870
59109.6
57966.8
57241.9
57054.7
57681.3
59257.3
61716.3
64940.4
68721.9
72618.2
75977.8
78150.6
78602.6
76878.9
72971.3
68015.3
63731.1
60870
59109.6
57966.8
57241.9
57054.7
57681.3
59257.3
61716.3
64940.4
68721.9
72618.2
75977.8
78150.6
78602.6
76878.9
72971.3
68015.3
63731.1
43163.1
44214.3
45749.6
47416.1
48770.1
49470
49321.7
48339
46870.2
45508.8
44655.8
44238.6
43943.6
43576.2
43156.1
42797.2
42601.8
42671.8
43163.1
44214.3
45749.6
47416.1
48770.1
49470
49321.7
48339
46870.2
45508.8
44655.8
44238.6
43943.6
43576.2
43156.1
42797.2
42601.8
42671.8
44329.1
45307.5
45656.5
45308.2
44290.5
42742.6
40926.1
39201
37926.6
37285.5
37173.3
37328.4
37572.8
37941.8
38619.8
39745.2
41254.3
42889.2
44329.1
45307.5
45656.5
45308.2
44290.5
42742.6
40926.1
39201
37926.6
37285.5
37173.3
37328.4
37572.8
37941.8
38619.8
39745.2
41254.3
42889.2
61505.7
60170.5
59384.5
59068.6
59251.1
59970.1
61123.8
62518.2
64095.8
65971.4
68176
70391.2
71994.8
72394.7
71333.1
69036.1
66175.1
63519.1
61505.7
60170.5
59384.5
59068.6
59251.1
59970.1
61123.8
62518.2
64095.8
65971.4
68176
70391.2
71994.8
72394.7
71333.1
69036.1
66175.1
63519.1
39082.3
39290
40176.6
41582.2
43098.8
44275.7
44770.1
44425.7
43404.6
42271.3
41649.7
41641
41838.4
41831.8
41476.9
40842.2
40094
39431.1
39082.3
39290
40176.6
41582.2
43098.8
44275.7
44770.1
44425.7
43404.6
42271.3
41649.7
41641
41838.4
41831.8
41476.9
40842.2
40094
39431.1
38777.6
39732.2
40481
40863.1
40793.5
40276.2
39408.4
38388.5
37474.1
36861.4
36562.8
36430.6
36320.9
36219.3
36230.3
36474.2
37010.2
37813.2
38777.6
39732.2
40481
40863.1
40793.5
40276.2
39408.4
38388.5
37474.1
36861.4
36562.8
36430.6
36320.9
36219.3
36230.3
36474.2
37010.2
37813.2
61479.6
60585.3
59929.5
59530.3
59391.3
59492.1
59759.2
60083.8
60419.2
60850.2
61527.8
62507.5
63619.3
64506.3
64832.1
64490.8
63636.1
62548
61479.6
60585.3
59929.5
59530.3
59391.3
59492.1
59759.2
60083.8
60419.2
60850.2
61527.8
62507.5
63619.3
64506.3
64832.1
64490.8
63636.1
62548
40694.4
40204
40088
40424.8
41099.5
41806.1
42152.1
41835.1
40820.1
39441.9
38322.5
38027.4
38640.4
39760.6
40874
41586.9
41708.1
41312.2
40694.4
40204
40088
40424.8
41099.5
41806.1
42152.1
41835.1
40820.1
39441.9
38322.5
38027.4
38640.4
39760.6
40874
41586.9
41708.1
41312.2
33536.4
34827.4
36165.7
37327.5
38168.8
38634.9
38746.7
38558
38111.5
37438
36590.1
35649.7
34684.8
33738.4
32878.8
32269
32119.3
32560.6
33536.4
34827.4
36165.7
37327.5
38168.8
38634.9
38746.7
38558
38111.5
37438
36590.1
35649.7
34684.8
33738.4
32878.8
32269
32119.3
32560.6
55104.6
55089.8
54973.4
54776.5
54524
54226.7
53878.3
53475
53041.2
52637.6
52351.2
52280.4
52496.8
52981.8
53617
54236.5
54709.1
54990.8
55104.6
55089.8
54973.4
54776.5
54524
54226.7
53878.3
53475
53041.2
52637.6
52351.2
52280.4
52496.8
52981.8
53617
54236.5
54709.1
54990.8
)
;

boundaryField
{
    fixed
    {
        type            calculated;
        value           nonuniform List<scalar> 
108
(
60500.1
60878.9
60434.9
59812.8
59443.4
59338.1
59441.4
59714.1
60094.5
60456
60598.4
60306.6
59503.6
58429.7
57650.8
57691.6
58498.2
59546.7
60500.1
60878.9
60434.9
59812.8
59443.4
59338.1
59441.4
59714.1
60094.5
60456
60598.4
60306.6
59503.6
58429.7
57650.8
57691.6
58498.2
59546.7
59717.9
59879.9
60176.7
60416.9
60668.9
61045.6
61573.3
62221.5
62917.2
63533.4
63898.7
63841
63258.6
62225.3
61085.8
60285.9
59929.5
59772.7
59717.9
59879.9
60176.7
60416.9
60668.9
61045.6
61573.3
62221.5
62917.2
63533.4
63898.7
63841
63258.6
62225.3
61085.8
60285.9
59929.5
59772.7
61619.2
60682.4
60401.9
60875.2
61900
63200.6
64440.2
65287.4
65545
65188
64349.4
63300.9
62387.6
61893.7
61929.6
62390.3
62832.8
62591.8
61619.2
60682.4
60401.9
60875.2
61900
63200.6
64440.2
65287.4
65545
65188
64349.4
63300.9
62387.6
61893.7
61929.6
62390.3
62832.8
62591.8
)
;
    }
    inside
    {
        type            calculated;
        value           nonuniform List<scalar> 
540
(
63426.9
62151.3
61070.2
60778.3
61288.9
62417.2
63874.4
65238.2
66061.9
66086
65366.1
64219.3
63061.9
62263.9
62060.4
62506.5
63358.9
63912.7
63426.9
62151.3
61070.2
60778.3
61288.9
62417.2
63874.4
65238.2
66061.9
66086
65366.1
64219.3
63061.9
62263.9
62060.4
62506.5
63358.9
63912.7
67921.8
64317.6
62786.7
64118.5
69381.4
78218.5
86271.5
89750
88062.4
82595.1
75639.8
69329.3
65007.6
63276.9
64080.1
66486.1
68948.3
69964.3
67921.8
64317.6
62786.7
64118.5
69381.4
78218.5
86271.5
89750
88062.4
82595.1
75639.8
69329.3
65007.6
63276.9
64080.1
66486.1
68948.3
69964.3
66468.6
63954.9
62608.1
66411.8
84034
115287
140747
151088
145779
128084
105643
86143.1
73392.9
67807.5
67930.1
69513.2
68927.3
68993
66468.6
63954.9
62608.1
66411.8
84034
115287
140747
151088
145779
128084
105643
86143.1
73392.9
67807.5
67930.1
69513.2
68927.3
68993
62606.5
60836.3
59640.2
64765.6
92284.5
140050
185237
218144
229773
213907
178299
139296
108603
89022.4
77388.3
69396.2
64580.9
63070
62606.5
60836.3
59640.2
64765.6
92284.5
140050
185237
218144
229773
213907
178299
139296
108603
89022.4
77388.3
69396.2
64580.9
63070
60341.6
57951.5
56745.4
64535.6
95582.8
147321
202957
254485
289063
292067
263513
218975
175352
140667
113332
90865.8
74839.3
65163
60341.6
57951.5
56745.4
64535.6
95582.8
147321
202957
254485
289063
292067
263513
218975
175352
140667
113332
90865.8
74839.3
65163
58949.5
55595.1
54365.8
63923
94546
146087
202602
256180
297167
312985
300324
268233
230399
196321
164941
129372
92232.5
67749
58949.5
55595.1
54365.8
63923
94546
146087
202602
256180
297167
312985
300324
268233
230399
196321
164941
129372
92232.5
67749
58072.3
54174.7
53136.1
61745.1
88629.8
135766
187282
233888
269820
287773
285620
268311
244163
218816
188244
143948
96172.4
67874
58072.3
54174.7
53136.1
61745.1
88629.8
135766
187282
233888
269820
287773
285620
268311
244163
218816
188244
143948
96172.4
67874
58063.2
54382.7
53601.7
60020.5
81187.9
120221
163889
201581
229673
245124
247481
239784
226236
208023
179134
134348
90302.9
66731.3
58063.2
54382.7
53601.7
60020.5
81187.9
120221
163889
201581
229673
245124
247481
239784
226236
208023
179134
134348
90302.9
66731.3
58947.8
56014.2
55697
60226
75354.2
104584
139033
168614
190152
202837
206999
204424
196795
182910
157304
118776
83844.9
65924.2
58947.8
56014.2
55697
60226
75354.2
104584
139033
168614
190152
202837
206999
204424
196795
182910
157304
118776
83844.9
65924.2
60359
58301.1
58536.5
62204.3
72800.5
93013.3
118080
140587
157467
168239
173051
172583
167232
155446
133937
104364
79032.2
65770.2
60359
58301.1
58536.5
62204.3
72800.5
93013.3
118080
140587
157467
168239
173051
172583
167232
155446
133937
104364
79032.2
65770.2
62161.3
60737.8
61453.1
65030.9
73423.8
87805.6
105403
121747
134714
143759
148372
148176
142993
132144
114890
93915.9
76427.5
66514.3
62161.3
60737.8
61453.1
65030.9
73423.8
87805.6
105403
121747
134714
143759
148372
148176
142993
132144
114890
93915.9
76427.5
66514.3
65126.1
63906.4
64913
68685.7
76371.5
88112.4
101532
113592
123152
130172
134026
133585
128226
118152
104381
89439.2
76978.6
69060.5
65126.1
63906.4
64913
68685.7
76371.5
88112.4
101532
113592
123152
130172
134026
133585
128226
118152
104381
89439.2
76978.6
69060.5
72049.7
70509.6
71470.7
75259.6
82407.6
92556.4
103618
113114
120253
125560
128989
129291
125203
116780
105525
93717.9
83545.3
76271.8
72049.7
70509.6
71470.7
75259.6
82407.6
92556.4
103618
113114
120253
125560
128989
129291
125203
116780
105525
93717.9
83545.3
76271.8
94044.7
90965.7
90510.9
92743.1
97518.9
104122
111129
117148
121907
126161
130356
133659
134394
131370
124796
116135
107244
99597.1
94044.7
90965.7
90510.9
92743.1
97518.9
104122
111129
117148
121907
126161
130356
133659
134394
131370
124796
116135
107244
99597.1
149195
139270
129281
120090
112812
108356
107234
109773
116200
126384
139375
153285
165510
173585
176207
173599
167163
158647
149195
139270
129281
120090
112812
108356
107234
109773
116200
126384
139375
153285
165510
173585
176207
173599
167163
158647
)
;
    }
    outside
    {
        type            calculated;
        value           nonuniform List<scalar> 
540
(
61965.9
62278.2
61319.1
60311.6
59710.6
59406.5
59286.7
59286.6
59333
59317.4
59113
58634.8
57928.8
57250.1
57051.3
57699.4
59034.4
60567.4
61965.9
62278.2
61319.1
60311.6
59710.6
59406.5
59286.7
59286.6
59333
59317.4
59113
58634.8
57928.8
57250.1
57051.3
57699.4
59034.4
60567.4
60486.8
60363.9
59580
59094.5
59031.8
59292.7
59685.5
60078.6
60407.5
60598.4
60525.5
60015
58896.2
57224.6
55795.7
55892.3
57399.4
59149.1
60486.8
60363.9
59580
59094.5
59031.8
59292.7
59685.5
60078.6
60407.5
60598.4
60525.5
60015
58896.2
57224.6
55795.7
55892.3
57399.4
59149.1
61784.4
61409.3
60485.8
60192.6
60885.1
62059.3
63081.1
63813.4
64304.7
64517.4
64262.7
63192.9
60861.2
57116.8
53292.1
52745.8
55865.5
59271.1
61784.4
61409.3
60485.8
60192.6
60885.1
62059.3
63081.1
63813.4
64304.7
64517.4
64262.7
63192.9
60861.2
57116.8
53292.1
52745.8
55865.5
59271.1
62584.5
64488.6
65854.9
68433.9
71419.1
73223.9
73573.5
72920.7
71738.6
70179.7
68068.9
64994.3
60518.6
54659.3
48674.9
46917.2
53096.7
59008.8
62584.5
64488.6
65854.9
68433.9
71419.1
73223.9
73573.5
72920.7
71738.6
70179.7
68068.9
64994.3
60518.6
54659.3
48674.9
46917.2
53096.7
59008.8
60172.6
63675.4
71812.2
85035.6
93421.4
95038
91997.4
86352.5
80108.7
74217.9
68620.9
62821.1
56424
49561.3
43730.1
44850.2
52733.8
57425.8
60172.6
63675.4
71812.2
85035.6
93421.4
95038
91997.4
86352.5
80108.7
74217.9
68620.9
62821.1
56424
49561.3
43730.1
44850.2
52733.8
57425.8
59042.7
62489.1
71477.9
88252
102595
108167
105240
96734.7
86395.9
76672.5
68189.5
60603.9
53519.9
46988
42954.4
46577.1
52849.3
56328.1
59042.7
62489.1
71477.9
88252
102595
108167
105240
96734.7
86395.9
76672.5
68189.5
60603.9
53519.9
46988
42954.4
46577.1
52849.3
56328.1
58397
61452.7
68155.6
81342.9
96390.6
105135
104735
97700.1
87593.1
77165.5
67765.2
59641.3
52654.2
46902.3
44551
48629.8
53328.4
55929.5
58397
61452.7
68155.6
81342.9
96390.6
105135
104735
97700.1
87593.1
77165.5
67765.2
59641.3
52654.2
46902.3
44551
48629.8
53328.4
55929.5
57928.4
60534.8
65008.5
73682.6
85913.2
95332.6
96870.2
92061.3
84082.8
75137.8
66551.3
58955.2
52544.5
47620.5
46268.3
49993.7
53769.2
55832.4
57928.4
60534.8
65008.5
73682.6
85913.2
95332.6
96870.2
92061.3
84082.8
75137.8
66551.3
58955.2
52544.5
47620.5
46268.3
49993.7
53769.2
55832.4
57496.7
59662.2
62676.8
67893.2
76091.5
84192.2
87069.6
84265.2
78412.2
71461.2
64474.5
58076.9
52624.3
48615.8
47785.5
50801.2
53963.6
55774.8
57496.7
59662.2
62676.8
67893.2
76091.5
84192.2
87069.6
84265.2
78412.2
71461.2
64474.5
58076.9
52624.3
48615.8
47785.5
50801.2
53963.6
55774.8
56958.4
58715.4
60905.6
64058.4
68802.6
74147.9
77037.9
75866
71925.1
66901.9
61726.3
56873.3
52684
49722.8
49179.5
51275.3
53796.9
55496.3
56958.4
58715.4
60905.6
64058.4
68802.6
74147.9
77037.9
75866
71925.1
66901.9
61726.3
56873.3
52684
49722.8
49179.5
51275.3
53796.9
55496.3
55905.2
57407
59164
61285.2
63939.5
66753.7
68428.5
67845.7
65317.6
61938.9
58491
55301.5
52572.7
50696.8
50278.8
51384.7
53069.3
54557
55905.2
57407
59164
61285.2
63939.5
66753.7
68428.5
67845.7
65317.6
61938.9
58491
55301.5
52572.7
50696.8
50278.8
51384.7
53069.3
54557
53617.4
55005.4
56616.1
58341.3
60061.7
61515.3
62169.5
61538.6
59733.3
57432
55265.6
53460.6
52011.3
50979.8
50549.7
50794
51517.3
52475.2
53617.4
55005.4
56616.1
58341.3
60061.7
61515.3
62169.5
61538.6
59733.3
57432
55265.6
53460.6
52011.3
50979.8
50549.7
50794
51517.3
52475.2
49609.7
50629.5
52111.4
53812.1
55403.5
56579.4
57046.4
56575.2
55230.8
53516.7
52045.2
51054.6
50400.9
49881.6
49432.9
49102.4
48961.9
49091.1
49609.7
50629.5
52111.4
53812.1
55403.5
56579.4
57046.4
56575.2
55230.8
53516.7
52045.2
51054.6
50400.9
49881.6
49432.9
49102.4
48961.9
49091.1
45169.5
45402.9
46225.7
47538.8
49037.4
50352
51144.7
51146.7
50299.1
48980.1
47868.5
47338.4
47215.2
47140.4
46895.3
46449.6
45899.2
45405.7
45169.5
45402.9
46225.7
47538.8
49037.4
50352
51144.7
51146.7
50299.1
48980.1
47868.5
47338.4
47215.2
47140.4
46895.3
46449.6
45899.2
45405.7
45980.8
44987.1
44453.2
44499.1
45030.8
45749.8
46252.7
46211
45559.8
44600.5
43901.1
43957.9
44825.4
46124.6
47340.5
48021.3
47916.1
47109.3
45980.8
44987.1
44453.2
44499.1
45030.8
45749.8
46252.7
46211
45559.8
44600.5
43901.1
43957.9
44825.4
46124.6
47340.5
48021.3
47916.1
47109.3
)
;
    }
}


// ************************************************************************* //
