/*--------------------------------*- C++ -*----------------------------------*\
| =========                 |                                                 |
| \\      /  F ield         | OpenFOAM: The Open Source CFD Toolbox           |
|  \\    /   O peration     | Version:  2312                                  |
|   \\  /    A nd           | Website:  www.openfoam.com                      |
|    \\/     M anipulation  |                                                 |
\*---------------------------------------------------------------------------*/
FoamFile
{
    version     2.0;
    format      ascii;
    arch        "LSB;label=32;scalar=64";
    class       volVectorField;
    location    "0.4";
    object      D;
}
// * * * * * * * * * * * * * * * * * * * * * * * * * * * * * * * * * * * * * //

dimensions      [0 1 0 0 0 0 0];

internalField   nonuniform List<vector> 
1620
(
(0.000552041 9.04789e-05 -0.00161083)
(0.000736699 0.000226165 -0.00150794)
(0.000757771 0.000377568 -0.00122232)
(0.000640181 0.000454622 -0.000829834)
(0.000449123 0.000429121 -0.00042598)
(0.000240442 0.000322777 -8.05565e-05)
(4.46178e-05 0.000173175 0.000174604)
(-0.000126785 1.2815e-05 0.000338321)
(-0.00027125 -0.000136618 0.000428135)
(-0.000388661 -0.00026308 0.000470855)
(-0.000477777 -0.000361434 0.00049619)
(-0.000534874 -0.000429955 0.000532216)
(-0.000553999 -0.000465559 0.000601927)
(-0.000527558 -0.000459449 0.000720715)
(-0.000444943 -0.000399065 0.000893938)
(-0.000289994 -0.000283226 0.00111216)
(-4.89157e-05 -0.000145412 0.00134373)
(0.000258271 -5.90356e-05 0.00153362)
(0.000552041 -9.04789e-05 0.00161083)
(0.000736699 -0.000226165 0.00150794)
(0.000757771 -0.000377568 0.00122232)
(0.000640181 -0.000454622 0.000829834)
(0.000449123 -0.000429121 0.00042598)
(0.000240442 -0.000322777 8.05565e-05)
(4.46178e-05 -0.000173175 -0.000174604)
(-0.000126785 -1.2815e-05 -0.000338321)
(-0.00027125 0.000136618 -0.000428135)
(-0.000388661 0.00026308 -0.000470855)
(-0.000477777 0.000361434 -0.00049619)
(-0.000534874 0.000429955 -0.000532216)
(-0.000553999 0.000465559 -0.000601927)
(-0.000527558 0.000459449 -0.000720715)
(-0.000444943 0.000399065 -0.000893938)
(-0.000289994 0.000283226 -0.00111216)
(-4.89157e-05 0.000145412 -0.00134373)
(0.000258271 5.90356e-05 -0.00153362)
(0.00026316 0.00034761 -0.00136936)
(0.000330639 0.000343699 -0.0012468)
(0.000325253 0.00036149 -0.00105267)
(0.000247298 0.000383358 -0.000810528)
(0.000116208 0.000392423 -0.000551558)
(-4.0687e-05 0.000382403 -0.000302453)
(-0.000199059 0.000354223 -7.94085e-05)
(-0.000341037 0.000311291 0.000112594)
(-0.000454555 0.000256713 0.000277789)
(-0.000531693 0.000191752 0.0004264)
(-0.000567227 0.000115186 0.000570585)
(-0.000558196 2.4414e-05 0.000719907)
(-0.000505028 -8.08789e-05 0.000877232)
(-0.000413355 -0.000193341 0.00103668)
(-0.000293662 -0.000294906 0.0011853)
(-0.000156352 -0.000362295 0.00130751)
(-7.54695e-06 -0.000382471 0.00138825)
(0.000141644 -0.000367582 0.00141314)
(0.00026316 -0.00034761 0.00136936)
(0.000330639 -0.000343699 0.0012468)
(0.000325253 -0.00036149 0.00105267)
(0.000247298 -0.000383358 0.000810528)
(0.000116208 -0.000392423 0.000551558)
(-4.0687e-05 -0.000382403 0.000302453)
(-0.000199059 -0.000354223 7.94085e-05)
(-0.000341037 -0.000311291 -0.000112594)
(-0.000454555 -0.000256713 -0.000277789)
(-0.000531693 -0.000191752 -0.0004264)
(-0.000567227 -0.000115186 -0.000570585)
(-0.000558196 -2.4414e-05 -0.000719907)
(-0.000505028 8.08789e-05 -0.000877232)
(-0.000413355 0.000193341 -0.00103668)
(-0.000293662 0.000294906 -0.0011853)
(-0.000156352 0.000362295 -0.00130751)
(-7.54695e-06 0.000382471 -0.00138825)
(0.000141644 0.000367582 -0.00141314)
(4.38047e-05 0.000490494 -0.00118195)
(3.24817e-05 0.000401178 -0.00105903)
(5.84884e-06 0.000337828 -0.000941459)
(-4.67215e-05 0.000335788 -0.000817061)
(-0.000136169 0.000392165 -0.000669804)
(-0.000258817 0.000481756 -0.00049157)
(-0.00039718 0.000574581 -0.000283664)
(-0.000528125 0.000645848 -5.31257e-05)
(-0.000630115 0.000678669 0.00019149)
(-0.000686867 0.000662736 0.000442278)
(-0.000688413 0.000592173 0.000691488)
(-0.000631749 0.00046479 0.000929219)
(-0.000522647 0.000283876 0.00114099)
(-0.000378093 6.2465e-05 0.00130757)
(-0.0002258 -0.000172031 0.00140966)
(-9.61263e-05 -0.000377818 0.0014369)
(-8.37919e-06 -0.000509781 0.00139478)
(3.51429e-05 -0.000542684 0.00130174)
(4.38047e-05 -0.000490494 0.00118195)
(3.24817e-05 -0.000401178 0.00105903)
(5.84884e-06 -0.000337828 0.000941459)
(-4.67215e-05 -0.000335788 0.000817061)
(-0.000136169 -0.000392165 0.000669804)
(-0.000258817 -0.000481756 0.00049157)
(-0.00039718 -0.000574581 0.000283664)
(-0.000528125 -0.000645848 5.31257e-05)
(-0.000630115 -0.000678669 -0.00019149)
(-0.000686867 -0.000662736 -0.000442278)
(-0.000688413 -0.000592173 -0.000691488)
(-0.000631749 -0.00046479 -0.000929219)
(-0.000522647 -0.000283876 -0.00114099)
(-0.000378093 -6.2465e-05 -0.00130757)
(-0.0002258 0.000172031 -0.00140966)
(-9.61263e-05 0.000377818 -0.0014369)
(-8.37919e-06 0.000509781 -0.00139478)
(3.51429e-05 0.000542684 -0.00130174)
(0.00172242 0.000719981 -0.00422971)
(0.00216501 0.000868196 -0.00381401)
(0.00209876 0.00103478 -0.00306212)
(0.00162987 0.00110394 -0.00214611)
(0.000957052 0.00104478 -0.0012294)
(0.000244576 0.000880658 -0.000426371)
(-0.000411689 0.000651185 0.000209019)
(-0.00097023 0.000392907 0.000674161)
(-0.00141985 0.000132753 0.00100223)
(-0.00175985 -0.000114164 0.00124696)
(-0.00198697 -0.000344473 0.00146866)
(-0.00208877 -0.000562078 0.00172138)
(-0.00204349 -0.000767227 0.00204215)
(-0.00182558 -0.000941178 0.00244478)
(-0.00141404 -0.00103835 0.00292011)
(-0.000799734 -0.00100934 0.00343584)
(2.60278e-06 -0.000863728 0.00391802)
(0.000912848 -0.000715664 0.00422857)
(0.00172242 -0.000719981 0.00422971)
(0.00216501 -0.000868196 0.00381401)
(0.00209876 -0.00103478 0.00306212)
(0.00162987 -0.00110394 0.00214611)
(0.000957052 -0.00104478 0.0012294)
(0.000244576 -0.000880658 0.000426371)
(-0.000411689 -0.000651185 -0.000209019)
(-0.00097023 -0.000392907 -0.000674161)
(-0.00141985 -0.000132753 -0.00100223)
(-0.00175985 0.000114164 -0.00124696)
(-0.00198697 0.000344473 -0.00146866)
(-0.00208877 0.000562078 -0.00172138)
(-0.00204349 0.000767227 -0.00204215)
(-0.00182558 0.000941178 -0.00244478)
(-0.00141404 0.00103835 -0.00292011)
(-0.000799734 0.00100934 -0.00343584)
(2.60278e-06 0.000863728 -0.00391802)
(0.000912848 0.000715664 -0.00422857)
(0.00113109 0.00109542 -0.00392368)
(0.00135902 0.0010249 -0.00358106)
(0.00131062 0.00101856 -0.00304338)
(0.0010014 0.00103906 -0.00237608)
(0.0005226 0.00105165 -0.00165353)
(-2.46078e-05 0.00103281 -0.000942012)
(-0.000560062 0.000970294 -0.000287439)
(-0.00102958 0.000861425 0.000290107)
(-0.0013999 0.000709164 0.000794991)
(-0.00165109 0.000516744 0.00124902)
(-0.00176973 0.000283983 0.00168101)
(-0.00174555 8.29444e-06 0.00211512)
(-0.00157308 -0.000307981 0.00256036)
(-0.00125827 -0.000645095 0.00300424)
(-0.00082603 -0.000955463 0.00341463)
(-0.000320106 -0.00117148 0.00375094)
(0.000209783 -0.00124465 0.0039751)
(0.000716718 -0.00119046 0.00404622)
(0.00113109 -0.00109542 0.00392368)
(0.00135902 -0.0010249 0.00358106)
(0.00131062 -0.00101856 0.00304338)
(0.0010014 -0.00103906 0.00237608)
(0.0005226 -0.00105165 0.00165353)
(-2.46078e-05 -0.00103281 0.000942012)
(-0.000560062 -0.000970294 0.000287439)
(-0.00102958 -0.000861425 -0.000290107)
(-0.0013999 -0.000709164 -0.000794991)
(-0.00165109 -0.000516744 -0.00124902)
(-0.00176973 -0.000283983 -0.00168101)
(-0.00174555 -8.29444e-06 -0.00211512)
(-0.00157308 0.000307981 -0.00256036)
(-0.00125827 0.000645095 -0.00300424)
(-0.00082603 0.000955463 -0.00341463)
(-0.000320106 0.00117148 -0.00375094)
(0.000209783 0.00124465 -0.0039751)
(0.000716718 0.00119046 -0.00404622)
(0.000617344 0.00133138 -0.00358222)
(0.000671885 0.00110694 -0.00331873)
(0.000637295 0.000973317 -0.00298804)
(0.000470239 0.00096669 -0.00255805)
(0.000168225 0.00105891 -0.0020221)
(-0.000229284 0.00118992 -0.00140055)
(-0.00065985 0.00129908 -0.000728881)
(-0.00105816 0.00134261 -4.22794e-05)
(-0.00136924 0.00129606 0.000634526)
(-0.00155341 0.00114876 0.00128852)
(-0.00158636 0.000898141 0.00191313)
(-0.00145934 0.000547759 0.00250025)
(-0.00118255 0.000110344 0.00303255)
(-0.000792214 -0.000384385 0.0034786)
(-0.000355368 -0.000879522 0.0037959)
(4.10361e-05 -0.00128798 0.00394841)
(0.000329212 -0.00151454 0.00393531)
(0.000506478 -0.00150887 0.00379903)
(0.000617344 -0.00133138 0.00358222)
(0.000671885 -0.00110694 0.00331873)
(0.000637295 -0.000973317 0.00298804)
(0.000470239 -0.00096669 0.00255805)
(0.000168225 -0.00105891 0.0020221)
(-0.000229284 -0.00118992 0.00140055)
(-0.00065985 -0.00129908 0.000728881)
(-0.00105816 -0.00134261 4.22794e-05)
(-0.00136924 -0.00129606 -0.000634526)
(-0.00155341 -0.00114876 -0.00128852)
(-0.00158636 -0.000898141 -0.00191313)
(-0.00145934 -0.000547759 -0.00250025)
(-0.00118255 -0.000110344 -0.00303255)
(-0.000792214 0.000384385 -0.0034786)
(-0.000355368 0.000879522 -0.0037959)
(4.10361e-05 0.00128798 -0.00394841)
(0.000329212 0.00151454 -0.00393531)
(0.000506478 0.00150887 -0.00379903)
(0.00338493 0.0018439 -0.00636347)
(0.00383745 0.00184223 -0.00569637)
(0.00340482 0.00180637 -0.00460342)
(0.0023735 0.00169772 -0.00331698)
(0.00107216 0.00150942 -0.00203844)
(-0.000243676 0.00125014 -0.000899185)
(-0.00142134 0.000938056 3.81384e-05)
(-0.00239379 0.000596037 0.000769484)
(-0.00314535 0.000244519 0.0013348)
(-0.00367929 -0.000105311 0.00180076)
(-0.00399456 -0.000454568 0.00224231)
(-0.004073 -0.000812371 0.00272451)
(-0.00387598 -0.00118249 0.00328791)
(-0.00335028 -0.00154395 0.00394164)
(-0.00244626 -0.00183837 0.00466596)
(-0.00115517 -0.00198978 0.00541362)
(0.000432598 -0.00197468 0.00608495)
(0.0020713 -0.00187823 0.00647287)
(0.00338493 -0.0018439 0.00636347)
(0.00383745 -0.00184223 0.00569637)
(0.00340482 -0.00180637 0.00460342)
(0.0023735 -0.00169772 0.00331698)
(0.00107216 -0.00150942 0.00203844)
(-0.000243676 -0.00125014 0.000899185)
(-0.00142134 -0.000938056 -3.81384e-05)
(-0.00239379 -0.000596037 -0.000769484)
(-0.00314535 -0.000244519 -0.0013348)
(-0.00367929 0.000105311 -0.00180076)
(-0.00399456 0.000454568 -0.00224231)
(-0.004073 0.000812371 -0.00272451)
(-0.00387598 0.00118249 -0.00328791)
(-0.00335028 0.00154395 -0.00394164)
(-0.00244626 0.00183837 -0.00466596)
(-0.00115517 0.00198978 -0.00541362)
(0.000432598 0.00197468 -0.00608495)
(0.0020713 0.00187823 -0.00647287)
(0.00249479 0.00193438 -0.00597622)
(0.00276105 0.00177532 -0.00545201)
(0.00250965 0.00167645 -0.00465832)
(0.00184687 0.0016313 -0.0036755)
(0.000941171 0.00160384 -0.00259888)
(-4.4128e-05 0.00154954 -0.00152045)
(-0.000981196 0.00143663 -0.000509392)
(-0.00178498 0.00125245 0.000399681)
(-0.00240621 0.000997838 0.00120691)
(-0.00281797 0.000677663 0.00193759)
(-0.00300277 0.000294548 0.00262739)
(-0.00294475 -0.000150493 0.00330683)
(-0.00262954 -0.00064953 0.00398797)
(-0.00205175 -0.00117318 0.00465639)
(-0.001229 -0.00165722 0.00527101)
(-0.000218558 -0.00200879 0.00577338)
(0.000864974 -0.0021545 0.00610088)
(0.00183061 -0.00209975 0.00618904)
(0.00249479 -0.00193438 0.00597622)
(0.00276105 -0.00177532 0.00545201)
(0.00250965 -0.00167645 0.00465832)
(0.00184687 -0.0016313 0.0036755)
(0.000941171 -0.00160384 0.00259888)
(-4.4128e-05 -0.00154954 0.00152045)
(-0.000981196 -0.00143663 0.000509392)
(-0.00178498 -0.00125245 -0.000399681)
(-0.00240621 -0.000997838 -0.00120691)
(-0.00281797 -0.000677663 -0.00193759)
(-0.00300277 -0.000294548 -0.00262739)
(-0.00294475 0.000150493 -0.00330683)
(-0.00262954 0.00064953 -0.00398797)
(-0.00205175 0.00117318 -0.00465639)
(-0.001229 0.00165722 -0.00527101)
(-0.000218558 0.00200879 -0.00577338)
(0.000864974 0.0021545 -0.00610088)
(0.00183061 0.00209975 -0.00618904)
(0.001708 0.00196948 -0.00551108)
(0.00182058 0.00168463 -0.00515186)
(0.00172739 0.00152417 -0.00463816)
(0.00140589 0.00151842 -0.00393904)
(0.000877397 0.00162526 -0.00306305)
(0.000210014 0.0017608 -0.00206016)
(-0.0004984 0.00184397 -0.000997605)
(-0.00114783 0.00182073 6.5662e-05)
(-0.00165633 0.00166562 0.00109192)
(-0.00196646 0.00137283 0.00206333)
(-0.00204344 0.000948025 0.00297297)
(-0.00187322 0.000405533 0.00381428)
(-0.00146571 -0.000229213 0.00457135)
(-0.000863548 -0.000911349 0.00521103)
(-0.000150637 -0.00156381 0.00568152)
(0.000553132 -0.00207284 0.0059286)
(0.00112268 -0.00231992 0.00593702)
(0.00148247 -0.00225446 0.00577042)
(0.001708 -0.00196948 0.00551108)
(0.00182058 -0.00168463 0.00515186)
(0.00172739 -0.00152417 0.00463816)
(0.00140589 -0.00151842 0.00393904)
(0.000877397 -0.00162526 0.00306305)
(0.000210014 -0.0017608 0.00206016)
(-0.0004984 -0.00184397 0.000997605)
(-0.00114783 -0.00182073 -6.5662e-05)
(-0.00165633 -0.00166562 -0.00109192)
(-0.00196646 -0.00137283 -0.00206333)
(-0.00204344 -0.000948025 -0.00297297)
(-0.00187322 -0.000405533 -0.00381428)
(-0.00146571 0.000229213 -0.00457135)
(-0.000863548 0.000911349 -0.00521103)
(-0.000150637 0.00156381 -0.00568152)
(0.000553132 0.00207284 -0.0059286)
(0.00112268 0.00231992 -0.00593702)
(0.00148247 0.00225446 -0.00577042)
(0.00486393 0.00308246 -0.0077146)
(0.00514945 0.00269748 -0.0069256)
(0.00430539 0.00233381 -0.00570591)
(0.00272353 0.00199253 -0.00427314)
(0.000830662 0.00164631 -0.00281679)
(-0.00103291 0.00127485 -0.0014721)
(-0.00266146 0.000873613 -0.000311633)
(-0.00396943 0.000448005 0.000652028)
(-0.00494305 5.42487e-06 0.0014524)
(-0.00559286 -0.000451421 0.0021508)
(-0.00592201 -0.000927811 0.00281693)
(-0.00590976 -0.0014332 0.00351021)
(-0.00550524 -0.00196881 0.00426583)
(-0.0046313 -0.00251065 0.00508977)
(-0.00321086 -0.00299912 0.00595955)
(-0.0012399 -0.00335119 0.00681595)
(0.00109804 -0.00349588 0.00753779)
(0.00335075 -0.00339786 0.00791626)
(0.00486393 -0.00308246 0.0077146)
(0.00514945 -0.00269748 0.0069256)
(0.00430539 -0.00233381 0.00570591)
(0.00272353 -0.00199253 0.00427314)
(0.000830662 -0.00164631 0.00281679)
(-0.00103291 -0.00127485 0.0014721)
(-0.00266146 -0.000873613 0.000311633)
(-0.00396943 -0.000448005 -0.000652028)
(-0.00494305 -5.42487e-06 -0.0014524)
(-0.00559286 0.000451421 -0.0021508)
(-0.00592201 0.000927811 -0.00281693)
(-0.00590976 0.0014332 -0.00351021)
(-0.00550524 0.00196881 -0.00426583)
(-0.0046313 0.00251065 -0.00508977)
(-0.00321086 0.00299912 -0.00595955)
(-0.0012399 0.00335119 -0.00681595)
(0.00109804 0.00349588 -0.00753779)
(0.00335075 0.00339786 -0.00791626)
(0.00380396 0.00275015 -0.00733974)
(0.00396304 0.00243269 -0.00671187)
(0.00345623 0.00219646 -0.00577625)
(0.00245181 0.00204493 -0.0046084)
(0.00116305 0.00192856 -0.00331126)
(-0.000200509 0.00179036 -0.00199218)
(-0.00147235 0.00158985 -0.000734962)
(-0.00254373 0.00130849 0.000415637)
(-0.00335486 0.000943993 0.00145337)
(-0.00387541 0.000501046 0.00239928)
(-0.00408605 -1.50369e-05 0.00328601)
(-0.00396748 -0.000598081 0.00414228)
(-0.00349873 -0.0012337 0.00498028)
(-0.00266541 -0.00188676 0.00578799)
(-0.00148009 -0.00248921 0.00652634)
(-1.56789e-05 -0.00294218 0.00713132)
(0.0015552 -0.00314693 0.00752146)
(0.00293895 -0.00305621 0.00761149)
(0.00380396 -0.00275015 0.00733974)
(0.00396304 -0.00243269 0.00671187)
(0.00345623 -0.00219646 0.00577625)
(0.00245181 -0.00204493 0.0046084)
(0.00116305 -0.00192856 0.00331126)
(-0.000200509 -0.00179036 0.00199218)
(-0.00147235 -0.00158985 0.000734962)
(-0.00254373 -0.00130849 -0.000415637)
(-0.00335486 -0.000943993 -0.00145337)
(-0.00387541 -0.000501046 -0.00239928)
(-0.00408605 1.50369e-05 -0.00328601)
(-0.00396748 0.000598081 -0.00414228)
(-0.00349873 0.0012337 -0.00498028)
(-0.00266541 0.00188676 -0.00578799)
(-0.00148009 0.00248921 -0.00652634)
(-1.56789e-05 0.00294218 -0.00713132)
(0.0015552 0.00314693 -0.00752146)
(0.00293895 0.00305621 -0.00761149)
(0.00278031 0.00255292 -0.00697989)
(0.00287243 0.00228114 -0.00651989)
(0.0027027 0.00211826 -0.00582726)
(0.00225539 0.00208919 -0.00488896)
(0.00155323 0.00214744 -0.00374223)
(0.000677552 0.00221097 -0.00246183)
(-0.000248114 0.00220061 -0.00113175)
(-0.0010951 0.00206474 0.000179539)
(-0.001759 0.00178223 0.00142974)
(-0.0021684 0.00135365 0.0025992)
(-0.00228061 0.00079292 0.00368106)
(-0.00207727 0.000123551 0.00467101)
(-0.00156775 -0.000620562 0.00555797)
(-0.000801107 -0.00138822 0.00631526)
(0.000122193 -0.00209817 0.00689728)
(0.00106019 -0.00263594 0.00725346)
(0.00186974 -0.00288881 0.00736146)
(0.00245061 -0.0028242 0.00725238)
(0.00278031 -0.00255292 0.00697989)
(0.00287243 -0.00228114 0.00651989)
(0.0027027 -0.00211826 0.00582726)
(0.00225539 -0.00208919 0.00488896)
(0.00155323 -0.00214744 0.00374223)
(0.000677552 -0.00221097 0.00246183)
(-0.000248114 -0.00220061 0.00113175)
(-0.0010951 -0.00206474 -0.000179539)
(-0.001759 -0.00178223 -0.00142974)
(-0.0021684 -0.00135365 -0.0025992)
(-0.00228061 -0.00079292 -0.00368106)
(-0.00207727 -0.000123551 -0.00467101)
(-0.00156775 0.000620562 -0.00555797)
(-0.000801107 0.00138822 -0.00631526)
(0.000122193 0.00209817 -0.00689728)
(0.00106019 0.00263594 -0.00725346)
(0.00186974 0.00288881 -0.00736146)
(0.00245061 0.0028242 -0.00725238)
(0.00536721 0.00400794 -0.00824601)
(0.00556137 0.00332015 -0.00748939)
(0.00453268 0.00263621 -0.00633641)
(0.00264261 0.00202027 -0.00494136)
(0.000376417 0.00146551 -0.00346314)
(-0.00184562 0.000942237 -0.00203348)
(-0.00376546 0.000426163 -0.00073517)
(-0.00528019 -9.80636e-05 0.000404516)
(-0.00637684 -0.000640619 0.00140258)
(-0.00706913 -0.00120972 0.00230221)
(-0.00736036 -0.00181318 0.00315508)
(-0.00722651 -0.002455 0.00400601)
(-0.00660941 -0.00312472 0.00488298)
(-0.00542139 -0.00378255 0.00579369)
(-0.00358679 -0.00435045 0.00671837)
(-0.00115899 -0.00472375 0.0075836)
(0.00153535 -0.00480592 0.00823969)
(0.00391079 -0.00455128 0.00850061)
(0.00536721 -0.00400794 0.00824601)
(0.00556137 -0.00332015 0.00748939)
(0.00453268 -0.00263621 0.00633641)
(0.00264261 -0.00202027 0.00494136)
(0.000376417 -0.00146551 0.00346314)
(-0.00184562 -0.000942237 0.00203348)
(-0.00376546 -0.000426163 0.00073517)
(-0.00528019 9.80636e-05 -0.000404516)
(-0.00637684 0.000640619 -0.00140258)
(-0.00706913 0.00120972 -0.00230221)
(-0.00736036 0.00181318 -0.00315508)
(-0.00722651 0.002455 -0.00400601)
(-0.00660941 0.00312472 -0.00488298)
(-0.00542139 0.00378255 -0.00579369)
(-0.00358679 0.00435045 -0.00671837)
(-0.00115899 0.00472375 -0.0075836)
(0.00153535 0.00480592 -0.00823969)
(0.00391079 0.00455128 -0.00850061)
(0.00426576 0.00345355 -0.00800646)
(0.00440705 0.00300594 -0.00736038)
(0.00379572 0.00259786 -0.00638714)
(0.00260193 0.00227051 -0.00515927)
(0.00107819 0.001994 -0.00377749)
(-0.000523392 0.00171501 -0.00235052)
(-0.002005 0.00138987 -0.000966344)
(-0.00324033 0.0009942 0.000324536)
(-0.00416148 0.000519815 0.00150803)
(-0.00473398 -3.16609e-05 0.00259523)
(-0.00493551 -0.000653341 0.00360872)
(-0.00474403 -0.00133299 0.00456993)
(-0.00413606 -0.00204739 0.0054892)
(-0.00309705 -0.00275202 0.00635874)
(-0.0016509 -0.00337132 0.00714591)
(8.80209e-05 -0.00380445 0.00778733)
(0.00187352 -0.00396137 0.00819481)
(0.00336669 -0.00381836 0.00828404)
(0.00426576 -0.00345355 0.00800646)
(0.00440705 -0.00300594 0.00736038)
(0.00379572 -0.00259786 0.00638714)
(0.00260193 -0.00227051 0.00515927)
(0.00107819 -0.001994 0.00377749)
(-0.000523392 -0.00171501 0.00235052)
(-0.002005 -0.00138987 0.000966344)
(-0.00324033 -0.0009942 -0.000324536)
(-0.00416148 -0.000519815 -0.00150803)
(-0.00473398 3.16609e-05 -0.00259523)
(-0.00493551 0.000653341 -0.00360872)
(-0.00474403 0.00133299 -0.00456993)
(-0.00413606 0.00204739 -0.0054892)
(-0.00309705 0.00275202 -0.00635874)
(-0.0016509 0.00337132 -0.00714591)
(8.80209e-05 0.00380445 -0.00778733)
(0.00187352 0.00396137 -0.00819481)
(0.00336669 0.00381836 -0.00828404)
(0.00319943 0.00306977 -0.00788737)
(0.00331954 0.0028616 -0.00734871)
(0.00312925 0.00268962 -0.00651165)
(0.00262014 0.00258636 -0.00540644)
(0.00182449 0.00252653 -0.00409863)
(0.00083153 0.00245054 -0.00267389)
(-0.000222141 0.00229678 -0.0012165)
(-0.00118925 0.0020244 0.000208222)
(-0.00194827 0.00161814 0.00156009)
(-0.00241647 0.00108264 0.00281939)
(-0.00254513 0.000436378 0.00397831)
(-0.00231386 -0.000291681 0.00503315)
(-0.00173454 -0.00106259 0.00597671)
(-0.000866314 -0.00182282 0.00679049)
(0.000171548 -0.00249591 0.00744183)
(0.00121791 -0.00298834 0.00789548)
(0.00212366 -0.00323039 0.00813073)
(0.00279559 -0.00322887 0.00813639)
(0.00319943 -0.00306977 0.00788737)
(0.00331954 -0.0028616 0.00734871)
(0.00312925 -0.00268962 0.00651165)
(0.00262014 -0.00258636 0.00540644)
(0.00182449 -0.00252653 0.00409863)
(0.00083153 -0.00245054 0.00267389)
(-0.000222141 -0.00229678 0.0012165)
(-0.00118925 -0.0020244 -0.000208222)
(-0.00194827 -0.00161814 -0.00156009)
(-0.00241647 -0.00108264 -0.00281939)
(-0.00254513 -0.000436378 -0.00397831)
(-0.00231386 0.000291681 -0.00503315)
(-0.00173454 0.00106259 -0.00597671)
(-0.000866314 0.00182282 -0.00679049)
(0.000171548 0.00249591 -0.00744183)
(0.00121791 0.00298834 -0.00789548)
(0.00212366 0.00323039 -0.00813073)
(0.00279559 0.00322887 -0.00813639)
(0.00492295 0.00454723 -0.00818274)
(0.00504186 0.00362031 -0.00753007)
(0.00399372 0.00267613 -0.00653385)
(0.00207497 0.00180562 -0.00528786)
(-0.000266202 0.00102972 -0.00390451)
(-0.00259648 0.000328336 -0.0024982)
(-0.00462399 -0.000328271 -0.00115711)
(-0.00622055 -0.000968444 7.54644e-05)
(-0.00736059 -0.00161663 0.00119656)
(-0.00805028 -0.00229059 0.00222745)
(-0.00828664 -0.00299862 0.00319854)
(-0.00804158 -0.00373515 0.00413862)
(-0.0072581 -0.00447159 0.00506868)
(-0.00586311 -0.00514543 0.00599621)
(-0.00382651 -0.00565877 0.00689767)
(-0.00128382 -0.00590049 0.00769093)
(0.00137763 -0.00578958 0.00824195)
(0.0036113 -0.00531457 0.00842547)
(0.00492295 -0.00454723 0.00818274)
(0.00504186 -0.00362031 0.00753007)
(0.00399372 -0.00267613 0.00653385)
(0.00207497 -0.00180562 0.00528786)
(-0.000266202 -0.00102972 0.00390451)
(-0.00259648 -0.000328336 0.0024982)
(-0.00462399 0.000328271 0.00115711)
(-0.00622055 0.000968444 -7.54644e-05)
(-0.00736059 0.00161663 -0.00119656)
(-0.00805028 0.00229059 -0.00222745)
(-0.00828664 0.00299862 -0.00319854)
(-0.00804158 0.00373515 -0.00413862)
(-0.0072581 0.00447159 -0.00506868)
(-0.00586311 0.00514543 -0.00599621)
(-0.00382651 0.00565877 -0.00689767)
(-0.00128382 0.00590049 -0.00769093)
(0.00137763 0.00578958 -0.00824195)
(0.0036113 0.00531457 -0.00842547)
(0.00394511 0.00390135 -0.00805445)
(0.00404954 0.00333584 -0.00745942)
(0.00342099 0.00276867 -0.0065468)
(0.00220518 0.00225428 -0.00537389)
(0.000637368 0.00178939 -0.00402827)
(-0.00102746 0.00134007 -0.00261044)
(-0.00257706 0.000870184 -0.00120651)
(-0.00387044 0.000353893 0.000129304)
(-0.00482861 -0.000222484 0.00137451)
(-0.00540899 -0.000861432 0.00252833)
(-0.00558383 -0.0015553 0.00360096)
(-0.00532926 -0.00228551 0.00460459)
(-0.00462538 -0.00301837 0.00554614)
(-0.00347068 -0.00369818 0.00641995)
(-0.00191773 -0.00424464 0.00719806)
(-0.000120223 -0.00456826 0.00782248)
(0.00165689 -0.00460696 0.00821495)
(0.00310016 -0.00436144 0.00830517)
(0.00394511 -0.00390135 0.00805445)
(0.00404954 -0.00333584 0.00745942)
(0.00342099 -0.00276867 0.0065468)
(0.00220518 -0.00225428 0.00537389)
(0.000637368 -0.00178939 0.00402827)
(-0.00102746 -0.00134007 0.00261044)
(-0.00257706 -0.000870184 0.00120651)
(-0.00387044 -0.000353893 -0.000129304)
(-0.00482861 0.000222484 -0.00137451)
(-0.00540899 0.000861432 -0.00252833)
(-0.00558383 0.0015553 -0.00360096)
(-0.00532926 0.00228551 -0.00460459)
(-0.00462538 0.00301837 -0.00554614)
(-0.00347068 0.00369818 -0.00641995)
(-0.00191773 0.00424464 -0.00719806)
(-0.000120223 0.00456826 -0.00782248)
(0.00165689 0.00460696 -0.00821495)
(0.00310016 0.00436144 -0.00830517)
(0.00298355 0.00344068 -0.00812914)
(0.00309984 0.00325475 -0.00758493)
(0.00289791 0.00304587 -0.00671391)
(0.00237734 0.0028397 -0.00556677)
(0.00156991 0.00263079 -0.00422655)
(0.000558649 0.002389 -0.00278321)
(-0.000523416 0.00207763 -0.00131563)
(-0.00152422 0.0016705 0.000117596)
(-0.00231242 0.00115836 0.0014796)
(-0.00279675 0.000547637 0.00275022)
(-0.0029242 -0.000141858 0.00391948)
(-0.00267499 -0.000878895 0.00498235)
(-0.00206687 -0.00162202 0.00593342)
(-0.00116946 -0.00231872 0.00676101)
(-0.000111575 -0.00290549 0.00744438)
(0.000947232 -0.0033204 0.00795772)
(0.00186911 -0.00353097 0.00827156)
(0.00256439 -0.00355332 0.00834538)
(0.00298355 -0.00344068 0.00812914)
(0.00309984 -0.00325475 0.00758493)
(0.00289791 -0.00304587 0.00671391)
(0.00237734 -0.0028397 0.00556677)
(0.00156991 -0.00263079 0.00422655)
(0.000558649 -0.002389 0.00278321)
(-0.000523416 -0.00207763 0.00131563)
(-0.00152422 -0.0016705 -0.000117596)
(-0.00231242 -0.00115836 -0.0014796)
(-0.00279675 -0.000547637 -0.00275022)
(-0.0029242 0.000141858 -0.00391948)
(-0.00267499 0.000878895 -0.00498235)
(-0.00206687 0.00162202 -0.00593342)
(-0.00116946 0.00231872 -0.00676101)
(-0.000111575 0.00290549 -0.00744438)
(0.000947232 0.0033204 -0.00795772)
(0.00186911 0.00353097 -0.00827156)
(0.00256439 0.00355332 -0.00834538)
(0.00368219 0.00479897 -0.00770506)
(0.00377051 0.00366194 -0.00720216)
(0.00282565 0.00250004 -0.00640571)
(0.00107537 0.00140844 -0.00536544)
(-0.00111039 0.000424985 -0.00415184)
(-0.00334153 -0.000457501 -0.00285433)
(-0.00532378 -0.0012657 -0.00155851)
(-0.0069035 -0.00203089 -0.000320582)
(-0.00803014 -0.00278279 0.000837957)
(-0.00869254 -0.00354292 0.00191882)
(-0.00887783 -0.00431738 0.00293419)
(-0.00855664 -0.00509009 0.00389902)
(-0.00768439 -0.00581553 0.00482661)
(-0.00622322 -0.00641459 0.00571971)
(-0.00420346 -0.00678323 0.00655097)
(-0.00181101 -0.0068232 0.00724871)
(0.000589523 -0.006483 0.00771735)
(0.00254995 -0.00578073 0.00788007)
(0.00368219 -0.00479897 0.00770506)
(0.00377051 -0.00366194 0.00720216)
(0.00282565 -0.00250004 0.00640571)
(0.00107537 -0.00140844 0.00536544)
(-0.00111039 -0.000424985 0.00415184)
(-0.00334153 0.000457501 0.00285433)
(-0.00532378 0.0012657 0.00155851)
(-0.0069035 0.00203089 0.000320582)
(-0.00803014 0.00278279 -0.000837957)
(-0.00869254 0.00354292 -0.00191882)
(-0.00887783 0.00431738 -0.00293419)
(-0.00855664 0.00509009 -0.00389902)
(-0.00768439 0.00581553 -0.00482661)
(-0.00622322 0.00641459 -0.00571971)
(-0.00420346 0.00678323 -0.00655097)
(-0.00181101 0.0068232 -0.00724871)
(0.000589523 0.006483 -0.00771735)
(0.00254995 0.00578073 -0.00788007)
(0.00294384 0.00413307 -0.00763679)
(0.00302465 0.00342391 -0.0071425)
(0.0024458 0.00269245 -0.00636026)
(0.00132467 0.00199493 -0.00532802)
(-0.000141312 0.00134452 -0.00411169)
(-0.00172489 0.000724864 -0.00279497)
(-0.00322192 0.000110274 -0.00145764)
(-0.00448451 -0.000522088 -0.000157049)
(-0.00542146 -0.0011874 0.0010757)
(-0.00597928 -0.00189016 0.00222868)
(-0.00612383 -0.00262164 0.0033008)
(-0.00583149 -0.00335766 0.00429542)
(-0.00509176 -0.00405576 0.00521478)
(-0.00392405 -0.00465305 0.00605255)
(-0.00240947 -0.00507182 0.00678414)
(-0.000717567 -0.00524018 0.0073624)
(0.00090663 -0.005121 0.0077281)
(0.002199 -0.00473008 0.00782962)
(0.00294384 -0.00413307 0.00763679)
(0.00302465 -0.00342391 0.0071425)
(0.0024458 -0.00269245 0.00636026)
(0.00132467 -0.00199493 0.00532802)
(-0.000141312 -0.00134452 0.00411169)
(-0.00172489 -0.000724864 0.00279497)
(-0.00322192 -0.000110274 0.00145764)
(-0.00448451 0.000522088 0.000157049)
(-0.00542146 0.0011874 -0.0010757)
(-0.00597928 0.00189016 -0.00222868)
(-0.00612383 0.00262164 -0.0033008)
(-0.00583149 0.00335766 -0.00429542)
(-0.00509176 0.00405576 -0.00521478)
(-0.00392405 0.00465305 -0.00605255)
(-0.00240947 0.00507182 -0.00678414)
(-0.000717567 0.00524018 -0.0073624)
(0.00090663 0.005121 -0.0077281)
(0.002199 0.00473008 -0.00782962)
(0.0021928 0.00366235 -0.00784221)
(0.0022904 0.00341552 -0.00734908)
(0.00208879 0.00311409 -0.00653895)
(0.00159427 0.0027792 -0.00546339)
(0.000837879 0.00241628 -0.00420278)
(-0.000109109 0.00201552 -0.00284086)
(-0.00113054 0.00156003 -0.00144908)
(-0.0020852 0.00103669 -8.09262e-05)
(-0.00284247 0.000441973 0.00122782)
(-0.00330688 -0.000216268 0.0024551)
(-0.00342274 -0.000918159 0.00358798)
(-0.00317212 -0.00163228 0.00461916)
(-0.00257877 -0.00231729 0.00554318)
(-0.00171814 -0.00292463 0.00635186)
(-0.000715977 -0.0034045 0.00703093)
(0.000282024 -0.0037181 0.00755858)
(0.00115086 -0.00385168 0.007902)
(0.00180459 -0.00382115 0.00801423)
(0.0021928 -0.00366235 0.00784221)
(0.0022904 -0.00341552 0.00734908)
(0.00208879 -0.00311409 0.00653895)
(0.00159427 -0.0027792 0.00546339)
(0.000837879 -0.00241628 0.00420278)
(-0.000109109 -0.00201552 0.00284086)
(-0.00113054 -0.00156003 0.00144908)
(-0.0020852 -0.00103669 8.09262e-05)
(-0.00284247 -0.000441973 -0.00122782)
(-0.00330688 0.000216268 -0.0024551)
(-0.00342274 0.000918159 -0.00358798)
(-0.00317212 0.00163228 -0.00461916)
(-0.00257877 0.00231729 -0.00554318)
(-0.00171814 0.00292463 -0.00635186)
(-0.000715977 0.0034045 -0.00703093)
(0.000282024 0.0037181 -0.00755858)
(0.00115086 0.00385168 -0.007902)
(0.00180459 0.00382115 -0.00801423)
(0.00184789 0.00487836 -0.00698033)
(0.00194782 0.0035652 -0.00665204)
(0.00118624 0.00222177 -0.00607317)
(-0.000279242 0.000942609 -0.00526343)
(-0.00216961 -0.000224758 -0.00426148)
(-0.00416488 -0.00127643 -0.00313137)
(-0.00599332 -0.00223261 -0.00194942)
(-0.00748383 -0.00312071 -0.00077915)
(-0.00855648 -0.00396694 0.000342861)
(-0.00917821 -0.00478932 0.00140288)
(-0.00932661 -0.00558894 0.00239982)
(-0.00897613 -0.00634172 0.00333837)
(-0.00810293 -0.00699337 0.00422417)
(-0.00670956 -0.00746147 0.00505451)
(-0.00487205 -0.007651 0.0058047)
(-0.00278409 -0.00748539 0.00642466)
(-0.000748451 -0.00693764 0.00685469)
(0.000892801 -0.00604082 0.0070475)
(0.00184789 -0.00487836 0.00698033)
(0.00194782 -0.0035652 0.00665204)
(0.00118624 -0.00222177 0.00607317)
(-0.000279242 -0.000942609 0.00526343)
(-0.00216961 0.000224758 0.00426148)
(-0.00416488 0.00127643 0.00313137)
(-0.00599332 0.00223261 0.00194942)
(-0.00748383 0.00312071 0.00077915)
(-0.00855648 0.00396694 -0.000342862)
(-0.00917821 0.00478932 -0.00140288)