/*--------------------------------*- C++ -*----------------------------------*\
| =========                 |                                                 |
| \\      /  F ield         | OpenFOAM: The Open Source CFD Toolbox           |
|  \\    /   O peration     | Version:  2312                                  |
|   \\  /    A nd           | Website:  www.openfoam.com                      |
|    \\/     M anipulation  |                                                 |
\*---------------------------------------------------------------------------*/
FoamFile
{
    version     2.0;
    format      ascii;
    arch        "LSB;label=32;scalar=64";
    class       volVectorField;
    location    "0.4";
    object      D_0;
}
// * * * * * * * * * * * * * * * * * * * * * * * * * * * * * * * * * * * * * //

dimensions      [0 1 0 0 0 0 0];

internalField   nonuniform List<vector> 
1620
(
(0.000552888 6.53652e-05 -0.00160073)
(0.000734333 0.000200528 -0.00150599)
(0.000755999 0.000352491 -0.00123031)
(0.000641648 0.000432174 -0.000847686)
(0.00045466 0.000410716 -0.000451843)
(0.000249744 0.000308743 -0.000111869)
(5.69648e-05 0.000163293 0.000140218)
(-0.000112132 6.88216e-06 0.0003027)
(-0.000254874 -0.00013859 0.000392546)
(-0.000370942 -0.000260883 0.000436052)
(-0.000458945 -0.000354709 0.000462519)
(-0.000515125 -0.000418251 0.000499783)
(-0.000533625 -0.000448537 0.000570822)
(-0.00050705 -0.000437333 0.000691225)
(-0.000425145 -0.00037315 0.00086663)
(-0.000272399 -0.000255834 0.00108778)
(-3.57402e-05 -0.000118774 0.00132307)
(0.000265125 -3.37221e-05 0.00151754)
(0.000552888 -6.53652e-05 0.00160073)
(0.000734333 -0.000200528 0.00150599)
(0.000755999 -0.000352491 0.00123031)
(0.000641648 -0.000432174 0.000847686)
(0.00045466 -0.000410716 0.000451843)
(0.000249744 -0.000308743 0.000111869)
(5.69648e-05 -0.000163293 -0.000140218)
(-0.000112132 -6.88216e-06 -0.0003027)
(-0.000254874 0.00013859 -0.000392546)
(-0.000370942 0.000260883 -0.000436052)
(-0.000458945 0.000354709 -0.000462519)
(-0.000515125 0.000418251 -0.000499783)
(-0.000533625 0.000448537 -0.000570822)
(-0.00050705 0.000437333 -0.000691225)
(-0.000425145 0.00037315 -0.00086663)
(-0.000272399 0.000255834 -0.00108778)
(-3.57402e-05 0.000118774 -0.00132307)
(0.000265125 3.37221e-05 -0.00151754)
(0.000268451 0.000318351 -0.00135502)
(0.000334956 0.00031513 -0.0012401)
(0.000330343 0.000333741 -0.00105385)
(0.000254821 0.000356566 -0.000819364)
(0.000127213 0.000366791 -0.000567421)
(-2.59333e-05 0.000358242 -0.000324419)
(-0.000180959 0.000332043 -0.000106427)
(-0.000320416 0.000291807 8.1566e-05)
(-0.000432396 0.000240766 0.000243686)
(-0.00050894 0.00018022 0.000389987)
(-0.000544705 0.00010896 0.000532477)
(-0.000536625 2.43725e-05 0.00068069)
(-0.000485028 -7.39914e-05 0.000837647)
(-0.000395396 -0.000179227 0.000997811)
(-0.000278002 -0.000274133 0.00114858)
(-0.000143151 -0.000336484 0.00127455)
(2.92828e-06 -0.000353865 0.0013605)
(0.000149233 -0.000338112 0.00139172)
(0.000268451 -0.000318351 0.00135502)
(0.000334956 -0.00031513 0.0012401)
(0.000330343 -0.000333741 0.00105385)
(0.000254821 -0.000356566 0.000819364)
(0.000127213 -0.000366791 0.000567421)
(-2.59333e-05 -0.000358242 0.000324419)
(-0.000180959 -0.000332043 0.000106427)
(-0.000320416 -0.000291807 -8.1566e-05)
(-0.000432396 -0.000240766 -0.000243686)
(-0.00050894 -0.00018022 -0.000389987)
(-0.000544705 -0.00010896 -0.000532477)
(-0.000536625 -2.43725e-05 -0.00068069)
(-0.000485028 7.39914e-05 -0.000837647)
(-0.000395396 0.000179227 -0.000997811)
(-0.000278002 0.000274133 -0.00114858)
(-0.000143151 0.000336484 -0.00127455)
(2.92828e-06 0.000353865 -0.0013605)
(0.000149233 0.000338112 -0.00139172)
(5.17554e-05 0.000459419 -0.00116192)
(4.09188e-05 0.000370786 -0.00104591)
(1.5231e-05 0.000307539 -0.000934666)
(-3.54313e-05 0.000304306 -0.000816485)
(-0.000121725 0.000358645 -0.000675816)
(-0.000240362 0.000446387 -0.000504646)
(-0.000374695 0.000538513 -0.000304012)
(-0.000502421 0.000610788 -8.05274e-05)
(-0.000602515 0.000646486 0.000157628)
(-0.000658866 0.000635224 0.000402819)
(-0.000661458 0.000570955 0.000647504)
(-0.000607145 0.000451272 0.000882018)
(-0.000501447 0.000279167 0.00109218)
(-0.000360891 6.7202e-05 0.00125913)
(-0.00021248 -0.000157981 0.0013638)
(-8.58292e-05 -0.000355674 0.00139577)
(1.37081e-07 -0.000481898 0.00136004)
(4.30033e-05 -0.000511987 0.0012743)
(5.17554e-05 -0.000459419 0.00116192)
(4.09188e-05 -0.000370786 0.00104591)
(1.5231e-05 -0.000307539 0.000934666)
(-3.54313e-05 -0.000304306 0.000816485)
(-0.000121725 -0.000358645 0.000675816)
(-0.000240362 -0.000446387 0.000504646)
(-0.000374695 -0.000538513 0.000304012)
(-0.000502421 -0.000610788 8.05274e-05)
(-0.000602515 -0.000646486 -0.000157628)
(-0.000658866 -0.000635224 -0.000402819)
(-0.000661458 -0.000570955 -0.000647504)
(-0.000607145 -0.000451272 -0.000882018)
(-0.000501447 -0.000279167 -0.00109218)
(-0.000360891 -6.7202e-05 -0.00125913)
(-0.00021248 0.000157981 -0.0013638)
(-8.58292e-05 0.000355674 -0.00139577)
(1.37081e-07 0.000481898 -0.00136004)
(4.30033e-05 0.000511987 -0.0012743)
(0.00172272 0.000636403 -0.00419603)
(0.00216092 0.000785987 -0.00380531)
(0.00210219 0.000956309 -0.0030799)
(0.00164776 0.00103158 -0.00218848)
(0.00099047 0.000979496 -0.00129211)
(0.000291088 0.000822552 -0.000504505)
(-0.000355671 0.000600693 0.000120016)
(-0.00090804 0.000351179 0.000578092)
(-0.00135397 0.000101401 0.000902018)
(-0.00169187 -0.000133364 0.00114458)
(-0.00191793 -0.000349602 0.0013653)
(-0.00201962 -0.000551005 0.00161783)
(-0.00197561 -0.000737855 0.00193947)
(-0.0017611 -0.000892441 0.00234495)
(-0.00135598 -0.000971866 0.00282619)
(-0.000752044 -0.000930435 0.00335141)
(3.53331e-05 -0.000779672 0.00384662)
(0.000927661 -0.000631467 0.00417407)
(0.00172272 -0.000636403 0.00419603)
(0.00216092 -0.000785987 0.00380531)
(0.00210219 -0.000956309 0.0030799)
(0.00164776 -0.00103158 0.00218848)
(0.00099047 -0.000979496 0.00129211)
(0.000291088 -0.000822552 0.000504505)
(-0.000355671 -0.000600693 -0.000120016)
(-0.00090804 -0.000351179 -0.000578092)
(-0.00135397 -0.000101401 -0.000902018)
(-0.00169187 0.000133364 -0.00114458)
(-0.00191793 0.000349602 -0.0013653)
(-0.00201962 0.000551005 -0.00161783)
(-0.00197561 0.000737855 -0.00193947)
(-0.0017611 0.000892441 -0.00234495)
(-0.00135598 0.000971866 -0.00282619)
(-0.000752044 0.000930435 -0.00335141)
(3.53331e-05 0.000779672 -0.00384662)
(0.000927661 0.000631467 -0.00417407)
(0.00114203 0.00100935 -0.00388236)
(0.00136781 0.000941886 -0.00356167)
(0.00132397 0.000938671 -0.00304652)
(0.00102478 0.000962009 -0.00240119)
(0.000558456 0.000977351 -0.00169913)
(2.33878e-05 0.000962043 -0.00100582)
(-0.000502142 0.000904907 -0.000366601)
(-0.00096479 0.000803982 0.000198692)
(-0.00133131 0.00066242 0.000694252)
(-0.00158132 0.000483325 0.00114148)
(-0.00170096 0.000266328 0.00156879)
(-0.00167975 8.65775e-06 0.00200025)
(-0.00151218 -0.00028772 0.00244518)
(-0.00120417 -0.000604065 0.00289182)
(-0.000780266 -0.000894878 0.00330888)
(-0.000283499 -0.00109552 0.00365623)
(0.000236929 -0.00115983 0.00389535)
(0.000734629 -0.00110312 0.00398453)
(0.00114203 -0.00100935 0.00388236)
(0.00136781 -0.000941886 0.00356167)
(0.00132397 -0.000938671 0.00304652)
(0.00102478 -0.000962009 0.00240119)
(0.000558456 -0.000977351 0.00169913)
(2.33878e-05 -0.000962043 0.00100582)
(-0.000502142 -0.000904907 0.000366601)
(-0.00096479 -0.000803982 -0.000198692)
(-0.00133131 -0.00066242 -0.000694252)
(-0.00158132 -0.000483325 -0.00114148)
(-0.00170096 -0.000266328 -0.00156879)
(-0.00167975 -8.65775e-06 -0.00200025)
(-0.00151218 0.00028772 -0.00244518)
(-0.00120417 0.000604065 -0.00289182)
(-0.000780266 0.000894878 -0.00330888)
(-0.000283499 0.00109552 -0.00365623)
(0.000236929 0.00115983 -0.00389535)
(0.000734629 0.00110312 -0.00398453)
(0.000637152 0.00124562 -0.00353397)
(0.000691046 0.00102447 -0.00328908)
(0.000658261 0.000892522 -0.00297702)
(0.00049708 0.000885209 -0.0025666)
(0.000204694 0.000975678 -0.00205132)
(-0.000181409 0.00110617 -0.00145067)
(-0.000601292 0.00121796 -0.000798739)
(-0.000991565 0.00126815 -0.000129571)
(-0.00129815 0.00123233 0.000532694)
(-0.00148144 0.00109947 0.00117525)
(-0.00151685 0.000866466 0.00179166)
(-0.00139525 0.000536193 0.00237406)
(-0.00112646 0.00012053 0.00290546)
(-0.00074588 -0.000351937 0.00335486)
(-0.00031899 -0.000825939 0.00368019)
(6.93681e-05 -0.00121674 0.00384551)
(0.000352748 -0.00143172 0.00384914)
(0.000527738 -0.00142182 0.00373162)
(0.000637152 -0.00124562 0.00353397)
(0.000691046 -0.00102447 0.00328908)
(0.000658261 -0.000892522 0.00297702)
(0.00049708 -0.000885209 0.0025666)
(0.000204694 -0.000975678 0.00205132)
(-0.000181409 -0.00110617 0.00145067)
(-0.000601292 -0.00121796 0.000798739)
(-0.000991565 -0.00126815 0.000129571)
(-0.00129815 -0.00123233 -0.000532694)
(-0.00148144 -0.00109947 -0.00117525)
(-0.00151685 -0.000866466 -0.00179166)
(-0.00139525 -0.000536193 -0.00237406)
(-0.00112646 -0.00012053 -0.00290546)
(-0.00074588 0.000351937 -0.00335486)
(-0.00031899 0.000825939 -0.00368019)
(6.93681e-05 0.00121674 -0.00384551)
(0.000352748 0.00143172 -0.00384914)
(0.000527738 0.00142182 -0.00373162)
(0.00337965 0.00169717 -0.0063111)
(0.00383721 0.00170295 -0.00568284)
(0.0034286 0.00167812 -0.00462945)
(0.00242851 0.00158125 -0.00337879)
(0.00115593 0.00140349 -0.00213003)
(-0.000138558 0.00115394 -0.00101441)
(-0.00130301 0.000852579 -9.51896e-05)
(-0.00226877 0.000523869 0.000622833)
(-0.00301798 0.000188954 0.00117875)
(-0.0035521 -0.000140875 0.00163833)
(-0.00386914 -0.000466715 0.00207579)
(-0.00395081 -0.000797578 0.00255603)
(-0.00375914 -0.00113743 0.00312031)
(-0.00324239 -0.0014667 0.00377909)
(-0.002353 -0.00173043 0.00451385)
(-0.00108399 -0.00185786 0.00527763)
(0.000475161 -0.00182941 0.00597037)
(0.0020847 -0.00172942 0.00638608)
(0.00337965 -0.00169717 0.0063111)
(0.00383721 -0.00170295 0.00568284)
(0.0034286 -0.00167812 0.00462945)
(0.00242851 -0.00158125 0.00337879)
(0.00115593 -0.00140349 0.00213003)
(-0.000138558 -0.00115394 0.00101441)
(-0.00130301 -0.000852579 9.51896e-05)
(-0.00226877 -0.000523869 -0.000622833)
(-0.00301798 -0.000188954 -0.00117875)
(-0.0035521 0.000140875 -0.00163833)
(-0.00386914 0.000466715 -0.00207579)
(-0.00395081 0.000797578 -0.00255603)
(-0.00375914 0.00113743 -0.00312031)
(-0.00324239 0.0014667 -0.00377909)
(-0.002353 0.00173043 -0.00451385)
(-0.00108399 0.00185786 -0.00527763)
(0.000475161 0.00182941 -0.00597037)
(0.0020847 0.00172942 -0.00638608)
(0.0025042 0.00179552 -0.00591469)
(0.00277201 0.00164222 -0.00542448)
(0.00253419 0.0015495 -0.00466529)
(0.00189237 0.00150949 -0.00371624)
(0.00100933 0.00148674 -0.00267139)
(4.39426e-05 0.00143857 -0.00162133)
(-0.000878405 0.00133506 -0.000634229)
(-0.0016732 0.00116451 0.000255673)
(-0.00229045 0.000927856 0.00104826)
(-0.00270213 0.000629603 0.00176829)
(-0.00288988 0.000271937 0.00245109)
(-0.00283752 -0.000144596 0.00312717)
(-0.0025308 -0.000612795 0.00380908)
(-0.00196476 -0.00110473 0.00448314)
(-0.00115723 -0.00155895 0.00510907)
(-0.000164928 -0.00188661 0.00562886)
(0.000899425 -0.00201786 0.00597949)
(0.00184879 -0.00195851 0.00609559)
(0.0025042 -0.00179552 0.00591469)
(0.00277201 -0.00164222 0.00542448)
(0.00253419 -0.0015495 0.00466529)
(0.00189237 -0.00150949 0.00371624)
(0.00100933 -0.00148674 0.00267139)
(4.39426e-05 -0.00143857 0.00162133)
(-0.000878405 -0.00133506 0.000634229)
(-0.0016732 -0.00116451 -0.000255673)
(-0.00229045 -0.000927856 -0.00104826)
(-0.00270213 -0.000629603 -0.00176829)
(-0.00288988 -0.000271937 -0.00245109)
(-0.00283752 0.000144596 -0.00312717)
(-0.0025308 0.000612795 -0.00380908)
(-0.00196476 0.00110473 -0.00448314)
(-0.00115723 0.00155895 -0.00510907)
(-0.000164928 0.00188661 -0.00562886)
(0.000899425 0.00201786 -0.00597949)
(0.00184879 0.00195851 -0.00609559)
(0.00172966 0.00183997 -0.00544125)
(0.0018401 0.00155859 -0.00511067)
(0.00175087 0.00139988 -0.0046272)
(0.00144052 0.00139358 -0.00396032)
(0.00092872 0.00149962 -0.0031178)
(0.0002799 0.00163728 -0.0021474)
(-0.000412058 0.00172777 -0.00111407)
(-0.00104978 0.00171776 -7.54026e-05)
(-0.00155214 0.00158144 0.000931241)
(-0.0018613 0.00131219 0.001888)
(-0.00194179 0.00091479 0.00278802)
(-0.00177904 0.000402406 0.00362498)
(-0.00138258 -0.000200858 0.00438319)
(-0.000794355 -0.000851716 0.0050297)
(-9.66328e-05 -0.00147524 0.00551296)
(0.000593389 -0.00196076 0.00577897)
(0.00115315 -0.00219301 0.00581184)
(0.00150774 -0.00212267 0.00567265)
(0.00172966 -0.00183997 0.00544125)
(0.0018401 -0.00155859 0.00511067)
(0.00175087 -0.00139988 0.0046272)
(0.00144052 -0.00139358 0.00396032)
(0.00092872 -0.00149962 0.0031178)
(0.0002799 -0.00163728 0.0021474)
(-0.000412058 -0.00172777 0.00111407)
(-0.00104978 -0.00171776 7.54026e-05)
(-0.00155214 -0.00158144 -0.000931241)
(-0.0018613 -0.00131219 -0.001888)
(-0.00194179 -0.00091479 -0.00278802)
(-0.00177904 -0.000402406 -0.00362498)
(-0.00138258 0.000200858 -0.00438319)
(-0.000794355 0.000851716 -0.0050297)
(-9.66328e-05 0.00147524 -0.00551296)
(0.000593389 0.00196076 -0.00577897)
(0.00115315 0.00219301 -0.00581184)
(0.00150774 0.00212267 -0.00567265)
(0.00485869 0.00288966 -0.00765116)
(0.00516452 0.00252068 -0.00691023)
(0.00436227 0.00217331 -0.00573811)
(0.00282716 0.00184631 -0.00434849)
(0.000972945 0.00151235 -0.00292913)
(-0.000865847 0.0011529 -0.00161505)
(-0.00248257 0.000765874 -0.000479277)
(-0.00378755 0.000358581 0.000464929)
(-0.00476311 -6.08247e-05 0.00125049)
(-0.00541743 -0.000489738 0.00193822)
(-0.00575272 -0.000933781 0.00259761)
(-0.00574822 -0.00140278 0.00328836)
(-0.00535385 -0.00189871 0.00404661)
(-0.00449445 -0.00239946 0.00487945)
(-0.0030964 -0.00284914 0.00576492)
(-0.00115844 -0.00317 0.00664362)
(0.00113921 -0.00329617 0.00739428)
(0.00335713 -0.00319495 0.00780888)
(0.00485869 -0.00288966 0.00765116)
(0.00516452 -0.00252068 0.00691023)
(0.00436227 -0.00217331 0.00573811)
(0.00282716 -0.00184631 0.00434849)
(0.000972945 -0.00151235 0.00292913)
(-0.000865847 -0.0011529 0.00161505)
(-0.00248257 -0.000765874 0.000479277)
(-0.00378755 -0.000358581 -0.000464929)
(-0.00476311 6.08247e-05 -0.00125049)
(-0.00541743 0.000489738 -0.00193822)
(-0.00575272 0.000933781 -0.00259761)
(-0.00574822 0.00140278 -0.00328836)
(-0.00535385 0.00189871 -0.00404661)
(-0.00449445 0.00239946 -0.00487945)
(-0.0030964 0.00284914 -0.00576492)
(-0.00115844 0.00317 -0.00664362)
(0.00113921 0.00329617 -0.00739428)
(0.00335713 0.00319495 -0.00780888)
(0.00381306 0.00257262 -0.00726636)
(0.00398201 0.00226367 -0.00668099)
(0.00349913 0.00203527 -0.00578893)
(0.00252557 0.00189032 -0.00466409)
(0.0012672 0.00178088 -0.00340723)
(-7.18338e-05 0.00165226 -0.0021237)
(-0.00132738 0.0014658 -0.0008962)
(-0.00239032 0.0012038 0.000230631)
(-0.00319923 0.000863899 0.00125013)
(-0.00372205 0.000450237 0.00218293)
(-0.00393838 -3.25841e-05 0.00306157)
(-0.00382856 -0.000579223 0.00391503)
(-0.00337187 -0.00117644 0.00475602)
(-0.00255469 -0.00179092 0.00557301)
(-0.00139032 -0.00235757 0.00632718)
(4.86493e-05 -0.00278172 0.00695456)
(0.00159283 -0.0029688 0.00737357)
(0.00295555 -0.00287337 0.00749844)
(0.00381306 -0.00257262 0.00726636)
(0.00398201 -0.00226367 0.00668099)
(0.00349913 -0.00203527 0.00578893)
(0.00252557 -0.00189032 0.00466409)
(0.0012672 -0.00178088 0.00340723)
(-7.18338e-05 -0.00165226 0.0021237)
(-0.00132738 -0.0014658 0.0008962)
(-0.00239032 -0.0012038 -0.000230631)
(-0.00319923 -0.000863899 -0.00125013)
(-0.00372205 -0.000450237 -0.00218293)
(-0.00393838 3.25841e-05 -0.00306157)
(-0.00382856 0.000579223 -0.00391503)
(-0.00337187 0.00117644 -0.00475602)
(-0.00255469 0.00179092 -0.00557301)
(-0.00139032 0.00235757 -0.00632718)
(4.86493e-05 0.00278172 -0.00695456)
(0.00159283 0.0029688 -0.00737357)
(0.00295555 0.00287337 -0.00749844)
(0.00280243 0.0023873 -0.0068935)
(0.00289349 0.00211759 -0.00647152)
(0.00273035 0.00195638 -0.00582031)
(0.00229842 0.00192824 -0.00492565)
(0.00161848 0.00198884 -0.00382224)
(0.000767043 0.00205916 -0.00258172)
(-0.00013775 0.00206193 -0.0012858)
(-0.00097056 0.00194574 -2.17458e-06)
(-0.00162758 0.00168875 0.00122663)
(-0.00203646 0.00129054 0.00238071)
(-0.00215335 0.00076389 0.00345327)
(-0.00195924 0.000130917 0.00444027)
(-0.0014632 -0.000576047 0.00533069)
(-0.000713682 -0.00130751 0.00609774)
(0.00019074 -0.00198442 0.00669564)
(0.00111121 -0.00249543 0.00707367)
(0.00190703 -0.00273085 0.00720897)
(0.00247848 -0.0026588 0.0071314)
(0.00280243 -0.0023873 0.0068935)
(0.00289349 -0.00211759 0.00647152)
(0.00273035 -0.00195638 0.00582031)
(0.00229842 -0.00192824 0.00492565)
(0.00161848 -0.00198884 0.00382224)
(0.000767043 -0.00205916 0.00258172)
(-0.00013775 -0.00206193 0.0012858)
(-0.00097056 -0.00194574 2.17458e-06)
(-0.00162758 -0.00168875 -0.00122663)
(-0.00203646 -0.00129054 -0.00238071)
(-0.00215335 -0.00076389 -0.00345327)
(-0.00195924 -0.000130917 -0.00444027)
(-0.0014632 0.000576047 -0.00533069)
(-0.000713682 0.00130751 -0.00609774)
(0.00019074 0.00198442 -0.00669564)
(0.00111121 0.00249543 -0.00707367)
(0.00190703 0.00273085 -0.00720897)
(0.00247848 0.0026588 -0.0071314)
(0.00538213 0.00379496 -0.00818033)
(0.00560703 0.00312571 -0.00747615)
(0.00462922 0.0024596 -0.00637476)
(0.0027929 0.00185887 -0.00502767)
(0.000568043 0.0013179 -0.00359185)
(-0.00163134 0.000809311 -0.00219803)
(-0.00354423 0.000311262 -0.000929141)
(-0.0050611 -0.000189743 0.000186823)
(-0.00616397 -0.000703177 0.0011664)
(-0.0068644 -0.00123761 0.00205279)
(-0.00716534 -0.00180171 0.00289803)
(-0.00704311 -0.00240059 0.00374762)
(-0.00644046 -0.00302539 0.00463035)
(-0.00527193 -0.00363896 0.0055542)
(-0.00346559 -0.00416747 0.00649895)
(-0.00107629 -0.00451146 0.00739091)
(0.00157705 -0.00457877 0.00808145)
(0.00392525 -0.00432505 0.0083853)
(0.00538213 -0.00379496 0.00818033)
(0.00560703 -0.00312571 0.00747615)
(0.00462922 -0.0024596 0.00637476)
(0.0027929 -0.00185887 0.00502767)
(0.000568043 -0.0013179 0.00359185)
(-0.00163134 -0.000809311 0.00219803)
(-0.00354423 -0.000311262 0.000929141)
(-0.0050611 0.000189743 -0.000186823)
(-0.00616397 0.000703177 -0.0011664)
(-0.0068644 0.00123761 -0.00205279)
(-0.00716534 0.00180171 -0.00289803)
(-0.00704311 0.00240059 -0.00374762)
(-0.00644046 0.00302539 -0.00463035)
(-0.00527193 0.00363896 -0.0055542)
(-0.00346559 0.00416747 -0.00649895)
(-0.00107629 0.00451146 -0.00739091)
(0.00157705 0.00457877 -0.00808145)
(0.00392525 0.00432505 -0.0083853)
(0.00429125 0.0032553 -0.00792833)
(0.00444806 0.00281592 -0.00733003)
(0.00386583 0.00241611 -0.00640664)
(0.00270718 0.00209682 -0.00522816)
(0.00121629 0.00183006 -0.00389215)
(-0.000360514 0.00156456 -0.00250483)
(-0.00182724 0.00125799 -0.00115333)
(-0.00305629 0.00088654 0.000111511)
(-0.00397748 0.00044188 0.00127502)
(-0.00455454 -7.50003e-05 0.00234812)
(-0.00476421 -0.000658209 0.00335367)
(-0.00458419 -0.0012968 0.00431358)
(-0.00399135 -0.00196922 0.0052386)
(-0.00297194 -0.00263321 0.0061209)
(-0.00155058 -0.00321638 0.00692745)
(0.000159713 -0.00362183 0.00759459)
(0.00191812 -0.00376268 0.00803426)
(0.00339384 -0.00361555 0.00816203)
(0.00429125 -0.0032553 0.00792833)
(0.00444806 -0.00281592 0.00733003)
(0.00386583 -0.00241611 0.00640664)
(0.00270718 -0.00209682 0.00522816)
(0.00121629 -0.00183006 0.00389215)
(-0.000360514 -0.00156456 0.00250483)
(-0.00182724 -0.00125799 0.00115333)
(-0.00305629 -0.00088654 -0.000111511)
(-0.00397748 -0.00044188 -0.00127502)
(-0.00455454 7.50003e-05 -0.00234812)
(-0.00476421 0.000658209 -0.00335367)
(-0.00458419 0.0012968 -0.00431358)
(-0.00399135 0.00196922 -0.0052386)
(-0.00297194 0.00263321 -0.0061209)
(-0.00155058 0.00321638 -0.00692745)
(0.000159713 0.00362183 -0.00759459)
(0.00191812 0.00376268 -0.00803426)
(0.00339384 0.00361555 -0.00816203)
(0.00323431 0.0028811 -0.00779044)
(0.00335471 0.00267164 -0.00729708)
(0.00317225 0.00250071 -0.00651051)
(0.00268004 0.00240072 -0.00545726)
(0.00190878 0.00234776 -0.00419865)
(0.000942547 0.0022841 -0.00281704)
(-8.83123e-05 0.00214902 -0.00139517)
(-0.00104047 0.00190141 1.51538e-06)
(-0.00179292 0.00152519 0.0013321)
(-0.0022616 0.00102409 0.00257652)
(-0.00239634 0.000415411 0.00372715)
(-0.00217595 -0.000273442 0.00478058)
(-0.00161203 -0.00100527 0.00572957)
(-0.000763013 -0.00172836 0.00655517)
(0.000254085 -0.00236836 0.00722407)
(0.00128162 -0.00283416 0.00770042)
(0.00217297 -0.00305766 0.00796305)
(0.00283541 -0.00304529 0.00800102)
(0.00323431 -0.0028811 0.00779044)
(0.00335471 -0.00267164 0.00729708)
(0.00317225 -0.00250071 0.00651051)
(0.00268004 -0.00240072 0.00545726)
(0.00190878 -0.00234776 0.00419865)
(0.000942547 -0.0022841 0.00281704)
(-8.83123e-05 -0.00214902 0.00139517)
(-0.00104047 -0.00190141 -1.51539e-06)
(-0.00179292 -0.00152519 -0.0013321)
(-0.0022616 -0.00102409 -0.00257652)
(-0.00239634 -0.000415411 -0.00372715)
(-0.00217595 0.000273442 -0.00478058)
(-0.00161203 0.00100527 -0.00572957)
(-0.000763013 0.00172836 -0.00655517)
(0.000254085 0.00236836 -0.00722407)
(0.00128162 0.00283416 -0.00770042)
(0.00217297 0.00305766 -0.00796305)
(0.00283541 0.00304529 -0.00800102)
(0.0049711 0.00433559 -0.00811951)
(0.00512599 0.0034266 -0.00752067)
(0.00412988 0.0024994 -0.00657798)
(0.00226324 0.0016439 -0.00538296)
(-4.00868e-05 0.000882861 -0.00404553)
(-0.00235245 0.000198589 -0.00267819)
(-0.00437796 -0.000436732 -0.00136881)
(-0.00598068 -0.00104997 -0.000161587)
(-0.00712973 -0.00166501 0.000939933)
(-0.0078297 -0.00230014 0.00195726)
(-0.00807795 -0.00296505 0.0029216)
(-0.0078471 -0.00365604 0.0038626)
(-0.00708118 -0.00434708 0.0048016)
(-0.00570899 -0.00497904 0.00574555)
(-0.00370272 -0.00545826 0.00666996)
(-0.00119641 -0.00567772 0.00749291)
(0.00143202 -0.0055586 0.00808163)
(0.00364951 -0.00508862 0.00831085)
(0.0049711 -0.00433559 0.00811951)
(0.00512599 -0.0034266 0.00752067)
(0.00412988 -0.0024994 0.00657798)
(0.00226324 -0.0016439 0.00538296)
(-4.00868e-05 -0.000882861 0.00404553)
(-0.00235245 -0.000198589 0.00267819)
(-0.00437796 0.000436732 0.00136881)
(-0.00598068 0.00104997 0.000161587)
(-0.00712973 0.00166501 -0.000939933)
(-0.0078297 0.00230014 -0.00195726)
(-0.00807795 0.00296505 -0.0029216)
(-0.0078471 0.00365604 -0.0038626)
(-0.00708118 0.00434708 -0.0048016)
(-0.00570899 0.00497904 -0.00574555)
(-0.00370272 0.00545826 -0.00666996)
(-0.00119641 0.00567772 -0.00749291)
(0.00143202 0.0055586 -0.00808163)
(0.00364951 0.00508862 -0.00831085)
(0.00399824 0.00370066 -0.00797737)
(0.00412186 0.00314184 -0.00743244)
(0.00352341 0.00258223 -0.00657263)
(0.00234158 0.00207669 -0.00545221)
(0.00080418 0.0016238 -0.004155)
(-0.000838848 0.0011911 -0.00277864)
(-0.00237645 0.000743182 -0.0014084)
(-0.00366595 0.000254387 -9.91471e-05)
(-0.00462603 -0.000289155 0.00112592)
(-0.00521259 -0.000890646 0.00226601)
(-0.00539721 -0.00154371 0.00333182)
(-0.00515597 -0.00223152 0.00433609)
(-0.00446922 -0.0029226 0.00528586)
(-0.00333595 -0.00356393 0.00617494)
(-0.00180847 -0.00407828 0.00697453)
(-3.77349e-05 -0.00437897 0.00762631)
(0.00171712 -0.00440532 0.00805236)
(0.00314923 -0.00415701 0.00818249)
(0.00399824 -0.00370066 0.00797737)
(0.00412186 -0.00314184 0.00743244)
(0.00352341 -0.00258223 0.00657263)
(0.00234158 -0.00207669 0.00545221)
(0.00080418 -0.0016238 0.004155)
(-0.000838848 -0.0011911 0.00277864)
(-0.00237645 -0.000743182 0.0014084)
(-0.00366595 -0.000254387 9.91471e-05)
(-0.00462603 0.000289155 -0.00112592)
(-0.00521259 0.000890646 -0.00226601)
(-0.00539721 0.00154371 -0.00333182)
(-0.00515597 0.00223152 -0.00433609)
(-0.00446922 0.0029226 -0.00528586)
(-0.00333595 0.00356393 -0.00617494)
(-0.00180847 0.00407828 -0.00697453)
(-3.77349e-05 0.00437897 -0.00762631)
(0.00171712 0.00440532 -0.00805236)
(0.00314923 0.00415701 -0.00818249)
(0.00304136 0.00324462 -0.00802989)
(0.0031599 0.00305466 -0.00753477)
(0.00296647 0.00284607 -0.00671865)
(0.00246206 0.00264503 -0.00562709)
(0.00167756 0.00244677 -0.00433812)
(0.000691736 0.00222169 -0.00293854)
(-0.00036842 0.001933 -0.00150627)
(-0.00135509 0.0015538 -0.000100479)
(-0.00213771 0.00107404 0.00124105)
(-0.00262364 0.00049937 0.00249779)
(-0.00275836 -0.000151608 0.00365999)
(-0.00252121 -0.000849325 0.00472288)
(-0.00192944 -0.00155427 0.00568082)
(-0.00105163 -0.00221587 0.00652136)
(-1.39905e-05 -0.00277237 0.00722276)
(0.00102738 -0.00316304 0.00775843)
(0.00193679 -0.00335559 0.00809904)
(0.00262479 -0.00336538 0.00820553)
(0.00304136 -0.00324462 0.00802989)
(0.0031599 -0.00305466 0.00753477)
(0.00296647 -0.00284607 0.00671865)
(0.00246206 -0.00264503 0.00562709)
(0.00167756 -0.00244677 0.00433812)
(0.000691736 -0.00222169 0.00293854)
(-0.00036842 -0.001933 0.00150627)
(-0.00135509 -0.0015538 0.000100479)
(-0.00213771 -0.00107404 -0.00124105)
(-0.00262364 -0.00049937 -0.00249779)
(-0.00275836 0.000151608 -0.00365999)
(-0.00252121 0.000849325 -0.00472288)
(-0.00192944 0.00155427 -0.00568082)
(-0.00105163 0.00221587 -0.00652136)
(-1.39905e-05 0.00277237 -0.00722276)
(0.00102738 0.00316304 -0.00775843)
(0.00193679 0.00335559 -0.00809904)
(0.00262479 0.00336538 -0.00820553)
(0.00376885 0.00460228 -0.00764623)
(0.00389226 0.00348239 -0.00719599)
(0.00299441 0.00233662 -0.00645279)
(0.0012899 0.00125986 -0.0054643)
(-0.000863317 0.00029203 -0.00429817)
(-0.00308022 -0.000571784 -0.00304106)
(-0.00506305 -0.00135676 -0.00177755)
(-0.00665089 -0.00209322 -0.000564647)
(-0.007788 -0.00281054 0.000575257)
(-0.00846185 -0.00353089 0.00164397)
(-0.00866022 -0.00426209 0.00265451)
(-0.00835464 -0.00499059 0.00362259)
(-0.00750139 -0.0056741 0.00456141)
(-0.00606365 -0.00623718 0.00547274)
(-0.00407205 -0.00657944 0.00632831)
(-0.00170914 -0.00660511 0.0070568)
(0.000668506 -0.00626298 0.00756347)
(0.00262198 -0.00556908 0.0077712)
(0.00376885 -0.00460228 0.00764623)
(0.00389226 -0.00348239 0.00719599)
(0.00299441 -0.00233662 0.00645279)
(0.0012899 -0.00125986 0.0054643)
(-0.000863317 -0.00029203 0.00429817)
(-0.00308022 0.000571784 0.00304106)
(-0.00506305 0.00135676 0.00177755)
(-0.00665089 0.00209322 0.000564647)
(-0.007788 0.00281054 -0.000575257)
(-0.00846185 0.00353089 -0.00164397)
(-0.00866022 0.00426209 -0.00265451)
(-0.00835464 0.00499059 -0.00362259)
(-0.00750139 0.0056741 -0.00456141)
(-0.00606365 0.00623718 -0.00547274)
(-0.00407205 0.00657944 -0.00632831)
(-0.00170914 0.00660511 -0.0070568)
(0.000668506 0.00626298 -0.00756347)
(0.00262198 0.00556908 -0.0077712)
(0.00303083 0.00394311 -0.00756449)
(0.00313126 0.00324022 -0.00711979)
(0.00257996 0.00251613 -0.00639006)
(0.00148841 0.00182799 -0.0054103)
(4.81282e-05 0.00119078 -0.0042426)
(-0.0015176 0.000589382 -0.00296759)
(-0.00300549 -1.57975e-06 -0.00166387)
(-0.00426607 -0.00060507 -0.000389286)
(-0.00520619 -0.00123663 0.000824314)
(-0.00577114 -0.00190158 0.00196493)
(-0.00592636 -0.00259269 0.00303191)
(-0.00564816 -0.00328791 0.00402904)
(-0.00492609 -0.00394735 0.00495837)
(-0.00377936 -0.00451095 0.00581271)
(-0.00228776 -0.00490355 0.00656653)
(-0.000617571 -0.00505481 0.00717241)
(0.000990994 -0.00492757 0.00757149)
(0.00227827 -0.00453601 0.00771236)
(0.00303083 -0.00394311 0.00756449)
(0.00313126 -0.00324022 0.00711979)
(0.00257996 -0.00251613 0.00639006)
(0.00148841 -0.00182799 0.0054103)
(4.81282e-05 -0.00119078 0.0042426)
(-0.0015176 -0.000589382 0.00296759)
(-0.00300549 1.57975e-06 0.00166387)
(-0.00426607 0.00060507 0.000389286)
(-0.00520619 0.00123663 -0.000824314)
(-0.00577114 0.00190158 -0.00196493)
(-0.00592636 0.00259269 -0.00303191)
(-0.00564816 0.00328791 -0.00402904)
(-0.00492609 0.00394735 -0.00495837)
(-0.00377936 0.00451095 -0.00581271)
(-0.00228776 0.00490355 -0.00656653)
(-0.000617571 0.00505481 -0.00717241)
(0.000990994 0.00492757 -0.00757149)
(0.00227827 0.00453601 -0.00771236)
(0.00228087 0.00347186 -0.00774677)
(0.00238223 0.00322067 -0.00730308)
(0.00218872 0.00291985 -0.00654792)
(0.00170778 0.00259136 -0.00552752)
(0.000970201 0.00224113 -0.00431738)
(4.43822e-05 0.00185928 -0.0029984)
(-0.000958323 0.0014283 -0.00164115)
(-0.00190076 0.000934076 -0.000299584)
(-0.00265356 0.000372227 0.00098974)
(-0.00312033 -0.000250235 0.00220441)
(-0.00324403 -0.000914663 0.00333159)
(-0.00300572 -0.00159137 0.00436402)
(-0.00242833 -0.00224103 0.00529581)
(-0.00158579 -0.00281698 0.00611783)
(-0.000601145 -0.00327067 0.00681469)
(0.000382842 -0.0035636 0.00736397)
(0.00124276 -0.00368139 0.00773342)
(0.00189254 -0.003639 0.007878)
(0.00228087 -0.00347186 0.00774677)
(0.00238223 -0.00322067 0.00730308)
(0.00218872 -0.00291985 0.00654792)
(0.00170778 -0.00259136 0.00552752)
(0.000970201 -0.00224113 0.00431738)
(4.43822e-05 -0.00185928 0.0029984)
(-0.000958323 -0.0014283 0.00164115)
(-0.00190076 -0.000934076 0.000299584)
(-0.00265356 -0.000372227 -0.00098974)
(-0.00312033 0.000250235 -0.00220441)
(-0.00324403 0.000914663 -0.00333159)
(-0.00300572 0.00159137 -0.00436402)
(-0.00242833 0.00224103 -0.00529581)
(-0.00158579 0.00281698 -0.00611783)
(-0.000601145 0.00327067 -0.00681469)
(0.000382842 0.0035636 -0.00736397)
(0.00124276 0.00368139 -0.00773342)
(0.00189254 0.003639 -0.007878)
(0.00197283 0.00470303 -0.00692632)
(0.00210223 0.0034072 -0.00664725)
(0.00137892 0.00208023 -0.00611892)
(-4.90155e-05 0.000816587 -0.00535922)
(-0.0019118 -0.000334327 -0.00440401)
(-0.0038942 -0.0013665 -0.00331416)
(-0.00572287 -0.00229889 -0.00216416)
(-0.00722123 -0.00315835 -0.00101776)
(-0.00830464 -0.00397101 8.74894e-05)
(-0.00893839 -0.00475562 0.00113754)
(-0.00910035 -0.00551505 0.00213178)
(-0.00876567 -0.00622801 0.00307533)
(-0.00791099 -0.00684363 0.00397348)
(-0.00653894 -0.00728294 0.00482249)
(-0.00472451 -0.00745369 0.00559686)
(-0.00265802 -0.00728047 0.00624664)
(-0.000636667 -0.00673553 0.0067126)
(0.00100314 -0.00584964 0.00694717)
(0.00197283 -0.00470303 0.00692632)
(0.00210223 -0.0034072 0.00664725)
(0.00137892 -0.00208023 0.00611892)
(-4.90155e-05 -0.000816587 0.00535922)
(-0.0019118 0.000334327 0.00440401)
(-0.0038942 0.0013665 0.00331416)
(-0.00572287 0.00229889 0.00216416)
(-0.00722123 0.00315835 0.00101776)
(-0.00830464 0.00397101 -8.74894e-05)
(-0.00893839 0.00475562 -0.00113754)