/*--------------------------------*- C++ -*----------------------------------*\
| =========                 |                                                 |
| \\      /  F ield         | OpenFOAM: The Open Source CFD Toolbox           |
|  \\    /   O peration     | Version:  2312                                  |
|   \\  /    A nd           | Website:  www.openfoam.com                      |
|    \\/     M anipulation  |                                                 |
\*---------------------------------------------------------------------------*/
FoamFile
{
    version     2.0;
    format      ascii;
    arch        "LSB;label=32;scalar=64";
    class       volVectorField;
    location    "0.4";
    object      D_0_0;
}
// * * * * * * * * * * * * * * * * * * * * * * * * * * * * * * * * * * * * * //

dimensions      [0 1 0 0 0 0 0];

internalField   nonuniform List<vector> 
1620
(
(0.000560315 6.07517e-05 -0.00159158)
(0.000737291 0.000196115 -0.00150039)
(0.000758015 0.000347824 -0.00123037)
(0.000645572 0.000428032 -0.000854155)
(0.000461829 0.000407836 -0.000463836)
(0.000260403 0.000307278 -0.00012763)
(7.08488e-05 0.000163081 0.000122524)
(-9.54481e-05 7.80991e-06 0.000284575)
(-0.000235791 -0.000136464 0.00037502)
(-0.000349755 -0.000257346 0.000419664)
(-0.000435859 -0.000349406 0.000447366)
(-0.000490365 -0.000410709 0.000485649)
(-0.000507566 -0.000438346 0.000557389)
(-0.000480322 -0.000424592 0.000678272)
(-0.00039873 -0.000359017 0.000854115)
(-0.000247862 -0.000242552 0.00107576)
(-1.53643e-05 -0.000108563 0.00131158)
(0.000279168 -2.70836e-05 0.00150678)
(0.000560315 -6.07517e-05 0.00159158)
(0.000737291 -0.000196115 0.00150039)
(0.000758015 -0.000347824 0.00123037)
(0.000645572 -0.000428032 0.000854155)
(0.000461829 -0.000407836 0.000463836)
(0.000260403 -0.000307278 0.00012763)
(7.08488e-05 -0.000163081 -0.000122524)
(-9.54481e-05 -7.80991e-06 -0.000284575)
(-0.000235791 0.000136464 -0.00037502)
(-0.000349755 0.000257346 -0.000419664)
(-0.000435859 0.000349406 -0.000447366)
(-0.000490365 0.000410709 -0.000485649)
(-0.000507566 0.000438346 -0.000557389)
(-0.000480322 0.000424592 -0.000678272)
(-0.00039873 0.000359017 -0.000854115)
(-0.000247862 0.000242552 -0.00107576)
(-1.53643e-05 0.000108563 -0.00131158)
(0.000279168 2.70836e-05 -0.00150678)
(0.000278875 0.000307219 -0.00133871)
(0.000343697 0.00030466 -0.00122778)
(0.000339064 0.000323257 -0.00104599)
(0.000265272 0.000345424 -0.000816235)
(0.000140698 0.000354595 -0.000568963)
(-8.81158e-06 0.000344912 -0.000330278)
(-0.000160266 0.000317853 -0.000116071)
(-0.000296704 0.000277342 6.8719e-05)
(-0.000406474 0.000226804 0.000228148)
(-0.000481681 0.00016764 0.000372116)
(-0.000516959 9.87037e-05 0.000512471)
(-0.000509223 1.74395e-05 0.000658674)
(-0.000458784 -7.66473e-05 0.000813858)
(-0.000371027 -0.000176994 0.000972794)
(-0.000256004 -0.000267187 0.00112327)
(-0.000123813 -0.000326049 0.00125011)
(1.93131e-05 -0.000341855 0.00133801)
(0.000162444 -0.000326185 0.00137202)
(0.000278875 -0.000307219 0.00133871)
(0.000343697 -0.00030466 0.00122778)
(0.000339064 -0.000323257 0.00104599)
(0.000265272 -0.000345424 0.000816235)
(0.000140698 -0.000354595 0.000568963)
(-8.81158e-06 -0.000344912 0.000330278)
(-0.000160266 -0.000317853 0.000116071)
(-0.000296704 -0.000277342 -6.8719e-05)
(-0.000406474 -0.000226804 -0.000228148)
(-0.000481681 -0.00016764 -0.000372116)
(-0.000516959 -9.87037e-05 -0.000512471)
(-0.000509223 -1.74395e-05 -0.000658674)
(-0.000458784 7.66473e-05 -0.000813858)
(-0.000371027 0.000176994 -0.000972794)
(-0.000256004 0.000267187 -0.00112327)
(-0.000123813 0.000326049 -0.00125011)
(1.93131e-05 0.000341855 -0.00133801)
(0.000162444 0.000326185 -0.00137202)
(6.33769e-05 0.000444168 -0.0011365)
(5.27775e-05 0.000355376 -0.00102453)
(2.78591e-05 0.00029116 -0.000916924)
(-2.10351e-05 0.000285306 -0.000802488)
(-0.000104252 0.000335695 -0.000666246)
(-0.000218808 0.000419158 -0.000500407)
(-0.000348822 0.000507705 -0.000305845)
(-0.000472808 0.000577807 -8.88137e-05)
(-0.000570322 0.000613076 0.000142869)
(-0.000625536 0.000603212 0.000381854)
(-0.000628519 0.000542122 0.000620832)
(-0.000576098 0.000427293 0.000850384)
(-0.000473647 0.000261541 0.00105666)
(-0.000337285 5.70867e-05 0.00122119)
(-0.000193268 -0.000160087 0.00132531)
(-7.03136e-05 -0.00035032 0.00135873)
(1.32208e-05 -0.000470855 0.0013261)
(5.49094e-05 -0.000497758 0.00124449)
(6.33769e-05 -0.000444168 0.0011365)
(5.27775e-05 -0.000355376 0.00102453)
(2.78591e-05 -0.00029116 0.000916924)
(-2.10351e-05 -0.000285306 0.000802488)
(-0.000104252 -0.000335695 0.000666246)
(-0.000218808 -0.000419158 0.000500407)
(-0.000348822 -0.000507705 0.000305845)
(-0.000472808 -0.000577807 8.88137e-05)
(-0.000570322 -0.000613076 -0.000142869)
(-0.000625536 -0.000603212 -0.000381854)
(-0.000628519 -0.000542122 -0.000620832)
(-0.000576098 -0.000427293 -0.000850384)
(-0.000473647 -0.000261541 -0.00105666)
(-0.000337285 -5.70867e-05 -0.00122119)
(-0.000193268 0.000160087 -0.00132531)
(-7.03136e-05 0.00035032 -0.00135873)
(1.32208e-05 0.000470855 -0.0013261)
(5.49094e-05 0.000497758 -0.00124449)
(0.00174266 0.000611727 -0.00415851)
(0.00217188 0.000762789 -0.00378068)
(0.00211558 0.000933651 -0.00307108)
(0.00167162 0.00100918 -0.00219545)
(0.00102778 0.000956637 -0.00131266)
(0.000341268 0.000798513 -0.000535511)
(-0.000294819 0.000575554 8.16467e-05)
(-0.000839009 0.000325963 0.000534991)
(-0.00127885 7.7684e-05 0.00085611)
(-0.00161214 -0.000153781 0.00109691)
(-0.0018346 -0.000364714 0.00131604)
(-0.00193375 -0.000558469 0.00156661)
(-0.00188878 -0.000735164 0.00188599)
(-0.00167584 -0.000877845 0.00228964)
(-0.00127585 -0.000946095 0.00277044)
(-0.000681531 -0.000897969 0.00329707)
(9.11083e-05 -0.000747179 0.00379539)
(0.000964776 -0.000603259 0.00412815)
(0.00174266 -0.000611727 0.00415851)
(0.00217188 -0.000762789 0.00378068)
(0.00211558 -0.000933651 0.00307108)
(0.00167162 -0.00100918 0.00219545)
(0.00102778 -0.000956637 0.00131266)
(0.000341268 -0.000798513 0.000535511)
(-0.000294819 -0.000575554 -8.16467e-05)
(-0.000839009 -0.000325963 -0.000534991)
(-0.00127885 -7.7684e-05 -0.00085611)
(-0.00161214 0.000153781 -0.00109691)
(-0.0018346 0.000364714 -0.00131604)
(-0.00193375 0.000558469 -0.00156661)
(-0.00188878 0.000735164 -0.00188599)
(-0.00167584 0.000877845 -0.00228964)
(-0.00127585 0.000946095 -0.00277044)
(-0.000681531 0.000897969 -0.00329707)
(9.11083e-05 0.000747179 -0.00379539)
(0.000964776 0.000603259 -0.00412815)
(0.00117005 0.000976048 -0.00383476)
(0.00139105 0.000910978 -0.00352528)
(0.00134885 0.000908055 -0.00302277)
(0.0010572 0.000929417 -0.00239092)
(0.00060193 0.000941126 -0.00170245)
(7.87858e-05 0.000921829 -0.00102211)
(-0.000435944 0.000861805 -0.000394551)
(-0.000890047 0.000760126 0.000160764)
(-0.00125062 0.000620385 0.000647993)
(-0.00149714 0.000445755 0.0010882)
(-0.00161555 0.000235839 0.00150941)
(-0.0015953 -1.21377e-05 0.00193548)
(-0.00143109 -0.000296352 0.00237593)
(-0.00112899 -0.000598774 0.00281962)
(-0.000713238 -0.000875716 0.00323619)
(-0.000226087 -0.00106542 0.0035861)
(0.000284071 -0.00112422 0.00383064)
(0.000771432 -0.00106739 0.00392747)
(0.00117005 -0.000976048 0.00383476)
(0.00139105 -0.000910978 0.00352528)
(0.00134885 -0.000908055 0.00302277)
(0.0010572 -0.000929417 0.00239092)
(0.00060193 -0.000941126 0.00170245)
(7.87858e-05 -0.000921829 0.00102211)
(-0.000435944 -0.000861805 0.000394551)
(-0.000890047 -0.000760126 -0.000160764)
(-0.00125062 -0.000620385 -0.000647993)
(-0.00149714 -0.000445755 -0.0010882)
(-0.00161555 -0.000235839 -0.00150941)
(-0.0015953 1.21377e-05 -0.00193548)
(-0.00143109 0.000296352 -0.00237593)
(-0.00112899 0.000598774 -0.00281962)
(-0.000713238 0.000875716 -0.00323619)
(-0.000226087 0.00106542 -0.0035861)
(0.000284071 0.00112422 -0.00383064)
(0.000771432 0.00106739 -0.00392747)
(0.000671295 0.00120649 -0.00347597)
(0.000723719 0.000987112 -0.0032404)
(0.000691868 0.000854203 -0.00293805)
(0.000535613 0.000842205 -0.00253909)
(0.000252119 0.000925475 -0.0020376)
(-0.000122751 0.00104863 -0.00145245)
(-0.000531348 0.00115511 -0.000816533)
(-0.000912232 0.00120332 -0.000162755)
(-0.00121244 0.00116932 0.000485414)
(-0.00139277 0.00104207 0.00111549)
(-0.00142866 0.000818169 0.00172122)
(-0.00131095 0.000500074 0.00229501)
(-0.00104928 9.90553e-05 0.00282018)
(-0.00067846 -0.000357141 0.00326617)
(-0.000262437 -0.000814593 0.00359151)
(0.000116288 -0.00119075 0.00376077)
(0.000393118 -0.00139569 0.00377188)
(0.000564381 -0.00138194 0.0036638)
(0.000671295 -0.00120649 0.00347597)
(0.000723719 -0.000987112 0.0032404)
(0.000691868 -0.000854203 0.00293805)
(0.000535613 -0.000842205 0.00253909)
(0.000252119 -0.000925475 0.0020376)
(-0.000122751 -0.00104863 0.00145245)
(-0.000531348 -0.00115511 0.000816533)
(-0.000912232 -0.00120332 0.000162755)
(-0.00121244 -0.00116932 -0.000485414)
(-0.00139277 -0.00104207 -0.00111549)
(-0.00142866 -0.000818169 -0.00172122)
(-0.00131095 -0.000500074 -0.00229501)
(-0.00104928 -9.90553e-05 -0.00282018)
(-0.00067846 0.000357141 -0.00326617)
(-0.000262437 0.000814593 -0.00359151)
(0.000116288 0.00119075 -0.00376077)
(0.000393118 0.00139569 -0.00377188)
(0.000564381 0.00138194 -0.0036638)
(0.00340823 0.00164234 -0.00625039)
(0.00386163 0.00165411 -0.00564224)
(0.00346833 0.0016348 -0.00461202)
(0.00249351 0.00154092 -0.00338354)
(0.00124721 0.00136253 -0.0021538)
(-2.52865e-05 0.00111001 -0.00105366)
(-0.00117378 0.000805751 -0.000146626)
(-0.00212905 0.000476201 0.000562027)
(-0.00287173 0.000143514 0.00111072)
(-0.00340186 -0.000180694 0.00156437)
(-0.00371651 -0.000497301 0.00199638)
(-0.00379723 -0.000814965 0.00247133)
(-0.00360678 -0.00113751 0.00303088)
(-0.00309512 -0.00144632 0.00368666)
(-0.00221731 -0.0016896 0.00442128)
(-0.000968775 -0.00180178 0.00518801)
(0.000561277 -0.00176746 0.00588618)
(0.00213851 -0.00166975 0.00631086)
(0.00340823 -0.00164234 0.00625039)
(0.00386163 -0.00165411 0.00564224)
(0.00346833 -0.0016348 0.00461202)
(0.00249351 -0.00154092 0.00338354)
(0.00124721 -0.00136253 0.0021538)
(-2.52865e-05 -0.00111001 0.00105366)
(-0.00117378 -0.000805751 0.000146626)
(-0.00212905 -0.000476201 -0.000562027)
(-0.00287173 -0.000143514 -0.00111072)
(-0.00340186 0.000180694 -0.00156437)
(-0.00371651 0.000497301 -0.00199638)
(-0.00379723 0.000814965 -0.00247133)
(-0.00360678 0.00113751 -0.00303088)
(-0.00309512 0.00144632 -0.00368666)
(-0.00221731 0.0016896 -0.00442128)
(-0.000968775 0.00180178 -0.00518801)
(0.000561277 0.00176746 -0.00588618)
(0.00213851 0.00166975 -0.00631086)
(0.00254387 0.00173909 -0.00584298)
(0.00280844 0.00158999 -0.00536975)
(0.0025793 0.00149889 -0.00462947)
(0.00195453 0.00145667 -0.0037007)
(0.00109203 0.00142879 -0.0026766)
(0.000146438 0.001375 -0.00164653)
(-0.0007596 0.00126782 -0.000677521)
(-0.00154263 0.0010971 0.000196771)
(-0.0021525 0.000864321 0.000976187)
(-0.00256048 0.000573982 0.00168511)
(-0.0027476 0.000228111 0.00235847)
(-0.00269754 -0.000172928 0.00302672)
(-0.00239644 -0.000622322 0.0037027)
(-0.00184006 -0.0010932 0.0043734)
(-0.00104678 -0.00152646 0.00499937)
(-7.29923e-05 -0.00183714 0.00552323)
(0.000970524 -0.00195905 0.00588188)
(0.00190094 -0.00189845 0.00600936)
(0.00254387 -0.00173909 0.00584298)
(0.00280844 -0.00158999 0.00536975)
(0.0025793 -0.00149889 0.00462947)
(0.00195453 -0.00145667 0.0037007)
(0.00109203 -0.00142879 0.0026766)
(0.000146438 -0.001375 0.00164653)
(-0.0007596 -0.00126782 0.000677521)
(-0.00154263 -0.0010971 -0.000196771)
(-0.0021525 -0.000864321 -0.000976187)
(-0.00256048 -0.000573982 -0.00168511)
(-0.0027476 -0.000228111 -0.00235847)
(-0.00269754 0.000172928 -0.00302672)
(-0.00239644 0.000622322 -0.0037027)
(-0.00184006 0.0010932 -0.0043734)
(-0.00104678 0.00152646 -0.00499937)
(-7.29922e-05 0.00183714 -0.00552323)
(0.000970524 0.00195905 -0.00588188)
(0.00190094 0.00189845 -0.00600936)
(0.00177769 0.0017832 -0.0053587)
(0.00188532 0.00150348 -0.00504153)
(0.00179885 0.00134271 -0.0045736)
(0.0014979 0.00132974 -0.00392576)
(0.00100112 0.00142642 -0.00310565)
(0.000370038 0.0015554 -0.0021593)
(-0.000304999 0.00164072 -0.00114951)
(-0.00092928 0.00163046 -0.000132373)
(-0.00142285 0.0014991 0.000855313)
(-0.00172799 0.0012398 0.00179585)
(-0.00180901 0.000856758 0.00268258)
(-0.00165123 0.000362363 0.00350942)
(-0.00126421 -0.000220291 0.00426093)
(-0.000689593 -0.000849115 0.00490435)
(-8.14383e-06 -0.0014509 0.00538852)
(0.000665901 -0.00191781 0.00566016)
(0.00121326 -0.00213798 0.00570334)
(0.00156056 -0.00206386 0.00557708)
(0.00177769 -0.0017832 0.0053587)
(0.00188532 -0.00150348 0.00504153)
(0.00179885 -0.00134271 0.0045736)
(0.0014979 -0.00132974 0.00392576)
(0.00100112 -0.00142642 0.00310565)
(0.000370038 -0.0015554 0.0021593)
(-0.000304999 -0.00164072 0.00114951)
(-0.00092928 -0.00163046 0.000132373)
(-0.00142285 -0.0014991 -0.000855313)
(-0.00172799 -0.0012398 -0.00179585)
(-0.00180901 -0.000856758 -0.00268258)
(-0.00165123 -0.000362363 -0.00350942)
(-0.00126421 0.000220291 -0.00426093)
(-0.000689593 0.000849115 -0.00490435)
(-8.14383e-06 0.0014509 -0.00538852)
(0.000665901 0.00191781 -0.00566016)
(0.00121326 0.00213798 -0.00570334)
(0.00156056 0.00206386 -0.00557708)
(0.00490076 0.00280884 -0.00757636)
(0.00521321 0.00245387 -0.00685964)
(0.00444116 0.002117 -0.00571386)
(0.00294579 0.00179462 -0.00434936)
(0.00112839 0.00145987 -0.00295241)
(-0.000683358 0.00109682 -0.00165769)
(-0.00228368 0.000706632 -0.000538431)
(-0.00358028 0.000299201 0.00039174)
(-0.00455238 -0.000116003 0.00116532)
(-0.00520592 -0.000535999 0.00184269)
(-0.00554203 -0.000966331 0.002493)
(-0.0055397 -0.00141674 0.00317612)
(-0.0051495 -0.00188943 0.00392894)
(-0.00429849 -0.0023636 0.00475961)
(-0.00291734 -0.00278671 0.00564667)
(-0.0010093 -0.00308631 0.00653031)
(0.00124668 -0.0032017 0.00728886)
(0.00342275 -0.00310238 0.00771546)
(0.00490076 -0.00280884 0.00757636)
(0.00521321 -0.00245387 0.00685964)
(0.00444116 -0.002117 0.00571386)
(0.00294579 -0.00179462 0.00434936)
(0.00112839 -0.00145987 0.00295241)
(-0.000683358 -0.00109682 0.00165769)
(-0.00228368 -0.000706632 0.000538431)
(-0.00358028 -0.000299201 -0.00039174)
(-0.00455238 0.000116003 -0.00116532)
(-0.00520592 0.000535999 -0.00184269)
(-0.00554203 0.000966331 -0.002493)
(-0.0055397 0.00141674 -0.00317612)
(-0.0051495 0.00188943 -0.00392894)
(-0.00429849 0.0023636 -0.00475961)
(-0.00291734 0.00278671 -0.00564667)
(-0.0010093 0.00308631 -0.00653031)
(0.00124668 0.0032017 -0.00728886)
(0.00342275 0.00310238 -0.00771546)
(0.00386553 0.00249809 -0.00718045)
(0.00403746 0.0021958 -0.00661571)
(0.00357206 0.00197004 -0.00574685)
(0.00262456 0.00182284 -0.00464715)
(0.00139427 0.00170812 -0.00341598)
(7.99912e-05 0.00157415 -0.00215696)
(-0.00115696 0.00138497 -0.000951498)
(-0.00220788 0.00112448 0.000156206)
(-0.00301032 0.000790939 0.00115935)
(-0.00353093 0.000388446 0.00207828)
(-0.00374841 -7.86641e-05 0.00294546)
(-0.00364287 -0.000605465 0.00379007)
(-0.00319409 -0.00117941 0.00462526)
(-0.00238956 -0.00176852 0.00543993)
(-0.001244 -0.00231026 0.00619552)
(0.000169663 -0.00271392 0.00682824)
(0.00168478 -0.00288919 0.00725664)
(0.00302175 -0.00279253 0.00739505)
(0.00386553 -0.00249809 0.00718045)
(0.00403746 -0.0021958 0.00661571)
(0.00357206 -0.00197004 0.00574685)
(0.00262456 -0.00182284 0.00464715)
(0.00139427 -0.00170812 0.00341598)
(7.99912e-05 -0.00157415 0.00215696)
(-0.00115696 -0.00138497 0.000951498)
(-0.00220788 -0.00112448 -0.000156206)
(-0.00301032 -0.000790939 -0.00115935)
(-0.00353093 -0.000388446 -0.00207828)
(-0.00374841 7.86641e-05 -0.00294546)
(-0.00364287 0.000605465 -0.00379007)
(-0.00319409 0.00117941 -0.00462526)
(-0.00238956 0.00176852 -0.00543993)
(-0.001244 0.00231026 -0.00619552)
(0.000169663 0.00271392 -0.00682824)
(0.00168478 0.00288919 -0.00725664)
(0.00302175 0.00279253 -0.00739505)
(0.00286387 0.0023156 -0.00679317)
(0.0029533 0.00204583 -0.00638892)
(0.00279528 0.00188124 -0.00575964)
(0.00237624 0.00184583 -0.00489129)
(0.00171584 0.00189747 -0.00381697)
(0.000886939 0.00196049 -0.00260568)
(3.06617e-06 0.00196029 -0.00133684)
(-0.000813762 0.00184658 -7.70833e-05)
(-0.00146085 0.0015976 0.00113117)
(-0.00186553 0.00121258 0.00226797)
(-0.00198336 0.000703614 0.00332673)
(-0.00179517 9.18486e-05 0.0043037)
(-0.00131028 -0.000591583 0.00518804)
(-0.000577134 -0.00129849 0.00595283)
(0.000307292 -0.00195158 0.00655227)
(0.00120759 -0.00244234 0.00693592)
(0.00198665 -0.00266439 0.00708091)
(0.00254653 -0.00258705 0.0070162)
(0.00286387 -0.0023156 0.00679317)
(0.0029533 -0.00204583 0.00638892)
(0.00279528 -0.00188124 0.00575964)
(0.00237624 -0.00184583 0.00489129)
(0.00171584 -0.00189747 0.00381697)
(0.000886939 -0.00196049 0.00260568)
(3.06617e-06 -0.00196029 0.00133684)
(-0.000813762 -0.00184658 7.70833e-05)
(-0.00146085 -0.0015976 -0.00113117)
(-0.00186553 -0.00121258 -0.00226797)
(-0.00198336 -0.000703614 -0.00332673)
(-0.00179517 -9.18486e-05 -0.0043037)
(-0.00131028 0.000591583 -0.00518804)
(-0.000577134 0.00129849 -0.00595283)
(0.000307292 0.00195158 -0.00655227)
(0.00120759 0.00244234 -0.00693592)
(0.00198665 0.00266439 -0.00708091)
(0.00254653 0.00258705 -0.0070162)
(0.00545839 0.00370211 -0.00810226)
(0.00569679 0.00304964 -0.00742302)
(0.00475575 0.00239632 -0.00634812)
(0.00296528 0.00180168 -0.00502714)
(0.000780596 0.00126112 -0.00361576)
(-0.00139239 0.000750224 -0.00224391)
(-0.00329237 0.000250522 -0.000994435)
(-0.0048051 -0.000248696 0.000104335)
(-0.0059082 -0.000755329 0.00106865)
(-0.00661093 -0.00127751 0.00194173)
(-0.00691551 -0.00182403 0.00277591)
(-0.00679823 -0.00240039 0.00361735)
(-0.00620249 -0.00299855 0.00449565)
(-0.00504521 -0.00358328 0.00541926)
(-0.00325942 -0.00408456 0.00636745)
(-0.000904261 -0.0044083 0.00726587)
(0.00170584 -0.0044671 0.00796666)
(0.00401678 -0.00421797 0.0082861)
(0.00545839 -0.00370211 0.00810226)
(0.00569679 -0.00304964 0.00742302)
(0.00475575 -0.00239632 0.00634812)
(0.00296528 -0.00180168 0.00502714)
(0.000780596 -0.00126112 0.00361576)
(-0.00139239 -0.000750224 0.00224391)
(-0.00329237 -0.000250522 0.000994435)
(-0.0048051 0.000248696 -0.000104335)
(-0.0059082 0.000755329 -0.00106865)
(-0.00661093 0.00127751 -0.00194173)
(-0.00691551 0.00182403 -0.00277591)
(-0.00679823 0.00240039 -0.00361735)
(-0.00620249 0.00299855 -0.00449565)
(-0.00504521 0.00358328 -0.00541926)
(-0.00325942 0.00408456 -0.00636745)
(-0.000904261 0.0044083 -0.00726587)
(0.00170584 0.0044671 -0.00796666)
(0.00401678 0.00421797 -0.0082861)
(0.00437387 0.00317057 -0.00783706)
(0.00453713 0.00273763 -0.0072613)
(0.00397607 0.002341 -0.00636386)
(0.00284709 0.00202063 -0.00521356)
(0.00138673 0.00175036 -0.00390593)
(-0.000164682 0.00148167 -0.00254511)
(-0.00161373 0.00117461 -0.00121713)
(-0.00283246 0.000806875 2.72144e-05)
(-0.00374903 0.000370859 0.00117297)
(-0.00432567 -0.000132379 0.002231)
(-0.00453823 -0.0006973 0.00322446)
(-0.00436429 -0.00131365 0.00417579)
(-0.00378124 -0.00196096 0.00509618)
(-0.00277662 -0.00259866 0.00597784)
(-0.0013766 -0.00315713 0.00678734)
(0.000305917 -0.00354328 0.00746073)
(0.00203453 -0.00367361 0.00791034)
(0.0034866 -0.00352546 0.00805228)
(0.00437387 -0.00317057 0.00783706)
(0.00453713 -0.00273763 0.0072613)
(0.00397607 -0.002341 0.00636386)
(0.00284709 -0.00202063 0.00521356)
(0.00138673 -0.00175036 0.00390593)
(-0.000164682 -0.00148167 0.00254511)
(-0.00161373 -0.00117461 0.00121713)
(-0.00283246 -0.000806875 -2.72144e-05)
(-0.00374903 -0.000370859 -0.00117297)
(-0.00432567 0.000132379 -0.002231)
(-0.00453823 0.0006973 -0.00322446)
(-0.00436429 0.00131365 -0.00417579)
(-0.00378124 0.00196096 -0.00509618)
(-0.00277662 0.00259866 -0.00597784)
(-0.0013766 0.00315713 -0.00678734)
(0.000305917 0.00354328 -0.00746073)
(0.00203453 0.00367361 -0.00791034)
(0.0034866 0.00352546 -0.00805228)
(0.00332209 0.00279972 -0.00767952)
(0.00344147 0.0025865 -0.00720758)
(0.00326483 0.00241072 -0.00644865)
(0.0027865 0.00230442 -0.00542721)
(0.00203626 0.00224521 -0.00420145)
(0.0010944 0.00217772 -0.00285084)
(8.60191e-05 0.00204303 -0.0014564)
(-0.000849397 0.00180071 -8.32861e-05)
(-0.00159198 0.00143473 0.00122718)
(-0.00205702 0.000948591 0.00245478)
(-0.00219346 0.000358977 0.00359222)
(-0.0019799 -0.000307765 0.00463648)
(-0.0014283 -0.00101578 0.00558041)
(-0.000597097 -0.00171479 0.00640465)
(0.000398514 -0.00233214 0.00707537)
(0.00140486 -0.00277892 0.0075564)
(0.00227898 -0.00298893 0.00782642)
(0.00292965 -0.00296852 0.00787492)
(0.00332209 -0.00279972 0.00767952)
(0.00344147 -0.0025865 0.00720758)
(0.00326483 -0.00241072 0.00644865)
(0.0027865 -0.00230442 0.00542721)
(0.00203626 -0.00224521 0.00420145)
(0.0010944 -0.00217772 0.00285084)
(8.60191e-05 -0.00204303 0.0014564)
(-0.000849397 -0.00180071 8.32861e-05)
(-0.00159198 -0.00143473 -0.00122718)
(-0.00205702 -0.000948591 -0.00245478)
(-0.00219346 -0.000358977 -0.00359222)
(-0.0019799 0.000307765 -0.00463648)
(-0.0014283 0.00101578 -0.00558041)
(-0.000597097 0.00171479 -0.00640465)
(0.000398514 0.00233214 -0.00707537)
(0.00140486 0.00277892 -0.0075564)
(0.00227898 0.00298893 -0.00782642)
(0.00292965 0.00296852 -0.00787492)
(0.00509512 0.00424308 -0.0080446)
(0.00526717 0.00335047 -0.00747006)
(0.00430738 0.00243602 -0.00655319)
(0.00248385 0.00158744 -0.00538441)
(0.000216862 0.000828603 -0.00407237)
(-0.0020736 0.000144453 -0.00272819)
(-0.00409077 -0.000489994 -0.00143923)
(-0.00569308 -0.00109908 -0.00025011)
(-0.00684493 -0.00170503 0.000835232)
(-0.00754896 -0.00232558 0.00183855)
(-0.00780237 -0.00297073 0.00279182)
(-0.00757815 -0.00363766 0.00372564)
(-0.00682102 -0.00430182 0.00466198)
(-0.00546194 -0.00490666 0.00560754)
(-0.00347705 -0.00536249 0.00653683)
(-0.0010023 -0.00556686 0.00736763)
(0.00159043 -0.00544401 0.00796833)
(0.0037807 -0.00498137 0.00821454)
(0.00509512 -0.00424308 0.0080446)
(0.00526717 -0.00335047 0.00747006)
(0.00430738 -0.00243602 0.00655319)
(0.00248385 -0.00158744 0.00538441)
(0.000216862 -0.000828603 0.00407237)
(-0.0020736 -0.000144453 0.00272819)
(-0.00409077 0.000489994 0.00143923)
(-0.00569308 0.00109908 0.00025011)
(-0.00684493 0.00170503 -0.000835232)
(-0.00754896 0.00232558 -0.00183855)
(-0.00780237 0.00297073 -0.00279182)
(-0.00757815 0.00363766 -0.00372564)
(-0.00682102 0.00430182 -0.00466198)
(-0.00546194 0.00490666 -0.00560754)
(-0.00347705 0.00536249 -0.00653683)
(-0.0010023 0.00556686 -0.00736763)
(0.00159043 0.00544401 -0.00796833)
(0.0037807 0.00498137 -0.00821454)
(0.00412248 0.00361502 -0.00788805)
(0.00425495 0.00306122 -0.00736598)
(0.00367755 0.00250444 -0.00653292)
(0.00252347 0.00199901 -0.00544165)
(0.00101381 0.00154499 -0.00417354)
(-0.000606864 0.00111196 -0.00282394)
(-0.00212964 0.000666165 -0.00147714)
(-0.00341111 0.000183227 -0.000188201)
(-0.00436826 -0.000349943 0.00101925)
(-0.00495566 -0.00093636 0.00214451)
(-0.00514429 -0.00157006 0.00319884)
(-0.00491021 -0.0022352 0.00419566)
(-0.0042343 -0.00290176 0.00514233)
(-0.00311657 -0.0035188 0.00603229)
(-0.0016102 -0.00401181 0.00683589)
(0.000135065 -0.00429707 0.00749445)
(0.00186488 -0.00431574 0.00793051)
(0.003279 -0.00406711 0.00807469)
(0.00412248 -0.00361502 0.00788805)
(0.00425495 -0.00306122 0.00736598)
(0.00367755 -0.00250444 0.00653292)
(0.00252347 -0.00199901 0.00544165)
(0.00101381 -0.00154499 0.00417354)
(-0.000606864 -0.00111196 0.00282394)
(-0.00212964 -0.000666165 0.00147714)
(-0.00341111 -0.000183227 0.000188201)
(-0.00436826 0.000349943 -0.00101925)
(-0.00495566 0.00093636 -0.00214451)
(-0.00514429 0.00157006 -0.00319884)
(-0.00491021 0.0022352 -0.00419566)
(-0.0042343 0.00290176 -0.00514233)
(-0.00311657 0.0035188 -0.00603229)
(-0.0016102 0.00401181 -0.00683589)
(0.000135065 0.00429707 -0.00749445)
(0.00186488 0.00431574 -0.00793051)
(0.003279 0.00406711 -0.00807469)
(0.00316558 0.00316032 -0.00791762)
(0.00328421 0.0029637 -0.00744552)
(0.00309659 0.0027492 -0.00665951)
(0.00260484 0.00254329 -0.00560185)
(0.00183955 0.002342 -0.00434658)
(0.00087642 0.00211686 -0.00297767)
(-0.000162451 0.00183181 -0.00157184)
(-0.00113331 0.00146021 -0.000188406)
(-0.00190692 0.000992102 0.0011342)
(-0.00239004 0.000433046 0.00237529)
(-0.00252721 -0.000198848 0.00352546)
(-0.00229745 -0.000875104 0.00458035)
(-0.00171824 -0.00155769 0.00553428)
(-0.000857956 -0.0021976 0.00637414)
(0.000159337 -0.0027345 0.00707725)
(0.0011814 -0.00310881 0.00761642)
(0.00207569 -0.00328867 0.00796253)
(0.00275384 -0.00328881 0.00807809)
(0.00316558 -0.00316032 0.00791762)
(0.00328421 -0.0029637 0.00744552)
(0.00309659 -0.0027492 0.00665951)
(0.00260484 -0.00254329 0.00560185)
(0.00183955 -0.002342 0.00434658)
(0.00087642 -0.00211686 0.00297767)
(-0.000162451 -0.00183181 0.00157184)
(-0.00113331 -0.00146021 0.000188406)
(-0.00190692 -0.000992102 -0.0011342)
(-0.00239004 -0.000433046 -0.00237529)
(-0.00252721 0.000198848 -0.00352546)
(-0.00229745 0.000875104 -0.00458035)
(-0.00171824 0.00155769 -0.00553428)
(-0.000857956 0.0021976 -0.00637414)
(0.000159337 0.0027345 -0.00707725)
(0.0011814 0.00310881 -0.00761642)
(0.00207569 0.00328867 -0.00796253)
(0.00275384 0.00328881 -0.00807809)
(0.00394581 0.00451699 -0.00757776)
(0.00408607 0.00341257 -0.00715008)
(0.00321928 0.00227921 -0.00643126)
(0.00155042 0.00121027 -0.00546831)
(-0.000573264 0.000246626 -0.0043275)
(-0.0027732 -0.000614439 -0.00309364)
(-0.00475098 -0.00139592 -0.0018503)
(-0.00634058 -0.00212615 -0.000654782)
(-0.00748183 -0.00283297 0.000469934)
(-0.00816054 -0.00353793 0.00152579)
(-0.00836468 -0.00424925 0.00252666)
(-0.00806638 -0.00495459 0.00348925)
(-0.00722264 -0.0056137 0.00442712)
(-0.0057982 -0.00615402 0.00534136)
(-0.00382581 -0.00647871 0.0062027)
(-0.0014879 -0.00649523 0.00693977)
(0.000864251 -0.00615377 0.00745868)
(0.00280044 -0.00546918 0.00768277)
(0.00394581 -0.00451699 0.00757776)
(0.00408607 -0.00341257 0.00715008)
(0.00321928 -0.00227921 0.00643126)
(0.00155042 -0.00121027 0.00546831)
(-0.000573264 -0.000246626 0.0043275)
(-0.0027732 0.000614439 0.00309364)
(-0.00475098 0.00139592 0.0018503)
(-0.00634058 0.00212615 0.000654782)
(-0.00748183 0.00283297 -0.000469934)
(-0.00816054 0.00353793 -0.00152579)
(-0.00836468 0.00424925 -0.00252666)
(-0.00806638 0.00495459 -0.00348925)
(-0.00722264 0.0056137 -0.00442712)
(-0.0057982 0.00615402 -0.00534136)
(-0.00382581 0.00647871 -0.0062027)
(-0.0014879 0.00649523 -0.00693977)
(0.000864251 0.00615377 -0.00745868)
(0.00280044 0.00546918 -0.00768277)
(0.00320242 0.00386248 -0.00748191)
(0.00331206 0.00316413 -0.007059)
(0.00277888 0.0024431 -0.00635494)
(0.00171009 0.00175642 -0.00540332)
(0.000292082 0.00112027 -0.00426384)
(-0.00125592 0.000521028 -0.00301483)
(-0.00273231 -6.55498e-05 -0.0017337)
(-0.003987 -0.000661521 -0.000478398)
(-0.00492544 -0.00128173 0.000718787)
(-0.00549196 -0.00193128 0.0018459)
(-0.00565164 -0.0026034 0.00290289)
(-0.00538089 -0.0032772 0.00389413)
(-0.00466959 -0.00391453 0.00482178)
(-0.00353746 -0.00445753 0.00567803)
(-0.00206423 -0.00483339 0.00643644)
(-0.000414317 -0.0049737 0.00704923)
(0.00117598 -0.00484192 0.00745804)
(0.00245156 -0.00445128 0.00761227)
(0.00320242 -0.00386248 0.00748191)
(0.00331206 -0.00316413 0.007059)
(0.00277888 -0.0024431 0.00635494)
(0.00171009 -0.00175642 0.00540332)
(0.000292082 -0.00112027 0.00426384)
(-0.00125592 -0.000521028 0.00301483)
(-0.00273231 6.55498e-05 0.0017337)
(-0.003987 0.000661521 0.000478398)
(-0.00492544 0.00128173 -0.000718787)
(-0.00549196 0.00193128 -0.0018459)
(-0.00565164 0.0026034 -0.00290289)
(-0.00538089 0.0032772 -0.00389413)
(-0.00466959 0.00391453 -0.00482178)
(-0.00353746 0.00445753 -0.00567803)
(-0.00206423 0.00483339 -0.00643644)
(-0.000414317 0.0049737 -0.00704923)
(0.00117598 0.00484192 -0.00745804)
(0.00245156 0.00445128 -0.00761227)
(0.00244797 0.00338988 -0.00764006)
(0.00255032 0.00313159 -0.00721903)
(0.00236179 0.00282532 -0.00649343)
(0.00189075 0.00249365 -0.00550597)
(0.00116821 0.00214299 -0.00432824)
(0.000260706 0.00176386 -0.0030385)
(-0.000724181 0.00133887 -0.00170631)
(-0.001653 0.000853808 -0.000385773)
(-0.00239804 0.000304313 0.000886044)
(-0.00286271 -0.000302639 0.00208656)
(-0.0029892 -0.00094886 0.00320318)
(-0.00275818 -0.00160573 0.00422891)
(-0.0021925 -0.00223543 0.00515764)
(-0.00136544 -0.00279281 0.00597942)
(-0.000397861 -0.00323041 0.00667782)
(0.00057071 -0.00351004 0.00722985)
(0.00141923 -0.00361693 0.00760382)
(0.00206227 -0.00356525 0.00775664)
(0.00244797 -0.00338988 0.00764006)
(0.00255032 -0.00313159 0.00721903)
(0.00236179 -0.00282532 0.00649343)
(0.00189075 -0.00249365 0.00550597)
(0.00116821 -0.00214299 0.00432824)
(0.000260706 -0.00176386 0.0030385)
(-0.000724181 -0.00133887 0.00170631)
(-0.001653 -0.000853808 0.000385773)
(-0.00239804 -0.000304313 -0.000886044)
(-0.00286271 0.000302639 -0.00208656)
(-0.0029892 0.00094886 -0.00320318)
(-0.00275818 0.00160573 -0.00422891)
(-0.0021925 0.00223543 -0.00515764)
(-0.00136544 0.00279281 -0.00597942)
(-0.000397861 0.00323041 -0.00667782)
(0.00057071 0.00351004 -0.00722985)
(0.00141923 0.00361693 -0.00760382)
(0.00206227 0.00356525 -0.00775664)
(0.00220147 0.00462716 -0.00686553)
(0.00234445 0.00334644 -0.00660629)
(0.00164454 0.00203229 -0.00609995)
(0.000243425 0.000777906 -0.00536389)
(-0.00159674 -0.000366585 -0.0044327)
(-0.00356582 -0.0013935 -0.00336525)
(-0.00539072 -0.00232011 -0.00223453)
(-0.00689129 -0.00317181 -0.00110413)
(-0.0079792 -0.00397352 -1.21955e-05)
(-0.0086181 -0.00474333 0.00102709)
(-0.00878592 -0.00548449 0.00201372)
(-0.00845837 -0.00617709 0.00295356)
(-0.00761269 -0.00677243 0.00385201)
(-0.00625235 -0.0071943 0.00470461)
(-0.00445302 -0.00735323 0.00548501)
(-0.0024041 -0.00717584 0.00614313)
(-0.00039913 -0.00663472 0.00662021)
(0.00123074 -0.00575931 0.00686908)
(0.00220147 -0.00462716 0.00686553)
(0.00234445 -0.00334644 0.00660629)
(0.00164454 -0.00203229 0.00609995)
(0.000243425 -0.000777906 0.00536389)
(-0.00159674 0.000366585 0.0044327)
(-0.00356582 0.0013935 0.00336525)
(-0.00539072 0.00232011 0.00223453)
(-0.00689129 0.00317181 0.00110413)
(-0.0079792 0.00397352 1.21955e-05)
(-0.0086181 0.00474333 -0.00102709)