/*--------------------------------*- C++ -*----------------------------------*\
| =========                 |                                                 |
| \\      /  F ield         | OpenFOAM: The Open Source CFD Toolbox           |
|  \\    /   O peration     | Version:  2312                                  |
|   \\  /    A nd           | Website:  www.openfoam.com                      |
|    \\/     M anipulation  |                                                 |
\*---------------------------------------------------------------------------*/
FoamFile
{
    version     2.0;
    format      ascii;
    arch        "LSB;label=32;scalar=64";
    class       volVectorField;
    location    "0.4";
    object      D_0_0_0;
}
// * * * * * * * * * * * * * * * * * * * * * * * * * * * * * * * * * * * * * //

dimensions      [0 1 0 0 0 0 0];

internalField   nonuniform List<vector> 
1620
(
(0.000570127 7.81393e-05 -0.00158051)
(0.000741623 0.00021342 -0.00148789)
(0.000760165 0.000363127 -0.00121904)
(0.000648497 0.000440968 -0.000845706)
(0.000467226 0.000418617 -0.000458491)
(0.000268955 0.000316011 -0.000124556)
(8.27046e-05 0.000169764 0.000124513)
(-8.03836e-05 1.25055e-05 0.000286558)
(-0.000217693 -0.000133578 0.000377741)
(-0.000328791 -0.000255986 0.000423419)
(-0.000412189 -0.000349168 0.000451997)
(-0.000464241 -0.000411061 0.000490632)
(-0.000479474 -0.000438776 0.000562003)
(-0.000451068 -0.000425042 0.000681776)
(-0.000369491 -0.000360441 0.000855824)
(-0.000220343 -0.000246964 0.00107497)
(8.06049e-06 -0.000117931 0.00130756)
(0.000296136 -4.1559e-05 0.00149903)
(0.000570127 -7.81393e-05 0.00158051)
(0.000741623 -0.00021342 0.00148789)
(0.000760165 -0.000363127 0.00121904)
(0.000648497 -0.000440968 0.000845706)
(0.000467226 -0.000418617 0.000458491)
(0.000268955 -0.000316011 0.000124556)
(8.27046e-05 -0.000169764 -0.000124513)
(-8.03836e-05 -1.25055e-05 -0.000286558)
(-0.000217693 0.000133578 -0.000377741)
(-0.000328791 0.000255986 -0.000423419)
(-0.000412189 0.000349168 -0.000451997)
(-0.000464241 0.000411061 -0.000490632)
(-0.000479474 0.000438776 -0.000562003)
(-0.000451068 0.000425042 -0.000681776)
(-0.000369491 0.000360441 -0.000855824)
(-0.000220343 0.000246964 -0.00107497)
(8.06049e-06 0.000117931 -0.00130756)
(0.000296136 4.1559e-05 -0.00149903)
(0.000290891 0.000315865 -0.00131978)
(0.000353418 0.000313468 -0.00120878)
(0.000348022 0.000330743 -0.00102776)
(0.000275209 0.000350213 -0.000799599)
(0.000153059 0.000355763 -0.000554492)
(6.8422e-06 0.000342045 -0.000318241)
(-0.000141055 0.000311021 -0.0001065)
(-0.000274168 0.000267006 7.58965e-05)
(-0.000381165 0.000213688 0.000232978)
(-0.000454319 0.000152624 0.000374511)
(-0.000488349 8.27946e-05 0.000512175)
(-0.000480253 1.77311e-06 0.000655329)
(-0.000430424 -9.08865e-05 0.000807171)
(-0.000344226 -0.000188854 0.000962748)
(-0.000231496 -0.000276406 0.00111025)
(-0.000102058 -0.000333373 0.00123476)
(3.79493e-05 -0.000348736 0.00132099)
(0.000177661 -0.000333847 0.00135381)
(0.000290891 -0.000315865 0.00131978)
(0.000353418 -0.000313468 0.00120878)
(0.000348022 -0.000330743 0.00102776)
(0.000275209 -0.000350213 0.000799599)
(0.000153059 -0.000355763 0.000554492)
(6.8422e-06 -0.000342045 0.000318241)
(-0.000141055 -0.000311021 0.0001065)
(-0.000274168 -0.000267006 -7.58965e-05)
(-0.000381165 -0.000213688 -0.000232978)
(-0.000454319 -0.000152624 -0.000374511)
(-0.000488349 -8.27946e-05 -0.000512175)
(-0.000480253 -1.77311e-06 -0.000655329)
(-0.000430424 9.08865e-05 -0.000807171)
(-0.000344226 0.000188854 -0.000962748)
(-0.000231496 0.000276406 -0.00111025)
(-0.000102058 0.000333373 -0.00123476)
(3.79493e-05 0.000348736 -0.00132099)
(0.000177661 0.000333847 -0.00135381)
(7.58597e-05 0.000446586 -0.00110765)
(6.51821e-05 0.000356922 -0.000996502)
(4.06877e-05 0.000290738 -0.000889473)
(-6.8528e-06 0.000280882 -0.000775943)
(-8.74341e-05 0.000325453 -0.000641571)
(-0.000198248 0.000402221 -0.000478888)
(-0.000324042 0.000484262 -0.000288721)
(-0.00044408 0.000548878 -7.70566e-05)
(-0.000538522 0.000580185 0.000148605)
(-0.000591921 0.000568137 0.00038119)
(-0.000594564 0.000506745 0.00061363)
(-0.000543393 0.000393529 0.000836759)
(-0.000443742 0.000231268 0.00103706)
(-0.0003114 3.19799e-05 0.00119654)
(-0.000171872 -0.000178894 0.00129703)
(-5.2899e-05 -0.000362703 0.00132854)
(2.785e-05 -0.000477968 0.00129558)
(6.80078e-05 -0.000501622 0.00121463)
(7.58597e-05 -0.000446586 0.00110765)
(6.51821e-05 -0.000356922 0.000996502)
(4.06877e-05 -0.000290738 0.000889473)
(-6.8528e-06 -0.000280882 0.000775943)
(-8.74341e-05 -0.000325453 0.000641571)
(-0.000198248 -0.000402221 0.000478888)
(-0.000324042 -0.000484262 0.000288721)
(-0.00044408 -0.000548878 7.70566e-05)
(-0.000538522 -0.000580185 -0.000148605)
(-0.000591921 -0.000568137 -0.00038119)
(-0.000594564 -0.000506745 -0.00061363)
(-0.000543393 -0.000393529 -0.000836759)
(-0.000443742 -0.000231268 -0.00103706)
(-0.0003114 -3.19799e-05 -0.00119654)
(-0.000171872 0.000178894 -0.00129703)
(-5.2899e-05 0.000362703 -0.00132854)
(2.785e-05 0.000477968 -0.00129558)
(6.80078e-05 0.000501622 -0.00121463)
(0.00177024 0.000650909 -0.00411308)
(0.00218627 0.000801644 -0.00373482)
(0.00212761 0.000967989 -0.00302943)
(0.00169019 0.00103633 -0.00216026)
(0.00105748 0.000974556 -0.001284)
(0.000383237 0.000805897 -0.000512296)
(-0.000241351 0.000572273 0.000100846)
(-0.000775544 0.00031297 0.000551462)
(-0.00120689 5.65598e-05 0.000870629)
(-0.00153288 -0.000181166 0.00110946)
(-0.001749 -0.000396192 0.0013257)
(-0.00184292 -0.000591408 0.00157181)
(-0.00179457 -0.000766564 0.00188501)
(-0.00158126 -0.000905205 0.00228127)
(-0.00118515 -0.000969142 0.0027543)
(-0.000599888 -0.00092008 0.00327308)
(0.000157959 -0.000773927 0.00376323)
(0.00101205 -0.000637638 0.00408821)
(0.00177024 -0.000650909 0.00411308)
(0.00218627 -0.000801644 0.00373482)
(0.00212761 -0.000967989 0.00302943)
(0.00169019 -0.00103633 0.00216026)
(0.00105748 -0.000974556 0.001284)
(0.000383237 -0.000805897 0.000512296)
(-0.000241351 -0.000572273 -0.000100846)
(-0.000775544 -0.00031297 -0.000551462)
(-0.00120689 -5.65598e-05 -0.000870629)
(-0.00153288 0.000181166 -0.00110946)
(-0.001749 0.000396192 -0.0013257)
(-0.00184292 0.000591408 -0.00157181)
(-0.00179457 0.000766564 -0.00188501)
(-0.00158126 0.000905205 -0.00228127)
(-0.00118515 0.000969142 -0.0027543)
(-0.000599888 0.00092008 -0.00327308)
(0.000157959 0.000773927 -0.00376323)
(0.00101205 0.000637638 -0.00408821)
(0.00120358 0.00100024 -0.00377951)
(0.00141724 0.000935749 -0.00346948)
(0.00137369 0.000929119 -0.00296887)
(0.00108687 0.000942645 -0.00234124)
(0.000640751 0.000943441 -0.00165889)
(0.00012875 0.000911843 -0.00098581)
(-0.000374819 0.000839899 -0.000365901)
(-0.000819043 0.000727986 0.000181862)
(-0.00117164 0.000580389 0.000661736)
(-0.00141229 0.000400573 0.00109454)
(-0.00152697 0.000188311 0.00150792)
(-0.00150535 -5.89681e-05 0.00192547)
(-0.00134256 -0.000339332 0.00235677)
(-0.00104504 -0.000635153 0.00279124)
(-0.000636919 -0.000904261 0.00319942)
(-0.000159584 -0.00108762 0.00354255)
(0.000339604 -0.00114409 0.00378191)
(0.000815532 -0.00108894 0.00387481)
(0.00120358 -0.00100024 0.00377951)
(0.00141724 -0.000935749 0.00346948)
(0.00137369 -0.000929119 0.00296887)
(0.00108687 -0.000942645 0.00234124)
(0.000640751 -0.000943441 0.00165889)
(0.00012875 -0.000911843 0.00098581)
(-0.000374819 -0.000839899 0.000365901)
(-0.000819043 -0.000727986 -0.000181862)
(-0.00117164 -0.000580389 -0.000661736)
(-0.00141229 -0.000400573 -0.00109454)
(-0.00152697 -0.000188311 -0.00150792)
(-0.00150535 5.89681e-05 -0.00192547)
(-0.00134256 0.000339332 -0.00235677)
(-0.00104504 0.000635153 -0.00279124)
(-0.000636919 0.000904261 -0.00319942)
(-0.000159584 0.00108762 -0.00354255)
(0.000339604 0.00114409 -0.00378191)
(0.000815532 0.00108894 -0.00387481)
(0.00070879 0.00121856 -0.00341001)
(0.000758664 0.000999099 -0.00317358)
(0.000726473 0.000862167 -0.00287113)
(0.000573629 0.000841057 -0.00247463)
(0.000297573 0.000911241 -0.00197908)
(-6.7012e-05 0.00101973 -0.00140312)
(-0.000464424 0.00111237 -0.000778634)
(-0.000835071 0.00114927 -0.000137483)
(-0.00112727 0.00110738 0.000497587)
(-0.00130252 0.000976027 0.0011145)
(-0.00133666 0.000751866 0.0017073)
(-0.00122083 0.00043719 0.00226862)
(-0.00096482 4.29662e-05 0.00278212)
(-0.000603036 -0.000403583 0.00321772)
(-0.000198015 -0.000849581 0.0035347)
(0.000170206 -0.00121449 0.00369848)
(0.000439229 -0.00141117 0.0037071)
(0.000605504 -0.001394 0.00359826)
(0.00070879 -0.00121856 0.00341001)
(0.000758664 -0.000999099 0.00317358)
(0.000726473 -0.000862167 0.00287113)
(0.000573629 -0.000841057 0.00247463)
(0.000297573 -0.000911241 0.00197908)
(-6.7012e-05 -0.00101973 0.00140312)
(-0.000464424 -0.00111237 0.000778634)
(-0.000835071 -0.00114927 0.000137483)
(-0.00112727 -0.00110738 -0.000497587)
(-0.00130252 -0.000976027 -0.0011145)
(-0.00133666 -0.000751866 -0.0017073)
(-0.00122083 -0.00043719 -0.00226862)
(-0.00096482 -4.29662e-05 -0.00278212)
(-0.000603036 0.000403583 -0.00321772)
(-0.000198015 0.000849581 -0.0035347)
(0.000170206 0.00121449 -0.00369848)
(0.000439229 0.00141117 -0.0037071)
(0.000605504 0.001394 -0.00359826)
(0.00344935 0.00168796 -0.00617658)
(0.00388909 0.00170152 -0.00556789)
(0.00350199 0.00167941 -0.00454292)
(0.00254589 0.00157729 -0.00332201)
(0.00132283 0.00138526 -0.00209992)
(7.25595e-05 0.00111565 -0.00100678)
(-0.00105734 0.000793651 -0.000105952)
(-0.00199809 0.00044795 0.0005971)
(-0.00272959 0.000101939 0.00114033)
(-0.00325086 -0.000232192 0.00158787)
(-0.00355824 -0.000554857 0.00201229)
(-0.0036332 -0.000874074 0.00247766)
(-0.00343935 -0.00119317 0.00302582)
(-0.00292871 -0.00149408 0.0036693)
(-0.00205945 -0.00172778 0.00439173)
(-0.000829982 -0.00183377 0.00514644)
(0.000670189 -0.00180069 0.00583199)
(0.00221165 -0.00170987 0.00624466)
(0.00344935 -0.00168796 0.00617658)
(0.00388909 -0.00170152 0.00556789)
(0.00350199 -0.00167941 0.00454292)
(0.00254589 -0.00157729 0.00332201)
(0.00132283 -0.00138526 0.00209992)
(7.25595e-05 -0.00111565 0.00100678)
(-0.00105734 -0.000793651 0.000105952)
(-0.00199809 -0.00044795 -0.0005971)
(-0.00272959 -0.000101939 -0.00114033)
(-0.00325086 0.000232192 -0.00158787)
(-0.00355824 0.000554857 -0.00201229)
(-0.0036332 0.000874074 -0.00247766)
(-0.00343935 0.00119317 -0.00302582)
(-0.00292871 0.00149408 -0.0036693)
(-0.00205945 0.00172778 -0.00439173)
(-0.000829982 0.00183377 -0.00514644)
(0.000670189 0.00180069 -0.00583199)
(0.00221165 0.00170987 -0.00624466)
(0.00259304 0.00177277 -0.00575934)
(0.0028492 0.00162457 -0.00528449)
(0.00262329 0.00152874 -0.00454614)
(0.00201098 0.00147533 -0.00362292)
(0.00116615 0.00143111 -0.00260749)
(0.000239556 0.00135872 -0.00158814)
(-0.000649004 0.0012336 -0.00063072)
(-0.0014176 0.00104766 0.000231873)
(-0.00201644 0.000803376 0.000999659)
(-0.0024166 0.000505646 0.00169678)
(-0.00259889 0.000156683 0.00235786)
(-0.00254713 -0.000242995 0.00301318)
(-0.00224815 -0.000686588 0.00367575)
(-0.00169878 -0.00114785 0.00433312)
(-0.000918358 -0.00156962 0.00494667)
(3.68255e-05 -0.00187051 0.00545983)
(0.00105795 -0.00198796 0.00580975)
(0.00196659 -0.00192865 0.0059303)
(0.00259304 -0.00177277 0.00575934)
(0.0028492 -0.00162457 0.00528449)
(0.00262329 -0.00152874 0.00454614)
(0.00201098 -0.00147533 0.00362292)
(0.00116615 -0.00143111 0.00260749)
(0.000239556 -0.00135872 0.00158814)
(-0.000649004 -0.0012336 0.00063072)
(-0.0014176 -0.00104766 -0.000231873)
(-0.00201644 -0.000803376 -0.000999659)
(-0.0024166 -0.000505646 -0.00169678)
(-0.00259889 -0.000156683 -0.00235786)
(-0.00254713 0.000242995 -0.00301318)
(-0.00224815 0.000686588 -0.00367575)
(-0.00169878 0.00114785 -0.00433312)
(-0.000918358 0.00156962 -0.00494667)
(3.68255e-05 0.00187051 -0.00545983)
(0.00105795 0.00198796 -0.00580975)
(0.00196659 0.00192865 -0.0059303)
(0.00183208 0.001806 -0.00526506)
(0.00193573 0.0015254 -0.00494473)
(0.00185013 0.00135794 -0.00447634)
(0.00155598 0.00133139 -0.00383288)
(0.0010716 0.00140936 -0.00302261)
(0.000456505 0.00151795 -0.00209042)
(-0.00020189 0.00158453 -0.0010972)
(-0.00081141 0.00155929 -9.75954e-05)
(-0.0012936 0.00141773 0.000872402)
(-0.00159139 0.00115335 0.00179548)
(-0.0016694 0.000770276 0.00266526)
(-0.00151339 0.000280492 0.00347602)
(-0.00113343 -0.000293508 0.00421253)
(-0.00057122 -0.000910402 0.00484228)
(9.37608e-05 -0.00149826 0.00531471)
(0.000750382 -0.00195178 0.00557763)
(0.00128322 -0.00216267 0.00561581)
(0.00162122 -0.00208552 0.00548667)
(0.00183208 -0.001806 0.00526506)
(0.00193573 -0.0015254 0.00494473)
(0.00185013 -0.00135794 0.00447634)
(0.00155598 -0.00133139 0.00383288)
(0.0010716 -0.00140936 0.00302261)
(0.000456505 -0.00151795 0.00209042)
(-0.00020189 -0.00158453 0.0010972)
(-0.00081141 -0.00155929 9.75954e-05)
(-0.0012936 -0.00141773 -0.000872402)
(-0.00159139 -0.00115335 -0.00179548)
(-0.0016694 -0.000770276 -0.00266526)
(-0.00151339 -0.000280492 -0.00347602)
(-0.00113343 0.000293508 -0.00421253)
(-0.00057122 0.000910402 -0.00484228)
(9.37608e-05 0.00149826 -0.00531471)
(0.000750382 0.00195178 -0.00557763)
(0.00128322 0.00216267 -0.00561581)
(0.00162122 0.00208552 -0.00548667)
(0.00495905 0.00285126 -0.00748532)
(0.00526306 0.00250486 -0.00676653)
(0.00450795 0.00216918 -0.00562393)
(0.00304378 0.00183879 -0.00426508)
(0.00126038 0.00148795 -0.00287488)
(-0.000522232 0.001104 -0.00158757)
(-0.002101 0.000691848 -0.000476217)
(-0.00338278 0.000264397 0.000445452)
(-0.00434466 -0.000167093 0.00120968)
(-0.00499076 -0.000598761 0.00187647)
(-0.00532109 -0.00103558 0.0025146)
(-0.00531427 -0.00148669 0.00318396)
(-0.00492152 -0.00195395 0.00392202)
(-0.00407241 -0.00241731 0.00473785)
(-0.00270276 -0.0028271 0.00561042)
(-0.00082185 -0.0031159 0.00647925)
(0.00139071 -0.00322793 0.00722209)
(0.0035174 -0.00313408 0.00763378)
(0.00495905 -0.00285126 0.00748532)
(0.00526306 -0.00250486 0.00676653)
(0.00450795 -0.00216918 0.00562393)
(0.00304378 -0.00183879 0.00426508)
(0.00126038 -0.00148795 0.00287488)
(-0.000522232 -0.001104 0.00158757)
(-0.002101 -0.000691848 0.000476217)
(-0.00338278 -0.000264397 -0.000445452)
(-0.00434466 0.000167093 -0.00120968)
(-0.00499076 0.000598761 -0.00187647)
(-0.00532109 0.00103558 -0.0025146)
(-0.00531427 0.00148669 -0.00318396)
(-0.00492152 0.00195395 -0.00392202)
(-0.00407241 0.00241731 -0.00473785)
(-0.00270276 0.0028271 -0.00561042)
(-0.00082185 0.0031159 -0.00647925)
(0.00139071 0.00322793 -0.00722209)
(0.0035174 0.00313408 -0.00763378)
(0.0039311 0.00253653 -0.00707989)
(0.00409804 0.00223671 -0.00651192)
(0.00364239 0.00200609 -0.0056441)
(0.00271491 0.00184577 -0.00455003)
(0.00150938 0.00171183 -0.00332846)
(0.000219538 0.00155606 -0.00208159)
(-0.000996569 0.00134585 -0.000889535)
(-0.00203144 0.00106744 0.00020423)
(-0.00282237 0.00072033 0.00119304)
(-0.00333526 0.000309191 0.00209716)
(-0.00354828 -0.000161405 0.00294901)
(-0.00344159 -0.000686459 0.00377794)
(-0.00299574 -0.00125362 0.00459746)
(-0.00219982 -0.00183171 0.00539685)
(-0.00107055 -0.00236023 0.00613782)
(0.000318084 -0.00275211 0.00675684)
(0.00180175 -0.00292112 0.00717299)
(0.00310798 -0.00282556 0.00730137)
(0.0039311 -0.00253653 0.00707989)
(0.00409804 -0.00223671 0.00651192)
(0.00364239 -0.00200609 0.0056441)
(0.00271491 -0.00184577 0.00455003)
(0.00150938 -0.00171183 0.00332846)
(0.000219538 -0.00155606 0.00208159)
(-0.000996569 -0.00134585 0.000889535)
(-0.00203144 -0.00106744 -0.00020423)
(-0.00282237 -0.00072033 -0.00119304)
(-0.00333526 -0.000309191 -0.00209716)
(-0.00354828 0.000161405 -0.00294901)
(-0.00344159 0.000686459 -0.00377794)
(-0.00299574 0.00125362 -0.00459746)
(-0.00219982 0.00183171 -0.00539685)
(-0.00107055 0.00236023 -0.00613782)
(0.000318084 0.00275211 -0.00675684)
(0.00180175 0.00292112 -0.00717299)
(0.00310798 0.00282556 -0.00730137)
(0.00293535 0.00234658 -0.00668005)
(0.00302179 0.00207344 -0.00627157)
(0.00286646 0.00189922 -0.00564294)
(0.00245681 0.00184724 -0.00478162)
(0.00181224 0.00187748 -0.00372016)
(0.00100325 0.00191788 -0.00252559)
(0.000139704 0.00189713 -0.00127525)
(-0.000659539 0.00176702 -3.45404e-05)
(-0.00129339 0.00150675 0.00115459)
(-0.00168956 0.0011159 0.00227241)
(-0.00180376 0.000606495 0.0033127)
(-0.00161728 -8.4187e-07 0.00427214)
(-0.00114036 -0.000675718 0.00514007)
(-0.000421979 -0.00137075 0.00588952)
(0.000442119 -0.00200992 0.00647487)
(0.00132025 -0.00248727 0.0068464)
(0.00207985 -0.00269985 0.00698186)
(0.00262594 -0.00261872 0.00690964)
(0.00293535 -0.00234658 0.00668005)
(0.00302179 -0.00207344 0.00627157)
(0.00286646 -0.00189922 0.00564294)
(0.00245681 -0.00184724 0.00478162)
(0.00181224 -0.00187748 0.00372016)
(0.00100325 -0.00191788 0.00252559)
(0.000139704 -0.00189713 0.00127525)
(-0.000659539 -0.00176702 3.45404e-05)
(-0.00129339 -0.00150675 -0.00115459)
(-0.00168956 -0.0011159 -0.00227241)
(-0.00180376 -0.000606495 -0.0033127)
(-0.00161728 8.41869e-07 -0.00427214)
(-0.00114036 0.000675718 -0.00514007)
(-0.000421979 0.00137075 -0.00588952)
(0.000442119 0.00200992 -0.00647487)
(0.00132025 0.00248727 -0.0068464)
(0.00207985 0.00269985 -0.00698186)
(0.00262594 0.00261872 -0.00690964)
(0.00555433 0.00374226 -0.00800703)
(0.0057868 0.00310098 -0.00732257)
(0.00486597 0.00245155 -0.00624682)
(0.00311137 0.00185063 -0.00492825)
(0.000964615 0.00129466 -0.0035218)
(-0.00117799 0.000762641 -0.00215683)
(-0.00305773 0.000240028 -0.000915859)
(-0.00455804 -0.000280459 0.000172711)
(-0.00565326 -0.000804397 0.00112504)
(-0.0063505 -0.00133865 0.00198439)
(-0.00665094 -0.00189136 0.00280338)
(-0.00653052 -0.00246755 0.00362876)
(-0.00593316 -0.00305915 0.00449096)
(-0.00477843 -0.00363211 0.00539898)
(-0.00300564 -0.00411963 0.00633152)
(-0.000680882 -0.00443275 0.00721322)
(0.00188286 -0.00448878 0.00789687)
(0.00414538 -0.00424602 0.00820131)
(0.00555433 -0.00374226 0.00800703)
(0.0057868 -0.00310098 0.00732257)
(0.00486597 -0.00245155 0.00624682)
(0.00311137 -0.00185063 0.00492825)
(0.000964615 -0.00129466 0.0035218)
(-0.00117799 -0.000762641 0.00215683)
(-0.00305773 -0.000240028 0.000915859)
(-0.00455804 0.000280459 -0.000172711)
(-0.00565326 0.000804397 -0.00112504)
(-0.0063505 0.00133865 -0.00198439)
(-0.00665094 0.00189136 -0.00280338)
(-0.00653052 0.00246755 -0.00362876)
(-0.00593316 0.00305915 -0.00449096)
(-0.00477843 0.00363211 -0.00539898)
(-0.00300564 0.00411963 -0.00633152)
(-0.000680882 0.00443275 -0.00721322)
(0.00188286 0.00448878 -0.00789687)
(0.00414538 0.00424602 -0.00820131)
(0.00447308 0.00321087 -0.00773033)
(0.00463215 0.0027799 -0.00714952)
(0.00408263 0.00237867 -0.00625198)
(0.00297635 0.00204572 -0.00510661)
(0.00154319 0.00175672 -0.00380803)
(1.75262e-05 0.00146642 -0.0024589)
(-0.00141059 0.00113803 -0.00114407)
(-0.00261392 0.000751668 8.6041e-05)
(-0.00351985 0.000301261 0.00121652)
(-0.0040896 -0.000211281 0.00225834)
(-0.00429844 -0.000780062 0.00323503)
(-0.00412398 -0.00139485 0.00416957)
(-0.00354447 -0.00203559 0.00507364)
(-0.00254923 -0.00266277 0.00593955)
(-0.00116693 -0.00320896 0.00673347)
(0.000488496 -0.00358453 0.00739122)
(0.00218419 -0.00370941 0.00782587)
(0.00360564 -0.00356189 0.00795496)
(0.00447308 -0.00321087 0.00773033)
(0.00463215 -0.0027799 0.00714952)
(0.00408263 -0.00237867 0.00625198)
(0.00297635 -0.00204572 0.00510661)
(0.00154319 -0.00175672 0.00380803)
(1.75262e-05 -0.00146642 0.0024589)
(-0.00141059 -0.00113803 0.00114407)
(-0.00261392 -0.000751668 -8.6041e-05)
(-0.00351985 -0.000301261 -0.00121652)
(-0.0040896 0.000211281 -0.00225834)
(-0.00429844 0.000780062 -0.00323503)
(-0.00412398 0.00139485 -0.00416957)
(-0.00354447 0.00203559 -0.00507364)
(-0.00254923 0.00266277 -0.00593955)
(-0.00116693 0.00320896 -0.00673347)
(0.000488496 0.00358453 -0.00739122)
(0.00218419 0.00370941 -0.00782587)
(0.00360564 0.00356189 -0.00795496)
(0.00342344 0.00283588 -0.00755537)
(0.00353956 0.00261494 -0.00707896)
(0.00336576 0.00242688 -0.00632255)
(0.0028973 0.00230323 -0.00531033)
(0.00216379 0.0022232 -0.00409869)
(0.00124315 0.00213414 -0.00276484)
(0.000256497 0.00197971 -0.00138814)
(-0.000660307 0.00172121 -3.31259e-05)
(-0.00138912 0.00134361 0.00125891)
(-0.00184543 0.000850922 0.00246785)
(-0.00197815 0.000259889 0.00358689)
(-0.00176635 -0.00040365 0.00461356)
(-0.00122311 -0.00110469 0.00554086)
(-0.000407647 -0.00179388 0.00634914)
(0.000566288 -0.00239975 0.00700425)
(0.00154939 -0.00283539 0.00747005)
(0.00240346 -0.00303663 0.00772549)
(0.0030397 -0.00301013 0.00776081)
(0.00342344 -0.00283588 0.00755537)
(0.00353956 -0.00261494 0.00707896)
(0.00336576 -0.00242688 0.00632255)
(0.0028973 -0.00230323 0.00531033)
(0.00216379 -0.0022232 0.00409869)
(0.00124315 -0.00213414 0.00276484)
(0.000256497 -0.00197971 0.00138814)
(-0.000660307 -0.00172121 3.31259e-05)
(-0.00138912 -0.00134361 -0.00125891)
(-0.00184543 -0.000850922 -0.00246785)
(-0.00197815 -0.000259889 -0.00358689)
(-0.00176635 0.00040365 -0.00461356)
(-0.00122311 0.00110469 -0.00554086)
(-0.000407647 0.00179388 -0.00634914)
(0.000566288 0.00239975 -0.00700425)
(0.00154939 0.00283539 -0.00747005)
(0.00240346 0.00303663 -0.00772549)
(0.0030397 0.00301013 -0.00776081)
(0.00524237 0.00428336 -0.00795375)
(0.00541008 0.00340167 -0.00737101)
(0.00446834 0.00249188 -0.00644964)
(0.00267693 0.00163885 -0.00528014)
(0.000444006 0.000867025 -0.00397089)
(-0.0018198 0.00016406 -0.00263227)
(-0.00382023 -0.000491646 -0.0013511)
(-0.00541295 -0.00112115 -0.000172059)
(-0.00655876 -0.00174407 0.000900763)
(-0.00725832 -0.00237648 0.00188941)
(-0.00750825 -0.00302753 0.0028266)
(-0.00728145 -0.00369412 0.00374397)
(-0.00652322 -0.00435206 0.00466436)
(-0.00516707 -0.00494642 0.00559448)
(-0.00319493 -0.00539094 0.00650773)
(-0.000748015 -0.00558784 0.00732127)
(0.00180467 -0.00546489 0.00790468)
(0.00395464 -0.00500977 0.00813562)
(0.00524237 -0.00428336 0.00795375)
(0.00541008 -0.00340167 0.00737101)
(0.00446834 -0.00249188 0.00644964)
(0.00267693 -0.00163885 0.00528014)
(0.000444006 -0.000867025 0.00397089)
(-0.0018198 -0.00016406 0.00263227)
(-0.00382023 0.000491646 0.0013511)
(-0.00541295 0.00112115 0.000172059)
(-0.00655876 0.00174407 -0.000900763)
(-0.00725832 0.00237648 -0.00188941)
(-0.00750825 0.00302753 -0.0028266)
(-0.00728145 0.00369412 -0.00374397)
(-0.00652322 0.00435206 -0.00466436)
(-0.00516707 0.00494642 -0.00559448)
(-0.00319493 0.00539094 -0.00650773)
(-0.000748015 0.00558784 -0.00732127)
(0.00180467 0.00546489 -0.00790468)
(0.00395464 0.00500977 -0.00813562)
(0.00426677 0.00365683 -0.00778422)
(0.0043959 0.00310347 -0.00725516)
(0.00382872 0.00254194 -0.00642029)
(0.00269479 0.00202537 -0.00533239)
(0.00120946 0.00155497 -0.00407177)
(-0.000388159 0.00110269 -0.00273226)
(-0.00189231 0.000637275 -0.00139717)
(-0.00316012 0.000136552 -0.000121411)
(-0.00410775 -0.000410828 0.00107131)
(-0.00468889 -0.00100674 0.00218051)
(-0.00487415 -0.00164472 0.00321813)
(-0.00463976 -0.00230899 0.00419838)
(-0.00396743 -0.00297022 0.0051291)
(-0.00285888 -0.00357873 0.00600353)
(-0.00136936 -0.00406221 0.00679125)
(0.00035118 -0.00433979 0.0074332)
(0.00205214 -0.0043548 0.0078528)
(0.00344008 -0.00410662 0.00798228)
(0.00426677 -0.00365683 0.00778422)
(0.0043959 -0.00310347 0.00725516)
(0.00382872 -0.00254194 0.00642029)
(0.00269479 -0.00202537 0.00533239)
(0.00120946 -0.00155497 0.00407177)
(-0.000388159 -0.00110269 0.00273226)
(-0.00189231 -0.000637275 0.00139717)
(-0.00316012 -0.000136552 0.000121411)
(-0.00410775 0.000410828 -0.00107131)
(-0.00468889 0.00100674 -0.00218051)
(-0.00487415 0.00164472 -0.00321813)
(-0.00463976 0.00230899 -0.00419838)
(-0.00396743 0.00297022 -0.0051291)
(-0.00285888 0.00357873 -0.00600353)
(-0.00136936 0.00406221 -0.00679125)
(0.00035118 0.00433979 -0.0074332)
(0.00205214 0.0043548 -0.0078528)
(0.00344008 0.00410662 -0.00798228)
(0.00330676 0.00319905 -0.00779282)
(0.00342229 0.00299137 -0.00731535)
(0.00323683 0.00276297 -0.00653205)
(0.00275341 0.00254039 -0.00548382)
(0.00200288 0.00232062 -0.00424208)
(0.00105923 0.00207673 -0.00288849)
(4.08959e-05 0.00177423 -0.00149854)
(-0.00091206 0.00138777 -0.000131359)
(-0.00167236 0.000908369 0.00117439)
(-0.00214707 0.000342328 0.00239807)
(-0.00228064 -0.000292011 0.00353083)
(-0.00205254 -0.000966614 0.00456887)
(-0.00148132 -0.00164437 0.00550664)
(-0.000636005 -0.00227729 0.00633048)
(0.00036104 -0.00280606 0.007017)
(0.00136183 -0.00317207 0.00753866)
(0.00223798 -0.00334405 0.0078668)
(0.00290301 -0.00333639 0.00796571)
(0.00330676 -0.00319905 0.00779282)
(0.00342229 -0.00299137 0.00731535)
(0.00323683 -0.00276297 0.00653205)
(0.00275341 -0.00254039 0.00548382)
(0.00200288 -0.00232062 0.00424208)
(0.00105923 -0.00207673 0.00288849)
(4.08959e-05 -0.00177423 0.00149854)
(-0.00091206 -0.00138777 0.000131359)
(-0.00167236 -0.000908369 -0.00117439)
(-0.00214707 -0.000342328 -0.00239807)
(-0.00228064 0.000292011 -0.00353083)
(-0.00205254 0.000966614 -0.00456887)
(-0.00148132 0.00164437 -0.00550664)
(-0.000636005 0.00227729 -0.00633048)
(0.00036104 0.00280606 -0.007017)
(0.00136183 0.00317207 -0.00753866)
(0.00223798 0.00334405 -0.0078668)
(0.00290301 0.00333639 -0.00796571)
(0.00414984 0.004557 -0.00749623)
(0.00428594 0.00346266 -0.00705773)
(0.00343193 0.00233433 -0.00633147)
(0.00178713 0.00126295 -0.00536506)
(-0.000310273 0.000289535 -0.00422484)
(-0.00248929 -0.000586773 -0.00299485)
(-0.00445399 -0.00138637 -0.00175783)
(-0.00603611 -0.00213482 -0.000571008)
(-0.00717233 -0.00285738 0.000542381)
(-0.00784685 -0.00357371 0.00158453)
(-0.00804742 -0.00429096 0.00257021)
(-0.00774641 -0.00499661 0.00351733)
(-0.00690155 -0.00565113 0.00444019)
(-0.00547985 -0.00618379 0.00533957)
(-0.00351834 -0.00650094 0.00618511)
(-0.00120246 -0.00651373 0.00690512)
(0.00111926 -0.00617462 0.00740679)
(0.00302505 -0.00549809 0.00761491)
(0.00414984 -0.004557 0.00749623)
(0.00428594 -0.00346266 0.00705773)
(0.00343193 -0.00233433 0.00633147)
(0.00178713 -0.00126295 0.00536506)
(-0.000310273 -0.000289535 0.00422484)
(-0.00248929 0.000586773 0.00299485)
(-0.00445399 0.00138637 0.00175783)
(-0.00603611 0.00213482 0.000571008)
(-0.00717233 0.00285738 -0.000542381)
(-0.00784685 0.00357371 -0.00158453)
(-0.00804742 0.00429096 -0.00257021)
(-0.00774641 0.00499661 -0.00351733)
(-0.00690155 0.00565113 -0.00444019)
(-0.00547985 0.00618379 -0.00533957)
(-0.00351834 0.00650094 -0.00618511)
(-0.00120246 0.00651373 -0.00690512)
(0.00111926 0.00617462 -0.00740679)
(0.00302505 0.00549809 -0.00761491)
(0.00339744 0.00390394 -0.0073871)
(0.00350395 0.00320546 -0.00695532)
(0.00297786 0.0024803 -0.00624731)
(0.00192392 0.00178455 -0.00529675)
(0.000524479 0.00113509 -0.0041625)
(-0.00100537 0.000519854 -0.00292152)
(-0.00246661 -8.36019e-05 -0.00165024)
(-0.00370974 -0.0006955 -0.000406414)
(-0.00463971 -0.00132897 0.000777552)
(-0.00520034 -0.00198781 0.00188996)
(-0.00535662 -0.00266461 0.00293147)
(-0.00508527 -0.00333859 0.0039073)
(-0.00437696 -0.00397236 0.00481997)
(-0.00325277 -0.00450947 0.00566129)
(-0.00179365 -0.00487904 0.00640399)
(-0.000163557 -0.00501468 0.00700004)
(0.00140431 -0.00488107 0.00739186)
(0.00265973 -0.00449116 0.00753038)
(0.00339744 -0.00390394 0.0073871)
(0.00350395 -0.00320546 0.00695532)
(0.00297786 -0.0024803 0.00624731)
(0.00192392 -0.00178455 0.00529675)
(0.000524479 -0.00113509 0.0041625)
(-0.00100537 -0.000519854 0.00292152)
(-0.00246661 8.36019e-05 0.00165024)
(-0.00370974 0.0006955 0.000406414)
(-0.00463971 0.00132897 -0.000777552)
(-0.00520034 0.00198781 -0.00188996)
(-0.00535662 0.00266461 -0.00293147)
(-0.00508527 0.00333859 -0.0039073)
(-0.00437696 0.00397236 -0.00481997)
(-0.00325277 0.00450947 -0.00566129)
(-0.00179365 0.00487904 -0.00640399)
(-0.000163557 0.00501468 -0.00700004)
(0.00140431 0.00488107 -0.00739186)
(0.00265973 0.00449116 -0.00753038)
(0.00263499 0.00342815 -0.00752246)
(0.00273448 0.00315806 -0.00709481)
(0.00254687 0.00283826 -0.00637055)
(0.00208142 0.00249178 -0.00539083)
(0.00136975 0.00212557 -0.00422462)
(0.000477581 0.00173091 -0.00294807)
(-0.000490159 0.00129122 -0.00162971)
(-0.00140327 0.000793174 -0.000323505)
(-0.00213619 0.000233291 0.000933263)
(-0.00259297 -0.000380624 0.00211809)
(-0.00271593 -0.00103004 0.00321885)
(-0.00248615 -0.00168667 0.00422899)
(-0.0019273 -0.00231356 0.0051424)
(-0.00111289 -0.00286656 0.00594847)
(-0.000162022 -0.00329892 0.00662997)
(0.000789301 -0.00357272 0.00716354)
(0.00162324 -0.00367298 0.00751815)
(0.00225577 -0.00361333 0.00765283)
(0.00263499 -0.00342815 0.00752246)
(0.00273448 -0.00315806 0.00709481)
(0.00254687 -0.00283826 0.00637055)
(0.00208142 -0.00249178 0.00539083)
(0.00136975 -0.00212557 0.00422462)
(0.000477581 -0.00173091 0.00294807)
(-0.000490159 -0.00129122 0.00162971)
(-0.00140327 -0.000793174 0.000323505)
(-0.00213619 -0.000233291 -0.000933263)
(-0.00259297 0.000380624 -0.00211809)
(-0.00271593 0.00103004 -0.00321885)
(-0.00248615 0.00168667 -0.00422899)
(-0.0019273 0.00231356 -0.0051424)
(-0.00111289 0.00286656 -0.00594847)
(-0.000162022 0.00329892 -0.00662997)
(0.000789301 0.00357272 -0.00716354)
(0.00162324 0.00367298 -0.00751815)
(0.00225577 0.00361333 -0.00765283)
(0.00246114 0.00466446 -0.00679559)
(0.00259914 0.0033933 -0.00652328)
(0.00190588 0.00208495 -0.00600702)
(0.000519908 0.000830548 -0.00526503)
(-0.00130235 -0.000320102 -0.00433214)
(-0.00325619 -0.00135818 -0.00326661)
(-0.00507086 -0.00229909 -0.00214047)
(-0.00656514 -0.00316602 -0.00101696)
(-0.00764845 -0.0039816 6.56341e-05)
(-0.00828314 -0.004762 0.00109325)
(-0.00844708 -0.0055093 0.00206666)
(-0.00811639 -0.0062034 0.00299276)
(-0.00726915 -0.00679642 0.00387752)
(-0.00591067 -0.00721391 0.00471608)
(-0.00411933 -0.007369 0.00548127)
(-0.00208601 -0.00719094 0.00612277)
(-0.000102274 -0.00665373 0.00658254)
(0.00150601 -0.00578636 0.00681454)
(0.00246114 -0.00466446 0.00679559)
(0.00259914 -0.0033933 0.00652328)
(0.00190588 -0.00208495 0.00600702)
(0.000519908 -0.000830548 0.00526503)
(-0.00130235 0.000320102 0.00433214)
(-0.00325619 0.00135818 0.00326661)
(-0.00507086 0.00229909 0.00214047)
(-0.00656514 0.00316602 0.00101696)
(-0.00764845 0.0039816 -6.56341e-05)