/*--------------------------------*- C++ -*----------------------------------*\
| =========                 |                                                 |
| \\      /  F ield         | OpenFOAM: The Open Source CFD Toolbox           |
|  \\    /   O peration     | Version:  2312                                  |
|   \\  /    A nd           | Website:  www.openfoam.com                      |
|    \\/     M anipulation  |                                                 |
\*---------------------------------------------------------------------------*/
FoamFile
{
    version     2.0;
    format      ascii;
    arch        "LSB;label=32;scalar=64";
    class       volTensorField;
    location    "0.4";
    object      F;
}
// * * * * * * * * * * * * * * * * * * * * * * * * * * * * * * * * * * * * * //

dimensions      [0 0 0 0 0 0 0];

internalField   nonuniform List<tensor> 
1620
(
(0.882309 0.0496112 -0.0795279 -0.0697723 1.00834 0.0750226 0.269656 -0.00392667 1.07105)
(0.857216 0.0480562 -0.108752 -0.0688753 1.01598 0.0388889 0.236685 0.0134864 1.08298)
(0.866733 0.0449509 -0.116681 -0.0683476 1.0207 0.00362112 0.189445 0.033546 1.07056)
(0.902774 0.0422132 -0.108078 -0.0666541 1.01605 -0.0149361 0.137151 0.0545294 1.04543)
(0.952127 0.0420835 -0.0922914 -0.0636856 0.99977 -0.0163305 0.0858732 0.0725763 1.02153)
(1.00392 0.0448101 -0.0752335 -0.0591625 0.973527 -0.00921359 0.0395947 0.0829568 1.00703)
(1.05142 0.0487275 -0.0587085 -0.0527192 0.941888 -0.00327665 0.000386701 0.0820347 1.00279)
(1.09139 0.0511569 -0.0427504 -0.0443243 0.910845 -0.0045955 -0.0315371 0.0686383 1.00492)
(1.12277 0.0493717 -0.0276664 -0.0342381 0.886231 -0.0146433 -0.057599 0.0442402 1.00795)
(1.14539 0.0415148 -0.0147805 -0.022615 0.872596 -0.0311895 -0.0803495 0.0124384 1.00716)
(1.15897 0.0272701 -0.00613692 -0.00917386 0.872579 -0.049486 -0.102711 -0.0217162 0.999823)
(1.16261 0.00818053 -0.00365467 0.00673817 0.886428 -0.0631631 -0.127107 -0.0523879 0.985933)
(1.15476 -0.0124599 -0.00793111 0.0255195 0.911456 -0.0651973 -0.15469 -0.0738546 0.968724)
(1.13375 -0.0304445 -0.0167469 0.0461552 0.941829 -0.0498194 -0.184965 -0.0819686 0.954708)
(1.09882 -0.0425159 -0.0239341 0.0651184 0.969779 -0.0158735 -0.216127 -0.0759809 0.9521)
(1.05112 -0.0483555 -0.020473 0.0770421 0.988921 0.029547 -0.245691 -0.0594988 0.966929)
(0.993948 -0.0502438 0.000624738 0.0787111 0.998306 0.0706074 -0.269498 -0.0391594 0.998478)
(0.933458 -0.0502522 0.0380027 0.0734084 1.00288 0.0888512 -0.279508 -0.0204887 1.03799)
(0.882309 -0.0496112 0.0795279 0.0697723 1.00834 0.0750226 -0.269656 -0.00392667 1.07105)
(0.857216 -0.0480562 0.108752 0.0688753 1.01598 0.0388889 -0.236685 0.0134864 1.08298)
(0.866733 -0.0449509 0.116681 0.0683476 1.0207 0.00362112 -0.189445 0.033546 1.07056)
(0.902774 -0.0422132 0.108078 0.0666541 1.01605 -0.0149361 -0.137151 0.0545294 1.04543)
(0.952127 -0.0420835 0.0922914 0.0636856 0.99977 -0.0163305 -0.0858732 0.0725763 1.02153)
(1.00392 -0.0448101 0.0752335 0.0591625 0.973527 -0.00921359 -0.0395947 0.0829568 1.00703)
(1.05142 -0.0487275 0.0587085 0.0527192 0.941888 -0.00327665 -0.000386701 0.0820347 1.00279)
(1.09139 -0.0511569 0.0427504 0.0443243 0.910845 -0.0045955 0.0315371 0.0686383 1.00492)
(1.12277 -0.0493717 0.0276664 0.0342381 0.886231 -0.0146433 0.057599 0.0442402 1.00795)
(1.14539 -0.0415148 0.0147805 0.022615 0.872596 -0.0311895 0.0803495 0.0124384 1.00716)
(1.15897 -0.0272701 0.00613692 0.00917386 0.872579 -0.049486 0.102711 -0.0217162 0.999823)
(1.16261 -0.00818053 0.00365467 -0.00673817 0.886428 -0.0631631 0.127107 -0.0523879 0.985933)
(1.15476 0.0124599 0.00793111 -0.0255195 0.911456 -0.0651973 0.15469 -0.0738546 0.968724)
(1.13375 0.0304445 0.0167469 -0.0461552 0.941829 -0.0498194 0.184965 -0.0819686 0.954708)
(1.09882 0.0425159 0.0239341 -0.0651184 0.969779 -0.0158735 0.216127 -0.0759809 0.9521)
(1.05112 0.0483555 0.020473 -0.0770421 0.988921 0.029547 0.245691 -0.0594988 0.966929)
(0.993948 0.0502438 -0.000624738 -0.0787111 0.998306 0.0706074 0.269498 -0.0391594 0.998478)
(0.933458 0.0502522 -0.0380027 -0.0734084 1.00288 0.0888512 0.279508 -0.0204887 1.03799)
(0.913115 0.0251409 -0.0716079 -0.0814691 0.992595 0.0573694 0.264048 0.0110386 1.06373)
(0.897863 0.0323415 -0.09683 -0.0727196 0.994768 0.024862 0.240839 0.0135044 1.07134)
(0.902736 0.0384415 -0.102059 -0.0684919 1.006 -0.00352425 0.206181 0.0219683 1.0556)
(0.92643 0.0398683 -0.0932001 -0.0677075 1.01245 -0.012414 0.163768 0.0395051 1.03051)
(0.962027 0.0393915 -0.0799133 -0.0686895 1.00397 -0.00410325 0.117243 0.0603389 1.01115)
(1.0022 0.0407842 -0.0668503 -0.0692648 0.979552 0.00967814 0.0701433 0.075277 1.00464)
(1.04122 0.0447131 -0.0538229 -0.0675293 0.945352 0.017676 0.0253474 0.0772282 1.00955)
(1.07518 0.0487272 -0.0393738 -0.0624057 0.910392 0.0139663 -0.0155177 0.0637687 1.01971)
(1.10172 0.04914 -0.0233411 -0.0535837 0.883108 -0.00171235 -0.0522644 0.0369668 1.02811)
(1.11945 0.0429608 -0.00749462 -0.0410992 0.869544 -0.0255485 -0.08584 0.00202393 1.02942)
(1.12746 0.0291604 0.00508351 -0.0249753 0.872694 -0.0513481 -0.117701 -0.0341391 1.02109)
(1.12498 0.00927358 0.0111526 -0.00517941 0.892284 -0.0717529 -0.149086 -0.0640717 1.00379)
(1.1115 -0.0125703 0.00879089 0.0180139 0.924549 -0.0792801 -0.180347 -0.0810549 0.981721)
(1.08722 -0.0305069 -0.000766053 0.0432806 0.962142 -0.0679736 -0.21052 -0.0809113 0.962437)
(1.05397 -0.0392937 -0.0115362 0.0674221 0.995026 -0.0364113 -0.237395 -0.0642795 0.955179)
(1.01558 -0.0377264 -0.0135454 0.0854866 1.01358 0.00851432 -0.258341 -0.0378011 0.966715)
(0.976896 -0.03019 0.00188547 0.0931513 1.01406 0.0504322 -0.271227 -0.0118961 0.996209)
(0.941524 -0.0240231 0.0344498 0.0899819 1.00262 0.0697603 -0.273848 0.00484144 1.03377)
(0.913115 -0.0251409 0.0716079 0.0814691 0.992595 0.0573694 -0.264048 0.0110386 1.06373)
(0.897863 -0.0323415 0.09683 0.0727196 0.994768 0.024862 -0.240839 0.0135044 1.07134)
(0.902736 -0.0384415 0.102059 0.0684919 1.006 -0.00352425 -0.206181 0.0219683 1.0556)
(0.92643 -0.0398683 0.0932001 0.0677075 1.01245 -0.012414 -0.163768 0.0395051 1.03051)
(0.962027 -0.0393915 0.0799133 0.0686895 1.00397 -0.00410325 -0.117243 0.0603389 1.01115)
(1.0022 -0.0407842 0.0668503 0.0692648 0.979552 0.00967814 -0.0701433 0.075277 1.00464)
(1.04122 -0.0447131 0.0538229 0.0675293 0.945352 0.017676 -0.0253474 0.0772282 1.00955)
(1.07518 -0.0487272 0.0393738 0.0624057 0.910392 0.0139663 0.0155177 0.0637687 1.01971)
(1.10172 -0.04914 0.0233411 0.0535837 0.883108 -0.00171235 0.0522644 0.0369668 1.02811)
(1.11945 -0.0429608 0.00749462 0.0410992 0.869544 -0.0255485 0.08584 0.00202393 1.02942)
(1.12746 -0.0291604 -0.00508351 0.0249753 0.872694 -0.0513481 0.117701 -0.0341391 1.02109)
(1.12498 -0.00927358 -0.0111526 0.00517941 0.892284 -0.0717529 0.149086 -0.0640717 1.00379)
(1.1115 0.0125703 -0.00879089 -0.0180139 0.924549 -0.0792801 0.180347 -0.0810549 0.981721)
(1.08722 0.0305069 0.000766053 -0.0432806 0.962142 -0.0679736 0.21052 -0.0809113 0.962437)
(1.05397 0.0392937 0.0115362 -0.0674221 0.995026 -0.0364113 0.237395 -0.0642795 0.955179)
(1.01558 0.0377264 0.0135454 -0.0854866 1.01358 0.00851432 0.258341 -0.0378011 0.966715)
(0.976896 0.03019 -0.00188547 -0.0931513 1.01406 0.0504322 0.271227 -0.0118961 0.996209)
(0.941524 0.0240231 -0.0344498 -0.0899819 1.00262 0.0697603 0.273848 0.00484144 1.03377)
(0.94309 0.00516907 -0.062536 -0.0905271 0.980569 0.0385077 0.249389 0.0226729 1.05573)
(0.937368 0.017882 -0.0833191 -0.0750695 0.979009 0.0116445 0.234618 0.0124159 1.05873)
(0.938537 0.0304718 -0.0865378 -0.0664709 0.995788 -0.00846143 0.21338 0.0113165 1.04047)
(0.950189 0.0351612 -0.0782122 -0.0656216 1.01234 -0.00690597 0.183051 0.0259637 1.01647)
(0.97189 0.034178 -0.0680938 -0.0700919 1.01142 0.0119255 0.143902 0.0494266 1.00262)
(1.00024 0.0341035 -0.0599082 -0.0759438 0.988677 0.033108 0.0983954 0.0687146 1.00519)
(1.03063 0.0381073 -0.0513689 -0.0794907 0.951348 0.0431592 0.0498929 0.0732975 1.02052)
(1.05854 0.044159 -0.0390999 -0.0783077 0.911684 0.0358488 0.00138085 0.0592561 1.03974)
(1.08033 0.0474901 -0.0221728 -0.0712929 0.881311 0.0123008 -0.0452471 0.0292875 1.05367)
(1.0934 0.0436967 -0.00279405 -0.0582318 0.868175 -0.0213508 -0.0891769 -0.00934335 1.05593)
(1.09618 0.0308128 0.0147085 -0.0393988 0.875514 -0.0565273 -0.130226 -0.047232 1.04435)
(1.08806 0.0102999 0.0254841 -0.0154062 0.901878 -0.0842185 -0.168284 -0.0750101 1.0211)
(1.06959 -0.0128064 0.0260463 0.0126962 0.941547 -0.0964646 -0.202788 -0.085362 0.992455)
(1.04298 -0.03093 0.0165382 0.0430639 0.985094 -0.0878091 -0.232253 -0.0752078 0.967755)
(1.0126 -0.0370091 0.00273111 0.0724549 1.02046 -0.0575794 -0.254152 -0.04787 0.95713)
(0.984697 -0.0292612 -0.0045797 0.0958352 1.036 -0.0131709 -0.26587 -0.0135301 0.967005)
(0.964567 -0.0141029 0.00471566 0.107465 1.02699 0.0287028 -0.267057 0.0145211 0.995146)
(0.952118 -0.00318974 0.0312427 0.104151 1.00206 0.0485208 -0.260729 0.0267858 1.03005)
(0.94309 -0.00516907 0.062536 0.0905271 0.980569 0.0385077 -0.249389 0.0226729 1.05573)
(0.937368 -0.017882 0.0833191 0.0750695 0.979009 0.0116445 -0.234618 0.0124159 1.05873)
(0.938537 -0.0304718 0.0865378 0.0664709 0.995788 -0.00846143 -0.21338 0.0113165 1.04047)
(0.950189 -0.0351612 0.0782122 0.0656216 1.01234 -0.00690597 -0.183051 0.0259637 1.01647)
(0.97189 -0.034178 0.0680938 0.0700919 1.01142 0.0119255 -0.143902 0.0494266 1.00262)
(1.00024 -0.0341035 0.0599082 0.0759438 0.988677 0.033108 -0.0983954 0.0687146 1.00519)
(1.03063 -0.0381073 0.0513689 0.0794907 0.951348 0.0431592 -0.0498929 0.0732975 1.02052)
(1.05854 -0.044159 0.0390999 0.0783077 0.911684 0.0358488 -0.00138085 0.0592561 1.03974)
(1.08033 -0.0474901 0.0221728 0.0712929 0.881311 0.0123008 0.0452471 0.0292875 1.05367)
(1.0934 -0.0436967 0.00279405 0.0582318 0.868175 -0.0213508 0.0891769 -0.00934335 1.05593)
(1.09618 -0.0308128 -0.0147085 0.0393988 0.875514 -0.0565273 0.130226 -0.047232 1.04435)
(1.08806 -0.0102999 -0.0254841 0.0154062 0.901878 -0.0842185 0.168284 -0.0750101 1.0211)
(1.06959 0.0128064 -0.0260463 -0.0126962 0.941547 -0.0964646 0.202788 -0.085362 0.992455)
(1.04298 0.03093 -0.0165382 -0.0430639 0.985094 -0.0878091 0.232253 -0.0752078 0.967755)
(1.0126 0.0370091 -0.00273111 -0.0724549 1.02046 -0.0575794 0.254152 -0.04787 0.95713)
(0.984697 0.0292612 0.0045797 -0.0958352 1.036 -0.0131709 0.26587 -0.0135301 0.967005)
(0.964567 0.0141029 -0.00471566 -0.107465 1.02699 0.0287028 0.267057 0.0145211 0.995146)
(0.952118 0.00318974 -0.0312427 -0.104151 1.00206 0.0485208 0.260729 0.0267858 1.03005)
(0.85805 0.123878 -0.160133 -0.0958546 1.00381 0.109376 0.244838 0.0282473 1.09289)
(0.846461 0.0920007 -0.216252 -0.0862643 1.01487 0.0508049 0.216171 0.0808091 1.09274)
(0.870068 0.0535028 -0.225419 -0.0745239 1.02085 0.0040543 0.176338 0.129454 1.06735)
(0.916168 0.0215304 -0.204737 -0.0642217 1.01184 -0.0153837 0.132348 0.168909 1.03807)
(0.972169 0.00190902 -0.173152 -0.0564311 0.985431 -0.0130322 0.088772 0.192413 1.02017)
(1.02831 -0.00612864 -0.141762 -0.0499579 0.945346 -0.00373034 0.0483109 0.193497 1.018)
(1.07838 -0.00692425 -0.113933 -0.0432264 0.900129 -0.000470564 0.0124885 0.169951 1.02689)
(1.11933 -0.0066747 -0.0894419 -0.0353123 0.859864 -0.00936482 -0.0183563 0.124536 1.03841)
(1.15023 -0.0116663 -0.0682628 -0.0258933 0.833095 -0.0298895 -0.0450831 0.0637002 1.04469)
(1.17106 -0.026396 -0.0520703 -0.0147973 0.825194 -0.0571667 -0.0694301 -0.00406113 1.04057)
(1.18171 -0.0521732 -0.0437447 -0.001661 0.837866 -0.0839763 -0.0934191 -0.0694642 1.02432)
(1.18147 -0.0864713 -0.0457735 0.0140641 0.868974 -0.101871 -0.11866 -0.123355 0.997789)
(1.16879 -0.12309 -0.0581043 0.0327028 0.912209 -0.101925 -0.14577 -0.157737 0.966743)
(1.14162 -0.153486 -0.0756767 0.053609 0.95706 -0.0764542 -0.174146 -0.167402 0.941128)
(1.0984 -0.169983 -0.0864292 0.0743838 0.990947 -0.023316 -0.202236 -0.152035 0.9339)
(1.04006 -0.170463 -0.0725578 0.0909625 1.00537 0.047642 -0.227973 -0.117009 0.955468)
(0.972454 -0.16017 -0.0193851 0.0997735 1.00335 0.111679 -0.248175 -0.0709002 1.00312)
(0.907108 -0.144886 0.0687557 0.100341 0.999417 0.137497 -0.255945 -0.0224427 1.05607)
(0.85805 -0.123878 0.160133 0.0958546 1.00381 0.109376 -0.244838 0.0282473 1.09289)
(0.846461 -0.0920007 0.216252 0.0862643 1.01487 0.0508049 -0.216171 0.0808091 1.09274)
(0.870068 -0.0535028 0.225419 0.0745239 1.02085 0.0040543 -0.176338 0.129454 1.06735)
(0.916168 -0.0215304 0.204737 0.0642217 1.01184 -0.0153837 -0.132348 0.168909 1.03807)
(0.972169 -0.00190902 0.173152 0.0564311 0.985431 -0.0130322 -0.088772 0.192413 1.02017)
(1.02831 0.00612864 0.141762 0.0499579 0.945346 -0.00373034 -0.0483109 0.193497 1.018)
(1.07838 0.00692425 0.113933 0.0432264 0.900129 -0.000470564 -0.0124885 0.169951 1.02689)
(1.11933 0.0066747 0.0894419 0.0353123 0.859864 -0.00936482 0.0183563 0.124536 1.03841)
(1.15023 0.0116663 0.0682628 0.0258933 0.833095 -0.0298895 0.0450831 0.0637002 1.04469)
(1.17106 0.026396 0.0520703 0.0147973 0.825194 -0.0571667 0.0694301 -0.00406113 1.04057)
(1.18171 0.0521732 0.0437447 0.001661 0.837866 -0.0839763 0.0934191 -0.0694642 1.02432)
(1.18147 0.0864713 0.0457735 -0.0140641 0.868974 -0.101871 0.11866 -0.123355 0.997789)
(1.16879 0.12309 0.0581043 -0.0327028 0.912209 -0.101925 0.14577 -0.157737 0.966743)
(1.14162 0.153486 0.0756767 -0.053609 0.95706 -0.0764542 0.174146 -0.167402 0.941128)
(1.0984 0.169983 0.0864292 -0.0743838 0.990947 -0.023316 0.202236 -0.152035 0.9339)
(1.04006 0.170463 0.0725578 -0.0909625 1.00537 0.047642 0.227973 -0.117009 0.955468)
(0.972454 0.16017 0.0193851 -0.0997735 1.00335 0.111679 0.248175 -0.0709002 1.00312)
(0.907108 0.144886 -0.0687557 -0.100341 0.999417 0.137497 0.255945 -0.0224427 1.05607)
(0.888003 0.0763582 -0.152274 -0.0869337 0.976133 0.0870772 0.238657 0.0372821 1.09566)
(0.879731 0.0724658 -0.202631 -0.0767534 0.983576 0.0322631 0.218339 0.0649306 1.09021)
(0.892641 0.0570583 -0.205094 -0.0689336 1.00463 -0.00665658 0.189066 0.102568 1.0588)
(0.921911 0.0324002 -0.180592 -0.0649215 1.01365 -0.0138525 0.152728 0.145568 1.02901)
(0.960774 0.00910632 -0.150966 -0.0637274 0.997985 0.0011508 0.111789 0.179945 1.01834)
(1.00274 -0.00503131 -0.125695 -0.0628908 0.959172 0.0188778 0.0691773 0.191449 1.02899)
(1.04254 -0.00923015 -0.104107 -0.0601616 0.90903 0.0239321 0.0275848 0.173132 1.05218)
(1.07651 -0.00898209 -0.0825992 -0.0542777 0.862399 0.0104393 -0.0112588 0.126824 1.07558)
(1.10248 -0.0123937 -0.0599116 -0.0448542 0.831617 -0.0190959 -0.0468332 0.0607314 1.0888)
(1.11924 -0.0261976 -0.0385875 -0.0319492 0.824045 -0.0571218 -0.079579 -0.0136377 1.08576)
(1.12605 -0.052983 -0.0237581 -0.0157345 0.841586 -0.0939103 -0.110382 -0.0838118 1.06521)
(1.12224 -0.0898654 -0.0206911 0.00356174 0.880956 -0.119369 -0.140016 -0.138044 1.03049)
(1.1072 -0.128448 -0.0317818 0.025442 0.934084 -0.124138 -0.168677 -0.166786 0.989334)
(1.08068 -0.156465 -0.0531741 0.0487004 0.988555 -0.100969 -0.195677 -0.164511 0.953604)
(1.04347 -0.1623 -0.071876 0.0708723 1.0291 -0.0481587 -0.219359 -0.132434 0.938142)
(0.998544 -0.142888 -0.0668006 0.0881309 1.04246 0.0241505 -0.237442 -0.0812246 0.955472)
(0.951916 -0.110196 -0.019601 0.0967663 1.02599 0.0898169 -0.247795 -0.0288349 1.00392)
(0.912767 -0.0847024 0.0653345 0.0955227 0.99545 0.115396 -0.248736 0.0102843 1.05987)
(0.888003 -0.0763582 0.152274 0.0869337 0.976133 0.0870772 -0.238657 0.0372821 1.09566)
(0.879731 -0.0724658 0.202631 0.0767534 0.983576 0.0322631 -0.218339 0.0649306 1.09021)
(0.892641 -0.0570583 0.205094 0.0689336 1.00463 -0.00665658 -0.189066 0.102568 1.0588)
(0.921911 -0.0324002 0.180592 0.0649215 1.01365 -0.0138525 -0.152728 0.145568 1.02901)
(0.960774 -0.00910632 0.150966 0.0637274 0.997985 0.0011508 -0.111789 0.179945 1.01834)
(1.00274 0.00503131 0.125695 0.0628908 0.959172 0.0188778 -0.0691773 0.191449 1.02899)
(1.04254 0.00923015 0.104107 0.0601616 0.90903 0.0239321 -0.0275848 0.173132 1.05218)
(1.07651 0.00898209 0.0825992 0.0542777 0.862399 0.0104393 0.0112588 0.126824 1.07558)
(1.10248 0.0123937 0.0599116 0.0448542 0.831617 -0.0190959 0.0468332 0.0607314 1.0888)
(1.11924 0.0261976 0.0385875 0.0319492 0.824045 -0.0571218 0.079579 -0.0136377 1.08576)
(1.12605 0.052983 0.0237581 0.0157345 0.841586 -0.0939103 0.110382 -0.0838118 1.06521)
(1.12224 0.0898654 0.0206911 -0.00356174 0.880956 -0.119369 0.140016 -0.138044 1.03049)
(1.1072 0.128448 0.0317818 -0.025442 0.934084 -0.124138 0.168677 -0.166786 0.989334)
(1.08068 0.156465 0.0531741 -0.0487004 0.988555 -0.100969 0.195677 -0.164511 0.953604)
(1.04347 0.1623 0.071876 -0.0708723 1.0291 -0.0481587 0.219359 -0.132434 0.938142)
(0.998544 0.142888 0.0668006 -0.0881309 1.04246 0.0241505 0.237442 -0.0812246 0.955472)
(0.951916 0.110196 0.019601 -0.0967663 1.02599 0.0898169 0.247795 -0.0288349 1.00392)
(0.912767 0.0847024 -0.0653345 -0.0955227 0.99545 0.115396 0.248736 0.0102843 1.05987)
(0.91638 0.0309733 -0.143651 -0.0806318 0.949765 0.0629928 0.225544 0.0446815 1.10016)
(0.911635 0.0527472 -0.188311 -0.0688551 0.955138 0.0140709 0.213869 0.0445334 1.08828)
(0.91512 0.0610066 -0.183719 -0.0624647 0.990364 -0.0161223 0.195009 0.0698812 1.04966)
(0.927972 0.0446081 -0.15436 -0.061974 1.01847 -0.00983652 0.167013 0.117359 1.01907)
(0.949428 0.0168735 -0.126534 -0.0654072 1.01525 0.0197477 0.130354 0.164786 1.01667)
(0.976733 -0.0049683 -0.108578 -0.0693074 0.978425 0.0476079 0.0876306 0.18908 1.04261)
(1.00583 -0.013698 -0.0949915 -0.0704884 0.922691 0.0547258 0.0422206 0.177534 1.08334)
(1.03255 -0.0136335 -0.0777568 -0.0669845 0.868403 0.0349144 -0.00297848 0.130499 1.1215)
(1.05346 -0.0150013 -0.0537951 -0.0580623 0.832792 -0.00694147 -0.0461216 0.0581937 1.14299)
(1.06619 -0.0273287 -0.0265506 -0.0438176 0.825904 -0.059509 -0.0863179 -0.0239322 1.14018)
(1.06932 -0.0548584 -0.00390377 -0.0248448 0.849744 -0.109232 -0.123237 -0.0991062 1.1125)
(1.06227 -0.0942928 0.00542064 -0.00209178 0.899026 -0.143439 -0.156717 -0.152287 1.0659)
(1.04543 -0.134553 -0.00393846 0.0231487 0.962707 -0.152252 -0.186409 -0.172565 1.01156)
(1.02045 -0.159058 -0.029385 0.0490789 1.02552 -0.129655 -0.211395 -0.155249 0.964418)
(0.990728 -0.152308 -0.056484 0.0729772 1.06936 -0.0755691 -0.229874 -0.104661 0.941324)
(0.961393 -0.111813 -0.0602243 0.0908641 1.07707 -0.00128134 -0.239594 -0.0376171 0.955895)
(0.938228 -0.0584575 -0.0188226 0.0984304 1.0429 0.0654984 -0.239838 0.018851 1.00637)
(0.924766 -0.0266153 0.0622476 0.0937285 0.987527 0.0903894 -0.233832 0.0450476 1.06582)
(0.91638 -0.0309733 0.143651 0.0806318 0.949765 0.0629928 -0.225544 0.0446815 1.10016)
(0.911635 -0.0527472 0.188311 0.0688551 0.955138 0.0140709 -0.213869 0.0445334 1.08828)
(0.91512 -0.0610066 0.183719 0.0624647 0.990364 -0.0161223 -0.195009 0.0698812 1.04966)
(0.927972 -0.0446081 0.15436 0.061974 1.01847 -0.00983652 -0.167013 0.117359 1.01907)
(0.949428 -0.0168735 0.126534 0.0654072 1.01525 0.0197477 -0.130354 0.164786 1.01667)
(0.976733 0.0049683 0.108578 0.0693074 0.978425 0.0476079 -0.0876306 0.18908 1.04261)
(1.00583 0.013698 0.0949915 0.0704884 0.922691 0.0547258 -0.0422206 0.177534 1.08334)
(1.03255 0.0136335 0.0777568 0.0669845 0.868403 0.0349144 0.00297848 0.130499 1.1215)
(1.05346 0.0150013 0.0537951 0.0580623 0.832792 -0.00694147 0.0461216 0.0581937 1.14299)
(1.06619 0.0273287 0.0265506 0.0438176 0.825904 -0.059509 0.0863179 -0.0239322 1.14018)
(1.06932 0.0548584 0.00390377 0.0248448 0.849744 -0.109232 0.123237 -0.0991062 1.1125)
(1.06227 0.0942928 -0.00542064 0.00209178 0.899026 -0.143439 0.156717 -0.152287 1.0659)
(1.04543 0.134553 0.00393846 -0.0231487 0.962707 -0.152252 0.186409 -0.172565 1.01156)
(1.02045 0.159058 0.029385 -0.0490789 1.02552 -0.129655 0.211395 -0.155249 0.964418)
(0.990728 0.152308 0.056484 -0.0729772 1.06936 -0.0755691 0.229874 -0.104661 0.941324)
(0.961393 0.111813 0.0602243 -0.0908641 1.07707 -0.00128134 0.239594 -0.0376171 0.955895)
(0.938228 0.0584575 0.0188226 -0.0984304 1.0429 0.0654984 0.239838 0.018851 1.00637)
(0.924766 0.0266153 -0.0622476 -0.0937285 0.987527 0.0903894 0.233832 0.0450476 1.06582)
(0.836346 0.175135 -0.240603 -0.123919 0.99425 0.0298238 0.181936 0.0576969 1.11485)
(0.844754 0.0814778 -0.297401 -0.0957824 1.00102 -0.0164207 0.162555 0.130102 1.10548)
(0.885289 -0.00725043 -0.285512 -0.0679008 1.00356 -0.037363 0.138388 0.195073 1.07099)
(0.94324 -0.0799673 -0.239253 -0.0464112 0.989303 -0.0297183 0.111645 0.242999 1.04162)
(1.00681 -0.134167 -0.187514 -0.0314628 0.953456 -0.00846912 0.0835984 0.263788 1.03339)
(1.06685 -0.169671 -0.145754 -0.0207282 0.902052 0.00796288 0.0553121 0.250865 1.04467)
(1.11761 -0.190019 -0.117581 -0.011859 0.848052 0.0081285 0.0277704 0.204619 1.0646)
(1.15675 -0.202207 -0.100941 -0.00319725 0.804958 -0.0101414 0.00152371 0.132083 1.08128)
(1.18411 -0.214175 -0.0934134 0.00629805 0.782484 -0.042158 -0.0234095 0.0442012 1.08611)
(1.20025 -0.232009 -0.094386 0.0172834 0.785104 -0.0797918 -0.0473885 -0.0467232 1.07509)
(1.20549 -0.258095 -0.104582 0.0302078 0.812181 -0.113945 -0.0708667 -0.128724 1.04863)
(1.19939 -0.290431 -0.124059 0.0453485 0.85849 -0.135792 -0.094092 -0.191385 1.01102)
(1.18045 -0.322992 -0.149481 0.0627396 0.914645 -0.137387 -0.116946 -0.226949 0.970226)
(1.146 -0.347187 -0.171458 0.0820937 0.967708 -0.112908 -0.139005 -0.231519 0.93786)
(1.09316 -0.354502 -0.173666 0.102685 1.00365 -0.062337 -0.159559 -0.206171 0.9286)
(1.02228 -0.339864 -0.136803 0.122777 1.01421 0.0024421 -0.177183 -0.156912 0.955316)
(0.942231 -0.303242 -0.0482627 0.138139 1.0049 0.0557576 -0.189398 -0.0909304 1.01634)
(0.872493 -0.249786 0.0889921 0.140837 0.994634 0.0690841 -0.192651 -0.0172156 1.08096)
(0.836346 -0.175135 0.240603 0.123919 0.99425 0.0298238 -0.181936 0.0576969 1.11485)
(0.844754 -0.0814778 0.297401 0.0957824 1.00102 -0.0164207 -0.162555 0.130102 1.10548)
(0.885289 0.00725043 0.285512 0.0679008 1.00356 -0.037363 -0.138388 0.195073 1.07099)
(0.94324 0.0799673 0.239253 0.0464112 0.989303 -0.0297183 -0.111645 0.242999 1.04162)
(1.00681 0.134167 0.187514 0.0314628 0.953456 -0.00846912 -0.0835984 0.263788 1.03339)
(1.06685 0.169671 0.145754 0.0207282 0.902052 0.00796288 -0.0553121 0.250865 1.04467)
(1.11761 0.190019 0.117581 0.011859 0.848052 0.0081285 -0.0277704 0.204619 1.0646)
(1.15675 0.202207 0.100941 0.00319725 0.804958 -0.0101414 -0.00152371 0.132083 1.08128)
(1.18411 0.214175 0.0934134 -0.00629805 0.782484 -0.042158 0.0234095 0.0442012 1.08611)
(1.20025 0.232009 0.094386 -0.0172834 0.785104 -0.0797918 0.0473885 -0.0467232 1.07509)
(1.20549 0.258095 0.104582 -0.0302078 0.812181 -0.113945 0.0708667 -0.128724 1.04863)
(1.19939 0.290431 0.124059 -0.0453485 0.85849 -0.135792 0.094092 -0.191385 1.01102)
(1.18045 0.322992 0.149481 -0.0627396 0.914645 -0.137387 0.116946 -0.226949 0.970226)
(1.146 0.347187 0.171458 -0.0820937 0.967708 -0.112908 0.139005 -0.231519 0.93786)
(1.09316 0.354502 0.173666 -0.102685 1.00365 -0.062337 0.159559 -0.206171 0.9286)
(1.02228 0.339864 0.136803 -0.122777 1.01421 0.0024421 0.177183 -0.156912 0.955316)
(0.942231 0.303242 0.0482627 -0.138139 1.0049 0.0557576 0.189398 -0.0909304 1.01634)
(0.872493 0.249786 -0.0889921 -0.140837 0.994634 0.0690841 0.192651 -0.0172156 1.08096)
(0.858756 0.110701 -0.228065 -0.0881712 0.966713 0.0187929 0.180965 0.0611983 1.12214)
(0.862755 0.0755292 -0.276297 -0.0748718 0.980763 -0.0250322 0.165927 0.104837 1.10348)
(0.886974 0.0201612 -0.253409 -0.0625622 1.00317 -0.039914 0.145096 0.160523 1.06418)
(0.923587 -0.0461725 -0.199752 -0.0534314 1.00756 -0.0231002 0.118828 0.217368 1.03843)
(0.966283 -0.110541 -0.149295 -0.0466465 0.981308 0.00745826 0.0885316 0.254185 1.04193)
(1.00938 -0.159833 -0.116099 -0.0403922 0.929655 0.0294233 0.0563504 0.254617 1.06955)
(1.04829 -0.189673 -0.0981833 -0.0331452 0.869456 0.029024 0.0243041 0.214508 1.10582)
(1.08012 -0.205535 -0.0882678 -0.0240473 0.819235 0.00429864 -0.00627012 0.140756 1.13493)
(1.10341 -0.217714 -0.0817026 -0.0128091 0.792567 -0.0379123 -0.0347727 0.0467993 1.1459)
(1.11759 -0.235432 -0.0787809 0.00049475 0.795756 -0.0864627 -0.061124 -0.0514456 1.13404)
(1.12233 -0.262892 -0.0831941 0.0155682 0.827932 -0.129409 -0.0854931 -0.138392 1.10065)
(1.11716 -0.297535 -0.0987305 0.0319371 0.882137 -0.156171 -0.108089 -0.200872 1.05219)
(1.10128 -0.330091 -0.125211 0.0489517 0.946723 -0.158608 -0.129056 -0.229672 0.999257)
(1.07363 -0.346702 -0.154259 0.0657919 1.00661 -0.131854 -0.148401 -0.220571 0.955727)
(1.03362 -0.334209 -0.166765 0.0813884 1.04512 -0.0771108 -0.165739 -0.175815 0.938123)
(0.982867 -0.288301 -0.136853 0.0941139 1.04973 -0.0076773 -0.179812 -0.107008 0.961311)
(0.92794 -0.218601 -0.0465705 0.101293 1.02202 0.0480503 -0.188326 -0.0352481 1.02449)
(0.881941 -0.150721 0.0941702 0.0994773 0.983684 0.058902 -0.189034 0.0202825 1.09285)
(0.858756 -0.110701 0.228065 0.0881712 0.966713 0.0187929 -0.180965 0.0611983 1.12214)
(0.862755 -0.0755292 0.276297 0.0748718 0.980763 -0.0250322 -0.165927 0.104837 1.10348)
(0.886974 -0.0201612 0.253409 0.0625622 1.00317 -0.039914 -0.145096 0.160523 1.06418)
(0.923587 0.0461725 0.199752 0.0534314 1.00756 -0.0231002 -0.118828 0.217368 1.03843)
(0.966283 0.110541 0.149295 0.0466465 0.981308 0.00745826 -0.0885316 0.254185 1.04193)
(1.00938 0.159833 0.116099 0.0403922 0.929655 0.0294233 -0.0563504 0.254617 1.06955)
(1.04829 0.189673 0.0981833 0.0331452 0.869456 0.029024 -0.0243041 0.214508 1.10582)
(1.08012 0.205535 0.0882678 0.0240473 0.819235 0.00429864 0.00627012 0.140756 1.13493)
(1.10341 0.217714 0.0817026 0.0128091 0.792567 -0.0379123 0.0347727 0.0467993 1.1459)
(1.11759 0.235432 0.0787809 -0.00049475 0.795756 -0.0864627 0.061124 -0.0514456 1.13404)
(1.12233 0.262892 0.0831941 -0.0155682 0.827932 -0.129409 0.0854931 -0.138392 1.10065)
(1.11716 0.297535 0.0987305 -0.0319371 0.882137 -0.156171 0.108089 -0.200872 1.05219)
(1.10128 0.330091 0.125211 -0.0489517 0.946723 -0.158608 0.129056 -0.229672 0.999257)
(1.07363 0.346702 0.154259 -0.0657919 1.00661 -0.131854 0.148401 -0.220571 0.955727)
(1.03362 0.334209 0.166765 -0.0813884 1.04512 -0.0771108 0.165739 -0.175815 0.938123)
(0.982867 0.288301 0.136853 -0.0941139 1.04973 -0.0076773 0.179812 -0.107008 0.961311)
(0.92794 0.218601 0.0465705 -0.101293 1.02202 0.0480503 0.188326 -0.0352481 1.02449)
(0.881941 0.150721 -0.0941702 -0.0994773 0.983684 0.058902 0.189034 0.0202825 1.09285)
(0.883762 0.0563011 -0.216571 -0.0660571 0.93641 0.00725387 0.182815 0.0568086 1.13178)
(0.882031 0.0708207 -0.256062 -0.0635822 0.958198 -0.0333525 0.17227 0.0719496 1.10268)
(0.889248 0.0521391 -0.219808 -0.0620016 0.999721 -0.042686 0.152903 0.120097 1.0583)
(0.90407 -0.00528281 -0.155553 -0.0607561 1.02517 -0.0165512 0.125684 0.186558 1.0358)
(0.925279 -0.081105 -0.105029 -0.0588862 1.01252 0.0252063 0.0929319 0.241076 1.05137)
(0.950724 -0.147394 -0.0816413 -0.0552373 0.963261 0.0551096 0.0575278 0.257468 1.09723)
(0.97716 -0.189414 -0.0765672 -0.048812 0.897223 0.0552034 0.0220551 0.225632 1.15294)
(1.00117 -0.210135 -0.0756306 -0.0391671 0.83891 0.0228432 -0.0116924 0.151396 1.19752)
(1.02006 -0.222546 -0.0709711 -0.0264588 0.807209 -0.0326165 -0.0427407 0.0507978 1.21626)
(1.0321 -0.239793 -0.0637463 -0.0112794 0.811181 -0.0957994 -0.0706904 -0.0557088 1.20294)
(1.03628 -0.268437 -0.0613037 0.00547749 0.849738 -0.150477 -0.0954803 -0.147724 1.15992)
(1.03207 -0.305235 -0.0721768 0.0227213 0.913375 -0.183354 -0.117277 -0.20851 1.09687)
(1.01947 -0.336802 -0.100174 0.0392894 0.987024 -0.186018 -0.136391 -0.227386 1.02845)
(0.999222 -0.342737 -0.13805 0.0540059 1.05246 -0.155266 -0.153073 -0.200745 0.972049)
(0.973176 -0.304444 -0.162956 0.0655566 1.08987 -0.0945214 -0.167177 -0.133808 0.94659)
(0.944327 -0.220089 -0.140383 0.0724997 1.08285 -0.0192417 -0.177984 -0.0458002 0.968321)
(0.916669 -0.117951 -0.0450085 0.0739481 1.03116 0.0390594 -0.184411 0.0275788 1.03566)
(0.895236 -0.0557618 0.101774 0.0709017 0.965406 0.0471273 -0.185839 0.0565384 1.10836)
(0.883762 -0.0563011 0.216571 0.0660571 0.93641 0.00725387 -0.182815 0.0568086 1.13178)
(0.882031 -0.0708207 0.256062 0.0635822 0.958198 -0.0333525 -0.17227 0.0719496 1.10268)
(0.889248 -0.0521391 0.219808 0.0620016 0.999721 -0.042686 -0.152903 0.120097 1.0583)
(0.90407 0.00528281 0.155553 0.0607561 1.02517 -0.0165512 -0.125684 0.186558 1.0358)
(0.925279 0.081105 0.105029 0.0588862 1.01252 0.0252063 -0.0929319 0.241076 1.05137)
(0.950724 0.147394 0.0816413 0.0552373 0.963261 0.0551096 -0.0575278 0.257468 1.09723)
(0.97716 0.189414 0.0765672 0.048812 0.897223 0.0552034 -0.0220551 0.225632 1.15294)
(1.00117 0.210135 0.0756306 0.0391671 0.83891 0.0228432 0.0116924 0.151396 1.19752)
(1.02006 0.222546 0.0709711 0.0264588 0.807209 -0.0326165 0.0427407 0.0507978 1.21626)
(1.0321 0.239793 0.0637463 0.0112794 0.811181 -0.0957994 0.0706904 -0.0557088 1.20294)
(1.03628 0.268437 0.0613037 -0.00547749 0.849738 -0.150477 0.0954803 -0.147724 1.15992)
(1.03207 0.305235 0.0721768 -0.0227213 0.913375 -0.183354 0.117277 -0.20851 1.09687)
(1.01947 0.336802 0.100174 -0.0392894 0.987024 -0.186018 0.136391 -0.227386 1.02845)
(0.999222 0.342737 0.13805 -0.0540059 1.05246 -0.155266 0.153073 -0.200745 0.972049)
(0.973176 0.304444 0.162956 -0.0655566 1.08987 -0.0945214 0.167177 -0.133808 0.94659)
(0.944327 0.220089 0.140383 -0.0724997 1.08285 -0.0192417 0.177984 -0.0458002 0.968321)
(0.916669 0.117951 0.0450085 -0.0739481 1.03116 0.0390594 0.184411 0.0275788 1.03566)
(0.895236 0.0557618 -0.101774 -0.0709017 0.965406 0.0471273 0.185839 0.0565384 1.10836)
(0.887166 0.182859 -0.289007 -0.116641 0.946542 -0.0902731 0.101782 0.0770674 1.11109)
(0.899484 0.0408686 -0.340857 -0.0800581 0.954569 -0.082885 0.0957333 0.154552 1.10052)
(0.933576 -0.0891655 -0.30974 -0.0448428 0.959079 -0.0578194 0.0901512 0.220504 1.07487)
(0.983653 -0.203058 -0.238692 -0.0164188 0.941639 -0.0212581 0.0821701 0.264955 1.06119)
(1.03962 -0.296259 -0.16736 0.0049735 0.899651 0.0117731 0.0703368 0.277121 1.06858)
(1.09165 -0.363871 -0.11726 0.021002 0.843291 0.0274075 0.0549185 0.251702 1.09065)