/*--------------------------------*- C++ -*----------------------------------*\
| =========                 |                                                 |
| \\      /  F ield         | OpenFOAM: The Open Source CFD Toolbox           |
|  \\    /   O peration     | Version:  2312                                  |
|   \\  /    A nd           | Website:  www.openfoam.com                      |
|    \\/     M anipulation  |                                                 |
\*---------------------------------------------------------------------------*/
FoamFile
{
    version     2.0;
    format      ascii;
    arch        "LSB;label=32;scalar=64";
    class       volScalarField;
    location    "0.4";
    object      sigmaEq;
}
// * * * * * * * * * * * * * * * * * * * * * * * * * * * * * * * * * * * * * //

dimensions      [1 -1 -2 0 0 0 0];

internalField   nonuniform List<scalar> 
1620
(
24860
25112.4
24733.5
24178.9
23771.1
23569.5
23539.3
23631.4
23788.5
23936.6
23987.3
23865
23558.5
23164.6
22871.4
22874.9
23291.8
24068.5
24860
25112.4
24733.5
24178.9
23771.1
23569.5
23539.3
23631.4
23788.5
23936.6
23987.3
23865
23558.5
23164.6
22871.4
22874.9
23291.8
24068.5
23858.5
23939.6
23959.9
23952.9
23986
24100
24298.2
24554.5
24817.3
25014.6
25069
24928.4
24601.5
24174.3
23788.2
23574.5
23575.9
23714.1
23858.5
23939.6
23959.9
23952.9
23986
24100
24298.2
24554.5
24817.3
25014.6
25069
24928.4
24601.5
24174.3
23788.2
23574.5
23575.9
23714.1
24686.1
24146.4
23846.4
23894.5
24212.4
24667.9
25134
25500.1
25680.7
25635.9
25389.6
25028.1
24678.8
24474.3
24508.9
24779.4
25094.1
25106
24686.1
24146.4
23846.4
23894.5
24212.4
24667.9
25134
25500.1
25680.7
25635.9
25389.6
25028.1
24678.8
24474.3
24508.9
24779.4
25094.1
25106
24075.4
23675.2
23204.6
23007.1
23061.8
23309.3
23686.1
24126.6
24563.7
24920.9
25108.1
25033
24641.3
23992.8
23321.1
22940.6
23052.7
23661
24075.4
23675.2
23204.6
23007.1
23061.8
23309.3
23686.1
24126.6
24563.7
24920.9
25108.1
25033
24641.3
23992.8
23321.1
22940.6
23052.7
23661
23378.4
23125.7
23106.7
23314.2
23671.8
24146.9
24713.5
25330.4
25941
26475.5
26859.3
27021.4
26892.7
26416
25616.8
24689.1
23937.5
23590.3
23378.4
23125.7
23106.7
23314.2
23671.8
24146.9
24713.5
25330.4
25941
26475.5
26859.3
27021.4
26892.7
26416
25616.8
24689.1
23937.5
23590.3
25282.9
24547
24260.4
24467.3
25150.7
26172.7
27218.2
27921.3
28085.3
27755
27129.8
26456.2
25960.7
25790
25942.3
26247.7
26418
26106.4
25282.9
24547
24260.4
24467.3
25150.7
26172.7
27218.2
27921.3
28085.3
27755
27129.8
26456.2
25960.7
25790
25942.3
26247.7
26418
26106.4
23461.8
22916.7
22756.2
22909.3
23311.7
23934.8
24684.8
25428.5
26042.2
26428.9
26507.7
26199
25436.1
24273
23091
22487.4
22676.5
23679.7
23461.8
22916.7
22756.2
22909.3
23311.7
23934.8
24684.8
25428.5
26042.2
26428.9
26507.7
26199
25436.1
24273
23091
22487.4
22676.5
23679.7
22104
22142.7
22431.7
22796.7
23330.7
24122.1
25114.8
26167.4
27156.5
28002.1
28636.2
28956.1
28772.2
27843.6
26196.8
24417.1
23133.5
22658
22104
22142.7
22431.7
22796.7
23330.7
24122.1
25114.8
26167.4
27156.5
28002.1
28636.2
28956.1
28772.2
27843.6
26196.8
24417.1
23133.5
22658
24842.8
24837.7
24286.6
24057.5
24667.4
26240.5
28304.6
29972.6
30691.9
30512
29801.4
28965.6
28311.4
27929.1
27592
26952.5
25955.3
24934
24842.8
24837.7
24286.6
24057.5
24667.4
26240.5
28304.6
29972.6
30691.9
30512
29801.4
28965.6
28311.4
27929.1
27592
26952.5
25955.3
24934
24166.4
23667.6
23297.4
23316.3
23674.2
24368.4
25238.2
26005.1
26453.8
26506.1
26151.5
25360.4
24049.5
22222.3
20525.1
20195.8
21306.6
23120.4
24166.4
23667.6
23297.4
23316.3
23674.2
24368.4
25238.2
26005.1
26453.8
26506.1
26151.5
25360.4
24049.5
22222.3
20525.1
20195.8
21306.6
23120.4
23158.4
22908.9
22500.2
22126
22077.6
22650.9
23825.1
25217.2
26450.2
27340.2
27799.5
27694.1
26771
24876.8
22706.1
21657.7
21941.9
22777.3
23158.4
22908.9
22500.2
22126
22077.6
22650.9
23825.1
25217.2
26450.2
27340.2
27799.5
27694.1
26771
24876.8
22706.1
21657.7
21941.9
22777.3
24832.6
25191.7
23998.2
22885.4
22783.7
24392.1
27402.8
30344.7
32160
32752.8
32483.3
31749.8
30790.5
29567.3
27962.4
26257.4
24938.3
24273.5
24832.6
25191.7
23998.2
22885.4
22783.7
24392.1
27402.8
30344.7
32160
32752.8
32483.3
31749.8
30790.5
29567.3
27962.4
26257.4
24938.3
24273.5
22997.8
23465.2
23745.6
23955.7
24202.2
24618.7
25155
25532.5
25528.8
25120.7
24359.3
23232.9
21599.9
19446.1
17934.7
18666
20546.9
22086.1
22997.8
23465.2
23745.6
23955.7
24202.2
24618.7
25155
25532.5
25528.8
25120.7
24359.3
23232.9
21599.9
19446.1
17934.7
18666
20546.9
22086.1
22859.7
22815.6
22297.2
21382.1
20454.2
20262.8
21325.4
23089
24657.4
25612.3
25858.8
25293.4
23716.6
21374.6
19959.4
20599.9
21804.1
22552.2
22859.7
22815.6
22297.2
21382.1
20454.2
20262.8
21325.4
23089
24657.4
25612.3
25858.8
25293.4
23716.6
21374.6
19959.4
20599.9
21804.1
22552.2
25029.9
24421.5
23128.8
21707.5
20952.6
22190.9
25619.1
29429.9
32163.5
33632
34160.6
34044.2
33332.2
31858.4
29775.7
27722.1
26209.9
25364.5
25029.9
24421.5
23128.8
21707.5
20952.6
22190.9
25619.1
29429.9
32163.5
33632
34160.6
34044.2
33332.2
31858.4
29775.7
27722.1
26209.9
25364.5
22117.8
22937.4
23726.5
24452.4
24964.5
25154.9
25088.3
24784.7
24200
23365.4
22327.6
21033.5
19315.5
17392.3
16761.9
18131.9
19880.8
21171
22117.8
22937.4
23726.5
24452.4
24964.5
25154.9
25088.3
24784.7
24200
23365.4
22327.6
21033.5
19315.5
17392.3
16761.9
18131.9
19880.8
21171
22310.5
22247.2
21739
20677.4
19232.5
18299.4
19134.1
21312.6
23308.3
24400.5
24513
23619.8
21684.8
19458
18940.1
20188
21400.1
22052.3
22310.5
22247.2
21739
20677.4
19232.5
18299.4
19134.1
21312.6
23308.3
24400.5
24513
23619.8
21684.8
19458
18940.1
20188
21400.1
22052.3
25013
23706.3
22265.7
20752.1
19722.9
20484.5
23719.6
27891.3
31271.7
33535.5
34979.1
35797.3
35828.4
34747.7
32662.9
30163.1
27940.5
26297.4
25013
23706.3
22265.7
20752.1
19722.9
20484.5
23719.6
27891.3
31271.7
33535.5
34979.1
35797.3
35828.4
34747.7
32662.9
30163.1
27940.5
26297.4
21398.1
22322.7
23301.2
24286.5
25068.7
25307.5
24904.7
24069.9
23014.2
21857.8
20633.1
19265.4
17683.7
16376.3
16525
17955.3
19395.1
20480.2
21398.1
22322.7
23301.2
24286.5
25068.7
25307.5
24904.7
24069.9
23014.2
21857.8
20633.1
19265.4
17683.7
16376.3
16525
17955.3
19395.1
20480.2
21491.6
21433.6
20992.2
19994.5
18467
17140.1
17537.8
19701
21882.4
23069.4
23133.2
22121.9
20227.1
18496.8
18490.1
19694.6
20729.9
21281
21491.6
21433.6
20992.2
19994.5
18467
17140.1
17537.8
19701
21882.4
23069.4
23133.2
22121.9
20227.1
18496.8
18490.1
19694.6
20729.9
21281
24722
23176.3
21713.9
20254.6
19192
19536.6
22190.9
26233.5
29939.5
32761.4
34874.5
36377.2
37030
36474.3
34606.3
31791.2
28890.4
26541
24722
23176.3
21713.9
20254.6
19192
19536.6
22190.9
26233.5
29939.5
32761.4
34874.5
36377.2
37030
36474.3
34606.3
31791.2
28890.4
26541
20784
21655.5
22593.7
23534.6
24308.6
24592.6
24165.8
23180.1
21949.3
20673.5
19402.5
18099.6
16832.3
16127.3
16612.1
17852.1
19030.8
19956.1
20784
21655.5
22593.7
23534.6
24308.6
24592.6
24165.8
23180.1
21949.3
20673.5
19402.5
18099.6
16832.3
16127.3
16612.1
17852.1
19030.8
19956.1
20481.6
20446.6
20100.7
19266.3
17900.8
16479.1
16262.4
17818.7
19838.1
21098.3
21268.9
20408.5
18887.7
17745.8
17951.6
18954.1
19818.2
20296.1
20481.6
20446.6
20100.7
19266.3
17900.8
16479.1
16262.4
17818.7
19838.1
21098.3
21268.9
20408.5
18887.7
17745.8
17951.6
18954.1
19818.2
20296.1
24332.3
22880.8
21574.5
20320
19365.5
19416.8
21298.1
24711
28324.9
31385.2
33826.6
35640.2
36591.9
36324.6
34601.4
31721.4
28650.1
26167.3
24332.3
22880.8
21574.5
20320
19365.5
19416.8
21298.1
24711
28324.9
31385.2
33826.6
35640.2
36591.9
36324.6
34601.4
31721.4
28650.1
26167.3
20171.2
20920.6
21725.2
22514.8
23140.9
23367
22991.6
22078.7
20906.1
19699.7
18537.3
17437
16537.5
16217.6
16719
17690.7
18649.5
19449.5
20171.2
20920.6
21725.2
22514.8
23140.9
23367
22991.6
22078.7
20906.1
19699.7
18537.3
17437
16537.5
16217.6
16719
17690.7
18649.5
19449.5
19342.5
19333.9
19074.3
18422.9
17316.3
16015.9
15320
15966.3
17444.8
18651.2
19008.5
18489.2
17505
16880.6
17162.9
17973
18710.3
19154.3
19342.5
19333.9
19074.3
18422.9
17316.3
16015.9
15320
15966.3
17444.8
18651.2
19008.5
18489.2
17505
16880.6
17162.9
17973
18710.3
19154.3
24007.9
22810.2
21787.3
20844.1
20108.5
20013
21149.8
23622.8
26720.7
29684.5
32174.8
34029
35009.3
34792
33183.8
30547.6
27791.9
25593.2
24007.9
22810.2
21787.3
20844.1
20108.5
20013
21149.8
23622.8
26720.7
29684.5
32174.8
34029
35009.3
34792
33183.8
30547.6
27791.9
25593.2
19423.8
20054.4
20725.5
21374.3
21865.2
22023.8
21709.3
20947.9
19946.4
18920.3
17972
17146.7
16557.5
16401.2
16752.3
17419.9
18145.1
18808.2
19423.8
20054.4
20725.5
21374.3
21865.2
22023.8
21709.3
20947.9
19946.4
18920.3
17972
17146.7
16557.5
16401.2
16752.3
17419.9
18145.1
18808.2
18063.6
18082.7
17888.6
17400.8
16572.1
15528
14679.6
14567.3
15251.9
16131.5
16597.5
16476.6
16046.7
15834.3
16144.5
16792
17424.6
17854.2
18063.6
18082.7
17888.6
17400.8
16572.1
15528
14679.6
14567.3
15251.9
16131.5
16597.5
16476.6
16046.7
15834.3
16144.5
16792
17424.6
17854.2
23819.4
22901.4
22193.5
21604.8
21168.5
21096.6
21731.4
23292.7
25583.7
28099.2
30368.3
32060.7
32904.7
32656.7
31258.8
29097
26878.8
25098.2
23819.4
22901.4
22193.5
21604.8
21168.5
21096.6
21731.4
23292.7
25583.7
28099.2
30368.3
32060.7
32904.7
32656.7
31258.8
29097
26878.8
25098.2
18468.7
18996.1
19568.7
20124.8
20545.5
20697.7
20487.7
19929.5
19165.1
18376.8
17678.6
17112.8
16724.1
16583
16718
17063.9
17510.2
17982.1
18468.7
18996.1
19568.7
20124.8
20545.5
20697.7
20487.7
19929.5
19165.1
18376.8
17678.6
17112.8
16724.1
16583
16718
17063.9
17510.2
17982.1
16562.8
16608.2
16472.5
16130.8
15569.5
14844.6
14130.2
13697.8
13732.5
14105.7
14473.2
14613.3
14592.5
14650.4
14949.6
15440
15950.5
16342.4
16562.8
16608.2
16472.5
16130.8
15569.5
14844.6
14130.2
13697.8
13732.5
14105.7
14473.2
14613.3
14592.5
14650.4
14949.6
15440
15950.5
16342.4
23767.6
23092
22657.1
22397.1
22282.5
22362.3
22780.2
23707.4
25184.8
27006.1
28784
30122.1
30729.6
30459
29365.6
27767.6
26123.6
24761.3
23767.6
23092
22657.1
22397.1
22282.5
22362.3
22780.2
23707.4
25184.8
27006.1
28784
30122.1
30729.6
30459
29365.6
27767.6
26123.6
24761.3
17391.7
17799.3
18291
18797.1
19209
19418.7
19357.7
19031.1
18532.2
18001
17541.3
17180.5
16908.7
16730.4
16663.7
16712
16857.3
17082.5
17391.7
17799.3
18291
18797.1
19209
19418.7
19357.7
19031.1
18532.2
18001
17541.3
17180.5
16908.7
16730.4
16663.7
16712
16857.3
17082.5
14748.3
14807.4
14734.4
14534.7
14218.4
13810.8
13369.6
12993.8
12793.8
12808.5
12955.6
13111.6
13233.8
13374.7
13600.1
13916
14262.4
14558.9
14748.3
14807.4
14734.4
14534.7
14218.4
13810.8
13369.6
12993.8
12793.8
12808.5
12955.6
13111.6
13233.8
13374.7
13600.1
13916
14262.4
14558.9
23774.4
23294.2
23053.8
23025
23160.9
23416
23795.3
24372.8
25225.7
26319.5
27446.5
28302.8
28646.4
28397.7
27642.4
26586.2
25476.6
24508
23774.4
23294.2
23053.8
23025
23160.9
23416
23795.3
24372.8
25225.7
26319.5
27446.5
28302.8
28646.4
28397.7
27642.4
26586.2
25476.6
24508
16427.5
16680.5
17071
17532.3
17961.7
18257.2
18349.1
18225.6
17949
17632.8
17368.9
17170.2
16993.5
16806.1
16614.8
16449.6
16342.5
16323.7
16427.5
16680.5
17071
17532.3
17961.7
18257.2
18349.1
18225.6
17949
17632.8
17368.9
17170.2
16993.5
16806.1
16614.8
16449.6
16342.5
16323.7
12642.1
12706.3
12707.7
12650.7
12542.6
12392.2
12215.9
12047.2
11929.3
11889.5
11913.9
11960.7
12000.8
12041.3
12109.7
12222.9
12371.1
12522.5
12642.1
12706.3
12707.7
12650.7
12542.6
12392.2
12215.9
12047.2
11929.3
11889.5
11913.9
11960.7
12000.8
12041.3
12109.7
12222.9
12371.1
12522.5
23490.7
23168.6
23027.8
23070.9
23271.5
23572.3
23915.9
24285.2
24706.7
25199.4
25713.7
26122.8
26292.5
26163.3
25767.7
25197.8
24565.1
23971.2
23490.7
23168.6
23027.8
23070.9
23271.5
23572.3
23915.9
24285.2
24706.7
25199.4
25713.7
26122.8
26292.5
26163.3
25767.7
25197.8
24565.1
23971.2
15861.8
15941.9
16174.3
16525.1
16918.4
17256.5
17448.8
17449.7
17295.9
17098
16958.5
16891.4
16835.2
16725.2
16542.9
16315
16091.4
15924.2
15861.8
15941.9
16174.3
16525.1
16918.4
17256.5
17448.8
17449.7
17295.9
17098
16958.5
16891.4
16835.2
16725.2
16542.9
16315
16091.4
15924.2
10747.8
10878.7
11010.1
11115.8
11175.7
11183.2
11153.4
11123.4
11130.4
11175.8
11213.6
11185.8
11070.6
10899.7
10734.1
10626.4
10598.5
10645.7
10747.8
10878.7
11010.1
11115.8
11175.7
11183.2
11153.4
11123.4
11130.4
11175.8
11213.6
11185.8
11070.6
10899.7
10734.1
10626.4
10598.5
10645.7
21976.1
21793.9
21684.4
21666.2
21741
21887.6
22063.9
22225.6
22350.7
22448.3
22541.3
22640
22728.4
22772.7
22740.9
22621.8
22430.2
22201
21976.1
21793.9
21684.4
21666.2
21741
21887.6
22063.9
22225.6
22350.7
22448.3
22541.3
22640
22728.4
22772.7
22740.9
22621.8
22430.2
22201
16316.9
16105.4
16064.6
16186.1
16411.2
16640.1
16772.8
16764.8
16659.2
16561.6
16575.2
16741.4
17013.1
17275.3
17401.4
17314.8
17032.7
16657.4
16316.9
16105.4
16064.6
16186.1
16411.2
16640.1
16772.8
16764.8
16659.2
16561.6
16575.2
16741.4
17013.1
17275.3
17401.4
17314.8
17032.7
16657.4
9924.67
10203.7
10510.1
10791.2
11012.3
11157.1
11226.3
11231.9
11189.1
11107.7
10988.3
10824.8
10609.5
10346.1
10063.1
9823.21
9699.98
9738.05
9924.67
10203.7
10510.1
10791.2
11012.3
11157.1
11226.3
11231.9
11189.1
11107.7
10988.3
10824.8
10609.5
10346.1
10063.1
9823.21
9699.98
9738.05
17691.7
17693.2
17690
17699.2
17735.9
17802.5
17881.1
17939.2
17946.6
17891.3
17785
17661
17560.4
17512.8
17523.4
17572.4
17629.9
17672.5
17691.7
17693.2
17690
17699.2
17735.9
17802.5
17881.1
17939.2
17946.6
17891.3
17785
17661
17560.4
17512.8
17523.4
17572.4
17629.9
17672.5
)
;

boundaryField
{
    fixed
    {
        type            calculated;
        value           nonuniform List<scalar> 
108
(
24812.2
25089.8
24790
24242.6
23782.4
23511
23414.3
23451.9
23571.7
23705.1
23770.6
23698.7
23478.3
23195.7
23014.3
23089.3
23484.5
24135.7
24812.2
25089.8
24790
24242.6
23782.4
23511
23414.3
23451.9
23571.7
23705.1
23770.6
23698.7
23478.3
23195.7
23014.3
23089.3
23484.5
24135.7
23834.4
23944.9
24044.2
24065.8
24045.3
24048.1
24107
24217
24346.4
24445.6
24461.1
24358.9
24149.9
23899.7
23705.8
23638.7
23680.8
23754.5
23834.4
23944.9
24044.2
24065.8
24045.3
24048.1
24107
24217
24346.4
24445.6
24461.1
24358.9
24149.9
23899.7
23705.8
23638.7
23680.8
23754.5
24706.2
24203.4
23938.1
24015.9
24336
24742.9
25102.1
25316.3
25331.8
25147.9
24819
24445.1
24151.3
24054.7
24223.5
24619
25019.8
25083.5
24706.2
24203.4
23938.1
24015.9
24336
24742.9
25102.1
25316.3
25331.8
25147.9
24819
24445.1
24151.3
24054.7
24223.5
24619
25019.8
25083.5
)
;
    }
    inside
    {
        type            calculated;
        value           nonuniform List<scalar> 
540
(
25675.3
25067.1
24449.8
24165.8
24266.9
24642
25126
25550.4
25779.4
25749.2
25486.3
25089.2
24694.5
24448
24477.3
24838.4
25408.9
25814.8
25675.3
25067.1
24449.8
24165.8
24266.9
24642
25126
25550.4
25779.4
25749.2
25486.3
25089.2
24694.5
24448
24477.3
24838.4
25408.9
25814.8
27109.7
26057.2
25196
25032.1
25634.5
26864.1
28311.4
29387
29675.5
29165
28133.6
26927.7
25859.5
25197.3
25124.3
25658.4
26600.3
27343.7
27109.7
26057.2
25196
25032.1
25634.5
26864.1
28311.4
29387
29675.5
29165
28133.6
26927.7
25859.5
25197.3
25124.3
25658.4
26600.3
27343.7
27444.2
26913.1
25657.6
25267.6
26269
28778
32123.5
34830.8
35779.6
34950.2
33025.5
30759.3
28733.6
27348.4
26731
26653.8
26818.9
27117.1
27444.2
26913.1
25657.6
25267.6
26269
28778
32123.5
34830.8
35779.6
34950.2
33025.5
30759.3
28733.6
27348.4
26731
26653.8
26818.9
27117.1
26782.1
26761.2
25302.6
24702.9
25854.7
29396.1
34735.7
39708.6
42374.1
42312.4
40250.2
37205.1
33983.8
31062.5
28641
26808.6
25719.9
25647.1
26782.1
26761.2
25302.6
24702.9
25854.7
29396.1
34735.7
39708.6
42374.1
42312.4
40250.2
37205.1
33983.8
31062.5
28641
26808.6
25719.9
25647.1
26027.5
25462.1
24548.9
24323.7
25759.6
29813.3
36248
42949.8
47589.1
49224
48189.1
45320.1
41320
36677.5
32161.8
28752.8
26832.9
26131.3
26027.5
25462.1
24548.9
24323.7
25759.6
29813.3
36248
42949.8
47589.1
49224
48189.1
45320.1
41320
36677.5
32161.8
28752.8
26832.9
26131.3
25596.2
24652.6
24065.7
24321.3
26189.8
30509.8
37339.2
44905.4
50846.8
53995.4
54380.6
52486.1
48675.6
43275.8
37231.2
32055.9
28656.3
26757.4
25596.2
24652.6
24065.7
24321.3
26189.8
30509.8
37339.2
44905.4
50846.8
53995.4
54380.6
52486.1
48675.6
43275.8
37231.2
32055.9
28656.3
26757.4
25391.8
24372.5
24013.6
24594.6
26701.5
31041.7
37723.2
45264.4
51575.5
55539
57038.2
56267.4
53270
48075.1
41337.5
34771.1
29991.6
27104.6
25391.8
24372.5
24013.6
24594.6
26701.5
31041.7
37723.2
45264.4
51575.5
55539
57038.2
56267.4
53270
48075.1
41337.5
34771.1
29991.6
27104.6
25464.1
24590.7
24439.5
25168.7
27217.2
31167.2
37108.1
43928.5
49979.2
54223.5
56375.3
56390.6
54092.7
49299.9
42512.3
35555.7
30348.7
27207.1
25464.1
24590.7
24439.5
25168.7
27217.2
31167.2
37108.1
43928.5
49979.2
54223.5
56375.3
56390.6
54092.7
49299.9
42512.3
35555.7
30348.7
27207.1
25822.8
25206.4
25293
26131.2
28000.7
31296
36103.1
41766.9
47152.2
51300.2
53690.8
54045.7
52090.1
47670.7
41389.6
35008.1
30221.4
27337.4
25822.8
25206.4
25293
26131.2
28000.7
31296
36103.1
41766.9
47152.2
51300.2
53690.8
54045.7
52090.1
47670.7
41389.6
35008.1
30221.4
27337.4
26471.4
26116.9
26474.6
27498.7
29273.4
31959.5
35611.5
39958.8
44372.9
48061.9
50323.3
50673.7
48847.9
44896.8
39543.6
34229
30195.3
27718.5
26471.4
26116.9
26474.6
27498.7
29273.4
31959.5
35611.5
39958.8
44372.9
48061.9
50323.3
50673.7
48847.9
44896.8
39543.6
34229
30195.3
27718.5
27512
27365
27978.4
29258.4
31099.1
33414.3
36171.8
39319.5
42614.6
45517.9
47317
47435
45677.7
42305.9
38037.8
33875.2
30620.9
28538.1
27512
27365
27978.4
29258.4
31099.1
33414.3
36171.8
39319.5
42614.6
45517.9
47317
47435
45677.7
42305.9
38037.8
33875.2
30620.9
28538.1
29206.9
29192.8
29973.5
31455.4
33427.8
35610.1
37821
40041.2
42242.3
44160.9
45275.1
45084.3
43459.7
40724.8
37472
34330.9
31781.1
30059
29206.9
29192.8
29973.5
31455.4
33427.8
35610.1
37821
40041.2
42242.3
44160.9
45275.1
45084.3
43459.7
40724.8
37472
34330.9
31781.1
30059
32084.5
32099.6
32864.3
34305
36209
38241.2
40094.2
41639.5
42897.5
43849.7
44301.7
43972
42740.8
40782.3
38462.5
36168.3
34212.5
32809.4
32084.5
32099.6
32864.3
34305
36209
38241.2
40094.2
41639.5
42897.5
43849.7
44301.7
43972
42740.8
40782.3
38462.5
36168.3
34212.5
32809.4
37553.9
37386
37798.2
38743.6
40058.2
41467.8
42670.4
43478.4
43907.6
44106.4
44182.4
44103.1
43746.6
43022.2
41948.2
40656
39349.7
38251.8
37553.9
37386
37798.2
38743.6
40058.2
41467.8
42670.4
43478.4
43907.6
44106.4
44182.4
44103.1
43746.6
43022.2
41948.2
40656
39349.7
38251.8
45122
44271.4
43615
43226
43114.7
43226.8
43469.9
43778.2
44147.2
44613.7
45208.2
45922.1
46663.9
47267.8
47555.3
47419.3
46871.1
46044.2
45122
44271.4
43615
43226
43114.7
43226.8
43469.9
43778.2
44147.2
44613.7
45208.2
45922.1
46663.9
47267.8
47555.3
47419.3
46871.1
46044.2
)
;
    }
    outside
    {
        type            calculated;
        value           nonuniform List<scalar> 
540
(
25734.5
25956.7
25385.2
24620.4
24046.4
23711.3
23559.3
23528.6
23560.2
23591.7
23561.6
23431.3
23216.6
23009.9
22960.6
23214.2
23850.5
24809.3
25734.5
25956.7
25385.2
24620.4
24046.4
23711.3
23559.3
23528.6
23560.2
23591.7
23561.6
23431.3
23216.6
23009.9
22960.6
23214.2
23850.5
24809.3
25123.2
24850.6
24185.7
23723.3
23539.2
23560.6
23700.7
23885.2
24054.6
24156.3
24137.5
23951.4
23587.9
23132.2
22801
22844.7
23378.1
24341.8
25123.2
24850.6
24185.7
23723.3
23539.2
23560.6
23700.7
23885.2
24054.6
24156.3
24137.5
23951.4
23587.9
23132.2
22801
22844.7
23378.1
24341.8
25235.3
24704.9
24156.1
23936.6
24006.1
24258
24566.2
24819.7
24948.2
24911.5
24675.4
24202
23483.7
22653.1
22098
22231.9
23062.8
24541.8
25235.3
24704.9
24156.1
23936.6
24006.1
24258
24566.2
24819.7
24948.2
24911.5
24675.4
24202
23483.7
22653.1
22098
22231.9
23062.8
24541.8
25625.1
25519.5
25143.3
25084.2
25285.5
25620.9
25923.6
26032.3
25868.3
25428.7
24722.8
23744
22512.5
21217.3
20459.6
20910.9
22316.9
24218.4
25625.1
25519.5
25143.3
25084.2
25285.5
25620.9
25923.6
26032.3
25868.3
25428.7
24722.8
23744
22512.5
21217.3
20459.6
20910.9
22316.9
24218.4
24577.5
25431.8
26144
26875.5
27533.9
27950.2
27992.2
27578.3
26747.7
25619.2
24279.1
22765.7
21139.4
19670.9
19188.2
20242
21904.2
23400.1
24577.5
25431.8
26144
26875.5
27533.9
27950.2
27992.2
27578.3
26747.7
25619.2
24279.1
22765.7
21139.4
19670.9
19188.2
20242
21904.2
23400.1
23977.1
25181.4
26611.7
28296.7
29858.5
30677.2
30445.6
29307.3
27631.6
25751.2
23835.4
21945.3
20167.6
18897.2
18961.6
20250.6
21663.4
22855.4
23977.1
25181.4
26611.7
28296.7
29858.5
30677.2
30445.6
29307.3
27631.6
25751.2
23835.4
21945.3
20167.6
18897.2
18961.6
20250.6
21663.4
22855.4
23702.4
24936.2
26503.9
28489.1
30581.7
31939.7
31853.3
30418.1
28259.4
25928.9
23695.1
21653.8
19934.5
18983.9
19337.6
20511
21658.4
22659.9
23702.4
24936.2
26503.9
28489.1
30581.7
31939.7
31853.3
30418.1
28259.4
25928.9
23695.1
21653.8
19934.5
18983.9
19337.6
20511
21658.4
22659.9
23612.7
24683.3
26023.7
27746
29699.5
31215.4
31466
30286.6
28226.4
25908.2
23686.5
21722.7
20200.6
19504.7
19872.8
20825.7
21792.8
22683.9
23612.7
24683.3
26023.7
27746
29699.5
31215.4
31466
30286.6
28226.4
25908.2
23686.5
21722.7
20200.6
19504.7
19872.8
20825.7
21792.8
22683.9
23528.3
24387.8
25414.2
26710.3
28199.6
29459.1
29853.2
29089.3
27469.3
25509.2
23579.2
21890.9
20648.8
20119.3
20377.1
21096.3
21915.9
22721.6
23528.3
24387.8
25414.2
26710.3
28199.6
29459.1
29853.2
29089.3
27469.3
25509.2
23579.2
21890.9
20648.8
20119.3
20377.1
21096.3
21915.9
22721.6
23278.4
23972.5
24748.3
25673.8
26691.6
27546.9
27855.5
27380.5
26241.7
24779.7
23303.3
22016.4
21085.7
20663.6
20775
21255.6
21900.1
22590.2
23278.4
23972.5
24748.3
25673.8
26691.6
27546.9
27855.5
27380.5
26241.7
24779.7
23303.3
22016.4
21085.7
20663.6
20775
21255.6
21900.1
22590.2
22736.7
23314.8
23931.9
24603.5
25274.2
25790.7
25948.9
25619
24854.3
23859.6
22854.1
21986.5
21350.1
21011.5
20990.2
21235.8
21659.2
22178.2
22736.7
23314.8
23931.9
24603.5
25274.2
25790.7
25948.9
25619
24854.3
23859.6
22854.1
21986.5
21350.1
21011.5
20990.2
21235.8
21659.2
22178.2
21830.3
22291.1
22801.7
23329.3
23810
24144.8
24225.9
23992.3
23483.2
22834
22199.4
21672.2
21278.2
21022.1
20913.1
20956.3
21139.9
21439.7
21830.3
22291.1
22801.7
23329.3
23810
24144.8
24225.9
23992.3
23483.2
22834
22199.4
21672.2
21278.2
21022.1
20913.1
20956.3
21139.9
21439.7
20576.7
20869.5
21263.7
21711.5
22138.9
22458.1
22584.7
22468.9
22137.2
21703
21301
20999.3
20783
20611.1
20467.8
20368.2
20338.5
20402
20576.7
20869.5
21263.7
21711.5
22138.9
22458.1
22584.7
22468.9
22137.2
21703
21301
20999.3
20783
20611.1
20467.8
20368.2
20338.5
20402
19335.1
19391.5
19589
19912.2
20303.3
20670.5
20907.1
20930.2
20740.9
20448
20195.3
20052.9
19991
19938.1
19843.1
19699.2
19535.4
19397.6
19335.1
19391.5
19589
19912.2
20303.3
20670.5
20907.1
20930.2
20740.9
20448
20195.3
20052.9
19991
19938.1
19843.1
19699.2
19535.4
19397.6
19140.1
18782.6
18623.5
18669.9
18868.8
19116.3
19299.4
19358.5
19327.3
19309.9
19411.3
19671.5
20037.2
20381.7
20559.5
20472.2
20125
19629.5
19140.1
18782.6
18623.5
18669.9
18868.8
19116.3
19299.4
19358.5
19327.3
19309.9
19411.3
19671.5
20037.2
20381.7
20559.5
20472.2
20125
19629.5
)
;
    }
}


// ************************************************************************* //
