/*--------------------------------*- C++ -*----------------------------------*\
| =========                 |                                                 |
| \\      /  F ield         | OpenFOAM: The Open Source CFD Toolbox           |
|  \\    /   O peration     | Version:  2312                                  |
|   \\  /    A nd           | Website:  www.openfoam.com                      |
|    \\/     M anipulation  |                                                 |
\*---------------------------------------------------------------------------*/
FoamFile
{
    version     2.0;
    format      ascii;
    arch        "LSB;label=32;scalar=64";
    class       volVectorField;
    location    "0.4";
    object      D;
}
// * * * * * * * * * * * * * * * * * * * * * * * * * * * * * * * * * * * * * //

dimensions      [0 1 0 0 0 0 0];

internalField   nonuniform List<vector> 
1620
(
(0.000376993 -0.000101664 8.31798e-05)
(0.000326778 -0.000130752 4.66734e-06)
(0.000268073 -0.000171646 -5.23808e-05)
(0.000215037 -0.000200496 -8.38219e-05)
(0.000175259 -0.000211426 -9.74339e-05)
(0.000150574 -0.000207161 -9.99349e-05)
(0.000139128 -0.000191164 -9.47569e-05)
(0.000136408 -0.000165054 -8.37591e-05)
(0.000135958 -0.000129168 -6.82831e-05)
(0.000130314 -8.37576e-05 -4.91436e-05)
(0.000111981 -2.98291e-05 -2.62664e-05)
(7.43118e-05 3.01886e-05 1.53141e-06)
(1.26084e-05 9.14127e-05 3.62917e-05)
(-7.38557e-05 0.000145105 7.95637e-05)
(-0.000178464 0.000178551 0.000128895)
(-0.0002842 0.000179715 0.000172319)
(-0.000365365 0.000148765 0.000186842)
(-0.000397222 0.000110652 0.000153822)
(-0.000376993 0.000101664 8.31798e-05)
(-0.000326778 0.000130752 4.66734e-06)
(-0.000268073 0.000171646 -5.23808e-05)
(-0.000215037 0.000200496 -8.38219e-05)
(-0.000175259 0.000211426 -9.74339e-05)
(-0.000150574 0.000207161 -9.99349e-05)
(-0.000139128 0.000191164 -9.47569e-05)
(-0.000136408 0.000165054 -8.37591e-05)
(-0.000135958 0.000129168 -6.82831e-05)
(-0.000130314 8.37576e-05 -4.91436e-05)
(-0.000111981 2.98291e-05 -2.62664e-05)
(-7.43118e-05 -3.01886e-05 1.53141e-06)
(-1.26084e-05 -9.14127e-05 3.62917e-05)
(7.38557e-05 -0.000145105 7.95637e-05)
(0.000178464 -0.000178551 0.000128895)
(0.0002842 -0.000179715 0.000172319)
(0.000365365 -0.000148765 0.000186842)
(0.000397222 -0.000110652 0.000153822)
(0.000304057 -0.000167827 5.59407e-05)
(0.000307151 -0.000184895 2.4308e-05)
(0.000296859 -0.000187792 -4.47207e-06)
(0.000275728 -0.000173668 -2.89477e-05)
(0.000247466 -0.00014844 -4.95779e-05)
(0.000216625 -0.000119103 -6.51529e-05)
(0.000186912 -8.96536e-05 -7.40023e-05)
(0.000159625 -6.09259e-05 -7.5289e-05)
(0.000133385 -3.21804e-05 -6.91533e-05)
(0.000105012 -2.67383e-06 -5.62987e-05)
(7.08866e-05 2.74824e-05 -3.76188e-05)
(2.82707e-05 5.71501e-05 -1.40714e-05)
(-2.36642e-05 8.4397e-05 1.31743e-05)
(-8.32187e-05 0.000106918 4.22195e-05)
(-0.000145996 0.000122779 6.94575e-05)
(-0.000205387 0.000131908 8.88137e-05)
(-0.000254028 0.000138251 9.35671e-05)
(-0.000286946 0.000149818 8.15615e-05)
(-0.000304057 0.000167827 5.59407e-05)
(-0.000307151 0.000184895 2.4308e-05)
(-0.000296859 0.000187792 -4.47207e-06)
(-0.000275728 0.000173668 -2.89477e-05)
(-0.000247466 0.00014844 -4.95779e-05)
(-0.000216625 0.000119103 -6.51529e-05)
(-0.000186912 8.96536e-05 -7.40023e-05)
(-0.000159625 6.09259e-05 -7.5289e-05)
(-0.000133385 3.21804e-05 -6.91533e-05)
(-0.000105012 2.67383e-06 -5.62987e-05)
(-7.08866e-05 -2.74824e-05 -3.76188e-05)
(-2.82707e-05 -5.71501e-05 -1.40714e-05)
(2.36642e-05 -8.4397e-05 1.31743e-05)
(8.32186e-05 -0.000106918 4.22195e-05)
(0.000145996 -0.000122779 6.94575e-05)
(0.000205387 -0.000131908 8.88137e-05)
(0.000254028 -0.000138251 9.35671e-05)
(0.000286946 -0.000149818 8.15615e-05)
(0.000218034 -0.000203984 2.88193e-05)
(0.000255545 -0.000219897 2.5649e-05)
(0.000283911 -0.000202382 1.62783e-05)
(0.000295779 -0.000160441 -1.93309e-06)
(0.00028844 -0.000107849 -2.59689e-05)
(0.000264458 -5.56464e-05 -4.9596e-05)
(0.000228947 -1.02551e-05 -6.72373e-05)
(0.000186691 2.56302e-05 -7.56266e-05)
(0.000140925 5.14367e-05 -7.37416e-05)
(9.35402e-05 6.74718e-05 -6.22961e-05)
(4.594e-05 7.44164e-05 -4.33969e-05)
(-1.29027e-07 7.35682e-05 -2.03508e-05)
(-4.22763e-05 6.76227e-05 2.64292e-06)
(-7.80178e-05 6.15024e-05 2.11802e-05)
(-0.000106143 6.24416e-05 3.18864e-05)
(-0.000128398 7.83893e-05 3.42384e-05)
(-0.000150504 0.000113751 3.20164e-05)
(-0.000180151 0.000162213 3.02234e-05)
(-0.000218034 0.000203984 2.88193e-05)
(-0.000255545 0.000219897 2.5649e-05)
(-0.000283911 0.000202382 1.62783e-05)
(-0.000295779 0.000160441 -1.93309e-06)
(-0.00028844 0.000107849 -2.59689e-05)
(-0.000264458 5.56464e-05 -4.9596e-05)
(-0.000228947 1.02551e-05 -6.72373e-05)
(-0.000186691 -2.56302e-05 -7.56266e-05)
(-0.000140925 -5.14367e-05 -7.37416e-05)
(-9.35402e-05 -6.74718e-05 -6.22961e-05)
(-4.594e-05 -7.44164e-05 -4.33969e-05)
(1.29025e-07 -7.35682e-05 -2.03508e-05)
(4.22763e-05 -6.76227e-05 2.64292e-06)
(7.80177e-05 -6.15024e-05 2.11802e-05)
(0.000106143 -6.24416e-05 3.18864e-05)
(0.000128398 -7.83893e-05 3.42384e-05)
(0.000150504 -0.000113751 3.20164e-05)
(0.000180151 -0.000162213 3.02234e-05)
(0.000998917 -0.000430384 0.000290228)
(0.000925557 -0.000504397 6.10916e-05)
(0.000812315 -0.000565219 -0.000125275)
(0.000695049 -0.000580351 -0.000253102)
(0.000592527 -0.000552902 -0.00033011)
(0.000512351 -0.000498326 -0.000366155)
(0.000455617 -0.000428478 -0.000369209)
(0.00041695 -0.000347567 -0.000346072)
(0.000384837 -0.00025504 -0.00030231)
(0.000343711 -0.000149495 -0.000241233)
(0.000276887 -3.12609e-05 -0.000163038)
(0.000169589 9.61784e-05 -6.49322e-05)
(1.21562e-05 0.000224894 5.7074e-05)
(-0.000195779 0.000340991 0.000203642)
(-0.000439731 0.000424774 0.000363659)
(-0.000685975 0.000457602 0.000503334)
(-0.000885961 0.000439436 0.000563257)
(-0.000995105 0.000408666 0.000486177)
(-0.000998917 0.000430384 0.000290228)
(-0.000925557 0.000504397 6.10916e-05)
(-0.000812315 0.000565219 -0.000125275)
(-0.000695049 0.000580351 -0.000253102)
(-0.000592527 0.000552902 -0.00033011)
(-0.000512351 0.000498326 -0.000366155)
(-0.000455617 0.000428478 -0.000369209)
(-0.00041695 0.000347567 -0.000346072)
(-0.000384837 0.00025504 -0.00030231)
(-0.000343711 0.000149495 -0.000241233)
(-0.000276887 3.12609e-05 -0.000163038)
(-0.000169589 -9.61784e-05 -6.49322e-05)
(-1.21562e-05 -0.000224894 5.7074e-05)
(0.000195779 -0.000340991 0.000203642)
(0.000439731 -0.000424774 0.000363659)
(0.000685975 -0.000457602 0.000503334)
(0.000885961 -0.000439436 0.000563257)
(0.000995105 -0.000408666 0.000486177)
(0.000872 -0.000530071 0.00025184)
(0.000878185 -0.000581394 0.000133954)
(0.000849672 -0.000584855 1.88334e-05)
(0.000792982 -0.000539793 -8.38793e-05)
(0.000716782 -0.000462962 -0.000167547)
(0.000632343 -0.000373365 -0.000226554)
(0.000548705 -0.00028255 -0.000257745)
(0.000468811 -0.0001941 -0.00026091)
(0.00038904 -0.000107425 -0.000237826)
(0.000301462 -2.14847e-05 -0.000190956)
(0.000197226 6.32348e-05 -0.000122715)
(6.99153e-05 0.00014444 -3.56017e-05)
(-8.17935e-05 0.00021878 6.68206e-05)
(-0.000252528 0.000282935 0.000177989)
(-0.000429901 0.000334882 0.000285336)
(-0.00059615 0.000376024 0.000367276)
(-0.00073274 0.00041416 0.000395082)
(-0.000825344 0.0004653 0.000350018)
(-0.000872 0.000530071 0.00025184)
(-0.000878185 0.000581394 0.000133954)
(-0.000849672 0.000584855 1.88334e-05)
(-0.000792982 0.000539793 -8.38793e-05)
(-0.000716782 0.000462962 -0.000167547)
(-0.000632343 0.000373365 -0.000226554)
(-0.000548705 0.00028255 -0.000257745)
(-0.000468811 0.0001941 -0.00026091)
(-0.00038904 0.000107425 -0.000237826)
(-0.000301462 2.14847e-05 -0.000190956)
(-0.000197226 -6.32348e-05 -0.000122715)
(-6.99153e-05 -0.00014444 -3.56017e-05)
(8.17935e-05 -0.00021878 6.68206e-05)
(0.000252528 -0.000282935 0.000177989)
(0.000429901 -0.000334882 0.000285336)
(0.00059615 -0.000376024 0.000367276)
(0.00073274 -0.00041416 0.000395082)
(0.000825344 -0.0004653 0.000350018)
(0.000703004 -0.000593902 0.000206136)
(0.000778737 -0.000638342 0.000176604)
(0.000829742 -0.000606511 0.000125042)
(0.000837078 -0.000517767 4.96376e-05)
(0.000798763 -0.000400124 -3.47138e-05)
(0.00072511 -0.000276812 -0.000109975)
(0.000628821 -0.000161527 -0.000162735)
(0.000518819 -6.02311e-05 -0.000185829)
(0.000399022 2.50855e-05 -0.000177215)
(0.00027014 9.35665e-05 -0.000138651)
(0.000132624 0.000144459 -7.50951e-05)
(-1.06204e-05 0.000177928 5.32931e-06)
(-0.000152857 0.00019726 9.15003e-05)
(-0.000284474 0.000211235 0.000170318)
(-0.000396496 0.000234555 0.000228923)
(-0.000485357 0.000284116 0.000257898)
(-0.000556509 0.000370648 0.000255729)
(-0.000624557 0.000488466 0.000233463)
(-0.000703004 0.000593902 0.000206136)
(-0.000778737 0.000638342 0.000176604)
(-0.000829742 0.000606511 0.000125042)
(-0.000837078 0.000517767 4.96376e-05)
(-0.000798763 0.000400124 -3.47138e-05)
(-0.00072511 0.000276812 -0.000109975)
(-0.000628821 0.000161527 -0.000162735)
(-0.000518819 6.02311e-05 -0.000185829)
(-0.000399022 -2.50855e-05 -0.000177215)
(-0.00027014 -9.35665e-05 -0.000138651)
(-0.000132624 -0.000144459 -7.50951e-05)
(1.06204e-05 -0.000177928 5.32931e-06)
(0.000152857 -0.00019726 9.15003e-05)
(0.000284474 -0.000211235 0.000170318)
(0.000396496 -0.000234555 0.000228923)
(0.000485357 -0.000284116 0.000257898)
(0.000556509 -0.000370648 0.000255729)
(0.000624557 -0.000488466 0.000233463)
(0.00153285 -0.000883621 0.000624054)
(0.0014507 -0.000957052 0.000222803)
(0.0012985 -0.000989197 -0.000139678)
(0.00112904 -0.000964896 -0.000416368)
(0.000971465 -0.000891312 -0.0006011)
(0.00083981 -0.000787331 -0.000702815)
(0.000738147 -0.000667359 -0.000735056)
(0.000660853 -0.000536185 -0.000711418)
(0.000593061 -0.000392253 -0.00064259)
(0.000513484 -0.000232707 -0.000534248)
(0.000398784 -5.70541e-05 -0.000386323)
(0.00022849 0.000130811 -0.000194395)
(-9.87052e-06 0.000321442 4.5936e-05)
(-0.00031523 0.000499204 0.000330722)
(-0.000667157 0.000644008 0.000635257)
(-0.00102238 0.000739559 0.000901085)
(-0.00131954 0.000788703 0.00103453)
(-0.00149732 0.000824442 0.000942441)
(-0.00153285 0.000883621 0.000624054)
(-0.0014507 0.000957052 0.000222803)
(-0.0012985 0.000989197 -0.000139678)
(-0.00112904 0.000964896 -0.000416368)
(-0.000971465 0.000891312 -0.0006011)
(-0.00083981 0.000787331 -0.000702815)
(-0.000738147 0.000667359 -0.000735056)
(-0.000660853 0.000536185 -0.000711418)
(-0.000593061 0.000392253 -0.00064259)
(-0.000513484 0.000232707 -0.000534248)
(-0.000398784 5.70541e-05 -0.000386323)
(-0.00022849 -0.000130811 -0.000194395)
(9.87051e-06 -0.000321442 4.5936e-05)
(0.00031523 -0.000499204 0.000330722)
(0.000667157 -0.000644008 0.000635257)
(0.00102238 -0.000739559 0.000901085)
(0.00131954 -0.000788703 0.00103453)
(0.00149732 -0.000824442 0.000942441)
(0.00136064 -0.000908067 0.000575865)
(0.00137641 -0.00096946 0.000342077)
(0.00133415 -0.000960909 9.80574e-05)
(0.00124674 -0.000886378 -0.000118706)
(0.00113014 -0.000766677 -0.000290621)
(0.00100103 -0.000626369 -0.000409139)
(0.000871524 -0.000481383 -0.000471914)
(0.000744992 -0.000337777 -0.000481027)
(0.00061601 -0.000196103 -0.000440534)
(0.00047346 -5.59431e-05 -0.000354475)
(0.000305146 8.14942e-05 -0.000226283)
(0.000102579 0.000212933 -5.98477e-05)
(-0.00013512 0.000334123 0.000137925)
(-0.000398957 0.000441677 0.00035339)
(-0.000670036 0.000535217 0.000562017)
(-0.000922626 0.000619761 0.000726096)
(-0.00113143 0.00070631 0.000799443)
(-0.00127897 0.000805214 0.000745262)
(-0.00136064 0.000908067 0.000575865)
(-0.00137641 0.00096946 0.000342077)
(-0.00133415 0.000960909 9.80574e-05)
(-0.00124674 0.000886378 -0.000118706)
(-0.00113014 0.000766677 -0.000290621)
(-0.00100103 0.000626369 -0.000409139)
(-0.000871524 0.000481383 -0.000471914)
(-0.000744992 0.000337777 -0.000481027)
(-0.00061601 0.000196103 -0.000440534)
(-0.00047346 5.59432e-05 -0.000354475)
(-0.000305146 -8.14942e-05 -0.000226283)
(-0.000102579 -0.000212933 -5.98477e-05)
(0.00013512 -0.000334122 0.000137925)
(0.000398957 -0.000441677 0.00035339)
(0.000670036 -0.000535217 0.000562017)
(0.000922626 -0.000619761 0.000726096)
(0.00113143 -0.00070631 0.000799443)
(0.00127897 -0.000805214 0.000745262)
(0.00112495 -0.000916134 0.000500148)
(0.001231 -0.000982313 0.000414908)
(0.00129526 -0.000951681 0.000290609)
(0.00129478 -0.000840703 0.000140857)
(0.0012313 -0.000682306 -1.01213e-05)
(0.00112017 -0.000507002 -0.000137773)
(0.000977779 -0.000334366 -0.000224106)
(0.000814542 -0.000174344 -0.000259479)
(0.00063421 -3.17811e-05 -0.000241191)
(0.000436718 9.01513e-05 -0.000171813)
(0.000222231 0.000188793 -5.86747e-05)
(-5.12537e-06 0.000263101 8.56559e-05)
(-0.000235268 0.000316496 0.000243038)
(-0.000453265 0.00035987 0.000391107)
(-0.000643987 0.000411716 0.000507414)
(-0.000798366 0.000492425 0.000575692)
(-0.000918419 0.000612701 0.000590705)
(-0.00101835 0.000768645 0.000558376)
(-0.00112495 0.000916134 0.000500148)
(-0.001231 0.000982313 0.000414908)
(-0.00129526 0.000951681 0.000290609)
(-0.00129478 0.000840703 0.000140857)
(-0.0012313 0.000682306 -1.01213e-05)
(-0.00112017 0.000507002 -0.000137773)
(-0.000977779 0.000334366 -0.000224106)
(-0.000814542 0.000174344 -0.000259479)
(-0.00063421 3.17811e-05 -0.000241191)
(-0.000436718 -9.01513e-05 -0.000171813)
(-0.000222231 -0.000188793 -5.86747e-05)
(5.12536e-06 -0.000263101 8.56559e-05)
(0.000235268 -0.000316496 0.000243038)
(0.000453265 -0.00035987 0.000391107)
(0.000643987 -0.000411716 0.000507414)
(0.000798366 -0.000492425 0.000575692)
(0.000918419 -0.000612701 0.000590705)
(0.00101835 -0.000768645 0.000558376)
(0.00192186 -0.00139562 0.000993259)
(0.00184702 -0.00144325 0.000456613)
(0.0016806 -0.00143177 -7.3903e-05)
(0.00148006 -0.00136266 -0.000512864)
(0.00128427 -0.00124551 -0.000825923)
(0.00111351 -0.00109761 -0.00101377)
(0.000973778 -0.000932498 -0.00109342)
(0.000859099 -0.000754988 -0.00108448)
(0.000753134 -0.000563491 -0.00100188)
(0.000632235 -0.000354811 -0.000852892)
(0.000470381 -0.000128113 -0.000637047)
(0.000245187 0.000112736 -0.000349462)
(-5.57523e-05 0.000358252 1.17645e-05)
(-0.000428644 0.000593924 0.00043365)
(-0.000848306 0.000803986 0.0008743)
(-0.00126706 0.000980616 0.00125368)
(-0.00162186 0.00113407 0.00145943)
(-0.00185038 0.00128252 0.00137958)
(-0.00192186 0.00139562 0.000993259)
(-0.00184702 0.00144325 0.000456613)
(-0.0016806 0.00143177 -7.3903e-05)
(-0.00148006 0.00136266 -0.000512864)
(-0.00128427 0.00124551 -0.000825923)
(-0.00111351 0.00109761 -0.00101377)
(-0.000973778 0.000932498 -0.00109342)
(-0.000859099 0.000754988 -0.00108448)
(-0.000753134 0.000563491 -0.00100188)
(-0.000632235 0.000354811 -0.000852892)
(-0.000470381 0.000128113 -0.000637047)
(-0.000245187 -0.000112736 -0.000349462)
(5.57523e-05 -0.000358252 1.17645e-05)
(0.000428644 -0.000593924 0.00043365)
(0.000848306 -0.000803986 0.0008743)
(0.00126706 -0.000980616 0.00125368)
(0.00162186 -0.00113407 0.00145943)
(0.00185038 -0.00128252 0.00137958)
(0.00174195 -0.00127603 0.000917638)
(0.00176265 -0.00133868 0.000582308)
(0.00170682 -0.00131457 0.000218584)
(0.00159487 -0.00121644 -0.00011266)
(0.00144852 -0.00106675 -0.000377893)
(0.00128751 -0.000889983 -0.000562206)
(0.00112446 -0.000702884 -0.000663129)
(0.000961857 -0.000513011 -0.000684737)
(0.000792853 -0.000322455 -0.00063296)
(0.000604724 -0.000132039 -0.000512989)
(0.000383894 5.60649e-05 -0.000329111)
(0.000121301 0.000237777 -8.69636e-05)
(-0.000183036 0.000408319 0.00020219)
(-0.000517395 0.000564464 0.000516236)
(-0.00085857 0.000707146 0.000818193)
(-0.00117596 0.000843602 0.00105711)
(-0.00144044 0.000985888 0.00117759)
(-0.00163318 0.00113946 0.00113494)
(-0.00174195 0.00127603 0.000917638)
(-0.00176265 0.00133868 0.000582308)
(-0.00170682 0.00131457 0.000218584)
(-0.00159487 0.00121644 -0.00011266)
(-0.00144852 0.00106675 -0.000377893)
(-0.00128751 0.000889983 -0.000562206)
(-0.00112446 0.000702884 -0.000663129)
(-0.000961857 0.000513011 -0.000684737)
(-0.000792853 0.000322455 -0.00063296)
(-0.000604724 0.000132039 -0.000512989)
(-0.000383894 -5.60648e-05 -0.000329111)
(-0.000121301 -0.000237777 -8.69636e-05)
(0.000183036 -0.000408319 0.00020219)
(0.000517395 -0.000564464 0.000516236)
(0.00085857 -0.000707146 0.000818193)
(0.00117596 -0.000843602 0.00105711)
(0.00144044 -0.000985888 0.00117759)
(0.00163318 -0.00113946 0.00113494)
(0.00151357 -0.00117562 0.000807504)
(0.00161157 -0.00125426 0.000662021)
(0.00165943 -0.00122766 0.000467895)
(0.00163882 -0.00110971 0.000251381)
(0.00155215 -0.000932188 4.19382e-05)
(0.00141445 -0.000726608 -0.000131418)
(0.0012414 -0.000514769 -0.000247012)
(0.0010423 -0.000309191 -0.000293108)
(0.0008197 -0.000117325 -0.000266451)
(0.00057259 5.5251e-05 -0.00017034)
(0.000300782 0.000203913 -1.41894e-05)
(8.84614e-06 0.000326253 0.000185526)
(-0.000291696 0.000424973 0.000404545)
(-0.000583446 0.000510633 0.000612613)
(-0.000847839 0.000600941 0.000779393)
(-0.00107143 0.000714044 0.000883217)
(-0.00125079 0.000857911 0.000917655)
(-0.00139392 0.00102298 0.000890081)
(-0.00151357 0.00117562 0.000807504)
(-0.00161157 0.00125426 0.000662021)
(-0.00165943 0.00122766 0.000467895)
(-0.00163882 0.00110971 0.000251381)
(-0.00155215 0.000932188 4.19382e-05)
(-0.00141445 0.000726608 -0.000131418)
(-0.0012414 0.000514769 -0.000247012)
(-0.0010423 0.000309191 -0.000293108)
(-0.0008197 0.000117325 -0.000266451)
(-0.00057259 -5.5251e-05 -0.00017034)
(-0.000300782 -0.000203913 -1.41894e-05)
(-8.84616e-06 -0.000326253 0.000185526)
(0.000291696 -0.000424973 0.000404545)
(0.000583445 -0.000510633 0.000612612)
(0.000847839 -0.000600941 0.000779393)
(0.00107143 -0.000714044 0.000883217)
(0.00125079 -0.000857911 0.000917655)
(0.00139392 -0.00102298 0.000890081)
(0.00215498 -0.00179431 0.00129519)
(0.0021048 -0.0018638 0.000704413)
(0.00194278 -0.00184598 5.56601e-05)
(0.00172974 -0.00175708 -0.000519259)
(0.00151308 -0.00161409 -0.000951638)
(0.001318 -0.00143501 -0.00122787)
(0.00115084 -0.00123345 -0.00136376)
(0.0010047 -0.00101541 -0.00138175)
(0.000862888 -0.000780777 -0.00129909)
(0.000702118 -0.000527299 -0.00112386)
(0.000497244 -0.000254328 -0.000855782)
(0.000227349 3.47251e-05 -0.000491113)
(-0.00011753 0.000331536 -3.26708e-05)
(-0.000530085 0.000624213 0.00049561)
(-0.000981704 0.000902021 0.00103441)
(-0.001424 0.00116205 0.00148524)
(-0.001798 0.00140857 0.00172834)
(-0.00205167 0.00163234 0.00166867)
(-0.00215498 0.00179431 0.00129519)
(-0.0021048 0.0018638 0.000704413)
(-0.00194278 0.00184598 5.56602e-05)
(-0.00172974 0.00175708 -0.000519259)
(-0.00151308 0.00161409 -0.000951638)
(-0.001318 0.00143501 -0.00122787)
(-0.00115084 0.00123345 -0.00136376)
(-0.0010047 0.00101541 -0.00138175)
(-0.000862888 0.000780777 -0.00129909)
(-0.000702118 0.000527299 -0.00112386)
(-0.000497244 0.000254328 -0.000855782)
(-0.000227349 -3.47251e-05 -0.000491113)
(0.00011753 -0.000331536 -3.26708e-05)
(0.000530085 -0.000624213 0.00049561)
(0.000981704 -0.000902021 0.00103441)
(0.001424 -0.00116205 0.00148524)
(0.001798 -0.00140857 0.00172834)
(0.00205167 -0.00163234 0.00166867)
(0.00199067 -0.00157081 0.00116356)
(0.00201352 -0.00164222 0.000790071)
(0.00194963 -0.00162087 0.000352685)
(0.00182246 -0.00151828 -6.58709e-05)
(0.00165845 -0.00135693 -0.000410353)
(0.00147873 -0.00116016 -0.000655373)
(0.00129479 -0.000944792 -0.000795585)
(0.00110761 -0.000719745 -0.000835186)
(0.000909419 -0.000488878 -0.000780843)
(0.000687301 -0.000254511 -0.000638473)
(0.000428004 -1.97667e-05 -0.000413409)
(0.000123183 0.000210796 -0.000113553)
(-0.000225964 0.000432225 0.000245144)
(-0.000605934 0.000641434 0.000632662)
(-0.000991402 0.000839908 0.00100162)
(-0.0013501 0.00103459 0.00129061)
(-0.00165085 0.00123204 0.00143623)
(-0.00186941 0.0014224 0.00139383)
(-0.00199067 0.00157081 0.00116356)
(-0.00201352 0.00164222 0.000790071)
(-0.00194963 0.00162087 0.000352685)
(-0.00182246 0.00151828 -6.58709e-05)
(-0.00165845 0.00135693 -0.000410353)
(-0.00147873 0.00116016 -0.000655373)
(-0.00129479 0.000944792 -0.000795585)
(-0.00110761 0.000719745 -0.000835186)
(-0.000909419 0.000488878 -0.000780843)
(-0.000687301 0.000254511 -0.000638473)
(-0.000428004 1.97667e-05 -0.000413409)
(-0.000123183 -0.000210796 -0.000113553)
(0.000225964 -0.000432225 0.000245144)
(0.000605934 -0.000641434 0.000632662)
(0.000991402 -0.000839908 0.00100162)
(0.0013501 -0.00103459 0.00129061)
(0.00165085 -0.00123204 0.00143623)
(0.00186941 -0.0014224 0.00139383)
(0.00181169 -0.00138534 0.00101513)
(0.00188392 -0.00145325 0.000841253)
(0.00190168 -0.00143022 0.000612132)
(0.00185675 -0.00131802 0.000354431)
(0.00175112 -0.00113992 0.000104426)
(0.00159657 -0.000923781 -0.000102923)
(0.00140588 -0.000691096 -0.00024165)
(0.00118627 -0.000455566 -0.000297499)
(0.000938866 -0.000226353 -0.000266372)
(0.00066183 -1.07738e-05 -0.00015213)
(0.000354536 0.00018505 3.39478e-05)
(2.12791e-05 0.000357425 0.000272109)
(-0.000326619 0.000507569 0.00053345)
(-0.00067162 0.000643639 0.000782506)
(-0.000993981 0.000779327 0.000984488)
(-0.00127699 0.000927317 0.00111415)
(-0.00151018 0.00109009 0.0011603)
(-0.0016886 0.00125299 0.00112403)
(-0.00181169 0.00138534 0.00101513)
(-0.00188392 0.00145325 0.000841253)
(-0.00190168 0.00143022 0.000612132)
(-0.00185675 0.00131802 0.000354431)
(-0.00175112 0.00113992 0.000104426)
(-0.00159657 0.000923781 -0.000102923)
(-0.00140588 0.000691096 -0.00024165)
(-0.00118627 0.000455566 -0.000297499)
(-0.000938866 0.000226353 -0.000266372)
(-0.00066183 1.07738e-05 -0.00015213)
(-0.000354536 -0.00018505 3.39478e-05)
(-2.12792e-05 -0.000357425 0.000272109)
(0.000326619 -0.000507569 0.00053345)
(0.00067162 -0.000643639 0.000782506)
(0.000993981 -0.000779327 0.000984488)
(0.00127699 -0.000927317 0.00111415)
(0.00151018 -0.00109009 0.0011603)
(0.0016886 -0.00125299 0.00112403)
(0.00223897 -0.00206999 0.00145185)
(0.0022144 -0.00218246 0.000873191)
(0.00207368 -0.00219323 0.000189822)
(0.00186823 -0.00211665 -0.000457464)
(0.00164804 -0.00197241 -0.000972706)
(0.00144251 -0.00177999 -0.00132151)
(0.00125891 -0.00155476 -0.00151077)
(0.00108975 -0.0013055 -0.00156072)
(0.000918769 -0.00103499 -0.00148854)
(0.000724751 -0.000742943 -0.00130283)
(0.000485716 -0.000429346 -0.00100455)
(0.000184472 -9.69956e-05 -0.00059299)
(-0.000184991 0.000247364 -7.72385e-05)
(-0.000611625 0.000594202 0.000508304)
(-0.0010649 0.00093518 0.00109212)
(-0.00149924 0.00126611 0.00156969)
(-0.00186498 0.00158121 0.00182978)
(-0.00212065 0.00186034 0.00179406)
(-0.00223897 0.00206999 0.00145185)
(-0.0022144 0.00218246 0.000873191)
(-0.00207368 0.00219323 0.000189822)
(-0.00186823 0.00211665 -0.000457464)
(-0.00164804 0.00197241 -0.000972706)
(-0.00144251 0.00177999 -0.00132151)
(-0.00125891 0.00155476 -0.00151077)
(-0.00108975 0.0013055 -0.00156072)
(-0.000918769 0.00103499 -0.00148854)
(-0.000724751 0.000742943 -0.00130283)
(-0.000485716 0.000429346 -0.00100455)
(-0.000184472 9.69957e-05 -0.00059299)
(0.000184991 -0.000247364 -7.72385e-05)
(0.000611625 -0.000594202 0.000508304)
(0.0010649 -0.00093518 0.00109212)
(0.00149924 -0.00126611 0.00156969)
(0.00186498 -0.00158121 0.00182978)
(0.00212065 -0.00186034 0.00179406)
(0.00210071 -0.00178323 0.00129774)
(0.00212582 -0.00187067 0.000921192)
(0.00206138 -0.00186738 0.000461391)
(0.00193089 -0.00177925 1.04439e-06)
(0.00176167 -0.00162447 -0.000392701)
(0.00157496 -0.00142394 -0.00068252)
(0.00138106 -0.00119441 -0.000856346)
(0.00117977 -0.00094637 -0.000915644)
(0.000963135 -0.000685633 -0.000866339)
(0.000719171 -0.0004161 -0.000714726)
(0.000436217 -0.000141729 -0.000467554)
(0.000107633 0.000132727 -0.000135506)
(-0.000263925 0.000402317 0.000260944)
(-0.000663825 0.000663575 0.000685618)
(-0.00106601 0.00091643 0.00108485)
(-0.00143801 0.00116345 0.0013939)
(-0.00174867 0.00140281 0.00155195)
(-0.00197427 0.00161862 0.00152051)
(-0.00210071 0.00178323 0.00129774)
(-0.00212582 0.00187067 0.000921192)
(-0.00206138 0.00186738 0.000461391)
(-0.00193089 0.00177925 1.04441e-06)
(-0.00176167 0.00162447 -0.000392701)
(-0.00157496 0.00142394 -0.00068252)
(-0.00138106 0.00119441 -0.000856346)
(-0.00117977 0.00094637 -0.000915644)
(-0.000963135 0.000685634 -0.000866339)
(-0.000719171 0.0004161 -0.000714726)
(-0.000436217 0.000141729 -0.000467554)
(-0.000107633 -0.000132727 -0.000135506)
(0.000263925 -0.000402317 0.000260944)
(0.000663825 -0.000663575 0.000685618)
(0.00106601 -0.00091643 0.00108485)
(0.00143801 -0.00116345 0.0013939)
(0.00174867 -0.00140281 0.00155195)
(0.00197427 -0.00161862 0.00152051)
(0.00196823 -0.00153862 0.00113352)
(0.00202406 -0.00159518 0.000945909)
(0.00201852 -0.00157505 0.000702891)
(0.0019544 -0.00147522 0.000429681)
(0.00183636 -0.00130895 0.000161523)
(0.00167351 -0.00109722 -6.42246e-05)
(0.00147542 -0.000859052 -0.000217764)
(0.00124728 -0.000608159 -0.000281807)
(0.000989265 -0.000354566 -0.000250871)
(0.000699185 -0.000106584 -0.000129001)
(0.000376232 0.000128756 7.10365e-05)
(2.42358e-05 0.000346684 0.00032702)
(-0.000346428 0.000546466 0.000607187)
(-0.000719223 0.000732477 0.000873822)
(-0.0010741 0.000912334 0.00109101)
(-0.00139088 0.00109134 0.00123265)
(-0.00165207 0.00126608 0.00128603)
(-0.00184563 0.00142207 0.00125049)
(-0.00196823 0.00153862 0.00113352)
(-0.00202406 0.00159518 0.000945909)
(-0.00201852 0.00157505 0.000702891)
(-0.0019544 0.00147522 0.000429681)
(-0.00183636 0.00130895 0.000161523)
(-0.00167351 0.00109722 -6.42246e-05)
(-0.00147542 0.000859052 -0.000217764)
(-0.00124728 0.000608159 -0.000281807)
(-0.000989265 0.000354566 -0.000250871)
(-0.000699185 0.000106584 -0.000129001)
(-0.000376232 -0.000128756 7.10365e-05)
(-2.42358e-05 -0.000346684 0.00032702)
(0.000346428 -0.000546466 0.000607187)
(0.000719223 -0.000732477 0.000873822)
(0.0010741 -0.000912334 0.00109101)
(0.00139088 -0.00109134 0.00123265)
(0.00165207 -0.00126608 0.00128603)
(0.00184563 -0.00142207 0.00125049)
(0.00219388 -0.00223686 0.00146249)
(0.00218829 -0.00239851 0.000933995)
(0.00207543 -0.00245554 0.000281566)
(0.00189332 -0.00241398 -0.000369584)
(0.00168553 -0.00228984 -0.0009172)
(0.00148207 -0.00210223 -0.00130952)
(0.00129206 -0.00186832 -0.00153909)
(0.00110899 -0.00160011 -0.00161868)
(0.000918126 -0.00130386 -0.00156273)
(0.000701269 -0.000981837 -0.00137988)
(0.000440734 -0.00063514 -0.00107336)
(0.000124154 -0.000266349 -0.000646988)
(-0.000249894 0.000118817 -0.000116716)
(-0.000667135 0.000512005 0.000475431)
(-0.00109726 0.00090489 0.00105418)
(-0.00150033 0.00129004 0.00152062)
(-0.00183687 0.00165595 0.00177794)
(-0.00207505 0.00198109 0.00176168)
(-0.00219388 0.00223686 0.00146249)
(-0.00218829 0.00239851 0.000933995)
(-0.00207543 0.00245554 0.000281566)
(-0.00189332 0.00241398 -0.000369584)
(-0.00168553 0.00228984 -0.0009172)
(-0.00148207 0.00210223 -0.00130952)
(-0.00129206 0.00186832 -0.00153909)
(-0.00110899 0.00160011 -0.00161868)
(-0.000918126 0.00130386 -0.00156273)
(-0.000701269 0.000981837 -0.00137988)
(-0.000440734 0.00063514 -0.00107336)
(-0.000124154 0.000266349 -0.000646988)
(0.000249894 -0.000118817 -0.000116716)
(0.000667135 -0.000512005 0.000475431)
(0.00109726 -0.00090489 0.00105418)
(0.00150033 -0.00129004 0.00152062)
(0.00183687 -0.00165595 0.00177794)
(0.00207505 -0.00198109 0.00176168)
(0.00207991 -0.00191451 0.00131685)
(0.00210815 -0.00202651 0.000965636)
(0.00205114 -0.00205144 0.000523453)
(0.00192905 -0.00199051 6.44682e-05)
(0.00176634 -0.00185617 -0.000343577)
(0.00158283 -0.0016657 -0.000655684)
(0.00138814 -0.00143519 -0.000851772)
(0.0011819 -0.00117642 -0.000928228)
(0.000956935 -0.000897166 -0.000888763)
(0.000703064 -0.00060286 -0.000739593)
(0.000411048 -0.000298253 -0.000489066)
(7.66228e-05 1.17029e-05 -0.000150817)
(-0.000295794 0.000321833 0.000250934)
(-0.000690816 0.000627593 0.00067677)
(-0.00108303 0.000926088 0.00107247)
(-0.00144216 0.00121488 0.00137706)
(-0.00174023 0.00148722 0.00153648)
(-0.0019567 0.00172772 0.00151737)
(-0.00207991 0.00191451 0.00131685)
(-0.00210815 0.00202651 0.000965636)
(-0.00205114 0.00205144 0.000523453)
(-0.00192905 0.00199051 6.44683e-05)
(-0.00176634 0.00185617 -0.000343577)
(-0.00158283 0.0016657 -0.000655684)
(-0.00138814 0.00143519 -0.000851772)
(-0.0011819 0.00117642 -0.000928228)
(-0.000956935 0.000897166 -0.000888763)
(-0.000703064 0.00060286 -0.000739593)
(-0.000411048 0.000298253 -0.000489066)
(-7.66228e-05 -1.17029e-05 -0.000150817)
(0.000295794 -0.000321833 0.000250934)
(0.000690816 -0.000627593 0.00067677)
(0.00108303 -0.000926088 0.00107247)
(0.00144216 -0.00121488 0.00137706)
(0.00174023 -0.00148722 0.00153648)
(0.0019567 -0.00172772 0.00151737)
(0.00198827 -0.00163437 0.00116099)
(0.00203535 -0.00168976 0.000977682)
(0.00201857 -0.00167734 0.000739339)
(0.00194557 -0.00159387 0.000470571)
(0.0018235 -0.00144632 0.000203961)
(0.00166024 -0.00124885 -2.43145e-05)
(0.00146302 -0.0010167 -0.000183012)
(0.00123569 -0.000762615 -0.000252453)
(0.000978119 -0.000496803 -0.000225554)
(0.000688449 -0.000228004 -0.000106097)
(0.0003662 3.62553e-05 9.22846e-05)
(1.5047e-05 0.000290277 0.000346025)
(-0.000355492 0.000531174 0.000622615)
(-0.000730044 0.00075915 0.000885183)
(-0.00108895 0.000975727 0.00110003)
(-0.00141076 0.00118005 0.00124296)
(-0.00167559 0.00136589 0.00130132)
(-0.00186961 0.00152188 0.0012724)
(-0.00198827 0.00163437 0.00116099)
(-0.00203535 0.00168976 0.000977682)
(-0.00201857 0.00167734 0.000739339)
(-0.00194557 0.00159387 0.000470571)
(-0.0018235 0.00144632 0.000203961)
(-0.00166024 0.00124885 -2.43145e-05)
(-0.00146302 0.0010167 -0.000183012)
(-0.00123569 0.000762615 -0.000252453)
(-0.000978119 0.000496803 -0.000225554)
(-0.000688449 0.000228004 -0.000106097)
(-0.0003662 -3.62552e-05 9.22846e-05)
(-1.5047e-05 -0.000290277 0.000346025)
(0.000355492 -0.000531174 0.000622615)
(0.000730044 -0.00075915 0.000885183)
(0.00108895 -0.000975727 0.00110003)
(0.00141076 -0.00118005 0.00124296)
(0.00167559 -0.00136589 0.00130132)
(0.00186961 -0.00152188 0.0012724)
(0.00204502 -0.00231236 0.00134601)
(0.00205047 -0.00252099 0.000889255)
(0.00196472 -0.00262727 0.000309069)
(0.00181365 -0.00262994 -0.000292907)
(0.0016298 -0.00253889 -0.000824038)