/*--------------------------------*- C++ -*----------------------------------*\
| =========                 |                                                 |
| \\      /  F ield         | OpenFOAM: The Open Source CFD Toolbox           |
|  \\    /   O peration     | Version:  2312                                  |
|   \\  /    A nd           | Website:  www.openfoam.com                      |
|    \\/     M anipulation  |                                                 |
\*---------------------------------------------------------------------------*/
FoamFile
{
    version     2.0;
    format      ascii;
    arch        "LSB;label=32;scalar=64";
    class       volVectorField;
    location    "0.4";
    object      D_0;
}
// * * * * * * * * * * * * * * * * * * * * * * * * * * * * * * * * * * * * * //

dimensions      [0 1 0 0 0 0 0];

internalField   nonuniform List<vector> 
1620
(
(0.000371335 -0.000101349 8.17276e-05)
(0.000322007 -0.000129816 5.27799e-06)
(0.00026415 -0.000169847 -5.03919e-05)
(0.000211845 -0.000198279 -8.12499e-05)
(0.000172658 -0.000209318 -9.47965e-05)
(0.000148419 -0.000205466 -9.75131e-05)
(0.000137284 -0.000189966 -9.27024e-05)
(0.000134788 -0.000164325 -8.21368e-05)
(0.000134554 -0.000128845 -6.70887e-05)
(0.000129196 -8.37876e-05 -4.83306e-05)
(0.000111285 -3.02033e-05 -2.57885e-05)
(7.42275e-05 2.9404e-05 1.66877e-06)
(1.33763e-05 9.00758e-05 3.59742e-05)
(-7.19407e-05 0.000143098 7.85299e-05)
(-0.000175118 0.000176001 0.000126799)
(-0.000279347 0.000177181 0.000169023)
(-0.000359383 0.000147031 0.000182899)
(-0.000390979 0.000109982 0.000150545)
(-0.000371335 0.000101349 8.17276e-05)
(-0.000322007 0.000129816 5.27799e-06)
(-0.00026415 0.000169847 -5.03919e-05)
(-0.000211845 0.000198279 -8.12499e-05)
(-0.000172658 0.000209318 -9.47965e-05)
(-0.000148419 0.000205466 -9.75131e-05)
(-0.000137284 0.000189966 -9.27024e-05)
(-0.000134788 0.000164325 -8.21368e-05)
(-0.000134554 0.000128845 -6.70887e-05)
(-0.000129196 8.37876e-05 -4.83306e-05)
(-0.000111285 3.02033e-05 -2.57885e-05)
(-7.42275e-05 -2.9404e-05 1.66877e-06)
(-1.33763e-05 -9.00758e-05 3.59742e-05)
(7.19406e-05 -0.000143098 7.85299e-05)
(0.000175118 -0.000176001 0.000126799)
(0.000279347 -0.000177181 0.000169023)
(0.000359383 -0.000147031 0.000182899)
(0.000390979 -0.000109982 0.000150545)
(0.000299292 -0.000166253 5.4998e-05)
(0.000302227 -0.000183036 2.42296e-05)
(0.000291934 -0.000185931 -3.86002e-06)
(0.000271013 -0.000172232 -2.78517e-05)
(0.000243175 -0.000147691 -4.81351e-05)
(0.0002129 -0.000119069 -6.3492e-05)
(0.000183794 -9.02218e-05 -7.22728e-05)
(0.000157096 -6.19499e-05 -7.36384e-05)
(0.00013143 -3.35365e-05 -6.77044e-05)
(0.00010366 -4.26979e-06 -5.5146e-05)
(7.02085e-05 2.5717e-05 -3.68386e-05)
(2.83599e-05 5.52698e-05 -1.37335e-05)
(-2.27282e-05 8.24423e-05 1.3e-05)
(-8.13946e-05 0.000104931 4.14685e-05)
(-0.000143297 0.000120835 6.81109e-05)
(-0.000201897 0.00013013 8.69873e-05)
(-0.000249921 0.000136723 9.15887e-05)
(-0.000282437 0.000148402 7.98945e-05)
(-0.000299292 0.000166253 5.4998e-05)
(-0.000302227 0.000183036 2.42296e-05)
(-0.000291934 0.000185931 -3.86002e-06)
(-0.000271013 0.000172232 -2.78517e-05)
(-0.000243175 0.000147691 -4.81351e-05)
(-0.0002129 0.000119069 -6.3492e-05)
(-0.000183794 9.02218e-05 -7.22728e-05)
(-0.000157096 6.19499e-05 -7.36384e-05)
(-0.00013143 3.35365e-05 -6.77044e-05)
(-0.00010366 4.26979e-06 -5.5146e-05)
(-7.02085e-05 -2.5717e-05 -3.68386e-05)
(-2.83599e-05 -5.52698e-05 -1.37335e-05)
(2.27282e-05 -8.24423e-05 1.3e-05)
(8.13946e-05 -0.000104931 4.14685e-05)
(0.000143297 -0.000120835 6.81109e-05)
(0.000201897 -0.00013013 8.69873e-05)
(0.000249921 -0.000136723 9.15887e-05)
(0.000282437 -0.000148402 7.98945e-05)
(0.000214697 -0.000201742 2.84952e-05)
(0.000251363 -0.000217461 2.54416e-05)
(0.000279008 -0.000200449 1.62619e-05)
(0.000290457 -0.000159501 -1.57728e-06)
(0.000283105 -0.000108054 -2.50949e-05)
(0.000259484 -5.68945e-05 -4.82074e-05)
(0.00022459 -1.23211e-05 -6.54843e-05)
(0.000183096 2.29991e-05 -7.37396e-05)
(0.000138162 4.8482e-05 -7.19687e-05)
(9.16451e-05 6.44227e-05 -6.08639e-05)
(4.49199e-05 7.14997e-05 -4.24804e-05)
(-3.10754e-07 7.10055e-05 -2.00418e-05)
(-4.17206e-05 6.55973e-05 2.36531e-06)
(-7.68882e-05 6.00961e-05 2.04594e-05)
(-0.000104624 6.15614e-05 3.09596e-05)
(-0.00012662 7.77262e-05 3.33601e-05)
(-0.000148447 0.000112833 3.13412e-05)
(-0.000177589 0.000160632 2.97484e-05)
(-0.000214697 0.000201742 2.84952e-05)
(-0.000251363 0.000217461 2.54416e-05)
(-0.000279008 0.000200449 1.62619e-05)
(-0.000290457 0.000159501 -1.57728e-06)
(-0.000283105 0.000108054 -2.50949e-05)
(-0.000259484 5.68945e-05 -4.82074e-05)
(-0.00022459 1.23211e-05 -6.54843e-05)
(-0.000183096 -2.29991e-05 -7.37396e-05)
(-0.000138162 -4.8482e-05 -7.19687e-05)
(-9.16451e-05 -6.44227e-05 -6.08639e-05)
(-4.49199e-05 -7.14997e-05 -4.24804e-05)
(3.10752e-07 -7.10055e-05 -2.00418e-05)
(4.17206e-05 -6.55973e-05 2.3653e-06)
(7.68882e-05 -6.00961e-05 2.04594e-05)
(0.000104624 -6.15614e-05 3.09596e-05)
(0.00012662 -7.77262e-05 3.33601e-05)
(0.000148447 -0.000112833 3.13412e-05)
(0.000177589 -0.000160632 2.97484e-05)
(0.000983986 -0.000426665 0.000285378)
(0.000911614 -0.000499093 6.18781e-05)
(0.000799717 -0.000558943 -0.00012023)
(0.000683974 -0.00057464 -0.00024561)
(0.000583098 -0.000548862 -0.000321624)
(0.000504572 -0.000496238 -0.000357712)
(0.000449335 -0.000428069 -0.000361486)
(0.000411952 -0.00034839 -0.000339424)
(0.000380998 -0.000256689 -0.00029683)
(0.000341082 -0.000151676 -0.000236878)
(0.000275691 -3.38243e-05 -0.000159783)
(0.000170176 9.31926e-05 -6.29221e-05)
(1.4964e-05 0.000221238 5.73961e-05)
(-0.000190259 0.000336353 0.000201509)
(-0.000431071 0.000419172 0.000358222)
(-0.000674139 0.000451795 0.000494376)
(-0.000871691 0.000434631 0.000552257)
(-0.000979832 0.000405166 0.000476613)
(-0.000983986 0.000426665 0.000285378)
(-0.000911614 0.000499093 6.18781e-05)
(-0.000799717 0.000558943 -0.00012023)
(-0.000683974 0.00057464 -0.00024561)
(-0.000583098 0.000548862 -0.000321624)
(-0.000504572 0.000496238 -0.000357712)
(-0.000449335 0.000428069 -0.000361486)
(-0.000411952 0.00034839 -0.000339424)
(-0.000380998 0.000256689 -0.00029683)
(-0.000341082 0.000151676 -0.000236878)
(-0.000275691 3.38243e-05 -0.000159783)
(-0.000170176 -9.31925e-05 -6.29221e-05)
(-1.4964e-05 -0.000221238 5.73961e-05)
(0.000190259 -0.000336353 0.000201509)
(0.000431071 -0.000419172 0.000358222)
(0.000674139 -0.000451795 0.000494376)
(0.000871691 -0.000434631 0.000552257)
(0.000979832 -0.000405166 0.000476613)
(0.000858587 -0.000524387 0.00024736)
(0.000864337 -0.000574893 0.000132553)
(0.00083582 -0.000578654 2.00915e-05)
(0.000779687 -0.000535096 -8.05475e-05)
(0.000704626 -0.000460417 -0.000162746)
(0.00062171 -0.00037298 -0.000220925)
(0.00053973 -0.000283979 -0.00025191)
(0.000461492 -0.000196908 -0.000255384)
(0.000383393 -0.000111221 -0.000233)
(0.000297601 -2.59336e-05 -0.000187134)
(0.000195361 5.84213e-05 -0.000120179)
(7.02871e-05 0.000139495 -3.46531e-05)
(-7.90075e-05 0.000213844 6.58538e-05)
(-0.000247273 0.000278047 0.000174803)
(-0.000422268 0.000330049 0.000279804)
(-0.000586401 0.00037131 0.000359754)
(-0.000721296 0.000409583 0.000386766)
(-0.000812715 0.000460471 0.000342853)
(-0.000858587 0.000524387 0.00024736)
(-0.000864337 0.000574893 0.000132553)
(-0.00083582 0.000578654 2.00915e-05)
(-0.000779687 0.000535096 -8.05475e-05)
(-0.000704626 0.000460417 -0.000162746)
(-0.00062171 0.00037298 -0.000220925)
(-0.00053973 0.000283979 -0.00025191)
(-0.000461492 0.000196908 -0.000255384)
(-0.000383393 0.000111221 -0.000233)
(-0.000297601 2.59336e-05 -0.000187134)
(-0.000195361 -5.84213e-05 -0.000120179)
(-7.02871e-05 -0.000139495 -3.46531e-05)
(7.90075e-05 -0.000213844 6.58538e-05)
(0.000247273 -0.000278047 0.000174803)
(0.000422268 -0.000330049 0.000279804)
(0.000586401 -0.00037131 0.000359754)
(0.000721296 -0.000409583 0.000386766)
(0.000812715 -0.000460471 0.000342853)
(0.000692376 -0.000586901 0.000202415)
(0.000766443 -0.000630938 0.000173865)
(0.000816091 -0.000600222 0.000123513)
(0.000822842 -0.000513634 4.97431e-05)
(0.000784839 -0.000398521 -3.28221e-05)
(0.000712215 -0.00027762 -0.000106564)
(0.000617422 -0.000164395 -0.000158365)
(0.000509218 -6.47404e-05 -0.000181175)
(0.000391456 1.93752e-05 -0.000172962)
(0.000264838 8.71238e-05 -0.000135439)
(0.000129788 0.000137799 -7.34865e-05)
(-1.08897e-05 0.000171598 4.92601e-06)
(-0.000150658 0.000191746 8.89315e-05)
(-0.000280151 0.000206798 0.00016578)
(-0.00039056 0.000231041 0.000222983)
(-0.000478284 0.000280888 0.000251421)
(-0.000548515 0.00036675 0.000249675)
(-0.000615474 0.000483003 0.000228522)
(-0.000692376 0.000586901 0.000202415)
(-0.000766443 0.000630938 0.000173865)
(-0.000816091 0.000600222 0.000123513)
(-0.000822842 0.000513634 4.97431e-05)
(-0.000784839 0.000398521 -3.28221e-05)
(-0.000712215 0.00027762 -0.000106564)
(-0.000617422 0.000164395 -0.000158365)
(-0.000509218 6.47404e-05 -0.000181175)
(-0.000391456 -1.93752e-05 -0.000172962)
(-0.000264838 -8.71238e-05 -0.000135439)
(-0.000129788 -0.000137799 -7.34865e-05)
(1.08897e-05 -0.000171598 4.92601e-06)
(0.000150658 -0.000191746 8.89315e-05)
(0.000280151 -0.000206798 0.00016578)
(0.00039056 -0.000231041 0.000222983)
(0.000478284 -0.000280888 0.000251421)
(0.000548515 -0.00036675 0.000249675)
(0.000615474 -0.000483003 0.000228522)
(0.00151011 -0.000873682 0.000613485)
(0.00142894 -0.000945493 0.000221609)
(0.00127854 -0.000977626 -0.000133044)
(0.00111132 -0.000955312 -0.000404597)
(0.000956273 -0.000884943 -0.000586743)
(0.00082725 -0.000784302 -0.000687841)
(0.000728084 -0.000667092 -0.00072077)
(0.000653032 -0.0005379 -0.000698531)
(0.000587303 -0.000395255 -0.000631387)
(0.000509822 -0.00023649 -0.000524826)
(0.00039749 -6.13388e-05 -0.000378856)
(0.000230014 0.00012603 -0.000189388)
(-4.98981e-06 0.000315869 4.74941e-05)
(-0.000306435 0.000492387 0.000327423)
(-0.000654005 0.000635777 0.000625775)
(-0.00100488 0.000730472 0.000885277)
(-0.00129858 0.000779747 0.00101487)
(-0.00147464 0.000815618 0.000924425)
(-0.00151011 0.000873682 0.000613485)
(-0.00142894 0.000945493 0.000221609)
(-0.00127854 0.000977626 -0.000133044)
(-0.00111132 0.000955312 -0.000404597)
(-0.000956273 0.000884943 -0.000586743)
(-0.00082725 0.000784302 -0.000687841)
(-0.000728084 0.000667092 -0.00072077)
(-0.000653032 0.0005379 -0.000698531)
(-0.000587303 0.000395255 -0.000631387)
(-0.000509822 0.00023649 -0.000524826)
(-0.00039749 6.13388e-05 -0.000378856)
(-0.000230014 -0.00012603 -0.000189388)
(4.9898e-06 -0.000315869 4.74941e-05)
(0.000306435 -0.000492387 0.000327423)
(0.000654005 -0.000635777 0.000625775)
(0.00100488 -0.000730472 0.000885277)
(0.00129858 -0.000779747 0.00101487)
(0.00147464 -0.000815618 0.000924425)
(0.00133987 -0.00089737 0.000565394)
(0.00135501 -0.000958008 0.000337338)
(0.0013129 -0.000950362 9.87221e-05)
(0.00122651 -0.000878302 -0.00011376)
(0.00111168 -0.000761899 -0.000282737)
(0.000984831 -0.000624901 -0.000399651)
(0.000857769 -0.000482764 -0.000461979)
(0.000733736 -0.000341403 -0.000471537)
(0.000607334 -0.000201387 -0.000432157)
(0.000467563 -6.23566e-05 -0.000347768)
(0.000302349 7.44159e-05 -0.000221823)
(0.000103227 0.000205563 -5.83049e-05)
(-0.000130778 0.000326687 0.000135815)
(-0.000390863 0.000434217 0.000346994)
(-0.000658362 0.000527654 0.000551134)
(-0.000907778 0.000611979 0.000711432)
(-0.00111399 0.000698072 0.000783023)
(-0.00125958 0.000795978 0.000730314)
(-0.00133987 0.00089737 0.000565394)
(-0.00135501 0.000958008 0.000337338)
(-0.0013129 0.000950362 9.87221e-05)
(-0.00122651 0.000878302 -0.00011376)
(-0.00111168 0.000761899 -0.000282737)
(-0.000984831 0.000624901 -0.000399651)
(-0.000857769 0.000482764 -0.000461979)
(-0.000733736 0.000341403 -0.000471537)
(-0.000607334 0.000201387 -0.000432157)
(-0.000467563 6.23566e-05 -0.000347768)
(-0.000302349 -7.44159e-05 -0.000221823)
(-0.000103227 -0.000205563 -5.83049e-05)
(0.000130778 -0.000326687 0.000135815)
(0.000390863 -0.000434217 0.000346994)
(0.000658362 -0.000527654 0.000551134)
(0.000907778 -0.000611979 0.000711432)
(0.00111399 -0.000698072 0.000783023)
(0.00125958 -0.000795978 0.000730314)
(0.00110803 -0.000905086 0.00049063)
(0.00121189 -0.000970858 0.000407837)
(0.00127456 -0.000941615 0.000286459)
(0.00127361 -0.000833391 0.000139948)
(0.0012108 -0.000678344 -7.94707e-06)
(0.00110119 -0.00050638 -0.000133198)
(0.000960886 -0.000336768 -0.000218122)
(0.000800168 -0.000179317 -0.000253155)
(0.000622752 -3.87853e-05 -0.000235574)
(0.000428574 8.17423e-05 -0.00016791)
(0.000217763 0.00017969 -5.74312e-05)
(-5.68993e-06 0.000254058 8.34586e-05)
(-0.00023197 0.000308189 0.000236985)
(-0.000446494 0.000352665 0.00038138)
(-0.000634406 0.000405424 0.000494896)
(-0.000786662 0.000486244 0.000561833)
(-0.000905037 0.000605542 0.000577166)
(-0.00100339 0.000759546 0.000546588)
(-0.00110803 0.000905086 0.00049063)
(-0.00121189 0.000970858 0.000407837)
(-0.00127456 0.000941615 0.000286459)
(-0.00127361 0.000833391 0.000139948)
(-0.0012108 0.000678344 -7.94706e-06)
(-0.00110119 0.000506381 -0.000133198)
(-0.000960886 0.000336768 -0.000218122)
(-0.000800168 0.000179317 -0.000253155)
(-0.000622752 3.87853e-05 -0.000235574)
(-0.000428574 -8.17423e-05 -0.00016791)
(-0.000217763 -0.00017969 -5.74312e-05)
(5.68992e-06 -0.000254058 8.34586e-05)
(0.00023197 -0.000308189 0.000236985)
(0.000446494 -0.000352665 0.00038138)
(0.000634406 -0.000405424 0.000494896)
(0.000786662 -0.000486244 0.000561833)
(0.000905037 -0.000605542 0.000577166)
(0.00100339 -0.000759546 0.000546588)
(0.00189318 -0.00137799 0.000975984)
(0.00181947 -0.00142495 0.000451195)
(0.00165535 -0.00141471 -6.83986e-05)
(0.00145771 -0.00134873 -0.000499523)
(0.00126508 -0.00123583 -0.000808239)
(0.00109753 -0.0010922 -0.000994548)
(0.00096089 -0.00093071 -0.00107447)
(0.000849127 -0.000755902 -0.00106682)
(0.00074595 -0.00056626 -0.000986019)
(0.000627907 -0.000358788 -0.000839149)
(0.000469213 -0.000132912 -0.000625915)
(0.000247655 0.000107191 -0.000341891)
(-4.90959e-05 0.000351703 1.42196e-05)
(-0.000417267 0.000585897 0.000429055)
(-0.000831839 0.000794134 0.00086112)
(-0.00124559 0.000968987 0.00123207)
(-0.00159624 0.00112075 0.00143251)
(-0.00182229 0.00126697 0.00135379)
(-0.00189318 0.00137799 0.000975984)
(-0.00181947 0.00142495 0.000451195)
(-0.00165535 0.00141471 -6.83986e-05)
(-0.00145771 0.00134873 -0.000499523)
(-0.00126508 0.00123583 -0.000808239)
(-0.00109753 0.0010922 -0.000994548)
(-0.00096089 0.00093071 -0.00107447)
(-0.000849127 0.000755902 -0.00106682)
(-0.00074595 0.00056626 -0.000986019)
(-0.000627907 0.000358788 -0.000839149)
(-0.000469213 0.000132912 -0.000625915)
(-0.000247655 -0.000107191 -0.000341891)
(4.90959e-05 -0.000351703 1.42196e-05)
(0.000417267 -0.000585897 0.000429055)
(0.000831839 -0.000794134 0.00086112)
(0.00124559 -0.000968987 0.00123207)
(0.00159624 -0.00112075 0.00143251)
(0.00182229 -0.00126697 0.00135379)
(0.00171545 -0.00126015 0.000900512)
(0.00173568 -0.00132238 0.000572909)
(0.00168048 -0.00129979 0.000216934)
(0.00157012 -0.00120478 -0.000107966)
(0.00142605 -0.00105906 -0.00036882)
(0.00126775 -0.000886323 -0.000550695)
(0.0011076 -0.000702804 -0.000650781)
(0.000948029 -0.000515873 -0.000672756)
(0.000782217 -0.000327586 -0.000622263)
(0.000597557 -0.000138812 -0.00050439)
(0.00038058 4.82015e-05 -0.000323498)
(0.000122256 0.000229257 -8.53857e-05)
(-0.000177491 0.000399399 0.000198603)
(-0.000507143 0.000555184 0.000506581)
(-0.000843768 0.000697366 0.000802293)
(-0.00115706 0.00083303 0.00103605)
(-0.00141816 0.000974002 0.00115394)
(-0.00160831 0.00112556 0.00111251)
(-0.00171545 0.00126015 0.000900512)
(-0.00173568 0.00132238 0.000572909)
(-0.00168048 0.00129979 0.000216934)
(-0.00157012 0.00120478 -0.000107966)
(-0.00142605 0.00105906 -0.00036882)
(-0.00126775 0.000886323 -0.000550695)
(-0.0011076 0.000702804 -0.000650781)
(-0.000948029 0.000515873 -0.000672756)
(-0.000782218 0.000327586 -0.000622263)
(-0.000597557 0.000138812 -0.00050439)
(-0.00038058 -4.82015e-05 -0.000323498)
(-0.000122256 -0.000229257 -8.53857e-05)
(0.000177491 -0.000399399 0.000198603)
(0.000507143 -0.000555184 0.000506581)
(0.000843768 -0.000697366 0.000802293)
(0.00115706 -0.00083303 0.00103605)
(0.00141816 -0.000974002 0.00115394)
(0.00160831 -0.00112556 0.00111251)
(0.00149069 -0.00116113 0.000791508)
(0.00158694 -0.00123943 0.000649844)
(0.00163377 -0.00121438 0.000460184)
(0.00161319 -0.00109947 0.000248314)
(0.00152763 -0.000925699 4.307e-05)
(0.00139182 -0.000723981 -0.000127133)
(0.00122122 -0.000515772 -0.000240929)
(0.00102508 -0.000313413 -0.000286616)
(0.000805913 -0.000124216 -0.000260883)
(0.00056274 4.63625e-05 -0.000166987)
(0.000295331 0.00019379 -1.43058e-05)
(8.13652e-06 0.00031569 0.000180845)
(-0.000287566 0.000414668 0.000394652)
(-0.000574724 0.00050096 0.000597668)
(-0.000835095 0.000591713 0.000760545)
(-0.00105537 0.000704498 0.00086238)
(-0.00123204 0.000847082 0.000896943)
(-0.00137295 0.00101023 0.000871194)
(-0.00149069 0.00116113 0.000791508)
(-0.00158694 0.00123943 0.000649844)
(-0.00163377 0.00121438 0.000460184)
(-0.00161319 0.00109947 0.000248314)
(-0.00152763 0.000925699 4.307e-05)
(-0.00139182 0.000723981 -0.000127133)
(-0.00122122 0.000515772 -0.000240929)
(-0.00102508 0.000313413 -0.000286616)
(-0.000805913 0.000124216 -0.000260883)
(-0.00056274 -4.63625e-05 -0.000166987)
(-0.000295331 -0.00019379 -1.43058e-05)
(-8.13653e-06 -0.00031569 0.000180845)
(0.000287566 -0.000414668 0.000394652)
(0.000574724 -0.00050096 0.000597668)
(0.000835095 -0.000591713 0.000760545)
(0.00105537 -0.000704498 0.00086238)
(0.00123204 -0.000847081 0.000896943)
(0.00137295 -0.00101023 0.000871194)
(0.00212249 -0.00177194 0.0012718)
(0.00207347 -0.00184078 0.000693214)
(0.00191428 -0.00182454 5.71545e-05)
(0.00170479 -0.00173904 -0.00050794)
(0.00149174 -0.00160053 -0.000934484)
(0.00130011 -0.00142609 -0.00120822)
(0.00113628 -0.00122864 -0.00134377)
(0.000993389 -0.00101386 -0.00136265)
(0.000854813 -0.000781646 -0.00128158)
(0.000697421 -0.000529898 -0.00110851)
(0.000496245 -0.000258219 -0.000843348)
(0.000230514 2.96641e-05 -0.000482869)
(-0.000109671 0.000325084 -3.05291e-05)
(-0.000517025 0.000615915 0.000489433)
(-0.000963127 0.000891416 0.00101838)
(-0.00140005 0.00114877 0.00145987)
(-0.00176952 0.0013922 0.00169717)
(-0.00202021 0.0016126 0.00163789)
(-0.00212249 0.00177194 0.0012718)
(-0.00207347 0.00184078 0.000693214)
(-0.00191428 0.00182454 5.71545e-05)
(-0.00170479 0.00173904 -0.00050794)
(-0.00149174 0.00160053 -0.000934484)
(-0.00130011 0.00142609 -0.00120822)
(-0.00113628 0.00122864 -0.00134377)
(-0.000993389 0.00101386 -0.00136265)
(-0.000854813 0.000781646 -0.00128158)
(-0.000697421 0.000529898 -0.00110851)
(-0.000496245 0.000258219 -0.000843348)
(-0.000230514 -2.96641e-05 -0.000482869)
(0.00010967 -0.000325084 -3.05291e-05)
(0.000517025 -0.000615915 0.000489433)
(0.000963127 -0.000891416 0.00101838)
(0.00140005 -0.00114877 0.00145987)
(0.00176952 -0.0013922 0.00169717)
(0.00202021 -0.0016126 0.00163789)
(0.00196048 -0.00155163 0.00114098)
(0.00198322 -0.00162267 0.000775507)
(0.00192054 -0.00160289 0.000347018)
(0.00179551 -0.00150346 -6.38078e-05)
(0.00163417 -0.00134618 -0.000402785)
(0.00145738 -0.00115366 -0.000644601)
(0.00127654 -0.000942235 -0.000783501)
(0.00109264 -0.000720571 -0.000823221)
(0.000897963 -0.000492441 -0.000770116)
(0.000679686 -0.00026018 -0.000630009)
(0.000424642 -2.69974e-05 -0.000408324)
(0.000124518 0.00020241 -0.000113148)
(-0.000219541 0.000422899 0.000239503)
(-0.0005942 0.000631179 0.000619934)
(-0.000974419 0.000828546 0.000981686)
(-0.00132831 0.00102174 0.00126482)
(-0.00162505 0.00121713 0.0014075)
(-0.00184074 0.00140508 0.00136618)
(-0.00196048 0.00155163 0.00114098)
(-0.00198323 0.00162267 0.000775507)
(-0.00192054 0.00160289 0.000347018)
(-0.00179551 0.00150346 -6.38078e-05)
(-0.00163417 0.00134618 -0.000402785)
(-0.00145738 0.00115366 -0.000644601)
(-0.00127654 0.000942235 -0.000783501)
(-0.00109264 0.000720571 -0.000823221)
(-0.000897963 0.000492441 -0.000770116)
(-0.000679687 0.00026018 -0.000630009)
(-0.000424642 2.69974e-05 -0.000408324)
(-0.000124518 -0.00020241 -0.000113148)
(0.000219541 -0.000422899 0.000239503)
(0.0005942 -0.000631179 0.000619934)
(0.000974419 -0.000828545 0.000981686)
(0.00132831 -0.00102174 0.00126482)
(0.00162505 -0.00121713 0.0014075)
(0.00184074 -0.00140508 0.00136618)
(0.00178431 -0.00136843 0.000993807)
(0.00185567 -0.00143634 0.000824224)
(0.00187326 -0.00141486 0.00060026)
(0.00182902 -0.00130559 0.000348032)
(0.00172491 -0.00113123 0.000103001)
(0.00157255 -0.000919085 -0.000100605)
(0.00138456 -0.000690275 -0.000237181)
(0.00116813 -0.00045829 -0.000292501)
(0.000924406 -0.000232128 -0.000262383)
(0.000651571 -1.89782e-05 -0.000150634)
(0.00034897 0.000175109 3.14996e-05)
(2.08235e-05 0.000346441 0.000264433)
(-0.00032171 0.000496132 0.000519773)
(-0.000661369 0.000632061 0.000762996)
(-0.000978745 0.000767472 0.000960436)
(-0.00125739 0.00091463 0.00108768)
(-0.00148703 0.00107594 0.00113377)
(-0.00166284 0.0012372 0.00109942)
(-0.00178431 0.00136843 0.000993807)
(-0.00185567 0.00143634 0.000824224)
(-0.00187326 0.00141486 0.00060026)
(-0.00182902 0.00130559 0.000348032)
(-0.00172491 0.00113123 0.000103001)
(-0.00157255 0.000919085 -0.000100605)
(-0.00138456 0.000690275 -0.000237181)
(-0.00116813 0.00045829 -0.000292501)
(-0.000924406 0.000232128 -0.000262383)
(-0.000651571 1.89782e-05 -0.000150634)
(-0.00034897 -0.000175109 3.14996e-05)
(-2.08235e-05 -0.000346441 0.000264433)
(0.000321709 -0.000496132 0.000519773)
(0.000661369 -0.000632061 0.000762996)
(0.000978745 -0.000767472 0.000960436)
(0.00125739 -0.00091463 0.00108768)
(0.00148703 -0.00107594 0.00113377)
(0.00166284 -0.0012372 0.00109942)
(0.00220516 -0.00204601 0.00142447)
(0.00218174 -0.00215744 0.000856668)
(0.00204404 -0.00216931 0.000185718)
(0.00184251 -0.0020956 -0.000451097)
(0.0016262 -0.00195538 -0.00095959)
(0.00142421 -0.00176738 -0.00130509)
(0.00124394 -0.00154632 -0.00149337)
(0.00107808 -0.00130062 -0.00154373)
(0.000910506 -0.00103294 -0.00147283)
(0.000720091 -0.000743077 -0.00128913)
(0.000484979 -0.000431241 -0.000993765)
(0.000188093 -0.000100531 -0.00058648)
(-0.000176497 0.000241979 -7.69714e-05)
(-0.000597748 0.000586536 0.000500132)
(-0.00104535 0.000924749 0.00107411)
(-0.00147421 0.00125243 0.00154249)
(-0.00183535 0.00156384 0.00179672)
(-0.00208794 0.00183924 0.00176069)
(-0.00220516 0.00204601 0.00142447)
(-0.00218174 0.00215744 0.000856668)
(-0.00204404 0.00216931 0.000185718)
(-0.00184251 0.0020956 -0.000451097)
(-0.0016262 0.00195538 -0.00095959)
(-0.00142421 0.00176738 -0.00130509)
(-0.00124394 0.00154632 -0.00149337)
(-0.00107808 0.00130062 -0.00154373)
(-0.000910506 0.00103294 -0.00147283)
(-0.000720091 0.000743077 -0.00128913)
(-0.000484979 0.000431241 -0.000993765)
(-0.000188093 0.000100531 -0.00058648)
(0.000176497 -0.000241979 -7.69714e-05)
(0.000597748 -0.000586536 0.000500132)
(0.00104535 -0.000924749 0.00107411)
(0.00147421 -0.00125243 0.00154249)
(0.00183535 -0.00156384 0.00179672)
(0.00208794 -0.00183924 0.00176069)
(0.00206899 -0.0017628 0.00127103)
(0.00209437 -0.00184979 0.000901906)
(0.00203158 -0.00184772 0.000450843)
(0.00190363 -0.00176228 -1.41797e-06)
(0.00173733 -0.00161115 -0.000389073)
(0.00155364 -0.00141465 -0.000675125)
(0.00136288 -0.00118907 -0.000847195)
(0.00116492 -0.000944563 -0.000906305)
(0.000951887 -0.00068683 -0.000858073)
(0.000711869 -0.000419744 -0.000708683)
(0.000433263 -0.000147344 -0.000464954)
(0.000109471 0.000125465 -0.00013771)
(-0.000256859 0.000393545 0.000252553)
(-0.000651208 0.000653265 0.00067004)
(-0.00104782 0.000904422 0.00106204)
(-0.00141468 0.00114944 0.00136524)
(-0.00172114 0.00138647 0.00152019)
(-0.00194386 0.00159993 0.00148938)
(-0.00206899 0.0017628 0.00127103)
(-0.00209437 0.00184979 0.000901906)
(-0.00203158 0.00184772 0.000450843)
(-0.00190363 0.00176228 -1.41795e-06)
(-0.00173733 0.00161115 -0.000389073)
(-0.00155364 0.00141465 -0.000675125)
(-0.00136288 0.00118907 -0.000847195)
(-0.00116492 0.000944563 -0.000906305)
(-0.000951887 0.00068683 -0.000858073)
(-0.000711869 0.000419744 -0.000708683)
(-0.000433263 0.000147344 -0.000464954)
(-0.000109471 -0.000125465 -0.00013771)
(0.000256859 -0.000393545 0.000252553)
(0.000651208 -0.000653265 0.00067004)
(0.00104782 -0.000904422 0.00106204)
(0.00141468 -0.00114944 0.00136524)
(0.00172114 -0.00138647 0.00152019)
(0.00194386 -0.00159993 0.00148938)
(0.00193857 -0.00152069 0.00110774)
(0.00199417 -0.00157753 0.000924466)
(0.00198923 -0.00155884 0.000686679)
(0.00192639 -0.00146158 0.000419115)
(0.00181027 -0.00129871 0.000156227)
(0.00164984 -0.00109075 -6.54435e-05)
(0.00145459 -0.000856375 -0.000216565)
(0.00122973 -0.000609068 -0.000279927)
(0.000975444 -0.000358675 -0.000249962)
(0.000689586 -0.000113381 -0.000130643)
(0.00037133 0.000119825 6.53207e-05)
(2.44801e-05 0.000336148 0.000315909)
(-0.000340676 0.000534757 0.000589923)
(-0.000707814 0.000719842 0.000850628)
(-0.00105721 0.000898746 0.00106321)
(-0.0013691 0.00107657 0.00120232)
(-0.00162637 0.00124994 0.00125541)
(-0.00181729 0.00140474 0.00122155)
(-0.00193857 0.00152069 0.00110774)
(-0.00199417 0.00157753 0.000924466)
(-0.00198923 0.00155884 0.000686679)
(-0.00192639 0.00146158 0.000419115)
(-0.00181027 0.00129871 0.000156227)
(-0.00164984 0.00109075 -6.54435e-05)
(-0.00145459 0.000856375 -0.000216565)
(-0.00122973 0.000609068 -0.000279927)
(-0.000975445 0.000358675 -0.000249962)
(-0.000689586 0.000113381 -0.000130643)
(-0.00037133 -0.000119825 6.53207e-05)
(-2.44801e-05 -0.000336148 0.000315909)
(0.000340676 -0.000534757 0.000589923)
(0.000707814 -0.000719842 0.000850628)
(0.00105721 -0.000898746 0.00106321)
(0.0013691 -0.00107657 0.00120232)
(0.00162637 -0.00124994 0.00125541)
(0.00181729 -0.00140474 0.00122155)
(0.00216105 -0.00221364 0.0014329)
(0.00215663 -0.00237378 0.0009133)
(0.00204672 -0.00243109 0.000271663)
(0.0018685 -0.00239145 -0.000369682)
(0.00166463 -0.00227044 -0.000910388)
(0.00146469 -0.00208662 -0.0012989)
(0.00127791 -0.00185656 -0.00152697)
(0.00109803 -0.00159187 -0.00160654)
(0.000910496 -0.00129861 -0.00155155)
(0.000697188 -0.000979062 -0.00137048)
(0.000440504 -0.000634478 -0.00106665)
(0.000128174 -0.000267715 -0.000644248)
(-0.000241118 0.000115215 -0.000119734)
(-0.000653095 0.000505779 0.000464706)
(-0.00107769 0.000895614 0.00103456)
(-0.00147553 0.0012773 0.00149269)
(-0.00180775 0.00163942 0.00174455)
(-0.00204312 0.00196084 0.00172753)
(-0.00216105 0.00221364 0.0014329)
(-0.00215663 0.00237378 0.0009133)
(-0.00204672 0.00243109 0.000271663)
(-0.0018685 0.00239145 -0.000369681)
(-0.00166463 0.00227044 -0.000910388)
(-0.00146469 0.00208662 -0.0012989)
(-0.00127791 0.00185656 -0.00152697)
(-0.00109803 0.00159187 -0.00160654)
(-0.000910496 0.00129861 -0.00155155)
(-0.000697188 0.000979062 -0.00137048)
(-0.000440504 0.000634478 -0.00106665)
(-0.000128174 0.000267715 -0.000644248)
(0.000241118 -0.000115215 -0.000119734)
(0.000653095 -0.000505779 0.000464706)
(0.00107769 -0.000895614 0.00103456)
(0.00147553 -0.0012773 0.00149269)
(0.00180775 -0.00163942 0.00174455)
(0.00204312 -0.00196084 0.00172753)
(0.00204876 -0.00189456 0.00128734)
(0.00207753 -0.00200593 0.000942404)
(0.00202238 -0.00203155 0.000507948)
(0.00190298 -0.00197258 5.6518e-05)
(0.00174328 -0.00184118 -0.000345466)
(0.00156281 -0.00165421 -0.000653558)
(0.0013712 -0.00142731 -0.000847575)
(0.0011682 -0.00117197 -0.000923564)
(0.000946739 -0.000895768 -0.000884956)
(0.000696704 -0.000604086 -0.000737836)
(0.000408898 -0.000301734 -0.000490561)
(7.91062e-05 6.19586e-06 -0.000156831)
(-0.000288232 0.00031437 0.000239177)
(-0.000677822 0.000618139 0.000658433)
(-0.00106456 0.000914555 0.00104757)
(-0.00141868 0.00120113 0.0013468)
(-0.00171274 0.00147114 0.00150324)
(-0.00192658 0.00170943 0.00148433)
(-0.00204876 0.00189456 0.00128734)
(-0.00207753 0.00200593 0.000942404)
(-0.00202238 0.00203155 0.000507948)
(-0.00190298 0.00197258 5.65181e-05)
(-0.00174328 0.00184118 -0.000345466)
(-0.00156281 0.00165421 -0.000653558)
(-0.0013712 0.00142731 -0.000847575)
(-0.0011682 0.00117197 -0.000923564)
(-0.000946739 0.000895768 -0.000884956)
(-0.000696704 0.000604086 -0.000737836)
(-0.000408898 0.000301734 -0.000490561)
(-7.91062e-05 -6.19584e-06 -0.000156831)
(0.000288232 -0.00031437 0.000239177)
(0.000677822 -0.000618139 0.000658433)
(0.00106456 -0.000914555 0.00104757)
(0.00141868 -0.00120113 0.0013468)
(0.00171274 -0.00147114 0.00150324)
(0.00192658 -0.00170943 0.00148433)
(0.00195837 -0.00161665 0.00113186)
(0.00200562 -0.00167244 0.000952451)
(0.00198991 -0.00166127 0.000718923)
(0.00191863 -0.00157993 0.000455457)
(0.00179877 -0.00143523 0.000193942)
(0.00163809 -0.00124105 -3.02424e-05)
(0.00144378 -0.00101237 -0.000186405)
(0.0012197 -0.000761696 -0.000255029)
(0.000965787 -0.000499045 -0.000228977)
(0.000680205 -0.000233041 -0.000111946)
(0.000362482 2.88191e-05 8.25309e-05)
(1.62964e-05 0.000280806 0.000331144)
(-0.000348886 0.000519975 0.000601981)
(-0.000717869 0.000746443 0.000859093)
(-0.00107133 0.000961629 0.00106973)
(-0.00138824 0.00116463 0.00121027)
(-0.00164922 0.00134929 0.00126817)
(-0.00184075 0.00150445 0.00124055)
(-0.00195837 0.00161665 0.00113186)
(-0.00200562 0.00167244 0.000952451)
(-0.00198991 0.00166127 0.000718923)
(-0.00191863 0.00157993 0.000455457)
(-0.00179877 0.00143523 0.000193942)
(-0.00163809 0.00124105 -3.02423e-05)
(-0.00144378 0.00101237 -0.000186405)
(-0.0012197 0.000761696 -0.000255029)
(-0.000965787 0.000499045 -0.000228977)
(-0.000680205 0.000233041 -0.000111946)
(-0.000362482 -2.88191e-05 8.25309e-05)
(-1.62964e-05 -0.000280806 0.000331144)
(0.000348886 -0.000519975 0.000601981)
(0.000717869 -0.000746443 0.000859093)
(0.00107133 -0.000961629 0.00106973)
(0.00138824 -0.00116463 0.00121027)
(0.00164922 -0.00134929 0.00126817)
(0.00184075 -0.00150445 0.00124055)
(0.00201502 -0.00229134 0.00131549)
(0.0020217 -0.00249806 0.000865571)
(0.00193866 -0.00260383 0.000294011)
(0.00179118 -0.00260742 -0.000299653)