/*--------------------------------*- C++ -*----------------------------------*\
| =========                 |                                                 |
| \\      /  F ield         | OpenFOAM: The Open Source CFD Toolbox           |
|  \\    /   O peration     | Version:  2312                                  |
|   \\  /    A nd           | Website:  www.openfoam.com                      |
|    \\/     M anipulation  |                                                 |
\*---------------------------------------------------------------------------*/
FoamFile
{
    version     2.0;
    format      ascii;
    arch        "LSB;label=32;scalar=64";
    class       volVectorField;
    location    "0.4";
    object      D_0;
}
// * * * * * * * * * * * * * * * * * * * * * * * * * * * * * * * * * * * * * //

dimensions      [0 1 0 0 0 0 0];

internalField   nonuniform List<vector> 
1620
(
(-0.00020625 0.000270691 -7.92681e-05)
(-0.000250122 0.000230763 -7.92682e-05)
(-0.000286394 0.000183824 -7.92682e-05)
(-0.000313964 0.0001313 -7.9268e-05)
(-0.000331994 7.47865e-05 -7.92681e-05)
(-0.000339937 1.6e-05 -7.92682e-05)
(-0.00033755 -4.32725e-05 -7.92679e-05)
(-0.000324908 -0.00010123 -7.92678e-05)
(-0.000302393 -0.000156112 -7.9268e-05)
(-0.000270691 -0.00020625 -7.92681e-05)
(-0.000230763 -0.000250122 -7.92682e-05)
(-0.000183824 -0.000286394 -7.92682e-05)
(-0.0001313 -0.000313964 -7.9268e-05)
(-7.47865e-05 -0.000331994 -7.92681e-05)
(-1.6e-05 -0.000339937 -7.92682e-05)
(4.32725e-05 -0.00033755 -7.92679e-05)
(0.00010123 -0.000324908 -7.92678e-05)
(0.000156112 -0.000302393 -7.9268e-05)
(0.00020625 -0.000270691 -7.92681e-05)
(0.000250122 -0.000230763 -7.92682e-05)
(0.000286394 -0.000183824 -7.92682e-05)
(0.000313964 -0.0001313 -7.9268e-05)
(0.000331994 -7.47865e-05 -7.92681e-05)
(0.000339937 -1.6e-05 -7.92682e-05)
(0.00033755 4.32725e-05 -7.92679e-05)
(0.000324908 0.00010123 -7.92678e-05)
(0.000302393 0.000156112 -7.9268e-05)
(0.000270691 0.00020625 -7.92681e-05)
(0.000230763 0.000250122 -7.92682e-05)
(0.000183824 0.000286394 -7.92681e-05)
(0.0001313 0.000313964 -7.9268e-05)
(7.47865e-05 0.000331994 -7.92681e-05)
(1.6e-05 0.000339937 -7.92682e-05)
(-4.32725e-05 0.00033755 -7.92679e-05)
(-0.00010123 0.000324908 -7.92678e-05)
(-0.000156112 0.000302393 -7.9268e-05)
(-0.000152701 0.000303202 -5.4084e-05)
(-0.000203032 0.000272079 -5.4084e-05)
(-0.000247193 0.000232689 -5.4084e-05)
(-0.000283844 0.00018623 -5.40839e-05)
(-0.000311871 0.000134112 -5.4084e-05)
(-0.000330421 7.79184e-05 -5.4084e-05)
(-0.000338931 1.93578e-05 -5.40839e-05)
(-0.000337144 -3.97911e-05 -5.40839e-05)
(-0.000325112 -9.77311e-05 -5.4084e-05)
(-0.000303202 -0.000152701 -5.4084e-05)
(-0.000272079 -0.000203032 -5.4084e-05)
(-0.000232689 -0.000247193 -5.4084e-05)
(-0.00018623 -0.000283844 -5.40839e-05)
(-0.000134112 -0.000311871 -5.4084e-05)
(-7.79184e-05 -0.000330421 -5.4084e-05)
(-1.93577e-05 -0.000338931 -5.40839e-05)
(3.97911e-05 -0.000337144 -5.40839e-05)
(9.77311e-05 -0.000325112 -5.4084e-05)
(0.000152701 -0.000303202 -5.4084e-05)
(0.000203032 -0.000272079 -5.4084e-05)
(0.000247193 -0.000232689 -5.4084e-05)
(0.000283844 -0.00018623 -5.40839e-05)
(0.000311871 -0.000134112 -5.4084e-05)
(0.000330421 -7.79184e-05 -5.4084e-05)
(0.000338931 -1.93577e-05 -5.40839e-05)
(0.000337144 3.97911e-05 -5.40839e-05)
(0.000325112 9.77311e-05 -5.4084e-05)
(0.000303202 0.000152701 -5.4084e-05)
(0.000272079 0.000203032 -5.4084e-05)
(0.000232689 0.000247193 -5.4084e-05)
(0.00018623 0.000283844 -5.40839e-05)
(0.000134112 0.000311871 -5.4084e-05)
(7.79184e-05 0.000330421 -5.4084e-05)
(1.93578e-05 0.000338931 -5.40839e-05)
(-3.97911e-05 0.000337144 -5.40839e-05)
(-9.77311e-05 0.000325112 -5.4084e-05)
(-0.000117936 0.000333832 -2.91073e-05)
(-0.000174113 0.000308282 -2.91073e-05)
(-0.000225001 0.000273364 -2.91074e-05)
(-0.000269051 0.00023014 -2.91073e-05)
(-0.000304928 0.000179923 -2.91074e-05)
(-0.000331538 0.00012424 -2.91073e-05)
(-0.000348076 6.4781e-05 -2.91074e-05)
(-0.000354037 3.35414e-06 -2.91074e-05)
(-0.00034924 -5.81746e-05 -2.91073e-05)
(-0.000333832 -0.000117936 -2.91073e-05)
(-0.000308282 -0.000174113 -2.91073e-05)
(-0.000273364 -0.000225001 -2.91074e-05)
(-0.00023014 -0.000269051 -2.91073e-05)
(-0.000179923 -0.000304928 -2.91074e-05)
(-0.00012424 -0.000331538 -2.91073e-05)
(-6.4781e-05 -0.000348076 -2.91074e-05)
(-3.35413e-06 -0.000354037 -2.91075e-05)
(5.81746e-05 -0.00034924 -2.91073e-05)
(0.000117936 -0.000333832 -2.91073e-05)
(0.000174113 -0.000308282 -2.91073e-05)
(0.000225001 -0.000273364 -2.91074e-05)
(0.000269051 -0.00023014 -2.91073e-05)
(0.000304928 -0.000179923 -2.91074e-05)
(0.000331538 -0.00012424 -2.91073e-05)
(0.000348076 -6.4781e-05 -2.91074e-05)
(0.000354037 -3.35413e-06 -2.91074e-05)
(0.00034924 5.81746e-05 -2.91073e-05)
(0.000333832 0.000117936 -2.91073e-05)
(0.000308282 0.000174113 -2.91073e-05)
(0.000273364 0.000225001 -2.91074e-05)
(0.00023014 0.000269051 -2.91073e-05)
(0.000179923 0.000304928 -2.91074e-05)
(0.00012424 0.000331538 -2.91073e-05)
(6.4781e-05 0.000348076 -2.91074e-05)
(3.35413e-06 0.000354037 -2.91074e-05)
(-5.81746e-05 0.00034924 -2.91073e-05)
(-0.000503423 0.000821792 -0.000270697)
(-0.000638478 0.000721888 -0.000270698)
(-0.000754133 0.000600051 -0.000270698)
(-0.000846873 0.000459981 -0.000270697)
(-0.000913882 0.000305935 -0.000270697)
(-0.000953123 0.000142594 -0.000270697)
(-0.000963405 -2.5081e-05 -0.000270697)
(-0.000944413 -0.000191993 -0.000270697)
(-0.000896725 -0.000353072 -0.000270697)
(-0.000821792 -0.000503423 -0.000270697)
(-0.000721888 -0.000638478 -0.000270698)
(-0.000600051 -0.000754133 -0.000270698)
(-0.000459981 -0.000846873 -0.000270697)
(-0.000305935 -0.000913882 -0.000270697)
(-0.000142594 -0.000953123 -0.000270697)
(2.50811e-05 -0.000963405 -0.000270697)
(0.000191993 -0.000944413 -0.000270697)
(0.000353072 -0.000896725 -0.000270697)
(0.000503423 -0.000821792 -0.000270697)
(0.000638478 -0.000721888 -0.000270698)
(0.000754133 -0.000600051 -0.000270698)
(0.000846873 -0.000459981 -0.000270697)
(0.000913882 -0.000305935 -0.000270697)
(0.000953123 -0.000142594 -0.000270697)
(0.000963405 2.50811e-05 -0.000270697)
(0.000944413 0.000191993 -0.000270697)
(0.000896725 0.000353072 -0.000270697)
(0.000821792 0.000503423 -0.000270697)
(0.000721888 0.000638478 -0.000270698)
(0.000600051 0.000754133 -0.000270698)
(0.000459981 0.000846873 -0.000270697)
(0.000305935 0.000913882 -0.000270697)
(0.000142594 0.000953123 -0.000270697)
(-2.5081e-05 0.000963405 -0.000270697)
(-0.000191993 0.000944413 -0.000270697)
(-0.000353072 0.000896725 -0.000270697)
(-0.000459047 0.0009018 -0.000201421)
(-0.000608669 0.000808387 -0.000201422)
(-0.000739797 0.000690412 -0.000201422)
(-0.000848447 0.000551459 -0.000201422)
(-0.000931317 0.00039575 -0.000201421)
(-0.00098589 0.000228016 -0.000201421)
(-0.00101051 5.33537e-05 -0.000201421)
(-0.00100442 -0.00012293 -0.000201421)
(-0.000967813 -0.000295477 -0.000201421)
(-0.0009018 -0.000459047 -0.000201421)
(-0.000808387 -0.000608669 -0.000201422)
(-0.000690412 -0.000739797 -0.000201422)
(-0.000551459 -0.000848447 -0.000201422)
(-0.00039575 -0.000931317 -0.000201421)
(-0.000228015 -0.00098589 -0.000201421)
(-5.33536e-05 -0.00101051 -0.000201421)
(0.00012293 -0.00100442 -0.000201421)
(0.000295478 -0.000967813 -0.000201421)
(0.000459047 -0.0009018 -0.000201421)
(0.000608669 -0.000808387 -0.000201422)
(0.000739797 -0.000690412 -0.000201422)
(0.000848447 -0.000551459 -0.000201422)
(0.000931317 -0.00039575 -0.000201421)
(0.00098589 -0.000228015 -0.000201421)
(0.00101051 -5.33536e-05 -0.000201421)
(0.00100442 0.00012293 -0.000201421)
(0.000967813 0.000295478 -0.000201421)
(0.0009018 0.000459047 -0.000201421)
(0.000808387 0.000608669 -0.000201422)
(0.000690412 0.000739797 -0.000201422)
(0.000551459 0.000848447 -0.000201422)
(0.00039575 0.000931317 -0.000201421)
(0.000228016 0.00098589 -0.000201421)
(5.33537e-05 0.00101051 -0.000201421)
(-0.00012293 0.00100442 -0.000201421)
(-0.000295477 0.000967813 -0.000201421)
(-0.00043838 0.000977654 -0.00013362)
(-0.000601488 0.000886677 -0.000133619)
(-0.000746319 0.000768759 -0.000133619)
(-0.000868474 0.000627483 -0.000133619)
(-0.000964241 0.000467141 -0.00013362)
(-0.00103071 0.000292605 -0.000133619)
(-0.00106586 0.000109179 -0.00013362)
(-0.00106863 -7.7565e-05 -0.00013362)
(-0.00103893 -0.000261952 -0.00013362)
(-0.000977654 -0.00043838 -0.00013362)
(-0.000886677 -0.000601488 -0.000133619)
(-0.000768759 -0.000746319 -0.000133619)
(-0.000627483 -0.000868474 -0.00013362)
(-0.000467141 -0.000964241 -0.00013362)
(-0.000292605 -0.00103071 -0.000133619)
(-0.000109179 -0.00106586 -0.00013362)
(7.7565e-05 -0.00106863 -0.00013362)
(0.000261952 -0.00103893 -0.00013362)
(0.00043838 -0.000977654 -0.00013362)
(0.000601488 -0.000886677 -0.000133619)
(0.000746319 -0.000768759 -0.00013362)
(0.000868474 -0.000627483 -0.00013362)
(0.000964241 -0.000467141 -0.00013362)
(0.00103071 -0.000292605 -0.000133619)
(0.00106586 -0.000109178 -0.00013362)
(0.00106863 7.7565e-05 -0.00013362)
(0.00103893 0.000261952 -0.00013362)
(0.000977654 0.00043838 -0.00013362)
(0.000886677 0.000601488 -0.000133619)
(0.000768759 0.000746319 -0.000133619)
(0.000627483 0.000868474 -0.000133619)
(0.000467141 0.000964241 -0.000133619)
(0.000292605 0.00103071 -0.000133619)
(0.000109179 0.00106586 -0.00013362)
(-7.7565e-05 0.00106863 -0.00013362)
(-0.000261952 0.00103893 -0.00013362)
(-0.000793239 0.00137534 -0.000523357)
(-0.00102001 0.0012167 -0.000523357)
(-0.00121579 0.00102109 -0.000523357)
(-0.00137464 0.00079446 -0.000523357)
(-0.00149171 0.000543688 -0.000523356)
(-0.00156346 0.000276396 -0.000523356)
(-0.0015877 7.05542e-07 -0.000523356)
(-0.0015637 -0.000275006 -0.000523356)
(-0.00149219 -0.000542363 -0.000523357)
(-0.00137534 -0.000793239 -0.000523357)
(-0.0012167 -0.00102001 -0.000523357)
(-0.00102109 -0.00121579 -0.000523357)
(-0.00079446 -0.00137464 -0.000523357)
(-0.000543688 -0.00149171 -0.000523356)
(-0.000276396 -0.00156346 -0.000523356)
(-7.05465e-07 -0.0015877 -0.000523356)
(0.000275006 -0.0015637 -0.000523356)
(0.000542363 -0.00149219 -0.000523357)
(0.000793239 -0.00137534 -0.000523357)
(0.00102001 -0.0012167 -0.000523357)
(0.00121579 -0.00102109 -0.000523357)
(0.00137464 -0.00079446 -0.000523357)
(0.00149171 -0.000543688 -0.000523356)
(0.00156346 -0.000276396 -0.000523356)
(0.0015877 -7.05476e-07 -0.000523356)
(0.0015637 0.000275006 -0.000523356)
(0.00149219 0.000542363 -0.000523357)
(0.00137534 0.000793239 -0.000523357)
(0.0012167 0.00102001 -0.000523357)
(0.00102109 0.00121579 -0.000523357)
(0.00079446 0.00137464 -0.000523357)
(0.000543688 0.00149171 -0.000523356)
(0.000276396 0.00156346 -0.000523356)
(7.05559e-07 0.0015877 -0.000523356)
(-0.000275006 0.0015637 -0.000523356)
(-0.000542363 0.00149219 -0.000523357)
(-0.000759621 0.00148904 -0.000417732)
(-0.00100665 0.00133452 -0.000417732)
(-0.00122309 0.00113944 -0.000417732)
(-0.00140237 0.00090974 -0.000417732)
(-0.00153904 0.000652399 -0.000417731)
(-0.00162895 0.000375236 -0.000417732)
(-0.00166936 8.66711e-05 -0.000417732)
(-0.00165905 -0.000204528 -0.000417732)
(-0.00159833 -0.000489511 -0.000417732)
(-0.00148904 -0.000759621 -0.000417732)
(-0.00133452 -0.00100665 -0.000417732)
(-0.00113944 -0.00122309 -0.000417732)
(-0.00090974 -0.00140237 -0.000417732)
(-0.000652399 -0.00153904 -0.000417731)
(-0.000375236 -0.00162895 -0.000417732)
(-8.6671e-05 -0.00166936 -0.000417732)
(0.000204528 -0.00165905 -0.000417732)
(0.000489511 -0.00159833 -0.000417732)
(0.000759621 -0.00148904 -0.000417732)
(0.00100665 -0.00133452 -0.000417732)
(0.00122309 -0.00113944 -0.000417732)
(0.00140237 -0.00090974 -0.000417732)
(0.00153904 -0.000652399 -0.000417731)
(0.00162895 -0.000375236 -0.000417732)
(0.00166936 -8.6671e-05 -0.000417732)
(0.00165905 0.000204528 -0.000417732)
(0.00159833 0.000489511 -0.000417732)
(0.00148904 0.000759621 -0.000417732)
(0.00133452 0.00100665 -0.000417732)
(0.00113944 0.00122309 -0.000417732)
(0.00090974 0.00140237 -0.000417732)
(0.000652399 0.00153904 -0.000417731)
(0.000375236 0.00162895 -0.000417732)
(8.66711e-05 0.00166936 -0.000417732)
(-0.000204528 0.00165905 -0.000417732)
(-0.000489511 0.00159833 -0.000417732)
(-0.000752294 0.00159335 -0.000315041)
(-0.00101755 0.00143851 -0.000315041)
(-0.00125188 0.00123996 -0.000315041)
(-0.00144818 0.00100374 -0.000315041)
(-0.00160048 0.000737013 -0.000315042)
(-0.00170414 0.000447896 -0.000315042)
(-0.00175603 0.00014517 -0.000315041)
(-0.00175456 -0.000161966 -0.000315041)
(-0.00169978 -0.000464182 -0.000315041)
(-0.00159335 -0.000752294 -0.000315041)
(-0.00143851 -0.00101755 -0.000315041)
(-0.00123996 -0.00125188 -0.000315041)
(-0.00100374 -0.00144818 -0.000315041)
(-0.000737013 -0.00160048 -0.000315042)
(-0.000447896 -0.00170414 -0.000315042)
(-0.00014517 -0.00175603 -0.000315041)
(0.000161966 -0.00175456 -0.000315041)
(0.000464182 -0.00169978 -0.000315041)
(0.000752294 -0.00159335 -0.000315041)
(0.00101755 -0.00143851 -0.000315041)
(0.00125188 -0.00123996 -0.000315041)
(0.00144818 -0.00100374 -0.000315041)
(0.00160048 -0.000737013 -0.000315042)
(0.00170414 -0.000447896 -0.000315042)
(0.00175603 -0.00014517 -0.000315041)
(0.00175456 0.000161966 -0.000315041)
(0.00169978 0.000464182 -0.000315041)
(0.00159335 0.000752294 -0.000315041)
(0.00143851 0.00101755 -0.000315041)
(0.00123996 0.00125188 -0.000315041)
(0.00100374 0.00144818 -0.000315041)
(0.000737013 0.00160048 -0.000315042)
(0.000447896 0.00170414 -0.000315041)
(0.00014517 0.00175603 -0.000315041)
(-0.000161966 0.00175456 -0.000315041)
(-0.000464182 0.00169978 -0.000315041)
(-0.00107188 0.00192838 -0.000823805)
(-0.00139046 0.00171295 -0.000823806)
(-0.00166678 0.00144548 -0.000823805)
(-0.00189247 0.00113408 -0.000823805)
(-0.00206065 0.000788232 -0.000823805)
(-0.00216622 0.000418429 -0.000823804)
(-0.00220597 3.59125e-05 -0.000823804)
(-0.00217869 -0.000347696 -0.000823804)
(-0.00208521 -0.000720739 -0.000823805)
(-0.00192838 -0.00107188 -0.000823805)
(-0.00171295 -0.00139046 -0.000823806)
(-0.00144548 -0.00166678 -0.000823805)
(-0.00113408 -0.00189247 -0.000823805)
(-0.000788232 -0.00206065 -0.000823805)
(-0.000418429 -0.00216622 -0.000823805)
(-3.59124e-05 -0.00220597 -0.000823804)
(0.000347696 -0.00217869 -0.000823804)
(0.000720739 -0.00208521 -0.000823805)
(0.00107188 -0.00192838 -0.000823805)
(0.00139046 -0.00171295 -0.000823806)
(0.00166678 -0.00144548 -0.000823805)
(0.00189247 -0.00113408 -0.000823805)
(0.00206065 -0.000788232 -0.000823805)
(0.00216622 -0.000418429 -0.000823804)
(0.00220597 -3.59124e-05 -0.000823804)
(0.00217869 0.000347696 -0.000823804)
(0.00208521 0.000720739 -0.000823805)
(0.00192838 0.00107188 -0.000823805)
(0.00171295 0.00139046 -0.000823806)
(0.00144548 0.00166678 -0.000823805)
(0.00113408 0.00189247 -0.000823805)
(0.000788232 0.00206065 -0.000823805)
(0.000418429 0.00216622 -0.000823804)
(3.59125e-05 0.00220597 -0.000823804)
(-0.000347696 0.00217869 -0.000823804)
(-0.000720739 0.00208521 -0.000823805)
(-0.00105166 0.00205212 -0.000689179)
(-0.00139203 0.00183832 -0.000689179)
(-0.00169011 0.00156867 -0.000689179)
(-0.00193683 0.00125135 -0.000689179)
(-0.0021247 0.000896018 -0.000689179)
(-0.00224801 0.000513456 -0.000689179)
(-0.00230302 0.000115292 -0.000689179)
(-0.00228805 -0.000286375 -0.000689179)
(-0.00220356 -0.00067934 -0.000689179)
(-0.00205212 -0.00105166 -0.000689179)
(-0.00183832 -0.00139203 -0.000689179)
(-0.00156867 -0.00169011 -0.000689179)
(-0.00125135 -0.00193683 -0.000689179)
(-0.000896018 -0.0021247 -0.000689179)
(-0.000513456 -0.00224801 -0.000689179)
(-0.000115292 -0.00230302 -0.000689179)
(0.000286375 -0.00228805 -0.000689179)
(0.00067934 -0.00220356 -0.000689179)
(0.00105166 -0.00205212 -0.000689179)
(0.00139203 -0.00183832 -0.000689179)
(0.00169011 -0.00156867 -0.000689179)
(0.00193683 -0.00125135 -0.000689179)
(0.0021247 -0.000896018 -0.000689179)
(0.00224801 -0.000513456 -0.000689179)
(0.00230302 -0.000115292 -0.000689179)
(0.00228805 0.000286375 -0.000689179)
(0.00220356 0.00067934 -0.000689179)
(0.00205212 0.00105166 -0.000689179)
(0.00183832 0.00139203 -0.000689179)
(0.00156867 0.00169011 -0.000689179)
(0.00125135 0.00193683 -0.000689179)
(0.000896018 0.0021247 -0.000689179)
(0.000513456 0.00224801 -0.000689179)
(0.000115292 0.00230302 -0.000689179)
(-0.000286375 0.00228805 -0.000689179)
(-0.00067934 0.00220356 -0.000689179)
(-0.0010598 0.00216011 -0.000559296)
(-0.0014188 0.00194326 -0.000559296)
(-0.00173468 0.00166737 -0.000559296)
(-0.00199787 0.00134081 -0.000559296)
(-0.00220034 0.000973519 -0.000559296)
(-0.00233597 0.000576644 -0.000559296)
(-0.00240061 0.000162246 -0.000559296)
(-0.00239231 -0.00025708 -0.000559296)
(-0.00231133 -0.000668596 -0.000559296)
(-0.00216011 -0.0010598 -0.000559296)
(-0.00194326 -0.0014188 -0.000559296)
(-0.00166737 -0.00173468 -0.000559296)
(-0.00134081 -0.00199787 -0.000559296)
(-0.000973519 -0.00220034 -0.000559296)
(-0.000576644 -0.00233597 -0.000559296)
(-0.000162246 -0.00240061 -0.000559296)
(0.00025708 -0.00239231 -0.000559297)
(0.000668596 -0.00231133 -0.000559296)
(0.0010598 -0.00216011 -0.000559296)
(0.0014188 -0.00194326 -0.000559296)
(0.00173468 -0.00166737 -0.000559296)
(0.00199787 -0.00134081 -0.000559296)
(0.00220034 -0.000973519 -0.000559296)
(0.00233597 -0.000576644 -0.000559296)
(0.00240061 -0.000162246 -0.000559296)
(0.00239231 0.00025708 -0.000559296)
(0.00231133 0.000668596 -0.000559296)
(0.00216011 0.0010598 -0.000559296)
(0.00194326 0.0014188 -0.000559296)
(0.00166737 0.00173468 -0.000559296)
(0.00134081 0.00199787 -0.000559296)
(0.000973519 0.00220034 -0.000559296)
(0.000576644 0.00233597 -0.000559296)
(0.000162246 0.00240061 -0.000559296)
(-0.00025708 0.00239231 -0.000559296)
(-0.000668596 0.00231133 -0.000559296)
(-0.00134588 0.00247098 -0.00116145)
(-0.00175452 0.00219973 -0.00116145)
(-0.00210984 0.00186164 -0.00116145)
(-0.00240106 0.00146699 -0.00116145)
(-0.00261932 0.00102776 -0.00116145)
(-0.002758 0.00055731 -0.00116145)
(-0.00281287 6.99229e-05 -0.00116145)
(-0.00278228 -0.00041959 -0.00116145)
(-0.00266715 -0.000896353 -0.00116145)
(-0.00247098 -0.00134588 -0.00116145)
(-0.00219973 -0.00175452 -0.00116145)
(-0.00186164 -0.00210984 -0.00116145)
(-0.00146699 -0.00240106 -0.00116145)
(-0.00102776 -0.00261932 -0.00116145)
(-0.00055731 -0.002758 -0.00116145)
(-6.99227e-05 -0.00281287 -0.00116145)
(0.00041959 -0.00278228 -0.00116145)
(0.000896353 -0.00266715 -0.00116145)
(0.00134588 -0.00247098 -0.00116145)
(0.00175452 -0.00219973 -0.00116145)
(0.00210984 -0.00186164 -0.00116145)
(0.00240106 -0.00146699 -0.00116145)
(0.00261932 -0.00102776 -0.00116145)
(0.002758 -0.00055731 -0.00116145)
(0.00281287 -6.99227e-05 -0.00116145)
(0.00278228 0.00041959 -0.00116145)
(0.00266715 0.000896353 -0.00116145)
(0.00247098 0.00134588 -0.00116145)
(0.00219973 0.00175452 -0.00116145)
(0.00186164 0.00210984 -0.00116145)
(0.00146699 0.00240106 -0.00116145)
(0.00102776 0.00261932 -0.00116145)
(0.00055731 0.002758 -0.00116145)
(6.99229e-05 0.00281287 -0.00116145)
(-0.00041959 0.00278228 -0.00116145)
(-0.000896353 0.00266715 -0.00116145)
(-0.0013372 0.00257823 -0.00100503)
(-0.00176459 0.00230686 -0.00100503)
(-0.00213836 0.0019654 -0.00100503)
(-0.00244716 0.00156422 -0.00100503)
(-0.00268161 0.00111551 -0.00100503)
(-0.00283457 0.000632905 -0.00100503)
(-0.00290141 0.00013107 -0.00100503)
(-0.00288009 -0.000374746 -0.00100503)
(-0.00277126 -0.000869176 -0.00100503)
(-0.00257823 -0.0013372 -0.00100503)
(-0.00230686 -0.00176459 -0.00100503)
(-0.0019654 -0.00213836 -0.00100503)
(-0.00156422 -0.00244716 -0.00100503)
(-0.00111551 -0.00268161 -0.00100503)
(-0.000632904 -0.00283457 -0.00100503)
(-0.00013107 -0.00290141 -0.00100503)
(0.000374746 -0.00288009 -0.00100503)
(0.000869176 -0.00277126 -0.00100503)
(0.0013372 -0.00257823 -0.00100503)
(0.00176459 -0.00230686 -0.00100503)
(0.00213836 -0.0019654 -0.00100503)
(0.00244716 -0.00156422 -0.00100503)
(0.00268161 -0.00111551 -0.00100503)
(0.00283457 -0.000632904 -0.00100503)
(0.00290141 -0.00013107 -0.00100503)
(0.00288009 0.000374746 -0.00100503)
(0.00277126 0.000869176 -0.00100503)
(0.00257823 0.0013372 -0.00100503)
(0.00230686 0.00176459 -0.00100503)
(0.0019654 0.00213836 -0.00100503)
(0.00156422 0.00244716 -0.00100503)
(0.00111551 0.00268161 -0.00100503)
(0.000632905 0.00283457 -0.00100503)
(0.00013107 0.00290141 -0.00100503)
(-0.000374746 0.00288009 -0.00100503)
(-0.000869176 0.00277126 -0.00100503)
(-0.00135757 0.00266395 -0.000854998)
(-0.00179954 0.00238774 -0.000854998)
(-0.00218683 0.00203898 -0.000854998)
(-0.00250767 0.00162827 -0.000854998)
(-0.00275232 0.00116808 -0.000854998)
(-0.00291334 0.000672397 -0.000854998)
(-0.00298584 0.000156286 -0.000854998)
(-0.00296761 -0.000364574 -0.000854998)
(-0.00285922 -0.000874357 -0.000854998)
(-0.00266395 -0.00135757 -0.000854998)
(-0.00238774 -0.00179954 -0.000854998)
(-0.00203898 -0.00218683 -0.000854998)
(-0.00162827 -0.00250767 -0.000854998)
(-0.00116808 -0.00275232 -0.000854998)
(-0.000672397 -0.00291334 -0.000854998)
(-0.000156285 -0.00298584 -0.000854998)
(0.000364575 -0.00296761 -0.000854998)
(0.000874357 -0.00285922 -0.000854998)
(0.00135757 -0.00266395 -0.000854998)
(0.00179954 -0.00238774 -0.000854998)
(0.00218683 -0.00203898 -0.000854998)
(0.00250767 -0.00162827 -0.000854998)
(0.00275232 -0.00116808 -0.000854998)
(0.00291334 -0.000672397 -0.000854998)
(0.00298584 -0.000156286 -0.000854998)
(0.00296761 0.000364574 -0.000854998)
(0.00285922 0.000874357 -0.000854998)
(0.00266395 0.00135757 -0.000854998)
(0.00238774 0.00179954 -0.000854998)
(0.00203898 0.00218683 -0.000854998)
(0.00162827 0.00250767 -0.000854998)
(0.00116808 0.00275232 -0.000854998)
(0.000672397 0.00291334 -0.000854998)
(0.000156286 0.00298584 -0.000854998)
(-0.000364574 0.00296761 -0.000854998)
(-0.000874357 0.00285922 -0.000854998)
(-0.00162166 0.00298662 -0.00152729)
(-0.00211565 0.00265964 -0.0015273)
(-0.00254535 0.00225186 -0.0015273)
(-0.00289771 0.00177565 -0.00152729)
(-0.00316203 0.0012455 -0.00152729)
(-0.00333027 0.000677494 -0.00152729)
(-0.00339732 8.89069e-05 -0.00152729)
(-0.00336114 -0.000502382 -0.00152729)
(-0.00322284 -0.00107841 -0.00152729)
(-0.00298662 -0.00162166 -0.00152729)
(-0.00265964 -0.00211565 -0.0015273)
(-0.00225186 -0.00254535 -0.0015273)
(-0.00177565 -0.00289771 -0.00152729)
(-0.0012455 -0.00316203 -0.00152729)
(-0.000677494 -0.00333027 -0.00152729)
(-8.89068e-05 -0.00339732 -0.00152729)
(0.000502382 -0.00336114 -0.00152729)
(0.00107841 -0.00322284 -0.00152729)
(0.00162166 -0.00298662 -0.00152729)
(0.00211565 -0.00265964 -0.0015273)
(0.00254535 -0.00225186 -0.0015273)
(0.00289771 -0.00177565 -0.00152729)
(0.00316203 -0.0012455 -0.00152729)
(0.00333027 -0.000677494 -0.00152729)
(0.00339732 -8.89068e-05 -0.00152729)
(0.00336114 0.000502382 -0.00152729)
(0.00322284 0.00107841 -0.00152729)
(0.00298662 0.00162166 -0.00152729)
(0.00265964 0.00211565 -0.0015273)
(0.00225186 0.00254535 -0.0015273)
(0.00177565 0.00289771 -0.00152729)
(0.0012455 0.00316203 -0.00152729)
(0.000677494 0.00333027 -0.00152729)
(8.8907e-05 0.00339732 -0.00152729)
(-0.000502382 0.00336114 -0.00152729)
(-0.00107841 0.00322284 -0.00152729)
(-0.00161846 0.00305337 -0.00135405)
(-0.00212408 0.00272594 -0.00135405)
(-0.00256517 0.00231568 -0.00135405)
(-0.00292831 0.00183506 -0.00135405)
(-0.00320248 0.00129869 -0.00135405)
(-0.00337934 0.000722856 -0.00135405)
(-0.00345352 0.000125058 -0.00135405)
(-0.00342277 -0.000476539 -0.00135405)
(-0.00328802 -0.00106366 -0.00135405)
(-0.00305337 -0.00161846 -0.00135405)
(-0.00272594 -0.00212408 -0.00135405)
(-0.00231568 -0.00256517 -0.00135405)
(-0.00183506 -0.00292831 -0.00135405)
(-0.00129869 -0.00320248 -0.00135405)
(-0.000722856 -0.00337934 -0.00135405)
(-0.000125058 -0.00345352 -0.00135405)
(0.00047654 -0.00342277 -0.00135405)
(0.00106366 -0.00328802 -0.00135405)
(0.00161846 -0.00305337 -0.00135405)
(0.00212408 -0.00272594 -0.00135405)
(0.00256517 -0.00231568 -0.00135405)
(0.00292831 -0.00183506 -0.00135405)
(0.00320248 -0.00129869 -0.00135405)
(0.00337934 -0.000722856 -0.00135405)
(0.00345352 -0.000125058 -0.00135405)
(0.00342277 0.00047654 -0.00135405)
(0.00328802 0.00106366 -0.00135405)
(0.00305337 0.00161846 -0.00135405)
(0.00272594 0.00212408 -0.00135405)
(0.00231568 0.00256517 -0.00135405)
(0.00183506 0.00292831 -0.00135405)
(0.00129869 0.00320248 -0.00135405)
(0.000722856 0.00337934 -0.00135405)
(0.000125059 0.00345352 -0.00135405)
(-0.000476539 0.00342277 -0.00135405)
(-0.00106366 0.00328802 -0.00135405)
(-0.0016433 0.0030944 -0.0011886)
(-0.00215567 0.00276203 -0.0011886)
(-0.00260255 0.00234574 -0.0011886)
(-0.00297034 0.00185818 -0.0011886)
(-0.00324789 0.00131415 -0.0011886)
(-0.00342674 0.000730201 -0.0011886)
(-0.00350148 0.000124061 -0.0011886)
(-0.00346983 -0.000485851 -0.0011886)
(-0.00333275 -0.001081 -0.0011886)
(-0.0030944 -0.0016433 -0.0011886)
(-0.00276203 -0.00215567 -0.0011886)
(-0.00234574 -0.00260255 -0.0011886)
(-0.00185818 -0.00297034 -0.0011886)
(-0.00131415 -0.00324789 -0.0011886)
(-0.0007302 -0.00342674 -0.0011886)
(-0.00012406 -0.00350148 -0.0011886)
(0.000485851 -0.00346983 -0.0011886)
(0.001081 -0.00333275 -0.0011886)
(0.0016433 -0.0030944 -0.0011886)
(0.00215567 -0.00276203 -0.0011886)
(0.00260255 -0.00234574 -0.0011886)
(0.00297034 -0.00185818 -0.0011886)
(0.00324789 -0.00131415 -0.0011886)
(0.00342674 -0.0007302 -0.0011886)
(0.00350148 -0.000124061 -0.0011886)
(0.00346983 0.000485851 -0.0011886)
(0.00333275 0.001081 -0.0011886)
(0.0030944 0.0016433 -0.0011886)
(0.00276203 0.00215567 -0.0011886)
(0.00234574 0.00260255 -0.0011886)
(0.00185818 0.00297034 -0.0011886)
(0.00131416 0.00324789 -0.0011886)
(0.000730201 0.00342674 -0.0011886)
(0.000124061 0.00350148 -0.0011886)
(-0.000485851 0.00346983 -0.0011886)
(-0.001081 0.00333275 -0.0011886)
(-0.00190076 0.0034529 -0.00191324)
(-0.00247148 0.00307038 -0.00191325)
(-0.0029671 0.00259456 -0.00191325)
(-0.00337256 0.00203992 -0.00191325)
(-0.00367555 0.00142329 -0.00191325)
(-0.00386686 0.00076341 -0.00191325)
(-0.00394068 8.03391e-05 -0.00191325)
(-0.00389476 -0.000605174 -0.00191324)
(-0.00373051 -0.0012723 -0.00191324)
(-0.0034529 -0.00190076 -0.00191324)
(-0.00307038 -0.00247148 -0.00191325)
(-0.00259456 -0.0029671 -0.00191325)
(-0.00203992 -0.00337256 -0.00191325)
(-0.00142329 -0.00367555 -0.00191325)
(-0.00076341 -0.00386686 -0.00191325)
(-8.03388e-05 -0.00394068 -0.00191325)
(0.000605175 -0.00389476 -0.00191325)
(0.0012723 -0.00373051 -0.00191324)
(0.00190077 -0.0034529 -0.00191324)
(0.00247148 -0.00307038 -0.00191325)
(0.0029671 -0.00259456 -0.00191325)
(0.00337256 -0.00203992 -0.00191325)
(0.00367555 -0.00142329 -0.00191325)
(0.00386686 -0.00076341 -0.00191325)
(0.00394068 -8.03389e-05 -0.00191325)
(0.00389476 0.000605175 -0.00191324)
(0.00373051 0.0012723 -0.00191324)
(0.0034529 0.00190076 -0.00191324)
(0.00307038 0.00247148 -0.00191325)
(0.00259456 0.0029671 -0.00191325)
(0.00203992 0.00337256 -0.00191325)
(0.00142329 0.00367555 -0.00191325)
(0.00076341 0.00386686 -0.00191325)
(8.03391e-05 0.00394068 -0.00191325)
(-0.000605174 0.00389476 -0.00191324)
(-0.0012723 0.00373051 -0.00191324)
(-0.00189433 0.0034606 -0.00172542)
(-0.00246648 0.00307908 -0.00172542)
(-0.00296369 0.002604 -0.00172542)
(-0.00337084 0.0020498 -0.00172542)
(-0.00367557 0.00143332 -0.00172542)
(-0.00386863 0.000773288 -0.00172542)
(-0.00394413 8.97588e-05 -0.00172542)
(-0.0038998 -0.000596496 -0.00172542)
(-0.00373697 -0.00126463 -0.00172542)
(-0.0034606 -0.00189433 -0.00172542)
(-0.00307908 -0.00246648 -0.00172542)
(-0.002604 -0.00296369 -0.00172542)
(-0.0020498 -0.00337084 -0.00172542)
(-0.00143332 -0.00367557 -0.00172542)
(-0.000773288 -0.00386863 -0.00172542)
(-8.97586e-05 -0.00394413 -0.00172542)
(0.000596497 -0.0038998 -0.00172542)
(0.00126463 -0.00373697 -0.00172542)
(0.00189433 -0.0034606 -0.00172542)
(0.00246648 -0.00307908 -0.00172542)
(0.00296369 -0.002604 -0.00172542)
(0.00337084 -0.0020498 -0.00172542)
(0.00367557 -0.00143332 -0.00172542)
(0.00386863 -0.000773288 -0.00172542)
(0.00394413 -8.97586e-05 -0.00172542)
(0.0038998 0.000596497 -0.00172542)
(0.00373697 0.00126463 -0.00172542)
(0.0034606 0.00189433 -0.00172542)
(0.00307908 0.00246648 -0.00172542)
(0.002604 0.00296369 -0.00172542)
(0.0020498 0.00337084 -0.00172542)
(0.00143332 0.00367557 -0.00172542)
(0.000773288 0.00386863 -0.00172542)
(8.97588e-05 0.00394413 -0.00172542)
(-0.000596496 0.0038998 -0.00172542)
(-0.00126463 0.00373697 -0.00172542)
(-0.00191313 0.00344102 -0.00154667)
(-0.00248159 0.00305654 -0.00154667)
(-0.00297466 0.00257918 -0.00154667)
(-0.00337733 0.00202345 -0.00154667)
(-0.00367739 0.00140624 -0.00154667)
(-0.00386571 0.000746305 -0.00154667)
(-0.00393658 6.36925e-05 -0.00154667)
(-0.00388783 -0.000620855 -0.00154667)
(-0.00372096 -0.00128654 -0.00154667)
(-0.00344102 -0.00191313 -0.00154667)
(-0.00305654 -0.00248159 -0.00154667)
(-0.00257918 -0.00297466 -0.00154667)
(-0.00202345 -0.00337733 -0.00154667)
(-0.00140624 -0.00367739 -0.00154667)
(-0.000746305 -0.00386571 -0.00154667)
(-6.36923e-05 -0.00393658 -0.00154667)
(0.000620855 -0.00388783 -0.00154667)
(0.00128654 -0.00372096 -0.00154667)
(0.00191313 -0.00344102 -0.00154667)
(0.00248159 -0.00305654 -0.00154667)
(0.00297466 -0.00257918 -0.00154667)
(0.00337733 -0.00202345 -0.00154667)
(0.00367739 -0.00140624 -0.00154667)
(0.00386571 -0.000746305 -0.00154667)
(0.00393658 -6.36924e-05 -0.00154667)
(0.00388783 0.000620855 -0.00154667)
(0.00372096 0.00128654 -0.00154667)
(0.00344102 0.00191313 -0.00154667)
(0.00305654 0.00248159 -0.00154667)
(0.00257918 0.00297466 -0.00154667)
(0.00202345 0.00337733 -0.00154667)
(0.00140624 0.00367739 -0.00154667)
(0.000746305 0.00386571 -0.00154667)
(6.36925e-05 0.00393658 -0.00154667)
(-0.000620855 0.00388783 -0.00154667)
(-0.00128654 0.00372096 -0.00154667)
(-0.00217555 0.00384249 -0.00230935)
(-0.00280974 0.00340634 -0.00230935)
(-0.00335856 0.00286668 -0.00230935)
(-0.00380533 0.00223992 -0.00230935)
(-0.00413648 0.0015451 -0.00230936)
(-0.00434194 0.000803336 -0.00230935)
(-0.00441547 3.7161e-05 -0.00230935)
(-0.00435485 -0.000730143 -0.00230935)