/*--------------------------------*- C++ -*----------------------------------*\
| =========                 |                                                 |
| \\      /  F ield         | OpenFOAM: The Open Source CFD Toolbox           |
|  \\    /   O peration     | Version:  2312                                  |
|   \\  /    A nd           | Website:  www.openfoam.com                      |
|    \\/     M anipulation  |                                                 |
\*---------------------------------------------------------------------------*/
FoamFile
{
    version     2.0;
    format      ascii;
    arch        "LSB;label=32;scalar=64";
    class       volVectorField;
    location    "0.4";
    object      D_0_0;
}
// * * * * * * * * * * * * * * * * * * * * * * * * * * * * * * * * * * * * * //

dimensions      [0 1 0 0 0 0 0];

internalField   nonuniform List<vector> 
1620
(
(0.000365534 -0.00010099 8.02415e-05)
(0.000317112 -0.000128837 5.86071e-06)
(0.000260131 -0.000167998 -4.84227e-05)
(0.000208582 -0.000196001 -7.86901e-05)
(0.000170001 -0.000207139 -9.21645e-05)
(0.000146216 -0.000203697 -9.50897e-05)
(0.000135399 -0.000188699 -9.0639e-05)
(0.000133133 -0.000163536 -8.05003e-05)
(0.000133116 -0.000128474 -6.58783e-05)
(0.000128047 -8.37866e-05 -4.75046e-05)
(0.000110563 -3.05664e-05 -2.53048e-05)
(7.41263e-05 2.86073e-05 1.80062e-06)
(1.41458e-05 8.87046e-05 3.56369e-05)
(-6.99946e-05 0.000141041 7.74619e-05)
(-0.000171703 0.000173398 0.000124659)
(-0.000274388 0.000174595 0.000165683)
(-0.000353267 0.000145248 0.000178917)
(-0.000384588 0.000109265 0.000147232)
(-0.000365534 0.00010099 8.02415e-05)
(-0.000317112 0.000128837 5.86071e-06)
(-0.000260131 0.000167998 -4.84227e-05)
(-0.000208582 0.000196001 -7.86901e-05)
(-0.000170001 0.000207139 -9.21645e-05)
(-0.000146216 0.000203697 -9.50897e-05)
(-0.000135399 0.000188699 -9.0639e-05)
(-0.000133133 0.000163536 -8.05003e-05)
(-0.000133116 0.000128474 -6.58783e-05)
(-0.000128047 8.37866e-05 -4.75046e-05)
(-0.000110563 3.05664e-05 -2.53048e-05)
(-7.41263e-05 -2.86073e-05 1.80062e-06)
(-1.41458e-05 -8.87046e-05 3.56369e-05)
(6.99946e-05 -0.000141041 7.74619e-05)
(0.000171703 -0.000173398 0.000124659)
(0.000274388 -0.000174595 0.000165683)
(0.000353267 -0.000145248 0.000178917)
(0.000384588 -0.000109265 0.000147232)
(0.000294418 -0.000164615 5.40321e-05)
(0.000297201 -0.000181113 2.41277e-05)
(0.000286919 -0.000184009 -3.26814e-06)
(0.00026622 -0.000170739 -2.67703e-05)
(0.00023882 -0.00014689 -4.67003e-05)
(0.000209121 -0.000118991 -6.18323e-05)
(0.000180632 -9.07543e-05 -7.05377e-05)
(0.000154533 -6.2947e-05 -7.19779e-05)
(0.000129451 -3.48739e-05 -6.62444e-05)
(0.000102291 -5.8547e-06 -5.39845e-05)
(6.95238e-05 2.39546e-05 -3.60547e-05)
(2.84536e-05 5.33834e-05 -1.33983e-05)
(-2.1773e-05 8.04723e-05 1.2816e-05)
(-7.95322e-05 0.000102919 4.07019e-05)
(-0.000140537 0.000118858 6.67454e-05)
(-0.000198325 0.000128312 8.51412e-05)
(-0.000245716 0.000135143 8.95906e-05)
(-0.00027782 0.000146926 7.82065e-05)
(-0.000294418 0.000164615 5.40321e-05)
(-0.000297201 0.000181113 2.41277e-05)
(-0.000286919 0.000184009 -3.26814e-06)
(-0.00026622 0.000170739 -2.67703e-05)
(-0.00023882 0.00014689 -4.67003e-05)
(-0.000209121 0.000118991 -6.18323e-05)
(-0.000180632 9.07543e-05 -7.05377e-05)
(-0.000154533 6.2947e-05 -7.19779e-05)
(-0.000129451 3.48739e-05 -6.62444e-05)
(-0.000102291 5.85471e-06 -5.39845e-05)
(-6.95238e-05 -2.39546e-05 -3.60547e-05)
(-2.84536e-05 -5.33834e-05 -1.33983e-05)
(2.1773e-05 -8.04723e-05 1.2816e-05)
(7.95322e-05 -0.000102919 4.07019e-05)
(0.000140537 -0.000118858 6.67454e-05)
(0.000198325 -0.000128312 8.51412e-05)
(0.000245716 -0.000135143 8.95906e-05)
(0.00027782 -0.000146926 7.82065e-05)
(0.000211283 -0.000199419 2.81535e-05)
(0.000247102 -0.000214946 2.52139e-05)
(0.000274027 -0.000198443 1.62259e-05)
(0.000285064 -0.0001585 -1.23731e-06)
(0.000277707 -0.000108214 -2.42313e-05)
(0.000254457 -5.81136e-05 -4.68233e-05)
(0.000220193 -1.4372e-05 -6.37302e-05)
(0.000179472 2.03734e-05 -7.18476e-05)
(0.000135385 4.55277e-05 -7.01896e-05)
(8.97479e-05 6.13726e-05 -5.94265e-05)
(4.39103e-05 6.8583e-05 -4.15611e-05)
(-4.69215e-07 6.84436e-05 -1.97324e-05)
(-4.11291e-05 6.35713e-05 2.08658e-06)
(-7.57109e-05 5.86833e-05 1.97364e-05)
(-0.000103047 6.06634e-05 3.00294e-05)
(-0.000124777 7.70285e-05 3.24767e-05)
(-0.000146319 0.000111861 3.06577e-05)
(-0.000174953 0.000158981 2.92604e-05)
(-0.000211283 0.000199419 2.81535e-05)
(-0.000247102 0.000214946 2.52139e-05)
(-0.000274027 0.000198443 1.62259e-05)
(-0.000285064 0.0001585 -1.23731e-06)
(-0.000277707 0.000108214 -2.42313e-05)
(-0.000254457 5.81136e-05 -4.68233e-05)
(-0.000220193 1.4372e-05 -6.37302e-05)
(-0.000179472 -2.03734e-05 -7.18476e-05)
(-0.000135385 -4.55277e-05 -7.01896e-05)
(-8.97479e-05 -6.13726e-05 -5.94265e-05)
(-4.39103e-05 -6.8583e-05 -4.15611e-05)
(4.69213e-07 -6.84436e-05 -1.97324e-05)
(4.1129e-05 -6.35713e-05 2.08658e-06)
(7.57109e-05 -5.86833e-05 1.97364e-05)
(0.000103047 -6.06634e-05 3.00294e-05)
(0.000124777 -7.70285e-05 3.24767e-05)
(0.000146319 -0.000111861 3.06577e-05)
(0.000174953 -0.000158981 2.92604e-05)
(0.000968675 -0.000422799 0.000280416)
(0.000897341 -0.000493642 6.2577e-05)
(0.000786854 -0.000552502 -0.000115241)
(0.000672692 -0.000568735 -0.000238142)
(0.000573499 -0.000544611 -0.000313133)
(0.00049665 -0.000493945 -0.000349236)
(0.000442927 -0.000427481 -0.000353708)
(0.000406844 -0.000349068 -0.000332704)
(0.000377066 -0.000258227 -0.000291277)
(0.000338374 -0.000153783 -0.000232466)
(0.000274432 -3.63549e-05 -0.000156498)
(0.000170725 9.01901e-05 -6.09218e-05)
(1.77768e-05 0.000217515 5.76609e-05)
(-0.000184665 0.000331608 0.000199272)
(-0.000422247 0.000413445 0.000352649)
(-0.000662044 0.000445855 0.000485273)
(-0.000857083 0.000429683 0.000541121)
(-0.000964175 0.000401517 0.000466921)
(-0.000968675 0.000422799 0.000280416)
(-0.000897341 0.000493642 6.2577e-05)
(-0.000786854 0.000552502 -0.000115241)
(-0.000672692 0.000568735 -0.000238142)
(-0.000573499 0.000544611 -0.000313133)
(-0.00049665 0.000493945 -0.000349236)
(-0.000442927 0.000427481 -0.000353708)
(-0.000406844 0.000349068 -0.000332704)
(-0.000377066 0.000258227 -0.000291277)
(-0.000338374 0.000153783 -0.000232466)
(-0.000274432 3.63549e-05 -0.000156498)
(-0.000170725 -9.01901e-05 -6.09218e-05)
(-1.77768e-05 -0.000217515 5.76609e-05)
(0.000184665 -0.000331608 0.000199272)
(0.000422247 -0.000413445 0.000352649)
(0.000662044 -0.000445855 0.000485273)
(0.000857083 -0.000429683 0.000541121)
(0.000964175 -0.000401517 0.000466921)
(0.000844855 -0.000518517 0.000242786)
(0.000850191 -0.000568206 0.000131063)
(0.000821705 -0.000572269 2.12761e-05)
(0.000766164 -0.00053022 -7.72666e-05)
(0.000692275 -0.000457706 -0.000157969)
(0.000610914 -0.000372457 -0.000215294)
(0.000530622 -0.000285299 -0.000246048)
(0.000454073 -0.000199637 -0.000249817)
(0.000377675 -0.000114961 -0.000228131)
(0.000293696 -3.03483e-05 -0.000183281)
(0.000193482 5.36195e-05 -0.000117633)
(7.06788e-05 0.000134535 -3.37211e-05)
(-7.61577e-05 0.000208865 6.4843e-05)
(-0.000241897 0.000273087 0.000171549)
(-0.000414452 0.00032512 0.000274189)
(-0.000576404 0.000366475 0.000352144)
(-0.000709557 0.000404857 0.000378363)
(-0.000799765 0.000455468 0.000335598)
(-0.000844855 0.000518517 0.000242786)
(-0.000850191 0.000568206 0.000131063)
(-0.000821705 0.000572269 2.12761e-05)
(-0.000766164 0.00053022 -7.72666e-05)
(-0.000692275 0.000457706 -0.000157969)
(-0.000610914 0.000372457 -0.000215294)
(-0.000530622 0.000285299 -0.000246048)
(-0.000454073 0.000199637 -0.000249817)
(-0.000377675 0.000114961 -0.000228131)
(-0.000293696 3.03483e-05 -0.000183281)
(-0.000193482 -5.36195e-05 -0.000117633)
(-7.06788e-05 -0.000134535 -3.37211e-05)
(7.61577e-05 -0.000208865 6.4843e-05)
(0.000241897 -0.000273087 0.000171549)
(0.000414452 -0.00032512 0.000274189)
(0.000576404 -0.000366475 0.000352144)
(0.000709557 -0.000404857 0.000378363)
(0.000799765 -0.000455468 0.000335598)
(0.00068149 -0.000579687 0.000198611)
(0.000753887 -0.000623315 0.000171033)
(0.000802182 -0.000593729 0.000121894)
(0.000808366 -0.000509329 4.97727e-05)
(0.000770704 -0.000396786 -3.09846e-05)
(0.000699145 -0.000278339 -0.000103181)
(0.000605889 -0.00016721 -0.000153998)
(0.000499525 -6.92228e-05 -0.000176512)
(0.00038384 1.3675e-05 -0.000168696)
(0.000259527 8.06814e-05 -0.000132224)
(0.000126984 0.000131134 -7.18877e-05)
(-1.10839e-05 0.000165255 4.49976e-06)
(-0.000148341 0.000186208 8.63314e-05)
(-0.000275666 0.000202317 0.000161207)
(-0.000384422 0.000227453 0.000217008)
(-0.000470981 0.000277547 0.000244903)
(-0.000540275 0.000362697 0.000243572)
(-0.000606136 0.000477349 0.000223516)
(-0.00068149 0.000579687 0.000198611)
(-0.000753887 0.000623315 0.000171033)
(-0.000802182 0.000593729 0.000121894)
(-0.000808366 0.000509329 4.97727e-05)
(-0.000770704 0.000396786 -3.09846e-05)
(-0.000699145 0.000278339 -0.000103181)
(-0.000605889 0.00016721 -0.000153998)
(-0.000499525 6.92228e-05 -0.000176512)
(-0.00038384 -1.3675e-05 -0.000168696)
(-0.000259527 -8.06814e-05 -0.000132224)
(-0.000126984 -0.000131134 -7.18877e-05)
(1.10839e-05 -0.000165255 4.49976e-06)
(0.000148341 -0.000186208 8.63314e-05)
(0.000275666 -0.000202317 0.000161207)
(0.000384422 -0.000227453 0.000217008)
(0.000470981 -0.000277547 0.000244903)
(0.000540275 -0.000362697 0.000243572)
(0.000606136 -0.000477349 0.000223516)
(0.00148677 -0.000863495 0.000602686)
(0.00140666 -0.000933691 0.00022024)
(0.00125816 -0.000965788 -0.000126511)
(0.00109325 -0.000945428 -0.000392847)
(0.0009408 -0.00087826 -0.000572328)
(0.000814455 -0.000780978 -0.000672746)
(0.000717824 -0.000666571 -0.000706322)
(0.000645046 -0.000539409 -0.000685465)
(0.000581408 -0.000398099 -0.000620015)
(0.000506049 -0.000240165 -0.000515267)
(0.000396113 -6.55719e-05 -0.000371309)
(0.000231493 0.000121233 -0.000184377)
(-8.92075e-08 0.000310209 4.8964e-05)
(-0.000297518 0.000485423 0.000323945)
(-0.000640599 0.00062736 0.000616046)
(-0.000986991 0.000721175 0.000869189)
(-0.0012771 0.000770551 0.00099493)
(-0.00145138 0.000806536 0.000906143)
(-0.00148677 0.000863495 0.000602686)
(-0.00140666 0.000933691 0.00022024)
(-0.00125816 0.000965788 -0.000126511)
(-0.00109325 0.000945428 -0.000392847)
(-0.0009408 0.00087826 -0.000572328)
(-0.000814455 0.000780978 -0.000672746)
(-0.000717824 0.000666571 -0.000706322)
(-0.000645046 0.000539409 -0.000685465)
(-0.000581408 0.000398099 -0.000620015)
(-0.000506049 0.000240165 -0.000515267)
(-0.000396113 6.55719e-05 -0.000371309)
(-0.000231493 -0.000121233 -0.000184377)
(8.91958e-08 -0.000310209 4.8964e-05)
(0.000297518 -0.000485423 0.000323945)
(0.000640599 -0.00062736 0.000616046)
(0.000986991 -0.000721175 0.000869189)
(0.0012771 -0.000770551 0.00099493)
(0.00145138 -0.000806536 0.000906143)
(0.0013186 -0.000886397 0.000554721)
(0.00133313 -0.000946277 0.000332418)
(0.00129122 -0.000939535 9.92463e-05)
(0.00120589 -0.000869954 -0.000108899)
(0.00109289 -0.000756876 -0.000274876)
(0.000968353 -0.000623229 -0.000390129)
(0.000843792 -0.000483987 -0.000451966)
(0.00072231 -0.000344915 -0.00046195)
(0.000598535 -0.000206594 -0.000423686)
(0.000461592 -6.87279e-05 -0.000340995)
(0.000299527 6.73442e-05 -0.000217343)
(0.00010391 0.00019816 -5.67964e-05)
(-0.000126327 0.000319174 0.000133616)
(-0.000382572 0.000426639 0.00034046)
(-0.000646393 0.000519935 0.00054008)
(-0.000892541 0.000604004 0.000696578)
(-0.00109609 0.000689601 0.000766406)
(-0.00123969 0.000786479 0.000715164)
(-0.0013186 0.000886397 0.000554721)
(-0.00133313 0.000946277 0.000332418)
(-0.00129122 0.000939535 9.92463e-05)
(-0.00120589 0.000869954 -0.000108899)
(-0.00109289 0.000756876 -0.000274876)
(-0.000968353 0.000623229 -0.000390129)
(-0.000843792 0.000483987 -0.000451966)
(-0.00072231 0.000344915 -0.00046195)
(-0.000598535 0.000206594 -0.000423686)
(-0.000461592 6.87279e-05 -0.000340995)
(-0.000299528 -6.73442e-05 -0.000217343)
(-0.00010391 -0.00019816 -5.67965e-05)
(0.000126327 -0.000319174 0.000133616)
(0.000382572 -0.000426639 0.00034046)
(0.000646393 -0.000519935 0.00054008)
(0.000892541 -0.000604004 0.000696578)
(0.00109609 -0.0006896 0.000766406)
(0.00123969 -0.000786479 0.000715164)
(0.00109068 -0.000893736 0.000480934)
(0.00119235 -0.000959089 0.000400578)
(0.00125344 -0.00093125 0.000282131)
(0.00125205 -0.00082582 0.000138891)
(0.00118995 -0.000674181 -5.87757e-06)
(0.00108191 -0.000505621 -0.000128678)
(0.000943757 -0.000339086 -0.000212147)
(0.000785624 -0.000184248 -0.000246816)
(0.00061119 -4.57786e-05 -0.000229942)
(0.000420393 7.33216e-05 -0.000164013)
(0.00021333 0.000170558 -5.6227e-05)
(-6.14267e-06 0.000244971 8.11908e-05)
(-0.000228481 0.000299818 0.000230842)
(-0.000439459 0.000345368 0.000371554)
(-0.000624497 0.000399001 0.000482278)
(-0.000774584 0.000479886 0.000547867)
(-0.000891255 0.000598157 0.000563502)
(-0.000988011 0.000750178 0.000534649)
(-0.00109068 0.000893736 0.000480934)
(-0.00119235 0.000959089 0.000400578)
(-0.00125344 0.00093125 0.000282131)
(-0.00125205 0.00082582 0.000138891)
(-0.00118995 0.000674181 -5.87757e-06)
(-0.00108191 0.000505621 -0.000128678)
(-0.000943757 0.000339086 -0.000212147)
(-0.000785624 0.000184248 -0.000246816)
(-0.00061119 4.57786e-05 -0.000229942)
(-0.000420393 -7.33216e-05 -0.000164013)
(-0.00021333 -0.000170558 -5.6227e-05)
(6.14266e-06 -0.000244971 8.11908e-05)
(0.000228481 -0.000299818 0.000230842)
(0.000439459 -0.000345368 0.000371554)
(0.000624497 -0.000399001 0.000482278)
(0.000774584 -0.000479886 0.000547867)
(0.000891255 -0.000598157 0.000563502)
(0.000988011 -0.000750178 0.000534649)
(0.00186377 -0.00136001 0.000958357)
(0.00179125 -0.00140632 0.000445516)
(0.00162953 -0.0013973 -6.30302e-05)
(0.00143489 -0.00133443 -0.000486171)
(0.0012455 -0.00122576 -0.000790405)
(0.00108122 -0.00108645 -0.000975069)
(0.000947747 -0.00092863 -0.00105522)
(0.000838947 -0.000756583 -0.00104884)
(0.000738601 -0.00056885 -0.000969851)
(0.000623453 -0.000362642 -0.000825154)
(0.000467959 -0.00013765 -0.000614615)
(0.000250095 0.000101634 -0.000334268)
(-4.2382e-05 0.000345058 1.6588e-05)
(-0.000405708 0.000577698 0.000424232)
(-0.000815032 0.000784053 0.000847594)
(-0.00122361 0.000957085 0.00121003)
(-0.00156997 0.00110712 0.00140515)
(-0.00179347 0.00125109 0.00132758)
(-0.00186377 0.00136001 0.000958357)
(-0.00179125 0.00140632 0.000445516)
(-0.00162953 0.0013973 -6.30302e-05)
(-0.00143489 0.00133443 -0.000486171)
(-0.0012455 0.00122576 -0.000790405)
(-0.00108122 0.00108645 -0.000975069)
(-0.000947747 0.00092863 -0.00105522)
(-0.000838947 0.000756583 -0.00104884)
(-0.000738601 0.00056885 -0.000969851)
(-0.000623453 0.000362642 -0.000825154)
(-0.000467959 0.00013765 -0.000614615)
(-0.000250095 -0.000101634 -0.000334268)
(4.2382e-05 -0.000345058 1.6588e-05)
(0.000405708 -0.000577698 0.000424232)
(0.000815032 -0.000784053 0.000847594)
(0.00122361 -0.000957085 0.00121003)
(0.00156997 -0.00110712 0.00140515)
(0.00179347 -0.00125109 0.00132758)
(0.00168831 -0.00124393 0.000883079)
(0.00170808 -0.00130572 0.000563244)
(0.00165356 -0.00128465 0.000215091)
(0.00154484 -0.00119279 -0.00010337)
(0.00140314 -0.00105108 -0.000359745)
(0.00124761 -0.000882414 -0.000539094)
(0.00109044 -0.000702535 -0.000638285)
(0.000933967 -0.000518598 -0.000660602)
(0.000771411 -0.000332632 -0.000611405)
(0.000590283 -0.000145547 -0.000495674)
(0.000377232 4.0329e-05 -0.000317836)
(0.000123261 0.000220677 -8.38423e-05)
(-0.000171795 0.000390366 0.000194896)
(-0.000496623 0.000545741 0.000496728)
(-0.000828577 0.000687377 0.000786135)
(-0.00113767 0.000822206 0.00101468)
(-0.0013953 0.000961824 0.00112997)
(-0.00158281 0.00111134 0.00108975)
(-0.00168831 0.00124393 0.000883079)
(-0.00170808 0.00130572 0.000563244)
(-0.00165356 0.00128465 0.000215091)
(-0.00154484 0.00119279 -0.00010337)
(-0.00140314 0.00105108 -0.000359745)
(-0.00124761 0.000882414 -0.000539094)
(-0.00109044 0.000702535 -0.000638285)
(-0.000933967 0.000518598 -0.000660602)
(-0.000771411 0.000332632 -0.000611405)
(-0.000590283 0.000145547 -0.000495674)
(-0.000377232 -4.0329e-05 -0.000317836)
(-0.000123262 -0.000220677 -8.38423e-05)
(0.000171795 -0.000390366 0.000194896)
(0.000496623 -0.000545741 0.000496728)
(0.000828577 -0.000687377 0.000786135)
(0.00113767 -0.000822206 0.00101468)
(0.0013953 -0.000961824 0.00112997)
(0.00158281 -0.00111134 0.00108975)
(0.00146723 -0.00114629 0.000775245)
(0.00156173 -0.00122422 0.000637399)
(0.00160752 -0.00120075 0.000452226)
(0.00158702 -0.00108891 0.000245043)
(0.00150261 -0.000918962 4.40597e-05)
(0.00136877 -0.000721177 -0.000122919)
(0.00120071 -0.000516664 -0.000234857)
(0.0010076 -0.000317579 -0.000280104)
(0.000791956 -0.000131099 -0.000255298)
(0.000552808 3.74425e-05 -0.00016365)
(0.000289897 0.000183602 -1.44909e-05)
(7.55402e-06 0.000305034 0.000176044)
(-0.000283196 0.000404242 0.000384605)
(-0.000565658 0.000491134 0.000582557)
(-0.000821921 0.000582291 0.000741523)
(-0.00103881 0.000694717 0.000841356)
(-0.00121276 0.000835977 0.000876019)
(-0.00135142 0.00099717 0.000852064)
(-0.00146723 0.00114629 0.000775245)
(-0.00156173 0.00122422 0.000637399)
(-0.00160752 0.00120075 0.000452226)
(-0.00158702 0.00108891 0.000245043)
(-0.00150261 0.000918962 4.40597e-05)
(-0.00136877 0.000721177 -0.000122919)
(-0.00120071 0.000516664 -0.000234857)
(-0.0010076 0.000317579 -0.000280104)
(-0.000791956 0.000131099 -0.000255298)
(-0.000552808 -3.74425e-05 -0.00016365)
(-0.000289897 -0.000183602 -1.44909e-05)
(-7.55404e-06 -0.000305034 0.000176044)
(0.000283196 -0.000404242 0.000384605)
(0.000565658 -0.000491134 0.000582557)
(0.000821921 -0.000582291 0.000741523)
(0.00103881 -0.000694717 0.000841356)
(0.00121276 -0.000835977 0.000876019)
(0.00135142 -0.00099717 0.000852064)
(0.00208921 -0.00174916 0.00124797)
(0.00204139 -0.00181733 0.000681698)
(0.00188511 -0.00180264 5.85008e-05)
(0.00167928 -0.00172055 -0.000496567)
(0.00146993 -0.00158654 -0.000917084)
(0.00128184 -0.00141678 -0.00118818)
(0.00112142 -0.0012235 -0.00132332)
(0.000981838 -0.00101205 -0.00134308)
(0.000846555 -0.000782318 -0.00126364)
(0.000692593 -0.000532359 -0.00109278)
(0.000495175 -0.000262036 -0.00083063)
(0.000233685 2.45989e-05 -0.000474483)
(-0.000101696 0.000318541 -2.84303e-05)
(-0.000503707 0.000607441 0.000483015)
(-0.000944128 0.000880561 0.00100194)
(-0.00137551 0.00113518 0.00143398)
(-0.00174033 0.00137548 0.00166542)
(-0.00198796 0.00159246 0.00160657)
(-0.00208921 0.00174916 0.00124797)
(-0.00204139 0.00181733 0.000681698)
(-0.00188511 0.00180264 5.85008e-05)
(-0.00167928 0.00172055 -0.000496567)
(-0.00146993 0.00158654 -0.000917084)
(-0.00128184 0.00141678 -0.00118818)
(-0.00112142 0.0012235 -0.00132332)
(-0.000981838 0.00101205 -0.00134308)
(-0.000846555 0.000782318 -0.00126364)
(-0.000692593 0.000532359 -0.00109278)
(-0.000495175 0.000262036 -0.00083063)
(-0.000233685 -2.45989e-05 -0.000474483)
(0.000101696 -0.000318541 -2.84303e-05)
(0.000503707 -0.000607441 0.000483015)
(0.000944128 -0.000880561 0.00100194)
(0.00137551 -0.00113518 0.00143398)
(0.00174033 -0.00137548 0.00166542)
(0.00198796 -0.00159246 0.00160657)
(0.00192955 -0.00153204 0.00111803)
(0.00195221 -0.00160272 0.000760629)
(0.00189076 -0.00158449 0.000341135)
(0.00176794 -0.00148825 -6.18339e-05)
(0.00160935 -0.00133507 -0.000395174)
(0.00143558 -0.00114687 -0.000633678)
(0.00125793 -0.000939457 -0.000771197)
(0.00107739 -0.000721239 -0.00081101)
(0.000886299 -0.000495906 -0.000759158)
(0.000671942 -0.000265811 -0.000621362)
(0.00042124 -3.42477e-05 -0.000403138)
(0.00012592 0.000193944 -0.000112748)
(-0.000212927 0.000413433 0.000233742)
(-0.000582139 0.000620728 0.000606977)
(-0.000956977 0.000816937 0.000961436)
(-0.00130594 0.00100859 0.00123864)
(-0.00159859 0.00120189 0.00137835)
(-0.00181135 0.00138739 0.0013381)
(-0.00192955 0.00153204 0.00111803)
(-0.00195221 0.00160272 0.000760629)
(-0.00189076 0.00158449 0.000341135)
(-0.00176794 0.00148825 -6.18339e-05)
(-0.00160935 0.00133507 -0.000395174)
(-0.00143558 0.00114687 -0.000633678)
(-0.00125793 0.000939457 -0.000771197)
(-0.00107739 0.000721239 -0.00081101)
(-0.000886299 0.000495906 -0.000759158)
(-0.000671942 0.000265811 -0.000621362)
(-0.00042124 3.42477e-05 -0.000403138)
(-0.00012592 -0.000193944 -0.000112748)
(0.000212927 -0.000413433 0.000233742)
(0.000582139 -0.000620728 0.000606977)
(0.000956976 -0.000816937 0.000961436)
(0.00130594 -0.00100859 0.00123864)
(0.00159859 -0.00120189 0.00137835)
(0.00181135 -0.00138739 0.0013381)
(0.00175623 -0.00135115 0.000972158)
(0.00182672 -0.00141904 0.000806884)
(0.00184415 -0.00139912 0.000588107)
(0.00180063 -0.00129282 0.000341404)
(0.00169812 -0.00112227 0.000101417)
(0.00154803 -0.000914182 -9.83635e-05)
(0.00136283 -0.000689317 -0.000232719)
(0.00114966 -0.000460943 -0.000287472)
(0.000909718 -0.000237894 -0.000258367)
(0.000641185 -2.72299e-05 -0.000149153)
(0.000343396 0.00016507 2.89711e-05)
(2.04941e-05 0.000335315 0.00025661)
(-0.000316535 0.000484516 0.000505902)
(-0.000650727 0.000620269 0.000743269)
(-0.000963012 0.000755367 0.000936153)
(-0.00123722 0.000901658 0.00106096)
(-0.00146325 0.00106148 0.00110695)
(-0.0016364 0.00122106 0.0010745)
(-0.00175623 0.00135115 0.000972158)
(-0.00182672 0.00141904 0.000806884)
(-0.00184415 0.00139912 0.000588107)
(-0.00180063 0.00129282 0.000341404)
(-0.00169813 0.00112227 0.000101417)
(-0.00154803 0.000914182 -9.83635e-05)
(-0.00136283 0.000689317 -0.000232719)
(-0.00114966 0.000460943 -0.000287472)
(-0.000909718 0.000237894 -0.000258367)
(-0.000641185 2.723e-05 -0.000149153)
(-0.000343396 -0.00016507 2.89711e-05)
(-2.04941e-05 -0.000335315 0.00025661)
(0.000316535 -0.000484516 0.000505902)
(0.000650727 -0.000620269 0.000743269)
(0.000963012 -0.000755367 0.000936153)
(0.00123722 -0.000901658 0.00106096)
(0.00146325 -0.00106148 0.00110695)
(0.0016364 -0.00122106 0.0010745)
(0.00217054 -0.00202155 0.0013966)
(0.0021483 -0.0021319 0.000839808)
(0.0020137 -0.00214485 0.000181477)
(0.00181617 -0.00207403 -0.000444637)
(0.00160384 -0.00193786 -0.000946164)
(0.00140549 -0.00175433 -0.00128821)
(0.00122864 -0.00153752 -0.00147542)
(0.00106616 -0.00129544 -0.00152618)
(0.000902051 -0.00103065 -0.00145659)
(0.000715303 -0.00074304 -0.00127495)
(0.000484192 -0.000433034 -0.000982582)
(0.000191762 -0.000104045 -0.000579729)
(-0.000167827 0.000236523 -7.66782e-05)
(-0.000583543 0.000578707 0.000491747)
(-0.00102531 0.00091407 0.00105567)
(-0.00144856 0.00123843 0.00151471)
(-0.001805 0.00154608 0.00176303)
(-0.00205443 0.00181769 0.00172673)
(-0.00217054 0.00202155 0.0013966)
(-0.0021483 0.0021319 0.000839808)
(-0.0020137 0.00214485 0.000181477)
(-0.00181617 0.00207403 -0.000444637)
(-0.00160384 0.00193786 -0.000946164)
(-0.00140549 0.00175433 -0.00128821)
(-0.00122864 0.00153752 -0.00147542)
(-0.00106616 0.00129544 -0.00152618)
(-0.000902051 0.00103065 -0.00145659)
(-0.000715303 0.00074304 -0.00127495)
(-0.000484192 0.000433034 -0.000982582)
(-0.000191762 0.000104045 -0.000579729)
(0.000167827 -0.000236523 -7.66782e-05)
(0.000583543 -0.000578707 0.000491747)
(0.00102531 -0.00091407 0.00105567)
(0.00144856 -0.00123843 0.00151471)
(0.001805 -0.00154608 0.00176303)
(0.00205443 -0.00181769 0.00172673)
(0.00203649 -0.00174193 0.00124391)
(0.00206215 -0.00182846 0.000882292)
(0.00200105 -0.0018276 0.000440086)
(0.0018757 -0.00174486 -3.9471e-06)
(0.00171241 -0.00159743 -0.000385368)
(0.00153185 -0.00140504 -0.000667535)
(0.00134431 -0.00118346 -0.000837772)
(0.00114976 -0.000942565 -0.000896662)
(0.000940411 -0.000687901 -0.000849512)
(0.000704426 -0.00042333 -0.000702395)
(0.000430271 -0.00015297 -0.000462191)
(0.000111392 0.000118122 -0.000139868)
(-0.000249569 0.000384625 0.000244075)
(-0.000638223 0.000642747 0.000654239)
(-0.00102912 0.000892151 0.00103889)
(-0.00139073 0.00113513 0.00133614)
(-0.00169291 0.00136977 0.00148798)
(-0.00191271 0.00158082 0.00145778)
(-0.00203649 0.00174193 0.00124391)
(-0.00206215 0.00182846 0.000882292)
(-0.00200105 0.0018276 0.000440086)
(-0.0018757 0.00174486 -3.94709e-06)
(-0.00171241 0.00159743 -0.000385368)
(-0.00153185 0.00140504 -0.000667535)
(-0.00134432 0.00118346 -0.000837772)
(-0.00114976 0.000942565 -0.000896662)
(-0.000940411 0.000687901 -0.000849512)
(-0.000704426 0.00042333 -0.000702395)
(-0.000430271 0.00015297 -0.000462191)
(-0.000111392 -0.000118122 -0.000139868)
(0.000249569 -0.000384625 0.000244075)
(0.000638223 -0.000642747 0.000654239)
(0.00102912 -0.000892151 0.00103889)
(0.00139073 -0.00113513 0.00133614)
(0.00169291 -0.00136977 0.00148798)
(0.00191271 -0.00158082 0.00145778)
(0.00190816 -0.00150235 0.00108163)
(0.00196352 -0.00155948 0.000902704)
(0.00195919 -0.00154223 0.000670187)
(0.00189769 -0.00144759 0.000408325)
(0.00178355 -0.00128816 0.000150778)
(0.00162563 -0.00108404 -6.67308e-05)
(0.00143331 -0.000853535 -0.00021536)
(0.00121181 -0.000609887 -0.000278)
(0.000961362 -0.000362763 -0.000249007)
(0.000679834 -0.000120228 -0.000132283)
(0.000366404 0.00011078 5.9537e-05)
(2.48446e-05 0.00032544 0.000304656)
(-0.000334655 0.000522832 0.000572462)
(-0.000695996 0.000706952 0.000827201)
(-0.0010398 0.000884869 0.00103515)
(-0.0013467 0.00106147 0.0011717)
(-0.00159999 0.00123345 0.00122449)
(-0.00178823 0.00138704 0.00119228)
(-0.00190816 0.00150235 0.00108163)
(-0.00196352 0.00155948 0.000902704)
(-0.00195919 0.00154223 0.000670188)
(-0.00189769 0.00144759 0.000408325)
(-0.00178355 0.00128816 0.000150778)
(-0.00162563 0.00108404 -6.67308e-05)
(-0.00143331 0.000853535 -0.00021536)
(-0.00121181 0.000609887 -0.000278)
(-0.000961362 0.000362763 -0.000249007)
(-0.000679834 0.000120228 -0.000132283)
(-0.000366404 -0.00011078 5.95369e-05)
(-2.48446e-05 -0.00032544 0.000304656)
(0.000334655 -0.000522832 0.000572462)
(0.000695996 -0.000706952 0.000827201)
(0.0010398 -0.000884869 0.00103515)
(0.0013467 -0.00106147 0.0011717)
(0.00159999 -0.00123345 0.00122449)
(0.00178823 -0.00138704 0.00119228)
(0.00212743 -0.00218989 0.00140283)
(0.00212421 -0.00234847 0.000892285)
(0.0020173 -0.00240604 0.000261648)
(0.00184306 -0.00236832 -0.00036966)
(0.00164321 -0.00225049 -0.000903241)
(0.00144688 -0.0020705 -0.00128779)
(0.00126342 -0.00184436 -0.00151427)
(0.00108682 -0.00158326 -0.00159379)
(0.000902676 -0.00129307 -0.00153977)
(0.000692991 -0.000976062 -0.00136052)
(0.000440248 -0.000633665 -0.00105946)
(0.000132284 -0.000269015 -0.000641191)
(-0.000232114 0.000111582 -0.000122658)
(-0.000638675 0.000499422 0.000453822)
(-0.00105761 0.000886111 0.00101455)
(-0.00145009 0.00126424 0.00146421)
(-0.00177791 0.0016225 0.00171056)
(-0.00201042 0.00194011 0.0016928)
(-0.00212743 0.00218989 0.00140283)
(-0.00212421 0.00234847 0.000892285)
(-0.0020173 0.00240604 0.000261648)
(-0.00184306 0.00236832 -0.00036966)
(-0.00164321 0.00225049 -0.000903241)
(-0.00144688 0.0020705 -0.00128779)
(-0.00126342 0.00184436 -0.00151427)
(-0.00108682 0.00158326 -0.00159379)
(-0.000902676 0.00129307 -0.00153977)
(-0.000692991 0.000976062 -0.00136052)
(-0.000440248 0.000633665 -0.00105946)
(-0.000132284 0.000269015 -0.000641191)
(0.000232114 -0.000111582 -0.000122658)
(0.000638675 -0.000499422 0.000453822)
(0.00105761 -0.000886111 0.00101455)
(0.00145009 -0.00126424 0.00146421)
(0.00177791 -0.0016225 0.00171056)
(0.00201042 -0.00194011 0.0016928)
(0.00201684 -0.00187414 0.00125743)
(0.00204615 -0.00198486 0.000918864)
(0.00199288 -0.00201116 0.000492261)
(0.00187624 -0.00195418 4.85268e-05)
(0.00171963 -0.00182576 -0.000347254)
(0.0015423 -0.00164234 -0.000651214)
(0.00135386 -0.00141912 -0.00084308)
(0.00115418 -0.00116728 -0.000918565)
(0.000936314 -0.000894201 -0.000880817)
(0.000690207 -0.000605216 -0.000735787)
(0.000406721 -0.000305192 -0.000491841)
(8.16906e-05 6.35723e-07 -0.000162745)
(-0.000280426 0.000306781 0.00022738)
(-0.000664441 0.000608493 0.000639909)
(-0.00104558 0.000902765 0.00102235)
(-0.00139458 0.00118707 0.00131613)
(-0.00168455 0.00145469 0.00146954)
(-0.00189572 0.00169071 0.00145082)
(-0.00201684 0.00187414 0.00125743)
(-0.00204615 0.00198486 0.000918864)
(-0.00199288 0.00201116 0.000492261)
(-0.00187624 0.00195418 4.85268e-05)
(-0.00171963 0.00182576 -0.000347254)
(-0.0015423 0.00164234 -0.000651214)
(-0.00135386 0.00141912 -0.00084308)
(-0.00115418 0.00116728 -0.000918565)
(-0.000936314 0.000894201 -0.000880817)
(-0.000690207 0.000605216 -0.000735787)
(-0.000406721 0.000305192 -0.000491841)
(-8.16906e-05 -6.35704e-07 -0.000162745)
(0.000280426 -0.000306781 0.00022738)
(0.000664441 -0.000608493 0.000639909)
(0.00104558 -0.000902765 0.00102235)
(0.00139458 -0.00118707 0.00131613)
(0.00168455 -0.00145469 0.00146954)
(0.00189572 -0.00169071 0.00145082)
(0.00192772 -0.00159852 0.0011024)
(0.00197513 -0.00165471 0.000926924)
(0.00196051 -0.0016448 0.000698254)
(0.00189099 -0.00156561 0.000440144)
(0.0017734 -0.00142381 0.000183795)
(0.00161539 -0.001233 -3.62199e-05)
(0.00142408 -0.00100786 -0.000189775)
(0.00120335 -0.000760659 -0.000257539)
(0.00095319 -0.000501243 -0.000232332)
(0.000671806 -0.000238111 -0.000117765)
(0.000358738 2.12768e-05 7.27403e-05)
(1.76626e-05 0.000271165 0.000316154)
(-0.000342016 0.000508553 0.000581178)
(-0.000705294 0.000733472 0.000832795)
(-0.00105319 0.00094723 0.00103918)
(-0.00136512 0.00114887 0.0011773)
(-0.00162218 0.00133233 0.00123473)
(-0.00181117 0.00148664 0.00120837)
(-0.00192772 0.00159852 0.0011024)
(-0.00197513 0.00165471 0.000926924)
(-0.00196051 0.0016448 0.000698254)
(-0.00189099 0.00156561 0.000440144)
(-0.0017734 0.00142381 0.000183795)
(-0.00161539 0.001233 -3.62199e-05)
(-0.00142408 0.00100786 -0.000189775)
(-0.00120335 0.000760659 -0.000257539)
(-0.00095319 0.000501243 -0.000232332)
(-0.000671806 0.000238111 -0.000117765)
(-0.000358738 -2.12767e-05 7.27403e-05)
(-1.76626e-05 -0.000271165 0.000316154)
(0.000342015 -0.000508553 0.000581178)
(0.000705294 -0.000733472 0.000832795)
(0.00105319 -0.00094723 0.00103918)
(0.00136512 -0.00114887 0.0011773)
(0.00162218 -0.00133233 0.00123473)
(0.00181117 -0.00148664 0.00120837)
(0.0019843 -0.00226976 0.00128455)
(0.00199221 -0.00247451 0.000841614)
(0.00191194 -0.00257973 0.000278871)