/*--------------------------------*- C++ -*----------------------------------*\
| =========                 |                                                 |
| \\      /  F ield         | OpenFOAM: The Open Source CFD Toolbox           |
|  \\    /   O peration     | Version:  2312                                  |
|   \\  /    A nd           | Website:  www.openfoam.com                      |
|    \\/     M anipulation  |                                                 |
\*---------------------------------------------------------------------------*/
FoamFile
{
    version     2.0;
    format      ascii;
    arch        "LSB;label=32;scalar=64";
    class       volVectorField;
    location    "0.4";
    object      D_0_0_0;
}
// * * * * * * * * * * * * * * * * * * * * * * * * * * * * * * * * * * * * * //

dimensions      [0 1 0 0 0 0 0];

internalField   nonuniform List<vector> 
1620
(
(-0.000114106 -2.01491e-06 -8.89512e-05)
(-8.97737e-05 5.54508e-05 -7.69149e-05)
(-5.71871e-05 0.000101116 -5.66272e-05)
(-2.11805e-05 0.000136988 -3.05905e-05)
(1.61149e-05 0.000168264 1.68548e-06)
(5.14022e-05 0.000200603 4.15476e-05)
(7.87941e-05 0.000237761 9.06709e-05)
(9.07867e-05 0.000278496 0.000148465)
(8.8528e-05 0.000312078 0.000200512)
(7.30387e-05 0.000329974 0.00020089)
(4.80096e-05 0.000328428 0.000156072)
(3.01624e-05 0.000312987 0.000108415)
(2.44967e-05 0.000292878 6.67791e-05)
(2.68549e-05 0.000271036 3.10995e-05)
(3.309e-05 0.000245861 3.37294e-07)
(4.06631e-05 0.000213774 -2.64174e-05)
(4.73933e-05 0.000171071 -4.94866e-05)
(4.75452e-05 0.000116115 -6.58491e-05)
(3.45412e-05 5.3195e-05 -6.53087e-05)
(1.03643e-05 -5.64347e-06 -4.8826e-05)
(-1.60616e-05 -5.48903e-05 -2.82096e-05)
(-3.98077e-05 -9.46375e-05 -6.49389e-06)
(-6.05165e-05 -0.000127658 1.72918e-05)
(-7.82578e-05 -0.000158498 4.57365e-05)
(-9.09614e-05 -0.000191798 8.292e-05)
(-9.39023e-05 -0.000228732 0.00013215)
(-9.00047e-05 -0.000260346 0.000182894)
(-7.78842e-05 -0.000278327 0.00018767)
(-5.91841e-05 -0.000277763 0.000150417)
(-4.947e-05 -0.000263786 0.000107779)
(-5.31294e-05 -0.000244654 6.76987e-05)
(-6.60609e-05 -0.000223268 3.09178e-05)
(-8.33681e-05 -0.000198159 -2.72407e-06)
(-0.000101283 -0.000165618 -3.35155e-05)
(-0.000116602 -0.000121692 -6.14184e-05)
(-0.000123176 -6.50335e-05 -8.33697e-05)
(-2.19586e-05 -1.57635e-05 -4.52105e-05)
(-1.00819e-05 4.29863e-05 -2.81844e-05)
(5.58947e-07 8.61433e-05 -1.21374e-05)
(1.12035e-05 0.000116226 6.0654e-06)
(2.28582e-05 0.00013573 2.70831e-05)
(3.51691e-05 0.000148703 4.98724e-05)
(4.71484e-05 0.000158524 7.27864e-05)
(5.84296e-05 0.000167439 9.35222e-05)
(7.07425e-05 0.000177891 0.000108029)
(7.80579e-05 0.000192032 0.000109252)
(7.89117e-05 0.000208157 9.87644e-05)
(7.30797e-05 0.000222313 8.24368e-05)
(6.41913e-05 0.000232477 6.37141e-05)
(5.28828e-05 0.000236755 4.46072e-05)
(3.87992e-05 0.00023208 2.66343e-05)
(2.18669e-05 0.000214564 1.06873e-05)
(3.28006e-06 0.000181453 -3.94733e-06)
(-1.54725e-05 0.000128447 -1.96171e-05)
(-3.01581e-05 6.27788e-05 -1.76961e-05)
(-3.93639e-05 4.72658e-06 1.6136e-08)
(-4.55089e-05 -3.88068e-05 1.36303e-05)
(-4.96072e-05 -7.0049e-05 2.68698e-05)
(-5.30219e-05 -9.08267e-05 4.1214e-05)
(-5.6456e-05 -0.000104509 5.66727e-05)
(-6.0445e-05 -0.000114085 7.29941e-05)
(-6.61561e-05 -0.000121713 8.93069e-05)
(-7.64113e-05 -0.000130121 0.000101998)
(-8.54201e-05 -0.000141808 0.000102831)
(-9.07114e-05 -0.000156364 9.27144e-05)
(-9.18419e-05 -0.000170532 7.64681e-05)
(-9.10175e-05 -0.000181938 5.68444e-05)
(-8.7773e-05 -0.000188098 3.57534e-05)
(-8.08051e-05 -0.000185286 1.48158e-05)
(-6.93476e-05 -0.000168977 -4.87643e-06)
(-5.42731e-05 -0.000135988 -2.37235e-05)
(-3.7194e-05 -8.23452e-05 -4.38212e-05)
(3.83493e-05 -3.36744e-05 6.65574e-06)
(3.81692e-05 2.29989e-05 1.53283e-05)
(2.83966e-05 6.28762e-05 2.46298e-05)
(1.6861e-05 8.51386e-05 3.43021e-05)
(7.77519e-06 9.26859e-05 4.39852e-05)
(3.7356e-06 9.02242e-05 5.12931e-05)
(7.40554e-06 8.28762e-05 5.24521e-05)
(2.20761e-05 7.62263e-05 4.45926e-05)
(5.13717e-05 7.65036e-05 3.16487e-05)
(8.84956e-05 8.71881e-05 3.21377e-05)
(0.000113339 0.000109318 4.73292e-05)
(0.000121526 0.000139247 5.54238e-05)
(0.000114788 0.000170126 5.48994e-05)
(9.57961e-05 0.000195669 4.95977e-05)
(6.68967e-05 0.000209991 4.32605e-05)
(3.05958e-05 0.000207305 3.82228e-05)
(-8.59459e-06 0.000183058 3.4915e-05)
(-4.12665e-05 0.000135926 3.28436e-05)
(-5.67316e-05 7.70547e-05 3.54044e-05)
(-5.44878e-05 2.35665e-05 4.12031e-05)
(-4.39067e-05 -1.34481e-05 4.58373e-05)
(-3.24215e-05 -3.41971e-05 5.05049e-05)
(-2.33655e-05 -4.20694e-05 5.57375e-05)
(-1.85262e-05 -4.13408e-05 5.96047e-05)
(-2.04004e-05 -3.5914e-05 5.83802e-05)
(-3.2988e-05 -3.00783e-05 4.86954e-05)
(-6.05769e-05 -2.97656e-05 3.36243e-05)
(-9.67644e-05 -3.94121e-05 3.09743e-05)
(-0.000122451 -6.11909e-05 4.27006e-05)
(-0.00013454 -9.17267e-05 4.77684e-05)
(-0.000132819 -0.000124477 4.46296e-05)
(-0.000118066 -0.000152654 3.66831e-05)
(-9.15333e-05 -0.000169422 2.72257e-05)
(-5.55335e-05 -0.000168153 1.83339e-05)
(-1.49984e-05 -0.000143913 1.0597e-05)
(2.01333e-05 -9.54882e-05 4.75563e-06)
(-0.000255129 -1.29258e-05 -0.000246599)
(-0.000203225 0.000167833 -0.000216822)
(-0.000139663 0.000307114 -0.000156724)
(-6.91829e-05 0.000406383 -7.65226e-05)
(6.05305e-06 0.000479484 2.23654e-05)
(8.08134e-05 0.000542465 0.000142069)
(0.000145863 0.000607414 0.000283698)
(0.000191283 0.000677202 0.000437948)
(0.000218867 0.000740073 0.000564914)
(0.000227736 0.000783809 0.000583757)
(0.000206894 0.000802432 0.000492903)
(0.000181477 0.000800754 0.000369468)
(0.000164581 0.000786804 0.000248481)
(0.000155099 0.000760496 0.000139724)
(0.000148476 0.000714522 4.39174e-05)
(0.000140796 0.000637459 -4.03195e-05)
(0.000128474 0.000517725 -0.000111623)
(0.000104436 0.000352269 -0.00015891)
(6.50243e-05 0.000162178 -0.000160551)
(1.48402e-05 -1.56736e-05 -0.000118167)
(-3.66586e-05 -0.00015657 -5.76815e-05)
(-8.32098e-05 -0.000260235 8.78331e-06)
(-0.000124529 -0.000336962 8.15932e-05)
(-0.000160837 -0.000400316 0.000167378)
(-0.000190325 -0.000462605 0.000274403)
(-0.000210079 -0.000529389 0.000402735)
(-0.000227586 -0.000591177 0.000521043)
(-0.000241239 -0.000635868 0.00054988)
(-0.000237056 -0.000656836 0.000476364)
(-0.00023537 -0.000658849 0.000364776)
(-0.000245782 -0.000648896 0.000246637)
(-0.000264787 -0.000626104 0.000132788)
(-0.000284896 -0.000582104 2.62206e-05)
(-0.00029935 -0.000504248 -7.23869e-05)
(-0.00030307 -0.000380291 -0.000160425)
(-0.000289342 -0.000208176 -0.00022633)
(-9.73369e-05 -5.46502e-05 -0.000136353)
(-6.312e-05 0.000118184 -9.7145e-05)
(-3.28376e-05 0.000247607 -4.2802e-05)
(-1.7764e-06 0.000337105 2.2807e-05)
(3.31664e-05 0.000395821 9.81974e-05)
(7.17981e-05 0.00043638 0.000180584)
(0.000112215 0.000469734 0.000264885)
(0.00015332 0.000502867 0.000342011)
(0.000196151 0.000538961 0.000396345)
(0.000230317 0.000579622 0.000408435)
(0.000244492 0.000622374 0.000377019)
(0.000238221 0.000660382 0.000319149)
(0.000218372 0.000688485 0.000249969)
(0.000187956 0.000700169 0.000178871)
(0.000147792 0.000685665 0.000111359)
(9.89953e-05 0.000633162 5.03984e-05)
(4.52068e-05 0.000532991 -2.56026e-06)
(-8.18516e-06 0.000378188 -4.31565e-05)
(-5.10231e-05 0.000193344 -4.05549e-05)
(-7.97739e-05 2.41902e-05 1.43756e-06)
(-9.9664e-05 -0.000103832 4.87354e-05)
(-0.000114567 -0.000194293 9.842e-05)
(-0.000128112 -0.000255075 0.000151389)
(-0.000142533 -0.000297182 0.000208258)
(-0.000159864 -0.000330467 0.000268346)
(-0.000183387 -0.000361586 0.000327307)
(-0.000217631 -0.000394066 0.00037254)
(-0.00025378 -0.000430685 0.000383528)
(-0.000279517 -0.000471554 0.000354305)
(-0.000292411 -0.000511209 0.000297473)
(-0.000295342 -0.000543791 0.000225687)
(-0.000287786 -0.000561289 0.000147814)
(-0.00026759 -0.000552056 6.97721e-05)
(-0.000233869 -0.000502482 -4.59783e-06)
(-0.000189596 -0.000401822 -7.25333e-05)
(-0.000140732 -0.000243819 -0.000127962)
(3.07342e-05 -0.000101325 -1.25656e-05)
(4.88848e-05 5.80908e-05 1.94935e-05)
(4.88081e-05 0.00017873 6.40102e-05)
(4.39271e-05 0.000257918 0.000113904)
(4.24836e-05 0.00030266 0.00016493)
(4.99048e-05 0.000323963 0.000209948)
(7.11511e-05 0.000333635 0.000238864)
(0.000110971 0.000343474 0.0002441)
(0.000173797 0.000364544 0.000234301)
(0.000241503 0.000402681 0.000241755)
(0.000287409 0.000457969 0.000261305)
(0.000300886 0.00052308 0.000263119)
(0.000281922 0.000585247 0.000243129)
(0.000235121 0.000630973 0.000208861)
(0.000165899 0.000646413 0.000169866)
(8.09301e-05 0.000617868 0.000133342)
(-9.02851e-06 0.000534941 0.000103525)
(-8.56756e-05 0.000396803 8.55789e-05)
(-0.000130859 0.000229571 9.11277e-05)
(-0.000142686 7.51982e-05 0.00011622)
(-0.000135376 -4.0617e-05 0.000146661)
(-0.000122665 -0.00011672 0.0001789)
(-0.000112337 -0.000160863 0.000211453)
(-0.00010951 -0.000183293 0.000239143)
(-0.000119904 -0.000193815 0.000253079)
(-0.000150305 -0.000202309 0.000246074)
(-0.000207046 -0.000219822 0.000226905)
(-0.000272501 -0.000254417 0.000225645)
(-0.000323092 -0.000308302 0.000235729)
(-0.000349096 -0.000375119 0.000229)
(-0.000346449 -0.000442355 0.000201076)
(-0.000315482 -0.000495171 0.000158092)
(-0.000258767 -0.000517508 0.000108355)
(-0.000181897 -0.000493704 5.87101e-05)
(-9.56682e-05 -0.00041242 1.46495e-05)
(-1.85199e-05 -0.000272958 -1.4895e-05)
(-0.000376575 -4.81278e-05 -0.000362943)
(-0.000300493 0.000237097 -0.000324094)
(-0.000210353 0.000460699 -0.000228017)
(-0.000109582 0.000622224 -9.03012e-05)
(-1.16387e-06 0.000740519 8.44342e-05)
(0.000107387 0.000837886 0.000295708)
(0.000204828 0.000931323 0.000538602)
(0.000280938 0.00102703 0.000791002)
(0.000336024 0.00111717 0.000996336)
(0.000368196 0.00119 0.00105587)
(0.00036189 0.00123558 0.000942504)
(0.000333256 0.00125391 0.0007502)
(0.00030424 0.00124982 0.000542191)
(0.000279715 0.00121984 0.00034568)
(0.000256901 0.00115312 0.000170049)
(0.00023048 0.00103371 1.79244e-05)
(0.000195075 0.000845662 -0.000105561)
(0.000144504 0.000586627 -0.000183456)
(7.94735e-05 0.000290308 -0.000190958)
(6.71685e-06 1.14439e-05 -0.0001306)
(-6.59236e-05 -0.000211054 -3.38089e-05)
(-0.000132738 -0.000375278 8.01034e-05)
(-0.000192732 -0.000496444 0.000208832)
(-0.000245228 -0.000593975 0.00035937)
(-0.000288934 -0.000684629 0.000538737)
(-0.000323859 -0.000777048 0.000739736)
(-0.000358392 -0.000866326 0.000920525)
(-0.000393429 -0.000941399 0.000988904)
(-0.000412833 -0.000991488 0.00090035)
(-0.000421809 -0.00101586 0.000726247)
(-0.000436562 -0.00101891 0.00052238)
(-0.000456999 -0.000995791 0.000316543)
(-0.000475355 -0.000933629 0.000121429)
(-0.000482196 -0.000814414 -5.69353e-05)
(-0.000470403 -0.000621271 -0.000211172)
(-0.000434697 -0.000353151 -0.000322841)
(-0.00018914 -0.000107522 -0.000198633)
(-0.000129748 0.000158422 -0.00014482)
(-7.48644e-05 0.000362619 -5.18792e-05)
(-1.79412e-05 0.000508156 6.75293e-05)
(4.46971e-05 0.000608128 0.000207614)
(0.000112186 0.000680522 0.000361905)
(0.000181284 0.000741312 0.000519794)
(0.000249278 0.000800881 0.00066363)
(0.000315271 0.00086354 0.000767073)
(0.000368876 0.000930143 0.000799722)
(0.000396436 0.000998171 0.000753607)
(0.000392014 0.00105928 0.00065352)
(0.000363845 0.00110387 0.000526887)
(0.000317666 0.00112086 0.000393065)
(0.000256164 0.00109555 0.000264329)
(0.000181554 0.00101112 0.000148342)
(9.88679e-05 0.000853861 5.15139e-05)
(1.6098e-05 0.000616756 -1.27681e-05)
(-5.38532e-05 0.000337542 -1.2316e-05)
(-0.000105685 7.82118e-05 4.71468e-05)
(-0.000144735 -0.00012253 0.000128257)
(-0.000176718 -0.000267742 0.000219244)
(-0.000206345 -0.000369146 0.000317972)
(-0.000236367 -0.000442813 0.000423928)
(-0.000269212 -0.000503322 0.00053432)
(-0.000308534 -0.000560621 0.000640017)
(-0.000358816 -0.00061933 0.000721301)
(-0.000413433 -0.000681419 0.000748104)
(-0.00045831 -0.000747551 0.000704345)
(-0.000483299 -0.000811882 0.000605655)
(-0.000490637 -0.00086392 0.000474042)
(-0.000480479 -0.000890352 0.000327428)
(-0.000450752 -0.000873591 0.000178795)
(-0.000400469 -0.000793979 3.75912e-05)
(-0.0003336 -0.000636202 -8.71757e-05)
(-0.000258821 -0.000394138 -0.000178801)
(-2.28902e-05 -0.000171961 -1.89153e-05)
(2.01453e-05 6.84094e-05 3.47631e-05)
(4.17868e-05 0.000255705 0.000119033)
(5.72863e-05 0.000385459 0.000218494)
(7.65774e-05 0.000467076 0.000322699)
(0.000106044 0.000515746 0.000419157)
(0.000150378 0.000547868 0.000492537)
(0.000212822 0.000579038 0.000530564)
(0.000293863 0.000622984 0.000538106)
(0.000377483 0.00068806 0.000550719)
(0.000436611 0.000773021 0.000564792)
(0.000454651 0.000867488 0.000551108)
(0.00042896 0.000954393 0.000504001)
(0.000363949 0.00101491 0.000432865)
(0.000266971 0.00102923 0.000351917)
(0.000148056 0.000978095 0.000274101)
(2.23688e-05 0.000847769 0.000210326)
(-8.74006e-05 0.000639225 0.00017377)
(-0.000160647 0.000389625 0.000180418)
(-0.000194304 0.000156528 0.000224121)
(-0.000202911 -2.43881e-05 0.000284547)
(-0.000202822 -0.000149965 0.00035146)
(-0.000204466 -0.000230311 0.00041928)
(-0.000214816 -0.000279704 0.000479725)
(-0.000240096 -0.000312247 0.000520777)
(-0.000286209 -0.000341225 0.000532111)
(-0.000356622 -0.000379996 0.000518881)
(-0.000437631 -0.00043962 0.000514466)
(-0.000505114 -0.000522033 0.000512375)
(-0.000542483 -0.000619041 0.000484101)
(-0.000542232 -0.000713812 0.000422478)
(-0.000502982 -0.000785416 0.000334447)
(-0.000427791 -0.000810646 0.000232484)
(-0.000324595 -0.000767061 0.00012963)
(-0.000207984 -0.000639249 3.95902e-05)
(-0.000100382 -0.000428257 -1.81762e-05)
(-0.000487445 -0.000115904 -0.000385302)
(-0.000388871 0.000244073 -0.000351536)
(-0.000274459 0.000536001 -0.000235754)
(-0.000147145 0.000755454 -5.41894e-05)
(-1.08901e-05 0.000921081 0.00018495)
(0.000125653 0.00105674 0.000475572)
(0.000250923 0.0011817 0.000804163)
(0.000355015 0.00130555 0.00113801)
(0.000435476 0.00142628 0.00141308)
(0.000492767 0.00153334 0.00152391)
(0.000512314 0.00161072 0.00141814)
(0.000485697 0.00165229 0.00118555)
(0.00044529 0.00166065 0.000909437)
(0.00040292 0.0016281 0.000635283)
(0.000359997 0.00154182 0.000385802)
(0.000311855 0.00138506 0.000171957)
(0.000252562 0.00114283 4.0343e-06)
(0.000177373 0.00081705 -9.92155e-05)
(8.88912e-05 0.000448013 -0.00011736)
(-5.12599e-06 9.73686e-05 -5.38842e-05)
(-9.73672e-05 -0.000189652 6.28165e-05)
(-0.000183031 -0.000407548 0.000210988)
(-0.000260591 -0.000572033 0.000384859)
(-0.000328772 -0.000704622 0.000588107)
(-0.00038686 -0.000824396 0.00082308)
(-0.000436603 -0.000943234 0.00107669)
(-0.000484846 -0.00106279 0.00130468)
(-0.000538572 -0.00117438 0.00141408)
(-0.0005881 -0.00126071 0.00133724)
(-0.000610103 -0.00131251 0.00112792)
(-0.000627051 -0.00133204 0.000857318)
(-0.000643227 -0.00131017 0.00057065)
(-0.000653698 -0.00123156 0.000294018)
(-0.000649068 -0.00107713 4.26465e-05)
(-0.0006214 -0.000830825 -0.000169763)
(-0.000566596 -0.000495714 -0.000321445)
(-0.000297635 -0.000179288 -0.000184155)
(-0.000211858 0.000151599 -0.000128721)
(-0.000128634 0.000415278 -1.09435e-05)
(-4.17137e-05 0.000611602 0.00015125)
(5.16592e-05 0.000754776 0.000347395)
(0.000149258 0.000864677 0.000566134)
(0.00024619 0.000959371 0.000790652)
(0.000337997 0.00105099 0.000995857)
(0.000422436 0.00114477 0.00114789)
(0.000492112 0.00123957 0.00120803)
(0.000532878 0.00133189 0.00116167)
(0.000531396 0.00141339 0.00103473)
(0.000497033 0.00147018 0.000862438)
(0.000438503 0.00148817 0.000673693)
(0.000360687 0.00145025 0.000489244)
(0.000266831 0.00133782 0.000323616)
(0.000162392 0.00113642 0.000189482)
(5.6278e-05 0.000843101 0.000106335)
(-3.85518e-05 0.000501826 0.000100347)
(-0.000115642 0.000180156 0.000164607)
(-0.000178691 -7.75829e-05 0.000266244)
(-0.000233649 -0.000271019 0.000388025)
(-0.000285031 -0.000413146 0.000524069)
(-0.000335035 -0.000522205 0.00067116)
(-0.000385276 -0.000615067 0.000823307)
(-0.000438627 -0.000703591 0.000967248)
(-0.000499571 -0.00079362 0.0010791)
(-0.00056696 -0.00088467 0.00112345)
(-0.000627797 -0.000976335 0.00107689)
(-0.000663304 -0.00106345 0.000950842)
(-0.000674568 -0.00113092 0.000771327)
(-0.000662869 -0.00116184 0.000564326)
(-0.000626986 -0.00113558 0.000351151)
(-0.000566101 -0.00103012 0.000148843)
(-0.000484145 -0.000829048 -2.60237e-05)
(-0.000390352 -0.000530083 -0.000148807)
(-0.000118724 -0.000247075 3.04874e-05)
(-4.74927e-05 4.89364e-05 9.57894e-05)
(4.51848e-06 0.000286728 0.000209271)
(5.15963e-05 0.000460216 0.000350047)
(0.000102689 0.000580012 0.000502094)
(0.000162416 0.000663248 0.000648144)
(0.000232761 0.000727941 0.000768548)
(0.000314156 0.000789913 0.000846412)
(0.000404431 0.000861915 0.00088012)
(0.000496324 0.000953319 0.000898543)
(0.000560881 0.00106202 0.000906051)
(0.000580806 0.00117636 0.00087902)
(0.000551934 0.00127728 0.000808854)
(0.000477916 0.00134361 0.000705592)
(0.000366462 0.00135264 0.000587196)
(0.000228767 0.0012824 0.000472398)
(8.15065e-05 0.00111792 0.000379096)
(-5.19924e-05 0.000862732 0.00032653)
(-0.000150936 0.000559688 0.000330774)
(-0.00021121 0.000272832 0.000384356)
(-0.00024585 4.26362e-05 0.000465428)
(-0.000270825 -0.000125707 0.00055937)
(-0.000296599 -0.000243268 0.00065684)
(-0.000329374 -0.000326316 0.000746997)
(-0.000373312 -0.000390755 0.000815773)
(-0.000431937 -0.000450059 0.000849949)
(-0.000506469 -0.000516106 0.000848512)
(-0.000595326 -0.000600894 0.000838131)
(-0.000670409 -0.000706433 0.000821486)
(-0.000714303 -0.000824181 0.000773978)
(-0.000717805 -0.000935293 0.000682879)
(-0.000677739 -0.00101591 0.000554566)
(-0.000596271 -0.00103906 0.000404901)
(-0.000481479 -0.000978636 0.000253259)
(-0.000348777 -0.000817365 0.000121827)
(-0.00022086 -0.000558695 3.84362e-05)
(-0.000596048 -0.00021394 -0.000293214)
(-0.00047771 0.0001899 -0.000277338)
(-0.000340377 0.000530533 -0.000161694)
(-0.000187871 0.000799382 4.13646e-05)
(-2.55268e-05 0.00101163 0.000321649)
(0.000137429 0.00118948 0.000667374)
(0.000289479 0.00135234 0.0010572)
(0.000420465 0.00151184 0.00145096)
(0.000525246 0.00167003 0.00178129)
(0.000606044 0.00181696 0.00194688)
(0.000649956 0.00192961 0.0018794)
(0.000627553 0.00199442 0.00163876)
(0.000578148 0.00201442 0.00132243)
(0.000518431 0.0019792 0.000993135)
(0.000454761 0.0018755 0.000687827)
(0.000385278 0.00168889 0.00042727)
(0.000304928 0.00140939 0.000226531)
(0.000209675 0.00104506 0.000102618)
(0.000101493 0.000637437 6.87916e-05)
(-1.24646e-05 0.000245705 0.000120994)
(-0.000124801 -8.55502e-05 0.000237834)
(-0.000230744 -0.000347057 0.000399746)
(-0.000328074 -0.000551828 0.000598619)
(-0.000415012 -0.000720596 0.000833627)
(-0.000490729 -0.000873196 0.00110174)
(-0.000556963 -0.00102396 0.00138576)
(-0.000618961 -0.00117929 0.00164183)
(-0.000686851 -0.00133279 0.00178799)
(-0.000756653 -0.00146087 0.00174797)
(-0.000790919 -0.00154337 0.00153399)
(-0.000808598 -0.00158012 0.00122529)
(-0.000817455 -0.00156017 0.000882472)
(-0.000816959 -0.00146799 0.000544898)
(-0.000800294 -0.00128694 0.000237984)
(-0.000759881 -0.00100586 -1.8597e-05)
(-0.000691398 -0.000633386 -0.00020307)
(-0.000419357 -0.000268121 -7.36029e-05)
(-0.000308769 0.000100674 -2.8874e-05)
(-0.000196327 0.000406745 9.50194e-05)
(-7.76324e-05 0.000645942 0.000280168)
(4.80707e-05 0.000831521 0.000513298)
(0.000176657 0.000982697 0.0007788)
(0.000301364 0.00111717 0.00105442)
(0.000416016 0.00124691 0.00130918)
(0.00051728 0.00137673 0.00150404)
(0.000600632 0.00150301 0.00159664)
(0.000651588 0.00162027 0.00156637)
(0.000653234 0.00171969 0.00143245)
(0.000614925 0.00178481 0.0012337)
(0.000547617 0.00180061 0.00100727)
(0.000458192 0.00175001 0.000782403)
(0.000350973 0.00161553 0.00058081)
(0.000231292 0.0013847 0.000420532)
(0.000107528 0.00106028 0.000322646)
(-8.7991e-06 0.000686806 0.000305593)
(-0.000110931 0.00032942 0.000362148)
(-0.000200586 3.21994e-05 0.000466649)
(-0.000282553 -0.000200521 0.000601441)
(-0.000360128 -0.000381006 0.000758259)
(-0.00043411 -0.000527407 0.000931005)
(-0.000504461 -0.00065684 0.00111039)
(-0.000572582 -0.000781492 0.00127983)
(-0.000642593 -0.000907199 0.00141318)
(-0.000717597 -0.00103133 0.00147535)
(-0.00078726 -0.00115082 0.00143878)
(-0.000830486 -0.00125917 0.00130385)
(-0.000845061 -0.00133881 0.00109617)
(-0.000832778 -0.00137126 0.00084774)
(-0.000793582 -0.0013356 0.000587569)
(-0.000727203 -0.00121072 0.000340139)
(-0.000636881 -0.000981977 0.000128428)
(-0.000530612 -0.000652261 -1.9482e-05)
(-0.000243648 -0.000326081 0.000156764)
(-0.000144577 2.79231e-06 0.000221552)
(-5.94453e-05 0.000275638 0.000347501)
(2.3856e-05 0.000485112 0.00051254)
(0.000111726 0.000642197 0.00069777)
(0.000205379 0.000764059 0.000882716)
(0.000303073 0.00086767 0.00104428)
(0.000402441 0.000966472 0.00116099)
(0.000500343 0.00107016 0.00122348)
(0.000596533 0.00118707 0.00124989)
(0.000662685 0.00131597 0.00125572)
(0.000683349 0.00144453 0.00122359)
(0.000654103 0.0015525 0.00114028)
(0.000577916 0.00161871 0.00101626)
(0.000461831 0.00162058 0.000872588)
(0.000316378 0.00153618 0.000732755)
(0.000157488 0.00135097 0.000619699)
(7.17935e-06 0.00107074 0.000555165)
(-0.000114487 0.000739443 0.000553023)
(-0.000202409 0.000421087 0.000605461)
(-0.000267555 0.000157141 0.000692383)
(-0.000324122 -4.57822e-05 0.000798569)
(-0.000380856 -0.000198958 0.000913004)
(-0.000441403 -0.000318931 0.0010233)
(-0.00050673 -0.000421067 0.00111392)
(-0.000577784 -0.000516775 0.00116898)
(-0.000655165 -0.00061442 0.00118044)
(-0.000744967 -0.000723759 0.00116329)
(-0.000821328 -0.000849028 0.00113544)
(-0.000868693 -0.000981865 0.00107657)
(-0.000876956 -0.00110218 0.000966296)
(-0.000841249 -0.00118552 0.000810346)
(-0.00076202 -0.00120434 0.000627085)
(-0.000645916 -0.00113194 0.000440749)
(-0.000507033 -0.000950951 0.000279575)
(-0.00036636 -0.000666941 0.000175818)
(-0.000707477 -0.000335323 -8.88804e-05)
(-0.0005734 8.55321e-05 -0.000100113)
(-0.000414986 0.000455047 -2.54057e-06)
(-0.000237653 0.000761947 0.000198104)
(-4.8753e-05 0.00101702 0.000492156)
(0.0001415 0.00123919 0.000864135)
(0.000321264 0.00144631 0.00128745)
(0.000479744 0.00165002 0.00171804)
(0.000609431 0.00185312 0.00208902)
(0.000709221 0.0020444 0.00231026)
(0.000766054 0.00219447 0.00230211)
(0.000750727 0.00228224 0.00208183)
(0.000696229 0.00231202 0.00175526)
(0.000622339 0.00227422 0.00139898)
(0.000540382 0.002157 0.0010617)
(0.000452658 0.00195033 0.000772884)
(0.000355957 0.00165111 0.000551091)
(0.000246138 0.00127326 0.000409986)
(0.000122862 0.000855845 0.000356221)
(-8.96034e-06 0.000449841 0.000385788)
(-0.000142234 9.46053e-05 0.000484944)
(-0.000271337 -0.000198292 0.000639189)
(-0.000392651 -0.000438071 0.000840117)
(-0.000503269 -0.000643052 0.00108326)
(-0.000601276 -0.000832407 0.0013612)
(-0.000687092 -0.00102126 0.00165467)
(-0.000764034 -0.00121757 0.0019235)
(-0.000839269 -0.0014159 0.00210149)
(-0.000912451 -0.00158901 0.00210942)
(-0.00095782 -0.0017062 0.00191849)
(-0.00097519 -0.00176066 0.00160364)
(-0.000976261 -0.00174412 0.00123537)
(-0.000965005 -0.00164333 0.000863725)
(-0.000938343 -0.00144647 0.000523181)
(-0.000889682 -0.0011491 0.000237989)
(-0.000813381 -0.000765045 2.81903e-05)
(-0.00055 -0.000368857 0.00013336)
(-0.000418469 1.51442e-05 0.000157338)
(-0.000278816 0.000346803 0.000269462)
(-0.000129034 0.000618978 0.000455917)
(2.90881e-05 0.000843041 0.000703211)
(0.000189097 0.0010362 0.000993275)
(0.000342115 0.00121411 0.00130022)
(0.000480112 0.00138675 0.00158937)
(0.000598131 0.00155683 0.00181921)
(0.000692274 0.00171848 0.00194728)
(0.000749304 0.00186252 0.00194603)
(0.000754938 0.00197794 0.00182348)
(0.000715562 0.00204891 0.00161934)
(0.000643126 0.00206142 0.00137668)
(0.000546275 0.00200036 0.00113133)
(0.000430602 0.00185135 0.000910713)
(0.000301205 0.00160573 0.00073624)
(0.000165117 0.00127136 0.00062726)
(3.15597e-05 0.000889886 0.000595164)
(-9.33578e-05 0.000519216 0.000633351)
(-0.00020979 0.000199704 0.000724027)
(-0.000320693 -6.16057e-05 0.000852951)
(-0.000427463 -0.000275365 0.00101157)
(-0.000528846 -0.00045836 0.00119178)
(-0.000622527 -0.000626463 0.00138173)
(-0.000707747 -0.000790612 0.00156289)
(-0.000787076 -0.000955101 0.00170907)
(-0.000864643 -0.00111619 0.00178854)
(-0.000935576 -0.0012664 0.00177058)
(-0.00098384 -0.00139518 0.00164373)
(-0.00100111 -0.00148569 0.00142991)
(-0.000988973 -0.00151943 0.00116379)
(-0.000948643 -0.00147724 0.000879595)
(-0.000880678 -0.00134108 0.000607407)
(-0.000787376 -0.00109999 0.000374236)
(-0.000674482 -0.000761411 0.000208002)
(-0.000385353 -0.000405762 0.000363347)
(-0.00026171 -6.26845e-05 0.000416311)
(-0.000145337 0.000231216 0.000537629)
(-2.65365e-05 0.000467984 0.000707813)
(9.81657e-05 0.000658503 0.000907995)
(0.000226186 0.000818851 0.00111636)
(0.000351943 0.000963392 0.00130749)
(0.000470321 0.0011018 0.0014562)
(0.000577571 0.00123959 0.00154625)
(0.000674927 0.00138182 0.00158452)
(0.000741847 0.00152927 0.00159468)
(0.000764429 0.00166941 0.00156573)
(0.000737619 0.00178136 0.00148113)
(0.000663879 0.00184526 0.00135096)
(0.000549294 0.00184077 0.00119785)
(0.000402988 0.00174807 0.00104802)
(0.000239048 0.00155421 0.000926582)
(7.73458e-05 0.00126641 0.000854534)
(-6.33012e-05 0.000926611 0.000842464)
(-0.000176978 0.000594972 0.000883274)
(-0.0002725 0.00031157 0.000961063)
(-0.000362 8.34457e-05 0.00106338)
(-0.000451887 -0.000100667 0.00117983)
(-0.000542625 -0.000256593 0.00129759)
(-0.000631735 -0.000397759 0.00140021)
(-0.00071743 -0.000532375 0.00146972)
(-0.000800039 -0.000664391 0.00149279)
(-0.000884711 -0.000798592 0.00147383)
(-0.000959257 -0.000942065 0.0014393)
(-0.00100941 -0.00108712 0.00137511)
(-0.00102304 -0.00121356 0.0012577)
(-0.000994128 -0.00129752 0.00109075)
(-0.000921528 -0.00131289 0.000892794)
(-0.000809996 -0.00123455 0.000690212)
(-0.000671316 -0.00104635 0.000513788)
(-0.000523851 -0.000755236 0.000396308)
(-0.000823884 -0.000471194 0.000212864)
(-0.000677853 -5.43919e-05 0.000169573)
(-0.000500395 0.000326381 0.000235914)
(-0.00029871 0.000659277 0.000413742)
(-8.27047e-05 0.000951211 0.000696255)
(0.000135531 0.00121726 0.00106702)
(0.000342861 0.00147234 0.00149746)
(0.000527038 0.00172589 0.00194365)
(0.000678121 0.00197872 0.00234352)
(0.000790805 0.00221701 0.00261714)
(0.00085439 0.00240653 0.00267386)
(0.000851103 0.00251867 0.00249548)
(0.000795603 0.00255724 0.00218714)
(0.000712119 0.00251815 0.00183243)
(0.000616538 0.00239302 0.00148758)
(0.000515474 0.0021773 0.00118857)
(0.000407923 0.00187472 0.000956204)
(0.000289118 0.00150344 0.000800883)
(0.000155227 0.00109794 0.000724566)
(7.71142e-06 0.000698658 0.000723869)
(-0.000147099 0.000337292 0.000791922)
(-0.000302171 2.56008e-05 0.000920491)
(-0.000451666 -0.00024231 0.00110289)
(-0.000590484 -0.000481686 0.00133283)
(-0.00071436 -0.000709662 0.00160037)
(-0.000820915 -0.000940088 0.00188644)
(-0.000910432 -0.00117983 0.00215689)
(-0.000986433 -0.00142326 0.00235786)
(-0.00105432 -0.00164277 0.00241101)
(-0.00110698 -0.00179957 0.0022664)
(-0.00112295 -0.00187429 0.00197579)
(-0.00111781 -0.00186474 0.00161222)
(-0.00109866 -0.00176233 0.00123363)
(-0.00106589 -0.0015614 0.000881313)
(-0.00101397 -0.00126451 0.000582519)
(-0.000935296 -0.000889199 0.000355191)
(-0.000684562 -0.000474359 0.000424638)
(-0.000537077 -9.30282e-05 0.000421435)
(-0.000374101 0.000249004 0.000508112)
(-0.00019588 0.00054343 0.000677291)
(-6.87964e-06 0.000799719 0.000917526)
(0.00018379 0.00103258 0.00121033)
(0.000364751 0.0012546 0.00152847)
(0.00052566 0.00147244 0.00183631)
(0.000659467 0.00168541 0.00209247)
(0.000761955 0.00188506 0.00225487)
(0.000823712 0.00205732 0.00228887)
(0.000835152 0.00218826 0.00219191)
(0.000797295 0.0022648 0.00200197)
(0.000722831 0.00227517 0.00176451)
(0.000622121 0.00220778 0.00151877)
(0.000502101 0.00205259 0.0012956)
(0.000367725 0.00180547 0.0011177)
(0.000224325 0.00147782 0.00100103)
(7.82331e-05 0.00110652 0.000951439)
(-6.59596e-05 0.000740312 0.000963732)
(-0.000207468 0.000413983 0.00102784)
(-0.000347309 0.000135367 0.00113514)
(-0.000484612 -0.000104638 0.00127865)
(-0.000615536 -0.000320928 0.00144953)
(-0.000734876 -0.00052716 0.00163466)
(-0.000838892 -0.00073181 0.00181514)
(-0.000927633 -0.000936591 0.00196638)
(-0.00100506 -0.00113624 0.00205966)
(-0.00107316 -0.00131829 0.00206326)
(-0.00112314 -0.00146849 0.0019583)
(-0.00114154 -0.00157135 0.00175887)
(-0.00112971 -0.00160904 0.00149828)
(-0.00108991 -0.00156552 0.00121302)
(-0.00102334 -0.00142712 0.000936285)
(-0.000931292 -0.00118731 0.000696593)
(-0.000816862 -0.000856818 0.00051939)
(-0.000532279 -0.00048074 0.000641286)
(-0.00038964 -0.000138279 0.000674098)
(-0.000247108 0.000164011 0.000777012)
(-9.70467e-05 0.000418591 0.000935807)
(6.1334e-05 0.000636209 0.00113376)
(0.000221923 0.000831389 0.00134927)
(0.000375512 0.00101526 0.00155599)
(0.000514089 0.00119315 0.0017264)
(0.000632856 0.00136582 0.00183951)
(0.000731655 0.00153399 0.00189368)
(0.000800396 0.00169949 0.00191259)
(0.000825751 0.00185001 0.00189227)
(0.000802782 0.0019655 0.00181724)
(0.000733586 0.00202775 0.00169541)
(0.000623478 0.00201966 0.00154855)
(0.000480159 0.00192488 0.00140319)
(0.000315531 0.00173273 0.00128397)
(0.000147043 0.00145081 0.00120878)
(-7.98542e-06 0.00111743 0.00118453)
(-0.000143207 0.000787144 0.00120582)
(-0.00026573 0.000497235 0.00126271)
(-0.000385928 0.000253964 0.00134784)
(-0.000507918 4.58783e-05 0.00145304)
(-0.00062902 -0.000141724 0.00156596)
(-0.000743319 -0.000319718 0.00166989)
(-0.000845944 -0.000492604 0.00174582)
(-0.000935998 -0.000659587 0.00177759)
(-0.00101634 -0.000820084 0.0017627)
(-0.00108946 -0.000981599 0.00172463)
(-0.00114017 -0.0011375 0.00165923)
(-0.00115717 -0.00126958 0.00154621)
(-0.00113435 -0.00135513 0.00138466)
(-0.00106939 -0.00137034 0.00119072)
(-0.000965025 -0.00129269 0.000990155)
(-0.000830419 -0.00110788 0.000812919)
(-0.000681048 -0.000823503 0.000689022)
(-0.000943168 -0.000611325 0.00059102)
(-0.000787619 -0.000213656 0.000515195)
(-0.000593029 0.000164222 0.000543284)
(-0.000368612 0.00051184 0.000684383)