/*--------------------------------*- C++ -*----------------------------------*\
| =========                 |                                                 |
| \\      /  F ield         | OpenFOAM: The Open Source CFD Toolbox           |
|  \\    /   O peration     | Version:  2312                                  |
|   \\  /    A nd           | Website:  www.openfoam.com                      |
|    \\/     M anipulation  |                                                 |
\*---------------------------------------------------------------------------*/
FoamFile
{
    version     2.0;
    format      ascii;
    arch        "LSB;label=32;scalar=64";
    class       volTensorField;
    location    "0.4";
    object      F;
}
// * * * * * * * * * * * * * * * * * * * * * * * * * * * * * * * * * * * * * //

dimensions      [0 0 0 0 0 0 0];

internalField   nonuniform List<tensor> 
1620
(
(0.94792 -0.0338425 0.149709 -0.0309481 0.974741 -0.286377 -0.0257355 -0.00225168 1.0986)
(0.959808 -0.0364755 0.197163 -0.0335814 0.962852 -0.256029 -0.0249537 -0.00668639 1.0986)
(0.97188 -0.0348837 0.238627 -0.0319896 0.95078 -0.217903 -0.0234135 -0.0109177 1.0986)
(0.98268 -0.0292589 0.27284 -0.0263646 0.93998 -0.173155 -0.0211617 -0.0148175 1.0986)
(0.990905 -0.0202794 0.298763 -0.0173851 0.931756 -0.123147 -0.0182673 -0.0182674 1.09859)
(0.995562 -0.00902868 0.315609 -0.00613429 0.927098 -0.0693961 -0.0148177 -0.0211619 1.0986)
(0.996091 0.00313638 0.322864 0.00603086 0.92657 -0.0135369 -0.0109179 -0.0234132 1.0986)
(0.992426 0.0147488 0.32031 0.0176433 0.930234 0.0427337 -0.00668625 -0.0249534 1.0986)
(0.985012 0.0244078 0.308023 0.0273021 0.937648 0.0977057 -0.00225152 -0.0257354 1.0986)
(0.974741 0.0309481 0.286377 0.0338425 0.947919 0.149709 0.00225168 -0.0257355 1.0986)
(0.962852 0.0335814 0.256029 0.0364755 0.959808 0.197163 0.00668639 -0.0249537 1.0986)
(0.95078 0.0319896 0.217903 0.0348837 0.97188 0.238627 0.0109177 -0.0234135 1.0986)
(0.93998 0.0263646 0.173155 0.0292589 0.98268 0.27284 0.0148175 -0.0211617 1.0986)
(0.931756 0.0173851 0.123147 0.0202794 0.990905 0.298763 0.0182674 -0.0182673 1.09859)
(0.927098 0.0061343 0.0693961 0.00902868 0.995562 0.315609 0.0211619 -0.0148177 1.0986)
(0.92657 -0.00603086 0.0135369 -0.00313638 0.996091 0.322864 0.0234132 -0.0109179 1.0986)
(0.930234 -0.0176433 -0.0427337 -0.0147488 0.992426 0.32031 0.0249534 -0.00668625 1.0986)
(0.937648 -0.0273021 -0.0977057 -0.0244078 0.985012 0.308023 0.0257354 -0.00225152 1.0986)
(0.947919 -0.0338425 -0.149709 -0.0309481 0.974741 0.286377 0.0257355 0.00225168 1.0986)
(0.959808 -0.0364755 -0.197163 -0.0335814 0.962852 0.256029 0.0249537 0.00668639 1.0986)
(0.97188 -0.0348837 -0.238627 -0.0319896 0.95078 0.217903 0.0234135 0.0109177 1.0986)
(0.98268 -0.0292589 -0.27284 -0.0263646 0.93998 0.173155 0.0211617 0.0148175 1.0986)
(0.990905 -0.0202794 -0.298763 -0.0173851 0.931756 0.123147 0.0182673 0.0182674 1.09859)
(0.995562 -0.00902868 -0.315609 -0.00613429 0.927098 0.0693961 0.0148177 0.0211619 1.0986)
(0.996091 0.00313638 -0.322864 0.00603086 0.92657 0.0135369 0.0109179 0.0234132 1.0986)
(0.992426 0.0147488 -0.32031 0.0176433 0.930234 -0.0427337 0.00668625 0.0249534 1.0986)
(0.985012 0.0244078 -0.308023 0.0273021 0.937648 -0.0977057 0.00225152 0.0257354 1.0986)
(0.974741 0.0309481 -0.286377 0.0338425 0.94792 -0.149709 -0.00225168 0.0257355 1.0986)
(0.962852 0.0335814 -0.256029 0.0364755 0.959808 -0.197163 -0.00668639 0.0249537 1.0986)
(0.95078 0.0319896 -0.217903 0.0348837 0.97188 -0.238627 -0.0109177 0.0234135 1.0986)
(0.93998 0.0263646 -0.173155 0.0292589 0.98268 -0.27284 -0.0148175 0.0211617 1.0986)
(0.931756 0.0173851 -0.123147 0.0202794 0.990905 -0.298763 -0.0182674 0.0182673 1.09859)
(0.927098 0.00613429 -0.0693961 0.00902868 0.995562 -0.315609 -0.0211619 0.0148177 1.0986)
(0.92657 -0.00603087 -0.0135369 -0.00313638 0.996091 -0.322864 -0.0234132 0.0109179 1.0986)
(0.930234 -0.0176433 0.0427336 -0.0147488 0.992426 -0.32031 -0.0249534 0.00668625 1.0986)
(0.937648 -0.0273021 0.0977057 -0.0244078 0.985012 -0.308023 -0.0257354 0.00225152 1.0986)
(0.957723 -0.0406281 0.15573 -0.0307866 0.978669 -0.31279 -0.025689 -0.00224752 1.07551)
(0.970567 -0.0420566 0.207679 -0.0322153 0.965824 -0.280996 -0.0249086 -0.00667429 1.07551)
(0.983125 -0.0390062 0.253318 -0.0291648 0.953266 -0.240664 -0.0233712 -0.0108981 1.07551)
(0.993883 -0.0318445 0.291261 -0.022003 0.942509 -0.193019 -0.0211236 -0.0147908 1.07551)
(1.00154 -0.0214352 0.320353 -0.0115938 0.934849 -0.13951 -0.0182343 -0.0182343 1.07551)
(1.00518 -0.00903415 0.339712 0.000807364 0.931212 -0.0817617 -0.0147909 -0.0211237 1.07551)
(1.00436 0.00386288 0.348749 0.0137045 0.932036 -0.0215293 -0.0108981 -0.023371 1.07551)
(0.999171 0.0157007 0.347189 0.0255423 0.937221 0.0393575 -0.00667417 -0.0249083 1.07551)
(0.99025 0.0250512 0.33508 0.0348928 0.946142 0.0990483 -0.00224747 -0.0256889 1.07551)
(0.978669 0.0307866 0.31279 0.0406281 0.957723 0.15573 0.00224752 -0.025689 1.07551)
(0.965824 0.0322153 0.280996 0.0420566 0.970567 0.207679 0.00667429 -0.0249086 1.07551)
(0.953266 0.0291648 0.240664 0.0390062 0.983125 0.253318 0.0108981 -0.0233712 1.07551)
(0.942509 0.022003 0.193019 0.0318445 0.993883 0.291261 0.0147908 -0.0211236 1.07551)
(0.934849 0.0115938 0.13951 0.0214352 1.00154 0.320353 0.0182343 -0.0182343 1.07551)
(0.931212 -0.000807361 0.0817617 0.00903415 1.00518 0.339712 0.0211237 -0.0147909 1.07551)
(0.932036 -0.0137045 0.0215293 -0.00386288 1.00436 0.348749 0.023371 -0.0108981 1.07551)
(0.937221 -0.0255423 -0.0393575 -0.0157007 0.999171 0.347189 0.0249083 -0.00667417 1.07551)
(0.946142 -0.0348928 -0.0990483 -0.0250512 0.99025 0.33508 0.0256889 -0.00224747 1.07551)
(0.957723 -0.0406281 -0.15573 -0.0307866 0.978669 0.31279 0.025689 0.00224752 1.07551)
(0.970567 -0.0420566 -0.207679 -0.0322153 0.965824 0.280996 0.0249086 0.00667428 1.07551)
(0.983125 -0.0390062 -0.253318 -0.0291648 0.953266 0.240664 0.0233712 0.0108981 1.07551)
(0.993883 -0.0318445 -0.291261 -0.022003 0.942509 0.193019 0.0211236 0.0147908 1.07551)
(1.00154 -0.0214352 -0.320353 -0.0115938 0.934849 0.13951 0.0182343 0.0182343 1.07551)
(1.00518 -0.00903415 -0.339712 0.000807364 0.931212 0.0817617 0.0147909 0.0211237 1.07551)
(1.00436 0.00386288 -0.348749 0.0137045 0.932036 0.0215293 0.0108981 0.023371 1.07551)
(0.999171 0.0157007 -0.347189 0.0255423 0.937221 -0.0393575 0.00667417 0.0249083 1.07551)
(0.99025 0.0250512 -0.33508 0.0348928 0.946142 -0.0990483 0.00224747 0.0256889 1.07551)
(0.978669 0.0307866 -0.31279 0.0406281 0.957723 -0.15573 -0.00224752 0.025689 1.07551)
(0.965824 0.0322153 -0.280996 0.0420566 0.970567 -0.207679 -0.00667428 0.0249086 1.07551)
(0.953266 0.0291648 -0.240664 0.0390062 0.983125 -0.253318 -0.0108981 0.0233712 1.07551)
(0.942509 0.022003 -0.193019 0.0318445 0.993883 -0.291261 -0.0147908 0.0211236 1.07551)
(0.934849 0.0115938 -0.13951 0.0214352 1.00154 -0.320353 -0.0182343 0.0182343 1.07551)
(0.931212 -0.000807369 -0.0817617 0.00903415 1.00518 -0.339712 -0.0211237 0.0147909 1.07551)
(0.932036 -0.0137045 -0.0215293 -0.00386288 1.00436 -0.348749 -0.023371 0.0108981 1.07551)
(0.937221 -0.0255423 0.0393575 -0.0157007 0.999171 -0.347189 -0.0249083 0.00667417 1.07551)
(0.946142 -0.0348928 0.0990483 -0.0250512 0.99025 -0.33508 -0.0256889 0.00224747 1.07551)
(0.968693 -0.0491309 0.164674 -0.0297109 0.981097 -0.338568 -0.0253929 -0.00222154 1.05304)
(0.98255 -0.0488746 0.220964 -0.0294547 0.96724 -0.304829 -0.0246215 -0.00659731 1.05304)
(0.995483 -0.0438946 0.270539 -0.0244747 0.954306 -0.261828 -0.0231017 -0.0107726 1.05304)
(1.00593 -0.0347914 0.311895 -0.0153714 0.943856 -0.210871 -0.0208801 -0.0146204 1.05304)
(1.01264 -0.022663 0.343774 -0.00324292 0.93715 -0.153508 -0.0180241 -0.0180241 1.05304)
(1.01479 -0.00897216 0.365208 0.010448 0.934996 -0.0914798 -0.0146204 -0.0208801 1.05304)
(1.01214 0.00462945 0.375545 0.0240497 0.937655 -0.0266722 -0.0107725 -0.0231017 1.05304)
(1.00498 0.0165018 0.374471 0.0359219 0.944805 0.0389456 -0.00659721 -0.0246212 1.05304)
(0.994205 0.0252124 0.362019 0.0446325 0.955584 0.10338 -0.00222162 -0.0253929 1.05304)
(0.981097 0.0297109 0.338568 0.0491309 0.968693 0.164674 0.00222154 -0.0253929 1.05304)
(0.96724 0.0294547 0.304829 0.0488746 0.98255 0.220964 0.00659731 -0.0246215 1.05304)
(0.954306 0.0244747 0.261828 0.0438946 0.995483 0.270539 0.0107726 -0.0231017 1.05304)
(0.943856 0.0153714 0.210871 0.0347914 1.00593 0.311895 0.0146204 -0.0208801 1.05304)
(0.93715 0.00324292 0.153508 0.022663 1.01264 0.343774 0.0180241 -0.0180241 1.05304)
(0.934996 -0.010448 0.0914798 0.00897216 1.01479 0.365208 0.0208801 -0.0146204 1.05304)
(0.937655 -0.0240496 0.0266722 -0.00462945 1.01214 0.375545 0.0231017 -0.0107725 1.05304)
(0.944805 -0.0359219 -0.0389456 -0.0165018 1.00498 0.374471 0.0246212 -0.00659721 1.05304)
(0.955584 -0.0446325 -0.10338 -0.0252124 0.994205 0.362019 0.0253929 -0.00222162 1.05304)
(0.968693 -0.0491309 -0.164674 -0.0297109 0.981097 0.338568 0.0253929 0.00222154 1.05304)
(0.98255 -0.0488746 -0.220964 -0.0294547 0.96724 0.304829 0.0246215 0.00659731 1.05304)
(0.995483 -0.0438946 -0.270539 -0.0244747 0.954306 0.261828 0.0231017 0.0107726 1.05304)
(1.00593 -0.0347914 -0.311895 -0.0153714 0.943856 0.210871 0.0208801 0.0146204 1.05304)
(1.01264 -0.022663 -0.343774 -0.00324292 0.93715 0.153508 0.0180241 0.0180241 1.05304)
(1.01479 -0.00897216 -0.365208 0.010448 0.934996 0.0914798 0.0146204 0.0208801 1.05304)
(1.01214 0.00462945 -0.375545 0.0240497 0.937655 0.0266722 0.0107725 0.0231017 1.05304)
(1.00498 0.0165018 -0.374471 0.0359219 0.944805 -0.0389456 0.00659721 0.0246212 1.05304)
(0.994205 0.0252124 -0.362019 0.0446325 0.955584 -0.10338 0.00222163 0.0253929 1.05304)
(0.981097 0.0297109 -0.338568 0.0491309 0.968693 -0.164674 -0.00222154 0.0253929 1.05304)
(0.96724 0.0294547 -0.304829 0.0488746 0.98255 -0.220964 -0.00659731 0.0246215 1.05304)
(0.954306 0.0244747 -0.261828 0.0438946 0.995483 -0.270539 -0.0107726 0.0231017 1.05304)
(0.943856 0.0153714 -0.210871 0.0347914 1.00593 -0.311895 -0.0146204 0.0208801 1.05304)
(0.93715 0.00324291 -0.153508 0.022663 1.01264 -0.343774 -0.0180241 0.0180241 1.05304)
(0.934996 -0.010448 -0.0914798 0.00897216 1.01479 -0.365208 -0.0208801 0.0146204 1.05304)
(0.937655 -0.0240497 -0.0266722 -0.00462945 1.01214 -0.375545 -0.0231017 0.0107725 1.05304)
(0.944805 -0.0359219 0.0389456 -0.0165018 1.00498 -0.374471 -0.0246212 0.00659721 1.05304)
(0.955584 -0.0446325 0.10338 -0.0252124 0.994205 -0.362019 -0.0253929 0.00222162 1.05304)
(0.962907 -0.0907983 0.149704 -0.0782982 0.939107 -0.289253 -0.0694536 -0.00607656 1.11314)
(0.991106 -0.0816295 0.197658 -0.0691294 0.910907 -0.258863 -0.0673435 -0.0180447 1.11314)
(1.01447 -0.063369 0.239606 -0.050869 0.887545 -0.220607 -0.0631871 -0.0294643 1.11314)
(1.03018 -0.0382189 0.274274 -0.0257188 0.871836 -0.175649 -0.0571103 -0.0399887 1.11314)
(1.03634 -0.00921284 0.300608 0.00328755 0.865677 -0.125353 -0.0492984 -0.0492984 1.11314)
(1.0322 0.0201505 0.317809 0.032651 0.86981 -0.0712486 -0.039989 -0.0571103 1.11314)
(1.01828 0.0463294 0.325352 0.05883 0.883736 -0.0149793 -0.0294643 -0.0631865 1.11314)
(0.996238 0.0661666 0.323011 0.0786671 0.905776 0.0417452 -0.0180444 -0.0673431 1.11314)
(0.968742 0.0772694 0.310854 0.0897696 0.933272 0.0972013 -0.00607628 -0.0694535 1.11314)
(0.939107 0.0782982 0.289253 0.0907983 0.962907 0.149704 0.00607656 -0.0694536 1.11314)
(0.910907 0.0691295 0.258863 0.0816295 0.991106 0.197658 0.0180447 -0.0673435 1.11314)
(0.887545 0.050869 0.220607 0.063369 1.01447 0.239606 0.0294643 -0.0631871 1.11314)
(0.871836 0.0257188 0.175649 0.0382189 1.03018 0.274274 0.0399887 -0.0571103 1.11314)
(0.865677 -0.00328755 0.125353 0.00921284 1.03634 0.300608 0.0492984 -0.0492984 1.11314)
(0.86981 -0.032651 0.0712486 -0.0201505 1.0322 0.317809 0.0571103 -0.039989 1.11314)
(0.883736 -0.05883 0.0149793 -0.0463294 1.01828 0.325352 0.0631865 -0.0294643 1.11314)
(0.905776 -0.0786671 -0.0417452 -0.0661666 0.996238 0.323011 0.0673431 -0.0180444 1.11314)
(0.933272 -0.0897696 -0.0972013 -0.0772694 0.968742 0.310854 0.0694535 -0.00607629 1.11314)
(0.962907 -0.0907983 -0.149704 -0.0782982 0.939107 0.289253 0.0694536 0.00607655 1.11314)
(0.991106 -0.0816295 -0.197658 -0.0691295 0.910907 0.258863 0.0673435 0.0180447 1.11314)
(1.01447 -0.063369 -0.239606 -0.050869 0.887545 0.220607 0.0631871 0.0294643 1.11314)
(1.03018 -0.0382189 -0.274274 -0.0257188 0.871836 0.175649 0.0571103 0.0399887 1.11314)
(1.03634 -0.00921284 -0.300608 0.00328755 0.865677 0.125353 0.0492984 0.0492984 1.11314)
(1.0322 0.0201505 -0.317809 0.032651 0.86981 0.0712486 0.039989 0.0571103 1.11314)
(1.01828 0.0463294 -0.325352 0.05883 0.883736 0.0149793 0.0294643 0.0631865 1.11314)
(0.996238 0.0661666 -0.323011 0.0786671 0.905776 -0.0417452 0.0180444 0.0673431 1.11314)
(0.968742 0.0772694 -0.310854 0.0897696 0.933272 -0.0972013 0.00607629 0.0694535 1.11314)
(0.939107 0.0782982 -0.289253 0.0907983 0.962907 -0.149704 -0.00607655 0.0694536 1.11314)
(0.910907 0.0691294 -0.258863 0.0816295 0.991106 -0.197658 -0.0180447 0.0673435 1.11314)
(0.887545 0.050869 -0.220607 0.063369 1.01447 -0.239606 -0.0294643 0.0631871 1.11314)
(0.871836 0.0257188 -0.175649 0.0382189 1.03018 -0.274274 -0.0399887 0.0571103 1.11314)
(0.865677 -0.00328756 -0.125353 0.00921284 1.03634 -0.300608 -0.0492984 0.0492984 1.11314)
(0.86981 -0.032651 -0.0712486 -0.0201505 1.0322 -0.317809 -0.0571103 0.039989 1.11314)
(0.883736 -0.05883 -0.0149793 -0.0463294 1.01828 -0.325352 -0.0631865 0.0294643 1.11314)
(0.905776 -0.0786671 0.0417452 -0.0661666 0.996238 -0.323011 -0.0673431 0.0180444 1.11314)
(0.933272 -0.0897696 0.0972013 -0.0772694 0.968742 -0.310854 -0.0694535 0.00607628 1.11314)
(0.976589 -0.109982 0.15675 -0.077645 0.938138 -0.313204 -0.0692811 -0.00606138 1.09275)
(1.00752 -0.0977487 0.208756 -0.065412 0.907212 -0.281227 -0.0671763 -0.0179999 1.09275)
(1.03239 -0.0756758 0.254419 -0.0433392 0.882334 -0.240704 -0.0630301 -0.0293913 1.09275)
(1.04822 -0.0464257 0.292351 -0.0140886 0.866506 -0.192868 -0.0569684 -0.0398895 1.09275)
(1.05309 -0.0135258 0.321401 0.0188115 0.861637 -0.139172 -0.049176 -0.049176 1.09275)
(1.04641 0.0190554 0.340685 0.0513927 0.868314 -0.0812466 -0.0398896 -0.0569684 1.09275)
(1.029 0.0473878 0.349618 0.0797252 0.885732 -0.020853 -0.0293912 -0.0630297 1.09275)
(1.00294 0.0680547 0.347927 0.100392 0.911789 0.0401744 -0.0179997 -0.0671759 1.09275)
(0.971384 0.0785629 0.335665 0.1109 0.943344 0.099981 -0.00606127 -0.0692811 1.09275)
(0.938138 0.077645 0.313204 0.109982 0.976589 0.15675 0.00606138 -0.0692811 1.09275)
(0.907212 0.065412 0.281227 0.0977487 1.00752 0.208756 0.0179999 -0.0671763 1.09275)
(0.882334 0.0433392 0.240704 0.0756758 1.03239 0.254419 0.0293913 -0.0630301 1.09275)
(0.866506 0.0140886 0.192868 0.0464257 1.04822 0.292351 0.0398895 -0.0569684 1.09275)
(0.861637 -0.0188115 0.139172 0.0135258 1.05309 0.321401 0.049176 -0.049176 1.09275)
(0.868314 -0.0513927 0.0812466 -0.0190554 1.04641 0.340685 0.0569684 -0.0398896 1.09275)
(0.885732 -0.0797251 0.020853 -0.0473878 1.029 0.349618 0.0630297 -0.0293912 1.09275)
(0.911789 -0.100392 -0.0401745 -0.0680547 1.00294 0.347927 0.0671759 -0.0179997 1.09275)
(0.943344 -0.1109 -0.0999811 -0.0785629 0.971384 0.335665 0.0692811 -0.00606127 1.09275)
(0.976589 -0.109982 -0.15675 -0.077645 0.938138 0.313204 0.0692811 0.00606137 1.09275)
(1.00752 -0.0977487 -0.208756 -0.065412 0.907212 0.281227 0.0671763 0.0179999 1.09275)
(1.03239 -0.0756758 -0.254419 -0.0433392 0.882334 0.240704 0.0630301 0.0293913 1.09275)
(1.04822 -0.0464257 -0.292351 -0.0140886 0.866506 0.192868 0.0569684 0.0398895 1.09275)
(1.05309 -0.0135258 -0.321401 0.0188115 0.861637 0.139172 0.049176 0.049176 1.09275)
(1.04641 0.0190554 -0.340685 0.0513927 0.868314 0.0812466 0.0398896 0.0569684 1.09275)
(1.029 0.0473878 -0.349618 0.0797252 0.885732 0.020853 0.0293912 0.0630297 1.09275)
(1.00294 0.0680547 -0.347927 0.100392 0.911789 -0.0401745 0.0179997 0.0671759 1.09275)
(0.971384 0.0785629 -0.335665 0.1109 0.943344 -0.0999811 0.00606128 0.0692811 1.09275)
(0.938138 0.077645 -0.313204 0.109982 0.976589 -0.15675 -0.00606137 0.0692811 1.09275)
(0.907212 0.065412 -0.281227 0.0977487 1.00752 -0.208756 -0.0179999 0.0671763 1.09275)
(0.882334 0.0433392 -0.240704 0.0756758 1.03239 -0.254419 -0.0293913 0.0630301 1.09275)
(0.866506 0.0140886 -0.192868 0.0464257 1.04822 -0.292351 -0.0398895 0.0569684 1.09275)
(0.861637 -0.0188115 -0.139172 0.0135258 1.05309 -0.321401 -0.049176 0.049176 1.09275)
(0.868314 -0.0513927 -0.0812466 -0.0190554 1.04641 -0.340685 -0.0569684 0.0398896 1.09275)
(0.885732 -0.0797252 -0.020853 -0.0473878 1.029 -0.349618 -0.0630297 0.0293912 1.09275)
(0.911789 -0.100392 0.0401744 -0.0680547 1.00294 -0.347927 -0.0671759 0.0179997 1.09275)
(0.943344 -0.1109 0.099981 -0.0785629 0.971384 -0.335665 -0.0692811 0.00606127 1.09275)
(0.991417 -0.1339 0.16621 -0.0745341 0.933855 -0.335794 -0.0679188 -0.00594206 1.07294)
(1.02533 -0.117771 0.221995 -0.0584055 0.899946 -0.301831 -0.0658554 -0.0176459 1.07294)
(1.05167 -0.0910178 0.271034 -0.031652 0.873599 -0.258696 -0.0617906 -0.0288135 1.07294)
(1.06728 -0.0568666 0.311839 0.00249944 0.857991 -0.207702 -0.0558482 -0.0391054 1.07294)
(1.07027 -0.0194366 0.343168 0.0399297 0.855004 -0.150396 -0.0482091 -0.0482091 1.07294)
(1.06027 0.0167578 0.364071 0.0761241 0.865 -0.0885205 -0.0391053 -0.0558482 1.07294)
(1.0385 0.0473505 0.373911 0.106717 0.886772 -0.0239554 -0.0288132 -0.0617903 1.07294)
(1.00758 0.0686519 0.37239 0.128018 0.917694 0.0413376 -0.0176458 -0.0658549 1.07294)
(0.971235 0.0780927 0.359555 0.137459 0.954037 0.105375 -0.00594215 -0.0679187 1.07294)
(0.933855 0.0745341 0.335794 0.1339 0.991417 0.16621 0.00594206 -0.0679188 1.07294)
(0.899946 0.0584055 0.301831 0.117771 1.02533 0.221995 0.0176459 -0.0658554 1.07294)
(0.873599 0.031652 0.258696 0.0910178 1.05167 0.271034 0.0288135 -0.0617906 1.07294)
(0.857991 -0.00249944 0.207702 0.0568666 1.06728 0.311839 0.0391054 -0.0558482 1.07294)
(0.855004 -0.0399297 0.150396 0.0194366 1.07027 0.343168 0.0482091 -0.0482091 1.07294)
(0.865 -0.0761241 0.0885205 -0.0167578 1.06027 0.364071 0.0558482 -0.0391053 1.07294)
(0.886772 -0.106717 0.0239554 -0.0473505 1.0385 0.373911 0.0617903 -0.0288132 1.07294)
(0.917694 -0.128018 -0.0413376 -0.0686519 1.00758 0.37239 0.0658549 -0.0176458 1.07294)
(0.954037 -0.137459 -0.105375 -0.0780927 0.971235 0.359555 0.0679187 -0.00594215 1.07294)
(0.991417 -0.1339 -0.16621 -0.0745341 0.933855 0.335794 0.0679188 0.00594206 1.07294)
(1.02533 -0.117771 -0.221995 -0.0584055 0.899946 0.301831 0.0658554 0.0176458 1.07294)
(1.05167 -0.0910178 -0.271034 -0.031652 0.873599 0.258696 0.0617906 0.0288135 1.07294)
(1.06728 -0.0568666 -0.311839 0.00249944 0.857991 0.207702 0.0558482 0.0391053 1.07294)
(1.07027 -0.0194366 -0.343168 0.0399297 0.855004 0.150396 0.0482091 0.0482091 1.07294)
(1.06027 0.0167577 -0.364071 0.0761241 0.865 0.0885205 0.0391053 0.0558482 1.07294)
(1.0385 0.0473505 -0.373911 0.106717 0.886772 0.0239554 0.0288132 0.0617903 1.07294)
(1.00758 0.0686519 -0.37239 0.128018 0.917694 -0.0413376 0.0176458 0.0658549 1.07294)
(0.971235 0.0780927 -0.359555 0.137459 0.954037 -0.105375 0.00594215 0.0679187 1.07294)
(0.933855 0.0745341 -0.335794 0.1339 0.991417 -0.16621 -0.00594206 0.0679188 1.07294)
(0.899946 0.0584055 -0.301831 0.117771 1.02533 -0.221995 -0.0176458 0.0658554 1.07294)
(0.873599 0.031652 -0.258696 0.0910178 1.05167 -0.271034 -0.0288135 0.0617906 1.07294)
(0.857991 -0.00249945 -0.207702 0.0568666 1.06728 -0.311839 -0.0391053 0.0558482 1.07294)
(0.855004 -0.0399297 -0.150396 0.0194366 1.07027 -0.343168 -0.0482091 0.0482091 1.07294)
(0.865 -0.0761242 -0.0885205 -0.0167578 1.06027 -0.364071 -0.0558482 0.0391053 1.07294)
(0.886772 -0.106717 -0.0239554 -0.0473505 1.0385 -0.373911 -0.0617903 0.0288132 1.07294)
(0.917694 -0.128018 0.0413376 -0.0686519 1.00758 -0.37239 -0.0658549 0.0176458 1.07294)
(0.954037 -0.137459 0.105375 -0.0780927 0.971235 -0.359555 -0.0679187 0.00594215 1.07294)
(0.982002 -0.147375 0.147407 -0.115992 0.905265 -0.287126 -0.103112 -0.00902126 1.14509)
(1.02473 -0.126311 0.195026 -0.0949281 0.86254 -0.257167 -0.0999791 -0.0267893 1.14509)
(1.05767 -0.0919043 0.23672 -0.0605217 0.829597 -0.219394 -0.0938083 -0.0437433 1.14509)
(1.07686 -0.0483054 0.271221 -0.0169227 0.810407 -0.174955 -0.084787 -0.0593682 1.14509)
(1.07998 -0.000772766 0.297481 0.0306102 0.807288 -0.1252 -0.0731895 -0.0731892 1.14509)
(1.06665 0.0449605 0.314702 0.0763436 0.820613 -0.0716408 -0.0593683 -0.0847865 1.14509)
(1.03849 0.0833782 0.322362 0.114761 0.848776 -0.0159049 -0.0437431 -0.0938077 1.14509)
(0.998886 0.109847 0.320226 0.14123 0.888381 0.0403143 -0.0267889 -0.0999786 1.14509)
(0.952617 0.121174 0.308361 0.152557 0.934649 0.0953084 -0.00902083 -0.103112 1.14509)
(0.905265 0.115992 0.287126 0.147375 0.982002 0.147407 0.00902126 -0.103112 1.14509)
(0.86254 0.0949281 0.257167 0.126311 1.02473 0.195026 0.0267893 -0.0999791 1.14509)
(0.829597 0.0605218 0.219394 0.0919043 1.05767 0.23672 0.0437433 -0.0938083 1.14509)
(0.810407 0.0169227 0.174955 0.0483054 1.07686 0.271221 0.0593682 -0.084787 1.14509)
(0.807288 -0.0306101 0.1252 0.000772769 1.07998 0.297481 0.0731892 -0.0731894 1.14509)
(0.820613 -0.0763436 0.0716407 -0.0449605 1.06665 0.314702 0.0847865 -0.0593683 1.14509)
(0.848776 -0.114761 0.0159049 -0.0833782 1.03849 0.322362 0.0938077 -0.0437431 1.14509)
(0.888381 -0.14123 -0.0403143 -0.109847 0.998886 0.320226 0.0999786 -0.0267889 1.14509)
(0.934649 -0.152557 -0.0953084 -0.121174 0.952617 0.308361 0.103112 -0.00902083 1.14509)
(0.982002 -0.147375 -0.147407 -0.115992 0.905265 0.287126 0.103112 0.00902125 1.14509)
(1.02473 -0.126311 -0.195026 -0.0949281 0.86254 0.257167 0.0999791 0.0267893 1.14509)
(1.05767 -0.0919043 -0.23672 -0.0605218 0.829597 0.219394 0.0938083 0.0437433 1.14509)
(1.07686 -0.0483054 -0.271221 -0.0169227 0.810407 0.174955 0.084787 0.0593682 1.14509)
(1.07998 -0.00077277 -0.297481 0.0306101 0.807288 0.1252 0.0731894 0.0731892 1.14509)
(1.06665 0.0449605 -0.314702 0.0763436 0.820613 0.0716407 0.0593683 0.0847865 1.14509)
(1.03849 0.0833782 -0.322362 0.114761 0.848776 0.0159049 0.0437431 0.0938077 1.14509)
(0.998886 0.109847 -0.320226 0.14123 0.888381 -0.0403143 0.0267889 0.0999786 1.14509)
(0.952617 0.121174 -0.308361 0.152557 0.934649 -0.0953084 0.00902084 0.103112 1.14509)
(0.905265 0.115992 -0.287126 0.147375 0.982002 -0.147407 -0.00902125 0.103112 1.14509)
(0.86254 0.0949281 -0.257167 0.126311 1.02473 -0.195026 -0.0267893 0.0999791 1.14509)
(0.829597 0.0605217 -0.219394 0.0919043 1.05767 -0.23672 -0.0437433 0.0938083 1.14509)
(0.810407 0.0169227 -0.174955 0.0483054 1.07686 -0.271221 -0.0593682 0.084787 1.14509)
(0.807288 -0.0306102 -0.1252 0.000772773 1.07998 -0.297481 -0.0731892 0.0731894 1.14509)
(0.820613 -0.0763436 -0.0716408 -0.0449605 1.06665 -0.314702 -0.0847865 0.0593683 1.14509)
(0.848776 -0.114761 -0.0159049 -0.0833782 1.03849 -0.322362 -0.0938077 0.0437431 1.14509)
(0.888381 -0.14123 0.0403143 -0.109847 0.998886 -0.320226 -0.0999786 0.0267889 1.14509)
(0.934649 -0.152557 0.0953084 -0.121174 0.952617 -0.308361 -0.103112 0.00902082 1.14509)
(0.998463 -0.177277 0.156306 -0.113516 0.899504 -0.303617 -0.102607 -0.00897701 1.12987)
(1.04521 -0.151585 0.206654 -0.0878248 0.85276 -0.271862 -0.0994892 -0.0266581 1.12987)
(1.08035 -0.111456 0.250723 -0.0476953 0.817621 -0.231846 -0.0933486 -0.0435291 1.12987)
(1.09964 -0.0617283 0.287173 0.00203237 0.798327 -0.184786 -0.0843715 -0.0590773 1.12987)
(1.10076 -0.00840056 0.314898 0.0553603 0.797204 -0.132112 -0.0728308 -0.0728307 1.12987)
(1.08358 0.0420951 0.333055 0.105856 0.814388 -0.0754233 -0.0590773 -0.0843711 1.12987)
(1.05016 0.0836681 0.341093 0.147429 0.847806 -0.0164431 -0.0435289 -0.093348 1.12987)
(1.00454 0.111304 0.338766 0.175066 0.893428 0.0430369 -0.0266578 -0.0994886 1.12987)
(0.952217 0.121671 0.326146 0.185432 0.945751 0.101209 -0.00897682 -0.102607 1.12987)
(0.899504 0.113516 0.303616 0.177277 0.998463 0.156306 0.00897701 -0.102607 1.12987)
(0.85276 0.0878248 0.271862 0.151585 1.04521 0.206654 0.026658 -0.0994892 1.12987)
(0.817621 0.0476953 0.231846 0.111456 1.08035 0.250723 0.0435291 -0.0933486 1.12987)
(0.798327 -0.00203236 0.184786 0.0617283 1.09964 0.287173 0.0590773 -0.0843715 1.12987)
(0.797204 -0.0553603 0.132112 0.00840057 1.10076 0.314898 0.0728307 -0.0728308 1.12987)
(0.814388 -0.105856 0.0754233 -0.0420951 1.08358 0.333055 0.0843711 -0.0590773 1.12987)
(0.847806 -0.147429 0.0164431 -0.0836681 1.05016 0.341093 0.093348 -0.0435289 1.12987)
(0.893428 -0.175066 -0.0430369 -0.111304 1.00454 0.338766 0.0994886 -0.0266578 1.12987)
(0.945751 -0.185432 -0.101209 -0.121671 0.952217 0.326146 0.102607 -0.00897683 1.12987)
(0.998463 -0.177277 -0.156306 -0.113516 0.899504 0.303616 0.102607 0.00897701 1.12987)
(1.04521 -0.151585 -0.206654 -0.0878248 0.85276 0.271862 0.0994892 0.026658 1.12987)
(1.08035 -0.111456 -0.250723 -0.0476953 0.817621 0.231846 0.0933486 0.0435291 1.12987)
(1.09964 -0.0617283 -0.287173 0.00203236 0.798327 0.184786 0.0843715 0.0590773 1.12987)
(1.10076 -0.00840057 -0.314898 0.0553603 0.797204 0.132112 0.0728308 0.0728306 1.12987)
(1.08358 0.0420951 -0.333055 0.105856 0.814388 0.0754233 0.0590773 0.0843711 1.12987)
(1.05016 0.0836681 -0.341093 0.147429 0.847806 0.0164431 0.0435289 0.093348 1.12987)
(1.00454 0.111304 -0.338766 0.175066 0.893428 -0.0430369 0.0266578 0.0994886 1.12987)
(0.952217 0.121671 -0.326146 0.185432 0.945751 -0.101209 0.00897683 0.102607 1.12987)
(0.899504 0.113516 -0.303616 0.177277 0.998463 -0.156306 -0.008977 0.102607 1.12987)
(0.85276 0.0878248 -0.271862 0.151585 1.04521 -0.206654 -0.026658 0.0994892 1.12987)
(0.817621 0.0476953 -0.231846 0.111456 1.08035 -0.250723 -0.0435291 0.0933486 1.12987)
(0.798327 -0.00203237 -0.184786 0.0617283 1.09964 -0.287173 -0.0590773 0.0843715 1.12987)
(0.797204 -0.0553603 -0.132112 0.00840057 1.10076 -0.314898 -0.0728306 0.0728308 1.12987)
(0.814388 -0.105856 -0.0754233 -0.0420951 1.08358 -0.333055 -0.0843711 0.0590773 1.12987)
(0.847806 -0.147429 -0.0164431 -0.0836681 1.05016 -0.341093 -0.093348 0.0435289 1.12987)
(0.893428 -0.175066 0.0430369 -0.111304 1.00454 -0.338766 -0.0994886 0.0266577 1.12987)
(0.945751 -0.185432 0.101209 -0.121671 0.952217 -0.326146 -0.102607 0.00897682 1.12987)
(1.01592 -0.213996 0.167136 -0.106995 0.888956 -0.31771 -0.100573 -0.00879896 1.11517)
(1.06699 -0.182604 0.219767 -0.0756032 0.837892 -0.28386 -0.0975172 -0.0261297 1.11517)
(1.10424 -0.13564 0.26572 -0.0286394 0.800644 -0.241385 -0.0914983 -0.0426664 1.11517)
(1.12318 -0.0787694 0.303599 0.0282317 0.781705 -0.191576 -0.082699 -0.0579065 1.11517)
(1.12152 -0.0188506 0.332253 0.0881508 0.783359 -0.135947 -0.0713871 -0.0713872 1.11517)
(1.09947 0.036889 0.350813 0.14389 0.805407 -0.0761861 -0.0579063 -0.0826988 1.11517)
(1.05969 0.0817261 0.358713 0.188728 0.84519 -0.0141107 -0.0426661 -0.0914977 1.11517)
(1.00697 0.110253 0.355713 0.217254 0.897908 0.0483934 -0.0261295 -0.0975167 1.11517)
(0.947678 0.119029 0.341906 0.22603 0.957204 0.109427 -0.00879903 -0.100573 1.11517)
(0.888956 0.106995 0.31771 0.213996 1.01592 0.167136 0.00879896 -0.100573 1.11517)
(0.837892 0.0756032 0.28386 0.182604 1.06699 0.219767 0.0261297 -0.0975172 1.11517)
(0.800644 0.0286394 0.241385 0.13564 1.10424 0.26572 0.0426664 -0.0914983 1.11517)
(0.781705 -0.0282317 0.191576 0.0787694 1.12318 0.303599 0.0579065 -0.082699 1.11517)
(0.783359 -0.0881508 0.135947 0.0188506 1.12152 0.332253 0.0713872 -0.0713871 1.11517)
(0.805407 -0.14389 0.0761861 -0.036889 1.09947 0.350813 0.0826988 -0.0579063 1.11517)
(0.84519 -0.188728 0.0141107 -0.0817261 1.05969 0.358713 0.0914977 -0.0426661 1.11517)
(0.897908 -0.217254 -0.0483935 -0.110253 1.00697 0.355713 0.0975167 -0.0261295 1.11517)
(0.957204 -0.22603 -0.109427 -0.119029 0.947677 0.341906 0.100573 -0.00879903 1.11517)
(1.01592 -0.213996 -0.167136 -0.106995 0.888956 0.31771 0.100573 0.00879895 1.11517)
(1.06699 -0.182604 -0.219767 -0.0756032 0.837892 0.28386 0.0975172 0.0261297 1.11517)
(1.10424 -0.13564 -0.26572 -0.0286394 0.800644 0.241385 0.0914983 0.0426664 1.11517)
(1.12318 -0.0787694 -0.303599 0.0282317 0.781705 0.191576 0.082699 0.0579065 1.11517)
(1.12152 -0.0188506 -0.332253 0.0881508 0.783359 0.135947 0.0713871 0.0713871 1.11517)
(1.09947 0.036889 -0.350813 0.14389 0.805407 0.0761861 0.0579063 0.0826988 1.11517)
(1.05969 0.0817261 -0.358713 0.188728 0.84519 0.0141107 0.0426661 0.0914977 1.11517)
(1.00697 0.110253 -0.355713 0.217254 0.897908 -0.0483935 0.0261295 0.0975167 1.11517)
(0.947678 0.119029 -0.341906 0.22603 0.957204 -0.109427 0.00879903 0.100573 1.11517)
(0.888956 0.106995 -0.31771 0.213996 1.01592 -0.167136 -0.00879895 0.100573 1.11517)
(0.837892 0.0756032 -0.28386 0.182604 1.06699 -0.219767 -0.0261296 0.0975172 1.11517)
(0.800644 0.0286394 -0.241385 0.13564 1.10424 -0.26572 -0.0426664 0.0914983 1.11517)
(0.781705 -0.0282317 -0.191576 0.0787694 1.12318 -0.303599 -0.0579065 0.082699 1.11517)
(0.783359 -0.0881508 -0.135947 0.0188506 1.12152 -0.332253 -0.0713871 0.0713871 1.11517)
(0.805407 -0.14389 -0.0761861 -0.036889 1.09947 -0.350813 -0.0826988 0.0579063 1.11517)
(0.84519 -0.188728 -0.0141107 -0.0817261 1.05969 -0.358713 -0.0914977 0.0426661 1.11517)
(0.897908 -0.217254 0.0483934 -0.110253 1.00697 -0.355713 -0.0975167 0.0261295 1.11517)
(0.957204 -0.22603 0.109427 -0.119029 0.947677 -0.341906 -0.100573 0.00879902 1.11517)
(1.00609 -0.204932 0.144633 -0.13382 0.873587 -0.279342 -0.125651 -0.0109934 1.17395)
(1.06002 -0.172058 0.190943 -0.100946 0.819652 -0.249983 -0.121834 -0.0326454 1.17395)
(1.09946 -0.12272 0.231451 -0.0516087 0.780213 -0.213028 -0.114314 -0.0533055 1.17395)
(1.11965 -0.0628695 0.264927 0.00824233 0.760028 -0.1696 -0.103321 -0.072346 1.17395)
(1.11814 0.000275833 0.290352 0.0713879 0.76153 -0.12102 -0.0891885 -0.0891882 1.17395)
(1.09514 0.0590995 0.306956 0.130212 0.784538 -0.0687618 -0.072346 -0.10332 1.17395)
(1.0534 0.106506 0.314233 0.177618 0.826278 -0.0144147 -0.0533054 -0.114313 1.17395)