/*--------------------------------*- C++ -*----------------------------------*\
| =========                 |                                                 |
| \\      /  F ield         | OpenFOAM: The Open Source CFD Toolbox           |
|  \\    /   O peration     | Version:  2312                                  |
|   \\  /    A nd           | Website:  www.openfoam.com                      |
|    \\/     M anipulation  |                                                 |
\*---------------------------------------------------------------------------*/
FoamFile
{
    version     2.0;
    format      ascii;
    arch        "LSB;label=32;scalar=64";
    class       volTensorField;
    location    "0.4";
    object      F;
}
// * * * * * * * * * * * * * * * * * * * * * * * * * * * * * * * * * * * * * //

dimensions      [0 0 0 0 0 0 0];

internalField   nonuniform List<tensor> 
1620
(
(0.900489 0.00208363 0.0652738 0.0123184 1.04146 0.00214828 -0.0469976 -0.00216762 1.08368)
(0.912459 -0.00464453 0.0520263 0.0058914 1.03689 -0.0657557 -0.0533237 -0.00342687 1.07376)
(0.933932 -0.00669423 0.0381349 0.00518296 1.03162 -0.116459 -0.0500771 -0.00658924 1.05249)
(0.956995 -0.00150426 0.0227196 0.00740129 1.03117 -0.149718 -0.0439193 -0.00720209 1.02358)
(0.977141 0.0101972 0.0052975 0.0113949 1.03944 -0.170166 -0.0369533 -0.00299321 0.987984)
(0.992339 0.0245231 -0.0134603 0.0143788 1.05826 -0.183529 -0.0300805 0.00886291 0.945493)
(1.00212 0.0349748 -0.0321846 0.0136172 1.08698 -0.194538 -0.0246794 0.0317145 0.896738)
(1.00557 0.033397 -0.05016 0.00805207 1.12032 -0.205956 -0.0202165 0.0664135 0.846747)
(1.00724 0.0181736 -0.0677299 -0.00358547 1.14356 -0.218541 -0.00841294 0.102222 0.808831)
(1.01348 -0.00366237 -0.0831806 -0.0175848 1.14553 -0.231277 0.00658558 0.100547 0.798884)
(1.0218 -0.0277045 -0.0878197 -0.0273364 1.12458 -0.243213 0.0145369 0.0666281 0.821783)
(1.02568 -0.0374309 -0.0848131 -0.0298885 1.09164 -0.253142 0.0159804 0.0365528 0.861282)
(1.02409 -0.0328866 -0.0784541 -0.0254821 1.05989 -0.259314 0.0199839 0.0162314 0.903186)
(1.01632 -0.0203528 -0.0707679 -0.0150778 1.03632 -0.259501 0.0265467 0.00440174 0.941887)
(1.0011 -0.00610443 -0.061819 -0.00171361 1.02371 -0.250301 0.0345386 -0.00120995 0.976265)
(0.978767 0.0050042 -0.0510891 0.0105057 1.02205 -0.227261 0.043295 -0.00225437 1.00654)
(0.953027 0.0104702 -0.0381964 0.018455 1.02845 -0.186017 0.0507344 -0.000259332 1.03194)
(0.932506 0.0102054 -0.0232279 0.0163791 1.03789 -0.125493 0.0503706 0.000743646 1.04856)
(0.929523 0.00592539 -0.00896821 0.00744669 1.04123 -0.0553384 0.0519207 -0.00120887 1.04942)
(0.944153 0.00182187 0.00317075 0.0028035 1.03763 0.00980122 0.0540046 0.00169495 1.03494)
(0.964352 0.000928363 0.0140929 0.00473837 1.03416 0.0590197 0.0468476 0.00637426 1.01357)
(0.982747 0.00500164 0.023803 0.00929711 1.03492 0.0923388 0.038341 0.00846274 0.989749)
(0.996318 0.0134566 0.0326413 0.0142753 1.04269 0.113933 0.0308588 0.00639822 0.963726)
(1.00476 0.0236665 0.0408374 0.0168418 1.05901 0.12878 0.0250792 -0.00213105 0.933453)
(1.00882 0.0308085 0.048803 0.0149822 1.08431 0.141079 0.0219933 -0.0208452 0.896955)
(1.00767 0.0278412 0.0580633 0.00859151 1.11551 0.153454 0.0204434 -0.0524748 0.856364)
(1.00619 0.0139259 0.07107 -0.00344866 1.13919 0.16675 0.0106353 -0.0893933 0.822633)
(1.01042 -0.0064444 0.0872564 -0.0178761 1.14397 0.179885 -0.00310278 -0.0926431 0.80992)
(1.01724 -0.0293989 0.097512 -0.0285102 1.12554 0.192425 -0.0101718 -0.0660696 0.827855)
(1.0201 -0.0391705 0.103052 -0.0319104 1.09387 0.203506 -0.0113199 -0.041073 0.863803)
(1.01754 -0.0349404 0.106497 -0.0274396 1.06175 0.211402 -0.0147393 -0.0232679 0.905006)
(1.00801 -0.022016 0.108387 -0.016015 1.03702 0.213391 -0.0204777 -0.0121773 0.945787)
(0.9899 -0.00668848 0.107537 -0.00094658 1.02346 0.205304 -0.0276154 -0.00629899 0.984327)
(0.963603 0.00540729 0.102585 0.0132113 1.02163 0.182019 -0.035648 -0.0044745 1.02012)
(0.933235 0.0108284 0.0929986 0.0228632 1.02856 0.138946 -0.042765 -0.00548608 1.05199)
(0.908046 0.00899066 0.079432 0.0220639 1.03827 0.075455 -0.0428548 -0.0054849 1.07583)
(0.916695 0.00258126 0.0309855 0.0139122 1.04798 0.0185457 -0.0515485 0.0013416 1.04773)
(0.930466 -0.0105117 0.0203184 0.00857829 1.0412 -0.0440196 -0.0510992 -0.000931568 1.03556)
(0.953884 -0.0135448 0.0122062 0.00883326 1.03343 -0.0906015 -0.0454127 -0.00707943 1.01479)
(0.977386 -0.00662971 0.00402588 0.0139264 1.0311 -0.121641 -0.0375911 -0.00842455 0.989207)
(0.995915 0.0075317 -0.00580949 0.0216899 1.03713 -0.140783 -0.0282472 -0.00508059 0.960019)
(1.00664 0.0242281 -0.0177572 0.02841 1.05314 -0.152826 -0.0174008 0.00489467 0.928356)
(1.00807 0.0367346 -0.0317346 0.0300329 1.07793 -0.162157 -0.00621703 0.0250751 0.89637)
(1.00102 0.0366215 -0.0478072 0.0221722 1.10633 -0.17185 0.00188702 0.0573423 0.867941)
(0.994584 0.0199282 -0.0656572 0.00269229 1.12625 -0.183198 0.00229748 0.0914538 0.848747)
(0.997768 -0.00829043 -0.0825114 -0.0220131 1.12822 -0.196537 -0.00428566 0.0908553 0.842984)
(1.01068 -0.0326493 -0.0918899 -0.040907 1.10995 -0.211697 -0.00516269 0.0584803 0.852407)
(1.02511 -0.0409785 -0.0927251 -0.0472852 1.07987 -0.226657 0.000334591 0.0303848 0.873367)
(1.03289 -0.0339506 -0.0866244 -0.0419989 1.05014 -0.238913 0.00857724 0.0123371 0.89973)
(1.03139 -0.0180349 -0.0751454 -0.0285214 1.02815 -0.245422 0.0175264 0.00192683 0.927237)
(1.01986 0.000254161 -0.0591898 -0.0112959 1.01743 -0.242192 0.0267746 -0.00345778 0.953507)
(0.999123 0.0150845 -0.0396528 0.00442407 1.01826 -0.224669 0.0367302 -0.00471434 0.977306)
(0.973185 0.0216061 -0.0182461 0.0141663 1.02908 -0.18892 0.046923 -0.00102658 0.997464)
(0.952462 0.0165243 0.00212779 0.0144784 1.04289 -0.133434 0.0535946 0.000317885 1.01043)
(0.949497 0.00413766 0.0173574 0.00947354 1.04681 -0.0681864 0.0549 -0.0026851 1.00972)
(0.964083 -0.00430196 0.0263198 0.00653088 1.04042 -0.00763793 0.0499881 0.0012049 0.996494)
(0.984096 -0.00395671 0.0314334 0.00974065 1.03449 0.0376112 0.0407056 0.00789695 0.97836)
(1.00094 0.00323608 0.0349412 0.0168093 1.03433 0.0683486 0.0314556 0.00947777 0.95886)
(1.01169 0.0144347 0.0383743 0.0246333 1.04132 0.0880088 0.0228897 0.00724076 0.938313)
(1.01568 0.0263818 0.0427407 0.0300616 1.0561 0.100869 0.0142932 -9.15295e-05 0.916546)
(1.01248 0.0345574 0.0491108 0.0305417 1.07804 0.110782 0.00559978 -0.0164918 0.894087)
(1.0026 0.0321116 0.05903 0.022715 1.10401 0.120482 -0.00121659 -0.0457688 0.873109)
(0.994244 0.0160229 0.0734367 0.00405096 1.12338 0.13117 -0.00214365 -0.0805138 0.858026)
(0.99553 -0.0101005 0.0903972 -0.0203871 1.1263 0.143665 0.00373331 -0.0841975 0.852918)
(1.00618 -0.0325018 0.103569 -0.0400666 1.10887 0.158638 0.00523652 -0.0579497 0.861682)
(1.01851 -0.0401361 0.111014 -0.0474541 1.079 0.174507 0.00111733 -0.0341285 0.88232)
(1.02465 -0.0326172 0.112858 -0.0423325 1.04852 0.188634 -0.00577409 -0.0181426 0.909681)
(1.02098 -0.0154982 0.109209 -0.0278895 1.02556 0.197427 -0.0136338 -0.00835976 0.939797)
(1.00599 0.00441432 0.0998186 -0.0089639 1.01449 0.196136 -0.0219982 -0.00288201 0.970182)
(0.980531 0.0202611 0.0849142 0.00853937 1.01596 0.179499 -0.031118 -0.00115083 0.999282)
(0.949273 0.0262092 0.066119 0.0196077 1.02802 0.143226 -0.040601 -0.00404343 1.02542)
(0.923479 0.0188043 0.0466877 0.0204572 1.04315 0.0860563 -0.0474971 -0.00386202 1.0442)
(0.935433 0.0017134 -0.0044819 0.0159272 1.0514 0.0355682 -0.0557006 -0.000200941 1.0086)
(0.95112 -0.0180201 -0.0132708 0.0122307 1.04501 -0.0204563 -0.0469374 -0.0044943 0.995957)
(0.976312 -0.0217944 -0.0163907 0.0137792 1.03456 -0.06398 -0.0392996 -0.00926598 0.976526)
(0.999414 -0.0120565 -0.0174884 0.0221761 1.0297 -0.0936966 -0.0298162 -0.0107109 0.954492)
(1.01477 0.00575508 -0.0191521 0.0328539 1.0343 -0.111937 -0.0181321 -0.00787247 0.932154)
(1.01903 0.0255633 -0.0233061 0.0406708 1.04882 -0.122313 -0.00383433 0.000712921 0.912285)
(1.01078 0.0398845 -0.0316151 0.0405257 1.07035 -0.128794 0.0119303 0.0185487 0.898574)
(0.992159 0.0405522 -0.0452396 0.0284901 1.09242 -0.13524 0.0222168 0.0481269 0.893665)
(0.974109 0.022059 -0.0647664 0.00539951 1.10681 -0.14475 0.0124027 0.0797346 0.894225)
(0.975139 -0.0129336 -0.0837727 -0.0229449 1.10873 -0.158833 -0.0136865 0.0801214 0.89056)
(0.996045 -0.0379852 -0.0971799 -0.0479702 1.09493 -0.177215 -0.0236673 0.0500492 0.886318)
(1.02094 -0.0456976 -0.101116 -0.0603884 1.06866 -0.197865 -0.0148537 0.0243349 0.888042)
(1.03908 -0.0365103 -0.0944263 -0.0576628 1.0404 -0.21707 -0.0029307 0.00862258 0.897593)
(1.04554 -0.0167463 -0.0783322 -0.0432929 1.01895 -0.230396 0.00780021 -0.00072318 0.912766)
(1.03908 0.00635994 -0.0547579 -0.0229387 1.00952 -0.233114 0.0178159 -0.00655729 0.930129)
(1.02083 0.025518 -0.0262559 -0.00333549 1.01361 -0.220613 0.0285012 -0.00943985 0.94685)
(0.995131 0.0326735 0.00338542 0.0083107 1.02859 -0.189464 0.0408963 -0.00872271 0.960696)
(0.974663 0.0223802 0.028575 0.0115383 1.04359 -0.140197 0.0562017 -0.00528765 0.968309)
(0.971813 0.0026618 0.0447001 0.0120422 1.04828 -0.0814607 0.0571644 0.00129399 0.966331)
(0.985976 -0.0100441 0.0510595 0.0114084 1.04203 -0.0268042 0.0437514 0.00703794 0.956226)
(1.00535 -0.00860144 0.050857 0.0162348 1.03363 0.0153261 0.0330408 0.0109884 0.94227)
(1.01976 0.00235302 0.048144 0.0262744 1.03204 0.0439901 0.0233185 0.0111727 0.927406)
(1.02628 0.017039 0.0456466 0.0362363 1.03909 0.0617445 0.0138393 0.00840402 0.912857)
(1.02402 0.0311347 0.0454012 0.042043 1.05374 0.0720147 0.00270952 0.00202443 0.900565)
(1.01237 0.0399107 0.0494228 0.0404769 1.07328 0.0782309 -0.010908 -0.0121712 0.893651)
(0.992725 0.0371802 0.0595013 0.0284443 1.09292 0.0837775 -0.0214703 -0.0389587 0.894397)
(0.974785 0.0184749 0.076828 0.00594256 1.10569 0.0918519 -0.013869 -0.0708878 0.899013)
(0.975156 -0.0136502 0.0950212 -0.0221775 1.10617 0.104727 0.0103782 -0.0746652 0.898616)
(0.993251 -0.0355508 0.110344 -0.0471038 1.09109 0.122681 0.0205734 -0.0492358 0.897956)
(1.01476 -0.0414624 0.118836 -0.0594506 1.06406 0.144054 0.0134303 -0.0270069 0.902943)
(1.03027 -0.0307249 0.118133 -0.0562766 1.03503 0.165153 0.00323702 -0.0130019 0.915551)
(1.03378 -0.00882264 0.108062 -0.0406196 1.01323 0.181061 -0.00630331 -0.0042842 0.934144)
(1.02298 0.0164361 0.0895644 -0.0184896 1.00445 0.186285 -0.0155212 0.0012781 0.955796)
(0.99895 0.0364231 0.0647661 0.00263869 1.01027 0.175541 -0.0253452 0.00401164 0.97777)
(0.967038 0.0420999 0.0373384 0.0150744 1.0275 0.145094 -0.0365737 0.0038732 0.997225)
(0.941039 0.0277647 0.01271 0.0178731 1.04503 0.0955057 -0.0517985 0.00296163 1.00928)
(0.831062 0.0124694 0.0589575 0.0366899 1.12693 0.0105012 -0.116701 -0.00752673 1.06957)
(0.846796 -0.0041519 0.0464767 0.029004 1.1155 -0.0513699 -0.130291 -0.00511816 1.06194)
(0.87854 -0.0112163 0.0336491 0.0300214 1.09817 -0.099068 -0.129604 -0.0104562 1.04172)
(0.91348 -0.00564427 0.0192953 0.0334198 1.08889 -0.132012 -0.121383 -0.0139656 1.01205)
(0.944259 0.0104966 0.00316677 0.0363235 1.09437 -0.153727 -0.109432 -0.00852913 0.974315)
(0.967473 0.0305345 -0.0139776 0.0347774 1.11587 -0.168671 -0.095496 0.012737 0.929293)
(0.982002 0.0448337 -0.0311405 0.0258064 1.15042 -0.180544 -0.0807992 0.0561313 0.879225)
(0.986989 0.0429277 -0.0481009 0.0094801 1.18949 -0.191794 -0.0629824 0.120711 0.830136)
(0.989736 0.0238684 -0.0645114 -0.0134271 1.21532 -0.204293 -0.0313581 0.183989 0.792296)
(1.0035 -0.00195978 -0.07896 -0.0374629 1.2136 -0.218125 0.00821552 0.188476 0.776527)
(1.02424 -0.0343738 -0.0861771 -0.0538901 1.18213 -0.231887 0.0376911 0.134267 0.792231)
(1.03713 -0.0482083 -0.0843611 -0.0579764 1.1357 -0.243334 0.0523731 0.0780439 0.828653)
(1.03869 -0.0407209 -0.0778049 -0.0492171 1.09155 -0.250338 0.0651325 0.0377917 0.871692)
(1.02714 -0.0194889 -0.069205 -0.0292083 1.06082 -0.250622 0.0790726 0.0147115 0.913775)
(1.00099 0.00568571 -0.0592204 -0.0031156 1.04973 -0.241413 0.0941582 0.00488745 0.951768)
(0.961808 0.0258212 -0.0473794 0.0217061 1.05978 -0.219216 0.109848 0.00389764 0.984522)
(0.917258 0.035002 -0.0332843 0.0387686 1.08561 -0.180735 0.122779 0.00651344 1.01064)
(0.882577 0.0309311 -0.0177018 0.038001 1.11325 -0.125532 0.125305 0.00463624 1.02676)
(0.874953 0.0173572 -0.00360507 0.0252021 1.12272 -0.0619846 0.129647 -0.00231869 1.02846)
(0.894869 0.00430194 0.00773696 0.018322 1.11184 -0.00247338 0.132298 0.00054252 1.01632)
(0.926292 -0.00146362 0.0176178 0.0218738 1.09646 0.0436545 0.120846 0.0107109 0.99613)
(0.956436 0.00190694 0.0266132 0.0282651 1.08874 0.076067 0.105325 0.0184968 0.971822)
(0.979299 0.0126159 0.0349066 0.0333743 1.09388 0.0981118 0.0906236 0.0177742 0.944245)
(0.993321 0.0257562 0.0424825 0.0329351 1.1129 0.113806 0.0781616 0.00232962 0.912502)
(0.998783 0.0340112 0.049808 0.0243973 1.14434 0.126418 0.0683309 -0.0349166 0.876288)
(0.995025 0.0286922 0.0585583 0.00850593 1.18253 0.138152 0.0576722 -0.0957404 0.838781)
(0.990076 0.0104871 0.0699821 -0.0140648 1.2113 0.151031 0.0338129 -0.161752 0.807525)
(0.997227 -0.0128337 0.0842316 -0.0388497 1.21489 0.165291 0.000188076 -0.177845 0.791172)
(1.01259 -0.0423792 0.0965745 -0.0574702 1.18732 0.179825 -0.0262226 -0.138563 0.802835)
(1.02189 -0.0550724 0.102642 -0.0638447 1.14202 0.192434 -0.0396431 -0.093101 0.836016)
(1.02095 -0.0469811 0.10529 -0.0557478 1.09645 0.201177 -0.0510946 -0.058524 0.87842)
(1.00681 -0.0242433 0.105741 -0.0342106 1.06336 0.203347 -0.0633799 -0.0372466 0.922645)
(0.977299 0.00341321 0.10347 -0.0046286 1.05065 0.195486 -0.0765063 -0.0268821 0.965012)
(0.933832 0.0258335 0.097259 0.0247531 1.06072 0.173521 -0.0901257 -0.0240954 1.00371)
(0.884327 0.0355779 0.0866085 0.0462583 1.08797 0.133947 -0.101808 -0.0241879 1.03686)
(0.844438 0.029611 0.0727422 0.0490746 1.11683 0.0766322 -0.10573 -0.0190426 1.06069)
(0.845745 0.01413 0.0346245 0.0385521 1.1359 0.0239367 -0.124303 0.000474716 1.03747)
(0.863691 -0.0138437 0.0229446 0.0323768 1.12194 -0.0322861 -0.130203 0.000582863 1.02716)
(0.898613 -0.0249228 0.0132483 0.0331643 1.10155 -0.0755097 -0.125953 -0.0102416 1.00616)
(0.935677 -0.0183715 0.00343679 0.0387185 1.08984 -0.105802 -0.114327 -0.0169309 0.978817)
(0.966258 0.00133947 -0.00763764 0.0456839 1.09223 -0.125935 -0.0964697 -0.0146171 0.946984)
(0.985126 0.0261817 -0.0202236 0.0489865 1.11065 -0.139688 -0.0724286 0.00309374 0.912444)
(0.989559 0.0452394 -0.0341474 0.0434908 1.14218 -0.150643 -0.0445242 0.0442737 0.878028)
(0.98144 0.0464669 -0.0491851 0.0248279 1.17801 -0.16144 -0.0199994 0.110463 0.847993)
(0.974236 0.0246407 -0.0646297 -0.00807618 1.20139 -0.173399 -0.00849686 0.17674 0.82721)
(0.983158 -0.00928352 -0.0788101 -0.0464905 1.19902 -0.186808 -0.00810444 0.180906 0.818996)
(1.00821 -0.0420044 -0.0879772 -0.0751306 1.16864 -0.201688 0.000968514 0.124976 0.826079)
(1.0351 -0.0529209 -0.089431 -0.0840113 1.12251 -0.216443 0.0202227 0.0676017 0.846136)
(1.05003 -0.039495 -0.0840324 -0.0734394 1.07813 -0.228273 0.0428384 0.028539 0.873505)
(1.04717 -0.0105238 -0.0733303 -0.0482718 1.0481 -0.234161 0.0642923 0.00725062 0.903381)
(1.02493 0.0225667 -0.0584371 -0.0160581 1.0396 -0.23062 0.0838591 -0.00173539 0.932526)
(0.985798 0.0483237 -0.040303 0.0137795 1.05387 -0.213944 0.102717 -0.00238839 0.958846)
(0.938596 0.0571038 -0.0204478 0.0330053 1.08675 -0.181107 0.120242 0.00276087 0.98032)
(0.901839 0.0434744 -0.00145675 0.035595 1.12089 -0.131401 0.131768 0.00197587 0.992743)
(0.893662 0.0158405 0.0136078 0.0272619 1.13148 -0.0734748 0.135902 -0.00496083 0.992671)
(0.914163 -0.00635995 0.0237328 0.0226011 1.11709 -0.0191018 0.129906 0.00060487 0.981315)
(0.946656 -0.0130474 0.0304317 0.0265869 1.09826 0.022825 0.1149 0.0142297 0.963221)
(0.976411 -0.00625614 0.0356758 0.0352535 1.08901 0.0525306 0.0973236 0.0222866 0.942509)
(0.996956 0.00894478 0.0407203 0.043821 1.09278 0.0727114 0.0789345 0.0222944 0.920224)
(1.00584 0.0262476 0.0463465 0.0474885 1.11029 0.086832 0.0583663 0.00918286 0.896817)
(1.00207 0.0377691 0.0533281 0.0425639 1.13949 0.0980982 0.0355889 -0.0260015 0.873441)
(0.98764 0.0340642 0.0626228 0.0255595 1.17422 0.108878 0.0154928 -0.0881215 0.852573)
(0.975226 0.0119178 0.0745729 -0.00568887 1.19925 0.120393 0.0065526 -0.156432 0.837558)
(0.978763 -0.0185607 0.0885014 -0.0445258 1.19983 0.133181 0.00781722 -0.171216 0.83137)
(0.997847 -0.0473186 0.100978 -0.0758658 1.17128 0.147889 0.00170973 -0.129587 0.83854)
(1.01965 -0.056205 0.108361 -0.0877878 1.12502 0.163492 -0.0136172 -0.0826285 0.858648)
(1.03103 -0.0413074 0.110234 -0.0785115 1.07866 0.177094 -0.032612 -0.0487904 0.887303)
(1.02487 -0.010011 0.106839 -0.052119 1.04623 0.185188 -0.0511891 -0.0290629 0.920167)
(0.998498 0.0259657 0.0982194 -0.0165691 1.03654 0.183599 -0.0683025 -0.0196973 0.953951)
(0.954244 0.0537303 0.0846879 0.0176461 1.05154 0.16796 -0.0846716 -0.017469 0.986202)
(0.901485 0.0623181 0.0676422 0.0411283 1.08655 0.134899 -0.100229 -0.0195885 1.01428)
(0.859086 0.0462205 0.0498744 0.0468797 1.12325 0.0838838 -0.112818 -0.0134827 1.03304)
(0.863928 0.0153476 0.00712761 0.0411414 1.14024 0.0379065 -0.132317 0.00330984 1.00281)
(0.88397 -0.024731 -0.00376668 0.0375594 1.12846 -0.0117304 -0.128168 -0.000643268 0.99027)
(0.92199 -0.0406542 -0.0104893 0.037769 1.10637 -0.0513771 -0.120508 -0.0120959 0.969327)
(0.960928 -0.0331311 -0.0155359 0.0455661 1.091 -0.0796744 -0.105068 -0.0216258 0.944545)
(0.990435 -0.0091102 -0.0208279 0.056012 1.08995 -0.098318 -0.0801117 -0.0230904 0.918991)
(1.00308 0.0216548 -0.0278088 0.0624928 1.10545 -0.110178 -0.0443096 -0.00945234 0.895762)
(0.99537 0.0460432 -0.0374817 0.0573537 1.1341 -0.118536 -0.00175601 0.0295049 0.878359)
(0.97077 0.0505728 -0.0501791 0.0341707 1.16569 -0.126554 0.0285965 0.0980222 0.869303)
(0.948797 0.0260905 -0.0651206 -0.00618657 1.18485 -0.136845 0.0160423 0.167899 0.867025)
(0.954743 -0.0161606 -0.0794422 -0.0532868 1.18174 -0.151093 -0.0260323 0.1718 0.864092)
(0.988264 -0.0493803 -0.0904669 -0.0922226 1.15387 -0.168818 -0.0393909 0.113732 0.861987)
(1.02987 -0.0577366 -0.0941754 -0.108908 1.10845 -0.188108 -0.0166824 0.0544837 0.865128)
(1.06015 -0.0378921 -0.0889127 -0.099714 1.06318 -0.20568 0.0165245 0.016381 0.875761)
(1.06815 0.000128399 -0.0752097 -0.0708406 1.03337 -0.217595 0.0465364 -0.00301294 0.892452)
(1.05112 0.0423364 -0.0547137 -0.0326845 1.02784 -0.219675 0.0711799 -0.0112725 0.912044)
(1.01253 0.0740878 -0.0298658 0.00272685 1.04813 -0.208008 0.093206 -0.0129991 0.931308)
(0.962775 0.0811172 -0.00406939 0.0239198 1.08704 -0.179988 0.115259 -0.0105149 0.947089)
(0.924356 0.0565708 0.0183075 0.0310099 1.12299 -0.136654 0.138305 -0.00736308 0.955405)
(0.915697 0.0151616 0.0341643 0.0302118 1.13488 -0.0853398 0.14202 -0.000983561 0.953824)
(0.936278 -0.0167654 0.04288 0.0289504 1.12166 -0.0370392 0.1249 0.0089248 0.943758)
(0.969506 -0.0254004 0.0462968 0.0332055 1.10059 0.00143071 0.106708 0.0204814 0.928634)
(0.998321 -0.0151571 0.0474197 0.0444781 1.08858 0.0288277 0.0871352 0.0277985 0.911828)
(1.01541 0.00518929 0.048526 0.056138 1.09084 0.0469932 0.0643358 0.0288296 0.89524)
(1.01721 0.0274481 0.0513076 0.0623445 1.10734 0.05869 0.0340481 0.0186753 0.880941)
(1.00233 0.042362 0.0570507 0.0575704 1.1349 0.0668253 -0.00371126 -0.0140895 0.871638)
(0.974091 0.0400626 0.0664586 0.035983 1.16556 0.0741715 -0.0326213 -0.0781793 0.869362)
(0.950821 0.0138425 0.0792535 -0.00338801 1.18496 0.0832827 -0.0219459 -0.149575 0.872373)
(0.954172 -0.0238888 0.093032 -0.0513592 1.18169 0.0963859 0.0177535 -0.163075 0.873707)
(0.981329 -0.0516036 0.105851 -0.0922749 1.15304 0.11356 0.0330462 -0.118705 0.875706)
(1.01607 -0.0565269 0.113496 -0.111219 1.1064 0.13343 0.0162945 -0.0697322 0.88253)
(1.04128 -0.0339925 0.113526 -0.103113 1.05901 0.15275 -0.0108866 -0.0364708 0.896742)
(1.04475 0.00729268 0.105346 -0.0730118 1.02727 0.167131 -0.0366156 -0.0184129 0.917544)
(1.02228 0.0526059 0.0897182 -0.0316795 1.02139 0.171654 -0.0582446 -0.0100594 0.942244)
(0.977357 0.0856316 0.068619 0.00769898 1.04325 0.161703 -0.0773446 -0.00720759 0.967575)
(0.921329 0.0913772 0.0452374 0.0327476 1.08505 0.134309 -0.0965738 -0.00592493 0.989616)
(0.876874 0.0631157 0.0237169 0.0424275 1.12493 0.0904993 -0.120309 -0.000646203 1.00281)
(0.801638 0.024836 0.0592454 0.0509667 1.19683 0.0246777 -0.171358 -0.0159718 1.03732)
(0.813914 0.00279887 0.0470662 0.0445832 1.18171 -0.0238569 -0.193332 -0.00743532 1.03647)
(0.845279 -0.00807975 0.0340616 0.0483782 1.1575 -0.0649494 -0.201106 -0.0111175 1.02158)
(0.882061 -0.00446497 0.0195574 0.0533309 1.14323 -0.0969746 -0.196791 -0.0148691 0.994188)
(0.915776 0.0106454 0.00390811 0.0553952 1.14711 -0.121199 -0.1839 -0.00724149 0.956101)
(0.942034 0.0294783 -0.0120582 0.0500553 1.16937 -0.139749 -0.164536 0.0218641 0.909614)
(0.959196 0.0421716 -0.0277969 0.0342132 1.2047 -0.154639 -0.140283 0.0796502 0.858825)
(0.967194 0.0396341 -0.0433746 0.00817021 1.24278 -0.167843 -0.110093 0.162923 0.810207)
(0.973341 0.0214438 -0.0575638 -0.0254464 1.26754 -0.18229 -0.0641981 0.246087 0.770194)
(0.991344 -0.0027879 -0.0706834 -0.059185 1.2657 -0.198682 -0.00463882 0.268574 0.745039)
(1.02018 -0.0336839 -0.0818816 -0.0825956 1.23187 -0.214413 0.0475084 0.211749 0.748831)
(1.0432 -0.049672 -0.081546 -0.0889992 1.17898 -0.226378 0.0794964 0.138928 0.778552)
(1.05046 -0.0422601 -0.0749829 -0.0773671 1.12749 -0.232841 0.103812 0.0805348 0.820888)
(1.0394 -0.0174097 -0.0657771 -0.0497853 1.09172 -0.231553 0.125954 0.0436596 0.865957)
(1.00889 0.0140751 -0.0555928 -0.0133922 1.08098 -0.220926 0.146577 0.0255414 0.907665)
(0.962318 0.0406471 -0.0442515 0.0220644 1.09821 -0.19949 0.165266 0.0199323 0.942627)
(0.910061 0.0535342 -0.0311835 0.0476282 1.13652 -0.166358 0.179043 0.0183202 0.968468)
(0.869541 0.0486554 -0.0171854 0.050622 1.17602 -0.122918 0.184095 0.0107688 0.983227)
(0.857441 0.0306745 -0.00409358 0.0389855 1.19009 -0.0744871 0.191566 -0.00103929 0.987406)
(0.874627 0.0123027 0.00721034 0.0332018 1.17563 -0.027852 0.196145 -0.00040582 0.98159)
(0.906536 0.00263361 0.0174299 0.0389807 1.15355 0.0113607 0.185842 0.0115027 0.966356)
(0.938883 0.00344951 0.027169 0.0464989 1.14097 0.0417139 0.168046 0.0222081 0.944264)
(0.964103 0.0118601 0.0362285 0.0506292 1.1446 0.064682 0.148685 0.0215163 0.916971)
(0.979565 0.0218468 0.044272 0.0466035 1.16442 0.0824516 0.129979 0.000314768 0.885296)
(0.985212 0.0261416 0.0516304 0.0316486 1.19665 0.0969001 0.112404 -0.0493198 0.850903)
(0.9817 0.0180259 0.0595879 0.0063627 1.2338 0.109814 0.0935828 -0.127138 0.817418)
(0.976729 -0.00130087 0.0678638 -0.0268878 1.26209 0.124415 0.0619327 -0.21273 0.788199)
(0.983582 -0.0239753 0.0787725 -0.0617756 1.26726 0.141853 0.0145163 -0.251083 0.766383)
(1.00304 -0.0498446 0.0936494 -0.0882529 1.23923 0.159366 -0.0311864 -0.216107 0.766985)
(1.02028 -0.0630553 0.10012 -0.0978752 1.18759 0.173067 -0.0609502 -0.159919 0.793384)
(1.02344 -0.0535412 0.101725 -0.0876082 1.13406 0.181469 -0.0834904 -0.111356 0.834736)
(1.00893 -0.0258064 0.100628 -0.0583595 1.09519 0.182132 -0.103152 -0.078822 0.881587)
(0.974745 0.00944352 0.097559 -0.0174756 1.08242 0.173038 -0.12039 -0.061369 0.927597)
(0.923811 0.0393294 0.0918383 0.0238909 1.09989 0.152393 -0.135258 -0.0540478 0.96882)
(0.866461 0.0532847 0.0827944 0.0549723 1.14028 0.119183 -0.14664 -0.0488957 1.00232)
(0.820203 0.0465409 0.0713532 0.0620813 1.18177 0.0748453 -0.153715 -0.0358317 1.02544)
(0.811038 0.0291096 0.0521913 0.0531792 1.20511 0.0314467 -0.180657 -0.00329264 1.01371)
(0.826146 -0.00625422 0.038312 0.0486945 1.18764 -0.0118239 -0.196733 0.00256205 1.00917)
(0.861782 -0.0232363 0.0242646 0.0515691 1.16051 -0.0483366 -0.200511 -0.00830421 0.991509)
(0.902041 -0.0197772 0.00952352 0.0581912 1.14421 -0.0770992 -0.191062 -0.0185656 0.964653)
(0.936671 -0.000993832 -0.00590412 0.0643078 1.14544 -0.0994981 -0.168763 -0.0173212 0.931105)
(0.959199 0.0236068 -0.0215371 0.0639203 1.16572 -0.117545 -0.134215 0.0062143 0.89329)
(0.966856 0.042042 -0.036617 0.0513599 1.20022 -0.133266 -0.0918485 0.0622441 0.854528)
(0.962454 0.0428269 -0.0502524 0.0230264 1.23789 -0.148193 -0.0523618 0.150382 0.819289)
(0.959098 0.0223677 -0.0614958 -0.0202616 1.26151 -0.163061 -0.0278754 0.240774 0.792544)
(0.971589 -0.00993585 -0.0711874 -0.0689896 1.2567 -0.177255 -0.0169794 0.261505 0.77938)
(1.00264 -0.0422403 -0.0786003 -0.106418 1.2201 -0.190612 0.00246384 0.199904 0.783417)
(1.03842 -0.0546388 -0.0799741 -0.119235 1.16444 -0.202692 0.0345356 0.122499 0.802462)
(1.06041 -0.0393435 -0.0759084 -0.105977 1.11044 -0.210901 0.0712905 0.0635857 0.83102)
(1.05945 -0.00403229 -0.0679928 -0.0723292 1.07425 -0.213016 0.105529 0.0290674 0.863622)
(1.03289 0.0376041 -0.0573848 -0.028372 1.06623 -0.206921 0.134518 0.0136379 0.895979)
(0.984842 0.0703306 -0.0447272 0.01319 1.08868 -0.190703 0.158945 0.0103214 0.924848)
(0.927745 0.0814298 -0.0305979 0.0413308 1.13556 -0.163049 0.178885 0.0117899 0.947112)
(0.883384 0.065025 -0.0160615 0.0484224 1.18258 -0.125116 0.1924 0.00556399 0.958566)
(0.870386 0.0312637 -0.00193002 0.0412826 1.19822 -0.0823152 0.199849 -0.00523947 0.960628)
(0.889135 0.00177275 0.0109817 0.0379618 1.18057 -0.0406951 0.196901 -0.000786325 0.954256)
(0.923355 -0.010616 0.0222902 0.0435128 1.15519 -0.00547646 0.182201 0.0156644 0.939081)
(0.956402 -0.00689876 0.0326882 0.0529476 1.1414 0.0222402 0.160857 0.028584 0.919103)
(0.979759 0.00664926 0.0425247 0.0606739 1.14401 0.043859 0.135163 0.0305153 0.896204)
(0.989972 0.0219312 0.0518641 0.0609429 1.16338 0.0613877 0.104312 0.0129317 0.871455)
(0.986657 0.03025 0.0606288 0.0494169 1.19562 0.0768068 0.069545 -0.0350215 0.846345)
(0.973332 0.023617 0.0687028 0.0232729 1.23244 0.091624 0.0382619 -0.116965 0.823333)
(0.962035 0.000894741 0.0759943 -0.017816 1.25874 0.106595 0.0203902 -0.209339 0.805422)
(0.966186 -0.0287431 0.0846153 -0.0670246 1.25864 0.120922 0.0145603 -0.245254 0.796455)
(0.988388 -0.0553269 0.0944124 -0.108444 1.22535 0.134597 0.000858516 -0.205358 0.801141)
(1.01671 -0.0639083 0.100709 -0.126018 1.16955 0.14774 -0.0250818 -0.144762 0.820101)
(1.03329 -0.0455764 0.102922 -0.115145 1.11269 0.15765 -0.056384 -0.0954097 0.849775)
(1.02784 -0.00662464 0.101553 -0.0802843 1.07304 0.161732 -0.0859591 -0.0649762 0.885436)
(0.996553 0.0390214 0.0968864 -0.0319623 1.06318 0.157392 -0.110436 -0.0502914 0.922803)
(0.943231 0.0746083 0.0889984 0.0154883 1.08655 0.142236 -0.130092 -0.0451326 0.958197)
(0.880512 0.0860323 0.0782592 0.0491608 1.13641 0.11468 -0.146458 -0.0416312 0.98777)
(0.830076 0.067359 0.0657054 0.0600235 1.18698 0.0758846 -0.161671 -0.0262688 1.00633)
(0.823997 0.0330525 0.0394979 0.056227 1.20802 0.0383687 -0.191603 0.00606124 0.989238)
(0.841953 -0.0168911 0.024818 0.0550723 1.19382 0.000612866 -0.199243 0.00682322 0.979551)
(0.881951 -0.0410816 0.0105142 0.056349 1.16586 -0.0315796 -0.198454 -0.00751109 0.959659)
(0.925825 -0.0381617 -0.00365912 0.0647345 1.14573 -0.0572436 -0.182894 -0.024193 0.933586)
(0.960962 -0.0150966 -0.0179305 0.0748203 1.14312 -0.0773989 -0.148841 -0.0307158 0.904758)
(0.978156 0.0166342 -0.0321279 0.0788084 1.16082 -0.093782 -0.0956868 -0.0138732 0.8761)
(0.973869 0.0419796 -0.0454663 0.0678115 1.19437 -0.108194 -0.0317869 0.0404271 0.850344)
(0.953436 0.0467097 -0.0567588 0.0348337 1.23128 -0.121848 0.0172064 0.135065 0.830103)
(0.935534 0.0241542 -0.0641027 -0.019221 1.25278 -0.135312 0.0128301 0.234566 0.818166)
(0.943478 -0.0164638 -0.0707035 -0.0808829 1.24443 -0.149672 -0.0325999 0.253876 0.815366)
(0.981238 -0.0499956 -0.0758935 -0.130304 1.20569 -0.16433 -0.0493282 0.186098 0.818814)
(1.03132 -0.0586609 -0.077751 -0.151136 1.14759 -0.178082 -0.019177 0.102147 0.826817)
(1.0701 -0.0346138 -0.0749904 -0.138625 1.09057 -0.189138 0.0311715 0.0417022 0.840867)
(1.08147 0.0129248 -0.0672939 -0.0997806 1.05392 -0.195261 0.0798406 0.00966578 0.860323)
(1.06006 0.0662918 -0.0553246 -0.0480484 1.04964 -0.193872 0.118917 -0.0028699 0.882796)
(1.01076 0.105629 -0.0404212 0.000314439 1.07979 -0.182581 0.149808 -0.00529076 0.904963)
(0.948571 0.113268 -0.0243246 0.030658 1.13381 -0.160102 0.176796 -0.00479259 0.922858)
(0.900501 0.082991 -0.0084741 0.043374 1.18307 -0.127761 0.201617 -0.00601651 0.93241)
(0.886723 0.0323965 0.00641021 0.0445737 1.20052 -0.0902605 0.208752 -0.00375767 0.932477)
(0.906767 -0.00938754 0.0197182 0.0452206 1.18503 -0.0537526 0.195489 0.0066545 0.924134)
(0.943141 -0.0256054 0.0311177 0.0501172 1.15821 -0.0223204 0.176028 0.0230956 0.909543)
(0.976571 -0.019045 0.041262 0.0618532 1.14137 0.00284416 0.15082 0.0371411 0.891942)
(0.99713 0.000391686 0.0509689 0.0733153 1.14205 0.0226489 0.117325 0.0423769 0.87361)
(1.00023 0.0220397 0.0606141 0.0774251 1.16073 0.0387874 0.0714443 0.0294656 0.85616)
(0.985721 0.0349637 0.0697968 0.067488 1.19327 0.0530175 0.0156828 -0.0163568 0.841036)
(0.95955 0.0298693 0.0775802 0.0371553 1.22983 0.0664178 -0.0292241 -0.103653 0.829886)
(0.938557 0.00359472 0.0824139 -0.0150697 1.25313 0.0792917 -0.0257814 -0.20476 0.825358)
(0.942167 -0.0331385 0.0889402 -0.0779286 1.24639 0.0928286 0.0177848 -0.238806 0.828285)
(0.971865 -0.0597313 0.095803 -0.131039 1.20785 0.106995 0.0383179 -0.192936 0.835855)
(1.01296 -0.062872 0.100826 -0.156408 1.14836 0.121214 0.0175209 -0.126451 0.84717)
(1.0445 -0.0344222 0.1025 -0.146582 1.08805 0.133703 -0.0232415 -0.0754072 0.864848)
(1.0497 0.0176448 0.099798 -0.106763 1.04802 0.141857 -0.064564 -0.0471319 0.88894)
(1.02187 0.0749753 0.0926196 -0.0508154 1.04255 0.142493 -0.0977697 -0.0354462 0.917331)
(0.965929 0.116114 0.0817333 0.00318819 1.07447 0.13257 -0.122836 -0.031141 0.946413)
(0.897516 0.122955 0.0685264 0.0389015 1.13241 0.110388 -0.144872 -0.0246256 0.971314)
(0.843141 0.0895522 0.0542424 0.0549464 1.18675 0.0772316 -0.171117 -0.00899982 0.986517)
(0.802029 0.0387105 0.0656813 0.0531567 1.24558 0.0392602 -0.209287 -0.0288255 0.989187)
(0.807131 0.0161847 0.0540136 0.0482037 1.23036 0.0062363 -0.239192 -0.0150816 0.996956)
(0.831141 0.00283301 0.0402308 0.05361 1.20449 -0.0263633 -0.257128 -0.0147467 0.992295)