/*--------------------------------*- C++ -*----------------------------------*\
| =========                 |                                                 |
| \\      /  F ield         | OpenFOAM: The Open Source CFD Toolbox           |
|  \\    /   O peration     | Version:  2312                                  |
|   \\  /    A nd           | Website:  www.openfoam.com                      |
|    \\/     M anipulation  |                                                 |
\*---------------------------------------------------------------------------*/
FoamFile
{
    version     2.0;
    format      ascii;
    arch        "LSB;label=32;scalar=64";
    class       volTensorField;
    location    "0.4";
    object      F;
}
// * * * * * * * * * * * * * * * * * * * * * * * * * * * * * * * * * * * * * //

dimensions      [0 0 0 0 0 0 0];

internalField   nonuniform List<tensor> 
1620
(
(1.07588 -0.0153573 -0.315103 0.0672238 0.999605 0.174695 0.0315351 -0.0438158 0.895318)
(1.02846 -0.027452 -0.307298 0.0578151 0.992954 0.19688 -0.00864808 -0.0459735 0.969343)
(0.988957 -0.043502 -0.28291 0.0230615 0.986816 0.204191 -0.032484 -0.0455194 1.03387)
(0.967 -0.0583526 -0.252244 -0.0155791 0.973985 0.193814 -0.0373753 -0.0432792 1.08306)
(0.963199 -0.065159 -0.22077 -0.0434973 0.953571 0.17126 -0.030591 -0.0376794 1.11631)
(0.97138 -0.0604677 -0.191674 -0.0558725 0.931195 0.143403 -0.0208485 -0.028323 1.13462)
(0.983864 -0.0450313 -0.166908 -0.0548557 0.913354 0.114604 -0.013488 -0.0170191 1.13995)
(0.995009 -0.0224365 -0.146472 -0.045612 0.904284 0.08614 -0.0102392 -0.00639479 1.13463)
(1.00215 0.00278619 -0.12815 -0.0336542 0.905488 0.0574743 -0.0106803 0.00147013 1.12076)
(1.00518 0.0263876 -0.108092 -0.0237112 0.916467 0.0276795 -0.0136157 0.00566628 1.09961)
(1.00602 0.0448417 -0.0818583 -0.019402 0.93546 -0.00366163 -0.0180793 0.00656757 1.0714)
(1.00824 0.0554637 -0.0455567 -0.022834 0.959727 -0.0361002 -0.0240825 0.00559887 1.03546)
(1.01654 0.0567354 0.00307032 -0.0335073 0.985531 -0.0682878 -0.0329413 0.0047255 0.991029)
(1.03507 0.0489854 0.0636441 -0.046685 1.00835 -0.0980565 -0.0466154 0.00587733 0.938848)
(1.06419 0.0349295 0.132268 -0.0527806 1.02381 -0.122643 -0.0654041 0.010573 0.883482)
(1.09683 0.0189959 0.201125 -0.0404759 1.0291 -0.139583 -0.0841936 0.0193712 0.83574)
(1.11834 0.00468953 0.259857 -0.00504563 1.02359 -0.149092 -0.0901797 0.0301203 0.813118)
(1.11208 -0.00617513 0.299792 0.0408802 1.01113 -0.156771 -0.0704946 0.0385368 0.83421)
(1.07588 -0.0153573 0.315103 0.0672238 0.999605 -0.174695 -0.0315351 0.0438158 0.895318)
(1.02846 -0.027452 0.307298 0.0578151 0.992954 -0.19688 0.00864808 0.0459735 0.969343)
(0.988957 -0.043502 0.28291 0.0230615 0.986816 -0.204191 0.032484 0.0455194 1.03387)
(0.967 -0.0583526 0.252244 -0.0155791 0.973985 -0.193814 0.0373753 0.0432792 1.08306)
(0.963199 -0.065159 0.22077 -0.0434973 0.953571 -0.17126 0.030591 0.0376794 1.11631)
(0.97138 -0.0604677 0.191674 -0.0558725 0.931195 -0.143403 0.0208485 0.028323 1.13462)
(0.983864 -0.0450313 0.166908 -0.0548557 0.913354 -0.114604 0.013488 0.0170191 1.13995)
(0.995009 -0.0224365 0.146472 -0.045612 0.904284 -0.08614 0.0102392 0.00639479 1.13463)
(1.00215 0.00278619 0.12815 -0.0336542 0.905488 -0.0574743 0.0106803 -0.00147014 1.12076)
(1.00518 0.0263876 0.108092 -0.0237112 0.916467 -0.0276795 0.0136157 -0.00566628 1.09961)
(1.00602 0.0448417 0.0818583 -0.019402 0.93546 0.00366163 0.0180793 -0.00656757 1.0714)
(1.00824 0.0554637 0.0455567 -0.022834 0.959727 0.0361002 0.0240825 -0.00559887 1.03546)
(1.01654 0.0567354 -0.00307032 -0.0335073 0.985531 0.0682878 0.0329413 -0.0047255 0.991029)
(1.03507 0.0489854 -0.0636441 -0.046685 1.00835 0.0980565 0.0466154 -0.00587734 0.938848)
(1.06419 0.0349295 -0.132268 -0.0527806 1.02381 0.122643 0.0654041 -0.010573 0.883482)
(1.09683 0.0189959 -0.201125 -0.0404759 1.0291 0.139583 0.0841936 -0.0193712 0.83574)
(1.11834 0.00468953 -0.259857 -0.00504563 1.02359 0.149092 0.0901797 -0.0301203 0.813118)
(1.11208 -0.00617513 -0.299792 0.0408802 1.01113 0.156771 0.0704946 -0.0385368 0.83421)
(1.07908 0.0139864 -0.287651 0.0524592 0.992319 0.191245 0.0291052 -0.0174817 0.900778)
(1.03512 0.00681273 -0.292619 0.044774 1.00479 0.208409 -0.00503446 -0.0231444 0.942462)
(0.997215 -0.0133811 -0.286521 0.0117944 1.00982 0.20644 -0.0238635 -0.0316049 0.985274)
(0.97648 -0.037482 -0.270594 -0.0248786 0.999321 0.187733 -0.025111 -0.0367718 1.02522)
(0.974289 -0.0548383 -0.247017 -0.0506247 0.976266 0.158637 -0.0168409 -0.0346838 1.05822)
(0.984495 -0.0589334 -0.219301 -0.0606679 0.949074 0.125666 -0.00783515 -0.0260291 1.08149)
(0.999012 -0.0491196 -0.190478 -0.05689 0.925971 0.0928337 -0.00284914 -0.014468 1.09391)
(1.01156 -0.0289292 -0.161755 -0.0441734 0.912526 0.0615957 -0.00279823 -0.00391417 1.09563)
(1.01878 -0.00375034 -0.132342 -0.0281344 0.911336 0.0320353 -0.00638132 0.00299189 1.0874)
(1.02005 0.0207452 -0.100136 -0.01409 0.922495 0.00397476 -0.0115061 0.00542771 1.07012)
(1.01713 0.0394132 -0.0627686 -0.00657974 0.944007 -0.0224561 -0.0164232 0.00443634 1.04465)
(1.01387 0.0482205 -0.0186551 -0.00875062 0.971835 -0.0467979 -0.0207117 0.00253348 1.01198)
(1.01579 0.0451813 0.0321898 -0.0210363 0.999806 -0.0686005 -0.0258707 0.00274703 0.973566)
(1.0285 0.0317916 0.0877408 -0.0391417 1.02023 -0.0878543 -0.0348507 0.00711278 0.932056)
(1.05417 0.0140411 0.144069 -0.0527801 1.02633 -0.105275 -0.0496965 0.0149758 0.892122)
(1.08708 0.000932835 0.196126 -0.0483604 1.0166 -0.122395 -0.0671573 0.0220456 0.861346)
(1.11204 -0.000596887 0.239341 -0.018351 0.998456 -0.141376 -0.075346 0.0228053 0.850071)
(1.11054 0.00782969 0.270129 0.025286 0.987442 -0.165149 -0.0613675 0.0185312 0.865949)
(1.07908 0.0139864 0.287651 0.0524592 0.992319 -0.191245 -0.0291052 0.0174817 0.900778)
(1.03512 0.00681273 0.292619 0.044774 1.00479 -0.208409 0.00503446 0.0231444 0.942462)
(0.997215 -0.0133811 0.286521 0.0117944 1.00982 -0.20644 0.0238635 0.0316049 0.985274)
(0.97648 -0.037482 0.270594 -0.0248786 0.999321 -0.187733 0.025111 0.0367718 1.02522)
(0.974289 -0.0548383 0.247017 -0.0506247 0.976266 -0.158637 0.0168409 0.0346838 1.05822)
(0.984495 -0.0589334 0.219301 -0.0606679 0.949074 -0.125666 0.00783515 0.0260291 1.08149)
(0.999012 -0.0491196 0.190478 -0.05689 0.925971 -0.0928337 0.00284914 0.014468 1.09391)
(1.01156 -0.0289292 0.161755 -0.0441734 0.912526 -0.0615957 0.00279823 0.00391417 1.09563)
(1.01878 -0.00375034 0.132342 -0.0281344 0.911336 -0.0320353 0.00638132 -0.00299189 1.0874)
(1.02005 0.0207452 0.100136 -0.01409 0.922495 -0.00397476 0.0115061 -0.00542771 1.07012)
(1.01713 0.0394132 0.0627686 -0.00657974 0.944007 0.0224561 0.0164232 -0.00443634 1.04465)
(1.01387 0.0482205 0.0186551 -0.00875062 0.971835 0.0467979 0.0207117 -0.00253348 1.01198)
(1.01579 0.0451813 -0.0321898 -0.0210363 0.999806 0.0686005 0.0258707 -0.00274703 0.973566)
(1.0285 0.0317916 -0.0877408 -0.0391417 1.02023 0.0878543 0.0348507 -0.00711278 0.932056)
(1.05417 0.0140411 -0.144069 -0.0527801 1.02633 0.105275 0.0496965 -0.0149758 0.892122)
(1.08708 0.000932835 -0.196126 -0.0483604 1.0166 0.122395 0.0671573 -0.0220456 0.861346)
(1.11204 -0.000596887 -0.239341 -0.018351 0.998456 0.141376 0.075346 -0.0228053 0.850071)
(1.11054 0.00782969 -0.270129 0.025286 0.987442 0.165149 0.0613675 -0.0185312 0.865949)
(1.08295 0.0372297 -0.245231 0.0364807 0.98026 0.205013 0.0272201 0.000562871 0.910017)
(1.04351 0.0386672 -0.267633 0.0317861 1.00917 0.219705 0.000336532 -0.0050517 0.92157)
(1.00585 0.0203086 -0.282272 0.00200768 1.02692 0.210769 -0.0136938 -0.0184382 0.942016)
(0.983516 -0.00935322 -0.282398 -0.0327906 1.02274 0.18443 -0.0122046 -0.0289709 0.971217)
(0.980587 -0.0369551 -0.267908 -0.0579918 1.0007 0.148644 -0.00330674 -0.0300016 1.00276)
(0.992361 -0.0519876 -0.242663 -0.0677695 0.9706 0.110035 0.00431157 -0.0223367 1.03014)
(1.0104 -0.0505795 -0.210698 -0.0624272 0.942288 0.0725643 0.00628457 -0.0109158 1.04902)
(1.02676 -0.0348222 -0.174418 -0.0457996 0.923471 0.0380758 0.00243277 -0.000873444 1.05719)
(1.03611 -0.0105529 -0.134526 -0.0237281 0.918914 0.00740794 -0.00490533 0.00450505 1.05402)
(1.03647 0.0147249 -0.0907972 -0.00301397 0.93003 -0.0188003 -0.012458 0.00451021 1.04006)
(1.02941 0.0335632 -0.0431172 0.00966722 0.954593 -0.0398652 -0.0174795 0.00105158 1.01687)
(1.01979 0.040234 0.00757261 0.00923279 0.986567 -0.0553864 -0.0191737 -0.00202547 0.987145)
(1.01483 0.0325975 0.0587758 -0.00569895 1.01647 -0.0660216 -0.0196364 -0.000631861 0.95469)
(1.02186 0.0139084 0.106739 -0.0303287 1.03323 -0.0743196 -0.0233249 0.00694634 0.924207)
(1.04429 -0.00665209 0.147678 -0.052507 1.0286 -0.0848408 -0.0340285 0.0175137 0.900595)
(1.07706 -0.0165468 0.17947 -0.0560831 1.00373 -0.102818 -0.0495804 0.023063 0.888044)
(1.1047 -0.00683425 0.202955 -0.0315992 0.974099 -0.131543 -0.0588766 0.017422 0.888524)
(1.10806 0.0173926 0.222643 0.00876902 0.963361 -0.170249 -0.0508928 0.00572348 0.89838)
(1.08295 0.0372297 0.245231 0.0364807 0.98026 -0.205013 -0.0272201 -0.000562871 0.910017)
(1.04351 0.0386672 0.267633 0.0317861 1.00917 -0.219705 -0.000336533 0.0050517 0.92157)
(1.00585 0.0203086 0.282272 0.00200768 1.02692 -0.210769 0.0136938 0.0184382 0.942016)
(0.983516 -0.00935322 0.282398 -0.0327906 1.02274 -0.18443 0.0122046 0.0289709 0.971217)
(0.980587 -0.0369551 0.267908 -0.0579918 1.0007 -0.148644 0.00330674 0.0300016 1.00276)
(0.992361 -0.0519876 0.242663 -0.0677695 0.9706 -0.110035 -0.00431157 0.0223367 1.03014)
(1.0104 -0.0505795 0.210698 -0.0624272 0.942288 -0.0725643 -0.00628457 0.0109158 1.04902)
(1.02676 -0.0348222 0.174418 -0.0457996 0.923471 -0.0380758 -0.00243277 0.000873444 1.05719)
(1.03611 -0.0105529 0.134526 -0.0237281 0.918914 -0.00740794 0.00490533 -0.00450505 1.05402)
(1.03647 0.0147249 0.0907972 -0.00301397 0.93003 0.0188003 0.012458 -0.00451021 1.04006)
(1.02941 0.0335632 0.0431172 0.00966722 0.954593 0.0398652 0.0174795 -0.00105158 1.01687)
(1.01979 0.040234 -0.00757261 0.00923279 0.986567 0.0553864 0.0191737 0.00202546 0.987145)
(1.01483 0.0325975 -0.0587758 -0.00569895 1.01647 0.0660216 0.0196364 0.000631861 0.95469)
(1.02186 0.0139084 -0.106739 -0.0303287 1.03323 0.0743196 0.0233249 -0.00694634 0.924207)
(1.04429 -0.00665209 -0.147678 -0.052507 1.0286 0.0848408 0.0340285 -0.0175137 0.900595)
(1.07706 -0.0165468 -0.17947 -0.0560831 1.00373 0.102818 0.0495804 -0.023063 0.888044)
(1.1047 -0.00683425 -0.202955 -0.0315992 0.974099 0.131543 0.0588766 -0.017422 0.888524)
(1.10806 0.0173926 -0.222643 0.00876902 0.963361 0.170249 0.0508928 -0.00572348 0.89838)
(1.12971 -0.0100253 -0.29145 0.104378 0.979712 0.20745 0.0491725 -0.126335 0.862075)
(1.06116 -0.0427567 -0.287424 0.0852773 0.980114 0.217482 -0.0392123 -0.1422 0.939559)
(0.995934 -0.0797604 -0.267775 0.0268899 0.986882 0.212068 -0.0911586 -0.148642 1.01482)
(0.958165 -0.111436 -0.240919 -0.0358178 0.979523 0.195171 -0.102951 -0.148642 1.07699)
(0.951481 -0.12762 -0.211906 -0.0812172 0.954296 0.170807 -0.0902313 -0.139179 1.12165)
(0.965336 -0.122581 -0.184083 -0.102451 0.920097 0.143279 -0.0698356 -0.120604 1.14855)
(0.987032 -0.0969195 -0.159393 -0.103094 0.888126 0.115371 -0.0522716 -0.0975481 1.15973)
(1.0075 -0.0557432 -0.137982 -0.0907639 0.866418 0.0878698 -0.041554 -0.0759496 1.15787)
(1.02199 -0.00589984 -0.118094 -0.0732032 0.85904 0.0602914 -0.0375072 -0.0604447 1.14518)
(1.02919 0.0455373 -0.0965682 -0.0571484 0.867149 0.0318575 -0.0381644 -0.0529958 1.12287)
(1.03064 0.0916032 -0.0697309 -0.0483206 0.889735 0.00219148 -0.0418172 -0.0524759 1.09106)
(1.03085 0.125619 -0.0344589 -0.0508484 0.923484 -0.0283891 -0.0486644 -0.0550895 1.04919)
(1.03704 0.142123 0.0108106 -0.0651579 0.962386 -0.0589445 -0.0614487 -0.0555945 0.997047)
(1.05699 0.138658 0.0653049 -0.0847967 0.998257 -0.0882501 -0.0839214 -0.0488174 0.936456)
(1.09389 0.117462 0.125563 -0.0948709 1.02285 -0.115347 -0.116396 -0.0305052 0.873268)
(1.13988 0.0855072 0.185659 -0.0764675 1.0307 -0.140226 -0.149817 0.00243696 0.818866)
(1.17429 0.0512772 0.238001 -0.0199248 1.02085 -0.164031 -0.163178 0.049161 0.789855)
(1.1743 0.0194645 0.274768 0.0593656 0.997588 -0.187609 -0.129975 0.0952781 0.803338)
(1.12971 -0.0100253 0.29145 0.104378 0.979712 -0.20745 -0.0491725 0.126335 0.862075)
(1.06116 -0.0427567 0.287424 0.0852773 0.980114 -0.217482 0.0392123 0.1422 0.939559)
(0.995934 -0.0797604 0.267775 0.0268899 0.986882 -0.212068 0.0911586 0.148642 1.01482)
(0.958165 -0.111436 0.240919 -0.0358178 0.979523 -0.195171 0.102951 0.148642 1.07699)
(0.951481 -0.12762 0.211906 -0.0812172 0.954296 -0.170807 0.0902313 0.139179 1.12165)
(0.965336 -0.122581 0.184083 -0.102451 0.920097 -0.143279 0.0698356 0.120604 1.14855)
(0.987032 -0.0969195 0.159393 -0.103094 0.888126 -0.115371 0.0522716 0.0975481 1.15973)
(1.0075 -0.0557432 0.137982 -0.0907639 0.866418 -0.0878698 0.041554 0.0759496 1.15787)
(1.02199 -0.00589984 0.118094 -0.0732032 0.85904 -0.0602914 0.0375072 0.0604447 1.14518)
(1.02919 0.0455373 0.0965682 -0.0571484 0.867149 -0.0318575 0.0381644 0.0529958 1.12287)
(1.03064 0.0916032 0.0697309 -0.0483206 0.889735 -0.00219148 0.0418172 0.0524759 1.09106)
(1.03085 0.125619 0.0344589 -0.0508484 0.923484 0.0283891 0.0486644 0.0550895 1.04919)
(1.03704 0.142123 -0.0108106 -0.0651579 0.962386 0.0589445 0.0614487 0.0555945 0.997047)
(1.05699 0.138658 -0.0653049 -0.0847967 0.998257 0.0882501 0.0839214 0.0488174 0.936456)
(1.09389 0.117462 -0.125563 -0.0948709 1.02285 0.115347 0.116396 0.0305052 0.873268)
(1.13988 0.0855072 -0.185659 -0.0764675 1.0307 0.140226 0.149817 -0.00243696 0.818866)
(1.17429 0.0512772 -0.238001 -0.0199248 1.02085 0.164031 0.163178 -0.049161 0.789855)
(1.1743 0.0194645 -0.274768 0.0593656 0.997588 0.187609 0.129975 -0.0952781 0.803338)
(1.14479 0.0308307 -0.26678 0.0863399 0.967648 0.196752 0.047529 -0.0701114 0.866419)
(1.07153 0.0112515 -0.273953 0.0699484 0.999321 0.207319 -0.0364606 -0.092373 0.913906)
(1.00296 -0.0308141 -0.269886 0.0126151 1.0216 0.201852 -0.0831017 -0.121055 0.966569)
(0.966546 -0.0789766 -0.255868 -0.0496959 1.01616 0.183474 -0.0882526 -0.139708 1.01537)
(0.964838 -0.112955 -0.234561 -0.0943386 0.986257 0.156651 -0.070443 -0.139536 1.05501)
(0.985316 -0.121315 -0.209195 -0.114105 0.944748 0.126103 -0.0484702 -0.123072 1.08286)
(1.01369 -0.10315 -0.182243 -0.11202 0.905023 0.0949568 -0.0330934 -0.0988069 1.09821)
(1.03945 -0.064023 -0.154614 -0.0951066 0.876757 0.0646106 -0.0273544 -0.0757343 1.10147)
(1.05645 -0.0123207 -0.125654 -0.0710964 0.865561 0.0354662 -0.0293134 -0.060207 1.09345)
(1.06221 0.042529 -0.0937263 -0.0476125 0.873699 0.00766851 -0.0348033 -0.0544635 1.075)
(1.05778 0.0907075 -0.0570473 -0.0320848 0.900215 -0.0184853 -0.0400168 -0.0561967 1.04687)
(1.04817 0.12278 -0.014582 -0.0308746 0.940179 -0.0425305 -0.0439617 -0.0592971 1.01013)
(1.04257 0.13171 0.0332566 -0.0465776 0.983837 -0.0641494 -0.0499741 -0.0561455 0.966645)
(1.05226 0.116317 0.0843123 -0.0737289 1.0175 -0.083642 -0.0646183 -0.0412022 0.919843)
(1.08459 0.0844158 0.134962 -0.0958312 1.02819 -0.102305 -0.0924602 -0.0143864 0.875227)
(1.1343 0.0517965 0.181033 -0.0894255 1.01175 -0.122397 -0.127606 0.0180379 0.840398)
(1.17907 0.0332696 0.219286 -0.0398051 0.979016 -0.146041 -0.147789 0.0457181 0.824081)
(1.18812 0.0314106 0.248029 0.0381199 0.956822 -0.172624 -0.121819 0.0598956 0.833482)
(1.14479 0.0308307 0.26678 0.0863399 0.967648 -0.196752 -0.047529 0.0701114 0.866419)
(1.07153 0.0112515 0.273953 0.0699484 0.999321 -0.207319 0.0364606 0.092373 0.913906)
(1.00296 -0.0308141 0.269886 0.0126151 1.0216 -0.201852 0.0831017 0.121055 0.966569)
(0.966546 -0.0789766 0.255868 -0.0496959 1.01616 -0.183474 0.0882526 0.139708 1.01537)
(0.964838 -0.112955 0.234561 -0.0943386 0.986257 -0.156651 0.070443 0.139536 1.05501)
(0.985316 -0.121315 0.209195 -0.114105 0.944748 -0.126103 0.0484702 0.123072 1.08286)
(1.01369 -0.10315 0.182243 -0.11202 0.905023 -0.0949568 0.0330934 0.0988069 1.09821)
(1.03945 -0.064023 0.154614 -0.0951066 0.876757 -0.0646106 0.0273544 0.0757343 1.10147)
(1.05645 -0.0123207 0.125654 -0.0710964 0.865561 -0.0354662 0.0293134 0.060207 1.09345)
(1.06221 0.042529 0.0937263 -0.0476125 0.873699 -0.00766852 0.0348033 0.0544635 1.075)
(1.05778 0.0907075 0.0570473 -0.0320848 0.900215 0.0184853 0.0400168 0.0561967 1.04687)
(1.04817 0.12278 0.014582 -0.0308746 0.940179 0.0425305 0.0439617 0.0592971 1.01013)
(1.04257 0.13171 -0.0332566 -0.0465776 0.983837 0.0641494 0.0499741 0.0561455 0.966645)
(1.05226 0.116317 -0.0843123 -0.0737289 1.0175 0.083642 0.0646183 0.0412022 0.919843)
(1.08459 0.0844158 -0.134962 -0.0958312 1.02819 0.102305 0.0924602 0.0143864 0.875227)
(1.1343 0.0517965 -0.181033 -0.0894255 1.01175 0.122397 0.127606 -0.0180379 0.840398)
(1.17907 0.0332696 -0.219286 -0.0398051 0.979016 0.146041 0.147789 -0.0457181 0.824081)
(1.18812 0.0314106 -0.248029 0.0381199 0.956822 0.172624 0.121819 -0.0598956 0.833482)
(1.16138 0.0742082 -0.228583 0.0663557 0.947394 0.189276 0.0458179 -0.0181513 0.878013)
(1.08283 0.0731353 -0.249995 0.0533925 1.00924 0.202006 -0.0330716 -0.0414568 0.895252)
(1.00911 0.0292417 -0.263359 -0.00182354 1.0508 0.196922 -0.0747976 -0.089269 0.922331)
(0.971643 -0.0345384 -0.263377 -0.0642384 1.05284 0.176838 -0.0734595 -0.127155 0.955482)
(0.973304 -0.0881732 -0.250676 -0.109913 1.02239 0.14725 -0.0502515 -0.137889 0.988779)
(1.00099 -0.113622 -0.228509 -0.130328 0.975376 0.11343 -0.0265641 -0.124594 1.01684)
(1.03868 -0.106563 -0.199976 -0.126574 0.927529 0.0789294 -0.0138972 -0.0994879 1.03592)
(1.07316 -0.0716659 -0.166836 -0.104164 0.891188 0.045788 -0.0143042 -0.0751044 1.04399)
(1.09529 -0.0186481 -0.129611 -0.0708908 0.874832 0.0152753 -0.0236329 -0.0599607 1.04042)
(1.10033 0.0399555 -0.0882427 -0.0362657 0.882754 -0.0115887 -0.0348426 -0.0566554 1.02565)
(1.08865 0.0903278 -0.0428953 -0.0108972 0.91412 -0.0339136 -0.0414319 -0.0613554 1.00118)
(1.0666 0.119445 0.00532549 -0.00467138 0.96151 -0.0512181 -0.041041 -0.0650347 0.969724)
(1.04667 0.118713 0.0539993 -0.0228151 1.01004 -0.064036 -0.0380982 -0.0572697 0.935317)
(1.04473 0.0890445 0.0996691 -0.0600473 1.03957 -0.0745414 -0.0430368 -0.0324172 0.903002)
(1.07233 0.0445662 0.138887 -0.0965112 1.03304 -0.0865065 -0.0656068 0.00442851 0.877784)
(1.12621 0.00969227 0.169555 -0.10298 0.98972 -0.103925 -0.103124 0.0366039 0.863138)
(1.18264 0.00701265 0.191911 -0.0601301 0.933974 -0.128525 -0.13096 0.0449122 0.860007)
(1.20252 0.0393752 0.209067 0.0156722 0.91162 -0.159772 -0.112547 0.0291749 0.866726)
(1.16138 0.0742082 0.228583 0.0663557 0.947394 -0.189276 -0.0458179 0.0181513 0.878013)
(1.08283 0.0731353 0.249995 0.0533925 1.00924 -0.202006 0.0330716 0.0414568 0.895252)
(1.00911 0.0292417 0.263359 -0.00182354 1.0508 -0.196922 0.0747976 0.089269 0.922331)
(0.971643 -0.0345384 0.263377 -0.0642384 1.05284 -0.176838 0.0734595 0.127155 0.955482)
(0.973304 -0.0881732 0.250676 -0.109913 1.02239 -0.14725 0.0502515 0.137889 0.988779)
(1.00099 -0.113622 0.228509 -0.130328 0.975376 -0.11343 0.0265641 0.124594 1.01684)
(1.03868 -0.106563 0.199976 -0.126574 0.927529 -0.0789294 0.0138972 0.0994879 1.03592)
(1.07316 -0.0716659 0.166836 -0.104164 0.891188 -0.045788 0.0143042 0.0751044 1.04399)
(1.09529 -0.0186481 0.129611 -0.0708908 0.874832 -0.0152753 0.0236329 0.0599607 1.04042)
(1.10033 0.0399555 0.0882427 -0.0362657 0.882754 0.0115886 0.0348426 0.0566554 1.02565)
(1.08865 0.0903278 0.0428953 -0.0108972 0.91412 0.0339136 0.0414319 0.0613554 1.00118)
(1.0666 0.119445 -0.00532549 -0.00467138 0.96151 0.0512181 0.041041 0.0650347 0.969724)
(1.04667 0.118713 -0.0539993 -0.0228151 1.01004 0.064036 0.0380982 0.0572697 0.935317)
(1.04473 0.0890445 -0.0996691 -0.0600473 1.03957 0.0745414 0.0430368 0.0324172 0.903002)
(1.07233 0.0445662 -0.138887 -0.0965112 1.03304 0.0865065 0.0656068 -0.00442851 0.877784)
(1.12621 0.00969227 -0.169555 -0.10298 0.98972 0.103925 0.103124 -0.0366039 0.863138)
(1.18264 0.00701265 -0.191911 -0.0601301 0.933974 0.128525 0.13096 -0.0449122 0.860007)
(1.20252 0.0393752 -0.209067 0.0156722 0.91162 0.159772 0.112547 -0.0291749 0.866726)
(1.17058 0.000676892 -0.238008 0.0345075 0.962497 0.250021 0.0648675 -0.214225 0.818217)
(1.0872 -0.0504929 -0.238028 0.0247336 0.973356 0.243069 -0.0582028 -0.256282 0.897078)
(1.00558 -0.105434 -0.224723 -0.0211312 0.987512 0.224179 -0.134879 -0.277577 0.985696)
(0.957579 -0.151232 -0.203505 -0.0781868 0.981628 0.202198 -0.162877 -0.285518 1.06604)
(0.947611 -0.1769 -0.17954 -0.123252 0.953189 0.17884 -0.156134 -0.279449 1.12713)
(0.96393 -0.17534 -0.156123 -0.145528 0.911021 0.154575 -0.132824 -0.260785 1.16652)
(0.991881 -0.146312 -0.134546 -0.146025 0.867747 0.129842 -0.10686 -0.235358 1.18649)
(1.02034 -0.0947221 -0.114688 -0.13124 0.833769 0.104798 -0.0855343 -0.210466 1.1903)
(1.04257 -0.0281609 -0.0953378 -0.108848 0.815808 0.0791906 -0.0709224 -0.191848 1.18037)
(1.05548 0.0444241 -0.074446 -0.0864517 0.817403 0.052568 -0.0623999 -0.181826 1.1577)
(1.0595 0.113127 -0.0496449 -0.0714401 0.83907 0.0246374 -0.0592659 -0.17853 1.12214)
(1.05908 0.167656 -0.019016 -0.0700561 0.87761 -0.00450386 -0.0629823 -0.176285 1.07317)
(1.0627 0.199015 0.0181025 -0.0846425 0.92537 -0.0344729 -0.0779998 -0.167294 1.0114)
(1.08066 0.2023 0.060599 -0.109748 0.970884 -0.0651581 -0.10959 -0.144111 0.9404)
(1.11921 0.179309 0.105709 -0.13011 1.00179 -0.0976579 -0.157738 -0.101505 0.868154)
(1.17264 0.138612 0.149893 -0.125027 1.0097 -0.134869 -0.20873 -0.0367738 0.806558)
(1.21793 0.0912815 0.189554 -0.0819336 0.995203 -0.179499 -0.230677 0.0487767 0.769103)
(1.22185 0.0457743 0.220304 -0.0150643 0.972314 -0.226202 -0.186051 0.141707 0.769653)
(1.17058 0.000676892 0.238008 0.0345075 0.962497 -0.250021 -0.0648675 0.214225 0.818217)
(1.0872 -0.0504929 0.238028 0.0247336 0.973356 -0.243069 0.0582028 0.256282 0.897078)
(1.00558 -0.105434 0.224723 -0.0211312 0.987512 -0.224179 0.134879 0.277577 0.985696)
(0.957579 -0.151232 0.203505 -0.0781868 0.981628 -0.202198 0.162877 0.285518 1.06604)
(0.947611 -0.1769 0.17954 -0.123252 0.953189 -0.17884 0.156134 0.279449 1.12713)
(0.96393 -0.17534 0.156123 -0.145528 0.911021 -0.154575 0.132824 0.260785 1.16652)
(0.991881 -0.146312 0.134546 -0.146025 0.867747 -0.129842 0.10686 0.235358 1.18649)
(1.02034 -0.0947221 0.114688 -0.13124 0.833769 -0.104798 0.0855343 0.210466 1.1903)
(1.04257 -0.0281609 0.0953378 -0.108848 0.815808 -0.0791906 0.0709224 0.191848 1.18037)
(1.05548 0.0444241 0.074446 -0.0864517 0.817403 -0.052568 0.0623999 0.181826 1.1577)
(1.0595 0.113127 0.0496449 -0.0714401 0.83907 -0.0246374 0.0592659 0.17853 1.12214)
(1.05908 0.167656 0.019016 -0.0700561 0.87761 0.00450386 0.0629823 0.176285 1.07317)
(1.0627 0.199015 -0.0181025 -0.0846425 0.92537 0.0344729 0.0779998 0.167294 1.0114)
(1.08066 0.2023 -0.060599 -0.109748 0.970884 0.0651581 0.10959 0.144111 0.9404)
(1.11921 0.179309 -0.105709 -0.13011 1.00179 0.0976579 0.157738 0.101505 0.868154)
(1.17264 0.138612 -0.149893 -0.125027 1.0097 0.134869 0.20873 0.0367738 0.806558)
(1.21793 0.0912815 -0.189554 -0.0819336 0.995203 0.179499 0.230677 -0.0487767 0.769103)
(1.22185 0.0457743 -0.220304 -0.0150643 0.972314 0.226202 0.186051 -0.141707 0.769653)
(1.19453 0.0503047 -0.22765 0.0258139 0.946151 0.196076 0.069636 -0.131638 0.825172)
(1.10249 0.0181289 -0.231823 0.0206468 0.986915 0.198927 -0.0545392 -0.182951 0.881579)
(1.01443 -0.0419603 -0.225061 -0.0258302 1.01915 0.191503 -0.131388 -0.234285 0.946413)
(0.966928 -0.107911 -0.21087 -0.086128 1.02038 0.1774 -0.153609 -0.26903 1.00625)
(0.9632 -0.155051 -0.192621 -0.134262 0.990871 0.158145 -0.139216 -0.278992 1.05394)
(0.988715 -0.169553 -0.172545 -0.1583 0.943191 0.135169 -0.11106 -0.266172 1.08696)
(1.02646 -0.149437 -0.151599 -0.158375 0.892748 0.109824 -0.0851731 -0.240541 1.10543)
(1.06319 -0.10015 -0.129698 -0.140145 0.852069 0.0831592 -0.0683262 -0.213737 1.11043)
(1.09004 -0.031069 -0.106031 -0.111158 0.829896 0.0558902 -0.0602342 -0.194347 1.10302)
(1.10217 0.0460096 -0.0793849 -0.0800743 0.831355 0.0285192 -0.0569715 -0.185374 1.08392)
(1.09916 0.117592 -0.0485685 -0.0564963 0.857318 0.00149732 -0.0546717 -0.183351 1.05363)
(1.08612 0.169833 -0.0129388 -0.0495707 0.90288 -0.0247085 -0.0531435 -0.179306 1.013)
(1.0742 0.191602 0.0271042 -0.0643074 0.956125 -0.0497422 -0.0580784 -0.162232 0.964109)
(1.07815 0.179287 0.0698639 -0.0961784 0.999399 -0.0736731 -0.0793316 -0.124769 0.911091)
(1.10919 0.141097 0.112511 -0.127711 1.01544 -0.0973526 -0.123074 -0.0686583 0.860366)
(1.1647 0.0964473 0.151752 -0.133457 0.997989 -0.122395 -0.179283 -0.00554955 0.819563)
(1.22122 0.0662691 0.184968 -0.0969883 0.960651 -0.149943 -0.213661 0.050498 0.795464)
(1.24043 0.0572649 0.211157 -0.0285983 0.933581 -0.177115 -0.181584 0.0922617 0.794589)
(1.19453 0.0503047 0.22765 0.0258139 0.946151 -0.196076 -0.069636 0.131638 0.825172)
(1.10249 0.0181289 0.231823 0.0206468 0.986915 -0.198927 0.0545392 0.182951 0.881579)
(1.01443 -0.0419603 0.225061 -0.0258302 1.01915 -0.191503 0.131388 0.234285 0.946413)
(0.966928 -0.107911 0.21087 -0.086128 1.02038 -0.1774 0.153609 0.26903 1.00625)
(0.9632 -0.155051 0.192621 -0.134262 0.990871 -0.158145 0.139216 0.278992 1.05394)
(0.988715 -0.169553 0.172545 -0.1583 0.943191 -0.135169 0.11106 0.266172 1.08696)
(1.02646 -0.149437 0.151599 -0.158375 0.892748 -0.109824 0.0851731 0.240541 1.10543)
(1.06319 -0.10015 0.129698 -0.140145 0.852069 -0.0831592 0.0683262 0.213737 1.11043)
(1.09004 -0.031069 0.106031 -0.111158 0.829896 -0.0558902 0.0602342 0.194347 1.10302)
(1.10217 0.0460096 0.0793849 -0.0800743 0.831355 -0.0285192 0.0569715 0.185374 1.08392)
(1.09916 0.117592 0.0485685 -0.0564963 0.857318 -0.00149732 0.0546717 0.183351 1.05363)
(1.08612 0.169833 0.0129388 -0.0495707 0.90288 0.0247085 0.0531435 0.179306 1.013)
(1.0742 0.191602 -0.0271042 -0.0643074 0.956125 0.0497422 0.0580784 0.162232 0.964109)
(1.07815 0.179287 -0.0698639 -0.0961784 0.999399 0.0736731 0.0793316 0.124769 0.911091)
(1.10919 0.141097 -0.112511 -0.127711 1.01544 0.0973526 0.123074 0.0686583 0.860366)
(1.1647 0.0964473 -0.151752 -0.133457 0.997989 0.122395 0.179283 0.00554955 0.819563)
(1.22122 0.0662691 -0.184968 -0.0969883 0.960651 0.149943 0.213661 -0.050498 0.795464)
(1.24043 0.0572649 -0.211157 -0.0285983 0.933581 0.177115 0.181584 -0.0922617 0.794589)
(1.22067 0.101591 -0.215278 0.0155841 0.918684 0.154994 0.0763976 -0.0488312 0.839639)
(1.11892 0.0998319 -0.221374 0.0157958 0.990046 0.164077 -0.0512698 -0.0973603 0.869956)
(1.02207 0.037417 -0.220842 -0.0307574 1.04589 0.165412 -0.13083 -0.177569 0.907438)
(0.972666 -0.0492394 -0.213723 -0.0950915 1.06018 0.157576 -0.146903 -0.244381 0.944739)
(0.974077 -0.12111 -0.201095 -0.14812 1.0338 0.141561 -0.123179 -0.275074 0.977978)
(1.00994 -0.156179 -0.184156 -0.176013 0.982466 0.119565 -0.0887965 -0.270626 1.00417)
(1.06055 -0.14891 -0.163686 -0.176686 0.924521 0.0937506 -0.0627581 -0.245597 1.02103)
(1.1092 -0.10415 -0.139806 -0.154071 0.875665 0.065888 -0.0513238 -0.216989 1.02729)
(1.14331 -0.0330293 -0.112191 -0.115647 0.847981 0.0374621 -0.0511616 -0.197043 1.02259)
(1.15514 0.0489064 -0.0804421 -0.0721491 0.849095 0.00975386 -0.0540339 -0.189636 1.00732)
(1.14329 0.123292 -0.0444527 -0.0369327 0.880247 -0.0161967 -0.0520501 -0.189216 0.98271)
(1.11448 0.171795 -0.004728 -0.0234513 0.93381 -0.0397165 -0.0431587 -0.182646 0.951019)
(1.08402 0.181191 0.0374139 -0.0398962 0.991943 -0.0606866 -0.0351038 -0.155149 0.915805)
(1.07251 0.150307 0.0798876 -0.0816224 1.02971 -0.0796376 -0.044018 -0.100106 0.881681)
(1.09625 0.0950064 0.120174 -0.126551 1.02623 -0.0974284 -0.0836926 -0.0282605 0.853286)
(1.15443 0.0447134 0.155729 -0.142856 0.98113 -0.114415 -0.147287 0.0332547 0.833774)
(1.22279 0.0280962 0.1843 -0.112226 0.919837 -0.129834 -0.196394 0.0595342 0.82425)
(1.2594 0.0572229 0.204245 -0.042776 0.886329 -0.142495 -0.178503 0.0506583 0.825444)
(1.22067 0.101591 0.215278 0.0155841 0.918684 -0.154994 -0.0763976 0.0488312 0.839639)
(1.11892 0.0998319 0.221374 0.0157958 0.990046 -0.164077 0.0512698 0.0973603 0.869956)
(1.02207 0.037417 0.220842 -0.0307574 1.04589 -0.165412 0.13083 0.177569 0.907438)
(0.972666 -0.0492394 0.213723 -0.0950915 1.06018 -0.157576 0.146903 0.244381 0.944739)
(0.974077 -0.12111 0.201095 -0.14812 1.0338 -0.141561 0.123179 0.275074 0.977978)
(1.00994 -0.156179 0.184156 -0.176013 0.982466 -0.119565 0.0887965 0.270626 1.00417)
(1.06055 -0.14891 0.163686 -0.176686 0.924521 -0.0937506 0.0627581 0.245597 1.02103)
(1.1092 -0.10415 0.139806 -0.154071 0.875665 -0.065888 0.0513238 0.216989 1.02729)
(1.14331 -0.0330293 0.112191 -0.115647 0.847981 -0.0374621 0.0511616 0.197043 1.02259)
(1.15514 0.0489064 0.0804421 -0.0721491 0.849095 -0.00975386 0.0540339 0.189636 1.00732)
(1.14329 0.123292 0.0444527 -0.0369327 0.880247 0.0161967 0.0520501 0.189216 0.98271)
(1.11448 0.171795 0.004728 -0.0234513 0.93381 0.0397165 0.0431587 0.182646 0.951019)
(1.08402 0.181191 -0.0374139 -0.0398962 0.991943 0.0606866 0.0351038 0.155149 0.915805)
(1.07251 0.150307 -0.0798876 -0.0816224 1.02971 0.0796376 0.044018 0.100106 0.881681)
(1.09625 0.0950064 -0.120174 -0.126551 1.02623 0.0974284 0.0836926 0.0282605 0.853286)
(1.15443 0.0447134 -0.155729 -0.142856 0.98113 0.114415 0.147287 -0.0332547 0.833774)
(1.22279 0.0280962 -0.1843 -0.112226 0.919837 0.129834 0.196394 -0.0595342 0.82425)
(1.2594 0.0572229 -0.204245 -0.042776 0.886329 0.142495 0.178503 -0.0506583 0.825444)
(1.17398 0.0141915 -0.169374 -0.102499 0.941715 0.241575 0.0942107 -0.274957 0.822572)
(1.0938 -0.0512121 -0.173433 -0.0858319 0.965563 0.239879 -0.0436178 -0.34939 0.880654)
(1.0164 -0.11612 -0.165981 -0.105415 0.978026 0.227478 -0.143622 -0.393943 0.962323)
(0.968872 -0.169688 -0.150742 -0.142534 0.969696 0.21201 -0.195898 -0.417785 1.04448)
(0.957802 -0.200646 -0.133217 -0.175245 0.939331 0.19546 -0.205451 -0.421983 1.11086)
(0.974109 -0.202441 -0.116327 -0.190843 0.894258 0.177266 -0.187594 -0.410466 1.1563)
(1.00439 -0.174606 -0.100371 -0.187452 0.845814 0.157081 -0.158074 -0.390129 1.18225)