/*--------------------------------*- C++ -*----------------------------------*\
| =========                 |                                                 |
| \\      /  F ield         | OpenFOAM: The Open Source CFD Toolbox           |
|  \\    /   O peration     | Version:  2312                                  |
|   \\  /    A nd           | Website:  www.openfoam.com                      |
|    \\/     M anipulation  |                                                 |
\*---------------------------------------------------------------------------*/
FoamFile
{
    version     2.0;
    format      ascii;
    arch        "LSB;label=32;scalar=64";
    class       pointVectorField;
    location    "0.4";
    object      pointD;
}
// * * * * * * * * * * * * * * * * * * * * * * * * * * * * * * * * * * * * * //

dimensions      [0 1 0 0 0 0 0];

internalField   nonuniform List<vector> 
2164
(
(0 0 0)
(0 0 0)
(0 0 0)
(0 0 0)
(0 0 0)
(0 0 0)
(0 0 0)
(0 0 0)
(0 0 0)
(0 0 0)
(0 0 0)
(0 0 0)
(0 0 0)
(0 0 0)
(0 0 0)
(0 0 0)
(0 0 0)
(0 0 0)
(0 0 0)
(0 0 0)
(0 0 0)
(0 0 0)
(0 0 0)
(0 0 0)
(0 0 0)
(0 0 0)
(0 0 0)
(0 0 0)
(0 0 0)
(0 0 0)
(0 0 0)
(0 0 0)
(0 0 0)
(0 0 0)
(0 0 0)
(0 0 0)
(-0.000237318 9.31125e-05 -0.000224588)
(-0.000180676 0.000212276 -0.000189728)
(-0.000112655 0.000298335 -0.000135685)
(-3.87401e-05 0.000361125 -6.65704e-05)
(3.7034e-05 0.000415733 2.06027e-05)
(0.00010572 0.000475277 0.000131606)
(0.000152581 0.000545772 0.000269952)
(0.000171641 0.000615886 0.000418022)
(0.000168142 0.000664336 0.000493278)
(0.000137678 0.000677816 0.000435952)
(9.72849e-05 0.000659288 0.000312414)
(7.63878e-05 0.000625103 0.000195936)
(7.59203e-05 0.000586625 9.8134e-05)
(8.71437e-05 0.000542992 1.6515e-05)
(0.0001034 0.000486707 -5.35425e-05)
(0.00012016 0.000407245 -0.000115135)
(0.000128782 0.000296766 -0.000164064)
(0.000115848 0.000160024 -0.000184566)
(7.69763e-05 1.90161e-05 -0.000165969)
(2.42621e-05 -0.000101903 -0.00012137)
(-2.74547e-05 -0.000194091 -6.94816e-05)
(-7.30991e-05 -0.00026301 -1.49269e-05)
(-0.000113147 -0.000319681 4.76113e-05)
(-0.000146125 -0.000376382 0.000128757)
(-0.000164831 -0.000442208 0.000240142)
(-0.0001698 -0.000509967 0.00037471)
(-0.000167044 -0.000559771 0.000455729)
(-0.000147748 -0.00057664 0.000417732)
(-0.000124757 -0.000562062 0.000312996)
(-0.000124352 -0.000531368 0.000206042)
(-0.000146386 -0.000494945 0.000109231)
(-0.000180936 -0.000451806 2.27697e-05)
(-0.000218837 -0.000394008 -5.56469e-05)
(-0.000253261 -0.000310402 -0.000127874)
(-0.000274925 -0.000193156 -0.000189872)
(-0.000271339 -5.04998e-05 -0.000226628)
(-0.00010357 5.95221e-05 -0.000137572)
(-7.10328e-05 0.000173413 -9.97121e-05)
(-3.59345e-05 0.000252747 -5.3989e-05)
(2.19324e-06 0.000305931 8.78274e-07)
(4.29833e-05 0.000343544 6.54465e-05)
(8.27904e-05 0.000376135 0.000139939)
(0.000115853 0.000410292 0.000222695)
(0.000141287 0.000445426 0.000302568)
(0.000157938 0.000477356 0.00034208)
(0.00015783 0.000502316 0.000315504)
(0.000144068 0.000517507 0.000251288)
(0.000128743 0.00052409 0.000182739)
(0.000115266 0.000523067 0.000118653)
(0.000101104 0.000510266 6.09378e-05)
(8.39982e-05 0.000477585 9.59559e-06)
(6.35613e-05 0.000416146 -3.62466e-05)
(3.90119e-05 0.000316767 -7.7492e-05)
(1.05837e-05 0.000183024 -9.58201e-05)
(-1.84235e-05 4.44261e-05 -7.40293e-05)
(-4.52199e-05 -6.88609e-05 -3.37371e-05)
(-6.80469e-05 -0.000150652 5.76782e-06)
(-8.71952e-05 -0.00020741 4.66071e-05)
(-0.000104508 -0.000247406 9.15857e-05)
(-0.000120518 -0.000280041 0.000144511)
(-0.00013418 -0.000312402 0.000208805)
(-0.00014882 -0.000345145 0.000278695)
(-0.000164889 -0.000374807 0.000318611)
(-0.000172719 -0.000398373 0.000299232)
(-0.000173092 -0.000414201 0.0002423)
(-0.000175623 -0.000423348 0.000176707)
(-0.000181328 -0.000425705 0.000110906)
(-0.000185668 -0.000416046 4.77741e-05)
(-0.000184288 -0.00038506 -1.16246e-05)
(-0.000175379 -0.000322776 -6.73107e-05)
(-0.000158115 -0.000219961 -0.000119845)
(-0.000133175 -8.21279e-05 -0.000150083)
(0 0 0)
(0 0 0)
(0 0 0)
(0 0 0)
(0 0 0)
(0 0 0)
(0 0 0)
(0 0 0)
(0 0 0)
(0 0 0)
(0 0 0)
(0 0 0)
(0 0 0)
(0 0 0)
(0 0 0)
(0 0 0)
(0 0 0)
(0 0 0)
(0 0 0)
(0 0 0)
(0 0 0)
(0 0 0)
(0 0 0)
(0 0 0)
(0 0 0)
(0 0 0)
(0 0 0)
(0 0 0)
(0 0 0)
(0 0 0)
(0 0 0)
(0 0 0)
(0 0 0)
(0 0 0)
(0 0 0)
(0 0 0)
(1.53115e-05 2.10469e-05 -4.67848e-05)
(2.33144e-05 0.000129211 -1.26763e-05)
(2.5611e-05 0.00020166 2.35306e-05)
(2.89269e-05 0.000244379 6.35149e-05)
(3.66437e-05 0.000265453 0.000105381)
(5.04563e-05 0.000274218 0.000144205)
(7.22865e-05 0.000278955 0.000173242)
(0.000106851 0.000287599 0.000187657)
(0.000149981 0.00030696 0.000193427)
(0.000184151 0.000339447 0.000196935)
(0.000197186 0.00038062 0.000189646)
(0.000189515 0.000422044 0.000166713)
(0.000165653 0.000455629 0.000134671)
(0.000128342 0.000473001 0.00010005)
(7.96817e-05 0.000464398 6.74881e-05)
(2.34309e-05 0.00042059 3.87662e-05)
(-3.25767e-05 0.000332668 1.23124e-05)
(-7.50132e-05 0.000206379 1.79044e-06)
(-9.46059e-05 7.4572e-05 2.03426e-05)
(-9.6702e-05 -3.02977e-05 4.94569e-05)
(-9.17549e-05 -0.000101176 7.55848e-05)
(-8.59371e-05 -0.000144414 0.000102424)
(-8.26199e-05 -0.000167445 0.00012999)
(-8.45208e-05 -0.000178192 0.000155308)
(-9.56927e-05 -0.000183335 0.00017348)
(-0.000123178 -0.000189993 0.000180853)
(-0.000164108 -0.0002057 0.000182617)
(-0.000201583 -0.000235087 0.000183158)
(-0.000224143 -0.000275685 0.000173111)
(-0.000230514 -0.000319493 0.000147145)
(-0.000221502 -0.000357648 0.000110899)
(-0.000197099 -0.000380167 7.03167e-05)
(-0.000157794 -0.000375524 2.98127e-05)
(-0.000106897 -0.000333211 -8.54647e-06)
(-5.26072e-05 -0.000244253 -4.52394e-05)
(-8.59364e-06 -0.000114819 -6.35668e-05)
(0 0 0)
(0 0 0)
(0 0 0)
(0 0 0)
(0 0 0)
(0 0 0)
(0 0 0)
(0 0 0)
(0 0 0)
(0 0 0)
(0 0 0)
(0 0 0)
(0 0 0)
(0 0 0)
(0 0 0)
(0 0 0)
(0 0 0)
(0 0 0)
(0 0 0)
(0 0 0)
(0 0 0)
(0 0 0)
(0 0 0)
(0 0 0)
(0 0 0)
(0 0 0)
(0 0 0)
(0 0 0)
(0 0 0)
(0 0 0)
(0 0 0)
(0 0 0)
(0 0 0)
(0 0 0)
(0 0 0)
(0 0 0)
(0.000106703 -2.25505e-05 4.47344e-05)
(9.37952e-05 7.75505e-05 6.82818e-05)
(6.73558e-05 0.000142491 9.3905e-05)
(4.02477e-05 0.000174305 0.000118297)
(2.01593e-05 0.000180528 0.000136909)
(1.40034e-05 0.000170892 0.000141238)
(2.91087e-05 0.000156627 0.000122355)
(7.42475e-05 0.000150611 8.39491e-05)
(0.000145173 0.000162868 6.3451e-05)
(0.000211951 0.000197902 8.82762e-05)
(0.000248937 0.000253869 0.000126035)
(0.000251172 0.000320096 0.000143787)
(0.00022161 0.000382079 0.000142501)
(0.000166171 0.000426448 0.000131114)
(9.12096e-05 0.00044065 0.000117852)
(5.25563e-06 0.000413504 0.000107453)
(-7.53261e-05 0.000338987 0.000102185)
(-0.000127891 0.000228131 0.000104383)
(-0.000140673 0.000110941 0.000113554)
(-0.000123717 1.69191e-05 0.000125503)
(-9.58728e-05 -4.2657e-05 0.000137849)
(-6.93256e-05 -7.18721e-05 0.000150301)
(-4.99407e-05 -7.8853e-05 0.00015973)
(-4.30326e-05 -7.18055e-05 0.000157672)
(-5.58274e-05 -5.92165e-05 0.000133914)
(-9.79961e-05 -5.23135e-05 9.05133e-05)
(-0.000165443 -6.22887e-05 6.29873e-05)
(-0.00023033 -9.59291e-05 7.78439e-05)
(-0.000270988 -0.000152413 0.000105208)
(-0.000281787 -0.000221622 0.000114582)
(-0.000261358 -0.000288966 0.000106459)
(-0.000212458 -0.000339463 8.81998e-05)
(-0.000140276 -0.000358612 6.67166e-05)
(-5.37136e-05 -0.000334022 4.6508e-05)
(3.02784e-05 -0.000259455 3.1908e-05)
(8.82359e-05 -0.000145303 3.03457e-05)
(0 0 0)
(0 0 0)
(0 0 0)
(0 0 0)
(0 0 0)
(0 0 0)
(0 0 0)
(0 0 0)
(0 0 0)
(0 0 0)
(0 0 0)
(0 0 0)
(0 0 0)
(0 0 0)
(0 0 0)
(0 0 0)
(0 0 0)
(0 0 0)
(0 0 0)
(0 0 0)
(0 0 0)
(0 0 0)
(0 0 0)
(0 0 0)
(0 0 0)
(0 0 0)
(0 0 0)
(0 0 0)
(0 0 0)
(0 0 0)
(0 0 0)
(0 0 0)
(0 0 0)
(0 0 0)
(0 0 0)
(0 0 0)
(-0.000379503 0.000164871 -0.000415827)
(-0.000294151 0.000402505 -0.000351993)
(-0.000192361 0.000571878 -0.000244402)
(-7.94939e-05 0.000688682 -0.000101779)
(3.84205e-05 0.000779123 7.89204e-05)
(0.000148605 0.000866122 0.000303616)
(0.000233479 0.000961856 0.000568811)
(0.000286691 0.00105829 0.000835343)
(0.000313903 0.00113432 0.000985)
(0.00030159 0.00117324 0.000920035)
(0.000259002 0.00117396 0.000715049)
(0.000224892 0.00115021 0.000490544)
(0.000210878 0.00111097 0.000287447)
(0.000210714 0.00105154 0.000112667)
(0.00021565 0.000958238 -3.73228e-05)
(0.00021741 0.000812003 -0.000165716)
(0.000204305 0.000598551 -0.000263714)
(0.000164938 0.000330486 -0.000305559)
(9.97886e-05 5.37287e-05 -0.000274679)
(2.16334e-05 -0.000181434 -0.000191897)
(-5.50298e-05 -0.000355388 -8.90788e-05)
(-0.000123917 -0.00047916 2.34711e-05)
(-0.000184403 -0.000573726 0.000153536)
(-0.000234329 -0.00066002 0.000317108)
(-0.000268362 -0.000752769 0.000525741)
(-0.000291333 -0.000848505 0.000758369)
(-0.000313513 -0.000927976 0.000911054)
(-0.000319693 -0.000972745 0.000877892)
(-0.000311069 -0.000979979 0.000705847)
(-0.000317499 -0.000962669 0.000498559)
(-0.000347066 -0.0009289 0.000296412)
(-0.000389521 -0.000872622 0.000110523)
(-0.000431359 -0.000778353 -5.8224e-05)
(-0.000460958 -0.000625633 -0.000210485)
(-0.000466676 -0.000400477 -0.000337496)
(-0.000439492 -0.000120359 -0.000413623)
(-0.000195398 9.82124e-05 -0.000261121)
(-0.00013872 0.000319517 -0.000190699)
(-7.83941e-05 0.000474662 -9.32805e-05)
(-1.18033e-05 0.000577854 2.66726e-05)
(6.0649e-05 0.000648687 0.000168333)
(0.00013352 0.000706501 0.000329867)
(0.000199209 0.000764191 0.000503093)
(0.000255815 0.000824094 0.000662453)
(0.000301326 0.000881918 0.000748883)
(0.00032117 0.000932766 0.000716893)
(0.000311849 0.000972035 0.000600513)
(0.000288681 0.000997666 0.000458515)
(0.000260704 0.00100656 0.000317561)
(0.000227598 0.000989249 0.000187497)
(0.000187172 0.000930601 7.12375e-05)
(0.000138863 0.000813795 -3.04856e-05)
(8.2965e-05 0.000623124 -0.000112799)
(2.38187e-05 0.000369709 -0.000147174)
(-3.07238e-05 0.000106857 -0.000111996)
(-7.77248e-05 -0.000110472 -3.65696e-05)
(-0.000117633 -0.000266719 4.78246e-05)
(-0.000152268 -0.000373919 0.000137802)
(-0.000184259 -0.000448505 0.000237063)
(-0.00021468 -0.000507729 0.000351268)
(-0.000244002 -0.000564468 0.000482274)
(-0.000277834 -0.000622274 0.000615113)
(-0.000318509 -0.00067773 0.000697123)
(-0.000351424 -0.000727247 0.000676953)
(-0.000368673 -0.000768307 0.000574024)
(-0.000379497 -0.000799224 0.000437559)
(-0.000388043 -0.000815302 0.000292418)
(-0.00038945 -0.000804769 0.000149917)
(-0.000377447 -0.000749889 1.51898e-05)
(-0.000349139 -0.000631739 -0.00010907)
(-0.000305199 -0.000434566 -0.000216767)
(-0.000251331 -0.000172415 -0.000276926)
(-2.04329e-05 2.50324e-05 -9.99199e-05)
(6.88552e-06 0.000229749 -3.02228e-05)
(2.5302e-05 0.000371647 5.53828e-05)
(4.5379e-05 0.000460748 0.00015192)
(7.2572e-05 0.000511832 0.000253896)
(0.000109301 0.000541728 0.000351665)
(0.000157356 0.000565251 0.000431987)
(0.000220489 0.00059445 0.00048312)
(0.000291615 0.000638078 0.000508236)
(0.000348298 0.00069915 0.000511533)
(0.000372384 0.000771562 0.000483459)
(0.000361201 0.000842587 0.00042355)
(0.000320468 0.000898235 0.00034445)
(0.000255099 0.00092312 0.000259005)
(0.000169676 0.000899572 0.000176935)
(7.15083e-05 0.000810899 0.000104002)
(-2.61566e-05 0.000643095 4.52366e-05)
(-0.000103657 0.00040946 2.40039e-05)
(-0.000147633 0.000165682 5.66843e-05)
(-0.000164045 -3.31083e-05 0.000117087)
(-0.000167417 -0.000171948 0.000181399)
(-0.000168071 -0.000261193 0.000248281)
(-0.000172189 -0.000314604 0.000316362)
(-0.000184553 -0.000346898 0.000380549)
(-0.000210856 -0.000370632 0.000432227)
(-0.000259025 -0.000396634 0.000463412)
(-0.000324847 -0.000434642 0.000477601)
(-0.000387664 -0.000490965 0.000474905)
(-0.000429721 -0.000562925 0.000441964)
(-0.000444767 -0.000638837 0.000376032)
(-0.000432476 -0.000703255 0.000287546)
(-0.000392747 -0.000737908 0.000188183)
(-0.000326943 -0.000721867 8.75535e-05)
(-0.000241207 -0.000636016 -7.42026e-06)
(-0.000149108 -0.000466051 -8.88641e-05)
(-7.08315e-05 -0.000226267 -0.000127475)
(0.000127379 -5.31164e-05 6.30437e-05)
(0.000129658 0.000132724 0.000123784)
(0.000111156 0.00026179 0.000195421)
(8.96042e-05 0.000336871 0.000267174)
(7.67304e-05 0.000369812 0.00032814)
(8.27265e-05 0.000376281 0.000362741)
(0.000116855 0.000374122 0.000356096)
(0.000187643 0.000382734 0.000313021)
(0.00028601 0.000417892 0.0002875)
(0.000377249 0.000485717 0.00031791)
(0.000429708 0.000581083 0.000363182)
(0.000430715 0.000687661 0.000378692)
(0.000381017 0.000783463 0.000360424)
(0.000288516 0.000846567 0.000320737)
(0.000164217 0.000855848 0.000274421)
(2.35717e-05 0.000793179 0.000232746)
(-0.000107938 0.000650298 0.000204952)
(-0.000199419 0.000446064 0.000201699)
(-0.000235411 0.000230726 0.000225042)
(-0.000227476 5.29547e-05 0.000263536)
(-0.000199982 -6.89567e-05 0.000306619)
(-0.000171236 -0.000140088 0.000349447)
(-0.000151805 -0.000173029 0.000384751)
(-0.000150574 -0.000181455 0.0003984)
(-0.000176891 -0.000179599 0.000374778)
(-0.000240641 -0.000184658 0.000316824)
(-0.000333376 -0.000214239 0.000275454)
(-0.000423638 -0.000278109 0.000286287)
(-0.00048471 -0.00037344 0.000311184)
(-0.000502539 -0.000485155 0.000309456)
(-0.000471826 -0.00059072 0.000275983)
(-0.000395392 -0.000665304 0.000220143)
(-0.000281884 -0.00068425 0.000154612)
(-0.000146537 -0.000627067 9.10854e-05)
(-1.47916e-05 -0.000484857 4.34152e-05)
(8.22251e-05 -0.00027609 3.13312e-05)
(-0.000489643 0.000177561 -0.00052976)
(-0.000381415 0.000510784 -0.000452147)
(-0.000253578 0.000756397 -0.000300567)
(-0.000111069 0.000930244 -8.658e-05)
(3.81347e-05 0.00106263 0.000189276)
(0.000179503 0.00118068 0.000526349)
(0.000296122 0.00130033 0.000908216)
(0.000380564 0.00142057 0.00128065)
(0.000437255 0.00152731 0.00151421)
(0.00045539 0.00160119 0.00147917)
(0.000426142 0.00163166 0.00122909)
(0.000380724 0.0016265 0.000911839)
(0.000347803 0.00159103 0.000601636)
(0.000327798 0.00151682 0.000324558)
(0.000312715 0.00138774 8.69877e-05)
(0.000291415 0.00118218 -0.000109257)
(0.00025136 0.000885701 -0.000251867)
(0.000185041 0.000517801 -0.000314614)
(9.71186e-05 0.000138138 -0.000282463)
(-2.15597e-07 -0.000188503 -0.000176846)
(-9.51001e-05 -0.000434551 -3.26535e-05)
(-0.000181462 -0.000611888 0.000135254)
(-0.000257187 -0.000746129 0.000332621)
(-0.000319783 -0.000862322 0.000573439)
(-0.000367134 -0.000978244 0.000862589)
(-0.000405107 -0.00109752 0.00117106)
(-0.000446036 -0.00120937 0.00139263)
(-0.000484856 -0.00129321 0.00139392)
(-0.000503152 -0.00133449 0.00118934)
(-0.000515782 -0.00133946 0.000896908)
(-0.000544906 -0.00131339 0.000588321)
(-0.000584309 -0.00124575 0.000294516)
(-0.000619811 -0.00111783 2.75317e-05)
(-0.000636487 -0.000906318 -0.000207111)
(-0.000622237 -0.000597136 -0.000396296)
(-0.000572089 -0.000214445 -0.000512276)
(-0.000291013 9.2081e-05 -0.000323969)
(-0.000208493 0.000397564 -0.000233492)
(-0.000120755 0.000619989 -9.01131e-05)
(-2.45348e-05 0.000774552 9.5279e-05)
(7.87147e-05 0.00088478 0.00031766)
(0.000182057 0.000974165 0.000569371)
(0.00027692 0.00105923 0.000832631)
(0.000359579 0.0011461 0.00107043)
(0.00042782 0.00123237 0.00121277)
(0.000469152 0.00131163 0.00119634)
(0.00047048 0.00137683 0.00104715)
(0.000441709 0.00142208 0.000839679)
(0.000399625 0.00143933 0.000619851)
(0.000348147 0.00141501 0.000410581)
(0.000286403 0.00133053 0.000222882)
(0.000213404 0.00116577 6.3079e-05)
(0.00013016 0.000904223 -5.67185e-05)
(4.34544e-05 0.000563882 -0.000106186)
(-3.64615e-05 0.000210735 -6.74879e-05)
(-0.000105695 -8.74921e-05 3.0791e-05)
(-0.000165736 -0.000308192 0.000154083)
(-0.000219352 -0.000464464 0.000292333)
(-0.000268882 -0.000576912 0.000446881)
(-0.000315206 -0.000666898 0.000621292)
(-0.000359642 -0.000750655 0.000812571)
(-0.000407714 -0.000835593 0.000999578)
(-0.000464133 -0.000920369 0.00112425)
(-0.000520344 -0.000999785 0.00111895)
(-0.000557908 -0.00106885 0.000987972)
(-0.000576512 -0.00112231 0.000788379)
(-0.000585656 -0.00115044 0.000561935)
(-0.000582537 -0.0011365 0.000332901)
(-0.000560755 -0.00105836 0.000115337)
(-0.000516358 -0.000893155 -8.12612e-05)
(-0.000450783 -0.000624228 -0.000242233)
(-0.000372357 -0.000272451 -0.000332585)
(-9.64383e-05 2.80416e-07 -0.000111702)
(-4.10918e-05 0.000277824 -1.44061e-05)
(5.52688e-06 0.000478242 0.000119071)
(5.45711e-05 0.000612736 0.000275337)
(0.000111278 0.000699563 0.000443523)
(0.000176853 0.000759511 0.000608659)
(0.000251005 0.000810754 0.000751195)
(0.000333848 0.000866952 0.000851463)
(0.000419846 0.000937154 0.000904055)
(0.000490022 0.00102428 0.000909407)
(0.000522167 0.00112207 0.000861366)
(0.00050968 0.00121511 0.000764238)
(0.000458534 0.00128469 0.000635532)
(0.000375221 0.00131089 0.000494532)
(0.000266183 0.00127142 0.000357388)
(0.000140803 0.00114568 0.000236532)
(1.46307e-05 0.000918838 0.000146328)
(-9.1194e-05 0.000610677 0.000114376)
(-0.000162245 0.000288798 0.000154214)
(-0.000202822 1.95815e-05 0.000238694)
(-0.000227387 -0.000176247 0.000339235)
(-0.000247711 -0.000309769 0.000447365)
(-0.000270859 -0.000398171 0.00055861)
(-0.00030151 -0.000460107 0.000665579)
(-0.000344257 -0.000511434 0.000756581)
(-0.000404294 -0.00056437 0.000818389)
(-0.000481355 -0.000628498 0.000847784)
(-0.000559563 -0.000710128 0.00084103)
(-0.000615877 -0.000807781 0.000785298)
(-0.000638941 -0.000907937 0.000678954)
(-0.000627247 -0.000989826 0.000534975)
(-0.000580555 -0.0010297 0.000370749)
(-0.000500676 -0.00100084 0.000202653)
(-0.000394998 -0.000879244 4.5539e-05)
(-0.000279071 -0.000649367 -8.14009e-05)
(-0.000174558 -0.000332353 -0.000141738)
(7.78216e-05 -9.58843e-05 0.000103144)
(0.000108675 0.000151902 0.00019855)
(0.000117745 0.000331505 0.000318505)
(0.000123114 0.000446243 0.000443723)
(0.000136832 0.000510578 0.000556405)
(0.00016817 0.000543547 0.000635739)
(0.000224087 0.000565741 0.000663092)
(0.000307926 0.000597751 0.000639118)
(0.000413684 0.000657969 0.000615613)
(0.000512729 0.000753814 0.000638445)
(0.000571158 0.000877521 0.00067591)
(0.00057259 0.00101 0.000680286)
(0.00051418 0.0011259 0.00064043)
(0.000402907 0.0011984 0.000568458)
(0.000251869 0.0012009 0.000483888)
(8.05009e-05 0.00111116 0.00040573)
(-8.20058e-05 0.000920602 0.000352397)
(-0.000203099 0.000653744 0.000341565)
(-0.000266549 0.000371882 0.00037624)
(-0.000282753 0.000133623 0.000440152)
(-0.000275993 -3.8375e-05 0.000515864)
(-0.000266237 -0.000149047 0.000592652)
(-0.000265709 -0.000213356 0.000659088)
(-0.000283189 -0.000248285 0.000698245)
(-0.000325868 -0.000270618 0.000692416)
(-0.000398259 -0.000298041 0.000640003)
(-0.00049723 -0.000350481 0.000588358)
(-0.000597584 -0.000440027 0.000580479)
(-0.000668308 -0.000562814 0.00058796)
(-0.0006922 -0.000701822 0.000566186)
(-0.000660311 -0.000830797 0.000501424)
(-0.000573318 -0.00091896 0.000401808)
(-0.000440686 -0.000934743 0.000284624)
(-0.00028066 -0.000852256 0.000170568)
(-0.000121743 -0.000661675 8.53033e-05)
(3.65979e-06 -0.000387888 5.89533e-05)
(-0.000584658 0.000125076 -0.000520301)
(-0.000456149 0.000523819 -0.000449629)
(-0.000306096 0.000832435 -0.000277455)
(-0.000139897 0.00106193 -1.49475e-05)
(3.36403e-05 0.00124042 0.000332064)
(0.000200502 0.00139523 0.000753652)
(0.000345461 0.00154484 0.00122168)
(0.000458987 0.00169552 0.00167369)
(0.000544706 0.00184061 0.00198278)
(0.000599626 0.001957 0.00200541)
(0.000592167 0.0020219 0.00175812)
(0.000538617 0.00203807 0.0013874)
(0.000484948 0.00200874 0.000997375)
(0.000439108 0.00192146 0.000636262)
(0.00039758 0.00176028 0.000325407)
(0.000349915 0.00150701 7.49327e-05)
(0.000284389 0.00115354 -0.000101389)
(0.000195145 0.000725243 -0.000183849)
(8.74033e-05 0.000284163 -0.000163416)
(-2.72272e-05 -0.00010352 -5.72689e-05)
(-0.000138304 -0.000406396 0.000105159)
(-0.000240291 -0.000632499 0.000307637)
(-0.000330562 -0.000806514 0.000551342)
(-0.000407014 -0.00095442 0.000844033)
(-0.000469517 -0.00109655 0.0011834)
(-0.000522589 -0.00124397 0.00153706)
(-0.000579639 -0.00139509 0.00180866)
(-0.000649081 -0.00152726 0.00186284)
(-0.00069594 -0.00161089 0.00167022)
(-0.000714836 -0.0016435 0.00133129)
(-0.000737363 -0.00162846 0.000945035)
(-0.000763971 -0.00155195 0.000564057)
(-0.000784675 -0.0013954 0.000215305)
(-0.000785161 -0.00113893 -8.64043e-05)
(-0.000753672 -0.000774557 -0.000325035)
(-0.000685814 -0.000331077 -0.000477192)
(-0.000394135 3.80109e-05 -0.000282714)
(-0.000285233 0.000400652 -0.000191467)
(-0.000168714 0.000678083 -2.32742e-05)
(-4.24401e-05 0.000882255 0.000207772)
(9.07472e-05 0.00103633 0.000491692)
(0.000222928 0.00116428 0.000813834)
(0.000344846 0.00128407 0.00114783)
(0.00045082 0.00140484 0.00144927)
(0.000539427 0.00152552 0.00164493)
(0.000602631 0.00163681 0.00166224)
(0.000616794 0.00172809 0.00151062)
(0.000584281 0.00179066 0.00126502)
(0.000529408 0.00181318 0.000987258)
(0.000460617 0.00177961 0.000714423)
(0.000379726 0.00167098 0.000468402)
(0.000286252 0.00146824 0.0002632)
(0.000181477 0.00115958 0.00011594)
(7.21729e-05 0.000768521 5.22663e-05)
(-3.15639e-05 0.000362657 8.29257e-05)
(-0.000124654 1.06387e-05 0.000184475)
(-0.000207937 -0.00026097 0.000326393)
(-0.000284054 -0.000462276 0.000494997)
(-0.000354622 -0.000614208 0.000687831)
(-0.00041985 -0.000739218 0.000904148)
(-0.000480729 -0.000855293 0.00113595)
(-0.00054154 -0.000973174 0.00135859)
(-0.000609438 -0.0010935 0.00151613)
(-0.000683963 -0.00120822 0.00153757)
(-0.000739247 -0.00130756 0.00140623)
(-0.000764427 -0.0013825 0.00117042)
(-0.000772031 -0.00141992 0.000884854)
(-0.000762532 -0.00140044 0.000586906)
(-0.000731582 -0.00130122 0.000301499)
(-0.000675352 -0.00110028 4.67764e-05)
(-0.000595017 -0.000785215 -0.000155968)
(-0.000498249 -0.000381784 -0.00027392)
(-0.000202881 -5.42083e-05 -4.05096e-05)
(-0.000116194 0.000272096 6.68824e-05)
(-3.5114e-05 0.000519042 0.000229508)
(4.97714e-05 0.00069663 0.000428883)
(0.000141541 0.000824142 0.00064939)
(0.000238686 0.000923062 0.000871177)
(0.000338048 0.00101168 0.0010692)
(0.000436855 0.00110269 0.00121707)
(0.000533253 0.00120331 0.00129965)
(0.000612097 0.00131548 0.00131432)
(0.000648872 0.00143354 0.00125929)
(0.000635675 0.00154071 0.00113969)
(0.00057876 0.00161558 0.000975099)
(0.000485752 0.00163696 0.000790987)
(0.000363902 0.00158145 0.000610404)
(0.000222933 0.00142771 0.000452951)
(7.8188e-05 0.00116341 0.000339951)
(-5.02227e-05 0.000812786 0.000297785)
(-0.000148098 0.000445527 0.00033487)
(-0.000217678 0.000129681 0.00042699)
(-0.000271498 -0.000110728 0.000546648)
(-0.000320523 -0.000285184 0.00068114)
(-0.000370689 -0.00041201 0.00082295)
(-0.000424703 -0.000511023 0.000962272)
(-0.0004847 -0.000598652 0.00108472)
(-0.000553348 -0.000686286 0.00117282)
(-0.00063574 -0.000781153 0.00121542)
(-0.000721555 -0.000888224 0.00120793)
(-0.000785693 -0.00100725 0.001141)
(-0.000814699 -0.00112384 0.00100916)
(-0.000805746 -0.00121419 0.000824381)
(-0.00075834 -0.00125255 0.000609188)
(-0.000674085 -0.00121047 0.000386843)
(-0.000560003 -0.00106259 0.000180335)
(-0.000430918 -0.000795366 1.77302e-05)
(-0.000307103 -0.000434441 -6.3022e-05)
(-2.37763e-05 -0.000150109 0.000204221)
(4.13055e-05 0.000138215 0.000319253)
(8.83353e-05 0.000356022 0.000471734)
(0.000133161 0.00050736 0.000637286)
(0.00018485 0.000608223 0.000793418)
(0.000248452 0.000678295 0.000915852)
(0.000326599 0.000736852 0.000982763)
(0.000418618 0.000801007 0.000988633)
(0.000524959 0.000887773 0.000972448)
(0.000623489 0.00100589 0.00098444)
(0.000680947 0.00114746 0.00101221)
(0.000682645 0.00129254 0.00100823)
(0.000623341 0.00141533 0.000953077)
(0.000507831 0.00148808 0.000857626)
(0.000348269 0.0014824 0.000744591)
(0.000164147 0.00137433 0.0006394)
(-1.57817e-05 0.00115553 0.00056723)
(-0.000159932 0.000853158 0.000548918)
(-0.000251706 0.000532051 0.000587021)
(-0.000299596 0.000254075 0.000663544)
(-0.000325784 4.38704e-05 0.000758349)
(-0.000348852 -0.000103478 0.00085755)
(-0.000379339 -0.000204132 0.00094731)
(-0.000422805 -0.000275974 0.0010096)
(-0.000482516 -0.000334817 0.00102558)
(-0.000558791 -0.000394406 0.0009879)
(-0.000656485 -0.000471974 0.000928736)
(-0.000757104 -0.000581462 0.00089677)
(-0.000828817 -0.000720957 0.000885313)
(-0.00085681 -0.000873274 0.000847163)
(-0.000829987 -0.00101132 0.000758102)
(-0.0007458 -0.00110262 0.000624465)
(-0.00061153 -0.00111281 0.000466675)
(-0.000444534 -0.00101327 0.000312824)
(-0.000272395 -0.000793903 0.000197552)
(-0.000126237 -0.000482963 0.000156898)
(-0.000677872 1.67218e-05 -0.000378795)
(-0.000532046 0.000451153 -0.000332619)
(-0.000360988 0.000805452 -0.000165389)
(-0.000171827 0.00108442 0.00011556)
(2.56962e-05 0.00131092 0.000500578)
(0.000218344 0.00151001 0.000971908)
(0.000392026 0.00170093 0.00149322)
(0.000535455 0.00189392 0.00199762)
(0.000649089 0.00208623 0.00236981)
(0.000731316 0.00225033 0.00247037)
(0.000740749 0.00235098 0.00226765)
(0.000683903 0.00238681 0.00188326)
(0.000612102 0.00236237 0.00144849)
(0.000540256 0.00226347 0.00103238)
(0.000471597 0.00207642 0.000671208)
(0.000399476 0.00179016 0.000383584)
(0.000313693 0.0014061 0.000182873)
(0.00020769 0.000953616 8.01728e-05)
(8.40514e-05 0.000488964 7.82112e-05)
(-4.74284e-05 7.04173e-05 0.000165423)
(-0.000176717 -0.000271011 0.000321523)
(-0.000297784 -0.000537932 0.000532285)
(-0.000407359 -0.000750858 0.000794795)
(-0.000503302 -0.000934547 0.00111011)
(-0.000585605 -0.00111083 0.00147005)
(-0.000657266 -0.00129532 0.00184112)
(-0.000728996 -0.00149208 0.00214424)
(-0.000812065 -0.00167766 0.0022602)
(-0.000875503 -0.00180939 0.00211442)
(-0.000901589 -0.00187242 0.00176971)
(-0.000914788 -0.00186871 0.00134359)
(-0.000924649 -0.0017859 0.000907774)
(-0.000927875 -0.00160836 0.000503703)
(-0.000913649 -0.00132341 0.000155662)
(-0.000870586 -0.00093196 -0.000119013)
(-0.000792121 -0.000465212 -0.000303354)
(-0.000506538 -5.58372e-05 -0.000128131)
(-0.000373392 0.000338358 -5.36834e-05)
(-0.000228229 0.000655809 0.000115136)
(-7.13188e-05 0.000903883 0.000365338)
(9.25475e-05 0.00110303 0.000683652)
(0.000254285 0.00127537 0.00104983)
(0.000403699 0.00143818 0.00143127)
(0.000533247 0.00160103 0.00177887)
(0.000640816 0.00176268 0.00202228)
(0.000719696 0.00191018 0.00208785)
(0.000743125 0.00202749 0.00196144)
(0.000709593 0.0021041 0.00170637)
(0.00064507 0.00212874 0.00139775)
(0.000561848 0.00208526 0.00108544)
(0.00046523 0.00195673 0.000801685)
(0.000356295 0.00172831 0.000567622)
(0.000236216 0.00139539 0.000402162)
(0.000110039 0.000984863 0.000323723)
(-1.41755e-05 0.000558601 0.000336546)
(-0.000131119 0.000178495 0.000423415)
(-0.000240213 -0.000128228 0.000561524)
(-0.000342751 -0.000367435 0.00073757)
(-0.000438959 -0.00055799 0.000946099)
(-0.000527694 -0.000721394 0.00118204)
(-0.000608523 -0.000875729 0.00143324)
(-0.00068395 -0.00103276 0.00167329)
(-0.000760869 -0.00119416 0.00185365)
(-0.000842444 -0.00134926 0.00190919)
(-0.000906891 -0.00148126 0.0018006)
(-0.000937796 -0.00157638 0.00155737)
(-0.000942985 -0.00162087 0.0012419)
(-0.000926945 -0.00159581 0.000902203)
(-0.00088857 -0.00148055 0.000572971)
(-0.000825172 -0.00125732 0.000280127)
(-0.000736858 -0.000920333 4.83532e-05)
(-0.000628529 -0.000497791 -9.44337e-05)
(-0.00033032 -0.000132476 0.000124961)
(-0.000213537 0.000221168 0.000224688)
(-9.71744e-05 0.00050176 0.000393819)
(2.53873e-05 0.000717221 0.000613387)
(0.000154118 0.000886238 0.000865262)
(0.000284147 0.00102876 0.00112611)
(0.000409309 0.0011608 0.0013666)
(0.000524693 0.00129212 0.00155496)
(0.000629971 0.0014267 0.00166789)
(0.000713475 0.00156495 0.00170024)
(0.00075296 0.00170124 0.00165252)
(0.000740574 0.0018179 0.00152768)
(0.000681911 0.00189315 0.00134577)
(0.000585281 0.00190705 0.00113737)
(0.000458178 0.001838 0.000931419)
(0.000309705 0.00166654 0.000753071)
(0.000153632 0.00138429 0.000626618)
(7.88221e-06 0.00101745 0.000574061)
(-0.000114296 0.000631512 0.000599159)
(-0.000213432 0.000290324 0.000682263)
(-0.000299595 1.88781e-05 0.000800907)
(-0.000381752 -0.000190203 0.00094225)
(-0.000463533 -0.000354876 0.00109715)
(-0.000544724 -0.000494138 0.00125382)
(-0.000624474 -0.000622938 0.00139568)
(-0.000703518 -0.000750164 0.00150215)
(-0.000788014 -0.000879451 0.00155598)
(-0.000873543 -0.00101384 0.00155298)
(-0.00094056 -0.0011528 0.00148657)
(-0.000974392 -0.00128139 0.00134592)
(-0.000969542 -0.00137551 0.00114051)
(-0.00092523 -0.00140975 0.00089606)
(-0.000842748 -0.00135709 0.000640949)
(-0.000727978 -0.00119379 0.000404079)
(-0.000593508 -0.000909783 0.000218013)
(-0.000456726 -0.00053255 0.000118659)
(-0.000158673 -0.000212354 0.000380057)
(-5.96019e-05 9.89015e-05 0.000497285)
(2.72537e-05 0.000343689 0.000661897)
(0.000114761 0.000526746 0.000848689)
(0.000207775 0.000664703 0.0010335)
(0.000306041 0.000775854 0.00119014)
(0.000407582 0.000875738 0.00129386)
(0.000509385 0.000976088 0.00133218)
(0.000614983 0.00108952 0.00132736)
(0.00070949 0.0012261 0.00133108)
(0.00076506 0.00138056 0.00135237)
(0.00076858 0.00153214 0.00134619)
(0.000713748 0.00165524 0.0012857)
(0.000603176 0.00172391 0.00118016)
(0.000446446 0.00171117 0.00105384)
(0.00026057 0.00159344 0.000935721)
(7.17123e-05 0.00136272 0.000853795)
(-9.04537e-05 0.00104614 0.00082851)
(-0.000208926 0.000707074 0.000861404)
(-0.000289849 0.000406639 0.0009355)
(-0.000352755 0.000169846 0.00103214)
(-0.000413787 -8.65508e-06 0.00113787)
(-0.000480227 -0.000145568 0.00123867)
(-0.000553272 -0.00025784 0.0013164)
(-0.000632018 -0.000358219 0.00135133)
(-0.000714867 -0.000454985 0.00133052)
(-0.000808106 -0.000558663 0.00126816)
(-0.000901831 -0.000684092 0.0012148)
(-0.000972116 -0.000834599 0.00118643)
(-0.00100463 -0.00099338 0.00113729)
(-0.000986751 -0.00113327 0.00103505)
(-0.00091302 -0.00122276 0.000883419)
(-0.000787292 -0.001228 0.000703512)
(-0.00062386 -0.00112011 0.000527129)
(-0.000447363 -0.000889035 0.000393142)
(-0.000286503 -0.000563581 0.000339326)
(-0.000777314 -0.000133084 -0.000116317)
(-0.000617237 0.000311556 -0.000106587)
(-0.000425548 0.000693668 3.3747e-05)
(-0.000211946 0.00101302 0.000303629)
(1.18488e-05 0.00128659 0.000692613)
(0.000232235 0.00153568 0.00117849)
(0.000435218 0.00177812 0.00172121)