/*--------------------------------*- C++ -*----------------------------------*\
| =========                 |                                                 |
| \\      /  F ield         | OpenFOAM: The Open Source CFD Toolbox           |
|  \\    /   O peration     | Version:  2312                                  |
|   \\  /    A nd           | Website:  www.openfoam.com                      |
|    \\/     M anipulation  |                                                 |
\*---------------------------------------------------------------------------*/
FoamFile
{
    version     2.0;
    format      ascii;
    arch        "LSB;label=32;scalar=64";
    class       volScalarField;
    location    "0.4";
    object      sigmaHyd;
}
// * * * * * * * * * * * * * * * * * * * * * * * * * * * * * * * * * * * * * //

dimensions      [1 -1 -2 0 0 0 0];

internalField   nonuniform List<scalar> 
1620
(
-17336.4
-1025.19
10658.1
18109.8
21667.6
22336.4
21112.3
18739
15673.8
12086.4
7835.93
2460.37
-4729.14
-14270
-25672.4
-36216.6
-40994
-33832.4
-17336.4
-1025.19
10658.1
18109.8
21667.6
22336.4
21112.3
18739
15673.8
12086.4
7835.93
2460.37
-4729.14
-14270
-25672.4
-36216.6
-40994
-33832.4
-24152
-16377.5
-7926.05
-645.763
4605.91
7897.99
9523.84
9710.93
8585.05
6182.04
2461.69
-2667.01
-9264.93
-17146
-25486.2
-32469.5
-35293.3
-31084.8
-24152
-16377.5
-7926.05
-645.763
4605.91
7897.99
9523.84
9710.93
8585.05
6182.04
2461.69
-2667.01
-9264.93
-17146
-25486.2
-32469.5
-35293.3
-31084.8
-28987.6
-29794.6
-27495.9
-22127.7
-15246.8
-8382.95
-2675.53
1134.63
2629.73
1647.68
-1735.43
-7166.97
-13939.7
-20932.5
-26728.1
-30065.4
-30525.8
-29427.1
-28987.6
-29794.6
-27495.9
-22127.7
-15246.8
-8382.95
-2675.53
1134.63
2629.73
1647.68
-1735.43
-7166.97
-13939.7
-20932.5
-26728.1
-30065.4
-30525.8
-29427.1
2424.77
6218.87
9484.57
10903.4
10710.7
9479.38
7703.36
5853.89
4296.94
3232.47
2667.73
2413.03
2107.96
1324.53
-144.109
-1756.67
-2083.22
-1200.67
2424.77
6218.87
9484.57
10903.4
10710.7
9479.38
7703.36
5853.89
4296.94
3232.47
2667.73
2413.03
2107.96
1324.53
-144.109
-1756.67
-2083.22
-1200.67
-12647.5
-9928.51
-6756.57
-5406.43
-4374.38
-3471.07
-2824.68
-2519.94
-2545.92
-2833.6
-3282.65
-3772.77
-4186.22
-4462.47
-4694.35
-5266.69
-7757.6
-11117.8
-12647.5
-9928.51
-6756.57
-5406.43
-4374.38
-3471.07
-2824.68
-2519.94
-2545.92
-2833.6
-3282.65
-3772.77
-4186.22
-4462.47
-4694.35
-5266.69
-7757.6
-11117.8
-23710.2
-24653.6
-25695.7
-25218.5
-22163.8
-17571.2
-12864.6
-9064.11
-6697.52
-5899.02
-6497.98
-8086.64
-10120.1
-12108.1
-13936.2
-16128.7
-20012.5
-22792.8
-23710.2
-24653.6
-25695.7
-25218.5
-22163.8
-17571.2
-12864.6
-9064.11
-6697.52
-5899.02
-6497.98
-8086.64
-10120.1
-12108.1
-13936.2
-16128.7
-20012.5
-22792.8
1173.02
6873.93
11076.5
12557.7
12817.5
12189.4
11041
9788.91
8779.82
8194.67
8006.41
7961.89
7580.44
6226.29
3401.87
-674.355
-4836.27
-4641.48
1173.02
6873.93
11076.5
12557.7
12817.5
12189.4
11041
9788.91
8779.82
8194.67
8006.41
7961.89
7580.44
6226.29
3401.87
-674.355
-4836.27
-4641.48
-21394.9
-12876.3
-7528.38
-5414.42
-3938.8
-2765.03
-1973.82
-1610.76
-1641.64
-2005.86
-2631.23
-3419.84
-4253.79
-5086.26
-6147.23
-8273.66
-13335.3
-21409.2
-21394.9
-12876.3
-7528.38
-5414.42
-3938.8
-2765.03
-1973.82
-1610.76
-1641.64
-2005.86
-2631.23
-3419.84
-4253.79
-5086.26
-6147.23
-8273.66
-13335.3
-21409.2
-34637.8
-32020.4
-31641.8
-30324.3
-26840.9
-21977.2
-17191.9
-13526.3
-11491.7
-11184.4
-12367.3
-14538.3
-17063.3
-19416.3
-21514.3
-23674.4
-28485.4
-34767
-34637.8
-32020.4
-31641.8
-30324.3
-26840.9
-21977.2
-17191.9
-13526.3
-11491.7
-11184.4
-12367.3
-14538.3
-17063.3
-19416.3
-21514.3
-23674.4
-28485.4
-34767
-847.892
5905.28
9452.94
11230.7
11800.4
11502.1
10721
9858.36
9221.87
8958.79
9022.06
9142.55
8807.66
7322.81
4134.58
-692.363
-6026.14
-5694.36
-847.892
5905.28
9452.94
11230.7
11800.4
11502.1
10721
9858.36
9221.87
8958.79
9022.06
9142.55
8807.66
7322.81
4134.58
-692.363
-6026.14
-5694.36
-18818.3
-11868.9
-7294.59
-4963.59
-3103.83
-1721.22
-914.4
-615.913
-713.168
-1139.71
-1863.96
-2829.65
-3904.67
-4920.39
-5850.19
-7136.38
-10585.7
-17672.6
-18818.3
-11868.9
-7294.59
-4963.59
-3103.83
-1721.22
-914.4
-615.913
-713.168
-1139.71
-1863.96
-2829.65
-3904.67
-4920.39
-5850.19
-7136.38
-10585.7
-17672.6
-26896.9
-27779.6
-28439.8
-28291.2
-25587.4
-21252.6
-16930.4
-13737.9
-12188
-12358.6
-13964
-16399.4
-18871.1
-20661.6
-21408.6
-21118.4
-20882.9
-23981.6
-26896.9
-27779.6
-28439.8
-28291.2
-25587.4
-21252.6
-16930.4
-13737.9
-12188
-12358.6
-13964
-16399.4
-18871.1
-20661.6
-21408.6
-21118.4
-20882.9
-23981.6
-5049.67
-20.3386
4978.43
7724.02
8846.39
8882.84
8378.85
7794.03
7413.02
7341.04
7498.45
7592.7
7096.71
5348.95
1961.21
-2449.07
-5350.02
-5575.44
-5049.67
-20.3387
4978.43
7724.02
8846.39
8882.84
8378.85
7794.03
7413.02
7341.04
7498.45
7592.7
7096.71
5348.95
1961.21
-2449.07
-5350.02
-5575.44
-11354.6
-11219.2
-8181.85
-5187.61
-2714.84
-996.358
-71.4154
242.424
132.15
-329.4
-1161
-2377.29
-3874.07
-5387.25
-6649.77
-7745.98
-8785.39
-9736.91
-11354.6
-11219.2
-8181.85
-5187.61
-2714.84
-996.358
-71.4154
242.424
132.15
-329.4
-1161
-2377.29
-3874.07
-5387.25
-6649.77
-7745.98
-8785.39
-9736.91
-11677.9
-16138.9
-19956.2
-21323.9
-19778
-16395.8
-12862.4
-10339.6
-9358.17
-10004
-11985
-14643.8
-17062.2
-18340
-17922.6
-15810.1
-12831.3
-10791.3
-11677.9
-16138.9
-19956.2
-21323.9
-19778
-16395.8
-12862.4
-10339.6
-9358.17
-10004
-11985
-14643.8
-17062.2
-18340
-17922.6
-15810.1
-12831.3
-10791.3
-6594.77
-3671.64
276.6
3339.14
5004.4
5464.98
5253.95
4883.87
4649.33
4632.19
4726.53
4632.3
3873.42
1965.56
-1156.1
-4639.02
-6957.77
-7597.73
-6594.77
-3671.64
276.6
3339.14
5004.4
5464.98
5253.95
4883.87
4649.33
4632.19
4726.53
4632.3
3873.42
1965.56
-1156.1
-4639.02
-6957.77
-7597.73
-10174.4
-10016.7
-8168.88
-5423.29
-2768.71
-828.358
262.947
695.489
679.876
290.824
-526.11
-1844.34
-3590.67
-5433.32
-6891.89
-7724.33
-8270.6
-9306.56
-10174.4
-10016.7
-8168.88
-5423.29
-2768.71
-828.358
262.947
695.489
679.876
290.824
-526.11
-1844.34
-3590.67
-5433.32
-6891.89
-7724.33
-8270.6
-9306.56
-3671.06
-6845.17
-10535.5
-12575.8
-12087.6
-9768.02
-7099.6
-5238.57
-4744.56
-5721.76
-7888.67
-10576.5
-12811.1
-13614.6
-12386.9
-9206.41
-5311.58
-3028.96
-3671.06
-6845.17
-10535.5
-12575.8
-12087.6
-9768.02
-7099.6
-5238.57
-4744.56
-5721.76
-7888.67
-10576.5
-12811.1
-13614.6
-12386.9
-9206.41
-5311.58
-3028.96
-8851.92
-6797.76
-3870.16
-1084.61
865.916
1778.12
1934.08
1786.25
1632.36
1549.28
1424.19
987.679
-106.004
-2080.27
-4739.67
-7341.48
-9038.84
-9551.92
-8851.92
-6797.76
-3870.16
-1084.61
865.916
1778.12
1934.08
1786.25
1632.36
1549.28
1424.19
987.679
-106.003
-2080.27
-4739.67
-7341.48
-9038.84
-9551.92
-9331.19
-9090.91
-7650.99
-5336.38
-2876.35
-922.174
285.199
867.358
1006.7
761.472
51.5578
-1228.57
-3014.41
-4943.14
-6490.71
-7406.84
-8023.66
-8768.01
-9331.19
-9090.91
-7650.99
-5336.38
-2876.35
-922.174
285.199
867.358
1006.7
761.472
51.5578
-1228.57
-3014.41
-4943.14
-6490.71
-7406.84
-8023.66
-8768.01
3464.5
1060.17
-2132.7
-4372.49
-4670.91
-3313.24
-1449.02
-148.82
13.8505
-1082.11
-3172.38
-5610.42
-7447.17
-7752.15
-6032.36
-2587.33
1238.14
3610.44
3464.5
1060.17
-2132.7
-4372.49
-4670.91
-3313.24
-1449.02
-148.82
13.8505
-1082.11
-3172.38
-5610.42
-7447.17
-7752.15
-6032.36
-2587.33
1238.14
3610.44
-11482.7
-9979.23
-7772.89
-5404.58
-3417.06
-2165.25
-1645.61
-1576.45
-1703.79
-1951.16
-2407.97
-3261.25
-4674.68
-6628.89
-8806.78
-10671.4
-11795.3
-12071.6
-11482.7
-9979.23
-7772.89
-5404.58
-3417.06
-2165.25
-1645.61
-1576.45
-1703.79
-1951.16
-2407.97
-3261.25
-4674.67
-6628.89
-8806.78
-10671.4
-11795.3
-12071.6
-8527.01
-8104.31
-6824.54
-4899.58
-2784.1
-975.661
254.656
944.894
1224.94
1123.19
541.562
-625.368
-2295.31
-4116.75
-5654.85
-6735.52
-7544.02
-8225.01
-8527.01
-8104.31
-6824.54
-4899.58
-2784.1
-975.661
254.656
944.894
1224.94
1123.19
541.562
-625.368
-2295.31
-4116.75
-5654.85
-6735.52
-7544.02
-8225.01
9822.16
7894.98
5099.15
2791.12
1905.36
2433.63
3564.31
4382.12
4339.15
3308.87
1535.67
-385.378
-1606.63
-1344.47
721.43
4138.77
7656.54
9816.56
9822.16
7894.98
5099.15
2791.12
1905.36
2433.63
3564.31
4382.12
4339.15
3308.86
1535.67
-385.378
-1606.63
-1344.47
721.43
4138.77
7656.54
9816.56
-14502.7
-13334.9
-11636.4
-9689.75
-7857.62
-6481.23
-5729.56
-5518.78
-5684.73
-6153.24
-6959.08
-8169.02
-9767.04
-11572.5
-13255.8
-14473.5
-15063.7
-15064
-14502.7
-13334.9
-11636.4
-9689.75
-7857.62
-6481.23
-5729.56
-5518.78
-5684.73
-6153.24
-6959.08
-8169.02
-9767.04
-11572.5
-13255.8
-14473.5
-15063.7
-15064
-7817.56
-7245.51
-6024.5
-4370.43
-2574.2
-963.656
226.001
971.323
1345.91
1347
870.804
-164.013
-1656.28
-3308.73
-4811.27
-6038.58
-7017.92
-7687.23
-7817.56
-7245.51
-6024.5
-4370.43
-2574.2
-963.656
226.001
971.323
1345.91
1347
870.804
-164.013
-1656.28
-3308.73
-4811.27
-6038.58
-7017.92
-7687.23
15778.9
14038.9
11477.8
9154.27
7861.17
7718.56
8199.81
8595.36
8432.37
7596.27
6306.81
5077.8
4595.75
5438.01
7743.83
10990.5
14080.2
15866.6
15778.9
14038.9
11477.8
9154.27
7861.17
7718.56
8199.81
8595.36
8432.37
7596.27
6306.81
5077.8
4595.75
5438.01
7743.83
10990.5
14080.2
15866.6
-17607.3
-16692.8
-15426.4
-13938.2
-12442.2
-11200.4
-10437.2
-10217.6
-10479.4
-11152.4
-12199
-13563.3
-15099.8
-16564
-17687.5
-18299.6
-18416.6
-18167
-17607.3
-16692.8
-15426.4
-13938.2
-12442.2
-11200.4
-10437.2
-10217.6
-10479.4
-11152.4
-12199
-13563.3
-15099.8
-16564
-17687.5
-18299.6
-18416.6
-18167
-7464.78
-6797.7
-5608.31
-4123.78
-2553.34
-1109.1
28.0025
800.828
1232.61
1294.96
889.698
-35.262
-1376.54
-2904.42
-4398.59
-5732.28
-6809.19
-7453.75
-7464.78
-6797.7
-5608.31
-4123.78
-2553.34
-1109.1
28.0023
800.828
1232.61
1294.96
889.698
-35.2618
-1376.54
-2904.42
-4398.59
-5732.28
-6809.19
-7453.75
21519.4
19832.4
17436.7
15158.9
13624.1
12982.7
12924.3
12965.9
12756.5
12208.9
11502.6
11034.5
11292.9
12633.3
15034.6
17964.1
20512.9
21823
21519.4
19832.4
17436.7
15158.9
13624.1
12982.7
12924.3
12965.9
12756.5
12208.9
11502.6
11034.5
11292.9
12633.3
15034.6
17964.1
20512.9
21823
-20378.8
-19736.8
-18929.3
-17987
-17004.9
-16144.5
-15600
-15503.1
-15868.6
-16632.7
-17695.9
-18917.8
-20101.2
-21023.7
-21523
-21576.8
-21311.3
-20890.6
-20378.8
-19736.8
-18929.3
-17987
-17004.9
-16144.5
-15600
-15503.1
-15868.6
-16632.7
-17695.9
-18917.8
-20101.2
-21023.7
-21523
-21576.8
-21311.3
-20890.6
-7830.94
-7129.73
-5986.48
-4611.21
-3170.25
-1817.94
-700.035
104.649
574.99
661.206
277.159
-603.699
-1881.87
-3370.26
-4881.3
-6258.21
-7334.21
-7907.57
-7830.94
-7129.73
-5986.48
-4611.21
-3170.25
-1817.94
-700.035
104.649
574.99
661.206
277.16
-603.699
-1881.87
-3370.26
-4881.3
-6258.21
-7334.21
-7907.57
27102.3
25505.6
23341.4
21226.3
19618.9
18660.2
18204.7
17991.9
17818.5
17629.6
17535.8
17779.7
18636.8
20256.8
22505.8
24912.6
26804.9
27606.5
27102.3
25505.6
23341.4
21226.3
19618.9
18660.2
18204.7
17991.9
17818.5
17629.6
17535.8
17779.7
18636.8
20256.8
22505.8
24912.6
26804.9
27606.5
-22385.3
-22079.1
-21783.3
-21458.6
-21101.9
-20766.5
-20569.3
-20638.2
-21029.5
-21695
-22510.7
-23314.5
-23932.3
-24221.3
-24132.1
-23745.4
-23234.2
-22760
-22385.3
-22079.1
-21783.3
-21458.6
-21101.9
-20766.5
-20569.3
-20638.2
-21029.5
-21695
-22510.7
-23314.5
-23932.3
-24221.3
-24132.1
-23745.4
-23234.2
-22760
-9287.13
-8627.79
-7576.19
-6293.42
-4915.52
-3578.43
-2424.28
-1566.27
-1077.29
-1026.2
-1471.26
-2398.62
-3693.74
-5177.53
-6662.72
-7974.77
-8942.94
-9407.96
-9287.13
-8627.79
-7576.19
-6293.42
-4915.52
-3578.43
-2424.28
-1566.28
-1077.29
-1026.19
-1471.26
-2398.62
-3693.74
-5177.53
-6662.72
-7974.77
-8942.94
-9407.96
32550.4
31198.7
29441.4
27682.2
26221.8
25183.4
24551.6
24253
24214.9
24395.3
24811.5
25540.9
26668.6
28196.4
29962.3
31634
32801.2
33139.6
32550.4
31198.7
29441.4
27682.2
26221.8
25183.4
24551.6
24253
24214.9
24395.3
24811.5
25540.9
26668.6
28196.4
29962.3
31634
32801.2
33139.6
-23415.3
-23464.2
-23661.6
-23919.9
-24150.1
-24300.7
-24402.5
-24556.6
-24842.5
-25243.7
-25649.3
-25921.2
-25955.5
-25706
-25206.5
-24578.8
-23991.7
-23584.1
-23415.3
-23464.2
-23661.6
-23919.9
-24150.1
-24300.7
-24402.5
-24556.6
-24842.5
-25243.7
-25649.3
-25921.2
-25955.5
-25706
-25206.5
-24578.8
-23991.7
-23584.1
-11956.1
-11394.1
-10501.5
-9373.31
-8107.77
-6828.11
-5690.94
-4865.82
-4484.98
-4613.29
-5231.59
-6242.4
-7499.86
-8834.63
-10088.3
-11119.7
-11820.4
-12109
-11956.1
-11394.1
-10501.5
-9373.31
-8107.77
-6828.11
-5690.94
-4865.82
-4484.98
-4613.29
-5231.6
-6242.4
-7499.86
-8834.63
-10088.3
-11119.7
-11820.4
-12109
37799.9
36918.1
35804.9
34660.7
33649.3
32876.2
32403.5
32250.9
32390.6
32764.2
33324.2
34051.5
34931.8
35919.3
36909.4
37743.8
38242.7
38271.7
37799.9
36918.1
35804.9
34660.7
33649.3
32876.2
32403.5
32250.9
32390.6
32764.2
33324.2
34051.5
34931.8
35919.3
36909.4
37743.8
38242.7
38271.7
-22730.6
-23117.7
-23682.3
-24286.7
-24767.1
-25016.1
-25058.3
-25021
-25014.2
-25049.8
-25034.9
-24875.6
-24561.9
-24129.8
-23627
-23131
-22755.2
-22604.1
-22730.6
-23117.7
-23682.3
-24286.7
-24767.1
-25016.1
-25058.3
-25021
-25014.2
-25049.8
-25034.9
-24875.6
-24561.9
-24129.8
-23627
-23131
-22755.2
-22604.1
-15122.1
-14804.9
-14292.5
-13596
-12734.8
-11787.6
-10920.1
-10346.7
-10209.4
-10511.6
-11129.4
-11906.5
-12734.3
-13535.3
-14239.9
-14780.2
-15116.1
-15229.7
-15122.1
-14804.9
-14292.5
-13596
-12734.8
-11787.6
-10920.1
-10346.7
-10209.4
-10511.6
-11129.4
-11906.5
-12734.3
-13535.3
-14239.9
-14780.2
-15116.1
-15229.7
44606.5
44136.4
43557.6
42959.3
42444.6
42104.1
41977.7
42034.3
42209.6
42461.6
42791.2
43205.4
43676.9
44151.1
44564.9
44860.6
44984.5
44900.8
44606.5
44136.4
43557.6
42959.3
42444.7
42104.1
41977.7
42034.3
42209.6
42461.6
42791.2
43205.4
43676.9
44151.1
44564.9
44860.6
44984.5
44900.8
-24123.9
-24173
-24331.4
-24558.9
-24884.8
-25389
-26089.6
-26877.6
-27590.8
-28120.5
-28355.3
-28187.9
-27617.5
-26788.4
-25913
-25153.1
-24590.4
-24249.7
-24123.9
-24173
-24331.4
-24558.9
-24884.8
-25389
-26089.6
-26877.6
-27590.8
-28120.5
-28355.3
-28187.9
-27617.5
-26788.4
-25913
-25153.1
-24590.4
-24249.7
-16545.6
-16259.8
-15921
-15517
-15115.5
-14855.9
-14878.1
-15210.8
-15794.6
-16522
-17239.7
-17769.5
-17999.5
-17944.7
-17711.7
-17408.8
-17103.6
-16817.5
-16545.6
-16259.8
-15921
-15517
-15115.5
-14855.9
-14878.1
-15210.8
-15794.6
-16522
-17239.7
-17769.5
-17999.5
-17944.7
-17711.7
-17408.8
-17103.6
-16817.5
44146.9
44177.1
44252.2
44428.1
44725.9
45064.8
45334.5
45408.1
45256.1
44903.7
44446.9
44033
43772
43705.2
43774.4
43904.4
44025
44106.1
44146.9
44177.1
44252.2
44428.1
44725.9
45064.8
45334.5
45408.1
45256.1
44903.7
44446.9
44033
43772
43705.2
43774.4
43904.4
44025
44106.1
)
;

boundaryField
{
    fixed
    {
        type            zeroGradient;
    }
    inside
    {
        type            zeroGradient;
    }
    outside
    {
        type            zeroGradient;
    }
}


// ************************************************************************* //
