/*--------------------------------*- C++ -*----------------------------------*\
| =========                 |                                                 |
| \\      /  F ield         | OpenFOAM: The Open Source CFD Toolbox           |
|  \\    /   O peration     | Version:  2312                                  |
|   \\  /    A nd           | Website:  www.openfoam.com                      |
|    \\/     M anipulation  |                                                 |
\*---------------------------------------------------------------------------*/
FoamFile
{
    version     2.0;
    format      ascii;
    arch        "LSB;label=32;scalar=64";
    class       volScalarField;
    location    "0.4";
    object      sigmaEq;
}
// * * * * * * * * * * * * * * * * * * * * * * * * * * * * * * * * * * * * * //

dimensions      [1 -1 -2 0 0 0 0];

internalField   nonuniform List<scalar> 
1620
(
25283.6
23279
22108.5
21824.7
22104.4
22593.4
23039.4
23331.9
23477.6
23543.1
23604.9
23726.8
23966.9
24401.2
25139.7
26233
27277.8
27092.2
25283.6
23279
22108.5
21824.7
22104.4
22593.4
23039.4
23331.9
23477.6
23543.1
23604.9
23726.8
23966.9
24401.2
25139.7
26233
27277.8
27092.2
23355.3
22474.6
22213.8
22536
23167.4
23845.2
24382.3
24688.9
24768
24681.8
24510.6
24326.3
24184.9
24130.5
24195.3
24372.2
24511.5
24238.7
23355.3
22474.6
22213.8
22536
23167.4
23845.2
24382.3
24688.9
24768
24681.8
24510.6
24326.3
24184.9
24130.5
24195.3
24372.2
24511.5
24238.7
24859.8
24847.3
24736.2
24799.4
25068.3
25442.7
25786.9
25977.1
25936.6
25658.2
25199.6
24652
24105.8
23645.1
23371.4
23407.1
23822.1
24458.8
24859.8
24847.3
24736.2
24799.4
25068.3
25442.7
25786.9
25977.1
25936.6
25658.2
25199.6
24652
24105.8
23645.1
23371.4
23407.1
23822.1
24458.8
24972.4
22802.3
21941.9
21883.5
22319.4
22941
23485
23828.9
23975.8
23989.2
23940.1
23887.1
23883
23995.7
24331.5
25029.3
26014.1
26572.8
24972.4
22802.3
21941.9
21883.5
22319.4
22941
23485
23828.9
23975.8
23989.2
23940.1
23887.1
23883
23995.7
24331.5
25029.3
26014.1
26572.8
22467.9
22067.7
22700.3
23611
24534.5
25293.5
25757
25881.2
25710.1
25339.7
24874
24392.4
23939.7
23532.9
23183.7
22963.4
23084.4
23384.7
22467.9
22067.7
22700.3
23611
24534.5
25293.5
25757
25881.2
25710.1
25339.7
24874
24392.4
23939.7
23532.9
23183.7
22963.4
23084.4
23384.7
26260.7
26604.2
26544.3
26487.9
26612
26905.2
27242.3
27457.3
27406.7
27019.8
26326.2
25442.6
24525.5
23735.7
23238.6
23212.3
23825
25108.5
26260.7
26604.2
26544.3
26487.9
26612
26905.2
27242.3
27457.3
27406.7
27019.8
26326.2
25442.6
24525.5
23735.7
23238.6
23212.3
23825
25108.5
22769.8
22347.3
21817.9
21823.9
22400.4
23259.5
24033.2
24532.2
24739.3
24712.2
24522.4
24238.4
23929.3
23667.9
23524.4
23594.1
23791.7
22172.5
22769.8
22347.3
21817.9
21823.9
22400.4
23259.5
24033.2
24532.2
24739.3
24712.2
24522.4
24238.4
23929.3
23667.9
23524.4
23594.1
23791.7
22172.5
21001.6
21942.7
23120.6
24437.9
25731.6
26707.3
27176.4
27134.9
26689.6
25983
25147.1
24279.5
23441.4
22660.4
21921.1
21190.3
20618.9
20773.3
21001.6
21942.7
23120.6
24437.9
25731.6
26707.3
27176.4
27134.9
26689.6
25983
25147.1
24279.5
23441.4
22660.4
21921.1
21190.3
20618.9
20773.3
24112.9
26915.9
27733.6
28132.9
28409.3
28698.3
28989.9
29141.9
28965.4
28324.6
27217.4
25815.2
24434.4
23430.3
23058.4
23407.7
24156.4
23475.5
24112.9
26915.9
27733.6
28132.9
28409.3
28698.3
28989.9
29141.9
28965.4
28324.6
27217.4
25815.2
24434.4
23430.3
23058.4
23407.7
24156.4
23475.5
22869.6
21822.7
21194.1
21117.5
21775.1
22847.4
23844.8
24529.4
24867.1
24892.1
24660.6
24258.3
23807.7
23438.7
23241.4
23325.1
23905.7
24328.8
22869.6
21822.7
21194.1
21117.5
21775.1
22847.4
23844.8
24529.4
24867.1
24892.1
24660.6
24258.3
23807.7
23438.7
23241.4
23325.1
23905.7
24328.8
22257.4
22022.3
22436.5
23514.3
24986.8
26268.9
26950.3
26992.6
26530.5
25717.5
24689.8
23585
22567.9
21794.9
21304.8
21015.3
20979.4
21712.9
22257.4
22022.3
22436.5
23514.3
24986.8
26268.9
26950.3
26992.6
26530.5
25717.5
24689.8
23585
22567.9
21794.9
21304.8
21015.3
20979.4
21712.9
24853.3
25802.9
27064.2
28299.2
29278
29938.5
30339.5
30451
30122.5
29193.7
27633.9
25687.6
23926.7
22984.4
23132
24335.9
26021.4
25712.9
24853.3
25802.9
27064.2
28299.2
29278
29938.5
30339.5
30451
30122.5
29193.7
27633.9
25687.6
23926.7
22984.4
23132
24335.9
26021.4
25712.9
22941.6
21594.2
20467.9
20002.1
20536.4
21705
22859
23706.3
24204
24365.7
24228.7
23893.6
23539.3
23344.5
23373.1
23580.7
23886.6
23864.8
22941.6
21594.2
20467.9
20002.1
20536.4
21705
22859
23706.3
24204
24365.7
24228.7
23893.6
23539.3
23344.5
23373.1
23580.7
23886.6
23864.8
22207.7
22008.5
21730.7
22003.1
23127
24541.7
25510
25798.5
25484.8
24696.1
23571.8
22345.1
21380
20966.4
21049.4
21352.5
21684
22016.3
22207.7
22008.5
21730.7
22003.1
23127
24541.7
25510
25798.5
25484.8
24696.1
23571.8
22345.1
21380
20966.4
21049.4
21352.5
21684
22016.3
25585.5
25841.8
26817.8
28171.6
29532.3
30543.9
31088.9
31165.4
30688
29504.4
27564
25194.6
23250.9
22547.4
23101.4
24497.5
26026.2
26194.3
25585.5
25841.8
26817.8
28171.6
29532.3
30543.9
31088.9
31165.4
30688
29504.4
27564
25194.6
23250.9
22547.4
23101.4
24497.5
26026.2
26194.3
22402.1
21293.4
20056.4
19192.1
19353.6
20386.3
21556.2
22478.3
23091.8
23406.1
23457.3
23358.8
23297.5
23391.6
23561.8
23640.7
23547.3
23178.5
22402.1
21293.4
20056.4
19192.1
19353.6
20386.3
21556.2
22478.3
23091.8
23406.1
23457.3
23358.8
23297.5
23391.6
23561.8
23640.7
23547.3
23178.5
21986.8
21781.7
21299.2
20952.6
21456.2
22721.9
23865.9
24372.5
24193.2
23409.7
22182.6
20898.8
20145.6
20199.5
20738.4
21314.8
21713.8
21928.3
21986.8
21781.7
21299.2
20952.6
21456.2
22721.9
23865.9
24372.5
24193.2
23409.7
22182.6
20898.8
20145.6
20199.5
20738.4
21314.8
21713.8
21928.3
26096.5
26468.5
27368.8
28656.8
30018.5
31057.9
31543.2
31458.9
30774
29352.9
27142.1
24563.4
22657.2
22185
22861
24087
25368.5
26013.6
26096.5
26468.5
27368.8
28656.8
30018.5
31057.9
31543.2
31458.9
30774
29352.9
27142.1
24563.4
22657.2
22185
22861
24087
25368.5
26013.6
21870
20951.9
19846.1
18841.6
18587.9
19269.3
20299.4
21210
21888.8
22346.5
22634.8
22864.6
23148
23448.2
23586.6
23459.7
23108.4
22581.4
21870
20951.9
19846.1
18841.6
18587.9
19269.3
20299.4
21210
21888.8
22346.5
22634.8
22864.6
23148
23448.2
23586.6
23459.7
23108.4
22581.4
21572.9
21384.1
20903.4
20332.4
20350.9
21295.8
22450.4
23083.9
22979.4
22164.4
20847.9
19592.8
19122.3
19545.3
20315.5
20971.6
21368.8
21548
21572.9
21384.1
20903.4
20332.4
20350.9
21295.8
22450.4
23083.9
22979.4
22164.4
20847.9
19592.8
19122.3
19545.3
20315.5
20971.6
21368.8
21548
26421
27168.3
28225.7
29515.4
30757.4
31612.9
31863.6
31497.8
30531
28866.2
26496.7
23947.3
22266.6
21972.1
22630
23691.7
24836.7
25763.4
26421
27168.3
28225.7
29515.4
30757.4
31612.9
31863.6
31497.8
30531
28866.2
26496.7
23947.3
22266.6
21972.1
22630
23691.7
24836.7
25763.4
21403
20635.5
19703.1
18738.8
18215.7
18488.4
19260.3
20086.8
20794.2
21380
21901.5
22428.3
22946.1
23298.6
23335.2
23067.7
22609.1
22047.8
21403
20635.5
19703.1
18738.8
18215.7
18488.4
19260.3
20086.8
20794.2
21380
21901.5
22428.3
22946.1
23298.6
23335.2
23067.7
22609.1
22047.8
20984.9
20830.4
20418.9
19850.6
19623.8
20201.9
21176.4
21796.2
21700.9
20872.6
19594
18545.6
18391.5
19018.9
19830.2
20449.6
20802.9
20960.6
20984.9
20830.4
20418.9
19850.6
19623.8
20201.9
21176.4
21796.2
21700.9
20872.6
19594
18545.6
18391.5
19018.9
19830.2
20449.6
20802.9
20960.6
26503.3
27598.8
28885.2
30223.9
31324.7
31924.5
31890.5
31231.9
29988.6
28129.5
25754.1
23461.4
22125.5
21973.5
22566
23482.7
24508.7
25519.9
26503.3
27598.8
28885.2
30223.9
31324.7
31924.5
31890.5
31231.9
29988.6
28129.5
25754.1
23461.4
22125.5
21973.5
22566
23482.7
24508.7
25519.9
20976.7
20328.4
19543.7
18686.8
18067.1
18027.3
18508
19192.9
19888.5
20563.8
21250.4
21945.8
22536.4
22847.9
22810.8
22503.4
22051.6
21537.8
20976.7
20328.4
19543.7
18686.8
18067.1
18027.3
18508
19192.9
19888.5
20563.8
21250.4
21945.8
22536.4
22847.9
22810.8
22503.4
22051.6
21537.8
20260.5
20131.5
19789.2
19295.2
18979.7
19227.4
19870.9
20317.1
20170.8
19407.3
18374.8
17723.4
17872.7
18561
19294.6
19817.5
20107
20238.9
20260.5
20131.5
19789.2
19295.2
18979.7
19227.4
19870.9
20317.1
20170.8
19407.3
18374.8
17723.4
17872.7
18561
19294.6
19817.5
20107
20238.9
26374.5
27627.6
29035.5
30375.4
31330.7
31692.2
31412.3
30533.4
29114.4
27209.1
25042.7
23195
22246.4
22208.4
22717.9
23480.2
24355.4
25306.8
26374.5
27627.6
29035.5
30375.4
31330.7
31692.2
31412.3
30533.4
29114.4
27209.1
25042.7
23195
22246.4
22208.4
22717.9
23480.2
24355.4
25306.8
20520.5
19973.3
19317.2
18597.6
18011.9
17812.9
18053.5
18569.7
19204.2
19901.5
20645.5
21366
21914.1
22158.7
22091.3
21807.8
21420.3
20991.1
20520.5
19973.3
19317.2
18597.6
18011.9
17812.9
18053.5
18569.7
19204.2
19901.5
20645.5
21366
21914.1
22158.7
22091.3
21807.8
21420.3
20991.1
19423.6
19294.7
18995.8
18574
18233.2
18218.2
18482.2
18661.6
18456.1
17877.5
17263.8
17068
17430.6
18077.4
18681.8
19095.3
19322
19422.1
19423.6
19294.7
18995.8
18574
18233.2
18218.2
18482.2
18661.6
18456.1
17877.5
17263.8
17068
17430.6
18077.4
18681.8
19095.3
19322
19422.1
26108.2
27311.1
28645.4
29857.1
30637.4
30812
30376
29400.8
27977.6
26247.9
24506.6
23195.8
22600.5
22632.7
23036.5
23622.2
24313.1
25121.4
26108.2
27311.1
28645.4
29857.1
30637.4
30812
30376
29400.8
27977.6
26247.9
24506.6
23195.8
22600.5
22632.7
23036.5
23622.2
24313.1
25121.4
19966.6
19528.9
19018.7
18475.3
18018.6
17803.5
17901.1
18257.3
18781.6
19415.4
20101.2
20731.5
21170.6
21338.3
21255.4
21009.4
20690.8
20345.1
19966.6
19528.9
19018.7
18475.3
18018.6
17803.5
17901.1
18257.3
18781.6
19415.4
20101.2
20731.5
21170.6
21338.3
21255.4
21009.4
20690.8
20345.1
18466.4
18323.7
18053.9
17694.6
17357.5
17167.4
17123.5
17069.1
16865.4
16560.9
16378.9
16517
16951.3
17487.7
17949.1
18261.4
18432.4
18496.6
18466.4
18323.7
18053.9
17694.6
17357.5
17167.4
17123.5
17069.1
16865.4
16560.9
16378.9
16517
16951.3
17487.7
17949.1
18261.4
18432.4
18496.6
25753.8
26757.3
27846.2
28796.6
29360.5
29402.3
28927.2
28017.6
26798.1
25456.5
24254.3
23439.6
23099.5
23138.5
23406.1
23802.2
24302.1
24937
25753.8
26757.3
27846.2
28796.6
29360.5
29402.3
28927.2
28017.6
26798.1
25456.5
24254.3
23439.6
23099.5
23138.5
23406.1
23802.2
24302.1
24937
19339.7
19047.6
18729.3
18408
18144.1
18013.1
18062.7
18291.4
18670.8
19161.2
19691.1
20150.2
20434.7
20502.7
20385.1
20154.7
19884.2
19612.7
19339.7
19047.6
18729.3
18408
18144.1
18013.1
18062.7
18291.4
18670.8
19161.2
19691.1
20150.2
20434.7
20502.7
20385.1
20154.7
19884.2
19612.7
17355.2
17222.5
17008.6
16736.7
16455.1
16215.2
16033.9
15884.7
15750.4
15678.1
15752.3
16004.7
16372.8
16751.6
17060.9
17268.8
17379.1
17406
17355.2
17222.5
17008.6
16736.7
16455.1
16215.2
16033.9
15884.7
15750.4
15678.1
15752.3
16004.7
16372.8
16751.6
17060.9
17268.8
17379.1
17406
25332
26060.5
26820.8
27455.5
27804.2
27779.2
27385.9
26699.8
25846.3
24986.9
24279.9
23821.3
23615
23602.8
23722.1
23942.7
24269.9
24727.5
25332
26060.5
26820.8
27455.5
27804.2
27779.1
27385.9
26699.8
25846.3
24986.9
24279.9
23821.3
23615
23602.8
23722.1
23942.7
24269.9
24727.5
18839.6
18731.1
18635.1
18548.9
18486.6
18470.5
18521.4
18656.4
18887.1
19198.6
19526.6
19776.5
19878
19818.1
19635.4
19395.9
19164.1
18977.8
18839.6
18731.1
18635.1
18548.9
18486.6
18470.5
18521.4
18656.4
18887.1
19198.6
19526.6
19776.5
19878
19818.1
19635.4
19395.9
19164.1
18977.8
16093
16028.8
15933.6
15809.3
15665.8
15518.7
15382.6
15270
15200.4
15204.3
15303.2
15482.3
15693
15883.3
16021.9
16102.4
16133.6
16128.1
16093
16028.8
15933.6
15809.3
15665.8
15518.7
15382.6
15270
15200.4
15204.3
15303.2
15482.3
15693
15883.3
16021.9
16102.4
16133.6
16128.1
24881.8
25334.1
25791
26162.8
26363.9
26346.5
26116.5
25728.6
25269.5
24828.4
24467.4
24209.2
24047
23966.6
23962.4
24041.6
24217.4
24499.1
24881.8
25334.1
25791
26162.8
26363.9
26346.5
26116.5
25728.6
25269.5
24828.4
24467.4
24209.2
24047
23966.6
23962.4
24041.6
24217.4
24499.1
18773.8
18837.6
18921.3
19002.4
19067.1
19111.1
19144.9
19199
19306.5
19465.2
19616
19680.4
19617.3
19442.1
19209.3
18986.2
18828.6
18761
18773.8
18837.6
18921.3
19002.4
19067.1
19111.1
19144.9
19199
19306.5
19465.2
19616
19680.4
19617.3
19442.1
19209.3
18986.2
18828.6
18761
14839.7
14874.6
14930.9
14992.8
15046.1
15078.6
15078.9
15043.1
14986.1
14940.4
14932.7
14960.6
14995
15004.9
14978.4
14926
14871.5
14838.3
14839.7
14874.6
14930.9
14992.8
15046.1
15078.6
15078.9
15043.1
14986.1
14940.4
14932.7
14960.6
14995
15004.9
14978.4
14926
14871.5
14838.3
24593.4
24826
25065.1
25264.3
25382.5
25400
25326.9
25196.4
25045
24894.1
24747.4
24602.6
24463.5
24343.7
24262.3
24237.9
24284
24405.1
24593.4
24826
25065.1
25264.3
25382.5
25400
25326.9
25196.4
25045
24894.1
24747.4
24602.6
24463.5
24343.7
24262.3
24237.9
24284
24405.1
20166.7
20353.6
20531.5
20651.7
20673.9
20594.1
20453.4
20317.7
20247.2
20268.2
20348.5
20404.7
20364.6
20227.8
20061.9
19947.3
19930.9
20013.3
20166.7
20353.6
20531.5
20651.7
20673.9
20594.1
20453.4
20317.7
20247.2
20268.2
20348.5
20404.7
20364.6
20227.8
20061.9
19947.3
19930.9
20013.3
13936
14023
14175.8
14375.8
14592.9
14789.5
14930.4
14991.8
14969.2
14878.4
14748.6
14607.4
14468.7
14332.9
14198.1
14071.4
13971.6
13920.9
13936
14023
14175.8
14375.8
14592.9
14789.5
14930.4
14991.8
14969.2
14878.4
14748.6
14607.4
14468.7
14332.9
14198.1
14071.4
13971.6
13920.9
24534.9
24612.7
24705.2
24785.9
24839.4
24871
24900.9
24946.2
25005.2
25055.1
25065
25014.6
24909.3
24776.9
24650.5
24554.1
24500.1
24493.9
24534.9
24612.7
24705.2
24785.9
24839.4
24871
24900.9
24946.2
25005.2
25055.1
25065
25014.6
24909.3
24776.9
24650.5
24554.1
24500.1
24493.9
)
;

boundaryField
{
    fixed
    {
        type            calculated;
        value           nonuniform List<scalar> 
108
(
25303.8
23591.1
22438.2
22020.2
22158.8
22547.6
22936
23204.3
23349.6
23431.8
23524.1
23691
23994
24514.7
25357.9
26505.3
27377.9
26927.1
25303.8
23591.1
22438.2
22020.2
22158.8
22547.6
22936
23204.3
23349.6
23431.8
23524.1
23691
23994
24514.7
25357.9
26505.3
27377.9
26927.1
23468.5
22747.9
22380.6
22483.4
22919.2
23471.9
23959.8
24282.2
24424.9
24431.9
24369.1
24299.4
24274.5
24329.6
24464.1
24596.7
24543.2
24158.3
23468.5
22747.9
22380.6
22483.4
22919.2
23471.9
23959.8
24282.2
24424.9
24431.9
24369.1
24299.4
24274.5
24329.6
24464.1
24596.7
24543.2
24158.3
24894.5
24848.5
24582.9
24460.1
24589.5
24897.2
25249.2
25513.1
25595
25461.7
25142.8
24707.9
24236.7
23808.8
23523.1
23507.3
23858.5
24468
24894.5
24848.5
24582.9
24460.1
24589.5
24897.2
25249.2
25513.1
25595
25461.7
25142.8
24707.9
24236.7
23808.8
23523.1
23507.3
23858.5
24468
)
;
    }
    inside
    {
        type            calculated;
        value           nonuniform List<scalar> 
540
(
26613.9
26348.9
25869.9
25592
25584
25743.9
25934.6
26034
25957
25675.1
25226.7
24701.9
24213.4
23885.4
23860.9
24278.2
25163.8
26170
26613.9
26348.9
25869.9
25592
25584
25743.9
25934.6
26034
25957
25675.1
25226.7
24701.9
24213.4
23885.4
23860.9
24278.2
25163.8
26170
30954.2
29325.7
27676.3
26873.3
26777.5
27116.9
27615.3
28028.1
28154.1
27860.9
27142.4
26152.9
25158.3
24452.1
24323.3
25076.7
27022.6
29914
30954.2
29325.7
27676.3
26873.3
26777.5
27116.9
27615.3
28028.1
28154.1
27860.9
27142.4
26152.9
25158.3
24452.1
24323.3
25076.7
27022.6
29914
27875.4
29804.2
28710.7
28207
28373
29068.4
30010.9
30842
31198.1
30785.5
29535.3
27749.7
26020.5
24941.1
24929.1
26362.9
29058.2
27451.4
27875.4
29804.2
28710.7
28207
28373
29068.4
30010.9
30842
31198.1
30785.5
29535.3
27749.7
26020.5
24941.1
24929.1
26362.9
29058.2
27451.4
28906.2
27874.5
28033.8
28722.3
29799.8
31221.5
32785.3
34094.1
34649.6
34001.5
32039.7
29285
26760
25376.9
25555.4
27679.1
31688.7
32329.8
28906.2
27874.5
28033.8
28722.3
29799.8
31221.5
32785.3
34094.1
34649.6
34001.5
32039.7
29285
26760
25376.9
25555.4
27679.1
31688.7
32329.8
29083.4
27833.9
28093.3
29369.6
31310.6
33590.5
35801
37451.6
37989
36927.9
34223
30633.6
27509.6
25884.4
25955.4
27661.7
30483.5
31199.7
29083.4
27833.9
28093.3
29369.6
31310.6
33590.5
35801
37451.6
37989
36927.9
34223
30633.6
27509.6
25884.4
25955.4
27661.7
30483.5
31199.7
29097.3
28601.5
29193.3
30891.8
33461.5
36405.3
39029.7
40700.8
40899.1
39257.2
35903.5
31796.7
28379.6
26546.1
26256.9
27195.4
28872.4
29750.3
29097.3
28601.5
29193.3
30891.8
33461.5
36405.3
39029.7
40700.8
40899.1
39257.2
35903.5
31796.7
28379.6
26546.1
26256.9
27195.4
28872.4
29750.3
29331.1
29702.2
30891.3
33105.5
36146.3
39424.5
42098.3
43457.9
43086.5
40829.2
37027.5
32745
29303.1
27337.3
26698.5
27078.1
28115.9
29035
29331.1
29702.2
30891.3
33105.5
36146.3
39424.5
42098.3
43457.9
43086.5
40829.2
37027.5
32745
29303.1
27337.3
26698.5
27078.1
28115.9
29035
29638.1
30741.3
32611.8
35369.7
38703.5
41959.9
44332.9
45175.5
44207
41492.7
37552.2
33426.1
30178.3
28210.9
27364
27392.4
28024.3
28846.2
29638.1
30741.3
32611.8
35369.7
38703.5
41959.9
44332.9
45175.5
44207
41492.7
37552.2
33426.1
30178.3
28210.9
27364
27392.4
28024.3
28846.2
29961.5
31502.2
33865.5
36981.7
40363.4
43317
45181.5
45483.6
44090
41233.8
37525.9
33862.9
30999.2
29171.6
28252.3
28048.5
28359.4
28997
29961.5
31502.2
33865.5
36981.7
40363.4
43317
45181.5
45483.6
44090
41233.8
37525.9
33862.9
30999.2
29171.6
28252.3
28048.5
28359.4
28997
30299.3
31973.6
34472.5
37574.5
40693.9
43166.2
44496.7
44405.7
42891.5
40275.6
37146.5
34174.9
31827.2
30228.9
29294.6
28892.3
28916.5
29346.7
30299.3
31973.6
34472.5
37574.5
40693.9
43166.2
44496.7
44405.7
42891.5
40275.6
37146.5
34174.9
31827.2
30228.9
29294.6
28892.3
28916.5
29346.7
30655
32223.8
34500.6
37197.6
39773.4
41686.5
42591.7
42350.1
41042.6
38990.7
36659.2
34472.3
32670.9
31309.5
30351.3
29760.2
29550.7
29804.7
30655
32223.8
34500.6
37197.6
39773.4
41686.5
42591.7
42350.1
41042.6
38990.7
36659.2
34472.3
32670.9
31309.5
30351.3
29760.2
29550.7
29804.7
31065.7
32353.2
34156.1
36209.1
38114.1
39498.7
40134.3
39956.6
39069.9
37726.4
36219
34757.7
33434.5
32273.8
31304.7
30596.3
30251
30377.3
31065.7
32353.2
34156.1
36209.1
38114.1
39498.7
40134.3
39956.6
39069.9
37726.4
36219
34757.7
33434.5
32273.8
31304.7
30596.3
30251
30377.3
31670.9
32574.9
33811.2
35190.4
36465.2
37405.4
37867.7
37830.4
37387.9
36692.8
35871.5
34982.1
34043.6
33092.8
32215.7
31533.3
31164.2
31195.7
31670.9
32574.9
33811.2
35190.4
36465.2
37405.4
37867.7
37830.4
37387.9
36692.8
35871.5
34982.1
34043.6
33092.8
32215.7
31533.3
31164.2
31195.7
32989.2
33496.7
34188.1
34944.1
35624.5
36111
36354.1
36387.8
36289
36109.5
35839.4
35437.1
34889.6
34247.2
33609.8
33089.9
32780.8
32741.4
32989.2
33496.7
34188.1
34944.1
35624.5
36111
36354.1
36387.8
36289
36109.5
35839.4
35437.1
34889.6
34247.2
33609.8
33089.9
32780.8
32741.4
35012.1
35138
35325.2
35500.3
35600
35613.6
35597.5
35636.3
35781.5
36008.2
36220.3
36303
36197.3
35935.7
35609.5
35310.1
35095.4
34993.3
35012.1
35138
35325.2
35500.3
35600
35613.6
35597.5
35636.3
35781.5
36008.2
36220.3
36303
36197.3
35935.7
35609.5
35310.1
35095.4
34993.3
)
;
    }
    outside
    {
        type            calculated;
        value           nonuniform List<scalar> 
540
(
27080.8
24855.1
23283.7
22521.2
22361.8
22528.5
22792.3
23025.7
23195
23325
23465.3
23673
24014.9
24588.5
25541.7
26975.9
28497.6
28779.7
27080.8
24855.1
23283.7
22521.2
22361.8
22528.5
22792.3
23025.7
23195
23325
23465.3
23673
24014.9
24588.5
25541.7
26975.9
28497.6
28779.7
26830.6
24267.1
22830.5
22226.4
22210.9
22524.1
22918.2
23252.3
23489.7
23650.7
23775.4
23910.4
24118.7
24506.5
25258.9
26587.8
28106.6
28417.2
26830.6
24267.1
22830.5
22226.4
22210.9
22524.1
22918.2
23252.3
23489.7
23650.7
23775.4
23910.4
24118.7
24506.5
25258.9
26587.8
28106.6
28417.2
23824.3
23588.4
22493.9
21873.5
21858
22284.7
22856.9
23373.6
23766.9
24038.6
24212.9
24325.1
24438.1
24667.3
25217.2
26379
27355.9
23575.4
23824.3
23588.4
22493.9
21873.5
21858
22284.7
22856.9
23373.6
23766.9
24038.6
24212.9
24325.1
24438.1
24667.3
25217.2
26379
27355.9
23575.4
24169.7
23158.9
22099.3
21395.8
21334.6
21841.7
22578.2
23288.2
23868.4
24295.9
24578.1
24747.9
24885.9
25134.2
25705.8
26898.9
28150.3
26555.5
24169.7
23158.9
22099.3
21395.8
21334.6
21841.7
22578.2
23288.2
23868.4
24295.9
24578.1
24747.9
24885.9
25134.2
25705.8
26898.9
28150.3
26555.5
25093
23227.4
21836.8
20918.9
20728.1
21241.2
22089.5
22974.8
23761.4
24401
24885.3
25245.9
25573.9
26001.3
26642.2
27509
28056.7
27117.9
25093
23227.4
21836.8
20918.9
20728.1
21241.2
22089.5
22974.8
23761.4
24401
24885.3
25245.9
25573.9
26001.3
26642.2
27509
28056.7
27117.9
24903.9
23270.4
21852.1
20753.3
20327.4
20703.5
21559.2
22563.8
23550.5
24451.6
25245.1
25944.3
26587.5
27175.9
27628.2
27834.2
27580.9
26538.9
24903.9
23270.4
21852.1
20753.3
20327.4
20703.5
21559.2
22563.8
23550.5
24451.6
25245.1
25944.3
26587.5
27175.9
27628.2
27834.2
27580.9
26538.9
24730.7
23337.3
22051.8
20928
20294.6
20441.6
21198
22244.3
23390.9
24555.6
25697.8
26771.4
27675.9
28236
28316.7
27960.8
27243.8
26129.5
24730.7
23337.3
22051.8
20928
20294.6
20441.6
21198
22244.3
23390.9
24555.6
25697.8
26771.4
27675.9
28236
28316.7
27960.8
27243.8
26129.5
24721.4
23491.8
22338.6
21284.1
20568.9
20519.8
21125.5
22138.9
23369.4
24718.9
26107.5
27393.7
28337.1
28704.9
28480
27865.3
27023.1
25956.8
24721.4
23491.8
22338.6
21284.1
20568.9
20519.8
21125.5
22138.9
23369.4
24718.9
26107.5
27393.7
28337.1
28704.9
28480
27865.3
27023.1
25956.8
24776.8
23677.5
22633.8
21684.7
21002.7
20857.5
21321.1
22241.3
23450.8
24832.1
26254.7
27500.3
28287.9
28458.6
28119.3
27511.3
26763.4
25848.1
24776.8
23677.5
22633.8
21684.7
21002.7
20857.5
21321.1
22241.3
23450.8
24832.1
26254.7
27500.3
28287.9
28458.6
28119.3
27511.3
26763.4
25848.1
24720.3
23771.2
22854.7
22042.5
21467.9
21316.6
21668.9
22446.3
23518.9
24761.1
26011.7
27039.1
27616.6
27682.1
27379
26901.5
26325.1
25602.8
24720.3
23771.2
22854.7
22042.5
21467.9
21316.6
21668.9
22446.3
23518.9
24761.1
26011.7
27039.1
27616.6
27682.1
27379
26901.5
26325.1
25602.8
24386.4
23637.3
22904.6
22274.9
21851
21744
22007.2
22603.9
23447.8
24428.8
25392.4
26146.1
26543.8
26577.1
26360.8
26021
25599.7
25060.6
24386.4
23637.3
22904.6
22274.9
21851
21744
22007.2
22603.9
23447.8
24428.8
25392.4
26146.1
26543.8
26577.1
26360.8
26021
25599.7
25060.6
23667.1
23164.7
22676
22270
22014.2
21965.5
22150.3
22556.1
23139.9
23823.2
24480.7
24972.4
25214.3
25216.8
25054.9
24805
24498.1
24121.8
23667.1
23164.7
22676
22270
22014.2
21965.5
22150.3
22556.1
23139.9
23823.2
24480.7
24972.4
25214.3
25216.8
25054.9
24805
24498.1
24121.8
22542.5
22307.6
22086.3
21910.1
21810.3
21810.9
21927.7
22169.5
22528.3
22952.2
23341.1
23594.5
23670.3
23592.2
23418.2
23205.7
22988.3
22770
22542.5
22307.6
22086.3
21910.1
21810.3
21810.9
21927.7
22169.5
22528.3
22952.2
23341.1
23594.6
23670.3
23592.2
23418.2
23205.7
22988.3
22770
21203.9
21210.3
21217.9
21222.7
21227.5
21240.9
21283.4
21386.2
21566.6
21791.2
21974.9
22038
21961.4
21785.2
21574.8
21390.8
21269.7
21214.7
21203.9
21210.3
21217.9
21222.7
21227.5
21240.9
21283.4
21386.2
21566.6
21791.2
21974.9
22038
21961.4
21785.2
21574.8
21390.8
21269.7
21214.7
20257.9
20444
20619.6
20736.1
20754
20670.6
20527.7
20392.1
20323.7
20348.3
20432.2
20490.9
20451.5
20314.6
20148.8
20035.1
20020
20103.9
20257.9
20444
20619.6
20736.1
20754
20670.6
20527.7
20392.1
20323.7
20348.3
20432.2
20490.9
20451.5
20314.6
20148.8
20035.1
20020
20103.9
)
;
    }
}


// ************************************************************************* //
