/*--------------------------------*- C++ -*----------------------------------*\
| =========                 |                                                 |
| \\      /  F ield         | OpenFOAM: The Open Source CFD Toolbox           |
|  \\    /   O peration     | Version:  2312                                  |
|   \\  /    A nd           | Website:  www.openfoam.com                      |
|    \\/     M anipulation  |                                                 |
\*---------------------------------------------------------------------------*/
FoamFile
{
    version     2.0;
    format      ascii;
    arch        "LSB;label=32;scalar=64";
    class       volVectorField;
    location    "0.4";
    object      traction;
}
// * * * * * * * * * * * * * * * * * * * * * * * * * * * * * * * * * * * * * //

dimensions      [1 -1 -2 0 0 0 0];

internalField   uniform (0 0 0);

boundaryField
{
    fixed
    {
        type            calculated;
        value           nonuniform List<vector> 
108
(
(1334.13 -2523.97 44246.2)
(2864.63 -7222.17 41442.9)
(4958.06 -9791.09 35203.5)
(6992.79 -10308.4 26967.3)
(8616.57 -9422.13 17435.2)
(9758.9 -7664.17 6173.04)
(10452.9 -5113.25 -7503.13)
(10681.5 -1411.99 -24499.4)
(10472.7 3027.93 -40274.2)
(-11299.6 2989.7 -41227)
(-11361 -1356 -28041.1)
(-10949.9 -5051.91 -13865.4)
(-10000.5 -7778.83 -1041.46)
(-8555.36 -9655.89 10216.6)
(-6643.55 -10520.1 20132)
(-4421.89 -9904.65 28974.6)
(-2317.72 -7365.52 36015.3)
(-934.912 -3049.86 40277)
(-883.72 1969.76 40291)
(-2134.91 6127.31 36330)
(-4066.26 8568.39 29923.2)
(-6158.03 9294.11 22424.8)
(-8004.3 8726.08 14453)
(-9422.97 7286.09 5443.21)
(-10359.3 5103.57 -5569.86)
(-10744.1 1874.3 -20382.9)
(-10679.4 -2282.77 -35598.3)
(11160.5 -2673.07 -40500.6)
(11390 1142.8 -29758.4)
(11040.9 4645.61 -16924.6)
(10207.2 7433.55 -4329.04)
(8906.79 9507.01 7415.07)
(7126.13 10644.2 18307.8)
(4953.76 10288.8 28473.6)
(2783.39 7804.4 37082.4)
(1293.12 3147.58 42720.2)
(1410.53 -12195.9 21169)
(2218.58 -7976.82 7187.52)
(2257.2 -5282.77 1498.1)
(2240.95 -3885.53 -3329.99)
(2214.22 -2926.32 -9181.83)
(2229.23 -2031.64 -16009.5)
(2304.07 -903.387 -23414.9)
(2330.56 695.199 -30232.9)
(1850.65 2334.47 -33307.8)
(-2344.86 2361.39 -34504.4)
(-2854.41 766.305 -33580.1)
(-2839.15 -859.692 -28299.5)
(-2713.5 -2135.47 -21786.4)
(-2580.29 -3228.08 -15354.4)
(-2445.44 -4377.24 -9573.13)
(-2282 -5931.8 -4609.45)
(-2080.04 -8753.57 1778.1)
(-1089.47 -13055.9 16236.3)
(-945.257 11781.7 15219.8)
(-1769.58 7669.86 909.972)
(-1864.35 4994.7 -4603.82)
(-1926.95 3610.55 -8709.16)
(-1985.02 2690.99 -13248.3)
(-2065.83 1891.12 -18329.5)
(-2178.11 938.369 -23890)
(-2236.98 -440.12 -29266.7)
(-1813.34 -1996.16 -31811.3)
(2328.38 -2132.28 -32814.9)
(2841.02 -764.72 -31599.1)
(2881.43 688.738 -26451.5)
(2815.58 1911.75 -19852.5)
(2733.38 3014.26 -13038.7)
(2646.2 4188.52 -6638.14)
(2538.63 5759.52 -923.347)
(2400.14 8591.58 6075.19)
(1535.4 12948.9 21189.7)
(-965.373 2955.66 15401.6)
(-2644.43 7056.49 10601.6)
(-5040.05 8862.04 3033.33)
(-7183.43 8810.49 -4661.37)
(-8726.15 7765.24 -11273.3)
(-9668.4 6385.16 -15992)
(-10178.5 5047.09 -17826.7)
(-10550.3 3823.8 -16986.8)
(-10726.4 2508.46 -17174)
(9891.94 2634.15 -20127.6)
(9713.78 3850.28 -21483.1)
(9388.55 4968.71 -22541.4)
(8929.29 6219.91 -21060.9)
(8108.97 7492.47 -17163.9)
(6795.34 8444.76 -11620.7)
(4964.3 8442.03 -5104.93)
(2907.77 6558.56 1419.17)
(1588.14 2244.19 5177.77)
(1682.72 -3226.75 4943.19)
(3175.45 -7446.74 933.654)
(5405.48 -9200.65 -5758.95)
(7384.89 -9049.46 -12202.9)
(8810.25 -7904.62 -17373.8)
(9683.35 -6418.43 -20596.8)
(10137.5 -4986.79 -20955.6)
(10448.4 -3723.61 -18625.4)
(10544 -2401.73 -17411.4)
(-10167.6 -2511 -17668.3)
(-10008.4 -3827.05 -16771.1)
(-9587.46 -5107.57 -16303.1)
(-8962.76 -6453.52 -13604)
(-7957.41 -7732.19 -8695.48)
(-6454.72 -8612.15 -2234.71)
(-4444.6 -8485.24 5068.1)
(-2248.95 -6515.58 12049.4)
(-814.357 -2300.16 16022.3)
)
;
    }
    inside
    {
        type            calculated;
        value           nonuniform List<vector> 
540
(
(8647.67 522.799 -459.63)
(10571.5 2434.47 -418.03)
(13580.2 5629.28 -60.5222)
(15967.7 10007.6 646.737)
(16839.2 15012 1618.43)
(15685.5 19618.2 2579.28)
(12461.5 22278.4 3053.63)
(8254.48 22428.4 2848.09)
(4505.7 22347.4 2785.1)
(-4528.42 24270.3 3642.49)
(-8895.39 25556.3 4096.11)
(-13638.3 25368.3 4331.92)
(-17518.8 22712 3848.45)
(-19734.6 18316.3 2879.83)
(-20301.2 13412.2 1831.47)
(-19639.5 8819.11 974.619)
(-18344.3 4895.5 432.294)
(-17985.8 1764.54 333.827)
(-18293.9 -1251.3 403.077)
(-19065 -4557.34 600.97)
(-20675.6 -8781 1164.44)
(-21364.6 -13674.9 1909.74)
(-20532.6 -18699 2701.43)
(-17859.1 -22891.2 3309.84)
(-13407.3 -24767.9 3389.92)
(-8322.67 -23771.7 2851.71)
(-4131.14 -22479.3 2488.71)
(3688.71 -22862.4 2175.95)
(7368.74 -22395.7 2082.29)
(11046.2 -21232.1 1989.58)
(13625.7 -18093.4 1477.75)
(14428.7 -13663.1 733.347)
(13526 -9100.36 51.0937)
(11444.1 -5234.31 -392.806)
(9040.79 -2474.32 -566.028)
(8001.38 -843.183 -506.158)
(12553.8 510.162 1239.15)
(12073 2580.77 1125.88)
(11332.7 4464.09 948.381)
(10292.7 6078.43 750.02)
(8648.94 7053.98 486.763)
(6474.75 6942.62 45.7804)
(4006.71 5081.54 -788.341)
(2369.98 2556.79 -1803.49)
(1840.12 578.773 -2526.42)
(-2135.74 958.452 -2808.68)
(-2660.14 3258.18 -2157.96)
(-4268.68 5928.13 -1189.39)
(-6349.87 7330.82 -535.955)
(-8396.4 7501.99 -160.611)
(-10210.7 6821.58 101.895)
(-11797 5578.22 367.815)
(-13332.4 3919.66 685.714)
(-15119.4 1852.09 1034.8)
(-15419.6 -722.928 1149.79)
(-13968.7 -3048.55 1029.11)
(-12796.8 -5134.9 937.281)
(-11515.4 -7001.56 870.161)
(-9735.44 -8343.14 771.589)
(-7396.55 -8658.98 536.897)
(-4636.32 -7115.46 -24.3117)
(-2565.52 -4550 -773.867)
(-1540.73 -1686.51 -1425.76)
(1263.66 -385.686 -2438.15)
(1413.49 -1255.45 -2157.61)
(2388.19 -3249.05 -1502.56)
(3724.86 -4403.44 -961.61)
(5079.14 -4720.37 -513.541)
(6367.45 -4473.32 -80.0968)
(7703.22 -3860.43 363.313)
(9371.14 -2936.2 787.92)
(11466 -1530.65 1126.96)
(9363.13 83.8179 1227.52)
(9178.42 1603.17 1134.6)
(8908.64 3097.79 922.961)
(8643.82 4632.32 676.97)
(8061.78 6071.17 437.731)
(7046.11 7176.33 165.887)
(5548.72 7458.04 -285.531)
(4116.5 7273.12 -915.598)
(2932.12 6878.71 -1443.84)
(-2196.78 6173.87 -2539.94)
(-3188.63 6332.72 -2254.03)
(-4637.78 7223.45 -1579.96)
(-6117.54 7273.72 -1126.23)
(-7220.1 6473.42 -862.402)
(-7972 5330.59 -599.15)
(-8626.04 4140.52 -237.24)
(-9573.81 2954.19 206.133)
(-11289.2 1621.79 609.942)
(-11862.8 -224.695 789.749)
(-10966.4 -2012.05 764.44)
(-10444.1 -3785.12 677.053)
(-10115.4 -5732.36 597.814)
(-9452.43 -7700.83 541.169)
(-8220.82 -9335.94 453.073)
(-6345.96 -9982.15 195.516)
(-4399.94 -9780.22 -275.264)
(-2634.57 -8518.65 -844.03)
(1284.02 -5918.16 -2459.57)
(1956.38 -4569.29 -2409.05)
(2826.94 -4713.51 -1872)
(3604.49 -4463.73 -1356.72)
(4003.41 -3732.41 -865.843)
(4232.45 -2999.28 -314.346)
(4742.44 -2474.01 276.405)
(5979.21 -2027.12 799.235)
(8104.43 -1298.98 1128.32)
(5805.56 -197.365 1655.37)
(6253.27 807.419 1542.76)
(6881.87 2077.41 1254.91)
(7465.25 3640.8 906.968)
(7721.81 5408.14 558.684)
(7479.38 7192.05 199.691)
(6573.99 8532.86 -265.649)
(5140.1 8949.71 -975.705)
(3815.85 9716.32 -1591.17)
(-1852.11 7711.11 -3503.51)
(-2972.24 6067.88 -3311.73)
(-4311.24 6654.94 -2478.29)
(-5388.26 6273.72 -1870.01)
(-5765.73 5022.76 -1430.79)
(-5650.1 3688.12 -958.116)
(-5460.34 2630.08 -380.187)
(-5670.5 1863.2 236.526)
(-7024.74 1228.11 693.191)
(-7849.99 156.898 913.557)
(-7843.25 -1087.81 929.292)
(-8264.84 -2625.28 788.998)
(-8810.28 -4601.37 593.815)
(-9004 -6909.23 399.288)
(-8569.61 -9261.31 193.552)
(-7338.16 -11090.2 -107.609)
(-5399.94 -11579.7 -646.406)
(-3580.72 -12114.9 -1324.48)
(866.903 -8181.47 -3490.96)
(1704.57 -4633.11 -3430.49)
(2574.16 -4487.05 -2615.48)
(3099.69 -3867.58 -1795.4)
(2905.01 -2674.45 -1005.14)
(2348.29 -1673.87 -174.581)
(2076.79 -1189.39 636.301)
(2612.69 -1054.97 1284.37)
(4422.67 -914.582 1593.09)
(2697.47 -328.404 2466.02)
(3879.77 284.682 2245.65)
(5492.06 1461.45 1777.93)
(7020.38 3231.21 1229.43)
(8080.71 5470.89 675.342)
(8456.71 7971.6 122.556)
(7949.84 10282.6 -475.087)
(6429.91 11427.8 -1255.94)
(4801.44 13082.6 -2073.67)
(-1313.25 9968.74 -4680.44)
(-2878.32 6799.37 -4418.74)
(-4367.92 7113.11 -3361.46)
(-5311.2 6311.87 -2504.03)
(-5192.36 4521.51 -1790.16)
(-4338.59 2798.95 -1027.89)
(-3308.18 1617.31 -175.315)
(-2737.18 1035.83 660.269)
(-3557.39 868.095 1205.62)
(-4611.58 402.73 1436.55)
(-5567.24 -458.46 1392.55)
(-7013.5 -1940.13 1100.91)
(-8418.7 -4121.84 700.48)
(-9312.39 -6860.43 269.116)
(-9439.13 -9891.82 -176.032)
(-8611.07 -12722 -667.338)
(-6633.46 -14097.6 -1291.37)
(-4550.99 -15674.4 -2223.34)
(234.112 -11197.9 -4825.3)
(1618.46 -6259.77 -4644.88)
(2723.68 -5485.88 -3516.91)
(3207.08 -4325.05 -2281.37)
(2651.51 -2567.69 -1076.74)
(1426.47 -1077.03 131.076)
(302.799 -334.277 1251.72)
(-0.517976 -265.222 2106.57)
(1246.81 -507.747 2455.38)
(464.432 -328.785 3480.39)
(2274.92 40.3918 3076)
(4660.54 1191.84 2338.67)
(6940.46 3166.03 1487.5)
(8622.19 5808.48 627.161)
(9442.48 8876.56 -213.366)
(9180.48 11901 -1036.4)
(7608.86 13778.8 -1914.12)
(5524 15488.9 -2940.81)
(-636.692 12317.2 -6112.38)
(-2908.84 8812.69 -5765.93)
(-4653.73 8287.1 -4461.62)
(-5583.72 6934.16 -3271.52)
(-5191.65 4642.21 -2202.33)
(-3814.21 2495.38 -1082.19)
(-2110.44 1077.25 107.339)
(-877.067 516.921 1216.5)
(-1155.35 598.619 1908.92)
(-2364.22 531.182 2136.7)
(-4122.77 -98.2587 1949.64)
(-6401.69 -1599.66 1421.54)
(-8472.03 -3992.39 739.545)
(-9852.14 -7079.95 3.00654)
(-10334.8 -10609.6 -754.41)
(-9732.19 -14124.7 -1522.38)
(-7807.08 -16482.1 -2306.32)
(-5212.09 -17775.2 -3370.41)
(-576.357 -14432.3 -6444.36)
(1659.5 -9789.18 -6365.82)
(3078.43 -7349.65 -4884.77)
(3584.55 -5315.75 -3095.48)
(2910.95 -3051.84 -1365.37)
(1262.7 -1054.04 323.205)
(-552.547 72.157 1862.63)
(-1606.33 251.137 3027.14)
(-984.905 -158.237 3513.04)
(-850.738 -217.014 4478.86)
(1366.39 35.129 3870.84)
(4259.78 1197.74 2821.39)
(7021.75 3311.61 1617.03)
(9123.94 6221.62 393.626)
(10269.4 9686.74 -794.107)
(10188.5 13223.7 -1903.99)
(8631.7 15789.1 -2946.83)
(6059.79 17263.4 -4084.39)
(222.913 14934.1 -7828.2)
(-2887.97 11512.3 -7571.66)
(-4932.19 9565.62 -5923.28)
(-6017.29 7825.43 -4318.25)
(-5588.88 5179.4 -2842.26)
(-3908.53 2632.51 -1325.95)
(-1723.55 920.895 235.6)
(52.1958 249.211 1661.31)
(270.538 400.44 2559.52)
(-972.024 543.898 2806.52)
(-3301.06 35.1396 2446.71)
(-6197.46 -1510.79 1640.04)
(-8732.99 -4060.97 642.718)
(-10426.6 -7375.61 -422.913)
(-11134.3 -11223.3 -1520.05)
(-10672.5 -15186.1 -2607.26)
(-8837.38 -18358.7 -3650.94)
(-5798.8 -19482.5 -4718.58)
(-1625.9 -18087.6 -8481.6)
(1429.77 -13404.4 -8587.08)
(3107.72 -8695.22 -6679.02)
(3882.85 -6250.93 -4340.11)
(3389.03 -3779.67 -2031.27)
(1611.96 -1404.73 208.679)
(-650.604 116.65 2247.05)
(-2284.47 516.94 3803.5)
(-2227.95 118.379 4517.88)
(-1529.96 2.61346 5320.15)
(885.685 210.901 4538.35)
(4089.65 1387.51 3169.62)
(7095.66 3551.14 1614.8)
(9434.38 6564.41 19.3329)
(10822.9 10238.7 -1551.79)
(10939 14133.4 -3018.36)
(9508.73 17350.4 -4350.89)
(6606.03 18997.1 -5622.83)
(1286.72 17762.1 -9967.98)
(-2652.6 13818.1 -9805.44)
(-4975.12 10195.3 -7696.1)
(-6412.88 8582.17 -5696.19)
(-6209.18 5895.91 -3811)
(-4432.75 3033.66 -1882.83)
(-1918.92 999.388 64.8007)
(372.814 95.4248 1853.45)
(1094.27 186.82 3023.96)
(-19.9734 423.182 3359.03)
(-2726.44 -2.11666 2842.88)
(-6117.18 -1568.77 1738.45)
(-8970.5 -4185.11 426.898)
(-10854.3 -7577.26 -957.454)
(-11719.3 -11558.8 -2397.33)
(-11395.1 -15780 -3837.43)
(-9708.71 -19566.4 -5238.04)
(-6479.05 -21130.6 -6404.27)
(-2857.28 -21249.9 -10970.5)
(888.76 -16375 -11130.8)
(2867.62 -9584.36 -8844.41)
(4037.02 -6948.66 -6074.63)
(3896.51 -4480.91 -3151.67)
(2221.74 -1898.5 -301.568)
(-273.734 -31.889 2291.44)
(-2352.59 650.043 4300.33)
(-2786.91 377.014 5316.57)
(-2152.17 347.236 6087.31)
(424.851 505.64 5126.54)
(3949.61 1678.44 3381.15)
(7047.67 3805.99 1498.09)
(9478.83 6771.65 -449.362)
(11021.1 10457.5 -2414.6)
(11319 14498 -4294.06)
(10069.1 18153.9 -6032.96)
(6984.98 20109.3 -7530.94)
(2361.05 19621.6 -12390.6)
(-2285.24 15454.4 -12375.4)
(-5043.71 10727.5 -9924.94)
(-6875.94 9258.13 -7524.57)
(-7037.96 6709.62 -5222)
(-5289.15 3587 -2848.6)
(-2504.28 1185.5 -475.967)
(480.062 -107.407 1800.02)
(1898.65 -170.342 3373.78)
(1160.37 134.562 3934.53)
(-1911.89 -153.75 3253.03)
(-5908.96 -1692.89 1766.52)
(-9003.63 -4276.18 151.224)
(-11004.2 -7603.64 -1524.61)
(-11986.1 -11540 -3292.84)
(-11809 -15817.8 -5103.61)
(-10298.8 -19908.1 -6905.41)
(-7193.13 -22309.2 -8423.33)
(-3984.66 -22154.6 -13340)
(179.13 -18617.1 -13830.6)
(2942.78 -11836.7 -12015.6)
(4407.9 -7985.27 -8691.9)
(4422.41 -5048.8 -4860.7)
(2932.44 -2349.67 -1262.88)
(314.17 -197.127 1983.39)
(-2266.53 832.076 4574.08)
(-3314.89 752.02 6029.17)
(-3609.8 869.105 7254.87)
(-660.146 859.406 5970.66)
(3703.12 2020.78 3473.77)
(6854.54 4061.92 1240.9)
(9279.74 6881.09 -1046.9)
(10839.5 10389.7 -3383.72)
(11214.2 14296.9 -5673.46)
(10088.5 17978.2 -7836.42)
(6981.38 20140 -9680.31)
(3166.96 19284.1 -14633.4)
(-1863.16 16158.3 -15194.7)
(-5367.38 11725.9 -12978.3)
(-7538.33 9932.17 -10030.2)
(-8113.04 7582.27 -7274.98)
(-6467.52 4251.26 -4386.11)
(-3379.6 1422.92 -1463.36)
(860.094 -536.015 1701.4)
(3454.27 -824.169 3966.08)
(3523.48 -385.851 5025.48)
(15.9458 -364.259 4143.01)
(-5364.06 -1839.62 1816.5)
(-8715.45 -4319.29 -132.939)
(-10808.6 -7487.23 -2089.37)
(-11847.2 -11213.4 -4152.93)
(-11781.2 -15308.9 -6312.73)
(-10446.6 -19351 -8500.43)
(-7677.97 -22398.3 -10541.4)
(-4858.95 -21316.6 -15513.4)
(-628.085 -20563.9 -16857.5)
(2980.99 -14468.8 -15834.7)
(4389.35 -8098.92 -11661.6)
(4670.71 -4965.38 -7065.98)
(3498.48 -2454.4 -2653.62)
(851.908 -189.945 1395.29)
(-2785.82 1372.07 5072.32)
(-4492.39 1388.54 7039.79)
(-9796.32 1952.38 11921.5)
(-1043.58 1338.23 6387.36)
(4012.39 2545.23 2959.31)
(6926.88 4498.22 464.221)
(9086.21 7099.36 -2091.68)
(10389.4 10241.5 -4704.56)
(10622.1 13709.2 -7316.53)
(9501.41 17002.6 -9842.61)
(6463.34 19115.7 -12148)
(3623.15 17633.8 -16768.8)
(-1498.2 16473.9 -18427)
(-5722.97 12466.6 -16672.9)
(-8069.97 9890.19 -13082.4)
(-9293.08 8266.95 -10191.7)
(-8076.64 5081.84 -6893.1)
(-4733.85 1826.26 -3231.36)
(680.226 -826.71 1161.06)
(9926 -2812.13 7610.66)
(11067.3 -1574.81 9408.16)
(1668.91 -711.607 5017.59)
(-5493.63 -2204.58 1297.05)
(-8593.99 -4549.68 -773.581)
(-10498.5 -7479.2 -2901.36)
(-11343.6 -10803.3 -5133.49)
(-11223.2 -14421.9 -7526.92)
(-10015.5 -18049.3 -10009.4)
(-7628.45 -21117.9 -12456.6)
(-5475.42 -19796.4 -17932.7)
(-1500.01 -20369.5 -19388.1)
(2688.28 -16016 -19421.5)
(4631.27 -8672.59 -15507.8)
(5187.58 -4868.47 -10356.7)
(4347.49 -2480.43 -5056.88)
(2072.29 -417.953 -210.121)
(-3256.36 2037.88 5618.35)
(-10755.4 3398.83 11950.5)
(-6719.56 2237.76 10932.9)
(293.133 1978.74 5452.63)
(4562.15 3253.37 1770.23)
(7244.34 5191.45 -1261.4)
(8923.77 7529.19 -4131.69)
(9693.1 10137.8 -6932.68)
(9495 12851.2 -9677.72)
(8157.39 15300.3 -12320.5)
(5106.49 16780.2 -14862.9)
(3508.98 14905.7 -18567.1)
(-1265.58 14849.7 -20926.4)
(-5846.58 12134.7 -20325)
(-8694.91 9699.95 -17194.3)
(-10499.9 8645.75 -14479.8)
(-10082.2 6005.2 -11085.2)
(-6787.66 2482.39 -6537.27)
(-1360.64 -427.472 -1140.27)
(7395.77 -2655.98 6479.76)
(9120.67 -1862.74 9051.36)
(1265.73 -1197.98 4761.66)
(-5568.34 -2707.22 469.555)
(-8591.45 -5055.66 -2051.76)
(-10088 -7714.21 -4368.03)
(-10481 -10476.5 -6646.72)
(-10080.9 -13331.3 -9066.21)
(-8907.98 -16187 -11635.5)
(-6934.54 -18728 -14213)
(-5579.75 -17204.2 -20579)
(-2171.11 -17463.2 -20847.3)
(2008.07 -15598.3 -21777.5)
(5356.3 -11102.3 -20715.3)
(6495.94 -6046.34 -15793.7)
(5850.01 -2886.61 -9567.74)
(4042.42 -894.727 -3771.35)
(-964.459 1707.81 3599.21)
(-7348.69 3175.96 10737.2)
(5682.41 1415.84 -780.207)
(6838.26 3050.57 -1900.79)
(8825.89 4946.37 -5045.94)
(9463.7 6796.4 -7408.24)
(9505.28 8549.02 -9701.16)
(9052.46 10267.3 -12021.6)
(7994.89 11888.3 -14291.5)
(6182.34 13175.7 -16417)
(3019.97 13540.8 -18394.4)
(2827.98 11925.5 -20502.1)
(-1228.84 11679.2 -22505.4)
(-5512.44 10975.1 -23813.3)
(-8991.09 9610.81 -22753.2)
(-11362.2 8539.41 -20894.1)
(-12580.8 7041.46 -18884.5)
(-11476.6 4490.74 -15302.3)
(-7868.15 1791.6 -9763.77)
(-4126.98 231.144 -4068.35)
(-2628.86 -640.539 -272.038)
(-5609.02 -1857.53 -1384.87)
(-9790.42 -4151.22 -5100.34)
(-10925.1 -6583.4 -7221.73)
(-10599.7 -8662.88 -8765.57)
(-9688.29 -10476.3 -10290.5)
(-8485.24 -12161 -12003.7)
(-7047.98 -13790.4 -13957)
(-5465.18 -15328.3 -16044.5)
(-4231.13 -12067 -21801.7)
(-2497.05 -13530.6 -22715.6)
(959.213 -12982.9 -23451.1)
(4527.64 -11228.1 -24218.3)
(7584.91 -8796.11 -23821.7)
(9282.38 -6304.07 -20822.2)
(9227.06 -4043.2 -15431)
(7160.35 -1710.52 -7917.8)
(5482.51 -27.333 -2320.9)
(12357.9 2470.5 -17829.7)
(10929.2 5037.78 -18554.3)
(10095.8 6344.28 -19671.9)
(9227.77 7277.03 -20674.3)
(8025.72 7992.42 -21245.4)
(6533.92 8528.22 -21498.3)
(4850.92 8907.32 -21670.4)
(2975.32 9068.48 -21843.7)
(741.505 8300.36 -21566)
(1654.67 8069.44 -21936.6)
(-1063.36 7557.48 -23192.4)
(-3952.71 7400.52 -25175.1)
(-6797.15 6769.21 -25948.4)
(-9255.66 5774.44 -25794.6)
(-11555.1 4634.35 -26216.7)
(-12838.7 2568.87 -25690.9)
(-12430.9 409.172 -23720.7)
(-10583 556.583 -19835.9)
(-11444.9 310.133 -14178.3)
(-13277.7 -4468.91 -16073.3)
(-13323.5 -6934.65 -18679.6)
(-12133 -8258.51 -19575.5)
(-10195.4 -9110.22 -19307.7)
(-8022.03 -9654.57 -18598.7)
(-5973.17 -10006.7 -18006.4)
(-4236.31 -10308.3 -17820.3)
(-3174.09 -10778.4 -18157.9)
(-802.116 -5649.42 -20139.3)
(-1676.35 -6503.25 -21911.1)
(24.6204 -6480.26 -22367.3)
(2101.27 -6256.4 -23634.7)
(4698.6 -6503.91 -27205.1)
(7501.01 -6050.68 -30023.5)
(9496.43 -4534.88 -29988.7)
(10618.7 -3529.49 -27400)
(12184.4 -2740.08 -20179.5)
(7286.66 -1128.15 -29577)
(5489.39 -267.858 -33518.4)
(4104.84 1381.87 -37039.5)
(2983.88 2814.28 -39577)
(1998.92 3815.44 -40908.3)
(1144.05 4469.31 -41112.6)
(411.586 4890.88 -40431.6)
(-158.991 5049.78 -39088.5)
(776.943 4631.77 -36530.9)
(1578.87 7140.84 -35659.7)
(303.829 5936.09 -35238.1)
(-1207.59 5195.15 -35155.2)
(-2943.51 4817.99 -36800.3)
(-4451.9 3493.32 -34004.3)
(-5738.38 1904.2 -30883.5)
(-7348.76 729.276 -31435.6)
(-8442.39 -771.847 -29416)
(-9662.74 -1278.12 -28027.3)
(-9652.26 -169.161 -27535)
(-8088.95 -344.645 -30260.7)
(-6868.95 -2156.7 -33541.6)
(-5989.61 -3840.7 -35931.8)
(-5097.76 -4952.62 -37020.7)
(-4177.28 -5652.08 -36956.6)
(-3308.1 -6226.54 -36108.4)
(-2597.01 -6959.28 -34906.2)
(-2667.38 -8523.42 -33895.1)
(-758.229 -3281.81 -30760)
(-2475 -1749.33 -30091.7)
(-1634.48 -1310.06 -28438.6)
(-136.358 -567.998 -25743.8)
(1211.16 -121.577 -25945.3)
(2743.67 358.352 -27580.7)
(4648.62 1112.67 -28432.4)
(6795.15 1556.95 -26833.5)
(8269.79 220.743 -26972.3)
)
;
    }
    outside
    {
        type            calculated;
        value           nonuniform List<vector> 
540
(
(18326.3 1395.81 906.324)
(17045.5 4001.97 1999.81)
(13328.8 5233.42 3393.63)
(8368.14 4279.14 4321.51)
(3185.33 729.435 4239.07)
(-1597.22 -5975.6 2674.75)
(-5004.35 -16295.3 -833.449)
(-5632.09 -30535.6 -6841.97)
(-443.78 -42652.8 -13456.9)
(36.8898 -44655.7 -13952.2)
(6557.39 -34827.5 -8380.31)
(8051.11 -22620.2 -3070.88)
(6328.22 -12338.8 713.473)
(2647.08 -4750.39 2956.25)
(-2056.88 123.225 3879.23)
(-7217.51 2565.94 3819.5)
(-11827.6 2723.91 3188.98)
(-14947.1 1187.08 2662.25)
(-15240.2 -1108.53 2653.16)
(-12796.5 -2914.53 3160.3)
(-8780.01 -3287.94 3778.29)
(-4409.21 -1852.09 4000.97)
(-460.178 1424.17 3584.85)
(2907.37 6974.44 2314.29)
(5254.92 15501.6 -121.945)
(5689.45 28278.4 -4449.42)
(962.801 40169.6 -9670.64)
(-236.865 44243.3 -11877.8)
(-6886.45 36066 -7789.9)
(-9040.83 24567.3 -3421.62)
(-7697.9 14048 -88.9578)
(-3928.86 5786.36 1872.04)
(1313.58 187.802 2506.26)
(7316.32 -2759.03 2114.78)
(12920.7 -3085.87 1227.68)
(16847.4 -1353.49 647.762)
(7825.63 643.772 -1125.22)
(8376.24 2094.24 -368.042)
(7575.22 3149.47 842.234)
(6178.7 3470.08 2108.68)
(4850.41 3137.18 3181.5)
(3604.56 2043.82 3889.01)
(2479.86 -76.7148 4055.72)
(1373.34 -4612.96 3046.33)
(2261.35 -9184.35 979.98)
(-2440.53 -9599.46 831.924)
(-1413.09 -4372.03 3336.1)
(-2056.94 -514.244 4315.43)
(-3092.38 1625.61 4370.43)
(-4334.66 2782.32 3888.46)
(-5707.88 3202.1 3029.39)
(-7299.58 3046.88 1981.52)
(-8538.25 2172.85 977.379)
(-9132 845.455 390.701)
(-9265.22 -615.469 384.465)
(-9127.37 -2087.15 928.28)
(-7996.54 -3189.01 1779.18)
(-6487.88 -3694.62 2612.49)
(-5133.4 -3725.82 3286.05)
(-3850.62 -3150.7 3746.23)
(-2617.3 -1653.14 3948.93)
(-1151.64 2605.8 3332.53)
(-1552.94 7688.32 1754.36)
(2023.96 10123.1 262.071)
(717.501 6235.26 1891.26)
(726.429 2815.69 2604.08)
(1253.67 546.147 2646.23)
(2156.2 -994.552 2189.23)
(3405.66 -1925.38 1335.53)
(5075.79 -2267.24 264.394)
(6542.69 -1780.29 -731.552)
(7166.84 -663.441 -1245.38)
(4984.12 546.623 -2054.74)
(5983.3 1771.35 -1558.84)
(5682.28 2765.64 -606.732)
(4563.53 3085.64 520.772)
(3433.72 2789.88 1592.27)
(2427.41 1874.92 2477.71)
(1617.44 294.644 3090.42)
(897.878 -2739 3137.96)
(1595.96 -6294.48 2273.55)
(-2142.65 -8536.2 1335.38)
(-540.204 -5624.87 2550.89)
(-689.137 -2110.97 3048.28)
(-1259.57 -38.1327 2889.81)
(-2273.08 1433.85 2376.97)
(-3516.22 2199.34 1560.25)
(-4919.99 2316.67 603.181)
(-5755.85 1662.78 -254.223)
(-5882.23 624.036 -736.812)
(-5999.55 -465.03 -775.151)
(-6402.87 -1645.89 -414.881)
(-5840.95 -2626.49 221.657)
(-4645.44 -3060.6 911.483)
(-3508.05 -3041.96 1535.02)
(-2496.86 -2568.2 2083.54)
(-1642 -1607.19 2597.62)
(-697.139 811.028 2910.14)
(-838.383 4317.92 2671.79)
(1738.49 8366.6 950.477)
(-160.544 7340.41 1487.73)
(-599.218 4064.15 1764.04)
(-490.258 1852.73 1583.45)
(237.305 55.2271 1072.56)
(1408.69 -1141.61 241.816)
(2931.61 -1677.7 -758.039)
(4036.71 -1347.27 -1632.53)
(4313.52 -465.057 -2074.96)
(2536.25 509.664 -2305.01)
(3861.54 1502.63 -2071.74)
(4060.74 2440.37 -1407.71)
(3401.5 2898.89 -486.237)
(2696.45 2945.96 510.999)
(2147.12 2691 1529.08)
(1746.45 2191.78 2559.94)
(1362.03 1120.38 3523.36)
(1590.3 -838.011 3870.64)
(-2243.25 -3827.89 2950.97)
(-658.824 -3864.48 3090.17)
(-869.54 -717.745 2946.89)
(-933.029 206.343 2331.97)
(-1436.64 1108.5 1629.98)
(-2177.17 1621.32 806.647)
(-3048.98 1683.12 -53.7977)
(-3396.22 1150.17 -766.94)
(-3150.05 349.875 -1167.28)
(-3295.98 -438.328 -1264.22)
(-4116.61 -1373.53 -1115.11)
(-4182.23 -2295.25 -727.863)
(-3543.2 -2869.4 -217.68)
(-2841.24 -3165.1 327.749)
(-2225.48 -3274.38 935.7)
(-1690.72 -3271.72 1684.15)
(-1074.01 -2865.88 2615.89)
(-712.251 -1356.24 3491.77)
(1799.77 3272.56 2152.72)
(-39.2636 5631.21 2165.04)
(-430.481 2554.24 1819.29)
(-793.023 1424.8 1238.35)
(-562.262 244.304 578.325)
(138.001 -657.05 -221.736)
(1171.64 -1107.97 -1104.23)
(1824.17 -876.478 -1840.15)
(1847.44 -225.933 -2221.63)
(196.704 525.753 -2395.52)
(1773.74 1291.53 -2424)
(2461.93 2160.45 -2045.45)
(2283.63 2745.35 -1340.57)
(1952.2 3060.29 -455.288)
(1720.37 3224.99 591.973)
(1568.32 3314.94 1820.69)
(1458.52 3392.6 3206.67)
(1527.46 2569.95 4284.97)
(-2219.29 -1153 3614.97)
(-628.154 -3015.07 3510.49)
(-876.063 323.225 2777.95)
(-558.811 387.5 1862.42)
(-621.065 794.686 1027.39)
(-867.753 1047.09 224.572)
(-1181.68 1022.97 -525.861)
(-1064.34 595.819 -1102.74)
(-579.698 23.8344 -1428.12)
(-806.206 -494.998 -1594.95)
(-1941.45 -1197.53 -1659.37)
(-2556.38 -2032.85 -1514.32)
(-2448.26 -2699.99 -1187.5)
(-2122.68 -3204.47 -748.653)
(-1787.05 -3651.47 -168.904)
(-1447.74 -4138.19 630.9)
(-1056.28 -4776.81 1726.77)
(-516.064 -4563.19 3128.74)
(1642.92 328.488 2406.16)
(145.012 4106.37 2775.84)
(-454.708 1545.73 1843.8)
(-1102.11 1028.51 977.409)
(-1309.44 389.053 216.357)
(-1081.19 -208.415 -530.339)
(-582.869 -536.55 -1279.61)
(-389.068 -382.169 -1875.91)
(-537.89 46.3416 -2203.23)
(-1809.41 568.587 -2394.51)
(-106.28 1127.47 -2654.74)
(999.558 1910.04 -2540.52)
(1288.47 2587.3 -2042.26)
(1310.82 3111.29 -1278.16)
(1334.32 3564.02 -255.482)
(1346.51 3985.59 1051.95)
(1354.59 4507.46 2598.46)
(1391.12 4092.64 4069.6)
(-2072.87 376.666 3765.17)
(-891.318 -1080.71 3899.13)
(-906.827 1383.93 2603.8)
(-429.959 904.849 1488.78)
(-96.3022 736.838 563.235)
(125.622 652.689 -214.351)
(359.784 469.034 -857.206)
(900.425 91.5575 -1305.84)
(1499.12 -290.457 -1569.46)
(1182.96 -591.554 -1806.47)
(-127.356 -1091.09 -2056.81)
(-1160.8 -1825.95 -2126.96)
(-1519.45 -2548.38 -1971.96)
(-1534.52 -3203.91 -1649.51)
(-1424.21 -3866.78 -1146.78)
(-1215.06 -4608.95 -395.475)
(-886.689 -5551.38 669.194)
(-302.944 -5935.63 2222.89)
(1275.5 -1972.34 2065.94)
(651.52 1116.4 2980.68)
(-535.402 886.852 1947.67)
(-1188.63 380.741 795.996)
(-1783.5 301.579 -33.1069)
(-2016.11 60.9673 -733.125)
(-2069.56 -77.3498 -1352.26)
(-2320.21 53.4276 -1811)
(-2579.25 300.692 -2096.55)
(-3313.64 599.585 -2321.64)
(-1624.74 985.035 -2749.56)
(-260.433 1656.71 -2847.96)
(399.314 2363.29 -2536.5)
(723.245 3018.34 -1904.77)
(959.422 3659.78 -957.105)
(1109.75 4296.39 334.823)
(1181.29 5009.02 1913.41)
(1256.78 4879.71 3610.63)
(-1876.78 1933.36 3656.49)
(-1265.4 1459.39 3968.85)
(-862.081 2163.22 2450.05)
(-465.963 1647.67 1147.37)
(190.17 883.008 211.949)
(776.111 452.724 -518.749)
(1459.63 73.5826 -1045.03)
(2318.39 -296.634 -1371.34)
(2947.6 -536.258 -1591.61)
(2581.81 -674.963 -1887.2)
(1250.83 -1002.84 -2267.26)
(-20.6328 -1617.16 -2506.62)
(-727.163 -2338.15 -2510.03)
(-1024.61 -3073.88 -2318.32)
(-1105.19 -3859.92 -1935.89)
(-1015.67 -4752.77 -1312.39)
(-734.973 -5828.4 -389.795)
(-195.343 -6797.89 1033.69)
(776.028 -4423.94 1203.6)
(1070.04 -1787.5 2614.83)
(-644.931 692.305 2274.47)
(-1138.15 -355.019 708.075)
(-2008.22 23.4088 -168.304)
(-2615.4 130.661 -834.515)
(-3137.86 208.851 -1337.43)
(-3742.39 358.462 -1675.89)
(-4072.23 483.173 -1936.62)
(-4329.63 589.247 -2154.93)
(-2780.59 836.183 -2664.04)
(-1326.13 1379.28 -2908.53)
(-412.178 2058.71 -2768.33)
(154.309 2780.12 -2292.48)
(579.866 3554.33 -1478.29)
(885.727 4398.51 -300.668)
(1075.4 5406.55 1176.35)
(1338.74 6152.83 2821.51)
(-1664.77 4310.07 3153.18)
(-1547.46 3437.23 3801.51)
(-551.983 2082.28 2553.92)
(-658.644 2637.1 765.153)
(272.907 1229.27 -77.5614)
(1103.28 463.638 -725.009)
(2121.87 -135.891 -1099.68)
(3198.99 -534.992 -1292.93)
(3835.24 -681.497 -1473.92)
(3484.7 -708.029 -1799.36)
(2253.1 -894.273 -2239.18)
(895.571 -1376.25 -2597.3)
(-42.1658 -2047.95 -2750.53)
(-556.842 -2801.36 -2708.88)
(-797.863 -3640.4 -2486.43)
(-826.673 -4621.18 -2054.86)
(-618.482 -5803.24 -1361.75)
(-182.184 -7326.31 -288.394)
(210.145 -5990.7 141.865)
(1220.79 -3483 2084.31)
(-389.695 -94.9761 2643.99)
(-1045.71 -1011.14 796.754)
(-2014.52 -435.198 -201.086)
(-2904.29 2.50365 -841.706)
(-3766.1 296.782 -1246.7)
(-4615.8 499.185 -1484.3)
(-5006.24 563.832 -1724.94)
(-5013.27 533.051 -1790.56)
(-3698.73 666.713 -2291.4)
(-2263.74 1073.07 -2640.71)
(-1188.94 1684.23 -2681.22)
(-443.502 2411.96 -2393.33)
(131.15 3247.36 -1756.55)
(572.673 4214.61 -745.73)
(876.105 5381.36 591.857)
(1401.94 6746.5 2052.78)
(-1518.25 5041.47 2781.91)
(-1558.97 3807.59 3841.78)
(-433.1 2397.34 2801.82)
(-960.559 3826.18 285.57)
(152.692 1816.99 -392.529)
(1164.46 683.216 -882.769)
(2433.34 -165.853 -1028.87)
(3687.4 -636.886 -1030.74)
(4353.59 -733.301 -1137.65)
(4079.83 -683.786 -1443.39)
(3024.84 -750.042 -1874.15)
(1664.77 -1094.94 -2325.21)
(583.313 -1679.51 -2637.53)
(-79.7786 -2388.28 -2765.79)
(-440.702 -3201.49 -2726.01)
(-568.053 -4167.96 -2506.94)
(-436.262 -5328.98 -2058.94)
(-57.819 -6853.22 -1279.02)
(-342.497 -5996.96 -507.637)
(1252.54 -5002.64 1358.69)
(369.498 -2237.85 2502.54)
(-1156.63 -1122.49 1381.61)
(-1916.81 -991.308 -91.9514)
(-2986.89 -284.224 -735.468)
(-4052.82 206.151 -1063.24)
(-5075.66 496.578 -1189.94)
(-5530.53 551.557 -1386.99)
(-5627.3 462.996 -972.191)
(-4507.78 489.415 -1465.63)
(-3106.02 757.592 -1959.62)
(-1937.31 1268.21 -2219.92)
(-1079.73 1942.21 -2145.36)
(-406.044 2757.45 -1701.05)
(128.769 3724.95 -856.69)
(522.292 4854.79 374.595)
(1264.78 6125.06 1802.82)
(-1537.35 3997.21 3359.86)
(-1497.62 3944.84 4284.29)
(-941.298 4526.24 2512.14)
(-1267.87 4996.18 -242.176)
(-154.639 2626.62 -789.513)
(1035.21 1055.93 -980.039)
(2490.92 -61.9286 -781.992)
(3960.56 -665.998 -449.776)
(4818.3 -767.757 -330.047)
(4627.39 -636.958 -577.538)
(3692.17 -586.76 -1012.67)
(2326.5 -793.461 -1603.48)
(1167.08 -1256.69 -2108.57)
(431.116 -1856.2 -2415.83)
(-5.57697 -2564.99 -2558.72)
(-218.452 -3429.7 -2550.67)
(-188.207 -4504.08 -2369.02)
(111.199 -5900.12 -1903.96)
(-894.317 -5526.31 -782.866)
(1175.3 -6087.21 641.308)
(933.665 -3763.77 2416.44)
(-1230.82 -1041.43 2554.3)
(-1827.55 -1520.53 316.213)
(-2945.8 -691.6 -450.322)
(-4132.92 -9.20987 -698.404)
(-5349.51 429.275 -615.963)
(-5969.54 521.446 -651.173)
(-5936.39 390.447 381.91)
(-5114.07 334.292 -70.535)
(-3753.85 460.935 -800.425)
(-2592.59 834.38 -1289.51)
(-1684.97 1405.61 -1432.6)
(-935.73 2160.27 -1196.48)
(-307.662 3105.01 -553.153)
(222.383 4256.64 476.541)
(1242 5519.82 1684.24)
(-1712.2 4085.52 4584.76)
(-1720.82 5166.27 5232.18)
(-1314.07 6018.95 2758.48)
(-1086.09 5126.78 -17.4737)
(-713.713 3643.55 -1249.76)
(762.902 1467.11 -827.776)
(2285.91 129.772 -204.614)
(3981.04 -661.605 637.961)
(4945.65 -781.192 1041.76)
(4855.6 -593.398 882.718)
(4167.47 -452.639 481.84)
(2805.45 -514.132 -343.99)
(1668.72 -816.908 -1053.78)
(940.572 -1251.06 -1517.78)
(467.848 -1796.54 -1816.61)
(179.508 -2497.13 -1994.86)
(94.1029 -3414.5 -2065.97)
(269.966 -4614.52 -1933.99)
(-1481.81 -4446.53 -435.935)
(909.566 -5712.94 758.98)
(1371.95 -4982.76 2490.87)
(-474.872 -2309.7 3452.51)
(-2105.82 -1441.37 1818.11)
(-2829.36 -1151.26 220.614)
(-4076.46 -289.377 63.7439)
(-5468.28 340.821 477.577)
(-6106.64 465.326 587.63)
(-5516.51 278.235 2232.42)
(-4805.7 179.601 1603.89)
(-3807.96 212.504 846.536)
(-2857.33 445.869 273.58)
(-1971.87 908.63 -59.3809)
(-1167.31 1614.23 -67.3963)
(-457.098 2554.31 313.427)
(204.553 3714.59 1058.56)
(1387.87 4523.8 2012.34)
(-2380.78 4683.57 8077.42)
(-2052.7 5172.02 8815.63)
(-1207.75 5632.37 5420.08)
(-1620.09 6197.22 328.308)