/*--------------------------------*- C++ -*----------------------------------*\
| =========                 |                                                 |
| \\      /  F ield         | OpenFOAM: The Open Source CFD Toolbox           |
|  \\    /   O peration     | Version:  2312                                  |
|   \\  /    A nd           | Website:  www.openfoam.com                      |
|    \\/     M anipulation  |                                                 |
\*---------------------------------------------------------------------------*/
FoamFile
{
    version     2.0;
    format      ascii;
    arch        "LSB;label=32;scalar=64";
    class       volVectorField;
    location    "0.4";
    object      U;
}
// * * * * * * * * * * * * * * * * * * * * * * * * * * * * * * * * * * * * * //

dimensions      [0 1 -1 0 0 0 0];

internalField   nonuniform List<vector> 
1620
(
(0.000558615 -2.93778e-05 0.000143527)
(0.000471053 -9.14589e-05 -6.24606e-05)
(0.000387561 -0.000177416 -0.000199864)
(0.0003156 -0.000218656 -0.000257805)
(0.000257255 -0.000207298 -0.000264025)
(0.000213205 -0.00016584 -0.000242102)
(0.00018236 -0.000116275 -0.000205011)
(0.000160065 -6.99187e-05 -0.000161514)
(0.000138718 -2.99825e-05 -0.000118646)
(0.000110275 4.56009e-06 -8.06436e-05)
(6.82188e-05 3.79715e-05 -4.75003e-05)
(7.57069e-06 7.78574e-05 -1.40126e-05)
(-7.67207e-05 0.000131965 3.07589e-05)
(-0.000189949 0.000198218 0.000101663)
(-0.000331185 0.000252279 0.000207398)
(-0.000480031 0.000250921 0.00032734)
(-0.00059152 0.000171031 0.000392319)
(-0.000616883 6.46887e-05 0.000325934)
(-0.000558615 2.93778e-05 0.000143527)
(-0.000471053 9.14589e-05 -6.24606e-05)
(-0.000387561 0.000177416 -0.000199864)
(-0.0003156 0.000218656 -0.000257805)
(-0.000257255 0.000207298 -0.000264025)
(-0.000213205 0.00016584 -0.000242102)
(-0.00018236 0.000116275 -0.000205011)
(-0.000160065 6.99187e-05 -0.000161514)
(-0.000138718 2.99825e-05 -0.000118646)
(-0.000110275 -4.56008e-06 -8.06436e-05)
(-6.82188e-05 -3.79715e-05 -4.75003e-05)
(-7.57069e-06 -7.78574e-05 -1.40126e-05)
(7.67207e-05 -0.000131965 3.07589e-05)
(0.000189949 -0.000198218 0.000101663)
(0.000331185 -0.000252279 0.000207398)
(0.000480031 -0.000250921 0.00032734)
(0.00059152 -0.000171031 0.000392319)
(0.000616883 -6.46887e-05 0.000325934)
(0.000470981 -0.000154098 9.31055e-05)
(0.000487289 -0.00018273 6.66956e-06)
(0.000487972 -0.000183094 -6.2212e-05)
(0.000467687 -0.000140734 -0.000110331)
(0.000425838 -7.22924e-05 -0.000144688)
(0.000369836 -1.14314e-06 -0.000166135)
(0.000309715 5.86158e-05 -0.000172678)
(0.000251314 0.000103742 -0.000164555)
(0.000194302 0.000136548 -0.000144332)
(0.000134503 0.000160149 -0.000114829)
(6.74845e-05 0.000176692 -7.78282e-05)
(-8.70078e-06 0.000187736 -3.39383e-05)
(-9.26498e-05 0.000194699 1.69445e-05)
(-0.000180488 0.000197588 7.43328e-05)
(-0.000266911 0.000192893 0.000133712)
(-0.000344862 0.000175762 0.000181655)
(-0.000405711 0.000150305 0.000196857)
(-0.000445434 0.000138535 0.000165648)
(-0.000470981 0.000154098 9.31055e-05)
(-0.000487289 0.00018273 6.66956e-06)
(-0.000487972 0.000183094 -6.2212e-05)
(-0.000467687 0.000140734 -0.000110331)
(-0.000425838 7.22924e-05 -0.000144688)
(-0.000369836 1.14315e-06 -0.000166135)
(-0.000309715 -5.86158e-05 -0.000172678)
(-0.000251314 -0.000103742 -0.000164555)
(-0.000194302 -0.000136548 -0.000144332)
(-0.000134503 -0.000160149 -0.000114829)
(-6.74845e-05 -0.000176692 -7.78282e-05)
(8.70078e-06 -0.000187736 -3.39383e-05)
(9.26498e-05 -0.000194699 1.69445e-05)
(0.000180488 -0.000197588 7.43328e-05)
(0.000266911 -0.000192893 0.000133712)
(0.000344862 -0.000175762 0.000181655)
(0.000405711 -0.000150305 0.000196857)
(0.000445434 -0.000138535 0.000165648)
(0.000329903 -0.000220257 3.15272e-05)
(0.000414338 -0.000239518 1.97213e-05)
(0.000486512 -0.000189624 6.67404e-07)
(0.000528606 -9.09887e-05 -3.63723e-05)
(0.000530334 2.27708e-05 -8.79333e-05)
(0.000494825 0.00012626 -0.00013909)
(0.000433609 0.000207356 -0.000175243)
(0.000358115 0.00026338 -0.000188451)
(0.000275518 0.000295487 -0.000176976)
(0.000189405 0.000304869 -0.000142974)
(0.000102547 0.000291668 -9.15194e-05)
(1.9336e-05 0.000256318 -3.08699e-05)
(-5.37772e-05 0.000202516 2.77057e-05)
(-0.000110558 0.000140322 7.19651e-05)
(-0.00014895 8.71371e-05 9.25202e-05)
(-0.000174542 6.458e-05 8.75771e-05)
(-0.000202208 8.90646e-05 6.70994e-05)
(-0.000252477 0.000154487 4.68521e-05)
(-0.000329903 0.000220257 3.15272e-05)
(-0.000414338 0.000239518 1.97213e-05)
(-0.000486512 0.000189624 6.67404e-07)
(-0.000528606 9.09887e-05 -3.63723e-05)
(-0.000530334 -2.27708e-05 -8.79333e-05)
(-0.000494825 -0.00012626 -0.00013909)
(-0.000433609 -0.000207356 -0.000175243)
(-0.000358115 -0.00026338 -0.000188451)
(-0.000275518 -0.000295487 -0.000176976)
(-0.000189405 -0.000304869 -0.000142974)
(-0.000102547 -0.000291668 -9.15194e-05)
(-1.9336e-05 -0.000256318 -3.08699e-05)
(5.37772e-05 -0.000202516 2.77057e-05)
(0.000110558 -0.000140322 7.19651e-05)
(0.00014895 -8.71371e-05 9.25202e-05)
(0.000174542 -6.458e-05 8.75771e-05)
(0.000202208 -8.90646e-05 6.70994e-05)
(0.000252477 -0.000154487 4.68521e-05)
(0.00147406 -0.000364698 0.0004793)
(0.00137771 -0.000523075 -8.30309e-05)
(0.00124663 -0.000619271 -0.000507381)
(0.00109714 -0.000561396 -0.000750562)
(0.000934511 -0.000393459 -0.000848462)
(0.000770602 -0.000198587 -0.000842708)
(0.000621921 -3.18624e-05 -0.000769365)
(0.000494411 8.974e-05 -0.000661269)
(0.000379158 0.000170547 -0.00054441)
(0.000258884 0.000221864 -0.000432508)
(0.000116418 0.000257972 -0.000323954)
(-6.06675e-05 0.000297753 -0.000201499)
(-0.000280538 0.000362227 -3.50675e-05)
(-0.000548326 0.000458508 0.000208107)
(-0.000857836 0.000553904 0.000536864)
(-0.00117067 0.000574158 0.000888508)
(-0.00140999 0.000473422 0.00109317)
(-0.00150802 0.00034248 0.000950095)
(-0.00147406 0.000364698 0.0004793)
(-0.00137771 0.000523075 -8.30309e-05)
(-0.00124663 0.000619271 -0.000507381)
(-0.00109714 0.000561396 -0.000750562)
(-0.000934511 0.000393459 -0.000848462)
(-0.000770602 0.000198587 -0.000842708)
(-0.000621921 3.18624e-05 -0.000769365)
(-0.000494411 -8.974e-05 -0.000661269)
(-0.000379158 -0.000170547 -0.00054441)
(-0.000258884 -0.000221864 -0.000432508)
(-0.000116418 -0.000257972 -0.000323954)
(6.06675e-05 -0.000297753 -0.000201499)
(0.000280538 -0.000362227 -3.50675e-05)
(0.000548326 -0.000458508 0.000208107)
(0.000857836 -0.000553904 0.000536864)
(0.00117067 -0.000574158 0.000888508)
(0.00140999 -0.000473422 0.00109317)
(0.00150802 -0.00034248 0.000950095)
(0.00132529 -0.000559201 0.000443339)
(0.00137001 -0.000640867 0.000135582)
(0.00137196 -0.000610913 -0.000129495)
(0.00131808 -0.000460711 -0.000335726)
(0.00120583 -0.000246363 -0.000481377)
(0.00105508 -3.15415e-05 -0.000562686)
(0.000890931 0.000148303 -0.000582156)
(0.000726783 0.000284895 -0.00055052)
(0.000561129 0.0003824 -0.000480501)
(0.000383985 0.000446604 -0.000380597)
(0.000185735 0.00048193 -0.000253074)
(-3.61927e-05 0.000493806 -9.56916e-05)
(-0.000275411 0.000491423 9.44898e-05)
(-0.00051954 0.000485215 0.00031529)
(-0.000754027 0.000478482 0.000549128)
(-0.000962663 0.00046534 0.000747836)
(-0.00112966 0.000450213 0.000827204)
(-0.00124682 0.00047422 0.000712006)
(-0.00132529 0.000559201 0.000443339)
(-0.00137001 0.000640867 0.000135582)
(-0.00137196 0.000610913 -0.000129495)
(-0.00131808 0.000460711 -0.000335726)
(-0.00120583 0.000246363 -0.000481377)
(-0.00105508 3.15415e-05 -0.000562686)
(-0.000890931 -0.000148303 -0.000582156)
(-0.000726783 -0.000284895 -0.00055052)
(-0.000561129 -0.0003824 -0.000480501)
(-0.000383985 -0.000446604 -0.000380597)
(-0.000185735 -0.00048193 -0.000253074)
(3.61927e-05 -0.000493806 -9.56917e-05)
(0.000275411 -0.000491423 9.44898e-05)
(0.00051954 -0.000485215 0.00031529)
(0.000754027 -0.000478482 0.000549128)
(0.000962663 -0.00046534 0.000747836)
(0.00112966 -0.000450213 0.000827204)
(0.00124682 -0.00047422 0.000712006)
(0.00104975 -0.000689351 0.000367922)
(0.00121628 -0.000729592 0.000269257)
(0.00135225 -0.000618769 0.00014843)
(0.00141151 -0.000404593 -1.43406e-05)
(0.00138174 -0.000153685 -0.000191883)
(0.00128078 8.52558e-05 -0.000342547)
(0.00113325 0.00028951 -0.000437312)
(0.000955582 0.000452272 -0.000464854)
(0.000754063 0.000571536 -0.000424694)
(0.000529734 0.000644284 -0.000320927)
(0.00028521 0.000665656 -0.000161351)
(3.0696e-05 0.000632416 3.91827e-05)
(-0.000213899 0.000550188 0.000255307)
(-0.000424159 0.000441521 0.000452074)
(-0.000583568 0.000347699 0.000592087)
(-0.000695787 0.000317202 0.000645757)
(-0.00078698 0.000382185 0.000602973)
(-0.000895531 0.000536773 0.000490828)
(-0.00104975 0.000689351 0.000367922)
(-0.00121628 0.000729592 0.000269257)
(-0.00135225 0.000618769 0.00014843)
(-0.00141151 0.000404593 -1.43406e-05)
(-0.00138174 0.000153685 -0.000191883)
(-0.00128078 -8.52558e-05 -0.000342547)
(-0.00113325 -0.00028951 -0.000437312)
(-0.000955582 -0.000452272 -0.000464854)
(-0.000754063 -0.000571536 -0.000424694)
(-0.000529734 -0.000644284 -0.000320927)
(-0.00028521 -0.000665656 -0.000161351)
(-3.0696e-05 -0.000632416 3.91827e-05)
(0.000213899 -0.000550188 0.000255307)
(0.000424159 -0.000441521 0.000452074)
(0.000583568 -0.000347699 0.000592087)
(0.000695787 -0.000317202 0.000645757)
(0.00078698 -0.000382185 0.000602973)
(0.000895531 -0.000536773 0.000490828)
(0.00224529 -0.00098151 0.00104524)
(0.00214973 -0.00114375 0.000110592)
(0.00197409 -0.00114377 -0.000668468)
(0.00175474 -0.000943388 -0.00117798)
(0.00150517 -0.000621227 -0.00143277)
(0.00124429 -0.000288146 -0.00149139)
(0.000996413 -1.39225e-05 -0.00142057)
(0.000773795 0.000181837 -0.00127986)
(0.000568948 0.000308068 -0.00111182)
(0.000360603 0.000383683 -0.000935367)
(0.000125098 0.000431065 -0.000742651)
(-0.000154682 0.000477394 -0.000500642)
(-0.000487076 0.000552995 -0.000160229)
(-0.000873518 0.000674263 0.000321063)
(-0.00130252 0.000813843 0.000935899)
(-0.0017296 0.000898108 0.00156692)
(-0.00206967 0.00088366 0.00195204)
(-0.00223792 0.00086954 0.00178839)
(-0.00224529 0.00098151 0.00104524)
(-0.00214973 0.00114375 0.000110592)
(-0.00197409 0.00114377 -0.000668468)
(-0.00175474 0.000943388 -0.00117798)
(-0.00150517 0.000621227 -0.00143277)
(-0.00124429 0.000288146 -0.00149139)
(-0.000996413 1.39226e-05 -0.00142057)
(-0.000773795 -0.000181837 -0.00127986)
(-0.000568948 -0.000308068 -0.00111182)
(-0.000360603 -0.000383683 -0.000935367)
(-0.000125098 -0.000431065 -0.000742651)
(0.000154682 -0.000477394 -0.000500642)
(0.000487076 -0.000552995 -0.000160229)
(0.000873518 -0.000674263 0.000321063)
(0.00130252 -0.000813843 0.000935899)
(0.0017296 -0.000898108 0.00156692)
(0.00206967 -0.00088366 0.00195204)
(0.00223792 -0.00086954 0.00178839)
(0.00205138 -0.00105584 0.00103709)
(0.00211658 -0.00113121 0.00046472)
(0.00210303 -0.00104064 -7.3493e-05)
(0.00200453 -0.000793989 -0.000498835)
(0.00182952 -0.000465427 -0.000789628)
(0.00160652 -0.000136585 -0.000947112)
(0.00136444 0.000146037 -0.000989705)
(0.00111704 0.000368405 -0.000944109)
(0.000861576 0.000532276 -0.000833067)
(0.000585947 0.000643458 -0.0006674)
(0.000278575 0.000708157 -0.000444968)
(-6.30224e-05 0.000735283 -0.000156004)
(-0.000428823 0.000739762 0.000206506)
(-0.000799546 0.000740013 0.000632771)
(-0.00115257 0.000748434 0.00107974)
(-0.00146536 0.000768492 0.00145694)
(-0.00172043 0.000812228 0.0016321)
(-0.00191378 0.000910437 0.00148472)
(-0.00205138 0.00105584 0.00103709)
(-0.00211658 0.00113121 0.00046472)
(-0.00210303 0.00104064 -7.3493e-05)
(-0.00200453 0.000793989 -0.000498835)
(-0.00182952 0.000465427 -0.000789628)
(-0.00160652 0.000136585 -0.000947112)
(-0.00136444 -0.000146037 -0.000989705)
(-0.00111704 -0.000368405 -0.000944109)
(-0.000861576 -0.000532276 -0.000833067)
(-0.000585947 -0.000643458 -0.0006674)
(-0.000278575 -0.000708157 -0.000444968)
(6.30224e-05 -0.000735283 -0.000156004)
(0.000428823 -0.000739762 0.000206506)
(0.000799546 -0.000740013 0.000632771)
(0.00115257 -0.000748434 0.00107974)
(0.00146536 -0.000768492 0.00145694)
(0.00172043 -0.000812228 0.0016321)
(0.00191378 -0.000910437 0.00148472)
(0.00167154 -0.00108968 0.000942947)
(0.00188937 -0.00112982 0.000697751)
(0.00204836 -0.000991591 0.000406175)
(0.00209599 -0.000718284 8.34385e-05)
(0.00203144 -0.000386198 -0.000222667)
(0.00188289 -5.52622e-05 -0.00046013)
(0.00167743 0.000244365 -0.000598906)
(0.00142883 0.000499375 -0.000631617)
(0.00114053 0.000700968 -0.000560914)
(0.000812562 0.000840324 -0.00039061)
(0.000448564 0.000908867 -0.000126314)
(6.20475e-05 0.000902045 0.000216201)
(-0.000320328 0.000827551 0.000600773)
(-0.000663839 0.000715867 0.000967847)
(-0.000941628 0.000622621 0.00124671)
(-0.00115166 0.000609165 0.00138051)
(-0.0013183 0.000704676 0.00134766)
(-0.0014762 0.000896442 0.00117116)
(-0.00167154 0.00108968 0.000942947)
(-0.00188937 0.00112982 0.000697751)
(-0.00204836 0.000991591 0.000406175)
(-0.00209599 0.000718284 8.34385e-05)
(-0.00203144 0.000386198 -0.000222667)
(-0.00188289 5.52622e-05 -0.00046013)
(-0.00167743 -0.000244365 -0.000598906)
(-0.00142883 -0.000499375 -0.000631617)
(-0.00114053 -0.000700968 -0.000560914)
(-0.000812562 -0.000840324 -0.00039061)
(-0.000448564 -0.000908867 -0.000126314)
(-6.20475e-05 -0.000902045 0.000216201)
(0.000320328 -0.000827551 0.000600773)
(0.000663839 -0.000715867 0.000967847)
(0.000941628 -0.000622621 0.00124671)
(0.00115166 -0.000609165 0.00138051)
(0.0013183 -0.000704676 0.00134766)
(0.0014762 -0.000896442 0.00117116)
(0.00283159 -0.00174668 0.00170985)
(0.00272254 -0.00181289 0.000528752)
(0.00249682 -0.00168751 -0.000557235)
(0.00221101 -0.00137334 -0.00133355)
(0.00189992 -0.000949898 -0.00176081)
(0.00158311 -0.000523182 -0.00190997)
(0.00127595 -0.000164227 -0.00187951)
(0.000986906 0.000103164 -0.00174992)
(0.000710122 0.000285794 -0.00157144)
(0.000426404 0.000403848 -0.00136173)
(0.000112589 0.000482941 -0.00110481)
(-0.000248256 0.000553772 -0.000754444)
(-0.000662762 0.000650157 -0.000249854)
(-0.0011285 0.000794189 0.000447992)
(-0.00162964 0.000973795 0.00130062)
(-0.00212221 0.00114932 0.00214073)
(-0.00253031 0.0013164 0.00267021)
(-0.00277307 0.00153789 0.00255922)
(-0.00283159 0.00174668 0.00170985)
(-0.00272254 0.00181289 0.000528752)
(-0.00249682 0.00168751 -0.000557235)
(-0.00221101 0.00137334 -0.00133355)
(-0.00189992 0.000949898 -0.00176081)
(-0.00158311 0.000523182 -0.00190997)
(-0.00127595 0.000164227 -0.00187951)
(-0.000986906 -0.000103164 -0.00174992)
(-0.000710122 -0.000285794 -0.00157144)
(-0.000426404 -0.000403848 -0.00136173)
(-0.000112589 -0.000482941 -0.00110481)
(0.000248256 -0.000553772 -0.000754444)
(0.000662762 -0.000650157 -0.000249854)
(0.0011285 -0.000794189 0.000447992)
(0.00162964 -0.000973795 0.00130062)
(0.00212221 -0.00114932 0.00214073)
(0.00253031 -0.0013164 0.00267021)
(0.00277307 -0.00153789 0.00255922)
(0.00261762 -0.00157111 0.00169719)
(0.00266606 -0.0016128 0.000926653)
(0.00260462 -0.00146052 0.00015537)
(0.00244954 -0.00114888 -0.000474339)
(0.00222421 -0.000753445 -0.000907127)
(0.00195746 -0.000353655 -0.00114656)
(0.00167049 1.59899e-06 -0.00122738)
(0.00137105 0.00029292 -0.00118954)
(0.00105506 0.000517423 -0.0010617)
(0.000711483 0.000679259 -0.000854013)
(0.000329686 0.000785881 -0.000558844)
(-9.29516e-05 0.000848973 -0.000159516)
(-0.000546905 0.000886411 0.000352608)
(-0.00101182 0.000919804 0.00095556)
(-0.00146075 0.000967546 0.00157703)
(-0.00186427 0.00104463 0.00209153)
(-0.00219853 0.00117401 0.00234897)
(-0.0024548 0.00137427 0.00222677)
(-0.00261762 0.00157111 0.00169719)
(-0.00266606 0.0016128 0.000926653)
(-0.00260462 0.00146052 0.00015537)
(-0.00244954 0.00114888 -0.000474339)
(-0.00222421 0.000753445 -0.000907127)
(-0.00195746 0.000353655 -0.00114656)
(-0.00167049 -1.59896e-06 -0.00122738)
(-0.00137105 -0.00029292 -0.00118954)
(-0.00105506 -0.000517423 -0.0010617)
(-0.000711483 -0.000679259 -0.000854014)
(-0.000329686 -0.000785881 -0.000558844)
(9.29516e-05 -0.000848973 -0.000159516)
(0.000546905 -0.000886411 0.000352608)
(0.00101182 -0.000919804 0.00095556)
(0.00146075 -0.000967546 0.00157703)
(0.00186427 -0.00104463 0.00209153)
(0.00219853 -0.00117401 0.00234897)
(0.0024548 -0.00137427 0.00222677)
(0.00225967 -0.00143183 0.00158626)
(0.00243329 -0.00146546 0.00120421)
(0.00253784 -0.00130984 0.000758721)
(0.00253504 -0.0010088 0.000296467)
(0.00242791 -0.000636522 -0.000120292)
(0.00224261 -0.000253905 -0.000432072)
(0.0020007 0.000105847 -0.000608946)
(0.00170988 0.000424937 -0.000648136)
(0.00137009 0.000689509 -0.000555944)
(0.000980878 0.000887269 -0.000336183)
(0.000545955 0.00100903 8.19198e-06)
(7.73188e-05 0.00105163 0.000462195)
(-0.000401048 0.00102448 0.000981669)
(-0.000854983 0.000959604 0.00148604)
(-0.00125287 0.000913164 0.00187611)
(-0.00158147 0.000942772 0.00207432)
(-0.00184816 0.00106918 0.00206054)
(-0.00206952 0.00125895 0.00187643)
(-0.00225967 0.00143183 0.00158626)
(-0.00243329 0.00146546 0.00120421)
(-0.00253784 0.00130984 0.000758721)
(-0.00253504 0.0010088 0.000296467)
(-0.00242791 0.000636522 -0.000120292)
(-0.00224261 0.000253905 -0.000432072)
(-0.0020007 -0.000105847 -0.000608946)
(-0.00170988 -0.000424937 -0.000648136)
(-0.00137009 -0.000689509 -0.000555944)
(-0.000980878 -0.000887269 -0.000336183)
(-0.000545955 -0.00100903 8.19196e-06)
(-7.73188e-05 -0.00105163 0.000462195)
(0.000401048 -0.00102448 0.000981669)
(0.000854983 -0.000959604 0.00148604)
(0.00125287 -0.000913164 0.00187611)
(0.00158147 -0.000942772 0.00207432)
(0.00184816 -0.00106918 0.00206054)
(0.00206952 -0.00125895 0.00187643)
(0.00320942 -0.00221587 0.00231673)
(0.00309612 -0.00228016 0.00110399)
(0.00281713 -0.00212207 -0.000156845)
(0.00246653 -0.00178082 -0.00112918)
(0.00211109 -0.00133408 -0.00170315)
(0.0017703 -0.000872928 -0.00194634)
(0.00144111 -0.000465452 -0.00197705)
(0.00111946 -0.000142041 -0.00188726)
(0.000798295 9.67179e-05 -0.00172853)
(0.000463184 0.000266768 -0.00151577)
(9.63207e-05 0.000392709 -0.0012291)
(-0.000316106 0.000505887 -0.00081739)
(-0.00078023 0.000640641 -0.000216323)
(-0.0012932 0.000821001 0.000605734)
(-0.00183672 0.00104812 0.00158242)
(-0.00236662 0.0013122 0.00251042)
(-0.00281275 0.00161848 0.00308954)
(-0.00310694 0.00195441 0.00305192)
(-0.00320942 0.00221587 0.00231673)
(-0.00309612 0.00228016 0.00110399)
(-0.00281713 0.00212207 -0.000156845)
(-0.00246653 0.00178082 -0.00112918)
(-0.00211109 0.00133408 -0.00170315)
(-0.0017703 0.000872928 -0.00194634)
(-0.00144111 0.000465453 -0.00197705)
(-0.00111946 0.000142041 -0.00188726)
(-0.000798295 -9.67179e-05 -0.00172853)
(-0.000463184 -0.000266768 -0.00151577)
(-9.63207e-05 -0.000392709 -0.0012291)
(0.000316106 -0.000505887 -0.00081739)
(0.00078023 -0.000640641 -0.000216323)
(0.0012932 -0.000821001 0.000605734)
(0.00183672 -0.00104812 0.00158242)
(0.00236662 -0.0013122 0.00251042)
(0.00281275 -0.00161848 0.00308954)
(0.00310694 -0.00195441 0.00305192)
(0.00298199 -0.00189894 0.00223818)
(0.0029931 -0.00193426 0.00144067)
(0.00287525 -0.00177759 0.000555961)
(0.00266436 -0.00146279 -0.000210764)
(0.00240154 -0.0010584 -0.000754744)
(0.00211281 -0.000635865 -0.0010697)
(0.00180697 -0.00024459 -0.00119737)
(0.00148304 9.05152e-05 -0.00118418)
(0.00113519 0.00036116 -0.00106097)
(0.000754914 0.00056895 -0.000837278)
(0.000334168 0.000722087 -0.000503422)
(-0.000130182 0.000834617 -4.06869e-05)
(-0.000632698 0.000925631 0.000558159)
(-0.0011571 0.00101573 0.00126128)
(-0.00167537 0.00112395 0.001977)
(-0.00215079 0.00127055 0.00255994)
(-0.00254615 0.00147415 0.00285194)
(-0.00283103 0.00171388 0.0027446)
(-0.00298199 0.00189894 0.00223818)
(-0.0029931 0.00193426 0.00144067)
(-0.00287525 0.00177759 0.000555961)
(-0.00266436 0.00146279 -0.000210764)
(-0.00240154 0.0010584 -0.000754744)
(-0.00211281 0.000635865 -0.0010697)
(-0.00180697 0.000244591 -0.00119737)
(-0.00148304 -9.05151e-05 -0.00118418)
(-0.00113519 -0.00036116 -0.00106097)
(-0.000754914 -0.00056895 -0.000837278)
(-0.000334168 -0.000722087 -0.000503422)
(0.000130182 -0.000834617 -4.06869e-05)
(0.000632698 -0.000925631 0.000558159)
(0.0011571 -0.00101573 0.00126128)
(0.00167537 -0.00112395 0.001977)
(0.00215079 -0.00127055 0.00255994)
(0.00254615 -0.00147415 0.00285194)
(0.00283103 -0.00171388 0.0027446)
(0.00270343 -0.0016719 0.00211662)
(0.00278974 -0.00167112 0.00168727)
(0.00280758 -0.001517 0.00117312)
(0.00274105 -0.00122603 0.000628372)
(0.00259143 -0.000854642 0.000134677)
(0.00237682 -0.000459189 -0.000235589)
(0.00211156 -7.52497e-05 -0.000447217)
(0.00179825 0.000275983 -0.000498238)
(0.00143451 0.000578036 -0.000397576)
(0.00101959 0.000818076 -0.000150355)
(0.000556261 0.000989104 0.00024081)
(5.18835e-05 0.00109125 0.000760352)
(-0.000477754 0.00113482 0.00135803)
(-0.00100551 0.00114713 0.00194014)
(-0.00149875 0.00117302 0.00239358)
(-0.00193074 0.00125446 0.00263382)
(-0.00228378 0.00139848 0.00263908)
(-0.00254287 0.00156141 0.00244561)
(-0.00270343 0.0016719 0.00211662)
(-0.00278974 0.00167112 0.00168727)
(-0.00280758 0.001517 0.00117312)
(-0.00274105 0.00122603 0.000628372)
(-0.00259143 0.000854642 0.000134677)
(-0.00237682 0.000459189 -0.000235589)
(-0.00211156 7.52497e-05 -0.000447217)
(-0.00179825 -0.000275983 -0.000498238)
(-0.00143451 -0.000578036 -0.000397576)
(-0.00101959 -0.000818076 -0.000150355)
(-0.000556261 -0.000989104 0.00024081)
(-5.18835e-05 -0.00109125 0.000760352)
(0.000477754 -0.00113481 0.00135803)
(0.00100551 -0.00114713 0.00194014)
(0.00149875 -0.00117302 0.00239358)
(0.00193074 -0.00125446 0.00263382)
(0.00228378 -0.00139848 0.00263908)
(0.00254287 -0.00156141 0.00244561)
(0.00334092 -0.00237341 0.0027138)
(0.00322755 -0.00247624 0.00163554)
(0.00292785 -0.00236568 0.000403531)
(0.00254055 -0.00207797 -0.00063196)
(0.00215794 -0.0016778 -0.0012961)
(0.00180956 -0.0012391 -0.00161919)
(0.00148074 -0.000825235 -0.00171335)
(0.00115355 -0.000473395 -0.00167118)
(0.000816672 -0.00019387 -0.00154332)
(0.000459694 2.18297e-05 -0.0013448)
(7.11503e-05 0.000194551 -0.00105888)
(-0.000359607 0.000354531 -0.000639019)
(-0.000840506 0.00053497 -2.54046e-05)
(-0.0013712 0.000758486 0.000806504)
(-0.00193104 0.00103065 0.00177965)
(-0.00247166 0.00135142 0.00269158)
(-0.00292619 0.00171699 0.00327509)
(-0.00323213 0.00208781 0.00330762)
(-0.00334092 0.00237341 0.0027138)
(-0.00322755 0.00247624 0.00163554)
(-0.00292785 0.00236568 0.000403531)
(-0.00254055 0.00207797 -0.00063196)
(-0.00215794 0.0016778 -0.0012961)
(-0.00180956 0.0012391 -0.00161919)
(-0.00148074 0.000825235 -0.00171335)
(-0.00115355 0.000473395 -0.00167118)
(-0.000816672 0.00019387 -0.00154332)
(-0.000459694 -2.18296e-05 -0.0013448)
(-7.11503e-05 -0.000194551 -0.00105888)
(0.000359607 -0.000354531 -0.000639019)
(0.000840506 -0.00053497 -2.54046e-05)
(0.0013712 -0.000758486 0.000806504)
(0.00193104 -0.00103065 0.00177965)
(0.00247166 -0.00135142 0.00269158)
(0.00292619 -0.00171699 0.00327509)
(0.00323213 -0.00208781 0.00330762)
(0.00313342 -0.00202143 0.00265011)
(0.0031063 -0.0020643 0.00191232)
(0.00294345 -0.00194307 0.00104438)
(0.00269268 -0.00167566 0.000242897)
(0.00240514 -0.00131243 -0.000358971)
(0.00210678 -0.000911892 -0.000729745)
(0.00179781 -0.000521572 -0.000901586)
(0.0014694 -0.000171049 -0.000918788)
(0.00111333 0.000125829 -0.000811986)
(0.00072314 0.000367246 -0.000591941)
(0.000293414 0.000560977 -0.00025189)
(-0.000179623 0.000722291 0.000222779)
(-0.00069552 0.000869973 0.000834628)
(-0.00124334 0.00102066 0.00154662)
(-0.00179431 0.00118762 0.00226366)
(-0.00230257 0.00138435 0.00284558)
(-0.00271815 0.00161536 0.00315177)
(-0.00300265 0.00184959 0.00309036)
(-0.00313342 0.00202143 0.00265011)
(-0.0031063 0.0020643 0.00191232)
(-0.00294345 0.00194307 0.00104438)
(-0.00269268 0.00167566 0.000242897)
(-0.00240514 0.00131243 -0.000358971)
(-0.00210678 0.000911892 -0.000729745)
(-0.00179781 0.000521572 -0.000901586)
(-0.0014694 0.000171049 -0.000918788)
(-0.00111333 -0.000125829 -0.000811986)
(-0.00072314 -0.000367246 -0.000591941)
(-0.000293414 -0.000560977 -0.00025189)
(0.000179623 -0.000722291 0.000222779)
(0.00069552 -0.000869973 0.000834628)
(0.00124334 -0.00102066 0.00154662)
(0.00179431 -0.00118762 0.00226366)
(0.00230257 -0.00138435 0.00284558)
(0.00271815 -0.00161536 0.00315177)
(0.00300265 -0.00184959 0.00309036)
(0.00292805 -0.00177387 0.00256062)
(0.00295048 -0.00174458 0.00212837)
(0.00289239 -0.00160166 0.0016071)
(0.00276573 -0.00134573 0.00104527)
(0.00257754 -0.00100912 0.00052205)
(0.00233953 -0.000635637 0.000118474)
(0.00205991 -0.000259628 -0.000119683)
(0.00173771 9.55388e-05 -0.000185694)
(0.00136892 0.000411927 -8.8659e-05)
(0.000952255 0.000677283 0.000164312)
(0.000488918 0.000887311 0.000568185)
(-1.84144e-05 0.00104507 0.00110402)
(-0.000561625 0.00116003 0.00171647)
(-0.00112049 0.00125077 0.00230786)
(-0.00166224 0.00134432 0.00276761)
(-0.00214731 0.00146153 0.00301913)
(-0.00253583 0.00159653 0.00304544)
(-0.00279751 0.00171422 0.00287736)
(-0.00292805 0.00177387 0.00256062)
(-0.00295048 0.00174458 0.00212837)
(-0.00289239 0.00160166 0.0016071)
(-0.00276573 0.00134573 0.00104527)
(-0.00257754 0.00100912 0.00052205)
(-0.00233953 0.000635637 0.000118474)
(-0.00205991 0.000259628 -0.000119683)
(-0.00173771 -9.55388e-05 -0.000185694)
(-0.00136892 -0.000411927 -8.8659e-05)
(-0.000952255 -0.000677283 0.000164312)
(-0.000488918 -0.000887311 0.000568185)
(1.84144e-05 -0.00104507 0.00110402)
(0.000561625 -0.00116003 0.00171647)
(0.00112049 -0.00125077 0.00230786)
(0.00166224 -0.00134432 0.00276761)
(0.00214731 -0.00146153 0.00301913)
(0.00253583 -0.00159653 0.00304544)
(0.00279751 -0.00171422 0.00287736)
(0.00324463 -0.00229486 0.00293474)
(0.00312805 -0.00244365 0.00205353)
(0.00283531 -0.00241468 0.000984641)
(0.00244947 -0.00222267 1.56909e-05)
(0.00206279 -0.00191104 -0.00066454)
(0.0017165 -0.0015364 -0.0010375)
(0.00139816 -0.00115462 -0.00118373)
(0.00108249 -0.000806288 -0.0011845)
(0.000753427 -0.00051033 -0.00108802)
(0.00040225 -0.000266361 -0.000912198)
(2.166e-05 -5.86986e-05 -0.000647769)
(-0.000397657 0.000139774 -0.000258219)
(-0.000866144 0.000358569 0.000306551)
(-0.00138502 0.000616038 0.00106451)
(-0.00193021 0.000916173 0.00194307)
(-0.00244891 0.00125801 0.00276586)
(-0.00287625 0.00163228 0.00330836)
(-0.00315524 0.00200097 0.00338611)
(-0.00324463 0.00229486 0.00293474)
(-0.00312805 0.00244365 0.00205353)
(-0.00283531 0.00241468 0.000984641)
(-0.00244947 0.00222267 1.56909e-05)
(-0.00206279 0.00191104 -0.00066454)
(-0.0017165 0.0015364 -0.0010375)
(-0.00139816 0.00115462 -0.00118373)
(-0.00108249 0.000806288 -0.0011845)
(-0.000753427 0.00051033 -0.00108802)
(-0.00040225 0.000266361 -0.000912198)
(-2.166e-05 5.86987e-05 -0.000647769)
(0.000397657 -0.000139774 -0.000258219)
(0.000866144 -0.000358569 0.000306551)
(0.00138502 -0.000616038 0.00106451)
(0.00193021 -0.000916173 0.00194307)
(0.00244891 -0.00125801 0.00276586)
(0.00287625 -0.00163228 0.00330836)
(0.00315524 -0.00200097 0.00338611)
(0.00307746 -0.00197146 0.00293131)
(0.00302423 -0.00203277 0.00230786)
(0.00284031 -0.00196371 0.00154127)
(0.00257385 -0.00176826 0.000792968)
(0.00227669 -0.00147636 0.000193855)
(0.00197701 -0.00113056 -0.000201743)
(0.00167387 -0.000772391 -0.000404948)
(0.00135444 -0.000433232 -0.00044977)
(0.00100817 -0.00013144 -0.000364127)
(0.000629211 0.000127389 -0.00016103)
(0.000213552 0.000349153 0.000160251)
(-0.000243282 0.000548052 0.00060646)
(-0.000744003 0.000740025 0.00117373)
(-0.00128009 0.000935723 0.00182448)
(-0.00182136 0.00114054 0.00247428)
(-0.00231754 0.00135903 0.00300547)
(-0.002715 0.00158914 0.00330152)
(-0.00297471 0.00180788 0.00328235)
(-0.00307746 0.00197146 0.00293131)
(-0.00302423 0.00203277 0.00230786)
(-0.00284031 0.00196371 0.00154127)
(-0.00257385 0.00176826 0.000792968)
(-0.00227669 0.00147636 0.000193855)
(-0.00197701 0.00113056 -0.000201743)
(-0.00167387 0.000772391 -0.000404948)
(-0.00135444 0.000433232 -0.00044977)
(-0.00100817 0.000131441 -0.000364127)
(-0.000629211 -0.000127389 -0.00016103)
(-0.000213552 -0.000349153 0.000160251)
(0.000243282 -0.000548052 0.00060646)
(0.000744003 -0.000740025 0.00117373)
(0.00128009 -0.000935723 0.00182448)
(0.00182136 -0.00114054 0.00247428)
(0.00231754 -0.00135903 0.00300547)
(0.002715 -0.00158914 0.00330152)
(0.00297471 -0.00180788 0.00328235)
(0.00295229 -0.0017525 0.00289719)
(0.0029347 -0.00171139 0.00250831)
(0.00282851 -0.00158707 0.00202883)
(0.002659 -0.00137622 0.00150145)
(0.00244148 -0.00109364 0.000995405)
(0.00218707 -0.000766745 0.000590298)
(0.00190105 -0.000423223 0.000340411)
(0.00158041 -8.60428e-05 0.000260898)
(0.0012198 0.000226307 0.000345722)
(0.000816673 0.000502072 0.000586356)
(0.000370441 0.0007383 0.000973517)
(-0.000119093 0.00093852 0.00148265)
(-0.000647416 0.00110878 0.00205506)
(-0.00119744 0.00125741 0.00259845)
(-0.00173664 0.00139485 0.00301844)
(-0.00222078 0.00152608 0.00325575)
(-0.00260289 0.00164224 0.00329887)
(-0.00284879 0.00172408 0.00316922)
(-0.00295229 0.0017525 0.00289719)
(-0.0029347 0.00171139 0.00250831)
(-0.00282851 0.00158707 0.00202883)
(-0.002659 0.00137622 0.00150145)
(-0.00244148 0.00109364 0.000995405)
(-0.00218707 0.000766745 0.000590298)
(-0.00190105 0.000423223 0.000340411)
(-0.00158041 8.60428e-05 0.000260898)
(-0.0012198 -0.000226307 0.000345722)
(-0.000816673 -0.000502072 0.000586356)
(-0.000370441 -0.0007383 0.000973517)
(0.000119093 -0.00093852 0.00148265)
(0.000647416 -0.00110878 0.00205506)
(0.00119744 -0.00125741 0.00259845)
(0.00173664 -0.00139485 0.00301844)
(0.00222078 -0.00152608 0.00325575)
(0.00260289 -0.00164224 0.00329887)
(0.00284879 -0.00172408 0.00316922)
(0.00296381 -0.00207333 0.00303071)
(0.00284219 -0.00226132 0.00235477)
(0.00257182 -0.00231106 0.00150173)
(0.00221608 -0.00221946 0.000680996)
(0.00184972 -0.0020088 5.41077e-05)
(0.00151647 -0.00171917 -0.000328707)
(0.00121385 -0.00139663 -0.000506941)
(0.000918852 -0.00108023 -0.000540792)
(0.000613417 -0.000793566 -0.000473074)
(0.000288542 -0.000542663 -0.000324239)
(-6.2254e-05 -0.000317313 -9.2277e-05)
(-0.000448796 -9.56809e-05 0.000248954)