/*--------------------------------*- C++ -*----------------------------------*\
| =========                 |                                                 |
| \\      /  F ield         | OpenFOAM: The Open Source CFD Toolbox           |
|  \\    /   O peration     | Version:  2312                                  |
|   \\  /    A nd           | Website:  www.openfoam.com                      |
|    \\/     M anipulation  |                                                 |
\*---------------------------------------------------------------------------*/
FoamFile
{
    version     2.0;
    format      ascii;
    arch        "LSB;label=32;scalar=64";
    class       volVectorField;
    location    "0.4";
    object      U;
}
// * * * * * * * * * * * * * * * * * * * * * * * * * * * * * * * * * * * * * //

dimensions      [0 1 -1 0 0 0 0];

internalField   nonuniform List<vector> 
1620
(
(-0.000167377 -6.69499e-05 -0.000152783)
(-0.000153208 -9.49979e-05 -0.000152783)
(-0.000134385 -0.000120159 -0.000152783)
(-0.000111478 -0.000141668 -0.000152782)
(-8.51839e-05 -0.000158873 -0.000152782)
(-5.63017e-05 -0.000171252 -0.000152783)
(-2.57093e-05 -0.000178427 -0.000152782)
(5.66475e-06 -0.00018018 -0.000152782)
(3.68676e-05 -0.00017646 -0.000152782)
(6.69498e-05 -0.000167377 -0.000152783)
(9.49978e-05 -0.000153208 -0.000152783)
(0.000120159 -0.000134385 -0.000152783)
(0.000141668 -0.000111478 -0.000152782)
(0.000158873 -8.51838e-05 -0.000152782)
(0.000171252 -5.63016e-05 -0.000152783)
(0.000178427 -2.57092e-05 -0.000152782)
(0.00018018 5.66484e-06 -0.000152782)
(0.00017646 3.68676e-05 -0.000152782)
(0.000167377 6.69498e-05 -0.000152783)
(0.000153208 9.49979e-05 -0.000152783)
(0.000134385 0.000120159 -0.000152783)
(0.000111478 0.000141668 -0.000152782)
(8.51837e-05 0.000158873 -0.000152782)
(5.63016e-05 0.000171252 -0.000152783)
(2.57091e-05 0.000178427 -0.000152782)
(-5.66491e-06 0.00018018 -0.000152782)
(-3.68677e-05 0.00017646 -0.000152782)
(-6.69499e-05 0.000167377 -0.000152783)
(-9.4998e-05 0.000153208 -0.000152783)
(-0.000120159 0.000134385 -0.000152783)
(-0.000141668 0.000111478 -0.000152782)
(-0.000158873 8.51838e-05 -0.000152782)
(-0.000171252 5.63017e-05 -0.000152783)
(-0.000178427 2.57092e-05 -0.000152782)
(-0.00018018 -5.66481e-06 -0.000152782)
(-0.00017646 -3.68676e-05 -0.000152782)
(-6.88409e-05 7.32831e-05 -9.6565e-05)
(-8.05203e-05 6.02155e-05 -9.65651e-05)
(-8.97533e-05 4.53185e-05 -9.6565e-05)
(-9.62594e-05 2.90447e-05 -9.65647e-05)
(-9.9841e-05 1.18885e-05 -9.65649e-05)
(-0.000100389 -5.62921e-06 -9.65648e-05)
(-9.7886e-05 -2.2976e-05 -9.65647e-05)
(-9.24093e-05 -3.96245e-05 -9.65647e-05)
(-8.41242e-05 -5.50694e-05 -9.65649e-05)
(-7.32832e-05 -6.88408e-05 -9.65649e-05)
(-6.02156e-05 -8.05202e-05 -9.65651e-05)
(-4.53186e-05 -8.97532e-05 -9.6565e-05)
(-2.90448e-05 -9.62594e-05 -9.65647e-05)
(-1.18886e-05 -9.98409e-05 -9.65648e-05)
(5.6291e-06 -0.000100388 -9.65648e-05)
(2.29759e-05 -9.78859e-05 -9.65646e-05)
(3.96244e-05 -9.24093e-05 -9.65647e-05)
(5.50693e-05 -8.41242e-05 -9.65649e-05)
(6.88407e-05 -7.32831e-05 -9.65649e-05)
(8.05201e-05 -6.02155e-05 -9.65651e-05)
(8.97532e-05 -4.53185e-05 -9.6565e-05)
(9.62593e-05 -2.90447e-05 -9.65647e-05)
(9.98408e-05 -1.18885e-05 -9.65648e-05)
(0.000100388 5.62918e-06 -9.65648e-05)
(9.78859e-05 2.29759e-05 -9.65647e-05)
(9.24092e-05 3.96245e-05 -9.65647e-05)
(8.41241e-05 5.50694e-05 -9.65649e-05)
(7.32831e-05 6.88408e-05 -9.6565e-05)
(6.02154e-05 8.05202e-05 -9.65651e-05)
(4.53184e-05 8.97533e-05 -9.6565e-05)
(2.90447e-05 9.62594e-05 -9.65647e-05)
(1.18884e-05 9.98409e-05 -9.65649e-05)
(-5.62928e-06 0.000100388 -9.65648e-05)
(-2.2976e-05 9.78859e-05 -9.65647e-05)
(-3.96246e-05 9.24093e-05 -9.65647e-05)
(-5.50695e-05 8.41241e-05 -9.6565e-05)
(-1.33566e-05 0.000213535 -3.97523e-05)
(-5.02334e-05 0.000207971 -3.97523e-05)
(-8.55842e-05 0.000196089 -3.97525e-05)
(-0.000118334 0.000178249 -3.97523e-05)
(-0.00014749 0.000154992 -3.97525e-05)
(-0.000172163 0.000127026 -3.97523e-05)
(-0.000191605 9.52005e-05 -3.97525e-05)
(-0.000205226 6.04822e-05 -3.97526e-05)
(-0.00021261 2.39263e-05 -3.97523e-05)
(-0.000213535 -1.33565e-05 -3.97523e-05)
(-0.000207971 -5.02334e-05 -3.97522e-05)
(-0.000196089 -8.55842e-05 -3.97525e-05)
(-0.000178249 -0.000118334 -3.97523e-05)
(-0.000154992 -0.00014749 -3.97524e-05)
(-0.000127026 -0.000172163 -3.97522e-05)
(-9.52005e-05 -0.000191605 -3.97524e-05)
(-6.04823e-05 -0.000205226 -3.97526e-05)
(-2.39263e-05 -0.00021261 -3.97523e-05)
(1.33564e-05 -0.000213535 -3.97522e-05)
(5.02333e-05 -0.000207971 -3.97522e-05)
(8.55841e-05 -0.000196089 -3.97525e-05)
(0.000118334 -0.000178249 -3.97523e-05)
(0.00014749 -0.000154992 -3.97524e-05)
(0.000172163 -0.000127026 -3.97522e-05)
(0.000191605 -9.52005e-05 -3.97525e-05)
(0.000205226 -6.04822e-05 -3.97526e-05)
(0.00021261 -2.39263e-05 -3.97524e-05)
(0.000213535 1.33565e-05 -3.97523e-05)
(0.000207971 5.02333e-05 -3.97523e-05)
(0.000196089 8.55842e-05 -3.97525e-05)
(0.000178249 0.000118334 -3.97523e-05)
(0.000154992 0.00014749 -3.97525e-05)
(0.000127026 0.000172163 -3.97523e-05)
(9.52004e-05 0.000191605 -3.97525e-05)
(6.04821e-05 0.000205226 -3.97526e-05)
(2.39262e-05 0.00021261 -3.97524e-05)
(-0.000285245 -0.000156226 -0.000506012)
(-0.000253783 -0.000203385 -0.000506013)
(-0.000214611 -0.000244364 -0.000506012)
(-0.000168918 -0.000277917 -0.00050601)
(-0.000118092 -0.000303025 -0.000506009)
(-6.36773e-05 -0.000318928 -0.00050601)
(-7.32873e-06 -0.00032514 -0.00050601)
(4.92429e-05 -0.000321473 -0.00050601)
(0.00010432 -0.000308039 -0.000506011)
(0.000156226 -0.000285244 -0.000506012)
(0.000203385 -0.000253782 -0.000506013)
(0.000244364 -0.00021461 -0.000506012)
(0.000277917 -0.000168917 -0.00050601)
(0.000303025 -0.000118091 -0.000506009)
(0.000318927 -6.3677e-05 -0.00050601)
(0.00032514 -7.32847e-06 -0.00050601)
(0.000321473 4.92432e-05 -0.00050601)
(0.000308038 0.00010432 -0.000506011)
(0.000285244 0.000156226 -0.000506011)
(0.000253782 0.000203385 -0.000506013)
(0.00021461 0.000244364 -0.000506012)
(0.000168917 0.000277917 -0.00050601)
(0.000118091 0.000303025 -0.000506009)
(6.36767e-05 0.000318928 -0.00050601)
(7.32823e-06 0.00032514 -0.00050601)
(-4.92434e-05 0.000321473 -0.00050601)
(-0.00010432 0.000308039 -0.000506011)
(-0.000156226 0.000285244 -0.000506012)
(-0.000203386 0.000253782 -0.000506013)
(-0.000244365 0.00021461 -0.000506012)
(-0.000277917 0.000168917 -0.00050601)
(-0.000303025 0.000118091 -0.000506009)
(-0.000318928 6.36771e-05 -0.00050601)
(-0.00032514 7.32853e-06 -0.00050601)
(-0.000321473 -4.92432e-05 -0.000506011)
(-0.000308039 -0.00010432 -0.000506011)
(-0.000217889 0.00022123 -0.000340208)
(-0.000252995 0.000180032 -0.000340208)
(-0.000280413 0.000133365 -0.000340208)
(-0.000299312 8.26467e-05 -0.000340207)
(-0.000309117 2.9417e-05 -0.000340207)
(-0.000309529 -2.47079e-05 -0.000340207)
(-0.000300536 -7.80819e-05 -0.000340207)
(-0.000282411 -0.000129083 -0.000340207)
(-0.000255705 -0.000176162 -0.000340207)
(-0.00022123 -0.000217889 -0.000340207)
(-0.000180032 -0.000252994 -0.000340208)
(-0.000133365 -0.000280413 -0.000340208)
(-8.2647e-05 -0.000299312 -0.000340207)
(-2.94173e-05 -0.000309117 -0.000340207)
(2.47076e-05 -0.000309529 -0.000340207)
(7.80816e-05 -0.000300536 -0.000340207)
(0.000129083 -0.000282411 -0.000340207)
(0.000176162 -0.000255705 -0.000340207)
(0.000217889 -0.00022123 -0.000340207)
(0.000252994 -0.000180032 -0.000340208)
(0.000280413 -0.000133365 -0.000340208)
(0.000299312 -8.26468e-05 -0.000340207)
(0.000309117 -2.94171e-05 -0.000340207)
(0.000309528 2.47078e-05 -0.000340207)
(0.000300535 7.80818e-05 -0.000340207)
(0.000282411 0.000129083 -0.000340207)
(0.000255705 0.000176162 -0.000340207)
(0.00022123 0.000217889 -0.000340208)
(0.000180032 0.000252994 -0.000340208)
(0.000133365 0.000280413 -0.000340208)
(8.26465e-05 0.000299312 -0.000340207)
(2.94168e-05 0.000309117 -0.000340207)
(-2.47081e-05 0.000309529 -0.000340207)
(-7.80821e-05 0.000300536 -0.000340207)
(-0.000129083 0.000282411 -0.000340207)
(-0.000176163 0.000255705 -0.000340207)
(-0.000206495 0.000593654 -0.000177425)
(-0.000306444 0.000548777 -0.000177425)
(-0.000397082 0.000487226 -0.000177425)
(-0.000475655 0.000410872 -0.000177425)
(-0.000539776 0.000322033 -0.000177425)
(-0.000587497 0.00022341 -0.000177425)
(-0.000617367 0.000117997 -0.000177425)
(-0.000628478 9.00008e-06 -0.000177425)
(-0.000620493 -0.000100271 -0.000177425)
(-0.000593654 -0.000206495 -0.000177425)
(-0.000548777 -0.000306444 -0.000177425)
(-0.000487227 -0.000397082 -0.000177425)
(-0.000410872 -0.000475655 -0.000177425)
(-0.000322034 -0.000539776 -0.000177425)
(-0.00022341 -0.000587497 -0.000177425)
(-0.000117997 -0.000617366 -0.000177425)
(-9.00037e-06 -0.000628478 -0.000177425)
(0.000100271 -0.000620492 -0.000177425)
(0.000206495 -0.000593654 -0.000177425)
(0.000306444 -0.000548777 -0.000177425)
(0.000397082 -0.000487227 -0.000177425)
(0.000475655 -0.000410872 -0.000177425)
(0.000539776 -0.000322034 -0.000177425)
(0.000587497 -0.00022341 -0.000177425)
(0.000617366 -0.000117997 -0.000177425)
(0.000628478 -9.00014e-06 -0.000177425)
(0.000620492 0.000100271 -0.000177425)
(0.000593653 0.000206495 -0.000177425)
(0.000548777 0.000306444 -0.000177425)
(0.000487226 0.000397082 -0.000177425)
(0.000410872 0.000475655 -0.000177425)
(0.000322033 0.000539776 -0.000177425)
(0.000223409 0.000587497 -0.000177425)
(0.000117997 0.000617366 -0.000177425)
(8.99986e-06 0.000628478 -0.000177425)
(-0.000100271 0.000620492 -0.000177425)
(-0.000371368 -0.000160684 -0.000921681)
(-0.000337824 -0.00022273 -0.000921681)
(-0.000294016 -0.000278009 -0.000921681)
(-0.000241274 -0.000324839 -0.000921679)
(-0.000181202 -0.000361799 -0.000921677)
(-0.000115623 -0.000387767 -0.000921677)
(-4.65303e-05 -0.000401954 -0.000921677)
(2.39762e-05 -0.000403927 -0.000921678)
(9.37544e-05 -0.000393627 -0.00092168)
(0.000160683 -0.000371368 -0.000921681)
(0.00022273 -0.000337823 -0.000921681)
(0.000278008 -0.000294015 -0.000921681)
(0.000324838 -0.000241274 -0.000921679)
(0.000361798 -0.000181201 -0.000921677)
(0.000387766 -0.000115622 -0.000921677)
(0.000401953 -4.65299e-05 -0.000921677)
(0.000403926 2.39766e-05 -0.000921678)
(0.000393627 9.37548e-05 -0.00092168)
(0.000371367 0.000160684 -0.000921681)
(0.000337823 0.00022273 -0.000921681)
(0.000294015 0.000278009 -0.000921681)
(0.000241273 0.000324838 -0.000921679)
(0.000181201 0.000361798 -0.000921677)
(0.000115622 0.000387767 -0.000921677)
(4.65295e-05 0.000401953 -0.000921677)
(-2.3977e-05 0.000403927 -0.000921678)
(-9.37552e-05 0.000393627 -0.00092168)
(-0.000160684 0.000371368 -0.000921681)
(-0.000222731 0.000337823 -0.000921681)
(-0.000278009 0.000294015 -0.000921681)
(-0.000324839 0.000241274 -0.000921679)
(-0.000361799 0.000181201 -0.000921677)
(-0.000387767 0.000115622 -0.000921677)
(-0.000401954 4.653e-05 -0.000921678)
(-0.000403927 -2.39766e-05 -0.000921678)
(-0.000393628 -9.37547e-05 -0.00092168)
(-0.000363262 0.000390069 -0.000669718)
(-0.000425478 0.000321063 -0.000669719)
(-0.000474766 0.000242302 -0.000669719)
(-0.000509628 0.00015618 -0.000669718)
(-0.000529007 6.53128e-05 -0.000669717)
(-0.000532311 -2.75412e-05 -0.000669717)
(-0.000519442 -0.000119558 -0.000669717)
(-0.000490789 -0.000207942 -0.000669718)
(-0.000447223 -0.000290008 -0.000669718)
(-0.000390069 -0.000363262 -0.000669718)
(-0.000321064 -0.000425478 -0.000669719)
(-0.000242303 -0.000474765 -0.000669718)
(-0.000156181 -0.000509628 -0.000669718)
(-6.53133e-05 -0.000529007 -0.000669716)
(2.75407e-05 -0.000532311 -0.000669717)
(0.000119558 -0.000519441 -0.000669717)
(0.000207942 -0.000490789 -0.000669717)
(0.000290007 -0.000447223 -0.000669718)
(0.000363261 -0.000390069 -0.000669718)
(0.000425477 -0.000321063 -0.000669718)
(0.000474765 -0.000242302 -0.000669718)
(0.000509628 -0.00015618 -0.000669718)
(0.000529006 -6.53129e-05 -0.000669717)
(0.00053231 2.75411e-05 -0.000669717)
(0.000519441 0.000119558 -0.000669717)
(0.000490788 0.000207942 -0.000669718)
(0.000447223 0.000290008 -0.000669718)
(0.000390069 0.000363262 -0.000669718)
(0.000321063 0.000425478 -0.000669719)
(0.000242302 0.000474765 -0.000669719)
(0.00015618 0.000509628 -0.000669718)
(6.53125e-05 0.000529007 -0.000669717)
(-2.75416e-05 0.000532311 -0.000669717)
(-0.000119558 0.000519441 -0.000669717)
(-0.000207943 0.000490789 -0.000669718)
(-0.000290008 0.000447223 -0.000669718)
(-0.000423647 0.000918224 -0.000425791)
(-0.000576658 0.000830708 -0.000425791)
(-0.000712148 0.000717953 -0.000425791)
(-0.000826 0.000583384 -0.000425792)
(-0.000914755 0.000431087 -0.000425792)
(-0.000975716 0.000265692 -0.000425792)
(-0.00100703 9.22238e-05 -0.000425792)
(-0.00100774 -8.40462e-05 -0.000425791)
(-0.00097784 -0.000257763 -0.000425791)
(-0.000918224 -0.000423647 -0.000425791)
(-0.000830709 -0.000576658 -0.000425791)
(-0.000717954 -0.000712148 -0.000425791)
(-0.000583384 -0.000826 -0.000425791)
(-0.000431088 -0.000914754 -0.000425791)
(-0.000265692 -0.000975715 -0.000425791)
(-9.22242e-05 -0.00100703 -0.000425791)
(8.40457e-05 -0.00100774 -0.000425791)
(0.000257762 -0.00097784 -0.000425791)
(0.000423646 -0.000918224 -0.000425791)
(0.000576657 -0.000830708 -0.000425791)
(0.000712147 -0.000717953 -0.000425791)
(0.000825999 -0.000583384 -0.000425791)
(0.000914754 -0.000431087 -0.000425792)
(0.000975715 -0.000265692 -0.000425792)
(0.00100703 -9.22239e-05 -0.000425792)
(0.00100774 8.40461e-05 -0.000425791)
(0.000977839 0.000257763 -0.000425791)
(0.000918223 0.000423647 -0.000425791)
(0.000830708 0.000576658 -0.000425791)
(0.000717953 0.000712147 -0.000425791)
(0.000583383 0.000826 -0.000425792)
(0.000431087 0.000914754 -0.000425792)
(0.000265692 0.000975715 -0.000425792)
(9.22234e-05 0.00100703 -0.000425792)
(-8.40466e-05 0.00100774 -0.000425791)
(-0.000257763 0.00097784 -0.000425791)
(-0.000438118 -4.52392e-05 -0.00135712)
(-0.000423607 -0.000120631 -0.00135712)
(-0.000396225 -0.000192355 -0.00135712)
(-0.000356804 -0.000258235 -0.00135712)
(-0.000306541 -0.000316269 -0.00135712)
(-0.000246964 -0.000364695 -0.00135712)
(-0.000179883 -0.000402039 -0.00135712)
(-0.000107336 -0.000427168 -0.00135712)
(-3.15271e-05 -0.000439317 -0.00135712)
(4.52387e-05 -0.000438117 -0.00135712)
(0.00012063 -0.000423607 -0.00135712)
(0.000192355 -0.000396224 -0.00135712)
(0.000258234 -0.000356803 -0.00135712)
(0.000316269 -0.00030654 -0.00135712)
(0.000364694 -0.000246964 -0.00135712)
(0.000402039 -0.000179883 -0.00135712)
(0.000427167 -0.000107335 -0.00135712)
(0.000439316 -3.15266e-05 -0.00135712)
(0.000438117 4.52392e-05 -0.00135712)
(0.000423606 0.000120631 -0.00135712)
(0.000396224 0.000192355 -0.00135712)
(0.000356802 0.000258235 -0.00135712)
(0.00030654 0.000316269 -0.00135712)
(0.000246963 0.000364694 -0.00135712)
(0.000179882 0.000402039 -0.00135712)
(0.000107334 0.000427168 -0.00135712)
(3.1526e-05 0.000439316 -0.00135712)
(-4.52398e-05 0.000438117 -0.00135712)
(-0.000120631 0.000423607 -0.00135712)
(-0.000192356 0.000396224 -0.00135712)
(-0.000258236 0.000356803 -0.00135712)
(-0.00031627 0.00030654 -0.00135712)
(-0.000364695 0.000246964 -0.00135712)
(-0.00040204 0.000179883 -0.00135712)
(-0.000427168 0.000107335 -0.00135712)
(-0.000439317 3.15266e-05 -0.00135712)
(-0.00050192 0.000582771 -0.00105032)
(-0.000595492 0.00048676 -0.00105032)
(-0.00067097 0.00037596 -0.00105032)
(-0.000726061 0.000253737 -0.00105032)
(-0.000759091 0.000123803 -0.00105032)
(-0.000769057 -9.89242e-06 -0.00105032)
(-0.000755656 -0.000143288 -0.00105032)
(-0.000719293 -0.000272329 -0.00105032)
(-0.000661076 -0.000393096 -0.00105032)
(-0.000582772 -0.000501919 -0.00105032)
(-0.000486761 -0.000595491 -0.00105032)
(-0.000375961 -0.00067097 -0.00105032)
(-0.000253737 -0.000726061 -0.00105032)
(-0.000123804 -0.000759091 -0.00105032)
(9.89171e-06 -0.000769057 -0.00105032)
(0.000143287 -0.000755655 -0.00105032)
(0.000272329 -0.000719293 -0.00105032)
(0.000393096 -0.000661075 -0.00105032)
(0.000501919 -0.000582771 -0.00105032)
(0.000595491 -0.00048676 -0.00105032)
(0.000670969 -0.00037596 -0.00105032)
(0.00072606 -0.000253737 -0.00105032)
(0.00075909 -0.000123803 -0.00105032)
(0.000769056 9.89225e-06 -0.00105032)
(0.000755655 0.000143288 -0.00105032)
(0.000719292 0.000272329 -0.00105032)
(0.000661075 0.000393096 -0.00105032)
(0.000582771 0.000501919 -0.00105032)
(0.00048676 0.000595491 -0.00105032)
(0.00037596 0.00067097 -0.00105032)
(0.000253736 0.000726061 -0.00105032)
(0.000123803 0.000759091 -0.00105032)
(-9.89292e-06 0.000769057 -0.00105032)
(-0.000143288 0.000755655 -0.00105032)
(-0.00027233 0.000719293 -0.00105032)
(-0.000393097 0.000661075 -0.00105032)
(-0.00064265 0.0011658 -0.000758422)
(-0.000835325 0.00103649 -0.000758423)
(-0.00100262 0.000875695 -0.000758422)
(-0.00113945 0.000688288 -0.000758422)
(-0.00124166 0.000479968 -0.000758422)
(-0.00130614 0.000257065 -0.000758422)
(-0.00133094 2.63498e-05 -0.000758422)
(-0.00131529 -0.000205166 -0.000758423)
(-0.00125968 -0.000430447 -0.000758422)
(-0.0011658 -0.000642649 -0.000758422)
(-0.00103649 -0.000835325 -0.000758422)
(-0.000875695 -0.00100262 -0.000758422)
(-0.000688289 -0.00113945 -0.000758422)
(-0.000479969 -0.00124166 -0.000758422)
(-0.000257066 -0.00130614 -0.000758422)
(-2.63505e-05 -0.00133094 -0.000758422)
(0.000205165 -0.00131529 -0.000758422)
(0.000430447 -0.00125968 -0.000758422)
(0.000642649 -0.0011658 -0.000758422)
(0.000835324 -0.00103649 -0.000758422)
(0.00100262 -0.000875695 -0.000758422)
(0.00113945 -0.000688288 -0.000758422)
(0.00124166 -0.000479969 -0.000758422)
(0.00130614 -0.000257065 -0.000758422)
(0.00133094 -2.63499e-05 -0.000758422)
(0.00131529 0.000205165 -0.000758423)
(0.00125968 0.000430447 -0.000758422)
(0.0011658 0.000642649 -0.000758422)
(0.00103649 0.000835325 -0.000758423)
(0.000875694 0.00100262 -0.000758422)
(0.000688288 0.00113945 -0.000758422)
(0.000479968 0.00124166 -0.000758422)
(0.000257065 0.00130614 -0.000758422)
(2.63493e-05 0.00133094 -0.000758423)
(-0.000205166 0.00131529 -0.000758423)
(-0.000430448 0.00125968 -0.000758422)
(-0.000517702 0.000184503 -0.0017871)
(-0.000541876 9.18009e-05 -0.0017871)
(-0.000549585 -3.68795e-06 -0.0017871)
(-0.000540595 -9.90653e-05 -0.0017871)
(-0.000515179 -0.000191433 -0.0017871)
(-0.00047411 -0.000277985 -0.0017871)
(-0.000418635 -0.00035609 -0.0017871)
(-0.00035044 -0.000423376 -0.0017871)
(-0.000271598 -0.000477797 -0.0017871)
(-0.000184503 -0.000517701 -0.0017871)
(-9.18017e-05 -0.000541875 -0.0017871)
(3.68713e-06 -0.000549585 -0.0017871)
(9.90645e-05 -0.000540594 -0.0017871)
(0.000191432 -0.000515178 -0.0017871)
(0.000277984 -0.000474109 -0.0017871)
(0.000356089 -0.000418635 -0.0017871)
(0.000423375 -0.00035044 -0.0017871)
(0.000477796 -0.000271597 -0.0017871)
(0.0005177 -0.000184503 -0.0017871)
(0.000541874 -9.18011e-05 -0.0017871)
(0.000549584 3.68776e-06 -0.0017871)
(0.000540594 9.90651e-05 -0.0017871)
(0.000515178 0.000191433 -0.0017871)
(0.000474108 0.000277984 -0.0017871)
(0.000418634 0.00035609 -0.0017871)
(0.000350439 0.000423376 -0.0017871)
(0.000271597 0.000477797 -0.0017871)
(0.000184502 0.000517701 -0.0017871)
(9.18003e-05 0.000541875 -0.0017871)
(-3.6886e-06 0.000549584 -0.0017871)
(-9.9066e-05 0.000540594 -0.0017871)
(-0.000191434 0.000515178 -0.0017871)
(-0.000277985 0.000474109 -0.0017871)
(-0.000356091 0.000418635 -0.0017871)
(-0.000423377 0.000350439 -0.0017871)
(-0.000477798 0.000271597 -0.0017871)
(-0.000643455 0.000802961 -0.00145317)
(-0.000773112 0.000679027 -0.00145318)
(-0.00087928 0.000534464 -0.00145317)
(-0.00095873 0.00037366 -0.00145317)
(-0.00100905 0.000201502 -0.00145317)
(-0.00102871 2.32211e-05 -0.00145317)
(-0.00101711 -0.000155766 -0.00145317)
(-0.000974611 -0.000330019 -0.00145317)
(-0.000902498 -0.000494245 -0.00145317)
(-0.000802962 -0.000643454 -0.00145317)
(-0.000679028 -0.000773112 -0.00145317)
(-0.000534465 -0.000879279 -0.00145317)
(-0.000373661 -0.000958729 -0.00145317)
(-0.000201503 -0.00100905 -0.00145317)
(-2.32219e-05 -0.00102871 -0.00145317)
(0.000155765 -0.00101711 -0.00145317)
(0.000330018 -0.00097461 -0.00145317)
(0.000494245 -0.000902498 -0.00145317)
(0.000643453 -0.000802962 -0.00145317)
(0.000773111 -0.000679028 -0.00145317)
(0.000879278 -0.000534464 -0.00145317)
(0.000958728 -0.00037366 -0.00145317)
(0.00100905 -0.000201502 -0.00145317)
(0.00102871 -2.32213e-05 -0.00145317)
(0.00101711 0.000155765 -0.00145317)
(0.00097461 0.000330019 -0.00145317)
(0.000902497 0.000494245 -0.00145317)
(0.000802961 0.000643454 -0.00145317)
(0.000679027 0.000773112 -0.00145318)
(0.000534463 0.000879279 -0.00145317)
(0.000373659 0.000958729 -0.00145317)
(0.000201501 0.00100905 -0.00145317)
(2.32204e-05 0.00102871 -0.00145317)
(-0.000155766 0.00101711 -0.00145317)
(-0.00033002 0.00097461 -0.00145317)
(-0.000494246 0.000902498 -0.00145317)
(-0.000847815 0.0013555 -0.00114078)
(-0.00107032 0.00118769 -0.00114078)
(-0.00126029 0.000983785 -0.00114078)
(-0.00141198 0.000749992 -0.00114078)
(-0.00152076 0.000493411 -0.00114078)
(-0.00158334 0.000221837 -0.00114078)
(-0.00159781 -5.64775e-05 -0.00114078)
(-0.00156372 -0.000333076 -0.00114078)
(-0.00148213 -0.000599554 -0.00114078)
(-0.0013555 -0.000847815 -0.00114078)
(-0.00118769 -0.00107031 -0.00114078)
(-0.000983786 -0.00126029 -0.00114078)
(-0.000749993 -0.00141198 -0.00114078)
(-0.000493412 -0.00152076 -0.00114078)
(-0.000221838 -0.00158334 -0.00114078)
(5.64766e-05 -0.00159781 -0.00114078)
(0.000333075 -0.00156372 -0.00114078)
(0.000599553 -0.00148213 -0.00114078)
(0.000847814 -0.0013555 -0.00114078)
(0.00107031 -0.00118769 -0.00114078)
(0.00126029 -0.000983785 -0.00114078)
(0.00141198 -0.000749992 -0.00114078)
(0.00152076 -0.000493411 -0.00114078)
(0.00158334 -0.000221837 -0.00114078)
(0.0015978 5.64773e-05 -0.00114078)
(0.00156372 0.000333076 -0.00114078)
(0.00148213 0.000599554 -0.00114078)
(0.0013555 0.000847815 -0.00114078)
(0.00118769 0.00107031 -0.00114078)
(0.000983785 0.00126029 -0.00114078)
(0.000749991 0.00141198 -0.00114078)
(0.00049341 0.00152076 -0.00114078)
(0.000221836 0.00158334 -0.00114078)
(-5.64781e-05 0.00159781 -0.00114078)
(-0.000333077 0.00156372 -0.00114078)
(-0.000599554 0.00148213 -0.00114078)
(-0.000639256 0.000493227 -0.00221095)
(-0.000715193 0.000374727 -0.00221095)
(-0.000769398 0.000244843 -0.00221095)
(-0.000800226 0.00010752 -0.00221095)
(-0.000806739 -3.30711e-05 -0.00221095)
(-0.000788739 -0.000172657 -0.00221095)
(-0.000746775 -0.000306997 -0.00221095)
(-0.00068212 -0.000432009 -0.00221095)
(-0.00059674 -0.000543895 -0.00221095)
(-0.000493228 -0.000639255 -0.00221095)
(-0.000374728 -0.000715192 -0.00221095)
(-0.000244844 -0.000769398 -0.00221095)
(-0.000107521 -0.000800225 -0.00221095)
(3.307e-05 -0.000806738 -0.00221095)
(0.000172656 -0.000788738 -0.00221095)
(0.000306996 -0.000746774 -0.00221095)
(0.000432008 -0.000682119 -0.00221095)
(0.000543894 -0.000596739 -0.00221095)
(0.000639254 -0.000493227 -0.00221095)
(0.000715191 -0.000374728 -0.00221095)
(0.000769396 -0.000244844 -0.00221095)
(0.000800224 -0.00010752 -0.00221095)
(0.000806737 3.30709e-05 -0.00221095)
(0.000788737 0.000172657 -0.00221095)
(0.000746773 0.000306997 -0.00221095)
(0.000682118 0.000432009 -0.00221095)
(0.000596738 0.000543895 -0.00221095)
(0.000493226 0.000639255 -0.00221095)
(0.000374727 0.000715192 -0.00221095)
(0.000244843 0.000769397 -0.00221095)
(0.000107519 0.000800225 -0.00221095)
(-3.30719e-05 0.000806738 -0.00221095)
(-0.000172658 0.000788738 -0.00221095)
(-0.000306998 0.000746774 -0.00221095)
(-0.00043201 0.000682119 -0.00221095)
(-0.000543896 0.000596739 -0.00221095)
(-0.000803181 0.00104779 -0.00186282)
(-0.000972926 0.0008924 -0.00186282)
(-0.00111311 0.000709897 -0.00186282)
(-0.00121947 0.000505824 -0.00186282)
(-0.00128878 0.000286381 -0.00186282)
(-0.00131893 5.82362e-05 -0.00186282)
(-0.001309 -0.000171678 -0.00186282)
(-0.0012593 -0.000396376 -0.00186282)
(-0.00117134 -0.000609031 -0.00186282)
(-0.00104779 -0.00080318 -0.00186282)
(-0.000892401 -0.000972925 -0.00186282)
(-0.000709898 -0.00111311 -0.00186282)
(-0.000505825 -0.00121947 -0.00186282)
(-0.000286382 -0.00128878 -0.00186282)
(-5.82373e-05 -0.00131893 -0.00186282)
(0.000171677 -0.001309 -0.00186282)
(0.000396375 -0.0012593 -0.00186282)
(0.00060903 -0.00117134 -0.00186282)
(0.000803179 -0.00104779 -0.00186282)
(0.000972924 -0.0008924 -0.00186282)
(0.00111311 -0.000709897 -0.00186282)
(0.00121947 -0.000505824 -0.00186282)
(0.00128878 -0.000286381 -0.00186282)
(0.00131893 -5.82365e-05 -0.00186282)
(0.001309 0.000171678 -0.00186282)
(0.0012593 0.000396376 -0.00186282)
(0.00117134 0.000609031 -0.00186282)
(0.00104779 0.00080318 -0.00186282)
(0.000892399 0.000972925 -0.00186282)
(0.000709896 0.00111311 -0.00186282)
(0.000505823 0.00121947 -0.00186282)
(0.00028638 0.00128878 -0.00186282)
(5.82355e-05 0.00131893 -0.00186282)
(-0.000171679 0.001309 -0.00186282)
(-0.000396377 0.0012593 -0.00186282)
(-0.000609032 0.00117134 -0.00186282)
(-0.00104161 0.00152003 -0.00154173)
(-0.00128974 0.00131606 -0.00154173)
(-0.00149867 0.00107211 -0.00154173)
(-0.00166208 0.000795579 -0.00154173)
(-0.00177498 0.000494876 -0.00154173)
(-0.00183394 0.000179136 -0.00154173)
(-0.00183719 -0.000142046 -0.00154173)
(-0.00178461 -0.000458913 -0.00154173)
(-0.00167781 -0.000761835 -0.00154173)
(-0.00152003 -0.00104161 -0.00154173)
(-0.00131606 -0.00128974 -0.00154173)
(-0.00107211 -0.00149867 -0.00154173)
(-0.00079558 -0.00166208 -0.00154173)
(-0.000494877 -0.00177498 -0.00154173)
(-0.000179137 -0.00183394 -0.00154173)
(0.000142045 -0.00183719 -0.00154173)
(0.000458912 -0.00178461 -0.00154173)
(0.000761834 -0.00167781 -0.00154173)
(0.00104161 -0.00152003 -0.00154173)
(0.00128974 -0.00131606 -0.00154173)
(0.00149867 -0.00107211 -0.00154173)
(0.00166207 -0.000795579 -0.00154173)
(0.00177497 -0.000494876 -0.00154173)
(0.00183394 -0.000179136 -0.00154173)
(0.00183719 0.000142045 -0.00154173)
(0.00178461 0.000458913 -0.00154173)
(0.00167781 0.000761835 -0.00154173)
(0.00152003 0.00104161 -0.00154173)
(0.00131606 0.00128974 -0.00154173)
(0.00107211 0.00149867 -0.00154173)
(0.000795578 0.00166208 -0.00154173)
(0.000494875 0.00177498 -0.00154173)
(0.000179135 0.00183394 -0.00154173)
(-0.000142046 0.00183719 -0.00154173)
(-0.000458913 0.00178461 -0.00154173)
(-0.000761836 0.00167781 -0.00154173)
(-0.000820575 0.000830533 -0.0026426)
(-0.000952329 0.000675423 -0.0026426)
(-0.00105515 0.000499793 -0.0026426)
(-0.00112591 0.000308976 -0.0026426)
(-0.00116245 0.00010877 -0.0026426)
(-0.00116368 -9.47391e-05 -0.0026426)
(-0.00112955 -0.000295371 -0.0026426)
(-0.0010611 -0.000487028 -0.0026426)
(-0.000960408 -0.000663887 -0.0026426)
(-0.000830534 -0.000820574 -0.0026426)
(-0.000675424 -0.000952328 -0.0026426)
(-0.000499794 -0.00105515 -0.0026426)
(-0.000308977 -0.00112591 -0.0026426)
(-0.000108771 -0.00116245 -0.0026426)
(9.47378e-05 -0.00116368 -0.0026426)
(0.000295369 -0.00112955 -0.0026426)
(0.000487027 -0.0010611 -0.0026426)
(0.000663886 -0.000960407 -0.0026426)
(0.000820573 -0.000830533 -0.0026426)
(0.000952327 -0.000675424 -0.0026426)
(0.00105515 -0.000499793 -0.0026426)
(0.0011259 -0.000308976 -0.0026426)
(0.00116245 -0.000108771 -0.0026426)
(0.00116368 9.47388e-05 -0.0026426)
(0.00112955 0.00029537 -0.0026426)
(0.0010611 0.000487028 -0.0026426)
(0.000960406 0.000663887 -0.0026426)
(0.000830532 0.000820574 -0.0026426)
(0.000675422 0.000952328 -0.0026426)
(0.000499792 0.00105515 -0.0026426)
(0.000308975 0.00112591 -0.0026426)
(0.000108769 0.00116245 -0.0026426)
(-9.474e-05 0.00116368 -0.0026426)
(-0.000295372 0.00112955 -0.0026426)
(-0.000487029 0.0010611 -0.0026426)
(-0.000663888 0.000960407 -0.0026426)
(-0.000996198 0.00130168 -0.00227939)
(-0.0012071 0.00110891 -0.00227939)
(-0.00138132 0.000882457 -0.00227939)
(-0.00151357 0.000629187 -0.00227939)
(-0.00159983 0.0003568 -0.00227939)
(-0.00163749 7.35721e-05 -0.00227939)
(-0.00162538 -0.000211892 -0.00227939)
(-0.0015639 -0.000490918 -0.00227939)
(-0.00145489 -0.000755029 -0.00227939)
(-0.00130168 -0.000996197 -0.00227939)
(-0.00110891 -0.0012071 -0.00227939)
(-0.000882458 -0.00138132 -0.00227939)
(-0.000629188 -0.00151357 -0.00227939)
(-0.000356801 -0.00159983 -0.00227939)
(-7.35734e-05 -0.00163749 -0.00227939)
(0.000211891 -0.00162538 -0.00227939)
(0.000490917 -0.0015639 -0.00227939)
(0.000755028 -0.00145489 -0.00227939)
(0.000996196 -0.00130168 -0.00227939)
(0.0012071 -0.00110891 -0.00227939)
(0.00138132 -0.000882457 -0.00227939)
(0.00151357 -0.000629187 -0.00227939)
(0.00159983 -0.0003568 -0.00227939)
(0.00163748 -7.35724e-05 -0.00227939)
(0.00162538 0.000211892 -0.00227939)
(0.00156389 0.000490918 -0.00227939)
(0.00145489 0.000755029 -0.00227939)
(0.00130168 0.000996197 -0.00227939)
(0.00110891 0.0012071 -0.00227939)
(0.000882456 0.00138132 -0.00227939)
(0.000629186 0.00151357 -0.00227939)
(0.000356799 0.00159983 -0.00227939)
(7.35712e-05 0.00163749 -0.00227939)
(-0.000211893 0.00162538 -0.00227939)
(-0.000490919 0.00156389 -0.00227939)
(-0.00075503 0.00145489 -0.00227939)
(-0.00123811 0.00168069 -0.00194714)
(-0.00151115 0.00144016 -0.00194714)
(-0.00173827 0.00115587 -0.00194714)
(-0.00191258 0.000836465 -0.00194714)
(-0.00202877 0.000491641 -0.00194714)
(-0.00208332 0.00013188 -0.00194714)
(-0.00207457 -0.000231889 -0.00194714)
(-0.00200279 -0.000588612 -0.00194714)
(-0.00187015 -0.000927451 -0.00194714)
(-0.00168069 -0.00123811 -0.00194714)
(-0.00144016 -0.00151115 -0.00194714)
(-0.00115587 -0.00173827 -0.00194714)
(-0.000836466 -0.00191258 -0.00194714)
(-0.000491643 -0.00202877 -0.00194714)
(-0.000131882 -0.00208332 -0.00194714)
(0.000231887 -0.00207457 -0.00194714)
(0.000588611 -0.00200279 -0.00194714)
(0.000927449 -0.00187015 -0.00194714)
(0.00123811 -0.00168069 -0.00194714)
(0.00151115 -0.00144016 -0.00194714)
(0.00173827 -0.00115587 -0.00194714)
(0.00191258 -0.000836465 -0.00194714)
(0.00202877 -0.000491642 -0.00194714)
(0.00208332 -0.000131881 -0.00194714)
(0.00207457 0.000231888 -0.00194714)
(0.00200279 0.000588612 -0.00194714)
(0.00187015 0.00092745 -0.00194714)
(0.00168069 0.00123811 -0.00194714)
(0.00144016 0.00151115 -0.00194714)
(0.00115587 0.00173827 -0.00194714)