/*--------------------------------*- C++ -*----------------------------------*\
| =========                 |                                                 |
| \\      /  F ield         | OpenFOAM: The Open Source CFD Toolbox           |
|  \\    /   O peration     | Version:  2312                                  |
|   \\  /    A nd           | Website:  www.openfoam.com                      |
|    \\/     M anipulation  |                                                 |
\*---------------------------------------------------------------------------*/
FoamFile
{
    version     2.0;
    format      ascii;
    arch        "LSB;label=32;scalar=64";
    class       volVectorField;
    location    "0.4";
    object      U;
}
// * * * * * * * * * * * * * * * * * * * * * * * * * * * * * * * * * * * * * //

dimensions      [0 1 -1 0 0 0 0];

internalField   nonuniform List<vector> 
1620
(
(-0.000105032 0.000182736 -0.000226184)
(-8.14321e-05 0.00031531 -0.000211523)
(-5.59276e-05 0.000396372 -0.000177158)
(-2.78428e-05 0.000431305 -0.000123977)
(8.80879e-06 0.000437526 -4.95595e-05)
(5.30527e-05 0.000434191 4.80754e-05)
(9.36538e-05 0.000436464 0.000171299)
(0.000112261 0.000449423 0.000316775)
(0.000113795 0.000456725 0.000440903)
(9.82311e-05 0.000451406 0.000415497)
(5.94531e-05 0.000426035 0.000272991)
(4.1828e-05 0.000390412 0.000140688)
(4.90726e-05 0.000363971 4.05387e-05)
(6.31006e-05 0.00034638 -3.29493e-05)
(7.17796e-05 0.000324909 -8.70304e-05)
(7.33784e-05 0.0002829 -0.000128477)
(7.20654e-05 0.000205264 -0.000163616)
(6.43917e-05 8.56686e-05 -0.00019046)
(4.36358e-05 -5.92515e-05 -0.000183945)
(1.64544e-05 -0.000184102 -0.000144551)
(-3.16126e-06 -0.000269343 -0.000101186)
(-1.23666e-05 -0.000315611 -5.72637e-05)
(-1.87729e-05 -0.000332364 -8.68567e-06)
(-2.90368e-05 -0.00033414 5.06969e-05)
(-4.25374e-05 -0.000336915 0.000131904)
(-4.91493e-05 -0.000350813 0.000246935)
(-5.70123e-05 -0.000362735 0.000369834)
(-5.61813e-05 -0.000364407 0.00036859)
(-3.54148e-05 -0.000346934 0.000260348)
(-3.53917e-05 -0.000320996 0.000151512)
(-5.91562e-05 -0.000302187 6.29193e-05)
(-8.89206e-05 -0.000287849 -6.83578e-06)
(-0.000110687 -0.000263513 -6.20257e-05)
(-0.000120832 -0.000211234 -0.000108879)
(-0.000124026 -0.00011647 -0.000155637)
(-0.000120103 2.3368e-05 -0.000203545)
(0.000109319 0.000117318 -0.000134098)
(0.000115279 0.000240594 -9.41618e-05)
(0.000107123 0.000310943 -5.64814e-05)
(9.33704e-05 0.000337068 -1.20228e-05)
(8.21194e-05 0.000327654 4.00628e-05)
(7.67595e-05 0.000295997 9.54728e-05)
(7.7151e-05 0.000254947 0.000148208)
(8.29513e-05 0.000215694 0.00019133)
(9.93103e-05 0.000190714 0.000215802)
(0.000107305 0.000189714 0.000207157)
(0.000106548 0.000208508 0.000172529)
(9.46793e-05 0.000236254 0.00012784)
(7.89804e-05 0.000267304 8.20005e-05)
(5.72357e-05 0.000294242 3.91459e-05)
(2.63119e-05 0.000305924 2.19733e-06)
(-1.37556e-05 0.000289291 -2.76747e-05)
(-5.74756e-05 0.000234185 -5.35741e-05)
(-9.7319e-05 0.000125965 -8.32744e-05)
(-0.0001175 -1.34619e-05 -7.17368e-05)
(-0.000113465 -0.000127053 -2.44537e-05)
(-9.56888e-05 -0.000195559 9.20193e-06)
(-7.10121e-05 -0.00022626 3.99483e-05)
(-4.70969e-05 -0.00022522 7.15367e-05)
(-2.90132e-05 -0.000202735 0.000103832)
(-1.99233e-05 -0.000169016 0.000136454)
(-2.26563e-05 -0.000133438 0.000168132)
(-4.33179e-05 -0.000108281 0.000191201)
(-6.28414e-05 -0.000104246 0.000185972)
(-7.65804e-05 -0.000121973 0.000156737)
(-8.24206e-05 -0.00015314 0.000116432)
(-8.38943e-05 -0.000190332 7.20387e-05)
(-7.60659e-05 -0.000223361 2.77623e-05)
(-5.35432e-05 -0.000237979 -1.31948e-05)
(-1.53762e-05 -0.000218738 -4.9834e-05)
(3.2241e-05 -0.000154862 -8.59692e-05)
(7.9423e-05 -3.46883e-05 -0.00013059)
(0.000275717 4.35422e-05 -1.61006e-05)
(0.000256214 0.000154106 1.22713e-05)
(0.00020487 0.000214399 4.15852e-05)
(0.000143854 0.000224712 7.03346e-05)
(8.65987e-05 0.000194343 9.6413e-05)
(4.21412e-05 0.000137894 0.00011321)
(1.8635e-05 7.20253e-05 0.000111357)
(2.49707e-05 1.40901e-05 8.48322e-05)
(7.10417e-05 -1.91622e-05 4.60005e-05)
(0.000140378 -2.10772e-05 4.43102e-05)
(0.000181667 1.2301e-05 8.2323e-05)
(0.000186069 7.43581e-05 0.000100711)
(0.000161235 0.000148198 9.58162e-05)
(0.000113411 0.000217652 7.89429e-05)
(4.66594e-05 0.00026718 6.08203e-05)
(-3.45756e-05 0.000281163 4.84319e-05)
(-0.000120008 0.000246416 4.37711e-05)
(-0.000185093 0.000156938 4.48152e-05)
(-0.000202476 4.27395e-05 5.79703e-05)
(-0.000171806 -5.42963e-05 7.72063e-05)
(-0.000117397 -0.000105802 9.17938e-05)
(-6.01677e-05 -0.000114397 0.000105104)
(-1.03534e-05 -8.9765e-05 0.000118302)
(2.64975e-05 -4.38922e-05 0.000126692)
(4.41322e-05 1.16318e-05 0.000121166)
(3.33346e-05 6.41832e-05 9.33968e-05)
(-1.59789e-05 9.76309e-05 5.16125e-05)
(-8.76502e-05 0.000101185 4.26597e-05)
(-0.000134119 6.72263e-05 7.21495e-05)
(-0.000150257 2.06966e-06 8.31214e-05)
(-0.000137524 -7.81197e-05 7.19364e-05)
(-9.67934e-05 -0.000155381 4.86906e-05)
(-2.93304e-05 -0.00021079 2.28519e-05)
(6.033e-05 -0.000225742 3.5499e-07)
(0.00015974 -0.000185857 -1.69306e-05)
(0.000241902 -8.60293e-05 -2.73619e-05)
(-6.95663e-05 0.000508479 -0.000614622)
(-4.47986e-05 0.000912199 -0.000575834)
(-4.2e-05 0.00115953 -0.00047077)
(-3.75407e-05 0.00125659 -0.000311524)
(-8.1644e-06 0.00124732 -9.66301e-05)
(5.12186e-05 0.00118327 0.000176653)
(0.000126392 0.00111013 0.000506088)
(0.000193641 0.00105687 0.000864792)
(0.00025776 0.00101913 0.00114565)
(0.000309139 0.000992077 0.00113453)
(0.000292899 0.00096976 0.00084922)
(0.000273099 0.00095955 0.000518261)
(0.000266028 0.000968268 0.000233034)
(0.000254388 0.000976825 9.12424e-06)
(0.000222908 0.00094957 -0.000161648)
(0.000169845 0.000844387 -0.00029506)
(0.000105333 0.000621205 -0.000404134)
(3.8716e-05 0.000264815 -0.00047637)
(-1.23433e-05 -0.000160417 -0.000459336)
(-3.42081e-05 -0.000530503 -0.000353821)
(-2.81044e-05 -0.000768477 -0.000224606)
(-5.46773e-06 -0.000877835 -9.27016e-05)
(1.43328e-05 -0.000892477 4.87579e-05)
(1.74366e-05 -0.000854629 0.000217505)
(2.57406e-07 -0.000805616 0.000436299)
(-3.19193e-05 -0.000775433 0.000712743)
(-9.59286e-05 -0.000760286 0.000974292)
(-0.000174381 -0.000751764 0.00101418)
(-0.0002058 -0.000745326 0.000807274)
(-0.00024083 -0.000753667 0.000536094)
(-0.000288361 -0.000780275 0.00028281)
(-0.000324322 -0.000799694 6.79319e-05)
(-0.000324779 -0.000768792 -0.000110375)
(-0.000282286 -0.00064001 -0.00026564)
(-0.000209903 -0.000373672 -0.0004147)
(-0.000129108 3.68419e-05 -0.000550937)
(0.000256689 0.000329475 -0.000421698)
(0.000267026 0.000683374 -0.000329122)
(0.000234267 0.000892815 -0.000201014)
(0.000187953 0.000970714 -4.43216e-05)
(0.000152781 0.000945616 0.000136798)
(0.000141092 0.000857441 0.000332685)
(0.000155318 0.000746125 0.000527258)
(0.000194742 0.000645402 0.000695768)
(0.00026217 0.000581226 0.000799667)
(0.000326073 0.000571681 0.000793943)
(0.000356852 0.000615021 0.000684014)
(0.000348763 0.000691118 0.000521494)
(0.000312904 0.000780727 0.000348038)
(0.000248636 0.000857939 0.000185483)
(0.000153958 0.000888409 4.41456e-05)
(3.39301e-05 0.000834361 -7.34248e-05)
(-9.40402e-05 0.000664581 -0.000169773)
(-0.000204538 0.000354745 -0.00024022)
(-0.000259307 -2.70661e-05 -0.000210717)
(-0.000248174 -0.000351791 -9.32783e-05)
(-0.000196366 -0.000549239 2.57176e-05)
(-0.000128129 -0.000632569 0.000140694)
(-6.52542e-05 -0.000626165 0.000255527)
(-2.25315e-05 -0.000562879 0.000373311)
(-9.9533e-06 -0.000475118 0.000494761)
(-3.56155e-05 -0.000390845 0.000612937)
(-0.000106723 -0.000333464 0.000700048)
(-0.000192729 -0.00032339 0.000706496)
(-0.000259806 -0.000368693 0.000621108)
(-0.000298887 -0.000455859 0.000480059)
(-0.000310922 -0.000563251 0.000316763)
(-0.000285704 -0.000658088 0.00015157)
(-0.000213434 -0.000697078 -4.6528e-06)
(-9.60821e-05 -0.000635028 -0.000149101)
(4.56651e-05 -0.000438683 -0.000284326)
(0.00017797 -9.0964e-05 -0.000404027)
(0.000538033 0.000139209 -0.000195702)
(0.00053032 0.000434209 -9.0005e-05)
(0.000457592 0.000611542 4.82579e-05)
(0.000356366 0.00066892 0.000195666)
(0.000255219 0.00062685 0.000337589)
(0.000177013 0.000518831 0.000454376)
(0.000141348 0.000384599 0.000520627)
(0.00016415 0.000265175 0.000518706)
(0.000259181 0.00019705 0.000474189)
(0.000379467 0.000198983 0.000475417)
(0.000457084 0.000275408 0.000508547)
(0.000467082 0.000409719 0.0004957)
(0.000411739 0.000567859 0.000428663)
(0.000300508 0.000712142 0.000329205)
(0.000143993 0.000803218 0.000223043)
(-4.23771e-05 0.000802489 0.000129341)
(-0.000231202 0.000680145 6.00045e-05)
(-0.000375828 0.000429563 2.91258e-05)
(-0.000431928 0.000118118 6.64833e-05)
(-0.000395647 -0.000149562 0.000154832)
(-0.000302589 -0.000310197 0.000251875)
(-0.000190936 -0.000364179 0.000344876)
(-8.69589e-05 -0.00033237 0.000429327)
(-9.83803e-06 -0.000243251 0.000494188)
(2.27348e-05 -0.000127054 0.000519905)
(-5.69861e-06 -1.62834e-05 0.000490491)
(-0.0001087 5.32929e-05 0.000430415)
(-0.000237831 5.46851e-05 0.000419775)
(-0.000334699 -2.39458e-05 0.000439581)
(-0.000377857 -0.000168989 0.000415184)
(-0.000357689 -0.000346787 0.00033673)
(-0.000271727 -0.000513943 0.000221402)
(-0.000123993 -0.000621546 9.06972e-05)
(6.99318e-05 -0.000622753 -3.80455e-05)
(0.000278323 -0.000485307 -0.000149911)
(0.000450766 -0.00020688 -0.000219049)
(-1.84856e-05 0.00073468 -0.000878506)
(1.30158e-05 0.00133283 -0.000834522)
(4.598e-06 0.00171045 -0.000673192)
(-1.97146e-06 0.00187075 -0.000411431)
(2.61423e-05 0.00186935 -5.05126e-05)
(9.56956e-05 0.00177373 0.00040619)
(0.000191674 0.00164585 0.000939583)
(0.000290636 0.00153169 0.00149088)
(0.000391271 0.00145036 0.00192024)
(0.000478852 0.00141315 0.00198445)
(0.000491766 0.00141364 0.00162997)
(0.000465458 0.00144362 0.00112802)
(0.000434823 0.00148951 0.000646798)
(0.000392705 0.0015152 0.00024404)
(0.000325142 0.00147226 -7.0869e-05)
(0.000226702 0.00130623 -0.000310722)
(0.000108157 0.000966278 -0.000489795)
(-8.52593e-06 0.000436828 -0.000591922)
(-8.71322e-05 -0.000185673 -0.000564687)
(-0.000107174 -0.000731711 -0.000413524)
(-8.07887e-05 -0.00108759 -0.000212951)
(-3.46523e-05 -0.00125457 3.65712e-06)
(3.55025e-06 -0.00128032 0.0002412)
(1.72829e-05 -0.00122304 0.000520981)
(7.04665e-07 -0.00113725 0.000864449)
(-4.61972e-05 -0.00106448 0.00126391)
(-0.000137826 -0.00102044 0.0016309)
(-0.000258187 -0.00101102 0.00174783)
(-0.000344868 -0.00103251 0.0015077)
(-0.000403332 -0.00108526 0.00110535)
(-0.000458108 -0.00115622 0.000683794)
(-0.000489697 -0.00120008 0.000301133)
(-0.000470437 -0.00115623 -2.63678e-05)
(-0.000386472 -0.000961225 -0.000307771)
(-0.000254024 -0.000563438 -0.000560702)
(-0.000114027 4.19367e-05 -0.000773459)
(0.000315412 0.000490238 -0.000651849)
(0.000344543 0.00100547 -0.000522923)
(0.000314975 0.00131858 -0.0003068)
(0.000267585 0.00144496 -3.02165e-05)
(0.000235215 0.0014229 0.000294207)
(0.000234029 0.00130691 0.000648188)
(0.000266739 0.00115356 0.00100181)
(0.000329974 0.00101187 0.00130961)
(0.000421546 0.000919409 0.00150824)
(0.000510806 0.000901601 0.00152799)
(0.000563936 0.000963094 0.00136128)
(0.000559524 0.00107904 0.00108405)
(0.000508643 0.00121334 0.00077116)
(0.000413975 0.00132349 0.000468753)
(0.000276305 0.00135892 0.000201417)
(0.000104144 0.00126723 -2.07198e-05)
(-7.82504e-05 0.00100753 -0.000193462)
(-0.000235387 0.000554366 -0.000293922)
(-0.000320766 7.77585e-06 -0.000247222)
(-0.000319652 -0.000463367 -7.45586e-05)
(-0.000259608 -0.000757536 0.000127421)
(-0.000175929 -0.000888592 0.000331637)
(-9.96282e-05 -0.000890548 0.00053703)
(-5.15584e-05 -0.000809711 0.000747001)
(-4.47559e-05 -0.000692859 0.000960561)
(-8.72312e-05 -0.000580542 0.00116309)
(-0.000182582 -0.000504795 0.00131421)
(-0.000302789 -0.000490817 0.00134484)
(-0.000409288 -0.000554955 0.00122071)
(-0.000473715 -0.00068502 0.000986253)
(-0.000493993 -0.000843903 0.000696827)
(-0.00045867 -0.000979948 0.000392091)
(-0.000356262 -0.00102923 9.6266e-05)
(-0.000189879 -0.000927093 -0.000178818)
(1.10797e-05 -0.000628224 -0.000425733)
(0.000198142 -0.000116927 -0.000615468)
(0.000637916 0.00023358 -0.000391501)
(0.000657754 0.000656487 -0.000212993)
(0.000600435 0.000916088 4.36804e-05)
(0.000505149 0.00101063 0.000329816)
(0.000406005 0.000967152 0.000613527)
(0.000331873 0.000830872 0.000861723)
(0.000305407 0.000656589 0.00103638)
(0.000341261 0.000500154 0.00110795)
(0.000443993 0.000410606 0.00109198)
(0.000575813 0.000418469 0.00108581)
(0.000669792 0.000525783 0.00108335)
(0.000685925 0.000708866 0.00101418)
(0.000617402 0.000923379 0.000867166)
(0.000470913 0.00111672 0.000668668)
(0.000260942 0.00123163 0.000455166)
(1.2182e-05 0.00121318 0.000259048)
(-0.000236085 0.00102296 0.000109064)
(-0.000428733 0.000658522 4.25099e-05)
(-0.000517788 0.000212946 0.00010254)
(-0.000497402 -0.000171347 0.000261196)
(-0.000403751 -0.000411901 0.000451899)
(-0.000280684 -0.000505999 0.000639873)
(-0.000163797 -0.000479323 0.000810255)
(-8.12153e-05 -0.000370468 0.000947558)
(-5.47975e-05 -0.000222771 0.00102895)
(-9.86145e-05 -8.13299e-05 0.00103425)
(-0.000215376 7.61924e-06 0.000980589)
(-0.000366424 4.75293e-06 0.000956388)
(-0.000492332 -0.000102746 0.000941493)
(-0.000555867 -0.000298852 0.000862289)
(-0.000538549 -0.00054067 0.000700879)
(-0.000431856 -0.000767689 0.000474515)
(-0.00024035 -0.000907856 0.000213053)
(1.24541e-05 -0.000892062 -5.14309e-05)
(0.00028233 -0.000676682 -0.000281389)
(0.000508988 -0.000265817 -0.000419173)
(2.21353e-05 0.00084181 -0.000890926)
(6.6262e-05 0.00153287 -0.000874939)
(6.35421e-05 0.001989 -0.000700904)
(5.97587e-05 0.00220511 -0.000379469)
(8.98578e-05 0.00223282 8.33742e-05)
(0.000162874 0.00214021 0.000672092)
(0.000267672 0.00199425 0.00134829)
(0.00038418 0.00185213 0.00203233)
(0.000503179 0.00175448 0.002579)
(0.000616843 0.00172661 0.00274427)
(0.000673785 0.00175749 0.00240932)
(0.000636072 0.00182422 0.00182686)
(0.000569487 0.00189854 0.00121309)
(0.000484434 0.00192807 0.00066793)
(0.000376573 0.00185856 0.000230569)
(0.000241211 0.00163638 -9.57111e-05)
(8.82538e-05 0.0012175 -0.000319452)
(-5.55652e-05 0.000599385 -0.000430645)
(-0.000150416 -0.000109232 -0.000401932)
(-0.000173075 -0.000734667 -0.000246236)
(-0.000137746 -0.00115672 -2.23806e-05)
(-7.98173e-05 -0.00136873 0.000236406)
(-3.24087e-05 -0.00141759 0.000530824)
(-1.39115e-05 -0.00136467 0.000877455)
(-3.13829e-05 -0.00126888 0.00128952)
(-8.64776e-05 -0.00117904 0.0017498)
(-0.00018511 -0.00112887 0.00217534)
(-0.000325332 -0.00113743 0.00236482)
(-0.000467525 -0.00119539 0.0021642)
(-0.000535637 -0.00128689 0.00171587)
(-0.000576081 -0.00139017 0.00119172)
(-0.000582206 -0.00144391 0.000684119)
(-0.000534961 -0.00137928 0.000234729)
(-0.000421547 -0.00113133 -0.000149884)
(-0.00025848 -0.000653148 -0.000479339)
(-9.2594e-05 4.85177e-05 -0.000743437)
(0.000290472 0.000583462 -0.000684391)
(0.000346796 0.00117714 -0.000552503)
(0.000343031 0.00155227 -0.000288527)
(0.00032039 0.00172051 7.01949e-05)
(0.000311777 0.0017222 0.000502182)
(0.000333212 0.001615 0.000979224)
(0.000386715 0.00146076 0.0014585)
(0.000466838 0.00131499 0.0018797)
(0.000568572 0.00122145 0.00216582)
(0.000669889 0.00120626 0.00223062)
(0.000737396 0.00127803 0.00205333)
(0.000731187 0.00141435 0.00171343)
(0.000664741 0.00156623 0.00130323)
(0.000547386 0.00168154 0.000890838)
(0.00038463 0.00170281 0.00051919)
(0.000187246 0.00157401 0.00021198)
(-1.9391e-05 0.00125447 -1.5109e-05)
(-0.000198706 0.000729012 -0.000128176)
(-0.000306593 0.000109229 -7.41085e-05)
(-0.000325797 -0.000430091 0.000117192)
(-0.000279485 -0.000781129 0.000360526)
(-0.000206192 -0.000951464 0.000617161)
(-0.000140473 -0.000976862 0.000879981)
(-0.000105066 -0.000907559 0.00114963)
(-0.000112288 -0.000795945 0.00142185)
(-0.000167195 -0.000688168 0.00167737)
(-0.000270668 -0.000620728 0.00187252)
(-0.000405676 -0.000615329 0.00193182)
(-0.000535392 -0.000690931 0.00180688)
(-0.000611501 -0.000842048 0.00153006)
(-0.000631197 -0.00102098 0.00116038)
(-0.00058689 -0.00116631 0.00075089)
(-0.000469917 -0.00120549 0.00034043)
(-0.000284547 -0.00106743 -4.48713e-05)
(-6.16251e-05 -0.000704577 -0.000381576)
(0.000148144 -0.000110695 -0.000622853)
(0.000584249 0.000312902 -0.000451546)
(0.000640254 0.000801698 -0.000230556)
(0.000623609 0.00110732 0.000108456)
(0.000570609 0.00123053 0.00050045)
(0.000512246 0.00120348 0.000899882)
(0.000474009 0.00107633 0.00126331)
(0.000473929 0.000908586 0.00154383)
(0.000521665 0.000758408 0.00170154)
(0.000615414 0.000674072 0.00173541)
(0.000743767 0.00068942 0.00172529)
(0.000836468 0.000805575 0.00169102)
(0.000853236 0.0010002 0.00157951)
(0.000782038 0.00122788 0.00137198)
(0.0006263 0.00143127 0.00109561)
(0.000400601 0.00154512 0.000794576)
(0.000132329 0.00150668 0.000514212)
(-0.000136424 0.00127414 0.00030093)
(-0.000351879 0.000850376 0.000209087)
(-0.00046772 0.00033921 0.000281624)
(-0.000476591 -0.000104479 0.000482124)
(-0.000411646 -0.000392639 0.000732809)
(-0.000315413 -0.000520585 0.000984893)
(-0.000224537 -0.000515859 0.00121541)
(-0.00016772 -0.000421247 0.00140657)
(-0.000163721 -0.000285397 0.00153597)
(-0.000220677 -0.000155687 0.00158149)
(-0.000332126 -7.56269e-05 0.00154744)
(-0.000490283 -8.61237e-05 0.00150528)
(-0.000623597 -0.000200798 0.0014602)
(-0.000695366 -0.000407645 0.00134573)
(-0.000684777 -0.000663816 0.00112592)
(-0.000579403 -0.000904161 0.00081291)
(-0.000381513 -0.00104676 0.0004414)
(-0.000115177 -0.00101109 5.8318e-05)
(0.000173434 -0.0007472 -0.000274305)
(0.000424513 -0.000264581 -0.00047188)
(5.10472e-05 0.000849075 -0.000616527)
(0.000100064 0.00154736 -0.00065748)
(0.000109196 0.00203088 -0.00052031)
(0.000118655 0.00228593 -0.000199005)
(0.000159189 0.00235399 0.000299364)
(0.000240605 0.00229592 0.000949085)
(0.000355151 0.00217551 0.00169846)
(0.000484701 0.00205165 0.00245816)
(0.00061407 0.00197457 0.00308544)
(0.000743587 0.00197635 0.00335682)
(0.000830768 0.00203935 0.00312041)
(0.000775733 0.00212638 0.00254444)
(0.000669591 0.00221005 0.00187411)
(0.00053669 0.00222805 0.00124824)
(0.000386663 0.00212539 0.00073673)
(0.000222443 0.00185782 0.000362257)
(5.45857e-05 0.00139919 0.000122304)
(-9.26441e-05 0.000766651 1.24476e-05)
(-0.000186352 6.54924e-05 2.79466e-05)
(-0.000208695 -0.00055559 0.000149714)
(-0.000174775 -0.00099199 0.000344383)
(-0.000120812 -0.00123028 0.000590523)
(-8.00743e-05 -0.00130862 0.000887524)
(-7.0625e-05 -0.00128299 0.00124522)
(-9.81088e-05 -0.00121019 0.00166837)
(-0.000161783 -0.00114043 0.00213561)
(-0.000261011 -0.00111532 0.00257325)
(-0.000403478 -0.00115978 0.00281916)
(-0.000564388 -0.00125654 0.0027177)
(-0.000629671 -0.00137168 0.00230184)
(-0.000642115 -0.00148584 0.00175167)
(-0.000608515 -0.00153305 0.00118788)
(-0.000526035 -0.00144422 0.000674533)
(-0.000391865 -0.00116221 0.000235037)
(-0.000222959 -0.000654541 -0.000131962)
(-6.07854e-05 5.71231e-05 -0.000424947)
(0.000207057 0.000614035 -0.000465513)
(0.000287622 0.00121773 -0.000364722)
(0.000318391 0.00161643 -0.000106114)
(0.000334638 0.00181483 0.000276279)
(0.000364001 0.00185198 0.000757287)
(0.000419055 0.00178217 0.00130222)
(0.000499476 0.00166387 0.00185961)
(0.000597594 0.00155036 0.00235973)
(0.000706511 0.00148382 0.00271767)
(0.000812789 0.0014866 0.00284231)
(0.00088207 0.00156778 0.00270074)
(0.000868316 0.00170837 0.00235505)
(0.000786342 0.00185426 0.00190302)
(0.000652308 0.00195201 0.00143083)
(0.00047726 0.00194593 0.00099917)
(0.000274143 0.00178527 0.000645609)
(6.56869e-05 0.00143624 0.000395304)
(-0.000116585 0.000898598 0.000280838)
(-0.000236005 0.000279642 0.000327128)
(-0.000276332 -0.000263483 0.000498969)
(-0.000256161 -0.000632904 0.000731364)
(-0.000211721 -0.000828899 0.000988169)
(-0.000175919 -0.000885034 0.0012602)
(-0.000169287 -0.000849365 0.00154532)
(-0.000200384 -0.000772754 0.00183614)
(-0.000269805 -0.000699956 0.0021108)
(-0.000375844 -0.000665126 0.00232648)
(-0.000510604 -0.000684163 0.00241606)
(-0.000641608 -0.000772184 0.00232557)
(-0.000716469 -0.000926348 0.00205872)
(-0.000728167 -0.00109861 0.00166692)
(-0.00067433 -0.00122745 0.00121028)
(-0.000552275 -0.00124262 0.000738764)
(-0.000368885 -0.00107759 0.000291012)
(-0.000151659 -0.000689582 -9.66351e-05)
(5.54069e-05 -8.37923e-05 -0.000370918)
(0.000419157 0.000366431 -0.000297271)
(0.000513702 0.000869457 -7.3234e-05)
(0.000548486 0.00119168 0.000293449)
(0.000555539 0.00133525 0.000733882)
(0.000559056 0.00133651 0.00119801)
(0.000575866 0.00124575 0.00163797)
(0.00061543 0.00111854 0.00200135)
(0.000681486 0.00100606 0.00223851)
(0.000770166 0.000948299 0.00232871)
(0.000889023 0.000975464 0.00232488)
(0.000971758 0.0010928 0.0022793)
(0.000985428 0.00127986 0.00215413)
(0.000917689 0.00149243 0.00191918)
(0.000770399 0.00167698 0.00160224)
(0.000555944 0.00177134 0.00125334)
(0.000298447 0.00171411 0.000927573)
(3.53173e-05 0.00146383 0.000682709)
(-0.000185859 0.00102714 0.000578291)
(-0.000322857 0.000505639 0.000648814)
(-0.000366412 4.83349e-05 0.000852923)
(-0.00034497 -0.000258974 0.00111309)
(-0.000297566 -0.000410967 0.00137936)
(-0.000256994 -0.00043679 0.00162768)
(-0.00024644 -0.000379464 0.00184076)
(-0.000277599 -0.000285767 0.00199777)
(-0.000352258 -0.00019749 0.00207518)
(-0.00046083 -0.000148145 0.0020628)
(-0.000611549 -0.000170161 0.00200436)
(-0.000737713 -0.00028373 0.00194612)
(-0.000809788 -0.000480033 0.00182671)
(-0.000807853 -0.000717888 0.0015867)
(-0.00071822 -0.000936913 0.00123223)
(-0.000539862 -0.00105903 0.000799335)
(-0.000292089 -0.00100462 0.000344355)
(-1.49578e-05 -0.000722244 -5.41534e-05)
(0.000238391 -0.000223853 -0.000296264)
(7.4988e-05 0.00078605 -8.37358e-05)
(0.000114642 0.00143293 -0.000197983)
(0.000131456 0.00190337 -0.000136935)
(0.000158602 0.00217845 0.00012778)
(0.000218332 0.00228938 0.000594685)
(0.000317193 0.00228733 0.00123429)
(0.000447969 0.00222803 0.00198961)
(0.000593569 0.00216426 0.0027707)
(0.00073528 0.002143 0.00344408)
(0.000868319 0.00219205 0.00382257)
(0.000950338 0.002286 0.00373583)
(0.000881966 0.00237796 0.00323368)
(0.000741323 0.00245208 0.00257738)
(0.000563683 0.00244715 0.00193746)
(0.000374652 0.00231164 0.00140715)
(0.000189681 0.0020148 0.00102458)
(2.23575e-05 0.00155172 0.000789699)
(-0.000109053 0.000957603 0.000681491)
(-0.000185399 0.000324695 0.000669198)
(-0.000201943 -0.000235728 0.000730707)
(-0.000177168 -0.000645226 0.000856048)
(-0.000143089 -0.00088903 0.00104118)
(-0.00012708 -0.000995653 0.00128926)
(-0.00014274 -0.00101212 0.00160597)
(-0.000191497 -0.000988775 0.00199028)
(-0.000268294 -0.000971453 0.00242085)
(-0.000367682 -0.000998751 0.00283849)
(-0.000492017 -0.0010921 0.00313012)
(-0.000623721 -0.00122763 0.00314802)
(-0.000683483 -0.00135816 0.00282372)
(-0.000662717 -0.00146435 0.00231949)
(-0.000585177 -0.00149343 0.00177192)
(-0.000465587 -0.00138364 0.00126003)
(-0.00031545 -0.00109012 0.000819499)
(-0.000154212 -0.000596794 0.000452776)
(-1.45338e-05 6.34239e-05 0.000149551)
(9.42037e-05 0.000596296 -2.33569e-06)
(0.000188665 0.00116238 4.04992e-05)
(0.000250899 0.00155356 0.000246314)
(0.000309114 0.00176851 0.000594708)
(0.0003833 0.00184359 0.00106362)
(0.00047998 0.00182762 0.00161726)
(0.00059449 0.00177108 0.00220099)
(0.000715977 0.00171851 0.00274158)
(0.00083436 0.00170354 0.00315272)
(0.000939376 0.0017423 0.00334722)
(0.000998808 0.00183808 0.00327605)
(0.00097652 0.00197256 0.00297115)
(0.000881913 0.00209771 0.00253063)
(0.000736355 0.00216541 0.00205315)
(0.000556892 0.00212767 0.00161193)
(0.000359379 0.00194425 0.00125413)
(0.000162949 0.00159199 0.00100862)
(-8.51823e-06 0.001084 0.000897605)
(-0.000128405 0.000514441 0.000920961)
(-0.000185474 1.12347e-05 0.00104285)
(-0.000195891 -0.000344905 0.00122008)
(-0.000191084 -0.000550336 0.00142887)
(-0.000198573 -0.00063578 0.00166326)
(-0.000233268 -0.000644878 0.00192047)
(-0.000297678 -0.00062274 0.00219138)
(-0.000386658 -0.000607304 0.00245418)
(-0.000494207 -0.000624565 0.00267147)
(-0.000615184 -0.000684874 0.0027912)
(-0.000728523 -0.000792181 0.00275601)
(-0.000794102 -0.000939305 0.00253988)
(-0.000793411 -0.00108979 0.00218131)
(-0.000729068 -0.00118916 0.0017396)
(-0.00060588 -0.00117667 0.00126924)
(-0.000434732 -0.00099686 0.000815328)
(-0.000238651 -0.000616011 0.000419253)
(-5.13806e-05 -4.84129e-05 0.000130354)
(0.000188643 0.000393387 8.76536e-05)
(0.000317273 0.000872732 0.000276392)
(0.000403271 0.00118845 0.00061702)
(0.00047363 0.00134321 0.00104697)
(0.000545658 0.00137601 0.00151967)
(0.000626486 0.00133501 0.00198847)
(0.000715832 0.00126771 0.00239913)
(0.000810531 0.00121354 0.00269517)
(0.000905314 0.00120018 0.00283967)
(0.00101014 0.00124847 0.00285713)
(0.0010819 0.00136993 0.00282038)
(0.00109401 0.00154475 0.00270703)
(0.00103428 0.00173067 0.00247976)
(0.000904793 0.00188265 0.00216475)
(0.00071554 0.00194905 0.00181401)
(0.000484895 0.00187674 0.0014868)
(0.000241937 0.00162799 0.00124321)
(2.576e-05 0.00121084 0.0011371)
(-0.000126712 0.000716398 0.00119069)
(-0.000204318 0.000277811 0.0013625)
(-0.000230101 -2.53369e-05 0.00158483)
(-0.000239363 -0.000188881 0.00181697)
(-0.000259646 -0.000244307 0.00204019)
(-0.000306231 -0.000233476 0.00224013)
(-0.000382299 -0.000197508 0.00239805)
(-0.000482759 -0.000168532 0.00249013)
(-0.000597316 -0.000166827 0.00249718)
(-0.000726852 -0.000209982 0.00243826)
(-0.000840043 -0.000324982 0.00238115)
(-0.000910801 -0.000504434 0.00227736)
(-0.00091742 -0.000710719 0.0020558)
(-0.000848275 -0.000892537 0.00171219)
(-0.000700749 -0.000983622 0.0012776)
(-0.000488276 -0.000914104 0.000809333)
(-0.000241223 -0.000636321 0.000390298)
(-2.17689e-06 -0.000162897 0.000122509)
(9.85757e-05 0.000681817 0.000647967)
(0.000120296 0.00124289 0.000458647)
(0.000140121 0.00167245 0.000421974)
(0.000185741 0.00195155 0.000589349)
(0.000269495 0.00210292 0.000971457)
(0.000391193 0.0021674 0.00154255)
(0.000540716 0.00218988 0.00224803)
(0.000699855 0.00221198 0.00300599)
(0.00084667 0.00226938 0.00370181)
(0.000967247 0.00237878 0.00418168)
(0.00102573 0.00250675 0.00425278)
(0.00095818 0.0026005 0.00386801)
(0.000791044 0.00265446 0.00328516)
(0.000576705 0.00262216 0.00269064)
(0.000357103 0.00246019 0.00219022)
(0.000161097 0.00215235 0.00183149)
(6.46113e-06 0.00171267 0.00161381)
(-9.63175e-05 0.00118825 0.001503)
(-0.000146299 0.000654053 0.00145268)
(-0.00015569 0.000184142 0.00144022)
(-0.000147274 -0.000171531 0.0014727)
(-0.000146189 -0.000402671 0.00156388)
(-0.000169784 -0.000531021 0.00172508)
(-0.000223211 -0.000594415 0.00196222)
(-0.000300762 -0.000634156 0.0022724)
(-0.00039059 -0.000687096 0.0026384)
(-0.000480965 -0.000781774 0.00301948)
(-0.000567044 -0.000931104 0.00333909)
(-0.00064774 -0.00110867 0.0034577)
(-0.000696383 -0.00125977 0.00326674)
(-0.000642199 -0.00135131 0.00286814)
(-0.000525646 -0.00135946 0.00239742)
(-0.000374589 -0.00123718 0.00194298)
(-0.000214029 -0.000953764 0.00154687)
(-6.72926e-05 -0.000507194 0.00121097)
(4.11759e-05 6.515e-05 0.000914159)
(-2.1282e-05 0.00054726 0.00065948)
(7.59412e-05 0.00104685 0.000630447)
(0.000161547 0.00140761 0.000752049)
(0.000257904 0.00162624 0.00102282)
(0.000376975 0.0017361 0.00142954)
(0.000517766 0.00178003 0.00194048)
(0.000669485 0.00179879 0.00250355)
(0.000816419 0.00182482 0.00304868)
(0.000944043 0.00187916 0.0034944)
(0.00104252 0.00196897 0.00375789)
(0.00108891 0.00208692 0.00377168)
(0.00106112 0.00221375 0.00353937)
(0.000957104 0.00231459 0.00315482)
(0.000803657 0.00235036 0.0027204)
(0.000624344 0.00228459 0.00231402)
(0.000438303 0.00208989 0.00198675)
(0.000261498 0.00175493 0.00176568)
(0.000109532 0.00130164 0.00165897)
(-2.73663e-06 0.00080718 0.00164872)
(-7.17904e-05 0.000369046 0.00170212)
(-0.000113046 4.89556e-05 0.00179601)
(-0.00015242 -0.00015043 0.00192319)
(-0.000210076 -0.000258192 0.00208496)
(-0.000293094 -0.000313504 0.00228056)
(-0.00039621 -0.000354023 0.0025015)
(-0.000507031 -0.000408036 0.00272899)
(-0.000613886 -0.000490562 0.00293367)
(-0.000712381 -0.000603999 0.00307559)
(-0.000797867 -0.000737846 0.00309888)
(-0.000847076 -0.000879891 0.00296125)
(-0.000830002 -0.001008 0.00268006)
(-0.000754024 -0.00107836 0.00230569)
(-0.000631046 -0.00104394 0.00189072)
(-0.000475756 -0.000863184 0.00148046)
(-0.000307333 -0.000513105 0.00111356)
(-0.000149318 -1.32029e-05 0.000828445)
(-5.86886e-05 0.000398964 0.000673561)
(9.28053e-05 0.000830616 0.00079935)
(0.000221203 0.00112219 0.00107304)
(0.000348535 0.00127824 0.00144598)
(0.000485991 0.00133945 0.00187969)
(0.000631791 0.0013512 0.00233238)
(0.000776005 0.0013519 0.00275189)
(0.000907482 0.00136778 0.00307958)
(0.00101817 0.00141225 0.00326844)
(0.00111282 0.0014943 0.00332033)
(0.00117718 0.00162752 0.00330493)
(0.00118768 0.00179259 0.00321889)
(0.00113583 0.00195241 0.00302874)
(0.00102514 0.00207118 0.00275363)
(0.000863928 0.00211065 0.00244176)
(0.000664653 0.00202969 0.00215048)
(0.00044723 0.00179658 0.0019344)
(0.000241731 0.00141843 0.00183446)
(7.96472e-05 0.000972603 0.0018603)
(-2.66444e-05 0.000573424 0.00197467)
(-9.56401e-05 0.000292618 0.00212617)
(-0.000159647 0.000130654 0.00228972)
(-0.00024114 5.25857e-05 0.00245529)
(-0.000347361 1.7712e-05 0.00261283)
(-0.000472693 -8.47917e-06 0.00274654)
(-0.00060428 -4.71764e-05 0.00283439)
(-0.000729303 -0.000104523 0.00285467)
(-0.000840374 -0.000182685 0.00281057)
(-0.000943035 -0.000307144 0.00276169)
(-0.00100633 -0.000472392 0.00268507)
(-0.00101428 -0.00064875 0.00251351)
(-0.000960604 -0.000794179 0.00222591)
(-0.000843124 -0.00085639 0.00184299)
(-0.000669748 -0.000778905 0.00141579)
(-0.000460814 -0.000521333 0.00102012)
(-0.000247219 -9.64855e-05 0.000747724)
(0.000127081 0.000562095 0.00150845)
(0.000133694 0.00102179 0.00125468)
(0.000157532 0.00139429 0.00111777)
(0.000220918 0.00166568 0.00116864)
(0.000327573 0.00185223 0.00143381)
(0.000470152 0.00198439 0.00189757)
(0.000633697 0.00209467 0.00251414)
(0.000796382 0.00221085 0.00321481)
(0.0009331 0.00235376 0.00390518)
(0.00102666 0.00252935 0.00445472)
(0.00106491 0.0027021 0.00466328)