/*--------------------------------*- C++ -*----------------------------------*\
| =========                 |                                                 |
| \\      /  F ield         | OpenFOAM: The Open Source CFD Toolbox           |
|  \\    /   O peration     | Version:  2312                                  |
|   \\  /    A nd           | Website:  www.openfoam.com                      |
|    \\/     M anipulation  |                                                 |
\*---------------------------------------------------------------------------*/
FoamFile
{
    version     2.0;
    format      ascii;
    arch        "LSB;label=32;scalar=64";
    class       volVectorField;
    location    "0.2";
    object      D;
}
// * * * * * * * * * * * * * * * * * * * * * * * * * * * * * * * * * * * * * //

dimensions      [0 1 0 0 0 0 0];

internalField   nonuniform List<vector> 
1620
(
(9.39578e-05 -0.000192213 3.20241e-05)
(0.000125908 -0.000172977 3.20242e-05)
(0.000154032 -0.000148485 3.20242e-05)
(0.000177476 -0.000119482 3.20242e-05)
(0.000195528 -8.68484e-05 3.20243e-05)
(0.000207638 -5.15759e-05 3.20242e-05)
(0.00021344 -1.47363e-05 3.20241e-05)
(0.000212756 2.25508e-05 3.2024e-05)
(0.000205608 5.91529e-05 3.20241e-05)
(0.000192213 9.39578e-05 3.20241e-05)
(0.000172977 0.000125908 3.20242e-05)
(0.000148485 0.000154032 3.20242e-05)
(0.000119482 0.000177476 3.20242e-05)
(8.68484e-05 0.000195528 3.20243e-05)
(5.15759e-05 0.000207638 3.20242e-05)
(1.47363e-05 0.00021344 3.20241e-05)
(-2.25508e-05 0.000212756 3.2024e-05)
(-5.91529e-05 0.000205608 3.20241e-05)
(-9.39578e-05 0.000192213 3.20241e-05)
(-0.000125908 0.000172977 3.20242e-05)
(-0.000154032 0.000148485 3.20242e-05)
(-0.000177476 0.000119482 3.20242e-05)
(-0.000195528 8.68484e-05 3.20243e-05)
(-0.000207638 5.15759e-05 3.20242e-05)
(-0.00021344 1.47363e-05 3.20241e-05)
(-0.000212756 -2.25508e-05 3.2024e-05)
(-0.000205608 -5.91529e-05 3.20241e-05)
(-0.000192213 -9.39578e-05 3.20241e-05)
(-0.000172977 -0.000125908 3.20242e-05)
(-0.000148485 -0.000154032 3.20242e-05)
(-0.000119482 -0.000177476 3.20242e-05)
(-8.68484e-05 -0.000195528 3.20243e-05)
(-5.15759e-05 -0.000207638 3.20242e-05)
(-1.47363e-05 -0.00021344 3.20241e-05)
(2.25508e-05 -0.000212756 3.2024e-05)
(5.91529e-05 -0.000205608 3.20241e-05)
(6.31186e-05 -0.000191636 3.381e-05)
(9.5437e-05 -0.000177764 3.38101e-05)
(0.000124855 -0.000158491 3.38101e-05)
(0.00015048 -0.000134403 3.38101e-05)
(0.000171533 -0.00010623 3.38102e-05)
(0.000187374 -7.48295e-05 3.38102e-05)
(0.000197521 -4.11557e-05 3.38101e-05)
(0.000201667 -6.23138e-06 3.38101e-05)
(0.000199685 2.88824e-05 3.381e-05)
(0.000191636 6.31186e-05 3.381e-05)
(0.000177764 9.5437e-05 3.38101e-05)
(0.000158491 0.000124855 3.38101e-05)
(0.000134403 0.00015048 3.38101e-05)
(0.00010623 0.000171533 3.38102e-05)
(7.48295e-05 0.000187374 3.38102e-05)
(4.11557e-05 0.000197521 3.38101e-05)
(6.23138e-06 0.000201667 3.38101e-05)
(-2.88824e-05 0.000199685 3.381e-05)
(-6.31186e-05 0.000191636 3.381e-05)
(-9.5437e-05 0.000177764 3.38101e-05)
(-0.000124855 0.000158491 3.38101e-05)
(-0.00015048 0.000134403 3.38101e-05)
(-0.000171533 0.00010623 3.38102e-05)
(-0.000187374 7.48295e-05 3.38102e-05)
(-0.000197521 4.11557e-05 3.38101e-05)
(-0.000201667 6.23138e-06 3.38101e-05)
(-0.000199685 -2.88824e-05 3.381e-05)
(-0.000191636 -6.31186e-05 3.381e-05)
(-0.000177764 -9.5437e-05 3.38101e-05)
(-0.000158491 -0.000124855 3.38101e-05)
(-0.000134403 -0.00015048 3.38101e-05)
(-0.00010623 -0.000171533 3.38102e-05)
(-7.48295e-05 -0.000187374 3.38102e-05)
(-4.11557e-05 -0.000197521 3.38101e-05)
(-6.23138e-06 -0.000201667 3.38101e-05)
(2.88824e-05 -0.000199685 3.381e-05)
(2.36903e-05 -0.000191092 3.33578e-05)
(5.65132e-05 -0.000184075 3.33578e-05)
(8.7619e-05 -0.000171465 3.33579e-05)
(0.000116062 -0.000153645 3.33579e-05)
(0.00014098 -0.000131157 3.33579e-05)
(0.000161613 -0.000104684 3.33578e-05)
(0.000177336 -7.50297e-05 3.33579e-05)
(0.000187671 -4.30957e-05 3.33579e-05)
(0.000192303 -9.85237e-06 3.33578e-05)
(0.000191092 2.36903e-05 3.33578e-05)
(0.000184075 5.65132e-05 3.33578e-05)
(0.000171465 8.7619e-05 3.33579e-05)
(0.000153645 0.000116062 3.33579e-05)
(0.000131157 0.00014098 3.33579e-05)
(0.000104684 0.000161613 3.33578e-05)
(7.50297e-05 0.000177336 3.33579e-05)
(4.30957e-05 0.000187671 3.33579e-05)
(9.85237e-06 0.000192303 3.33578e-05)
(-2.36903e-05 0.000191092 3.33578e-05)
(-5.65132e-05 0.000184075 3.33578e-05)
(-8.7619e-05 0.000171465 3.33579e-05)
(-0.000116062 0.000153645 3.33579e-05)
(-0.00014098 0.000131157 3.33579e-05)
(-0.000161613 0.000104684 3.33578e-05)
(-0.000177336 7.50297e-05 3.33579e-05)
(-0.000187671 4.30957e-05 3.33579e-05)
(-0.000192303 9.85237e-06 3.33578e-05)
(-0.000191092 -2.36903e-05 3.33578e-05)
(-0.000184075 -5.65132e-05 3.33578e-05)
(-0.000171465 -8.7619e-05 3.33579e-05)
(-0.000153645 -0.000116062 3.33579e-05)
(-0.000131157 -0.00014098 3.33579e-05)
(-0.000104684 -0.000161613 3.33578e-05)
(-7.50297e-05 -0.000177336 3.33579e-05)
(-4.30957e-05 -0.000187671 3.33579e-05)
(-9.85237e-06 -0.000192303 3.33578e-05)
(0.000218585 -0.000578006 0.000116042)
(0.000315634 -0.000531268 0.000116043)
(0.000403092 -0.000468388 0.000116043)
(0.000478303 -0.000391275 0.000116043)
(0.000538981 -0.000302275 0.000116043)
(0.000583282 -0.000204089 0.000116043)
(0.000609861 -9.97031e-05 0.000116043)
(0.000617909 7.71272e-06 0.000116042)
(0.000607182 0.000114894 0.000116042)
(0.000578006 0.000218585 0.000116042)
(0.000531268 0.000315634 0.000116043)
(0.000468388 0.000403092 0.000116043)
(0.000391275 0.000478303 0.000116043)
(0.000302275 0.000538981 0.000116043)
(0.000204089 0.000583282 0.000116043)
(9.97031e-05 0.000609861 0.000116043)
(-7.71272e-06 0.000617909 0.000116042)
(-0.000114894 0.000607182 0.000116042)
(-0.000218585 0.000578006 0.000116042)
(-0.000315634 0.000531268 0.000116043)
(-0.000403092 0.000468388 0.000116043)
(-0.000478303 0.000391275 0.000116043)
(-0.000538981 0.000302275 0.000116043)
(-0.000583282 0.000204089 0.000116043)
(-0.000609861 9.97031e-05 0.000116043)
(-0.000617909 -7.71272e-06 0.000116042)
(-0.000607182 -0.000114894 0.000116042)
(-0.000578006 -0.000218585 0.000116042)
(-0.000531268 -0.000315634 0.000116043)
(-0.000468388 -0.000403092 0.000116043)
(-0.000391275 -0.000478303 0.000116043)
(-0.000302275 -0.000538981 0.000116043)
(-0.000204089 -0.000583282 0.000116043)
(-9.97031e-05 -0.000609861 0.000116043)
(7.71272e-06 -0.000617909 0.000116042)
(0.000114894 -0.000607182 0.000116042)
(0.000174356 -0.000569999 0.000127759)
(0.000270687 -0.000531063 0.000127759)
(0.000358793 -0.000475991 0.000127759)
(0.000435997 -0.000406456 0.00012776)
(0.000499953 -0.000324571 0.00012776)
(0.000548719 -0.000232824 0.00012776)
(0.000580812 -0.000134003 0.000127759)
(0.000595257 -3.11099e-05 0.000127759)
(0.000591617 7.27279e-05 0.000127759)
(0.000569999 0.000174356 0.000127759)
(0.000531063 0.000270687 0.000127759)
(0.000475991 0.000358793 0.000127759)
(0.000406456 0.000435997 0.00012776)
(0.000324571 0.000499953 0.00012776)
(0.000232824 0.000548719 0.00012776)
(0.000134003 0.000580812 0.000127759)
(3.11099e-05 0.000595257 0.000127759)
(-7.27279e-05 0.000591617 0.000127759)
(-0.000174356 0.000569999 0.000127759)
(-0.000270687 0.000531063 0.000127759)
(-0.000358793 0.000475991 0.000127759)
(-0.000435997 0.000406456 0.00012776)
(-0.000499953 0.000324571 0.00012776)
(-0.000548719 0.000232824 0.00012776)
(-0.000580812 0.000134003 0.000127759)
(-0.000595257 3.11099e-05 0.000127759)
(-0.000591617 -7.27279e-05 0.000127759)
(-0.000569999 -0.000174356 0.000127759)
(-0.000531063 -0.000270687 0.000127759)
(-0.000475991 -0.000358793 0.000127759)
(-0.000406456 -0.000435997 0.00012776)
(-0.000324571 -0.000499953 0.00012776)
(-0.000232824 -0.000548719 0.00012776)
(-0.000134003 -0.000580812 0.000127759)
(-3.11099e-05 -0.000595257 0.000127759)
(7.27279e-05 -0.000591617 0.000127759)
(0.000120369 -0.000561166 0.00013637)
(0.000215985 -0.000531738 0.00013637)
(0.000305039 -0.000486154 0.00013637)
(0.000384825 -0.000425799 0.00013637)
(0.000452918 -0.000352506 0.00013637)
(0.000507249 -0.000268502 0.00013637)
(0.000546168 -0.00017634 0.00013637)
(0.000568492 -7.88204e-05 0.00013637)
(0.000573542 2.10946e-05 0.00013637)
(0.000561166 0.000120369 0.00013637)
(0.000531738 0.000215985 0.00013637)
(0.000486154 0.000305039 0.00013637)
(0.000425799 0.000384825 0.00013637)
(0.000352506 0.000452918 0.00013637)
(0.000268502 0.000507249 0.00013637)
(0.00017634 0.000546168 0.00013637)
(7.88204e-05 0.000568492 0.00013637)
(-2.10946e-05 0.000573542 0.00013637)
(-0.000120369 0.000561166 0.00013637)
(-0.000215985 0.000531738 0.00013637)
(-0.000305039 0.000486154 0.00013637)
(-0.000384825 0.000425799 0.00013637)
(-0.000452918 0.000352506 0.00013637)
(-0.000507249 0.000268502 0.00013637)
(-0.000546168 0.00017634 0.00013637)
(-0.000568492 7.88204e-05 0.00013637)
(-0.000573542 -2.10946e-05 0.00013637)
(-0.000561166 -0.000120369 0.00013637)
(-0.000531738 -0.000215985 0.00013637)
(-0.000486154 -0.000305039 0.00013637)
(-0.000425799 -0.000384825 0.00013637)
(-0.000352506 -0.000452918 0.00013637)
(-0.000268502 -0.000507249 0.00013637)
(-0.00017634 -0.000546168 0.00013637)
(-7.88204e-05 -0.000568492 0.00013637)
(2.10946e-05 -0.000573542 0.00013637)
(0.000327163 -0.000959073 0.000248658)
(0.000488734 -0.000887691 0.000248658)
(0.000635455 -0.000789337 0.000248658)
(0.000762868 -0.000666999 0.000248658)
(0.000867101 -0.000524396 0.000248658)
(0.000944988 -0.000365859 0.000248658)
(0.000994163 -0.000196205 0.000248658)
(0.00101313 -2.05894e-05 0.000248657)
(0.00100131 0.000155651 0.000248657)
(0.000959073 0.000327163 0.000248658)
(0.000887691 0.000488734 0.000248658)
(0.000789337 0.000635455 0.000248658)
(0.000666999 0.000762868 0.000248658)
(0.000524396 0.000867101 0.000248658)
(0.000365859 0.000944988 0.000248658)
(0.000196205 0.000994163 0.000248658)
(2.05894e-05 0.00101313 0.000248657)
(-0.000155651 0.00100131 0.000248657)
(-0.000327163 0.000959073 0.000248658)
(-0.000488734 0.000887691 0.000248658)
(-0.000635455 0.000789337 0.000248658)
(-0.000762868 0.000666999 0.000248658)
(-0.000867101 0.000524396 0.000248658)
(-0.000944988 0.000365859 0.000248658)
(-0.000994163 0.000196205 0.000248658)
(-0.00101313 2.05894e-05 0.000248657)
(-0.00100131 -0.000155651 0.000248657)
(-0.000959073 -0.000327163 0.000248658)
(-0.000887691 -0.000488734 0.000248658)
(-0.000789337 -0.000635455 0.000248658)
(-0.000666999 -0.000762868 0.000248658)
(-0.000524396 -0.000867101 0.000248658)
(-0.000365859 -0.000944988 0.000248658)
(-0.000196205 -0.000994163 0.000248658)
(-2.05894e-05 -0.00101313 0.000248657)
(0.000155651 -0.00100131 0.000248657)
(0.000267311 -0.00093741 0.000266369)
(0.00042603 -0.000876751 0.000266369)
(0.000571804 -0.000789451 0.000266369)
(0.000700203 -0.000678165 0.000266369)
(0.000807328 -0.000546273 0.000266369)
(0.000889922 -0.000397783 0.000266369)
(0.000945477 -0.000237206 0.000266369)
(0.000972303 -6.94223e-05 0.000266369)
(0.000969587 0.000100471 0.000266369)
(0.00093741 0.000267311 0.000266369)
(0.000876751 0.00042603 0.000266369)
(0.000789451 0.000571804 0.000266369)
(0.000678165 0.000700203 0.000266369)
(0.000546273 0.000807328 0.000266369)
(0.000397783 0.000889922 0.000266369)
(0.000237206 0.000945477 0.000266369)
(6.94223e-05 0.000972303 0.000266369)
(-0.000100471 0.000969587 0.000266369)
(-0.000267311 0.00093741 0.000266369)
(-0.00042603 0.000876751 0.000266369)
(-0.000571804 0.000789451 0.000266369)
(-0.000700203 0.000678165 0.000266369)
(-0.000807328 0.000546273 0.000266369)
(-0.000889922 0.000397783 0.000266369)
(-0.000945477 0.000237206 0.000266369)
(-0.000972303 6.94223e-05 0.000266369)
(-0.000969587 -0.000100471 0.000266369)
(-0.00093741 -0.000267311 0.000266369)
(-0.000876751 -0.00042603 0.000266369)
(-0.000789451 -0.000571804 0.000266369)
(-0.000678165 -0.000700203 0.000266369)
(-0.000546273 -0.000807328 0.000266369)
(-0.000397783 -0.000889922 0.000266369)
(-0.000237206 -0.000945477 0.000266369)
(-6.94223e-05 -0.000972303 0.000266369)
(0.000100471 -0.000969587 0.000266369)
(0.00019844 -0.00091375 0.000280758)
(0.000354096 -0.000865409 0.000280758)
(0.000498993 -0.000790774 0.000280758)
(0.000628729 -0.000692111 0.000280759)
(0.000739361 -0.000572419 0.000280759)
(0.000827528 -0.000435333 0.000280759)
(0.000890551 -0.000285021 0.000280758)
(0.000926514 -0.000126049 0.000280758)
(0.000934327 3.67535e-05 0.000280758)
(0.00091375 0.00019844 0.000280758)
(0.000865409 0.000354096 0.000280758)
(0.000790774 0.000498993 0.000280758)
(0.000692111 0.000628729 0.000280759)
(0.000572419 0.000739361 0.000280759)
(0.000435333 0.000827528 0.000280759)
(0.000285021 0.000890551 0.000280758)
(0.000126049 0.000926514 0.000280758)
(-3.67535e-05 0.000934327 0.000280758)
(-0.00019844 0.00091375 0.000280758)
(-0.000354096 0.000865409 0.000280758)
(-0.000498993 0.000790774 0.000280758)
(-0.000628729 0.000692111 0.000280759)
(-0.000739361 0.000572419 0.000280759)
(-0.000827528 0.000435333 0.000280759)
(-0.000890551 0.000285021 0.000280758)
(-0.000926514 0.000126049 0.000280758)
(-0.000934327 -3.67535e-05 0.000280758)
(-0.00091375 -0.00019844 0.000280758)
(-0.000865409 -0.000354096 0.000280758)
(-0.000790774 -0.000498993 0.000280758)
(-0.000692111 -0.000628729 0.000280759)
(-0.000572419 -0.000739361 0.000280759)
(-0.000435333 -0.000827528 0.000280759)
(-0.000285021 -0.000890551 0.000280758)
(-0.000126049 -0.000926514 0.000280758)
(3.67535e-05 -0.000934327 0.000280758)
(0.000406194 -0.00132916 0.000416172)
(0.00063083 -0.00123844 0.000416173)
(0.000836299 -0.00111008 0.000416173)
(0.00101636 -0.000947993 0.000416173)
(0.00116553 -0.000757102 0.000416173)
(0.0012793 -0.000543208 0.000416173)
(0.00135419 -0.000312808 0.000416172)
(0.00138793 -7.29032e-05 0.000416172)
(0.00137951 0.000169216 0.000416172)
(0.00132916 0.000406194 0.000416172)
(0.00123844 0.00063083 0.000416173)
(0.00111008 0.000836299 0.000416173)
(0.000947993 0.00101636 0.000416173)
(0.000757102 0.00116553 0.000416173)
(0.000543208 0.0012793 0.000416173)
(0.000312808 0.00135419 0.000416172)
(7.29032e-05 0.00138793 0.000416172)
(-0.000169216 0.00137951 0.000416172)
(-0.000406194 0.00132916 0.000416172)
(-0.00063083 0.00123844 0.000416173)
(-0.000836299 0.00111008 0.000416173)
(-0.00101636 0.000947993 0.000416173)
(-0.00116553 0.000757102 0.000416173)
(-0.0012793 0.000543208 0.000416173)
(-0.00135419 0.000312808 0.000416172)
(-0.00138793 7.29032e-05 0.000416172)
(-0.00137951 -0.000169216 0.000416172)
(-0.00132916 -0.000406194 0.000416172)
(-0.00123844 -0.00063083 0.000416173)
(-0.00111008 -0.000836299 0.000416173)
(-0.000947993 -0.00101636 0.000416173)
(-0.000757102 -0.00116553 0.000416173)
(-0.000543208 -0.0012793 0.000416173)
(-0.000312808 -0.00135419 0.000416172)
(-7.29032e-05 -0.00138793 0.000416172)
(0.000169216 -0.00137951 0.000416172)
(0.000334541 -0.00128567 0.000435969)
(0.000552713 -0.00120805 0.000435969)
(0.000754091 -0.00109371 0.000435969)
(0.000932557 -0.000946152 0.000435969)
(0.00108269 -0.000769841 0.000435969)
(0.00119992 -0.000570139 0.000435969)
(0.00128069 -0.000353114 0.000435969)
(0.00132255 -0.000125359 0.000435969)
(0.00132423 0.000106205 0.000435969)
(0.00128567 0.000334541 0.000435969)
(0.00120805 0.000552713 0.000435969)
(0.00109371 0.000754091 0.000435969)
(0.000946152 0.000932557 0.000435969)
(0.000769841 0.00108269 0.000435969)
(0.000570139 0.00119992 0.000435969)
(0.000353114 0.00128069 0.000435969)
(0.000125359 0.00132255 0.000435969)
(-0.000106205 0.00132423 0.000435969)
(-0.000334541 0.00128567 0.000435969)
(-0.000552713 0.00120805 0.000435969)
(-0.000754091 0.00109371 0.000435969)
(-0.000932557 0.000946152 0.000435969)
(-0.00108269 0.000769841 0.000435969)
(-0.00119992 0.000570139 0.000435969)
(-0.00128069 0.000353114 0.000435969)
(-0.00132255 0.000125359 0.000435969)
(-0.00132423 -0.000106205 0.000435969)
(-0.00128567 -0.000334541 0.000435969)
(-0.00120805 -0.000552713 0.000435969)
(-0.00109371 -0.000754091 0.000435969)
(-0.000946152 -0.000932557 0.000435969)
(-0.000769841 -0.00108269 0.000435969)
(-0.000570139 -0.00119992 0.000435969)
(-0.000353114 -0.00128069 0.000435969)
(-0.000125359 -0.00132255 0.000435969)
(0.000106205 -0.00132423 0.000435969)
(0.000254937 -0.00123978 0.000452224)
(0.000466349 -0.00117667 0.000452224)
(0.000663591 -0.00107782 0.000452224)
(0.000840671 -0.000946209 0.000452224)
(0.000992206 -0.000785853 0.000452224)
(0.00111359 -0.00060162 0.000452224)
(0.00120115 -0.000399106 0.000452224)
(0.0012522 -0.000184466 0.000452224)
(0.00126521 3.5779e-05 0.000452224)
(0.00123978 0.000254937 0.000452224)
(0.00117667 0.000466349 0.000452224)
(0.00107782 0.000663591 0.000452224)
(0.000946209 0.000840671 0.000452224)
(0.000785853 0.000992206 0.000452224)
(0.00060162 0.00111359 0.000452224)
(0.000399106 0.00120115 0.000452224)
(0.000184466 0.0012522 0.000452224)
(-3.5779e-05 0.00126521 0.000452224)
(-0.000254937 0.00123978 0.000452224)
(-0.000466349 0.00117667 0.000452224)
(-0.000663591 0.00107782 0.000452224)
(-0.000840671 0.000946209 0.000452224)
(-0.000992206 0.000785853 0.000452224)
(-0.00111359 0.00060162 0.000452224)
(-0.00120115 0.000399106 0.000452224)
(-0.0012522 0.000184466 0.000452224)
(-0.00126521 -3.5779e-05 0.000452224)
(-0.00123978 -0.000254937 0.000452224)
(-0.00117667 -0.000466349 0.000452224)
(-0.00107782 -0.000663591 0.000452224)
(-0.000946209 -0.000840671 0.000452224)
(-0.000785853 -0.000992206 0.000452224)
(-0.00060162 -0.00111359 0.000452224)
(-0.000399106 -0.00120115 0.000452224)
(-0.000184466 -0.0012522 0.000452224)
(3.5779e-05 -0.00126521 0.000452224)
(0.000453069 -0.00167922 0.000611101)
(0.000737778 -0.00157503 0.000611101)
(0.00100007 -0.00142299 0.000611101)
(0.00123198 -0.00122771 0.000611101)
(0.00142645 -0.000995127 0.000611101)
(0.00157758 -0.000732308 0.0006111)
(0.00168078 -0.000447239 0.0006111)
(0.00173291 -0.00014858 0.0006111)
(0.00173238 0.000154593 0.000611101)
(0.00167922 0.000453069 0.000611101)
(0.00157503 0.000737778 0.000611101)
(0.00142299 0.00100007 0.000611101)
(0.00122771 0.00123198 0.000611101)
(0.000995127 0.00142645 0.000611101)
(0.000732308 0.00157758 0.0006111)
(0.000447239 0.00168078 0.0006111)
(0.00014858 0.00173291 0.0006111)
(-0.000154593 0.00173238 0.000611101)
(-0.000453069 0.00167922 0.000611101)
(-0.000737778 0.00157503 0.000611101)
(-0.00100007 0.00142299 0.000611101)
(-0.00123198 0.00122771 0.000611101)
(-0.00142645 0.000995127 0.000611101)
(-0.00157758 0.000732308 0.0006111)
(-0.00168078 0.000447239 0.0006111)
(-0.00173291 0.00014858 0.0006111)
(-0.00173238 -0.000154593 0.000611101)
(-0.00167922 -0.000453069 0.000611101)
(-0.00157503 -0.000737778 0.000611101)
(-0.00142299 -0.00100007 0.000611101)
(-0.00122771 -0.00123198 0.000611101)
(-0.000995127 -0.00142645 0.000611101)
(-0.000732308 -0.00157758 0.0006111)
(-0.000447239 -0.00168078 0.0006111)
(-0.00014858 -0.00173291 0.0006111)
(0.000154593 -0.00173238 0.000611101)
(0.000373285 -0.00160634 0.000629344)
(0.000646551 -0.00151711 0.000629344)
(0.000900172 -0.00138179 0.000629344)
(0.00112644 -0.00120449 0.000629344)
(0.00131849 -0.000990582 0.000629344)
(0.00147047 -0.000746581 0.000629344)
(0.00157777 -0.000479894 0.000629344)
(0.00163713 -0.000198627 0.000629343)
(0.00164675 8.86761e-05 0.000629343)
(0.00160634 0.000373285 0.000629344)
(0.00151711 0.000646551 0.000629344)
(0.00138179 0.000900172 0.000629344)
(0.00120449 0.00112644 0.000629344)
(0.000990582 0.00131849 0.000629344)
(0.000746581 0.00147047 0.000629344)
(0.000479894 0.00157777 0.000629344)
(0.000198627 0.00163713 0.000629343)
(-8.86761e-05 0.00164675 0.000629343)
(-0.000373285 0.00160634 0.000629344)
(-0.000646551 0.00151711 0.000629344)
(-0.000900172 0.00138179 0.000629344)
(-0.00112644 0.00120449 0.000629344)
(-0.00131849 0.000990582 0.000629344)
(-0.00147047 0.000746581 0.000629344)
(-0.00157777 0.000479894 0.000629344)
(-0.00163713 0.000198627 0.000629343)
(-0.00164675 -8.86761e-05 0.000629343)
(-0.00160634 -0.000373285 0.000629344)
(-0.00151711 -0.000646551 0.000629344)
(-0.00138179 -0.000900172 0.000629344)
(-0.00120449 -0.00112644 0.000629344)
(-0.000990582 -0.00131849 0.000629344)
(-0.000746581 -0.00147047 0.000629344)
(-0.000479894 -0.00157777 0.000629344)
(-0.000198627 -0.00163713 0.000629343)
(8.86761e-05 -0.00164675 0.000629343)
(0.00028666 -0.00153121 0.000643874)
(0.000548198 -0.00145817 0.000643873)
(0.000793078 -0.00134083 0.000643874)
(0.00101386 -0.00118274 0.000643873)
(0.00120384 -0.000988717 0.000643874)
(0.00135724 -0.000764652 0.000643873)
(0.0014694 -0.000517353 0.000643874)
(0.00153691 -0.000254334 0.000643874)
(0.00155773 1.6412e-05 0.000643874)
(0.00153121 0.00028666 0.000643874)
(0.00145817 0.000548198 0.000643873)
(0.00134083 0.000793078 0.000643874)
(0.00118274 0.00101386 0.000643873)
(0.000988717 0.00120384 0.000643874)
(0.000764652 0.00135724 0.000643873)
(0.000517353 0.0014694 0.000643874)
(0.000254334 0.00153691 0.000643874)
(-1.6412e-05 0.00155773 0.000643874)
(-0.00028666 0.00153121 0.000643874)
(-0.000548198 0.00145817 0.000643873)
(-0.000793078 0.00134083 0.000643874)
(-0.00101386 0.00118274 0.000643873)
(-0.00120384 0.000988717 0.000643874)
(-0.00135724 0.000764652 0.000643873)
(-0.0014694 0.000517353 0.000643874)
(-0.00153691 0.000254334 0.000643874)
(-0.00155773 -1.6412e-05 0.000643874)
(-0.00153121 -0.00028666 0.000643874)
(-0.00145817 -0.000548198 0.000643873)
(-0.00134083 -0.000793078 0.000643874)
(-0.00118274 -0.00101386 0.000643873)
(-0.000988717 -0.00120384 0.000643874)
(-0.000764652 -0.00135724 0.000643873)
(-0.000517353 -0.0014694 0.000643874)
(-0.000254334 -0.00153691 0.000643874)
(1.6412e-05 -0.00155773 0.000643874)
(0.000468992 -0.00199883 0.000828302)
(0.00080896 -0.00188702 0.000828302)
(0.00112435 -0.00171788 0.000828302)
(0.00140557 -0.00149654 0.000828302)
(0.00164409 -0.00122973 0.000828302)
(0.00183265 -0.000925554 0.000828302)
(0.00196553 -0.000593256 0.000828302)
(0.00203869 -0.000242932 0.000828302)
(0.0020499 0.000114773 0.000828302)
(0.00199883 0.000468992 0.000828302)
(0.00188702 0.00080896 0.000828302)
(0.00171788 0.00112435 0.000828302)
(0.00149654 0.00140557 0.000828302)
(0.00122973 0.00164409 0.000828302)
(0.000925554 0.00183265 0.000828302)
(0.000593256 0.00196553 0.000828302)
(0.000242932 0.00203869 0.000828302)
(-0.000114773 0.0020499 0.000828302)
(-0.000468992 0.00199883 0.000828302)
(-0.00080896 0.00188702 0.000828302)
(-0.00112435 0.00171788 0.000828302)
(-0.00140557 0.00149654 0.000828302)
(-0.00164409 0.00122973 0.000828302)
(-0.00183265 0.000925554 0.000828302)
(-0.00196553 0.000593256 0.000828302)
(-0.00203869 0.000242932 0.000828302)
(-0.0020499 -0.000114773 0.000828302)
(-0.00199883 -0.000468992 0.000828302)
(-0.00188702 -0.00080896 0.000828302)
(-0.00171788 -0.00112435 0.000828302)
(-0.00149654 -0.00140557 0.000828302)
(-0.00122973 -0.00164409 0.000828302)
(-0.000925554 -0.00183265 0.000828302)
(-0.000593256 -0.00196553 0.000828302)
(-0.000242932 -0.00203869 0.000828302)
(0.000114773 -0.0020499 0.000828302)
(0.000384265 -0.00189039 0.000841514)
(0.00070669 -0.00179494 0.000841514)
(0.00100764 -0.00164496 0.000841514)
(0.00127798 -0.00144499 0.000841514)
(0.00150948 -0.00120112 0.000841514)
(0.00169512 -0.000920755 0.000841514)
(0.00182926 -0.000612411 0.000841513)
(0.00190781 -0.000285461 0.000841514)
(0.0019284 5.01645e-05 0.000841514)
(0.00189039 0.000384265 0.000841514)
(0.00179494 0.00070669 0.000841514)
(0.00164496 0.00100764 0.000841514)
(0.00144499 0.00127798 0.000841514)
(0.00120112 0.00150948 0.000841514)
(0.000920755 0.00169512 0.000841514)
(0.000612411 0.00182926 0.000841513)
(0.000285461 0.00190781 0.000841514)
(-5.01645e-05 0.0019284 0.000841514)
(-0.000384265 0.00189039 0.000841514)
(-0.00070669 0.00179494 0.000841514)
(-0.00100764 0.00164496 0.000841514)
(-0.00127798 0.00144499 0.000841514)
(-0.00150948 0.00120112 0.000841514)
(-0.00169512 0.000920755 0.000841514)
(-0.00182926 0.000612411 0.000841513)
(-0.00190781 0.000285461 0.000841514)
(-0.0019284 -5.01645e-05 0.000841514)
(-0.00189039 -0.000384265 0.000841514)
(-0.00179494 -0.00070669 0.000841514)
(-0.00164496 -0.00100764 0.000841514)
(-0.00144499 -0.00127798 0.000841514)
(-0.00120112 -0.00150948 0.000841514)
(-0.000920755 -0.00169512 0.000841514)
(-0.000612411 -0.00182926 0.000841513)
(-0.000285461 -0.00190781 0.000841514)
(5.01645e-05 -0.0019284 0.000841514)
(0.000293908 -0.00178027 0.000850843)
(0.000598584 -0.00170219 0.000850843)
(0.000885071 -0.00157238 0.000850843)
(0.00114467 -0.0013948 0.000850844)
(0.00136948 -0.00117484 0.000850843)
(0.00155269 -0.000919188 0.000850844)
(0.00168871 -0.000635603 0.000850843)
(0.00177343 -0.000332705 0.000850843)
(0.00180426 -1.96977e-05 0.000850843)
(0.00178027 0.000293908 0.000850843)
(0.00170219 0.000598584 0.000850843)
(0.00157238 0.000885071 0.000850843)
(0.0013948 0.00114467 0.000850844)
(0.00117484 0.00136948 0.000850843)
(0.000919188 0.00155269 0.000850844)
(0.000635603 0.00168871 0.000850843)
(0.000332705 0.00177343 0.000850843)
(1.96977e-05 0.00180426 0.000850843)
(-0.000293908 0.00178027 0.000850843)
(-0.000598584 0.00170219 0.000850843)
(-0.000885071 0.00157238 0.000850843)
(-0.00114467 0.0013948 0.000850844)
(-0.00136948 0.00117484 0.000850843)
(-0.00155269 0.000919188 0.000850844)
(-0.00168871 0.000635603 0.000850843)
(-0.00177343 0.000332705 0.000850843)
(-0.00180426 1.96977e-05 0.000850843)
(-0.00178027 -0.000293908 0.000850843)
(-0.00170219 -0.000598584 0.000850843)
(-0.00157238 -0.000885071 0.000850843)
(-0.0013948 -0.00114467 0.000850844)
(-0.00117484 -0.00136948 0.000850843)
(-0.000919188 -0.00155269 0.000850844)
(-0.000635603 -0.00168871 0.000850843)
(-0.000332705 -0.00177343 0.000850843)
(-1.96977e-05 -0.00180426 0.000850843)
(0.000457996 -0.00227693 0.00106556)
(0.000846422 -0.0021628 0.00106556)
(0.00120913 -0.00198297 0.00106556)
(0.0015351 -0.00174288 0.00106556)
(0.00181442 -0.00144983 0.00106556)
(0.00203862 -0.00111273 0.00106556)
(0.00220087 -0.000741827 0.00106556)
(0.00229625 -0.000348379 0.00106556)
(0.00232186 5.56541e-05 0.00106556)
(0.00227693 0.000457996 0.00106556)
(0.0021628 0.000846422 0.00106556)
(0.00198297 0.00120913 0.00106556)
(0.00174288 0.0015351 0.00106556)
(0.00144983 0.00181443 0.00106556)
(0.00111273 0.00203862 0.00106556)
(0.000741827 0.00220087 0.00106556)
(0.000348379 0.00229625 0.00106556)
(-5.56541e-05 0.00232186 0.00106556)
(-0.000457996 0.00227693 0.00106556)
(-0.000846422 0.0021628 0.00106556)
(-0.00120913 0.00198297 0.00106556)
(-0.0015351 0.00174288 0.00106556)
(-0.00181443 0.00144983 0.00106556)
(-0.00203862 0.00111273 0.00106556)
(-0.00220087 0.000741827 0.00106556)
(-0.00229625 0.000348379 0.00106556)
(-0.00232186 -5.56541e-05 0.00106556)
(-0.00227693 -0.000457996 0.00106556)
(-0.0021628 -0.000846422 0.00106556)
(-0.00198297 -0.00120913 0.00106556)
(-0.00174288 -0.0015351 0.00106556)
(-0.00144983 -0.00181443 0.00106556)
(-0.00111273 -0.00203862 0.00106556)
(-0.000741827 -0.00220087 0.00106556)
(-0.000348379 -0.00229625 0.00106556)
(5.56541e-05 -0.00232186 0.00106556)
(0.000371039 -0.00212823 0.00107023)
(0.000734965 -0.00203146 0.00107023)
(0.00107656 -0.00187298 0.00107023)
(0.00138544 -0.00165758 0.00107023)
(0.00165223 -0.00139182 0.00107023)
(0.00186881 -0.00108377 0.00107023)
(0.00202862 -0.000742784 0.00107023)
(0.00212678 -0.000379234 0.00107023)
(0.00216032 -4.16023e-06 0.00107023)
(0.00212823 0.000371039 0.00107023)
(0.00203146 0.000734965 0.00107023)
(0.00187298 0.00107656 0.00107023)
(0.00165758 0.00138544 0.00107023)
(0.00139182 0.00165223 0.00107023)
(0.00108377 0.00186881 0.00107023)
(0.000742784 0.00202862 0.00107023)
(0.000379234 0.00212678 0.00107023)
(4.16023e-06 0.00216032 0.00107023)
(-0.000371039 0.00212823 0.00107023)
(-0.000734965 0.00203146 0.00107023)
(-0.00107656 0.00187298 0.00107023)
(-0.00138544 0.00165758 0.00107023)
(-0.00165223 0.00139182 0.00107023)
(-0.00186881 0.00108377 0.00107023)
(-0.00202862 0.000742784 0.00107023)
(-0.00212678 0.000379234 0.00107023)
(-0.00216032 4.16023e-06 0.00107023)
(-0.00212823 -0.000371039 0.00107023)
(-0.00203146 -0.000734965 0.00107023)
(-0.00187298 -0.00107656 0.00107023)
(-0.00165758 -0.00138544 0.00107023)
(-0.00139182 -0.00165223 0.00107023)
(-0.00108377 -0.00186881 0.00107023)
(-0.000742784 -0.00202862 0.00107023)
(-0.000379234 -0.00212678 0.00107023)
(-4.16023e-06 -0.00216032 0.00107023)
(0.000279839 -0.00197877 0.0010708)
(0.000619197 -0.00190011 0.0010708)
(0.000939741 -0.00176372 0.0010708)
(0.00123173 -0.00157374 0.0010708)
(0.0014863 -0.00133595 0.0010708)
(0.0016957 -0.00105756 0.0010708)
(0.00185358 -0.000747037 0.0010708)
(0.00195514 -0.000413816 0.0010708)
(0.0019973 -6.80221e-05 0.0010708)
(0.00197877 0.000279839 0.0010708)
(0.00190011 0.000619197 0.0010708)
(0.00176372 0.000939741 0.0010708)
(0.00157374 0.00123173 0.0010708)
(0.00133595 0.0014863 0.0010708)
(0.00105756 0.0016957 0.0010708)
(0.000747037 0.00185358 0.0010708)
(0.000413816 0.00195514 0.0010708)
(6.80221e-05 0.0019973 0.0010708)
(-0.000279839 0.00197877 0.0010708)
(-0.000619197 0.00190011 0.0010708)
(-0.000939741 0.00176372 0.0010708)
(-0.00123173 0.00157374 0.0010708)
(-0.0014863 0.00133595 0.0010708)
(-0.0016957 0.00105756 0.0010708)
(-0.00185358 0.000747037 0.0010708)
(-0.00195514 0.000413816 0.0010708)
(-0.0019973 6.80221e-05 0.0010708)
(-0.00197877 -0.000279839 0.0010708)
(-0.00190011 -0.000619197 0.0010708)
(-0.00176372 -0.000939741 0.0010708)
(-0.00157374 -0.00123173 0.0010708)
(-0.00133595 -0.0014863 0.0010708)
(-0.00105756 -0.0016957 0.0010708)
(-0.000747037 -0.00185358 0.0010708)
(-0.000413816 -0.00195514 0.0010708)
(-6.80221e-05 -0.0019973 0.0010708)
(0.00042609 -0.00250167 0.00132271)
(0.000854028 -0.00238968 0.00132271)
(0.00125602 -0.00220507 0.0013227)
(0.00161984 -0.00195347 0.0013227)
(0.00193445 -0.00164251 0.0013227)
(0.00219028 -0.00128164 0.0013227)
(0.00237956 -0.000881831 0.0013227)
(0.00249653 -0.000455227 0.00132271)
(0.00253766 -1.47927e-05 0.00132271)
(0.00250167 0.00042609 0.00132271)
(0.00238968 0.000854028 0.00132271)
(0.00220507 0.00125602 0.0013227)
(0.00195347 0.00161984 0.0013227)
(0.00164251 0.00193445 0.0013227)