/*--------------------------------*- C++ -*----------------------------------*\
| =========                 |                                                 |
| \\      /  F ield         | OpenFOAM: The Open Source CFD Toolbox           |
|  \\    /   O peration     | Version:  2312                                  |
|   \\  /    A nd           | Website:  www.openfoam.com                      |
|    \\/     M anipulation  |                                                 |
\*---------------------------------------------------------------------------*/
FoamFile
{
    version     2.0;
    format      ascii;
    arch        "LSB;label=32;scalar=64";
    class       volVectorField;
    location    "0.2";
    object      D_0_0_0;
}
// * * * * * * * * * * * * * * * * * * * * * * * * * * * * * * * * * * * * * //

dimensions      [0 1 0 0 0 0 0];

internalField   nonuniform List<vector> 
1620
(
(8.48511e-05 -0.000177456 2.87996e-05)
(0.000114377 -0.000160026 2.87997e-05)
(0.000140427 -0.000137733 2.87998e-05)
(0.000162211 -0.000111256 2.87998e-05)
(0.000179066 -8.13978e-05 2.87998e-05)
(0.00019048 -4.90666e-05 2.87998e-05)
(0.000196107 -1.52446e-05 2.87997e-05)
(0.000195775 1.90405e-05 2.87996e-05)
(0.000189494 5.27471e-05 2.87996e-05)
(0.000177456 8.48511e-05 2.87996e-05)
(0.000160026 0.000114377 2.87997e-05)
(0.000137733 0.000140427 2.87998e-05)
(0.000111256 0.000162211 2.87998e-05)
(8.13978e-05 0.000179066 2.87998e-05)
(4.90666e-05 0.00019048 2.87998e-05)
(1.52446e-05 0.000196107 2.87997e-05)
(-1.90405e-05 0.000195775 2.87996e-05)
(-5.27471e-05 0.000189494 2.87996e-05)
(-8.48511e-05 0.000177456 2.87996e-05)
(-0.000114377 0.000160026 2.87997e-05)
(-0.000140427 0.000137733 2.87998e-05)
(-0.000162211 0.000111256 2.87998e-05)
(-0.000179066 8.13978e-05 2.87998e-05)
(-0.00019048 4.90666e-05 2.87998e-05)
(-0.000196107 1.52446e-05 2.87997e-05)
(-0.000195775 -1.90405e-05 2.87996e-05)
(-0.000189494 -5.27471e-05 2.87996e-05)
(-0.000177456 -8.48511e-05 2.87996e-05)
(-0.000160026 -0.000114377 2.87997e-05)
(-0.000137733 -0.000140427 2.87998e-05)
(-0.000111256 -0.000162211 2.87998e-05)
(-8.13978e-05 -0.000179066 2.87998e-05)
(-4.90666e-05 -0.00019048 2.87998e-05)
(-1.52446e-05 -0.000196107 2.87997e-05)
(1.90405e-05 -0.000195775 2.87996e-05)
(5.27471e-05 -0.000189494 2.87996e-05)
(5.74652e-05 -0.000174656 2.97871e-05)
(8.69209e-05 -0.000162024 2.97871e-05)
(0.000113735 -0.000144469 2.97872e-05)
(0.000137094 -0.000122524 2.97872e-05)
(0.000156288 -9.68565e-05 2.97873e-05)
(0.000170732 -6.82457e-05 2.97872e-05)
(0.000179989 -3.75616e-05 2.97871e-05)
(0.000183777 -5.73627e-06 2.97871e-05)
(0.000181981 2.62635e-05 2.97871e-05)
(0.000174656 5.74652e-05 2.97871e-05)
(0.000162024 8.69209e-05 2.97871e-05)
(0.000144469 0.000113735 2.97872e-05)
(0.000122524 0.000137094 2.97872e-05)
(9.68565e-05 0.000156288 2.97873e-05)
(6.82457e-05 0.000170732 2.97872e-05)
(3.75616e-05 0.000179989 2.97871e-05)
(5.73627e-06 0.000183777 2.97871e-05)
(-2.62635e-05 0.000181981 2.97871e-05)
(-5.74652e-05 0.000174656 2.97871e-05)
(-8.69209e-05 0.000162024 2.97871e-05)
(-0.000113735 0.000144469 2.97872e-05)
(-0.000137094 0.000122524 2.97872e-05)
(-0.000156288 9.68565e-05 2.97873e-05)
(-0.000170732 6.82457e-05 2.97872e-05)
(-0.000179989 3.75616e-05 2.97871e-05)
(-0.000183777 5.73627e-06 2.97871e-05)
(-0.000181981 -2.62635e-05 2.97871e-05)
(-0.000174656 -5.74652e-05 2.97871e-05)
(-0.000162024 -8.69209e-05 2.97871e-05)
(-0.000144469 -0.000113735 2.97872e-05)
(-0.000122524 -0.000137094 2.97872e-05)
(-9.68565e-05 -0.000156288 2.97873e-05)
(-6.82457e-05 -0.000170732 2.97872e-05)
(-3.75616e-05 -0.000179989 2.97871e-05)
(-5.73627e-06 -0.000183777 2.97871e-05)
(2.62635e-05 -0.000181981 2.97871e-05)
(2.30916e-05 -0.000171957 2.8997e-05)
(5.26008e-05 -0.000165335 2.8997e-05)
(8.05118e-05 -0.000153689 2.89971e-05)
(0.000105976 -0.000137373 2.8997e-05)
(0.000128221 -0.000116884 2.89971e-05)
(0.00014657 -9.28425e-05 2.8997e-05)
(0.000160465 -6.59805e-05 2.8997e-05)
(0.000169485 -3.71136e-05 2.89971e-05)
(0.000173354 -7.11916e-06 2.8997e-05)
(0.000171957 2.30916e-05 2.8997e-05)
(0.000165335 5.26008e-05 2.8997e-05)
(0.000153689 8.05118e-05 2.89971e-05)
(0.000137373 0.000105976 2.8997e-05)
(0.000116884 0.000128221 2.89971e-05)
(9.28425e-05 0.00014657 2.8997e-05)
(6.59805e-05 0.000160465 2.8997e-05)
(3.71136e-05 0.000169485 2.89971e-05)
(7.11916e-06 0.000173354 2.8997e-05)
(-2.30916e-05 0.000171957 2.8997e-05)
(-5.26008e-05 0.000165335 2.8997e-05)
(-8.05118e-05 0.000153689 2.89971e-05)
(-0.000105976 0.000137373 2.8997e-05)
(-0.000128221 0.000116884 2.89971e-05)
(-0.00014657 9.28425e-05 2.8997e-05)
(-0.000160465 6.59805e-05 2.8997e-05)
(-0.000169485 3.71136e-05 2.89971e-05)
(-0.000173354 7.11916e-06 2.8997e-05)
(-0.000171957 -2.30916e-05 2.8997e-05)
(-0.000165335 -5.26008e-05 2.8997e-05)
(-0.000153689 -8.05118e-05 2.89971e-05)
(-0.000137373 -0.000105976 2.8997e-05)
(-0.000116884 -0.000128221 2.89971e-05)
(-9.28425e-05 -0.00014657 2.8997e-05)
(-6.59805e-05 -0.000160465 2.8997e-05)
(-3.71136e-05 -0.000169485 2.89971e-05)
(-7.11916e-06 -0.000173354 2.8997e-05)
(0.000198305 -0.000533296 0.000103978)
(0.000287898 -0.000490759 0.000103979)
(0.000368744 -0.00043331 0.000103979)
(0.000438385 -0.000362695 0.000103979)
(0.000494706 -0.00028106 0.000103979)
(0.000535996 -0.000190885 0.000103979)
(0.000561 -9.49103e-05 0.000103979)
(0.000568958 3.94817e-06 0.000103978)
(0.000559629 0.000102687 0.000103978)
(0.000533296 0.000198305 0.000103978)
(0.000490759 0.000287898 0.000103979)
(0.00043331 0.000368744 0.000103979)
(0.000362695 0.000438385 0.000103979)
(0.00028106 0.000494706 0.000103979)
(0.000190885 0.000535996 0.000103979)
(9.49103e-05 0.000561 0.000103979)
(-3.94817e-06 0.000568958 0.000103978)
(-0.000102687 0.000559629 0.000103978)
(-0.000198305 0.000533296 0.000103978)
(-0.000287898 0.000490759 0.000103979)
(-0.000368744 0.00043331 0.000103979)
(-0.000438385 0.000362695 0.000103979)
(-0.000494706 0.00028106 0.000103979)
(-0.000535996 0.000190885 0.000103979)
(-0.000561 9.49103e-05 0.000103979)
(-0.000568958 -3.94817e-06 0.000103978)
(-0.000559629 -0.000102687 0.000103978)
(-0.000533296 -0.000198305 0.000103978)
(-0.000490759 -0.000287898 0.000103979)
(-0.00043331 -0.000368744 0.000103979)
(-0.000362695 -0.000438385 0.000103979)
(-0.00028106 -0.000494706 0.000103979)
(-0.000190885 -0.000535996 0.000103979)
(-9.49103e-05 -0.000561 0.000103979)
(3.94817e-06 -0.000568958 0.000103978)
(0.000102687 -0.000559629 0.000103978)
(0.000159523 -0.000519536 0.00011276)
(0.000247316 -0.000483942 0.00011276)
(0.000327595 -0.000433644 0.00011276)
(0.00039792 -0.00037017 0.00011276)
(0.000456154 -0.000295448 0.00011276)
(0.000500528 -0.000211749 0.00011276)
(0.000529694 -0.000121617 0.00011276)
(0.000542765 -2.77887e-05 0.00011276)
(0.000539344 6.68834e-05 0.00011276)
(0.000519536 0.000159523 0.00011276)
(0.000483942 0.000247316 0.00011276)
(0.000433644 0.000327595 0.00011276)
(0.00037017 0.00039792 0.00011276)
(0.000295448 0.000456154 0.00011276)
(0.000211749 0.000500528 0.00011276)
(0.000121617 0.000529694 0.00011276)
(2.77887e-05 0.000542765 0.00011276)
(-6.68834e-05 0.000539344 0.00011276)
(-0.000159523 0.000519536 0.00011276)
(-0.000247316 0.000483942 0.00011276)
(-0.000327595 0.000433644 0.00011276)
(-0.00039792 0.00037017 0.00011276)
(-0.000456154 0.000295448 0.00011276)
(-0.000500528 0.000211749 0.00011276)
(-0.000529694 0.000121617 0.00011276)
(-0.000542765 2.77887e-05 0.00011276)
(-0.000539344 -6.68834e-05 0.00011276)
(-0.000519536 -0.000159523 0.00011276)
(-0.000483942 -0.000247316 0.00011276)
(-0.000433644 -0.000327595 0.00011276)
(-0.00037017 -0.00039792 0.00011276)
(-0.000295448 -0.000456154 0.00011276)
(-0.000211749 -0.000500528 0.00011276)
(-0.000121617 -0.000529694 0.00011276)
(-2.77887e-05 -0.000542765 0.00011276)
(6.68834e-05 -0.000539344 0.00011276)
(0.000112841 -0.000505196 0.000119114)
(0.000198853 -0.000477926 0.000119114)
(0.000278823 -0.000436135 0.000119114)
(0.000350321 -0.000381092 0.000119114)
(0.000411175 -0.000314469 0.000119114)
(0.000459535 -0.000238292 0.000119114)
(0.000493933 -0.000154874 0.000119114)
(0.000513323 -6.67511e-05 0.000119114)
(0.000517116 2.34005e-05 0.000119114)
(0.000505196 0.000112841 0.000119114)
(0.000477926 0.000198853 0.000119114)
(0.000436135 0.000278823 0.000119114)
(0.000381092 0.000350321 0.000119114)
(0.000314469 0.000411175 0.000119114)
(0.000238292 0.000459535 0.000119114)
(0.000154874 0.000493933 0.000119114)
(6.67511e-05 0.000513323 0.000119114)
(-2.34005e-05 0.000517116 0.000119114)
(-0.000112841 0.000505196 0.000119114)
(-0.000198853 0.000477926 0.000119114)
(-0.000278823 0.000436135 0.000119114)
(-0.000350321 0.000381092 0.000119114)
(-0.000411175 0.000314469 0.000119114)
(-0.000459535 0.000238292 0.000119114)
(-0.000493933 0.000154874 0.000119114)
(-0.000513323 6.67511e-05 0.000119114)
(-0.000517116 -2.34005e-05 0.000119114)
(-0.000505196 -0.000112841 0.000119114)
(-0.000477926 -0.000198853 0.000119114)
(-0.000436135 -0.000278823 0.000119114)
(-0.000381092 -0.000350321 0.000119114)
(-0.000314469 -0.000411175 0.000119114)
(-0.000238292 -0.000459535 0.000119114)
(-0.000154874 -0.000493933 0.000119114)
(-6.67511e-05 -0.000513323 0.000119114)
(2.34005e-05 -0.000517116 0.000119114)
(0.000297633 -0.000884059 0.000221958)
(0.000446626 -0.000818944 0.000221958)
(0.000582049 -0.000728947 0.000221959)
(0.000699787 -0.0006168 0.000221959)
(0.000796262 -0.000485913 0.000221959)
(0.000868543 -0.000340262 0.000221958)
(0.000914434 -0.000184271 0.000221958)
(0.00093254 -2.2682e-05 0.000221958)
(0.000922311 0.000139596 0.000221958)
(0.000884059 0.000297633 0.000221958)
(0.000818944 0.000446626 0.000221958)
(0.000728947 0.000582049 0.000221959)
(0.0006168 0.000699787 0.000221959)
(0.000485913 0.000796262 0.000221959)
(0.000340262 0.000868543 0.000221958)
(0.000184271 0.000914434 0.000221958)
(2.2682e-05 0.00093254 0.000221958)
(-0.000139596 0.000922311 0.000221958)
(-0.000297633 0.000884059 0.000221958)
(-0.000446626 0.000818944 0.000221958)
(-0.000582049 0.000728947 0.000221959)
(-0.000699787 0.0006168 0.000221959)
(-0.000796262 0.000485913 0.000221959)
(-0.000868543 0.000340262 0.000221958)
(-0.000914434 0.000184271 0.000221958)
(-0.00093254 2.2682e-05 0.000221958)
(-0.000922311 -0.000139596 0.000221958)
(-0.000884059 -0.000297633 0.000221958)
(-0.000818944 -0.000446626 0.000221958)
(-0.000728947 -0.000582049 0.000221959)
(-0.0006168 -0.000699787 0.000221959)
(-0.000485913 -0.000796262 0.000221959)
(-0.000340262 -0.000868543 0.000221958)
(-0.000184271 -0.000914434 0.000221958)
(-2.2682e-05 -0.00093254 0.000221958)
(0.000139596 -0.000922311 0.000221958)
(0.000245523 -0.000854421 0.000235551)
(0.000390161 -0.000798806 0.000235552)
(0.000522945 -0.000718919 0.000235552)
(0.000639839 -0.000617188 0.000235552)
(0.000737292 -0.000496705 0.000235552)
(0.000812343 -0.000361129 0.000235552)
(0.000862711 -0.000214581 0.000235551)
(0.000886867 -6.1513e-05 0.000235552)
(0.000884075 9.34239e-05 0.000235551)
(0.000854421 0.000245523 0.000235551)
(0.000798806 0.000390161 0.000235552)
(0.000718919 0.000522945 0.000235552)
(0.000617188 0.000639839 0.000235552)
(0.000496705 0.000737292 0.000235552)
(0.000361129 0.000812343 0.000235552)
(0.000214581 0.000862711 0.000235551)
(6.1513e-05 0.000886867 0.000235552)
(-9.34239e-05 0.000884075 0.000235551)
(-0.000245523 0.000854421 0.000235551)
(-0.000390161 0.000798806 0.000235552)
(-0.000522945 0.000718919 0.000235552)
(-0.000639839 0.000617188 0.000235552)
(-0.000737292 0.000496705 0.000235552)
(-0.000812343 0.000361129 0.000235552)
(-0.000862711 0.000214581 0.000235551)
(-0.000886867 6.1513e-05 0.000235552)
(-0.000884075 -9.34239e-05 0.000235551)
(-0.000854421 -0.000245523 0.000235551)
(-0.000798806 -0.000390161 0.000235552)
(-0.000718919 -0.000522945 0.000235552)
(-0.000617188 -0.000639839 0.000235552)
(-0.000496705 -0.000737292 0.000235552)
(-0.000361129 -0.000812343 0.000235552)
(-0.000214581 -0.000862711 0.000235551)
(-6.1513e-05 -0.000886867 0.000235552)
(9.34239e-05 -0.000884075 0.000235551)
(0.000186044 -0.000823258 0.00024656)
(0.000326175 -0.000778444 0.00024656)
(0.000456395 -0.000709979 0.00024656)
(0.000572748 -0.00061994 0.00024656)
(0.000671699 -0.000511065 0.00024656)
(0.00075024 -0.000386662 0.00024656)
(0.000805985 -0.00025051 0.00024656)
(0.00083724 -0.000106746 0.00024656)
(0.000843057 4.02605e-05 0.00024656)
(0.000823258 0.000186044 0.00024656)
(0.000778444 0.000326175 0.00024656)
(0.000709979 0.000456395 0.00024656)
(0.00061994 0.000572748 0.00024656)
(0.000511065 0.000671699 0.00024656)
(0.000386662 0.00075024 0.00024656)
(0.00025051 0.000805985 0.00024656)
(0.000106746 0.00083724 0.00024656)
(-4.02605e-05 0.000843057 0.00024656)
(-0.000186044 0.000823258 0.00024656)
(-0.000326175 0.000778444 0.00024656)
(-0.000456395 0.000709979 0.00024656)
(-0.000572748 0.00061994 0.00024656)
(-0.000671699 0.000511065 0.00024656)
(-0.00075024 0.000386662 0.00024656)
(-0.000805985 0.00025051 0.00024656)
(-0.00083724 0.000106746 0.00024656)
(-0.000843057 -4.02605e-05 0.00024656)
(-0.000823258 -0.000186044 0.00024656)
(-0.000778444 -0.000326175 0.00024656)
(-0.000709979 -0.000456395 0.00024656)
(-0.00061994 -0.000572748 0.00024656)
(-0.000511065 -0.000671699 0.00024656)
(-0.000386662 -0.00075024 0.00024656)
(-0.00025051 -0.000805985 0.00024656)
(-0.000106746 -0.00083724 0.00024656)
(4.02605e-05 -0.000843057 0.00024656)
(0.000370955 -0.00122406 0.00037108)
(0.000577875 -0.00114105 0.000371081)
(0.000767236 -0.00102336 0.000371081)
(0.000933286 -0.000874588 0.000371081)
(0.00107098 -0.000699238 0.000371081)
(0.00117613 -0.000502642 0.000371081)
(0.00124554 -0.000290773 0.00037108)
(0.00127711 -7.00693e-05 0.00037108)
(0.00126988 0.000152764 0.00037108)
(0.00122406 0.000370955 0.00037108)
(0.00114105 0.000577875 0.000371081)
(0.00102336 0.000767236 0.000371081)
(0.000874588 0.000933286 0.000371081)
(0.000699238 0.00107098 0.000371081)
(0.000502642 0.00117613 0.000371081)
(0.000290773 0.00124554 0.00037108)
(7.00693e-05 0.00127711 0.00037108)
(-0.000152764 0.00126988 0.00037108)
(-0.000370955 0.00122406 0.00037108)
(-0.000577875 0.00114105 0.000371081)
(-0.000767236 0.00102336 0.000371081)
(-0.000933286 0.000874588 0.000371081)
(-0.00107098 0.000699238 0.000371081)
(-0.00117613 0.000502642 0.000371081)
(-0.00124554 0.000290773 0.00037108)
(-0.00127711 7.00693e-05 0.00037108)
(-0.00126988 -0.000152764 0.00037108)
(-0.00122406 -0.000370955 0.00037108)
(-0.00114105 -0.000577875 0.000371081)
(-0.00102336 -0.000767236 0.000371081)
(-0.000874588 -0.000933286 0.000371081)
(-0.000699238 -0.00107098 0.000371081)
(-0.000502642 -0.00117613 0.000371081)
(-0.000290773 -0.00124554 0.00037108)
(-7.00693e-05 -0.00127711 0.00037108)
(0.000152764 -0.00126988 0.00037108)
(0.000308753 -0.00117209 0.000386447)
(0.000507593 -0.00110067 0.000386447)
(0.000691011 -0.000995804 0.000386447)
(0.000853433 -0.000860683 0.000386447)
(0.000989923 -0.00069941 0.000386447)
(0.00109634 -0.000516886 0.000386447)
(0.00116944 -0.000318657 0.000386447)
(0.001207 -0.000110746 0.000386447)
(0.0012079 0.000100531 0.000386447)
(0.00117209 0.000308753 0.000386447)
(0.00110067 0.000507593 0.000386447)
(0.000995804 0.000691011 0.000386447)
(0.000860683 0.000853433 0.000386447)
(0.00069941 0.000989923 0.000386447)
(0.000516886 0.00109634 0.000386447)
(0.000318657 0.00116944 0.000386447)
(0.000110746 0.001207 0.000386447)
(-0.000100531 0.0012079 0.000386447)
(-0.000308753 0.00117209 0.000386447)
(-0.000507593 0.00110067 0.000386447)
(-0.000691011 0.000995804 0.000386447)
(-0.000853433 0.000860683 0.000386447)
(-0.000989923 0.00069941 0.000386447)
(-0.00109634 0.000516886 0.000386447)
(-0.00116944 0.000318657 0.000386447)
(-0.001207 0.000110746 0.000386447)
(-0.0012079 -0.000100531 0.000386447)
(-0.00117209 -0.000308753 0.000386447)
(-0.00110067 -0.000507593 0.000386447)
(-0.000995804 -0.000691011 0.000386447)
(-0.000860683 -0.000853433 0.000386447)
(-0.00069941 -0.000989923 0.000386447)
(-0.000516886 -0.00109634 0.000386447)
(-0.000318657 -0.00116944 0.000386447)
(-0.000110746 -0.001207 0.000386447)
(0.000100531 -0.0012079 0.000386447)
(0.000239978 -0.00111828 0.000399044)
(0.00043052 -0.00105962 0.000399044)
(0.000607979 -0.000968758 0.000399044)
(0.000766966 -0.000848466 0.000399044)
(0.000902648 -0.000702394 0.000399044)
(0.0010109 -0.00053498 0.000399044)
(0.00108845 -0.000351311 0.000399044)
(0.00113291 -0.000156967 0.000399044)
(0.00114296 4.21459e-05 0.000399044)
(0.00111828 0.000239978 0.000399044)
(0.00105962 0.00043052 0.000399044)
(0.000968758 0.000607979 0.000399044)
(0.000848466 0.000766966 0.000399044)
(0.000702394 0.000902648 0.000399044)
(0.00053498 0.0010109 0.000399044)
(0.000351311 0.00108845 0.000399044)
(0.000156967 0.00113291 0.000399044)
(-4.21459e-05 0.00114296 0.000399044)
(-0.000239978 0.00111828 0.000399044)
(-0.00043052 0.00105962 0.000399044)
(-0.000607979 0.000968758 0.000399044)
(-0.000766966 0.000848466 0.000399044)
(-0.000902648 0.000702394 0.000399044)
(-0.0010109 0.00053498 0.000399044)
(-0.00108845 0.000351311 0.000399044)
(-0.00113291 0.000156967 0.000399044)
(-0.00114296 -4.21459e-05 0.000399044)
(-0.00111828 -0.000239978 0.000399044)
(-0.00105962 -0.00043052 0.000399044)
(-0.000968758 -0.000607979 0.000399044)
(-0.000848466 -0.000766966 0.000399044)
(-0.000702394 -0.000902648 0.000399044)
(-0.00053498 -0.0010109 0.000399044)
(-0.000351311 -0.00108845 0.000399044)
(-0.000156967 -0.00113291 0.000399044)
(4.21459e-05 -0.00114296 0.000399044)
(0.000415725 -0.00154544 0.000544934)
(0.000677771 -0.00144977 0.000544934)
(0.000919224 -0.00131005 0.000544934)
(0.00113275 -0.00113052 0.000544934)
(0.00131185 -0.00091665 0.000544934)
(0.0014511 -0.000674923 0.000544934)
(0.00154625 -0.00041269 0.000544934)
(0.00159442 -0.000137916 0.000544934)
(0.00159415 0.000141047 0.000544934)
(0.00154544 0.000415725 0.000544934)
(0.00144977 0.000677771 0.000544934)
(0.00131005 0.000919224 0.000544934)
(0.00113052 0.00113275 0.000544934)
(0.00091665 0.00131185 0.000544934)
(0.000674923 0.0014511 0.000544934)
(0.00041269 0.00154625 0.000544934)
(0.000137916 0.00159442 0.000544934)
(-0.000141047 0.00159415 0.000544934)
(-0.000415725 0.00154544 0.000544934)
(-0.000677771 0.00144977 0.000544934)
(-0.000919224 0.00131005 0.000544934)
(-0.00113275 0.00113052 0.000544934)
(-0.00131185 0.00091665 0.000544934)
(-0.0014511 0.000674923 0.000544934)
(-0.00154625 0.00041269 0.000544934)
(-0.00159442 0.000137916 0.000544934)
(-0.00159415 -0.000141047 0.000544934)
(-0.00154544 -0.000415725 0.000544934)
(-0.00144977 -0.000677771 0.000544934)
(-0.00131005 -0.000919224 0.000544934)
(-0.00113052 -0.00113275 0.000544934)
(-0.00091665 -0.00131185 0.000544934)
(-0.000674923 -0.0014511 0.000544934)
(-0.00041269 -0.00154625 0.000544934)
(-0.000137916 -0.00159442 0.000544934)
(0.000141047 -0.00159415 0.000544934)
(0.000346563 -0.00146514 0.000559149)
(0.000595717 -0.0013827 0.000559149)
(0.00082677 -0.00125825 0.000559149)
(0.0010327 -0.00109557 0.000559149)
(0.00120726 -0.000899596 0.000559149)
(0.00134513 -0.000676292 0.000559149)
(0.00144213 -0.000432438 0.000559149)
(0.00149531 -0.000175446 0.000559148)
(0.00150306 8.68784e-05 0.000559148)
(0.00146514 0.000346563 0.000559149)
(0.0013827 0.000595717 0.000559149)
(0.00125825 0.00082677 0.000559149)
(0.00109557 0.0010327 0.000559149)
(0.000899596 0.00120726 0.000559149)
(0.000676292 0.00134513 0.000559149)
(0.000432438 0.00144213 0.000559149)
(0.000175446 0.00149531 0.000559148)
(-8.68784e-05 0.00150306 0.000559148)
(-0.000346563 0.00146514 0.000559149)
(-0.000595717 0.0013827 0.000559149)
(-0.00082677 0.00125825 0.000559149)
(-0.0010327 0.00109557 0.000559149)
(-0.00120726 0.000899596 0.000559149)
(-0.00134513 0.000676292 0.000559149)
(-0.00144213 0.000432438 0.000559149)
(-0.00149531 0.000175446 0.000559148)
(-0.00150306 -8.68784e-05 0.000559148)
(-0.00146514 -0.000346563 0.000559149)
(-0.0013827 -0.000595717 0.000559149)
(-0.00125825 -0.00082677 0.000559149)
(-0.00109557 -0.0010327 0.000559149)
(-0.000899596 -0.00120726 0.000559149)
(-0.000676292 -0.00134513 0.000559149)
(-0.000432438 -0.00144213 0.000559149)
(-0.000175446 -0.00149531 0.000559148)
(8.68784e-05 -0.00150306 0.000559148)
(0.000271664 -0.00138313 0.000570446)
(0.000507715 -0.00131494 0.000570446)
(0.000728339 -0.0012068 0.000570446)
(0.000926832 -0.00106199 0.000570446)
(0.00109716 -0.000884916 0.000570446)
(0.00123416 -0.000680952 0.000570446)
(0.00133366 -0.000456297 0.000570446)
(0.00139263 -0.000217778 0.000570446)
(0.00140929 2.73586e-05 0.000570446)
(0.00138313 0.000271664 0.000570446)
(0.00131494 0.000507715 0.000570446)
(0.0012068 0.000728339 0.000570446)
(0.00106199 0.000926832 0.000570446)
(0.000884916 0.00109716 0.000570446)
(0.000680952 0.00123416 0.000570446)
(0.000456297 0.00133366 0.000570446)
(0.000217778 0.00139263 0.000570446)
(-2.73586e-05 0.00140929 0.000570446)
(-0.000271664 0.00138313 0.000570446)
(-0.000507715 0.00131494 0.000570446)
(-0.000728339 0.0012068 0.000570446)
(-0.000926832 0.00106199 0.000570446)
(-0.00109716 0.000884916 0.000570446)
(-0.00123416 0.000680952 0.000570446)
(-0.00133366 0.000456297 0.000570446)
(-0.00139263 0.000217778 0.000570446)
(-0.00140929 -2.73586e-05 0.000570446)
(-0.00138313 -0.000271664 0.000570446)
(-0.00131494 -0.000507715 0.000570446)
(-0.0012068 -0.000728339 0.000570446)
(-0.00106199 -0.000926832 0.000570446)
(-0.000884916 -0.00109716 0.000570446)
(-0.000680952 -0.00123416 0.000570446)
(-0.000456297 -0.00133366 0.000570446)
(-0.000217778 -0.00139263 0.000570446)
(2.73586e-05 -0.00140929 0.000570446)
(0.00043265 -0.00183924 0.000739011)
(0.000745457 -0.00173617 0.000739011)
(0.00103561 -0.00158034 0.000739011)
(0.0012943 -0.0013765 0.000739011)
(0.00151367 -0.00113084 0.000739011)
(0.00168704 -0.00085081 0.000739011)
(0.00180915 -0.000544934 0.000739011)
(0.00187629 -0.000222499 0.000739011)
(0.00188642 0.000106696 0.000739011)
(0.00183924 0.00043265 0.000739011)
(0.00173617 0.000745457 0.000739011)
(0.00158034 0.00103561 0.000739011)
(0.0013765 0.0012943 0.000739011)
(0.00113084 0.00151367 0.000739011)
(0.00085081 0.00168704 0.000739011)
(0.000544934 0.00180915 0.000739011)
(0.000222499 0.00187629 0.000739011)
(-0.000106696 0.00188642 0.000739011)
(-0.00043265 0.00183924 0.000739011)
(-0.000745457 0.00173617 0.000739011)
(-0.00103561 0.00158034 0.000739011)
(-0.0012943 0.0013765 0.000739011)
(-0.00151367 0.00113084 0.000739011)
(-0.00168704 0.00085081 0.000739011)
(-0.00180915 0.000544934 0.000739011)
(-0.00187629 0.000222499 0.000739011)
(-0.00188642 -0.000106696 0.000739011)
(-0.00183924 -0.00043265 0.000739011)
(-0.00173617 -0.000745457 0.000739011)
(-0.00158034 -0.00103561 0.000739011)
(-0.0013765 -0.0012943 0.000739011)
(-0.00113084 -0.00151367 0.000739011)
(-0.00085081 -0.00168704 0.000739011)
(-0.000544934 -0.00180915 0.000739011)
(-0.000222499 -0.00187629 0.000739011)
(0.000106696 -0.00188642 0.000739011)
(0.000359318 -0.00172565 0.000749176)
(0.000653516 -0.00163704 0.000749176)
(0.000927857 -0.00149869 0.000749176)
(0.001174 -0.0013148 0.000749176)
(0.00138448 -0.00109096 0.000749176)
(0.00155289 -0.000833974 0.000749176)
(0.00167412 -0.000551647 0.000749176)
(0.00174448 -0.000252559 0.000749176)
(0.00176183 5.42032e-05 0.000749176)
(0.00172565 0.000359318 0.000749176)
(0.00163704 0.000653516 0.000749176)
(0.00149869 0.000927857 0.000749176)
(0.0013148 0.001174 0.000749176)
(0.00109096 0.00138448 0.000749176)
(0.000833974 0.00155289 0.000749176)
(0.000551647 0.00167412 0.000749176)
(0.000252559 0.00174448 0.000749176)
(-5.42032e-05 0.00176183 0.000749176)
(-0.000359318 0.00172565 0.000749176)
(-0.000653516 0.00163704 0.000749176)
(-0.000927857 0.00149869 0.000749176)
(-0.001174 0.0013148 0.000749176)
(-0.00138448 0.00109096 0.000749176)
(-0.00155289 0.000833974 0.000749176)
(-0.00167412 0.000551647 0.000749176)
(-0.00174448 0.000252559 0.000749176)
(-0.00176183 -5.42032e-05 0.000749176)
(-0.00172565 -0.000359318 0.000749176)
(-0.00163704 -0.000653516 0.000749176)
(-0.00149869 -0.000927857 0.000749176)
(-0.0013148 -0.001174 0.000749176)
(-0.00109096 -0.00138448 0.000749176)
(-0.000833974 -0.00155289 0.000749176)
(-0.000551647 -0.00167412 0.000749176)
(-0.000252559 -0.00174448 0.000749176)
(5.42032e-05 -0.00176183 0.000749176)
(0.000281173 -0.0016108 0.000756284)
(0.000556614 -0.0015375 0.000756284)
(0.000815143 -0.00141749 0.000756284)
(0.0010489 -0.00125441 0.000756284)
(0.00125079 -0.00105321 0.000756284)
(0.00141468 -0.000820012 0.000756284)
(0.00153558 -0.000561898 0.000756284)
(0.00160982 -0.00028671 0.000756284)
(0.00163515 -2.81124e-06 0.000756284)
(0.0016108 0.000281173 0.000756284)
(0.0015375 0.000556614 0.000756284)
(0.00141749 0.000815143 0.000756284)
(0.00125441 0.0010489 0.000756284)
(0.00105321 0.00125079 0.000756284)
(0.000820012 0.00141468 0.000756284)
(0.000561898 0.00153558 0.000756284)
(0.00028671 0.00160982 0.000756284)
(2.81124e-06 0.00163515 0.000756284)
(-0.000281173 0.0016108 0.000756284)
(-0.000556614 0.0015375 0.000756284)
(-0.000815143 0.00141749 0.000756284)
(-0.0010489 0.00125441 0.000756284)
(-0.00125079 0.00105321 0.000756284)
(-0.00141468 0.000820012 0.000756284)
(-0.00153558 0.000561898 0.000756284)
(-0.00160982 0.00028671 0.000756284)
(-0.00163515 2.81124e-06 0.000756284)
(-0.0016108 -0.000281173 0.000756284)
(-0.0015375 -0.000556614 0.000756284)
(-0.00141749 -0.000815143 0.000756284)
(-0.00125441 -0.0010489 0.000756284)
(-0.00105321 -0.00125079 0.000756284)
(-0.000820012 -0.00141468 0.000756284)
(-0.000561898 -0.00153558 0.000756284)
(-0.00028671 -0.00160982 0.000756284)
(-2.81124e-06 -0.00163515 0.000756284)
(0.000424876 -0.00209584 0.000951219)
(0.00078236 -0.00199022 0.000951219)
(0.00111607 -0.00182413 0.000951219)
(0.00141587 -0.00160261 0.000951219)
(0.00167265 -0.0013324 0.000951219)
(0.00187861 -0.0010217 0.000951219)
(0.00202749 -0.000679965 0.000951219)
(0.00211476 -0.000317565 0.000951219)
(0.00213778 5.44837e-05 0.000951219)
(0.00209584 0.000424876 0.000951219)
(0.00199022 0.00078236 0.000951219)
(0.00182413 0.00111607 0.000951219)
(0.00160261 0.00141587 0.000951219)
(0.0013324 0.00167265 0.000951219)
(0.0010217 0.00187861 0.000951219)
(0.000679965 0.00202749 0.000951219)
(0.000317565 0.00211476 0.000951219)
(-5.44837e-05 0.00213778 0.000951219)
(-0.000424876 0.00209584 0.000951219)
(-0.00078236 0.00199022 0.000951219)
(-0.00111607 0.00182413 0.000951219)
(-0.00141587 0.00160261 0.000951219)
(-0.00167265 0.0013324 0.000951219)
(-0.00187861 0.0010217 0.000951219)
(-0.00202749 0.000679965 0.000951219)
(-0.00211476 0.000317565 0.000951219)
(-0.00213778 -5.44837e-05 0.000951219)
(-0.00209584 -0.000424876 0.000951219)
(-0.00199022 -0.00078236 0.000951219)
(-0.00182413 -0.00111607 0.000951219)
(-0.00160261 -0.00141587 0.000951219)
(-0.0013324 -0.00167265 0.000951219)
(-0.0010217 -0.00187861 0.000951219)
(-0.000679965 -0.00202749 0.000951219)
(-0.000317565 -0.00211476 0.000951219)
(5.44837e-05 -0.00213778 0.000951219)
(0.000349842 -0.00194512 0.00095432)
(0.000682294 -0.00185482 0.00095432)
(0.000994014 -0.00170816 0.00095432)
(0.00127553 -0.0015096 0.00095432)
(0.00151829 -0.00126517 0.00095432)
(0.00171492 -0.000982303 0.00095432)
(0.00185944 -0.000669586 0.00095432)
(0.00194747 -0.000336525 0.00095432)
(0.00197632 6.76173e-06 0.00095432)
(0.00194512 0.000349842 0.00095432)
(0.00185482 0.000682294 0.00095432)
(0.00170816 0.000994014 0.00095432)
(0.0015096 0.00127553 0.00095432)
(0.00126517 0.00151829 0.00095432)
(0.000982303 0.00171492 0.00095432)
(0.000669586 0.00185944 0.00095432)
(0.000336525 0.00194747 0.00095432)
(-6.76173e-06 0.00197632 0.00095432)
(-0.000349842 0.00194512 0.00095432)
(-0.000682294 0.00185482 0.00095432)
(-0.000994014 0.00170816 0.00095432)
(-0.00127553 0.0015096 0.00095432)
(-0.00151829 0.00126517 0.00095432)
(-0.00171492 0.000982303 0.00095432)
(-0.00185944 0.000669586 0.00095432)
(-0.00194747 0.000336525 0.00095432)
(-0.00197632 -6.76172e-06 0.00095432)
(-0.00194512 -0.000349842 0.00095432)
(-0.00185482 -0.000682294 0.00095432)
(-0.00170816 -0.000994014 0.00095432)
(-0.0015096 -0.00127553 0.00095432)
(-0.00126517 -0.00151829 0.00095432)
(-0.000982303 -0.00171492 0.00095432)
(-0.000669586 -0.00185944 0.00095432)
(-0.000336525 -0.00194747 0.00095432)
(6.76173e-06 -0.00197632 0.00095432)
(0.000271064 -0.00179386 0.000954202)
(0.000578447 -0.00171954 0.000954201)
(0.000868254 -0.00159297 0.000954202)
(0.00113168 -0.001418 0.000954201)
(0.00136072 -0.00119994 0.000954201)
(0.00154842 -0.000945426 0.000954201)
(0.00168906 -0.000662184 0.000954202)
(0.00177839 -0.000358821 0.000954201)
(0.00181368 -4.45556e-05 0.000954201)
(0.00179386 0.000271064 0.000954202)
(0.00171954 0.000578447 0.000954201)
(0.00159297 0.000868254 0.000954202)
(0.001418 0.00113168 0.000954201)
(0.00119994 0.00136072 0.000954201)
(0.000945426 0.00154842 0.000954201)
(0.000662184 0.00168906 0.000954202)
(0.000358821 0.00177839 0.000954201)
(4.45556e-05 0.00181368 0.000954201)
(-0.000271064 0.00179386 0.000954202)
(-0.000578447 0.00171954 0.000954201)
(-0.000868254 0.00159297 0.000954202)
(-0.00113168 0.001418 0.000954201)
(-0.00136072 0.00119994 0.000954201)
(-0.00154842 0.000945426 0.000954201)
(-0.00168906 0.000662184 0.000954202)
(-0.00177839 0.000358821 0.000954201)
(-0.00181368 4.45556e-05 0.000954201)
(-0.00179386 -0.000271064 0.000954202)
(-0.00171954 -0.000578447 0.000954201)
(-0.00159297 -0.000868254 0.000954202)
(-0.001418 -0.00113168 0.000954201)
(-0.00119994 -0.00136072 0.000954201)
(-0.000945426 -0.00154842 0.000954201)
(-0.000662184 -0.00168906 0.000954202)
(-0.000358821 -0.00177839 0.000954201)
(-4.45556e-05 -0.00181368 0.000954201)
(0.000397302 -0.00230477 0.00118116)
(0.000791485 -0.00220077 0.00118116)
(0.00116162 -0.00202989 0.00118116)
(0.00149646 -0.00179734 0.00118115)
(0.00178583 -0.00151018 0.00118115)
(0.00202094 -0.00117713 0.00118115)
(0.00219464 -0.000808312 0.00118116)
(0.00230166 -0.000414936 0.00118116)
(0.00233875 -8.95248e-06 0.00118116)
(0.00230477 0.000397302 0.00118116)
(0.00220077 0.000791485 0.00118116)