/*--------------------------------*- C++ -*----------------------------------*\
| =========                 |                                                 |
| \\      /  F ield         | OpenFOAM: The Open Source CFD Toolbox           |
|  \\    /   O peration     | Version:  2312                                  |
|   \\  /    A nd           | Website:  www.openfoam.com                      |
|    \\/     M anipulation  |                                                 |
\*---------------------------------------------------------------------------*/
FoamFile
{
    version     2.0;
    format      ascii;
    arch        "LSB;label=32;scalar=64";
    class       volTensorField;
    location    "0.2";
    object      F;
}
// * * * * * * * * * * * * * * * * * * * * * * * * * * * * * * * * * * * * * //

dimensions      [0 0 0 0 0 0 0];

internalField   nonuniform List<tensor> 
1620
(
(1.02901 0.0233829 -0.06191 -0.00199759 1.01001 0.198915 -0.00169829 -0.000148537 0.956531)
(1.02478 0.0259868 -0.0955107 0.000606309 1.01424 0.185143 -0.00164662 -0.00044115 0.956531)
(1.01992 0.026987 -0.126209 0.0016065 1.01911 0.165745 -0.00154498 -0.00072043 0.956531)
(1.015 0.0262628 -0.153073 0.000882288 1.02402 0.141311 -0.00139646 -0.000977818 0.95653)
(1.01063 0.0239014 -0.175286 -0.001479 1.02839 0.112583 -0.00120543 -0.00120544 0.95653)
(1.00733 0.0201879 -0.192173 -0.00519251 1.03169 0.0804344 -0.000977796 -0.00139651 0.956531)
(1.0055 0.01557 -0.203221 -0.00981036 1.03352 0.0458419 -0.000720446 -0.00154512 0.956531)
(1.00536 0.0106048 -0.208094 -0.0147756 1.03366 0.00985659 -0.000441223 -0.00164674 0.956531)
(1.00693 0.00589113 -0.206644 -0.0194893 1.0321 -0.0264282 -0.00014859 -0.00169832 0.956531)
(1.01001 0.00199759 -0.198915 -0.0233829 1.02901 -0.06191 0.000148537 -0.00169829 0.956531)
(1.01424 -0.000606309 -0.185143 -0.0259868 1.02478 -0.0955107 0.00044115 -0.00164662 0.956531)
(1.01911 -0.0016065 -0.165745 -0.026987 1.01992 -0.126209 0.00072043 -0.00154498 0.956531)
(1.02402 -0.000882288 -0.141311 -0.0262628 1.015 -0.153073 0.000977818 -0.00139646 0.95653)
(1.02839 0.001479 -0.112583 -0.0239014 1.01063 -0.175286 0.00120544 -0.00120543 0.95653)
(1.03169 0.00519251 -0.0804344 -0.0201879 1.00733 -0.192173 0.00139651 -0.000977796 0.956531)
(1.03352 0.00981036 -0.0458419 -0.01557 1.0055 -0.203221 0.00154512 -0.000720446 0.956531)
(1.03366 0.0147756 -0.00985659 -0.0106048 1.00536 -0.208094 0.00164674 -0.000441223 0.956531)
(1.0321 0.0194893 0.0264282 -0.00589113 1.00693 -0.206644 0.00169832 -0.00014859 0.956531)
(1.02901 0.0233829 0.06191 -0.00199759 1.01001 -0.198915 0.00169829 0.000148537 0.956531)
(1.02478 0.0259868 0.0955107 0.000606309 1.01424 -0.185143 0.00164662 0.00044115 0.956531)
(1.01992 0.026987 0.126209 0.0016065 1.01911 -0.165745 0.00154498 0.00072043 0.956531)
(1.015 0.0262628 0.153073 0.000882288 1.02402 -0.141311 0.00139646 0.000977818 0.95653)
(1.01063 0.0239014 0.175286 -0.001479 1.02839 -0.112583 0.00120543 0.00120544 0.95653)
(1.00733 0.0201879 0.192173 -0.00519251 1.03169 -0.0804344 0.000977796 0.00139651 0.956531)
(1.0055 0.01557 0.203221 -0.00981036 1.03352 -0.0458419 0.000720446 0.00154512 0.956531)
(1.00536 0.0106048 0.208094 -0.0147756 1.03366 -0.00985659 0.000441223 0.00164674 0.956531)
(1.00693 0.00589113 0.206644 -0.0194893 1.0321 0.0264282 0.00014859 0.00169832 0.956531)
(1.01001 0.00199759 0.198915 -0.0233829 1.02901 0.06191 -0.000148537 0.00169829 0.956531)
(1.01424 -0.000606309 0.185143 -0.0259868 1.02478 0.0955107 -0.00044115 0.00164662 0.956531)
(1.01911 -0.0016065 0.165745 -0.026987 1.01992 0.126209 -0.00072043 0.00154498 0.956531)
(1.02402 -0.000882288 0.141311 -0.0262628 1.015 0.153073 -0.000977818 0.00139646 0.95653)
(1.02839 0.001479 0.112583 -0.0239014 1.01063 0.175286 -0.00120544 0.00120543 0.95653)
(1.03169 0.00519251 0.0804344 -0.0201879 1.00733 0.192173 -0.00139651 0.000977796 0.956531)
(1.03352 0.00981036 0.0458419 -0.01557 1.0055 0.203221 -0.00154512 0.000720446 0.956531)
(1.03366 0.0147756 0.00985659 -0.0106048 1.00536 0.208094 -0.00164674 0.000441223 0.956531)
(1.0321 0.0194893 -0.0264282 -0.00589113 1.00693 0.206644 -0.00169832 0.00014859 0.956531)
(1.03298 0.0261673 -0.0548761 -0.0015683 1.00753 0.195578 -0.000652785 -5.70999e-05 0.951368)
(1.02801 0.029778 -0.0880042 0.00204236 1.01251 0.183078 -0.00063287 -0.000169531 0.951368)
(1.0221 0.0314697 -0.118458 0.0037341 1.01841 0.165015 -0.000593818 -0.000276868 0.951368)
(1.01597 0.0310383 -0.145313 0.00330275 1.02455 0.141938 -0.000536742 -0.000375828 0.951368)
(1.01035 0.0285359 -0.167753 0.000800346 1.03016 0.114548 -0.000463308 -0.000463296 0.951368)
(1.00593 0.0242643 -0.185095 -0.00347125 1.03458 0.0836776 -0.000375818 -0.000536738 0.951368)
(1.00324 0.0187388 -0.196814 -0.00899674 1.03727 0.050265 -0.000276883 -0.000593889 0.951368)
(1.0026 0.0126257 -0.202552 -0.0151098 1.03791 0.015325 -0.000169579 -0.000633001 0.951368)
(1.00409 0.00666243 -0.202136 -0.0210731 1.03642 -0.0200806 -5.71041e-05 -0.000652809 0.951368)
(1.00753 0.0015683 -0.195578 -0.0261673 1.03298 -0.0548761 5.70999e-05 -0.000652785 0.951368)
(1.01251 -0.00204236 -0.183078 -0.029778 1.02801 -0.0880042 0.000169531 -0.00063287 0.951368)
(1.01841 -0.0037341 -0.165015 -0.0314697 1.0221 -0.118458 0.000276868 -0.000593818 0.951368)
(1.02455 -0.00330275 -0.141938 -0.0310383 1.01597 -0.145313 0.000375828 -0.000536742 0.951368)
(1.03016 -0.000800346 -0.114548 -0.0285359 1.01035 -0.167753 0.000463296 -0.000463308 0.951368)
(1.03458 0.00347125 -0.0836776 -0.0242643 1.00593 -0.185095 0.000536738 -0.000375818 0.951368)
(1.03727 0.00899674 -0.050265 -0.0187388 1.00324 -0.196814 0.000593889 -0.000276883 0.951368)
(1.03791 0.0151098 -0.015325 -0.0126257 1.0026 -0.202552 0.000633001 -0.000169579 0.951368)
(1.03642 0.0210731 0.0200806 -0.00666243 1.00409 -0.202136 0.000652809 -5.71041e-05 0.951368)
(1.03298 0.0261673 0.0548761 -0.0015683 1.00753 -0.195578 0.000652785 5.70999e-05 0.951368)
(1.02801 0.029778 0.0880042 0.00204236 1.01251 -0.183078 0.00063287 0.000169531 0.951368)
(1.0221 0.0314697 0.118458 0.0037341 1.01841 -0.165015 0.000593818 0.000276868 0.951368)
(1.01597 0.0310383 0.145313 0.00330275 1.02455 -0.141938 0.000536742 0.000375828 0.951368)
(1.01035 0.0285359 0.167753 0.000800346 1.03016 -0.114548 0.000463308 0.000463296 0.951368)
(1.00593 0.0242643 0.185095 -0.00347125 1.03458 -0.0836776 0.000375818 0.000536738 0.951368)
(1.00324 0.0187388 0.196814 -0.00899674 1.03727 -0.050265 0.000276883 0.000593889 0.951368)
(1.0026 0.0126257 0.202552 -0.0151098 1.03791 -0.015325 0.000169579 0.000633001 0.951368)
(1.00409 0.00666243 0.202136 -0.0210731 1.03642 0.0200806 5.71041e-05 0.000652809 0.951368)
(1.00753 0.0015683 0.195578 -0.0261673 1.03298 0.0548761 -5.70999e-05 0.000652785 0.951368)
(1.01251 -0.00204236 0.183078 -0.029778 1.02801 0.0880042 -0.000169531 0.00063287 0.951368)
(1.01841 -0.0037341 0.165015 -0.0314697 1.0221 0.118458 -0.000276868 0.000593818 0.951368)
(1.02455 -0.00330275 0.141938 -0.0310383 1.01597 0.145313 -0.000375828 0.000536742 0.951368)
(1.03016 -0.000800346 0.114548 -0.0285359 1.01035 0.167753 -0.000463296 0.000463308 0.951368)
(1.03458 0.00347125 0.0836776 -0.0242643 1.00593 0.185095 -0.000536738 0.000375818 0.951368)
(1.03727 0.00899674 0.050265 -0.0187387 1.00324 0.196814 -0.000593889 0.000276883 0.951368)
(1.03791 0.0151098 0.015325 -0.0126257 1.0026 0.202552 -0.000633001 0.000169579 0.951368)
(1.03642 0.0210731 -0.0200806 -0.00666243 1.00409 0.202136 -0.000652809 5.71041e-05 0.951368)
(1.03692 0.0296131 -0.0472039 -0.00121344 1.00316 0.192021 0.000475499 4.15629e-05 0.946566)
(1.03104 0.0345287 -0.0798309 0.00370213 1.00904 0.180907 0.000461147 0.000123571 0.946566)
(1.02384 0.0371387 -0.110032 0.00631215 1.01624 0.164296 0.000432669 0.000201809 0.946566)
(1.01618 0.0371284 -0.13689 0.00630165 1.0239 0.142693 0.000391063 0.000273819 0.946566)
(1.00899 0.0344987 -0.159589 0.0036721 1.03109 0.116755 0.000337604 0.00033759 0.946566)
(1.00313 0.0295671 -0.177439 -0.00125947 1.03696 0.0872687 0.00027385 0.0003911 0.946566)
(0.999305 0.0229284 -0.189898 -0.00789816 1.04078 0.0551309 0.000201748 0.000432683 0.946566)
(0.997985 0.0153832 -0.196586 -0.0154434 1.0421 0.0213181 0.000123517 0.000461016 0.946566)
(0.999326 0.00784168 -0.197301 -0.0229849 1.04076 -0.0131425 4.16268e-05 0.000475473 0.946566)
(1.00316 0.00121344 -0.192021 -0.0296131 1.03692 -0.0472039 -4.15629e-05 0.000475499 0.946566)
(1.00904 -0.00370213 -0.180907 -0.0345287 1.03104 -0.0798309 -0.000123571 0.000461147 0.946566)
(1.01624 -0.00631215 -0.164296 -0.0371387 1.02384 -0.110032 -0.000201809 0.000432669 0.946566)
(1.0239 -0.00630165 -0.142693 -0.0371284 1.01618 -0.13689 -0.000273819 0.000391063 0.946566)
(1.03109 -0.0036721 -0.116755 -0.0344987 1.00899 -0.159589 -0.00033759 0.000337604 0.946566)
(1.03696 0.00125947 -0.0872687 -0.0295671 1.00313 -0.177439 -0.0003911 0.00027385 0.946566)
(1.04078 0.00789816 -0.0551309 -0.0229284 0.999305 -0.189898 -0.000432683 0.000201748 0.946566)
(1.0421 0.0154434 -0.0213181 -0.0153832 0.997985 -0.196586 -0.000461017 0.000123517 0.946566)
(1.04076 0.0229849 0.0131425 -0.00784168 0.999326 -0.197301 -0.000475473 4.16268e-05 0.946566)
(1.03692 0.0296131 0.0472039 -0.00121344 1.00316 -0.192021 -0.000475499 -4.15629e-05 0.946566)
(1.03104 0.0345287 0.0798309 0.00370213 1.00904 -0.180907 -0.000461147 -0.000123571 0.946566)
(1.02384 0.0371387 0.110032 0.00631215 1.01624 -0.164296 -0.000432669 -0.000201809 0.946566)
(1.01618 0.0371284 0.13689 0.00630165 1.0239 -0.142693 -0.000391063 -0.000273819 0.946566)
(1.00899 0.0344987 0.159589 0.0036721 1.03109 -0.116755 -0.000337604 -0.00033759 0.946566)
(1.00313 0.0295671 0.177439 -0.00125947 1.03696 -0.0872687 -0.00027385 -0.0003911 0.946566)
(0.999305 0.0229284 0.189898 -0.00789816 1.04078 -0.0551309 -0.000201748 -0.000432683 0.946566)
(0.997985 0.0153832 0.196586 -0.0154434 1.0421 -0.0213181 -0.000123517 -0.000461017 0.946566)
(0.999326 0.00784168 0.197301 -0.0229849 1.04076 0.0131425 -4.16268e-05 -0.000475473 0.946566)
(1.00316 0.00121344 0.192021 -0.0296131 1.03692 0.0472039 4.15629e-05 -0.000475499 0.946566)
(1.00904 -0.00370213 0.180907 -0.0345287 1.03104 0.0798309 0.000123571 -0.000461147 0.946566)
(1.01624 -0.00631215 0.164296 -0.0371387 1.02384 0.110032 0.000201809 -0.000432669 0.946566)
(1.0239 -0.00630165 0.142693 -0.0371284 1.01618 0.13689 0.000273819 -0.000391063 0.946566)
(1.03109 -0.0036721 0.116755 -0.0344987 1.00899 0.159589 0.00033759 -0.000337604 0.946566)
(1.03696 0.00125947 0.0872687 -0.0295671 1.00313 0.177439 0.0003911 -0.00027385 0.946566)
(1.04078 0.00789816 0.0551309 -0.0229284 0.999305 0.189898 0.000432683 -0.000201748 0.946566)
(1.0421 0.0154434 0.0213181 -0.0153832 0.997985 0.196586 0.000461016 -0.000123517 0.946566)
(1.04076 0.0229849 -0.0131425 -0.00784168 0.999326 0.197301 0.000475473 -4.16268e-05 0.946566)
(1.03856 0.0650646 -0.0578609 -0.00996931 1.02246 0.197509 -0.0120864 -0.00105735 0.943339)
(1.02865 0.0661574 -0.0912789 -0.00887658 1.03236 0.184461 -0.0117191 -0.00313999 0.943338)
(1.01897 0.0637957 -0.121924 -0.0112382 1.04205 0.165808 -0.0109957 -0.00512727 0.943338)
(1.01068 0.0582644 -0.148864 -0.0167695 1.05034 0.142118 -0.00993833 -0.0069588 0.943338)
(1.00478 0.0502306 -0.17128 -0.0248033 1.05624 0.114109 -0.00857882 -0.00857887 0.943338)
(1.00198 0.0406633 -0.188493 -0.0343705 1.05904 0.0826325 -0.00695873 -0.00993843 0.943338)
(1.00263 0.0307165 -0.199978 -0.0443172 1.05839 0.0486457 -0.00512733 -0.010996 0.943338)
(1.00663 0.0215901 -0.205388 -0.0534436 1.05439 0.0131807 -0.00314014 -0.0117193 0.943338)
(1.01352 0.0143846 -0.204556 -0.0606491 1.0475 -0.0226847 -0.00105747 -0.0120864 0.943339)
(1.02246 0.00996931 -0.197509 -0.0650646 1.03856 -0.0578609 0.00105735 -0.0120864 0.943339)
(1.03236 0.00887658 -0.184461 -0.0661574 1.02865 -0.0912789 0.00313999 -0.0117191 0.943338)
(1.04205 0.0112382 -0.165808 -0.0637957 1.01897 -0.121924 0.00512727 -0.0109957 0.943338)
(1.05034 0.0167695 -0.142118 -0.0582644 1.01068 -0.148864 0.0069588 -0.00993833 0.943338)
(1.05624 0.0248033 -0.114109 -0.0502306 1.00478 -0.17128 0.00857887 -0.00857882 0.943338)
(1.05904 0.0343705 -0.0826325 -0.0406633 1.00198 -0.188493 0.00993843 -0.00695873 0.943338)
(1.05839 0.0443172 -0.0486457 -0.0307165 1.00263 -0.199978 0.010996 -0.00512733 0.943338)
(1.05439 0.0534436 -0.0131807 -0.0215901 1.00663 -0.205388 0.0117193 -0.00314014 0.943338)
(1.0475 0.0606491 0.0226847 -0.0143846 1.01352 -0.204556 0.0120864 -0.00105747 0.943339)
(1.03856 0.0650646 0.0578609 -0.00996931 1.02246 -0.197509 0.0120864 0.00105735 0.943339)
(1.02865 0.0661574 0.0912789 -0.00887658 1.03236 -0.184461 0.0117191 0.00313999 0.943338)
(1.01897 0.0637957 0.121924 -0.0112382 1.04205 -0.165808 0.0109957 0.00512727 0.943338)
(1.01068 0.0582644 0.148864 -0.0167695 1.05034 -0.142118 0.00993833 0.0069588 0.943338)
(1.00478 0.0502306 0.17128 -0.0248033 1.05624 -0.114109 0.00857882 0.00857887 0.943338)
(1.00198 0.0406633 0.188493 -0.0343705 1.05904 -0.0826325 0.00695873 0.00993843 0.943338)
(1.00263 0.0307165 0.199978 -0.0443172 1.05839 -0.0486457 0.00512733 0.010996 0.943338)
(1.00663 0.0215901 0.205388 -0.0534436 1.05439 -0.0131807 0.00314014 0.0117193 0.943338)
(1.01352 0.0143846 0.204556 -0.0606491 1.0475 0.0226847 0.00105747 0.0120864 0.943339)
(1.02246 0.00996931 0.197509 -0.0650646 1.03856 0.0578609 -0.00105735 0.0120864 0.943339)
(1.03236 0.00887658 0.184461 -0.0661574 1.02865 0.0912789 -0.00313999 0.0117191 0.943338)
(1.04205 0.0112382 0.165808 -0.0637957 1.01897 0.121924 -0.00512727 0.0109957 0.943338)
(1.05034 0.0167695 0.142118 -0.0582644 1.01068 0.148864 -0.0069588 0.00993833 0.943338)
(1.05624 0.0248033 0.114109 -0.0502306 1.00478 0.17128 -0.00857887 0.00857882 0.943338)
(1.05904 0.0343705 0.0826325 -0.0406633 1.00198 0.188493 -0.00993843 0.00695873 0.943338)
(1.05839 0.0443172 0.0486457 -0.0307165 1.00263 0.199978 -0.010996 0.00512733 0.943338)
(1.05439 0.0534436 0.0131807 -0.0215901 1.00663 0.205388 -0.0117193 0.00314014 0.943338)
(1.0475 0.0606491 -0.0226847 -0.0143846 1.01352 0.204556 -0.0120864 0.00105747 0.943339)
(1.04275 0.0717861 -0.0505027 -0.00961249 1.01997 0.193351 -0.0106271 -0.000929721 0.938817)
(1.03143 0.0738061 -0.0833105 -0.00759255 1.03129 0.181644 -0.0103041 -0.00276089 0.938817)
(1.0201 0.0718329 -0.113587 -0.00956572 1.04262 0.164417 -0.00966813 -0.00450821 0.938817)
(1.01013 0.0661046 -0.140412 -0.015294 1.05259 0.142195 -0.00873837 -0.00611859 0.938816)
(1.00272 0.0573119 -0.162971 -0.0240867 1.06 0.115653 -0.00754303 -0.00754305 0.938816)
(0.998769 0.0465155 -0.180578 -0.034883 1.06395 0.0855961 -0.00611859 -0.00873843 0.938816)
(0.998745 0.0350176 -0.192698 -0.0463808 1.06398 0.0529388 -0.0045083 -0.00966835 0.938817)
(1.00266 0.024205 -0.198963 -0.0571934 1.06007 0.0186728 -0.00276099 -0.0103043 0.938817)
(1.01003 0.0153819 -0.199183 -0.0660166 1.05269 -0.0161604 -0.000929748 -0.0106272 0.938817)
(1.01997 0.00961249 -0.193351 -0.0717861 1.04275 -0.0505027 0.000929721 -0.0106271 0.938817)
(1.03129 0.00759255 -0.181644 -0.0738061 1.03143 -0.0833105 0.00276089 -0.0103041 0.938817)
(1.04262 0.00956572 -0.164417 -0.0718329 1.0201 -0.113587 0.00450821 -0.00966813 0.938817)
(1.05259 0.015294 -0.142195 -0.0661046 1.01013 -0.140412 0.00611859 -0.00873837 0.938816)
(1.06 0.0240867 -0.115653 -0.0573119 1.00272 -0.162971 0.00754305 -0.00754303 0.938816)
(1.06395 0.034883 -0.0855961 -0.0465155 0.998769 -0.180578 0.00873843 -0.00611859 0.938816)
(1.06398 0.0463808 -0.0529388 -0.0350176 0.998745 -0.192698 0.00966835 -0.0045083 0.938817)
(1.06007 0.0571934 -0.0186728 -0.024205 1.00266 -0.198963 0.0103043 -0.00276099 0.938817)
(1.05269 0.0660166 0.0161604 -0.0153819 1.01003 -0.199183 0.0106272 -0.000929748 0.938817)
(1.04275 0.0717861 0.0505027 -0.00961249 1.01997 -0.193351 0.0106271 0.000929721 0.938817)
(1.03143 0.0738061 0.0833105 -0.00759255 1.03129 -0.181644 0.0103041 0.00276089 0.938817)
(1.0201 0.0718329 0.113587 -0.00956572 1.04262 -0.164417 0.00966813 0.00450821 0.938817)
(1.01013 0.0661046 0.140412 -0.015294 1.05259 -0.142195 0.00873837 0.00611859 0.938816)
(1.00272 0.0573119 0.162971 -0.0240867 1.06 -0.115653 0.00754303 0.00754305 0.938816)
(0.998769 0.0465155 0.180578 -0.034883 1.06395 -0.0855961 0.00611859 0.00873843 0.938816)
(0.998745 0.0350176 0.192698 -0.0463808 1.06398 -0.0529388 0.0045083 0.00966835 0.938817)
(1.00266 0.024205 0.198963 -0.0571934 1.06007 -0.0186728 0.00276099 0.0103043 0.938817)
(1.01003 0.0153819 0.199183 -0.0660166 1.05269 0.0161604 0.000929748 0.0106272 0.938817)
(1.01997 0.00961249 0.193351 -0.0717861 1.04275 0.0505027 -0.000929721 0.0106271 0.938817)
(1.03129 0.00759255 0.181644 -0.0738061 1.03143 0.0833105 -0.00276089 0.0103041 0.938817)
(1.04262 0.00956572 0.164417 -0.0718329 1.0201 0.113587 -0.00450821 0.00966813 0.938817)
(1.05259 0.015294 0.142195 -0.0661046 1.01013 0.140412 -0.00611859 0.00873837 0.938816)
(1.06 0.0240867 0.115653 -0.0573119 1.00272 0.162971 -0.00754305 0.00754303 0.938816)
(1.06395 0.034883 0.0855961 -0.0465155 0.998769 0.180578 -0.00873843 0.00611859 0.938816)
(1.06398 0.0463808 0.0529388 -0.0350176 0.998745 0.192698 -0.00966835 0.0045083 0.938817)
(1.06007 0.0571934 0.0186729 -0.024205 1.00266 0.198963 -0.0103043 0.00276099 0.938817)
(1.05269 0.0660166 -0.0161604 -0.0153819 1.01003 0.199183 -0.0106272 0.000929748 0.938817)
(1.04696 0.0800641 -0.0428922 -0.00979007 1.01544 0.188777 -0.00925603 -0.000809818 0.934431)
(1.034 0.0833368 -0.0750214 -0.00651736 1.0284 0.178461 -0.00897466 -0.00240473 0.934431)
(1.02069 0.0819768 -0.104871 -0.00787738 1.04171 0.162722 -0.00842073 -0.00392655 0.934431)
(1.00865 0.0761481 -0.131534 -0.0137061 1.05375 0.14204 -0.00761092 -0.00532916 0.934431)
(0.999334 0.0665535 -0.154201 -0.0233006 1.06307 0.117041 -0.00656983 -0.00656983 0.934431)
(0.993859 0.0543505 -0.172182 -0.0355035 1.06854 0.0884862 -0.00532922 -0.00761095 0.934431)
(0.992888 0.0410109 -0.184932 -0.0488431 1.06951 0.0572428 -0.00392668 -0.00842089 0.934431)
(0.996538 0.0281436 -0.192063 -0.0617103 1.06586 0.0242601 -0.00240475 -0.00897487 0.934431)
(1.00437 0.0173008 -0.193357 -0.0725533 1.05803 -0.00945975 -0.00080976 -0.00925604 0.934431)
(1.01544 0.00979007 -0.188777 -0.0800641 1.04696 -0.0428922 0.000809818 -0.00925603 0.934431)
(1.0284 0.00651736 -0.178461 -0.0833368 1.034 -0.0750214 0.00240473 -0.00897466 0.934431)
(1.04171 0.00787738 -0.162722 -0.0819768 1.02069 -0.104871 0.00392655 -0.00842073 0.934431)
(1.05375 0.0137061 -0.14204 -0.0761481 1.00865 -0.131534 0.00532916 -0.00761092 0.934431)
(1.06307 0.0233006 -0.117041 -0.0665535 0.999334 -0.154201 0.00656983 -0.00656983 0.934431)
(1.06854 0.0355035 -0.0884862 -0.0543505 0.993859 -0.172182 0.00761095 -0.00532922 0.934431)
(1.06951 0.0488431 -0.0572428 -0.0410109 0.992888 -0.184932 0.00842089 -0.00392668 0.934431)
(1.06586 0.0617103 -0.0242601 -0.0281436 0.996538 -0.192063 0.00897487 -0.00240475 0.934431)
(1.05803 0.0725533 0.00945975 -0.0173008 1.00437 -0.193357 0.00925604 -0.00080976 0.934431)
(1.04696 0.0800641 0.0428922 -0.00979007 1.01544 -0.188777 0.00925603 0.000809818 0.934431)
(1.034 0.0833368 0.0750214 -0.00651736 1.0284 -0.178461 0.00897466 0.00240473 0.934431)
(1.02069 0.0819768 0.104871 -0.00787738 1.04171 -0.162722 0.00842073 0.00392655 0.934431)
(1.00865 0.0761481 0.131534 -0.0137061 1.05375 -0.14204 0.00761092 0.00532916 0.934431)
(0.999334 0.0665535 0.154201 -0.0233006 1.06307 -0.117041 0.00656983 0.00656983 0.934431)
(0.993859 0.0543505 0.172182 -0.0355035 1.06854 -0.0884862 0.00532922 0.00761095 0.934431)
(0.992888 0.0410109 0.184932 -0.0488431 1.06951 -0.0572428 0.00392668 0.00842089 0.934431)
(0.996538 0.0281436 0.192063 -0.0617103 1.06586 -0.0242601 0.00240475 0.00897487 0.934431)
(1.00437 0.0173008 0.193357 -0.0725533 1.05803 0.00945975 0.00080976 0.00925604 0.934431)
(1.01544 0.00979007 0.188777 -0.0800641 1.04696 0.0428922 -0.000809818 0.00925603 0.934431)
(1.0284 0.00651736 0.178461 -0.0833368 1.034 0.0750214 -0.00240473 0.00897466 0.934431)
(1.04171 0.00787738 0.162722 -0.0819768 1.02069 0.104871 -0.00392655 0.00842073 0.934431)
(1.05375 0.0137061 0.14204 -0.0761481 1.00865 0.131534 -0.00532916 0.00761092 0.934431)
(1.06307 0.0233006 0.117041 -0.0665535 0.999334 0.154201 -0.00656983 0.00656983 0.934431)
(1.06854 0.0355035 0.0884862 -0.0543505 0.993859 0.172182 -0.00761095 0.00532922 0.934431)
(1.06951 0.0488431 0.0572428 -0.0410109 0.992888 0.184932 -0.00842089 0.00392668 0.934431)
(1.06586 0.0617103 0.0242601 -0.0281436 0.996538 0.192063 -0.00897487 0.00240475 0.934431)
(1.05803 0.0725533 -0.00945974 -0.0173008 1.00437 0.193357 -0.00925604 0.00080976 0.934431)
(1.04968 0.106126 -0.048306 -0.0208128 1.0329 0.194318 -0.0195919 -0.00171393 0.922205)
(1.03458 0.106424 -0.0813152 -0.0205156 1.04799 0.182978 -0.0189964 -0.0050899 0.922205)
(1.0203 0.10154 -0.111854 -0.0253993 1.06228 0.166078 -0.0178239 -0.00831127 0.922205)
(1.00854 0.0920642 -0.138993 -0.0348748 1.07404 0.144132 -0.0161098 -0.0112801 0.922205)
(1.00074 0.0791397 -0.16191 -0.0477993 1.08184 0.117806 -0.0139062 -0.0139063 0.922205)
(0.997823 0.0643251 -0.179907 -0.0626138 1.08475 0.0879008 -0.0112801 -0.0161099 0.922205)
(1.00015 0.0494074 -0.192438 -0.0775316 1.08243 0.0553249 -0.00831137 -0.0178242 0.922205)
(1.00744 0.0361858 -0.199121 -0.0907532 1.07514 0.021068 -0.00509007 -0.0189967 0.922205)
(1.01882 0.026255 -0.199754 -0.100684 1.06376 -0.0138291 -0.00171407 -0.019592 0.922205)
(1.0329 0.0208128 -0.194318 -0.106126 1.04968 -0.048306 0.00171393 -0.0195919 0.922205)
(1.04799 0.0205156 -0.182978 -0.106424 1.03458 -0.0813152 0.0050899 -0.0189964 0.922205)
(1.06228 0.0253993 -0.166078 -0.10154 1.0203 -0.111854 0.00831127 -0.0178239 0.922205)
(1.07404 0.0348748 -0.144132 -0.0920642 1.00854 -0.138993 0.0112801 -0.0161098 0.922205)
(1.08184 0.0477993 -0.117806 -0.0791397 1.00074 -0.16191 0.0139063 -0.0139062 0.922205)
(1.08475 0.0626138 -0.0879008 -0.0643251 0.997823 -0.179907 0.0161099 -0.0112801 0.922205)
(1.08243 0.0775316 -0.0553249 -0.0494074 1.00015 -0.192438 0.0178242 -0.00831137 0.922205)
(1.07514 0.0907532 -0.021068 -0.0361858 1.00744 -0.199121 0.0189967 -0.00509007 0.922205)
(1.06376 0.100684 0.0138291 -0.026255 1.01882 -0.199754 0.019592 -0.00171407 0.922205)
(1.04968 0.106126 0.048306 -0.0208128 1.0329 -0.194318 0.0195919 0.00171393 0.922205)
(1.03458 0.106424 0.0813152 -0.0205156 1.04799 -0.182978 0.0189964 0.0050899 0.922205)
(1.0203 0.10154 0.111854 -0.0253993 1.06228 -0.166078 0.0178239 0.00831127 0.922205)
(1.00854 0.0920642 0.138993 -0.0348748 1.07404 -0.144132 0.0161098 0.0112801 0.922205)
(1.00074 0.0791397 0.16191 -0.0477993 1.08184 -0.117806 0.0139062 0.0139063 0.922205)
(0.997823 0.0643251 0.179907 -0.0626138 1.08475 -0.0879008 0.0112801 0.0161099 0.922205)
(1.00015 0.0494074 0.192438 -0.0775316 1.08243 -0.0553249 0.00831137 0.0178242 0.922205)
(1.00744 0.0361858 0.199121 -0.0907532 1.07514 -0.021068 0.00509007 0.0189967 0.922205)
(1.01882 0.026255 0.199754 -0.100684 1.06376 0.0138291 0.00171407 0.019592 0.922205)
(1.0329 0.0208128 0.194318 -0.106126 1.04968 0.048306 -0.00171393 0.0195919 0.922205)
(1.04799 0.0205156 0.182978 -0.106424 1.03458 0.0813152 -0.0050899 0.0189964 0.922205)
(1.06228 0.0253993 0.166078 -0.10154 1.0203 0.111854 -0.00831127 0.0178239 0.922205)
(1.07404 0.0348748 0.144132 -0.0920642 1.00854 0.138993 -0.0112801 0.0161098 0.922205)
(1.08184 0.0477993 0.117806 -0.0791397 1.00074 0.16191 -0.0139063 0.0139062 0.922205)
(1.08475 0.0626138 0.0879008 -0.0643251 0.997823 0.179907 -0.0161099 0.0112801 0.922205)
(1.08243 0.0775316 0.0553249 -0.0494074 1.00015 0.192438 -0.0178242 0.00831137 0.922205)
(1.07514 0.0907532 0.021068 -0.0361858 1.00744 0.199121 -0.0189967 0.00509007 0.922205)
(1.06376 0.100684 -0.0138291 -0.026255 1.01882 0.199754 -0.019592 0.00171407 0.922205)
(1.05339 0.115884 -0.0417962 -0.0208398 1.02989 0.187915 -0.0183386 -0.00160437 0.918825)
(1.03643 0.117037 -0.0737923 -0.0196872 1.04685 0.177802 -0.0177813 -0.00476437 0.918825)
(1.02009 0.112318 -0.103546 -0.0244054 1.06319 0.162287 -0.0166837 -0.00777966 0.918825)
(1.00636 0.102298 -0.130154 -0.0344254 1.07692 0.141841 -0.0150793 -0.0105586 0.918825)
(0.99688 0.0881849 -0.152807 -0.0485387 1.0864 0.117085 -0.0130166 -0.0130167 0.918825)
(0.992799 0.0716807 -0.170817 -0.065043 1.09048 0.0887713 -0.0105586 -0.0150794 0.918825)
(0.99461 0.0547761 -0.183637 -0.0819475 1.08867 0.0577607 -0.00777978 -0.016684 0.918825)
(1.00209 0.0395103 -0.190877 -0.0972134 1.08119 0.024995 -0.00476447 -0.0177815 0.918825)
(1.01435 0.0277243 -0.192318 -0.108999 1.06893 -0.00853023 -0.00160442 -0.0183387 0.918825)
(1.02989 0.0208398 -0.187915 -0.115884 1.05339 -0.0417962 0.00160437 -0.0183386 0.918825)
(1.04685 0.0196872 -0.177802 -0.117037 1.03643 -0.0737923 0.00476437 -0.0177813 0.918825)
(1.06319 0.0244054 -0.162287 -0.112318 1.02009 -0.103546 0.00777966 -0.0166837 0.918825)
(1.07692 0.0344254 -0.141841 -0.102298 1.00636 -0.130154 0.0105586 -0.0150793 0.918825)
(1.0864 0.0485387 -0.117085 -0.0881849 0.99688 -0.152807 0.0130167 -0.0130166 0.918825)
(1.09048 0.065043 -0.0887713 -0.0716807 0.992799 -0.170817 0.0150794 -0.0105586 0.918825)
(1.08867 0.0819475 -0.0577607 -0.0547761 0.99461 -0.183637 0.016684 -0.00777978 0.918825)
(1.08119 0.0972134 -0.024995 -0.0395103 1.00209 -0.190877 0.0177815 -0.00476447 0.918825)
(1.06893 0.108999 0.00853023 -0.0277243 1.01435 -0.192318 0.0183387 -0.00160442 0.918825)
(1.05339 0.115884 0.0417962 -0.0208398 1.02989 -0.187915 0.0183386 0.00160437 0.918825)
(1.03643 0.117037 0.0737923 -0.0196872 1.04685 -0.177802 0.0177813 0.00476437 0.918825)
(1.02009 0.112318 0.103546 -0.0244054 1.06319 -0.162287 0.0166837 0.00777966 0.918825)
(1.00636 0.102298 0.130154 -0.0344254 1.07692 -0.141841 0.0150793 0.0105586 0.918825)
(0.99688 0.0881849 0.152807 -0.0485387 1.0864 -0.117085 0.0130166 0.0130167 0.918825)
(0.992799 0.0716807 0.170817 -0.065043 1.09048 -0.0887713 0.0105586 0.0150794 0.918825)
(0.99461 0.0547761 0.183637 -0.0819475 1.08867 -0.0577607 0.00777978 0.016684 0.918825)
(1.00209 0.0395103 0.190877 -0.0972134 1.08119 -0.024995 0.00476447 0.0177815 0.918825)
(1.01435 0.0277243 0.192318 -0.108999 1.06893 0.00853023 0.00160442 0.0183387 0.918825)
(1.02989 0.0208398 0.187915 -0.115884 1.05339 0.0417962 -0.00160437 0.0183386 0.918825)
(1.04685 0.0196872 0.177802 -0.117037 1.03643 0.0737923 -0.00476437 0.0177813 0.918825)
(1.06319 0.0244054 0.162287 -0.112318 1.02009 0.103546 -0.00777966 0.0166837 0.918825)
(1.07692 0.0344254 0.141841 -0.102298 1.00636 0.130154 -0.0105586 0.0150793 0.918825)
(1.0864 0.0485387 0.117085 -0.0881849 0.99688 0.152807 -0.0130167 0.0130166 0.918825)
(1.09048 0.065043 0.0887713 -0.0716807 0.992799 0.170817 -0.0150794 0.0105586 0.918825)
(1.08867 0.0819475 0.0577607 -0.0547761 0.99461 0.183637 -0.016684 0.00777978 0.918825)
(1.08119 0.0972134 0.024995 -0.0395103 1.00209 0.190877 -0.0177815 0.00476447 0.918825)
(1.06893 0.108999 -0.00853023 -0.0277243 1.01435 0.192318 -0.0183387 0.00160442 0.918825)
(1.05709 0.127791 -0.0354971 -0.0218451 1.02476 0.181026 -0.017009 -0.0014881 0.915378)
(1.038 0.130126 -0.0663928 -0.0195106 1.04385 0.172112 -0.0164921 -0.00441902 0.915378)
(1.01926 0.125789 -0.095271 -0.0238468 1.06259 0.157968 -0.0154741 -0.00721564 0.915378)
(1.00313 0.115305 -0.121255 -0.034331 1.07872 0.139025 -0.013986 -0.00979304 0.915378)
(0.991562 0.0999374 -0.143554 -0.0496986 1.09028 0.115857 -0.0120729 -0.0120729 0.915378)
(0.985947 0.08154 -0.161491 -0.068096 1.0959 0.089169 -0.00979314 -0.0139861 0.915378)
(0.986964 0.062332 -0.174522 -0.0873041 1.09488 0.0597717 -0.00721576 -0.0154743 0.915378)
(0.994488 0.0446299 -0.18225 -0.105006 1.08736 0.0285582 -0.00441905 -0.0164922 0.915378)
(1.00761 0.0305689 -0.18444 -0.119067 1.07423 -0.00352296 -0.00148806 -0.0170091 0.915378)
(1.02476 0.0218451 -0.181026 -0.127791 1.05709 -0.0354971 0.0014881 -0.017009 0.915378)
(1.04385 0.0195106 -0.172112 -0.130126 1.038 -0.0663928 0.00441902 -0.0164921 0.915378)
(1.06259 0.0238468 -0.157968 -0.125789 1.01926 -0.095271 0.00721564 -0.0154741 0.915378)
(1.07872 0.034331 -0.139025 -0.115305 1.00313 -0.121255 0.00979304 -0.013986 0.915378)
(1.09028 0.0496986 -0.115857 -0.0999374 0.991562 -0.143554 0.0120729 -0.0120729 0.915378)
(1.0959 0.068096 -0.089169 -0.08154 0.985947 -0.161491 0.0139861 -0.00979314 0.915378)
(1.09488 0.0873041 -0.0597717 -0.062332 0.986964 -0.174522 0.0154743 -0.00721576 0.915378)
(1.08736 0.105006 -0.0285582 -0.0446299 0.994488 -0.18225 0.0164922 -0.00441905 0.915378)
(1.07423 0.119067 0.00352296 -0.0305689 1.00761 -0.18444 0.0170091 -0.00148806 0.915378)
(1.05709 0.127791 0.0354971 -0.0218451 1.02476 -0.181026 0.017009 0.0014881 0.915378)
(1.038 0.130126 0.0663928 -0.0195106 1.04385 -0.172112 0.0164921 0.00441902 0.915378)
(1.01926 0.125789 0.095271 -0.0238468 1.06259 -0.157968 0.0154741 0.00721564 0.915378)
(1.00313 0.115305 0.121255 -0.034331 1.07872 -0.139025 0.013986 0.00979304 0.915378)
(0.991562 0.0999374 0.143554 -0.0496986 1.09028 -0.115857 0.0120729 0.0120729 0.915378)
(0.985947 0.08154 0.161491 -0.068096 1.0959 -0.089169 0.00979314 0.0139861 0.915378)
(0.986964 0.062332 0.174522 -0.0873041 1.09488 -0.0597717 0.00721576 0.0154743 0.915378)
(0.994488 0.0446299 0.18225 -0.105006 1.08736 -0.0285582 0.00441905 0.0164922 0.915378)
(1.00761 0.0305689 0.18444 -0.119067 1.07423 0.00352296 0.00148806 0.0170091 0.915378)
(1.02476 0.0218451 0.181026 -0.127791 1.05709 0.0354971 -0.0014881 0.017009 0.915378)
(1.04385 0.0195106 0.172112 -0.130126 1.038 0.0663928 -0.00441902 0.0164921 0.915378)
(1.06259 0.0238468 0.157968 -0.125789 1.01926 0.095271 -0.00721564 0.0154741 0.915378)
(1.07872 0.034331 0.139025 -0.115305 1.00313 0.121255 -0.00979304 0.013986 0.915378)
(1.09028 0.0496986 0.115857 -0.0999374 0.991562 0.143554 -0.0120729 0.0120729 0.915378)
(1.0959 0.068096 0.089169 -0.08154 0.985947 0.161491 -0.0139861 0.00979314 0.915378)
(1.09488 0.0873041 0.0597717 -0.062332 0.986964 0.174522 -0.0154743 0.00721576 0.915378)