/*--------------------------------*- C++ -*----------------------------------*\
| =========                 |                                                 |
| \\      /  F ield         | OpenFOAM: The Open Source CFD Toolbox           |
|  \\    /   O peration     | Version:  2312                                  |
|   \\  /    A nd           | Website:  www.openfoam.com                      |
|    \\/     M anipulation  |                                                 |
\*---------------------------------------------------------------------------*/
FoamFile
{
    version     2.0;
    format      ascii;
    arch        "LSB;label=32;scalar=64";
    class       volSymmTensorField;
    location    "0.2";
    object      sigma;
}
// * * * * * * * * * * * * * * * * * * * * * * * * * * * * * * * * * * * * * //

dimensions      [1 -1 -2 0 0 0 0];

internalField   nonuniform List<symmTensor> 
1620
(
(-5485.15 267.947 -695.528 -3034.57 -4120.4 2766.16)
(-5502.91 -167.285 30.5377 -3016.83 -4178.57 2766.15)
(-5370.72 -582.343 755.683 -3149 -4109.79 2766.15)
(-5104.55 -927.14 1457.84 -3415.18 -3916.12 2766.2)
(-4736.52 -1160.12 2115.71 -3783.24 -3603.47 2766.2)
(-4310.99 -1253.18 2709.31 -4208.77 -3181.33 2766.19)
(-3879.23 -1195.11 3220.61 -4640.42 -2662.54 2766.18)
(-3493.44 -992.859 3634.02 -5026.22 -2062.84 2766.2)
(-3200.1 -670.862 3937.02 -5319.6 -1400.46 2766.17)
(-3034.57 -267.947 4120.4 -5485.15 -695.528 2766.16)
(-3016.83 167.285 4178.57 -5502.91 30.5377 2766.15)
(-3149 582.343 4109.79 -5370.72 755.683 2766.15)
(-3415.18 927.14 3916.12 -5104.55 1457.84 2766.2)
(-3783.24 1160.12 3603.47 -4736.52 2115.71 2766.2)
(-4208.77 1253.18 3181.33 -4310.99 2709.31 2766.19)
(-4640.42 1195.11 2662.54 -3879.23 3220.61 2766.18)
(-5026.22 992.859 2062.84 -3493.44 3634.02 2766.2)
(-5319.6 670.862 1400.46 -3200.1 3937.02 2766.17)
(-5485.15 267.947 695.528 -3034.57 4120.4 2766.16)
(-5502.91 -167.285 -30.5377 -3016.83 4178.57 2766.15)
(-5370.72 -582.343 -755.683 -3149 4109.79 2766.15)
(-5104.55 -927.14 -1457.84 -3415.18 3916.12 2766.2)
(-4736.52 -1160.12 -2115.71 -3783.24 3603.47 2766.2)
(-4310.99 -1253.18 -2709.31 -4208.77 3181.33 2766.19)
(-3879.23 -1195.11 -3220.61 -4640.42 2662.54 2766.18)
(-3493.44 -992.859 -3634.02 -5026.22 2062.84 2766.2)
(-3200.1 -670.862 -3937.02 -5319.6 1400.46 2766.17)
(-3034.57 -267.947 -4120.4 -5485.15 695.528 2766.16)
(-3016.83 167.285 -4178.57 -5502.91 -30.5377 2766.15)
(-3149 582.343 -4109.79 -5370.72 -755.683 2766.15)
(-3415.18 927.14 -3916.12 -5104.55 -1457.84 2766.2)
(-3783.24 1160.12 -3603.47 -4736.52 -2115.71 2766.2)
(-4208.77 1253.18 -3181.33 -4310.99 -2709.31 2766.19)
(-4640.42 1195.11 -2662.54 -3879.23 -3220.61 2766.18)
(-5026.22 992.859 -2062.84 -3493.44 -3634.02 2766.2)
(-5319.6 670.862 -1400.46 -3200.1 -3937.02 2766.17)
(-9717.4 -804.843 -9.36015 1982.1 -839.593 -9935.95)
(-9089.33 -2757.04 136.577 1354.05 -828.463 -9935.93)
(-7831.44 -4376.69 278.358 96.2102 -792.15 -9935.92)
(-6095.52 -5468.45 411.709 -1639.79 -731.818 -9935.94)
(-4090.84 -5900.62 532.558 -3644.47 -649.233 -9935.92)
(-2059.21 -5621.11 637.177 -5676.04 -546.87 -9935.91)
(-245.723 -4663.61 722.419 -7489.5 -427.898 -9935.91)
(1130.89 -3143.6 785.758 -8866.13 -295.954 -9935.92)
(1904.59 -1244.42 825.213 -9639.89 -155.011 -9935.94)
(1982.1 804.843 839.593 -9717.4 -9.36015 -9935.95)
(1354.05 2757.04 828.463 -9089.33 136.577 -9935.93)
(96.2102 4376.69 792.15 -7831.44 278.358 -9935.92)
(-1639.79 5468.45 731.818 -6095.52 411.709 -9935.94)
(-3644.47 5900.62 649.233 -4090.84 532.558 -9935.92)
(-5676.04 5621.11 546.87 -2059.21 637.177 -9935.91)
(-7489.5 4663.61 427.898 -245.723 722.419 -9935.91)
(-8866.13 3143.6 295.954 1130.89 785.758 -9935.92)
(-9639.89 1244.42 155.011 1904.59 825.213 -9935.94)
(-9717.4 -804.843 9.36016 1982.1 839.593 -9935.95)
(-9089.33 -2757.04 -136.577 1354.05 828.463 -9935.93)
(-7831.44 -4376.69 -278.358 96.2102 792.15 -9935.92)
(-6095.52 -5468.45 -411.709 -1639.79 731.818 -9935.94)
(-4090.84 -5900.62 -532.558 -3644.47 649.233 -9935.92)
(-2059.21 -5621.11 -637.177 -5676.04 546.87 -9935.91)
(-245.723 -4663.61 -722.419 -7489.5 427.898 -9935.91)
(1130.89 -3143.6 -785.758 -8866.13 295.954 -9935.92)
(1904.59 -1244.42 -825.213 -9639.89 155.011 -9935.94)
(1982.1 804.843 -839.593 -9717.4 9.36015 -9935.95)
(1354.05 2757.04 -828.463 -9089.33 -136.577 -9935.93)
(96.2102 4376.69 -792.15 -7831.44 -278.358 -9935.92)
(-1639.79 5468.45 -731.818 -6095.52 -411.709 -9935.94)
(-3644.47 5900.62 -649.233 -4090.84 -532.558 -9935.92)
(-5676.04 5621.11 -546.87 -2059.21 -637.177 -9935.91)
(-7489.5 4663.61 -427.898 -245.723 -722.419 -9935.91)
(-8866.13 3143.6 -295.954 1130.89 -785.758 -9935.92)
(-9639.89 1244.42 -155.011 1904.59 -825.213 -9935.94)
(-15473.4 -1041.44 -1470.33 -10953.2 6518.01 -7929.8)
(-14980.9 -1751.65 -2579.84 -11445.7 6163.67 -7929.81)
(-14275.2 -2250.57 -3610.96 -12151.3 5622.04 -7929.76)
(-13441.4 -2478.06 -4532.35 -12985.1 4909.6 -7929.77)
(-12580.1 -2406.66 -5316.05 -13846.4 4047.98 -7929.87)
(-11795.2 -2044.95 -5938.2 -14631.4 3063.35 -7929.8)
(-11181.3 -1436.61 -6379.93 -15245.3 1985.66 -7929.81)
(-10812.5 -654.993 -6627.81 -15614.1 847.624 -7929.78)
(-10733.2 205.626 -6674.31 -15693.3 -316.16 -7929.8)
(-10953.2 1041.44 -6518.01 -15473.4 -1470.33 -7929.8)
(-11445.7 1751.65 -6163.67 -14980.9 -2579.84 -7929.81)
(-12151.3 2250.57 -5622.04 -14275.2 -3610.96 -7929.76)
(-12985.1 2478.06 -4909.6 -13441.4 -4532.35 -7929.77)
(-13846.4 2406.66 -4047.98 -12580.1 -5316.05 -7929.87)
(-14631.4 2044.95 -3063.35 -11795.2 -5938.2 -7929.8)
(-15245.3 1436.61 -1985.66 -11181.3 -6379.93 -7929.81)
(-15614.1 654.993 -847.624 -10812.5 -6627.81 -7929.78)
(-15693.3 -205.626 316.16 -10733.2 -6674.31 -7929.8)
(-15473.4 -1041.44 1470.33 -10953.2 -6518.01 -7929.8)
(-14980.9 -1751.65 2579.84 -11445.7 -6163.67 -7929.81)
(-14275.2 -2250.57 3610.96 -12151.3 -5622.04 -7929.76)
(-13441.4 -2478.06 4532.35 -12985.1 -4909.6 -7929.77)
(-12580.1 -2406.66 5316.05 -13846.4 -4047.98 -7929.87)
(-11795.2 -2044.95 5938.2 -14631.4 -3063.35 -7929.8)
(-11181.3 -1436.61 6379.93 -15245.3 -1985.66 -7929.81)
(-10812.5 -654.993 6627.81 -15614.1 -847.624 -7929.78)
(-10733.2 205.626 6674.31 -15693.3 316.16 -7929.8)
(-10953.2 1041.44 6518.01 -15473.4 1470.33 -7929.8)
(-11445.7 1751.65 6163.67 -14980.9 2579.84 -7929.81)
(-12151.3 2250.57 5622.04 -14275.2 3610.96 -7929.76)
(-12985.1 2478.06 4909.6 -13441.4 4532.35 -7929.77)
(-13846.4 2406.66 4047.98 -12580.1 5316.05 -7929.87)
(-14631.4 2044.95 3063.35 -11795.2 5938.2 -7929.8)
(-15245.3 1436.61 1985.66 -11181.3 6379.93 -7929.81)
(-15614.1 654.993 847.624 -10812.5 6627.81 -7929.78)
(-15693.3 -205.626 -316.16 -10733.2 6674.31 -7929.8)
(2128.09 156.314 -368.139 3885.33 -3542.56 11008.6)
(2127.59 -153.612 252.603 3885.75 -3552.64 11008.6)
(2233.11 -445.02 865.69 3780.18 -3454.82 11008.6)
(2432.04 -682.724 1452.43 3581.38 -3251.98 11008.7)
(2700.2 -838.099 1995.06 3313.22 -2950.36 11008.7)
(3005.31 -892.388 2477.08 3008.06 -2559.1 11008.7)
(3310.64 -839.061 2883.87 2702.77 -2090.1 11008.6)
(3579.23 -684.499 3202.98 2434.08 -1557.56 11008.6)
(3778.87 -447.394 3424.82 2234.53 -977.707 11008.6)
(3885.33 -156.314 3542.56 2128.09 -368.139 11008.6)
(3885.75 153.612 3552.64 2127.59 252.603 11008.6)
(3780.18 445.02 3454.82 2233.11 865.69 11008.6)
(3581.38 682.724 3251.98 2432.04 1452.43 11008.7)
(3313.22 838.099 2950.36 2700.2 1995.06 11008.7)
(3008.06 892.388 2559.1 3005.31 2477.08 11008.7)
(2702.77 839.061 2090.1 3310.64 2883.87 11008.6)
(2434.08 684.499 1557.56 3579.23 3202.98 11008.6)
(2234.53 447.394 977.707 3778.87 3424.82 11008.6)
(2128.09 156.314 368.139 3885.33 3542.56 11008.6)
(2127.59 -153.612 -252.603 3885.75 3552.64 11008.6)
(2233.11 -445.02 -865.69 3780.18 3454.82 11008.6)
(2432.04 -682.724 -1452.43 3581.38 3251.98 11008.7)
(2700.2 -838.099 -1995.06 3313.22 2950.36 11008.7)
(3005.31 -892.388 -2477.08 3008.06 2559.1 11008.7)
(3310.64 -839.061 -2883.87 2702.77 2090.1 11008.6)
(3579.23 -684.499 -3202.98 2434.08 1557.56 11008.6)
(3778.87 -447.394 -3424.82 2234.53 977.707 11008.6)
(3885.33 -156.314 -3542.56 2128.09 368.139 11008.6)
(3885.75 153.612 -3552.64 2127.59 -252.603 11008.6)
(3780.18 445.02 -3454.82 2233.11 -865.69 11008.6)
(3581.38 682.724 -3251.98 2432.04 -1452.43 11008.7)
(3313.22 838.099 -2950.36 2700.2 -1995.06 11008.7)
(3008.06 892.388 -2559.1 3005.31 -2477.08 11008.7)
(2702.77 839.061 -2090.1 3310.64 -2883.87 11008.6)
(2434.08 684.499 -1557.56 3579.23 -3202.98 11008.6)
(2234.53 447.394 -977.707 3778.87 -3424.82 11008.6)
(-1151.19 -651.222 37.0498 10449.7 -1334.84 -1373.84)
(-578.634 -2595.81 268.289 9877.18 -1308.17 -1373.8)
(624.464 -4227.32 491.367 8674.07 -1241.69 -1373.82)
(2312.92 -5348.93 699.537 6985.42 -1137.53 -1373.9)
(4283.29 -5825.4 886.432 5015.13 -998.766 -1373.86)
(6297.77 -5599.24 1046.41 3000.66 -829.672 -1373.85)
(8113.43 -4697.72 1174.55 1185.03 -635.345 -1373.86)
(9511.27 -3229.59 1267.06 -212.708 -421.74 -1373.79)
(10322.6 -1371.92 1321 -1024.12 -195.306 -1373.84)
(10449.7 651.222 1334.84 -1151.19 37.0498 -1373.84)
(9877.18 2595.81 1308.17 -578.634 268.289 -1373.8)
(8674.07 4227.32 1241.69 624.464 491.367 -1373.82)
(6985.42 5348.93 1137.53 2312.92 699.537 -1373.9)
(5015.13 5825.4 998.766 4283.29 886.432 -1373.86)
(3000.66 5599.24 829.672 6297.77 1046.41 -1373.85)
(1185.03 4697.72 635.345 8113.43 1174.55 -1373.86)
(-212.708 3229.59 421.74 9511.27 1267.06 -1373.79)
(-1024.12 1371.92 195.306 10322.6 1321 -1373.84)
(-1151.19 -651.222 -37.0498 10449.7 1334.84 -1373.84)
(-578.634 -2595.81 -268.289 9877.18 1308.17 -1373.8)
(624.464 -4227.32 -491.367 8674.07 1241.69 -1373.82)
(2312.92 -5348.93 -699.537 6985.42 1137.53 -1373.9)
(4283.29 -5825.4 -886.432 5015.13 998.766 -1373.86)
(6297.77 -5599.24 -1046.41 3000.66 829.672 -1373.85)
(8113.43 -4697.72 -1174.55 1185.03 635.345 -1373.86)
(9511.27 -3229.59 -1267.06 -212.708 421.74 -1373.79)
(10322.6 -1371.92 -1321 -1024.12 195.306 -1373.84)
(10449.7 651.222 -1334.84 -1151.19 -37.0498 -1373.84)
(9877.18 2595.81 -1308.17 -578.634 -268.289 -1373.8)
(8674.07 4227.32 -1241.69 624.464 -491.367 -1373.82)
(6985.42 5348.93 -1137.53 2312.92 -699.537 -1373.9)
(5015.13 5825.4 -998.766 4283.29 -886.432 -1373.86)
(3000.66 5599.24 -829.672 6297.77 -1046.41 -1373.85)
(1185.03 4697.72 -635.345 8113.43 -1174.55 -1373.86)
(-212.708 3229.59 -421.74 9511.27 -1267.06 -1373.79)
(-1024.12 1371.92 -195.306 10322.6 -1321 -1373.84)
(-6343.19 -580.581 -1000.43 -1425.99 6593.27 1010.78)
(-5996.34 -1386.46 -2130.14 -1772.82 6319.39 1010.77)
(-5394.78 -2025.11 -3195.12 -2374.36 5853.49 1010.8)
(-4610.98 -2419.49 -4163.03 -3157.99 5209.72 1010.91)
(-3739.71 -2522.07 -5004.45 -4029.36 4407.68 1010.81)
(-2885.89 -2320.42 -5693.8 -4883.26 3471.7 1010.82)
(-2152.5 -1838.92 -6210.15 -5616.68 2430.24 1010.78)
(-1628.02 -1135.61 -6537.82 -6141.19 1314.94 1010.76)
(-1375.71 -295.323 -6666.83 -6393.5 159.682 1010.77)
(-1425.99 580.581 -6593.27 -6343.19 -1000.43 1010.78)
(-1772.82 1386.46 -6319.39 -5996.34 -2130.14 1010.77)
(-2374.36 2025.11 -5853.49 -5394.78 -3195.12 1010.8)
(-3157.99 2419.49 -5209.72 -4610.98 -4163.03 1010.91)
(-4029.36 2522.07 -4407.68 -3739.71 -5004.45 1010.81)
(-4883.26 2320.42 -3471.7 -2885.89 -5693.8 1010.82)
(-5616.68 1838.92 -2430.24 -2152.5 -6210.15 1010.78)
(-6141.19 1135.61 -1314.94 -1628.02 -6537.82 1010.76)
(-6393.5 295.323 -159.682 -1375.71 -6666.83 1010.77)
(-6343.19 -580.581 1000.43 -1425.99 -6593.27 1010.78)
(-5996.34 -1386.46 2130.14 -1772.82 -6319.39 1010.77)
(-5394.78 -2025.11 3195.12 -2374.36 -5853.49 1010.8)
(-4610.98 -2419.49 4163.03 -3157.99 -5209.72 1010.91)
(-3739.71 -2522.07 5004.45 -4029.36 -4407.68 1010.81)
(-2885.89 -2320.42 5693.8 -4883.26 -3471.7 1010.82)
(-2152.5 -1838.92 6210.15 -5616.68 -2430.24 1010.78)
(-1628.02 -1135.61 6537.82 -6141.19 -1314.94 1010.76)
(-1375.71 -295.323 6666.83 -6393.5 -159.682 1010.77)
(-1425.99 580.581 6593.27 -6343.19 1000.43 1010.78)
(-1772.82 1386.46 6319.39 -5996.34 2130.14 1010.77)
(-2374.36 2025.11 5853.49 -5394.78 3195.12 1010.8)
(-3157.99 2419.49 5209.72 -4610.98 4163.03 1010.91)
(-4029.36 2522.07 4407.68 -3739.71 5004.45 1010.81)
(-4883.26 2320.42 3471.7 -2885.89 5693.8 1010.82)
(-5616.68 1838.92 2430.24 -2152.5 6210.15 1010.78)
(-6141.19 1135.61 1314.94 -1628.02 6537.82 1010.76)
(-6393.5 295.323 159.682 -1375.71 6666.83 1010.77)
(1456.88 71.4032 112.931 3155.2 -3514.58 9996.53)
(1483.72 -223.332 721.513 3128.47 -3441.57 9996.59)
(1609.64 -491.132 1308.17 3002.43 -3264 9996.53)
(1819.66 -699.68 1855.07 2792.48 -2987.22 9996.62)
(2088.32 -823.872 2345.65 2523.87 -2619.74 9996.56)
(2383.16 -848.643 2764.88 2228.9 -2172.6 9996.59)
(2668.82 -771.099 3100.18 1943.33 -1659.49 9996.57)
(2910.65 -600.529 3341.24 1701.46 -1095.94 9996.57)
(3079.61 -357.528 3480.79 1532.55 -499.086 9996.57)
(3155.2 -71.4032 3514.58 1456.88 112.931 9996.53)
(3128.47 223.332 3441.57 1483.72 721.513 9996.59)
(3002.43 491.132 3264 1609.64 1308.17 9996.53)
(2792.48 699.68 2987.22 1819.66 1855.07 9996.62)
(2523.87 823.872 2619.74 2088.32 2345.65 9996.56)
(2228.9 848.643 2172.6 2383.16 2764.88 9996.59)
(1943.33 771.099 1659.49 2668.82 3100.18 9996.57)
(1701.46 600.529 1095.94 2910.65 3341.24 9996.57)
(1532.55 357.528 499.086 3079.61 3480.79 9996.57)
(1456.88 71.4032 -112.931 3155.2 3514.58 9996.53)
(1483.72 -223.332 -721.513 3128.47 3441.57 9996.59)
(1609.64 -491.132 -1308.17 3002.43 3264 9996.53)
(1819.66 -699.68 -1855.07 2792.48 2987.22 9996.62)
(2088.32 -823.872 -2345.65 2523.87 2619.74 9996.56)
(2383.16 -848.643 -2764.88 2228.9 2172.6 9996.59)
(2668.82 -771.099 -3100.18 1943.33 1659.49 9996.57)
(2910.65 -600.529 -3341.24 1701.46 1095.94 9996.57)
(3079.61 -357.528 -3480.79 1532.55 499.086 9996.57)
(3155.2 -71.4032 -3514.58 1456.88 -112.931 9996.53)
(3128.47 223.332 -3441.57 1483.72 -721.513 9996.59)
(3002.43 491.132 -3264 1609.64 -1308.17 9996.53)
(2792.48 699.68 -2987.22 1819.66 -1855.07 9996.62)
(2523.87 823.872 -2619.74 2088.32 -2345.65 9996.56)
(2228.9 848.643 -2172.6 2383.16 -2764.88 9996.59)
(1943.33 771.099 -1659.49 2668.82 -3100.18 9996.57)
(1701.46 600.529 -1095.94 2910.65 -3341.24 9996.57)
(1532.55 357.528 -499.086 3079.61 -3480.79 9996.57)
(-1585.98 -545.075 75.7106 10021.7 -1476.98 -1969.57)
(-1049.61 -2497.24 331.041 9485.22 -1441.42 -1969.63)
(122.235 -4148.19 576.316 8313.53 -1362.05 -1969.54)
(1787.96 -5298.82 804.077 6647.72 -1241.28 -1969.58)
(3746.86 -5810.34 1007.38 4688.94 -1082.76 -1969.55)
(5762.51 -5621.03 1180.13 2673.27 -891.409 -1969.53)
(7591.81 -4753.75 1316.99 843.868 -672.939 -1969.59)
(9014.23 -3313.1 1413.83 -578.529 -434.02 -1969.58)
(9858.13 -1472.84 1467.69 -1422.42 -181.916 -1969.59)
(10021.7 545.075 1476.98 -1585.98 75.7106 -1969.57)
(9485.22 2497.24 1441.42 -1049.61 331.041 -1969.63)
(8313.53 4148.19 1362.05 122.235 576.316 -1969.54)
(6647.72 5298.82 1241.28 1787.96 804.077 -1969.58)
(4688.94 5810.34 1082.76 3746.86 1007.38 -1969.55)
(2673.27 5621.03 891.409 5762.51 1180.13 -1969.53)
(843.868 4753.75 672.939 7591.81 1316.99 -1969.59)
(-578.529 3313.1 434.02 9014.23 1413.83 -1969.58)
(-1422.42 1472.84 181.916 9858.13 1467.69 -1969.59)
(-1585.98 -545.075 -75.7106 10021.7 1476.98 -1969.57)
(-1049.61 -2497.24 -331.041 9485.22 1441.42 -1969.63)
(122.235 -4148.19 -576.316 8313.53 1362.05 -1969.54)
(1787.96 -5298.82 -804.077 6647.72 1241.28 -1969.58)
(3746.86 -5810.34 -1007.38 4688.94 1082.76 -1969.55)
(5762.51 -5621.03 -1180.13 2673.27 891.409 -1969.53)
(7591.81 -4753.75 -1316.99 843.868 672.939 -1969.59)
(9014.23 -3313.1 -1413.83 -578.529 434.02 -1969.58)
(9858.13 -1472.84 -1467.69 -1422.42 181.916 -1969.59)
(10021.7 545.075 -1476.98 -1585.98 -75.7106 -1969.57)
(9485.22 2497.24 -1441.42 -1049.61 -331.041 -1969.63)
(8313.53 4148.19 -1362.05 122.235 -576.316 -1969.54)
(6647.72 5298.82 -1241.28 1787.96 -804.077 -1969.58)
(4688.94 5810.34 -1082.76 3746.86 -1007.38 -1969.55)
(2673.27 5621.03 -891.409 5762.51 -1180.13 -1969.53)
(843.868 4753.75 -672.939 7591.81 -1316.99 -1969.59)
(-578.529 3313.1 -434.02 9014.23 -1413.83 -1969.58)
(-1422.42 1472.84 -181.916 9858.13 -1467.69 -1969.59)
(-6647.36 -102.563 -554.253 -1569.98 6548.02 406.082)
(-6459.15 -964.659 -1682.88 -1758.13 6352.29 406.104)
(-5987.55 -1710.4 -2760.37 -2229.89 5963.56 406.024)
(-5289.24 -2249.85 -3754.01 -2928.2 5393.62 406.037)
(-4448.55 -2517.93 -4633.56 -3768.87 4659.81 406.022)
(-3566.85 -2482.31 -5372.34 -4650.54 3784.4 406.059)
(-2750.48 -2147.29 -5947.88 -5466.82 2794.01 406.094)
(-2098 -1553.27 -6342.69 -6119.35 1718.73 406.065)
(-1688.02 -771.905 -6544.78 -6529.35 591.218 406.066)
(-1569.98 102.563 -6548.02 -6647.36 -554.253 406.082)
(-1758.13 964.659 -6352.29 -6459.15 -1682.88 406.104)
(-2229.89 1710.4 -5963.56 -5987.55 -2760.37 406.024)
(-2928.2 2249.85 -5393.62 -5289.24 -3754.01 406.037)
(-3768.87 2517.93 -4659.81 -4448.55 -4633.56 406.021)
(-4650.54 2482.31 -3784.4 -3566.85 -5372.34 406.059)
(-5466.82 2147.29 -2794.01 -2750.48 -5947.88 406.094)
(-6119.35 1553.27 -1718.73 -2098 -6342.69 406.065)
(-6529.35 771.905 -591.218 -1688.02 -6544.78 406.066)
(-6647.36 -102.563 554.253 -1569.98 -6548.02 406.082)
(-6459.15 -964.659 1682.88 -1758.13 -6352.29 406.104)
(-5987.55 -1710.4 2760.37 -2229.89 -5963.56 406.024)
(-5289.24 -2249.85 3754.01 -2928.2 -5393.62 406.037)
(-4448.55 -2517.93 4633.56 -3768.87 -4659.81 406.021)
(-3566.85 -2482.31 5372.34 -4650.54 -3784.4 406.059)
(-2750.48 -2147.29 5947.88 -5466.82 -2794.01 406.094)
(-2098 -1553.27 6342.69 -6119.35 -1718.73 406.065)
(-1688.02 -771.905 6544.78 -6529.35 -591.218 406.066)
(-1569.98 102.563 6548.02 -6647.36 554.253 406.082)
(-1758.13 964.659 6352.29 -6459.15 1682.88 406.104)
(-2229.89 1710.4 5963.56 -5987.55 2760.37 406.024)
(-2928.2 2249.85 5393.62 -5289.24 3754.01 406.037)
(-3768.87 2517.93 4659.81 -4448.55 4633.56 406.022)
(-4650.54 2482.31 3784.4 -3566.85 5372.34 406.059)
(-5466.82 2147.29 2794.01 -2750.48 5947.88 406.094)
(-6119.35 1553.27 1718.73 -2098 6342.69 406.065)
(-6529.35 771.905 591.218 -1688.02 6544.78 406.066)
(1517.98 -20.1417 592.923 3152.03 -3522.67 9645.36)
(1574.09 -298.372 1195.63 3095.84 -3366.22 9645.29)
(1722.1 -540.616 1762.01 2947.97 -3107.47 9645.34)
(1943.92 -717.639 2274.83 2726.06 -2754.27 9645.33)
(2212.97 -808.113 2718.54 2457.04 -2317.41 9645.35)
(2496.7 -801.116 3079.66 2173.27 -1810.13 9645.33)
(2760.95 -697.504 3347.21 1909.02 -1247.87 9645.29)
(2973.82 -509.748 3513.05 1696.15 -647.668 9645.3)
(3109.63 -260.51 3572.12 1560.35 -27.7902 9645.35)
(3152.03 20.1417 3522.67 1517.98 592.923 9645.36)
(3095.84 298.372 3366.22 1574.09 1195.63 9645.29)
(2947.97 540.616 3107.47 1722.1 1762.01 9645.34)
(2726.06 717.639 2754.27 1943.92 2274.83 9645.33)
(2457.04 808.113 2317.41 2212.97 2718.54 9645.35)
(2173.27 801.116 1810.13 2496.7 3079.66 9645.33)
(1909.02 697.504 1247.87 2760.95 3347.21 9645.29)
(1696.15 509.748 647.668 2973.82 3513.05 9645.3)
(1560.35 260.51 27.7902 3109.63 3572.12 9645.35)
(1517.98 -20.1417 -592.923 3152.03 3522.67 9645.36)
(1574.09 -298.372 -1195.63 3095.84 3366.22 9645.29)
(1722.1 -540.616 -1762.01 2947.97 3107.47 9645.34)
(1943.92 -717.639 -2274.83 2726.06 2754.27 9645.33)
(2212.97 -808.113 -2718.54 2457.04 2317.41 9645.35)
(2496.7 -801.116 -3079.66 2173.27 1810.13 9645.33)
(2760.95 -697.504 -3347.21 1909.02 1247.87 9645.29)
(2973.82 -509.748 -3513.05 1696.15 647.668 9645.3)
(3109.63 -260.51 -3572.12 1560.35 27.7902 9645.35)
(3152.03 20.1417 -3522.67 1517.98 -592.923 9645.36)
(3095.84 298.372 -3366.22 1574.09 -1195.63 9645.29)
(2947.97 540.616 -3107.47 1722.1 -1762.01 9645.34)
(2726.06 717.639 -2754.27 1943.92 -2274.83 9645.33)
(2457.04 808.113 -2317.41 2212.97 -2718.54 9645.35)
(2173.27 801.116 -1810.13 2496.7 -3079.66 9645.33)
(1909.02 697.504 -1247.87 2760.95 -3347.21 9645.29)
(1696.15 509.748 -647.668 2973.82 -3513.05 9645.3)
(1560.35 260.51 -27.7902 3109.63 -3572.12 9645.35)
(-1397.38 -458.121 112.166 10213.2 -1550.96 -1953.86)
(-890.566 -2416.02 379.782 9706.43 -1507.91 -1953.83)
(255.283 -4082.51 635.858 8560.54 -1419.05 -1953.85)
(1902.04 -5256.59 872.619 6913.83 -1287.09 -1953.82)
(3850.99 -5796.64 1082.87 4964.81 -1116.01 -1953.85)
(5867.18 -5637.54 1260.2 2948.7 -911.014 -1953.82)
(7707.3 -4798.47 1399.24 1108.52 -678.337 -1953.86)
(9149.51 -3380.62 1495.78 -333.656 -425.055 -1953.84)
(10019.8 -1555.03 1546.87 -1203.96 -158.859 -1953.85)
(10213.2 458.121 1550.96 -1397.38 112.166 -1953.86)
(9706.43 2416.02 1507.91 -890.566 379.782 -1953.83)
(8560.54 4082.51 1419.05 255.283 635.858 -1953.85)
(6913.83 5256.59 1287.09 1902.04 872.619 -1953.82)
(4964.81 5796.64 1116.01 3850.99 1082.87 -1953.85)
(2948.7 5637.54 911.014 5867.18 1260.2 -1953.82)
(1108.52 4798.47 678.337 7707.3 1399.24 -1953.86)
(-333.656 3380.62 425.055 9149.51 1495.78 -1953.84)
(-1203.96 1555.03 158.859 10019.8 1546.87 -1953.85)
(-1397.38 -458.121 -112.166 10213.2 1550.96 -1953.86)
(-890.566 -2416.02 -379.782 9706.43 1507.91 -1953.83)
(255.283 -4082.51 -635.858 8560.54 1419.05 -1953.85)
(1902.04 -5256.59 -872.619 6913.83 1287.09 -1953.82)
(3850.99 -5796.64 -1082.87 4964.81 1116.01 -1953.85)
(5867.18 -5637.54 -1260.2 2948.7 911.014 -1953.82)
(7707.3 -4798.47 -1399.24 1108.52 678.337 -1953.86)
(9149.51 -3380.62 -1495.78 -333.656 425.055 -1953.84)
(10019.8 -1555.03 -1546.87 -1203.96 158.859 -1953.85)
(10213.2 458.121 -1550.96 -1397.38 -112.166 -1953.86)
(9706.43 2416.02 -1507.91 -890.566 -379.782 -1953.83)
(8560.54 4082.51 -1419.05 255.283 -635.858 -1953.85)
(6913.83 5256.59 -1287.09 1902.04 -872.619 -1953.82)
(4964.81 5796.64 -1116.01 3850.99 -1082.87 -1953.85)
(2948.7 5637.54 -911.014 5867.18 -1260.2 -1953.82)
(1108.52 4798.47 -678.337 7707.3 -1399.24 -1953.86)
(-333.656 3380.62 -425.055 9149.51 -1495.78 -1953.84)
(-1203.96 1555.03 -158.859 10019.8 -1546.87 -1953.85)
(-6133.01 362.644 -139.38 -987.952 6499.41 597.422)
(-6101.92 -539.086 -1265.88 -1019.07 6376.47 597.393)
(-5764.28 -1375.79 -2353.9 -1356.73 6059.78 597.384)
(-5160.81 -2046.55 -3370.41 -1960.16 5558.96 597.42)
(-4364.33 -2470.48 -4284.51 -2756.63 4889.25 597.388)
(-3470.95 -2596.41 -5068.42 -3650.1 4070.97 597.395)
(-2588.26 -2409.2 -5698.35 -4532.68 3129 597.423)
(-1822.93 -1931.39 -6155.12 -5298.07 2091.95 597.39)
(-1267.12 -1220.63 -6424.87 -5853.82 991.349 597.431)
(-987.952 -362.644 -6499.41 -6133.01 -139.38 597.422)
(-1019.07 539.086 -6376.47 -6101.92 -1265.88 597.393)
(-1356.73 1375.79 -6059.78 -5764.28 -2353.9 597.384)
(-1960.16 2046.55 -5558.96 -5160.81 -3370.41 597.42)
(-2756.63 2470.48 -4889.25 -4364.33 -4284.51 597.388)
(-3650.1 2596.41 -4070.97 -3470.95 -5068.42 597.395)
(-4532.68 2409.2 -3129 -2588.26 -5698.35 597.423)
(-5298.07 1931.39 -2091.95 -1822.93 -6155.12 597.39)
(-5853.82 1220.63 -991.349 -1267.12 -6424.87 597.431)
(-6133.01 362.644 139.38 -987.952 -6499.41 597.422)
(-6101.92 -539.086 1265.88 -1019.07 -6376.47 597.393)
(-5764.28 -1375.79 2353.9 -1356.73 -6059.78 597.384)
(-5160.81 -2046.55 3370.41 -1960.16 -5558.96 597.42)
(-4364.33 -2470.48 4284.51 -2756.63 -4889.25 597.388)
(-3470.95 -2596.41 5068.42 -3650.1 -4070.97 597.395)
(-2588.26 -2409.2 5698.35 -4532.68 -3129 597.423)
(-1822.93 -1931.39 6155.12 -5298.07 -2091.95 597.39)
(-1267.12 -1220.63 6424.87 -5853.82 -991.349 597.431)
(-987.952 -362.644 6499.41 -6133.01 139.38 597.422)
(-1019.07 539.086 6376.47 -6101.92 1265.88 597.393)
(-1356.73 1375.79 6059.78 -5764.28 2353.9 597.384)
(-1960.16 2046.55 5558.96 -5160.81 3370.41 597.42)
(-2756.63 2470.48 4889.25 -4364.33 4284.51 597.388)
(-3650.1 2596.41 4070.97 -3470.95 5068.42 597.395)
(-4532.68 2409.2 3129 -2588.26 5698.35 597.423)
(-5298.07 1931.39 2091.95 -1822.93 6155.12 597.39)
(-5853.82 1220.63 991.349 -1267.12 6424.87 597.431)
(1442.08 -130.626 1063.01 2936.34 -3515.49 9124.53)
(1531.79 -378.288 1657.32 2846.6 -3277.51 9124.49)
(1700.89 -580.317 2201.28 2677.63 -2939.92 9124.57)
(1928.78 -712.361 2678.35 2449.67 -2513.03 9124.5)
(2188.11 -758.455 3074.03 2190.3 -2009.72 9124.55)
(2447.62 -713.106 3376.33 1930.85 -1445.41 9124.52)
(2675.88 -581.723 3576.02 1702.49 -837.157 9124.5)
(2845.58 -380.183 3667.08 1532.95 -203.47 9124.55)
(2935.95 -132.783 3646.68 1442.45 436.406 9124.52)
(2936.34 130.626 3515.49 1442.08 1063.01 9124.53)
(2846.6 378.288 3277.51 1531.79 1657.32 9124.49)
(2677.63 580.317 2939.92 1700.89 2201.28 9124.57)
(2449.67 712.361 2513.03 1928.78 2678.35 9124.5)
(2190.3 758.455 2009.72 2188.11 3074.03 9124.55)
(1930.85 713.106 1445.41 2447.62 3376.33 9124.52)
(1702.49 581.723 837.157 2675.88 3576.02 9124.5)
(1532.95 380.183 203.47 2845.58 3667.08 9124.55)
(1442.45 132.783 -436.406 2935.95 3646.68 9124.52)
(1442.08 -130.626 -1063.01 2936.34 3515.49 9124.53)
(1531.79 -378.288 -1657.32 2846.6 3277.51 9124.49)
(1700.89 -580.317 -2201.28 2677.63 2939.92 9124.57)
(1928.78 -712.361 -2678.35 2449.67 2513.03 9124.5)
(2188.11 -758.455 -3074.03 2190.3 2009.72 9124.55)
(2447.62 -713.106 -3376.33 1930.85 1445.41 9124.52)
(2675.88 -581.723 -3576.02 1702.49 837.157 9124.5)
(2845.58 -380.183 -3667.08 1532.95 203.47 9124.55)
(2935.95 -132.783 -3646.68 1442.45 -436.406 9124.52)
(2936.34 130.626 -3515.49 1442.08 -1063.01 9124.53)
(2846.6 378.288 -3277.51 1531.79 -1657.32 9124.49)
(2677.63 580.317 -2939.92 1700.89 -2201.28 9124.57)
(2449.67 712.361 -2513.03 1928.78 -2678.35 9124.5)
(2190.3 758.455 -2009.72 2188.11 -3074.03 9124.55)
(1930.85 713.106 -1445.41 2447.62 -3376.33 9124.52)
(1702.49 581.723 -837.157 2675.88 -3576.02 9124.5)
(1532.95 380.183 -203.47 2845.58 -3667.08 9124.55)
(1442.45 132.783 436.406 2935.95 -3646.68 9124.52)
(-1397.82 -403.802 147.87 10162.3 -1630.12 -2121.39)
(-911.101 -2356.36 428.693 9675.65 -1579.68 -2121.36)
(213.984 -4024.69 696.479 8550.45 -1481.22 -2121.43)
(1841.92 -5207.59 943.109 6922.6 -1337.78 -2121.39)
(3776.19 -5762.37 1161.11 4988.25 -1153.71 -2121.41)
(5783.6 -5622.14 1343.78 2980.86 -934.535 -2121.42)
(7622.01 -4803.79 1485.64 1142.52 -686.993 -2121.39)
(9069.55 -3406.03 1582.39 -305.142 -418.583 -2121.43)
(9951.86 -1597.45 1631.04 -1187.33 -137.444 -2121.37)
(10162.3 403.802 1630.12 -1397.82 147.87 -2121.39)
(9675.65 2356.36 1579.68 -911.101 428.693 -2121.36)
(8550.45 4024.69 1481.22 213.984 696.479 -2121.43)
(6922.6 5207.59 1337.78 1841.92 943.109 -2121.39)
(4988.25 5762.37 1153.71 3776.19 1161.11 -2121.41)
(2980.86 5622.14 934.535 5783.6 1343.78 -2121.42)
(1142.52 4803.79 686.993 7622.01 1485.64 -2121.39)
(-305.142 3406.03 418.583 9069.55 1582.39 -2121.43)
(-1187.33 1597.45 137.444 9951.86 1631.04 -2121.37)
(-1397.82 -403.802 -147.87 10162.3 1630.12 -2121.39)
(-911.101 -2356.36 -428.693 9675.65 1579.68 -2121.36)
(213.984 -4024.69 -696.479 8550.45 1481.22 -2121.43)
(1841.92 -5207.59 -943.109 6922.6 1337.78 -2121.39)
(3776.19 -5762.37 -1161.11 4988.25 1153.71 -2121.41)
(5783.6 -5622.14 -1343.78 2980.86 934.535 -2121.42)
(7622.01 -4803.79 -1485.64 1142.52 686.993 -2121.39)
(9069.55 -3406.03 -1582.39 -305.142 418.583 -2121.43)
(9951.86 -1597.45 -1631.04 -1187.33 137.444 -2121.37)
(10162.3 403.802 -1630.12 -1397.82 -147.87 -2121.39)
(9675.65 2356.36 -1579.68 -911.101 -428.693 -2121.36)
(8550.45 4024.69 -1481.22 213.984 -696.479 -2121.43)
(6922.6 5207.59 -1337.78 1841.92 -943.109 -2121.39)
(4988.25 5762.37 -1153.71 3776.19 -1161.11 -2121.41)
(2980.86 5622.14 -934.535 5783.6 -1343.78 -2121.42)
(1142.52 4803.79 -686.993 7622.01 -1485.64 -2121.39)
(-305.142 3406.03 -418.583 9069.55 -1582.39 -2121.43)
(-1187.33 1597.45 -137.444 9951.86 -1631.04 -2121.37)
(-5771.42 805.185 249.439 -632.716 6441.13 571.65)
(-5891.88 -122.137 -872.838 -512.326 6386.58 571.667)
(-5687.88 -1034.73 -1968.6 -716.287 6137.99 571.657)
(-5184.05 -1822.51 -3004.54 -1220.09 5702.9 571.7)
(-4441.21 -2390.48 -3949.19 -1962.99 5094.52 571.661)
(-3548.87 -2670.12 -4773.85 -2855.28 4331.36 571.696)
(-2614.72 -2627.71 -5453.46 -3789.45 3436.58 571.664)
(-1751.4 -2268.34 -5967.36 -4652.71 2437.39 571.717)
(-1063.09 -1635.4 -6299.96 -5341.1 1364.14 571.632)
(-632.716 -805.185 -6441.13 -5771.42 249.439 571.65)
(-512.326 122.137 -6386.58 -5891.88 -872.838 571.667)
(-716.287 1034.73 -6137.99 -5687.88 -1968.6 571.657)
(-1220.09 1822.51 -5702.9 -5184.05 -3004.54 571.7)
(-1962.99 2390.48 -5094.52 -4441.21 -3949.19 571.661)
(-2855.28 2670.12 -4331.36 -3548.87 -4773.85 571.696)
(-3789.45 2627.71 -3436.58 -2614.72 -5453.46 571.663)
(-4652.71 2268.34 -2437.39 -1751.4 -5967.36 571.717)
(-5341.1 1635.4 -1364.14 -1063.09 -6299.96 571.632)
(-5771.42 805.185 -249.439 -632.716 -6441.13 571.65)
(-5891.88 -122.137 872.838 -512.326 -6386.58 571.667)
(-5687.88 -1034.73 1968.6 -716.287 -6137.99 571.657)
(-5184.05 -1822.51 3004.54 -1220.09 -5702.9 571.7)
(-4441.21 -2390.48 3949.19 -1962.99 -5094.52 571.661)
(-3548.87 -2670.12 4773.85 -2855.28 -4331.36 571.696)
(-2614.72 -2627.71 5453.46 -3789.45 -3436.58 571.664)
(-1751.4 -2268.34 5967.36 -4652.71 -2437.39 571.717)
(-1063.09 -1635.4 6299.96 -5341.1 -1364.14 571.632)
(-632.716 -805.185 6441.13 -5771.42 -249.439 571.65)
(-512.326 122.137 6386.58 -5891.88 872.838 571.667)
(-716.287 1034.73 6137.99 -5687.88 1968.6 571.657)
(-1220.09 1822.51 5702.9 -5184.05 3004.54 571.7)
(-1962.99 2390.48 5094.52 -4441.21 3949.19 571.661)
(-2855.28 2670.12 4331.36 -3548.87 4773.85 571.696)
(-3789.45 2627.71 3436.58 -2614.72 5453.46 571.664)
(-4652.71 2268.34 2437.39 -1751.4 5967.36 571.717)
(-5341.1 1635.4 1364.14 -1063.09 6299.96 571.632)
(1401.89 -268.231 1528.28 2663.4 -3485.1 8588.87)
(1531.62 -467.784 2110.24 2533.56 -3166.76 8588.83)
(1721.87 -610.909 2628.08 2343.4 -2752.2 8588.89)
(1949.57 -680.372 3066.09 2115.72 -2254.05 8588.84)
(2187.26 -667.746 3410.9 1878.01 -1687.38 8588.87)
(2406.35 -574.596 3652.11 1658.97 -1069.45 8588.87)
(2580.27 -412.123 3782.31 1484.95 -419.007 8588.87)
(2688.25 -199.96 3797.61 1377.05 244.142 8588.89)
(2717.09 36.326 3697.53 1348.18 899.88 8588.85)
(2663.4 268.231 3485.1 1401.89 1528.28 8588.87)
(2533.56 467.784 3166.76 1531.62 2110.24 8588.83)
(2343.4 610.909 2752.2 1721.87 2628.08 8588.89)
(2115.72 680.372 2254.05 1949.57 3066.09 8588.84)
(1878.01 667.746 1687.38 2187.26 3410.9 8588.87)
(1658.97 574.596 1069.45 2406.35 3652.11 8588.87)
(1484.95 412.123 419.007 2580.27 3782.31 8588.87)
(1377.05 199.96 -244.142 2688.25 3797.61 8588.89)