/*--------------------------------*- C++ -*----------------------------------*\
| =========                 |                                                 |
| \\      /  F ield         | OpenFOAM: The Open Source CFD Toolbox           |
|  \\    /   O peration     | Version:  2412                                  |
|   \\  /    A nd           | Website:  www.openfoam.com                      |
|    \\/     M anipulation  |                                                 |
\*---------------------------------------------------------------------------*/
FoamFile
{
    version     2.0;
    format      ascii;
    arch        "LSB;label=32;scalar=64";
    class       volScalarField;
    location    "0.0400007";
    object      Vm;
}
// * * * * * * * * * * * * * * * * * * * * * * * * * * * * * * * * * * * * * //

dimensions      [0 0 0 0 0 0 0];

internalField   nonuniform List<scalar> 
8730
(
1.43799
1.44368
1.44799
1.45236
1.45501
1.45335
1.441
1.40771
1.32143
1.12222
0.803916
0.511085
0.350612
0.28957
0.245942
1.43809
1.44396
1.44918
1.45238
1.45454
1.45235
1.43943
1.39966
1.30166
1.08449
0.76158
0.484578
0.340108
0.285169
0.24194
1.44015
1.44567
1.44965
1.45338
1.45464
1.44936
1.4328
1.38684
1.27038
1.02462
0.696394
0.445606
0.326148
0.277572
0.234413
1.44192
1.44744
1.45114
1.45431
1.45433
1.44618
1.42303
1.36163
1.21147
0.927928
0.60724
0.39715
0.308964
0.265457
0.222307
1.44419
1.44912
1.4522
1.45436
1.45232
1.4401
1.40266
1.31158
1.10889
0.795396
0.510476
0.352811
0.291876
0.249296
0.205775
1.44737
1.45091
1.45385
1.45367
1.44539
1.42257
1.36309
1.22013
0.948863
0.630068
0.409946
0.313421
0.26977
0.227453
0.184466
1.45092
1.45439
1.45422
1.4494
1.43098
1.38539
1.27526
1.04706
0.730333
0.469978
0.336588
0.285358
0.243819
0.201168
0.158635
1.45323
1.45432
1.44964
1.4354
1.39579
1.29543
1.08956
0.786133
0.511481
0.355829
0.294575
0.253567
0.212027
0.170364
0.130719
1.45448
1.45054
1.43461
1.39509
1.29681
1.09707
0.801085
0.526425
0.364409
0.299284
0.258927
0.21806
0.17655
0.136724
0.102492
1.44768
1.42987
1.3833
1.27982
1.07222
0.769704
0.509648
0.359707
0.298278
0.258778
0.218696
0.177924
0.138603
0.104463
0.0797797
1.41933
1.35999
1.23224
0.992053
0.703375
0.469418
0.345233
0.293157
0.254458
0.214866
0.174777
0.13638
0.103215
0.0792759
0.0639588
1.31383
1.1485
0.883254
0.612763
0.420442
0.325678
0.283247
0.245699
0.207053
0.168056
0.130923
0.0994262
0.0770918
0.0627691
0.0525313
1.04269
0.769173
0.531341
0.381032
0.311041
0.273656
0.236449
0.19788
0.159598
0.124234
0.0951961
0.0749041
0.0616083
0.0517222
0.0429333
0.703708
0.490686
0.364133
0.305928
0.269762
0.233037
0.195149
0.157099
0.122361
0.0943163
0.0747995
0.0618344
0.0520585
0.0433229
0.0353054
0.527214
0.388066
0.317431
0.280696
0.244644
0.207253
0.169242
0.133383
0.103093
0.0810376
0.0663169
0.0558114
0.0468138
0.038512
0.0309986
1.37035
1.37757
1.38349
1.38973
1.39536
1.39972
1.40204
1.4016
1.3978
1.39164
1.38703
1.38681
1.38898
1.38805
1.37663
1.37098
1.37812
1.38479
1.38998
1.39522
1.39931
1.40127
1.40026
1.3959
1.38959
1.38546
1.38584
1.38812
1.38685
1.37485
1.373
1.38005
1.38577
1.39169
1.39673
1.39992
1.39975
1.39763
1.39251
1.38632
1.38366
1.38708
1.38995
1.38745
1.37132
1.37516
1.38117
1.38752
1.39342
1.39816
1.40077
1.39975
1.39662
1.3908
1.38506
1.38348
1.38623
1.39017
1.38563
1.36366
1.37847
1.38474
1.38981
1.39502
1.39915
1.40121
1.40046
1.39656
1.39064
1.38649
1.38672
1.38933
1.38925
1.3794
1.34635
1.38242
1.3877
1.39322
1.3978
1.40043
1.39956
1.39677
1.39143
1.38592
1.384
1.3859
1.38775
1.38384
1.36605
1.31724
1.38694
1.39169
1.3964
1.39979
1.40079
1.3978
1.39299
1.38722
1.38397
1.38497
1.38756
1.3865
1.37477
1.33838
1.24636
1.3917
1.39644
1.39981
1.40032
1.3992
1.39512
1.38943
1.38533
1.3837
1.3859
1.38619
1.37835
1.35224
1.28646
1.12465
1.3967
1.39975
1.40005
1.39895
1.39512
1.38943
1.38395
1.38391
1.38668
1.38787
1.38178
1.35879
1.29749
1.1535
0.886528
1.39934
1.40004
1.39732
1.3933
1.38835
1.38496
1.38393
1.38662
1.38779
1.38199
1.36006
1.30182
1.16537
0.908957
0.606181
1.39985
1.39651
1.39216
1.38734
1.38399
1.38559
1.38891
1.38934
1.38012
1.35556
1.29353
1.15203
0.894641
0.598381
0.396949
1.3941
1.38962
1.38605
1.38429
1.38651
1.38785
1.38737
1.3786
1.35105
1.28209
1.1276
0.859788
0.570845
0.384784
0.308348
1.38756
1.38542
1.38531
1.3885
1.38964
1.38791
1.37565
1.33784
1.25342
1.07797
0.805543
0.53785
0.372971
0.305485
0.271704
1.3844
1.3867
1.38919
1.39186
1.38851
1.37645
1.34024
1.2477
1.06392
0.791826
0.53319
0.374213
0.307191
0.27391
0.239924
1.38477
1.38751
1.39118
1.39015
1.38297
1.3576
1.28802
1.1398
0.891389
0.616656
0.420942
0.325698
0.287777
0.254905
0.219394
1.28228
1.29019
1.29828
1.30623
1.31346
1.32129
1.32927
1.33726
1.34528
1.35354
1.36253
1.37009
1.37637
1.38111
1.38397
1.28356
1.29092
1.2989
1.30704
1.31519
1.32337
1.33147
1.33948
1.3474
1.35524
1.36292
1.37007
1.37624
1.38115
1.3849
1.28516
1.29306
1.30111
1.309
1.31615
1.32388
1.3317
1.33952
1.34736
1.35525
1.36329
1.37175
1.37818
1.38262
1.38483
1.28792
1.29568
1.30351
1.31071
1.31848
1.32635
1.33417
1.34198
1.34977
1.35755
1.36522
1.37253
1.37953
1.38359
1.38472
1.29208
1.29928
1.30707
1.31499
1.32272
1.32963
1.33719
1.34495
1.35284
1.36091
1.36947
1.37622
1.38126
1.38413
1.38433
1.2964
1.30409
1.31182
1.31886
1.32652
1.33427
1.34207
1.34987
1.3576
1.36505
1.37187
1.3776
1.38193
1.38499
1.38396
1.30208
1.30969
1.31735
1.32429
1.33187
1.33956
1.34728
1.355
1.36255
1.3696
1.37574
1.38052
1.38348
1.3847
1.38143
1.30925
1.31617
1.32382
1.33157
1.33925
1.34659
1.35304
1.36018
1.36716
1.37356
1.37903
1.38367
1.38477
1.38258
1.37739
1.31731
1.32414
1.33164
1.33928
1.34665
1.35305
1.3601
1.36714
1.37357
1.37882
1.38234
1.38353
1.38201
1.37896
1.37452
1.3256
1.33221
1.33958
1.34715
1.35447
1.36071
1.36739
1.37369
1.37892
1.38246
1.38366
1.38198
1.37784
1.37494
1.37444
1.33475
1.34197
1.34923
1.35573
1.3629
1.36991
1.37623
1.38135
1.38469
1.38572
1.38388
1.37941
1.37493
1.37435
1.37822
1.34504
1.352
1.35832
1.36528
1.37195
1.37756
1.38095
1.38355
1.38411
1.38192
1.3774
1.37346
1.37364
1.37808
1.38396
1.35473
1.36092
1.36763
1.37387
1.37824
1.3822
1.38457
1.38451
1.38186
1.37759
1.37476
1.37611
1.38106
1.38655
1.38903
1.36333
1.36978
1.37491
1.38005
1.38376
1.38466
1.3841
1.38095
1.37664
1.37428
1.37618
1.38152
1.38744
1.39069
1.38722
1.36821
1.37423
1.37862
1.38254
1.38402
1.38426
1.38195
1.37781
1.3746
1.3752
1.37983
1.38621
1.3913
1.39198
1.38236
1.20145
1.20797
1.21509
1.22257
1.2303
1.23829
1.24652
1.25498
1.26371
1.27279
1.28252
1.29161
1.30048
1.30951
1.31924
1.20225
1.20919
1.2163
1.22329
1.23087
1.23885
1.24717
1.2559
1.2653
1.27431
1.28319
1.29206
1.30107
1.31072
1.31979
1.20394
1.21053
1.21771
1.22523
1.23302
1.24104
1.24927
1.25768
1.26627
1.27505
1.28416
1.29394
1.3031
1.31218
1.32182
1.2064
1.213
1.2202
1.22777
1.23565
1.24374
1.252
1.26041
1.26897
1.27774
1.28685
1.2966
1.30568
1.31447
1.32336
1.20961
1.21653
1.22339
1.23088
1.23874
1.2468
1.25508
1.26354
1.27221
1.28124
1.29094
1.30002
1.30885
1.31774
1.32728
1.21395
1.2207
1.22806
1.2358
1.24383
1.25206
1.26043
1.26891
1.27745
1.28608
1.29483
1.3038
1.31344
1.32243
1.33136
1.21916
1.226
1.23348
1.2413
1.24937
1.25764
1.26605
1.27455
1.2831
1.29171
1.30041
1.30934
1.31895
1.32787
1.33674
1.22571
1.23304
1.24068
1.24836
1.25573
1.2637
1.27195
1.2804
1.28903
1.29796
1.30755
1.31648
1.32511
1.33362
1.34236
1.23322
1.24079
1.24846
1.25579
1.26366
1.27178
1.28012
1.28857
1.29708
1.30564
1.31427
1.32309
1.33258
1.34136
1.34995
1.24194
1.24955
1.2575
1.26557
1.27352
1.28094
1.289
1.29733
1.30576
1.31427
1.32299
1.33244
1.34119
1.34973
1.35813
1.25204
1.25969
1.267
1.27495
1.28323
1.29161
1.30002
1.30837
1.31669
1.32498
1.33327
1.34163
1.34998
1.35825
1.3664
1.26306
1.27076
1.27804
1.28604
1.29429
1.30248
1.31039
1.31757
1.32544
1.33365
1.34225
1.35174
1.36031
1.36823
1.3754
1.2737
1.28086
1.28867
1.29676
1.30469
1.31193
1.31978
1.32779
1.33595
1.34424
1.35257
1.3608
1.36864
1.37596
1.38296
1.28298
1.29046
1.29759
1.30548
1.31357
1.32157
1.32936
1.33639
1.3443
1.35253
1.36073
1.36861
1.37603
1.38327
1.3877
1.28845
1.29591
1.30294
1.31076
1.31881
1.32687
1.33469
1.34173
1.3497
1.35791
1.36593
1.37345
1.38031
1.38675
1.38986
1.13979
1.14485
1.15024
1.15592
1.16187
1.16808
1.17459
1.18146
1.18878
1.19671
1.20462
1.21266
1.2211
1.23024
1.23946
1.14024
1.14525
1.15061
1.15625
1.16218
1.16842
1.175
1.18203
1.18968
1.19733
1.20515
1.2133
1.22211
1.23091
1.23994
1.14157
1.14672
1.1522
1.15796
1.16397
1.17025
1.17678
1.18362
1.19081
1.19845
1.20674
1.21505
1.22364
1.23289
1.24214
1.14335
1.14858
1.15413
1.15996
1.16606
1.1724
1.179
1.18588
1.19312
1.20082
1.20918
1.21753
1.22613
1.23535
1.24443
1.14559
1.15081
1.15638
1.16226
1.16842
1.17484
1.18154
1.18855
1.196
1.2041
1.2122
1.22046
1.22907
1.23838
1.24773
1.14882
1.15427
1.16004
1.16611
1.17243
1.17899
1.18578
1.19281
1.20013
1.20779
1.2159
1.22469
1.23345
1.24247
1.25218
1.15266
1.15823
1.16412
1.17031
1.17676
1.18345
1.19037
1.19755
1.205
1.21281
1.22105
1.22999
1.23885
1.24797
1.25775
1.15774
1.16332
1.16894
1.17504
1.18148
1.18825
1.19533
1.20276
1.21065
1.21921
1.22771
1.23629
1.24516
1.25468
1.264
1.16349
1.16903
1.17504
1.18139
1.18805
1.19501
1.20227
1.20984
1.21777
1.22616
1.23516
1.24396
1.25284
1.26199
1.27176
1.17054
1.17664
1.18297
1.18943
1.19583
1.20277
1.21014
1.21793
1.22615
1.23506
1.2438
1.25259
1.26151
1.27071
1.2806
1.17876
1.18493
1.19105
1.19776
1.20487
1.2123
1.22
1.22793
1.23609
1.24449
1.2531
1.26205
1.27168
1.28098
1.29034
1.18771
1.19413
1.20046
1.20741
1.2148
1.22248
1.23037
1.23842
1.24668
1.25515
1.26383
1.27272
1.28189
1.2917
1.301
1.19676
1.20342
1.21002
1.21722
1.22479
1.23264
1.24073
1.24903
1.25749
1.26609
1.27479
1.28358
1.29249
1.3017
1.31151
1.2045
1.21139
1.21861
1.22601
1.23323
1.24102
1.24913
1.25745
1.26595
1.27459
1.28334
1.29221
1.30137
1.31119
1.3202
1.20978
1.21648
1.22376
1.23136
1.23902
1.24642
1.25442
1.26273
1.27127
1.27994
1.28872
1.29762
1.30677
1.3166
1.32554
1.1004
1.10355
1.10692
1.11051
1.11433
1.11839
1.12271
1.12736
1.13242
1.13795
1.14366
1.14971
1.1563
1.16317
1.17057
1.10064
1.10378
1.10715
1.11075
1.11457
1.11864
1.12302
1.12778
1.13302
1.13845
1.14421
1.15048
1.15702
1.16404
1.17127
1.10148
1.10471
1.10816
1.11183
1.11572
1.11985
1.12423
1.12893
1.13403
1.13963
1.14543
1.15157
1.15827
1.1652
1.17264
1.10256
1.10586
1.10938
1.11312
1.11708
1.12128
1.12573
1.13051
1.13567
1.14134
1.14721
1.1534
1.16016
1.16715
1.17465
1.10391
1.10726
1.11084
1.11465
1.11868
1.12295
1.12751
1.13243
1.13784
1.14345
1.14931
1.15554
1.16235
1.16943
1.17704
1.10593
1.10942
1.11314
1.11709
1.12127
1.12567
1.1303
1.13521
1.14046
1.14612
1.15232
1.15871
1.16546
1.17279
1.18035
1.10829
1.11188
1.11573
1.11981
1.12412
1.12866
1.13345
1.13852
1.14393
1.14977
1.15614
1.16271
1.16963
1.17712
1.18482
1.11115
1.11476
1.11865
1.12281
1.12724
1.13196
1.13699
1.14242
1.14836
1.15448
1.16084
1.16756
1.17487
1.18241
1.19046
1.11492
1.11868
1.12275
1.12709
1.13172
1.13664
1.14188
1.14748
1.15349
1.16
1.16667
1.17364
1.18116
1.18875
1.19668
1.11976
1.1238
1.12801
1.13233
1.13707
1.1422
1.14777
1.15387
1.16012
1.16663
1.1734
1.18055
1.18831
1.19622
1.20465
1.12514
1.12921
1.13364
1.13842
1.14354
1.14898
1.15474
1.16084
1.16732
1.17434
1.18143
1.18876
1.19649
1.2048
1.21312
1.13132
1.13584
1.14041
1.14542
1.15081
1.15651
1.16251
1.16879
1.17542
1.18247
1.1901
1.19774
1.20559
1.21386
1.22279
1.13769
1.14253
1.14757
1.1527
1.15829
1.16426
1.17053
1.17711
1.18401
1.19134
1.19927
1.20718
1.21527
1.22374
1.23285
1.14329
1.1482
1.15356
1.15922
1.16519
1.17147
1.17802
1.18484
1.19194
1.19934
1.20709
1.21527
1.22406
1.23274
1.24153
1.14687
1.15213
1.15761
1.16312
1.1691
1.17544
1.1821
1.18906
1.19632
1.20393
1.21198
1.22069
1.22931
1.23805
1.24707
1.07935
1.08084
1.08251
1.0844
1.08652
1.08878
1.09122
1.09391
1.09694
1.10017
1.10367
1.10756
1.11174
1.11636
1.12132
1.07967
1.08119
1.08287
1.08472
1.08675
1.08898
1.09146
1.09425
1.09724
1.10049
1.1041
1.10798
1.11223
1.11674
1.12165
1.07987
1.08141
1.08314
1.08507
1.08726
1.08958
1.09209
1.09484
1.09793
1.10121
1.10478
1.10873
1.11295
1.11757
1.12247
1.08038
1.08197
1.08374
1.08569
1.08788
1.09031
1.0929
1.09573
1.09889
1.10224
1.10587
1.10988
1.11417
1.11888
1.12387
1.08125
1.08292
1.08476
1.08676
1.08895
1.09132
1.09392
1.09681
1.10006
1.10354
1.10735
1.11137
1.11572
1.12055
1.12574
1.08204
1.08377
1.0857
1.08786
1.09028
1.09281
1.0955
1.09843
1.10167
1.1053
1.10919
1.11346
1.11797
1.1229
1.12808
1.08333
1.08509
1.08712
1.08944
1.09191
1.09453
1.09734
1.10041
1.10378
1.10756
1.11161
1.11604
1.12071
1.12581
1.13115
1.08479
1.08673
1.08886
1.09119
1.09372
1.09649
1.09954
1.10294
1.10655
1.11042
1.11468
1.11915
1.12395
1.12921
1.13476
1.08676
1.08885
1.09113
1.09362
1.09634
1.0993
1.10254
1.10614
1.10993
1.11397
1.11835
1.12315
1.12822
1.13371
1.13944
1.08947
1.09171
1.09405
1.09671
1.09973
1.10294
1.10637
1.11006
1.11402
1.11831
1.12303
1.12802
1.13343
1.13902
1.14493
1.09246
1.09481
1.09743
1.10032
1.10348
1.10694
1.11076
1.11474
1.11894
1.12345
1.12832
1.13366
1.13924
1.14527
1.15145
1.09598
1.09875
1.10171
1.1049
1.10832
1.11198
1.11588
1.12004
1.12446
1.12922
1.13438
1.14
1.14581
1.15198
1.15867
1.09967
1.10264
1.10587
1.10932
1.11301
1.11694
1.12111
1.12555
1.1303
1.13545
1.14111
1.14695
1.15309
1.15973
1.16653
1.10291
1.10614
1.10963
1.11336
1.11733
1.12155
1.126
1.13072
1.13573
1.1411
1.14688
1.15316
1.15962
1.16639
1.17367
1.10506
1.10837
1.11179
1.11553
1.11959
1.12393
1.12855
1.13347
1.1387
1.14434
1.15051
1.15684
1.16338
1.1703
1.17784
1.07252
1.07282
1.07324
1.0738
1.07452
1.07534
1.0763
1.07748
1.0788
1.08034
1.08205
1.08401
1.08617
1.08863
1.09132
1.07254
1.07289
1.07337
1.07394
1.07462
1.07544
1.07645
1.07759
1.0789
1.08044
1.08218
1.08419
1.08643
1.08886
1.0916
1.07264
1.07298
1.07343
1.07403
1.07479
1.07566
1.07666
1.07786
1.0792
1.08073
1.08253
1.08458
1.08681
1.08933
1.09209
1.07276
1.07313
1.07362
1.07425
1.07505
1.07596
1.07701
1.07825
1.07964
1.08121
1.08304
1.08509
1.08743
1.09004
1.09287
1.07288
1.07333
1.07393
1.07462
1.07541
1.07633
1.07741
1.07871
1.08019
1.08189
1.08378
1.08593
1.08827
1.09093
1.09384
1.07311
1.07359
1.0742
1.07497
1.0759
1.07693
1.0781
1.07948
1.081
1.08274
1.08474
1.08695
1.08945
1.09218
1.09525
1.0734
1.07395
1.07466
1.07555
1.07653
1.07764
1.07891
1.08039
1.08202
1.08387
1.08599
1.08833
1.09097
1.09384
1.09705
1.07393
1.07457
1.07533
1.07624
1.07731
1.07859
1.07998
1.08155
1.08333
1.08537
1.08761
1.09014
1.09287
1.09594
1.09925
1.07457
1.07532
1.07621
1.07723
1.07844
1.07986
1.08141
1.08313
1.08508
1.0873
1.08972
1.09244
1.09537
1.09864
1.10215
1.07563
1.07654
1.07755
1.07871
1.08003
1.08152
1.0832
1.0851
1.08728
1.08967
1.09234
1.0952
1.09834
1.10185
1.10566
1.07678
1.07785
1.07904
1.08039
1.08189
1.08357
1.08545
1.08756
1.08995
1.09252
1.09536
1.09853
1.10194
1.1057
1.10969
1.0781
1.07938
1.0808
1.08236
1.08408
1.08598
1.0881
1.09048
1.09304
1.09582
1.0989
1.10234
1.10603
1.11008
1.11438
1.0797
1.08119
1.08283
1.08463
1.08658
1.08871
1.09102
1.09355
1.09633
1.0994
1.10284
1.10648
1.11042
1.11476
1.11937
1.08102
1.08268
1.08452
1.08651
1.08868
1.09103
1.09358
1.09636
1.0994
1.10273
1.10644
1.11038
1.1146
1.11925
1.12416
1.08177
1.08342
1.08528
1.08735
1.08964
1.09215
1.09492
1.09801
1.10128
1.1048
1.10863
1.11283
1.11723
1.12195
1.12715
1.07505
1.07454
1.07411
1.07377
1.07348
1.07327
1.07318
1.07318
1.0733
1.07353
1.0739
1.07442
1.07512
1.07602
1.07711
1.07495
1.07448
1.07409
1.07375
1.07347
1.0733
1.07321
1.07323
1.07334
1.07359
1.07395
1.07449
1.07517
1.07606
1.07717
1.0749
1.07442
1.07401
1.0737
1.07344
1.07326
1.0732
1.07322
1.07337
1.07362
1.07404
1.07459
1.07532
1.07626
1.07736
1.07475
1.07429
1.0739
1.07362
1.0734
1.07325
1.07322
1.07328
1.07346
1.07375
1.07421
1.0748
1.07559
1.07657
1.07772
1.07449
1.07409
1.07378
1.07352
1.07333
1.07324
1.07321
1.07329
1.07352
1.07389
1.07441
1.0751
1.07592
1.07696
1.07819
1.07428
1.07389
1.07359
1.0734
1.07326
1.0732
1.07326
1.0734
1.07367
1.07411
1.07472
1.07545
1.07639
1.07751
1.0788
1.07395
1.07361
1.07337
1.07323
1.07315
1.07317
1.07331
1.07356
1.07394
1.07445
1.07513
1.07594
1.07698
1.07821
1.07961
1.07372
1.07343
1.07323
1.07313
1.07315
1.07325
1.07345
1.07381
1.07428
1.07492
1.07568
1.07663
1.07773
1.07908
1.08064
1.07339
1.0732
1.07309
1.07309
1.07321
1.07342
1.07373
1.0742
1.07479
1.07556
1.07645
1.07753
1.07877
1.08025
1.08192
1.07325
1.07317
1.07316
1.07325
1.07344
1.07379
1.07422
1.07478
1.07551
1.07638
1.07741
1.07867
1.08014
1.08177
1.08366
1.07307
1.07311
1.07324
1.07345
1.07377
1.07425
1.07482
1.07551
1.07638
1.07744
1.07868
1.08013
1.08177
1.08366
1.0858
1.07303
1.07321
1.07348
1.07383
1.07429
1.07487
1.07559
1.07648
1.07757
1.07882
1.0803
1.08195
1.08383
1.08591
1.08827
1.07285
1.07317
1.0736
1.07413
1.07479
1.07561
1.07653
1.0776
1.07886
1.08035
1.08202
1.08392
1.08599
1.08831
1.09096
1.07282
1.07329
1.07386
1.07454
1.07533
1.07626
1.07735
1.07861
1.08009
1.08174
1.08361
1.08574
1.08808
1.0907
1.09355
1.07265
1.07317
1.07378
1.07459
1.07551
1.07656
1.07776
1.07914
1.08071
1.08253
1.08454
1.08676
1.08928
1.09201
1.09508
1.08319
1.0822
1.08123
1.08028
1.07936
1.0785
1.07768
1.07694
1.07626
1.07563
1.0751
1.07466
1.07431
1.07409
1.074
1.08306
1.08209
1.08113
1.08018
1.07929
1.07843
1.07762
1.07686
1.07617
1.07555
1.07501
1.07459
1.07426
1.07403
1.07395
1.08286
1.08188
1.08094
1.08
1.0791
1.07826
1.07746
1.07672
1.07604
1.07544
1.07493
1.0745
1.0742
1.07403
1.07399
1.08255
1.08156
1.08062
1.07973
1.07886
1.07805
1.07727
1.07656
1.07591
1.07533
1.07485
1.07445
1.07416
1.07401
1.07401
1.08212
1.08117
1.08027
1.0794
1.07856
1.07776
1.07699
1.07631
1.07571
1.07516
1.07472
1.07437
1.07411
1.07398
1.07401
1.08162
1.08069
1.07981
1.07895
1.07813
1.07737
1.07665
1.07601
1.07543
1.07495
1.07456
1.07425
1.07405
1.07399
1.07406
1.08092
1.08002
1.07918
1.07836
1.07759
1.07688
1.07621
1.07563
1.07512
1.07469
1.07437
1.07412
1.074
1.07402
1.07417
1.08019
1.07932
1.0785
1.07774
1.07702
1.07635
1.07576
1.07523
1.0748
1.07446
1.07419
1.07405
1.07402
1.0741
1.07434
1.07926
1.07848
1.07775
1.07706
1.07641
1.07582
1.07529
1.07483
1.07448
1.07422
1.07403
1.07397
1.07401
1.07422
1.07459
1.07832
1.0776
1.07693
1.07633
1.07576
1.07525
1.07483
1.07446
1.0742
1.07402
1.07396
1.074
1.07419
1.07452
1.07499
1.07726
1.07663
1.07607
1.07554
1.07506
1.07464
1.07431
1.07406
1.07392
1.07386
1.07394
1.07412
1.07444
1.0749
1.07557
1.07619
1.07564
1.07513
1.0747
1.07434
1.07404
1.07382
1.07372
1.0737
1.07382
1.07403
1.07439
1.07487
1.07552
1.07633
1.075
1.07455
1.07415
1.07382
1.07357
1.07342
1.07333
1.07335
1.07349
1.07375
1.07415
1.07467
1.07535
1.07619
1.07725
1.07393
1.07358
1.07328
1.07304
1.07289
1.07283
1.07288
1.07303
1.0733
1.07372
1.07426
1.07497
1.07582
1.07686
1.07807
1.07309
1.0728
1.07257
1.0724
1.07232
1.07233
1.07247
1.07271
1.07307
1.07359
1.07424
1.07507
1.07603
1.07719
1.07852
1.09569
1.0944
1.09312
1.09182
1.09053
1.08925
1.08799
1.08673
1.08551
1.08431
1.08316
1.08205
1.081
1.08001
1.07907
1.07819
1.09551
1.09423
1.09295
1.09167
1.09039
1.08912
1.08786
1.08661
1.08539
1.08421
1.08307
1.08194
1.08088
1.07987
1.07892
1.07804
1.09524
1.09396
1.09268
1.09141
1.09013
1.08888
1.08762
1.08639
1.08518
1.08399
1.08284
1.08174
1.08069
1.07971
1.07878
1.07793
1.09484
1.09357
1.0923
1.09104
1.08978
1.08854
1.08731
1.08609
1.0849
1.08372
1.08258
1.08149
1.08044
1.07945
1.0785
1.07764
1.09433
1.09306
1.09182
1.09057
1.08933
1.08809
1.08687
1.08565
1.08448
1.08333
1.0822
1.08113
1.08011
1.07915
1.07826
1.07744
1.09365
1.09241
1.09117
1.08993
1.08868
1.08747
1.08626
1.08508
1.08392
1.08279
1.0817
1.08066
1.07966
1.07871
1.07783
1.07703
1.09275
1.09151
1.09031
1.0891
1.0879
1.08671
1.08553
1.08437
1.08324
1.08214
1.08109
1.0801
1.07916
1.07827
1.07743
1.07668
1.09171
1.0905
1.08932
1.08812
1.08694
1.08578
1.08464
1.08353
1.08244
1.0814
1.08041
1.07945
1.07857
1.07776
1.07703
1.07638
1.09039
1.08925
1.08811
1.08696
1.08584
1.08472
1.08362
1.08256
1.08154
1.08054
1.07959
1.0787
1.07788
1.07715
1.0765
1.07593
1.08893
1.08782
1.08673
1.08564
1.08456
1.08351
1.08247
1.08147
1.08049
1.07957
1.07869
1.07789
1.07716
1.0765
1.0759
1.07542
1.08739
1.08631
1.08524
1.08419
1.08317
1.08216
1.08118
1.08025
1.07934
1.07849
1.0777
1.07698
1.07636
1.0758
1.07531
1.07495
1.08561
1.08459
1.08357
1.08257
1.08161
1.08069
1.0798
1.07895
1.07812
1.07736
1.07667
1.07607
1.07553
1.0751
1.07474
1.07449
1.08365
1.08269
1.08175
1.08085
1.07998
1.07913
1.07832
1.07755
1.07682
1.07615
1.07557
1.07506
1.07466
1.07435
1.07414
1.07407
1.0818
1.0809
1.08002
1.07917
1.07835
1.07759
1.07686
1.07617
1.07556
1.075
1.07453
1.07414
1.07385
1.07365
1.07358
1.07364
1.08042
1.07957
1.07876
1.078
1.07725
1.07652
1.07583
1.07521
1.07463
1.07413
1.07373
1.0734
1.07321
1.07312
1.07312
1.07328
1.10841
1.10698
1.10554
1.10408
1.10262
1.10115
1.09966
1.09817
1.09669
1.09522
1.09376
1.09231
1.09086
1.08943
1.08801
1.0866
1.10825
1.10684
1.1054
1.10396
1.10249
1.10102
1.09954
1.09805
1.09657
1.09509
1.09362
1.09216
1.0907
1.08926
1.08784
1.08644
1.10798
1.10656
1.10513
1.10369
1.10223
1.10077
1.09929
1.0978
1.09631
1.09482
1.09332
1.09183
1.09037
1.08893
1.08753
1.08617
1.10755
1.10614
1.10472
1.10328
1.10184
1.10039
1.0989
1.09743
1.09595
1.09447
1.09297
1.09149
1.09003
1.0886
1.08719
1.08583
1.10697
1.10558
1.10416
1.10273
1.10128
1.09983
1.09837
1.09689
1.09542
1.09395
1.09249
1.09104
1.0896
1.08816
1.08678
1.08545
1.10624
1.10485
1.10343
1.10199
1.10056
1.09911
1.09765
1.09619
1.09473
1.09326
1.09181
1.09037
1.08896
1.08756
1.0862
1.08487
1.10523
1.10386
1.10246
1.10106
1.09963
1.0982
1.09675
1.09531
1.09388
1.09245
1.09101
1.0896
1.08822
1.08685
1.08552
1.08422
1.10405
1.10269
1.1013
1.0999
1.09851
1.09711
1.09569
1.09429
1.09289
1.09148
1.09009
1.08873
1.0874
1.08609
1.08481
1.08356
1.1026
1.10126
1.09989
1.09853
1.09715
1.09578
1.09439
1.09301
1.09164
1.09027
1.08893
1.08761
1.08633
1.08507
1.08385
1.08266
1.10093
1.09962
1.09829
1.09696
1.09562
1.09427
1.09291
1.09157
1.09022
1.08891
1.08761
1.08634
1.08508
1.08386
1.08268
1.08156
1.09906
1.09779
1.09649
1.09518
1.09388
1.09256
1.09124
1.08993
1.08863
1.08736
1.08611
1.0849
1.08372
1.08256
1.08145
1.0804
1.09693
1.09569
1.09443
1.09316
1.0919
1.09062
1.08935
1.0881
1.08688
1.08567
1.08449
1.08335
1.08224
1.08118
1.08019
1.07925
1.09463
1.09342
1.09219
1.09098
1.08975
1.08853
1.08732
1.08613
1.08496
1.08381
1.08271
1.08164
1.08061
1.07965
1.07875
1.07792
1.09237
1.09119
1.09003
1.08885
1.08767
1.08649
1.08534
1.0842
1.0831
1.08201
1.08098
1.07999
1.07904
1.07815
1.07735
1.0766
1.09081
1.08965
1.08851
1.08738
1.08624
1.0851
1.08399
1.08287
1.08179
1.08075
1.07976
1.0788
1.0779
1.07706
1.07631
1.07565
1.12143
1.11996
1.11847
1.11694
1.11539
1.11383
1.11223
1.1106
1.10896
1.10731
1.10565
1.10398
1.1023
1.10062
1.09895
1.09727
1.12128
1.11981
1.11832
1.11681
1.11525
1.11368
1.1121
1.11049
1.10888
1.10724
1.10559
1.10392
1.10223
1.10053
1.09884
1.09714
1.12101
1.11954
1.11806
1.11653
1.11499
1.11343
1.11183
1.11021
1.10859
1.10694
1.10528
1.1036
1.10191
1.10022
1.09854
1.09688
1.12058
1.11912
1.11764
1.11612
1.11459
1.11303
1.11143
1.10981
1.10818
1.10653
1.10487
1.10321
1.10153
1.09984
1.09817
1.09651
1.11998
1.11852
1.11704
1.11552
1.11398
1.11243
1.11085
1.10922
1.10759
1.10595
1.1043
1.10264
1.10097
1.09931
1.09766
1.09601
1.11923
1.11777
1.11629
1.11477
1.11324
1.11169
1.1101
1.1085
1.10687
1.10524
1.1036
1.10195
1.1003
1.09863
1.09697
1.09533
1.11821
1.11676
1.1153
1.11381
1.11228
1.11073
1.10916
1.10756
1.10596
1.10434
1.10272
1.10108
1.09943
1.09778
1.09613
1.0945
1.11698
1.11554
1.11407
1.11258
1.11107
1.10954
1.10799
1.10642
1.10484
1.10326
1.10166
1.10005
1.09844
1.09682
1.0952
1.09358
1.11549
1.11406
1.1126
1.11113
1.10962
1.1081
1.10657
1.10501
1.10345
1.10189
1.10031
1.09874
1.09716
1.09559
1.09401
1.09242
1.11373
1.11232
1.11087
1.10942
1.10794
1.10644
1.10493
1.10339
1.10185
1.10031
1.09878
1.09724
1.0957
1.09415
1.09261
1.09109
1.11173
1.11034
1.10891
1.10746
1.10599
1.1045
1.10301
1.1015
1.09998
1.09847
1.09696
1.09547
1.09398
1.09249
1.091
1.08953
1.10944
1.10807
1.10667
1.10525
1.10381
1.10235
1.10088
1.09939
1.09791
1.09643
1.09497
1.09352
1.09208
1.09065
1.08924
1.08783
1.10692
1.10557
1.10419
1.10279
1.10139
1.09996
1.09852
1.09708
1.09564
1.0942
1.09276
1.09135
1.08996
1.08859
1.08724
1.08591
1.10448
1.10313
1.10179
1.10042
1.09903
1.09764
1.09623
1.09483
1.09342
1.09202
1.09064
1.08926
1.0879
1.08658
1.08529
1.08402
1.10275
1.10143
1.1001
1.09875
1.09738
1.09601
1.09463
1.09324
1.09185
1.09048
1.08912
1.08777
1.08645
1.08516
1.08392
1.08271
1.13412
1.13265
1.13115
1.12961
1.12804
1.12643
1.1248
1.12314
1.12146
1.11974
1.118
1.11623
1.11446
1.11266
1.11083
1.10899
1.13398
1.13251
1.13101
1.12947
1.12789
1.12629
1.12466
1.123
1.12132
1.11962
1.11789
1.11613
1.11434
1.11252
1.11068
1.10884
1.13371
1.13224
1.13074
1.12921
1.12765
1.12606
1.12444
1.12278
1.1211
1.11938
1.11763
1.11585
1.11406
1.11226
1.11043
1.10858
1.13328
1.13183
1.13034
1.12881
1.12726
1.12568
1.12406
1.12241
1.12071
1.11899
1.11725
1.11547
1.11368
1.11188
1.11005
1.10821
1.13271
1.13126
1.12978
1.12826
1.12669
1.1251
1.12347
1.12182
1.12013
1.11841
1.11666
1.1149
1.11312
1.11132
1.1095
1.10766
1.13196
1.13051
1.12903
1.1275
1.12594
1.12435
1.12273
1.12108
1.1194
1.11768
1.11594
1.11417
1.11238
1.11058
1.10877
1.10694
1.13101
1.12954
1.12805
1.12653
1.12496
1.12337
1.12175
1.12011
1.11843
1.11673
1.115
1.11324
1.11146
1.10967
1.10786
1.10603
1.12979
1.12832
1.12683
1.1253
1.12374
1.12217
1.12057
1.11894
1.11728
1.11559
1.11387
1.11213
1.11035
1.10856
1.10676
1.10496
1.12829
1.12683
1.12533
1.12382
1.12227
1.12069
1.11908
1.11746
1.11581
1.11414
1.11244
1.11072
1.10897
1.10722
1.10546
1.10367
1.12651
1.12506
1.12357
1.12207
1.12054
1.11898
1.11738
1.11576
1.11412
1.11246
1.11078
1.10908
1.10736
1.10562
1.10388
1.10213
1.12445
1.12302
1.12155
1.12006
1.11853
1.11698
1.11539
1.11378
1.11215
1.11048
1.1088
1.10712
1.10544
1.10377
1.10207
1.10034
1.1221
1.12067
1.11921
1.11773
1.11622
1.11468
1.11311
1.11153
1.10991
1.10828
1.10663
1.10496
1.1033
1.10163
1.09998
1.0983
1.11948
1.11806
1.11662
1.11515
1.11365
1.11212
1.11057
1.109
1.1074
1.10579
1.10417
1.10256
1.10094
1.0993
1.09767
1.09602
1.11692
1.1155
1.11407
1.11261
1.11114
1.10963
1.1081
1.10656
1.10499
1.10341
1.10183
1.10024
1.09865
1.09705
1.09545
1.09383
1.11513
1.11372
1.11228
1.11083
1.10935
1.10785
1.10633
1.1048
1.10324
1.10166
1.10009
1.09852
1.09695
1.09538
1.0938
1.09223
1.14613
1.14469
1.14323
1.14173
1.14019
1.1386
1.13697
1.13531
1.13361
1.13188
1.13012
1.12833
1.12649
1.12464
1.12275
1.12082
1.14601
1.14457
1.1431
1.14159
1.14005
1.13847
1.13684
1.13518
1.13348
1.13176
1.13
1.12821
1.12638
1.12451
1.12261
1.12069
1.14576
1.14433
1.14287
1.14137
1.13983
1.13825
1.13663
1.13496
1.13325
1.13151
1.12974
1.12795
1.12612
1.12426
1.12236
1.12043
1.14538
1.14396
1.14251
1.14101
1.13947
1.13789
1.13626
1.13459
1.13289
1.13114
1.12937
1.12757
1.12574
1.12387
1.12197
1.12004
1.14484
1.14341
1.14195
1.14045
1.13891
1.13732
1.1357
1.13403
1.13232
1.13058
1.12882
1.12702
1.12519
1.12333
1.12144
1.11953
1.1441
1.14267
1.14121
1.13972
1.13818
1.1366
1.13497
1.13331
1.1316
1.12986
1.12809
1.1263
1.12446
1.1226
1.12071
1.11879
1.14319
1.14175
1.14027
1.13877
1.13722
1.13564
1.13401
1.13235
1.13065
1.1289
1.12713
1.12534
1.12351
1.12165
1.11976
1.11784
1.14201
1.14057
1.13909
1.13758
1.13604
1.13446
1.13284
1.13119
1.12949
1.12775
1.12598
1.12418
1.12236
1.1205
1.11861
1.11671
1.14054
1.1391
1.13762
1.1361
1.13455
1.13296
1.13135
1.1297
1.12801
1.12629
1.12456
1.12278
1.12097
1.11913
1.11727
1.11538
1.1388
1.13736
1.13588
1.13437
1.13281
1.13123
1.12961
1.12796
1.12628
1.12456
1.12283
1.12107
1.11928
1.11744
1.11559
1.11372
1.13675
1.13531
1.13385
1.13235
1.1308
1.12923
1.12762
1.12598
1.1243
1.12258
1.12084
1.11908
1.1173
1.1155
1.11366
1.11181
1.13439
1.13296
1.13149
1.12999
1.12846
1.1269
1.12529
1.12364
1.12196
1.12026
1.11855
1.11681
1.11505
1.11325
1.11143
1.10959
1.13175
1.13032
1.12886
1.12737
1.12583
1.12427
1.12268
1.12105
1.11937
1.11768
1.11597
1.11424
1.11251
1.11074
1.10894
1.10711
1.12913
1.1277
1.12625
1.12476
1.12322
1.12166
1.12008
1.11848
1.11683
1.11516
1.11347
1.11176
1.11002
1.10825
1.10645
1.10463
1.12725
1.12583
1.12438
1.12289
1.12136
1.1198
1.11821
1.11661
1.11496
1.11328
1.11157
1.10985
1.10812
1.10636
1.1046
1.10283
1.15735
1.15595
1.15452
1.15307
1.15156
1.15001
1.14841
1.14677
1.1451
1.14337
1.14162
1.13983
1.138
1.13613
1.13422
1.13226
1.15726
1.15587
1.15443
1.15296
1.15145
1.1499
1.1483
1.14667
1.14499
1.14326
1.14152
1.13972
1.13789
1.13601
1.1341
1.13215
1.15701
1.15561
1.15418
1.15271
1.1512
1.14966
1.14807
1.14643
1.14474
1.14303
1.14128
1.13949
1.13765
1.13578
1.13386
1.13191
1.15667
1.15527
1.15384
1.15236
1.15085
1.14931
1.14772
1.14607
1.14438
1.14267
1.14091
1.13912
1.13729
1.13541
1.13349
1.13154
1.15619
1.1548
1.15336
1.15189
1.15037
1.14881
1.1472
1.14555
1.14387
1.14214
1.14038
1.13858
1.13675
1.13488
1.13297
1.13102
1.15547
1.15407
1.15263
1.15115
1.14963
1.14808
1.14649
1.14484
1.14315
1.14144
1.13968
1.13789
1.13605
1.13418
1.13225
1.1303
1.15461
1.15322
1.15178
1.1503
1.14877
1.1472
1.14559
1.14394
1.14226
1.14054
1.13877
1.13697
1.13512
1.13324
1.13132
1.12937
1.15349
1.15209
1.15065
1.14917
1.14764
1.14608
1.14447
1.14281
1.14112
1.13939
1.13762
1.13581
1.13397
1.13209
1.13019
1.12825
1.15207
1.15067
1.14921
1.14772
1.14619
1.14463
1.14304
1.1414
1.13972
1.13798
1.13622
1.13442
1.13259
1.13072
1.12881
1.12688
1.15035
1.14895
1.14751
1.14604
1.14452
1.14296
1.14136
1.13971
1.13802
1.1363
1.13454
1.13274
1.13091
1.12904
1.12713
1.1252
1.14835
1.14695
1.14552
1.14405
1.14254
1.14098
1.13937
1.13772
1.13602
1.13429
1.13253
1.13074
1.12891
1.12704
1.12515
1.12322
1.14599
1.14458
1.14315
1.14169
1.14018
1.13863
1.13702
1.13538
1.13368
1.13196
1.1302
1.1284
1.12657
1.12472
1.12283
1.12091
1.14335
1.14194
1.1405
1.13902
1.13749
1.13592
1.13432
1.13268
1.131
1.12928
1.12752
1.12574
1.12393
1.12208
1.1202
1.11829
1.14068
1.13927
1.13783
1.13634
1.1348