/*--------------------------------*- C++ -*----------------------------------*\
| =========                 |                                                 |
| \\      /  F ield         | OpenFOAM: The Open Source CFD Toolbox           |
|  \\    /   O peration     | Version:  2412                                  |
|   \\  /    A nd           | Website:  www.openfoam.com                      |
|    \\/     M anipulation  |                                                 |
\*---------------------------------------------------------------------------*/
FoamFile
{
    version     2.0;
    format      ascii;
    arch        "LSB;label=32;scalar=64";
    class       volScalarField;
    location    "0.0400007";
    object      Vm_0;
}
// * * * * * * * * * * * * * * * * * * * * * * * * * * * * * * * * * * * * * //

dimensions      [1 2 -3 0 0 -1 0];

internalField   nonuniform List<scalar> 
8730
(
0.0392354
0.0397236
0.0400931
0.0404669
0.0406943
0.0405518
0.0394934
0.0366404
0.0292464
0.0121738
-0.0151044
-0.0402
-0.0539526
-0.0591838
-0.0629228
0.0392446
0.0397476
0.0401944
0.0404689
0.0406542
0.0404666
0.0393593
0.0359508
0.0275527
0.00894098
-0.0187326
-0.0424717
-0.0548528
-0.059561
-0.0632657
0.0394204
0.0398938
0.0402353
0.0405548
0.0406626
0.0402098
0.0387909
0.0348525
0.0248716
0.00381031
-0.024319
-0.0458116
-0.0560492
-0.0602121
-0.0639108
0.0395726
0.0400453
0.0403624
0.0406345
0.0406362
0.039938
0.0379541
0.0326916
0.0198231
-0.00447656
-0.0319596
-0.0499642
-0.0575218
-0.0612504
-0.0649483
0.0397673
0.0401893
0.0404537
0.0406383
0.0404638
0.0394163
0.0362084
0.0284024
0.0110318
-0.0158346
-0.0402522
-0.0537641
-0.0589862
-0.0626353
-0.0663651
0.0400393
0.0403426
0.0405953
0.0405794
0.0398696
0.0379143
0.0328165
0.0205653
-0.00268247
-0.0300032
-0.0488676
-0.0571398
-0.0608807
-0.0645072
-0.0681913
0.0403441
0.0406416
0.040627
0.0402139
0.0386352
0.0347279
0.0252895
0.00573317
-0.0214105
-0.0437229
-0.0551544
-0.0595448
-0.0631047
-0.0667599
-0.070405
0.0405417
0.0406354
0.0402341
0.039014
0.035619
0.0270187
0.00937526
-0.0166284
-0.0401661
-0.0535055
-0.0587549
-0.0622693
-0.0658293
-0.0693998
-0.0727974
0.0406493
0.0403113
0.0389464
0.0355592
0.0271362
0.010019
-0.0153471
-0.0388854
-0.0527702
-0.0583514
-0.0618099
-0.0653122
-0.0688697
-0.0722827
-0.0752164
0.0400659
0.0385398
0.034549
0.0256802
0.00788916
-0.0180363
-0.0403231
-0.0531731
-0.0584376
-0.0618227
-0.0652577
-0.0687519
-0.0721217
-0.0750475
-0.0771629
0.0376365
0.0325513
0.0216027
0.00101898
-0.0237208
-0.0437709
-0.0544136
-0.0588764
-0.062193
-0.065586
-0.0690216
-0.0723123
-0.0751544
-0.0772061
-0.0785187
0.0285956
0.0144266
-0.00830514
-0.0314862
-0.0479681
-0.0560894
-0.0597257
-0.0629436
-0.0662556
-0.0695976
-0.0727799
-0.0754792
-0.0773932
-0.0786207
-0.0794981
0.00535871
-0.0180819
-0.0384641
-0.0513456
-0.0573438
-0.0605477
-0.0637363
-0.0670417
-0.0703224
-0.0733532
-0.0758417
-0.0775807
-0.0787202
-0.0795674
-0.0803206
-0.0236922
-0.0419482
-0.0527938
-0.057782
-0.0608814
-0.0640287
-0.0672757
-0.0705366
-0.0735137
-0.0759171
-0.0775897
-0.0787008
-0.0795386
-0.0802872
-0.0809743
-0.0388177
-0.0507427
-0.0567962
-0.0599443
-0.063034
-0.0662384
-0.069496
-0.0725691
-0.075165
-0.0770551
-0.0783166
-0.079217
-0.0799881
-0.0806995
-0.0813434
0.0334391
0.0340575
0.0345649
0.0350996
0.0355826
0.0359558
0.0361547
0.0361173
0.0357917
0.0352636
0.0348684
0.03485
0.0350352
0.034956
0.0339772
0.0334928
0.0341051
0.0346764
0.0351217
0.0355706
0.0359206
0.0360889
0.0360027
0.0356287
0.0350881
0.0347341
0.0347667
0.0349619
0.034853
0.0338242
0.0336659
0.0342699
0.0347609
0.0352677
0.0356993
0.0359729
0.035959
0.0357767
0.0353381
0.034808
0.0345793
0.0348728
0.0351184
0.0349045
0.0335221
0.0338512
0.0343665
0.0349107
0.0354165
0.0358222
0.0360464
0.0359584
0.0356905
0.0351919
0.0346998
0.0345638
0.0347996
0.0351379
0.0347486
0.0328659
0.0341347
0.0346721
0.0351066
0.0355533
0.0359068
0.0360841
0.0360193
0.035685
0.0351781
0.0348223
0.034842
0.0350655
0.0350585
0.0342146
0.0313825
0.0344731
0.0349258
0.0353985
0.0357915
0.0360166
0.0359423
0.0357035
0.0352456
0.0347732
0.0346091
0.0347713
0.0349305
0.0345955
0.0330709
0.0288873
0.0348608
0.0352681
0.0356713
0.0359619
0.0360474
0.0357913
0.0353795
0.0348847
0.0346065
0.0346917
0.0349135
0.0348227
0.0338174
0.0306988
0.0228128
0.035269
0.0356748
0.0359641
0.0360071
0.035911
0.035562
0.0350742
0.0347229
0.0345834
0.0347716
0.0347962
0.0341243
0.0318865
0.0262496
0.0123823
0.0356968
0.0359582
0.0359841
0.0358903
0.0355614
0.0350739
0.0346045
0.0346007
0.0348381
0.0349405
0.0344183
0.0324484
0.0271951
0.014855
-0.00802457
0.0359231
0.0359838
0.0357505
0.0354056
0.0349813
0.0346908
0.0346032
0.0348329
0.0349335
0.0344365
0.0325573
0.027566
0.0158723
-0.00610242
-0.0320503
0.0359668
0.0356813
0.0353078
0.0348954
0.0346081
0.0347451
0.0350292
0.0350665
0.0342762
0.0321712
0.0268554
0.0147286
-0.00732925
-0.0327187
-0.0499815
0.0354741
0.0350908
0.0347845
0.0346338
0.0348238
0.0349387
0.0348976
0.0341457
0.0317848
0.0258753
0.0126356
-0.0103161
-0.0350786
-0.051024
-0.0575746
0.0349138
0.0347303
0.0347214
0.0349949
0.0350919
0.034944
0.0338933
0.030653
0.0234185
0.00838188
-0.0149649
-0.0379063
-0.0520363
-0.05782
-0.060715
0.0346427
0.0348406
0.0350535
0.0352823
0.0349957
0.033962
0.0308586
0.0229277
0.00717754
-0.0161405
-0.0383056
-0.0519299
-0.0576737
-0.0605259
-0.0634386
0.0346748
0.0349097
0.0352243
0.0351361
0.0345203
0.0323465
0.0263837
0.0136808
-0.00760795
-0.0311525
-0.0479253
-0.0560877
-0.0593375
-0.0621546
-0.065198
0.025891
0.0265691
0.0272627
0.027944
0.0285633
0.0292342
0.0299189
0.0306033
0.0312902
0.0319981
0.0327686
0.0334167
0.0339549
0.0343609
0.0346065
0.0260011
0.0266315
0.027316
0.028013
0.0287121
0.0294127
0.0301074
0.0307932
0.0314722
0.0321443
0.0328022
0.0334153
0.0339441
0.0343644
0.0346859
0.0261379
0.0268148
0.0275054
0.0281809
0.0287945
0.0294567
0.0301264
0.0307973
0.0314683
0.0321447
0.0328337
0.0335594
0.0341101
0.0344903
0.03468
0.0263744
0.0270398
0.0277105
0.0283281
0.0289938
0.0296683
0.0303386
0.0310074
0.0316754
0.0323424
0.0329991
0.0336256
0.0342257
0.0345736
0.0346707
0.026731
0.0273486
0.0280159
0.0286942
0.0293569
0.0299496
0.030597
0.0312624
0.0319384
0.0326303
0.0333638
0.0339424
0.0343741
0.0346201
0.0346367
0.0271011
0.0277608
0.0284234
0.0290265
0.0296825
0.0303466
0.0310157
0.0316843
0.0323461
0.0329845
0.0335694
0.03406
0.0344314
0.0346936
0.0346053
0.0275881
0.0282407
0.0288972
0.029492
0.0301414
0.0308004
0.0314619
0.0321236
0.0327703
0.0333746
0.033901
0.0343106
0.0345646
0.034669
0.0343884
0.0282025
0.0287957
0.029451
0.0301156
0.0307738
0.0314027
0.0319558
0.0325673
0.0331654
0.0337138
0.0341832
0.0345805
0.0346747
0.0344869
0.0340426
0.0288935
0.0294787
0.0301217
0.0307767
0.0314083
0.0319568
0.0325604
0.0331641
0.0337146
0.0341649
0.0344667
0.0345689
0.0344381
0.034177
0.0337961
0.0296038
0.0301703
0.0308024
0.0314508
0.0320783
0.0326125
0.0331854
0.0337255
0.0341737
0.0344772
0.0345797
0.0344361
0.0340813
0.0338322
0.0337891
0.0303878
0.0310068
0.0316289
0.032186
0.0328002
0.0334016
0.0339426
0.0343818
0.0346677
0.0347565
0.0345987
0.0342155
0.0338313
0.0337814
0.0341135
0.03127
0.0318666
0.0324084
0.0330042
0.0335764
0.0340568
0.0343475
0.0345704
0.0346182
0.0344307
0.0340436
0.0337053
0.0337209
0.0341017
0.0346051
0.0321007
0.0326311
0.0332062
0.0337404
0.0341148
0.0344546
0.034658
0.0346523
0.034425
0.0340594
0.0338169
0.033933
0.0343568
0.0348277
0.0350396
0.0328373
0.0333904
0.0338294
0.0342705
0.0345882
0.0346655
0.0346175
0.0343474
0.0339779
0.0337759
0.0339388
0.0343959
0.0349039
0.0351824
0.0348851
0.033256
0.0337718
0.0341481
0.0344836
0.0346106
0.0346314
0.0344334
0.0340782
0.0338028
0.0338549
0.034251
0.0347982
0.0352344
0.0352923
0.0344682
0.0189641
0.0195234
0.0201335
0.0207739
0.0214364
0.0221216
0.0228268
0.0235519
0.0243001
0.0250781
0.0259119
0.026691
0.027451
0.0282252
0.0290587
0.0190332
0.0196275
0.0202369
0.0208359
0.0214855
0.0221695
0.0228823
0.0236304
0.0244362
0.025208
0.0259693
0.0267292
0.0275017
0.028329
0.0291058
0.019178
0.0197423
0.0203575
0.0210026
0.0216694
0.0223573
0.0230625
0.0237833
0.0245197
0.0252717
0.0260523
0.0268907
0.0276756
0.0284542
0.0292801
0.0193886
0.0199545
0.020571
0.02122
0.0218948
0.0225884
0.0232965
0.0240172
0.0247511
0.0255025
0.0262831
0.0271183
0.0278964
0.0286499
0.0294119
0.0196637
0.020257
0.0208444
0.0214865
0.0221596
0.0228509
0.02356
0.0242852
0.0250288
0.0258024
0.0266333
0.0274118
0.0281688
0.0289304
0.029748
0.0200356
0.0206141
0.0212447
0.0219077
0.0225959
0.0233014
0.024019
0.0247452
0.0254778
0.026217
0.0269665
0.0277359
0.0285617
0.0293318
0.0300977
0.0204819
0.0210683
0.021709
0.0223792
0.0230708
0.0237798
0.0245004
0.0252286
0.0259615
0.0266991
0.0274455
0.0282105
0.0290337
0.0297983
0.030559
0.0210434
0.0216711
0.0223259
0.0229846
0.0236164
0.0242991
0.0250058
0.0257303
0.0264702
0.027235
0.0280573
0.0288226
0.029562
0.0302914
0.0310402
0.0216872
0.0223359
0.0229929
0.0236213
0.0242959
0.0249918
0.0257059
0.0264305
0.02716
0.0278929
0.028633
0.0293891
0.0302024
0.0309548
0.0316909
0.0224346
0.0230864
0.0237676
0.0244593
0.0251411
0.0257767
0.0264673
0.027181
0.0279037
0.0286333
0.0293803
0.0301904
0.0309398
0.0316718
0.0323914
0.0233002
0.0239557
0.0245817
0.0252635
0.025973
0.0266912
0.0274113
0.0281271
0.0288402
0.0295505
0.030261
0.0309775
0.0316933
0.0324019
0.0331001
0.0242445
0.024904
0.0255279
0.0262135
0.0269207
0.0276229
0.0283001
0.0289157
0.0295906
0.030294
0.031031
0.0318443
0.0325782
0.0332574
0.0338718
0.0251565
0.0257695
0.0264393
0.0271324
0.0278116
0.0284328
0.0291051
0.0297917
0.0304913
0.0312011
0.0319156
0.0326207
0.0332927
0.0339201
0.0345199
0.0259517
0.0265927
0.0272034
0.02788
0.0285726
0.0292589
0.0299265
0.0305285
0.0312062
0.0319121
0.0326148
0.0332898
0.0339257
0.0345463
0.0349256
0.0264204
0.0270592
0.0276617
0.0283325
0.0290224
0.029713
0.0303832
0.0309865
0.0316689
0.032373
0.0330604
0.0337046
0.034293
0.0348446
0.0351107
0.0136798
0.0141139
0.0145758
0.0150623
0.0155719
0.0161046
0.0166626
0.0172508
0.0178781
0.0185583
0.0192359
0.0199253
0.0206481
0.0214315
0.0222214
0.0137187
0.0141483
0.0146073
0.0150904
0.0155987
0.0161332
0.0166975
0.0173002
0.0179554
0.0186114
0.0192814
0.0199801
0.0207345
0.0214887
0.0222632
0.0138326
0.0142742
0.0147434
0.0152368
0.0157525
0.0162901
0.0168503
0.0174362
0.0180526
0.0187068
0.0194172
0.0201295
0.0208662
0.0216586
0.0224512
0.0139853
0.0144331
0.0149086
0.0154087
0.0159312
0.0164748
0.0170402
0.0176301
0.0182501
0.0189104
0.0196269
0.0203427
0.0210796
0.0218697
0.0226472
0.0141775
0.0146248
0.0151017
0.0156059
0.0161339
0.0166841
0.0172577
0.0178589
0.0184973
0.019191
0.0198857
0.0205933
0.0213311
0.0221296
0.0229308
0.014454
0.0149208
0.0154158
0.0159357
0.0164775
0.0170396
0.0176213
0.018224
0.018851
0.0195078
0.020203
0.0209563
0.0217065
0.0224799
0.0233122
0.0147828
0.0152605
0.0157653
0.0162953
0.0168479
0.0174213
0.0180149
0.0186298
0.0192689
0.0199375
0.0206438
0.0214098
0.0221697
0.0229506
0.0237891
0.0152185
0.0156967
0.0161783
0.0167008
0.0172529
0.017833
0.01844
0.019077
0.0197526
0.020486
0.0212145
0.0219504
0.0227105
0.0235263
0.024325
0.0157115
0.0161862
0.0167012
0.0172452
0.0178155
0.018412
0.0190344
0.0196834
0.0203629
0.0210815
0.0218531
0.0226071
0.0233686
0.0241523
0.0249902
0.0163153
0.0168377
0.0173807
0.0179343
0.0184829
0.019077
0.0197093
0.0203762
0.0210814
0.0218448
0.0225939
0.0233467
0.0241112
0.0248996
0.0257478
0.0170196
0.0175482
0.0180731
0.0186477
0.019257
0.019894
0.0205538
0.0212337
0.0219332
0.0226528
0.0233906
0.024158
0.024983
0.0257802
0.0265825
0.0177871
0.0183369
0.018879
0.0194754
0.0201087
0.0207669
0.0214426
0.0221325
0.0228405
0.0235663
0.0243098
0.0250718
0.0258582
0.0266984
0.0274958
0.0185625
0.0191328
0.0196987
0.020316
0.0209649
0.0216369
0.0223306
0.0230415
0.0237666
0.0245035
0.0252498
0.0260025
0.0267662
0.0275553
0.0283964
0.0192255
0.0198163
0.0204351
0.0210693
0.0216879
0.022355
0.0230504
0.0237631
0.024492
0.0252325
0.0259823
0.0267427
0.027527
0.028369
0.0291411
0.0196784
0.0202526
0.0208766
0.0215275
0.0221844
0.0228179
0.0235037
0.0242159
0.0249475
0.0256911
0.0264431
0.0272058
0.0279899
0.0288327
0.0295991
0.0103044
0.010574
0.010863
0.011171
0.0114985
0.011846
0.0122165
0.0126148
0.013048
0.0135223
0.0140113
0.01453
0.0150952
0.015684
0.0163182
0.0103246
0.0105942
0.0108831
0.011191
0.0115185
0.0118677
0.0122428
0.0126507
0.0130995
0.0135655
0.0140585
0.014596
0.0151566
0.0157584
0.0163775
0.0103968
0.0106736
0.0109693
0.0112837
0.0116174
0.0119709
0.0123467
0.0127496
0.0131864
0.0136661
0.0141633
0.0146899
0.0152633
0.0158577
0.0164951
0.0104898
0.0107724
0.0110738
0.011394
0.0117335
0.0120933
0.0124754
0.0128843
0.0133271
0.0138131
0.0143155
0.0148467
0.0154259
0.0160251
0.0166674
0.0106049
0.0108922
0.0111993
0.0115255
0.011871
0.0122372
0.0126277
0.0130494
0.0135133
0.0139935
0.014496
0.0150301
0.0156134
0.0162202
0.0168723
0.0107781
0.0110771
0.0113962
0.011735
0.0120929
0.0124696
0.0128666
0.0132874
0.0137372
0.0142225
0.0147534
0.0153016
0.0158801
0.0165081
0.0171562
0.0109801
0.0112884
0.0116177
0.0119677
0.0123371
0.0127261
0.0131363
0.013571
0.0140351
0.014535
0.0150813
0.0156442
0.016237
0.0168793
0.0175395
0.0112259
0.011535
0.0118681
0.0122248
0.0126047
0.0130088
0.0134402
0.0139053
0.0144147
0.0149388
0.0154839
0.0160601
0.0166865
0.0173322
0.0180222
0.0115486
0.0118711
0.0122196
0.0125918
0.0129883
0.0134101
0.0138593
0.0143392
0.0148539
0.0154124
0.0159836
0.0165811
0.0172254
0.0178761
0.0185553
0.0119632
0.0123096
0.0126705
0.0130409
0.0134466
0.0138866
0.0143637
0.0148868
0.0154225
0.0159801
0.0165603
0.0171732
0.0178382
0.0185164
0.0192383
0.0124249
0.0127733
0.0131528
0.0135623
0.014001
0.0144675
0.0149615
0.0154838
0.0160389
0.0166406
0.0172489
0.017877
0.0185389
0.0192514
0.0199645
0.0129545
0.0133411
0.0137333
0.0141627
0.0146242
0.0151131
0.0156268
0.0161656
0.0167331
0.0173377
0.0179915
0.0186463
0.0193188
0.0200279
0.0207933
0.0134996
0.0139151
0.0143466
0.0147865
0.0152658
0.0157768
0.0163146
0.0168779
0.0174701
0.0180977
0.0187776
0.0194553
0.0201489
0.0208743
0.0216553
0.01398
0.014401
0.0148598
0.0153455
0.015857
0.0163947
0.0169565
0.0175411
0.0181491
0.018783
0.0194479
0.0201486
0.020902
0.0216462
0.0223993
0.0142864
0.0147378
0.0152068
0.0156793
0.0161921
0.0167349
0.0173059
0.0179025
0.0185248
0.0191764
0.0198666
0.0206135
0.021352
0.0221009
0.0228736
0.0084999
0.00862765
0.00877119
0.00893296
0.0091149
0.00930812
0.00951724
0.00974838
0.0100078
0.0102843
0.0105847
0.0109181
0.0112765
0.0116717
0.0120968
0.00852802
0.008658
0.00880199
0.00896051
0.00913472
0.00932574
0.0095377
0.00977685
0.0100332
0.0103116
0.0106215
0.0109537
0.0113183
0.0117043
0.0121251
0.00854449
0.00867705
0.00882505
0.00899083
0.00917826
0.00937715
0.00959172
0.00982793
0.0100922
0.0103735
0.0106794
0.011018
0.0113799
0.0117755
0.0121955
0.0085885
0.00872499
0.00887628
0.00904395
0.00923102
0.00943946
0.0096615
0.00990407
0.0101748
0.010462
0.0107727
0.0111171
0.0114847
0.0118883
0.0123157
0.00866294
0.00880619
0.00896368
0.00913565
0.00932293
0.00952653
0.00974932
0.00999699
0.0102753
0.0105732
0.0108998
0.0112443
0.0116173
0.012031
0.0124759
0.00873059
0.00887877
0.00904462
0.00922981
0.00943671
0.00965347
0.00988459
0.0101357
0.0104133
0.010724
0.0110576
0.0114234
0.0118098
0.0122326
0.0126764
0.00884111
0.00899203
0.00916617
0.00936539
0.00957639
0.00980085
0.0100422
0.0103049
0.0105943
0.0109178
0.0112647
0.0116444
0.0120445
0.0124816
0.0129392
0.00896674
0.00913255
0.00931493
0.00951466
0.00973217
0.00996954
0.0102306
0.0105222
0.010831
0.0111633
0.0115281
0.0119112
0.0123224
0.0127733
0.0132493
0.00913561
0.00931471
0.00951008
0.00972335
0.00995616
0.0102099
0.0104879
0.0107965
0.0111207
0.0114673
0.0118426
0.0122543
0.0126885
0.013159
0.0136499
0.0093679
0.00955918
0.00976029
0.00998813
0.0102469
0.0105217
0.0108161
0.0111323
0.0114713
0.0118389
0.0122439
0.0126717
0.0131354
0.0136141
0.0141202
0.00962381
0.00982515
0.0100496
0.0102972
0.0105685
0.0108651
0.0111924
0.0115331
0.0118936
0.0122794
0.0126967
0.0131544
0.0136333
0.0141498
0.0146796
0.00992587
0.0101627
0.0104169
0.0106903
0.0109834
0.0112969
0.0116313
0.0119871
0.0123663
0.0127738
0.0132161
0.0136982
0.0141959
0.0147246
0.0152983
0.0102417
0.0104963
0.0107729
0.011069
0.0113853
0.0117219
0.0120793
0.0124596
0.0128668
0.0133082
0.013793
0.0142934
0.0148199
0.0153888
0.015972
0.0105191
0.010796
0.011095
0.011415
0.0117555
0.0121165
0.0124983
0.0129025
0.013332
0.0137918
0.0142872
0.0148261
0.0153791
0.0159596
0.0165838
0.0107038
0.0109875
0.0112804
0.0116013
0.0119487
0.0123207
0.0127169
0.0131382
0.0135869
0.0140697
0.0145983
0.015141
0.0157016
0.0162943
0.0169413
0.00791538
0.00794087
0.00797665
0.00802483
0.0080862
0.00815635
0.00823923
0.00833965
0.0084532
0.0085853
0.00873157
0.00889985
0.00908485
0.00929526
0.00952577
0.00791652
0.00794633
0.00798766
0.00803645
0.00809478
0.00816515
0.00825153
0.00834931
0.00846182
0.00859382
0.00874299
0.00891496
0.00910726
0.00931569
0.00955012
0.00792567
0.00795435
0.00799323
0.00804427
0.00810987
0.0081838
0.00826992
0.00837268
0.00848717
0.00861864
0.008773
0.0089483
0.00913962
0.00935569
0.0095918
0.00793531
0.007967
0.00800895
0.00806303
0.00813176
0.00820938
0.00829934
0.00840638
0.00852503
0.00866007
0.0088167
0.00899214
0.00919252
0.00941652
0.00965908
0.00794557
0.00798437
0.00803621
0.00809502
0.00816271
0.00824124
0.00833434
0.00844582
0.00857197
0.00871822
0.00888012
0.0090639
0.00926512
0.0094931
0.00974205
0.00796545
0.00800653
0.00805909
0.00812464
0.00820479
0.00829302
0.00839358
0.00851173
0.00864212
0.00879055
0.0089625
0.00915178
0.00936599
0.00960013
0.00986277
0.00799021
0.00803762
0.00809817
0.00817442
0.00825894
0.00835377
0.0084623
0.00858933
0.00872914
0.00888737
0.00906977
0.00926996
0.00949573
0.00974176
0.0100169
0.00803601
0.00809059
0.00815584
0.00823352
0.00832556
0.00843485
0.00855464
0.00868893
0.00884121
0.00901595
0.00920821
0.00942461
0.00965894
0.0099217
0.0102061
0.00809039
0.00815532
0.00823083
0.00831889
0.00842219
0.00854385
0.00867655
0.00882436
0.0089912
0.00918123
0.00938904
0.00962237
0.00987347
0.0101535
0.0104542
0.00818178
0.00825915
0.00834631
0.00844556
0.00855872
0.00868644
0.00882995
0.00899309
0.00917991
0.00938429
0.00961346
0.00985899
0.010128
0.0104284
0.010755
0.00827992
0.0083715
0.00847414
0.00858909
0.00871776
0.00886175
0.00902288
0.00920355
0.00940853
0.00962899
0.00987203
0.010144
0.0104359
0.0107587
0.0111008
0.0083935
0.00850319
0.00862468
0.00875838
0.00890555
0.00906828
0.00925004
0.00945431
0.00967325
0.00991144
0.0101755
0.0104705
0.0107865
0.0111336
0.0115026
0.00853044
0.00865804
0.0087987
0.00895246
0.00911999
0.00930229
0.00950059
0.00971723
0.0099554
0.0102185
0.0105131
0.0108255
0.0111628
0.0115352
0.0119299
0.00864333
0.00878604
0.00894297
0.00911419
0.00930007
0.00950153
0.00972014
0.00995812
0.0102182
0.0105037
0.010822
0.0111598
0.0115215
0.0119193
0.0123405
0.00870775
0.00884906
0.00900821
0.00918591
0.00938197
0.00959739
0.00983498
0.0100998
0.01038
0.0106817
0.0110096
0.0113695
0.0117468
0.0121512
0.0125967
0.00813172
0.00808823
0.00805111
0.00802197
0.00799726
0.00797941
0.00797173
0.00797155
0.00798219
0.00800124
0.00803349
0.0080774
0.0081376
0.00821524
0.00830863
0.00812339
0.00808255
0.00804935
0.00802003
0.00799653
0.00798198
0.00797419
0.00797604
0.00798541
0.00800654
0.00803755
0.00808347
0.00814234
0.00821871
0.0083133
0.00811894
0.00807756
0.00804277
0.00801619
0.00799409
0.0079788
0.00797345
0.00797538
0.00798805
0.00800953
0.00804488
0.00809198
0.0081553
0.00823525
0.0083299
0.00810581
0.00806629
0.00803359
0.00800953
0.00799011
0.00797753
0.00797491
0.00797969
0.00799566
0.00802053
0.00805953
0.0081103
0.00817778
0.00826209
0.00836101
0.00808419
0.00804938
0.00802307
0.00800092
0.0079844
0.00797629
0.00797408
0.00798099
0.00800108
0.00803198
0.00807716
0.00813587
0.00820614
0.00829517
0.0084012
0.00806567
0.0080325
0.00800689
0.0079902
0.00797829
0.00797332
0.0079784
0.00799061
0.00801383
0.0080516
0.00810343
0.00816616
0.00824655
0.00834297
0.00845354
0.00803711
0.00800829
0.0079877
0.00797579
0.00796937
0.00797057
0.00798302
0.00800392
0.00803704
0.0080803
0.00813843
0.00820845
0.00829712
0.00840244
0.00852216
0.0080175
0.00799324
0.00797576
0.00796705
0.00796899
0.00797746
0.00799504
0.00802549
0.00806581
0.0081203
0.0081854
0.00826682
0.00836157
0.00847694
0.00861068
0.00798968
0.00797356
0.00796419
0.00796355
0.00797432
0.00799211
0.00801902
0.00805928
0.0081099
0.00817518
0.00825135
0.00834449
0.00845072
0.00857722
0.00872097
0.00797783
0.0079708
0.00797005
0.00797721
0.00799422
0.00802347
0.00806037
0.00810839
0.00817159
0.00824537
0.0083342
0.00844212
0.0085676
0.00870773
0.00886951
0.00796211
0.00796594
0.00797636
0.00799447
0.00802248
0.00806324
0.00811184
0.00817133
0.00824578
0.00833694
0.00844265
0.00856705
0.00870749
0.0088699
0.00905314
0.00795853
0.00797424
0.00799689
0.0080273
0.00806674
0.00811645
0.00817787
0.00825422
0.0083477
0.00845529
0.00858188
0.00872311
0.00888458
0.00906248
0.00926485
0.00794365
0.00797058
0.00800718
0.00805287
0.00810951
0.00817969
0.0082589
0.0083504
0.00845857
0.00858616
0.0087292
0.00889226
0.00906946
0.00926807
0.00949531
0.0079404
0.00798085
0.0080296
0.00808772
0.00815597
0.00823571
0.00832872
0.0084365
0.0085636
0.00870534
0.0088656
0.00904823
0.00924833
0.00947277
0.00971697
0.00792579
0.00797074
0.00802332
0.00809205
0.0081709
0.00826142
0.0083643
0.00848187
0.00861681
0.00877319
0.00894471
0.00913541
0.00935133
0.00958565
0.00984818
0.00882975
0.00874421
0.00866168
0.00857983
0.00850076
0.00842721
0.00835758
0.0082935
0.0082352
0.00818116
0.00813598
0.00809871
0.00806851
0.00804916
0.00804207
0.00881843
0.00873514
0.00865244
0.00857157
0.008495
0.00842113
0.00835221
0.00828682
0.0082279
0.00817428
0.00812878
0.00809241
0.00806434
0.00804445
0.00803717
0.00880152
0.00871717
0.00863627
0.00855637
0.00847912
0.00840695
0.00833802
0.00827494
0.00821644
0.00816503
0.00812162
0.00808503
0.00805926
0.0080442
0.0080413
0.00877424
0.0086901
0.00860947
0.00853263
0.00845833
0.00838872
0.00832203
0.00826132
0.00820519
0.00815606
0.00811478
0.00807995
0.00805545
0.00804293
0.00804258
0.00873742
0.0086563
0.00857912
0.00850419
0.008433
0.00836361
0.00829843
0.00823997
0.00818805
0.00814112
0.00810335
0.00807355
0.00805111
0.00804041
0.00804266
0.00869477
0.00861511
0.00854002
0.00846641
0.00839584
0.00833078
0.00826924
0.00821423
0.00816416
0.00812312
0.00808994
0.00806304
0.00804628
0.00804118
0.00804708
0.00863472
0.00855771
0.00848581
0.00841586
0.00834909
0.00828831
0.0082315
0.00818165
0.00813737
0.00810126
0.00807345
0.00805248
0.0080422
0.00804349
0.00805595
0.00857206
0.00849768
0.00842735
0.00836257
0.00830051
0.0082433
0.00819229
0.0081474
0.00811049
0.00808151
0.00805827
0.0080458
0.00804333
0.00805037
0.00807095
0.00849255
0.00842537
0.0083634
0.00830381
0.00824793
0.00819813
0.00815227
0.00811309
0.00808264
0.00806044
0.00804423
0.0080388
0.00804293
0.00806093
0.00809217
0.00841163
0.00835002
0.00829275
0.00824124
0.0081925
0.00814882
0.0081126
0.00808153
0.00805931
0.00804342
0.00803801
0.00804174
0.00805777
0.00808633
0.00812678
0.00832131
0.00826755
0.00821952
0.00817396
0.00813226
0.0080968
0.00806879
0.00804706
0.00803491
0.00803005
0.00803641
0.0080519
0.00807946
0.00811924
0.00817615
0.00822938
0.00818198
0.00813889
0.00810183
0.00807136
0.00804553
0.00802663
0.0080177
0.00801647
0.0080263
0.0080447
0.0080754
0.00811654
0.00817171
0.00824149
0.00812752
0.00808869
0.00805452
0.00802645
0.00800485
0.0079918
0.00798463
0.00798599
0.00799824
0.00802043
0.00805437
0.00809909
0.00815738
0.00822916
0.00832002
0.00803577
0.00800558
0.00797981
0.00795958
0.00794654
0.00794124
0.00794605
0.00795845
0.00798159
0.00801749
0.00806427
0.0081249
0.00819751
0.00828654
0.00839073
0.00796344
0.0079389
0.00791912
0.00790503
0.00789757
0.00789876
0.00791103
0.00793139
0.00796182
0.00800697
0.00806243
0.00813328
0.00821583
0.00831552
0.00842925
0.00990043
0.0097903
0.0096805
0.00956904
0.00945806
0.00934868
0.00924086
0.00913293
0.00902794
0.00892509
0.0088265
0.00873188
0.0086421
0.00855677
0.00847618
0.00840074
0.00988527
0.00977509
0.00966602
0.00955592
0.00944669
0.00933718
0.00922944
0.00912247
0.00901817
0.00891719
0.0088188
0.00872267
0.00863139
0.00854466
0.00846354
0.00838839
0.0098618
0.00975259
0.00964304
0.00953388
0.00942443
0.00931663
0.00920923
0.00910363
0.0090003
0.00889798
0.00879903
0.00870489
0.00861541
0.00853086
0.00845167
0.00837859
0.0098281
0.0097193
0.00961007
0.00950242
0.00939451
0.00928823
0.00918225
0.009078
0.008976
0.00887481
0.00877673
0.00868332
0.00859402
0.00850861
0.00842717
0.00835337
0.00978381
0.00967538
0.00956862
0.00946154
0.00935565
0.00924941
0.00914468
0.00904041
0.00893968
0.00884138
0.00874479
0.00865245
0.00856528
0.00848303
0.00840665
0.00833703
0.00972554
0.00961915
0.00951365
0.00940682
0.0093002
0.00919581
0.00909235
0.00899101
0.00889236
0.00879502
0.00870144
0.00861252
0.00852725
0.00844524
0.0083699
0.00830183
0.00964831
0.0095427
0.00943929
0.00933563
0.00923326
0.00913071
0.00903013
0.00893025
0.00883368
0.00873924
0.00864919
0.00856443
0.00848418
0.00840805
0.00833603
0.00827169
0.00955915
0.00945594
0.00935434
0.00925197
0.00915055
0.00905155
0.00895329
0.00885837
0.00876546
0.00867608
0.00859095
0.00850904
0.00843313
0.00836414
0.00830162
0.00824612
0.00944641
0.00934908
0.00925081
0.00915275
0.0090565
0.00896025
0.00886597
0.00877515
0.0086876
0.00860191
0.00852117
0.00844442
0.0083747
0.00831153
0.00825577
0.00820709
0.00932127
0.00922609
0.00913292
0.00903929
0.00894671
0.00885681
0.0087677
0.00868212
0.0085983
0.00851931
0.008444
0.0083748
0.00831239
0.00825598
0.00820503
0.00816342
0.00918921
0.00909656
0.00900473
0.00891472
0.00882789
0.00874152
0.00865751
0.00857704
0.0084995
0.00842659
0.00835852
0.00829752
0.00824371
0.00819611
0.00815438
0.00812309
0.00903688
0.00894912
0.0088619
0.00877644
0.0086943
0.00861538
0.00853848
0.00846583
0.00839519
0.00832942
0.00827084
0.00821925
0.00817329
0.00813565
0.00810556
0.00808411
0.00886888
0.00878684
0.00870623
0.00862851
0.00855395
0.00848119
0.00841179
0.00834617
0.00828342
0.00822625
0.00817667
0.00813276
0.00809815
0.00807168
0.00805362
0.00804793
0.0087099
0.00863318
0.00855805
0.008485
0.00841494
0.00834932
0.0082868
0.00822795
0.00817507
0.00812757
0.0080874
0.00805374
0.00802898
0.00801143
0.00800565
0.00801064
0.00859207
0.00851925
0.00844985
0.00838477
0.00832018
0.00825743
0.00819855
0.00814577
0.00809621
0.00805253
0.00801825
0.00799058
0.00797391
0.00796631
0.00796663
0.00798019
0.0109907
0.0108684
0.010745
0.01062
0.0104945
0.0103687
0.0102411
0.0101132
0.0099865
0.00986065
0.00973546
0.00961085
0.00948694
0.00936392
0.00924217
0.00912195
0.0109773
0.0108562
0.010733
0.0106091
0.0104835
0.0103573
0.0102306
0.0101028
0.00997582
0.00984906
0.00972312
0.00959773
0.00947311
0.00934964
0.00922779
0.00910818
0.0109539
0.0108324
0.0107098
0.0105858
0.0104613
0.010336
0.0102088
0.0100812
0.00995408
0.00982624
0.00969741
0.00957016
0.00944484
0.00932166
0.00920127
0.00908449
0.0109175
0.0107961
0.0106745
0.0105515
0.0104277
0.0103031
0.0101761
0.0100496
0.0099232
0.00979597
0.00966764
0.00954086
0.00941584
0.00929276
0.00917241
0.0090557
0.0108675
0.0107479
0.0106262
0.0105038
0.0103797
0.0102557
0.0101306
0.0100038
0.00987728
0.0097517
0.00962666
0.00950225
0.00937845
0.00925551
0.00913686
0.00902328
0.0108044
0.0106856
0.0105639
0.0104409
0.0103176
0.010194
0.0100683
0.00994317
0.00981806
0.00969218
0.00956775
0.00944506
0.00932385
0.00920424
0.00908711
0.00897336
0.0107181
0.0106004
0.0104807
0.0103604
0.0102382
0.0101157
0.0099919
0.00986828
0.00974559
0.00962276
0.00949968
0.00937881
0.0092601
0.00914337
0.00902898
0.00891781
0.0106167
0.0105003
0.0103814
0.0102617
0.010142
0.0100223
0.00990082
0.00978047
0.00966044
0.00953989
0.00942073
0.00930408
0.00918981
0.00907776
0.00896803
0.00886104
0.0104927
0.0103777
0.0102609
0.0101443
0.010026
0.00990797
0.00978903
0.00967071
0.0095534
0.00943614
0.00932115
0.00920816
0.00909806
0.00899058
0.00888568
0.00878373
0.0103494
0.0102371
0.0101233
0.0100096
0.00989426
0.00977914
0.00966267
0.00954727
0.00943223
0.00931942
0.00920832
0.00909923
0.00899127
0.0088868
0.00878608
0.00868943
0.0101895
0.0100808
0.00996936
0.00985689
0.0097451
0.00963201
0.00951966
0.00940691
0.00929599
0.00918634
0.00907996
0.00897603
0.00887458
0.00877501
0.00868019
0.00859055
0.0100069
0.00990096
0.00979289
0.00968394
0.00957576
0.00946628
0.00935743
0.00925046
0.00914548
0.00904154
0.00894062
0.008843
0.00874763
0.0086573
0.00857212
0.00849201
0.00980992
0.00970581
0.00960105
0.00949673
0.00939164
0.009287
0.00918363
0.00908126
0.00898081
0.00888233
0.00878783
0.00869623
0.00860798
0.00852577
0.0084493
0.00837814
0.00961649
0.0095154
0.00941538
0.00931481
0.00921302
0.009112
0.00901363
0.00891588
0.00882125
0.00872837
0.00864026
0.0085555
0.00847336
0.00839788
0.00832875
0.00826501
0.00948271
0.00938336
0.00928518
0.0091888
0.00909099
0.00899325
0.00889777
0.00880234
0.00870935
0.00862051
0.00853581
0.00845319
0.00837618
0.00830409
0.00823978
0.00818287
0.0121065
0.0119807
0.011853
0.0117222
0.0115893
0.011455
0.0113183
0.0111786
0.0110382
0.0108969
0.0107546
0.0106114
0.0104675
0.0103234
0.01018
0.0100358
0.0120939
0.0119678
0.0118404
0.0117105
0.0115773
0.0114425
0.0113067
0.0111694
0.0110307
0.0108906
0.0107489
0.0106056
0.0104609
0.0103156
0.0101704
0.010025
0.0120702
0.0119448
0.0118174
0.0116867
0.0115547
0.0114206
0.0112835
0.0111452
0.0110058
0.0108648
0.0107222
0.0105782
0.0104334
0.0102885
0.0101445
0.0100024
0.0120334
0.0119084
0.0117816
0.0116514
0.01152
0.0113863
0.0112493
0.0111104
0.0109707
0.0108298
0.0106877
0.0105448
0.0104009
0.0102567
0.0101132
0.00997129
0.0119824
0.0118571
0.0117301
0.0116002
0.0114685
0.0113353
0.0111994
0.0110606
0.0109207
0.0107801
0.0106385
0.0104961
0.0103532
0.0102106
0.0100694
0.00992847
0.0119178