/*--------------------------------*- C++ -*----------------------------------*\
| =========                 |                                                 |
| \\      /  F ield         | OpenFOAM: The Open Source CFD Toolbox           |
|  \\    /   O peration     | Version:  2312                                  |
|   \\  /    A nd           | Website:  www.openfoam.com                      |
|    \\/     M anipulation  |                                                 |
\*---------------------------------------------------------------------------*/
FoamFile
{
    version     2.0;
    format      ascii;
    arch        "LSB;label=32;scalar=64";
    class       volVectorField;
    location    "0.3";
    object      D_0;
}
// * * * * * * * * * * * * * * * * * * * * * * * * * * * * * * * * * * * * * //

dimensions      [0 1 0 0 0 0 0];

internalField   nonuniform List<vector> 
1620
(
(8.03775e-05 0.000221922 1.5237e-05)
(4.06201e-05 0.000232507 1.5237e-05)
(-3.7134e-07 0.000236029 1.5237e-05)
(-4.13516e-05 0.000232379 1.52372e-05)
(-8.10756e-05 0.000221668 1.52372e-05)
(-0.000118336 0.000204222 1.52371e-05)
(-0.000152001 0.00018057 1.52372e-05)
(-0.000181047 0.000151432 1.52372e-05)
(-0.000204593 0.000117693 1.5237e-05)
(-0.000221922 8.03775e-05 1.5237e-05)
(-0.000232507 4.062e-05 1.52369e-05)
(-0.000236029 -3.71364e-07 1.5237e-05)
(-0.000232379 -4.13516e-05 1.52372e-05)
(-0.000221668 -8.10756e-05 1.52372e-05)
(-0.000204222 -0.000118336 1.52371e-05)
(-0.00018057 -0.000152001 1.52372e-05)
(-0.000151432 -0.000181047 1.52372e-05)
(-0.000117693 -0.000204593 1.5237e-05)
(-8.03775e-05 -0.000221922 1.5237e-05)
(-4.062e-05 -0.000232507 1.52369e-05)
(3.71374e-07 -0.000236029 1.5237e-05)
(4.13516e-05 -0.000232379 1.52372e-05)
(8.10756e-05 -0.000221668 1.52372e-05)
(0.000118336 -0.000204222 1.52371e-05)
(0.000152001 -0.00018057 1.52372e-05)
(0.000181047 -0.000151432 1.52372e-05)
(0.000204593 -0.000117693 1.5237e-05)
(0.000221922 -8.03775e-05 1.5237e-05)
(0.000232508 -4.06201e-05 1.5237e-05)
(0.000236029 3.71354e-07 1.5237e-05)
(0.000232379 4.13516e-05 1.52372e-05)
(0.000221668 8.10756e-05 1.52372e-05)
(0.000204222 0.000118336 1.52371e-05)
(0.00018057 0.000152001 1.52372e-05)
(0.000151432 0.000181047 1.52372e-05)
(0.000117693 0.000204593 1.5237e-05)
(4.07999e-05 0.000234127 3.03055e-05)
(-4.75691e-07 0.000237655 3.03055e-05)
(-4.17366e-05 0.000233962 3.03056e-05)
(-8.17294e-05 0.00022316 3.03056e-05)
(-0.000119239 0.000205578 3.03056e-05)
(-0.000153126 0.000181749 3.03056e-05)
(-0.00018236 0.000152397 3.03056e-05)
(-0.000206053 0.000118416 3.03055e-05)
(-0.000223485 8.08358e-05 3.03054e-05)
(-0.000234127 4.07999e-05 3.03055e-05)
(-0.000237655 -4.7571e-07 3.03055e-05)
(-0.000233962 -4.17366e-05 3.03056e-05)
(-0.00022316 -8.17294e-05 3.03056e-05)
(-0.000205578 -0.000119239 3.03056e-05)
(-0.000181748 -0.000153126 3.03056e-05)
(-0.000152397 -0.00018236 3.03056e-05)
(-0.000118415 -0.000206053 3.03055e-05)
(-8.08357e-05 -0.000223485 3.03054e-05)
(-4.07999e-05 -0.000234127 3.03055e-05)
(4.75721e-07 -0.000237655 3.03055e-05)
(4.17367e-05 -0.000233962 3.03056e-05)
(8.17295e-05 -0.00022316 3.03056e-05)
(0.000119239 -0.000205578 3.03056e-05)
(0.000153126 -0.000181748 3.03056e-05)
(0.00018236 -0.000152397 3.03056e-05)
(0.000206053 -0.000118416 3.03055e-05)
(0.000223485 -8.08358e-05 3.03054e-05)
(0.000234127 -4.07999e-05 3.03055e-05)
(0.000237655 4.75705e-07 3.03055e-05)
(0.000233962 4.17366e-05 3.03056e-05)
(0.00022316 8.17294e-05 3.03056e-05)
(0.000205578 0.000119239 3.03056e-05)
(0.000181749 0.000153126 3.03056e-05)
(0.000152397 0.00018236 3.03056e-05)
(0.000118416 0.000206053 3.03055e-05)
(8.08358e-05 0.000223485 3.03055e-05)
(-1.04908e-05 0.000244966 3.00032e-05)
(-5.28694e-05 0.000239423 3.00034e-05)
(-9.36416e-05 0.000226605 3.00033e-05)
(-0.000131569 0.000206902 3.00033e-05)
(-0.000165498 0.000180912 3.00034e-05)
(-0.000194398 0.000149425 3.00033e-05)
(-0.000217393 0.000113398 3.00034e-05)
(-0.000233781 7.39252e-05 3.00032e-05)
(-0.000243066 3.22065e-05 3.00032e-05)
(-0.000244966 -1.04908e-05 3.00032e-05)
(-0.000239423 -5.28694e-05 3.00034e-05)
(-0.000226605 -9.36416e-05 3.00033e-05)
(-0.000206902 -0.000131569 3.00033e-05)
(-0.000180912 -0.000165498 3.00034e-05)
(-0.000149425 -0.000194398 3.00033e-05)
(-0.000113398 -0.000217393 3.00034e-05)
(-7.39252e-05 -0.000233781 3.00032e-05)
(-3.22065e-05 -0.000243066 3.00032e-05)
(1.04908e-05 -0.000244966 3.00032e-05)
(5.28694e-05 -0.000239423 3.00034e-05)
(9.36416e-05 -0.000226605 3.00033e-05)
(0.000131569 -0.000206902 3.00033e-05)
(0.000165498 -0.000180912 3.00034e-05)
(0.000194398 -0.000149425 3.00033e-05)
(0.000217393 -0.000113398 3.00034e-05)
(0.000233781 -7.39252e-05 3.00032e-05)
(0.000243066 -3.22065e-05 3.00032e-05)
(0.000244966 1.04908e-05 3.00032e-05)
(0.000239423 5.28694e-05 3.00034e-05)
(0.000226605 9.36416e-05 3.00033e-05)
(0.000206902 0.000131569 3.00033e-05)
(0.000180912 0.000165498 3.00034e-05)
(0.000149425 0.000194398 3.00033e-05)
(0.000113398 0.000217393 3.00034e-05)
(7.39253e-05 0.000233781 3.00032e-05)
(3.22065e-05 0.000243066 3.00032e-05)
(0.000157482 0.000684923 0.00011655)
(3.61539e-05 0.000701864 0.00011655)
(-8.62725e-05 0.000697479 0.00011655)
(-0.000206078 0.000671901 0.00011655)
(-0.000319621 0.000625909 0.000116551)
(-0.000423453 0.000560898 0.00011655)
(-0.000514419 0.000478845 0.00011655)
(-0.000589755 0.000382242 0.00011655)
(-0.00064717 0.000274025 0.00011655)
(-0.000684922 0.000157482 0.00011655)
(-0.000701864 3.61539e-05 0.00011655)
(-0.000697479 -8.62726e-05 0.00011655)
(-0.000671901 -0.000206078 0.00011655)
(-0.000625909 -0.000319621 0.000116551)
(-0.000560898 -0.000423453 0.00011655)
(-0.000478845 -0.000514419 0.00011655)
(-0.000382242 -0.000589755 0.00011655)
(-0.000274025 -0.00064717 0.00011655)
(-0.000157482 -0.000684923 0.00011655)
(-3.61538e-05 -0.000701864 0.00011655)
(8.62726e-05 -0.000697479 0.00011655)
(0.000206078 -0.000671901 0.00011655)
(0.000319621 -0.000625909 0.000116551)
(0.000423453 -0.000560898 0.00011655)
(0.000514419 -0.000478845 0.00011655)
(0.000589755 -0.000382242 0.00011655)
(0.000647171 -0.000274025 0.00011655)
(0.000684923 -0.000157482 0.00011655)
(0.000701864 -3.61539e-05 0.00011655)
(0.000697479 8.62725e-05 0.00011655)
(0.000671901 0.000206078 0.00011655)
(0.000625909 0.000319621 0.000116551)
(0.000560898 0.000423453 0.00011655)
(0.000478845 0.000514419 0.00011655)
(0.000382242 0.000589755 0.00011655)
(0.000274025 0.00064717 0.00011655)
(9.96053e-05 0.000695905 0.0001444)
(-2.27503e-05 0.000702629 0.0001444)
(-0.000144415 0.000688004 0.0001444)
(-0.000261691 0.000652475 0.0001444)
(-0.000371017 0.00059712 0.000144401)
(-0.000469069 0.000523622 0.000144401)
(-0.000552869 0.000434214 0.0001444)
(-0.000619869 0.000331612 0.0001444)
(-0.000668036 0.000218935 0.0001444)
(-0.000695905 9.96052e-05 0.0001444)
(-0.000702629 -2.27504e-05 0.0001444)
(-0.000688004 -0.000144415 0.0001444)
(-0.000652475 -0.000261691 0.0001444)
(-0.00059712 -0.000371017 0.000144401)
(-0.000523622 -0.000469069 0.000144401)
(-0.000434214 -0.000552869 0.0001444)
(-0.000331612 -0.00061987 0.0001444)
(-0.000218935 -0.000668036 0.0001444)
(-9.96052e-05 -0.000695905 0.0001444)
(2.27504e-05 -0.000702629 0.0001444)
(0.000144415 -0.000688004 0.0001444)
(0.000261691 -0.000652475 0.0001444)
(0.000371017 -0.00059712 0.000144401)
(0.000469069 -0.000523622 0.000144401)
(0.000552869 -0.000434214 0.0001444)
(0.00061987 -0.000331612 0.0001444)
(0.000668036 -0.000218935 0.0001444)
(0.000695905 -9.96052e-05 0.0001444)
(0.000702629 2.27504e-05 0.0001444)
(0.000688004 0.000144415 0.0001444)
(0.000652475 0.000261691 0.0001444)
(0.00059712 0.000371017 0.000144401)
(0.000523622 0.000469069 0.000144401)
(0.000434214 0.000552869 0.0001444)
(0.000331612 0.000619869 0.0001444)
(0.000218935 0.000668036 0.0001444)
(2.81027e-05 0.000702516 0.000164131)
(-9.43148e-05 0.000696723 0.000164131)
(-0.000213866 0.000669761 0.000164131)
(-0.00032692 0.000622448 0.000164131)
(-0.00043004 0.000556223 0.000164131)
(-0.000520094 0.000473096 0.000164131)
(-0.000594345 0.000375595 0.000164131)
(-0.000650537 0.000266683 0.000164131)
(-0.000686963 0.000149666 0.000164131)
(-0.000702516 2.81026e-05 0.000164131)
(-0.000696723 -9.43149e-05 0.000164131)
(-0.000669761 -0.000213866 0.000164131)
(-0.000622448 -0.00032692 0.000164131)
(-0.000556222 -0.00043004 0.000164131)
(-0.000473096 -0.000520094 0.000164131)
(-0.000375595 -0.000594345 0.000164131)
(-0.000266682 -0.000650537 0.000164131)
(-0.000149666 -0.000686963 0.000164131)
(-2.81026e-05 -0.000702516 0.000164131)
(9.43149e-05 -0.000696723 0.000164131)
(0.000213866 -0.000669761 0.000164131)
(0.00032692 -0.000622448 0.000164131)
(0.00043004 -0.000556223 0.000164131)
(0.000520094 -0.000473096 0.000164131)
(0.000594345 -0.000375595 0.000164131)
(0.000650537 -0.000266683 0.000164131)
(0.000686963 -0.000149666 0.000164131)
(0.000702516 -2.81026e-05 0.000164131)
(0.000696723 9.43149e-05 0.000164131)
(0.000669761 0.000213866 0.000164131)
(0.000622448 0.00032692 0.000164131)
(0.000556223 0.00043004 0.000164131)
(0.000473096 0.000520094 0.000164131)
(0.000375596 0.000594345 0.000164131)
(0.000266683 0.000650537 0.000164131)
(0.000149667 0.000686963 0.000164131)
(0.000209657 0.00114189 0.000280559)
(8.1848e-06 0.00116095 0.000280559)
(-0.000193536 0.00114473 0.000280559)
(-0.000389377 0.00109374 0.00028056)
(-0.000573386 0.0010095 0.00028056)
(-0.000739973 0.0008946 0.00028056)
(-0.000884077 0.000752514 0.00028056)
(-0.00100132 0.000587563 0.000280559)
(-0.00108814 0.000404759 0.000280559)
(-0.00114189 0.000209657 0.000280559)
(-0.00116095 8.1847e-06 0.000280559)
(-0.00114473 -0.000193536 0.000280559)
(-0.00109374 -0.000389377 0.00028056)
(-0.0010095 -0.000573386 0.00028056)
(-0.0008946 -0.000739973 0.00028056)
(-0.000752514 -0.000884078 0.00028056)
(-0.000587563 -0.00100132 0.000280559)
(-0.000404759 -0.00108814 0.000280559)
(-0.000209657 -0.00114189 0.000280559)
(-8.18464e-06 -0.00116095 0.000280559)
(0.000193536 -0.00114473 0.000280559)
(0.000389377 -0.00109374 0.00028056)
(0.000573386 -0.0010095 0.00028056)
(0.000739973 -0.0008946 0.00028056)
(0.000884078 -0.000752514 0.00028056)
(0.00100132 -0.000587563 0.000280559)
(0.00108814 -0.000404759 0.000280559)
(0.00114189 -0.000209657 0.000280559)
(0.00116095 -8.18473e-06 0.000280559)
(0.00114473 0.000193536 0.000280559)
(0.00109374 0.000389377 0.00028056)
(0.0010095 0.000573386 0.00028056)
(0.000894601 0.000739973 0.00028056)
(0.000752514 0.000884078 0.00028056)
(0.000587563 0.00100132 0.000280559)
(0.000404759 0.00108814 0.000280559)
(0.000131864 0.00114104 0.000316638)
(-6.82782e-05 0.0011466 0.000316638)
(-0.000266346 0.00111733 0.000316638)
(-0.000456321 0.0010541 0.000316638)
(-0.000632432 0.000958849 0.000316639)
(-0.000789326 0.000834461 0.000316639)
(-0.000922237 0.000684718 0.000316639)
(-0.00102713 0.000514171 0.000316638)
(-0.00110081 0.000328001 0.000316638)
(-0.00114104 0.000131864 0.000316638)
(-0.0011466 -6.82783e-05 0.000316638)
(-0.00111733 -0.000266346 0.000316638)
(-0.0010541 -0.000456321 0.000316638)
(-0.000958849 -0.000632432 0.000316639)
(-0.000834461 -0.000789326 0.000316638)
(-0.000684718 -0.000922237 0.000316638)
(-0.000514171 -0.00102713 0.000316638)
(-0.000328001 -0.00110081 0.000316638)
(-0.000131864 -0.00114104 0.000316638)
(6.82783e-05 -0.0011466 0.000316638)
(0.000266347 -0.00111733 0.000316638)
(0.000456322 -0.0010541 0.000316638)
(0.000632432 -0.000958849 0.000316639)
(0.000789326 -0.000834461 0.000316639)
(0.000922237 -0.000684718 0.000316639)
(0.00102713 -0.000514171 0.000316638)
(0.00110081 -0.000328001 0.000316638)
(0.00114104 -0.000131864 0.000316638)
(0.0011466 6.82783e-05 0.000316638)
(0.00111733 0.000266346 0.000316638)
(0.0010541 0.000456321 0.000316638)
(0.000958849 0.000632432 0.000316639)
(0.000834461 0.000789326 0.000316639)
(0.000684718 0.000922237 0.000316639)
(0.000514171 0.00102713 0.000316638)
(0.000328001 0.00110081 0.000316638)
(4.18934e-05 0.00113449 0.000346272)
(-0.000155744 0.00112453 0.000346272)
(-0.00034865 0.0010804 0.000346272)
(-0.000530962 0.00100344 0.000346272)
(-0.000697141 0.000895996 0.000346272)
(-0.000842138 0.000761326 0.000346272)
(-0.000961547 0.000603524 0.000346272)
(-0.00105174 0.000427384 0.000346272)
(-0.00110998 0.000238259 0.000346272)
(-0.00113449 4.18933e-05 0.000346272)
(-0.00112453 -0.000155744 0.000346272)
(-0.0010804 -0.00034865 0.000346272)
(-0.00100344 -0.000530962 0.000346272)
(-0.000895996 -0.000697141 0.000346272)
(-0.000761326 -0.000842138 0.000346272)
(-0.000603524 -0.000961547 0.000346272)
(-0.000427384 -0.00105174 0.000346272)
(-0.000238259 -0.00110998 0.000346272)
(-4.18933e-05 -0.00113449 0.000346272)
(0.000155745 -0.00112453 0.000346272)
(0.00034865 -0.0010804 0.000346272)
(0.000530962 -0.00100344 0.000346272)
(0.000697141 -0.000895996 0.000346272)
(0.000842138 -0.000761326 0.000346272)
(0.000961547 -0.000603524 0.000346272)
(0.00105174 -0.000427384 0.000346272)
(0.00110998 -0.000238259 0.000346272)
(0.00113449 -4.18933e-05 0.000346272)
(0.00112453 0.000155744 0.000346272)
(0.0010804 0.00034865 0.000346272)
(0.00100344 0.000530962 0.000346272)
(0.000895996 0.000697141 0.000346272)
(0.000761326 0.000842138 0.000346272)
(0.000603524 0.000961547 0.000346272)
(0.000427384 0.00105174 0.000346272)
(0.000238259 0.00110998 0.000346272)
(0.000220468 0.00158173 0.000487579)
(-5.75455e-05 0.00159598 0.000487579)
(-0.000333811 0.00156175 0.000487579)
(-0.000599934 0.00148005 0.00048758)
(-0.000847827 0.00135339 0.00048758)
(-0.00106996 0.00118561 0.00048758)
(-0.00125958 0.000981797 0.00048758)
(-0.00141094 0.000748156 0.00048758)
(-0.00151942 0.000491783 0.000487579)
(-0.00158173 0.000220468 0.000487579)
(-0.00159598 -5.75456e-05 0.000487579)
(-0.00156175 -0.000333811 0.000487579)
(-0.00148005 -0.000599934 0.00048758)
(-0.00135339 -0.000847827 0.00048758)
(-0.00118561 -0.00106996 0.00048758)
(-0.000981796 -0.00125958 0.00048758)
(-0.000748156 -0.00141094 0.00048758)
(-0.000491783 -0.00151942 0.000487579)
(-0.000220468 -0.00158173 0.000487579)
(5.75457e-05 -0.00159598 0.000487579)
(0.000333811 -0.00156175 0.000487579)
(0.000599934 -0.00148005 0.00048758)
(0.000847828 -0.00135339 0.00048758)
(0.00106996 -0.00118561 0.00048758)
(0.00125958 -0.000981797 0.00048758)
(0.00141094 -0.000748156 0.00048758)
(0.00151942 -0.000491783 0.000487579)
(0.00158173 -0.000220468 0.000487579)
(0.00159598 5.75456e-05 0.000487579)
(0.00156175 0.000333811 0.000487579)
(0.00148005 0.000599934 0.00048758)
(0.00135339 0.000847827 0.00048758)
(0.00118561 0.00106996 0.00048758)
(0.000981797 0.00125958 0.00048758)
(0.000748156 0.00141094 0.00048758)
(0.000491784 0.00151942 0.000487579)
(0.000130705 0.00155806 0.000526281)
(-0.000141836 0.00155709 0.000526281)
(-0.000410067 0.00150881 0.000526281)
(-0.000665838 0.00141468 0.000526281)
(-0.000901378 0.00127756 0.000526281)
(-0.00110953 0.00110163 0.000526281)
(-0.00128397 0.000892226 0.000526282)
(-0.0014194 0.000655712 0.000526281)
(-0.0015117 0.000399274 0.000526281)
(-0.00155806 0.000130705 0.000526281)
(-0.00155709 -0.000141836 0.000526281)
(-0.00150881 -0.000410067 0.000526281)
(-0.00141468 -0.000665838 0.000526281)
(-0.00127756 -0.000901378 0.000526281)
(-0.00110163 -0.00110953 0.000526281)
(-0.000892226 -0.00128397 0.000526281)
(-0.000655712 -0.0014194 0.000526281)
(-0.000399274 -0.0015117 0.000526281)
(-0.000130705 -0.00155806 0.000526281)
(0.000141836 -0.00155709 0.000526281)
(0.000410067 -0.00150881 0.000526281)
(0.000665838 -0.00141468 0.000526281)
(0.000901378 -0.00127756 0.000526281)
(0.00110953 -0.00110163 0.000526281)
(0.00128397 -0.000892226 0.000526282)
(0.0014194 -0.000655712 0.000526281)
(0.0015117 -0.000399274 0.000526281)
(0.00155806 -0.000130705 0.000526281)
(0.00155709 0.000141836 0.000526281)
(0.00150881 0.000410067 0.000526281)
(0.00141468 0.000665838 0.000526281)
(0.00127756 0.000901378 0.000526281)
(0.00110163 0.00110953 0.000526281)
(0.000892226 0.00128397 0.000526282)
(0.000655712 0.0014194 0.000526281)
(0.000399275 0.0015117 0.000526281)
(3.03667e-05 0.00152857 0.000558962)
(-0.000235528 0.00151062 0.000558962)
(-0.000494266 0.00144677 0.000558962)
(-0.000737987 0.00133896 0.000558962)
(-0.000959283 0.00119047 0.000558962)
(-0.00115143 0.00100581 0.000558962)
(-0.0013086 0.000790584 0.000558962)
(-0.001426 0.000551338 0.000558962)
(-0.00150007 0.000295339 0.000558962)
(-0.00152857 3.03666e-05 0.000558962)
(-0.00151062 -0.000235528 0.000558962)
(-0.00144677 -0.000494266 0.000558962)
(-0.00133896 -0.000737987 0.000558962)
(-0.00119047 -0.000959283 0.000558962)
(-0.00100581 -0.00115143 0.000558962)
(-0.000790584 -0.0013086 0.000558962)
(-0.000551338 -0.001426 0.000558962)
(-0.000295339 -0.00150007 0.000558962)
(-3.03665e-05 -0.00152857 0.000558962)
(0.000235528 -0.00151062 0.000558962)
(0.000494266 -0.00144677 0.000558962)
(0.000737987 -0.00133896 0.000558962)
(0.000959283 -0.00119047 0.000558962)
(0.00115143 -0.00100581 0.000558962)
(0.0013086 -0.000790584 0.000558962)
(0.001426 -0.000551338 0.000558962)
(0.00150007 -0.000295339 0.000558962)
(0.00152857 -3.03666e-05 0.000558962)
(0.00151062 0.000235528 0.000558962)
(0.00144677 0.000494266 0.000558962)
(0.00133896 0.000737987 0.000558962)
(0.00119047 0.000959283 0.000558962)
(0.00100581 0.00115143 0.000558962)
(0.000790584 0.0013086 0.000558962)
(0.000551338 0.001426 0.000558962)
(0.000295339 0.00150007 0.000558962)
(0.000190685 0.00199193 0.00072603)
(-0.000158106 0.00199478 0.00072603)
(-0.000502094 0.00193702 0.00072603)
(-0.000830825 0.0018204 0.00072603)
(-0.00113431 0.00164847 0.00072603)
(-0.00140333 0.00142646 0.000726031)
(-0.00162971 0.0011611 0.000726031)
(-0.00180658 0.000860464 0.00072603)
(-0.00192855 0.000533682 0.00072603)
(-0.00199193 0.000190684 0.00072603)
(-0.00199478 -0.000158107 0.00072603)
(-0.00193702 -0.000502094 0.00072603)
(-0.0018204 -0.000830825 0.00072603)
(-0.00164847 -0.00113431 0.00072603)
(-0.00142646 -0.00140333 0.000726031)
(-0.0011611 -0.00162971 0.00072603)
(-0.000860464 -0.00180658 0.00072603)
(-0.000533682 -0.00192855 0.00072603)
(-0.000190684 -0.00199193 0.00072603)
(0.000158107 -0.00199478 0.00072603)
(0.000502094 -0.00193702 0.00072603)
(0.000830825 -0.0018204 0.00072603)
(0.00113431 -0.00164847 0.00072603)
(0.00140333 -0.00142646 0.000726031)
(0.00162971 -0.0011611 0.00072603)
(0.00180658 -0.000860464 0.00072603)
(0.00192855 -0.000533682 0.00072603)
(0.00199193 -0.000190685 0.00072603)
(0.00199478 0.000158106 0.00072603)
(0.00193702 0.000502094 0.00072603)
(0.0018204 0.000830825 0.00072603)
(0.00164847 0.00113431 0.00072603)
(0.00142646 0.00140333 0.000726031)
(0.0011611 0.00162971 0.000726031)
(0.000860464 0.00180658 0.00072603)
(0.000533682 0.00192855 0.00072603)
(9.63498e-05 0.0019358 0.000762231)
(-0.000241261 0.00192312 0.000762231)
(-0.000571542 0.00185201 0.000762231)
(-0.000884456 0.00172462 0.000762231)
(-0.0011705 0.00154484 0.000762232)
(-0.00142097 0.00131811 0.000762231)
(-0.00162827 0.00105134 0.000762232)
(-0.0017861 0.000752621 0.000762231)
(-0.00188965 0.000431033 0.000762231)
(-0.0019358 9.63496e-05 0.000762231)
(-0.00192312 -0.000241262 0.000762231)
(-0.00185201 -0.000571542 0.000762231)
(-0.00172462 -0.000884456 0.000762231)
(-0.00154484 -0.0011705 0.000762231)
(-0.00131811 -0.00142097 0.000762231)
(-0.00105134 -0.00162827 0.000762231)
(-0.000752621 -0.0017861 0.000762231)
(-0.000431033 -0.00188966 0.000762231)
(-9.63495e-05 -0.0019358 0.000762231)
(0.000241262 -0.00192312 0.000762231)
(0.000571542 -0.00185201 0.000762231)
(0.000884456 -0.00172462 0.000762231)
(0.0011705 -0.00154484 0.000762231)
(0.00142097 -0.00131811 0.000762231)
(0.00162827 -0.00105134 0.000762231)
(0.0017861 -0.000752621 0.000762231)
(0.00188966 -0.000431033 0.000762231)
(0.0019358 -9.63496e-05 0.000762231)
(0.00192312 0.000241262 0.000762231)
(0.00185201 0.000571542 0.000762231)
(0.00172462 0.000884456 0.000762231)
(0.00154484 0.0011705 0.000762232)
(0.00131811 0.00142097 0.000762232)
(0.00105134 0.00162827 0.000762232)
(0.000752621 0.0017861 0.000762231)
(0.000431034 0.00188966 0.000762231)
(-7.01999e-06 0.00187444 0.000792424)
(-0.000332407 0.00184475 0.000792423)
(-0.000647694 0.001759 0.000792424)
(-0.000943301 0.00161981 0.000792423)
(-0.00121025 0.0014314 0.000792424)
(-0.00144042 0.00119949 0.000792423)
(-0.00162682 0.000931143 0.000792423)
(-0.0017638 0.000634501 0.000792423)
(-0.00184719 0.000318581 0.000792424)
(-0.00187444 -7.02014e-06 0.000792423)
(-0.00184475 -0.000332407 0.000792423)
(-0.001759 -0.000647694 0.000792424)
(-0.00161981 -0.000943301 0.000792423)
(-0.00143139 -0.00121025 0.000792424)
(-0.00119949 -0.00144042 0.000792423)
(-0.000931143 -0.00162683 0.000792423)
(-0.000634501 -0.0017638 0.000792423)
(-0.000318581 -0.00184719 0.000792423)
(7.02025e-06 -0.00187444 0.000792423)
(0.000332407 -0.00184475 0.000792423)
(0.000647694 -0.001759 0.000792423)
(0.000943301 -0.00161981 0.000792423)
(0.00121025 -0.0014314 0.000792424)
(0.00144042 -0.00119949 0.000792423)
(0.00162683 -0.000931143 0.000792423)
(0.0017638 -0.000634501 0.000792423)
(0.00184719 -0.000318581 0.000792424)
(0.00187444 7.02011e-06 0.000792424)
(0.00184475 0.000332407 0.000792423)
(0.001759 0.000647694 0.000792424)
(0.00161981 0.000943301 0.000792423)
(0.0014314 0.00121025 0.000792424)
(0.00119949 0.00144042 0.000792423)
(0.000931143 0.00162683 0.000792424)
(0.000634501 0.0017638 0.000792423)
(0.000318581 0.00184719 0.000792424)
(0.000126632 0.00235924 0.00098817)
(-0.000284969 0.00234538 0.00098817)
(-0.000687911 0.00226027 0.00098817)
(-0.00106995 0.00210647 0.00098817)
(-0.00141948 0.00188868 0.00098817)
(-0.00172588 0.00161349 0.00098817)
(-0.00197984 0.00128928 0.00098817)
(-0.00217365 0.000925901 0.00098817)
(-0.0023014 0.000534385 0.000988171)
(-0.00235924 0.000126631 0.00098817)
(-0.00234538 -0.000284969 0.00098817)
(-0.00226027 -0.000687911 0.00098817)
(-0.00210647 -0.00106995 0.00098817)
(-0.00188868 -0.00141948 0.00098817)
(-0.00161349 -0.00172588 0.00098817)
(-0.00128928 -0.00197984 0.00098817)
(-0.000925901 -0.00217365 0.00098817)
(-0.000534385 -0.0023014 0.00098817)
(-0.000126631 -0.00235924 0.00098817)
(0.000284969 -0.00234538 0.00098817)
(0.000687911 -0.00226027 0.00098817)
(0.00106995 -0.00210647 0.00098817)
(0.00141948 -0.00188868 0.00098817)
(0.00172588 -0.00161349 0.00098817)
(0.00197984 -0.00128928 0.00098817)
(0.00217365 -0.000925901 0.00098817)
(0.0023014 -0.000534385 0.000988171)
(0.00235924 -0.000126632 0.00098817)
(0.00234538 0.000284969 0.00098817)
(0.00226027 0.000687911 0.00098817)
(0.00210648 0.00106995 0.00098817)
(0.00188868 0.00141948 0.00098817)
(0.00161349 0.00172588 0.00098817)
(0.00128928 0.00197984 0.00098817)
(0.000925901 0.00217365 0.000988171)
(0.000534385 0.0023014 0.000988171)
(3.37072e-05 0.00226307 0.00101726)
(-0.000359784 0.00223454 0.00101726)
(-0.000742342 0.00213812 0.00101726)
(-0.00110234 0.00197673 0.00101726)
(-0.00142885 0.00175528 0.00101726)
(-0.00171195 0.0014805 0.00101726)
(-0.00194302 0.00116073 0.00101726)
(-0.00211506 0.000805691 0.00101726)
(-0.00222284 0.000426173 0.00101726)
(-0.00226307 3.3707e-05 0.00101726)
(-0.00223454 -0.000359784 0.00101726)
(-0.00213812 -0.000742342 0.00101726)
(-0.00197673 -0.00110234 0.00101726)
(-0.00175528 -0.00142885 0.00101726)
(-0.0014805 -0.00171195 0.00101726)
(-0.00116073 -0.00194302 0.00101726)
(-0.000805691 -0.00211506 0.00101726)
(-0.000426173 -0.00222284 0.00101726)
(-3.37069e-05 -0.00226307 0.00101726)
(0.000359784 -0.00223454 0.00101726)
(0.000742342 -0.00213812 0.00101726)
(0.00110234 -0.00197673 0.00101726)
(0.00142885 -0.00175528 0.00101726)
(0.00171195 -0.0014805 0.00101726)
(0.00194302 -0.00116073 0.00101726)
(0.00211506 -0.000805691 0.00101726)
(0.00222284 -0.000426173 0.00101726)
(0.00226307 -3.3707e-05 0.00101726)
(0.00223454 0.000359784 0.00101726)
(0.00213812 0.000742342 0.00101726)
(0.00197673 0.00110234 0.00101726)
(0.00175528 0.00142885 0.00101726)
(0.0014805 0.00171195 0.00101726)
(0.00116073 0.00194302 0.00101726)
(0.000805691 0.00211506 0.00101726)
(0.000426173 0.00222284 0.00101726)
(-6.66718e-05 0.0021629 0.0010402)
(-0.000441243 0.00211846 0.0010402)
(-0.000802407 0.00200966 0.0010402)
(-0.00113919 0.00183979 0.0010402)
(-0.00144136 0.00161402 0.0010402)
(-0.00169973 0.00133921 0.0010402)
(-0.00190646 0.00102371 0.0010402)
(-0.00205527 0.000677105 0.0010402)
(-0.00214162 0.000309925 0.0010402)
(-0.0021629 -6.6672e-05 0.0010402)
(-0.00211846 -0.000441243 0.0010402)
(-0.00200966 -0.000802407 0.0010402)
(-0.00183979 -0.00113919 0.0010402)
(-0.00161402 -0.00144136 0.0010402)
(-0.00133921 -0.00169973 0.0010402)
(-0.00102371 -0.00190646 0.0010402)
(-0.000677105 -0.00205527 0.0010402)
(-0.000309925 -0.00214162 0.0010402)
(6.66721e-05 -0.0021629 0.0010402)
(0.000441243 -0.00211846 0.0010402)
(0.000802407 -0.00200966 0.0010402)
(0.00113919 -0.00183979 0.0010402)
(0.00144136 -0.00161402 0.0010402)
(0.00169973 -0.00133921 0.0010402)
(0.00190646 -0.00102371 0.0010402)
(0.00205527 -0.000677105 0.0010402)
(0.00214162 -0.000309925 0.0010402)
(0.0021629 6.66719e-05 0.0010402)
(0.00211847 0.000441243 0.0010402)
(0.00200966 0.000802407 0.0010402)
(0.00183979 0.00113919 0.0010402)
(0.00161402 0.00144136 0.0010402)
(0.00133921 0.00169973 0.0010402)
(0.00102371 0.00190646 0.0010402)
(0.000677105 0.00205527 0.0010402)
(0.000309925 0.00214162 0.0010402)
(3.827e-05 0.00267069 0.00127078)
(-0.000426072 0.00263676 0.00127078)
(-0.000877468 0.00252272 0.00127078)
(-0.0013022 0.00233202 0.00127078)
(-0.00168737 0.00207047 0.00127078)
(-0.00202127 0.001746 0.00127078)
(-0.00229375 0.00136849 0.00127078)
(-0.00249654 0.000949391 0.00127078)
(-0.00262347 0.000501448 0.00127078)
(-0.00267069 3.82697e-05 0.00127078)
(-0.00263676 -0.000426072 0.00127078)
(-0.00252272 -0.000877468 0.00127078)
(-0.00233202 -0.0013022 0.00127078)
(-0.00207047 -0.00168737 0.00127078)
(-0.001746 -0.00202127 0.00127078)
(-0.00136849 -0.00229375 0.00127078)
(-0.00094939 -0.00249654 0.00127078)
(-0.000501448 -0.00262347 0.00127078)
(-3.82695e-05 -0.00267069 0.00127078)
(0.000426072 -0.00263676 0.00127078)
(0.000877468 -0.00252272 0.00127078)
(0.0013022 -0.00233202 0.00127078)
(0.00168737 -0.00207047 0.00127078)
(0.00202127 -0.001746 0.00127078)
(0.00229375 -0.00136849 0.00127078)
(0.00249654 -0.000949391 0.00127078)
(0.00262347 -0.000501448 0.00127078)
(0.00267069 -3.82698e-05 0.00127078)
(0.00263676 0.000426072 0.00127078)
(0.00252272 0.000877468 0.00127078)
(0.00233202 0.0013022 0.00127078)
(0.00207047 0.00168737 0.00127078)
(0.001746 0.00202127 0.00127078)
(0.00136849 0.00229375 0.00127078)
(0.000949391 0.00249654 0.00127078)
(0.000501448 0.00262347 0.00127078)
(-4.86976e-05 0.00252884 0.00128838)
(-0.000487087 0.00248197 0.00128838)
(-0.000910676 0.00235968 0.00128838)
(-0.0013066 0.00216569 0.00128838)
(-0.00166281 0.0019059 0.00128838)
(-0.00196851 0.00158821 0.00128838)
(-0.00221439 0.00122225 0.00128838)
(-0.00239299 0.000819155 0.00128838)
(-0.00249888 0.00039117 0.00128838)
(-0.00252884 -4.86978e-05 0.00128838)
(-0.00248197 -0.000487087 0.00128838)
(-0.00235968 -0.000910677 0.00128838)
(-0.00216569 -0.0013066 0.00128838)
(-0.0019059 -0.00166281 0.00128838)
(-0.00158821 -0.00196851 0.00128838)
(-0.00122225 -0.00221439 0.00128838)
(-0.000819155 -0.00239299 0.00128838)
(-0.00039117 -0.00249888 0.00128838)
(4.8698e-05 -0.00252884 0.00128838)
(0.000487088 -0.00248197 0.00128838)
(0.000910677 -0.00235968 0.00128838)
(0.0013066 -0.00216569 0.00128838)
(0.00166281 -0.0019059 0.00128838)
(0.00196851 -0.00158821 0.00128838)
(0.00221439 -0.00122225 0.00128838)
(0.00239299 -0.000819155 0.00128838)
(0.00249888 -0.00039117 0.00128838)
(0.00252884 4.86977e-05 0.00128838)
(0.00248197 0.000487087 0.00128838)
(0.00235968 0.000910676 0.00128838)
(0.00216569 0.0013066 0.00128838)
(0.0019059 0.00166281 0.00128838)
(0.00158821 0.00196851 0.00128838)
(0.00122225 0.00221439 0.00128838)
(0.000819155 0.00239299 0.00128838)
(0.000391171 0.00249888 0.00128838)
(-0.000141354 0.00238483 0.00129957)
(-0.000553328 0.00232406 0.00129957)
(-0.00094849 0.00219266 0.00129957)
(-0.00131483 0.00199465 0.00129957)
(-0.00164122 0.00173603 0.00129957)
(-0.00191775 0.00142466 0.00129957)
(-0.002136 0.00107 0.00129957)
(-0.00228935 0.000682832 0.00129957)
(-0.00237315 0.000274916 0.00129957)
(-0.00238483 -0.000141354 0.00129957)
(-0.00232406 -0.000553328 0.00129957)
(-0.00219266 -0.00094849 0.00129957)
(-0.00199465 -0.00131483 0.00129957)
(-0.00173603 -0.00164122 0.00129957)
(-0.00142466 -0.00191775 0.00129957)
(-0.00107 -0.002136 0.00129957)
(-0.000682832 -0.00228936 0.00129957)
(-0.000274916 -0.00237315 0.00129957)
(0.000141354 -0.00238483 0.00129957)
(0.000553329 -0.00232406 0.00129957)
(0.00094849 -0.00219266 0.00129957)
(0.00131483 -0.00199465 0.00129957)
(0.00164122 -0.00173603 0.00129957)
(0.00191775 -0.00142466 0.00129957)
(0.002136 -0.00107 0.00129957)
(0.00228936 -0.000682832 0.00129957)
(0.00237315 -0.000274916 0.00129957)
(0.00238483 0.000141354 0.00129957)
(0.00232406 0.000553328 0.00129957)
(0.00219266 0.00094849 0.00129957)
(0.00199465 0.00131483 0.00129957)
(0.00173603 0.00164122 0.00129957)
(0.00142466 0.00191775 0.00129957)
(0.00107 0.002136 0.00129957)
(0.000682832 0.00228936 0.00129957)
(0.000274916 0.00237315 0.00129957)
(-6.20392e-05 0.00291335 0.00157381)
(-0.000566994 0.00285832 0.0015738)
(-0.00105472 0.00271643 0.0015738)
(-0.0015104 0.00249202 0.0015738)
(-0.00192019 0.00219188 0.0015738)
(-0.00227163 0.00182514 0.0015738)
(-0.00255405 0.00140295 0.0015738)
(-0.00275887 0.000938125 0.0015738)
(-0.00287986 0.0004448 0.00157381)
(-0.00291335 -6.20394e-05 0.00157381)
(-0.00285832 -0.000566995 0.0015738)
(-0.00271643 -0.00105472 0.0015738)
(-0.00249201 -0.0015104 0.0015738)
(-0.00219188 -0.00192019 0.0015738)
(-0.00182514 -0.00227163 0.0015738)
(-0.00140295 -0.00255405 0.0015738)
(-0.000938125 -0.00275887 0.0015738)
(-0.000444799 -0.00287986 0.00157381)
(6.20396e-05 -0.00291335 0.00157381)
(0.000566995 -0.00285832 0.0015738)
(0.00105472 -0.00271643 0.0015738)
(0.0015104 -0.00249202 0.0015738)
(0.00192019 -0.00219188 0.0015738)
(0.00227163 -0.00182514 0.0015738)