/*--------------------------------*- C++ -*----------------------------------*\
| =========                 |                                                 |
| \\      /  F ield         | OpenFOAM: The Open Source CFD Toolbox           |
|  \\    /   O peration     | Version:  2312                                  |
|   \\  /    A nd           | Website:  www.openfoam.com                      |
|    \\/     M anipulation  |                                                 |
\*---------------------------------------------------------------------------*/
FoamFile
{
    version     2.0;
    format      ascii;
    arch        "LSB;label=32;scalar=64";
    class       pointVectorField;
    location    "0.3";
    object      pointD;
}
// * * * * * * * * * * * * * * * * * * * * * * * * * * * * * * * * * * * * * //

dimensions      [0 1 0 0 0 0 0];

internalField   nonuniform List<vector> 
2164
(
(0 0 0)
(0 0 0)
(0 0 0)
(0 0 0)
(0 0 0)
(0 0 0)
(0 0 0)
(0 0 0)
(0 0 0)
(0 0 0)
(0 0 0)
(0 0 0)
(0 0 0)
(0 0 0)
(0 0 0)
(0 0 0)
(0 0 0)
(0 0 0)
(0 0 0)
(0 0 0)
(0 0 0)
(0 0 0)
(0 0 0)
(0 0 0)
(0 0 0)
(0 0 0)
(0 0 0)
(0 0 0)
(0 0 0)
(0 0 0)
(0 0 0)
(0 0 0)
(0 0 0)
(0 0 0)
(0 0 0)
(0 0 0)
(0.000109607 0.000465243 4.65503e-05)
(2.71529e-05 0.000477208 4.65504e-05)
(-5.61258e-05 0.000474673 4.65508e-05)
(-0.000137699 0.000457716 4.65511e-05)
(-0.000215088 0.000426852 4.6551e-05)
(-0.000285943 0.000383017 4.65511e-05)
(-0.000348109 0.000327544 4.6551e-05)
(-0.000399698 0.00026212 4.65506e-05)
(-0.000439142 0.00018873 4.65505e-05)
(-0.000465243 0.000109607 4.65503e-05)
(-0.000477208 2.71529e-05 4.65504e-05)
(-0.000474673 -5.61258e-05 4.65508e-05)
(-0.000457716 -0.000137699 4.65511e-05)
(-0.000426852 -0.000215088 4.6551e-05)
(-0.000383017 -0.000285943 4.6551e-05)
(-0.000327544 -0.000348109 4.6551e-05)
(-0.00026212 -0.000399698 4.65506e-05)
(-0.00018873 -0.000439142 4.65505e-05)
(-0.000109607 -0.000465243 4.65503e-05)
(-2.71529e-05 -0.000477208 4.65504e-05)
(5.61258e-05 -0.000474673 4.65508e-05)
(0.000137699 -0.000457716 4.65511e-05)
(0.000215088 -0.000426852 4.6551e-05)
(0.000285943 -0.000383017 4.6551e-05)
(0.000348109 -0.000327544 4.6551e-05)
(0.000399698 -0.00026212 4.65506e-05)
(0.000439142 -0.00018873 4.65505e-05)
(0.000465243 -0.000109607 4.65503e-05)
(0.000477208 -2.71529e-05 4.65504e-05)
(0.000474673 5.61258e-05 4.65508e-05)
(0.000457716 0.000137699 4.65511e-05)
(0.000426852 0.000215088 4.6551e-05)
(0.000383017 0.000285943 4.65511e-05)
(0.000327544 0.000348109 4.6551e-05)
(0.00026212 0.000399698 4.65506e-05)
(0.00018873 0.000439142 4.65505e-05)
(6.02841e-05 0.000475912 7.12673e-05)
(-2.32728e-05 0.00047915 7.12673e-05)
(-0.000106122 0.00046783 7.12676e-05)
(-0.000185748 0.000442294 7.12679e-05)
(-0.00025973 0.00040332 7.12678e-05)
(-0.00032582 0.000352091 7.12677e-05)
(-0.00038201 0.000290164 7.12676e-05)
(-0.000426593 0.00021942 7.12675e-05)
(-0.000458214 0.00014201 7.12673e-05)
(-0.000475912 6.02841e-05 7.12673e-05)
(-0.00047915 -2.32729e-05 7.12673e-05)
(-0.00046783 -0.000106122 7.12676e-05)
(-0.000442294 -0.000185748 7.12678e-05)
(-0.00040332 -0.00025973 7.12678e-05)
(-0.000352091 -0.00032582 7.12677e-05)
(-0.000290164 -0.00038201 7.12676e-05)
(-0.00021942 -0.000426593 7.12674e-05)
(-0.00014201 -0.000458214 7.12673e-05)
(-6.02841e-05 -0.000475912 7.12673e-05)
(2.32729e-05 -0.00047915 7.12673e-05)
(0.000106122 -0.00046783 7.12676e-05)
(0.000185748 -0.000442294 7.12678e-05)
(0.00025973 -0.00040332 7.12678e-05)
(0.00032582 -0.000352091 7.12677e-05)
(0.00038201 -0.000290164 7.12676e-05)
(0.000426593 -0.00021942 7.12675e-05)
(0.000458214 -0.00014201 7.12673e-05)
(0.000475912 -6.02841e-05 7.12673e-05)
(0.00047915 2.32729e-05 7.12673e-05)
(0.00046783 0.000106122 7.12676e-05)
(0.000442295 0.000185748 7.12679e-05)
(0.00040332 0.00025973 7.12678e-05)
(0.000352091 0.00032582 7.12677e-05)
(0.000290164 0.00038201 7.12676e-05)
(0.00021942 0.000426593 7.12675e-05)
(0.00014201 0.000458214 7.12673e-05)
(0 0 0)
(0 0 0)
(0 0 0)
(0 0 0)
(0 0 0)
(0 0 0)
(0 0 0)
(0 0 0)
(0 0 0)
(0 0 0)
(0 0 0)
(0 0 0)
(0 0 0)
(0 0 0)
(0 0 0)
(0 0 0)
(0 0 0)
(0 0 0)
(0 0 0)
(0 0 0)
(0 0 0)
(0 0 0)
(0 0 0)
(0 0 0)
(0 0 0)
(0 0 0)
(0 0 0)
(0 0 0)
(0 0 0)
(0 0 0)
(0 0 0)
(0 0 0)
(0 0 0)
(0 0 0)
(0 0 0)
(0 0 0)
(2.46076e-06 0.000484871 8.88803e-05)
(-8.17732e-05 0.000477932 8.88803e-05)
(-0.000163523 0.000456471 8.88805e-05)
(-0.000240304 0.000421141 8.88804e-05)
(-0.000309783 0.000373015 8.88805e-05)
(-0.000369851 0.000313554 8.88805e-05)
(-0.00041868 0.000244567 8.88803e-05)
(-0.000454788 0.000168148 8.88803e-05)
(-0.000477077 8.66206e-05 8.88802e-05)
(-0.000484871 2.46072e-06 8.88803e-05)
(-0.000477932 -8.17733e-05 8.88803e-05)
(-0.000456471 -0.000163523 8.88805e-05)
(-0.000421141 -0.000240304 8.88804e-05)
(-0.000373015 -0.000309784 8.88805e-05)
(-0.000313554 -0.000369851 8.88805e-05)
(-0.000244567 -0.00041868 8.88802e-05)
(-0.000168148 -0.000454788 8.88802e-05)
(-8.66205e-05 -0.000477077 8.88802e-05)
(-2.4607e-06 -0.000484871 8.88803e-05)
(8.17733e-05 -0.000477932 8.88803e-05)
(0.000163523 -0.000456471 8.88805e-05)
(0.000240304 -0.000421141 8.88804e-05)
(0.000309784 -0.000373015 8.88805e-05)
(0.000369851 -0.000313554 8.88805e-05)
(0.00041868 -0.000244567 8.88803e-05)
(0.000454788 -0.000168148 8.88803e-05)
(0.000477077 -8.66206e-05 8.88802e-05)
(0.000484871 -2.46073e-06 8.88803e-05)
(0.000477932 8.17733e-05 8.88803e-05)
(0.000456471 0.000163523 8.88805e-05)
(0.000421141 0.000240304 8.88805e-05)
(0.000373015 0.000309784 8.88805e-05)
(0.000313554 0.000369851 8.88805e-05)
(0.000244567 0.00041868 8.88803e-05)
(0.000168148 0.000454788 8.88803e-05)
(8.66206e-05 0.000477077 8.88802e-05)
(0 0 0)
(0 0 0)
(0 0 0)
(0 0 0)
(0 0 0)
(0 0 0)
(0 0 0)
(0 0 0)
(0 0 0)
(0 0 0)
(0 0 0)
(0 0 0)
(0 0 0)
(0 0 0)
(0 0 0)
(0 0 0)
(0 0 0)
(0 0 0)
(0 0 0)
(0 0 0)
(0 0 0)
(0 0 0)
(0 0 0)
(0 0 0)
(0 0 0)
(0 0 0)
(0 0 0)
(0 0 0)
(0 0 0)
(0 0 0)
(0 0 0)
(0 0 0)
(0 0 0)
(0 0 0)
(0 0 0)
(0 0 0)
(-6.28547e-05 0.00048928 9.86084e-05)
(-0.000146862 0.000470933 9.86084e-05)
(-0.000226408 0.000438276 9.86084e-05)
(-0.000299074 0.000392302 9.86084e-05)
(-0.000362653 0.000334408 9.86084e-05)
(-0.000415213 0.000266353 9.86084e-05)
(-0.000455156 0.000190206 9.86082e-05)
(-0.000481271 0.000108279 9.86082e-05)
(-0.000492762 2.3063e-05 9.86082e-05)
(-0.00048928 -6.28547e-05 9.86084e-05)
(-0.000470933 -0.000146862 9.86084e-05)
(-0.000438276 -0.000226408 9.86084e-05)
(-0.000392302 -0.000299074 9.86084e-05)
(-0.000334408 -0.000362653 9.86084e-05)
(-0.000266353 -0.000415213 9.86084e-05)
(-0.000190206 -0.000455156 9.86082e-05)
(-0.000108279 -0.000481271 9.86082e-05)
(-2.3063e-05 -0.000492762 9.86082e-05)
(6.28548e-05 -0.00048928 9.86084e-05)
(0.000146862 -0.000470933 9.86084e-05)
(0.000226408 -0.000438276 9.86084e-05)
(0.000299074 -0.000392302 9.86084e-05)
(0.000362653 -0.000334408 9.86084e-05)
(0.000415213 -0.000266353 9.86084e-05)
(0.000455156 -0.000190206 9.86082e-05)
(0.000481271 -0.000108279 9.86082e-05)
(0.000492762 -2.3063e-05 9.86082e-05)
(0.000489281 6.28547e-05 9.86084e-05)
(0.000470933 0.000146862 9.86084e-05)
(0.000438276 0.000226408 9.86084e-05)
(0.000392302 0.000299074 9.86084e-05)
(0.000334408 0.000362653 9.86085e-05)
(0.000266353 0.000415213 9.86084e-05)
(0.000190206 0.000455156 9.86082e-05)
(0.000108279 0.000481271 9.86082e-05)
(2.30631e-05 0.000492762 9.86083e-05)
(0 0 0)
(0 0 0)
(0 0 0)
(0 0 0)
(0 0 0)
(0 0 0)
(0 0 0)
(0 0 0)
(0 0 0)
(0 0 0)
(0 0 0)
(0 0 0)
(0 0 0)
(0 0 0)
(0 0 0)
(0 0 0)
(0 0 0)
(0 0 0)
(0 0 0)
(0 0 0)
(0 0 0)
(0 0 0)
(0 0 0)
(0 0 0)
(0 0 0)
(0 0 0)
(0 0 0)
(0 0 0)
(0 0 0)
(0 0 0)
(0 0 0)
(0 0 0)
(0 0 0)
(0 0 0)
(0 0 0)
(0 0 0)
(0.000148555 0.000944397 0.000171113)
(-1.76945e-05 0.000955846 0.000171113)
(-0.000183407 0.000938252 0.000171114)
(-0.000343545 0.00089215 0.000171115)
(-0.000493246 0.00081894 0.000171115)
(-0.00062796 0.000720847 0.000171115)
(-0.000743594 0.000600851 0.000171114)
(-0.000836634 0.000462599 0.000171114)
(-0.000904253 0.000310291 0.000171113)
(-0.000944397 0.000148555 0.000171113)
(-0.000955846 -1.76946e-05 0.000171113)
(-0.000938252 -0.000183407 0.000171114)
(-0.000892149 -0.000343546 0.000171115)
(-0.00081894 -0.000493246 0.000171115)
(-0.000720847 -0.00062796 0.000171115)
(-0.000600851 -0.000743594 0.000171114)
(-0.000462599 -0.000836634 0.000171114)
(-0.00031029 -0.000904253 0.000171113)
(-0.000148555 -0.000944397 0.000171113)
(1.76946e-05 -0.000955846 0.000171113)
(0.000183407 -0.000938252 0.000171114)
(0.000343546 -0.00089215 0.000171115)
(0.000493246 -0.00081894 0.000171115)
(0.00062796 -0.000720847 0.000171115)
(0.000743594 -0.000600851 0.000171114)
(0.000836634 -0.000462599 0.000171114)
(0.000904253 -0.000310291 0.000171113)
(0.000944397 -0.000148555 0.000171113)
(0.000955846 1.76945e-05 0.000171113)
(0.000938252 0.000183407 0.000171114)
(0.00089215 0.000343546 0.000171115)
(0.00081894 0.000493246 0.000171115)
(0.000720847 0.00062796 0.000171115)
(0.000600852 0.000743594 0.000171114)
(0.000462599 0.000836634 0.000171114)
(0.000310291 0.000904253 0.000171113)
(7.90946e-05 0.000948202 0.000206763)
(-8.67611e-05 0.000947531 0.000206763)
(-0.000249979 0.000918071 0.000206763)
(-0.000405603 0.000860714 0.000206764)
(-0.000548902 0.000777206 0.000206764)
(-0.000675523 0.000670083 0.000206763)
(-0.00078162 0.000542598 0.000206763)
(-0.000863966 0.000398628 0.000206763)
(-0.000920062 0.000242546 0.000206763)
(-0.000948202 7.90945e-05 0.000206763)
(-0.000947531 -8.67612e-05 0.000206763)
(-0.000918071 -0.000249979 0.000206763)
(-0.000860714 -0.000405603 0.000206764)
(-0.000777206 -0.000548902 0.000206764)
(-0.000670083 -0.000675523 0.000206763)
(-0.000542598 -0.00078162 0.000206763)
(-0.000398628 -0.000863967 0.000206763)
(-0.000242546 -0.000920062 0.000206763)
(-7.90945e-05 -0.000948202 0.000206763)
(8.67612e-05 -0.000947531 0.000206763)
(0.000249979 -0.000918071 0.000206763)
(0.000405603 -0.000860714 0.000206764)
(0.000548902 -0.000777206 0.000206764)
(0.000675523 -0.000670083 0.000206763)
(0.00078162 -0.000542598 0.000206763)
(0.000863967 -0.000398628 0.000206763)
(0.000920062 -0.000242546 0.000206763)
(0.000948202 -7.90945e-05 0.000206763)
(0.000947531 8.67611e-05 0.000206763)
(0.000918071 0.000249979 0.000206763)
(0.000860714 0.000405603 0.000206764)
(0.000777206 0.000548902 0.000206764)
(0.000670083 0.000675523 0.000206763)
(0.000542599 0.00078162 0.000206763)
(0.000398628 0.000863966 0.000206763)
(0.000242546 0.000920062 0.000206763)
(4.91052e-07 0.000949614 0.000238382)
(-0.000164414 0.000935273 0.000238382)
(-0.000324325 0.000892514 0.000238382)
(-0.000474381 0.000822636 0.000238382)
(-0.000610024 0.000727763 0.000238382)
(-0.000727131 0.000610776 0.000238382)
(-0.000822144 0.000475232 0.000238382)
(-0.000892177 0.000325249 0.000238382)
(-0.000935102 0.000165383 0.000238382)
(-0.000949614 4.90983e-07 0.000238382)
(-0.000935273 -0.000164414 0.000238382)
(-0.000892514 -0.000324325 0.000238382)
(-0.000822636 -0.000474381 0.000238382)
(-0.000727762 -0.000610024 0.000238382)
(-0.000610776 -0.000727131 0.000238382)
(-0.000475232 -0.000822144 0.000238382)
(-0.000325249 -0.000892177 0.000238382)
(-0.000165383 -0.000935102 0.000238382)
(-4.90939e-07 -0.000949614 0.000238382)
(0.000164414 -0.000935273 0.000238382)
(0.000324325 -0.000892514 0.000238382)
(0.000474381 -0.000822636 0.000238382)
(0.000610024 -0.000727763 0.000238382)
(0.000727131 -0.000610776 0.000238382)
(0.000822144 -0.000475232 0.000238382)
(0.000892177 -0.000325249 0.000238382)
(0.000935102 -0.000165383 0.000238382)
(0.000949614 -4.90995e-07 0.000238382)
(0.000935273 0.000164414 0.000238382)
(0.000892514 0.000324325 0.000238382)
(0.000822636 0.000474381 0.000238382)
(0.000727763 0.000610024 0.000238382)
(0.000610777 0.000727131 0.000238382)
(0.000475232 0.000822144 0.000238382)
(0.000325249 0.000892177 0.000238382)
(0.000165383 0.000935102 0.000238382)
(-8.46171e-05 0.000943654 0.000264438)
(-0.000247195 0.000914625 0.000264438)
(-0.000402262 0.000857805 0.000264438)
(-0.000545106 0.000774921 0.000264438)
(-0.000671389 0.000668491 0.000264438)
(-0.000777271 0.00054175 0.000264438)
(-0.000859536 0.000398547 0.000264438)
(-0.000915685 0.000243235 0.000264438)
(-0.000944011 8.05331e-05 0.000264438)
(-0.000943654 -8.46171e-05 0.000264438)
(-0.000914625 -0.000247195 0.000264438)
(-0.000857805 -0.000402262 0.000264438)
(-0.000774921 -0.000545106 0.000264438)
(-0.000668491 -0.000671389 0.000264438)
(-0.00054175 -0.000777271 0.000264438)
(-0.000398547 -0.000859536 0.000264438)
(-0.000243235 -0.000915685 0.000264438)
(-8.05331e-05 -0.000944011 0.000264438)
(8.46172e-05 -0.000943654 0.000264438)
(0.000247195 -0.000914625 0.000264438)
(0.000402262 -0.000857805 0.000264438)
(0.000545106 -0.000774921 0.000264438)
(0.000671389 -0.000668491 0.000264438)
(0.000777271 -0.00054175 0.000264438)
(0.000859536 -0.000398547 0.000264438)
(0.000915685 -0.000243235 0.000264438)
(0.000944011 -8.05331e-05 0.000264438)
(0.000943654 8.46171e-05 0.000264438)
(0.000914625 0.000247195 0.000264438)
(0.000857805 0.000402262 0.000264438)
(0.000774921 0.000545106 0.000264438)
(0.000668491 0.000671389 0.000264438)
(0.00054175 0.000777271 0.000264438)
(0.000398547 0.000859536 0.000264438)
(0.000243235 0.000915685 0.000264438)
(8.05332e-05 0.000944011 0.000264438)
(0.000149358 0.00141488 0.000361376)
(-9.86031e-05 0.00141933 0.000361376)
(-0.000343569 0.00138064 0.000361376)
(-0.000578094 0.0013 0.000361377)
(-0.000795055 0.00117987 0.000361377)
(-0.000987858 0.00102389 0.000361377)
(-0.00115065 0.00083679 0.000361377)
(-0.00127847 0.000624269 0.000361376)
(-0.00136745 0.000392781 0.000361376)
(-0.00141488 0.000149358 0.000361376)
(-0.00141933 -9.86032e-05 0.000361376)
(-0.00138064 -0.000343569 0.000361376)
(-0.0013 -0.000578094 0.000361377)
(-0.00117987 -0.000795055 0.000361377)
(-0.00102389 -0.000987858 0.000361377)
(-0.00083679 -0.00115065 0.000361377)
(-0.000624269 -0.00127847 0.000361376)
(-0.000392781 -0.00136745 0.000361376)
(-0.000149358 -0.00141488 0.000361376)
(9.86033e-05 -0.00141933 0.000361376)
(0.000343569 -0.00138064 0.000361376)
(0.000578094 -0.0013 0.000361377)
(0.000795055 -0.00117987 0.000361377)
(0.000987858 -0.00102389 0.000361377)
(0.00115065 -0.00083679 0.000361377)
(0.00127847 -0.000624269 0.000361376)
(0.00136745 -0.000392781 0.000361376)
(0.00141488 -0.000149358 0.000361376)
(0.00141933 9.86031e-05 0.000361376)
(0.00138064 0.000343569 0.000361376)
(0.0013 0.000578094 0.000361377)
(0.00117987 0.000795055 0.000361377)
(0.00102389 0.000987858 0.000361377)
(0.00083679 0.00115065 0.000361377)
(0.000624269 0.00127847 0.000361376)
(0.000392781 0.00136745 0.000361376)
(6.39325e-05 0.00140002 0.000402719)
(-0.00018015 0.00138985 0.000402719)
(-0.000418758 0.00133746 0.000402719)
(-0.000644643 0.00124442 0.00040272)
(-0.00085094 0.00111357 0.00040272)
(-0.00103138 0.000948892 0.00040272)
(-0.00118049 0.000755378 0.00040272)
(-0.00129372 0.000538913 0.00040272)
(-0.00136765 0.000306072 0.000402719)
(-0.00140002 6.39324e-05 0.000402719)
(-0.00138985 -0.00018015 0.000402719)
(-0.00133746 -0.000418758 0.000402719)
(-0.00124442 -0.000644643 0.00040272)
(-0.00111357 -0.00085094 0.00040272)
(-0.000948892 -0.00103138 0.00040272)
(-0.000755378 -0.00118049 0.00040272)
(-0.000538912 -0.00129372 0.000402719)
(-0.000306072 -0.00136765 0.000402719)
(-6.39323e-05 -0.00140002 0.000402719)
(0.00018015 -0.00138985 0.000402719)
(0.000418758 -0.00133746 0.000402719)
(0.000644643 -0.00124442 0.00040272)
(0.00085094 -0.00111357 0.00040272)
(0.00103138 -0.000948892 0.00040272)
(0.00118049 -0.000755378 0.00040272)
(0.00129372 -0.000538913 0.00040272)
(0.00136765 -0.000306072 0.000402719)
(0.00140002 -6.39324e-05 0.000402719)
(0.00138985 0.00018015 0.000402719)
(0.00133746 0.000418758 0.000402719)
(0.00124442 0.000644643 0.00040272)
(0.00111357 0.00085094 0.00040272)
(0.000948892 0.00103138 0.00040272)
(0.000755378 0.00118049 0.00040272)
(0.000538913 0.00129372 0.00040272)
(0.000306072 0.00136765 0.000402719)
(-2.9904e-05 0.00138276 0.000440307)
(-0.000269564 0.00135656 0.000440307)
(-0.000501033 0.00128914 0.000440307)
(-0.000717278 0.00118256 0.000440307)
(-0.00091173 0.00104004 0.000440307)
(-0.00107848 0.000865914 0.000440307)
(-0.00121246 0.000665484 0.000440307)
(-0.0013096 0.000444831 0.000440307)
(-0.00136695 0.000210664 0.000440307)
(-0.00138276 -2.99041e-05 0.000440307)
(-0.00135656 -0.000269564 0.000440307)
(-0.00128914 -0.000501033 0.000440307)
(-0.00118256 -0.000717278 0.000440307)
(-0.00104004 -0.00091173 0.000440307)
(-0.000865914 -0.00107848 0.000440307)
(-0.000665483 -0.00121246 0.000440307)
(-0.000444831 -0.0013096 0.000440307)
(-0.000210664 -0.00136695 0.000440307)
(2.99042e-05 -0.00138276 0.000440307)
(0.000269564 -0.00135656 0.000440307)
(0.000501033 -0.00128914 0.000440307)
(0.000717278 -0.00118256 0.000440307)
(0.00091173 -0.00104004 0.000440307)
(0.00107848 -0.000865914 0.000440307)
(0.00121246 -0.000665484 0.000440307)
(0.0013096 -0.000444831 0.000440307)
(0.00136695 -0.000210664 0.000440307)
(0.00138276 2.99041e-05 0.000440307)
(0.00135656 0.000269564 0.000440307)
(0.00128914 0.000501033 0.000440307)
(0.00118256 0.000717278 0.000440307)
(0.00104004 0.00091173 0.000440307)
(0.000865914 0.00107848 0.000440307)
(0.000665484 0.00121246 0.000440307)
(0.000444831 0.0013096 0.000440307)
(0.000210664 0.00136695 0.000440307)
(-0.00012826 0.00135706 0.000472725)
(-0.000361961 0.00131417 0.000472725)
(-0.000584666 0.00123135 0.000472725)
(-0.000789605 0.00111112 0.000472725)
(-0.000970552 0.000957123 0.000472725)
(-0.00112201 0.000774047 0.000472725)
(-0.00123938 0.000567453 0.000472725)
(-0.00131908 0.000343617 0.000472725)
(-0.00135871 0.000109339 0.000472725)
(-0.00135706 -0.00012826 0.000472725)
(-0.00131417 -0.000361961 0.000472725)
(-0.00123135 -0.000584666 0.000472725)
(-0.00111112 -0.000789605 0.000472725)
(-0.000957123 -0.000970552 0.000472725)
(-0.000774047 -0.00112201 0.000472725)
(-0.000567453 -0.00123938 0.000472725)
(-0.000343617 -0.00131908 0.000472725)
(-0.000109339 -0.00135871 0.000472725)
(0.00012826 -0.00135706 0.000472725)
(0.000361961 -0.00131417 0.000472725)
(0.000584666 -0.00123135 0.000472725)
(0.000789605 -0.00111112 0.000472725)
(0.000970552 -0.000957123 0.000472725)
(0.00112201 -0.000774047 0.000472725)
(0.00123938 -0.000567453 0.000472725)
(0.00131908 -0.000343617 0.000472725)
(0.00135871 -0.000109339 0.000472725)
(0.00135706 0.00012826 0.000472725)
(0.00131417 0.000361961 0.000472725)
(0.00123135 0.000584666 0.000472725)
(0.00111112 0.000789605 0.000472725)
(0.000957123 0.000970552 0.000472725)
(0.000774047 0.00112201 0.000472725)
(0.000567453 0.00123938 0.000472725)
(0.000343617 0.00131908 0.000472725)
(0.000109339 0.00135871 0.000472725)
(0.000102781 0.0018631 0.000590675)
(-0.000222306 0.00185264 0.000590675)
(-0.000540637 0.0017859 0.000590675)
(-0.000842539 0.00166488 0.000590676)
(-0.00111884 0.00149328 0.000590676)
(-0.00136115 0.00127631 0.000590676)
(-0.0015621 0.00102056 0.000590676)
(-0.00171559 0.0007338 0.000590676)
(-0.00181695 0.000424743 0.000590675)
(-0.0018631 0.000102781 0.000590675)
(-0.00185264 -0.000222306 0.000590675)
(-0.0017859 -0.000540637 0.000590675)
(-0.00166488 -0.000842539 0.000590676)
(-0.00149328 -0.00111884 0.000590676)
(-0.00127631 -0.00136115 0.000590676)
(-0.00102056 -0.0015621 0.000590676)
(-0.0007338 -0.00171559 0.000590675)
(-0.000424743 -0.00181695 0.000590675)
(-0.000102781 -0.0018631 0.000590675)
(0.000222307 -0.00185264 0.000590675)
(0.000540637 -0.0017859 0.000590675)
(0.000842539 -0.00166488 0.000590676)
(0.00111884 -0.00149328 0.000590676)
(0.00136115 -0.00127631 0.000590676)
(0.0015621 -0.00102056 0.000590676)
(0.00171559 -0.0007338 0.000590676)
(0.00181695 -0.000424743 0.000590675)
(0.0018631 -0.000102781 0.000590675)
(0.00185264 0.000222306 0.000590675)
(0.0017859 0.000540637 0.000590675)
(0.00166488 0.000842539 0.000590676)
(0.00149328 0.00111884 0.000590676)
(0.00127631 0.00136115 0.000590676)
(0.00102056 0.0015621 0.000590676)
(0.0007338 0.00171559 0.000590676)
(0.000424743 0.00181695 0.000590675)
(1.10779e-05 0.00181914 0.000632066)
(-0.000304981 0.00179343 0.000632066)
(-0.000611772 0.00171322 0.000632066)
(-0.000899975 0.00158096 0.000632066)
(-0.00116083 0.00140066 0.000632067)
(-0.00138642 0.00117781 0.000632067)
(-0.00156988 0.000919164 0.000632067)
(-0.00170564 0.000632592 0.000632067)
(-0.00178958 0.0003268 0.000632066)
(-0.00181914 1.10778e-05 0.000632066)
(-0.00179343 -0.000304981 0.000632066)
(-0.00171322 -0.000611772 0.000632066)
(-0.00158096 -0.000899975 0.000632066)
(-0.00140066 -0.00116083 0.000632067)
(-0.00117781 -0.00138642 0.000632067)
(-0.000919164 -0.00156988 0.000632067)
(-0.000632592 -0.00170564 0.000632067)
(-0.0003268 -0.00178958 0.000632066)
(-1.10777e-05 -0.00181914 0.000632066)
(0.000304981 -0.00179343 0.000632066)
(0.000611773 -0.00171322 0.000632066)
(0.000899975 -0.00158096 0.000632066)
(0.00116083 -0.00140066 0.000632067)
(0.00138642 -0.00117781 0.000632067)
(0.00156988 -0.000919164 0.000632067)
(0.00170564 -0.000632592 0.000632067)
(0.00178958 -0.0003268 0.000632066)
(0.00181914 -1.10778e-05 0.000632066)
(0.00179343 0.000304981 0.000632066)
(0.00171322 0.000611772 0.000632067)
(0.00158096 0.000899975 0.000632066)
(0.00140066 0.00116083 0.000632067)
(0.00117781 0.00138642 0.000632067)
(0.000919165 0.00156988 0.000632067)
(0.000632592 0.00170564 0.000632067)
(0.0003268 0.00178958 0.000632066)
(-8.78619e-05 0.00177332 0.000669611)
(-0.00039446 0.00173112 0.000669611)
(-0.000689074 0.00163632 0.000669611)
(-0.000962749 0.00149181 0.000669611)
(-0.00120717 0.00130196 0.000669611)
(-0.00141491 0.00107256 0.000669611)
(-0.00157967 0.000810568 0.000669611)
(-0.00169642 0.000523948 0.000669611)
(-0.00176163 0.000221406 0.000669611)
(-0.00177332 -8.7862e-05 0.000669611)
(-0.00173112 -0.00039446 0.000669611)
(-0.00163632 -0.000689074 0.000669611)
(-0.00149181 -0.000962749 0.000669611)
(-0.00130196 -0.00120717 0.000669611)
(-0.00107256 -0.00141491 0.000669611)
(-0.000810568 -0.00157967 0.000669611)
(-0.000523948 -0.00169642 0.000669611)
(-0.000221406 -0.00176163 0.000669611)
(8.78621e-05 -0.00177332 0.000669611)
(0.00039446 -0.00173112 0.000669611)
(0.000689074 -0.00163632 0.000669611)
(0.00096275 -0.00149181 0.000669611)
(0.00120717 -0.00130196 0.000669611)
(0.00141492 -0.00107256 0.000669611)
(0.00157967 -0.000810568 0.000669611)
(0.00169642 -0.000523948 0.000669611)
(0.00176163 -0.000221406 0.000669611)
(0.00177332 8.7862e-05 0.000669611)
(0.00173112 0.00039446 0.000669611)
(0.00163632 0.000689074 0.000669611)
(0.00149181 0.000962749 0.000669611)
(0.00130196 0.00120717 0.000669611)
(0.00107256 0.00141491 0.000669611)
(0.000810569 0.00157967 0.000669611)
(0.000523948 0.00169642 0.000669611)
(0.000221406 0.00176163 0.000669611)
(-0.000190132 0.00171893 0.000701983)
(-0.000485733 0.0016598 0.000701983)
(-0.000766574 0.00155024 0.000701983)
(-0.00102413 0.00139357 0.000701983)
(-0.00125056 0.00119456 0.000701983)
(-0.00143899 0.000959257 0.000701983)
(-0.0015837 0.000694806 0.000701983)
(-0.00168029 0.000409243 0.000701983)
(-0.00172583 0.000111245 0.000701983)
(-0.00171893 -0.000190132 0.000701983)
(-0.0016598 -0.000485733 0.000701983)
(-0.00155024 -0.000766574 0.000701983)
(-0.00139357 -0.00102413 0.000701983)
(-0.00119456 -0.00125056 0.000701983)
(-0.000959257 -0.00143899 0.000701983)
(-0.000694805 -0.0015837 0.000701983)
(-0.000409243 -0.00168029 0.000701983)
(-0.000111245 -0.00172583 0.000701983)
(0.000190132 -0.00171893 0.000701983)
(0.000485733 -0.0016598 0.000701983)
(0.000766574 -0.00155024 0.000701983)
(0.00102413 -0.00139357 0.000701983)
(0.00125056 -0.00119456 0.000701983)
(0.00143899 -0.000959257 0.000701983)
(0.0015837 -0.000694806 0.000701983)
(0.00168029 -0.000409243 0.000701983)
(0.00172583 -0.000111245 0.000701983)
(0.00171893 0.000190132 0.000701983)
(0.0016598 0.000485733 0.000701983)
(0.00155024 0.000766574 0.000701983)
(0.00139357 0.00102413 0.000701983)
(0.00119456 0.00125056 0.000701983)
(0.000959257 0.00143899 0.000701983)
(0.000694806 0.0015837 0.000701983)
(0.000409243 0.00168029 0.000701983)
(0.000111245 0.00172583 0.000701983)
(1.61143e-05 0.0022751 0.000849194)
(-0.000379198 0.00224334 0.000849194)
(-0.000762987 0.00214341 0.000849194)
(-0.00112359 0.00197835 0.000849194)
(-0.00145006 0.00175319 0.000849194)
(-0.00173247 0.00147475 0.000849195)
(-0.00196224 0.0011515 0.000849195)
(-0.00213238 0.000793272 0.000849195)
(-0.00223774 0.000410936 0.000849195)
(-0.0022751 1.61141e-05 0.000849194)
(-0.00224334 -0.000379198 0.000849194)
(-0.00214341 -0.000762987 0.000849194)
(-0.00197835 -0.00112359 0.000849194)
(-0.00175319 -0.00145006 0.000849194)
(-0.00147475 -0.00173247 0.000849194)
(-0.0011515 -0.00196224 0.000849195)
(-0.000793272 -0.00213238 0.000849195)
(-0.000410936 -0.00223774 0.000849194)
(-1.6114e-05 -0.0022751 0.000849194)
(0.000379198 -0.00224334 0.000849194)
(0.000762987 -0.00214341 0.000849194)
(0.00112359 -0.00197835 0.000849194)
(0.00145006 -0.00175319 0.000849194)
(0.00173247 -0.00147475 0.000849195)
(0.00196224 -0.0011515 0.000849195)
(0.00213238 -0.000793272 0.000849195)
(0.00223774 -0.000410936 0.000849195)
(0.0022751 -1.61142e-05 0.000849194)
(0.00224334 0.000379198 0.000849194)
(0.00214341 0.000762987 0.000849194)
(0.00197835 0.00112359 0.000849194)
(0.00175319 0.00145006 0.000849195)
(0.00147475 0.00173247 0.000849195)
(0.0011515 0.00196224 0.000849195)
(0.000793272 0.00213238 0.000849195)
(0.000410936 0.00223774 0.000849195)
(-7.40139e-05 0.00219349 0.000885621)
(-0.000453784 0.00214731 0.000885621)
(-0.000819767 0.00203589 0.000885621)
(-0.00116084 0.00186261 0.000885622)
(-0.00146664 0.00163273 0.000885622)
(-0.00172788 0.00135325 0.000885621)
(-0.00193662 0.00103265 0.000885621)
(-0.00208652 0.000680668 0.000885622)
(-0.00217302 0.000308006 0.000885622)
(-0.00219349 -7.40141e-05 0.000885621)
(-0.00214731 -0.000453784 0.000885621)
(-0.00203589 -0.000819767 0.000885621)
(-0.00186261 -0.00116084 0.000885621)
(-0.00163273 -0.00146664 0.000885622)
(-0.00135325 -0.00172788 0.000885621)
(-0.00103265 -0.00193662 0.000885621)
(-0.000680668 -0.00208652 0.000885622)
(-0.000308006 -0.00217302 0.000885622)
(7.40142e-05 -0.00219349 0.000885621)
(0.000453784 -0.00214731 0.000885621)
(0.000819767 -0.00203589 0.000885621)
(0.00116084 -0.00186261 0.000885621)
(0.00146664 -0.00163273 0.000885622)
(0.00172788 -0.00135325 0.000885621)
(0.00193662 -0.00103265 0.000885621)
(0.00208652 -0.000680668 0.000885622)
(0.00217302 -0.000308006 0.000885622)
(0.00219349 7.40141e-05 0.000885621)
(0.00214731 0.000453784 0.000885621)
(0.00203589 0.000819767 0.000885621)
(0.00186261 0.00116084 0.000885622)
(0.00163273 0.00146664 0.000885622)
(0.00135325 0.00172788 0.000885621)
(0.00103265 0.00193662 0.000885621)
(0.000680668 0.00208652 0.000885622)
(0.000308006 0.00217302 0.000885622)
(-0.00017029 0.00211096 0.000918007)
(-0.000534266 0.00204932 0.000918007)
(-0.000882009 0.00192541 0.000918007)
(-0.00120295 0.001743 0.000918007)
(-0.00148735 0.00150762 0.000918007)
(-0.00172654 0.00122645 0.000918007)
(-0.00191329 0.000908002 0.000918007)
(-0.00204189 0.00056197 0.000918007)
(-0.00210846 0.000198861 0.000918007)
(-0.00211096 -0.000170291 0.000918007)
(-0.00204932 -0.000534266 0.000918007)
(-0.00192541 -0.000882009 0.000918007)
(-0.001743 -0.00120295 0.000918007)
(-0.00150762 -0.00148735 0.000918007)
(-0.00122645 -0.00172654 0.000918007)
(-0.000908001 -0.00191329 0.000918007)
(-0.00056197 -0.00204189 0.000918007)
(-0.00019886 -0.00210846 0.000918007)
(0.000170291 -0.00211096 0.000918007)
(0.000534266 -0.00204932 0.000918007)
(0.000882009 -0.00192541 0.000918007)
(0.00120295 -0.001743 0.000918007)
(0.00148735 -0.00150762 0.000918007)
(0.00172654 -0.00122645 0.000918007)
(0.00191329 -0.000908002 0.000918007)
(0.00204189 -0.00056197 0.000918007)
(0.00210846 -0.000198861 0.000918007)
(0.00211096 0.000170291 0.000918007)
(0.00204932 0.000534266 0.000918007)
(0.00192541 0.000882009 0.000918007)
(0.001743 0.00120295 0.000918007)
(0.00150762 0.00148735 0.000918007)
(0.00122645 0.00172654 0.000918007)
(0.000908002 0.00191329 0.000918007)
(0.00056197 0.00204189 0.000918007)
(0.000198861 0.00210846 0.000918007)
(-0.000268841 0.00202042 0.000945072)
(-0.000615601 0.00194304 0.000945072)
(-0.000943655 0.00180662 0.000945072)
(-0.00124303 0.00161532 0.000945072)
(-0.00150465 0.00137492 0.000945072)
(-0.00172054 0.00109276 0.000945072)
(-0.00188416 0.000777388 0.000945072)
(-0.00199052 0.000438396 0.000945072)
(-0.00203641 8.60844e-05 0.000945072)
(-0.00202042 -0.000268841 0.000945072)
(-0.00194304 -0.000615601 0.000945072)
(-0.00180662 -0.000943655 0.000945072)
(-0.00161532 -0.00124303 0.000945072)
(-0.00137492 -0.00150465 0.000945072)
(-0.00109276 -0.00172054 0.000945072)
(-0.000777388 -0.00188416 0.000945072)
(-0.000438396 -0.00199052 0.000945072)
(-8.60843e-05 -0.00203641 0.000945072)
(0.000268842 -0.00202042 0.000945072)
(0.000615601 -0.00194304 0.000945072)
(0.000943655 -0.00180662 0.000945072)
(0.00124303 -0.00161532 0.000945072)
(0.00150465 -0.00137492 0.000945072)
(0.00172054 -0.00109276 0.000945072)
(0.00188416 -0.000777388 0.000945072)
(0.00199052 -0.000438396 0.000945072)
(0.00203641 -8.60845e-05 0.000945072)
(0.00202042 0.000268841 0.000945072)
(0.00194304 0.000615601 0.000945072)
(0.00180663 0.000943655 0.000945072)
(0.00161532 0.00124303 0.000945072)
(0.00137492 0.00150465 0.000945072)
(0.00109276 0.00172054 0.000945072)
(0.000777388 0.00188416 0.000945072)
(0.000438396 0.00199052 0.000945072)
(8.60846e-05 0.00203641 0.000945072)
(-9.96872e-05 0.00263711 0.00113128)
(-0.000556102 0.00257974 0.00113128)
(-0.00099562 0.00244398 0.00113128)
(-0.00140489 0.00223396 0.00113128)
(-0.00177147 0.00195606 0.00113128)
(-0.00208422 0.00161874 0.00113128)
(-0.00233365 0.00123222 0.00113128)
(-0.00251217 0.000808269 0.00113128)
(-0.00261436 0.000359756 0.00113128)
(-0.00263711 -9.96874e-05 0.00113128)
(-0.00257974 -0.000556103 0.00113128)
(-0.00244398 -0.00099562 0.00113128)
(-0.00223396 -0.00140489 0.00113128)
(-0.00195606 -0.00177147 0.00113128)
(-0.00161874 -0.00208422 0.00113128)
(-0.00123222 -0.00233365 0.00113128)