/*--------------------------------*- C++ -*----------------------------------*\
| =========                 |                                                 |
| \\      /  F ield         | OpenFOAM: The Open Source CFD Toolbox           |
|  \\    /   O peration     | Version:  2312                                  |
|   \\  /    A nd           | Website:  www.openfoam.com                      |
|    \\/     M anipulation  |                                                 |
\*---------------------------------------------------------------------------*/
FoamFile
{
    version     2.0;
    format      ascii;
    arch        "LSB;label=32;scalar=64";
    class       volScalarField;
    location    "0.3";
    object      sigmaHyd;
}
// * * * * * * * * * * * * * * * * * * * * * * * * * * * * * * * * * * * * * //

dimensions      [1 -1 -2 0 0 0 0];

internalField   nonuniform List<scalar> 
1620
(
-7875.29
-7875.26
-7875.26
-7875.34
-7875.35
-7875.32
-7875.31
-7875.31
-7875.3
-7875.29
-7875.26
-7875.26
-7875.34
-7875.34
-7875.32
-7875.31
-7875.31
-7875.3
-7875.29
-7875.26
-7875.26
-7875.34
-7875.34
-7875.32
-7875.31
-7875.31
-7875.3
-7875.29
-7875.26
-7875.26
-7875.34
-7875.35
-7875.32
-7875.31
-7875.31
-7875.3
-11918.5
-11918.5
-11918.5
-11918.5
-11918.5
-11918.5
-11918.5
-11918.5
-11918.6
-11918.5
-11918.5
-11918.5
-11918.5
-11918.5
-11918.5
-11918.5
-11918.5
-11918.6
-11918.5
-11918.5
-11918.5
-11918.5
-11918.5
-11918.5
-11918.5
-11918.5
-11918.6
-11918.5
-11918.5
-11918.5
-11918.5
-11918.5
-11918.5
-11918.5
-11918.5
-11918.6
-22968.3
-22968.3
-22968.3
-22968.3
-22968.3
-22968.2
-22968.3
-22968.3
-22968.3
-22968.3
-22968.3
-22968.3
-22968.3
-22968.3
-22968.2
-22968.3
-22968.3
-22968.3
-22968.3
-22968.3
-22968.3
-22968.3
-22968.3
-22968.2
-22968.3
-22968.3
-22968.3
-22968.3
-22968.3
-22968.3
-22968.3
-22968.3
-22968.2
-22968.3
-22968.3
-22968.3
2210.28
2210.23
2210.3
2210.29
2210.33
2210.34
2210.21
2210.26
2210.3
2210.28
2210.23
2210.3
2210.29
2210.33
2210.34
2210.21
2210.26
2210.3
2210.28
2210.23
2210.3
2210.29
2210.33
2210.34
2210.21
2210.26
2210.3
2210.28
2210.23
2210.3
2210.29
2210.33
2210.34
2210.21
2210.26
2210.3
-1342.05
-1341.99
-1342.08
-1342.08
-1342.09
-1342.15
-1342.02
-1342.02
-1342.05
-1342.05
-1341.99
-1342.08
-1342.08
-1342.09
-1342.15
-1342.02
-1342.02
-1342.05
-1342.05
-1341.99
-1342.08
-1342.08
-1342.09
-1342.15
-1342.02
-1342.02
-1342.05
-1342.05
-1341.99
-1342.08
-1342.08
-1342.09
-1342.15
-1342.02
-1342.02
-1342.05
-10594.3
-10594.3
-10594.3
-10594.2
-10594.2
-10594.1
-10594.2
-10594.3
-10594.3
-10594.3
-10594.3
-10594.3
-10594.2
-10594.2
-10594.1
-10594.2
-10594.3
-10594.3
-10594.3
-10594.3
-10594.3
-10594.2
-10594.2
-10594.1
-10594.2
-10594.3
-10594.3
-10594.3
-10594.3
-10594.3
-10594.2
-10594.2
-10594.1
-10594.2
-10594.3
-10594.3
1295.07
1295.04
1295.06
1295.02
1295.08
1295.09
1295
1295.09
1295
1295.07
1295.04
1295.06
1295.02
1295.08
1295.09
1295
1295.09
1295
1295.07
1295.04
1295.06
1295.02
1295.08
1295.09
1295
1295.09
1295
1295.07
1295.04
1295.06
1295.02
1295.08
1295.09
1295
1295.09
1295
-2543.42
-2543.4
-2543.42
-2543.33
-2543.35
-2543.41
-2543.36
-2543.48
-2543.37
-2543.42
-2543.4
-2543.41
-2543.33
-2543.35
-2543.41
-2543.36
-2543.48
-2543.37
-2543.42
-2543.4
-2543.41
-2543.33
-2543.35
-2543.41
-2543.36
-2543.48
-2543.37
-2543.42
-2543.4
-2543.42
-2543.33
-2543.35
-2543.41
-2543.36
-2543.48
-2543.37
-10242.7
-10242.7
-10242.6
-10242.7
-10242.7
-10242.7
-10242.7
-10242.6
-10242.7
-10242.7
-10242.7
-10242.6
-10242.7
-10242.7
-10242.7
-10242.7
-10242.6
-10242.7
-10242.7
-10242.7
-10242.6
-10242.7
-10242.7
-10242.7
-10242.7
-10242.6
-10242.7
-10242.7
-10242.7
-10242.6
-10242.7
-10242.7
-10242.7
-10242.7
-10242.6
-10242.7
1131.47
1131.46
1131.44
1131.46
1131.48
1131.46
1131.51
1131.42
1131.49
1131.47
1131.46
1131.43
1131.46
1131.48
1131.46
1131.51
1131.42
1131.49
1131.47
1131.46
1131.44
1131.46
1131.48
1131.46
1131.51
1131.42
1131.49
1131.47
1131.46
1131.44
1131.46
1131.48
1131.46
1131.51
1131.42
1131.49
-2545.43
-2545.42
-2545.44
-2545.39
-2545.45
-2545.4
-2545.44
-2545.41
-2545.43
-2545.43
-2545.42
-2545.44
-2545.39
-2545.45
-2545.4
-2545.44
-2545.41
-2545.43
-2545.43
-2545.42
-2545.44
-2545.39
-2545.45
-2545.4
-2545.44
-2545.41
-2545.43
-2545.43
-2545.42
-2545.44
-2545.39
-2545.45
-2545.4
-2545.44
-2545.41
-2545.43
-9534.51
-9534.57
-9534.51
-9534.56
-9534.53
-9534.52
-9534.57
-9534.54
-9534.51
-9534.51
-9534.57
-9534.51
-9534.56
-9534.53
-9534.52
-9534.57
-9534.54
-9534.51
-9534.51
-9534.57
-9534.51
-9534.56
-9534.53
-9534.52
-9534.57
-9534.54
-9534.51
-9534.51
-9534.57
-9534.51
-9534.56
-9534.53
-9534.52
-9534.57
-9534.55
-9534.51
714.678
714.754
714.649
714.699
714.67
714.677
714.763
714.647
714.687
714.678
714.753
714.649
714.699
714.67
714.677
714.764
714.647
714.687
714.678
714.754
714.649
714.699
714.67
714.677
714.764
714.647
714.687
714.678
714.754
714.649
714.699
714.67
714.677
714.764
714.647
714.687
-2724.76
-2724.86
-2724.78
-2724.84
-2724.82
-2724.78
-2724.85
-2724.76
-2724.8
-2724.76
-2724.86
-2724.78
-2724.84
-2724.82
-2724.78
-2724.85
-2724.76
-2724.8
-2724.76
-2724.86
-2724.78
-2724.84
-2724.82
-2724.78
-2724.85
-2724.76
-2724.8
-2724.76
-2724.86
-2724.78
-2724.84
-2724.82
-2724.78
-2724.85
-2724.76
-2724.8
-9147.06
-9146.98
-9147.03
-9147
-9147.01
-9147
-9147.03
-9147.06
-9147.02
-9147.06
-9146.98
-9147.03
-9147
-9147.01
-9147
-9147.03
-9147.06
-9147.02
-9147.06
-9146.98
-9147.03
-9147
-9147.01
-9147
-9147.03
-9147.06
-9147.02
-9147.06
-9146.98
-9147.03
-9147
-9147.01
-9147
-9147.03
-9147.06
-9147.02
263.261
263.305
263.247
263.296
263.262
263.261
263.281
263.216
263.286
263.261
263.305
263.247
263.296
263.262
263.261
263.281
263.216
263.286
263.261
263.305
263.247
263.296
263.262
263.262
263.281
263.216
263.286
263.261
263.305
263.247
263.296
263.262
263.262
263.281
263.216
263.286
-2887.62
-2887.7
-2887.63
-2887.66
-2887.65
-2887.66
-2887.66
-2887.59
-2887.68
-2887.62
-2887.7
-2887.63
-2887.66
-2887.65
-2887.66
-2887.66
-2887.59
-2887.68
-2887.62
-2887.7
-2887.63
-2887.66
-2887.65
-2887.66
-2887.66
-2887.59
-2887.68
-2887.62
-2887.7
-2887.63
-2887.66
-2887.65
-2887.66
-2887.66
-2887.59
-2887.68
-8724.27
-8724.24
-8724.31
-8724.28
-8724.31
-8724.38
-8724.29
-8724.36
-8724.3
-8724.27
-8724.24
-8724.31
-8724.28
-8724.3
-8724.38
-8724.29
-8724.36
-8724.3
-8724.27
-8724.24
-8724.31
-8724.28
-8724.31
-8724.38
-8724.29
-8724.36
-8724.3
-8724.27
-8724.24
-8724.31
-8724.28
-8724.31
-8724.38
-8724.29
-8724.36
-8724.3
-290.616
-290.576
-290.687
-290.551
-290.619
-290.698
-290.586
-290.681
-290.622
-290.616
-290.577
-290.687
-290.551
-290.619
-290.698
-290.586
-290.681
-290.622
-290.616
-290.576
-290.686
-290.551
-290.619
-290.698
-290.586
-290.681
-290.622
-290.616
-290.576
-290.686
-290.551
-290.619
-290.697
-290.586
-290.681
-290.622
-3061.62
-3061.75
-3061.65
-3061.74
-3061.68
-3061.61
-3061.72
-3061.63
-3061.74
-3061.62
-3061.75
-3061.65
-3061.74
-3061.68
-3061.61
-3061.72
-3061.63
-3061.74
-3061.62
-3061.75
-3061.65
-3061.74
-3061.68
-3061.61
-3061.72
-3061.63
-3061.74
-3061.62
-3061.75
-3061.65
-3061.74
-3061.68
-3061.61
-3061.72
-3061.63
-3061.74
-8181.73
-8181.61
-8181.7
-8181.64
-8181.66
-8181.68
-8181.66
-8181.71
-8181.6
-8181.73
-8181.61
-8181.7
-8181.64
-8181.66
-8181.68
-8181.66
-8181.71
-8181.6
-8181.73
-8181.61
-8181.7
-8181.64
-8181.66
-8181.69
-8181.66
-8181.71
-8181.6
-8181.73
-8181.61
-8181.7
-8181.64
-8181.66
-8181.69
-8181.66
-8181.71
-8181.6
-983.443
-983.479
-983.5
-983.429
-983.502
-983.496
-983.49
-983.511
-983.52
-983.443
-983.479
-983.5
-983.429
-983.502
-983.496
-983.49
-983.511
-983.52
-983.443
-983.479
-983.5
-983.429
-983.501
-983.496
-983.49
-983.511
-983.519
-983.443
-983.479
-983.5
-983.429
-983.501
-983.496
-983.49
-983.511
-983.519
-3230.45
-3230.45
-3230.39
-3230.48
-3230.43
-3230.38
-3230.44
-3230.43
-3230.36
-3230.45
-3230.45
-3230.39
-3230.48
-3230.43
-3230.38
-3230.44
-3230.43
-3230.36
-3230.45
-3230.45
-3230.39
-3230.48
-3230.43
-3230.38
-3230.44
-3230.43
-3230.36
-3230.45
-3230.45
-3230.39
-3230.48
-3230.43
-3230.38
-3230.44
-3230.43
-3230.36
-7410.63
-7410.59
-7410.59
-7410.58
-7410.63
-7410.65
-7410.64
-7410.63
-7410.61
-7410.63
-7410.59
-7410.59
-7410.58
-7410.63
-7410.65
-7410.64
-7410.63
-7410.61
-7410.63
-7410.59
-7410.59
-7410.58
-7410.63
-7410.65
-7410.64
-7410.63
-7410.61
-7410.63
-7410.59
-7410.59
-7410.58
-7410.63
-7410.65
-7410.65
-7410.63
-7410.61
-1828.89
-1828.86
-1828.84
-1828.85
-1828.87
-1828.89
-1828.89
-1828.86
-1828.83
-1828.89
-1828.86
-1828.84
-1828.85
-1828.87
-1828.89
-1828.89
-1828.86
-1828.83
-1828.89
-1828.86
-1828.84
-1828.85
-1828.87
-1828.89
-1828.89
-1828.86
-1828.83
-1828.89
-1828.86
-1828.84
-1828.85
-1828.87
-1828.89
-1828.89
-1828.86
-1828.83
-3365.35
-3365.34
-3365.35
-3365.28
-3365.33
-3365.35
-3365.29
-3365.35
-3365.34
-3365.35
-3365.34
-3365.35
-3365.28
-3365.33
-3365.35
-3365.29
-3365.35
-3365.34
-3365.35
-3365.34
-3365.35
-3365.28
-3365.33
-3365.35
-3365.29
-3365.35
-3365.34
-3365.35
-3365.34
-3365.35
-3365.28
-3365.33
-3365.35
-3365.29
-3365.35
-3365.34
-6310.74
-6310.8
-6310.78
-6310.81
-6310.83
-6310.79
-6310.78
-6310.77
-6310.84
-6310.74
-6310.8
-6310.78
-6310.81
-6310.83
-6310.79
-6310.78
-6310.76
-6310.84
-6310.74
-6310.8
-6310.78
-6310.81
-6310.83
-6310.79
-6310.78
-6310.77
-6310.84
-6310.74
-6310.8
-6310.78
-6310.81
-6310.83
-6310.79
-6310.78
-6310.77
-6310.84
-2774.34
-2774.38
-2774.33
-2774.26
-2774.31
-2774.33
-2774.35
-2774.29
-2774.31
-2774.34
-2774.38
-2774.33
-2774.26
-2774.31
-2774.33
-2774.35
-2774.29
-2774.31
-2774.34
-2774.38
-2774.33
-2774.26
-2774.31
-2774.33
-2774.35
-2774.29
-2774.31
-2774.34
-2774.38
-2774.33
-2774.26
-2774.31
-2774.33
-2774.35
-2774.29
-2774.31
-3416.04
-3416.01
-3416.07
-3416.09
-3416.04
-3416.1
-3416.03
-3416.05
-3416.09
-3416.04
-3416.01
-3416.07
-3416.09
-3416.04
-3416.1
-3416.03
-3416.05
-3416.09
-3416.04
-3416.01
-3416.07
-3416.09
-3416.04
-3416.1
-3416.03
-3416.05
-3416.09
-3416.04
-3416.01
-3416.07
-3416.09
-3416.04
-3416.1
-3416.03
-3416.05
-3416.09
-4835.3
-4835.36
-4835.32
-4835.37
-4835.31
-4835.3
-4835.27
-4835.33
-4835.35
-4835.3
-4835.36
-4835.32
-4835.37
-4835.31
-4835.3
-4835.27
-4835.33
-4835.35
-4835.3
-4835.36
-4835.32
-4835.37
-4835.31
-4835.3
-4835.27
-4835.33
-4835.35
-4835.3
-4835.36
-4835.32
-4835.37
-4835.32
-4835.3
-4835.27
-4835.33
-4835.35
-3623.53
-3623.54
-3623.48
-3623.48
-3623.49
-3623.49
-3623.47
-3623.55
-3623.54
-3623.53
-3623.54
-3623.48
-3623.48
-3623.49
-3623.49
-3623.47
-3623.55
-3623.54
-3623.53
-3623.54
-3623.48
-3623.48
-3623.49
-3623.49
-3623.47
-3623.55
-3623.54
-3623.53
-3623.55
-3623.48
-3623.48
-3623.49
-3623.49
-3623.47
-3623.55
-3623.54
-3290.47
-3290.39
-3290.45
-3290.44
-3290.46
-3290.43
-3290.45
-3290.5
-3290.44
-3290.47
-3290.39
-3290.45
-3290.44
-3290.46
-3290.43
-3290.44
-3290.5
-3290.44
-3290.47
-3290.39
-3290.45
-3290.44
-3290.46
-3290.43
-3290.45
-3290.5
-3290.44
-3290.47
-3290.39
-3290.45
-3290.44
-3290.46
-3290.43
-3290.44
-3290.5
-3290.44
-3095.51
-3095.57
-3095.55
-3095.61
-3095.59
-3095.57
-3095.59
-3095.53
-3095.54
-3095.51
-3095.57
-3095.55
-3095.61
-3095.59
-3095.57
-3095.59
-3095.53
-3095.54
-3095.51
-3095.57
-3095.55
-3095.61
-3095.59
-3095.57
-3095.59
-3095.53
-3095.54
-3095.51
-3095.57
-3095.55
-3095.61
-3095.59
-3095.57
-3095.59
-3095.53
-3095.54
-3888.96
-3888.86
-3888.8
-3888.86
-3888.81
-3888.83
-3888.82
-3888.9
-3889.03
-3888.96
-3888.86
-3888.8
-3888.86
-3888.81
-3888.83
-3888.82
-3888.9
-3889.03
-3888.96
-3888.86
-3888.8
-3888.86
-3888.81
-3888.83
-3888.82
-3888.9
-3889.03
-3888.96
-3888.86
-3888.8
-3888.86
-3888.81
-3888.83
-3888.82
-3888.9
-3889.03
-2771.95
-2771.91
-2771.93
-2771.97
-2771.92
-2771.96
-2771.96
-2771.97
-2771.96
-2771.95
-2771.91
-2771.93
-2771.97
-2771.92
-2771.96
-2771.96
-2771.97
-2771.96
-2771.95
-2771.91
-2771.93
-2771.97
-2771.92
-2771.96
-2771.96
-2771.97
-2771.96
-2771.95
-2771.91
-2771.93
-2771.97
-2771.92
-2771.96
-2771.96
-2771.97
-2771.96
-1437.91
-1438.01
-1438.02
-1438.07
-1438.04
-1438.06
-1437.97
-1437.91
-1437.89
-1437.91
-1438.01
-1438.02
-1438.07
-1438.04
-1438.06
-1437.97
-1437.91
-1437.88
-1437.91
-1438.01
-1438.02
-1438.07
-1438.04
-1438.06
-1437.97
-1437.91
-1437.89
-1437.91
-1438.01
-1438.02
-1438.07
-1438.04
-1438.06
-1437.97
-1437.91
-1437.89
-2484.17
-2484.03
-2483.93
-2484
-2483.93
-2483.9
-2483.98
-2484.15
-2484.27
-2484.17
-2484.03
-2483.92
-2484
-2483.93
-2483.9
-2483.98
-2484.15
-2484.27
-2484.17
-2484.03
-2483.92
-2484
-2483.93
-2483.9
-2483.98
-2484.15
-2484.27
-2484.17
-2484.03
-2483.93
-2484
-2483.93
-2483.9
-2483.98
-2484.15
-2484.26
-1286.56
-1286.53
-1286.55
-1286.51
-1286.57
-1286.49
-1286.52
-1286.52
-1286.53
-1286.56
-1286.53
-1286.55
-1286.51
-1286.57
-1286.49
-1286.52
-1286.52
-1286.53
-1286.56
-1286.53
-1286.55
-1286.51
-1286.57
-1286.49
-1286.52
-1286.52
-1286.53
-1286.56
-1286.53
-1286.55
-1286.51
-1286.57
-1286.49
-1286.52
-1286.52
-1286.53
-1050.05
-1050.24
-1050.26
-1050.33
-1050.3
-1050.27
-1050.16
-1050.02
-1049.97
-1050.04
-1050.23
-1050.26
-1050.33
-1050.3
-1050.28
-1050.16
-1050.02
-1049.97
-1050.04
-1050.23
-1050.26
-1050.33
-1050.3
-1050.28
-1050.17
-1050.02
-1049.97
-1050.04
-1050.23
-1050.26
-1050.33
-1050.3
-1050.28
-1050.17
-1050.03
-1049.98
-263.799
-263.127
-261.875
-262.638
-264.001
-262.756
-261.863
-263.266
-264.04
-263.813
-263.14
-261.885
-262.641
-264
-262.757
-261.865
-263.272
-264.047
-263.82
-263.146
-261.889
-262.645
-264.005
-262.761
-261.87
-263.274
-264.048
-263.821
-263.148
-261.893
-262.651
-264.01
-262.764
-261.869
-263.265
-264.031
2054.83
2054.64
2054.38
2054.74
2054.68
2054.55
2054.38
2054.75
2054.8
2054.84
2054.65
2054.38
2054.74
2054.68
2054.55
2054.39
2054.75
2054.8
2054.84
2054.65
2054.38
2054.74
2054.68
2054.55
2054.39
2054.76
2054.8
2054.84
2054.65
2054.38
2054.74
2054.68
2054.55
2054.38
2054.75
2054.8
-3503.4
-3503.58
-3503.7
-3503.68
-3503.55
-3503.66
-3503.56
-3503.32
-3503.32
-3503.4
-3503.58
-3503.7
-3503.68
-3503.55
-3503.66
-3503.56
-3503.33
-3503.32
-3503.4
-3503.58
-3503.7
-3503.68
-3503.55
-3503.66
-3503.56
-3503.32
-3503.32
-3503.39
-3503.57
-3503.69
-3503.68
-3503.55
-3503.66
-3503.56
-3503.33
-3503.33
16621.4
16624.5
16610.9
16613.5
16626.4
16618
16609.8
16618.8
16617.7
16621.4
16624.6
16611
16613.5
16626.5
16618
16609.8
16618.8
16617.7
16621.4
16624.6
16611
16613.5
16626.5
16618
16609.8
16618.8
16617.7
16621.4
16624.6
16611
16613.5
16626.5
16618
16609.8
16618.8
16617.7
9557.44
9556.63
9556.41
9556.3
9557.96
9556.01
9556.67
9557.15
9557.52
9557.45
9556.63
9556.41
9556.3
9557.95
9556.01
9556.67
9557.17
9557.54
9557.45
9556.64
9556.41
9556.3
9557.96
9556.01
9556.67
9557.17
9557.53
9557.45
9556.64
9556.41
9556.3
9557.96
9556.01
9556.67
9557.15
9557.51
-29773.5
-29773
-29774.5
-29773.2
-29774.3
-29773.2
-29774.4
-29773.2
-29773.7
-29773.5
-29773
-29774.5
-29773.2
-29774.3
-29773.2
-29774.4
-29773.2
-29773.7
-29773.6
-29773
-29774.5
-29773.2
-29774.3
-29773.2
-29774.4
-29773.2
-29773.7
-29773.5
-29773
-29774.5
-29773.2
-29774.3
-29773.2
-29774.4
-29773.2
-29773.7
)
;

boundaryField
{
    fixed
    {
        type            zeroGradient;
    }
    inside
    {
        type            zeroGradient;
    }
    outside
    {
        type            zeroGradient;
    }
}


// ************************************************************************* //
