/*--------------------------------*- C++ -*----------------------------------*\
| =========                 |                                                 |
| \\      /  F ield         | OpenFOAM: The Open Source CFD Toolbox           |
|  \\    /   O peration     | Version:  2312                                  |
|   \\  /    A nd           | Website:  www.openfoam.com                      |
|    \\/     M anipulation  |                                                 |
\*---------------------------------------------------------------------------*/
FoamFile
{
    version     2.0;
    format      ascii;
    arch        "LSB;label=32;scalar=64";
    class       volVectorField;
    location    "0.3";
    object      traction;
}
// * * * * * * * * * * * * * * * * * * * * * * * * * * * * * * * * * * * * * //

dimensions      [1 -1 -2 0 0 0 0];

internalField   uniform (0 0 0);

boundaryField
{
    fixed
    {
        type            calculated;
        value           nonuniform List<vector> 
108
(
(-163.9 -1024.14 -8251.73)
(16.4302 -1037.04 -8251.7)
(196.262 -1018.44 -8251.7)
(370.129 -968.884 -8251.78)
(532.75 -889.892 -8251.79)
(679.184 -783.863 -8251.76)
(804.983 -654.013 -8251.75)
(906.322 -504.292 -8251.75)
(980.122 -339.251 -8251.74)
(1024.14 -163.9 -8251.73)
(1037.04 16.4303 -8251.7)
(1018.44 196.262 -8251.7)
(968.884 370.13 -8251.78)
(889.892 532.75 -8251.79)
(783.863 679.184 -8251.76)
(654.013 804.983 -8251.75)
(504.292 906.322 -8251.75)
(339.251 980.122 -8251.73)
(163.9 1024.14 -8251.72)
(-16.4303 1037.04 -8251.7)
(-196.262 1018.44 -8251.7)
(-370.13 968.884 -8251.78)
(-532.75 889.892 -8251.79)
(-679.184 783.863 -8251.76)
(-804.983 654.013 -8251.75)
(-906.322 504.292 -8251.75)
(-980.122 339.251 -8251.74)
(-1024.14 163.9 -8251.73)
(-1037.04 -16.4303 -8251.7)
(-1018.44 -196.262 -8251.7)
(-968.884 -370.13 -8251.78)
(-889.892 -532.75 -8251.79)
(-783.863 -679.184 -8251.76)
(-654.013 -804.983 -8251.75)
(-504.292 -906.322 -8251.75)
(-339.251 -980.122 -8251.74)
(-92.4332 -1003.43 -12300.1)
(83.2149 -1004.24 -12300.1)
(256.337 -974.532 -12300.1)
(421.668 -915.214 -12300.1)
(574.186 -828.089 -12300.1)
(709.258 -715.802 -12300.1)
(822.781 -581.764 -12300.1)
(911.304 -430.05 -12300.1)
(972.137 -265.273 -12300.1)
(1003.43 -92.4331 -12300.1)
(1004.24 83.215 -12300.1)
(974.532 256.337 -12300.1)
(915.214 421.668 -12300.1)
(828.089 574.186 -12300.1)
(715.802 709.258 -12300.1)
(581.764 822.781 -12300.1)
(430.05 911.304 -12300.1)
(265.273 972.137 -12300.1)
(92.4331 1003.43 -12300.1)
(-83.215 1004.24 -12300.1)
(-256.337 974.532 -12300.1)
(-421.668 915.214 -12300.1)
(-574.186 828.089 -12300.1)
(-709.258 715.802 -12300.1)
(-822.782 581.764 -12300.1)
(-911.304 430.051 -12300.1)
(-972.137 265.273 -12300.1)
(-1003.43 92.4331 -12300.1)
(-1004.24 -83.215 -12300.1)
(-974.532 -256.337 -12300.1)
(-915.214 -421.668 -12300.1)
(-828.089 -574.186 -12300.1)
(-715.802 -709.258 -12300.1)
(-581.764 -822.781 -12300.1)
(-430.051 -911.304 -12300.1)
(-265.273 -972.137 -12300.1)
(50.9901 -950.969 -23343.9)
(215.348 -927.668 -23343.9)
(373.17 -876.177 -23344)
(519.646 -798.066 -23343.9)
(650.332 -695.707 -23344)
(761.261 -572.209 -23343.9)
(849.06 -431.322 -23343.9)
(911.059 -277.331 -23344)
(945.375 -114.918 -23344)
(950.969 50.9901 -23343.9)
(927.668 215.348 -23343.9)
(876.177 373.17 -23344)
(798.066 519.646 -23343.9)
(695.707 650.332 -23344)
(572.209 761.261 -23343.9)
(431.322 849.06 -23343.9)
(277.331 911.059 -23344)
(114.918 945.375 -23344)
(-50.9901 950.969 -23343.9)
(-215.348 927.668 -23343.9)
(-373.17 876.177 -23344)
(-519.646 798.066 -23343.9)
(-650.332 695.708 -23344)
(-761.261 572.209 -23343.9)
(-849.06 431.322 -23343.9)
(-911.059 277.331 -23344)
(-945.375 114.918 -23344)
(-950.969 -50.9901 -23343.9)
(-927.668 -215.348 -23343.9)
(-876.177 -373.17 -23344)
(-798.066 -519.646 -23343.9)
(-695.708 -650.332 -23344)
(-572.209 -761.261 -23343.9)
(-431.322 -849.06 -23343.9)
(-277.331 -911.059 -23344)
(-114.918 -945.375 -23344)
)
;
    }
    inside
    {
        type            calculated;
        value           nonuniform List<vector> 
540
(
(22488.1 2476.6 3801.29)
(21716.5 6343.93 3801.17)
(20284.9 10018.7 3801.27)
(18237 13388.9 3801.22)
(15635 16352.3 3801.2)
(12557.9 18818.8 3801.24)
(9099.32 20713.6 3801.19)
(5364.11 21979.1 3801.26)
(1466.06 22576.6 3801.27)
(-2476.6 22488.1 3801.29)
(-6343.93 21716.5 3801.17)
(-10018.7 20284.9 3801.27)
(-13388.9 18237 3801.22)
(-16352.3 15635 3801.2)
(-18818.8 12557.9 3801.24)
(-20713.6 9099.32 3801.19)
(-21979.1 5364.11 3801.26)
(-22576.6 1466.06 3801.27)
(-22488.1 -2476.6 3801.29)
(-21716.5 -6343.93 3801.17)
(-20284.9 -10018.7 3801.27)
(-18237 -13388.9 3801.22)
(-15635 -16352.3 3801.2)
(-12557.9 -18818.8 3801.24)
(-9099.32 -20713.6 3801.19)
(-5364.11 -21979.1 3801.26)
(-1466.06 -22576.6 3801.27)
(2476.6 -22488.1 3801.29)
(6343.93 -21716.5 3801.17)
(10018.7 -20284.9 3801.27)
(13388.9 -18237 3801.22)
(16352.3 -15635 3801.2)
(18818.8 -12557.9 3801.24)
(20713.6 -9099.33 3801.19)
(21979.1 -5364.11 3801.26)
(22576.6 -1466.06 3801.27)
(10364.6 873.314 1403.01)
(10055.5 2659.88 1402.96)
(9440.82 4365.55 1402.99)
(8539.29 5938.61 1403.03)
(7378.31 7331.17 1403.03)
(5993.14 8500.95 1403.02)
(4425.95 9412.64 1403)
(2724.25 10038.2 1402.98)
(939.706 10358.8 1402.97)
(-873.314 10364.6 1403.01)
(-2659.88 10055.5 1402.96)
(-4365.55 9440.82 1402.99)
(-5938.61 8539.29 1403.03)
(-7331.17 7378.31 1403.03)
(-8500.95 5993.13 1403.02)
(-9412.64 4425.95 1403)
(-10038.2 2724.25 1402.98)
(-10358.8 939.706 1402.97)
(-10364.6 -873.314 1403.01)
(-10055.5 -2659.88 1402.96)
(-9440.82 -4365.55 1402.99)
(-8539.29 -5938.61 1403.03)
(-7378.31 -7331.17 1403.03)
(-5993.13 -8500.95 1403.02)
(-4425.95 -9412.64 1403)
(-2724.25 -10038.2 1402.98)
(-939.706 -10358.8 1402.97)
(873.314 -10364.6 1403.01)
(2659.88 -10055.5 1402.96)
(4365.55 -9440.82 1402.99)
(5938.61 -8539.29 1403.03)
(7331.17 -7378.31 1403.03)
(8500.95 -5993.14 1403.02)
(9412.64 -4425.95 1403)
(10038.2 -2724.25 1402.98)
(10358.8 -939.706 1402.97)
(9938.63 723.262 834.455)
(9662.04 2438.11 834.491)
(9091.85 4078.82 834.444)
(8245.48 5595.69 834.404)
(7148.55 6942.51 834.417)
(5834.39 8078.36 834.415)
(4342.96 8968.79 834.45)
(2719.56 9586.56 834.496)
(1013.54 9913.21 834.442)
(-723.262 9938.63 834.455)
(-2438.11 9662.04 834.49)
(-4078.82 9091.84 834.444)
(-5595.69 8245.48 834.404)
(-6942.51 7148.55 834.417)
(-8078.36 5834.39 834.414)
(-8968.79 4342.96 834.45)
(-9586.55 2719.56 834.496)
(-9913.21 1013.55 834.442)
(-9938.63 -723.262 834.455)
(-9662.04 -2438.11 834.49)
(-9091.84 -4078.82 834.444)
(-8245.48 -5595.69 834.404)
(-7148.55 -6942.51 834.417)
(-5834.39 -8078.36 834.415)
(-4342.96 -8968.79 834.45)
(-2719.56 -9586.56 834.496)
(-1013.54 -9913.21 834.442)
(723.262 -9938.63 834.455)
(2438.11 -9662.04 834.491)
(4078.82 -9091.85 834.444)
(5595.69 -8245.48 834.404)
(6942.51 -7148.55 834.417)
(8078.36 -5834.39 834.415)
(8968.79 -4342.96 834.451)
(9586.56 -2719.56 834.496)
(9913.21 -1013.54 834.442)
(9134.3 447.057 198.955)
(8917.96 2026.42 198.939)
(8430.54 3544.18 198.952)
(7687.05 4954.33 198.975)
(6709.94 6213.88 198.957)
(5528.97 7284.64 198.969)
(4180.01 8134.11 198.952)
(2704.04 8736.36 198.928)
(1145.93 9073.16 198.977)
(-447.057 9134.3 198.955)
(-2026.42 8917.96 198.938)
(-3544.18 8430.54 198.952)
(-4954.33 7687.05 198.975)
(-6213.88 6709.94 198.957)
(-7284.64 5528.97 198.969)
(-8134.11 4180.01 198.952)
(-8736.36 2704.04 198.928)
(-9073.16 1145.93 198.977)
(-9134.3 -447.057 198.955)
(-8917.96 -2026.42 198.938)
(-8430.54 -3544.18 198.952)
(-7687.05 -4954.33 198.975)
(-6709.94 -6213.88 198.957)
(-5528.97 -7284.64 198.969)
(-4180.01 -8134.12 198.952)
(-2704.04 -8736.36 198.928)
(-1145.93 -9073.16 198.977)
(447.057 -9134.3 198.955)
(2026.42 -8917.96 198.939)
(3544.18 -8430.54 198.952)
(4954.33 -7687.05 198.975)
(6213.88 -6709.94 198.957)
(7284.64 -5528.97 198.969)
(8134.12 -4180.01 198.952)
(8736.36 -2704.04 198.929)
(9073.16 -1145.93 198.977)
(8601.2 178.772 -460.337)
(8439.43 1669.57 -460.291)
(8021.32 3109.77 -460.322)
(7359.44 4455.37 -460.324)
(6473.98 5665.65 -460.315)
(5391.79 6703.75 -460.328)
(4145.81 7538.21 -460.319)
(2773.78 8143.64 -460.312)
(1317.56 8501.54 -460.313)
(-178.772 8601.2 -460.338)
(-1669.56 8439.43 -460.291)
(-3109.77 8021.32 -460.322)
(-4455.37 7359.44 -460.324)
(-5665.64 6473.98 -460.315)
(-6703.75 5391.79 -460.329)
(-7538.21 4145.81 -460.319)
(-8143.64 2773.78 -460.312)
(-8501.54 1317.56 -460.313)
(-8601.2 -178.772 -460.338)
(-8439.43 -1669.56 -460.291)
(-8021.32 -3109.77 -460.322)
(-7359.44 -4455.37 -460.324)
(-6473.98 -5665.65 -460.315)
(-5391.79 -6703.75 -460.329)
(-4145.81 -7538.21 -460.319)
(-2773.78 -8143.64 -460.312)
(-1317.56 -8501.54 -460.313)
(178.772 -8601.2 -460.337)
(1669.57 -8439.43 -460.291)
(3109.77 -8021.32 -460.322)
(4455.37 -7359.44 -460.324)
(5665.65 -6473.98 -460.315)
(6703.75 -5391.79 -460.328)
(7538.21 -4145.81 -460.318)
(8143.64 -2773.78 -460.312)
(8501.54 -1317.56 -460.313)
(7991.54 -197.192 -1128.41)
(7904.36 1193.49 -1128.42)
(7577.08 2547.98 -1128.43)
(7019.47 3825 -1128.45)
(6248.65 4985.82 -1128.46)
(5287.97 5995.2 -1128.46)
(4166.55 6822.28 -1128.45)
(2918.57 7442.23 -1128.44)
(1581.93 7835.92 -1128.4)
(197.192 7991.54 -1128.41)
(-1193.49 7904.35 -1128.42)
(-2547.98 7577.08 -1128.43)
(-3825 7019.47 -1128.45)
(-4985.82 6248.65 -1128.46)
(-5995.2 5287.97 -1128.46)
(-6822.28 4166.55 -1128.45)
(-7442.23 2918.57 -1128.44)
(-7835.92 1581.93 -1128.4)
(-7991.54 197.192 -1128.41)
(-7904.35 -1193.49 -1128.42)
(-7577.08 -2547.98 -1128.43)
(-7019.47 -3825 -1128.45)
(-6248.65 -4985.82 -1128.46)
(-5287.97 -5995.2 -1128.46)
(-4166.55 -6822.28 -1128.45)
(-2918.57 -7442.23 -1128.44)
(-1581.93 -7835.92 -1128.4)
(-197.192 -7991.54 -1128.41)
(1193.49 -7904.36 -1128.42)
(2547.98 -7577.08 -1128.43)
(3825 -7019.47 -1128.45)
(4985.82 -6248.65 -1128.46)
(5995.2 -5287.97 -1128.46)
(6822.28 -4166.55 -1128.45)
(7442.23 -2918.57 -1128.44)
(7835.92 -1581.93 -1128.4)
(7237.42 -735.703 -1754.88)
(7255.13 532.176 -1754.85)
(7052.55 1784 -1754.83)
(6635.6 2981.5 -1754.79)
(6017.06 4088.48 -1754.81)
(5215.69 5071.25 -1754.81)
(4255.85 5899.87 -1754.83)
(3166.68 6549.3 -1754.88)
(1981.32 6999.59 -1754.86)
(735.703 7237.42 -1754.88)
(-532.176 7255.13 -1754.86)
(-1784 7052.55 -1754.83)
(-2981.49 6635.6 -1754.79)
(-4088.48 6017.06 -1754.81)
(-5071.25 5215.69 -1754.81)
(-5899.87 4255.85 -1754.83)
(-6549.3 3166.68 -1754.88)
(-6999.59 1981.32 -1754.86)
(-7237.42 735.703 -1754.88)
(-7255.13 -532.176 -1754.86)
(-7052.55 -1784 -1754.83)
(-6635.6 -2981.5 -1754.79)
(-6017.06 -4088.49 -1754.81)
(-5215.69 -5071.25 -1754.81)
(-4255.85 -5899.87 -1754.83)
(-3166.68 -6549.3 -1754.88)
(-1981.32 -6999.59 -1754.86)
(-735.703 -7237.42 -1754.88)
(532.176 -7255.13 -1754.85)
(1784 -7052.55 -1754.83)
(2981.5 -6635.6 -1754.79)
(4088.49 -6017.06 -1754.81)
(5071.25 -5215.69 -1754.81)
(5899.87 -4255.85 -1754.83)
(6549.3 -3166.68 -1754.88)
(6999.59 -1981.32 -1754.86)
(6276.25 -1496.31 -2266.69)
(6440.71 -383.772 -2266.67)
(6409.47 740.494 -2266.72)
(6183.53 1842.19 -2266.71)
(5769.7 2888.03 -2266.72)
(5180.53 3846.09 -2266.74)
(4433.99 4687.24 -2266.73)
(3552.67 5385.97 -2266.7)
(2563.47 5921.05 -2266.68)
(1496.31 6276.25 -2266.69)
(383.772 6440.71 -2266.67)
(-740.493 6409.47 -2266.72)
(-1842.19 6183.53 -2266.71)
(-2888.03 5769.7 -2266.72)
(-3846.09 5180.53 -2266.74)
(-4687.24 4433.99 -2266.73)
(-5385.97 3552.67 -2266.7)
(-5921.05 2563.47 -2266.68)
(-6276.25 1496.31 -2266.69)
(-6440.71 383.772 -2266.67)
(-6409.47 -740.494 -2266.72)
(-6183.53 -1842.19 -2266.71)
(-5769.7 -2888.03 -2266.72)
(-5180.53 -3846.1 -2266.74)
(-4433.99 -4687.24 -2266.73)
(-3552.67 -5385.97 -2266.7)
(-2563.47 -5921.05 -2266.68)
(-1496.31 -6276.25 -2266.69)
(-383.772 -6440.71 -2266.67)
(740.494 -6409.47 -2266.72)
(1842.2 -6183.53 -2266.71)
(2888.03 -5769.7 -2266.72)
(3846.1 -5180.53 -2266.74)
(4687.24 -4433.99 -2266.73)
(5385.97 -3552.67 -2266.7)
(5921.05 -2563.47 -2266.68)
(5084.02 -2509.78 -2573.13)
(5442.68 -1588.88 -2573.1)
(5635.87 -619.605 -2573.1)
(5657.86 368.498 -2573.13)
(5507.91 1345.37 -2573.15)
(5190.61 2281.33 -2573.13)
(4715.61 3148.01 -2573.1)
(4097.29 3919.04 -2573.1)
(3354.57 4571.05 -2573.14)
(2509.78 5084.02 -2573.13)
(1588.88 5442.68 -2573.1)
(619.605 5635.87 -2573.1)
(-368.497 5657.86 -2573.13)
(-1345.37 5507.91 -2573.15)
(-2281.33 5190.61 -2573.13)
(-3148.01 4715.61 -2573.1)
(-3919.04 4097.29 -2573.1)
(-4571.05 3354.57 -2573.14)
(-5084.02 2509.78 -2573.13)
(-5442.68 1588.88 -2573.1)
(-5635.87 619.605 -2573.1)
(-5657.86 -368.498 -2573.13)
(-5507.91 -1345.37 -2573.15)
(-5190.61 -2281.33 -2573.13)
(-4715.61 -3148.01 -2573.1)
(-4097.29 -3919.04 -2573.1)
(-3354.57 -4571.05 -2573.14)
(-2509.78 -5084.02 -2573.13)
(-1588.88 -5442.68 -2573.1)
(-619.604 -5635.87 -2573.1)
(368.498 -5657.86 -2573.13)
(1345.37 -5507.91 -2573.15)
(2281.33 -5190.61 -2573.13)
(3148.01 -4715.61 -2573.1)
(3919.04 -4097.29 -2573.1)
(4571.05 -3354.57 -2573.14)
(3703.09 -3726.64 -2586.9)
(4294.02 -3026.99 -2586.94)
(4754.41 -2235.39 -2586.91)
(5070.36 -1375.78 -2586.91)
(5232.23 -474.479 -2586.87)
(5235.13 441.274 -2586.88)
(5078.93 1343.61 -2586.89)
(4768.46 2205.2 -2586.92)
(4313.13 2999.76 -2586.92)
(3726.64 3703.09 -2586.9)
(3026.99 4294.01 -2586.94)
(2235.39 4754.41 -2586.91)
(1375.78 5070.36 -2586.91)
(474.479 5232.23 -2586.87)
(-441.274 5235.13 -2586.88)
(-1343.61 5078.93 -2586.89)
(-2205.2 4768.46 -2586.92)
(-2999.76 4313.13 -2586.92)
(-3703.09 3726.64 -2586.9)
(-4294.01 3026.99 -2586.94)
(-4754.41 2235.39 -2586.91)
(-5070.36 1375.78 -2586.91)
(-5232.23 474.478 -2586.87)
(-5235.13 -441.275 -2586.88)
(-5078.93 -1343.61 -2586.89)
(-4768.46 -2205.2 -2586.92)
(-4313.13 -2999.76 -2586.92)
(-3726.64 -3703.09 -2586.9)
(-3026.99 -4294.02 -2586.94)
(-2235.39 -4754.41 -2586.91)
(-1375.78 -5070.36 -2586.91)
(-474.478 -5232.23 -2586.87)
(441.275 -5235.13 -2586.88)
(1343.61 -5078.93 -2586.89)
(2205.2 -4768.46 -2586.92)
(2999.76 -4313.13 -2586.92)
(2298.41 -4939.66 -2292.4)
(3121.31 -4465.49 -2292.44)
(3849.3 -3855.65 -2292.43)
(4460.34 -3128.57 -2292.47)
(4935.86 -2306.55 -2292.46)
(5261.42 -1414.43 -2292.44)
(5427.08 -479.288 -2292.45)
(5427.86 470.35 -2292.42)
(5263.76 1405.75 -2292.41)
(4939.66 2298.41 -2292.4)
(4465.49 3121.31 -2292.44)
(3855.65 3849.3 -2292.43)
(3128.57 4460.34 -2292.47)
(2306.55 4935.86 -2292.46)
(1414.43 5261.42 -2292.44)
(479.288 5427.07 -2292.45)
(-470.35 5427.86 -2292.42)
(-1405.75 5263.76 -2292.41)
(-2298.41 4939.66 -2292.4)
(-3121.31 4465.49 -2292.44)
(-3849.3 3855.65 -2292.43)
(-4460.34 3128.57 -2292.47)
(-4935.86 2306.55 -2292.46)
(-5261.43 1414.43 -2292.44)
(-5427.08 479.287 -2292.45)
(-5427.86 -470.35 -2292.42)
(-5263.76 -1405.75 -2292.41)
(-4939.66 -2298.41 -2292.4)
(-4465.49 -3121.31 -2292.44)
(-3855.65 -3849.3 -2292.43)
(-3128.57 -4460.34 -2292.47)
(-2306.54 -4935.86 -2292.46)
(-1414.43 -5261.43 -2292.44)
(-479.286 -5427.08 -2292.45)
(470.352 -5427.86 -2292.42)
(1405.75 -5263.76 -2292.42)
(1164.51 -5734.8 -1852.87)
(2142.67 -5445.32 -1852.93)
(3055.76 -4990.58 -1852.94)
(3875.91 -4384.04 -1852.98)
(4578.32 -3644.44 -1852.95)
(5141.64 -2794.07 -1852.96)
(5548.66 -1858.84 -1852.9)
(5787.23 -867.141 -1852.87)
(5849.8 150.951 -1852.85)
(5734.8 1164.5 -1852.87)
(5445.32 2142.67 -1852.93)
(4990.58 3055.76 -1852.94)
(4384.04 3875.91 -1852.98)
(3644.44 4578.32 -1852.95)
(2794.07 5141.64 -1852.97)
(1858.84 5548.66 -1852.9)
(867.14 5787.23 -1852.87)
(-150.951 5849.8 -1852.85)
(-1164.5 5734.8 -1852.87)
(-2142.67 5445.32 -1852.93)
(-3055.76 4990.58 -1852.94)
(-3875.91 4384.04 -1852.98)
(-4578.32 3644.44 -1852.95)
(-5141.64 2794.07 -1852.97)
(-5548.66 1858.84 -1852.9)
(-5787.23 867.14 -1852.87)
(-5849.8 -150.952 -1852.85)
(-5734.8 -1164.5 -1852.87)
(-5445.32 -2142.67 -1852.93)
(-4990.58 -3055.76 -1852.94)
(-4384.04 -3875.91 -1852.98)
(-3644.44 -4578.32 -1852.95)
(-2794.07 -5141.64 -1852.97)
(-1858.84 -5548.66 -1852.9)
(-867.138 -5787.23 -1852.87)
(150.954 -5849.8 -1852.85)
(929.201 -5314.89 -2228.24)
(1838.09 -5072.66 -2228.39)
(2691.06 -4676.42 -2228.41)
(3462.24 -4137.99 -2228.47)
(4128.21 -3473.96 -2228.44)
(4668.76 -2704.38 -2228.42)
(5067.4 -1852.62 -2228.33)
(5312.18 -944.63 -2228.22)
(5395.48 -7.86602 -2228.18)
(5314.89 929.198 -2228.23)
(5072.67 1838.08 -2228.38)
(4676.42 2691.06 -2228.41)
(4137.99 3462.24 -2228.47)
(3473.96 4128.21 -2228.45)
(2704.38 4668.76 -2228.42)
(1852.62 5067.4 -2228.33)
(944.63 5312.18 -2228.22)
(7.86606 5395.48 -2228.18)
(-929.197 5314.89 -2228.23)
(-1838.08 5072.67 -2228.38)
(-2691.06 4676.42 -2228.41)
(-3462.24 4137.99 -2228.47)
(-4128.21 3473.96 -2228.44)
(-4668.76 2704.38 -2228.42)
(-5067.4 1852.62 -2228.33)
(-5312.18 944.63 -2228.22)
(-5395.48 7.86726 -2228.18)
(-5314.89 -929.197 -2228.23)
(-5072.67 -1838.08 -2228.38)
(-4676.42 -2691.06 -2228.41)
(-4138 -3462.24 -2228.47)
(-3473.96 -4128.21 -2228.44)
(-2704.38 -4668.76 -2228.42)
(-1852.62 -5067.4 -2228.33)
(-944.626 -5312.18 -2228.22)
(-7.86253 -5395.48 -2228.18)
(1616.21 -3241.22 -5347.36)
(2154.59 -2911.41 -5347.52)
(2627.4 -2492.89 -5347.64)
(3020.42 -1998.79 -5347.64)
(3321.61 -1444.01 -5347.52)
(3521.9 -845.256 -5347.6)
(3615.22 -220.895 -5347.51)
(3598.57 410.152 -5347.29)
(3472.83 1028.79 -5347.29)
(3241.22 1616.2 -5347.36)
(2911.41 2154.59 -5347.52)
(2492.89 2627.4 -5347.64)
(1998.79 3020.42 -5347.64)
(1444.01 3321.61 -5347.52)
(845.254 3521.9 -5347.61)
(220.893 3615.22 -5347.51)
(-410.153 3598.57 -5347.3)
(-1028.79 3472.83 -5347.29)
(-1616.2 3241.22 -5347.36)
(-2154.59 2911.41 -5347.52)
(-2627.4 2492.89 -5347.64)
(-3020.42 1998.79 -5347.64)
(-3321.61 1444.01 -5347.52)
(-3521.9 845.255 -5347.61)
(-3615.22 220.895 -5347.51)
(-3598.57 -410.152 -5347.29)
(-3472.83 -1028.79 -5347.28)
(-3241.22 -1616.2 -5347.35)
(-2911.42 -2154.59 -5347.52)
(-2492.89 -2627.4 -5347.64)
(-1998.79 -3020.41 -5347.64)
(-1444.01 -3321.61 -5347.52)
(-845.255 -3521.9 -5347.61)
(-220.893 -3615.22 -5347.51)
(410.155 -3598.57 -5347.3)
(1028.8 -3472.83 -5347.29)
(4392.91 1536.38 -31851.6)
(4059.21 2275.83 -31851.1)
(3602.58 2946.31 -31852.5)
(3036.07 3526.97 -31851.2)
(2377.56 4000.78 -31852.3)
(1646.76 4352.59 -31851.2)
(865.786 4572.71 -31852.4)
(58.773 4653.39 -31851.2)
(-750.286 4592.9 -31851.7)
(-1536.37 4392.91 -31851.6)
(-2275.83 4059.21 -31851.1)
(-2946.31 3602.58 -31852.5)
(-3526.98 3036.07 -31851.2)
(-4000.78 2377.56 -31852.4)
(-4352.59 1646.76 -31851.2)
(-4572.72 865.785 -31852.5)
(-4653.39 58.7712 -31851.2)
(-4592.9 -750.288 -31851.7)
(-4392.91 -1536.38 -31851.6)
(-4059.21 -2275.83 -31851.1)
(-3602.58 -2946.31 -31852.5)
(-3036.07 -3526.98 -31851.2)
(-2377.56 -4000.78 -31852.4)
(-1646.75 -4352.59 -31851.2)
(-865.784 -4572.72 -31852.5)
(-58.7702 -4653.39 -31851.2)
(750.288 -4592.9 -31851.7)
(1536.38 -4392.91 -31851.6)
(2275.83 -4059.21 -31851.1)
(2946.31 -3602.57 -31852.5)
(3526.98 -3036.07 -31851.2)
(4000.78 -2377.56 -31852.4)
(4352.59 -1646.75 -31851.2)
(4572.72 -865.783 -31852.4)
(4653.39 -58.7698 -31851.2)
(4592.9 750.288 -31851.7)
)
;
    }
    outside
    {
        type            calculated;
        value           nonuniform List<vector> 
540
(
(-7806.78 -723.605 -1615.06)
(-7562.51 -2068.19 -1615.07)
(-7088.46 -3350.03 -1615.05)
(-6399.09 -4530.11 -1615.08)
(-5515.26 -5572.44 -1615.11)
(-4463.85 -6445.45 -1615.09)
(-3276.77 -7122.68 -1615.06)
(-1990.1 -7583.49 -1615.06)
(-643.051 -7813.84 -1615.06)
(723.605 -7806.78 -1615.06)
(2068.19 -7562.51 -1615.07)
(3350.03 -7088.46 -1615.05)
(4530.11 -6399.08 -1615.08)
(5572.44 -5515.26 -1615.11)
(6445.45 -4463.85 -1615.09)
(7122.68 -3276.77 -1615.06)
(7583.49 -1990.1 -1615.06)
(7813.83 -643.051 -1615.06)
(7806.78 723.605 -1615.06)
(7562.51 2068.19 -1615.07)
(7088.46 3350.03 -1615.05)
(6399.08 4530.11 -1615.08)
(5515.26 5572.44 -1615.11)
(4463.85 6445.45 -1615.09)
(3276.77 7122.68 -1615.06)
(1990.1 7583.49 -1615.06)
(643.051 7813.84 -1615.06)
(-723.605 7806.78 -1615.06)
(-2068.19 7562.51 -1615.07)
(-3350.03 7088.46 -1615.05)
(-4530.11 6399.09 -1615.08)
(-5572.44 5515.26 -1615.11)
(-6445.45 4463.85 -1615.09)
(-7122.68 3276.77 -1615.06)
(-7583.49 1990.1 -1615.06)
(-7813.84 643.051 -1615.06)
(2015.82 1061.03 39.1224)
(1800.87 1395.07 39.1165)
(1531.33 1686.59 39.1271)
(1215.26 1926.78 39.1264)
(862.164 2108.65 39.1263)
(482.823 2226.39 39.1267)
(88.939 2276.24 39.1178)
(-307.635 2257.14 39.123)
(-695.051 2169.48 39.12)
(-1061.03 2015.82 39.1224)
(-1395.07 1800.87 39.1165)
(-1686.59 1531.33 39.1271)
(-1926.78 1215.26 39.1264)
(-2108.65 862.164 39.1263)
(-2226.39 482.823 39.1267)
(-2276.24 88.9389 39.1178)
(-2257.14 -307.635 39.123)
(-2169.48 -695.051 39.1199)
(-2015.82 -1061.03 39.1224)
(-1800.87 -1395.07 39.1165)
(-1531.33 -1686.59 39.1271)
(-1215.26 -1926.78 39.1264)
(-862.164 -2108.65 39.1263)
(-482.823 -2226.39 39.1267)
(-88.939 -2276.24 39.1177)
(307.635 -2257.14 39.123)
(695.051 -2169.48 39.1199)
(1061.03 -2015.82 39.1224)
(1395.07 -1800.87 39.1165)
(1686.59 -1531.33 39.1271)
(1926.78 -1215.26 39.1264)
(2108.65 -862.164 39.1263)
(2226.39 -482.823 39.1267)
(2276.24 -88.939 39.1178)
(2257.14 307.635 39.123)
(2169.48 695.051 39.1199)
(1111.32 1518.51 -136.431)
(830.71 1688.46 -136.436)
(524.896 1807.09 -136.436)
(203.117 1870.74 -136.437)
(-124.784 1877.63 -136.432)
(-448.932 1827.45 -136.431)
(-759.44 1721.63 -136.435)
(-1046.88 1563.69 -136.431)
(-1302.55 1358.06 -136.439)
(-1518.51 1111.32 -136.431)
(-1688.46 830.71 -136.436)
(-1807.09 524.896 -136.436)
(-1870.74 203.116 -136.437)
(-1877.63 -124.784 -136.432)
(-1827.45 -448.933 -136.431)
(-1721.63 -759.44 -136.435)
(-1563.69 -1046.88 -136.431)
(-1358.06 -1302.55 -136.439)
(-1111.32 -1518.51 -136.431)
(-830.71 -1688.46 -136.436)
(-524.896 -1807.09 -136.436)
(-203.116 -1870.74 -136.437)
(124.784 -1877.63 -136.432)
(448.932 -1827.45 -136.431)
(759.44 -1721.63 -136.435)
(1046.88 -1563.69 -136.431)
(1302.55 -1358.06 -136.439)
(1518.51 -1111.32 -136.431)
(1688.46 -830.71 -136.436)
(1807.09 -524.896 -136.436)
(1870.74 -203.117 -136.437)
(1877.63 124.784 -136.432)
(1827.45 448.932 -136.431)
(1721.63 759.44 -136.436)
(1563.69 1046.88 -136.431)
(1358.06 1302.55 -136.439)
(931.599 2069.44 -155.318)
(558.052 2199.85 -155.322)
(167.583 2263.25 -155.32)
(-227.945 2257.98 -155.319)
(-616.57 2184.12 -155.318)
(-986.484 2043.86 -155.318)
(-1326.39 1841.56 -155.317)
(-1625.96 1583.13 -155.315)
(-1876.27 1276.81 -155.32)
(-2069.44 931.599 -155.318)
(-2199.85 558.052 -155.322)
(-2263.25 167.583 -155.32)
(-2257.98 -227.946 -155.319)
(-2184.12 -616.57 -155.318)
(-2043.86 -986.484 -155.318)
(-1841.56 -1326.39 -155.317)
(-1583.13 -1625.96 -155.315)
(-1276.81 -1876.27 -155.32)
(-931.599 -2069.44 -155.318)
(-558.052 -2199.85 -155.322)
(-167.583 -2263.25 -155.32)
(227.946 -2257.98 -155.319)
(616.57 -2184.12 -155.318)
(986.484 -2043.86 -155.318)
(1326.39 -1841.56 -155.317)
(1625.96 -1583.13 -155.315)
(1876.27 -1276.81 -155.32)
(2069.44 -931.599 -155.318)
(2199.85 -558.052 -155.322)
(2263.25 -167.583 -155.32)
(2257.98 227.945 -155.319)
(2184.12 616.57 -155.318)
(2043.86 986.484 -155.318)
(1841.56 1326.39 -155.317)
(1583.13 1625.96 -155.315)
(1276.81 1876.27 -155.32)
(510.974 2552.03 -104.995)
(60.0902 2602.12 -105.007)
(-392.716 2572.87 -104.996)
(-833.475 2465.6 -104.998)
(-1249.01 2283.43 -104.998)
(-1626.59 2031.89 -104.999)
(-1954.66 1718.63 -105.004)
(-2223.32 1352.95 -104.991)
(-2424.58 946.363 -104.999)
(-2552.03 510.974 -104.995)
(-2602.12 60.0901 -105.007)
(-2572.87 -392.716 -104.996)
(-2465.6 -833.475 -104.998)
(-2283.43 -1249.01 -104.998)
(-2031.89 -1626.59 -104.999)
(-1718.63 -1954.66 -105.004)
(-1352.96 -2223.32 -104.991)
(-946.363 -2424.58 -104.999)
(-510.974 -2552.03 -104.995)
(-60.0901 -2602.12 -105.007)
(392.716 -2572.87 -104.996)
(833.475 -2465.6 -104.998)
(1249.01 -2283.43 -104.998)
(1626.59 -2031.89 -104.999)
(1954.66 -1718.63 -105.004)
(2223.32 -1352.96 -104.991)
(2424.58 -946.363 -104.999)
(2552.03 -510.974 -104.995)
(2602.12 -60.0902 -105.007)
(2572.87 392.716 -104.996)
(2465.6 833.475 -104.998)
(2283.43 1249.01 -104.998)
(2031.89 1626.59 -104.999)
(1718.63 1954.66 -105.004)
(1352.96 2223.32 -104.991)
(946.363 2424.58 -104.999)
(80.8179 3017.34 30.1818)
(-444.34 2985.59 30.1689)
(-956.083 2863.06 30.1766)
(-1438.67 2653.56 30.174)
(-1877.62 2363.39 30.1795)
(-2259.5 2001.44 30.1785)
(-2572.68 1578.68 30.1762)
(-2807.75 1107.89 30.1842)
(-2957.53 603.568 30.175)
(-3017.34 80.8176 30.1819)
(-2985.59 -444.34 30.169)
(-2863.06 -956.083 30.1767)
(-2653.56 -1438.67 30.1741)
(-2363.39 -1877.62 30.1795)
(-2001.44 -2259.5 30.1786)
(-1578.68 -2572.68 30.1763)
(-1107.89 -2807.75 30.1842)
(-603.568 -2957.53 30.175)
(-80.8177 -3017.34 30.1819)
(444.34 -2985.59 30.169)
(956.083 -2863.06 30.1767)
(1438.67 -2653.56 30.1741)
(1877.62 -2363.39 30.1795)
(2259.5 -2001.44 30.1785)
(2572.68 -1578.68 30.1762)
(2807.75 -1107.89 30.1842)
(2957.53 -603.568 30.1749)
(3017.34 -80.8178 30.1818)
(2985.59 444.34 30.1689)
(2863.06 956.083 30.1766)
(2653.56 1438.67 30.174)
(2363.39 1877.62 30.1794)
(2001.44 2259.5 30.1785)
(1578.68 2572.68 30.1761)
(1107.89 2807.75 30.1841)
(603.568 2957.53 30.1749)
(-407.239 3440.5 264.179)
(-998.453 3317.52 264.176)
(-1559.47 3093.73 264.192)
(-2072.91 2776.05 264.163)
(-2523.48 2373.82 264.183)
(-2897.34 1899.45 264.201)
(-3183.15 1367.59 264.175)
(-3372.33 793.99 264.196)
(-3458.96 196.38 264.179)
(-3440.5 -407.239 264.179)
(-3317.52 -998.453 264.176)
(-3093.73 -1559.47 264.193)
(-2776.05 -2072.91 264.163)
(-2373.82 -2523.48 264.183)
(-1899.45 -2897.34 264.201)
(-1367.59 -3183.15 264.175)
(-793.99 -3372.33 264.196)
(-196.38 -3458.96 264.179)
(407.239 -3440.5 264.179)
(998.453 -3317.52 264.176)
(1559.47 -3093.73 264.192)
(2072.91 -2776.05 264.163)
(2523.48 -2373.82 264.183)
(2897.34 -1899.45 264.201)
(3183.15 -1367.59 264.175)
(3372.33 -793.99 264.196)
(3458.96 -196.381 264.179)
(3440.5 407.239 264.179)
(3317.52 998.453 264.176)
(3093.73 1559.47 264.192)
(2776.05 2072.91 264.163)
(2373.82 2523.48 264.183)
(1899.45 2897.34 264.2)
(1367.59 3183.15 264.175)
(793.99 3372.33 264.196)
(196.381 3458.96 264.179)
(-972.639 3794.2 630.573)
(-1616.74 3567.64 630.576)
(-2211.72 3232.73 630.578)
(-2739.46 2799.64 630.548)
(-3183.99 2281.31 630.569)
(-3531.73 1693.73 630.572)
(-3772.21 1054.73 630.576)
(-3898.1 383.672 630.581)
(-3905.49 -299.06 630.593)
(-3794.2 -972.64 630.573)
(-3567.64 -1616.74 630.576)
(-3232.73 -2211.72 630.578)
(-2799.64 -2739.46 630.548)
(-2281.31 -3183.99 630.569)
(-1693.73 -3531.73 630.573)
(-1054.73 -3772.21 630.576)
(-383.672 -3898.1 630.581)
(299.06 -3905.49 630.593)
(972.64 -3794.2 630.573)
(1616.74 -3567.64 630.576)
(2211.72 -3232.73 630.578)
(2739.46 -2799.64 630.548)
(3183.99 -2281.31 630.569)
(3531.73 -1693.73 630.572)
(3772.21 -1054.73 630.576)
(3898.1 -383.672 630.58)
(3905.49 299.06 630.593)
(3794.2 972.64 630.573)
(3567.64 1616.74 630.576)
(3232.73 2211.72 630.578)
(2799.64 2739.46 630.547)
(2281.31 3183.99 630.569)
(1693.73 3531.73 630.572)
(1054.73 3772.21 630.576)
(383.672 3898.1 630.58)
(-299.06 3905.49 630.593)
(-1610.59 4044.27 1184.93)
(-2288.38 3703.2 1184.93)
(-2896.67 3249.63 1184.91)
(-3416.94 2697.22 1184.92)
(-3833.41 2062.89 1184.93)
(-4133.4 1365.88 1184.94)
(-4307.76 627.346 1184.94)
(-4351.3 -130.186 1184.92)
(-4262.63 -883.759 1184.9)
(-4044.27 -1610.59 1184.93)
(-3703.2 -2288.38 1184.93)
(-3249.63 -2896.67 1184.91)
(-2697.22 -3416.94 1184.92)
(-2062.89 -3833.41 1184.93)
(-1365.88 -4133.4 1184.94)
(-627.346 -4307.76 1184.94)
(130.186 -4351.3 1184.92)
(883.759 -4262.63 1184.9)
(1610.59 -4044.27 1184.93)
(2288.38 -3703.2 1184.93)
(2896.67 -3249.63 1184.91)
(3416.94 -2697.22 1184.92)
(3833.41 -2062.89 1184.93)
(4133.4 -1365.88 1184.94)
(4307.76 -627.346 1184.94)
(4351.3 130.186 1184.92)
(4262.63 883.759 1184.9)
(4044.27 1610.59 1184.93)
(3703.2 2288.38 1184.93)
(3249.63 2896.67 1184.91)
(2697.22 3416.94 1184.92)
(2062.89 3833.41 1184.93)
(1365.88 4133.4 1184.94)
(627.346 4307.76 1184.94)
(-130.186 4351.3 1184.92)
(-883.759 4262.63 1184.9)
(-2248.55 4158.08 1990.49)
(-2936.45 3704.44 1990.52)
(-3535.09 3138.26 1990.49)
(-4026.32 2476.77 1990.45)
(-4395.25 1739.96 1990.47)
(-4630.62 950.297 1990.48)
(-4725.29 131.731 1990.5)
(-4676.37 -690.768 1990.48)
(-4485.37 -1492.32 1990.48)
(-4158.09 -2248.55 1990.5)
(-3704.44 -2936.45 1990.52)
(-3138.26 -3535.09 1990.49)
(-2476.77 -4026.32 1990.45)
(-1739.96 -4395.25 1990.47)
(-950.297 -4630.62 1990.48)
(-131.731 -4725.29 1990.5)
(690.767 -4676.37 1990.48)
(1492.32 -4485.37 1990.48)
(2248.55 -4158.08 1990.5)
(2936.45 -3704.44 1990.52)
(3535.09 -3138.26 1990.49)
(4026.32 -2476.77 1990.45)
(4395.25 -1739.96 1990.47)
(4630.62 -950.297 1990.48)
(4725.29 -131.731 1990.5)
(4676.37 690.767 1990.48)
(4485.37 1492.32 1990.48)
(4158.08 2248.55 1990.49)
(3704.44 2936.45 1990.52)
(3138.26 3535.09 1990.49)
(2476.77 4026.32 1990.45)
(1739.96 4395.25 1990.47)
(950.297 4630.62 1990.48)
(131.731 4725.29 1990.5)
(-690.767 4676.37 1990.47)
(-1492.32 4485.37 1990.48)
(-2691.42 4127.56 3053.65)
(-3367.28 3597.47 3053.67)
(-3940.77 2958.02 3053.64)
(-4394.59 2228.82 3053.64)
(-4714.86 1431.85 3053.64)
(-4891.87 591.376 3053.64)
(-4920.29 -267.021 3053.62)
(-4799.07 -1117.48 3053.67)
(-4532.11 -1933.85 3053.67)
(-4127.56 -2691.43 3053.65)
(-3597.47 -3367.28 3053.67)
(-2958.02 -3940.77 3053.64)
(-2228.82 -4394.59 3053.64)
(-1431.85 -4714.86 3053.64)
(-591.376 -4891.87 3053.64)
(267.021 -4920.29 3053.62)
(1117.48 -4799.07 3053.67)
(1933.85 -4532.11 3053.67)
(2691.43 -4127.56 3053.65)
(3367.28 -3597.47 3053.67)
(3940.77 -2958.02 3053.64)
(4394.59 -2228.82 3053.64)
(4714.86 -1431.85 3053.64)
(4891.87 -591.376 3053.64)
(4920.29 267.021 3053.62)
(4799.07 1117.48 3053.67)
(4532.11 1933.85 3053.67)
(4127.56 2691.43 3053.65)
(3597.47 3367.29 3053.67)
(2958.02 3940.77 3053.64)
(2228.82 4394.59 3053.64)
(1431.85 4714.86 3053.64)
(591.376 4891.87 3053.64)
(-267.021 4920.29 3053.62)
(-1117.48 4799.07 3053.67)
(-1933.85 4532.11 3053.67)
(-2590 4001.67 4131.12)
(-3245.48 3491.05 4131.07)
(-3802.39 2874.48 4131.03)
(-4243.8 2170.53 4131.08)
(-4556.22 1400.64 4131.04)
(-4730.21 588.15 4131.05)
(-4760.51 -242.126 4131.03)
(-4646.15 -1065.15 4131.08)
(-4390.46 -1855.87 4131.18)
(-4001.67 -2590 4131.13)