/*--------------------------------*- C++ -*----------------------------------*\
| =========                 |                                                 |
| \\      /  F ield         | OpenFOAM: The Open Source CFD Toolbox           |
|  \\    /   O peration     | Version:  2312                                  |
|   \\  /    A nd           | Website:  www.openfoam.com                      |
|    \\/     M anipulation  |                                                 |
\*---------------------------------------------------------------------------*/
FoamFile
{
    version     2.0;
    format      ascii;
    arch        "LSB;label=32;scalar=64";
    class       volVectorField;
    location    "1";
    object      D;
}
// * * * * * * * * * * * * * * * * * * * * * * * * * * * * * * * * * * * * * //

dimensions      [0 1 0 0 0 0 0];

internalField   nonuniform List<vector> 
3240
(
(-0.000611912 0.000191782 -0.000105116)
(-0.000626298 0.000137723 -0.000105114)
(-0.000635917 8.26115e-05 -0.000105118)
(-0.000640696 2.68705e-05 -0.000105119)
(-0.000640603 -2.90737e-05 -0.000105118)
(-0.000635631 -8.47952e-05 -0.000105117)
(-0.000625822 -0.000139869 -0.000105114)
(-0.00061125 -0.000193879 -0.000105113)
(-0.000592027 -0.000246413 -0.000105115)
(-0.000568298 -0.000297074 -0.000105117)
(-0.000540243 -0.000345474 -0.000105118)
(-0.000508077 -0.000391247 -0.000105119)
(-0.000472044 -0.000434042 -0.000105117)
(-0.000432419 -0.000473532 -0.000105116)
(-0.000389503 -0.000509414 -0.000105114)
(-0.000343623 -0.000541423 -0.000105116)
(-0.000295125 -0.000569313 -0.000105119)
(-0.000244384 -0.000592869 -0.000105116)
(-0.000191782 -0.000611912 -0.000105116)
(-0.000137723 -0.000626298 -0.000105114)
(-8.26115e-05 -0.000635917 -0.000105118)
(-2.68705e-05 -0.000640696 -0.000105119)
(2.90737e-05 -0.000640603 -0.000105118)
(8.47952e-05 -0.000635631 -0.000105117)
(0.000139869 -0.000625822 -0.000105114)
(0.000193879 -0.00061125 -0.000105113)
(0.000246413 -0.000592027 -0.000105115)
(0.000297074 -0.000568298 -0.000105117)
(0.000345474 -0.000540243 -0.000105118)
(0.000391247 -0.000508077 -0.000105119)
(0.000434042 -0.000472044 -0.000105117)
(0.000473532 -0.000432419 -0.000105116)
(0.000509414 -0.000389503 -0.000105114)
(0.000541423 -0.000343623 -0.000105116)
(0.000569313 -0.000295125 -0.000105119)
(0.000592869 -0.000244384 -0.000105116)
(0.000611912 -0.000191782 -0.000105116)
(0.000626298 -0.000137723 -0.000105114)
(0.000635917 -8.26115e-05 -0.000105118)
(0.000640696 -2.68705e-05 -0.000105119)
(0.000640603 2.90737e-05 -0.000105118)
(0.000635631 8.47952e-05 -0.000105117)
(0.000625822 0.000139869 -0.000105114)
(0.00061125 0.000193879 -0.000105113)
(0.000592027 0.000246413 -0.000105115)
(0.000568298 0.000297074 -0.000105117)
(0.000540243 0.000345474 -0.000105118)
(0.000508077 0.000391248 -0.000105119)
(0.000472044 0.000434042 -0.000105117)
(0.000432419 0.000473532 -0.000105116)
(0.000389503 0.000509414 -0.000105114)
(0.000343623 0.000541423 -0.000105116)
(0.000295125 0.000569313 -0.000105119)
(0.000244384 0.000592869 -0.000105116)
(0.000191782 0.000611912 -0.000105116)
(0.000137723 0.000626298 -0.000105114)
(8.26115e-05 0.000635917 -0.000105118)
(2.68705e-05 0.000640696 -0.000105119)
(-2.90737e-05 0.000640603 -0.000105118)
(-8.47952e-05 0.000635631 -0.000105117)
(-0.000139869 0.000625822 -0.000105114)
(-0.000193879 0.00061125 -0.000105113)
(-0.000246413 0.000592027 -0.000105115)
(-0.000297074 0.000568298 -0.000105117)
(-0.000345474 0.000540243 -0.000105118)
(-0.000391248 0.000508077 -0.000105119)
(-0.000434042 0.000472044 -0.000105117)
(-0.000473532 0.000432419 -0.000105116)
(-0.000509414 0.000389503 -0.000105114)
(-0.000541423 0.000343623 -0.000105116)
(-0.000569313 0.000295125 -0.000105119)
(-0.000592869 0.000244384 -0.000105116)
(-0.000588124 5.81676e-05 -0.000122222)
(-0.000590955 6.68843e-06 -0.000122221)
(-0.00058929 -4.48431e-05 -0.000122222)
(-0.000583138 -9.60337e-05 -0.000122221)
(-0.00057255 -0.000146493 -0.000122222)
(-0.000557603 -0.000195837 -0.000122222)
(-0.000538412 -0.000243689 -0.000122221)
(-0.000515125 -0.000289686 -0.000122221)
(-0.000487918 -0.000333478 -0.000122221)
(-0.000456998 -0.000374734 -0.000122222)
(-0.000422599 -0.000413138 -0.000122222)
(-0.000384984 -0.000448399 -0.000122222)
(-0.000344437 -0.000480248 -0.000122221)
(-0.00030127 -0.00050844 -0.000122221)
(-0.00025581 -0.000532761 -0.000122221)
(-0.000208404 -0.000553029 -0.000122221)
(-0.00015941 -0.000569088 -0.000122222)
(-0.000109205 -0.000580816 -0.000122221)
(-5.81675e-05 -0.000588124 -0.000122222)
(-6.68842e-06 -0.000590955 -0.000122221)
(4.48431e-05 -0.00058929 -0.000122222)
(9.60337e-05 -0.000583138 -0.000122221)
(0.000146493 -0.00057255 -0.000122222)
(0.000195837 -0.000557603 -0.000122222)
(0.000243689 -0.000538412 -0.000122221)
(0.000289686 -0.000515125 -0.000122221)
(0.000333478 -0.000487918 -0.000122221)
(0.000374734 -0.000456998 -0.000122222)
(0.000413138 -0.000422599 -0.000122222)
(0.000448399 -0.000384984 -0.000122222)
(0.000480248 -0.000344437 -0.000122221)
(0.00050844 -0.00030127 -0.000122221)
(0.000532761 -0.00025581 -0.000122221)
(0.000553029 -0.000208404 -0.000122221)
(0.000569088 -0.00015941 -0.000122222)
(0.000580816 -0.000109205 -0.000122221)
(0.000588124 -5.81675e-05 -0.000122222)
(0.000590955 -6.6884e-06 -0.000122221)
(0.00058929 4.48431e-05 -0.000122222)
(0.000583138 9.60337e-05 -0.000122221)
(0.00057255 0.000146493 -0.000122222)
(0.000557603 0.000195837 -0.000122222)
(0.000538412 0.000243689 -0.000122221)
(0.000515125 0.000289686 -0.000122221)
(0.000487918 0.000333478 -0.000122221)
(0.000456998 0.000374734 -0.000122222)
(0.000422599 0.000413138 -0.000122222)
(0.000384984 0.000448399 -0.000122222)
(0.000344437 0.000480248 -0.000122221)
(0.00030127 0.00050844 -0.000122221)
(0.00025581 0.000532761 -0.000122221)
(0.000208404 0.000553029 -0.000122221)
(0.00015941 0.000569088 -0.000122222)
(0.000109205 0.000580816 -0.000122221)
(5.81675e-05 0.000588124 -0.000122222)
(6.6884e-06 0.000590955 -0.000122221)
(-4.48431e-05 0.00058929 -0.000122222)
(-9.60337e-05 0.000583138 -0.000122222)
(-0.000146493 0.00057255 -0.000122222)
(-0.000195837 0.000557603 -0.000122222)
(-0.000243689 0.000538412 -0.000122221)
(-0.000289686 0.000515125 -0.000122221)
(-0.000333478 0.000487918 -0.000122221)
(-0.000374734 0.000456998 -0.000122222)
(-0.000413138 0.000422599 -0.000122222)
(-0.000448399 0.000384984 -0.000122222)
(-0.000480248 0.000344437 -0.000122221)
(-0.00050844 0.00030127 -0.000122221)
(-0.000532761 0.00025581 -0.000122221)
(-0.000553029 0.000208404 -0.000122221)
(-0.000569088 0.00015941 -0.000122222)
(-0.000580816 0.000109205 -0.000122221)
(-0.000555334 0.000184472 -9.63052e-05)
(-0.000569298 0.000135371 -9.63049e-05)
(-0.00057893 8.5237e-05 -9.63041e-05)
(-0.000584156 3.44546e-05 -9.6304e-05)
(-0.000584938 -1.65894e-05 -9.63048e-05)
(-0.000581264 -6.75064e-05 -9.63055e-05)
(-0.000573167 -0.000117911 -9.63059e-05)
(-0.00056071 -0.000167415 -9.63071e-05)
(-0.000543987 -0.000215646 -9.63071e-05)
(-0.000523124 -0.000262237 -9.63075e-05)
(-0.000498278 -0.000306832 -9.63061e-05)
(-0.00046964 -0.000349093 -9.63048e-05)
(-0.000437426 -0.000388698 -9.63035e-05)
(-0.000401885 -0.000425344 -9.63043e-05)
(-0.000363283 -0.000458751 -9.63056e-05)
(-0.000321919 -0.000488666 -9.63059e-05)
(-0.000278103 -0.000514863 -9.63051e-05)
(-0.000232172 -0.000537143 -9.63049e-05)
(-0.000184472 -0.000555334 -9.63052e-05)
(-0.000135371 -0.000569298 -9.63049e-05)
(-8.5237e-05 -0.00057893 -9.6304e-05)
(-3.44546e-05 -0.000584156 -9.6304e-05)
(1.65894e-05 -0.000584938 -9.63048e-05)
(6.75064e-05 -0.000581264 -9.63055e-05)
(0.000117911 -0.000573167 -9.63059e-05)
(0.000167415 -0.00056071 -9.63072e-05)
(0.000215646 -0.000543987 -9.63071e-05)
(0.000262237 -0.000523124 -9.63075e-05)
(0.000306832 -0.000498278 -9.63061e-05)
(0.000349093 -0.00046964 -9.63048e-05)
(0.000388698 -0.000437426 -9.63034e-05)
(0.000425344 -0.000401886 -9.63043e-05)
(0.000458751 -0.000363283 -9.63055e-05)
(0.000488666 -0.000321919 -9.63058e-05)
(0.000514863 -0.000278103 -9.63051e-05)
(0.000537143 -0.000232172 -9.63049e-05)
(0.000555334 -0.000184472 -9.63052e-05)
(0.000569298 -0.000135371 -9.63049e-05)
(0.00057893 -8.5237e-05 -9.63041e-05)
(0.000584156 -3.44546e-05 -9.6304e-05)
(0.000584938 1.65894e-05 -9.63048e-05)
(0.000581264 6.75064e-05 -9.63056e-05)
(0.000573167 0.000117911 -9.6306e-05)
(0.00056071 0.000167415 -9.63072e-05)
(0.000543987 0.000215646 -9.63072e-05)
(0.000523124 0.000262237 -9.63076e-05)
(0.000498278 0.000306832 -9.63061e-05)
(0.00046964 0.000349093 -9.63048e-05)
(0.000437426 0.000388698 -9.63035e-05)
(0.000401885 0.000425344 -9.63043e-05)
(0.000363283 0.000458751 -9.63056e-05)
(0.000321919 0.000488666 -9.63059e-05)
(0.000278103 0.000514863 -9.63052e-05)
(0.000232172 0.000537143 -9.63049e-05)
(0.000184472 0.000555334 -9.63052e-05)
(0.000135371 0.000569298 -9.63049e-05)
(8.52369e-05 0.00057893 -9.63041e-05)
(3.44546e-05 0.000584156 -9.6304e-05)
(-1.65894e-05 0.000584938 -9.63048e-05)
(-6.75064e-05 0.000581264 -9.63056e-05)
(-0.000117911 0.000573167 -9.6306e-05)
(-0.000167415 0.00056071 -9.63073e-05)
(-0.000215646 0.000543987 -9.63072e-05)
(-0.000262237 0.000523124 -9.63076e-05)
(-0.000306832 0.000498278 -9.63062e-05)
(-0.000349093 0.00046964 -9.63049e-05)
(-0.000388698 0.000437426 -9.63035e-05)
(-0.000425344 0.000401885 -9.63044e-05)
(-0.000458751 0.000363283 -9.63056e-05)
(-0.000488666 0.000321919 -9.63059e-05)
(-0.000514863 0.000278103 -9.63052e-05)
(-0.000537143 0.000232172 -9.63049e-05)
(-0.00159059 0.000443614 -0.000302538)
(-0.00162319 0.000303299 -0.000302536)
(-0.00164345 0.000160672 -0.000302542)
(-0.0016512 1.68214e-05 -0.000302544)
(-0.00164639 -0.000127157 -0.000302544)
(-0.00162904 -0.000270166 -0.00030254)
(-0.00159929 -0.000411116 -0.000302534)
(-0.00155738 -0.000548935 -0.00030253)
(-0.00150361 -0.000682577 -0.000302529)
(-0.0014384 -0.000811024 -0.000302532)
(-0.00136224 -0.000933303 -0.000302538)
(-0.00127571 -0.00104848 -0.000302542)
(-0.00117947 -0.00115568 -0.000302541)
(-0.00107426 -0.00125408 -0.000302538)
(-0.000960875 -0.00134294 -0.000302536)
(-0.000840173 -0.00142157 -0.000302536)
(-0.000713076 -0.00148939 -0.000302542)
(-0.000580554 -0.00154587 -0.000302541)
(-0.000443614 -0.00159059 -0.000302538)
(-0.000303299 -0.00162319 -0.000302536)
(-0.000160672 -0.00164345 -0.000302542)
(-1.68214e-05 -0.0016512 -0.000302544)
(0.000127157 -0.00164639 -0.000302544)
(0.000270165 -0.00162904 -0.00030254)
(0.000411116 -0.00159929 -0.000302534)
(0.000548935 -0.00155738 -0.00030253)
(0.000682577 -0.00150361 -0.000302529)
(0.000811024 -0.0014384 -0.000302532)
(0.000933303 -0.00136224 -0.000302538)
(0.00104848 -0.00127571 -0.000302542)
(0.00115568 -0.00117947 -0.000302541)
(0.00125408 -0.00107426 -0.000302538)
(0.00134294 -0.000960875 -0.000302536)
(0.00142157 -0.000840173 -0.000302536)
(0.00148939 -0.000713076 -0.000302542)
(0.00154587 -0.000580554 -0.000302541)
(0.00159059 -0.000443614 -0.000302538)
(0.00162319 -0.000303299 -0.000302536)
(0.00164345 -0.000160672 -0.000302542)
(0.0016512 -1.68213e-05 -0.000302544)
(0.00164639 0.000127157 -0.000302544)
(0.00162904 0.000270166 -0.00030254)
(0.00159929 0.000411116 -0.000302534)
(0.00155738 0.000548935 -0.00030253)
(0.00150361 0.000682577 -0.000302529)
(0.0014384 0.000811024 -0.000302532)
(0.00136224 0.000933304 -0.000302538)
(0.00127571 0.00104848 -0.000302542)
(0.00117947 0.00115568 -0.000302541)
(0.00107426 0.00125408 -0.000302538)
(0.000960875 0.00134294 -0.000302536)
(0.000840173 0.00142157 -0.000302536)
(0.000713076 0.00148939 -0.000302542)
(0.000580554 0.00154587 -0.000302541)
(0.000443614 0.00159059 -0.000302538)
(0.000303299 0.00162319 -0.000302536)
(0.000160672 0.00164345 -0.000302542)
(1.68213e-05 0.0016512 -0.000302544)
(-0.000127157 0.00164639 -0.000302544)
(-0.000270166 0.00162904 -0.00030254)
(-0.000411116 0.00159929 -0.000302534)
(-0.000548935 0.00155738 -0.00030253)
(-0.000682577 0.00150361 -0.000302529)
(-0.000811024 0.0014384 -0.000302532)
(-0.000933304 0.00136224 -0.000302538)
(-0.00104848 0.00127571 -0.000302542)
(-0.00115568 0.00117947 -0.000302541)
(-0.00125408 0.00107426 -0.000302538)
(-0.00134294 0.000960875 -0.000302536)
(-0.00142157 0.000840173 -0.000302536)
(-0.00148939 0.000713076 -0.000302542)
(-0.00154587 0.000580554 -0.000302541)
(-0.00165546 0.000402896 -0.000231128)
(-0.00168428 0.00025708 -0.000231127)
(-0.00170027 0.000109306 -0.000231128)
(-0.00170333 -3.9301e-05 -0.000231128)
(-0.00169342 -0.000187608 -0.000231128)
(-0.00167063 -0.000334485 -0.000231127)
(-0.00163512 -0.000478816 -0.000231126)
(-0.00158716 -0.000619501 -0.000231125)
(-0.00152713 -0.000755472 -0.000231124)
(-0.00145548 -0.000885695 -0.000231124)
(-0.00137275 -0.00100918 -0.000231125)
(-0.00127957 -0.00112498 -0.000231126)
(-0.00117665 -0.00123223 -0.000231127)
(-0.00106478 -0.00133009 -0.000231127)
(-0.0009448 -0.00141783 -0.000231127)
(-0.000817633 -0.00149477 -0.000231126)
(-0.000684243 -0.00156035 -0.000231128)
(-0.000545645 -0.00161405 -0.000231127)
(-0.000402896 -0.00165546 -0.000231128)
(-0.00025708 -0.00168428 -0.000231127)
(-0.000109306 -0.00170027 -0.000231128)
(3.9301e-05 -0.00170333 -0.000231128)
(0.000187608 -0.00169342 -0.000231128)
(0.000334485 -0.00167063 -0.000231127)
(0.000478816 -0.00163512 -0.000231126)
(0.000619501 -0.00158716 -0.000231125)
(0.000755472 -0.00152713 -0.000231124)
(0.000885695 -0.00145548 -0.000231124)
(0.00100918 -0.00137275 -0.000231125)
(0.00112498 -0.00127957 -0.000231126)
(0.00123223 -0.00117665 -0.000231127)
(0.00133009 -0.00106478 -0.000231126)
(0.00141783 -0.0009448 -0.000231126)
(0.00149477 -0.000817633 -0.000231126)
(0.00156035 -0.000684243 -0.000231128)
(0.00161405 -0.000545645 -0.000231127)
(0.00165546 -0.000402896 -0.000231128)
(0.00168428 -0.00025708 -0.000231127)
(0.00170027 -0.000109306 -0.000231128)
(0.00170333 3.93011e-05 -0.000231128)
(0.00169342 0.000187608 -0.000231128)
(0.00167063 0.000334485 -0.000231128)
(0.00163512 0.000478816 -0.000231126)
(0.00158716 0.000619501 -0.000231125)
(0.00152713 0.000755472 -0.000231125)
(0.00145548 0.000885695 -0.000231124)
(0.00137275 0.00100918 -0.000231125)
(0.00127957 0.00112498 -0.000231127)
(0.00117665 0.00123223 -0.000231127)
(0.00106478 0.00133009 -0.000231127)
(0.0009448 0.00141783 -0.000231127)
(0.000817633 0.00149477 -0.000231126)
(0.000684243 0.00156035 -0.000231128)
(0.000545645 0.00161405 -0.000231127)
(0.000402896 0.00165546 -0.000231128)
(0.00025708 0.00168428 -0.000231127)
(0.000109306 0.00170027 -0.000231128)
(-3.93011e-05 0.00170333 -0.000231128)
(-0.000187608 0.00169342 -0.000231128)
(-0.000334485 0.00167063 -0.000231128)
(-0.000478816 0.00163512 -0.000231126)
(-0.000619501 0.00158716 -0.000231125)
(-0.000755472 0.00152713 -0.000231125)
(-0.000885695 0.00145548 -0.000231124)
(-0.00100918 0.00137275 -0.000231125)
(-0.00112498 0.00127957 -0.000231127)
(-0.00123223 0.00117665 -0.000231127)
(-0.00133009 0.00106478 -0.000231127)
(-0.00141783 0.0009448 -0.000231127)
(-0.00149477 0.000817633 -0.000231126)
(-0.00156035 0.000684243 -0.000231128)
(-0.00161405 0.000545645 -0.000231127)
(-0.00172982 0.000652659 -9.53567e-05)
(-0.00178012 0.000499413 -9.53558e-05)
(-0.00181687 0.000342364 -9.53546e-05)
(-0.00183979 0.000182708 -9.53539e-05)
(-0.00184872 2.16629e-05 -9.53537e-05)
(-0.00184357 -0.000139545 -9.53554e-05)
(-0.00182439 -0.000299691 -9.53571e-05)
(-0.00179133 -0.000457555 -9.53592e-05)
(-0.00174463 -0.000611936 -9.53592e-05)
(-0.00168466 -0.000761663 -9.53569e-05)
(-0.00161187 -0.000905594 -9.53552e-05)
(-0.00152681 -0.00104263 -9.53545e-05)
(-0.00143013 -0.00117174 -9.53544e-05)
(-0.00132256 -0.00129192 -9.53556e-05)
(-0.00120493 -0.00140227 -9.53563e-05)
(-0.00107813 -0.00150195 -9.53564e-05)
(-0.000943124 -0.0015902 -9.53558e-05)
(-0.000800939 -0.00166635 -9.5355e-05)
(-0.000652659 -0.00172982 -9.53566e-05)
(-0.000499413 -0.00178012 -9.53557e-05)
(-0.000342364 -0.00181687 -9.53545e-05)
(-0.000182708 -0.00183979 -9.53539e-05)
(-2.16629e-05 -0.00184872 -9.53537e-05)
(0.000139545 -0.00184357 -9.53554e-05)
(0.000299691 -0.00182439 -9.53571e-05)
(0.000457555 -0.00179133 -9.53592e-05)
(0.000611936 -0.00174463 -9.53592e-05)
(0.000761663 -0.00168466 -9.5357e-05)
(0.000905594 -0.00161187 -9.53552e-05)
(0.00104263 -0.00152681 -9.53545e-05)
(0.00117174 -0.00143013 -9.53543e-05)
(0.00129192 -0.00132256 -9.53555e-05)
(0.00140227 -0.00120493 -9.53562e-05)
(0.00150195 -0.00107813 -9.53563e-05)
(0.0015902 -0.000943124 -9.53558e-05)
(0.00166635 -0.000800939 -9.5355e-05)
(0.00172982 -0.000652659 -9.53566e-05)
(0.00178012 -0.000499413 -9.53557e-05)
(0.00181687 -0.000342364 -9.53546e-05)
(0.00183979 -0.000182708 -9.53539e-05)
(0.00184872 -2.16628e-05 -9.53538e-05)
(0.00184357 0.000139545 -9.53555e-05)
(0.00182439 0.000299691 -9.53572e-05)
(0.00179133 0.000457555 -9.53593e-05)
(0.00174463 0.000611936 -9.53594e-05)
(0.00168466 0.000761663 -9.53571e-05)
(0.00161187 0.000905594 -9.53554e-05)
(0.00152681 0.00104263 -9.53546e-05)
(0.00143013 0.00117174 -9.53545e-05)
(0.00132256 0.00129192 -9.53557e-05)
(0.00120493 0.00140227 -9.53563e-05)
(0.00107813 0.00150195 -9.53564e-05)
(0.000943124 0.0015902 -9.53559e-05)
(0.000800939 0.00166635 -9.53551e-05)
(0.000652659 0.00172982 -9.53567e-05)
(0.000499413 0.00178012 -9.53558e-05)
(0.000342363 0.00181687 -9.53546e-05)
(0.000182708 0.00183979 -9.5354e-05)
(2.16628e-05 0.00184872 -9.53539e-05)
(-0.000139545 0.00184357 -9.53556e-05)
(-0.000299691 0.00182439 -9.53573e-05)
(-0.000457555 0.00179133 -9.53594e-05)
(-0.000611936 0.00174463 -9.53595e-05)
(-0.000761663 0.00168466 -9.53572e-05)
(-0.000905594 0.00161187 -9.53554e-05)
(-0.00104263 0.00152681 -9.53547e-05)
(-0.00117174 0.00143013 -9.53545e-05)
(-0.00129192 0.00132256 -9.53557e-05)
(-0.00140227 0.00120493 -9.53564e-05)
(-0.00150195 0.00107813 -9.53565e-05)
(-0.0015902 0.000943124 -9.53559e-05)
(-0.00166635 0.000800939 -9.53551e-05)
(-0.00222427 0.000712147 -0.000493663)
(-0.00227787 0.000515579 -0.000493662)
(-0.00231414 0.000315087 -0.000493664)
(-0.00233279 0.000112198 -0.000493664)
(-0.0023337 -9.15469e-05 -0.000493665)
(-0.00231684 -0.000294594 -0.000493661)
(-0.00228234 -0.000495397 -0.000493655)
(-0.00223048 -0.000692431 -0.000493655)
(-0.00216165 -0.000884196 -0.000493654)
(-0.00207636 -0.00106923 -0.000493655)
(-0.00197527 -0.00124613 -0.000493654)
(-0.00185914 -0.00141354 -0.000493658)
(-0.00172887 -0.0015702 -0.000493658)
(-0.00158544 -0.0017149 -0.000493658)
(-0.00142994 -0.00184656 -0.000493658)
(-0.00126356 -0.00196416 -0.000493657)
(-0.00108757 -0.00206681 -0.000493662)
(-0.000903294 -0.00215374 -0.000493664)
(-0.000712147 -0.00222427 -0.000493663)
(-0.000515579 -0.00227787 -0.000493662)
(-0.000315087 -0.00231414 -0.000493664)
(-0.000112198 -0.00233279 -0.000493664)
(9.1547e-05 -0.0023337 -0.000493665)
(0.000294594 -0.00231684 -0.000493661)
(0.000495397 -0.00228234 -0.000493655)
(0.00069243 -0.00223048 -0.000493655)
(0.000884195 -0.00216165 -0.000493654)
(0.00106923 -0.00207636 -0.000493655)
(0.00124613 -0.00197527 -0.000493654)
(0.00141354 -0.00185914 -0.000493658)
(0.0015702 -0.00172887 -0.000493658)
(0.0017149 -0.00158544 -0.000493657)
(0.00184656 -0.00142994 -0.000493658)
(0.00196416 -0.00126356 -0.000493657)
(0.00206681 -0.00108757 -0.000493662)
(0.00215374 -0.000903294 -0.000493664)
(0.00222427 -0.000712147 -0.000493663)
(0.00227787 -0.000515579 -0.000493662)
(0.00231414 -0.000315087 -0.000493664)
(0.00233279 -0.000112198 -0.000493664)
(0.0023337 9.15471e-05 -0.000493665)
(0.00231684 0.000294594 -0.000493661)
(0.00228234 0.000495397 -0.000493655)
(0.00223048 0.000692431 -0.000493655)
(0.00216165 0.000884195 -0.000493654)
(0.00207636 0.00106923 -0.000493655)
(0.00197527 0.00124613 -0.000493655)
(0.00185914 0.00141354 -0.000493659)
(0.00172887 0.0015702 -0.000493658)
(0.00158544 0.0017149 -0.000493658)
(0.00142994 0.00184656 -0.000493658)
(0.00126356 0.00196416 -0.000493657)
(0.00108757 0.00206681 -0.000493662)
(0.000903294 0.00215374 -0.000493664)
(0.000712147 0.00222427 -0.000493663)
(0.000515579 0.00227787 -0.000493663)
(0.000315087 0.00231414 -0.000493664)
(0.000112198 0.00233279 -0.000493664)
(-9.15471e-05 0.0023337 -0.000493665)
(-0.000294594 0.00231684 -0.000493661)
(-0.000495397 0.00228234 -0.000493655)
(-0.000692431 0.00223048 -0.000493655)
(-0.000884195 0.00216165 -0.000493654)
(-0.00106923 0.00207636 -0.000493655)
(-0.00124613 0.00197527 -0.000493655)
(-0.00141354 0.00185914 -0.000493659)
(-0.0015702 0.00172887 -0.000493658)
(-0.0017149 0.00158544 -0.000493658)
(-0.00184656 0.00142994 -0.000493658)
(-0.00196416 0.00126356 -0.000493657)
(-0.00206681 0.00108757 -0.000493662)
(-0.00215374 0.000903294 -0.000493664)
(-0.00239632 0.000931415 -0.000321493)
(-0.00246838 0.000719018 -0.000321493)
(-0.00252165 0.000501148 -0.000321494)
(-0.00255573 0.000279465 -0.000321494)
(-0.00257036 5.56535e-05 -0.000321494)
(-0.00256543 -0.000168581 -0.000321493)
(-0.00254098 -0.00039153 -0.000321491)
(-0.00249718 -0.0006115 -0.000321491)
(-0.00243439 -0.000826817 -0.00032149)
(-0.00235306 -0.00103584 -0.00032149)
(-0.00225383 -0.00123698 -0.000321491)
(-0.00213744 -0.00142871 -0.000321491)
(-0.00200479 -0.00160956 -0.000321491)
(-0.00185688 -0.00177817 -0.00032149)
(-0.00169483 -0.00193324 -0.000321491)
(-0.00151989 -0.0020736 -0.000321492)
(-0.00133338 -0.00219817 -0.000321493)
(-0.00113672 -0.00230602 -0.000321492)
(-0.000931415 -0.00239632 -0.000321493)
(-0.000719018 -0.00246838 -0.000321493)
(-0.000501148 -0.00252165 -0.000321494)
(-0.000279465 -0.00255573 -0.000321494)
(-5.56535e-05 -0.00257036 -0.000321494)
(0.000168581 -0.00256543 -0.000321493)
(0.00039153 -0.00254098 -0.000321491)
(0.0006115 -0.00249718 -0.000321491)
(0.000826817 -0.00243439 -0.00032149)
(0.00103584 -0.00235306 -0.00032149)
(0.00123698 -0.00225383 -0.000321491)
(0.00142871 -0.00213744 -0.000321491)
(0.00160956 -0.00200479 -0.000321491)
(0.00177817 -0.00185688 -0.00032149)
(0.00193324 -0.00169483 -0.000321491)
(0.0020736 -0.00151989 -0.000321492)
(0.00219817 -0.00133338 -0.000321493)
(0.00230602 -0.00113672 -0.000321492)
(0.00239632 -0.000931415 -0.000321493)
(0.00246838 -0.000719018 -0.000321493)
(0.00252165 -0.000501148 -0.000321494)
(0.00255573 -0.000279465 -0.000321494)
(0.00257036 -5.56534e-05 -0.000321494)
(0.00256543 0.000168581 -0.000321493)
(0.00254098 0.00039153 -0.000321491)
(0.00249718 0.0006115 -0.000321491)
(0.00243439 0.000826817 -0.00032149)
(0.00235306 0.00103584 -0.00032149)
(0.00225383 0.00123698 -0.000321491)
(0.00213744 0.00142871 -0.000321491)
(0.00200479 0.00160956 -0.000321491)
(0.00185688 0.00177817 -0.000321491)
(0.00169483 0.00193324 -0.000321491)
(0.00151989 0.0020736 -0.000321492)
(0.00133338 0.00219817 -0.000321493)
(0.00113672 0.00230602 -0.000321493)
(0.000931415 0.00239632 -0.000321493)
(0.000719018 0.00246838 -0.000321493)
(0.000501148 0.00252165 -0.000321494)
(0.000279465 0.00255573 -0.000321494)
(5.56533e-05 0.00257036 -0.000321494)
(-0.000168581 0.00256543 -0.000321493)
(-0.00039153 0.00254098 -0.000321491)
(-0.0006115 0.00249718 -0.000321491)
(-0.000826817 0.00243439 -0.00032149)
(-0.00103584 0.00235306 -0.00032149)
(-0.00123698 0.00225383 -0.000321491)
(-0.00142871 0.00213744 -0.000321492)
(-0.00160956 0.00200479 -0.000321491)
(-0.00177817 0.00185688 -0.000321491)
(-0.00193324 0.00169483 -0.000321491)
(-0.0020736 0.00151989 -0.000321492)
(-0.00219817 0.00133338 -0.000321493)
(-0.00230602 0.00113672 -0.000321493)
(-0.00260929 0.00126831 -0.000163856)
(-0.0027099 0.00103607 -0.000163855)
(-0.00278989 0.000795944 -0.000163855)
(-0.00284864 0.000549759 -0.000163856)
(-0.00288572 0.000299391 -0.000163856)
(-0.00290083 4.67461e-05 -0.000163855)
(-0.00289387 -0.000206255 -0.000163856)
(-0.00286488 -0.000457687 -0.000163856)
(-0.00281409 -0.000705635 -0.000163857)
(-0.00274188 -0.000948214 -0.000163856)
(-0.00264881 -0.00118358 -0.000163856)
(-0.00253557 -0.00140993 -0.000163856)
(-0.00240304 -0.00162556 -0.000163856)
(-0.00225222 -0.00182881 -0.000163856)
(-0.00208425 -0.00201814 -0.000163856)
(-0.00190043 -0.00219212 -0.000163856)
(-0.00170214 -0.00234941 -0.000163855)
(-0.0014909 -0.00248882 -0.000163855)
(-0.00126831 -0.00260929 -0.000163855)
(-0.00103607 -0.0027099 -0.000163855)
(-0.000795944 -0.00278989 -0.000163855)
(-0.000549759 -0.00284864 -0.000163855)
(-0.000299391 -0.00288572 -0.000163856)
(-4.67461e-05 -0.00290083 -0.000163855)
(0.000206255 -0.00289387 -0.000163856)
(0.000457687 -0.00286488 -0.000163856)
(0.000705635 -0.00281409 -0.000163857)
(0.000948214 -0.00274188 -0.000163856)
(0.00118358 -0.00264881 -0.000163856)
(0.00140993 -0.00253557 -0.000163856)
(0.00162556 -0.00240304 -0.000163856)
(0.00182881 -0.00225222 -0.000163856)
(0.00201814 -0.00208425 -0.000163856)
(0.00219212 -0.00190043 -0.000163856)
(0.00234941 -0.00170214 -0.000163855)
(0.00248882 -0.0014909 -0.000163855)
(0.00260929 -0.00126831 -0.000163855)
(0.0027099 -0.00103607 -0.000163855)
(0.00278989 -0.000795944 -0.000163855)
(0.00284864 -0.000549759 -0.000163855)
(0.00288572 -0.000299391 -0.000163856)
(0.00290083 -4.67461e-05 -0.000163855)
(0.00289387 0.000206255 -0.000163856)
(0.00286488 0.000457687 -0.000163856)
(0.00281409 0.000705635 -0.000163857)
(0.00274188 0.000948214 -0.000163856)
(0.00264881 0.00118358 -0.000163856)
(0.00253557 0.00140993 -0.000163856)
(0.00240304 0.00162556 -0.000163856)
(0.00225222 0.00182881 -0.000163856)
(0.00208425 0.00201814 -0.000163856)
(0.00190043 0.00219212 -0.000163856)
(0.00170214 0.00234941 -0.000163856)
(0.0014909 0.00248882 -0.000163855)
(0.00126831 0.00260929 -0.000163856)
(0.00103607 0.0027099 -0.000163855)
(0.000795944 0.00278989 -0.000163855)
(0.000549759 0.00284864 -0.000163856)
(0.000299391 0.00288572 -0.000163856)
(4.6746e-05 0.00290083 -0.000163855)
(-0.000206255 0.00289387 -0.000163856)
(-0.000457687 0.00286488 -0.000163856)
(-0.000705635 0.00281409 -0.000163857)
(-0.000948214 0.00274188 -0.000163856)
(-0.00118358 0.00264881 -0.000163856)
(-0.00140993 0.00253557 -0.000163856)
(-0.00162556 0.00240304 -0.000163856)
(-0.00182881 0.00225222 -0.000163856)
(-0.00201814 0.00208425 -0.000163856)
(-0.00219212 0.00190043 -0.000163856)
(-0.00234941 0.00170214 -0.000163856)
(-0.00248882 0.0014909 -0.000163855)
(-0.00244121 0.0011635 -0.000727297)
(-0.00253333 0.000946311 -0.000727299)
(-0.00260616 0.000721917 -0.000727302)
(-0.00265916 0.000492028 -0.000727301)
(-0.00269193 0.000258392 -0.0007273)
(-0.0027042 2.27912e-05 -0.000727299)
(-0.0026959 -0.000212982 -0.000727295)
(-0.00266708 -0.000447135 -0.000727294)
(-0.00261796 -0.000677884 -0.000727294)
(-0.00254892 -0.000903476 -0.000727298)
(-0.00246047 -0.00112219 -0.000727296)
(-0.00235331 -0.00133236 -0.000727296)
(-0.00222823 -0.0015324 -0.000727294)
(-0.00208619 -0.00172077 -0.000727294)
(-0.00192828 -0.00189605 -0.000727295)
(-0.00175569 -0.00205689 -0.000727295)
(-0.00156974 -0.00220208 -0.000727296)
(-0.00137184 -0.00233051 -0.000727297)
(-0.0011635 -0.00244121 -0.000727297)
(-0.000946311 -0.00253333 -0.000727299)
(-0.000721917 -0.00260616 -0.000727302)
(-0.000492028 -0.00265916 -0.000727301)
(-0.000258392 -0.00269193 -0.0007273)
(-2.27913e-05 -0.0027042 -0.000727299)
(0.000212982 -0.0026959 -0.000727294)
(0.000447135 -0.00266708 -0.000727294)
(0.000677884 -0.00261796 -0.000727294)
(0.000903475 -0.00254892 -0.000727298)
(0.00112219 -0.00246047 -0.000727296)
(0.00133236 -0.00235331 -0.000727296)
(0.0015324 -0.00222823 -0.000727294)
(0.00172077 -0.00208619 -0.000727294)
(0.00189605 -0.00192828 -0.000727295)
(0.00205689 -0.00175569 -0.000727295)
(0.00220208 -0.00156974 -0.000727296)
(0.00233051 -0.00137184 -0.000727297)
(0.00244121 -0.0011635 -0.000727297)
(0.00253333 -0.000946311 -0.000727299)
(0.00260616 -0.000721917 -0.000727302)
(0.00265916 -0.000492027 -0.000727301)
(0.00269193 -0.000258392 -0.0007273)
(0.0027042 -2.27912e-05 -0.000727299)
(0.0026959 0.000212982 -0.000727295)
(0.00266708 0.000447135 -0.000727294)
(0.00261796 0.000677884 -0.000727294)
(0.00254892 0.000903476 -0.000727298)
(0.00246047 0.00112219 -0.000727296)
(0.00235331 0.00133236 -0.000727296)
(0.00222823 0.0015324 -0.000727295)
(0.00208619 0.00172077 -0.000727295)
(0.00192828 0.00189605 -0.000727295)
(0.00175569 0.00205689 -0.000727295)
(0.00156974 0.00220208 -0.000727297)
(0.00137184 0.00233051 -0.000727297)
(0.0011635 0.00244121 -0.000727297)
(0.000946311 0.00253333 -0.000727299)
(0.000721917 0.00260616 -0.000727302)
(0.000492027 0.00265916 -0.000727301)
(0.000258392 0.00269193 -0.0007273)
(2.27912e-05 0.0027042 -0.000727299)
(-0.000212982 0.0026959 -0.000727295)
(-0.000447135 0.00266708 -0.000727294)
(-0.000677884 0.00261796 -0.000727294)
(-0.000903476 0.00254892 -0.000727298)
(-0.00112219 0.00246047 -0.000727296)
(-0.00133236 0.00235331 -0.000727296)
(-0.0015324 0.00222823 -0.000727295)
(-0.00172077 0.00208619 -0.000727295)
(-0.00189605 0.00192828 -0.000727295)
(-0.00205689 0.00175569 -0.000727295)
(-0.00220208 0.00156974 -0.000727297)
(-0.00233051 0.00137184 -0.000727297)
(-0.00267721 0.00156574 -0.000525606)
(-0.00280348 0.00132645 -0.000525607)
(-0.00290842 0.00107706 -0.000525608)
(-0.00299123 0.00081948 -0.000525609)
(-0.00305126 0.000555659 -0.000525609)
(-0.00308808 0.000287609 -0.000525607)
(-0.0031014 1.73693e-05 -0.000525605)
(-0.00309111 -0.000253001 -0.000525604)
(-0.0030573 -0.000521445 -0.000525604)
(-0.00300022 -0.000785922 -0.000525605)
(-0.0029203 -0.00104442 -0.000525605)
(-0.00281816 -0.00129496 -0.000525605)
(-0.00269458 -0.00153566 -0.000525605)
(-0.00255048 -0.00176466 -0.000525604)
(-0.00238697 -0.00198023 -0.000525604)
(-0.0022053 -0.00218074 -0.000525605)
(-0.00200685 -0.00236464 -0.000525606)
(-0.00179312 -0.00253055 -0.000525605)
(-0.00156574 -0.00267721 -0.000525606)
(-0.00132645 -0.00280348 -0.000525607)
(-0.00107706 -0.00290842 -0.000525608)
(-0.00081948 -0.00299122 -0.000525609)
(-0.000555659 -0.00305126 -0.000525609)
(-0.000287609 -0.00308808 -0.000525606)
(-1.73694e-05 -0.0031014 -0.000525604)
(0.000253001 -0.00309111 -0.000525604)
(0.000521445 -0.0030573 -0.000525604)
(0.000785922 -0.00300022 -0.000525605)
(0.00104442 -0.0029203 -0.000525606)
(0.00129496 -0.00281816 -0.000525606)