/*--------------------------------*- C++ -*----------------------------------*\
| =========                 |                                                 |
| \\      /  F ield         | OpenFOAM: The Open Source CFD Toolbox           |
|  \\    /   O peration     | Version:  2312                                  |
|   \\  /    A nd           | Website:  www.openfoam.com                      |
|    \\/     M anipulation  |                                                 |
\*---------------------------------------------------------------------------*/
FoamFile
{
    version     2.0;
    format      ascii;
    arch        "LSB;label=32;scalar=64";
    class       volVectorField;
    location    "1";
    object      D_0;
}
// * * * * * * * * * * * * * * * * * * * * * * * * * * * * * * * * * * * * * //

dimensions      [0 1 0 0 0 0 0];

internalField   nonuniform List<vector> 
3240
(
(-0.00060767 0.000189857 -0.000105382)
(-0.000621904 0.000136174 -0.00010538)
(-0.000631404 8.1452e-05 -0.000105383)
(-0.0006361 2.61087e-05 -0.000105384)
(-0.000635957 -2.9432e-05 -0.000105384)
(-0.000630972 -8.47473e-05 -0.000105383)
(-0.000621185 -0.000139416 -0.000105379)
(-0.00060667 -0.000193023 -0.000105379)
(-0.000587539 -0.000245161 -0.00010538)
(-0.000563936 -0.000295435 -0.000105382)
(-0.000536041 -0.000343462 -0.000105384)
(-0.000504066 -0.000388877 -0.000105385)
(-0.000468255 -0.000431331 -0.000105383)
(-0.000428881 -0.000470501 -0.000105381)
(-0.000386243 -0.000506086 -0.000105379)
(-0.000340665 -0.000537823 -0.000105381)
(-0.000292493 -0.000565469 -0.000105384)
(-0.000242096 -0.00058881 -0.000105382)
(-0.000189857 -0.00060767 -0.000105382)
(-0.000136174 -0.000621904 -0.00010538)
(-8.1452e-05 -0.000631404 -0.000105383)
(-2.61087e-05 -0.0006361 -0.000105384)
(2.9432e-05 -0.000635957 -0.000105384)
(8.47473e-05 -0.000630972 -0.000105383)
(0.000139416 -0.000621185 -0.000105379)
(0.000193023 -0.00060667 -0.000105379)
(0.000245161 -0.000587539 -0.00010538)
(0.000295435 -0.000563936 -0.000105382)
(0.000343462 -0.000536041 -0.000105384)
(0.000388877 -0.000504066 -0.000105385)
(0.000431331 -0.000468255 -0.000105383)
(0.000470501 -0.000428881 -0.000105381)
(0.000506086 -0.000386243 -0.000105379)
(0.000537823 -0.000340665 -0.000105381)
(0.000565469 -0.000292493 -0.000105384)
(0.00058881 -0.000242096 -0.000105382)
(0.00060767 -0.000189857 -0.000105382)
(0.000621904 -0.000136174 -0.00010538)
(0.000631404 -8.1452e-05 -0.000105383)
(0.0006361 -2.61087e-05 -0.000105384)
(0.000635957 2.9432e-05 -0.000105384)
(0.000630972 8.47473e-05 -0.000105383)
(0.000621185 0.000139416 -0.000105379)
(0.00060667 0.000193023 -0.000105379)
(0.000587539 0.000245161 -0.000105381)
(0.000563936 0.000295435 -0.000105382)
(0.000536041 0.000343462 -0.000105384)
(0.000504066 0.000388877 -0.000105385)
(0.000468255 0.000431331 -0.000105383)
(0.000428881 0.000470501 -0.000105381)
(0.000386243 0.000506086 -0.000105379)
(0.000340665 0.000537823 -0.000105381)
(0.000292493 0.000565469 -0.000105384)
(0.000242096 0.00058881 -0.000105382)
(0.000189857 0.00060767 -0.000105382)
(0.000136174 0.000621904 -0.00010538)
(8.1452e-05 0.000631404 -0.000105383)
(2.61087e-05 0.0006361 -0.000105384)
(-2.9432e-05 0.000635957 -0.000105384)
(-8.47473e-05 0.000630972 -0.000105383)
(-0.000139416 0.000621185 -0.000105379)
(-0.000193023 0.00060667 -0.000105379)
(-0.000245161 0.000587539 -0.000105381)
(-0.000295435 0.000563936 -0.000105382)
(-0.000343462 0.000536041 -0.000105384)
(-0.000388877 0.000504066 -0.000105385)
(-0.000431331 0.000468255 -0.000105383)
(-0.000470501 0.000428881 -0.000105381)
(-0.000506086 0.000386243 -0.000105379)
(-0.000537823 0.000340665 -0.000105381)
(-0.000565469 0.000292493 -0.000105384)
(-0.00058881 0.000242096 -0.000105382)
(-0.000582683 6.0856e-05 -0.000121721)
(-0.000585769 9.84083e-06 -0.00012172)
(-0.000584398 -4.12506e-05 -0.000121722)
(-0.000578579 -9.20286e-05 -0.000121721)
(-0.000568356 -0.000142106 -0.000121722)
(-0.000553808 -0.000191101 -0.000121722)
(-0.000535044 -0.000238641 -0.000121721)
(-0.00051221 -0.000284363 -0.00012172)
(-0.000485478 -0.000327921 -0.000121721)
(-0.000455051 -0.000368985 -0.000121722)
(-0.000421161 -0.000407242 -0.000121722)
(-0.000384065 -0.0004424 -0.000121722)
(-0.000344045 -0.000474192 -0.000121721)
(-0.000301407 -0.000502372 -0.000121721)
(-0.000256476 -0.000526728 -0.000121721)
(-0.000209593 -0.000547077 -0.000121721)
(-0.000161113 -0.000563263 -0.000121722)
(-0.000111409 -0.000575161 -0.000121721)
(-6.08559e-05 -0.000582683 -0.000121721)
(-9.84081e-06 -0.000585769 -0.00012172)
(4.12507e-05 -0.000584398 -0.000121722)
(9.20286e-05 -0.000578579 -0.000121721)
(0.000142106 -0.000568356 -0.000121722)
(0.000191101 -0.000553808 -0.000121722)
(0.00023864 -0.000535044 -0.000121721)
(0.000284363 -0.00051221 -0.00012172)
(0.000327921 -0.000485478 -0.000121721)
(0.000368985 -0.000455051 -0.000121722)
(0.000407242 -0.000421161 -0.000121722)
(0.0004424 -0.000384065 -0.000121722)
(0.000474192 -0.000344045 -0.000121721)
(0.000502372 -0.000301407 -0.000121721)
(0.000526728 -0.000256476 -0.000121721)
(0.000547077 -0.000209593 -0.000121721)
(0.000563263 -0.000161113 -0.000121722)
(0.000575161 -0.000111409 -0.000121721)
(0.000582683 -6.08559e-05 -0.000121721)
(0.000585769 -9.84079e-06 -0.000121721)
(0.000584398 4.12507e-05 -0.000121722)
(0.000578579 9.20286e-05 -0.000121721)
(0.000568356 0.000142106 -0.000121722)
(0.000553808 0.000191101 -0.000121722)
(0.000535044 0.00023864 -0.000121721)
(0.00051221 0.000284363 -0.00012172)
(0.000485478 0.000327921 -0.000121721)
(0.000455051 0.000368985 -0.000121722)
(0.000421161 0.000407242 -0.000121722)
(0.000384065 0.0004424 -0.000121722)
(0.000344045 0.000474192 -0.000121721)
(0.000301407 0.000502372 -0.000121721)
(0.000256476 0.000526728 -0.000121721)
(0.000209593 0.000547077 -0.000121721)
(0.000161113 0.000563263 -0.000121722)
(0.000111409 0.000575161 -0.000121721)
(6.08559e-05 0.000582683 -0.000121721)
(9.8408e-06 0.000585769 -0.000121721)
(-4.12507e-05 0.000584398 -0.000121722)
(-9.20286e-05 0.000578579 -0.000121721)
(-0.000142106 0.000568356 -0.000121722)
(-0.000191101 0.000553808 -0.000121722)
(-0.00023864 0.000535044 -0.000121721)
(-0.000284363 0.00051221 -0.00012172)
(-0.000327921 0.000485478 -0.000121721)
(-0.000368985 0.000455051 -0.000121722)
(-0.000407242 0.000421161 -0.000121722)
(-0.0004424 0.000384065 -0.000121722)
(-0.000474192 0.000344045 -0.000121721)
(-0.000502372 0.000301407 -0.000121721)
(-0.000526728 0.000256476 -0.000121721)
(-0.000547077 0.000209593 -0.000121721)
(-0.000563263 0.000161113 -0.000121722)
(-0.000575161 0.000111409 -0.000121721)
(-0.000549283 0.000186955 -9.57224e-05)
(-0.000563487 0.000138371 -9.57222e-05)
(-0.000573403 8.87323e-05 -9.57213e-05)
(-0.000578955 3.84184e-05 -9.57213e-05)
(-0.000580101 -1.21873e-05 -9.57221e-05)
(-0.00057683 -6.26995e-05 -9.57228e-05)
(-0.000569168 -0.000112735 -9.57231e-05)
(-0.000557178 -0.000161911 -9.57244e-05)
(-0.000540948 -0.000209855 -9.57243e-05)
(-0.000520601 -0.000256203 -9.57248e-05)
(-0.00049629 -0.000300602 -9.57233e-05)
(-0.000468203 -0.000342713 -9.5722e-05)
(-0.000436551 -0.000382217 -9.57207e-05)
(-0.000401578 -0.000418811 -9.57216e-05)
(-0.000363547 -0.000452216 -9.57228e-05)
(-0.000322751 -0.00048218 -9.57231e-05)
(-0.000279497 -0.000508473 -9.57224e-05)
(-0.000234117 -0.000530899 -9.57222e-05)
(-0.000186955 -0.000549283 -9.57224e-05)
(-0.000138371 -0.000563487 -9.57222e-05)
(-8.87323e-05 -0.000573403 -9.57213e-05)
(-3.84184e-05 -0.000578955 -9.57213e-05)
(1.21872e-05 -0.000580101 -9.57221e-05)
(6.26994e-05 -0.00057683 -9.57228e-05)
(0.000112735 -0.000569168 -9.57232e-05)
(0.000161911 -0.000557178 -9.57244e-05)
(0.000209855 -0.000540948 -9.57244e-05)
(0.000256203 -0.000520601 -9.57248e-05)
(0.000300602 -0.00049629 -9.57233e-05)
(0.000342713 -0.000468203 -9.57221e-05)
(0.000382217 -0.000436551 -9.57208e-05)
(0.000418811 -0.000401578 -9.57216e-05)
(0.000452216 -0.000363547 -9.57228e-05)
(0.00048218 -0.000322751 -9.57231e-05)
(0.000508473 -0.000279497 -9.57224e-05)
(0.000530899 -0.000234117 -9.57222e-05)
(0.000549283 -0.000186955 -9.57225e-05)
(0.000563487 -0.000138371 -9.57222e-05)
(0.000573403 -8.87323e-05 -9.57214e-05)
(0.000578955 -3.84184e-05 -9.57213e-05)
(0.000580101 1.21873e-05 -9.57221e-05)
(0.00057683 6.26994e-05 -9.57229e-05)
(0.000569168 0.000112735 -9.57232e-05)
(0.000557178 0.000161911 -9.57245e-05)
(0.000540948 0.000209855 -9.57244e-05)
(0.000520601 0.000256203 -9.57248e-05)
(0.00049629 0.000300602 -9.57234e-05)
(0.000468203 0.000342713 -9.57221e-05)
(0.000436551 0.000382217 -9.57208e-05)
(0.000401578 0.000418811 -9.57216e-05)
(0.000363547 0.000452216 -9.57228e-05)
(0.000322751 0.00048218 -9.57231e-05)
(0.000279497 0.000508473 -9.57224e-05)
(0.000234117 0.000530899 -9.57222e-05)
(0.000186955 0.000549283 -9.57225e-05)
(0.000138371 0.000563487 -9.57222e-05)
(8.87323e-05 0.000573403 -9.57214e-05)
(3.84184e-05 0.000578955 -9.57213e-05)
(-1.21873e-05 0.000580101 -9.57221e-05)
(-6.26994e-05 0.00057683 -9.57229e-05)
(-0.000112735 0.000569168 -9.57232e-05)
(-0.000161911 0.000557178 -9.57245e-05)
(-0.000209855 0.000540948 -9.57244e-05)
(-0.000256203 0.000520601 -9.57248e-05)
(-0.000300602 0.00049629 -9.57234e-05)
(-0.000342713 0.000468203 -9.57221e-05)
(-0.000382217 0.000436551 -9.57208e-05)
(-0.000418811 0.000401578 -9.57216e-05)
(-0.000452216 0.000363547 -9.57228e-05)
(-0.00048218 0.000322751 -9.57231e-05)
(-0.000508473 0.000279497 -9.57224e-05)
(-0.000530899 0.000234117 -9.57222e-05)
(-0.00157795 0.00044153 -0.000305225)
(-0.00161042 0.000302324 -0.000305223)
(-0.00163064 0.000160814 -0.000305228)
(-0.00163845 1.80789e-05 -0.000305231)
(-0.0016338 -0.000124793 -0.000305231)
(-0.0016167 -0.000266713 -0.000305227)
(-0.00158731 -0.000406602 -0.00030522)
(-0.00154583 -0.000543394 -0.000305217)
(-0.00149259 -0.000676049 -0.000305215)
(-0.00142799 -0.000803561 -0.000305218)
(-0.00135252 -0.000924961 -0.000305225)
(-0.00126675 -0.00103932 -0.000305229)
(-0.00117135 -0.00114578 -0.000305228)
(-0.00106703 -0.00124351 -0.000305224)
(-0.000954593 -0.00133177 -0.000305223)
(-0.000834889 -0.0014099 -0.000305223)
(-0.000708829 -0.0014773 -0.000305229)
(-0.000577376 -0.00153346 -0.000305227)
(-0.00044153 -0.00157795 -0.000305225)
(-0.000302324 -0.00161042 -0.000305223)
(-0.000160814 -0.00163064 -0.000305228)
(-1.80789e-05 -0.00163845 -0.000305231)
(0.000124793 -0.0016338 -0.000305231)
(0.000266713 -0.0016167 -0.000305227)
(0.000406602 -0.00158731 -0.000305221)
(0.000543393 -0.00154583 -0.000305217)
(0.000676049 -0.00149259 -0.000305216)
(0.000803561 -0.00142799 -0.000305219)
(0.000924961 -0.00135252 -0.000305225)
(0.00103932 -0.00126675 -0.000305229)
(0.00114578 -0.00117135 -0.000305227)
(0.00124351 -0.00106703 -0.000305224)
(0.00133177 -0.000954593 -0.000305223)
(0.0014099 -0.000834889 -0.000305223)
(0.0014773 -0.000708829 -0.000305229)
(0.00153346 -0.000577376 -0.000305227)
(0.00157795 -0.00044153 -0.000305225)
(0.00161042 -0.000302324 -0.000305223)
(0.00163064 -0.000160814 -0.000305229)
(0.00163845 -1.80788e-05 -0.000305231)
(0.0016338 0.000124794 -0.000305231)
(0.0016167 0.000266713 -0.000305227)
(0.00158731 0.000406602 -0.000305221)
(0.00154583 0.000543394 -0.000305217)
(0.00149259 0.000676049 -0.000305216)
(0.00142799 0.000803561 -0.000305219)
(0.00135252 0.000924962 -0.000305225)
(0.00126675 0.00103932 -0.000305229)
(0.00117135 0.00114578 -0.000305228)
(0.00106703 0.00124351 -0.000305224)
(0.000954593 0.00133177 -0.000305223)
(0.000834889 0.0014099 -0.000305223)
(0.000708829 0.0014773 -0.000305229)
(0.000577376 0.00153346 -0.000305227)
(0.00044153 0.00157795 -0.000305225)
(0.000302324 0.00161042 -0.000305223)
(0.000160814 0.00163064 -0.000305229)
(1.80789e-05 0.00163845 -0.000305231)
(-0.000124794 0.0016338 -0.000305231)
(-0.000266713 0.0016167 -0.000305227)
(-0.000406602 0.00158731 -0.000305221)
(-0.000543394 0.00154583 -0.000305217)
(-0.000676049 0.00149259 -0.000305216)
(-0.000803561 0.00142799 -0.000305219)
(-0.000924962 0.00135252 -0.000305225)
(-0.00103932 0.00126675 -0.000305229)
(-0.00114578 0.00117135 -0.000305228)
(-0.00124351 0.00106703 -0.000305224)
(-0.00133177 0.000954593 -0.000305223)
(-0.0014099 0.000834889 -0.000305223)
(-0.0014773 0.000708829 -0.000305229)
(-0.00153346 0.000577376 -0.000305227)
(-0.0016405 0.00040685 -0.000232906)
(-0.00166972 0.000262324 -0.000232905)
(-0.00168622 0.000115799 -0.000232906)
(-0.0016899 -3.16087e-05 -0.000232906)
(-0.00168072 -0.000178774 -0.000232906)
(-0.00165874 -0.000324578 -0.000232905)
(-0.00162414 -0.00046791 -0.000232904)
(-0.00157718 -0.00060768 -0.000232903)
(-0.00151821 -0.000742825 -0.000232902)
(-0.0014477 -0.000872319 -0.000232902)
(-0.00136616 -0.000995176 -0.000232903)
(-0.00127423 -0.00111046 -0.000232904)
(-0.00117259 -0.00121729 -0.000232905)
(-0.00106204 -0.00131486 -0.000232904)
(-0.000943399 -0.00140241 -0.000232904)
(-0.00081758 -0.0014793 -0.000232904)
(-0.000685539 -0.00154493 -0.000232906)
(-0.000548281 -0.0015988 -0.000232905)
(-0.00040685 -0.0016405 -0.000232906)
(-0.000262324 -0.00166972 -0.000232904)
(-0.000115799 -0.00168622 -0.000232906)
(3.16087e-05 -0.0016899 -0.000232906)
(0.000178774 -0.00168072 -0.000232906)
(0.000324578 -0.00165874 -0.000232905)
(0.00046791 -0.00162414 -0.000232904)
(0.00060768 -0.00157718 -0.000232903)
(0.000742825 -0.00151821 -0.000232902)
(0.000872319 -0.0014477 -0.000232902)
(0.000995176 -0.00136616 -0.000232903)
(0.00111046 -0.00127423 -0.000232904)
(0.00121729 -0.00117259 -0.000232905)
(0.00131486 -0.00106204 -0.000232904)
(0.00140241 -0.000943399 -0.000232904)
(0.0014793 -0.00081758 -0.000232904)
(0.00154493 -0.000685539 -0.000232906)
(0.0015988 -0.000548281 -0.000232905)
(0.0016405 -0.00040685 -0.000232906)
(0.00166972 -0.000262324 -0.000232905)
(0.00168622 -0.000115798 -0.000232906)
(0.0016899 3.16087e-05 -0.000232906)
(0.00168072 0.000178774 -0.000232906)
(0.00165874 0.000324578 -0.000232906)
(0.00162414 0.00046791 -0.000232904)
(0.00157718 0.00060768 -0.000232903)
(0.00151821 0.000742825 -0.000232903)
(0.0014477 0.000872319 -0.000232902)
(0.00136616 0.000995176 -0.000232903)
(0.00127423 0.00111046 -0.000232904)
(0.00117259 0.00121729 -0.000232905)
(0.00106204 0.00131486 -0.000232904)
(0.000943399 0.00140241 -0.000232904)
(0.00081758 0.0014793 -0.000232904)
(0.000685539 0.00154493 -0.000232906)
(0.000548281 0.0015988 -0.000232905)
(0.00040685 0.0016405 -0.000232906)
(0.000262324 0.00166972 -0.000232905)
(0.000115798 0.00168622 -0.000232906)
(-3.16087e-05 0.0016899 -0.000232906)
(-0.000178774 0.00168072 -0.000232906)
(-0.000324578 0.00165874 -0.000232906)
(-0.00046791 0.00162414 -0.000232904)
(-0.00060768 0.00157718 -0.000232903)
(-0.000742825 0.00151821 -0.000232903)
(-0.000872319 0.0014477 -0.000232902)
(-0.000995176 0.00136616 -0.000232903)
(-0.00111046 0.00127423 -0.000232904)
(-0.00121729 0.00117259 -0.000232905)
(-0.00131486 0.00106204 -0.000232904)
(-0.00140241 0.000943399 -0.000232904)
(-0.0014793 0.00081758 -0.000232904)
(-0.00154493 0.000685539 -0.000232906)
(-0.0015988 0.000548281 -0.000232905)
(-0.00171336 0.00065768 -9.75014e-05)
(-0.00176416 0.000505849 -9.75005e-05)
(-0.00180153 0.000350166 -9.74993e-05)
(-0.0018252 0.000191818 -9.74987e-05)
(-0.00183497 3.20097e-05 -9.74985e-05)
(-0.00183078 -0.00012804 -9.75001e-05)
(-0.00181265 -0.000287115 -9.75018e-05)
(-0.00178073 -0.000444003 -9.75038e-05)
(-0.00173526 -0.000597512 -9.75038e-05)
(-0.00167658 -0.000746476 -9.75016e-05)
(-0.00160514 -0.00088976 -9.74999e-05)
(-0.00152149 -0.00102627 -9.74992e-05)
(-0.00142625 -0.00115498 -9.74991e-05)
(-0.00132016 -0.00127489 -9.75003e-05)
(-0.00120402 -0.00138509 -9.7501e-05)
(-0.00107872 -0.00148476 -9.75011e-05)
(-0.000945211 -0.00157313 -9.75006e-05)
(-0.000804507 -0.00164952 -9.74997e-05)
(-0.00065768 -0.00171336 -9.75013e-05)
(-0.000505849 -0.00176416 -9.75005e-05)
(-0.000350166 -0.00180153 -9.74993e-05)
(-0.000191818 -0.0018252 -9.74987e-05)
(-3.20097e-05 -0.00183497 -9.74986e-05)
(0.00012804 -0.00183078 -9.75003e-05)
(0.000287115 -0.00181265 -9.75019e-05)
(0.000444003 -0.00178073 -9.7504e-05)
(0.000597512 -0.00173526 -9.7504e-05)
(0.000746476 -0.00167658 -9.75017e-05)
(0.00088976 -0.00160514 -9.75e-05)
(0.00102627 -0.00152149 -9.74993e-05)
(0.00115498 -0.00142625 -9.74991e-05)
(0.00127489 -0.00132016 -9.75003e-05)
(0.00138509 -0.00120402 -9.7501e-05)
(0.00148476 -0.00107872 -9.75011e-05)
(0.00157313 -0.000945211 -9.75006e-05)
(0.00164952 -0.000804507 -9.74998e-05)
(0.00171336 -0.00065768 -9.75014e-05)
(0.00176416 -0.000505849 -9.75005e-05)
(0.00180153 -0.000350166 -9.74994e-05)
(0.0018252 -0.000191818 -9.74988e-05)
(0.00183497 -3.20096e-05 -9.74987e-05)
(0.00183078 0.00012804 -9.75004e-05)
(0.00181265 0.000287115 -9.7502e-05)
(0.00178073 0.000444003 -9.75041e-05)
(0.00173526 0.000597512 -9.75041e-05)
(0.00167658 0.000746476 -9.75018e-05)
(0.00160514 0.00088976 -9.75001e-05)
(0.00152149 0.00102627 -9.74994e-05)
(0.00142625 0.00115498 -9.74992e-05)
(0.00132016 0.00127489 -9.75004e-05)
(0.00120402 0.00138509 -9.75011e-05)
(0.00107872 0.00148476 -9.75012e-05)
(0.000945211 0.00157313 -9.75006e-05)
(0.000804507 0.00164952 -9.74998e-05)
(0.00065768 0.00171336 -9.75014e-05)
(0.000505849 0.00176416 -9.75005e-05)
(0.000350166 0.00180153 -9.74994e-05)
(0.000191818 0.0018252 -9.74987e-05)
(3.20096e-05 0.00183497 -9.74986e-05)
(-0.00012804 0.00183078 -9.75003e-05)
(-0.000287115 0.00181265 -9.7502e-05)
(-0.000444003 0.00178073 -9.75041e-05)
(-0.000597512 0.00173526 -9.75041e-05)
(-0.000746476 0.00167658 -9.75018e-05)
(-0.00088976 0.00160514 -9.75001e-05)
(-0.00102627 0.00152149 -9.74994e-05)
(-0.00115498 0.00142625 -9.74992e-05)
(-0.00127489 0.00132016 -9.75004e-05)
(-0.00138509 0.00120402 -9.7501e-05)
(-0.00148476 0.00107872 -9.75011e-05)
(-0.00157313 0.000945211 -9.75006e-05)
(-0.00164952 0.000804507 -9.74998e-05)
(-0.00220759 0.000712696 -0.000499488)
(-0.00226131 0.00051758 -0.000499488)
(-0.00229781 0.000318524 -0.00049949)
(-0.00231683 0.000117044 -0.000499489)
(-0.00231821 -8.53272e-05 -0.00049949)
(-0.00230195 -0.000287049 -0.000499487)
(-0.00226818 -0.000486584 -0.000499481)
(-0.00221714 -0.000682416 -0.000499481)
(-0.00214923 -0.000873056 -0.000499479)
(-0.00206496 -0.00105705 -0.00049948)
(-0.00196497 -0.001233 -0.00049948)
(-0.00185003 -0.00139956 -0.000499484)
(-0.00172101 -0.00155548 -0.000499484)
(-0.00157889 -0.00169956 -0.000499483)
(-0.00142476 -0.0018307 -0.000499484)
(-0.00125978 -0.00194791 -0.000499483)
(-0.00108521 -0.00205029 -0.000499487)
(-0.000902387 -0.00213708 -0.000499489)
(-0.000712696 -0.00220759 -0.000499488)
(-0.00051758 -0.00226131 -0.000499488)
(-0.000318524 -0.00229781 -0.00049949)
(-0.000117044 -0.00231683 -0.000499489)
(8.53274e-05 -0.00231821 -0.000499491)
(0.000287049 -0.00230195 -0.000499487)
(0.000486584 -0.00226818 -0.000499481)
(0.000682416 -0.00221714 -0.000499481)
(0.000873055 -0.00214923 -0.000499479)
(0.00105705 -0.00206496 -0.00049948)
(0.001233 -0.00196497 -0.00049948)
(0.00139956 -0.00185003 -0.000499484)
(0.00155548 -0.00172101 -0.000499484)
(0.00169956 -0.00157889 -0.000499483)
(0.0018307 -0.00142476 -0.000499484)
(0.00194791 -0.00125978 -0.000499483)
(0.00205029 -0.00108521 -0.000499488)
(0.00213708 -0.000902387 -0.00049949)
(0.00220759 -0.000712696 -0.000499489)
(0.00226131 -0.00051758 -0.000499488)
(0.00229781 -0.000318524 -0.00049949)
(0.00231683 -0.000117044 -0.00049949)
(0.00231821 8.53275e-05 -0.000499491)
(0.00230195 0.000287049 -0.000499487)
(0.00226818 0.000486584 -0.000499481)
(0.00221714 0.000682416 -0.000499481)
(0.00214923 0.000873055 -0.00049948)
(0.00206496 0.00105705 -0.000499481)
(0.00196497 0.001233 -0.00049948)
(0.00185003 0.00139956 -0.000499484)
(0.00172101 0.00155548 -0.000499484)
(0.00157889 0.00169956 -0.000499483)
(0.00142476 0.0018307 -0.000499484)
(0.00125978 0.00194791 -0.000499483)
(0.00108521 0.00205029 -0.000499488)
(0.000902387 0.00213708 -0.00049949)
(0.000712696 0.00220759 -0.000499489)
(0.00051758 0.00226131 -0.000499488)
(0.000318524 0.00229781 -0.00049949)
(0.000117044 0.00231683 -0.00049949)
(-8.53274e-05 0.00231821 -0.000499491)
(-0.000287049 0.00230195 -0.000499487)
(-0.000486584 0.00226818 -0.000499481)
(-0.000682416 0.00221714 -0.000499481)
(-0.000873055 0.00214923 -0.00049948)
(-0.00105705 0.00206496 -0.000499481)
(-0.001233 0.00196497 -0.00049948)
(-0.00139956 0.00185003 -0.000499484)
(-0.00155548 0.00172101 -0.000499484)
(-0.00169956 0.00157889 -0.000499483)
(-0.0018307 0.00142476 -0.000499484)
(-0.00194791 0.00125978 -0.000499483)
(-0.00205029 0.00108521 -0.000499487)
(-0.00213708 0.000902387 -0.000499489)
(-0.00237648 0.000934446 -0.000326671)
(-0.00244887 0.000723766 -0.000326671)
(-0.00250264 0.000507579 -0.000326672)
(-0.00253735 0.000287528 -0.000326672)
(-0.00255276 6.52881e-05 -0.000326672)
(-0.00254873 -0.000157448 -0.000326671)
(-0.00252531 -0.000378984 -0.000326669)
(-0.00248267 -0.000597636 -0.000326668)
(-0.00242114 -0.000811741 -0.000326668)
(-0.00234118 -0.00101967 -0.000326667)
(-0.0022434 -0.00121983 -0.000326668)
(-0.00212854 -0.00141072 -0.000326669)
(-0.00199749 -0.00159087 -0.000326669)
(-0.00185124 -0.0017589 -0.000326668)
(-0.0016909 -0.00191356 -0.000326669)
(-0.00151768 -0.00205365 -0.00032667)
(-0.00133292 -0.00217811 -0.00032667)
(-0.00113801 -0.00228599 -0.00032667)
(-0.000934446 -0.00237648 -0.000326671)
(-0.000723766 -0.00244887 -0.000326671)
(-0.000507579 -0.00250264 -0.000326672)
(-0.000287528 -0.00253735 -0.000326672)
(-6.52881e-05 -0.00255276 -0.000326672)
(0.000157448 -0.00254873 -0.000326671)
(0.000378984 -0.00252531 -0.000326669)
(0.000597636 -0.00248267 -0.000326668)
(0.000811741 -0.00242114 -0.000326668)
(0.00101967 -0.00234118 -0.000326668)
(0.00121983 -0.0022434 -0.000326668)
(0.00141072 -0.00212854 -0.000326669)
(0.00159087 -0.00199749 -0.000326669)
(0.0017589 -0.00185124 -0.000326668)
(0.00191356 -0.0016909 -0.000326669)
(0.00205365 -0.00151768 -0.00032667)
(0.00217811 -0.00133292 -0.000326671)
(0.00228599 -0.00113801 -0.00032667)
(0.00237648 -0.000934445 -0.000326671)
(0.00244887 -0.000723766 -0.000326671)
(0.00250264 -0.000507578 -0.000326672)
(0.00253735 -0.000287528 -0.000326672)
(0.00255276 -6.5288e-05 -0.000326672)
(0.00254873 0.000157448 -0.000326671)
(0.00252531 0.000378984 -0.000326669)
(0.00248267 0.000597636 -0.000326669)
(0.00242114 0.000811741 -0.000326668)
(0.00234118 0.00101967 -0.000326668)
(0.0022434 0.00121983 -0.000326669)
(0.00212854 0.00141072 -0.000326669)
(0.00199749 0.00159087 -0.000326669)
(0.00185124 0.0017589 -0.000326668)
(0.0016909 0.00191356 -0.000326669)
(0.00151768 0.00205365 -0.00032667)
(0.00133292 0.00217811 -0.000326671)
(0.00113801 0.00228599 -0.00032667)
(0.000934445 0.00237648 -0.000326671)
(0.000723766 0.00244887 -0.000326671)
(0.000507578 0.00250264 -0.000326672)
(0.000287528 0.00253735 -0.000326672)
(6.5288e-05 0.00255276 -0.000326672)
(-0.000157448 0.00254873 -0.000326671)
(-0.000378984 0.00252531 -0.000326669)
(-0.000597636 0.00248267 -0.000326669)
(-0.000811741 0.00242114 -0.000326668)
(-0.00101967 0.00234118 -0.000326668)
(-0.00121983 0.0022434 -0.000326669)
(-0.00141072 0.00212854 -0.000326669)
(-0.00159087 0.00199749 -0.000326669)
(-0.0017589 0.00185124 -0.000326668)
(-0.00191356 0.0016909 -0.000326669)
(-0.00205365 0.00151768 -0.00032667)
(-0.00217811 0.00133292 -0.000326671)
(-0.00228599 0.00113801 -0.00032667)
(-0.00258681 0.0012721 -0.000168335)
(-0.00268784 0.0010418 -0.000168335)
(-0.00276841 0.00080358 -0.000168335)
(-0.00282791 0.000559239 -0.000168335)
(-0.00286589 0.000310642 -0.000168336)
(-0.00288206 5.96823e-05 -0.000168335)
(-0.00287629 -0.000191732 -0.000168336)
(-0.00284864 -0.000441687 -0.000168336)
(-0.0027993 -0.000688281 -0.000168337)
(-0.00272866 -0.000929637 -0.000168336)
(-0.00263726 -0.00116392 -0.000168336)
(-0.00252578 -0.00138934 -0.000168336)
(-0.00239508 -0.00160419 -0.000168336)
(-0.00224615 -0.00180683 -0.000168336)
(-0.00208012 -0.00199572 -0.000168336)
(-0.00189827 -0.00216942 -0.000168336)
(-0.00170197 -0.00232661 -0.000168335)
(-0.00149272 -0.0024661 -0.000168335)
(-0.0012721 -0.00258681 -0.000168335)
(-0.0010418 -0.00268784 -0.000168335)
(-0.00080358 -0.00276841 -0.000168335)
(-0.000559239 -0.00282791 -0.000168335)
(-0.000310642 -0.00286589 -0.000168336)
(-5.96823e-05 -0.00288206 -0.000168335)
(0.000191732 -0.00287629 -0.000168336)
(0.000441687 -0.00284864 -0.000168336)
(0.000688281 -0.0027993 -0.000168337)
(0.000929637 -0.00272866 -0.000168336)
(0.00116392 -0.00263726 -0.000168336)
(0.00138934 -0.00252578 -0.000168336)
(0.00160419 -0.00239508 -0.000168336)
(0.00180683 -0.00224615 -0.000168336)
(0.00199572 -0.00208013 -0.000168336)
(0.00216942 -0.00189827 -0.000168336)
(0.00232661 -0.00170197 -0.000168335)
(0.0024661 -0.00149272 -0.000168335)
(0.00258681 -0.0012721 -0.000168335)
(0.00268784 -0.0010418 -0.000168335)
(0.00276841 -0.00080358 -0.000168335)
(0.00282791 -0.000559239 -0.000168336)
(0.00286589 -0.000310642 -0.000168336)
(0.00288206 -5.96823e-05 -0.000168335)
(0.00287629 0.000191732 -0.000168336)
(0.00284864 0.000441687 -0.000168336)
(0.0027993 0.000688281 -0.000168337)
(0.00272866 0.000929637 -0.000168336)
(0.00263726 0.00116392 -0.000168336)
(0.00252578 0.00138934 -0.000168336)
(0.00239508 0.00160419 -0.000168336)
(0.00224615 0.00180683 -0.000168336)
(0.00208012 0.00199572 -0.000168336)
(0.00189827 0.00216942 -0.000168336)
(0.00170197 0.00232661 -0.000168335)
(0.00149272 0.0024661 -0.000168335)
(0.0012721 0.00258681 -0.000168335)
(0.0010418 0.00268784 -0.000168335)
(0.00080358 0.00276841 -0.000168335)
(0.000559239 0.00282791 -0.000168335)
(0.000310642 0.00286589 -0.000168336)
(5.96823e-05 0.00288206 -0.000168335)
(-0.000191732 0.00287629 -0.000168336)
(-0.000441687 0.00284864 -0.000168336)
(-0.000688281 0.0027993 -0.000168337)
(-0.000929637 0.00272866 -0.000168336)
(-0.00116392 0.00263726 -0.000168336)
(-0.00138934 0.00252578 -0.000168336)
(-0.00160419 0.00239508 -0.000168336)
(-0.00180683 0.00224615 -0.000168336)
(-0.00199572 0.00208013 -0.000168336)
(-0.00216942 0.00189827 -0.000168336)
(-0.00232661 0.00170197 -0.000168335)
(-0.0024661 0.00149272 -0.000168335)
(-0.00242568 0.00116674 -0.000734648)
(-0.00251813 0.000950884 -0.00073465)
(-0.00259143 0.000727797 -0.000734653)
(-0.002645 0.000499169 -0.000734652)
(-0.00267843 0.000266742 -0.000734651)
(-0.00269149 3.2285e-05 -0.00073465)
(-0.00268406 -0.000202416 -0.000734646)
(-0.00265621 -0.000435578 -0.000734645)
(-0.00260814 -0.000665424 -0.000734645)
(-0.00254022 -0.000890206 -0.000734649)
(-0.00245297 -0.00110821 -0.000734647)
(-0.00234704 -0.00131779 -0.000734647)
(-0.00222326 -0.00151733 -0.000734646)
(-0.00208255 -0.00170532 -0.000734646)
(-0.001926 -0.00188034 -0.000734646)
(-0.00175479 -0.00204105 -0.000734646)
(-0.00157022 -0.00218622 -0.000734648)
(-0.00137371 -0.00231476 -0.000734648)
(-0.00116674 -0.00242568 -0.000734648)
(-0.000950884 -0.00251813 -0.00073465)
(-0.000727797 -0.00259143 -0.000734653)
(-0.000499169 -0.002645 -0.000734652)
(-0.000266742 -0.00267843 -0.000734651)
(-3.2285e-05 -0.00269149 -0.00073465)
(0.000202416 -0.00268406 -0.000734646)
(0.000435578 -0.00265621 -0.000734645)
(0.000665424 -0.00260814 -0.000734645)
(0.000890206 -0.00254022 -0.000734649)
(0.00110821 -0.00245296 -0.000734647)
(0.00131779 -0.00234704 -0.000734647)
(0.00151733 -0.00222326 -0.000734646)
(0.00170532 -0.00208255 -0.000734646)
(0.00188034 -0.001926 -0.000734646)
(0.00204105 -0.00175479 -0.000734646)
(0.00218622 -0.00157022 -0.000734648)
(0.00231476 -0.00137371 -0.000734648)
(0.00242568 -0.00116673 -0.000734648)
(0.00251813 -0.000950884 -0.00073465)
(0.00259143 -0.000727797 -0.000734653)
(0.002645 -0.000499169 -0.000734653)
(0.00267843 -0.000266742 -0.000734652)
(0.00269149 -3.22849e-05 -0.00073465)
(0.00268406 0.000202416 -0.000734646)
(0.00265621 0.000435578 -0.000734645)
(0.00260814 0.000665424 -0.000734645)
(0.00254022 0.000890206 -0.000734649)
(0.00245297 0.00110821 -0.000734648)
(0.00234704 0.00131779 -0.000734647)
(0.00222326 0.00151733 -0.000734646)
(0.00208255 0.00170532 -0.000734646)
(0.001926 0.00188034 -0.000734646)
(0.00175479 0.00204105 -0.000734646)
(0.00157022 0.00218622 -0.000734648)
(0.00137371 0.00231476 -0.000734649)
(0.00116674 0.00242568 -0.000734648)
(0.000950884 0.00251813 -0.00073465)
(0.000727797 0.00259143 -0.000734653)
(0.000499169 0.002645 -0.000734652)
(0.000266742 0.00267844 -0.000734652)
(3.2285e-05 0.00269149 -0.00073465)
(-0.000202416 0.00268406 -0.000734646)
(-0.000435578 0.00265621 -0.000734645)
(-0.000665424 0.00260814 -0.000734645)
(-0.000890206 0.00254022 -0.000734649)
(-0.00110821 0.00245297 -0.000734647)
(-0.00131779 0.00234704 -0.000734647)
(-0.00151733 0.00222326 -0.000734646)
(-0.00170532 0.00208255 -0.000734646)
(-0.00188034 0.001926 -0.000734646)
(-0.00204105 0.00175479 -0.000734646)
(-0.00218622 0.00157022 -0.000734648)
(-0.00231476 0.00137371 -0.000734648)
(-0.00265897 0.0015678 -0.000532061)
(-0.0027855 0.00133008 -0.000532062)
(-0.00289082 0.00108225 -0.000532063)
(-0.00297414 0.000826182 -0.000532065)
(-0.00303483 0.000563824 -0.000532064)
(-0.00307242 0.000297175 -0.000532062)
(-0.00308663 2.82637e-05 -0.00053206)
(-0.00307735 -0.000240861 -0.000532059)
(-0.00304465 -0.000508152 -0.000532059)
(-0.00298877 -0.000771577 -0.00053206)
(-0.00291015 -0.00102913 -0.000532061)
(-0.00280939 -0.00127885 -0.000532061)
(-0.00268724 -0.00151884 -0.00053206)
(-0.00254463 -0.00174727 -0.00053206)
(-0.00238267 -0.0019624 -0.00053206)
(-0.00220257 -0.00216259 -0.000532061)
(-0.0020057 -0.00234633 -0.000532061)
(-0.00179357 -0.00251221 -0.000532061)
(-0.0015678 -0.00265897 -0.000532061)
(-0.00133008 -0.0027855 -0.000532062)
(-0.00108225 -0.00289082 -0.000532063)
(-0.000826182 -0.00297414 -0.000532065)
(-0.000563824 -0.00303483 -0.000532064)
(-0.000297175 -0.00307242 -0.000532062)
(-2.82637e-05 -0.00308663 -0.00053206)
(0.000240861 -0.00307735 -0.000532059)
(0.000508152 -0.00304465 -0.000532059)
(0.000771577 -0.00298877 -0.000532061)
(0.00102913 -0.00291015 -0.000532061)
(0.00127885 -0.00280939 -0.000532061)
(0.00151884 -0.00268724 -0.00053206)
(0.00174727 -0.00254463 -0.00053206)