/*--------------------------------*- C++ -*----------------------------------*\
| =========                 |                                                 |
| \\      /  F ield         | OpenFOAM: The Open Source CFD Toolbox           |
|  \\    /   O peration     | Version:  2312                                  |
|   \\  /    A nd           | Website:  www.openfoam.com                      |
|    \\/     M anipulation  |                                                 |
\*---------------------------------------------------------------------------*/
FoamFile
{
    version     2.0;
    format      ascii;
    arch        "LSB;label=32;scalar=64";
    class       volVectorField;
    location    "1";
    object      D_0_0;
}
// * * * * * * * * * * * * * * * * * * * * * * * * * * * * * * * * * * * * * //

dimensions      [0 1 0 0 0 0 0];

internalField   nonuniform List<vector> 
3240
(
(-0.000603409 0.000187973 -0.000105682)
(-0.000617495 0.000134669 -0.00010568)
(-0.000626881 8.0337e-05 -0.000105684)
(-0.000631496 2.53921e-05 -0.000105685)
(-0.000631309 -2.97447e-05 -0.000105684)
(-0.000626314 -8.46536e-05 -0.000105683)
(-0.000616553 -0.000138916 -0.00010568)
(-0.000602099 -0.000192122 -0.000105679)
(-0.000583065 -0.000243865 -0.000105681)
(-0.000559592 -0.000293754 -0.000105683)
(-0.00053186 -0.000341408 -0.000105684)
(-0.000500079 -0.000386467 -0.000105685)
(-0.000464494 -0.000428583 -0.000105683)
(-0.000425373 -0.000467435 -0.000105682)
(-0.000383015 -0.000502726 -0.00010568)
(-0.000337742 -0.000534195 -0.000105682)
(-0.000289898 -0.0005616 -0.000105685)
(-0.000239849 -0.00058473 -0.000105682)
(-0.000187973 -0.000603409 -0.000105682)
(-0.000134669 -0.000617495 -0.00010568)
(-8.03369e-05 -0.000626881 -0.000105684)
(-2.53921e-05 -0.000631496 -0.000105685)
(2.97447e-05 -0.000631309 -0.000105684)
(8.46536e-05 -0.000626314 -0.000105683)
(0.000138916 -0.000616553 -0.00010568)
(0.000192122 -0.000602099 -0.000105679)
(0.000243865 -0.000583065 -0.000105681)
(0.000293754 -0.000559592 -0.000105683)
(0.000341408 -0.00053186 -0.000105684)
(0.000386467 -0.000500079 -0.000105685)
(0.000428583 -0.000464494 -0.000105683)
(0.000467435 -0.000425373 -0.000105682)
(0.000502726 -0.000383015 -0.00010568)
(0.000534195 -0.000337742 -0.000105682)
(0.0005616 -0.000289898 -0.000105685)
(0.00058473 -0.000239849 -0.000105682)
(0.000603409 -0.000187973 -0.000105682)
(0.000617495 -0.000134669 -0.00010568)
(0.000626881 -8.03369e-05 -0.000105684)
(0.000631496 -2.53921e-05 -0.000105685)
(0.000631309 2.97447e-05 -0.000105684)
(0.000626314 8.46536e-05 -0.000105683)
(0.000616553 0.000138916 -0.00010568)
(0.000602099 0.000192122 -0.000105679)
(0.000583065 0.000243865 -0.000105681)
(0.000559592 0.000293754 -0.000105683)
(0.00053186 0.000341408 -0.000105684)
(0.000500079 0.000386467 -0.000105685)
(0.000464494 0.000428583 -0.000105683)
(0.000425373 0.000467435 -0.000105682)
(0.000383015 0.000502726 -0.00010568)
(0.000337742 0.000534195 -0.000105682)
(0.000289898 0.0005616 -0.000105685)
(0.000239849 0.00058473 -0.000105682)
(0.000187973 0.000603409 -0.000105682)
(0.000134669 0.000617495 -0.00010568)
(8.03369e-05 0.000626881 -0.000105684)
(2.53921e-05 0.000631496 -0.000105685)
(-2.97446e-05 0.000631309 -0.000105684)
(-8.46536e-05 0.000626314 -0.000105683)
(-0.000138916 0.000616553 -0.00010568)
(-0.000192122 0.000602099 -0.000105679)
(-0.000243865 0.000583065 -0.000105681)
(-0.000293754 0.000559592 -0.000105683)
(-0.000341408 0.00053186 -0.000105684)
(-0.000386467 0.000500079 -0.000105685)
(-0.000428583 0.000464494 -0.000105683)
(-0.000467435 0.000425373 -0.000105682)
(-0.000502726 0.000383015 -0.00010568)
(-0.000534195 0.000337742 -0.000105682)
(-0.0005616 0.000289898 -0.000105685)
(-0.00058473 0.000239849 -0.000105682)
(-0.000577218 6.3555e-05 -0.000121218)
(-0.000580561 1.30059e-05 -0.000121217)
(-0.000579485 -3.76437e-05 -0.000121218)
(-0.000573999 -8.80072e-05 -0.000121218)
(-0.000564144 -0.000137701 -0.000121218)
(-0.000549996 -0.000186345 -0.000121218)
(-0.000531662 -0.000233571 -0.000121217)
(-0.000509282 -0.000279017 -0.000121217)
(-0.000483027 -0.000322341 -0.000121217)
(-0.000453096 -0.000363213 -0.000121219)
(-0.000419716 -0.000401321 -0.000121218)
(-0.000383142 -0.000436376 -0.000121218)
(-0.00034365 -0.00046811 -0.000121217)
(-0.000301544 -0.000496279 -0.000121217)
(-0.000257143 -0.00052067 -0.000121217)
(-0.000210785 -0.0005411 -0.000121217)
(-0.000162822 -0.000557412 -0.000121218)
(-0.000113621 -0.000569482 -0.000121218)
(-6.3555e-05 -0.000577218 -0.000121218)
(-1.30058e-05 -0.000580561 -0.000121217)
(3.76437e-05 -0.000579485 -0.000121218)
(8.80072e-05 -0.000573999 -0.000121218)
(0.000137701 -0.000564144 -0.000121218)
(0.000186345 -0.000549996 -0.000121218)
(0.000233571 -0.000531662 -0.000121218)
(0.000279017 -0.000509282 -0.000121217)
(0.000322341 -0.000483027 -0.000121217)
(0.000363213 -0.000453096 -0.000121219)
(0.000401321 -0.000419716 -0.000121218)
(0.000436376 -0.000383142 -0.000121218)
(0.00046811 -0.00034365 -0.000121217)
(0.000496279 -0.000301544 -0.000121217)
(0.00052067 -0.000257143 -0.000121217)
(0.0005411 -0.000210785 -0.000121217)
(0.000557412 -0.000162822 -0.000121218)
(0.000569482 -0.000113621 -0.000121218)
(0.000577218 -6.3555e-05 -0.000121218)
(0.000580561 -1.30058e-05 -0.000121217)
(0.000579485 3.76437e-05 -0.000121218)
(0.000573999 8.80072e-05 -0.000121218)
(0.000564144 0.000137701 -0.000121218)
(0.000549996 0.000186345 -0.000121218)
(0.000531662 0.000233571 -0.000121218)
(0.000509282 0.000279017 -0.000121217)
(0.000483027 0.000322341 -0.000121217)
(0.000453096 0.000363213 -0.000121219)
(0.000419716 0.000401321 -0.000121218)
(0.000383142 0.000436376 -0.000121218)
(0.00034365 0.00046811 -0.000121217)
(0.000301544 0.000496279 -0.000121217)
(0.000257143 0.00052067 -0.000121217)
(0.000210785 0.0005411 -0.000121217)
(0.000162822 0.000557412 -0.000121218)
(0.000113621 0.000569482 -0.000121218)
(6.3555e-05 0.000577218 -0.000121218)
(1.30059e-05 0.000580561 -0.000121217)
(-3.76437e-05 0.000579485 -0.000121218)
(-8.80072e-05 0.000573999 -0.000121218)
(-0.000137701 0.000564144 -0.000121218)
(-0.000186345 0.000549996 -0.000121218)
(-0.000233571 0.000531662 -0.000121218)
(-0.000279017 0.000509282 -0.000121217)
(-0.000322341 0.000483027 -0.000121217)
(-0.000363213 0.000453096 -0.000121219)
(-0.000401321 0.000419716 -0.000121218)
(-0.000436376 0.000383142 -0.000121218)
(-0.00046811 0.00034365 -0.000121217)
(-0.000496279 0.000301544 -0.000121217)
(-0.00052067 0.000257143 -0.000121217)
(-0.0005411 0.000210785 -0.000121217)
(-0.000557412 0.000162822 -0.000121218)
(-0.000569482 0.000113621 -0.000121218)
(-0.000543202 0.000189435 -9.51057e-05)
(-0.000557645 0.000141372 -9.51054e-05)
(-0.000567845 9.22311e-05 -9.51046e-05)
(-0.000573722 4.23884e-05 -9.51045e-05)
(-0.000575235 -7.77641e-06 -9.51053e-05)
(-0.000572367 -5.78813e-05 -9.5106e-05)
(-0.000565142 -0.000107547 -9.51064e-05)
(-0.000553619 -0.000156391 -9.51076e-05)
(-0.000537884 -0.000204046 -9.51075e-05)
(-0.000518055 -0.000250149 -9.5108e-05)
(-0.000494281 -0.000294349 -9.51065e-05)
(-0.000466747 -0.000336309 -9.51053e-05)
(-0.000435658 -0.00037571 -9.5104e-05)
(-0.000401256 -0.000412251 -9.51049e-05)
(-0.000363798 -0.000445653 -9.51061e-05)
(-0.000323573 -0.000475663 -9.51064e-05)
(-0.000280883 -0.000502054 -9.51057e-05)
(-0.000236058 -0.000524624 -9.51054e-05)
(-0.000189435 -0.000543202 -9.51057e-05)
(-0.000141372 -0.000557645 -9.51055e-05)
(-9.22311e-05 -0.000567845 -9.51046e-05)
(-4.23884e-05 -0.000573722 -9.51046e-05)
(7.7764e-06 -0.000575235 -9.51054e-05)
(5.78813e-05 -0.000572366 -9.51061e-05)
(0.000107547 -0.000565142 -9.51065e-05)
(0.000156391 -0.000553619 -9.51077e-05)
(0.000204046 -0.000537884 -9.51076e-05)
(0.000250149 -0.000518055 -9.5108e-05)
(0.000294349 -0.000494281 -9.51066e-05)
(0.000336309 -0.000466747 -9.51053e-05)
(0.00037571 -0.000435658 -9.5104e-05)
(0.000412251 -0.000401256 -9.51049e-05)
(0.000445653 -0.000363798 -9.51061e-05)
(0.000475663 -0.000323573 -9.51064e-05)
(0.000502054 -0.000280883 -9.51057e-05)
(0.000524624 -0.000236058 -9.51054e-05)
(0.000543202 -0.000189435 -9.51057e-05)
(0.000557645 -0.000141372 -9.51055e-05)
(0.000567845 -9.22311e-05 -9.51046e-05)
(0.000573722 -4.23883e-05 -9.51046e-05)
(0.000575235 7.77641e-06 -9.51054e-05)
(0.000572366 5.78813e-05 -9.51061e-05)
(0.000565142 0.000107547 -9.51065e-05)
(0.000553619 0.000156391 -9.51077e-05)
(0.000537884 0.000204046 -9.51076e-05)
(0.000518055 0.000250149 -9.5108e-05)
(0.000494281 0.000294349 -9.51066e-05)
(0.000466747 0.000336309 -9.51053e-05)
(0.000435658 0.00037571 -9.5104e-05)
(0.000401256 0.000412251 -9.51049e-05)
(0.000363798 0.000445653 -9.51061e-05)
(0.000323573 0.000475663 -9.51064e-05)
(0.000280883 0.000502054 -9.51056e-05)
(0.000236058 0.000524624 -9.51054e-05)
(0.000189435 0.000543202 -9.51057e-05)
(0.000141372 0.000557645 -9.51054e-05)
(9.22311e-05 0.000567845 -9.51046e-05)
(4.23883e-05 0.000573722 -9.51046e-05)
(-7.77642e-06 0.000575235 -9.51054e-05)
(-5.78813e-05 0.000572366 -9.51061e-05)
(-0.000107547 0.000565142 -9.51065e-05)
(-0.000156391 0.000553619 -9.51077e-05)
(-0.000204046 0.000537884 -9.51076e-05)
(-0.000250149 0.000518055 -9.5108e-05)
(-0.000294349 0.000494281 -9.51066e-05)
(-0.000336309 0.000466747 -9.51053e-05)
(-0.00037571 0.000435658 -9.5104e-05)
(-0.000412251 0.000401256 -9.51048e-05)
(-0.000445653 0.000363798 -9.51061e-05)
(-0.000475663 0.000323573 -9.51064e-05)
(-0.000502054 0.000280883 -9.51056e-05)
(-0.000524624 0.000236058 -9.51054e-05)
(-0.00156525 0.000439543 -0.00030793)
(-0.0015976 0.000301451 -0.000307929)
(-0.00161779 0.000161062 -0.000307934)
(-0.00162568 1.94453e-05 -0.000307936)
(-0.00162119 -0.000122319 -0.000307936)
(-0.00160436 -0.000263149 -0.000307933)
(-0.00157532 -0.000401975 -0.000307926)
(-0.00153429 -0.00053774 -0.000307922)
(-0.00148159 -0.000669412 -0.000307921)
(-0.00141761 -0.00079599 -0.000307924)
(-0.00134283 -0.000916514 -0.00030793)
(-0.00125784 -0.00103007 -0.000307935)
(-0.00116328 -0.00113578 -0.000307933)
(-0.00105987 -0.00123284 -0.00030793)
(-0.000948384 -0.00132052 -0.000307928)
(-0.000829684 -0.00139815 -0.000307929)
(-0.000704667 -0.00146514 -0.000307935)
(-0.00057429 -0.00152099 -0.000307933)
(-0.000439543 -0.00156525 -0.000307931)
(-0.000301451 -0.0015976 -0.000307929)
(-0.000161062 -0.00161779 -0.000307934)
(-1.94453e-05 -0.00162568 -0.000307936)
(0.000122319 -0.00162119 -0.000307937)
(0.000263149 -0.00160436 -0.000307933)
(0.000401975 -0.00157532 -0.000307926)
(0.00053774 -0.00153429 -0.000307922)
(0.000669412 -0.00148159 -0.000307921)
(0.00079599 -0.00141761 -0.000307924)
(0.000916514 -0.00134283 -0.00030793)
(0.00103007 -0.00125784 -0.000307935)
(0.00113578 -0.00116328 -0.000307933)
(0.00123284 -0.00105987 -0.00030793)
(0.00132052 -0.000948384 -0.000307928)
(0.00139815 -0.000829684 -0.000307929)
(0.00146514 -0.000704668 -0.000307935)
(0.00152099 -0.00057429 -0.000307933)
(0.00156525 -0.000439543 -0.000307931)
(0.0015976 -0.000301451 -0.000307929)
(0.00161779 -0.000161062 -0.000307934)
(0.00162568 -1.94452e-05 -0.000307936)
(0.00162119 0.000122319 -0.000307937)
(0.00160436 0.000263149 -0.000307933)
(0.00157532 0.000401975 -0.000307926)
(0.00153429 0.00053774 -0.000307922)
(0.00148159 0.000669412 -0.000307921)
(0.00141761 0.00079599 -0.000307924)
(0.00134283 0.000916514 -0.00030793)
(0.00125784 0.00103007 -0.000307935)
(0.00116328 0.00113578 -0.000307933)
(0.00105987 0.00123284 -0.00030793)
(0.000948385 0.00132052 -0.000307928)
(0.000829684 0.00139815 -0.000307929)
(0.000704668 0.00146514 -0.000307935)
(0.00057429 0.00152099 -0.000307933)
(0.000439543 0.00156525 -0.000307931)
(0.000301451 0.0015976 -0.000307929)
(0.000161062 0.00161779 -0.000307934)
(1.94453e-05 0.00162568 -0.000307936)
(-0.000122319 0.00162119 -0.000307937)
(-0.000263149 0.00160436 -0.000307933)
(-0.000401975 0.00157532 -0.000307926)
(-0.00053774 0.00153429 -0.000307922)
(-0.000669412 0.00148159 -0.000307921)
(-0.00079599 0.00141761 -0.000307924)
(-0.000916514 0.00134283 -0.00030793)
(-0.00103007 0.00125784 -0.000307935)
(-0.00113578 0.00116328 -0.000307933)
(-0.00123284 0.00105987 -0.00030793)
(-0.00132052 0.000948384 -0.000307928)
(-0.00139815 0.000829684 -0.000307929)
(-0.00146514 0.000704668 -0.000307934)
(-0.00152099 0.00057429 -0.000307933)
(-0.00162548 0.000410848 -0.000234661)
(-0.00165511 0.000267615 -0.000234659)
(-0.00167213 0.000122343 -0.000234661)
(-0.00167643 -2.38603e-05 -0.000234661)
(-0.00166797 -0.000169881 -0.000234661)
(-0.00164682 -0.000314608 -0.00023466)
(-0.00161313 -0.000456939 -0.000234659)
(-0.00156717 -0.000595792 -0.000234658)
(-0.00150928 -0.00073011 -0.000234657)
(-0.00143991 -0.000858874 -0.000234657)
(-0.00135957 -0.000981103 -0.000234658)
(-0.00126889 -0.00109587 -0.000234659)
(-0.00116855 -0.00120229 -0.00023466)
(-0.00105932 -0.00129956 -0.000234659)
(-0.00094202 -0.00138694 -0.000234659)
(-0.000817555 -0.00146376 -0.000234659)
(-0.000686869 -0.00152945 -0.000234661)
(-0.000550955 -0.00158349 -0.00023466)
(-0.000410848 -0.00162548 -0.000234661)
(-0.000267615 -0.00165511 -0.000234659)
(-0.000122343 -0.00167213 -0.000234661)
(2.38603e-05 -0.00167643 -0.000234661)
(0.000169881 -0.00166797 -0.000234661)
(0.000314608 -0.00164682 -0.00023466)
(0.000456939 -0.00161313 -0.000234659)
(0.000595792 -0.00156717 -0.000234658)
(0.00073011 -0.00150928 -0.000234657)
(0.000858874 -0.00143991 -0.000234657)
(0.000981103 -0.00135957 -0.000234658)
(0.00109587 -0.00126889 -0.000234659)
(0.00120229 -0.00116855 -0.00023466)
(0.00129956 -0.00105932 -0.000234659)
(0.00138694 -0.00094202 -0.000234659)
(0.00146376 -0.000817555 -0.000234659)
(0.00152945 -0.000686869 -0.000234661)
(0.00158349 -0.000550955 -0.00023466)
(0.00162548 -0.000410848 -0.000234661)
(0.00165511 -0.000267615 -0.000234659)
(0.00167213 -0.000122343 -0.000234661)
(0.00167643 2.38604e-05 -0.000234661)
(0.00166797 0.000169881 -0.000234661)
(0.00164682 0.000314608 -0.00023466)
(0.00161313 0.000456939 -0.000234659)
(0.00156717 0.000595792 -0.000234658)
(0.00150928 0.00073011 -0.000234657)
(0.00143991 0.000858874 -0.000234657)
(0.00135957 0.000981103 -0.000234658)
(0.00126889 0.00109587 -0.000234659)
(0.00116855 0.00120229 -0.00023466)
(0.00105932 0.00129956 -0.000234659)
(0.00094202 0.00138694 -0.000234659)
(0.000817555 0.00146376 -0.000234659)
(0.000686869 0.00152945 -0.000234661)
(0.000550955 0.00158349 -0.00023466)
(0.000410848 0.00162548 -0.000234661)
(0.000267615 0.00165511 -0.000234659)
(0.000122343 0.00167213 -0.000234661)
(-2.38603e-05 0.00167643 -0.000234661)
(-0.000169881 0.00166797 -0.000234661)
(-0.000314608 0.00164682 -0.00023466)
(-0.000456939 0.00161313 -0.000234659)
(-0.000595792 0.00156717 -0.000234658)
(-0.00073011 0.00150928 -0.000234657)
(-0.000858874 0.00143991 -0.000234657)
(-0.000981103 0.00135957 -0.000234658)
(-0.00109587 0.00126889 -0.000234659)
(-0.00120229 0.00116855 -0.000234659)
(-0.00129956 0.00105932 -0.000234659)
(-0.00138694 0.00094202 -0.000234659)
(-0.00146376 0.000817555 -0.000234659)
(-0.00152945 0.000686869 -0.000234661)
(-0.00158349 0.000550955 -0.00023466)
(-0.00169683 0.000662707 -9.95886e-05)
(-0.00174813 0.000512298 -9.95878e-05)
(-0.00178613 0.000357987 -9.95866e-05)
(-0.00181054 0.000200951 -9.9586e-05)
(-0.00182116 4.23866e-05 -9.95859e-05)
(-0.00181792 -0.000116499 -9.95875e-05)
(-0.00180085 -0.000274497 -9.95891e-05)
(-0.00177007 -0.000430405 -9.95911e-05)
(-0.00172583 -0.000583037 -9.95911e-05)
(-0.00166845 -0.000731234 -9.95889e-05)
(-0.00159837 -0.000873868 -9.95872e-05)
(-0.00151613 -0.00100985 -9.95865e-05)
(-0.00142234 -0.00113815 -9.95864e-05)
(-0.00131773 -0.00125778 -9.95876e-05)
(-0.00120309 -0.00136784 -9.95883e-05)
(-0.0010793 -0.00146749 -9.95884e-05)
(-0.000947292 -0.00155598 -9.95879e-05)
(-0.000808074 -0.00163262 -9.95871e-05)
(-0.000662707 -0.00169683 -9.95887e-05)
(-0.000512298 -0.00174813 -9.95879e-05)
(-0.000357987 -0.00178613 -9.95867e-05)
(-0.000200951 -0.00181053 -9.95861e-05)
(-4.23865e-05 -0.00182116 -9.9586e-05)
(0.000116499 -0.00181792 -9.95877e-05)
(0.000274497 -0.00180085 -9.95893e-05)
(0.000430404 -0.00177007 -9.95913e-05)
(0.000583037 -0.00172583 -9.95913e-05)
(0.000731234 -0.00166845 -9.9589e-05)
(0.000873868 -0.00159837 -9.95873e-05)
(0.00100985 -0.00151613 -9.95866e-05)
(0.00113815 -0.00142234 -9.95865e-05)
(0.00125778 -0.00131773 -9.95877e-05)
(0.00136784 -0.00120309 -9.95883e-05)
(0.00146749 -0.0010793 -9.95884e-05)
(0.00155598 -0.000947292 -9.95879e-05)
(0.00163262 -0.000808074 -9.95871e-05)
(0.00169683 -0.000662707 -9.95887e-05)
(0.00174813 -0.000512298 -9.95879e-05)
(0.00178613 -0.000357987 -9.95867e-05)
(0.00181053 -0.000200951 -9.95862e-05)
(0.00182116 -4.23865e-05 -9.95861e-05)
(0.00181792 0.000116499 -9.95877e-05)
(0.00180085 0.000274497 -9.95894e-05)
(0.00177007 0.000430404 -9.95914e-05)
(0.00172583 0.000583037 -9.95913e-05)
(0.00166845 0.000731234 -9.95891e-05)
(0.00159837 0.000873868 -9.95873e-05)
(0.00151613 0.00100985 -9.95867e-05)
(0.00142234 0.00113815 -9.95865e-05)
(0.00131773 0.00125778 -9.95877e-05)
(0.00120309 0.00136784 -9.95883e-05)
(0.0010793 0.00146749 -9.95884e-05)
(0.000947292 0.00155598 -9.95879e-05)
(0.000808074 0.00163262 -9.95871e-05)
(0.000662707 0.00169683 -9.95886e-05)
(0.000512298 0.00174813 -9.95878e-05)
(0.000357987 0.00178613 -9.95866e-05)
(0.000200951 0.00181053 -9.95861e-05)
(4.23865e-05 0.00182116 -9.95859e-05)
(-0.000116499 0.00181792 -9.95876e-05)
(-0.000274497 0.00180085 -9.95893e-05)
(-0.000430404 0.00177007 -9.95913e-05)
(-0.000583037 0.00172583 -9.95913e-05)
(-0.000731234 0.00166845 -9.9589e-05)
(-0.000873868 0.00159837 -9.95873e-05)
(-0.00100985 0.00151613 -9.95866e-05)
(-0.00113815 0.00142234 -9.95865e-05)
(-0.00125778 0.00131773 -9.95876e-05)
(-0.00136784 0.00120309 -9.95883e-05)
(-0.00146749 0.0010793 -9.95884e-05)
(-0.00155598 0.000947292 -9.95879e-05)
(-0.00163262 0.000808074 -9.95871e-05)
(-0.00219084 0.000713347 -0.00050528)
(-0.00224467 0.000519689 -0.00050528)
(-0.00228142 0.000322075 -0.000505282)
(-0.00230081 0.00012201 -0.000505281)
(-0.00230269 -7.89849e-05 -0.000505282)
(-0.00228704 -0.000279378 -0.000505279)
(-0.00225399 -0.000477643 -0.000505273)
(-0.00220379 -0.000672272 -0.000505273)
(-0.00213681 -0.000861787 -0.000505271)
(-0.00205357 -0.00104474 -0.000505272)
(-0.0019547 -0.00121974 -0.000505272)
(-0.00184095 -0.00138547 -0.000505276)
(-0.0017132 -0.00154064 -0.000505276)
(-0.0015724 -0.0016841 -0.000505275)
(-0.00141964 -0.00181473 -0.000505276)
(-0.00125607 -0.00193156 -0.000505275)
(-0.00108294 -0.00203368 -0.000505279)
(-0.000901576 -0.00212033 -0.000505281)
(-0.000713347 -0.00219084 -0.00050528)
(-0.000519689 -0.00224467 -0.00050528)
(-0.000322075 -0.00228142 -0.000505282)
(-0.00012201 -0.00230081 -0.000505281)
(7.89851e-05 -0.00230269 -0.000505283)
(0.000279378 -0.00228704 -0.000505279)
(0.000477642 -0.00225399 -0.000505273)
(0.000672272 -0.00220379 -0.000505273)
(0.000861787 -0.00213681 -0.000505272)
(0.00104474 -0.00205357 -0.000505272)
(0.00121974 -0.0019547 -0.000505272)
(0.00138547 -0.00184095 -0.000505276)
(0.00154064 -0.0017132 -0.000505276)
(0.0016841 -0.0015724 -0.000505275)
(0.00181473 -0.00141964 -0.000505276)
(0.00193156 -0.00125607 -0.000505275)
(0.00203368 -0.00108294 -0.00050528)
(0.00212033 -0.000901576 -0.000505281)
(0.00219084 -0.000713347 -0.000505281)
(0.00224467 -0.000519689 -0.00050528)
(0.00228142 -0.000322075 -0.000505282)
(0.00230081 -0.00012201 -0.000505282)
(0.00230269 7.89851e-05 -0.000505283)
(0.00228704 0.000279378 -0.000505279)
(0.00225399 0.000477643 -0.000505273)
(0.00220379 0.000672272 -0.000505273)
(0.00213681 0.000861787 -0.000505272)
(0.00205357 0.00104474 -0.000505272)
(0.0019547 0.00121974 -0.000505272)
(0.00184095 0.00138547 -0.000505276)
(0.0017132 0.00154064 -0.000505276)
(0.0015724 0.0016841 -0.000505275)
(0.00141964 0.00181473 -0.000505276)
(0.00125607 0.00193156 -0.000505275)
(0.00108294 0.00203368 -0.000505279)
(0.000901576 0.00212033 -0.000505281)
(0.000713347 0.00219084 -0.00050528)
(0.000519689 0.00224467 -0.00050528)
(0.000322075 0.00228142 -0.000505282)
(0.00012201 0.00230081 -0.000505281)
(-7.8985e-05 0.00230269 -0.000505283)
(-0.000279378 0.00228704 -0.000505279)
(-0.000477642 0.00225399 -0.000505273)
(-0.000672272 0.00220379 -0.000505273)
(-0.000861787 0.00213681 -0.000505272)
(-0.00104474 0.00205357 -0.000505272)
(-0.00121974 0.0019547 -0.000505272)
(-0.00138547 0.00184095 -0.000505276)
(-0.00154064 0.0017132 -0.000505276)
(-0.0016841 0.0015724 -0.000505275)
(-0.00181473 0.00141964 -0.000505275)
(-0.00193156 0.00125607 -0.000505275)
(-0.00203368 0.00108294 -0.000505279)
(-0.00212033 0.000901576 -0.000505281)
(-0.00235657 0.000937533 -0.000331806)
(-0.00242931 0.000728578 -0.000331806)
(-0.00248356 0.000514077 -0.000331807)
(-0.00251892 0.000295664 -0.000331807)
(-0.0025351 7.49996e-05 -0.000331806)
(-0.00253199 -0.000146235 -0.000331806)
(-0.00250961 -0.000366355 -0.000331803)
(-0.00246813 -0.000583687 -0.000331803)
(-0.00240787 -0.000796577 -0.000331802)
(-0.00232928 -0.00100341 -0.000331802)
(-0.00223296 -0.0012026 -0.000331803)
(-0.00211965 -0.00139264 -0.000331804)
(-0.00199021 -0.00157208 -0.000331804)
(-0.00184562 -0.00173955 -0.000331803)
(-0.00168699 -0.00189379 -0.000331804)
(-0.00151551 -0.00203361 -0.000331804)
(-0.0013325 -0.00215796 -0.000331805)
(-0.00113935 -0.00226589 -0.000331805)
(-0.000937533 -0.00235657 -0.000331806)
(-0.000728578 -0.00242931 -0.000331806)
(-0.000514077 -0.00248356 -0.000331807)
(-0.000295664 -0.00251892 -0.000331807)
(-7.49995e-05 -0.0025351 -0.000331806)
(0.000146235 -0.00253199 -0.000331806)
(0.000366355 -0.00250961 -0.000331803)
(0.000583687 -0.00246813 -0.000331803)
(0.000796577 -0.00240787 -0.000331803)
(0.00100341 -0.00232928 -0.000331802)
(0.0012026 -0.00223296 -0.000331803)
(0.00139264 -0.00211965 -0.000331804)
(0.00157208 -0.00199021 -0.000331804)
(0.00173955 -0.00184562 -0.000331803)
(0.00189379 -0.00168699 -0.000331804)
(0.00203361 -0.00151551 -0.000331804)
(0.00215796 -0.0013325 -0.000331805)
(0.00226589 -0.00113935 -0.000331805)
(0.00235657 -0.000937533 -0.000331806)
(0.00242931 -0.000728578 -0.000331806)
(0.00248356 -0.000514077 -0.000331807)
(0.00251892 -0.000295664 -0.000331807)
(0.0025351 -7.49994e-05 -0.000331806)
(0.00253199 0.000146235 -0.000331806)
(0.00250961 0.000366355 -0.000331803)
(0.00246813 0.000583687 -0.000331803)
(0.00240787 0.000796577 -0.000331803)
(0.00232928 0.00100341 -0.000331802)
(0.00223296 0.0012026 -0.000331803)
(0.00211965 0.00139264 -0.000331804)
(0.00199021 0.00157208 -0.000331804)
(0.00184562 0.00173955 -0.000331803)
(0.00168699 0.00189379 -0.000331804)
(0.00151551 0.00203361 -0.000331804)
(0.0013325 0.00215796 -0.000331805)
(0.00113935 0.00226589 -0.000331805)
(0.000937533 0.00235657 -0.000331806)
(0.000728578 0.00242931 -0.000331806)
(0.000514077 0.00248356 -0.000331807)
(0.000295664 0.00251892 -0.000331807)
(7.49995e-05 0.0025351 -0.000331806)
(-0.000146235 0.00253199 -0.000331806)
(-0.000366355 0.00250961 -0.000331803)
(-0.000583687 0.00246813 -0.000331803)
(-0.000796577 0.00240787 -0.000331803)
(-0.00100341 0.00232928 -0.000331802)
(-0.0012026 0.00223296 -0.000331803)
(-0.00139264 0.00211965 -0.000331804)
(-0.00157208 0.00199021 -0.000331804)
(-0.00173955 0.00184562 -0.000331803)
(-0.00189379 0.00168699 -0.000331803)
(-0.00203361 0.00151551 -0.000331804)
(-0.00215796 0.0013325 -0.000331805)
(-0.00226589 0.00113935 -0.000331805)
(-0.00256424 0.00127591 -0.000172767)
(-0.00266569 0.00104756 -0.000172766)
(-0.00274685 0.000811247 -0.000172766)
(-0.0028071 0.000568756 -0.000172767)
(-0.00284598 0.000321937 -0.000172767)
(-0.00286321 7.26687e-05 -0.000172766)
(-0.00285865 -0.000177153 -0.000172767)
(-0.00283233 -0.000425626 -0.000172767)
(-0.00278446 -0.00067086 -0.000172768)
(-0.0027154 -0.000910989 -0.000172767)
(-0.00262567 -0.00114419 -0.000172767)
(-0.00251595 -0.00136867 -0.000172767)
(-0.00238709 -0.00158275 -0.000172767)
(-0.00224006 -0.00178477 -0.000172767)
(-0.00207598 -0.00197321 -0.000172767)
(-0.00189611 -0.00214664 -0.000172767)
(-0.0017018 -0.00230373 -0.000172767)
(-0.00149454 -0.00244328 -0.000172766)
(-0.00127591 -0.00256424 -0.000172767)
(-0.00104756 -0.00266569 -0.000172766)
(-0.000811247 -0.00274685 -0.000172766)
(-0.000568756 -0.0028071 -0.000172767)
(-0.000321937 -0.00284598 -0.000172767)
(-7.26687e-05 -0.00286321 -0.000172767)
(0.000177153 -0.00285865 -0.000172767)
(0.000425626 -0.00283233 -0.000172767)
(0.00067086 -0.00278446 -0.000172768)
(0.000910989 -0.0027154 -0.000172767)
(0.00114419 -0.00262567 -0.000172767)
(0.00136867 -0.00251595 -0.000172767)
(0.00158275 -0.00238709 -0.000172767)
(0.00178477 -0.00224006 -0.000172767)
(0.00197321 -0.00207598 -0.000172767)
(0.00214664 -0.00189611 -0.000172767)
(0.00230373 -0.0017018 -0.000172767)
(0.00244328 -0.00149454 -0.000172766)
(0.00256424 -0.00127591 -0.000172767)
(0.00266569 -0.00104756 -0.000172766)
(0.00274685 -0.000811247 -0.000172766)
(0.0028071 -0.000568756 -0.000172767)
(0.00284598 -0.000321937 -0.000172767)
(0.00286321 -7.26686e-05 -0.000172767)
(0.00285865 0.000177153 -0.000172767)
(0.00283233 0.000425626 -0.000172767)
(0.00278446 0.00067086 -0.000172768)
(0.0027154 0.000910989 -0.000172767)
(0.00262567 0.00114419 -0.000172767)
(0.00251595 0.00136867 -0.000172767)
(0.00238709 0.00158275 -0.000172767)
(0.00224006 0.00178477 -0.000172767)
(0.00207598 0.00197321 -0.000172767)
(0.00189611 0.00214664 -0.000172767)
(0.0017018 0.00230373 -0.000172767)
(0.00149454 0.00244328 -0.000172766)
(0.00127591 0.00256424 -0.000172767)
(0.00104756 0.00266569 -0.000172766)
(0.000811247 0.00274685 -0.000172766)
(0.000568756 0.0028071 -0.000172766)
(0.000321937 0.00284598 -0.000172767)
(7.26687e-05 0.00286321 -0.000172766)
(-0.000177153 0.00285865 -0.000172767)
(-0.000425626 0.00283233 -0.000172767)
(-0.00067086 0.00278446 -0.000172768)
(-0.000910989 0.0027154 -0.000172767)
(-0.00114419 0.00262567 -0.000172767)
(-0.00136867 0.00251595 -0.000172767)
(-0.00158275 0.00238709 -0.000172767)
(-0.00178477 0.00224006 -0.000172767)
(-0.00197321 0.00207598 -0.000172767)
(-0.00214664 0.00189611 -0.000172767)
(-0.00230373 0.0017018 -0.000172766)
(-0.00244328 0.00149454 -0.000172766)
(-0.00241007 0.00117001 -0.000741937)
(-0.00250287 0.000955508 -0.000741939)
(-0.00257663 0.000733732 -0.000741943)
(-0.00263077 0.000506372 -0.000741942)
(-0.00266489 0.000275157 -0.000741941)
(-0.00267873 4.18484e-05 -0.00074194)
(-0.00267219 -0.000191777 -0.000741935)
(-0.0026453 -0.000423944 -0.000741934)
(-0.00259829 -0.000652884 -0.000741935)
(-0.0025315 -0.000876856 -0.000741938)
(-0.00244544 -0.00109415 -0.000741937)
(-0.00234078 -0.00130312 -0.000741937)
(-0.00221829 -0.00150218 -0.000741935)
(-0.00207893 -0.0016898 -0.000741935)
(-0.00192374 -0.00186456 -0.000741935)
(-0.00175392 -0.00202513 -0.000741935)
(-0.00157074 -0.00217029 -0.000741937)
(-0.00137561 -0.00229893 -0.000741938)
(-0.00117001 -0.00241007 -0.000741937)
(-0.000955507 -0.00250287 -0.00074194)
(-0.000733732 -0.00257663 -0.000741943)
(-0.000506372 -0.00263077 -0.000741942)
(-0.000275157 -0.00266489 -0.000741941)
(-4.18483e-05 -0.00267873 -0.00074194)
(0.000191777 -0.00267219 -0.000741935)
(0.000423944 -0.0026453 -0.000741935)
(0.000652884 -0.00259829 -0.000741935)
(0.000876856 -0.0025315 -0.000741939)
(0.00109415 -0.00244544 -0.000741937)
(0.00130312 -0.00234078 -0.000741937)
(0.00150218 -0.00221829 -0.000741935)
(0.0016898 -0.00207893 -0.000741935)
(0.00186456 -0.00192374 -0.000741935)
(0.00202513 -0.00175392 -0.000741935)
(0.00217029 -0.00157074 -0.000741937)
(0.00229893 -0.00137561 -0.000741938)
(0.00241007 -0.00117001 -0.000741938)
(0.00250287 -0.000955507 -0.00074194)
(0.00257663 -0.000733732 -0.000741943)
(0.00263077 -0.000506372 -0.000741942)
(0.00266489 -0.000275157 -0.000741941)
(0.00267873 -4.18483e-05 -0.00074194)
(0.00267219 0.000191777 -0.000741935)
(0.0026453 0.000423944 -0.000741935)
(0.00259829 0.000652884 -0.000741935)
(0.0025315 0.000876856 -0.000741939)
(0.00244544 0.00109415 -0.000741937)
(0.00234078 0.00130312 -0.000741937)
(0.00221829 0.00150218 -0.000741935)
(0.00207893 0.0016898 -0.000741935)
(0.00192374 0.00186456 -0.000741935)
(0.00175392 0.00202513 -0.000741935)
(0.00157074 0.00217029 -0.000741937)
(0.00137561 0.00229893 -0.000741938)
(0.00117001 0.00241007 -0.000741937)
(0.000955508 0.00250287 -0.000741939)
(0.000733732 0.00257663 -0.000741943)
(0.000506372 0.00263077 -0.000741942)
(0.000275157 0.00266489 -0.000741941)
(4.18484e-05 0.00267873 -0.00074194)
(-0.000191777 0.00267219 -0.000741935)
(-0.000423944 0.0026453 -0.000741935)
(-0.000652884 0.00259829 -0.000741935)
(-0.000876856 0.0025315 -0.000741939)
(-0.00109415 0.00244544 -0.000741937)
(-0.00130312 0.00234078 -0.000741937)
(-0.00150218 0.00221829 -0.000741935)
(-0.0016898 0.00207893 -0.000741935)
(-0.00186456 0.00192374 -0.000741935)
(-0.00202513 0.00175392 -0.000741935)
(-0.00217029 0.00157074 -0.000741937)
(-0.00229893 0.00137561 -0.000741938)
(-0.00264066 0.00156987 -0.000538464)
(-0.00276743 0.00133375 -0.000538465)
(-0.00287314 0.00108748 -0.000538466)
(-0.00295699 0.000832928 -0.000538467)
(-0.00301833 0.000572039 -0.000538467)
(-0.0030567 0.000306797 -0.000538464)
(-0.00307181 3.92193e-05 -0.000538463)
(-0.00306354 -0.000228656 -0.000538462)
(-0.00303195 -0.000494789 -0.000538462)
(-0.00297729 -0.000757159 -0.000538463)
(-0.00289997 -0.00101377 -0.000538463)
(-0.00280058 -0.00126266 -0.000538463)
(-0.00267988 -0.00150194 -0.000538463)
(-0.00253878 -0.00172979 -0.000538462)
(-0.00237835 -0.00194448 -0.000538462)
(-0.00219983 -0.00214437 -0.000538463)
(-0.00200457 -0.00232793 -0.000538464)
(-0.00179405 -0.00249379 -0.000538464)
(-0.00156987 -0.00264066 -0.000538464)
(-0.00133375 -0.00276743 -0.000538465)
(-0.00108748 -0.00287314 -0.000538466)
(-0.000832928 -0.00295699 -0.000538467)
(-0.000572039 -0.00301833 -0.000538467)
(-0.000306797 -0.0030567 -0.000538465)
(-3.92192e-05 -0.00307181 -0.000538463)
(0.000228656 -0.00306354 -0.000538462)
(0.000494789 -0.00303195 -0.000538462)
(0.000757159 -0.00297729 -0.000538463)
(0.00101377 -0.00289997 -0.000538464)
(0.00126266 -0.00280058 -0.000538464)