/*--------------------------------*- C++ -*----------------------------------*\
| =========                 |                                                 |
| \\      /  F ield         | OpenFOAM: The Open Source CFD Toolbox           |
|  \\    /   O peration     | Version:  2312                                  |
|   \\  /    A nd           | Website:  www.openfoam.com                      |
|    \\/     M anipulation  |                                                 |
\*---------------------------------------------------------------------------*/
FoamFile
{
    version     2.0;
    format      ascii;
    arch        "LSB;label=32;scalar=64";
    class       volSymmTensorField;
    location    "1";
    object      sigma;
}
// * * * * * * * * * * * * * * * * * * * * * * * * * * * * * * * * * * * * * //

dimensions      [1 -1 -2 0 0 0 0];

internalField   nonuniform List<symmTensor> 
3240
(
(2100.9 -897.608 3035.39 31458.1 29464.2 28679.2)
(2479.7 -3432.97 455.782 31079.1 29616.6 28679.1)
(3293.05 -5863.86 -2127.16 30265.6 29543.6 28679.2)
(4516.29 -8116.64 -4693.93 29042.8 29245.8 28679.2)
(6112.06 -10122.8 -7225 27447.1 28725.5 28679.2)
(8031.99 -11821.6 -9701.22 25527.1 27986.4 28679.1)
(10217.6 -13160.8 -12103.4 23341.3 27034.4 28679.3)
(12602.4 -14100.3 -14413.5 20956.2 25876.7 28679.1)
(15114.3 -14611.4 -16614.1 18444.1 24521.9 28678.9)
(17676.9 -14678.6 -18688 15881.6 22980.6 28678.9)
(20212.3 -14299.7 -20619.8 13346.5 21264.4 28679.2)
(22643.3 -13486.3 -22394.6 10915.7 19386.4 28679.4)
(24896.3 -12263.3 -23999 8662.95 17360.8 28679.1)
(26902.5 -10667.5 -25420.8 6656.65 15203 28679.1)
(28601 -8747.56 -26649.1 4958.06 12929.6 28679.2)
(29940.1 -6561.9 -27674.6 3618.48 10557.8 28679.1)
(30879.9 -4176.92 -28489.5 2679.13 8105.65 28679.2)
(31391 -1664.89 -29087.5 2168.06 5591.79 28679.3)
(31458.1 897.608 -29464.2 2100.9 3035.39 28679.2)
(31079.1 3432.97 -29616.6 2479.7 455.782 28679.1)
(30265.6 5863.86 -29543.6 3293.05 -2127.16 28679.2)
(29042.8 8116.64 -29245.8 4516.29 -4693.93 28679.2)
(27447.1 10122.8 -28725.5 6112.06 -7225 28679.2)
(25527.1 11821.6 -27986.4 8031.99 -9701.22 28679.1)
(23341.3 13160.8 -27034.4 10217.6 -12103.4 28679.3)
(20956.2 14100.3 -25876.7 12602.4 -14413.5 28679.1)
(18444.1 14611.4 -24521.9 15114.3 -16614.1 28678.9)
(15881.6 14678.6 -22980.6 17676.9 -18688 28678.9)
(13346.5 14299.7 -21264.4 20212.4 -20619.8 28679.2)
(10915.7 13486.3 -19386.4 22643.3 -22394.6 28679.4)
(8662.95 12263.3 -17360.8 24896.3 -23999 28679.1)
(6656.65 10667.5 -15203 26902.5 -25420.8 28679.1)
(4958.06 8747.56 -12929.6 28601 -26649.1 28679.2)
(3618.48 6561.9 -10557.8 29940.1 -27674.6 28679.1)
(2679.13 4176.92 -8105.65 30879.9 -28489.5 28679.2)
(2168.06 1664.89 -5591.79 31391 -29087.5 28679.3)
(2100.9 -897.608 -3035.39 31458.1 -29464.2 28679.2)
(2479.7 -3432.97 -455.782 31079.1 -29616.6 28679.1)
(3293.05 -5863.86 2127.16 30265.6 -29543.6 28679.2)
(4516.29 -8116.64 4693.93 29042.8 -29245.8 28679.2)
(6112.06 -10122.8 7225 27447.1 -28725.5 28679.2)
(8031.99 -11821.6 9701.22 25527.1 -27986.4 28679.1)
(10217.6 -13160.8 12103.4 23341.3 -27034.4 28679.3)
(12602.4 -14100.3 14413.5 20956.2 -25876.7 28679.1)
(15114.3 -14611.4 16614.1 18444.1 -24521.9 28678.9)
(17676.9 -14678.6 18688 15881.6 -22980.6 28678.9)
(20212.4 -14299.7 20619.8 13346.5 -21264.4 28679.2)
(22643.3 -13486.3 22394.6 10915.7 -19386.4 28679.4)
(24896.3 -12263.3 23999 8662.95 -17360.8 28679.1)
(26902.5 -10667.5 25420.8 6656.65 -15203 28679.1)
(28601 -8747.56 26649.1 4958.06 -12929.6 28679.2)
(29940.1 -6561.9 27674.6 3618.48 -10557.8 28679.1)
(30879.9 -4176.92 28489.5 2679.13 -8105.65 28679.2)
(31391 -1664.89 29087.5 2168.06 -5591.8 28679.3)
(31458.1 897.608 29464.2 2100.9 -3035.39 28679.2)
(31079.1 3432.97 29616.6 2479.7 -455.782 28679.1)
(30265.6 5863.85 29543.6 3293.05 2127.16 28679.2)
(29042.8 8116.64 29245.8 4516.29 4693.93 28679.2)
(27447.1 10122.8 28725.5 6112.06 7225 28679.2)
(25527.1 11821.6 27986.4 8031.99 9701.22 28679.1)
(23341.3 13160.8 27034.4 10217.6 12103.4 28679.3)
(20956.2 14100.3 25876.7 12602.4 14413.5 28679.1)
(18444.1 14611.4 24521.9 15114.3 16614.1 28678.9)
(15881.6 14678.6 22980.6 17676.9 18688 28678.9)
(13346.5 14299.7 21264.4 20212.4 20619.8 28679.2)
(10915.7 13486.3 19386.4 22643.3 22394.6 28679.4)
(8662.95 12263.3 17360.8 24896.3 23999 28679.1)
(6656.65 10667.5 15203 26902.5 25420.8 28679.1)
(4958.06 8747.56 12929.6 28601 26649.1 28679.2)
(3618.48 6561.9 10557.8 29940.1 27674.6 28679.1)
(2679.13 4176.92 8105.65 30879.9 28489.5 28679.2)
(2168.06 1664.89 5591.8 31391 29087.5 28679.3)
(-3176.58 -3434.49 2224.98 52848 4244.54 -3353.52)
(-2154.69 -8246.56 1846.58 51825.9 4422.3 -3353.58)
(-312.612 -12808 1454.12 49984 4566.42 -3353.51)
(2293.55 -16980.4 1050.62 47377.9 4675.67 -3353.52)
(5584.61 -20636.9 639.135 44086.7 4749.39 -3353.62)
(9460.67 -23666.3 222.732 40210.6 4787.06 -3353.63)
(13803.9 -25976.6 -195.395 35867.4 4788.36 -3353.55)
(18482.5 -27497.6 -611.983 31189.1 4753.1 -3353.44)
(23353.8 -28183.1 -1023.96 26317.5 4681.73 -3353.56)
(28269.9 -28012.3 -1428.09 21401.3 4574.69 -3353.62)
(33082.1 -26990.4 -1821.31 16589.2 4432.76 -3353.57)
(37643.7 -25148.3 -2200.72 12027.6 4257.15 -3353.6)
(41816.1 -22542.1 -2563.28 7855.2 4049.1 -3353.61)
(45472.6 -19251 -2906.38 4198.76 3810.26 -3353.58)
(48502 -15374.9 -3227.47 1169.36 3542.48 -3353.55)
(50812.3 -11031.7 -3524.04 -1140.93 3247.72 -3353.54)
(52333.2 -6353.47 -3793.69 -2661.91 2928.23 -3353.55)
(53018.7 -1482.03 -4034.47 -3347.46 2586.45 -3353.58)
(52848 3434.48 -4244.54 -3176.58 2224.98 -3353.52)
(51825.9 8246.56 -4422.3 -2154.69 1846.58 -3353.58)
(49984 12808 -4566.42 -312.613 1454.12 -3353.52)
(47377.9 16980.4 -4675.67 2293.55 1050.62 -3353.52)
(44086.7 20636.9 -4749.39 5584.61 639.135 -3353.62)
(40210.6 23666.3 -4787.06 9460.67 222.732 -3353.63)
(35867.4 25976.6 -4788.36 13803.9 -195.395 -3353.54)
(31189.1 27497.6 -4753.1 18482.5 -611.983 -3353.44)
(26317.5 28183.1 -4681.73 23353.8 -1023.96 -3353.56)
(21401.3 28012.3 -4574.69 28269.9 -1428.09 -3353.62)
(16589.2 26990.4 -4432.76 33082.1 -1821.31 -3353.57)
(12027.6 25148.3 -4257.15 37643.7 -2200.72 -3353.6)
(7855.2 22542.1 -4049.1 41816.1 -2563.28 -3353.61)
(4198.76 19251 -3810.26 45472.6 -2906.38 -3353.59)
(1169.36 15374.9 -3542.47 48502 -3227.47 -3353.55)
(-1140.93 11031.7 -3247.72 50812.3 -3524.04 -3353.54)
(-2661.91 6353.47 -2928.23 52333.2 -3793.69 -3353.55)
(-3347.46 1482.03 -2586.45 53018.7 -4034.47 -3353.58)
(-3176.58 -3434.48 -2224.98 52848 -4244.54 -3353.52)
(-2154.69 -8246.56 -1846.58 51825.9 -4422.3 -3353.58)
(-312.612 -12808 -1454.12 49984 -4566.42 -3353.51)
(2293.55 -16980.4 -1050.62 47377.9 -4675.67 -3353.52)
(5584.61 -20636.9 -639.135 44086.7 -4749.39 -3353.62)
(9460.67 -23666.3 -222.732 40210.6 -4787.06 -3353.63)
(13803.9 -25976.6 195.394 35867.4 -4788.36 -3353.54)
(18482.5 -27497.6 611.983 31189.1 -4753.1 -3353.44)
(23353.8 -28183.1 1023.96 26317.5 -4681.73 -3353.56)
(28269.9 -28012.3 1428.09 21401.3 -4574.69 -3353.62)
(33082.1 -26990.4 1821.31 16589.2 -4432.76 -3353.57)
(37643.7 -25148.3 2200.72 12027.6 -4257.15 -3353.6)
(41816.1 -22542.1 2563.28 7855.2 -4049.1 -3353.61)
(45472.6 -19251 2906.38 4198.76 -3810.26 -3353.58)
(48502 -15374.9 3227.47 1169.36 -3542.48 -3353.54)
(50812.3 -11031.7 3524.04 -1140.93 -3247.73 -3353.54)
(52333.2 -6353.47 3793.69 -2661.91 -2928.23 -3353.55)
(53018.7 -1482.03 4034.47 -3347.46 -2586.45 -3353.58)
(52848 3434.49 4244.54 -3176.58 -2224.98 -3353.52)
(51825.9 8246.56 4422.3 -2154.69 -1846.58 -3353.58)
(49984 12808 4566.42 -312.612 -1454.12 -3353.51)
(47377.9 16980.4 4675.67 2293.55 -1050.62 -3353.52)
(44086.7 20636.9 4749.39 5584.61 -639.135 -3353.62)
(40210.6 23666.3 4787.06 9460.67 -222.733 -3353.63)
(35867.4 25976.6 4788.36 13803.9 195.394 -3353.54)
(31189.1 27497.6 4753.1 18482.5 611.983 -3353.44)
(26317.5 28183.1 4681.73 23353.8 1023.96 -3353.56)
(21401.3 28012.3 4574.69 28269.9 1428.09 -3353.62)
(16589.2 26990.4 4432.77 33082.1 1821.31 -3353.57)
(12027.6 25148.3 4257.15 37643.7 2200.72 -3353.6)
(7855.2 22542.1 4049.09 41816.1 2563.28 -3353.61)
(4198.76 19251 3810.26 45472.6 2906.38 -3353.58)
(1169.36 15374.9 3542.48 48502 3227.47 -3353.54)
(-1140.93 11031.7 3247.73 50812.3 3524.03 -3353.54)
(-2661.91 6353.47 2928.23 52333.2 3793.69 -3353.55)
(-3347.46 1482.03 2586.45 53018.7 4034.47 -3353.58)
(-8880.17 -7429.3 7969.59 26763.4 -33700.8 9541.72)
(-7319.36 -10411.1 10876.5 25202.5 -32878 9541.75)
(-5264.49 -13076.5 13700.5 23147.6 -31804.9 9541.78)
(-2777.96 -15344.7 16420.3 20661 -30489.8 9541.75)
(64.6589 -17146.7 19015.3 17818.2 -28942.7 9541.71)
(3176.98 -18427.7 21465.5 14705.8 -27175.2 9541.65)
(6464.52 -19148.7 23752.2 11418.5 -25201 9541.84)
(9827.68 -19288 25858.5 8055.71 -23034.9 9541.93)
(13163.5 -18841.1 27767.6 4719.9 -20693.6 9541.85)
(16370.8 -17821.8 29465.4 1512.43 -18194.8 9541.71)
(19352.7 -16260.9 30939 -1469.38 -15557.5 9541.82)
(22018.1 -14205.9 32177.3 -4135.14 -12801.7 9541.74)
(24286.2 -11719.5 33170.5 -6403.27 -9948.62 9541.68)
(26088.3 -8876.8 33911.5 -8205.2 -7019.73 9541.82)
(27369.3 -5764.38 34394.2 -9486.17 -4037.36 9541.79)
(28090.3 -2476.82 34615.2 -10207.2 -1024.31 9541.78)
(28229.5 885.864 34572.7 -10346.3 1996.42 9541.77)
(27782.6 4221.66 34267.2 -9899.56 5001.99 9541.66)
(26763.4 7429.3 33700.8 -8880.17 7969.59 9541.72)
(25202.5 10411.1 32878 -7319.36 10876.5 9541.75)
(23147.6 13076.5 31804.9 -5264.49 13700.5 9541.78)
(20661 15344.7 30489.8 -2777.96 16420.3 9541.75)
(17818.2 17146.7 28942.7 64.6577 19015.3 9541.71)
(14705.8 18427.7 27175.2 3176.98 21465.5 9541.65)
(11418.5 19148.7 25201 6464.52 23752.2 9541.84)
(8055.71 19288 23034.9 9827.68 25858.5 9541.93)
(4719.9 18841.1 20693.6 13163.5 27767.6 9541.85)
(1512.43 17821.8 18194.8 16370.8 29465.4 9541.71)
(-1469.38 16260.9 15557.5 19352.7 30939 9541.82)
(-4135.14 14205.9 12801.7 22018.1 32177.3 9541.74)
(-6403.27 11719.5 9948.62 24286.2 33170.5 9541.68)
(-8205.2 8876.8 7019.73 26088.3 33911.5 9541.82)
(-9486.17 5764.38 4037.36 27369.3 34394.2 9541.79)
(-10207.2 2476.82 1024.31 28090.3 34615.2 9541.78)
(-10346.3 -885.863 -1996.42 28229.5 34572.7 9541.77)
(-9899.56 -4221.66 -5001.99 27782.6 34267.2 9541.66)
(-8880.17 -7429.3 -7969.59 26763.4 33700.8 9541.72)
(-7319.36 -10411.1 -10876.5 25202.5 32878 9541.75)
(-5264.49 -13076.5 -13700.5 23147.6 31804.9 9541.78)
(-2777.96 -15344.7 -16420.3 20661.1 30489.8 9541.75)
(64.6573 -17146.7 -19015.3 17818.2 28942.7 9541.71)
(3176.98 -18427.7 -21465.5 14705.8 27175.2 9541.65)
(6464.52 -19148.7 -23752.2 11418.5 25201 9541.84)
(9827.68 -19288 -25858.5 8055.72 23034.9 9541.94)
(13163.5 -18841.1 -27767.6 4719.9 20693.6 9541.85)
(16370.8 -17821.8 -29465.4 1512.43 18194.8 9541.71)
(19352.7 -16260.9 -30939 -1469.38 15557.5 9541.83)
(22018.1 -14205.9 -32177.3 -4135.14 12801.7 9541.74)
(24286.2 -11719.5 -33170.5 -6403.27 9948.62 9541.68)
(26088.3 -8876.8 -33911.5 -8205.2 7019.73 9541.83)
(27369.3 -5764.38 -34394.2 -9486.17 4037.36 9541.79)
(28090.3 -2476.82 -34615.2 -10207.2 1024.31 9541.78)
(28229.5 885.864 -34572.7 -10346.3 -1996.42 9541.78)
(27782.6 4221.66 -34267.2 -9899.56 -5001.99 9541.66)
(26763.4 7429.3 -33700.8 -8880.17 -7969.59 9541.72)
(25202.5 10411.1 -32878 -7319.36 -10876.5 9541.75)
(23147.6 13076.5 -31804.9 -5264.49 -13700.5 9541.78)
(20661.1 15344.7 -30489.8 -2777.96 -16420.3 9541.75)
(17818.2 17146.7 -28942.7 64.657 -19015.3 9541.71)
(14705.8 18427.7 -27175.2 3176.98 -21465.5 9541.65)
(11418.5 19148.7 -25201 6464.52 -23752.2 9541.84)
(8055.72 19288 -23034.9 9827.68 -25858.5 9541.94)
(4719.9 18841.1 -20693.6 13163.5 -27767.6 9541.85)
(1512.43 17821.8 -18194.8 16370.8 -29465.4 9541.72)
(-1469.38 16260.9 -15557.5 19352.7 -30939 9541.83)
(-4135.14 14205.9 -12801.7 22018.1 -32177.3 9541.74)
(-6403.27 11719.5 -9948.62 24286.2 -33170.5 9541.68)
(-8205.2 8876.8 -7019.73 26088.3 -33911.5 9541.83)
(-9486.17 5764.38 -4037.36 27369.3 -34394.2 9541.79)
(-10207.2 2476.82 -1024.31 28090.3 -34615.2 9541.78)
(-10346.3 -885.865 1996.42 28229.5 -34572.7 9541.78)
(-9899.56 -4221.66 5001.99 27782.6 -34267.2 9541.66)
(1367.66 -2006.23 797.662 27883.4 28900 30433.3)
(1917.33 -4277.95 -1724.16 27333.2 28859.5 30433.4)
(2853.16 -6419.58 -4232.8 26397.2 28599.4 30433.4)
(4146.72 -8366.26 -6709.28 25103.8 28121.7 30433.2)
(5758.86 -10058.8 -9134.78 23492.1 27429.9 30433.3)
(7640.32 -11445.7 -11490.8 21610.6 26529.4 30433.3)
(9733.94 -12484.7 -13759.2 19516.9 25427 30433.4)
(11976.2 -13144.4 -15922.9 17274.6 24131 30433.5)
(14298.8 -13404.7 -17965.4 14951.8 22651.4 30433.4)
(16631.4 -13257.7 -19871.2 12619 20999.4 30433.3)
(18903 -12708 -21625.8 10347.3 19187.6 30433.1)
(21044.9 -11772.1 -23215.9 8205.74 17229.8 30433.3)
(22991.7 -10478.6 -24629.2 6259.15 15140.8 30433.3)
(24684.3 -8866.56 -25855.2 4566.62 12936.6 30433.3)
(26071.2 -6985.06 -26884.3 3179.78 10633.9 30433.4)
(27109.8 -4891.44 -27708.7 2140.58 8250.39 30433.3)
(27769.7 -2649.37 -28322.3 1480.9 5804.13 30433.3)
(28030.4 -326.498 -28720.5 1220.67 3313.45 30433.3)
(27883.4 2006.23 -28900 1367.66 797.662 30433.3)
(27333.2 4277.95 -28859.5 1917.33 -1724.16 30433.4)
(26397.2 6419.58 -28599.4 2853.16 -4232.8 30433.4)
(25103.8 8366.26 -28121.7 4146.72 -6709.28 30433.2)
(23492.1 10058.8 -27429.9 5758.86 -9134.78 30433.3)
(21610.6 11445.7 -26529.4 7640.32 -11490.8 30433.3)
(19516.9 12484.7 -25427 9733.94 -13759.2 30433.4)
(17274.6 13144.4 -24131 11976.2 -15922.9 30433.5)
(14951.8 13404.7 -22651.4 14298.8 -17965.4 30433.4)
(12619 13257.7 -20999.4 16631.4 -19871.2 30433.3)
(10347.3 12708 -19187.6 18903 -21625.8 30433.1)
(8205.74 11772.1 -17229.8 21044.9 -23215.9 30433.3)
(6259.15 10478.6 -15140.8 22991.7 -24629.2 30433.3)
(4566.62 8866.56 -12936.6 24684.3 -25855.2 30433.3)
(3179.78 6985.06 -10633.9 26071.1 -26884.3 30433.4)
(2140.58 4891.44 -8250.39 27109.8 -27708.7 30433.3)
(1480.9 2649.37 -5804.13 27769.7 -28322.3 30433.3)
(1220.67 326.497 -3313.45 28030.4 -28720.5 30433.3)
(1367.66 -2006.23 -797.662 27883.4 -28900 30433.3)
(1917.33 -4277.95 1724.16 27333.2 -28859.5 30433.4)
(2853.16 -6419.58 4232.8 26397.2 -28599.4 30433.4)
(4146.72 -8366.26 6709.28 25103.8 -28121.7 30433.2)
(5758.86 -10058.8 9134.78 23492.1 -27429.9 30433.3)
(7640.32 -11445.7 11490.8 21610.6 -26529.4 30433.3)
(9733.94 -12484.7 13759.2 19516.9 -25427 30433.4)
(11976.2 -13144.4 15922.9 17274.6 -24131 30433.5)
(14298.8 -13404.7 17965.4 14951.8 -22651.4 30433.4)
(16631.4 -13257.7 19871.2 12619 -20999.4 30433.3)
(18903 -12708 21625.8 10347.3 -19187.6 30433.1)
(21044.9 -11772.1 23215.9 8205.74 -17229.8 30433.3)
(22991.7 -10478.6 24629.2 6259.15 -15140.8 30433.3)
(24684.3 -8866.56 25855.2 4566.62 -12936.6 30433.3)
(26071.1 -6985.06 26884.3 3179.78 -10633.9 30433.4)
(27109.8 -4891.44 27708.7 2140.58 -8250.39 30433.3)
(27769.7 -2649.37 28322.3 1480.9 -5804.13 30433.3)
(28030.4 -326.498 28720.5 1220.67 -3313.45 30433.3)
(27883.4 2006.23 28900 1367.66 -797.662 30433.4)
(27333.2 4277.95 28859.5 1917.33 1724.16 30433.4)
(26397.2 6419.58 28599.4 2853.16 4232.8 30433.4)
(25103.8 8366.26 28121.7 4146.72 6709.28 30433.2)
(23492.1 10058.8 27429.9 5758.86 9134.78 30433.3)
(21610.6 11445.7 26529.4 7640.32 11490.8 30433.3)
(19516.9 12484.7 25427 9733.94 13759.2 30433.4)
(17274.6 13144.4 24131 11976.2 15922.9 30433.5)
(14951.8 13404.7 22651.4 14298.8 17965.4 30433.4)
(12619 13257.7 20999.4 16631.4 19871.2 30433.3)
(10347.3 12708 19187.6 18903 21625.8 30433.1)
(8205.74 11772.1 17229.8 21044.9 23215.9 30433.3)
(6259.15 10478.6 15140.8 22991.7 24629.2 30433.3)
(4566.62 8866.56 12936.6 24684.3 25855.2 30433.3)
(3179.78 6985.06 10633.9 26071.1 26884.3 30433.4)
(2140.58 4891.44 8250.39 27109.8 27708.7 30433.3)
(1480.9 2649.37 5804.13 27769.7 28322.3 30433.3)
(1220.67 326.497 3313.45 28030.4 28720.5 30433.3)
(-4945.19 -4439.67 1825.65 48784.4 5525.62 -5827.31)
(-3766.09 -9037.31 1337.13 47605.3 5663.69 -5827.32)
(-1806.66 -13360.1 838.399 45645.7 5758.8 -5827.36)
(873.691 -17277.1 333.336 42965.4 5809.85 -5827.36)
(4193.66 -20669.3 -174.286 39645.5 5816.68 -5827.36)
(8052.22 -23433.4 -680.625 35786.9 5779.4 -5827.36)
(12332.1 -25485.5 -1181.73 31507.2 5698.1 -5827.3)
(16903.2 -26763.1 -1673.86 26936.1 5573.48 -5827.23)
(21626.8 -27227.6 -2153.24 22212.5 5406.39 -5827.24)
(26359.2 -26864.8 -2616.24 17480 5198.14 -5827.33)
(30956.8 -25685.7 -3059.33 12882.4 4950.34 -5827.33)
(35279.6 -23726.2 -3479.09 8559.46 4664.84 -5827.41)
(39196.7 -21045.8 -3872.44 4642.35 4343.85 -5827.44)
(42588.9 -17725.9 -4236.25 1250.25 3989.78 -5827.38)
(45353 -13867.3 -4567.97 -1513.87 3605.41 -5827.34)
(47404.9 -9587.52 -4864.91 -3565.81 3193.63 -5827.31)
(48682.6 -5016.52 -5124.64 -4843.47 2757.45 -5827.36)
(49147.1 -292.907 -5345.47 -5308.03 2300.3 -5827.36)
(48784.4 4439.67 -5525.62 -4945.19 1825.65 -5827.31)
(47605.2 9037.31 -5663.69 -3766.09 1337.13 -5827.33)
(45645.7 13360.1 -5758.8 -1806.66 838.398 -5827.36)
(42965.4 17277.1 -5809.85 873.691 333.335 -5827.36)
(39645.5 20669.3 -5816.68 4193.66 -174.286 -5827.36)
(35786.9 23433.4 -5779.4 8052.22 -680.625 -5827.36)
(31507.2 25485.5 -5698.1 12332.1 -1181.73 -5827.3)
(26936.1 26763.1 -5573.48 16903.2 -1673.86 -5827.23)
(22212.5 27227.6 -5406.39 21626.8 -2153.24 -5827.24)
(17480 26864.8 -5198.14 26359.2 -2616.24 -5827.33)
(12882.4 25685.7 -4950.34 30956.8 -3059.33 -5827.33)
(8559.46 23726.2 -4664.84 35279.6 -3479.09 -5827.4)
(4642.35 21045.8 -4343.85 39196.7 -3872.44 -5827.44)
(1250.25 17725.9 -3989.78 42588.9 -4236.25 -5827.38)
(-1513.87 13867.3 -3605.41 45353 -4567.97 -5827.34)
(-3565.81 9587.52 -3193.63 47404.9 -4864.91 -5827.31)
(-4843.47 5016.52 -2757.45 48682.6 -5124.64 -5827.36)
(-5308.03 292.906 -2300.3 49147.1 -5345.47 -5827.36)
(-4945.19 -4439.67 -1825.65 48784.4 -5525.62 -5827.31)
(-3766.09 -9037.31 -1337.13 47605.2 -5663.69 -5827.33)
(-1806.66 -13360.1 -838.398 45645.7 -5758.8 -5827.36)
(873.691 -17277.1 -333.335 42965.4 -5809.85 -5827.36)
(4193.66 -20669.3 174.286 39645.5 -5816.68 -5827.36)
(8052.22 -23433.4 680.625 35786.9 -5779.4 -5827.36)
(12332.1 -25485.5 1181.73 31507.2 -5698.1 -5827.29)
(16903.2 -26763.1 1673.86 26936.1 -5573.48 -5827.23)
(21626.8 -27227.6 2153.24 22212.5 -5406.39 -5827.24)
(26359.2 -26864.8 2616.24 17480 -5198.14 -5827.33)
(30956.8 -25685.7 3059.33 12882.4 -4950.34 -5827.33)
(35279.6 -23726.2 3479.09 8559.46 -4664.84 -5827.4)
(39196.7 -21045.8 3872.44 4642.35 -4343.85 -5827.44)
(42588.9 -17725.9 4236.25 1250.25 -3989.78 -5827.38)
(45353 -13867.3 4567.97 -1513.87 -3605.41 -5827.34)
(47404.9 -9587.52 4864.91 -3565.81 -3193.63 -5827.31)
(48682.6 -5016.52 5124.64 -4843.47 -2757.45 -5827.36)
(49147.1 -292.907 5345.47 -5308.03 -2300.3 -5827.36)
(48784.4 4439.67 5525.62 -4945.19 -1825.65 -5827.31)
(47605.2 9037.31 5663.69 -3766.09 -1337.13 -5827.32)
(45645.7 13360.1 5758.8 -1806.66 -838.398 -5827.36)
(42965.4 17277.1 5809.85 873.691 -333.335 -5827.36)
(39645.5 20669.3 5816.68 4193.66 174.286 -5827.36)
(35786.9 23433.4 5779.4 8052.22 680.625 -5827.36)
(31507.2 25485.5 5698.1 12332.1 1181.73 -5827.29)
(26936.1 26763.1 5573.48 16903.2 1673.86 -5827.22)
(22212.5 27227.6 5406.39 21626.8 2153.24 -5827.24)
(17480 26864.8 5198.14 26359.2 2616.24 -5827.33)
(12882.4 25685.7 4950.34 30956.8 3059.33 -5827.33)
(8559.46 23726.2 4664.84 35279.6 3479.09 -5827.4)
(4642.35 21045.8 4343.85 39196.7 3872.44 -5827.44)
(1250.25 17725.9 3989.78 42588.9 4236.25 -5827.38)
(-1513.87 13867.3 3605.41 45353 4567.97 -5827.34)
(-3565.81 9587.52 3193.63 47404.9 4864.91 -5827.31)
(-4843.47 5016.52 2757.45 48682.6 5124.64 -5827.36)
(-5308.03 292.906 2300.3 49147.1 5345.47 -5827.36)
(-11656.2 -7799 7619.74 21380.8 -32757.5 3215.1)
(-10051 -10548.9 10445.7 19775.5 -31968.7 3215.11)
(-7992.63 -12978.2 13192.2 17717.1 -30936.7 3215.15)
(-5543.94 -15013.2 15838.1 15268.2 -29669.1 3214.92)
(-2778.89 -16592.1 18363.7 12503.1 -28175.9 3215)
(218.482 -17666.9 20749.6 9505.76 -26468.2 3215.08)
(3357.03 -18204.9 22977.6 6367.48 -24559 3215.24)
(6541.42 -18189.7 25030.8 3183.29 -22462.9 3215.43)
(9674.47 -17621.8 26893.2 50.1827 -20195.8 3215.15)
(12661.2 -16518.5 28550.9 -2936.52 -17775.2 3215.09)
(15411.3 -14913.1 29991.7 -5686.48 -15219.1 3215.35)
(17840.6 -12854.8 31203.9 -8116.03 -12547.2 3215.11)
(19875.4 -10405.9 32178.7 -10151.1 -9779.91 3215.09)
(21454.4 -7640.79 32908.6 -11730.1 -6938.07 3215.05)
(22529.3 -4643.53 33388 -12804.7 -4043.5 3215.06)
(23067.1 -1505.08 33613.5 -13342.6 -1118.14 3215.16)
(23051.9 1678.87 33582.9 -13327.4 1815.58 3215.06)
(22484 4811.94 33296.9 -12759.6 4735.62 3215.05)
(21380.8 7799 32757.5 -11656.2 7619.74 3215.1)
(19775.5 10548.9 31968.7 -10051 10445.7 3215.11)
(17717.1 12978.2 30936.7 -7992.63 13192.2 3215.15)
(15268.2 15013.2 29669.1 -5543.94 15838.1 3214.92)
(12503.1 16592.1 28175.9 -2778.89 18363.7 3215)
(9505.76 17666.9 26468.2 218.482 20749.6 3215.08)
(6367.48 18204.9 24559 3357.03 22977.6 3215.24)
(3183.3 18189.7 22462.9 6541.43 25030.8 3215.43)
(50.1833 17621.8 20195.8 9674.47 26893.2 3215.15)
(-2936.52 16518.5 17775.2 12661.2 28550.9 3215.09)
(-5686.48 14913.1 15219.1 15411.3 29991.7 3215.35)
(-8116.03 12854.8 12547.2 17840.6 31203.9 3215.11)
(-10151.1 10405.9 9779.91 19875.4 32178.7 3215.09)
(-11730.1 7640.79 6938.07 21454.4 32908.6 3215.05)
(-12804.7 4643.53 4043.5 22529.3 33388 3215.06)
(-13342.6 1505.08 1118.14 23067.1 33613.5 3215.16)
(-13327.4 -1678.87 -1815.58 23051.9 33582.9 3215.06)
(-12759.6 -4811.94 -4735.62 22484 33296.9 3215.05)
(-11656.2 -7799 -7619.74 21380.8 32757.5 3215.1)
(-10051 -10548.9 -10445.7 19775.5 31968.7 3215.11)
(-7992.63 -12978.2 -13192.2 17717.1 30936.7 3215.15)
(-5543.94 -15013.2 -15838.1 15268.2 29669.1 3214.92)
(-2778.89 -16592.1 -18363.7 12503.1 28175.9 3215)
(218.482 -17666.9 -20749.6 9505.76 26468.2 3215.08)
(3357.03 -18204.9 -22977.6 6367.48 24559 3215.24)
(6541.43 -18189.7 -25030.8 3183.3 22462.9 3215.43)
(9674.47 -17621.8 -26893.2 50.1844 20195.8 3215.15)
(12661.2 -16518.5 -28550.9 -2936.52 17775.2 3215.1)
(15411.3 -14913.1 -29991.7 -5686.48 15219.1 3215.35)
(17840.6 -12854.8 -31203.9 -8116.03 12547.2 3215.11)
(19875.4 -10405.9 -32178.7 -10151.1 9779.91 3215.09)
(21454.4 -7640.79 -32908.6 -11730.1 6938.07 3215.05)
(22529.3 -4643.53 -33388 -12804.7 4043.5 3215.06)
(23067.1 -1505.08 -33613.5 -13342.6 1118.14 3215.16)
(23051.9 1678.87 -33582.9 -13327.4 -1815.58 3215.06)
(22484 4811.94 -33296.9 -12759.6 -4735.62 3215.06)
(21380.8 7799 -32757.5 -11656.2 -7619.74 3215.1)
(19775.5 10548.9 -31968.7 -10051 -10445.7 3215.11)
(17717.1 12978.2 -30936.7 -7992.63 -13192.2 3215.15)
(15268.2 15013.2 -29669.1 -5543.94 -15838.1 3214.92)
(12503.1 16592.1 -28175.9 -2778.89 -18363.7 3215)
(9505.76 17666.9 -26468.2 218.48 -20749.6 3215.08)
(6367.48 18204.9 -24559 3357.03 -22977.6 3215.24)
(3183.3 18189.7 -22462.9 6541.43 -25030.8 3215.43)
(50.1851 17621.8 -20195.8 9674.47 -26893.2 3215.16)
(-2936.52 16518.5 -17775.2 12661.2 -28550.9 3215.1)
(-5686.48 14913.1 -15219.1 15411.3 -29991.7 3215.35)
(-8116.03 12854.8 -12547.2 17840.6 -31203.9 3215.11)
(-10151.1 10405.9 -9779.91 19875.4 -32178.7 3215.09)
(-11730.1 7640.79 -6938.07 21454.4 -32908.6 3215.05)
(-12804.7 4643.53 -4043.5 22529.3 -33388 3215.07)
(-13342.6 1505.08 -1118.14 23067.1 -33613.5 3215.16)
(-13327.4 -1678.87 1815.58 23051.9 -33582.9 3215.06)
(-12759.6 -4811.94 4735.61 22484 -33296.9 3215.05)
(1130.38 -2921.71 -1109.66 27686.8 28471.8 29538.2)
(1839.41 -5182.99 -3586.86 26977.5 28266.8 29538.3)
(2930.33 -7286.8 -6036.76 25886.6 27846.6 29538.2)
(4369.98 -9169.32 -8440.83 24446.8 27214.5 29538)
(6114.69 -10773.1 -10780.6 22702.1 26375.3 29538)
(8111.7 -12049.7 -13038.4 20705.5 25335.3 29538.3)
(10299.7 -12960 -15196.9 18517.3 24102.5 29538.4)
(12612.5 -13476.6 -17239.6 16204.6 22686.4 29538.3)
(14980 -13583.9 -19151.3 13837.1 21097.5 29538.1)
(17330.4 -13278.3 -20917.2 11487 19348 29538.2)
(19591.6 -12569.1 -22524 9225.4 17451.3 29538.2)
(21695.2 -11478.1 -23959.1 7121.6 15421.9 29538.2)
(23577.7 -10038.4 -25212.1 5239.18 13275 29538)
(25181.5 -8293.7 -26273.2 3635.28 11027.1 29538.1)
(26458.2 -6296.93 -27134.3 2358.83 8695.26 29538.1)
(27368.5 -4108.77 -27788.9 1448.41 6297.23 29538.2)
(27884.8 -1796 -28231.9 931.723 3851.46 29538.1)
(27992.3 571.442 -28460.2 824.683 1376.2 29538)
(27686.8 2921.71 -28471.8 1130.38 -1109.66 29538.2)
(26977.5 5182.99 -28266.8 1839.41 -3586.86 29538.3)
(25886.6 7286.8 -27846.6 2930.33 -6036.76 29538.2)
(24446.8 9169.32 -27214.5 4369.98 -8440.83 29538)
(22702.1 10773.1 -26375.3 6114.69 -10780.6 29538)
(20705.5 12049.7 -25335.3 8111.71 -13038.4 29538.3)
(18517.3 12960 -24102.5 10299.7 -15196.9 29538.4)
(16204.6 13476.6 -22686.4 12612.5 -17239.6 29538.3)
(13837.1 13583.9 -21097.5 14980 -19151.3 29538.1)
(11487 13278.3 -19348 17330.4 -20917.2 29538.2)
(9225.4 12569.1 -17451.3 19591.6 -22524 29538.2)
(7121.61 11478.1 -15421.9 21695.2 -23959.1 29538.2)
(5239.18 10038.4 -13275 23577.7 -25212.1 29538)
(3635.27 8293.7 -11027.1 25181.6 -26273.2 29538)
(2358.82 6296.93 -8695.26 26458.2 -27134.3 29538.1)
(1448.41 4108.76 -6297.23 27368.5 -27788.9 29538.2)
(931.724 1796 -3851.46 27884.8 -28231.9 29538.1)
(824.684 -571.442 -1376.2 27992.3 -28460.2 29538)
(1130.38 -2921.71 1109.66 27686.8 -28471.8 29538.2)
(1839.41 -5182.99 3586.86 26977.5 -28266.8 29538.3)
(2930.33 -7286.8 6036.76 25886.6 -27846.6 29538.2)
(4369.98 -9169.32 8440.83 24446.8 -27214.5 29538)
(6114.69 -10773.1 10780.6 22702.1 -26375.3 29538)
(8111.71 -12049.7 13038.4 20705.5 -25335.3 29538.3)
(10299.7 -12960 15196.9 18517.3 -24102.5 29538.4)
(12612.5 -13476.6 17239.6 16204.6 -22686.4 29538.3)
(14980 -13583.9 19151.3 13837.1 -21097.5 29538.1)
(17330.4 -13278.3 20917.2 11487 -19348 29538.2)
(19591.6 -12569.1 22524 9225.4 -17451.3 29538.2)
(21695.2 -11478.1 23959.1 7121.61 -15421.9 29538.2)
(23577.7 -10038.4 25212.1 5239.18 -13275 29538)
(25181.6 -8293.7 26273.2 3635.27 -11027.1 29538)
(26458.2 -6296.93 27134.3 2358.83 -8695.26 29538.1)
(27368.5 -4108.76 27788.9 1448.41 -6297.23 29538.2)
(27884.8 -1796 28231.9 931.725 -3851.46 29538.1)
(27992.3 571.442 28460.2 824.685 -1376.2 29538)
(27686.8 2921.71 28471.8 1130.38 1109.66 29538.2)
(26977.5 5182.99 28266.8 1839.41 3586.86 29538.3)
(25886.6 7286.8 27846.6 2930.33 6036.76 29538.2)
(24446.8 9169.32 27214.5 4369.98 8440.83 29538)
(22702.1 10773.1 26375.3 6114.69 10780.6 29538)
(20705.5 12049.7 25335.3 8111.7 13038.4 29538.3)
(18517.3 12960 24102.5 10299.7 15196.9 29538.4)
(16204.6 13476.6 22686.4 12612.5 17239.6 29538.3)
(13837.1 13583.9 21097.5 14980 19151.3 29538.1)
(11487 13278.3 19348 17330.4 20917.2 29538.2)
(9225.4 12569.1 17451.3 19591.6 22524 29538.2)
(7121.61 11478.1 15421.9 21695.2 23959.1 29538.2)
(5239.18 10038.4 13275 23577.7 25212.1 29538)
(3635.27 8293.7 11027.1 25181.6 26273.2 29538)
(2358.82 6296.93 8695.26 26458.2 27134.3 29538.1)
(1448.41 4108.76 6297.23 27368.5 27788.9 29538.2)
(931.724 1796 3851.46 27884.8 28231.9 29538.1)
(824.684 -571.442 1376.2 27992.3 28460.2 29538)
(-5481.67 -6679.71 1129.77 45228.7 5026.46 -9147.94)
(-3936.44 -10981.2 687.379 43683.6 5105.85 -9147.85)
(-1667.96 -14948.8 239.755 41414.9 5146.38 -9147.92)
(1255.15 -18462.3 -209.67 38491.9 5147.64 -9147.89)
(4744.02 -21414.9 -657.511 35003.2 5109.72 -9147.85)
(8692.47 -23716.8 -1100.42 31054.6 5033.08 -9147.84)
(12980.9 -25298.1 -1534.77 26766.4 4917.92 -9147.79)
(17478.4 -26110.6 -1957.58 22268.7 4765.5 -9147.88)
(22048.8 -26129.9 -2365.38 17698.3 4576.69 -9147.9)
(26553.3 -25355.2 -2755.3 13193.8 4353.09 -9147.9)
(30854.7 -23810 -3124.28 8892.41 4096.46 -9147.89)
(34822.4 -21541.4 -3469.38 4924.68 3808.54 -9147.96)
(38335.8 -18618.3 -3788.24 1411.14 3491.71 -9147.96)
(41288.5 -15129.5 -4078.04 -1541.42 3148.21 -9147.92)
(43590.3 -11181 -4336.96 -3843.4 2780.82 -9147.99)
(45171.5 -6892.75 -4562.85 -5424.58 2392.29 -9147.97)
(45984.1 -2395.1 -4753.95 -6237.06 1985.48 -9147.94)
(46003.4 2175.34 -4908.85 -6256.32 1563.56 -9147.93)
(45228.7 6679.71 -5026.46 -5481.67 1129.77 -9147.94)
(43683.6 10981.2 -5105.85 -3936.44 687.379 -9147.85)
(41414.9 14948.8 -5146.38 -1667.96 239.755 -9147.92)
(38491.9 18462.3 -5147.64 1255.15 -209.671 -9147.89)
(35003.2 21414.9 -5109.72 4744.02 -657.512 -9147.85)
(31054.6 23716.8 -5033.08 8692.46 -1100.42 -9147.84)
(26766.4 25298.1 -4917.92 12980.9 -1534.77 -9147.79)
(22268.7 26110.6 -4765.5 17478.4 -1957.58 -9147.88)
(17698.3 26129.9 -4576.69 22048.8 -2365.38 -9147.9)
(13193.8 25355.2 -4353.09 26553.3 -2755.3 -9147.9)
(8892.41 23810 -4096.46 30854.7 -3124.28 -9147.89)
(4924.69 21541.4 -3808.53 34822.4 -3469.38 -9147.96)
(1411.13 18618.3 -3491.71 38335.8 -3788.24 -9147.96)
(-1541.43 15129.5 -3148.21 41288.5 -4078.04 -9147.93)
(-3843.4 11181 -2780.82 43590.3 -4336.96 -9147.99)
(-5424.58 6892.75 -2392.29 45171.5 -4562.85 -9147.98)
(-6237.06 2395.1 -1985.48 45984.1 -4753.95 -9147.94)
(-6256.32 -2175.34 -1563.56 46003.4 -4908.85 -9147.93)
(-5481.67 -6679.71 -1129.77 45228.7 -5026.46 -9147.94)
(-3936.44 -10981.2 -687.379 43683.6 -5105.85 -9147.85)
(-1667.96 -14948.8 -239.755 41414.9 -5146.38 -9147.92)
(1255.15 -18462.3 209.671 38491.9 -5147.64 -9147.89)
(4744.02 -21414.9 657.512 35003.2 -5109.72 -9147.85)
(8692.46 -23716.8 1100.42 31054.6 -5033.08 -9147.84)
(12980.9 -25298.1 1534.77 26766.4 -4917.92 -9147.79)
(17478.4 -26110.6 1957.58 22268.7 -4765.5 -9147.88)
(22048.8 -26129.9 2365.38 17698.3 -4576.69 -9147.89)
(26553.3 -25355.2 2755.3 13193.8 -4353.09 -9147.9)
(30854.7 -23810 3124.28 8892.41 -4096.46 -9147.89)
(34822.4 -21541.4 3469.38 4924.69 -3808.53 -9147.96)
(38335.8 -18618.3 3788.24 1411.13 -3491.71 -9147.96)
(41288.5 -15129.5 4078.04 -1541.43 -3148.21 -9147.93)
(43590.3 -11181 4336.96 -3843.4 -2780.82 -9147.99)
(45171.5 -6892.75 4562.85 -5424.58 -2392.29 -9147.97)
(45984.1 -2395.1 4753.95 -6237.06 -1985.48 -9147.93)
(46003.4 2175.34 4908.85 -6256.32 -1563.56 -9147.93)
(45228.7 6679.71 5026.46 -5481.67 -1129.77 -9147.94)
(43683.6 10981.2 5105.85 -3936.45 -687.379 -9147.85)
(41414.9 14948.8 5146.38 -1667.96 -239.755 -9147.92)
(38491.9 18462.3 5147.64 1255.15 209.671 -9147.9)
(35003.2 21414.9 5109.72 4744.01 657.512 -9147.86)
(31054.6 23716.8 5033.08 8692.46 1100.42 -9147.84)
(26766.4 25298.1 4917.92 12980.9 1534.77 -9147.78)
(22268.7 26110.6 4765.5 17478.4 1957.58 -9147.87)