/*--------------------------------*- C++ -*----------------------------------*\
| =========                 |                                                 |
| \\      /  F ield         | OpenFOAM: The Open Source CFD Toolbox           |
|  \\    /   O peration     | Version:  2312                                  |
|   \\  /    A nd           | Website:  www.openfoam.com                      |
|    \\/     M anipulation  |                                                 |
\*---------------------------------------------------------------------------*/
FoamFile
{
    version     2.0;
    format      ascii;
    arch        "LSB;label=32;scalar=64";
    class       volVectorField;
    location    "1";
    object      U;
}
// * * * * * * * * * * * * * * * * * * * * * * * * * * * * * * * * * * * * * //

dimensions      [0 1 -1 0 0 0 0];

internalField   nonuniform List<vector> 
3240
(
(-0.000423336 0.000194638 2.48209e-05)
(-0.00043869 0.000157003 2.48234e-05)
(-0.000450705 0.00011817 2.48215e-05)
(-0.000459288 7.84378e-05 2.48209e-05)
(-0.000464377 3.81087e-05 2.48216e-05)
(-0.000465929 -2.50858e-06 2.4821e-05)
(-0.000463936 -4.31068e-05 2.48218e-05)
(-0.000458414 -8.33767e-05 2.48207e-05)
(-0.000449405 -0.000123014 2.48197e-05)
(-0.000436975 -0.000161715 2.48196e-05)
(-0.000421218 -0.000199185 2.48201e-05)
(-0.000402254 -0.00023514 2.48196e-05)
(-0.000380229 -0.000269303 2.48215e-05)
(-0.00035531 -0.000301417 2.48227e-05)
(-0.00032769 -0.000331233 2.48239e-05)
(-0.000297576 -0.000358534 2.48232e-05)
(-0.000265194 -0.000383106 2.48209e-05)
(-0.000230795 -0.000404761 2.4823e-05)
(-0.000194639 -0.000423336 2.48229e-05)
(-0.000157005 -0.000438689 2.48257e-05)
(-0.000118172 -0.000450705 2.48239e-05)
(-7.84399e-05 -0.000459288 2.48235e-05)
(-3.8111e-05 -0.000464377 2.48243e-05)
(2.50627e-06 -0.000465929 2.48239e-05)
(4.31045e-05 -0.000463936 2.48247e-05)
(8.33744e-05 -0.000458414 2.48237e-05)
(0.000123012 -0.000449405 2.48228e-05)
(0.000161713 -0.000436975 2.48227e-05)
(0.000199182 -0.000421218 2.48231e-05)
(0.000235137 -0.000402254 2.48226e-05)
(0.000269301 -0.00038023 2.48245e-05)
(0.000301415 -0.000355311 2.48256e-05)
(0.000331231 -0.000327691 2.48268e-05)
(0.000358532 -0.000297577 2.4826e-05)
(0.000383105 -0.000265195 2.48236e-05)
(0.000404759 -0.000230796 2.48255e-05)
(0.000423334 -0.00019464 2.48253e-05)
(0.000438688 -0.000157005 2.48279e-05)
(0.000450703 -0.000118173 2.48258e-05)
(0.000459286 -7.84406e-05 2.48252e-05)
(0.000464375 -3.81116e-05 2.48258e-05)
(0.000465928 2.50574e-06 2.48251e-05)
(0.000463935 4.31041e-05 2.48258e-05)
(0.000458413 8.33741e-05 2.48245e-05)
(0.000449404 0.000123011 2.48233e-05)
(0.000436974 0.000161713 2.48229e-05)
(0.000421217 0.000199182 2.48231e-05)
(0.000402253 0.000235137 2.48223e-05)
(0.000380229 0.000269301 2.48239e-05)
(0.00035531 0.000301415 2.48248e-05)
(0.000327689 0.000331231 2.48257e-05)
(0.000297575 0.000358532 2.48246e-05)
(0.000265193 0.000383105 2.4822e-05)
(0.000230794 0.00040476 2.48237e-05)
(0.000194638 0.000423335 2.48232e-05)
(0.000157004 0.000438688 2.48256e-05)
(0.000118171 0.000450704 2.48234e-05)
(7.84385e-05 0.000459287 2.48226e-05)
(3.81094e-05 0.000464376 2.48231e-05)
(-2.50797e-06 0.000465928 2.48223e-05)
(-4.31063e-05 0.000463935 2.48228e-05)
(-8.33764e-05 0.000458413 2.48214e-05)
(-0.000123014 0.000449404 2.48202e-05)
(-0.000161715 0.000436973 2.48198e-05)
(-0.000199185 0.000421217 2.482e-05)
(-0.00023514 0.000402253 2.48192e-05)
(-0.000269303 0.000380228 2.48209e-05)
(-0.000301417 0.000355309 2.48218e-05)
(-0.000331234 0.000327689 2.48228e-05)
(-0.000358534 0.000297574 2.48218e-05)
(-0.000383107 0.000265192 2.48194e-05)
(-0.000404761 0.000230794 2.48211e-05)
(-0.000542926 -0.00026831 -4.9838e-05)
(-0.000517476 -0.000314608 -4.98364e-05)
(-0.000488088 -0.000358512 -4.98369e-05)
(-0.000454984 -0.000399688 -4.98366e-05)
(-0.000418417 -0.000437823 -4.98367e-05)
(-0.000378665 -0.000472625 -4.98371e-05)
(-0.000336031 -0.000503829 -4.98375e-05)
(-0.00029084 -0.000531198 -4.98383e-05)
(-0.000243438 -0.000554525 -4.98394e-05)
(-0.000194183 -0.000573632 -4.98403e-05)
(-0.000143451 -0.000588372 -4.98396e-05)
(-9.16248e-05 -0.000598636 -4.98387e-05)
(-3.91001e-05 -0.000604345 -4.98374e-05)
(1.37208e-05 -0.000605452 -4.98369e-05)
(6.6437e-05 -0.000601951 -4.98364e-05)
(0.000118647 -0.000593871 -4.98362e-05)
(0.000169955 -0.00058127 -4.98372e-05)
(0.000219969 -0.000564246 -4.9836e-05)
(0.000268309 -0.000542927 -4.98356e-05)
(0.000314607 -0.000517477 -4.98338e-05)
(0.000358511 -0.000488089 -4.98341e-05)
(0.000399687 -0.000454985 -4.98336e-05)
(0.000437822 -0.000418418 -4.98336e-05)
(0.000472624 -0.000378667 -4.98337e-05)
(0.000503828 -0.000336032 -4.9834e-05)
(0.000531197 -0.000290842 -4.98347e-05)
(0.000554524 -0.000243439 -4.98357e-05)
(0.000573631 -0.000194184 -4.98366e-05)
(0.000588372 -0.000143452 -4.98359e-05)
(0.000598636 -9.16263e-05 -4.9835e-05)
(0.000604345 -3.91015e-05 -4.98338e-05)
(0.000605452 1.37195e-05 -4.98333e-05)
(0.000601951 6.64357e-05 -4.98329e-05)
(0.000593871 0.000118646 -4.98328e-05)
(0.00058127 0.000169954 -4.98339e-05)
(0.000564246 0.000219968 -4.98328e-05)
(0.000542927 0.000268308 -4.98327e-05)
(0.000517477 0.000314606 -4.98311e-05)
(0.000488089 0.000358511 -4.98316e-05)
(0.000454985 0.000399687 -4.98314e-05)
(0.000418418 0.000437822 -4.98316e-05)
(0.000378666 0.000472624 -4.98321e-05)
(0.000336032 0.000503828 -4.98327e-05)
(0.000290842 0.000531197 -4.98337e-05)
(0.000243439 0.000554524 -4.9835e-05)
(0.000194184 0.000573631 -4.98362e-05)
(0.000143451 0.000588371 -4.98359e-05)
(9.16253e-05 0.000598635 -4.98353e-05)
(3.91005e-05 0.000604344 -4.98343e-05)
(-1.37207e-05 0.000605452 -4.98342e-05)
(-6.64369e-05 0.000601951 -4.98341e-05)
(-0.000118647 0.00059387 -4.98343e-05)
(-0.000169955 0.000581269 -4.98357e-05)
(-0.000219969 0.000564245 -4.98349e-05)
(-0.00026831 0.000542926 -4.9835e-05)
(-0.000314607 0.000517476 -4.98337e-05)
(-0.000358512 0.000488088 -4.98344e-05)
(-0.000399688 0.000454984 -4.98344e-05)
(-0.000437823 0.000418417 -4.98348e-05)
(-0.000472625 0.000378665 -4.98354e-05)
(-0.000503829 0.000336031 -4.98362e-05)
(-0.000531198 0.00029084 -4.98373e-05)
(-0.000554524 0.000243437 -4.98387e-05)
(-0.000573632 0.000194182 -4.98399e-05)
(-0.000588372 0.00014345 -4.98396e-05)
(-0.000598636 9.16238e-05 -4.9839e-05)
(-0.000604345 3.9099e-05 -4.9838e-05)
(-0.000605452 -1.3722e-05 -4.98378e-05)
(-0.000601951 -6.64382e-05 -4.98376e-05)
(-0.00059387 -0.000118648 -4.98377e-05)
(-0.000581269 -0.000169956 -4.9839e-05)
(-0.000564245 -0.00021997 -4.9838e-05)
(-0.00060351 -0.00024834 -5.65746e-05)
(-0.000579569 -0.000299992 -5.65741e-05)
(-0.000551218 -0.000349364 -5.65726e-05)
(-0.000518672 -0.000396077 -5.65717e-05)
(-0.00048218 -0.000439777 -5.65717e-05)
(-0.000442014 -0.000480129 -5.65728e-05)
(-0.000398484 -0.000516827 -5.6574e-05)
(-0.000351923 -0.00054959 -5.65765e-05)
(-0.000302685 -0.00057817 -5.65772e-05)
(-0.000251144 -0.000602349 -5.65784e-05)
(-0.000197692 -0.000621943 -5.65773e-05)
(-0.000142735 -0.000636806 -5.65753e-05)
(-8.6689e-05 -0.000646824 -5.65725e-05)
(-2.99846e-05 -0.00065192 -5.65721e-05)
(2.69493e-05 -0.000652052 -5.65731e-05)
(8.36757e-05 -0.000647222 -5.65734e-05)
(0.000139767 -0.000637466 -5.65726e-05)
(0.000194793 -0.000622859 -5.65718e-05)
(0.000248338 -0.000603512 -5.65716e-05)
(0.000299991 -0.000579572 -5.65708e-05)
(0.000349363 -0.000551221 -5.65691e-05)
(0.000396076 -0.000518676 -5.65679e-05)
(0.000439777 -0.000482183 -5.65677e-05)
(0.000480129 -0.000442017 -5.65686e-05)
(0.000516827 -0.000398488 -5.65697e-05)
(0.00054959 -0.000351927 -5.6572e-05)
(0.000578171 -0.000302689 -5.65726e-05)
(0.00060235 -0.000251148 -5.65738e-05)
(0.000621945 -0.000197695 -5.65727e-05)
(0.000636807 -0.000142738 -5.65706e-05)
(0.000646826 -8.66918e-05 -5.65678e-05)
(0.000651922 -2.99871e-05 -5.65675e-05)
(0.000652054 2.6947e-05 -5.65686e-05)
(0.000647224 8.36738e-05 -5.65691e-05)
(0.000637468 0.000139766 -5.65685e-05)
(0.000622861 0.000194792 -5.65679e-05)
(0.000603514 0.000248337 -5.6568e-05)
(0.000579574 0.000299991 -5.65674e-05)
(0.000551223 0.000349363 -5.6566e-05)
(0.000518677 0.000396076 -5.65651e-05)
(0.000482184 0.000439777 -5.65653e-05)
(0.000442018 0.000480129 -5.65666e-05)
(0.000398488 0.000516827 -5.65681e-05)
(0.000351927 0.000549591 -5.65707e-05)
(0.000302689 0.000578171 -5.65718e-05)
(0.000251147 0.000602351 -5.65733e-05)
(0.000197695 0.000621945 -5.65726e-05)
(0.000142738 0.000636807 -5.6571e-05)
(8.66906e-05 0.000646826 -5.65686e-05)
(2.99857e-05 0.000651922 -5.65687e-05)
(-2.69486e-05 0.000652053 -5.65702e-05)
(-8.36754e-05 0.000647223 -5.65711e-05)
(-0.000139767 0.000637466 -5.65708e-05)
(-0.000194794 0.000622859 -5.65706e-05)
(-0.000248339 0.000603512 -5.65709e-05)
(-0.000299992 0.000579571 -5.65707e-05)
(-0.000349364 0.00055122 -5.65695e-05)
(-0.000396077 0.000518674 -5.65689e-05)
(-0.000439778 0.000482181 -5.65693e-05)
(-0.000480129 0.000442015 -5.65708e-05)
(-0.000516827 0.000398485 -5.65724e-05)
(-0.00054959 0.000351924 -5.65752e-05)
(-0.00057817 0.000302685 -5.65764e-05)
(-0.00060235 0.000251144 -5.6578e-05)
(-0.000621943 0.000197691 -5.65773e-05)
(-0.000636806 0.000142734 -5.65756e-05)
(-0.000646824 8.66877e-05 -5.65733e-05)
(-0.000651919 2.99831e-05 -5.65733e-05)
(-0.000652051 -2.69508e-05 -5.65746e-05)
(-0.000647221 -8.36773e-05 -5.65754e-05)
(-0.000637464 -0.000139769 -5.65749e-05)
(-0.000622857 -0.000194795 -5.65745e-05)
(-0.00126113 0.000213358 0.000267708)
(-0.00127492 0.000102636 0.00026771)
(-0.00127902 -8.87295e-06 0.000267704)
(-0.00127338 -0.000120315 0.000267705)
(-0.00125805 -0.000230842 0.000267706)
(-0.00123314 -0.000339609 0.000267708)
(-0.00119885 -0.000445791 0.000267712)
(-0.00115543 -0.000548579 0.000267712)
(-0.00110322 -0.000647192 0.000267711)
(-0.00104262 -0.00074088 0.000267707)
(-0.000974082 -0.000828934 0.000267703)
(-0.000898128 -0.000910681 0.000267702)
(-0.00081534 -0.000985494 0.000267707)
(-0.000726346 -0.0010528 0.000267712)
(-0.000631826 -0.0011121 0.000267713)
(-0.000532498 -0.00116293 0.000267712)
(-0.000429115 -0.00120492 0.000267708)
(-0.000322465 -0.00123774 0.000267712)
(-0.000213363 -0.00126113 0.000267715)
(-0.000102641 -0.00127492 0.000267718)
(8.86768e-06 -0.00127902 0.000267713)
(0.00012031 -0.00127338 0.000267714)
(0.000230837 -0.00125805 0.000267715)
(0.000339603 -0.00123314 0.000267718)
(0.000445786 -0.00119885 0.000267722)
(0.000548573 -0.00115543 0.000267723)
(0.000647187 -0.00110322 0.000267721)
(0.000740875 -0.00104262 0.000267718)
(0.000828929 -0.000974084 0.000267714)
(0.000910676 -0.000898131 0.000267712)
(0.00098549 -0.000815342 0.000267718)
(0.0010528 -0.000726349 0.000267722)
(0.00111209 -0.000631829 0.000267723)
(0.00116293 -0.000532501 0.000267721)
(0.00120492 -0.000429118 0.000267717)
(0.00123773 -0.000322468 0.00026772)
(0.00126113 -0.000213366 0.000267723)
(0.00127492 -0.000102643 0.000267725)
(0.00127902 8.86521e-06 0.000267719)
(0.00127338 0.000120308 0.00026772)
(0.00125805 0.000230835 0.00026772)
(0.00123314 0.000339602 0.000267722)
(0.00119885 0.000445784 0.000267725)
(0.00115543 0.000548572 0.000267725)
(0.00110322 0.000647185 0.000267722)
(0.00104262 0.000740874 0.000267718)
(0.000974081 0.000828929 0.000267713)
(0.000898127 0.000910675 0.000267711)
(0.000815339 0.000985489 0.000267715)
(0.000726345 0.0010528 0.000267719)
(0.000631825 0.00111209 0.000267719)
(0.000532497 0.00116293 0.000267716)
(0.000429114 0.00120492 0.000267711)
(0.000322463 0.00123773 0.000267714)
(0.000213361 0.00126113 0.000267716)
(0.000102638 0.00127492 0.000267717)
(-8.87041e-06 0.00127902 0.000267711)
(-0.000120313 0.00127338 0.000267711)
(-0.00023084 0.00125805 0.000267711)
(-0.000339607 0.00123314 0.000267712)
(-0.000445789 0.00119884 0.000267715)
(-0.000548578 0.00115543 0.000267715)
(-0.000647191 0.00110322 0.000267712)
(-0.00074088 0.00104262 0.000267708)
(-0.000828934 0.000974078 0.000267702)
(-0.00091068 0.000898124 0.000267701)
(-0.000985494 0.000815336 0.000267705)
(-0.0010528 0.000726342 0.000267709)
(-0.0011121 0.000631822 0.000267709)
(-0.00116293 0.000532494 0.000267707)
(-0.00120492 0.000429111 0.000267702)
(-0.00123774 0.00032246 0.000267706)
(-0.00149334 -0.00039333 0.000178938)
(-0.00145337 -0.000521985 0.00017894)
(-0.00140235 -0.000646669 0.00017894)
(-0.00134065 -0.000766434 0.000178941)
(-0.00126876 -0.000880366 0.000178941)
(-0.0011872 -0.000987594 0.000178941)
(-0.0010966 -0.00108731 0.000178941)
(-0.000997662 -0.00117874 0.00017894)
(-0.000891133 -0.00126121 0.00017894)
(-0.000777822 -0.00133408 0.00017894)
(-0.000658593 -0.00139679 0.000178939)
(-0.000534348 -0.00144888 0.000178939)
(-0.000406037 -0.00148994 0.00017894)
(-0.000274635 -0.00151966 0.000178941)
(-0.000141145 -0.0015378 0.000178942)
(-6.57971e-06 -0.00154425 0.000178943)
(0.000128036 -0.00153895 0.000178943)
(0.000261676 -0.00152194 0.000178945)
(0.000393325 -0.00149334 0.000178945)
(0.000521981 -0.00145338 0.000178948)
(0.000646665 -0.00140235 0.000178948)
(0.000766429 -0.00134066 0.00017895)
(0.000880361 -0.00126876 0.000178951)
(0.00098759 -0.0011872 0.000178951)
(0.0010873 -0.00109661 0.000178952)
(0.00117874 -0.000997666 0.000178951)
(0.00126121 -0.000891137 0.000178951)
(0.00133407 -0.000777827 0.000178951)
(0.00139679 -0.000658597 0.000178951)
(0.00144888 -0.000534352 0.00017895)
(0.00148994 -0.000406041 0.000178951)
(0.00151965 -0.000274639 0.000178952)
(0.0015378 -0.000141148 0.000178953)
(0.00154425 -6.58323e-06 0.000178954)
(0.00153895 0.000128032 0.000178953)
(0.00152194 0.000261673 0.000178955)
(0.00149334 0.000393323 0.000178954)
(0.00145338 0.000521978 0.000178956)
(0.00140235 0.000646663 0.000178956)
(0.00134066 0.000766428 0.000178957)
(0.00126876 0.00088036 0.000178957)
(0.0011872 0.000987589 0.000178956)
(0.0010966 0.0010873 0.000178956)
(0.000997664 0.00117874 0.000178954)
(0.000891135 0.0012612 0.000178953)
(0.000777824 0.00133407 0.000178952)
(0.000658594 0.00139679 0.000178951)
(0.000534349 0.00144888 0.000178949)
(0.000406037 0.00148993 0.000178949)
(0.000274636 0.00151965 0.00017895)
(0.000141144 0.0015378 0.000178949)
(6.57898e-06 0.00154425 0.000178949)
(-0.000128037 0.00153895 0.000178948)
(-0.000261678 0.00152194 0.000178948)
(-0.000393327 0.00149334 0.000178947)
(-0.000521983 0.00145337 0.000178948)
(-0.000646667 0.00140235 0.000178947)
(-0.000766432 0.00134065 0.000178948)
(-0.000880364 0.00126875 0.000178947)
(-0.000987593 0.00118719 0.000178946)
(-0.00108731 0.0010966 0.000178945)
(-0.00117874 0.00099766 0.000178943)
(-0.00126121 0.00089113 0.000178942)
(-0.00133408 0.00077782 0.000178941)
(-0.00139679 0.00065859 0.000178939)
(-0.00144888 0.000534345 0.000178938)
(-0.00148994 0.000406033 0.000178938)
(-0.00151965 0.000274632 0.000178939)
(-0.0015378 0.00014114 0.000178938)
(-0.00154425 6.57549e-06 0.000178939)
(-0.00153895 -0.00012804 0.000178938)
(-0.00152194 -0.000261681 0.000178939)
(-0.00164196 -0.000501852 0.000217335)
(-0.00159197 -0.000643047 0.000217336)
(-0.00152987 -0.00077935 0.000217338)
(-0.00145612 -0.000909723 0.000217341)
(-0.00137129 -0.00103317 0.000217342)
(-0.00127603 -0.00114876 0.000217341)
(-0.00117105 -0.0012556 0.000217339)
(-0.00105716 -0.00135288 0.000217334)
(-0.000935222 -0.00143987 0.000217332)
(-0.000806173 -0.0015159 0.000217333)
(-0.00067099 -0.00158039 0.000217334)
(-0.000530698 -0.00163286 0.000217336)
(-0.000386365 -0.0016729 0.000217338)
(-0.000239091 -0.00170021 0.000217338)
(-8.99973e-05 -0.00171458 0.000217338)
(5.97795e-05 -0.0017159 0.000217339)
(0.000209102 -0.00170416 0.000217341)
(0.000356832 -0.00167945 0.000217342)
(0.000501847 -0.00164196 0.000217342)
(0.000643043 -0.00159197 0.000217344)
(0.000779346 -0.00152987 0.000217346)
(0.000909719 -0.00145613 0.00021735)
(0.00103317 -0.0013713 0.000217352)
(0.00114876 -0.00127603 0.000217351)
(0.0012556 -0.00117105 0.000217349)
(0.00135288 -0.00105716 0.000217345)
(0.00143987 -0.000935228 0.000217344)
(0.0015159 -0.000806179 0.000217344)
(0.00158039 -0.000670996 0.000217346)
(0.00163286 -0.000530704 0.000217348)
(0.0016729 -0.00038637 0.00021735)
(0.00170021 -0.000239096 0.00021735)
(0.00171458 -9.00016e-05 0.00021735)
(0.0017159 5.97758e-05 0.00021735)
(0.00170416 0.000209098 0.000217351)
(0.00167945 0.000356829 0.000217353)
(0.00164196 0.000501845 0.000217351)
(0.00159198 0.000643042 0.000217353)
(0.00152987 0.000779345 0.000217355)
(0.00145613 0.000909719 0.000217358)
(0.0013713 0.00103317 0.000217359)
(0.00127603 0.00114876 0.000217357)
(0.00117105 0.0012556 0.000217354)
(0.00105716 0.00135288 0.000217349)
(0.000935227 0.00143987 0.000217346)
(0.000806177 0.0015159 0.000217346)
(0.000670993 0.0015804 0.000217346)
(0.0005307 0.00163286 0.000217348)
(0.000386366 0.0016729 0.000217348)
(0.000239092 0.00170021 0.000217347)
(8.99973e-05 0.00171458 0.000217346)
(-5.97802e-05 0.0017159 0.000217345)
(-0.000209103 0.00170416 0.000217346)
(-0.000356834 0.00167945 0.000217346)
(-0.00050185 0.00164196 0.000217344)
(-0.000643046 0.00159197 0.000217345)
(-0.000779349 0.00152987 0.000217346)
(-0.000909722 0.00145612 0.000217348)
(-0.00103317 0.00137129 0.000217349)
(-0.00114876 0.00127603 0.000217347)
(-0.0012556 0.00117105 0.000217343)
(-0.00135289 0.00105715 0.000217338)
(-0.00143987 0.00093522 0.000217335)
(-0.0015159 0.000806171 0.000217334)
(-0.00158039 0.000670987 0.000217335)
(-0.00163286 0.000530695 0.000217336)
(-0.0016729 0.000386361 0.000217337)
(-0.00170021 0.000239087 0.000217336)
(-0.00171458 8.99931e-05 0.000217335)
(-0.00171589 -5.97839e-05 0.000217334)
(-0.00170416 -0.000209106 0.000217335)
(-0.00167945 -0.000356836 0.000217336)
(-0.00166374 -4.98037e-05 0.000584249)
(-0.00165307 -0.000194617 0.00058425)
(-0.00162982 -0.000337951 0.000584248)
(-0.00159416 -0.000478713 0.00058425)
(-0.00154637 -0.000615832 0.000584249)
(-0.00148682 -0.000748263 0.000584252)
(-0.00141594 -0.000874999 0.000584256)
(-0.00133429 -0.000995077 0.000584254)
(-0.00124249 -0.00110758 0.000584255)
(-0.00114123 -0.00121166 0.000584254)
(-0.00103128 -0.00130651 0.000584254)
(-0.000913488 -0.00139142 0.000584252)
(-0.000788742 -0.00146574 0.000584254)
(-0.000657994 -0.00152891 0.000584257)
(-0.000522237 -0.00158044 0.000584258)
(-0.000382507 -0.00161994 0.00058426)
(-0.000239864 -0.00164711 0.000584258)
(-9.53964e-05 -0.00166175 0.000584258)
(4.97966e-05 -0.00166374 0.000584261)
(0.00019461 -0.00165307 0.000584263)
(0.000337943 -0.00162982 0.000584263)
(0.000478705 -0.00159416 0.000584265)
(0.000615824 -0.00154638 0.000584265)
(0.000748255 -0.00148682 0.000584269)
(0.00087499 -0.00141594 0.000584274)
(0.000995069 -0.00133429 0.000584272)
(0.00110757 -0.00124249 0.000584273)
(0.00121165 -0.00114123 0.000584272)
(0.0013065 -0.00103129 0.000584272)
(0.00139141 -0.000913492 0.00058427)
(0.00146573 -0.000788746 0.000584272)
(0.0015289 -0.000657998 0.000584275)
(0.00158043 -0.000522241 0.000584275)
(0.00161993 -0.000382511 0.000584276)
(0.0016471 -0.000239869 0.000584273)
(0.00166175 -9.54007e-05 0.000584273)
(0.00166374 4.97923e-05 0.000584275)
(0.00165306 0.000194606 0.000584276)
(0.00162981 0.000337939 0.000584274)
(0.00159416 0.000478701 0.000584275)
(0.00154637 0.000615821 0.000584274)
(0.00148681 0.000748252 0.000584276)
(0.00141594 0.000874987 0.000584279)
(0.00133429 0.000995066 0.000584277)
(0.00124249 0.00110757 0.000584275)
(0.00114123 0.00121165 0.000584273)
(0.00103128 0.0013065 0.000584272)
(0.000913486 0.00139141 0.000584268)
(0.000788741 0.00146573 0.000584268)
(0.000657992 0.0015289 0.000584269)
(0.000522235 0.00158043 0.000584268)
(0.000382504 0.00161993 0.000584268)
(0.000239862 0.0016471 0.000584264)
(9.53939e-05 0.00166174 0.000584262)
(-4.97993e-05 0.00166374 0.000584262)
(-0.000194613 0.00165306 0.000584262)
(-0.000337947 0.00162981 0.00058426)
(-0.000478709 0.00159416 0.00058426)
(-0.000615829 0.00154637 0.000584258)
(-0.00074826 0.00148681 0.000584259)
(-0.000874995 0.00141594 0.000584262)
(-0.000995074 0.00133429 0.000584259)
(-0.00110758 0.00124248 0.000584257)
(-0.00121166 0.00114122 0.000584254)
(-0.00130651 0.00103128 0.000584253)
(-0.00139142 0.000913482 0.000584249)
(-0.00146574 0.000788737 0.00058425)
(-0.00152891 0.000657988 0.000584252)
(-0.00158044 0.000522231 0.000584251)
(-0.00161994 0.0003825 0.000584252)
(-0.00164711 0.000239858 0.000584248)
(-0.00166175 9.53895e-05 0.000584247)
(-0.00198082 -0.000300251 0.000519931)
(-0.00194711 -0.000471747 0.000519931)
(-0.00189859 -0.000639654 0.000519931)
(-0.00183562 -0.000802693 0.000519932)
(-0.00175867 -0.000959624 0.000519932)
(-0.00166834 -0.00110925 0.000519933)
(-0.00156531 -0.00125044 0.000519934)
(-0.00145037 -0.0013821 0.000519934)
(-0.0013244 -0.00150325 0.000519934)
(-0.00118834 -0.00161296 0.000519934)
(-0.00104324 -0.00171039 0.000519933)
(-0.000890201 -0.00179481 0.000519933)
(-0.000730386 -0.00186557 0.000519936)
(-0.000565013 -0.00192212 0.000519937)
(-0.00039534 -0.00196405 0.000519938)
(-0.000222658 -0.00199104 0.000519938)
(-4.82815e-05 -0.00200287 0.000519939)
(0.000126462 -0.00199945 0.000519941)
(0.000300244 -0.00198082 0.000519942)
(0.00047174 -0.00194712 0.000519944)
(0.000639647 -0.00189859 0.000519944)
(0.000802686 -0.00183562 0.000519946)
(0.000959617 -0.00175868 0.000519948)
(0.00110924 -0.00166835 0.000519949)
(0.00125043 -0.00156532 0.000519951)
(0.0013821 -0.00145038 0.000519951)
(0.00150325 -0.0013244 0.000519951)
(0.00161296 -0.00118835 0.000519951)
(0.00171039 -0.00104325 0.000519951)
(0.0017948 -0.000890206 0.000519951)
(0.00186556 -0.000730391 0.000519953)
(0.00192212 -0.000565018 0.000519954)
(0.00196405 -0.000395344 0.000519954)
(0.00199103 -0.000222662 0.000519954)
(0.00200286 -4.8286e-05 0.000519955)
(0.00199945 0.000126458 0.000519956)
(0.00198082 0.00030024 0.000519956)
(0.00194711 0.000471737 0.000519956)
(0.00189859 0.000639644 0.000519956)
(0.00183562 0.000802683 0.000519956)
(0.00175867 0.000959614 0.000519956)
(0.00166834 0.00110924 0.000519957)
(0.00156532 0.00125043 0.000519957)
(0.00145037 0.00138209 0.000519956)
(0.0013244 0.00150325 0.000519954)
(0.00118834 0.00161295 0.000519953)
(0.00104324 0.00171039 0.000519951)
(0.000890201 0.0017948 0.000519949)
(0.000730386 0.00186556 0.00051995)
(0.000565012 0.00192212 0.000519949)
(0.000395338 0.00196405 0.000519948)
(0.000222656 0.00199103 0.000519947)
(4.82795e-05 0.00200286 0.000519946)
(-0.000126465 0.00199945 0.000519946)
(-0.000300247 0.00198082 0.000519944)
(-0.000471744 0.00194711 0.000519944)
(-0.000639651 0.00189859 0.000519942)
(-0.00080269 0.00183561 0.000519942)
(-0.000959621 0.00175867 0.000519941)
(-0.00110925 0.00166834 0.000519941)
(-0.00125043 0.00156531 0.00051994)
(-0.0013821 0.00145037 0.000519939)
(-0.00150325 0.00132439 0.000519937)
(-0.00161296 0.00118834 0.000519935)
(-0.00171039 0.00104324 0.000519933)
(-0.00179481 0.000890196 0.000519931)
(-0.00186556 0.000730381 0.000519933)
(-0.00192212 0.000565007 0.000519932)
(-0.00196405 0.000395334 0.000519932)
(-0.00199103 0.000222651 0.000519931)
(-0.00200286 4.8275e-05 0.000519931)
(-0.00199945 -0.000126469 0.000519931)
(-0.00224416 -0.000378125 0.000450425)
(-0.00220266 -0.000572277 0.000450424)
(-0.0021444 -0.000762074 0.000450425)
(-0.00206982 -0.000946071 0.000450426)
(-0.00197949 -0.00112287 0.000450427)
(-0.0018741 -0.00129112 0.000450428)
(-0.00175443 -0.00144955 0.000450429)
(-0.00162142 -0.00159694 0.000450429)
(-0.00147607 -0.00173218 0.000450428)
(-0.00131948 -0.00185423 0.000450428)
(-0.00115286 -0.00196218 0.000450426)
(-0.000977454 -0.00205519 0.000450427)
(-0.000794613 -0.00213256 0.000450427)
(-0.000605726 -0.0021937 0.000450428)
(-0.000412228 -0.00223814 0.000450428)
(-0.000215593 -0.00226555 0.00045043)
(-1.73181e-05 -0.00227572 0.000450431)
(0.000181089 -0.00226857 0.000450433)
(0.000378119 -0.00224416 0.000450434)
(0.000572271 -0.00220266 0.000450435)
(0.000762068 -0.00214441 0.000450437)
(0.000946065 -0.00206983 0.000450438)
(0.00112286 -0.0019795 0.00045044)
(0.00129112 -0.0018741 0.000450442)
(0.00144954 -0.00175444 0.000450443)
(0.00159693 -0.00162143 0.000450444)
(0.00173217 -0.00147607 0.000450443)
(0.00185423 -0.00131949 0.000450443)
(0.00196217 -0.00115286 0.000450442)
(0.00205519 -0.000977459 0.000450442)
(0.00213256 -0.000794619 0.000450442)
(0.0021937 -0.000605731 0.000450443)
(0.00223814 -0.000412232 0.000450443)
(0.00226555 -0.000215597 0.000450444)
(0.00227572 -1.73218e-05 0.000450445)
(0.00226857 0.000181086 0.000450446)
(0.00224416 0.000378116 0.000450447)
(0.00220266 0.000572269 0.000450447)
(0.0021444 0.000762066 0.000450447)
(0.00206983 0.000946064 0.000450448)
(0.0019795 0.00112286 0.000450448)
(0.0018741 0.00129111 0.000450449)
(0.00175444 0.00144954 0.000450449)
(0.00162142 0.00159693 0.000450449)
(0.00147607 0.00173217 0.000450446)
(0.00131948 0.00185423 0.000450445)
(0.00115286 0.00196217 0.000450443)
(0.000977454 0.00205518 0.000450441)
(0.000794613 0.00213256 0.00045044)
(0.000605725 0.00219369 0.00045044)
(0.000412226 0.00223814 0.000450438)
(0.000215592 0.00226555 0.000450438)
(1.73157e-05 0.00227572 0.000450438)
(-0.000181092 0.00226857 0.000450438)
(-0.000378122 0.00224415 0.000450437)
(-0.000572275 0.00220266 0.000450436)
(-0.000762072 0.0021444 0.000450436)
(-0.000946069 0.00206982 0.000450435)
(-0.00112287 0.00197949 0.000450435)
(-0.00129112 0.00187409 0.000450435)
(-0.00144954 0.00175443 0.000450435)
(-0.00159694 0.00162142 0.000450434)
(-0.00173218 0.00147606 0.000450431)
(-0.00185423 0.00131948 0.00045043)
(-0.00196218 0.00115285 0.000450427)
(-0.00205519 0.000977449 0.000450426)
(-0.00213256 0.000794608 0.000450425)
(-0.0021937 0.00060572 0.000450424)
(-0.00223814 0.000412222 0.000450424)
(-0.00226555 0.000215587 0.000450423)
(-0.00227572 1.7312e-05 0.000450424)
(-0.00226857 -0.000181095 0.000450425)
(-0.00154992 -0.000320945 0.000738181)
(-0.00151605 -0.000454807 0.00073818)
(-0.00147065 -0.000585209 0.000738178)
(-0.00141405 -0.000711157 0.000738179)
(-0.00134668 -0.000831693 0.00073818)
(-0.00126907 -0.0009459 0.000738181)
(-0.0011818 -0.00105291 0.000738184)
(-0.00108554 -0.0011519 0.000738184)
(-0.000981012 -0.00124213 0.000738185)
(-0.00086902 -0.0013229 0.000738182)
(-0.000750416 -0.00139361 0.000738184)
(-0.0006261 -0.00145371 0.000738185)
(-0.000497018 -0.00150274 0.000738188)
(-0.000364154 -0.00154034 0.000738189)
(-0.000228519 -0.00156622 0.00073819)
(-9.11448e-05 -0.00158018 0.000738192)
(4.69223e-05 -0.00158211 0.000738193)
(0.000184632 -0.001572 0.000738194)
(0.000320937 -0.00154992 0.000738197)
(0.000454799 -0.00151605 0.000738198)
(0.000585201 -0.00147065 0.000738197)
(0.000711148 -0.00141405 0.000738199)
(0.000831684 -0.00134668 0.000738201)
(0.00094589 -0.00126907 0.000738203)
(0.0010529 -0.0011818 0.000738207)
(0.00115189 -0.00108554 0.000738208)
(0.00124212 -0.000981013 0.000738208)
(0.00132289 -0.000869021 0.000738205)
(0.0013936 -0.000750417 0.000738207)
(0.0014537 -0.000626101 0.000738208)
(0.00150273 -0.00049702 0.000738211)
(0.00154033 -0.000364156 0.000738211)
(0.00156621 -0.000228522 0.000738212)
(0.00158017 -9.11473e-05 0.000738213)
(0.0015821 4.69196e-05 0.000738213)
(0.00157199 0.000184629 0.000738213)
(0.00154991 0.000320933 0.000738214)
(0.00151604 0.000454796 0.000738214)
(0.00147064 0.000585197 0.000738211)
(0.00141404 0.000711145 0.000738212)
(0.00134667 0.00083168 0.000738212)
(0.00126906 0.000945887 0.000738212)
(0.00118179 0.00105289 0.000738214)
(0.00108553 0.00115189 0.000738213)
(0.000981004 0.00124212 0.000738211)
(0.000869013 0.00132289 0.000738206)
(0.000750409 0.0013936 0.000738206)
(0.000626093 0.00145369 0.000738205)
(0.000497012 0.00150273 0.000738206)
(0.000364148 0.00154033 0.000738204)
(0.000228514 0.00156621 0.000738203)
(9.11394e-05 0.00158016 0.000738202)
(-4.69275e-05 0.00158209 0.0007382)
(-0.000184637 0.00157199 0.000738198)
(-0.000320942 0.00154991 0.000738198)
(-0.000454804 0.00151604 0.000738196)
(-0.000585206 0.00147064 0.000738193)
(-0.000711153 0.00141404 0.000738192)
(-0.000831689 0.00134667 0.000738191)
(-0.000945896 0.00126906 0.000738191)
(-0.0010529 0.00118179 0.000738191)
(-0.0011519 0.00108553 0.00073819)
(-0.00124213 0.000981003 0.000738188)
(-0.0013229 0.000869012 0.000738183)
(-0.00139361 0.000750408 0.000738183)
(-0.00145371 0.000626092 0.000738182)
(-0.00150274 0.00049701 0.000738183)
(-0.00154034 0.000364146 0.000738182)
(-0.00156622 0.000228511 0.000738181)
(-0.00158017 9.1137e-05 0.000738181)
(-0.00158211 -4.69302e-05 0.00073818)
(-0.001572 -0.00018464 0.00073818)
(-0.00181949 -0.000203959 0.000648182)
(-0.00179479 -0.000361761 0.000648182)
(-0.00175643 -0.00051681 0.000648181)
(-0.00170471 -0.000667926 0.00064818)
(-0.00164 -0.000813959 0.000648181)
(-0.00156282 -0.000953799 0.000648183)
(-0.00147375 -0.00108638 0.000648185)
(-0.00137346 -0.00121069 0.000648186)
(-0.00126271 -0.00132579 0.000648186)
(-0.00114235 -0.00143079 0.000648185)
(-0.00101331 -0.00152491 0.000648186)
(-0.000876548 -0.00160742 0.000648187)
(-0.000733116 -0.0016777 0.000648188)
(-0.000584104 -0.00173521 0.00064819)
(-0.000430648 -0.00177952 0.000648191)
(-0.000273915 -0.00181028 0.000648191)
(-0.000115098 -0.00182727 0.000648193)
(4.45955e-05 -0.00183034 0.000648195)
(0.00020395 -0.00181949 0.000648197)
(0.000361752 -0.00179479 0.000648197)
(0.000516801 -0.00175643 0.000648197)
(0.000667917 -0.00170471 0.000648198)
(0.00081395 -0.00164001 0.0006482)
(0.000953789 -0.00156283 0.000648203)
(0.00108637 -0.00147375 0.000648205)
(0.00121068 -0.00137346 0.000648207)
(0.00132578 -0.00126271 0.000648207)
(0.00143078 -0.00114236 0.000648207)
(0.0015249 -0.00101331 0.000648207)
(0.00160742 -0.00087655 0.000648207)
(0.00167769 -0.000733119 0.000648209)
(0.0017352 -0.000584107 0.000648211)
(0.00177951 -0.000430652 0.000648211)
(0.00181027 -0.000273918 0.000648211)
(0.00182726 -0.000115101 0.000648211)
(0.00183033 4.45923e-05 0.000648212)
(0.00181948 0.000203947 0.000648212)
(0.00179478 0.000361749 0.000648212)
(0.00175643 0.000516798 0.000648211)
(0.0017047 0.000667914 0.00064821)
(0.00164 0.000813947 0.00064821)
(0.00156282 0.000953786 0.000648211)
(0.00147374 0.00108637 0.000648212)
(0.00137345 0.00121068 0.000648212)
(0.0012627 0.00132577 0.00064821)