/*--------------------------------*- C++ -*----------------------------------*\
| =========                 |                                                 |
| \\      /  F ield         | OpenFOAM: The Open Source CFD Toolbox           |
|  \\    /   O peration     | Version:  2312                                  |
|   \\  /    A nd           | Website:  www.openfoam.com                      |
|    \\/     M anipulation  |                                                 |
\*---------------------------------------------------------------------------*/
FoamFile
{
    version     2.0;
    format      ascii;
    arch        "LSB;label=32;scalar=64";
    class       volVectorField;
    location    "1";
    object      D;
}
// * * * * * * * * * * * * * * * * * * * * * * * * * * * * * * * * * * * * * //

dimensions      [0 1 0 0 0 0 0];

internalField   nonuniform List<vector> 
1620
(
(0.000560836 -5.52621e-05 0.000122611)
(0.000478572 -0.000124203 -6.37596e-05)
(0.000395232 -0.000211478 -0.000186696)
(0.000319381 -0.000258962 -0.000240436)
(0.000257926 -0.000264011 -0.00024745)
(0.000216082 -0.000244777 -0.000227023)
(0.000194079 -0.000214005 -0.000192061)
(0.000185519 -0.000175356 -0.000151777)
(0.000179416 -0.00012887 -0.000112238)
(0.000163672 -7.48296e-05 -7.61828e-05)
(0.000127919 -1.39967e-05 -4.28063e-05)
(6.50018e-05 5.39157e-05 -7.34452e-06)
(-2.89393e-05 0.000129775 3.93376e-05)
(-0.000154633 0.000208208 0.000109297)
(-0.000306306 0.000265889 0.000209081)
(-0.000462431 0.000262306 0.00031883)
(-0.000580043 0.000178685 0.000371997)
(-0.000611858 7.73994e-05 0.000296867)
(-0.000560836 5.52621e-05 0.000122611)
(-0.000478572 0.000124203 -6.37596e-05)
(-0.000395232 0.000211478 -0.000186696)
(-0.000319381 0.000258962 -0.000240436)
(-0.000257926 0.000264011 -0.00024745)
(-0.000216082 0.000244777 -0.000227023)
(-0.000194079 0.000214005 -0.000192061)
(-0.000185519 0.000175356 -0.000151777)
(-0.000179416 0.00012887 -0.000112238)
(-0.000163672 7.48296e-05 -7.61828e-05)
(-0.000127919 1.39967e-05 -4.28063e-05)
(-6.50018e-05 -5.39157e-05 -7.34452e-06)
(2.89393e-05 -0.000129775 3.93376e-05)
(0.000154633 -0.000208208 0.000109297)
(0.000306306 -0.000265889 0.000209081)
(0.000462431 -0.000262306 0.00031883)
(0.000580043 -0.000178685 0.000371997)
(0.000611858 -7.73994e-05 0.000296867)
(0.000471057 -0.000172422 8.18684e-05)
(0.000488069 -0.000212776 -1.44407e-07)
(0.000484848 -0.000226693 -6.53829e-05)
(0.000459323 -0.000201541 -0.000111218)
(0.000415049 -0.000152572 -0.000142874)
(0.000361359 -9.84168e-05 -0.000161098)
(0.000307341 -4.86594e-05 -0.000165796)
(0.000256812 -4.51017e-06 -0.000158541)
(0.000207845 3.61116e-05 -0.000141524)
(0.0001552 7.47575e-05 -0.000116174)
(9.3509e-05 0.000111114 -8.28288e-05)
(2.01177e-05 0.000143557 -4.11747e-05)
(-6.35098e-05 0.000170275 9.02328e-06)
(-0.00015282 0.000188878 6.66288e-05)
(-0.000242336 0.000194303 0.000126019)
(-0.000325604 0.000180969 0.000172743)
(-0.000393509 0.000155623 0.000185524)
(-0.000440272 0.00014731 0.000152602)
(-0.000471057 0.000172422 8.18684e-05)
(-0.000488069 0.000212776 -1.44405e-07)
(-0.000484848 0.000226693 -6.53829e-05)
(-0.000459323 0.000201541 -0.000111218)
(-0.000415049 0.000152572 -0.000142874)
(-0.000361359 9.84169e-05 -0.000161098)
(-0.000307341 4.86594e-05 -0.000165796)
(-0.000256812 4.51017e-06 -0.000158541)
(-0.000207845 -3.61116e-05 -0.000141524)
(-0.0001552 -7.47575e-05 -0.000116174)
(-9.3509e-05 -0.000111114 -8.28288e-05)
(-2.01177e-05 -0.000143557 -4.11747e-05)
(6.35097e-05 -0.000170275 9.02328e-06)
(0.00015282 -0.000188878 6.66288e-05)
(0.000242336 -0.000194303 0.000126019)
(0.000325604 -0.000180969 0.000172743)
(0.000393509 -0.000155623 0.000185524)
(0.000440272 -0.00014731 0.000152602)
(0.000339288 -0.000231833 2.95378e-05)
(0.000422038 -0.000264142 1.3747e-05)
(0.000488967 -0.000234419 -9.52112e-06)
(0.000524405 -0.000159448 -4.78205e-05)
(0.00052082 -6.72638e-05 -9.64516e-05)
(0.000482666 2.18177e-05 -0.000142235)
(0.000420689 9.76846e-05 -0.000174023)
(0.000344996 0.000156713 -0.000186488)
(0.000262351 0.000197965 -0.000178368)
(0.000176925 0.000220855 -0.000150458)
(9.23317e-05 0.000224402 -0.000105516)
(1.339e-05 0.000208032 -4.95397e-05)
(-5.38738e-05 0.000173811 7.40483e-06)
(-0.000104985 0.000129192 5.28781e-05)
(-0.000140888 8.84345e-05 7.68179e-05)
(-0.000169138 7.11136e-05 7.69343e-05)
(-0.000202963 9.53959e-05 6.19542e-05)
(-0.000259167 0.000160812 4.53437e-05)
(-0.000339288 0.000231833 2.95378e-05)
(-0.000422038 0.000264142 1.3747e-05)
(-0.000488967 0.000234419 -9.52112e-06)
(-0.000524405 0.000159448 -4.78205e-05)
(-0.00052082 6.72638e-05 -9.64516e-05)
(-0.000482666 -2.18177e-05 -0.000142235)
(-0.000420689 -9.76846e-05 -0.000174023)
(-0.000344996 -0.000156713 -0.000186488)
(-0.000262351 -0.000197965 -0.000178368)
(-0.000176925 -0.000220855 -0.000150458)
(-9.23317e-05 -0.000224402 -0.000105516)
(-1.339e-05 -0.000208032 -4.95397e-05)
(5.38738e-05 -0.000173811 7.40482e-06)
(0.000104985 -0.000129192 5.28781e-05)
(0.000140888 -8.84345e-05 7.68179e-05)
(0.000169138 -7.11136e-05 7.69343e-05)
(0.000202963 -9.53959e-05 6.19542e-05)
(0.000259167 -0.000160812 4.53437e-05)
(0.00148464 -0.000440149 0.000429501)
(0.0013975 -0.000609445 -8.91805e-05)
(0.00125973 -0.000717114 -0.000473859)
(0.00109489 -0.000696774 -0.000695259)
(0.000925636 -0.000595909 -0.000786606)
(0.000775209 -0.000473648 -0.000785846)
(0.000658445 -0.000356951 -0.000725831)
(0.000572696 -0.000247196 -0.000633843)
(0.000499381 -0.000137405 -0.000529376)
(0.000411927 -2.2846e-05 -0.00042196)
(0.000284901 9.68715e-05 -0.000309649)
(0.000101494 0.00022154 -0.00017821)
(-0.000143013 0.000353781 -2.85341e-06)
(-0.000442444 0.000491333 0.000242503)
(-0.000778733 0.000603964 0.000560945)
(-0.00111133 0.000624876 0.000889411)
(-0.00137231 0.000517269 0.00106165)
(-0.00149685 0.000394729 0.000888956)
(-0.00148464 0.000440149 0.000429501)
(-0.0013975 0.000609445 -8.91805e-05)
(-0.00125973 0.000717114 -0.000473859)
(-0.00109489 0.000696774 -0.000695259)
(-0.000925636 0.000595909 -0.000786606)
(-0.000775209 0.000473648 -0.000785846)
(-0.000658445 0.000356951 -0.000725831)
(-0.000572696 0.000247196 -0.000633843)
(-0.000499381 0.000137405 -0.000529376)
(-0.000411927 2.2846e-05 -0.00042196)
(-0.000284901 -9.68715e-05 -0.000309649)
(-0.000101494 -0.00022154 -0.00017821)
(0.000143013 -0.000353781 -2.85341e-06)
(0.000442444 -0.000491333 0.000242503)
(0.000778733 -0.000603964 0.000560945)
(0.00111133 -0.000624876 0.000889411)
(0.00137231 -0.000517269 0.00106165)
(0.00149685 -0.000394729 0.000888956)
(0.00133275 -0.000614644 0.000395975)
(0.00137857 -0.000725158 0.000104787)
(0.00136785 -0.000732615 -0.000144159)
(0.00129725 -0.000634927 -0.000335873)
(0.00117765 -0.000482315 -0.00046709)
(0.00103424 -0.000320817 -0.000537819)
(0.000888072 -0.000171295 -0.000555333)
(0.000746299 -3.68253e-05 -0.0005306)
(0.000602978 8.54151e-05 -0.000472792)
(0.000445094 0.000196481 -0.000386231)
(0.00026028 0.000293349 -0.000270104)
(4.40096e-05 0.000371428 -0.000120351)
(-0.000197031 0.00042938 6.64147e-05)
(-0.000448331 0.000469964 0.000286426)
(-0.000694225 0.000492629 0.000518663)
(-0.000919193 0.000490824 0.000711875)
(-0.00110569 0.000475972 0.000781628)
(-0.001241 0.000507433 0.000658553)
(-0.00133275 0.000614644 0.000395975)
(-0.00137857 0.000725158 0.000104787)
(-0.00136785 0.000732615 -0.000144159)
(-0.00129725 0.000634927 -0.000335873)
(-0.00117765 0.000482315 -0.00046709)
(-0.00103424 0.000320817 -0.000537819)
(-0.000888072 0.000171295 -0.000555333)
(-0.000746299 3.68253e-05 -0.0005306)
(-0.000602978 -8.54151e-05 -0.000472792)
(-0.000445094 -0.000196481 -0.000386231)
(-0.00026028 -0.000293349 -0.000270104)
(-4.40096e-05 -0.000371428 -0.000120351)
(0.000197031 -0.00042938 6.64147e-05)
(0.000448331 -0.000469964 0.000286426)
(0.000694225 -0.000492629 0.000518663)
(0.000919193 -0.000490824 0.000711875)
(0.00110569 -0.000475972 0.000781628)
(0.001241 -0.000507433 0.000658553)
(0.00106979 -0.000730334 0.000324713)
(0.00122957 -0.000809308 0.000220114)
(0.0013496 -0.000752722 9.43723e-05)
(0.00139204 -0.000600386 -6.19228e-05)
(0.0013517 -0.000404849 -0.00021973)
(0.00124691 -0.000202573 -0.000346938)
(0.00109853 -1.2717e-05 -0.000426426)
(0.000920577 0.000155009 -0.000452928)
(0.000720036 0.000294416 -0.00042554)
(0.000500245 0.000399633 -0.000344106)
(0.000265584 0.000464116 -0.000210316)
(2.59247e-05 0.000482398 -3.21499e-05)
(-0.000201903 0.000455167 0.000170866)
(-0.000399165 0.0003963 0.000365927)
(-0.000555893 0.000337293 0.000513131)
(-0.000678144 0.000322924 0.000578567)
(-0.000786231 0.00039328 0.000548628)
(-0.000909646 0.000556556 0.000445831)
(-0.00106979 0.000730334 0.000324713)
(-0.00122957 0.000809308 0.000220114)
(-0.0013496 0.000752722 9.43723e-05)
(-0.00139204 0.000600386 -6.19228e-05)
(-0.0013517 0.000404849 -0.00021973)
(-0.00124691 0.000202573 -0.000346938)
(-0.00109853 1.2717e-05 -0.000426426)
(-0.000920577 -0.000155009 -0.000452928)
(-0.000720036 -0.000294416 -0.00042554)
(-0.000500245 -0.000399633 -0.000344106)
(-0.000265584 -0.000464116 -0.000210316)
(-2.59247e-05 -0.000482398 -3.21499e-05)
(0.000201903 -0.000455167 0.000170866)
(0.000399165 -0.0003963 0.000365927)
(0.000555893 -0.000337293 0.000513131)
(0.000678144 -0.000322924 0.000578567)
(0.000786231 -0.00039328 0.000548628)
(0.000909646 -0.000556556 0.000445831)
(0.00225499 -0.00113245 0.000956429)
(0.00217674 -0.00131007 8.39507e-05)
(0.00199294 -0.001336 -0.000624769)
(0.00175292 -0.00120786 -0.00108078)
(0.00149911 -0.00099859 -0.00131637)
(0.00126374 -0.000776463 -0.00139166)
(0.00106566 -0.00057177 -0.00135824)
(0.000904291 -0.000385952 -0.00125538)
(0.000759114 -0.000209186 -0.00111024)
(0.000596834 -3.27684e-05 -0.000935497)
(0.000383207 0.000146581 -0.000726222)
(9.52568e-05 0.000329915 -0.000459033)
(-0.000271526 0.000520995 -9.81829e-05)
(-0.000704119 0.000720125 0.000385213)
(-0.00117436 0.000900835 0.000975604)
(-0.0016334 0.00100026 0.00155955)
(-0.00200811 0.00098755 0.00188881)
(-0.00221627 0.000990543 0.00168418)
(-0.00225499 0.00113245 0.000956429)
(-0.00217674 0.00131007 8.39507e-05)
(-0.00199294 0.001336 -0.000624769)
(-0.00175292 0.00120786 -0.00108078)
(-0.00149911 0.00099859 -0.00131637)
(-0.00126374 0.000776463 -0.00139166)
(-0.00106566 0.00057177 -0.00135824)
(-0.000904291 0.000385952 -0.00125538)
(-0.000759114 0.000209186 -0.00111024)
(-0.000596834 3.27684e-05 -0.000935497)
(-0.000383207 -0.000146581 -0.000726222)
(-9.52568e-05 -0.000329915 -0.000459033)
(0.000271526 -0.000520995 -9.81829e-05)
(0.000704119 -0.000720125 0.000385213)
(0.00117436 -0.000900835 0.000975604)
(0.0016334 -0.00100026 0.00155955)
(0.00200811 -0.00098755 0.00188881)
(0.00221627 -0.000990543 0.00168418)
(0.00206622 -0.00117774 0.000945149)
(0.00213136 -0.00129687 0.000398536)
(0.00209981 -0.00126205 -0.000104593)
(0.00198121 -0.00109513 -0.000492794)
(0.00180079 -0.000857971 -0.000754609)
(0.00159063 -0.000605269 -0.000901191)
(0.00137326 -0.000364393 -0.000951994)
(0.00115534 -0.000143133 -0.000926272)
(0.000929148 5.85762e-05 -0.000837665)
(0.000678845 0.000240372 -0.000691186)
(0.000389636 0.000398445 -0.000482903)
(5.67839e-05 0.000528223 -0.000203457)
(-0.000310204 0.000629947 0.000153037)
(-0.000691307 0.000709681 0.000574572)
(-0.00106325 0.000772069 0.00101461)
(-0.00140277 0.00081938 0.00138038)
(-0.00168853 0.00087519 0.00154093)
(-0.00190999 0.000995338 0.00138439)
(-0.00206622 0.00117774 0.000945149)
(-0.00213136 0.00129687 0.000398536)
(-0.00209981 0.00126205 -0.000104593)
(-0.00198121 0.00109513 -0.000492794)
(-0.00180079 0.000857971 -0.000754609)
(-0.00159063 0.000605269 -0.000901191)
(-0.00137326 0.000364393 -0.000951994)
(-0.00115534 0.000143133 -0.000926272)
(-0.000929148 -5.85762e-05 -0.000837665)
(-0.000678845 -0.000240372 -0.000691186)
(-0.000389636 -0.000398445 -0.000482903)
(-5.6784e-05 -0.000528223 -0.000203457)
(0.000310204 -0.000629947 0.000153037)
(0.000691307 -0.000709681 0.000574572)
(0.00106325 -0.000772069 0.00101461)
(0.00140277 -0.00081938 0.00138038)
(0.00168853 -0.00087519 0.00154093)
(0.00190999 -0.000995338 0.00138439)
(0.00170027 -0.00119264 0.000850489)
(0.00190628 -0.00129045 0.000600628)
(0.00204451 -0.00122592 0.000310348)
(0.00207431 -0.00103504 7.46171e-06)
(0.00199963 -0.000775001 -0.000262543)
(0.00184554 -0.000490657 -0.000464671)
(0.00163495 -0.000209481 -0.00058479)
(0.00138119 5.13267e-05 -0.000620848)
(0.0010903 0.000278927 -0.000572942)
(0.000766097 0.000462059 -0.000439428)
(0.000415434 0.000590833 -0.000219145)
(5.20941e-05 0.000658808 8.13261e-05)
(-0.00030263 0.000667504 0.000437037)
(-0.000624888 0.000633649 0.00079631)
(-0.000898661 0.000596711 0.00108649)
(-0.00112419 0.000614855 0.00124154)
(-0.00131649 0.000732915 0.00123214)
(-0.00149717 0.000955649 0.00107417)
(-0.00170027 0.00119264 0.000850489)
(-0.00190628 0.00129045 0.000600628)
(-0.00204451 0.00122592 0.000310348)
(-0.00207431 0.00103504 7.46172e-06)
(-0.00199963 0.000775001 -0.000262543)
(-0.00184554 0.000490657 -0.000464671)
(-0.00163495 0.000209481 -0.00058479)
(-0.00138119 -5.13267e-05 -0.000620848)
(-0.0010903 -0.000278927 -0.000572942)
(-0.000766097 -0.000462059 -0.000439428)
(-0.000415434 -0.000590833 -0.000219145)
(-5.20941e-05 -0.000658808 8.13261e-05)
(0.00030263 -0.000667504 0.000437037)
(0.000624888 -0.000633649 0.00079631)
(0.000898661 -0.000596711 0.00108649)
(0.00112419 -0.000614855 0.00124154)
(0.00131649 -0.000732915 0.00123214)
(0.00149717 -0.000955649 0.00107417)
(0.00284476 -0.00200656 0.0015878)
(0.00276149 -0.00209827 0.000468496)
(0.00253441 -0.00201786 -0.000527678)
(0.00223602 -0.00180025 -0.00122912)
(0.0019279 -0.00151162 -0.00164015)
(0.00164064 -0.00121088 -0.00183147)
(0.00138664 -0.000927609 -0.0018679)
(0.00116325 -0.000666105 -0.00179484)
(0.000950885 -0.000418157 -0.00164043)
(0.000717164 -0.000174199 -0.00141552)
(0.000427793 7.10755e-05 -0.00111199)
(5.96271e-05 0.000319859 -0.000704255)
(-0.000391034 0.000575368 -0.00015933)
(-0.000908897 0.000839104 0.000538947)
(-0.0014628 0.00109731 0.00134788)
(-0.00200348 0.00132062 0.00211746)
(-0.00246108 0.00151598 0.00257771)
(-0.00274987 0.0017665 0.00242673)
(-0.00284476 0.00200656 0.0015878)
(-0.00276149 0.00209827 0.000468496)
(-0.00253441 0.00201786 -0.000527678)
(-0.00223602 0.00180025 -0.00122912)
(-0.0019279 0.00151162 -0.00164015)
(-0.00164064 0.00121088 -0.00183147)
(-0.00138664 0.000927609 -0.0018679)
(-0.00116325 0.000666105 -0.00179484)
(-0.000950885 0.000418157 -0.00164043)
(-0.000717164 0.000174199 -0.00141552)
(-0.000427793 -7.10755e-05 -0.00111199)
(-5.96271e-05 -0.000319859 -0.000704255)
(0.000391034 -0.000575368 -0.00015933)
(0.000908897 -0.000839104 0.000538947)
(0.0014628 -0.00109731 0.00134788)
(0.00200348 -0.00132062 0.00211746)
(0.00246108 -0.00151598 0.00257771)
(0.00274987 -0.0017665 0.00242673)
(0.00263163 -0.00179412 0.00156034)
(0.00268663 -0.00188715 0.000818022)
(0.00261645 -0.00180293 9.47148e-05)
(0.00245188 -0.00158464 -0.000483056)
(0.0022285 -0.00129144 -0.000884134)
(0.00197601 -0.0009749 -0.00112373)
(0.00171178 -0.000664536 -0.00122878)
(0.00143947 -0.00037222 -0.00122276)
(0.00115083 -0.000101274 -0.00112049)
(0.000830925 0.000146492 -0.000926205)
(0.000466352 0.00036788 -0.000634318)
(5.30554e-05 0.000560091 -0.000234883)
(-0.000400425 0.000724733 0.000274015)
(-0.000875351 0.000868704 0.000867186)
(-0.00134607 0.00100076 0.00147299)
(-0.00178195 0.0011347 0.00196873)
(-0.00215375 0.0013054 0.00220921)
(-0.00244458 0.0015498 0.00208116)
(-0.00263163 0.00179412 0.00156034)
(-0.00268663 0.00188715 0.000818022)
(-0.00261645 0.00180293 9.47148e-05)
(-0.00245188 0.00158464 -0.000483056)
(-0.0022285 0.00129144 -0.000884134)
(-0.00197601 0.0009749 -0.00112373)
(-0.00171178 0.000664536 -0.00122878)
(-0.00143947 0.00037222 -0.00122276)
(-0.00115083 0.000101274 -0.00112049)
(-0.000830925 -0.000146492 -0.000926205)
(-0.000466352 -0.00036788 -0.000634318)
(-5.30554e-05 -0.000560091 -0.000234883)
(0.000400425 -0.000724733 0.000274015)
(0.000875351 -0.000868704 0.000867186)
(0.00134607 -0.00100076 0.00147299)
(0.00178195 -0.0011347 0.00196873)
(0.00215375 -0.0013054 0.00220921)
(0.00244458 -0.0015498 0.00208116)
(0.00227242 -0.00161857 0.00143497)
(0.00244613 -0.00172068 0.001054)
(0.00254371 -0.00164685 0.000617132)
(0.00253517 -0.00143395 0.000183627)
(0.00242403 -0.00113662 -0.00018915)
(0.00223221 -0.000801656 -0.000462522)
(0.00197944 -0.000460462 -0.000623056)
(0.0016761 -0.000134279 -0.000670429)
(0.00132644 0.000160187 -0.000605868)
(0.000934575 0.000408778 -0.000428049)
(0.00050917 0.000601033 -0.000135804)
(6.47911e-05 0.000732396 0.000263405)
(-0.000379829 0.000806425 0.000739882)
(-0.000804499 0.000839686 0.00122792)
(-0.00119141 0.000870665 0.00162973)
(-0.00153047 0.000956085 0.00185532)
(-0.00182094 0.00113408 0.00187251)
(-0.00206755 0.00138258 0.0017144)
(-0.00227242 0.00161857 0.00143497)
(-0.00244613 0.00172068 0.001054)
(-0.00254371 0.00164685 0.000617132)
(-0.00253517 0.00143395 0.000183627)
(-0.00242403 0.00113662 -0.00018915)
(-0.00223221 0.000801656 -0.000462522)
(-0.00197944 0.000460462 -0.000623056)
(-0.0016761 0.000134279 -0.000670429)
(-0.00132644 -0.000160187 -0.000605868)
(-0.000934575 -0.000408778 -0.000428049)
(-0.00050917 -0.000601033 -0.000135804)
(-6.47911e-05 -0.000732396 0.000263405)
(0.000379829 -0.000806425 0.000739882)
(0.000804498 -0.000839686 0.00122792)
(0.00119141 -0.000870665 0.00162973)
(0.00153047 -0.000956085 0.00185532)
(0.00182094 -0.00113408 0.0018725)
(0.00206755 -0.00138258 0.0017144)
(0.00323479 -0.00262767 0.00216187)
(0.00315267 -0.00273018 0.000995053)
(0.00288821 -0.00263065 -0.000182556)
(0.00254618 -0.00239122 -0.00108935)
(0.00220499 -0.00207426 -0.0016742)
(0.00189051 -0.00173053 -0.00199628)
(0.00160416 -0.00139093 -0.00212253)
(0.00133759 -0.0010654 -0.00209983)
(0.00107205 -0.000750609 -0.00195502)
(0.000779875 -0.000439372 -0.00169721)
(0.000432604 -0.000126546 -0.00131946)
(1.14536e-05 0.000190681 -0.000803227)
(-0.000486513 0.000516154 -0.000129228)
(-0.00104932 0.000854507 0.000700442)
(-0.0016503 0.0012044 0.00162226)
(-0.00224124 0.00156115 0.00246676)
(-0.00274771 0.00193547 0.00297185)
(-0.00309186 0.00232347 0.00289537)
(-0.00323479 0.00262767 0.00216187)
(-0.00315267 0.00273018 0.000995053)
(-0.00288821 0.00263065 -0.000182556)
(-0.00254618 0.00239122 -0.00108935)
(-0.00220499 0.00207426 -0.0016742)
(-0.00189051 0.00173053 -0.00199628)
(-0.00160416 0.00139093 -0.00212253)
(-0.00133759 0.0010654 -0.00209983)
(-0.00107205 0.000750609 -0.00195502)
(-0.000779875 0.000439372 -0.00169721)
(-0.000432604 0.000126546 -0.00131946)
(-1.14536e-05 -0.000190681 -0.000803227)
(0.000486512 -0.000516154 -0.000129228)
(0.00104932 -0.000854507 0.000700442)
(0.0016503 -0.0012044 0.00162226)
(0.00224124 -0.00156115 0.00246676)
(0.00274771 -0.00193547 0.00297185)
(0.00309185 -0.00232347 0.00289537)
(0.00299125 -0.00224821 0.00204499)
(0.0030234 -0.00234397 0.00127264)
(0.00291709 -0.0022612 0.000432916)
(0.00271596 -0.00203924 -0.00028738)
(0.00246509 -0.0017318 -0.00081325)
(0.00218975 -0.00138657 -0.00114711)
(0.00189986 -0.00103495 -0.00131448)
(0.00159491 -0.000692872 -0.00133901)
(0.00126637 -0.000367281 -0.00123535)
(0.00090184 -6.17465e-05 -0.00100813)
(0.000491089 0.00022106 -0.000654234)
(3.1236e-05 0.000480257 -0.00016951)
(-0.00047186 0.000719064 0.000438562)
(-0.00100452 0.00094533 0.00113259)
(-0.00154298 0.00117032 0.00182658)
(-0.00205108 0.0014117 0.00238431)
(-0.00248603 0.00169336 0.00265632)
(-0.00280888 0.00200175 0.00254284)
(-0.00299125 0.00224821 0.00204499)
(-0.0030234 0.00234397 0.00127264)
(-0.00291709 0.0022612 0.000432916)
(-0.00271596 0.00203924 -0.00028738)
(-0.00246509 0.0017318 -0.00081325)
(-0.00218975 0.00138657 -0.00114711)
(-0.00189986 0.00103495 -0.00131448)
(-0.00159491 0.000692872 -0.00133901)
(-0.00126637 0.000367281 -0.00123535)
(-0.00090184 6.17465e-05 -0.00100813)
(-0.000491089 -0.00022106 -0.000654234)
(-3.1236e-05 -0.000480257 -0.00016951)
(0.00047186 -0.000719064 0.000438562)
(0.00100452 -0.00094533 0.00113259)
(0.00154298 -0.00117032 0.00182658)
(0.00205108 -0.0014117 0.00238431)
(0.00248603 -0.00169336 0.00265632)
(0.00280888 -0.00200175 0.00254284)
(0.00269021 -0.00195443 0.00188308)
(0.0027991 -0.00203244 0.00146131)
(0.00283436 -0.00196164 0.000958802)
(0.00277965 -0.0017541 0.000442777)
(0.002635 -0.00145204 -7.68088e-06)
(0.00241622 -0.00110017 -0.000340727)
(0.00213816 -0.000731319 -0.000537893)
(0.00180784 -0.000368457 -0.000597782)
(0.00142778 -2.99206e-05 -0.000522463)
(0.0010019 0.000269368 -0.000312904)
(0.000538964 0.000519917 2.8567e-05)
(5.15425e-05 0.000719667 0.000490226)
(-0.000447139 0.000874012 0.00103731)
(-0.000942915 0.000997688 0.00159648)
(-0.00141739 0.00112191 0.00205923)
(-0.0018496 0.00128885 0.00232718)
(-0.00221896 0.00151651 0.00236373)
(-0.00250343 0.00176377 0.00219647)
(-0.00269021 0.00195443 0.00188308)
(-0.0027991 0.00203244 0.00146131)
(-0.00283436 0.00196164 0.000958802)
(-0.00277965 0.0017541 0.000442777)
(-0.002635 0.00145204 -7.68087e-06)
(-0.00241622 0.00110017 -0.000340727)
(-0.00213816 0.000731319 -0.000537893)
(-0.00180784 0.000368457 -0.000597782)
(-0.00142778 2.99206e-05 -0.000522463)
(-0.0010019 -0.000269368 -0.000312904)
(-0.000538964 -0.000519917 2.8567e-05)
(-5.15425e-05 -0.000719667 0.000490226)
(0.000447139 -0.000874011 0.00103731)
(0.000942915 -0.000997688 0.00159648)
(0.00141739 -0.00112191 0.00205923)
(0.0018496 -0.00128885 0.00232718)
(0.00221896 -0.00151651 0.00236373)
(0.00250343 -0.00176377 0.00219647)
(0.00338265 -0.00297151 0.0025046)
(0.00330871 -0.00312854 0.00145228)
(0.00304325 -0.00308271 0.000270818)
(0.00268863 -0.00288655 -0.000737279)
(0.00233421 -0.00259306 -0.0014508)
(0.00200885 -0.00224642 -0.00188741)
(0.00170733 -0.00187981 -0.00209953)
(0.00141543 -0.00151059 -0.00212948)
(0.00111465 -0.00114294 -0.00200245)
(0.000783047 -0.000774771 -0.00172877)
(0.00040011 -0.000403067 -0.00130801)
(-4.70444e-05 -2.44321e-05 -0.000734744)
(-0.000561182 0.000367191 -7.27653e-06)
(-0.00113591 0.000779547 0.000856101)
(-0.00175009 0.00121638 0.00178358)
(-0.00235427 0.00167756 0.00261403)
(-0.0028719 0.00215801 0.00312164)
(-0.00323002 0.00261861 0.00310825)
(-0.00338265 0.00297151 0.0025046)
(-0.00330871 0.00312854 0.00145228)
(-0.00304325 0.00308271 0.000270818)
(-0.00268863 0.00288655 -0.000737279)
(-0.00233421 0.00259306 -0.0014508)
(-0.00200885 0.00224642 -0.00188741)
(-0.00170733 0.00187981 -0.00209953)
(-0.00141543 0.00151059 -0.00212948)
(-0.00111465 0.00114294 -0.00200245)
(-0.000783047 0.000774771 -0.00172877)
(-0.00040011 0.000403067 -0.00130801)
(4.70444e-05 2.44321e-05 -0.000734744)
(0.000561182 -0.000367191 -7.27656e-06)
(0.00113591 -0.000779547 0.000856101)
(0.00175009 -0.00121638 0.00178358)
(0.00235427 -0.00167756 0.00261403)
(0.0028719 -0.00215801 0.00312164)
(0.00323002 -0.00261861 0.00310825)
(0.00314407 -0.00252047 0.00237883)
(0.00315261 -0.00263556 0.00165646)
(0.00302248 -0.00258871 0.00081521)
(0.00280104 -0.00240353 3.60394e-05)
(0.00253648 -0.00212085 -0.000570998)
(0.00225244 -0.00178144 -0.000979509)
(0.00195307 -0.00141705 -0.00120221)
(0.00163386 -0.00104768 -0.00125813)
(0.001286 -0.000684486 -0.00116108)
(0.000899796 -0.000333725 -0.000917955)
(0.000468402 1.4953e-06 -0.000531644)
(-9.7964e-06 0.000321599 -7.68855e-06)
(-0.000531527 0.000631434 0.000635258)
(-0.00108789 0.000939142 0.00135103)
(-0.00165653 0.00125354 0.00205108)
(-0.00219487 0.00158378 0.00260749)
(-0.0026493 0.00193202 0.00289115)
(-0.00297464 0.00226607 0.00281797)
(-0.00314407 0.00252047 0.00237883)
(-0.00315261 0.00263556 0.00165646)
(-0.00302248 0.00258871 0.00081521)
(-0.00280104 0.00240353 3.60394e-05)
(-0.00253648 0.00212085 -0.000570998)
(-0.00225244 0.00178144 -0.000979509)
(-0.00195307 0.00141705 -0.00120221)
(-0.00163386 0.00104768 -0.00125813)
(-0.001286 0.000684486 -0.00116108)
(-0.000899796 0.000333725 -0.000917955)
(-0.000468402 -1.49528e-06 -0.000531644)
(9.79636e-06 -0.000321599 -7.68857e-06)
(0.000531527 -0.000631434 0.000635258)
(0.00108789 -0.000939142 0.00135103)
(0.00165653 -0.00125354 0.00205108)
(0.00219487 -0.00158378 0.00260749)
(0.0026493 -0.00193202 0.00289115)
(0.00297464 -0.00226607 0.00281797)
(0.0028982 -0.00216977 0.00222691)
(0.00296169 -0.00222922 0.00180003)
(0.00294199 -0.00216711 0.00128548)
(0.0028437 -0.00198359 0.000743092)
(0.00267119 -0.00170431 0.000254572)
(0.00243584 -0.00136487 -0.000115659)
(0.00214696 -0.000995579 -0.000339293)
(0.00180797 -0.000619806 -0.000410774)
(0.00141987 -0.000256713 -0.000332145)
(0.000985895 7.87464e-05 -0.000107454)
(0.000513459 0.00037811 0.000255737)
(1.19851e-05 0.000640834 0.000739694)
(-0.000510089 0.000872833 0.00130456)
(-0.00104216 0.00108545 0.00187455)
(-0.00156356 0.00129804 0.00234393)
(-0.00204263 0.00153109 0.00262244)
(-0.00244242 0.00178149 0.00267781)
(-0.00273086 0.00201012 0.00253162)
(-0.0028982 0.00216977 0.00222691)
(-0.00296169 0.00222922 0.00180003)
(-0.00294199 0.00216711 0.00128548)
(-0.0028437 0.00198359 0.000743092)
(-0.00267119 0.00170431 0.000254572)
(-0.00243584 0.00136487 -0.000115659)
(-0.00214696 0.000995579 -0.000339293)
(-0.00180797 0.000619806 -0.000410774)
(-0.00141987 0.000256713 -0.000332145)
(-0.000985895 -7.87464e-05 -0.000107454)
(-0.000513459 -0.00037811 0.000255737)
(-1.19851e-05 -0.000640834 0.000739694)
(0.000510089 -0.000872833 0.00130456)
(0.00104216 -0.00108545 0.00187455)
(0.00156356 -0.00129804 0.00234393)
(0.00204263 -0.00153109 0.00262244)
(0.00244242 -0.00178149 0.00267781)
(0.00273086 -0.00201012 0.00253162)
(0.00331059 -0.00309058 0.00264308)
(0.0032427 -0.0033139 0.00175932)
(0.00300084 -0.00335331 0.000695611)
(0.00266624 -0.00323634 -0.000296431)
(0.00232074 -0.003001 -0.00106293)
(0.00199807 -0.00268469 -0.00157193)
(0.00169377 -0.00232085 -0.00184791)
(0.00139151 -0.00193304 -0.00192184)
(0.00107379 -0.00153333 -0.00181616)
(0.00072409 -0.00112587 -0.00154446)
(0.000329112 -0.000710529 -0.0011153)
(-0.000119302 -0.000283679 -0.000536798)
(-0.000624374 0.000162058 0.000178348)
(-0.0011834 0.000634526 0.00100207)
(-0.00177667 0.00113618 0.00186398)
(-0.0023533 0.00166265 0.00262427)
(-0.00284027 0.00219797 0.00309666)
(-0.00317259 0.00269785 0.00312131)
(-0.00331059 0.00309058 0.00264308)
(-0.0032427 0.0033139 0.00175932)
(-0.00300084 0.00335331 0.000695611)
(-0.00266624 0.00323634 -0.000296431)
(-0.00232074 0.003001 -0.00106293)
(-0.00199807 0.00268469 -0.00157193)
(-0.00169377 0.00232085 -0.00184791)
(-0.00139151 0.00193304 -0.00192184)
(-0.00107379 0.00153333 -0.00181616)
(-0.000724091 0.00112587 -0.00154446)
(-0.000329112 0.000710529 -0.0011153)
(0.000119302 0.000283679 -0.000536798)
(0.000624374 -0.000162058 0.000178348)
(0.0011834 -0.000634526 0.00100207)
(0.00177667 -0.00113618 0.00186398)
(0.0023533 -0.00166265 0.00262427)
(0.00284027 -0.00219797 0.00309666)
(0.00317259 -0.00269785 0.00312131)
(0.0030999 -0.00263086 0.00256248)
(0.00309354 -0.00277802 0.00193415)
(0.00295722 -0.00278288 0.00116553)
(0.0027346 -0.0026556 0.000407084)
(0.00247077 -0.00242237 -0.000222861)
(0.00218929 -0.00211473 -0.000671059)
(0.00189234 -0.00176208 -0.00093093)
(0.00157316 -0.00138708 -0.0010126)
(0.00122313 -0.00100496 -0.000927792)
(0.000834976 -0.000625012 -0.000686282)
(0.00040459 -0.000251442 -0.000298007)
(-6.87608e-05 0.000116517 0.000221814)
(-0.000583352 0.000483815 0.000845459)
(-0.0011319 0.000856276 0.0015231)
(-0.00169093 0.00123667 0.00217335)
(-0.00221504 0.00162387 0.00268868)
(-0.00264977 0.00200832 0.00296352)
(-0.00295211 0.0023599 0.00292576)
(-0.0030999 0.00263086 0.00256248)
(-0.00309354 0.00277802 0.00193415)
(-0.00295722 0.00278288 0.00116553)
(-0.0027346 0.0026556 0.000407084)
(-0.00247077 0.00242237 -0.000222861)
(-0.00218929 0.00211473 -0.000671059)
(-0.00189234 0.00176208 -0.00093093)
(-0.00157316 0.00138708 -0.0010126)
(-0.00122313 0.00100496 -0.000927792)
(-0.000834976 0.000625012 -0.000686282)
(-0.00040459 0.000251442 -0.000298007)
(6.87608e-05 -0.000116517 0.000221814)
(0.000583352 -0.000483815 0.000845458)
(0.0011319 -0.000856276 0.0015231)
(0.00169093 -0.00123667 0.00217335)
(0.00221504 -0.00162387 0.00268868)
(0.00264977 -0.00200832 0.00296352)
(0.00295211 -0.0023599 0.00292576)
(0.00291813 -0.00227149 0.00245339)
(0.00295175 -0.00232862 0.00205764)
(0.00289633 -0.00228253 0.00157135)
(0.0027676 -0.0021321 0.00104798)
(0.00257687 -0.00189121 0.000562157)
(0.00233471 -0.00158334 0.000182479)
(0.00204649 -0.00123303 -5.33027e-05)
(0.00171256 -0.000862571 -0.000133581)
(0.00133253 -0.000491352 -5.91269e-05)
(0.000908679 -0.000134138 0.000163524)
(0.000446576 0.00020112 0.00052188)
(-4.71834e-05 0.00051393 0.000992516)
(-0.000566511 0.000808731 0.00153166)
(-0.00110062 0.00109152 0.0020659)
(-0.00162567 0.00136901 0.00250276)
(-0.00210511 0.00164423 0.00276936)
(-0.00249802 0.00190502 0.0028391)
(-0.00277203 0.00212356 0.00272402)
(-0.00291813 0.00227149 0.00245339)
(-0.00295175 0.00232862 0.00205764)
(-0.00289633 0.00228253 0.00157135)
(-0.0027676 0.0021321 0.00104798)
(-0.00257687 0.00189121 0.000562157)
(-0.00233471 0.00158334 0.000182479)
(-0.00204649 0.00123303 -5.33026e-05)
(-0.00171256 0.000862571 -0.000133581)
(-0.00133253 0.000491352 -5.91269e-05)
(-0.000908679 0.000134138 0.000163524)
(-0.000446576 -0.00020112 0.00052188)
(4.71833e-05 -0.00051393 0.000992516)
(0.000566511 -0.000808731 0.00153166)
(0.00110062 -0.00109152 0.0020659)
(0.00162567 -0.00136901 0.00250276)
(0.00210511 -0.00164423 0.00276936)
(0.00249802 -0.00190502 0.0028391)
(0.00277203 -0.00212356 0.00272402)
(0.00306162 -0.00305352 0.0026243)
(0.00299683 -0.00333693 0.00191315)
(0.00278791 -0.0034603 0.00101956)
(0.00249369 -0.00342994 0.000129867)
(0.00217678 -0.00326723 -0.000610818)
(0.00187005 -0.00300166 -0.00113808)
(0.00157363 -0.00266462 -0.00144606)
(0.00127379 -0.0022827 -0.00154989)
(0.000955885 -0.00187373 -0.00146717)
(0.00060821 -0.0014471 -0.0012141)
(0.00022254 -0.00100557 -0.000806741)
(-0.000206508 -0.000546354 -0.000262773)
(-0.000682155 -6.31198e-05 0.000396745)
(-0.00120133 0.000449283 0.00113908)