/*--------------------------------*- C++ -*----------------------------------*\
| =========                 |                                                 |
| \\      /  F ield         | OpenFOAM: The Open Source CFD Toolbox           |
|  \\    /   O peration     | Version:  2312                                  |
|   \\  /    A nd           | Website:  www.openfoam.com                      |
|    \\/     M anipulation  |                                                 |
\*---------------------------------------------------------------------------*/
FoamFile
{
    version     2.0;
    format      ascii;
    arch        "LSB;label=32;scalar=64";
    class       volVectorField;
    location    "1";
    object      D;
}
// * * * * * * * * * * * * * * * * * * * * * * * * * * * * * * * * * * * * * //

dimensions      [0 1 0 0 0 0 0];

internalField   nonuniform List<vector> 
1620
(
(-0.000275727 0.000190583 -0.000153585)
(-0.000304632 0.000139807 -0.000153585)
(-0.000324282 8.47847e-05 -0.000153585)
(-0.000334079 2.71866e-05 -0.000153584)
(-0.000333724 -3.12378e-05 -0.000153585)
(-0.000323229 -8.8714e-05 -0.000153585)
(-0.000302914 -0.000143495 -0.000153584)
(-0.000273394 -0.000193915 -0.000153584)
(-0.000235567 -0.000238444 -0.000153585)
(-0.000190583 -0.000275727 -0.000153585)
(-0.000139807 -0.000304632 -0.000153585)
(-8.47847e-05 -0.000324282 -0.000153585)
(-2.71866e-05 -0.000334079 -0.000153584)
(3.12378e-05 -0.000333724 -0.000153585)
(8.87141e-05 -0.000323229 -0.000153585)
(0.000143495 -0.000302914 -0.000153584)
(0.000193915 -0.000273394 -0.000153584)
(0.000238444 -0.000235567 -0.000153585)
(0.000275727 -0.000190583 -0.000153585)
(0.000304632 -0.000139807 -0.000153585)
(0.000324282 -8.47846e-05 -0.000153585)
(0.000334079 -2.71866e-05 -0.000153584)
(0.000333724 3.12378e-05 -0.000153585)
(0.000323229 8.87141e-05 -0.000153585)
(0.000302914 0.000143495 -0.000153584)
(0.000273394 0.000193915 -0.000153584)
(0.000235567 0.000238444 -0.000153585)
(0.000190583 0.000275727 -0.000153585)
(0.000139807 0.000304632 -0.000153585)
(8.47847e-05 0.000324282 -0.000153585)
(2.71866e-05 0.000334079 -0.000153584)
(-3.12378e-05 0.000333724 -0.000153585)
(-8.8714e-05 0.000323229 -0.000153585)
(-0.000143495 0.000302914 -0.000153584)
(-0.000193915 0.000273394 -0.000153584)
(-0.000238444 0.000235567 -0.000153585)
(-0.00017613 0.000285708 -0.000106022)
(-0.000223067 0.000250783 -0.000106022)
(-0.000263225 0.000208238 -0.000106022)
(-0.000295387 0.000159366 -0.000106022)
(-0.000318574 0.000105652 -0.000106022)
(-0.000332079 4.87266e-05 -0.000106022)
(-0.000335496 -9.67861e-06 -0.000106022)
(-0.000328718 -6.77897e-05 -0.000106022)
(-0.000311952 -0.000123841 -0.000106022)
(-0.000285708 -0.00017613 -0.000106022)
(-0.000250783 -0.000223067 -0.000106022)
(-0.000208238 -0.000263225 -0.000106022)
(-0.000159366 -0.000295387 -0.000106022)
(-0.000105651 -0.000318574 -0.000106022)
(-4.87266e-05 -0.000332079 -0.000106022)
(9.67863e-06 -0.000335496 -0.000106022)
(6.77897e-05 -0.000328718 -0.000106022)
(0.000123841 -0.000311952 -0.000106022)
(0.00017613 -0.000285708 -0.000106022)
(0.000223067 -0.000250783 -0.000106022)
(0.000263225 -0.000208238 -0.000106022)
(0.000295387 -0.000159366 -0.000106022)
(0.000318574 -0.000105651 -0.000106022)
(0.000332079 -4.87266e-05 -0.000106022)
(0.000335496 9.67864e-06 -0.000106022)
(0.000328718 6.77897e-05 -0.000106022)
(0.000311952 0.000123841 -0.000106022)
(0.000285708 0.00017613 -0.000106022)
(0.000250783 0.000223067 -0.000106022)
(0.000208238 0.000263225 -0.000106022)
(0.000159366 0.000295387 -0.000106022)
(0.000105651 0.000318574 -0.000106022)
(4.87266e-05 0.000332079 -0.000106022)
(-9.67862e-06 0.000335496 -0.000106022)
(-6.77897e-05 0.000328718 -0.000106022)
(-0.000123841 0.000311952 -0.000106022)
(-0.00010922 0.000382866 -5.80109e-05)
(-0.000174045 0.000358084 -5.80109e-05)
(-0.000233581 0.000322421 -5.80112e-05)
(-0.00028602 0.000276962 -5.8011e-05)
(-0.00032977 0.000223088 -5.80112e-05)
(-0.000363498 0.000162434 -5.80109e-05)
(-0.000386183 9.68456e-05 -5.80111e-05)
(-0.000397133 2.83144e-05 -5.80113e-05)
(-0.000396015 -4.1077e-05 -5.8011e-05)
(-0.000382866 -0.00010922 -5.80109e-05)
(-0.000358083 -0.000174045 -5.80109e-05)
(-0.000322421 -0.000233581 -5.80112e-05)
(-0.000276962 -0.00028602 -5.8011e-05)
(-0.000223088 -0.00032977 -5.80112e-05)
(-0.000162434 -0.000363498 -5.80109e-05)
(-9.68456e-05 -0.000386183 -5.80112e-05)
(-2.83144e-05 -0.000397133 -5.80113e-05)
(4.1077e-05 -0.000396015 -5.8011e-05)
(0.00010922 -0.000382866 -5.80109e-05)
(0.000174045 -0.000358083 -5.80109e-05)
(0.000233581 -0.000322421 -5.80112e-05)
(0.00028602 -0.000276962 -5.8011e-05)
(0.00032977 -0.000223088 -5.80112e-05)
(0.000363498 -0.000162434 -5.80109e-05)
(0.000386183 -9.68455e-05 -5.80112e-05)
(0.000397133 -2.83144e-05 -5.80113e-05)
(0.000396015 4.1077e-05 -5.8011e-05)
(0.000382866 0.00010922 -5.80109e-05)
(0.000358083 0.000174045 -5.80109e-05)
(0.000322421 0.000233581 -5.80112e-05)
(0.000276962 0.00028602 -5.8011e-05)
(0.000223088 0.00032977 -5.80111e-05)
(0.000162434 0.000363498 -5.80109e-05)
(9.68455e-05 0.000386183 -5.80111e-05)
(2.83144e-05 0.000397133 -5.80112e-05)
(-4.1077e-05 0.000396015 -5.8011e-05)
(-0.000608152 0.000608199 -0.000510187)
(-0.000704525 0.000493354 -0.000510188)
(-0.000779492 0.000363519 -0.000510188)
(-0.000830775 0.00022264 -0.000510185)
(-0.000856815 7.4997e-05 -0.000510184)
(-0.000856821 -7.49266e-05 -0.000510185)
(-0.000830793 -0.000222574 -0.000510186)
(-0.000779522 -0.000363458 -0.000510186)
(-0.000704563 -0.000493299 -0.000510187)
(-0.000608199 -0.000608152 -0.000510187)
(-0.000493354 -0.000704525 -0.000510188)
(-0.000363519 -0.000779492 -0.000510188)
(-0.00022264 -0.000830775 -0.000510185)
(-7.49969e-05 -0.000856815 -0.000510184)
(7.49266e-05 -0.000856821 -0.000510185)
(0.000222574 -0.000830793 -0.000510186)
(0.000363458 -0.000779522 -0.000510186)
(0.000493299 -0.000704563 -0.000510187)
(0.000608152 -0.000608199 -0.000510187)
(0.000704525 -0.000493354 -0.000510188)
(0.000779493 -0.000363519 -0.000510188)
(0.000830775 -0.00022264 -0.000510185)
(0.000856815 -7.49969e-05 -0.000510184)
(0.000856821 7.49267e-05 -0.000510185)
(0.000830793 0.000222574 -0.000510186)
(0.000779522 0.000363458 -0.000510186)
(0.000704563 0.000493299 -0.000510187)
(0.000608199 0.000608152 -0.000510187)
(0.000493354 0.000704525 -0.000510188)
(0.000363519 0.000779493 -0.000510188)
(0.00022264 0.000830775 -0.000510185)
(7.49969e-05 0.000856815 -0.000510184)
(-7.49266e-05 0.000856821 -0.000510185)
(-0.000222574 0.000830793 -0.000510186)
(-0.000363458 0.000779522 -0.000510186)
(-0.000493299 0.000704564 -0.000510187)
(-0.000530846 0.000854648 -0.000374214)
(-0.000671189 0.000749483 -0.000374214)
(-0.000791139 0.000621546 -0.000374214)
(-0.00088705 0.000474725 -0.000374214)
(-0.00095601 0.000313479 -0.000374213)
(-0.000995921 0.000142706 -0.000374213)
(-0.00100557 -3.24016e-05 -0.000374213)
(-0.000984667 -0.000206525 -0.000374213)
(-0.000933845 -0.000374373 -0.000374214)
(-0.000854648 -0.000530846 -0.000374214)
(-0.000749483 -0.000671189 -0.000374214)
(-0.000621546 -0.000791139 -0.000374214)
(-0.000474725 -0.00088705 -0.000374214)
(-0.000313479 -0.00095601 -0.000374213)
(-0.000142706 -0.000995921 -0.000374213)
(3.24016e-05 -0.00100557 -0.000374213)
(0.000206525 -0.000984667 -0.000374213)
(0.000374373 -0.000933845 -0.000374214)
(0.000530846 -0.000854648 -0.000374214)
(0.000671189 -0.000749483 -0.000374214)
(0.000791139 -0.000621546 -0.000374214)
(0.00088705 -0.000474725 -0.000374214)
(0.00095601 -0.000313479 -0.000374213)
(0.000995921 -0.000142706 -0.000374213)
(0.00100557 3.24017e-05 -0.000374213)
(0.000984667 0.000206525 -0.000374213)
(0.000933845 0.000374373 -0.000374214)
(0.000854648 0.000530846 -0.000374214)
(0.000749483 0.000671189 -0.000374214)
(0.000621546 0.000791139 -0.000374214)
(0.000474725 0.00088705 -0.000374214)
(0.000313479 0.00095601 -0.000374213)
(0.000142706 0.000995921 -0.000374213)
(-3.24016e-05 0.00100557 -0.000374213)
(-0.000206525 0.000984667 -0.000374213)
(-0.000374373 0.000933845 -0.000374214)
(-0.000499341 0.00110053 -0.000240139)
(-0.000682859 0.0009971 -0.000240138)
(-0.000845629 0.000863374 -0.000240138)
(-0.000982705 0.000703416 -0.000240138)
(-0.00108992 0.000522085 -0.000240138)
(-0.00116402 0.00032489 -0.000240138)
(-0.00120276 0.000117823 -0.000240138)
(-0.00120494 -9.28236e-05 -0.000240138)
(-0.00117052 -0.00030065 -0.000240139)
(-0.00110053 -0.000499341 -0.000240139)
(-0.0009971 -0.000682859 -0.000240138)
(-0.000863374 -0.000845629 -0.000240138)
(-0.000703416 -0.000982705 -0.000240138)
(-0.000522085 -0.00108992 -0.000240138)
(-0.00032489 -0.00116402 -0.000240138)
(-0.000117823 -0.00120276 -0.000240139)
(9.28236e-05 -0.00120494 -0.000240138)
(0.00030065 -0.00117052 -0.000240139)
(0.000499341 -0.00110053 -0.000240139)
(0.000682859 -0.0009971 -0.000240138)
(0.000845629 -0.000863374 -0.000240138)
(0.000982705 -0.000703416 -0.000240138)
(0.00108992 -0.000522085 -0.000240138)
(0.00116402 -0.000324889 -0.000240138)
(0.00120276 -0.000117822 -0.000240139)
(0.00120494 9.28236e-05 -0.000240138)
(0.00117052 0.00030065 -0.000240139)
(0.00110053 0.000499341 -0.000240139)
(0.0009971 0.000682859 -0.000240138)
(0.000863374 0.000845629 -0.000240138)
(0.000703416 0.000982705 -0.000240138)
(0.000522085 0.00108992 -0.000240138)
(0.000324889 0.00116402 -0.000240138)
(0.000117822 0.00120276 -0.000240138)
(-9.28236e-05 0.00120494 -0.000240138)
(-0.00030065 0.00117052 -0.000240138)
(-0.000916715 0.0010865 -0.0009367)
(-0.00109146 0.000910812 -0.0009367)
(-0.00123304 0.000707445 -0.0009367)
(-0.00133715 0.000482584 -0.000936698)
(-0.00140064 0.00024306 -0.000936697)
(-0.00142157 -3.85033e-06 -0.000936696)
(-0.0013993 -0.000250645 -0.000936697)
(-0.00133452 -0.000489823 -0.000936698)
(-0.00122918 -0.000714118 -0.000936699)
(-0.0010865 -0.000916715 -0.0009367)
(-0.000910811 -0.00109146 -0.0009367)
(-0.000707445 -0.00123304 -0.0009367)
(-0.000482584 -0.00133715 -0.000936698)
(-0.00024306 -0.00140064 -0.000936697)
(3.85044e-06 -0.00142157 -0.000936697)
(0.000250645 -0.0013993 -0.000936697)
(0.000489823 -0.00133452 -0.000936698)
(0.000714118 -0.00122918 -0.000936699)
(0.000916715 -0.0010865 -0.0009367)
(0.00109146 -0.000910811 -0.0009367)
(0.00123304 -0.000707445 -0.0009367)
(0.00133715 -0.000482584 -0.000936698)
(0.00140064 -0.00024306 -0.000936697)
(0.00142157 3.85049e-06 -0.000936697)
(0.0013993 0.000250645 -0.000936697)
(0.00133452 0.000489823 -0.000936698)
(0.00122918 0.000714118 -0.000936699)
(0.0010865 0.000916715 -0.0009367)
(0.000910811 0.00109146 -0.0009367)
(0.000707445 0.00123304 -0.0009367)
(0.000482584 0.00133715 -0.000936698)
(0.00024306 0.00140064 -0.000936696)
(-3.85037e-06 0.00142157 -0.000936696)
(-0.000250645 0.0013993 -0.000936697)
(-0.000489823 0.00133452 -0.000936697)
(-0.000714118 0.00122918 -0.000936699)
(-0.000877616 0.00143298 -0.000734043)
(-0.00111312 0.00125881 -0.000734044)
(-0.0013148 0.00104639 -0.000734043)
(-0.00147652 0.000802186 -0.000734043)
(-0.00159339 0.000533604 -0.000734042)
(-0.00166184 0.000248807 -0.000734042)
(-0.0016798 -4.35495e-05 -0.000734042)
(-0.00164672 -0.000334583 -0.000734042)
(-0.0015636 -0.00061545 -0.000734043)
(-0.00143297 -0.000877616 -0.000734043)
(-0.00125881 -0.00111312 -0.000734044)
(-0.00104639 -0.0013148 -0.000734043)
(-0.000802186 -0.00147652 -0.000734043)
(-0.000533604 -0.00159339 -0.000734042)
(-0.000248807 -0.00166184 -0.000734042)
(4.35496e-05 -0.0016798 -0.000734042)
(0.000334583 -0.00164672 -0.000734043)
(0.00061545 -0.0015636 -0.000734043)
(0.000877617 -0.00143297 -0.000734043)
(0.00111312 -0.00125881 -0.000734044)
(0.0013148 -0.00104639 -0.000734044)
(0.00147652 -0.000802186 -0.000734043)
(0.00159339 -0.000533604 -0.000734042)
(0.00166184 -0.000248807 -0.000734042)
(0.0016798 4.35496e-05 -0.000734042)
(0.00164672 0.000334583 -0.000734043)
(0.0015636 0.00061545 -0.000734043)
(0.00143298 0.000877617 -0.000734043)
(0.00125881 0.00111312 -0.000734044)
(0.00104639 0.0013148 -0.000734043)
(0.000802186 0.00147652 -0.000734043)
(0.000533604 0.00159339 -0.000734042)
(0.000248807 0.00166184 -0.000734042)
(-4.35495e-05 0.0016798 -0.000734042)
(-0.000334583 0.00164672 -0.000734042)
(-0.00061545 0.0015636 -0.000734043)
(-0.000895133 0.00176434 -0.000537338)
(-0.00118791 0.0015821 -0.000537338)
(-0.00144459 0.00135179 -0.000537339)
(-0.00165738 0.0010804 -0.000537339)
(-0.00181981 0.000776186 -0.000537339)
(-0.00192695 0.000448387 -0.000537339)
(-0.00197553 0.000106964 -0.000537339)
(-0.00196409 -0.000237709 -0.000537339)
(-0.00189298 -0.000575159 -0.000537339)
(-0.00176434 -0.000895133 -0.000537339)
(-0.0015821 -0.00118791 -0.000537338)
(-0.00135179 -0.00144459 -0.000537339)
(-0.0010804 -0.00165738 -0.000537339)
(-0.000776186 -0.00181981 -0.000537339)
(-0.000448387 -0.00192694 -0.000537339)
(-0.000106964 -0.00197553 -0.000537339)
(0.000237709 -0.00196409 -0.000537339)
(0.000575159 -0.00189298 -0.000537339)
(0.000895133 -0.00176434 -0.000537339)
(0.00118791 -0.0015821 -0.000537338)
(0.00144459 -0.00135179 -0.000537339)
(0.00165738 -0.0010804 -0.000537339)
(0.00181981 -0.000776186 -0.000537339)
(0.00192695 -0.000448386 -0.000537339)
(0.00197553 -0.000106964 -0.000537339)
(0.00196409 0.000237709 -0.000537339)
(0.00189298 0.000575159 -0.000537339)
(0.00176434 0.000895133 -0.000537339)
(0.0015821 0.00118791 -0.000537338)
(0.00135179 0.00144459 -0.000537339)
(0.0010804 0.00165738 -0.000537339)
(0.000776186 0.00181981 -0.000537339)
(0.000448387 0.00192695 -0.000537339)
(0.000106964 0.00197553 -0.000537339)
(-0.000237709 0.00196409 -0.000537339)
(-0.000575159 0.00189298 -0.000537339)
(-0.00120005 0.00164427 -0.00139428)
(-0.00146734 0.0014109 -0.00139428)
(-0.00169005 0.00113467 -0.00139428)
(-0.00186141 0.000823956 -0.00139428)
(-0.00197621 0.000488209 -0.00139428)
(-0.00203096 0.000137628 -0.00139427)
(-0.002024 -0.000217136 -0.00139427)
(-0.00195555 -0.000565302 -0.00139427)
(-0.00182767 -0.000896291 -0.00139428)
(-0.00164427 -0.00120005 -0.00139428)
(-0.0014109 -0.00146734 -0.00139428)
(-0.00113467 -0.00169005 -0.00139428)
(-0.000823956 -0.00186141 -0.00139428)
(-0.000488209 -0.00197621 -0.00139428)
(-0.000137627 -0.00203096 -0.00139427)
(0.000217136 -0.002024 -0.00139427)
(0.000565302 -0.00195555 -0.00139427)
(0.000896291 -0.00182767 -0.00139428)
(0.00120005 -0.00164427 -0.00139428)
(0.00146734 -0.0014109 -0.00139428)
(0.00169005 -0.00113467 -0.00139428)
(0.00186141 -0.000823956 -0.00139428)
(0.00197621 -0.000488209 -0.00139428)
(0.00203096 -0.000137627 -0.00139427)
(0.002024 0.000217136 -0.00139427)
(0.00195555 0.000565302 -0.00139427)
(0.00182767 0.000896291 -0.00139428)
(0.00164427 0.00120005 -0.00139428)
(0.0014109 0.00146734 -0.00139428)
(0.00113467 0.00169005 -0.00139428)
(0.000823956 0.00186141 -0.00139428)
(0.000488209 0.00197621 -0.00139428)
(0.000137627 0.00203096 -0.00139427)
(-0.000217136 0.002024 -0.00139427)
(-0.000565302 0.00195555 -0.00139427)
(-0.000896291 0.00182767 -0.00139427)
(-0.00120744 0.00201812 -0.00114813)
(-0.00153954 0.00177779 -0.00114813)
(-0.00182486 0.00148344 -0.00114813)
(-0.00205473 0.00114402 -0.00114813)
(-0.00222217 0.000769842 -0.00114813)
(-0.00232209 0.000372271 -0.00114813)
(-0.00235146 -3.66124e-05 -0.00114813)
(-0.00230938 -0.000444383 -0.00114813)
(-0.00219713 -0.000838652 -0.00114813)
(-0.00201812 -0.00120744 -0.00114813)
(-0.00177779 -0.00153954 -0.00114813)
(-0.00148344 -0.00182486 -0.00114813)
(-0.00114402 -0.00205473 -0.00114813)
(-0.000769842 -0.00222217 -0.00114813)
(-0.000372271 -0.00232209 -0.00114813)
(3.66125e-05 -0.00235146 -0.00114813)
(0.000444384 -0.00230938 -0.00114813)
(0.000838652 -0.00219713 -0.00114813)
(0.00120744 -0.00201812 -0.00114813)
(0.00153954 -0.00177779 -0.00114813)
(0.00182486 -0.00148344 -0.00114813)
(0.00205473 -0.00114402 -0.00114813)
(0.00222217 -0.000769842 -0.00114813)
(0.00232209 -0.000372271 -0.00114813)
(0.00235146 3.66126e-05 -0.00114813)
(0.00230938 0.000444384 -0.00114813)
(0.00219713 0.000838652 -0.00114813)
(0.00201812 0.00120744 -0.00114813)
(0.00177779 0.00153954 -0.00114813)
(0.00148344 0.00182486 -0.00114813)
(0.00114402 0.00205473 -0.00114813)
(0.000769842 0.00222217 -0.00114813)
(0.000372271 0.00232209 -0.00114813)
(-3.66125e-05 0.00235146 -0.00114813)
(-0.000444383 0.00230938 -0.00114813)
(-0.000838652 0.00219713 -0.00114813)
(-0.00127751 0.00235799 -0.000914461)
(-0.00166756 0.00210033 -0.000914461)
(-0.00200695 0.00177885 -0.000914461)
(-0.00228535 0.00140332 -0.000914461)
(-0.00249431 0.000985158 -0.000914461)
(-0.00262749 0.000537058 -0.000914461)
(-0.00268083 7.26389e-05 -0.000914461)
(-0.00265272 -0.000393987 -0.000914462)
(-0.002544 -0.000848642 -0.000914461)
(-0.00235799 -0.00127751 -0.000914461)
(-0.00210033 -0.00166756 -0.000914462)
(-0.00177885 -0.00200695 -0.000914461)
(-0.00140332 -0.00228535 -0.000914461)
(-0.000985158 -0.00249431 -0.000914461)
(-0.000537058 -0.00262749 -0.000914461)
(-7.26387e-05 -0.00268083 -0.000914462)
(0.000393987 -0.00265272 -0.000914462)
(0.000848642 -0.002544 -0.000914461)
(0.00127751 -0.00235799 -0.000914461)
(0.00166756 -0.00210033 -0.000914462)
(0.00200695 -0.00177885 -0.000914461)
(0.00228535 -0.00140332 -0.000914461)
(0.00249431 -0.000985158 -0.000914461)
(0.00262749 -0.000537058 -0.000914461)
(0.00268083 -7.26387e-05 -0.000914461)
(0.00265272 0.000393987 -0.000914462)
(0.002544 0.000848642 -0.000914461)
(0.00235799 0.00127751 -0.000914461)
(0.00210033 0.00166756 -0.000914461)
(0.00177885 0.00200695 -0.000914461)
(0.00140332 0.00228535 -0.000914461)
(0.000985158 0.00249431 -0.000914461)
(0.000537058 0.00262749 -0.000914461)
(7.26388e-05 0.00268083 -0.000914461)
(-0.000393987 0.00265272 -0.000914462)
(-0.000848642 0.002544 -0.000914461)
(-0.00147375 0.00226574 -0.0018653)
(-0.0018448 0.00197541 -0.0018653)
(-0.0021598 0.00162505 -0.0018653)
(-0.00240917 0.00122532 -0.0018653)
(-0.00258535 0.000788356 -0.0018653)
(-0.00268296 0.000327438 -0.0018653)
(-0.00269906 -0.000143428 -0.0018653)
(-0.00263315 -0.000609938 -0.0018653)
(-0.00248723 -0.00105791 -0.0018653)
(-0.00226574 -0.00147375 -0.0018653)
(-0.00197541 -0.0018448 -0.0018653)
(-0.00162505 -0.0021598 -0.0018653)
(-0.00122532 -0.00240917 -0.0018653)
(-0.000788356 -0.00258535 -0.0018653)
(-0.000327438 -0.00268296 -0.0018653)
(0.000143428 -0.00269906 -0.0018653)
(0.000609938 -0.00263315 -0.0018653)
(0.00105791 -0.00248723 -0.0018653)
(0.00147375 -0.00226574 -0.0018653)
(0.0018448 -0.00197541 -0.0018653)
(0.0021598 -0.00162505 -0.0018653)
(0.00240917 -0.00122532 -0.0018653)
(0.00258535 -0.000788356 -0.0018653)
(0.00268296 -0.000327438 -0.0018653)
(0.00269906 0.000143429 -0.0018653)
(0.00263315 0.000609938 -0.0018653)
(0.00248723 0.00105791 -0.0018653)
(0.00226574 0.00147375 -0.0018653)
(0.00197541 0.0018448 -0.0018653)
(0.00162505 0.0021598 -0.0018653)
(0.00122532 0.00240917 -0.0018653)
(0.000788356 0.00258535 -0.0018653)
(0.000327438 0.00268296 -0.0018653)
(-0.000143428 0.00269906 -0.0018653)
(-0.000609938 0.00263315 -0.0018653)
(-0.00105791 0.00248723 -0.0018653)
(-0.00152112 0.00260533 -0.00159399)
(-0.00195042 0.00230161 -0.00159399)
(-0.00232046 0.00192796 -0.00159399)
(-0.00261999 0.00149572 -0.00159399)
(-0.00283992 0.00101804 -0.00159399)
(-0.00297355 0.000509431 -0.00159399)
(-0.00301684 -1.46609e-05 -0.00159399)
(-0.00296846 -0.000538307 -0.00159399)
(-0.00282989 -0.0010456 -0.00159399)
(-0.00260533 -0.00152112 -0.00159399)
(-0.00230161 -0.00195042 -0.00159399)
(-0.00192796 -0.00232046 -0.00159399)
(-0.00149572 -0.00261999 -0.00159399)
(-0.00101804 -0.00283992 -0.00159399)
(-0.000509431 -0.00297355 -0.00159399)
(1.46611e-05 -0.00301684 -0.00159399)
(0.000538307 -0.00296846 -0.00159399)
(0.0010456 -0.00282989 -0.00159399)
(0.00152112 -0.00260533 -0.00159399)
(0.00195042 -0.00230161 -0.00159399)
(0.00232046 -0.00192796 -0.00159399)
(0.00261999 -0.00149572 -0.00159399)
(0.00283992 -0.00101804 -0.00159399)
(0.00297355 -0.000509431 -0.00159399)
(0.00301684 1.46611e-05 -0.00159399)
(0.00296846 0.000538307 -0.00159399)
(0.00282989 0.0010456 -0.00159399)
(0.00260533 0.00152112 -0.00159399)
(0.00230161 0.00195042 -0.00159399)
(0.00192796 0.00232046 -0.00159399)
(0.00149572 0.00261999 -0.00159399)
(0.00101804 0.00283992 -0.00159399)
(0.000509431 0.00297355 -0.00159399)
(-1.4661e-05 0.00301684 -0.00159399)
(-0.000538307 0.00296846 -0.00159399)
(-0.0010456 0.00282989 -0.00159399)
(-0.00163148 0.00289337 -0.0013424)
(-0.00210912 0.00256611 -0.0013424)
(-0.00252268 0.00216088 -0.0013424)
(-0.00285959 0.00169 -0.0013424)
(-0.00310961 0.00116776 -0.0013424)
(-0.00326514 0.000610042 -0.0013424)
(-0.00332147 3.37872e-05 -0.0013424)
(-0.00327688 -0.000543494 -0.0013424)
(-0.00313272 -0.00110426 -0.0013424)
(-0.00289337 -0.00163148 -0.0013424)
(-0.00256611 -0.00210912 -0.0013424)
(-0.00216088 -0.00252268 -0.0013424)
(-0.00169 -0.00285959 -0.0013424)
(-0.00116776 -0.00310961 -0.0013424)
(-0.000610042 -0.00326514 -0.0013424)
(-3.37871e-05 -0.00332147 -0.0013424)
(0.000543494 -0.00327688 -0.0013424)
(0.00110426 -0.00313272 -0.0013424)
(0.00163148 -0.00289337 -0.0013424)
(0.00210912 -0.00256611 -0.0013424)
(0.00252268 -0.00216088 -0.0013424)
(0.00285959 -0.00169 -0.0013424)
(0.00310961 -0.00116776 -0.0013424)
(0.00326514 -0.000610042 -0.0013424)
(0.00332147 -3.3787e-05 -0.0013424)
(0.00327688 0.000543494 -0.0013424)
(0.00313272 0.00110426 -0.0013424)
(0.00289337 0.00163148 -0.0013424)
(0.00256611 0.00210912 -0.0013424)
(0.00216088 0.00252268 -0.0013424)
(0.00169 0.00285959 -0.0013424)
(0.00116776 0.00310961 -0.0013424)
(0.000610042 0.00326514 -0.0013424)
(3.37872e-05 0.00332147 -0.0013424)
(-0.000543494 0.00327688 -0.0013424)
(-0.00110426 0.00313272 -0.0013424)
(-0.00175534 0.00291486 -0.0023498)
(-0.00223483 0.00256577 -0.00234981)
(-0.00264642 0.00213871 -0.00234981)
(-0.0029776 0.00164667 -0.00234981)
(-0.00321831 0.0011046 -0.00234981)
(-0.00336122 0.000528968 -0.00234981)
(-0.00340201 -6.27385e-05 -0.00234981)
(-0.00333944 -0.00065254 -0.00234981)
(-0.00317539 -0.00122251 -0.0023498)
(-0.00291486 -0.00175534 -0.0023498)
(-0.00256577 -0.00223483 -0.00234981)
(-0.00213871 -0.00264642 -0.00234981)
(-0.00164667 -0.0029776 -0.00234981)
(-0.0011046 -0.00321831 -0.00234981)
(-0.000528968 -0.00336122 -0.00234981)
(6.27388e-05 -0.00340201 -0.00234981)
(0.00065254 -0.00333944 -0.00234981)
(0.00122251 -0.00317539 -0.0023498)
(0.00175534 -0.00291486 -0.00234981)
(0.00223483 -0.00256577 -0.00234981)
(0.00264642 -0.00213871 -0.00234981)
(0.0029776 -0.00164667 -0.00234981)
(0.00321831 -0.0011046 -0.00234981)
(0.00336122 -0.000528968 -0.00234981)
(0.00340201 6.27388e-05 -0.00234981)
(0.00333944 0.00065254 -0.00234981)
(0.00317539 0.00122251 -0.0023498)
(0.00291486 0.00175534 -0.0023498)
(0.00256577 0.00223483 -0.00234981)
(0.00213871 0.00264642 -0.00234981)
(0.00164667 0.0029776 -0.00234981)
(0.0011046 0.00321831 -0.00234981)
(0.000528968 0.00336122 -0.0023498)
(-6.27386e-05 0.00340201 -0.00234981)
(-0.00065254 0.00333944 -0.0023498)
(-0.00122251 0.00317539 -0.0023498)
(-0.00182617 0.00318015 -0.00206114)
(-0.00235065 0.00281472 -0.00206115)
(-0.00280371 0.00236378 -0.00206114)
(-0.00317158 0.00184101 -0.00206114)
(-0.00344309 0.0012623 -0.00206114)
(-0.00360997 0.000645234 -0.00206114)
(-0.00366717 8.5669e-06 -0.00206114)
(-0.00361295 -0.000628361 -0.00206114)
(-0.00344894 -0.0012462 -0.00206114)
(-0.00318015 -0.00182617 -0.00206114)
(-0.00281472 -0.00235065 -0.00206115)
(-0.00236377 -0.00280371 -0.00206114)
(-0.00184101 -0.00317158 -0.00206114)
(-0.0012623 -0.00344309 -0.00206114)
(-0.000645234 -0.00360997 -0.00206114)
(-8.56667e-06 -0.00366717 -0.00206114)
(0.000628362 -0.00361295 -0.00206114)
(0.0012462 -0.00344894 -0.00206114)
(0.00182617 -0.00318015 -0.00206114)
(0.00235065 -0.00281472 -0.00206115)
(0.00280371 -0.00236377 -0.00206115)
(0.00317158 -0.00184101 -0.00206114)
(0.00344309 -0.0012623 -0.00206114)
(0.00360997 -0.000645234 -0.00206114)
(0.00366717 -8.56662e-06 -0.00206114)
(0.00361295 0.000628362 -0.00206114)
(0.00344894 0.0012462 -0.00206114)
(0.00318015 0.00182617 -0.00206114)
(0.00281472 0.00235065 -0.00206115)
(0.00236377 0.00280371 -0.00206114)
(0.00184101 0.00317158 -0.00206114)
(0.0012623 0.00344309 -0.00206114)
(0.000645234 0.00360997 -0.00206114)
(8.56684e-06 0.00366717 -0.00206114)
(-0.000628361 0.00361295 -0.00206114)
(-0.0012462 0.00344895 -0.00206114)
(-0.00195621 0.00338004 -0.00179904)
(-0.00251343 0.002989 -0.00179904)
(-0.00299428 0.00250714 -0.00179904)
(-0.00338415 0.0019491 -0.00179904)
(-0.00367119 0.00133184 -0.00179904)
(-0.00384669 0.000674106 -0.00179904)
(-0.0039053 -4.10427e-06 -0.00179904)
(-0.00384526 -0.000682192 -0.00179904)
(-0.00366838 -0.00133955 -0.00179904)
(-0.00338004 -0.00195621 -0.00179904)
(-0.002989 -0.00251343 -0.00179904)
(-0.00250714 -0.00299428 -0.00179904)
(-0.0019491 -0.00338415 -0.00179904)
(-0.00133184 -0.00367119 -0.00179904)
(-0.000674106 -0.00384669 -0.00179904)
(4.10448e-06 -0.0039053 -0.00179904)
(0.000682192 -0.00384526 -0.00179904)
(0.00133955 -0.00366838 -0.00179904)
(0.00195621 -0.00338004 -0.00179904)
(0.00251343 -0.002989 -0.00179904)
(0.00299428 -0.00250714 -0.00179904)
(0.00338415 -0.0019491 -0.00179904)
(0.00367119 -0.00133184 -0.00179904)
(0.00384669 -0.000674106 -0.00179904)
(0.0039053 4.10453e-06 -0.00179904)
(0.00384526 0.000682192 -0.00179904)
(0.00366838 0.00133955 -0.00179904)
(0.00338004 0.00195621 -0.00179904)
(0.002989 0.00251343 -0.00179904)
(0.00250714 0.00299428 -0.00179904)
(0.0019491 0.00338415 -0.00179904)
(0.00133184 0.00367119 -0.00179904)
(0.000674106 0.00384669 -0.00179904)
(-4.10432e-06 0.0039053 -0.00179904)
(-0.000682192 0.00384526 -0.00179904)
(-0.00133955 0.00366838 -0.00179904)
(-0.00205971 0.00354506 -0.00285364)
(-0.00264401 0.00313353 -0.00285364)
(-0.00314798 0.0026268 -0.00285365)
(-0.00355629 0.00204025 -0.00285365)
(-0.00385655 0.00139171 -0.00285365)
(-0.00403963 0.000700886 -0.00285364)
(-0.00409996 -1.12358e-05 -0.00285364)
(-0.00403572 -0.000723017 -0.00285364)
(-0.00384886 -0.00141283 -0.00285364)
(-0.00354505 -0.00205971 -0.00285364)
(-0.00313353 -0.00264401 -0.00285365)
(-0.0026268 -0.00314798 -0.00285365)
(-0.00204025 -0.00355629 -0.00285365)
(-0.00139171 -0.00385655 -0.00285365)
(-0.000700885 -0.00403963 -0.00285364)
(1.12361e-05 -0.00409996 -0.00285364)
(0.000723018 -0.00403572 -0.00285364)
(0.00141283 -0.00384886 -0.00285364)
(0.00205971 -0.00354505 -0.00285364)
(0.00264401 -0.00313353 -0.00285365)
(0.00314798 -0.0026268 -0.00285365)
(0.00355629 -0.00204025 -0.00285365)
(0.00385655 -0.00139171 -0.00285365)
(0.00403963 -0.000700885 -0.00285364)
(0.00409996 1.12361e-05 -0.00285364)
(0.00403572 0.000723018 -0.00285364)
(0.00384886 0.00141283 -0.00285364)
(0.00354505 0.00205971 -0.00285364)
(0.00313353 0.00264401 -0.00285364)
(0.0026268 0.00314798 -0.00285365)
(0.00204025 0.00355629 -0.00285365)
(0.00139171 0.00385655 -0.00285365)
(0.000700886 0.00403963 -0.00285364)
(-1.12359e-05 0.00409996 -0.00285364)
(-0.000723017 0.00403572 -0.00285364)
(-0.00141283 0.00384886 -0.00285364)
(-0.00213262 0.00371414 -0.00254659)
(-0.00274517 0.00328739 -0.00254659)
(-0.00327432 0.00276075 -0.00254659)
(-0.00370397 0.00215023 -0.00254659)
(-0.00402108 0.00147438 -0.00254659)
(-0.00421602 0.000753726 -0.00254659)
(-0.00428285 1.01704e-05 -0.00254659)
(-0.00421955 -0.000733693 -0.00254659)
(-0.00402804 -0.00145526 -0.00254659)
(-0.00371414 -0.00213262 -0.00254659)
(-0.00328739 -0.00274517 -0.00254659)
(-0.00276075 -0.00327432 -0.00254659)
(-0.00215023 -0.00370397 -0.00254659)
(-0.00147438 -0.00402108 -0.00254659)
(-0.000753725 -0.00421602 -0.00254659)
(-1.01701e-05 -0.00428285 -0.00254659)
(0.000733693 -0.00421955 -0.00254659)
(0.00145527 -0.00402804 -0.00254659)
(0.00213262 -0.00371414 -0.00254659)
(0.00274517 -0.00328739 -0.00254659)
(0.00327432 -0.00276075 -0.00254659)
(0.00370397 -0.00215023 -0.00254659)
(0.00402108 -0.00147438 -0.00254659)
(0.00421602 -0.000753725 -0.00254659)
(0.00428285 -1.01701e-05 -0.00254659)
(0.00421955 0.000733693 -0.00254659)
(0.00402804 0.00145527 -0.00254659)
(0.00371414 0.00213262 -0.00254659)
(0.00328739 0.00274517 -0.00254659)
(0.00276075 0.00327432 -0.00254659)
(0.00215023 0.00370397 -0.00254659)
(0.00147438 0.00402108 -0.00254659)
(0.000753726 0.00421602 -0.00254659)
(1.01704e-05 0.00428285 -0.00254659)
(-0.000733693 0.00421955 -0.00254659)
(-0.00145526 0.00402804 -0.00254659)
(-0.00225806 0.00380974 -0.00227158)
(-0.00288531 0.00335976 -0.00227158)
(-0.00342489 0.00280769 -0.00227158)
(-0.00386041 0.0021703 -0.00227158)
(-0.00417863 0.00146698 -0.00227158)
(-0.00436988 0.000719083 -0.00227158)
(-0.00442836 -5.06643e-05 -0.00227158)
(-0.00435229 -0.000818872 -0.00227158)
(-0.00414397 -0.0015622 -0.00227158)
(-0.00380974 -0.00225806 -0.00227158)
(-0.00335976 -0.00288531 -0.00227158)
(-0.00280769 -0.00342489 -0.00227158)
(-0.0021703 -0.00386041 -0.00227158)
(-0.00146698 -0.00417863 -0.00227158)
(-0.000719083 -0.00436988 -0.00227158)
(5.06646e-05 -0.00442836 -0.00227158)
(0.000818872 -0.00435229 -0.00227158)
(0.0015622 -0.00414397 -0.00227158)
(0.00225806 -0.00380974 -0.00227158)
(0.00288531 -0.00335976 -0.00227158)
(0.00342489 -0.00280768 -0.00227158)
(0.00386041 -0.0021703 -0.00227158)
(0.00417863 -0.00146698 -0.00227158)
(0.00436988 -0.000719082 -0.00227158)
(0.00442836 5.06646e-05 -0.00227158)
(0.00435229 0.000818872 -0.00227158)
(0.00414397 0.0015622 -0.00227158)
(0.00380974 0.00225806 -0.00227158)
(0.00335976 0.00288531 -0.00227158)
(0.00280769 0.00342489 -0.00227158)
(0.0021703 0.00386041 -0.00227158)
(0.00146698 0.00417863 -0.00227158)
(0.000719083 0.00436988 -0.00227158)
(-5.06643e-05 0.00442836 -0.00227158)
(-0.000818872 0.00435229 -0.00227158)
(-0.0015622 0.00414397 -0.00227158)
(-0.00239142 0.0041008 -0.00337881)
(-0.00306718 0.00362323 -0.00337881)
(-0.00364975 0.00303557 -0.00337881)
(-0.00412143 0.00235568 -0.00337881)
(-0.00446787 0.00160422 -0.00337881)
(-0.00467857 0.000804007 -0.00337881)
(-0.0047471 -2.06325e-05 -0.00337881)
(-0.0046714 -0.000844646 -0.00337881)
(-0.00445376 -0.00164299 -0.00337881)
(-0.0041008 -0.00239142 -0.00337881)