/*--------------------------------*- C++ -*----------------------------------*\
| =========                 |                                                 |
| \\      /  F ield         | OpenFOAM: The Open Source CFD Toolbox           |
|  \\    /   O peration     | Version:  2312                                  |
|   \\  /    A nd           | Website:  www.openfoam.com                      |
|    \\/     M anipulation  |                                                 |
\*---------------------------------------------------------------------------*/
FoamFile
{
    version     2.0;
    format      ascii;
    arch        "LSB;label=32;scalar=64";
    class       volVectorField;
    location    "1";
    object      D_0_0_0;
}
// * * * * * * * * * * * * * * * * * * * * * * * * * * * * * * * * * * * * * //

dimensions      [0 1 0 0 0 0 0];

internalField   nonuniform List<vector> 
1620
(
(-0.000162847 8.9208e-05 -0.000230012)
(-0.00013274 0.00021235 -0.000207542)
(-9.64832e-05 0.000294815 -0.000166478)
(-5.5815e-05 0.00034397 -0.000111911)
(-7.19005e-06 0.000373988 -4.18312e-05)
(4.61363e-05 0.000398002 4.78591e-05)
(9.14498e-05 0.00042591 0.000161253)
(0.000110252 0.000460407 0.000297441)
(0.000106473 0.000486561 0.000419153)
(8.1584e-05 0.000498081 0.000404212)
(3.56971e-05 0.000485384 0.000277033)
(1.44402e-05 0.000455747 0.000155259)
(2.2786e-05 0.000427817 5.90593e-05)
(4.27752e-05 0.000402965 -1.50479e-05)
(6.09846e-05 0.000372497 -7.20745e-05)
(7.33938e-05 0.000324307 -0.000117863)
(8.18658e-05 0.000246184 -0.000158192)
(8.1635e-05 0.000130916 -0.000190014)
(6.4682e-05 -9.15793e-06 -0.000186247)
(3.51053e-05 -0.000131429 -0.000147623)
(6.13328e-06 -0.000219931 -0.00010412)
(-1.72533e-05 -0.000277427 -5.94604e-05)
(-3.89719e-05 -0.000312496 -9.43279e-06)
(-6.15525e-05 -0.000336381 5.15568e-05)
(-8.13966e-05 -0.0003608 0.000132976)
(-8.77144e-05 -0.000392386 0.000246079)
(-8.86826e-05 -0.000417943 0.000367891)
(-7.7259e-05 -0.000430635 0.000371771)
(-4.70792e-05 -0.000420896 0.000270982)
(-4.15473e-05 -0.00039694 0.000165753)
(-6.65372e-05 -0.000374081 7.57969e-05)
(-0.000104518 -0.000352236 1.66497e-06)
(-0.000138959 -0.00032159 -5.86582e-05)
(-0.000162514 -0.000268846 -0.000110599)
(-0.000176495 -0.00018181 -0.000161692)
(-0.00017839 -5.60119e-05 -0.000211182)
(3.76686e-05 5.08845e-05 -0.000138128)
(4.52885e-05 0.000170096 -9.78251e-05)
(4.50014e-05 0.00024367 -5.95728e-05)
(4.32502e-05 0.000281759 -1.58824e-05)
(4.52807e-05 0.000291242 3.42153e-05)
(5.17551e-05 0.000281905 8.73259e-05)
(6.02305e-05 0.00026339 0.000138368)
(6.86518e-05 0.000244449 0.000181356)
(8.1459e-05 0.000235164 0.000208124)
(8.37919e-05 0.000243445 0.000204164)
(7.96559e-05 0.00026641 0.000174952)
(6.93145e-05 0.000294509 0.000134527)
(5.91321e-05 0.000322107 9.05787e-05)
(4.5608e-05 0.000342546 4.75538e-05)
(2.44491e-05 0.000346318 9.0543e-06)
(-5.43143e-06 0.000322757 -2.32906e-05)
(-3.99797e-05 0.000263741 -5.24178e-05)
(-7.32347e-05 0.000155699 -8.60224e-05)
(-9.10535e-05 1.72128e-05 -7.89362e-05)
(-9.02115e-05 -9.79251e-05 -3.48605e-05)
(-8.08281e-05 -0.000171604 -1.90355e-06)
(-6.80095e-05 -0.000212375 2.95069e-05)
(-5.70445e-05 -0.000225808 6.28041e-05)
(-5.04263e-05 -0.000220576 9.74747e-05)
(-4.90853e-05 -0.000204817 0.000132603)
(-5.43388e-05 -0.000185703 0.000166771)
(-7.16619e-05 -0.000173164 0.000192752)
(-8.4707e-05 -0.000176347 0.000191212)
(-9.29026e-05 -0.000196675 0.0001653)
(-9.72895e-05 -0.000226785 0.000126751)
(-0.000102072 -0.000259864 8.18842e-05)
(-0.000101652 -0.000286939 3.53831e-05)
(-8.93028e-05 -0.000295524 -8.60756e-06)
(-6.25637e-05 -0.0002725 -4.84119e-05)
(-2.59918e-05 -0.000209065 -8.74534e-05)
(1.23498e-05 -9.41623e-05 -0.000133934)
(0.00020047 5.22836e-06 -2.1954e-05)
(0.00018146 0.000119159 3.27839e-06)
(0.000136232 0.000186413 3.02436e-05)
(8.55516e-05 0.000208248 5.73658e-05)
(4.06795e-05 0.000193199 8.31139e-05)
(7.93977e-06 0.000154261 0.000101432)
(-7.46031e-06 0.000106026 0.000103226)
(1.10618e-06 6.33127e-05 8.17609e-05)
(4.3763e-05 4.05511e-05 4.73152e-05)
(0.000107664 4.42663e-05 4.65017e-05)
(0.000147273 7.86006e-05 8.31185e-05)
(0.000156013 0.000137329 0.000101079)
(0.000139139 0.00020501 9.70609e-05)
(0.00010068 0.00026648 8.12552e-05)
(4.33135e-05 0.000306816 6.33795e-05)
(-2.91175e-05 0.000311353 4.98274e-05)
(-0.000106991 0.000268243 4.21517e-05)
(-0.000167389 0.00017232 3.85524e-05)
(-0.000184471 5.24232e-05 4.69838e-05)
(-0.000157288 -5.17024e-05 6.31648e-05)
(-0.000109111 -0.000111896 7.65554e-05)
(-6.0123e-05 -0.000131144 9.00554e-05)
(-1.94641e-05 -0.000118807 0.00010461)
(8.70105e-06 -8.62575e-05 0.000115573)
(1.98376e-05 -4.41783e-05 0.000113979)
(6.35058e-06 -3.63485e-06 9.12584e-05)
(-4.1403e-05 2.12743e-05 5.45418e-05)
(-0.000109056 2.07059e-05 4.80897e-05)
(-0.000153262 -1.29512e-05 7.75797e-05)
(-0.000171406 -7.43686e-05 8.86787e-05)
(-0.000164088 -0.000149018 7.81503e-05)
(-0.000130765 -0.000219903 5.53999e-05)
(-7.16941e-05 -0.000268338 2.9294e-05)
(8.842e-06 -0.000276206 5.42117e-06)
(9.85874e-05 -0.00023025 -1.46694e-05)
(0.000171884 -0.000126433 -2.90985e-05)
(-0.000261388 0.000236594 -0.000608755)
(-0.0002184 0.000609535 -0.000553311)
(-0.00018028 0.000859987 -0.000436985)
(-0.000132169 0.000998998 -0.000277084)
(-6.05199e-05 0.00105953 -7.16671e-05)
(3.11506e-05 0.00107637 0.000184995)
(0.000123121 0.0010809 0.000493163)
(0.000189985 0.00109418 0.000831255)
(0.000236177 0.00111195 0.00110531)
(0.000258815 0.0011304 0.00111406)
(0.000221849 0.00114029 0.000861732)
(0.00019576 0.00114375 0.000556292)
(0.000197544 0.00114722 0.000282097)
(0.000207541 0.0011368 5.72033e-05)
(0.00020565 0.00108621 -0.000121097)
(0.00018389 0.000964253 -0.000264639)
(0.000146921 0.000739313 -0.000384515)
(9.98965e-05 0.000395718 -0.000467022)
(5.49711e-05 -1.32592e-05 -0.000457889)
(2.06101e-05 -0.000376358 -0.000358281)
(-3.23691e-06 -0.000627256 -0.000231675)
(-2.19333e-05 -0.0007726 -9.79325e-05)
(-4.52967e-05 -0.000841219 4.92379e-05)
(-7.7179e-05 -0.000865785 0.000224674)
(-0.00011379 -0.000877164 0.000446733)
(-0.000146699 -0.000897231 0.000720943)
(-0.000192666 -0.000920796 0.000980127)
(-0.000241184 -0.000942054 0.00102841)
(-0.000246621 -0.000955739 0.00083687)
(-0.000269148 -0.000969837 0.00057418)
(-0.000323036 -0.000987447 0.000316863)
(-0.000383327 -0.000989152 8.86947e-05)
(-0.000419199 -0.000942346 -0.000105029)
(-0.000414252 -0.000810971 -0.000272305)
(-0.000374927 -0.000563398 -0.000426686)
(-0.000316858 -0.000191009 -0.00055887)
(4.28216e-05 0.000131687 -0.000424768)
(6.27579e-05 0.000473635 -0.000330727)
(5.70215e-05 0.00069507 -0.000203583)
(4.77172e-05 0.000811427 -5.14683e-05)
(5.15325e-05 0.00084372 0.000122204)
(7.32032e-05 0.000821872 0.000309198)
(0.000108796 0.000776867 0.000495329)
(0.00015343 0.000735394 0.000658941)
(0.000209593 0.00071757 0.000765614)
(0.000255238 0.000737701 0.00077166)
(0.000274261 0.000794986 0.000677857)
(0.000268816 0.000871113 0.000530117)
(0.000248744 0.000948691 0.00036586)
(0.00020945 0.00100538 0.000206303)
(0.000144595 0.00101187 6.30839e-05)
(5.51695e-05 0.000936762 -5.97406e-05)
(-4.55537e-05 0.000755303 -0.000164108)
(-0.000137029 0.000445425 -0.00024533)
(-0.00018653 6.60569e-05 -0.000227888)
(-0.000186652 -0.000263754 -0.000120001)
(-0.000160085 -0.000479879 -5.52723e-06)
(-0.000125794 -0.000596932 0.000109675)
(-9.91076e-05 -0.000635921 0.000228571)
(-8.78954e-05 -0.000624519 0.000352363)
(-9.60996e-05 -0.000589224 0.000479742)
(-0.00012776 -0.000551997 0.00060319)
(-0.000189279 -0.000530718 0.000696612)
(-0.0002567 -0.000542424 0.000712172)
(-0.000308033 -0.000595687 0.000636587)
(-0.000343463 -0.000678664 0.000502423)
(-0.000366464 -0.000772462 0.00034019)
(-0.000364739 -0.000848699 0.000170444)
(-0.000323834 -0.000869305 6.70012e-06)
(-0.000240769 -0.000795218 -0.000145162)
(-0.000131917 -0.000599804 -0.000285736)
(-2.52901e-05 -0.000267671 -0.000407843)
(0.000320299 1.58317e-05 -0.000209709)
(0.000315441 0.00032017 -0.000114168)
(0.000260412 0.000519403 1.50379e-05)
(0.000187145 0.000612641 0.000154528)
(0.00011891 0.000616826 0.000290821)
(7.17403e-05 0.000560949 0.000405511)
(5.77395e-05 0.000479477 0.000474416)
(8.74585e-05 0.000406997 0.000479857)
(0.000175288 0.0003734 0.000444334)
(0.000283866 0.000394229 0.000450509)
(0.000357099 0.000473748 0.000486219)
(0.000376314 0.000597956 0.000478469)
(0.000341105 0.000737289 0.00041895)
(0.000256185 0.00085749 0.000326487)
(0.000128052 0.000921688 0.000223928)
(-3.05759e-05 0.00089434 0.000128627)
(-0.000195001 0.000749609 5.15173e-05)
(-0.000323418 0.000482632 7.63268e-06)
(-0.000375594 0.000156094 3.06591e-05)
(-0.000347333 -0.000131063 0.0001087)
(-0.000271862 -0.000317728 0.000200615)
(-0.000184099 -0.000404629 0.000292524)
(-0.000106912 -0.000411147 0.000379229)
(-5.50847e-05 -0.000364063 0.00044938)
(-4.11223e-05 -0.000290915 0.000483542)
(-7.7306e-05 -0.00021954 0.000465684)
(-0.00017662 -0.000179391 0.000418272)
(-0.000296647 -0.000192598 0.000416393)
(-0.000387799 -0.000270285 0.000441356)
(-0.000435576 -0.000402706 0.000422401)
(-0.000430547 -0.000561831 0.000349833)
(-0.00036726 -0.000708077 0.000238631)
(-0.00024644 -0.000794065 0.000108409)
(-8.15526e-05 -0.000774661 -2.39663e-05)
(9.77349e-05 -0.000621424 -0.000143175)
(0.00024594 -0.000334654 -0.000222172)
(-0.000362931 0.000304275 -0.000855233)
(-0.000302586 0.00086118 -0.000791469)
(-0.00025213 0.00125017 -0.000619502)
(-0.000183717 0.0014787 -0.000358137)
(-8.30137e-05 0.00158558 -8.80913e-06)
(4.13872e-05 0.0016161 0.000425427)
(0.000166872 0.00161295 0.000927406)
(0.000269244 0.00160864 0.0014459)
(0.000349544 0.00161739 0.00185775)
(0.000402417 0.00165073 0.00193937)
(0.000389546 0.0016989 0.00162938)
(0.000358458 0.00174704 0.00116913)
(0.000344831 0.00178264 0.000710813)
(0.000338326 0.00177885 0.000311531)
(0.000318201 0.00170008 -1.22736e-05)
(0.000269556 0.00150618 -0.000265416)
(0.00019497 0.00115897 -0.000457398)
(0.000109557 0.000644205 -0.000571853)
(3.82706e-05 4.32832e-05 -0.000558313)
(-5.67719e-06 -0.000496205 -0.000421656)
(-2.95073e-05 -0.000878017 -0.000228994)
(-5.00489e-05 -0.0011058 -9.7422e-06)
(-8.00168e-05 -0.00121776 0.00023909)
(-0.000121416 -0.00125837 0.00053266)
(-0.000170411 -0.00126832 0.000884999)
(-0.000223238 -0.00127763 0.00128444)
(-0.000295565 -0.00129699 0.00164713)
(-0.000380179 -0.00133419 0.00176976)
(-0.00043371 -0.00138577 0.00154897)
(-0.000477211 -0.00144675 0.00116005)
(-0.000543086 -0.00150359 0.000733562)
(-0.000612529 -0.00152034 0.000329891)
(-0.0006496 -0.00145135 -2.32356e-05)
(-0.00062658 -0.00124957 -0.000322264)
(-0.000549003 -0.000876492 -0.000576647)
(-0.000448917 -0.000325215 -0.000774003)
(-3.93813e-05 0.000169385 -0.000642354)
(6.49905e-06 0.0006729 -0.00051331)
(2.02528e-05 0.00101037 -0.000302502)
(3.14675e-05 0.00120059 -3.58014e-05)
(6.03649e-05 0.00126962 0.000275082)
(0.000110957 0.0012586 0.000612559)
(0.000177246 0.00121138 0.000949053)
(0.000251749 0.00116578 0.00124421)
(0.000333135 0.00114962 0.0014418)
(0.000401877 0.00118182 0.0014764)
(0.000441124 0.00126624 0.00133505)
(0.000441804 0.0013803 0.00108399)
(0.000415269 0.0014932 0.000790406)
(0.000359379 0.00156978 0.000497543)
(0.000268187 0.0015674 0.000230924)
(0.000143089 0.00144197 3.18485e-06)
(2.11464e-06 0.00116201 -0.000180064)
(-0.00012634 0.000704295 -0.000296566)
(-0.000204596 0.00015591 -0.00026985)
(-0.000221793 -0.000327609 -0.000114939)
(-0.000201232 -0.000655412 7.68581e-05)
(-0.000169948 -0.000843399 0.000280052)
(-0.0001489 -0.000919142 0.000491688)
(-0.000148573 -0.000921304 0.000711203)
(-0.000173807 -0.000888304 0.000933923)
(-0.00022805 -0.0008519 0.001144)
(-0.000314956 -0.00083559 0.00130325)
(-0.000414457 -0.000858843 0.00134643)
(-0.000502705 -0.000937009 0.00123776)
(-0.000564508 -0.00105963 0.00101587)
(-0.000602796 -0.00119524 0.000730918)
(-0.000604688 -0.0013006 0.000421594)
(-0.000552276 -0.00132065 0.000115676)
(-0.000439962 -0.00119935 -0.00016899)
(-0.000290013 -0.000901424 -0.000420201)
(-0.000141941 -0.00041137 -0.000608998)
(0.000290632 2.19834e-05 -0.000398049)
(0.000314992 0.000464918 -0.00023688)
(0.000283922 0.000762494 2.0084e-06)
(0.000229823 0.000916234 0.000271297)
(0.000179218 0.000947615 0.000540576)
(0.00015116 0.000895618 0.000778512)
(0.000158372 0.000807545 0.000949475)
(0.000209121 0.000729931 0.00102563)
(0.000308859 0.000700839 0.00102093)
(0.000429997 0.000741487 0.00102582)
(0.000520483 0.00085263 0.00103307)
(0.000550028 0.00101756 0.000976579)
(0.000510686 0.00120046 0.000845433)
(0.000403756 0.00135514 0.000661888)
(0.000237275 0.00142874 0.000457588)
(3.05601e-05 0.00137017 0.000261494)
(-0.000181788 0.00114572 0.000100748)
(-0.000351299 0.000753585 1.38507e-05)
(-0.000433745 0.000279754 4.98761e-05)
(-0.000423341 -0.000138209 0.00018968)
(-0.000355071 -0.000421653 0.000369474)
(-0.00026758 -0.00056959 0.00055376)
(-0.000190843 -0.000605423 0.000725931)
(-0.00014616 -0.000565411 0.000869076)
(-0.000148273 -0.000489022 0.000960209)
(-0.000206257 -0.000414658 0.000979831)
(-0.000322903 -0.000378475 0.000944219)
(-0.000465983 -0.00040883 0.000936007)
(-0.000587625 -0.000515256 0.000933811)
(-0.000660391 -0.000689264 0.000867614)
(-0.000667422 -0.000898475 0.000719997)
(-0.00059718 -0.00109042 0.000504605)
(-0.000449145 -0.00119694 0.000247534)
(-0.000242007 -0.00115101 -2.00276e-05)
(-1.54148e-05 -0.000913601 -0.000258901)
(0.0001782 -0.000489551 -0.000409786)
(-0.000481012 0.000280326 -0.000862888)
(-0.000399757 0.000940382 -0.000824604)
(-0.000324243 0.00142662 -0.000637086)
(-0.000227026 0.00173452 -0.000310704)
(-9.90491e-05 0.0018985 0.000145989)
(4.91974e-05 0.00196559 0.000714543)
(0.000198706 0.00198279 0.00135785)
(0.00032993 0.00198921 0.0020045)
(0.000438104 0.00201303 0.00252472)
(0.00052529 0.002075 0.00269483)
(0.000561245 0.00216133 0.00239895)
(0.00052661 0.0022457 0.00186093)
(0.000487381 0.00230333 0.00127553)
(0.000449847 0.00229478 0.000737558)
(0.000402317 0.00218032 0.000291418)
(0.000329441 0.001921 -5.00993e-05)
(0.000230432 0.00148615 -0.000288373)
(0.000122689 0.000875232 -0.000413657)
(3.29943e-05 0.000180369 -0.000403263)
(-2.34829e-05 -0.000451035 -0.000267229)
(-5.55898e-05 -0.000918246 -5.19925e-05)
(-8.49056e-05 -0.00121518 0.000214559)
(-0.000125068 -0.00137723 0.000529681)
(-0.000177657 -0.00145107 0.000901411)
(-0.000239956 -0.00148117 0.00133354)
(-0.000310878 -0.00150295 0.00180291)
(-0.000399381 -0.00154055 0.00222792)
(-0.000512694 -0.00161034 0.0024187)
(-0.000626641 -0.00170374 0.00223059)
(-0.000685984 -0.00180249 0.00179005)
(-0.000745576 -0.00188558 0.00125418)
(-0.000800767 -0.0019039 0.000716291)
(-0.000825767 -0.00180632 0.000231166)
(-0.000792327 -0.00154689 -0.000177253)
(-0.000700707 -0.00109362 -0.000505835)
(-0.000584548 -0.00044974 -0.000745851)
(-0.000200076 0.000151729 -0.000662882)
(-0.000121021 0.00074677 -0.000531319)
(-6.88927e-05 0.00116444 -0.000273156)
(-1.59989e-05 0.00141859 7.5398e-05)
(5.38769e-05 0.00153726 0.00049224)
(0.000141785 0.00156441 0.000949)
(0.000240749 0.00154744 0.00140558)
(0.000342504 0.00152756 0.00180771)
(0.000444035 0.00153552 0.00208638)
(0.00053345 0.00158868 0.00216226)
(0.000593609 0.00169295 0.00201087)
(0.000598744 0.00182766 0.00170072)
(0.000564601 0.00195189 0.00131531)
(0.000495979 0.00202429 0.000917764)
(0.000390777 0.00199784 0.000550146)
(0.000250693 0.00182566 0.000238085)
(9.30036e-05 0.00147644 -8.49363e-07)
(-5.38291e-05 0.000935973 -0.000133223)
(-0.000154923 0.00030212 -0.000104272)
(-0.000197466 -0.000264148 6.42332e-05)
(-0.00020092 -0.000666797 0.000295662)
(-0.000193521 -0.000915363 0.000553652)
(-0.000196688 -0.00103813 0.000827662)
(-0.000220762 -0.00107668 0.00111267)
(-0.000269563 -0.00107399 0.00139944)
(-0.00034463 -0.00106582 0.0016665)
(-0.000448235 -0.00107806 0.00187151)
(-0.000571089 -0.00112499 0.00194324)
(-0.000690075 -0.00122268 0.00183334)
(-0.000770792 -0.0013664 0.00156862)
(-0.000817056 -0.00151585 0.00120316)
(-0.000821147 -0.00162138 0.000788618)
(-0.000768309 -0.00162308 0.000367003)
(-0.000651891 -0.00146084 -2.87768e-05)
(-0.000491866 -0.00109721 -0.000368577)
(-0.000327457 -0.000522747 -0.000605919)
(0.000117068 1.0548e-05 -0.000440786)
(0.000181836 0.000534409 -0.000240168)
(0.000198762 0.000895443 7.64865e-05)
(0.000196859 0.00109805 0.000445824)
(0.000197643 0.00116898 0.000823226)
(0.000215479 0.00115126 0.00116742)
(0.00025863 0.00109511 0.00143521)
(0.00033137 0.00104785 0.00159024)
(0.000432911 0.00104535 0.00163242)
(0.000559564 0.00110889 0.00163614)
(0.000655833 0.00123589 0.00161652)
(0.000691503 0.00141178 0.00152266)
(0.000655625 0.00160143 0.00133685)
(0.000547493 0.00175663 0.00108192)
(0.000374635 0.00181917 0.000795609)
(0.000157005 0.00173088 0.000517867)
(-6.96505e-05 0.00145369 0.000292701)
(-0.000258299 0.00098953 0.000176009)
(-0.000365688 0.000435241 0.000219202)
(-0.000385456 -5.75495e-05 0.000396526)
(-0.000350584 -0.000405036 0.000633718)
(-0.000297624 -0.000605109 0.000882047)
(-0.000255505 -0.000682933 0.00111534)
(-0.000244616 -0.000678284 0.0013129)
(-0.000276482 -0.000635046 0.00145169)
(-0.000355167 -0.000593111 0.00151077)
(-0.000475193 -0.000584979 0.00149535)
(-0.000633447 -0.000637747 0.00147284)
(-0.000771195 -0.000758418 0.00144513)
(-0.000860603 -0.000942092 0.00134869)
(-0.000883649 -0.00115821 0.00114946)
(-0.000826121 -0.00135341 0.000855369)
(-0.000685036 -0.00145376 0.000495133)
(-0.000477233 -0.00138244 0.000112776)
(-0.00024125 -0.00109258 -0.000228342)
(-2.71742e-05 -0.000590553 -0.000441835)
(-0.000605263 0.000181416 -0.000608622)
(-0.000509632 0.000874397 -0.000618451)
(-0.000407379 0.0014148 -0.000456127)
(-0.000279049 0.00178454 -0.00011597)
(-0.000122561 0.00201007 0.000390141)
(5.15699e-05 0.00213523 0.00103127)
(0.000227861 0.0022055 0.00175586)
(0.000389 0.0022595 0.00248166)
(0.000525035 0.00232895 0.00307789)
(0.00064558 0.00243502 0.00333795)
(0.000725619 0.00255753 0.00311899)
(0.00068743 0.00266009 0.00257222)
(0.000622625 0.00272117 0.00192306)
(0.00054949 0.00269443 0.00130169)
(0.000468784 0.00254064 0.000779426)
(0.000372477 0.0022289 0.000386649)
(0.000259422 0.0017438 0.000128223)
(0.000143678 0.00110296 5.79769e-07)
(4.73572e-05 0.000395019 -3.4254e-06)
(-1.88758e-05 -0.000256649 0.000102617)
(-6.61482e-05 -0.000762967 0.000297409)
(-0.000114387 -0.00110908 0.000563556)
(-0.000174948 -0.00132234 0.000895815)
(-0.000248731 -0.00144545 0.00129458)
(-0.000332652 -0.00152164 0.00175419)
(-0.000424773 -0.00158728 0.00224534)
(-0.000529011 -0.00167133 0.00269159)
(-0.000661972 -0.00179067 0.00293651)
(-0.000810884 -0.00192757 0.00283207)
(-0.000882554 -0.00204893 0.00240616)
(-0.000928689 -0.00213791 0.00182788)
(-0.000957267 -0.00214305 0.00121923)
(-0.000959066 -0.00201494 0.000657604)
(-0.000916145 -0.00171585 0.000184974)
(-0.000825643 -0.0012267 -0.000185419)
(-0.000712187 -0.000563598 -0.000453072)
(-0.000411841 8.50724e-05 -0.000439088)
(-0.000301635 0.000711996 -0.00033448)
(-0.000204824 0.00117564 -7.51836e-05)
(-0.000100816 0.00147968 0.000303646)
(1.91821e-05 0.00165291 0.000774091)
(0.000152311 0.00173743 0.00130063)
(0.000290083 0.00177735 0.00183456)
(0.000423136 0.00181042 0.00231198)
(0.0005473 0.00186408 0.00265534)
(0.000657559 0.00195039 0.00278092)
(0.000733166 0.00207408 0.00265532)
(0.000741423 0.00221703 0.00233189)
(0.000701005 0.00233415 0.0019012)
(0.000623566 0.00238473 0.00144375)
(0.000512198 0.00232517 0.00101731)
(0.000370186 0.00211405 0.000659323)
(0.000211334 0.00172486 0.000396079)
(5.9325e-05 0.00115696 0.000260685)
(-5.67609e-05 0.000505504 0.00028126)
(-0.00012522 -8.53936e-05 0.000432365)
(-0.000162356 -0.000527102 0.000658624)
(-0.000193115 -0.000820425 0.000925019)
(-0.000235319 -0.000992191 0.00121733)
(-0.000296537 -0.00108222 0.00152673)
(-0.000377696 -0.00113209 0.00184004)
(-0.000477412 -0.00117599 0.00213206)
(-0.000596696 -0.00123686 0.00235965)
(-0.000734889 -0.0013219 0.00245828)
(-0.000870376 -0.00144173 0.00237567)
(-0.000963307 -0.00159339 0.00211257)
(-0.00101359 -0.00173601 0.00171799)
(-0.00101896 -0.00182126 0.00125205)
(-0.000971046 -0.00179386 0.000767733)
(-0.000865242 -0.00159997 0.000309157)
(-0.000715489 -0.00120503 -8.15101e-05)
(-0.000552988 -0.000608597 -0.000350978)
(-0.000164831 -2.37372e-05 -0.000257288)
(-5.33659e-05 0.000530218 -5.38523e-05)
(2.39655e-05 0.00092532 0.000291228)
(9.09607e-05 0.00116539 0.000708082)
(0.00016124 0.00128187 0.00114591)
(0.000240975 0.00131749 0.00155926)
(0.00033168 0.00131777 0.00190052)
(0.000433517 0.00132289 0.00212498)
(0.000543986 0.00136146 0.00221505)
(0.000675568 0.00145165 0.00222124)
(0.000773965 0.00159243 0.00218916)
(0.000814567 0.00176855 0.00208108)
(0.000787568 0.00194514 0.00186856)
(0.00069226 0.0020788 0.0015757)
(0.000534915 0.00211626 0.00124549)
(0.000331894 0.00200169 0.000925886)
(0.000113701 0.00169648 0.000670978)
(-7.82896e-05 0.0012063 0.000542045)
(-0.00020599 0.000627509 0.000583576)
(-0.000262505 0.000106117 0.000765733)
(-0.000275435 -0.000276265 0.00101519)
(-0.000277069 -0.000516086 0.00128166)
(-0.000290956 -0.000639816 0.00153626)
(-0.000331596 -0.000686904 0.00175744)
(-0.00040456 -0.000699046 0.00192312)
(-0.000509232 -0.000710863 0.00201105)
(-0.000637888 -0.000746167 0.00201332)
(-0.000802264 -0.000824762 0.00197233)
(-0.000946599 -0.000957424 0.00193013)
(-0.0010479 -0.00113883 0.0018288)
(-0.00108966 -0.00133889 0.00161226)
(-0.00105745 -0.00150995 0.00128334)
(-0.000945807 -0.00158479 0.000871003)
(-0.000765876 -0.00148993 0.000425489)
(-0.000547824 -0.001176 2.33561e-05)
(-0.000333722 -0.000649763 -0.000234852)
(-0.000728593 3.27896e-05 -0.000123123)
(-0.000627173 0.000704853 -0.000189461)
(-0.00050339 0.00125975 -8.23638e-05)
(-0.000344869 0.00167146 0.000222856)
(-0.00015663 0.00195767 0.000718426)
(4.92976e-05 0.00215527 0.00136841)
(0.000258582 0.0023037 0.00211435)
(0.000454767 0.00243592 0.00287085)
(0.000624232 0.0025782 0.00351247)
(0.000770529 0.00274329 0.00386338)
(0.000865678 0.00290205 0.0037641)
(0.000830397 0.00301026 0.00326326)
(0.000746886 0.00305931 0.00260838)
(0.000642357 0.00300556 0.00196044)
(0.000530578 0.00281463 0.00141122)
(0.000414601 0.00246783 0.0010034)
(0.000296048 0.0019669 0.000743215)
(0.000183723 0.00134405 0.000613336)
(8.98484e-05 0.000675985 0.000586132)
(1.52953e-05 5.44669e-05 0.00064604)
(-5.38702e-05 -0.000451372 0.000790077)
(-0.000132849 -0.000823977 0.00101458)
(-0.000227382 -0.00108287 0.0013171)
(-0.000335189 -0.00126377 0.00169404)
(-0.000450637 -0.00140477 0.00213375)
(-0.000569007 -0.00153868 0.00260517)
(-0.000690375 -0.00169106 0.00304255)
(-0.000825959 -0.00187271 0.00333189)
(-0.000969294 -0.00205656 0.00332901)
(-0.001056 -0.00219686 0.00297021)
(-0.00108885 -0.00227769 0.00241355)
(-0.00109081 -0.00226134 0.00179951)
(-0.00106796 -0.00210722 0.00122099)
(-0.00101527 -0.00178936 0.000731969)
(-0.000930664 -0.00130196 0.000350051)
(-0.000828799 -0.000670014 6.73887e-05)
(-0.000645059 -1.67625e-05 1.81187e-05)
(-0.000511151 0.000596996 7.47919e-05)
(-0.00037311 0.00107545 0.000294362)
(-0.000217917 0.00141399 0.000651957)
(-4.45263e-05 0.00163997 0.00112093)
(0.00013938 0.00179129 0.00166383)
(0.000322383 0.00190516 0.00222807)
(0.000492896 0.00201117 0.00274517)
(0.000644008 0.00212838 0.00313481)
(0.000771992 0.00226202 0.00331616)
(0.000855054 0.00241008 0.00324327)
(0.000868284 0.00255419 0.00294416)
(0.000825783 0.00265437 0.00251239)
(0.000744046 0.00267554 0.00204171)
(0.000631641 0.00258226 0.00160151)
(0.000494667 0.00234313 0.00123702)
(0.00034352 0.0019399 0.000977056)
(0.00019539 0.001384 0.000845759)
(7.1502e-05 0.000760286 0.000848806)
(-2.07887e-05 0.000186321 0.000960735)
(-9.56917e-05 -0.000262851 0.00114575)
(-0.00017303 -0.000582535 0.00137837)
(-0.000264719 -0.000797626 0.00164613)
(-0.000373362 -0.00094444 0.00193908)
(-0.000495301 -0.00105965 0.00224188)
(-0.000624952 -0.00117157 0.00252833)
(-0.000760108 -0.00129578 0.00275895)
(-0.000902358 -0.00143346 0.00288213)
(-0.00103897 -0.0015833 0.0028431)
(-0.00114 -0.00173724 0.00261649)
(-0.00119302 -0.00186419 0.00224146)
(-0.00119993 -0.00192223 0.00177998)
(-0.00115909 -0.0018658 0.00129055)
(-0.00106935 -0.00165217 0.000822864)
(-0.000939103 -0.00125382 0.000422447)
(-0.000789528 -0.000678622 0.000139289)
(-0.00050478 -7.84166e-05 0.000167063)
(-0.000350238 0.000467456 0.000337175)
(-0.000211657 0.000872309 0.000660145)
(-7.28753e-05 0.00113822 0.00106958)
(7.20664e-05 0.00129884 0.00151583)
(0.000221016 0.00139464 0.00195404)
(0.000368139 0.00146323 0.00233493)
(0.000508738 0.00153398 0.00260765)
(0.000639507 0.00162519 0.00273989)
(0.000773405 0.00174793 0.00275677)
(0.000875225 0.00190598 0.00272553)
(0.000924528 0.00208152 0.00262284)
(0.000911551 0.00223957 0.00241291)
(0.000836685 0.00234423 0.00211924)
(0.000705306 0.0023526 0.00178758)
(0.000529243 0.00221751 0.00146957)
(0.000331432 0.00190413 0.00122052)
(0.000145223 0.00142084 0.00109553)
(1.60818e-06 0.000856068 0.00112653)
(-9.22229e-05 0.000339654 0.00128366)
(-0.000157366 -5.27961e-05 0.0015038)
(-0.000220941 -0.000317434 0.0017444)
(-0.000300167 -0.000482164 0.00198012)
(-0.000402019 -0.000584844 0.00219133)
(-0.000525094 -0.000661817 0.00235746)
(-0.000663603 -0.000739133 0.00245586)
(-0.000809929 -0.000829423 0.00247026)
(-0.000968608 -0.00094034 0.00242076)
(-0.00111475 -0.00108833 0.00237255)
(-0.00122786 -0.00126597 0.00228141)
(-0.001289 -0.00144452 0.00208053)
(-0.00128561 -0.00158364 0.00176441)
(-0.00121121 -0.00162754 0.0013579)
(-0.00107156 -0.0015134 0.000910224)
(-0.000886811 -0.00119589 0.000498089)
(-0.000687782 -0.000683353 0.000220899)
(-0.000853771 -0.000141663 0.00053711)
(-0.000748618 0.000473553 0.000417515)
(-0.000605396 0.00101046 0.000454263)
(-0.000416699 0.00144417 0.000689085)
(-0.000193842 0.001785 0.00112497)
(4.76195e-05 0.0020602 0.00172945)
(0.000291734 0.00229961 0.00244495)
(0.000520902 0.00252696 0.00319094)
(0.000717818 0.00275823 0.00385664)
(0.000875742 0.00299382 0.00429469)
(0.000969614 0.00319441 0.00432415)
(0.000950982 0.00330945 0.0039085)
(0.000855985 0.00334108 0.00329875)
(0.000727312 0.00325958 0.00267442)
(0.000592292 0.00303946 0.00213948)
(0.000464822 0.00267594 0.00174392)
(0.00034972 0.00218621 0.00149268)
(0.000248938 0.00161095 0.00135886)
(0.000160842 0.00101188 0.00130427)
(7.50509e-05 0.00045132 0.00131173)
(-2.36594e-05 -2.45084e-05 0.00138833)
(-0.000144176 -0.000402143 0.00154306)
(-0.000284655 -0.000696076 0.00178032)
(-0.000436884 -0.000934408 0.00209729)
(-0.00059009 -0.00114746 0.00248085)
(-0.000734156 -0.0013606 0.00290297)
(-0.000863554 -0.00159095 0.0033132)
(-0.000982387 -0.00184108 0.00362903)
(-0.00109982 -0.0020788 0.00371178)
(-0.0011979 -0.00224904 0.00346123)
(-0.00121952 -0.00232205 0.0029826)
(-0.00120263 -0.00228663 0.00241886)
(-0.00116322 -0.0021167 0.00187344)
(-0.00110621 -0.00180001 0.00140696)
(-0.00103119 -0.00134201 0.00103792)
(-0.000944417 -0.000770691 0.000753155)
(-0.00087461 -0.000139336 0.000655829)
(-0.000724843 0.000431194 0.000656484)
(-0.000552608 0.00089869 0.000810369)
(-0.000350987 0.00125613 0.00110797)
(-0.000125775 0.00152841 0.0015301)
(0.000109909 0.00174783 0.00204259)
(0.000340219 0.00194293 0.0025941)
(0.000549651 0.00213284 0.00311764)
(0.000727077 0.00232555 0.003536)
(0.000867551 0.00251788 0.00377172)
(0.000955443 0.00269698 0.00376334)
(0.000977364 0.00284264 0.00351567)
(0.000936 0.00292578 0.00312076)
(0.000852916 0.00291934 0.00267797)
(0.000742644 0.00279866 0.00226203)
(0.000614469 0.00254435 0.00192164)
(0.000476093 0.00214817 0.00168369)
(0.000337576 0.0016297 0.00156012)
(0.000210351 0.0010599 0.00154102)
(9.5849e-05 0.000529837 0.00160262)
(-1.81354e-05 9.84734e-05 0.00172442)
(-0.000145793 -0.000229432 0.00189379)
(-0.000292359 -0.000477565 0.0021043)
(-0.000454074 -0.000678439 0.00234793)
(-0.000621139 -0.000862269 0.00260989)
(-0.000782042 -0.00104919 0.00286626)
(-0.000929655 -0.00124546 0.00308425)
(-0.00106608 -0.00144504 0.00322295)
(-0.00119365 -0.00163214 0.00322915)
(-0.00129664 -0.00179283 0.00306414)
(-0.00134965 -0.00190813 0.00274879)
(-0.00135793 -0.00194448 0.00233853)
(-0.00132526 -0.00186826 0.00189166)
(-0.00125318 -0.00164924 0.0014587)
(-0.00114582 -0.00126897 0.00108264)
(-0.00101498 -0.000740985 0.000804286)
(-0.000843272 -0.000148603 0.000784073)
(-0.00065931 0.000365434 0.000899358)
(-0.000470608 0.000761239 0.00116323)
(-0.000268223 0.00104095 0.00152235)
(-5.3132e-05 0.00123929 0.00193376)
(0.000164781 0.00139377 0.00235631)
(0.000372106 0.00153366 0.00274199)
(0.000557966 0.00167655 0.00303749)
(0.000716972 0.00182866 0.00320118)
(0.000855891 0.0019917 0.00323802)
(0.000964598 0.00217172 0.00321534)
(0.00102351 0.00234894 0.003129)
(0.00102496 0.00249133 0.00294632)
(0.000970919 0.00257009 0.00268473)
(0.000866323 0.00255408 0.00238765)
(0.000718864 0.00240756 0.00210578)
(0.000543913 0.00210212 0.00188902)
(0.000366526 0.00164691 0.00177927)
(0.000211044 0.00111912 0.00179467)
(8.44158e-05 0.000629932 0.00190799)
(-2.92782e-05 0.000247566 0.00207078)
(-0.000152727 -2.63698e-05 0.00225413)
(-0.000297237 -0.000222095 0.00244018)
(-0.000462316 -0.000375949 0.00261315)
(-0.000639112 -0.000518255 0.00275503)
(-0.000815392 -0.000665446 0.00284464)
(-0.000981729 -0.00081799 0.00286339)
(-0.00113491 -0.000970675 0.00281744)
(-0.00128333 -0.00113932 0.00276671)
(-0.00140202 -0.00131632 0.00269271)
(-0.00147537 -0.00147858 0.00253344)
(-0.00149467 -0.0015922 0.00226889)
(-0.00145339 -0.00161276 0.00191518)
(-0.00135273 -0.00148949 0.00151534)
(-0.00120416 -0.00118423 0.00113713)
(-0.00102797 -0.000707391 0.00086709)
(-0.000978922 -0.000321857 0.00130935)
(-0.000864879 0.00021754 0.00114684)
(-0.000698823 0.000714618 0.00111207)
(-0.000479018 0.00115261 0.00125874)
(-0.000221645 0.00153734 0.00160351)
(5.38995e-05 0.00188601 0.00212406)
(0.000328237 0.0022169 0.00277071)
(0.00058037 0.00254193 0.00347333)
(0.000789403 0.00286452 0.00413774)
(0.000944022 0.00317479 0.00463664)
(0.00103919 0.00342916 0.0047818)
(0.00105069 0.00356694 0.0044878)