/*--------------------------------*- C++ -*----------------------------------*\
| =========                 |                                                 |
| \\      /  F ield         | OpenFOAM: The Open Source CFD Toolbox           |
|  \\    /   O peration     | Version:  2312                                  |
|   \\  /    A nd           | Website:  www.openfoam.com                      |
|    \\/     M anipulation  |                                                 |
\*---------------------------------------------------------------------------*/
FoamFile
{
    version     2.0;
    format      ascii;
    arch        "LSB;label=32;scalar=64";
    class       volVectorField;
    location    "1";
    object      D_0_0;
}
// * * * * * * * * * * * * * * * * * * * * * * * * * * * * * * * * * * * * * //

dimensions      [0 1 0 0 0 0 0];

internalField   nonuniform List<vector> 
1620
(
(-0.000163292 9.01131e-05 -0.000232384)
(-0.00013323 0.000214131 -0.000209639)
(-9.7105e-05 0.000297069 -0.000168204)
(-5.65528e-05 0.000346413 -0.000113254)
(-7.89214e-06 0.000376441 -4.27233e-05)
(4.56343e-05 0.000400326 4.75937e-05)
(9.11929e-05 0.000428012 0.000161865)
(0.000110096 0.000462267 0.000299203)
(0.000106297 0.00048818 0.000422031)
(8.12558e-05 0.000499599 0.000406926)
(3.50417e-05 0.000486831 0.00027851)
(1.37965e-05 0.000457099 0.000155619)
(2.24676e-05 0.000429164 5.85961e-05)
(4.28303e-05 0.000404347 -1.60727e-05)
(6.12817e-05 0.000373863 -7.34502e-05)
(7.37732e-05 0.000325503 -0.000119482)
(8.22621e-05 0.000246937 -0.000160068)
(8.20492e-05 0.000130834 -0.000192175)
(6.5134e-05 -1.03822e-05 -0.000188396)
(3.5618e-05 -0.000133546 -0.000149447)
(6.72958e-06 -0.000222552 -0.000105629)
(-1.65816e-05 -0.000280253 -6.06536e-05)
(-3.82981e-05 -0.00031532 -1.02314e-05)
(-6.09576e-05 -0.000339064 5.1278e-05)
(-8.09102e-05 -0.000363268 0.000133408)
(-8.72648e-05 -0.000394634 0.000247543)
(-8.82904e-05 -0.000419942 0.00037055)
(-7.68549e-05 -0.000432497 0.000374466)
(-4.644e-05 -0.000422667 0.000272655)
(-4.0983e-05 -0.000398638 0.000166386)
(-6.63918e-05 -0.000375808 7.55858e-05)
(-0.000104866 -0.000354033 8.43302e-07)
(-0.000139624 -0.000323389 -5.98668e-05)
(-0.000163237 -0.000270461 -0.000112088)
(-0.000177126 -0.000182933 -0.000163514)
(-0.0001789 -5.62457e-05 -0.00021342)
(3.86255e-05 5.1645e-05 -0.000139783)
(4.60484e-05 0.000171671 -9.90849e-05)
(4.54926e-05 0.000245627 -6.04833e-05)
(4.34911e-05 0.000283819 -1.6423e-05)
(4.53497e-05 0.000293165 3.40862e-05)
(5.17302e-05 0.000283496 8.76291e-05)
(6.01427e-05 0.00026453 0.000139076)
(6.84765e-05 0.000245123 0.000182386)
(8.11976e-05 0.000235486 0.000209344)
(8.33284e-05 0.000243623 0.000205329)
(7.90499e-05 0.000266661 0.000175868)
(6.86636e-05 0.000294971 0.000135107)
(5.85534e-05 0.00032285 9.07823e-05)
(4.51107e-05 0.000343551 4.73898e-05)
(2.39514e-05 0.000347467 8.57582e-06)
(-6.03747e-06 0.000323839 -2.40196e-05)
(-4.07557e-05 0.000264477 -5.33821e-05)
(-7.4166e-05 0.000155651 -8.73104e-05)
(-9.19521e-05 1.60933e-05 -8.01923e-05)
(-9.08729e-05 -9.98624e-05 -3.57323e-05)
(-8.1199e-05 -0.000173926 -2.48464e-06)
(-6.81032e-05 -0.000214785 2.92164e-05)
(-5.69255e-05 -0.000228068 6.28358e-05)
(-5.01659e-05 -0.000222515 9.78412e-05)
(-4.87387e-05 -0.00020633 0.000133291)
(-5.39457e-05 -0.000186755 0.000167753)
(-7.12955e-05 -0.000173829 0.00019396)
(-8.42715e-05 -0.000176812 0.000192406)
(-9.24086e-05 -0.000197183 0.000166274)
(-9.68124e-05 -0.000227525 0.000127388)
(-0.000101723 -0.000260949 8.21146e-05)
(-0.000101426 -0.00028837 3.51956e-05)
(-8.90734e-05 -0.00029716 -9.16686e-06)
(-6.21646e-05 -0.000274079 -4.92867e-05)
(-2.53243e-05 -0.000210256 -8.86482e-05)
(1.32673e-05 -9.45089e-05 -0.000135556)
(0.000203055 5.81863e-06 -2.26258e-05)
(0.000183643 0.000120598 2.85669e-06)
(0.000137791 0.000188237 3.00946e-05)
(8.64668e-05 0.000210045 5.74886e-05)
(4.1031e-05 0.000194637 8.34972e-05)
(7.84133e-06 0.000155131 0.000102008)
(-7.8909e-06 0.000106264 0.000103841)
(4.81955e-07 6.29883e-05 8.21888e-05)
(4.31949e-05 3.98413e-05 4.74128e-05)
(0.000107356 4.33851e-05 4.65724e-05)
(0.000147083 7.78242e-05 8.35334e-05)
(0.000155813 0.000136913 0.000101657)
(0.000138835 0.000205096 9.75912e-05)
(0.000100161 0.000267077 8.16202e-05)
(4.24469e-05 0.000307781 6.35539e-05)
(-3.04574e-05 0.000312402 4.98505e-05)
(-0.000108853 0.000268981 4.20745e-05)
(-0.000169612 0.000172284 3.84001e-05)
(-0.000186659 5.14393e-05 4.68786e-05)
(-0.00015903 -5.34738e-05 6.31995e-05)
(-0.000110209 -0.000114 7.67246e-05)
(-6.05921e-05 -0.000133188 9.03786e-05)
(-1.94085e-05 -0.000120495 0.000105109)
(9.15082e-06 -8.74144e-05 0.00011622)
(2.05389e-05 -4.47382e-05 0.000114659)
(7.12134e-06 -3.6324e-06 9.17624e-05)
(-4.08333e-05 2.16985e-05 5.47214e-05)
(-0.000108848 2.13511e-05 4.82252e-05)
(-0.000153223 -1.23861e-05 7.80273e-05)
(-0.000171406 -7.41888e-05 8.92502e-05)
(-0.000164006 -0.000149429 7.86249e-05)
(-0.000130435 -0.000220955 5.56456e-05)
(-7.09114e-05 -0.000269875 2.92668e-05)
(1.02533e-05 -0.000277878 5.13452e-06)
(0.000100676 -0.000231579 -1.51922e-05)
(0.000174442 -0.000126897 -2.9814e-05)
(-0.000260804 0.000238937 -0.000614364)
(-0.000218319 0.000614284 -0.000558362)
(-0.000180994 0.000866149 -0.000441244)
(-0.00013357 0.00100581 -0.000280403)
(-6.22179e-05 0.00106634 -7.37259e-05)
(2.95538e-05 0.0010826 0.000184675)
(0.000121814 0.00108614 0.000495073)
(0.000188878 0.00109831 0.000835739)
(0.000235188 0.00111513 0.00111199)
(0.00025784 0.00113316 0.00112071)
(0.000220499 0.0011431 0.000866041)
(0.000194497 0.00114688 0.000557946)
(0.000196822 0.00115081 0.000281518)
(0.000207406 0.00114075 5.49691e-05)
(0.000205812 0.00109016 -0.000124414)
(0.000183951 0.000967643 -0.000268652)
(0.000146659 0.000741345 -0.000389127)
(9.93904e-05 0.000395345 -0.000472178)
(5.46298e-05 -1.66977e-05 -0.000462969)
(2.08447e-05 -0.000382345 -0.000362626)
(-2.28618e-06 -0.000634697 -0.000235195)
(-2.03905e-05 -0.000780582 -0.000100564)
(-4.34265e-05 -0.000849065 4.77029e-05)
(-7.52239e-05 -0.000872999 0.00022454)
(-0.000111895 -0.000883437 0.000448394)
(-0.000144895 -0.000902481 0.000724864)
(-0.000191138 -0.000925109 0.000986279)
(-0.000239979 -0.000945825 0.00103492)
(-0.000245326 -0.000959448 0.000841542)
(-0.000268178 -0.000973892 0.000576441)
(-0.000322895 -0.000992091 0.000316865)
(-0.000384067 -0.000994294 8.68728e-05)
(-0.000420346 -0.000947559 -0.000108105)
(-0.000415105 -0.000815582 -0.000276205)
(-0.000375065 -0.000566535 -0.000431331)
(-0.000316369 -0.000191639 -0.000564284)
(4.50527e-05 0.000133734 -0.000429776)
(6.44628e-05 0.000477878 -0.000334823)
(5.79279e-05 0.0007005 -0.000206607)
(4.78332e-05 0.000817258 -5.32891e-05)
(5.10773e-05 0.000849219 0.000121743)
(7.24374e-05 0.000826451 0.000310198)
(0.000107887 0.000780199 0.000497755)
(0.000152421 0.00073747 0.00066259)
(0.00020852 0.000718676 0.000770039)
(0.000254023 0.000738361 0.000776044)
(0.000272938 0.000795792 0.000681369)
(0.000267558 0.000872481 0.000532345)
(0.000247721 0.000950823 0.000366705)
(0.000208603 0.00100822 0.000205848)
(0.000143671 0.00101504 6.15252e-05)
(5.38788e-05 0.000939634 -6.21948e-05)
(-4.73381e-05 0.00075707 -0.000167345)
(-0.000139178 0.000445037 -0.000249288)
(-0.000188549 6.29014e-05 -0.000231742)
(-0.000188013 -0.000269159 -0.00012293)
(-0.000160573 -0.000486445 -7.48347e-06)
(-0.000125445 -0.000603795 0.000108725)
(-9.81233e-05 -0.000642379 0.000228696)
(-8.65166e-05 -0.000630079 0.000353606)
(-9.45407e-05 -0.000593615 0.000482092)
(-0.000126204 -0.000555174 0.000606578)
(-0.000187916 -0.000532867 0.000700792)
(-0.000255505 -0.00054399 0.000716483)
(-0.000306973 -0.000597305 0.00064023)
(-0.000342674 -0.000680882 0.000504894)
(-0.000366102 -0.000775618 0.000341247)
(-0.000364687 -0.000852794 0.000170047)
(-0.000323682 -0.000873911 4.96996e-06)
(-0.000240037 -0.000799541 -0.000148053)
(-0.000130386 -0.000602895 -0.000289692)
(-2.31256e-05 -0.000268442 -0.000412796)
(0.000324634 1.74952e-05 -0.000213855)
(0.000319163 0.000323865 -0.000117326)
(0.000263117 0.000524168 1.32257e-05)
(0.000188688 0.000617563 0.000154136)
(0.000119376 0.000621081 0.000291777)
(7.13336e-05 0.000563962 0.000407571)
(5.67009e-05 0.00048103 0.000477119)
(8.60487e-05 0.000407217 0.000482583)
(0.000173937 0.000372674 0.000446668)
(0.000282805 0.000393062 0.000452828)
(0.00035624 0.000472726 0.000488805)
(0.000375541 0.000597623 0.00048094)
(0.000340261 0.000737985 0.000420849)
(0.000255029 0.000859238 0.000327506)
(0.000126288 0.000924133 0.000223937)
(-3.31817e-05 0.000896772 0.00012764)
(-0.000198461 0.0007511 4.96406e-05)
(-0.000327405 0.000482195 5.15207e-06)
(-0.000379475 0.000153285 2.831e-05)
(-0.000350431 -0.000135825 0.000107155)
(-0.000273781 -0.000323467 0.000200093)
(-0.00018476 -0.00041042 0.00029304)
(-0.000106473 -0.000416237 0.000380717)
(-5.383e-05 -0.000367961 0.000451655)
(-3.93962e-05 -0.000293418 0.000486242)
(-7.54961e-05 -0.000220719 0.000468301)
(-0.000175223 -0.000179555 0.000420523)
(-0.000295806 -0.000192218 0.000418718)
(-0.000387339 -0.000269991 0.000444)
(-0.000435362 -0.000403163 0.000424938)
(-0.000430365 -0.000563547 0.00035174)
(-0.000366744 -0.000711186 0.000239488)
(-0.000245135 -0.000798157 0.000107945)
(-7.91234e-05 -0.000778821 -2.58594e-05)
(0.000101296 -0.000624507 -0.000146428)
(0.000250235 -0.000335567 -0.000226382)
(-0.000362181 0.00030736 -0.000862278)
(-0.000302605 0.000867504 -0.000798121)
(-0.000253261 0.00125856 -0.000625364)
(-0.000185681 0.00148816 -0.000362679)
(-8.53052e-05 0.00159513 -1.12924e-05)
(3.91464e-05 0.00162482 0.000425747)
(0.000164832 0.00162015 0.000931067)
(0.00026734 0.00161405 0.00145305)
(0.000347725 0.00162123 0.00186769)
(0.000400592 0.00165387 0.00194967)
(0.000387429 0.00170225 0.00163693)
(0.000356416 0.00175112 0.00117295)
(0.000343365 0.00178752 0.000711175)
(0.000337583 0.00178424 0.000309142)
(0.000317929 0.00170536 -1.65284e-05)
(0.000269255 0.00151048 -0.000270746)
(0.000194293 0.00116123 -0.00046335)
(0.00010864 0.000643154 -0.000578171)
(3.76654e-05 3.82081e-05 -0.000564433)
(-5.41013e-06 -0.000504691 -0.000426991)
(-2.81382e-05 -0.000888562 -0.000233307)
(-4.78078e-05 -0.0011172 -1.27515e-05)
(-7.72882e-05 -0.00122901 0.000237804)
(-0.000118499 -0.00126872 0.000533556)
(-0.000167482 -0.00127724 0.000888513)
(-0.000220393 -0.00128488 0.00129088)
(-0.000293036 -0.00130268 0.00165624)
(-0.000378077 -0.00133897 0.00177968)
(-0.000431802 -0.00139056 0.0015569)
(-0.000475709 -0.00145226 0.00116471)
(-0.00054251 -0.00151009 0.00073479)
(-0.000613026 -0.00152755 0.000328093)
(-0.000650715 -0.00145856 -2.72509e-05)
(-0.000627418 -0.00125579 -0.000327634)
(-0.000548943 -0.000880627 -0.000582857)
(-0.000448142 -0.000326014 -0.000780851)
(-3.72951e-05 0.000172337 -0.000649896)
(7.94656e-06 0.000678837 -0.000519695)
(2.07453e-05 0.00101798 -0.00030727)
(3.10577e-05 0.00120884 -3.85973e-05)
(5.93406e-05 0.0012775 0.000274594)
(0.000109599 0.00126526 0.000614557)
(0.000175712 0.00121635 0.000953462)
(0.00025007 0.00116902 0.00125066)
(0.00033132 0.00115147 0.00144953)
(0.000399873 0.00118296 0.00148418)
(0.000439049 0.00126748 0.0013415)
(0.000439873 0.00138224 0.00108834)
(0.000413702 0.0014961 0.000792413)
(0.000358149 0.00157354 0.000497322)
(0.000267014 0.0015715 0.000228785)
(0.000141602 0.0014455 -4.92677e-07)
(1.56469e-07 0.00116391 -0.00018497)
(-0.000128584 0.000703214 -0.000302345)
(-0.000206576 0.000151116 -0.000275415)
(-0.00022292 -0.000335421 -0.000119243)
(-0.00020123 -0.000664839 7.40917e-05)
(-0.000168878 -0.000853327 0.000278956)
(-0.000147038 -0.00092859 0.000492377)
(-0.000146234 -0.000929561 0.000713723)
(-0.000171273 -0.00089498 0.000938226)
(-0.00022556 -0.000856922 0.00114992)
(-0.000312722 -0.000839179 0.00131039)
(-0.000412505 -0.000861538 0.00135388)
(-0.000501082 -0.000939641 0.00124429)
(-0.000563341 -0.00106298 0.0010206)
(-0.000602261 -0.00119976 0.000733352)
(-0.000604682 -0.00130628 0.000421568)
(-0.000552324 -0.00132693 0.000113298)
(-0.000439428 -0.00120512 -0.000173433)
(-0.000288594 -0.000905453 -0.000426376)
(-0.000139864 -0.000412234 -0.000616474)
(0.000294946 2.46869e-05 -0.000405884)
(0.000318616 0.000470407 -0.000243052)
(0.000286498 0.000769416 -1.74504e-06)
(0.000231192 0.000923406 0.000270186)
(0.000179453 0.000953941 0.000541999)
(0.000150468 0.00090033 0.000782073)
(0.000156987 0.000810352 0.000954492)
(0.000207279 0.000731015 0.00103121)
(0.000306882 0.000700702 0.00102632)
(0.000428146 0.000740732 0.00103111)
(0.000518822 0.000851882 0.00103828)
(0.000548549 0.00101748 0.000981185)
(0.000509273 0.00120153 0.000848833)
(0.000402144 0.00135746 0.000663634)
(0.000235095 0.00143188 0.000457432)
(2.753e-05 0.00137316 0.000259385)
(-0.000185653 0.00114733 9.68745e-05)
(-0.000355636 0.000752482 8.86273e-06)
(-0.000437844 0.000275324 4.51139e-05)
(-0.000426459 -0.000145285 0.000186387)
(-0.000356813 -0.000430073 0.000368158)
(-0.000267845 -0.000578165 0.000554463)
(-0.000189811 -0.000613137 0.000728459)
(-0.000144196 -0.000571593 0.000873063)
(-0.000145817 -0.000493405 0.000965112)
(-0.000203753 -0.000417355 0.000984982)
(-0.00032078 -0.000379891 0.000949153)
(-0.000464431 -0.000409514 0.000941039)
(-0.000586594 -0.000515846 0.000938986)
(-0.00065981 -0.00069055 0.000872349)
(-0.000667095 -0.000901162 0.000723545)
(-0.00059669 -0.0010948 0.000506257)
(-0.000447935 -0.00120255 0.000246717)
(-0.000239653 -0.00115661 -2.36129e-05)
(-1.19024e-05 -0.000917629 -0.000265087)
(0.000182487 -0.000490516 -0.000417688)
(-0.000480785 0.000283519 -0.000869167)
(-0.000400445 0.000947011 -0.000830988)
(-0.000326035 0.00143566 -0.000643009)
(-0.000229538 0.00174487 -0.000315209)
(-0.000101851 0.00190901 0.000144)
(4.63494e-05 0.00197524 0.000715956)
(0.000195918 0.00199083 0.00136315)
(0.000327199 0.00199529 0.00201367)
(0.000435428 0.00201733 0.00253693)
(0.000522725 0.00207842 0.00270771)
(0.000558754 0.0021649 0.00240915)
(0.00052413 0.00225005 0.00186697)
(0.000485315 0.00230851 0.00127749)
(0.000448398 0.00230036 0.000736135)
(0.000401385 0.00218552 0.000287681)
(0.000328653 0.00192484 -5.50236e-05)
(0.000229473 0.00148759 -0.000293641)
(0.00012171 0.000873175 -0.000418835)
(3.25428e-05 0.0001743 -0.000408131)
(-2.28543e-05 -0.000460568 -0.000271569)
(-5.36886e-05 -0.000930037 -5.54808e-05)
(-8.20161e-05 -0.00122801 0.000212425)
(-0.000121597 -0.00139002 0.000529502)
(-0.000173912 -0.00146293 0.00090373)
(-0.000236144 -0.0014915 0.00133876)
(-0.000307158 -0.00151144 0.00181121)
(-0.000395981 -0.00154727 0.00223895)
(-0.000509875 -0.00161597 0.00243079)
(-0.000624502 -0.00170927 0.00224099)
(-0.00068426 -0.00180873 0.00179703)
(-0.0007446 -0.0018928 0.00125723)
(-0.0008007 -0.00191171 0.000715679)
(-0.000826364 -0.00181387 0.000227765)
(-0.000792901 -0.00155316 -0.000182287)
(-0.000700668 -0.00109762 -0.000511556)
(-0.000584059 -0.000450413 -0.000751859)
(-0.000199312 0.000155147 -0.000670984)
(-0.000120888 0.000753421 -0.000538352)
(-6.95832e-05 0.00117295 -0.000278354)
(-1.73809e-05 0.00142785 7.26361e-05)
(5.20574e-05 0.00154618 0.000492381)
(0.000139715 0.00157212 0.000952257)
(0.00023852 0.00155344 0.00141184)
(0.000340132 0.00153175 0.00181648)
(0.000441536 0.00153821 0.00209672)
(0.000530839 0.0015905 0.00217273)
(0.000591062 0.00169472 0.00201985)
(0.000596388 0.00183 0.00170717)
(0.000562652 0.00195504 0.00131888)
(0.000494482 0.00202811 0.00091854)
(0.000389549 0.00200177 0.000548511)
(0.000249421 0.00182877 0.000234552)
(9.15392e-05 0.00147763 -5.75838e-06)
(-5.53203e-05 0.000933942 -0.000138871)
(-0.000155969 0.000296202 -0.000109588)
(-0.000197558 -0.000273219 6.02173e-05)
(-0.000199847 -0.000677635 0.000293399)
(-0.000191399 -0.000926824 0.00055338)
(-0.000193811 -0.00104918 0.000829517)
(-0.000217452 -0.00108655 0.00111668)
(-0.000266117 -0.00108224 0.00140552)
(-0.000341304 -0.00107236 0.00167441)
(-0.000445257 -0.00108309 0.00188079)
(-0.000568583 -0.00112898 0.00195294)
(-0.000688153 -0.0012264 0.00184217)
(-0.000769465 -0.00137066 0.00157548)
(-0.000816449 -0.00152108 0.00120734)
(-0.000821206 -0.00162755 0.000789826)
(-0.00076868 -0.00162962 0.000365252)
(-0.000652015 -0.0014667 -3.31823e-05)
(-0.000491416 -0.00110116 -0.000375115)
(-0.000326584 -0.000523369 -0.000613857)
(0.000119476 1.40654e-05 -0.000450687)
(0.000183692 0.000541 -0.000247975)
(0.000199838 0.000903539 7.18373e-05)
(0.000197073 0.00110636 0.000444681)
(0.000197042 0.00117641 0.000825444)
(0.000214178 0.00115704 0.0011725)
(0.000256759 0.00109897 0.00144235)
(0.000329073 0.00104998 0.00159841)
(0.000430363 0.00104625 0.00164065)
(0.000557112 0.00110909 0.00164414)
(0.000653593 0.00123588 0.00162413)
(0.000689538 0.00141217 0.00152932)
(0.000653895 0.0016027 0.00134187)
(0.000545812 0.00175894 0.00108478)
(0.000372692 0.00182215 0.000795948)
(0.000154543 0.00173358 0.00051558)
(-7.2626e-05 0.00145476 0.000288067)
(-0.000261481 0.000987546 0.000169982)
(-0.000368446 0.000429585 0.000213527)
(-0.000387164 -6.6055e-05 0.000392786)
(-0.000350977 -0.00041499 0.000632585)
(-0.000296677 -0.000615277 0.000883573)
(-0.000253413 -0.000692266 0.00111921)
(-0.000241738 -0.000686085 0.0013186)
(-0.00027325 -0.000641049 0.00145858)
(-0.000351996 -0.000597449 0.00151813)
(-0.000472389 -0.000588041 0.00150262)
(-0.000631346 -0.00064001 0.0014801)
(-0.000769785 -0.000760361 0.00145242)
(-0.000859846 -0.000944397 0.00135543)
(-0.000883416 -0.00116157 0.00115479)
(-0.000826087 -0.00135818 0.000858353)
(-0.000684721 -0.00145961 0.000494912)
(-0.000476227 -0.00138818 0.000108823)
(-0.000239458 -0.00109658 -0.000235846)
(-2.47995e-05 -0.000591149 -0.000451695)
(-0.000605682 0.000184307 -0.000612219)
(-0.000511107 0.000880401 -0.000622629)
(-0.00040988 0.0014232 -0.000460324)
(-0.000282145 0.00179434 -0.000118989)
(-0.000125915 0.00202016 0.000389611)
(4.81283e-05 0.00214467 0.00103421)
(0.000224439 0.00221362 0.00176275)
(0.000385643 0.00226595 0.00249245)
(0.000521761 0.00233381 0.00309177)
(0.000642589 0.00243895 0.00335272)
(0.000723049 0.00256143 0.00313144)
(0.000684778 0.00266447 0.00258046)
(0.00062021 0.00272605 0.00192698)
(0.000547519 0.00269932 0.00130205)
(0.000467268 0.00254477 0.000777449)
(0.000371235 0.00223137 0.000383691)
(0.000258284 0.00174381 0.000125356)
(0.000142824 0.00109982 -1.75072e-06)
(4.7314e-05 0.000388482 -5.36665e-06)
(-1.76267e-05 -0.000266178 0.000100898)
(-6.35591e-05 -0.000774583 0.000296174)
(-0.000110811 -0.00112175 0.000563393)
(-0.000170802 -0.00133511 0.000897417)
(-0.000244336 -0.00145751 0.00129854)
(-0.000328237 -0.00153245 0.0017609)
(-0.000420514 -0.00159652 0.00225493)
(-0.000525107 -0.00167901 0.00270372)
(-0.000658784 -0.00179728 0.00294984)
(-0.000808672 -0.00193387 0.0028443)
(-0.000880785 -0.00205554 0.00241523)
(-0.000927467 -0.00214507 0.00183303)
(-0.000956676 -0.00215036 0.00122067)
(-0.000959023 -0.00202163 0.000656231)
(-0.000916293 -0.00172109 0.000182082)
(-0.000825596 -0.00122979 -0.000188703)
(-0.000712067 -0.000563903 -0.000456334)
(-0.000413041 8.85978e-05 -0.000445387)
(-0.000303428 0.000718562 -0.00034001)
(-0.000207199 0.00118403 -7.90214e-05)
(-0.000103553 0.0014888 0.000302248)
(1.62845e-05 0.00166177 0.000775683)
(0.000149355 0.00174527 0.00130548)
(0.000287107 0.00178375 0.00184258)
(0.00042014 0.00181526 0.00232268)
(0.000544297 0.00186756 0.00266774)
(0.000654623 0.00195297 0.00279352)
(0.000730436 0.00207643 0.00266645)
(0.000738933 0.00221969 0.00234036)
(0.000698954 0.00233724 0.00190657)
(0.000622067 0.00238807 0.00144616)
(0.000511189 0.00232827 0.00101723)
(0.00036948 0.00211609 0.000657395)
(0.000210822 0.00172489 0.000392967)
(5.91225e-05 0.00115394 0.000257136)
(-5.62927e-05 0.000498962 0.000278134)
(-0.000123719 -9.48106e-05 0.000430388)
(-0.000159764 -0.000538201 0.000658272)
(-0.000189641 -0.000832151 0.000926567)
(-0.000231277 -0.00100362 0.00122092)
(-0.000292244 -0.00109266 0.00153239)
(-0.000373444 -0.00114117 0.00184769)
(-0.000473446 -0.0011836 0.00214147)
(-0.000593233 -0.00124315 0.00237036)
(-0.000732115 -0.00132716 0.00246946)
(-0.00086839 -0.00144652 0.00238619)
(-0.000962048 -0.00159836 0.00212129)
(-0.00101311 -0.00174148 0.0017241)
(-0.00101925 -0.00182717 0.00125521)
(-0.000971914 -0.00179975 0.000767925)
(-0.000866311 -0.001605 0.000306675)
(-0.000716468 -0.00120819 -8.61258e-05)
(-0.000553905 -0.000608716 -0.000356952)
(-0.00016587 -1.97061e-05 -0.000266373)
(-5.46109e-05 0.000537173 -6.08742e-05)
(2.24481e-05 0.000933655 0.00028755)
(8.9169e-05 0.00117384 0.000708171)
(0.000159176 0.00128946 0.00114962)
(0.000238639 0.00132362 0.00156609)
(0.000329076 0.00132221 0.00190969)
(0.000430679 0.0013258 0.00213547)
(0.000540979 0.00136323 0.00222573)
(0.000672754 0.00145272 0.00223151)
(0.000771452 0.00159319 0.00219884)
(0.000812454 0.00176945 0.00208966)
(0.0007859 0.00194652 0.00187532)
(0.000690974 0.0020808 0.0015801)
(0.00053384 0.00211857 0.0012472)
(0.000330856 0.00200351 0.000924829)
(0.000112694 0.00169657 0.000667507)
(-7.90591e-05 0.00120338 0.000537241)
(-0.000206128 0.00062109 0.000579255)
(-0.000261665 9.70154e-05 0.000763488)
(-0.000273539 -0.000286738 0.00101569)
(-0.000274206 -0.000526776 0.00128494)
(-0.000287337 -0.000649774 0.00154193)
(-0.000327546 -0.000695513 0.00176494)
(-0.000400457 -0.000706081 0.0019318)
(-0.000505431 -0.00071645 0.00202024)
(-0.000634619 -0.00075062 0.00202241)
(-0.000799882 -0.000828423 0.00198118)
(-0.000945096 -0.000960635 0.00193897)
(-0.00104727 -0.00114207 0.00183725)
(-0.00108986 -0.00134266 0.00161943)
(-0.00105832 -0.00151456 0.00128823)
(-0.00094704 -0.00159002 0.000872658)
(-0.000767169 -0.00149485 0.000423232)
(-0.000549009 -0.00117916 1.72582e-05)
(-0.000334768 -0.000649644 -0.000243628)
(-0.00072961 3.52426e-05 -0.000122786)
(-0.000629334 0.000709706 -0.000189949)
(-0.000506524 0.00126665 -8.33127e-05)
(-0.000348522 0.00167967 0.000222603)
(-0.000160502 0.00196635 0.000720215)
(4.53691e-05 0.00216371 0.00137327)
(0.000254733 0.00231137 0.0021228)
(0.000451091 0.00244249 0.00288293)
(0.000620782 0.00258363 0.00352748)
(0.000767508 0.00274794 0.00387954)
(0.00086315 0.00290647 0.00377856)
(0.000827742 0.00301466 0.00327368)
(0.000744344 0.00306367 0.00261448)
(0.000640126 0.0030094 0.00196309)
(0.000528757 0.00281726 0.00141177)
(0.000413188 0.00246862 0.00100335)
(0.000295039 0.00196538 0.000743682)
(0.000183332 0.00133996 0.000614676)
(9.05382e-05 0.00066936 0.000587963)
(1.74055e-05 4.56033e-05 0.000647922)
(-5.04627e-05 -0.000461863 0.000792081)
(-0.000128585 -0.000835363 0.0010172)
(-0.000222698 -0.00109447 0.00132099)
(-0.000330409 -0.00127501 0.00169981)
(-0.000445979 -0.00141525 0.00214179)
(-0.000564619 -0.00154813 0.00261562)
(-0.000686399 -0.00169941 0.00305514)
(-0.000822672 -0.00188019 0.00334576)
(-0.000966922 -0.00206356 0.00334245)
(-0.00105422 -0.00220365 0.00298105)
(-0.00108749 -0.00228437 0.00242085)
(-0.0010899 -0.00226759 0.00180345)
(-0.00106751 -0.00211245 0.0012225)
(-0.00101516 -0.00179309 0.000732348)
(-0.000930701 -0.00130387 0.000350391)
(-0.000829075 -0.000669851 6.80076e-05)
(-0.000648352 -1.33867e-05 1.5594e-05)
(-0.000515003 0.000602909 7.26893e-05)
(-0.000377317 0.00108294 0.000293547)
(-0.000222173 0.0014221 0.000653182)
(-4.86406e-05 0.00164794 0.00112478)
(0.000135477 0.00179857 0.00167064)
(0.000318706 0.00191143 0.00223785)
(0.000489431 0.00201632 0.00275751)
(0.000640747 0.0021325 0.0031488)
(0.00076899 0.00226536 0.00333043)
(0.000852352 0.00241308 0.00325625)
(0.000865896 0.00255717 0.00295455)
(0.000823895 0.00265733 0.00251969)
(0.00074282 0.00267826 0.00204616)
(0.000631122 0.00258431 0.00160371)
(0.000494796 0.00234393 0.00123773)
(0.000344242 0.00193874 0.000977)
(0.000196776 0.00138016 0.000845636)
(7.37873e-05 0.000753544 0.000849203)
(-1.74304e-05 0.000177217 0.000962096)
(-9.13841e-05 -0.000273353 0.00114842)
(-0.0001681 -0.000593553 0.00138256)
(-0.00025952 -0.000808434 0.00165194)
(-0.000368211 -0.000954534 0.00194654)
(-0.000490468 -0.00106878 0.00225094)
(-0.000620641 -0.00117967 0.0025388)
(-0.000756474 -0.00130293 0.00277049)
(-0.000899544 -0.00143977 0.00289414)
(-0.00103705 -0.00158903 0.00285474)
(-0.00113894 -0.00174275 0.0026267)
(-0.00119283 -0.00186964 0.00224948)
(-0.00120062 -0.00192755 0.00178546)
(-0.0011606 -0.00187066 0.00129353)
(-0.00107148 -0.00165602 0.000823627)
(-0.000941619 -0.00125595 0.000421454)
(-0.000792355 -0.000678195 0.00013717)
(-0.000509828 -7.42331e-05 0.000161731)
(-0.000355183 0.000474139 0.000333465)
(-0.000216325 0.000880125 0.000659388)
(-7.71776e-05 0.00114603 0.00107224)
(6.81146e-05 0.00130588 0.00152182)
(0.000217337 0.00140047 0.00196295)
(0.000364639 0.00146773 0.00234613)
(0.000505351 0.00153729 0.00262019)
(0.000636208 0.00162759 0.00275265)
(0.000770423 0.00174972 0.00276894)
(0.000872687 0.00190744 0.00273695)
(0.000922581 0.00208291 0.00263315)
(0.000910307 0.00224106 0.00242143)
(0.000836192 0.00234586 0.00212553)
(0.000705529 0.00235415 0.00179141)
(0.00053011 0.00221834 0.00147097)
(0.000332934 0.00190322 0.00121992)
(0.000147448 0.00141718 0.00109397)
(4.66645e-06 0.000849348 0.00112557)
(-8.83132e-05 0.000330617 0.00128464)
(-0.000152738 -6.30012e-05 0.00150727)
(-0.000215814 -0.000327789 0.00175031)
(-0.000294797 -0.000491881 0.00198805)
(-0.000396708 -0.000593449 0.00220073)
(-0.000520167 -0.00066918 0.00236776)
(-0.000659344 -0.000745393 0.00246648)
(-0.00080651 -0.000834816 0.00248067)
(-0.000966199 -0.000945043 0.00243073)
(-0.0011134 -0.00109255 0.00238246)
(-0.00122762 -0.00126996 0.00229118)
(-0.0012899 -0.00144856 0.00208943)
(-0.00128764 -0.00158791 0.00177154)
(-0.00121423 -0.00163191 0.00136237)
(-0.0010754 -0.00151718 0.000911355)
(-0.000891294 -0.00119796 0.000495817)
(-0.000692689 -0.00068251 0.000216116)
(-0.000855556 -0.000139644 0.000541857)
(-0.000751466 0.000477092 0.000421486)
(-0.000609088 0.00101541 0.00045751)
(-0.000420798 0.00145021 0.000692481)
(-0.000198068 0.0017917 0.00112971)
(4.34348e-05 0.00206712 0.00173654)
(0.000287737 0.00230641 0.00245498)
(0.000517206 0.00253335 0.00320407)
(0.000714475 0.00276405 0.00387246)
(0.000872854 0.00299917 0.00431195)
(0.000967122 0.00319943 0.00434039)
(0.00094845 0.00331401 0.00392106)
(0.000853466 0.00334504 0.00330718)
(0.000725011 0.00326247 0.00267963)
(0.000590433 0.00304072 0.00214294)
(0.000463586 0.00267522 0.00174714)
(0.000349245 0.00218344 0.00149674)
(0.000249429 0.00160624 0.00136404)
(0.000162594 0.00100548 0.0013101)
(7.81873e-05 0.000443535 0.00131762)
(-1.94198e-05 -3.32807e-05 0.0013941)
(-0.000139342 -0.000411502 0.00154897)
(-0.000279674 -0.000705692 0.00178688)
(-0.000432057 -0.000944022 0.00210503)
(-0.000585579 -0.00115686 0.00249016)
(-0.000730011 -0.00136958 0.00291404)
(-0.000859777 -0.00159937 0.00332592)
(-0.000979061 -0.00184893 0.00364298)
(-0.00109716 -0.00208615 0.00372576)
(-0.001196 -0.00225583 0.00347338)
(-0.00121802 -0.0023281 0.0029919)
(-0.00120157 -0.00229167 0.00242541)
(-0.00116269 -0.00212041 0.00187813)
(-0.00110625 -0.00180223 0.00141097)
(-0.0010317 -0.00134279 0.00104222)
(-0.000945408 -0.00077009 0.000757977)
(-0.000879823 -0.000136328 0.000658033)
(-0.000730564 0.000436099 0.000658903)
(-0.000558487 0.000904761 0.000813631)
(-0.000356643 0.00126268 0.00111268)
(-0.000130996 0.00153495 0.0015368)
(0.000105196 0.00175405 0.00205165)
(0.000336024 0.00194865 0.00260565)
(0.000545936 0.00213799 0.0031314)
(0.000723785 0.00233011 0.00355127)
(0.000864659 0.00252194 0.00378736)
(0.000952921 0.00270066 0.0037779)
(0.000975256 0.00284601 0.00352784)
(0.000934449 0.0029287 0.00313006)
(0.000852122 0.00292155 0.00268468)
(0.000742753 0.00279984 0.00226688)
(0.000615546 0.00254411 0.00192546)
(0.000478147 0.0021461 0.00168723)
(0.000340631 0.0016254 0.00156397)
(0.000214482 0.00105336 0.00154554)
(0.000101014 0.000521551 0.00160799)
(-1.22352e-05 8.92091e-05 0.00173076)
(-0.000139592 -0.000239002 0.00190114)
(-0.000286254 -0.000486967 0.00211266)
(-0.000448379 -0.000687402 0.00235732)
(-0.000616083 -0.000870704 0.00262027)
(-0.000777743 -0.00105711 0.00287752)
(-0.000926142 -0.0012529 0.0030962)
(-0.00106338 -0.00145196 0.00323529)
(-0.00119184 -0.00163849 0.00324135)
(-0.0012958 -0.00179862 0.00307543)
(-0.00134975 -0.00191341 0.00275852)
(-0.00135905 -0.00194916 0.0023464)
(-0.00132742 -0.00187212 0.00189772)
(-0.00125633 -0.001652 0.00146318)
(-0.00114977 -0.0012702 0.00108591)
(-0.00101958 -0.000740199 0.000806801)
(-0.000851729 -0.000144708 0.000784071)
(-0.000667595 0.00037135 0.000900513)
(-0.000478277 0.000768007 0.00116669)
(-0.000275027 0.00104761 0.00152853)
(-5.90234e-05 0.00124528 0.00194263)
(0.000159724 0.00139885 0.00236759)
(0.000367741 0.00153783 0.0027552)
(0.000554144 0.00167995 0.00305187)
(0.000713579 0.00183148 0.0032157)
(0.00085297 0.0019941 0.00325182)
(0.000962297 0.00217385 0.00322824)
(0.00102199 0.00235085 0.00314079)
(0.00102438 0.00249303 0.00295655)
(0.000971414 0.00257153 0.00269307)
(0.000867959 0.00255507 0.00239401)
(0.000721644 0.00240764 0.00211033)
(0.00054782 0.00210055 0.00189223)
(0.000371542 0.00164293 0.001782)
(0.000217058 0.00111258 0.00179816)
(9.11831e-05 0.000621499 0.00191321)
(-2.20947e-05 0.000238243 0.00207803)
(-0.000145496 -3.57107e-05 0.00226323)
(-0.000290289 -0.000230847 0.00245068)
(-0.000455962 -0.00038382 0.00262451)
(-0.000633631 -0.000525254 0.00276677)
(-0.000810976 -0.000671768 0.00285633)
(-0.00097845 -0.000823816 0.00287467)
(-0.00113273 -0.000976025 0.00282814)
(-0.00128237 -0.00114423 0.00277727)
(-0.00140234 -0.00132081 0.00270337)
(-0.00147705 -0.00148277 0.00254381)
(-0.00149781 -0.00159619 0.00227826)
(-0.00145797 -0.00161645 0.00192278)
(-0.00135867 -0.00149242 0.00152052)
(-0.0012113 -0.00118555 0.00113971)
(-0.00103602 -0.000706224 0.000867651)
(-0.000981688 -0.000320252 0.00131835)
(-0.000868464 0.000219829 0.00115534)
(-0.000702973 0.000717632 0.00111981)
(-0.000483358 0.00115638 0.00126618)
(-0.000225939 0.00154185 0.00161154)
(4.97927e-05 0.00189116 0.00213359)
(0.000324432 0.00222253 0.00278237)
(0.000576935 0.00254782 0.00348745)
(0.00078632 0.00287044 0.00415422)
(0.000941267 0.0031806 0.00465473)
(0.00103676 0.00343471 0.00479946)