/*--------------------------------*- C++ -*----------------------------------*\
| =========                 |                                                 |
| \\      /  F ield         | OpenFOAM: The Open Source CFD Toolbox           |
|  \\    /   O peration     | Version:  2312                                  |
|   \\  /    A nd           | Website:  www.openfoam.com                      |
|    \\/     M anipulation  |                                                 |
\*---------------------------------------------------------------------------*/
FoamFile
{
    version     2.0;
    format      ascii;
    arch        "LSB;label=32;scalar=64";
    class       volVectorField;
    location    "1";
    object      D_0_0_0;
}
// * * * * * * * * * * * * * * * * * * * * * * * * * * * * * * * * * * * * * //

dimensions      [0 1 0 0 0 0 0];

internalField   nonuniform List<vector> 
1620
(
(0.000555752 -5.98559e-05 0.00012232)
(0.000474594 -0.000126668 -5.9397e-05)
(0.000391927 -0.000211707 -0.00017981)
(0.000316802 -0.000258223 -0.00023307)
(0.000256132 -0.000263205 -0.000240947)
(0.000214864 -0.000244127 -0.00022206)
(0.000193096 -0.000213481 -0.000188762)
(0.000184538 -0.000174972 -0.000149902)
(0.000178443 -0.000128681 -0.000111371)
(0.000162933 -7.48502e-05 -7.58685e-05)
(0.000127757 -1.41742e-05 -4.2655e-05)
(6.57437e-05 5.35835e-05 -7.15702e-06)
(-2.70908e-05 0.000129044 3.93902e-05)
(-0.000151565 0.000206619 0.000108493)
(-0.000301861 0.00026345 0.000206199)
(-0.0004565 0.000260482 0.00031295)
(-0.000573114 0.000179887 0.000364415)
(-0.000605341 8.1731e-05 0.000291669)
(-0.000555752 5.98559e-05 0.00012232)
(-0.000474594 0.000126668 -5.9397e-05)
(-0.000391927 0.000211707 -0.00017981)
(-0.000316802 0.000258223 -0.00023307)
(-0.000256132 0.000263205 -0.000240947)
(-0.000214864 0.000244127 -0.00022206)
(-0.000193096 0.000213481 -0.000188762)
(-0.000184538 0.000174972 -0.000149902)
(-0.000178443 0.000128681 -0.000111371)
(-0.000162933 7.48502e-05 -7.58685e-05)
(-0.000127757 1.41742e-05 -4.2655e-05)
(-6.57437e-05 -5.35835e-05 -7.15702e-06)
(2.70908e-05 -0.000129044 3.93902e-05)
(0.000151565 -0.000206619 0.000108493)
(0.000301861 -0.00026345 0.000206199)
(0.0004565 -0.000260482 0.00031295)
(0.000573114 -0.000179887 0.000364415)
(0.000605341 -8.1731e-05 0.000291669)
(0.000465775 -0.000175251 8.16315e-05)
(0.000482143 -0.000214107 2.0587e-06)
(0.000478647 -0.000226905 -6.15554e-05)
(0.000453368 -0.000201549 -0.000106655)
(0.000409769 -0.00015295 -0.000138195)
(0.000356935 -9.93116e-05 -0.000156699)
(0.000303762 -5.00314e-05 -0.000161855)
(0.000254008 -6.30715e-06 -0.000155069)
(0.000205795 3.39124e-05 -0.000138464)
(0.000153965 7.21795e-05 -0.000113495)
(9.32052e-05 0.000108228 -8.0591e-05)
(2.08319e-05 0.0001405 -3.95548e-05)
(-6.18299e-05 0.000167226 9.73593e-06)
(-0.000150362 0.000186073 6.6085e-05)
(-0.000239257 0.000192223 0.000123977)
(-0.000321919 0.000180481 0.000169407)
(-0.00038927 0.000157377 0.000181862)
(-0.000435589 0.000150506 0.000150074)
(-0.000465775 0.000175251 8.16315e-05)
(-0.000482143 0.000214107 2.0587e-06)
(-0.000478647 0.000226905 -6.15554e-05)
(-0.000453368 0.000201549 -0.000106655)
(-0.000409769 0.00015295 -0.000138195)
(-0.000356935 9.93116e-05 -0.000156699)
(-0.000303762 5.00314e-05 -0.000161855)
(-0.000254008 6.30715e-06 -0.000155069)
(-0.000205795 -3.39124e-05 -0.000138464)
(-0.000153965 -7.21795e-05 -0.000113495)
(-9.32052e-05 -0.000108228 -8.0591e-05)
(-2.08319e-05 -0.0001405 -3.95548e-05)
(6.18299e-05 -0.000167226 9.73593e-06)
(0.000150362 -0.000186073 6.6085e-05)
(0.000239257 -0.000192223 0.000123977)
(0.000321919 -0.000180481 0.000169407)
(0.00038927 -0.000157377 0.000181862)
(0.000435589 -0.000150506 0.000150074)
(0.000335018 -0.000234025 3.00496e-05)
(0.000415823 -0.000265208 1.51537e-05)
(0.000481229 -0.000235257 -7.22052e-06)
(0.000515848 -0.000160796 -4.45171e-05)
(0.00051225 -6.94592e-05 -9.21435e-05)
(0.000474748 1.86652e-05 -0.000137145)
(0.000413866 9.35769e-05 -0.000168482)
(0.000339527 0.000151736 -0.00018083)
(0.000258362 0.00019229 -0.000172941)
(0.000174427 0.000214752 -0.000145673)
(9.12047e-05 0.000218265 -0.000101849)
(1.3336e-05 0.000202395 -4.74154e-05)
(-5.33306e-05 0.000169318 7.83022e-06)
(-0.000104345 0.0001265 5.1898e-05)
(-0.000140379 8.80288e-05 7.51149e-05)
(-0.000168579 7.30117e-05 7.52719e-05)
(-0.000201888 9.8783e-05 6.08495e-05)
(-0.000256835 0.000164157 4.49718e-05)
(-0.000335018 0.000234025 3.00496e-05)
(-0.000415823 0.000265208 1.51537e-05)
(-0.000481229 0.000235257 -7.22052e-06)
(-0.000515848 0.000160796 -4.45171e-05)
(-0.00051225 6.94592e-05 -9.21435e-05)
(-0.000474748 -1.86652e-05 -0.000137145)
(-0.000413866 -9.35769e-05 -0.000168482)
(-0.000339527 -0.000151736 -0.00018083)
(-0.000258362 -0.00019229 -0.000172941)
(-0.000174427 -0.000214752 -0.000145673)
(-9.12047e-05 -0.000218265 -0.000101849)
(-1.3336e-05 -0.000202395 -4.74154e-05)
(5.33306e-05 -0.000169318 7.83022e-06)
(0.000104345 -0.0001265 5.1898e-05)
(0.000140379 -8.80288e-05 7.51149e-05)
(0.000168579 -7.30117e-05 7.52719e-05)
(0.000201888 -9.8783e-05 6.08495e-05)
(0.000256835 -0.000164157 4.49718e-05)
(0.00147099 -0.000447066 0.000427831)
(0.00138372 -0.000611634 -7.84237e-05)
(0.0012464 -0.000716883 -0.000455735)
(0.00108347 -0.000697226 -0.000674907)
(0.000916937 -0.000597885 -0.000767446)
(0.000769032 -0.000476627 -0.000769612)
(0.000654079 -0.000360358 -0.000713037)
(0.000569511 -0.000250808 -0.000624201)
(0.000497189 -0.000141246 -0.000522134)
(0.000411076 -2.69337e-05 -0.000416184)
(0.000286123 9.27192e-05 -0.000304544)
(0.000105512 0.000217632 -0.000173572)
(-0.000135945 0.000350142 4.07177e-07)
(-0.000432673 0.000487447 0.000242106)
(-0.000766853 0.000599714 0.000553837)
(-0.00109783 0.000622521 0.000873936)
(-0.0013578 0.000520821 0.00104162)
(-0.0014825 0.000403289 0.000874744)
(-0.00147099 0.000447066 0.000427831)
(-0.00138372 0.000611634 -7.84237e-05)
(-0.0012464 0.000716883 -0.000455735)
(-0.00108347 0.000697226 -0.000674907)
(-0.000916937 0.000597885 -0.000767446)
(-0.000769032 0.000476627 -0.000769612)
(-0.000654079 0.000360358 -0.000713037)
(-0.000569511 0.000250808 -0.000624201)
(-0.000497189 0.000141246 -0.000522134)
(-0.000411076 2.69337e-05 -0.000416184)
(-0.000286123 -9.27192e-05 -0.000304544)
(-0.000105512 -0.000217632 -0.000173572)
(0.000135945 -0.000350142 4.07177e-07)
(0.000432673 -0.000487447 0.000242106)
(0.000766853 -0.000599714 0.000553837)
(0.00109783 -0.000622521 0.000873936)
(0.0013578 -0.000520821 0.00104162)
(0.0014825 -0.000403289 0.000874744)
(0.00131847 -0.000619136 0.000393134)
(0.00136247 -0.00072609 0.000110099)
(0.00135121 -0.000732026 -0.000133257)
(0.00128152 -0.000634863 -0.000322096)
(0.00116376 -0.000483537 -0.000452643)
(0.00102243 -0.000323378 -0.000524117)
(0.000878258 -0.00017513 -0.000542974)
(0.000738399 -4.19093e-05 -0.000519634)
(0.000597093 7.91096e-05 -0.000463059)
(0.000441533 0.000189103 -0.000377647)
(0.000259456 0.000285306 -0.000262898)
(4.61588e-05 0.000363407 -0.000115232)
(-0.000192155 0.000422152 6.82243e-05)
(-0.000441432 0.000464154 0.000283452)
(-0.000685952 0.000488968 0.000509874)
(-0.000909715 0.00049064 0.000697862)
(-0.00109493 0.000480201 0.000765954)
(-0.00122879 0.000513882 0.000647346)
(-0.00131847 0.000619136 0.000393134)
(-0.00136247 0.00072609 0.000110099)
(-0.00135121 0.000732026 -0.000133257)
(-0.00128152 0.000634863 -0.000322096)
(-0.00116376 0.000483537 -0.000452643)
(-0.00102243 0.000323378 -0.000524117)
(-0.000878258 0.00017513 -0.000542974)
(-0.000738399 4.19093e-05 -0.000519634)
(-0.000597093 -7.91096e-05 -0.000463059)
(-0.000441533 -0.000189103 -0.000377647)
(-0.000259456 -0.000285306 -0.000262898)
(-4.61588e-05 -0.000363407 -0.000115232)
(0.000192155 -0.000422152 6.82243e-05)
(0.000441432 -0.000464154 0.000283452)
(0.000685952 -0.000488968 0.000509874)
(0.000909715 -0.00049064 0.000697862)
(0.00109493 -0.000480201 0.000765954)
(0.00122879 -0.000513882 0.000647346)
(0.00105789 -0.000732924 0.000322317)
(0.00121446 -0.000809422 0.00022216)
(0.00133216 -0.000752049 0.000100297)
(0.0013736 -0.00060011 -5.26565e-05)
(0.00133346 -0.000405714 -0.000208184)
(0.00122973 -0.000205203 -0.000334237)
(0.00108314 -1.7563e-05 -0.000413323)
(0.0009076 0.000147797 -0.000439883)
(0.000709979 0.000285024 -0.000413032)
(0.000493438 0.000388569 -0.000332918)
(0.000262088 0.000452216 -0.000201663)
(2.54186e-05 0.000470846 -2.75434e-05)
(-0.000200177 0.000445447 0.000170097)
(-0.000396181 0.000390001 0.000359361)
(-0.000552282 0.00033565 0.000501847)
(-0.000673775 0.000325995 0.000565139)
(-0.000780394 0.000399199 0.000536485)
(-0.000901303 0.000561897 0.000438054)
(-0.00105789 0.000732924 0.000322318)
(-0.00121446 0.000809422 0.00022216)
(-0.00133216 0.000752049 0.000100297)
(-0.0013736 0.00060011 -5.26565e-05)
(-0.00133346 0.000405714 -0.000208184)
(-0.00122973 0.000205203 -0.000334237)
(-0.00108314 1.7563e-05 -0.000413323)
(-0.0009076 -0.000147797 -0.000439883)
(-0.000709979 -0.000285024 -0.000413032)
(-0.000493438 -0.000388569 -0.000332918)
(-0.000262088 -0.000452216 -0.000201663)
(-2.54186e-05 -0.000470846 -2.75434e-05)
(0.000200177 -0.000445447 0.000170097)
(0.000396181 -0.000390001 0.000359361)
(0.000552282 -0.00033565 0.000501847)
(0.000673775 -0.000325995 0.000565139)
(0.000780394 -0.000399199 0.000536485)
(0.000901303 -0.000561897 0.000438054)
(0.00223586 -0.00113177 0.000950134)
(0.00215627 -0.0013041 9.77081e-05)
(0.00197305 -0.00132979 -0.000598843)
(0.00173584 -0.00120459 -0.00105103)
(0.00148571 -0.000998497 -0.00128767)
(0.00125384 -0.000778639 -0.00136592)
(0.00105866 -0.000575379 -0.00133594)
(0.000899632 -0.000390507 -0.00123634)
(0.000756634 -0.000214458 -0.00109386)
(0.00059692 -3.85717e-05 -0.000921066)
(0.000386676 0.000140583 -0.000713294)
(0.000102866 0.000324159 -0.000448088)
(-0.000259698 0.000515612 -9.12384e-05)
(-0.000688894 0.000714683 0.000384544)
(-0.00115701 0.000895224 0.000963228)
(-0.00161488 0.000996559 0.00153386)
(-0.00198876 0.000989196 0.00185565)
(-0.00219708 0.000994522 0.0016583)
(-0.00223586 0.00113177 0.000950134)
(-0.00215627 0.0013041 9.77081e-05)
(-0.00197305 0.00132979 -0.000598843)
(-0.00173584 0.00120459 -0.00105103)
(-0.00148571 0.000998497 -0.00128767)
(-0.00125384 0.000778639 -0.00136592)
(-0.00105866 0.000575379 -0.00133594)
(-0.000899632 0.000390507 -0.00123634)
(-0.000756634 0.000214458 -0.00109386)
(-0.00059692 3.85717e-05 -0.000921066)
(-0.000386676 -0.000140583 -0.000713294)
(-0.000102866 -0.000324159 -0.000448088)
(0.000259698 -0.000515612 -9.12384e-05)
(0.000688894 -0.000714683 0.000384544)
(0.00115701 -0.000895224 0.000963228)
(0.00161488 -0.000996559 0.00153386)
(0.00198876 -0.000989196 0.00185565)
(0.00219708 -0.000994522 0.0016583)
(0.00204469 -0.00117651 0.000935438)
(0.00210788 -0.00129197 0.000403309)
(0.00207638 -0.00125676 -8.95341e-05)
(0.00195949 -0.00109152 -0.000472618)
(0.00178159 -0.000856701 -0.000733082)
(0.00157414 -0.000606393 -0.000880314)
(0.00135951 -0.000367826 -0.000932523)
(0.00114441 -0.000148745 -0.000908332)
(0.000921317 5.09966e-05 -0.000821203)
(0.000674561 0.000231219 -0.000676345)
(0.000389353 0.000388397 -0.000470376)
(6.06108e-05 0.000518208 -0.000194788)
(-0.000302774 0.00062088 0.000155453)
(-0.000681226 0.00070228 0.000568086)
(-0.00105131 0.000767152 0.000997639)
(-0.00138915 0.000818141 0.00135423)
(-0.00167294 0.000877698 0.00151138)
(-0.00189173 0.000998031 0.00136088)
(-0.00204469 0.00117651 0.000935438)
(-0.00210788 0.00129197 0.000403309)
(-0.00207638 0.00125676 -8.95341e-05)
(-0.00195949 0.00109152 -0.000472618)
(-0.00178159 0.000856701 -0.000733082)
(-0.00157414 0.000606393 -0.000880314)
(-0.00135951 0.000367826 -0.000932523)
(-0.00114441 0.000148745 -0.000908332)
(-0.000921317 -5.09966e-05 -0.000821203)
(-0.000674561 -0.000231219 -0.000676345)
(-0.000389353 -0.000388397 -0.000470376)
(-6.06108e-05 -0.000518208 -0.000194788)
(0.000302774 -0.00062088 0.000155453)
(0.000681226 -0.00070228 0.000568086)
(0.00105131 -0.000767152 0.000997639)
(0.00138915 -0.000818141 0.00135423)
(0.00167294 -0.000877698 0.00151138)
(0.00189173 -0.000998031 0.00136088)
(0.00168197 -0.00119095 0.000840134)
(0.00188468 -0.00128639 0.000599321)
(0.00202085 -0.00122122 0.000317025)
(0.00205003 -0.00103094 2.00487e-05)
(0.00197588 -0.000772502 -0.000246561)
(0.0018232 -0.000490694 -0.000447264)
(0.00161487 -0.00021269 -0.000567034)
(0.00136419 4.47496e-05 -0.000603283)
(0.00107714 0.000269248 -0.00055612)
(0.00075727 0.000449984 -0.000424386)
(0.000410994 0.000577441 -0.000207673)
(5.15159e-05 0.000645471 8.6742e-05)
(-0.000300325 0.000655845 0.000433786)
(-0.000620685 0.000625508 0.000782891)
(-0.000892949 0.000593641 0.00106401)
(-0.00111649 0.000616717 0.00121417)
(-0.00130584 0.000737004 0.00120579)
(-0.00148281 0.000957901 0.00105452)
(-0.00168197 0.00119095 0.000840134)
(-0.00188468 0.00128639 0.000599321)
(-0.00202085 0.00122122 0.000317025)
(-0.00205003 0.00103094 2.00487e-05)
(-0.00197588 0.000772502 -0.000246561)
(-0.0018232 0.000490694 -0.000447264)
(-0.00161487 0.00021269 -0.000567034)
(-0.00136419 -4.47496e-05 -0.000603283)
(-0.00107714 -0.000269248 -0.00055612)
(-0.00075727 -0.000449984 -0.000424386)
(-0.000410994 -0.000577441 -0.000207673)
(-5.15159e-05 -0.000645471 8.6742e-05)
(0.000300325 -0.000655845 0.000433786)
(0.000620685 -0.000625508 0.000782891)
(0.000892949 -0.000593641 0.00106401)
(0.00111649 -0.000616717 0.00121417)
(0.00130584 -0.000737004 0.00120579)
(0.00148281 -0.000957901 0.00105452)
(0.00282002 -0.00199069 0.0015727)
(0.00273617 -0.00208002 0.000478021)
(0.00251104 -0.00200193 -0.000502223)
(0.00221639 -0.00178873 -0.00119783)
(0.00191232 -0.00150438 -0.00160862)
(0.00162888 -0.00120703 -0.00180169)
(0.00137837 -0.000926273 -0.00184038)
(0.00115819 -0.000666644 -0.00176964)
(0.000949034 -0.000420144 -0.00161749)
(0.000718896 -0.000177312 -0.00139488)
(0.000433728 6.71954e-05 -0.00109415)
(7.01882e-05 0.000315601 -0.000690605)
(-0.000376124 0.000570924 -0.000152392)
(-0.000890676 0.000834251 0.000535591)
(-0.00144246 0.00109177 0.00133052)
(-0.00198159 0.00131499 0.00208495)
(-0.00243755 0.00151053 0.00253577)
(-0.00272564 0.00175698 0.00238995)
(-0.00282002 0.00199069 0.0015727)
(-0.00273617 0.00208002 0.000478021)
(-0.00251104 0.00200193 -0.000502223)
(-0.00221639 0.00178873 -0.00119783)
(-0.00191232 0.00150438 -0.00160862)
(-0.00162888 0.00120703 -0.00180169)
(-0.00137837 0.000926273 -0.00184038)
(-0.00115819 0.000666644 -0.00176964)
(-0.000949034 0.000420144 -0.00161749)
(-0.000718896 0.000177312 -0.00139488)
(-0.000433728 -6.71954e-05 -0.00109415)
(-7.01882e-05 -0.000315601 -0.000690605)
(0.000376124 -0.000570924 -0.000152393)
(0.000890676 -0.000834251 0.000535591)
(0.00144246 -0.00109177 0.00133052)
(0.00198159 -0.00131499 0.00208495)
(0.00243755 -0.00151053 0.00253577)
(0.00272564 -0.00175698 0.00238995)
(0.00260532 -0.0017819 0.00154071)
(0.00265921 -0.00187283 0.000816938)
(0.0025901 -0.00178981 0.000107614)
(0.00242788 -0.00157431 -0.000462709)
(0.00220734 -0.0012844 -0.000861033)
(0.00195788 -0.000971177 -0.00110027)
(0.00169684 -0.000663931 -0.00120596)
(0.001428 -0.000374439 -0.001201)
(0.00114321 -0.000105922 -0.00110016)
(0.000827595 0.00013996 -0.000908005)
(0.000467586 0.000360184 -0.000619617)
(5.8666e-05 0.000552041 -0.000225911)
(-0.000391146 0.000717048 0.000274311)
(-0.000863256 0.000861928 0.000855865)
(-0.00133161 0.00099541 0.00144859)
(-0.001765 0.00113111 0.00193326)
(-0.0021339 0.00130213 0.00216919)
(-0.00242133 0.00154285 0.00204631)
(-0.00260532 0.0017819 0.00154071)
(-0.00265921 0.00187283 0.000816938)
(-0.0025901 0.00178981 0.000107614)
(-0.00242788 0.00157431 -0.000462709)
(-0.00220734 0.0012844 -0.000861033)
(-0.00195788 0.000971177 -0.00110027)
(-0.00169684 0.000663931 -0.00120596)
(-0.001428 0.000374439 -0.001201)
(-0.00114321 0.000105922 -0.00110016)
(-0.000827595 -0.00013996 -0.000908005)
(-0.000467586 -0.000360184 -0.000619617)
(-5.86661e-05 -0.000552041 -0.000225911)
(0.000391146 -0.000717048 0.000274311)
(0.000863256 -0.000861928 0.000855865)
(0.00133161 -0.00099541 0.00144859)
(0.001765 -0.00113111 0.00193326)
(0.0021339 -0.00130213 0.00216919)
(0.00242133 -0.00154285 0.00204631)
(0.00224978 -0.00160912 0.00141414)
(0.00242112 -0.00170942 0.0010454)
(0.00251744 -0.00163578 0.000619797)
(0.00250881 -0.0014243 0.000194691)
(0.00239862 -0.00112941 -0.000173145)
(0.00220863 -0.000797684 -0.000444242)
(0.00195854 -0.000460194 -0.000604033)
(0.00165872 -0.000137754 -0.000651544)
(0.00131336 0.000153357 -0.000588)
(0.000926291 0.000399388 -0.000412593)
(0.00050559 0.000590152 -0.000124955)
(6.5161e-05 0.000721188 0.00026667)
(-0.000376552 0.000796119 0.000732324)
(-0.000798983 0.000831731 0.00120742)
(-0.00118352 0.000866242 0.00159741)
(-0.0015194 0.000954477 0.00181642)
(-0.00180579 0.0011321 0.00183422)
(-0.0020481 0.00137711 0.00168291)
(-0.00224978 0.00160912 0.00141414)
(-0.00242112 0.00170942 0.0010454)
(-0.00251744 0.00163578 0.000619797)
(-0.00250881 0.0014243 0.000194691)
(-0.00239862 0.00112941 -0.000173145)
(-0.00220863 0.000797684 -0.000444242)
(-0.00195854 0.000460194 -0.000604033)
(-0.00165872 0.000137754 -0.000651544)
(-0.00131336 -0.000153357 -0.000588)
(-0.000926291 -0.000399388 -0.000412593)
(-0.00050559 -0.000590152 -0.000124955)
(-6.5161e-05 -0.000721188 0.00026667)
(0.000376552 -0.000796119 0.000732324)
(0.000798983 -0.000831731 0.00120742)
(0.00118352 -0.000866242 0.00159741)
(0.0015194 -0.000954477 0.00181642)
(0.00180579 -0.0011321 0.00183422)
(0.0020481 -0.00137711 0.00168291)
(0.00320445 -0.00260186 0.00213554)
(0.00312352 -0.00270265 0.000992707)
(0.00286303 -0.00260592 -0.000166679)
(0.00252575 -0.00237091 -0.00106503)
(0.00218889 -0.0020584 -0.00164725)
(0.00187838 -0.00171859 -0.001969)
(0.00159582 -0.00138223 -0.0020959)
(0.00133302 -0.00105933 -0.00207451)
(0.00107136 -0.000746727 -0.0019317)
(0.000783388 -0.000437336 -0.00167686)
(0.000440619 -0.000126025 -0.00130344)
(2.39313e-05 0.00019005 -0.00079329)
(-0.000470214 0.000514584 -0.000127438)
(-0.00103013 0.000851696 0.000691693)
(-0.00162863 0.00119953 0.00160036)
(-0.00221673 0.00155332 0.00243096)
(-0.00272022 0.00192319 0.00292687)
(-0.00306244 0.00230431 0.0028525)
(-0.00320445 0.00260186 0.00213554)
(-0.00312352 0.00270265 0.000992707)
(-0.00286303 0.00260592 -0.000166679)
(-0.00252575 0.00237091 -0.00106503)
(-0.00218889 0.0020584 -0.00164725)
(-0.00187838 0.00171859 -0.001969)
(-0.00159582 0.00138223 -0.0020959)
(-0.00133302 0.00105933 -0.00207451)
(-0.00107136 0.000746727 -0.0019317)
(-0.000783388 0.000437336 -0.00167686)
(-0.000440619 0.000126025 -0.00130344)
(-2.39313e-05 -0.00019005 -0.00079329)
(0.000470214 -0.000514584 -0.000127438)
(0.00103013 -0.000851696 0.000691693)
(0.00162863 -0.00119953 0.00160036)
(0.00221673 -0.00155332 0.00243096)
(0.00272022 -0.00192319 0.00292687)
(0.00306244 -0.00230431 0.0028525)
(0.00296283 -0.00222855 0.00201592)
(0.00299493 -0.00232255 0.00126116)
(0.00289058 -0.00224108 0.000437052)
(0.00269231 -0.00202201 -0.000273537)
(0.00244444 -0.00171809 -0.000794664)
(0.00217227 -0.00137653 -0.0011266)
(0.0018858 -0.0010284 -0.00129354)
(0.00158463 -0.000689481 -0.00131861)
(0.00126029 -0.000366594 -0.00121649)
(0.000900308 -6.32149e-05 -0.000992137)
(0.000494149 0.000218064 -0.000642966)
(3.84486e-05 0.000476339 -0.000165352)
(-0.000461291 0.000714653 0.000432958)
(-0.000991182 0.000940543 0.00111485)
(-0.00152677 0.00116497 0.00179575)
(-0.00203145 0.00140512 0.00234271)
(-0.00246271 0.00168369 0.00261026)
(-0.00278238 0.00198684 0.00250103)
(-0.00296283 0.00222855 0.00201592)
(-0.00299493 0.00232255 0.00126116)
(-0.00289058 0.00224108 0.000437052)
(-0.00269231 0.00202201 -0.000273537)
(-0.00244444 0.00171809 -0.000794664)
(-0.00217227 0.00137653 -0.0011266)
(-0.0018858 0.0010284 -0.00129354)
(-0.00158463 0.000689481 -0.00131861)
(-0.00126029 0.000366594 -0.00121649)
(-0.000900308 6.32149e-05 -0.000992137)
(-0.000494149 -0.000218064 -0.000642966)
(-3.84486e-05 -0.000476339 -0.000165352)
(0.000461291 -0.000714653 0.000432958)
(0.000991182 -0.000940543 0.00111485)
(0.00152677 -0.00116497 0.00179575)
(0.00203145 -0.00140512 0.00234271)
(0.00246271 -0.00168369 0.00261026)
(0.00278238 -0.00198684 0.00250103)
(0.00266627 -0.00193878 0.00185287)
(0.00277396 -0.00201537 0.00144337)
(0.00280862 -0.00194493 0.0009534)
(0.00275426 -0.00173915 0.000447673)
(0.00261093 -0.0014399 3.79757e-06)
(0.00239431 -0.00109153 -0.000325889)
(0.00211917 -0.000726454 -0.000521769)
(0.00179252 -0.000367294 -0.000581763)
(0.00141683 -3.20244e-05 -0.000507886)
(0.000995691 0.000264747 -0.000301504)
(0.000537271 0.000513682 3.44444e-05)
(5.35481e-05 0.00071265 0.000487646)
(-0.000442369 0.000866912 0.00102313)
(-0.000935715 0.000991252 0.00156857)
(-0.00140729 0.00111652 0.00201878)
(-0.00183576 0.00128332 0.00227963)
(-0.00220085 0.00150823 0.00231649)
(-0.00248162 0.0017513 0.00215584)
(-0.00266627 0.00193878 0.00185287)
(-0.00277396 0.00201537 0.00144337)
(-0.00280862 0.00194493 0.0009534)
(-0.00275426 0.00173915 0.000447673)
(-0.00261093 0.0014399 3.79759e-06)
(-0.00239431 0.00109153 -0.000325889)
(-0.00211917 0.000726454 -0.000521769)
(-0.00179252 0.000367294 -0.000581763)
(-0.00141683 3.20244e-05 -0.000507886)
(-0.000995691 -0.000264747 -0.000301504)
(-0.000537271 -0.000513682 3.44443e-05)
(-5.35481e-05 -0.00071265 0.000487646)
(0.000442369 -0.000866912 0.00102313)
(0.000935715 -0.000991252 0.00156857)
(0.00140729 -0.00111652 0.00201877)
(0.00183576 -0.00128332 0.00227963)
(0.00220085 -0.00150823 0.00231649)
(0.00248162 -0.0017513 0.00215584)
(0.00334992 -0.00294192 0.00247038)
(0.0032784 -0.00309695 0.00143658)
(0.00301794 -0.00305298 0.000272135)
(0.00266866 -0.0028602 -0.000725769)
(0.00231874 -0.00257051 -0.00143427)
(0.00199744 -0.00222766 -0.00186849)
(0.00169987 -0.00186454 -0.00207982)
(0.00141203 -0.00149845 -0.00211037)
(0.00111549 -0.00113353 -0.0019854)
(0.000788321 -0.000767774 -0.00171545)
(0.000409796 -0.000398088 -0.00130014)
(-3.33977e-05 -2.1057e-05 -0.00073385)
(-0.000544417 0.000369114 -1.43855e-05)
(-0.00111661 0.000779448 0.000840054)
(-0.00172782 0.00121291 0.00175711)
(-0.00232804 0.00166905 0.00257646)
(-0.0028418 0.00214269 0.00307612)
(-0.00319758 0.00259542 0.00306291)
(-0.00334992 0.00294192 0.00247038)
(-0.0032784 0.00309695 0.00143658)
(-0.00301794 0.00305298 0.000272135)
(-0.00266866 0.0028602 -0.000725769)
(-0.00231875 0.00257051 -0.00143427)
(-0.00199744 0.00222766 -0.00186849)
(-0.00169987 0.00186454 -0.00207982)
(-0.00141203 0.00149845 -0.00211037)
(-0.00111549 0.00113353 -0.0019854)
(-0.000788321 0.000767774 -0.00171545)
(-0.000409796 0.000398088 -0.00130014)
(3.33976e-05 2.1057e-05 -0.00073385)
(0.000544416 -0.000369114 -1.43855e-05)
(0.00111661 -0.000779448 0.000840054)
(0.00172782 -0.00121291 0.00175711)
(0.00232804 -0.00166905 0.00257646)
(0.0028418 -0.00214269 0.00307612)
(0.00319758 -0.00259542 0.00306291)
(0.00311538 -0.00249739 0.00234146)
(0.00312502 -0.00261058 0.00163358)
(0.00299754 -0.0025644 0.000806955)
(0.00277933 -0.00238144 3.85982e-05)
(0.0025179 -0.00210181 -0.000561996)
(0.00223703 -0.00176584 -0.000967126)
(0.0019411 -0.00140491 -0.00118846)
(0.0016257 -0.00103878 -0.00124461)
(0.00128205 -0.000678451 -0.00114935)
(0.000900287 -0.000330059 -0.000909778)
(0.000473208 3.33946e-06 -0.000529018)
(-1.24001e-06 0.000322086 -1.26734e-05)
(-0.00051996 0.000630726 0.00062078)
(-0.00107358 0.000936885 0.00132562)
(-0.00163897 0.00124889 0.00201444)
(-0.00217341 0.00157561 0.00256174)
(-0.00262407 0.00191895 0.00284127)
(-0.00294679 0.00224744 0.0027708)
(-0.00311538 0.00249739 0.00234146)
(-0.00312502 0.00261058 0.00163358)
(-0.00299754 0.0025644 0.000806955)
(-0.00277933 0.00238144 3.85982e-05)
(-0.0025179 0.00210181 -0.000561996)
(-0.00223703 0.00176584 -0.000967126)
(-0.0019411 0.00140491 -0.00118846)
(-0.0016257 0.00103878 -0.00124461)
(-0.00128205 0.000678451 -0.00114935)
(-0.000900287 0.000330059 -0.000909778)
(-0.000473208 -3.33944e-06 -0.000529018)
(1.23998e-06 -0.000322086 -1.26734e-05)
(0.00051996 -0.000630726 0.00062078)
(0.00107358 -0.000936885 0.00132562)
(0.00163897 -0.00124889 0.00201444)
(0.00217341 -0.00157561 0.00256174)
(0.00262407 -0.00191895 0.00284127)
(0.00294679 -0.00224744 0.0027708)
(0.00287476 -0.00215055 0.00218723)
(0.00293795 -0.00220861 0.00177183)
(0.00291849 -0.00214666 0.0012696)
(0.00282114 -0.00196471 0.000738214)
(0.00265032 -0.00168805 0.0002574)
(0.00241725 -0.00135186 -0.000108576)
(0.00213128 -0.000986112 -0.000330493)
(0.00179584 -0.00061382 -0.000402124)
(0.00141185 -0.000253827 -0.000325369)
(0.000982228 7.91638e-05 -0.000104474)
(0.0005139 0.000376771 0.000252675)
(1.58264e-05 0.00063829 0.000728032)
(-0.00050354 0.000869353 0.00128166)
(-0.00103299 0.0010811 0.0018387)
(-0.00155129 0.00129248 0.00229646)
(-0.00202672 0.00152308 0.00256829)
(-0.00242293 0.00176951 0.00262346)
(-0.00270869 0.00199392 0.0024827)
(-0.00287476 0.00215055 0.00218723)
(-0.00293795 0.00220861 0.00177183)
(-0.00291849 0.00214666 0.0012696)
(-0.00282114 0.00196471 0.000738214)
(-0.00265032 0.00168805 0.0002574)
(-0.00241725 0.00135186 -0.000108576)
(-0.00213128 0.000986112 -0.000330493)
(-0.00179584 0.00061382 -0.000402124)
(-0.00141185 0.000253827 -0.000325369)
(-0.000982228 -7.91638e-05 -0.000104474)
(-0.0005139 -0.000376771 0.000252675)
(-1.58264e-05 -0.00063829 0.000728032)
(0.00050354 -0.000869353 0.00128166)
(0.00103299 -0.0010811 0.0018387)
(0.00155129 -0.00129248 0.00229646)
(0.00202672 -0.00152308 0.00256829)
(0.00242293 -0.00176951 0.00262346)
(0.00270869 -0.00199392 0.0024827)
(0.00327862 -0.00306199 0.00260301)
(0.00321397 -0.00328276 0.00173197)
(0.00297728 -0.00332263 0.000681824)
(0.00264804 -0.0032077 -0.000300038)
(0.00230702 -0.00297515 -0.00106016)
(0.00198836 -0.00266205 -0.00156542)
(0.00168804 -0.00230156 -0.00183969)
(0.00138993 -0.00191698 -0.00191387)
(0.00107651 -0.00152025 -0.00181042)
(0.000731145 -0.0011154 -0.0015429)
(0.000340194 -0.000702207 -0.00111954)
(-0.000104886 -0.000277076 -0.00054776)
(-0.000607422 0.000166972 0.000160574)
(-0.00116407 0.000636974 0.000977508)
(-0.00175406 0.0011346 0.00183185)
(-0.00232641 0.0016552 0.00258397)
(-0.00280955 0.0021831 0.00305019)
(-0.00313999 0.00267522 0.00307425)
(-0.00327862 0.00306199 0.00260301)
(-0.00321397 0.00328276 0.00173197)
(-0.00297728 0.00332263 0.000681824)
(-0.00264804 0.0032077 -0.000300038)
(-0.00230702 0.00297515 -0.00106016)
(-0.00198836 0.00266205 -0.00156542)
(-0.00168804 0.00230156 -0.00183969)
(-0.00138993 0.00191698 -0.00191387)
(-0.00107651 0.00152025 -0.00181042)
(-0.000731145 0.0011154 -0.0015429)
(-0.000340194 0.000702207 -0.00111954)
(0.000104886 0.000277076 -0.00054776)
(0.000607422 -0.000166972 0.000160574)
(0.00116407 -0.000636974 0.000977508)
(0.00175406 -0.0011346 0.00183185)
(0.00232641 -0.0016552 0.00258397)
(0.00280955 -0.0021831 0.00305019)
(0.00313999 -0.00267522 0.00307425)
(0.00307256 -0.0026076 0.00251757)
(0.00306814 -0.00275256 0.00190037)
(0.00293494 -0.0027573 0.00114406)
(0.00271576 -0.00263135 0.00039611)
(0.00245511 -0.0024004 -0.000226604)
(0.00217671 -0.00209564 -0.000670536)
(0.00188306 -0.00174614 -0.000928485)
(0.00156754 -0.00137426 -0.00101024)
(0.00122151 -0.000994999 -0.000927447)
(0.000837465 -0.000617471 -0.000689863)
(0.000410963 -0.000245838 -0.000307337)
(-5.90644e-05 0.000120538 0.000205202)
(-0.000570889 0.000486202 0.000820463)
(-0.00111667 0.000856381 0.00148907)
(-0.00167232 0.00123338 0.00213043)
(-0.00219263 0.00161601 0.0026386)
(-0.0026241 0.00199495 0.00290993)
(-0.00292464 0.00234096 0.00287378)
(-0.00307256 0.0026076 0.00251757)
(-0.00306814 0.00275256 0.00190037)
(-0.00293494 0.0027573 0.00114406)
(-0.00271576 0.00263135 0.00039611)
(-0.00245511 0.0024004 -0.000226604)
(-0.00217671 0.00209564 -0.000670536)
(-0.00188306 0.00174614 -0.000928485)
(-0.00156754 0.00137426 -0.00101024)
(-0.00122151 0.000994999 -0.000927447)
(-0.000837465 0.000617471 -0.000689863)
(-0.000410963 0.000245838 -0.000307337)
(5.90643e-05 -0.000120538 0.000205202)
(0.000570889 -0.000486202 0.000820463)
(0.00111667 -0.000856381 0.00148907)
(0.00167232 -0.00123338 0.00213043)
(0.00219263 -0.00161601 0.0026386)
(0.0026241 -0.00199495 0.00290993)
(0.00292464 -0.00234096 0.00287378)
(0.00289591 -0.00225093 0.00240453)
(0.00293007 -0.00230647 0.00201892)
(0.00287572 -0.00226029 0.00154388)
(0.00274857 -0.00211102 0.00103112)
(0.00255983 -0.00187224 0.000553306)
(0.00231997 -0.00156717 0.000178354)
(0.00203449 -0.00122001 -5.54615e-05)
(0.00170381 -0.000852757 -0.000135949)
(0.00132747 -0.000484455 -6.36412e-05)
(0.000907487 -0.000129657 0.000154931)
(0.000449049 0.000203732 0.000507202)
(-4.15462e-05 0.000515022 0.000969662)
(-0.000558121 0.000808276 0.00149859)
(-0.00108943 0.00108913 0.00202149)
(-0.00161138 0.00136399 0.00244838)
(-0.00208765 0.00163556 0.00270913)
(-0.00247784 0.00189188 0.00277825)
(-0.0027502 0.00210613 0.00266737)
(-0.00289591 0.00225093 0.00240453)
(-0.00293007 0.00230647 0.00201892)
(-0.00287572 0.00226029 0.00154388)
(-0.00274857 0.00211102 0.00103112)
(-0.00255983 0.00187224 0.000553306)
(-0.00231997 0.00156717 0.000178354)
(-0.00203449 0.00122001 -5.54615e-05)
(-0.00170381 0.000852757 -0.000135949)
(-0.00132747 0.000484455 -6.36412e-05)
(-0.000907487 0.000129657 0.000154931)
(-0.000449049 -0.000203732 0.000507202)
(4.15462e-05 -0.000515022 0.000969662)
(0.000558121 -0.000808276 0.00149859)
(0.00108943 -0.00108913 0.00202149)
(0.00161138 -0.00136399 0.00244838)
(0.00208765 -0.00163556 0.00270913)
(0.00247784 -0.00189188 0.00277825)
(0.0027502 -0.00210613 0.00266737)
(0.00303282 -0.00302872 0.00257894)
(0.00297169 -0.00330918 0.00187619)
(0.00276773 -0.00343182 0.000992443)
(0.0024785 -0.00340224 0.000111467)
(0.00216587 -0.0032413 -0.000622803)
(0.00186295 -0.00297823 -0.00114591)
(0.00157036 -0.00264411 -0.00145189)
(0.00127454 -0.00226519 -0.00155589)
(0.000960739 -0.00185906 -0.00147545)
(0.000617015 -0.00143492 -0.0012265)
(0.000234804 -0.000995392 -0.000824527)
(-0.000191523 -0.000537827 -0.000286298)
(-0.000665037 -5.63424e-05 0.000367904)