/*--------------------------------*- C++ -*----------------------------------*\
| =========                 |                                                 |
| \\      /  F ield         | OpenFOAM: The Open Source CFD Toolbox           |
|  \\    /   O peration     | Version:  2312                                  |
|   \\  /    A nd           | Website:  www.openfoam.com                      |
|    \\/     M anipulation  |                                                 |
\*---------------------------------------------------------------------------*/
FoamFile
{
    version     2.0;
    format      ascii;
    arch        "LSB;label=32;scalar=64";
    class       volVectorField;
    location    "1";
    object      D_0_0;
}
// * * * * * * * * * * * * * * * * * * * * * * * * * * * * * * * * * * * * * //

dimensions      [0 1 0 0 0 0 0];

internalField   nonuniform List<vector> 
1620
(
(-0.000273787 0.000193644 -0.000151581)
(-0.000303253 0.000143159 -0.000151581)
(-0.000323506 8.83251e-05 -0.000151581)
(-0.000333929 3.0808e-05 -0.00015158)
(-0.000334205 -2.76455e-05 -0.000151581)
(-0.000324328 -8.526e-05 -0.000151581)
(-0.000304595 -0.000140284 -0.00015158)
(-0.000275608 -0.000191045 -0.00015158)
(-0.000238245 -0.000236001 -0.000151581)
(-0.000193644 -0.000273787 -0.000151581)
(-0.000143159 -0.000303253 -0.000151581)
(-8.8325e-05 -0.000323506 -0.000151581)
(-3.0808e-05 -0.000333929 -0.00015158)
(2.76455e-05 -0.000334205 -0.000151581)
(8.526e-05 -0.000324328 -0.000151581)
(0.000140284 -0.000304595 -0.00015158)
(0.000191045 -0.000275608 -0.00015158)
(0.000236001 -0.000238245 -0.000151581)
(0.000273787 -0.000193644 -0.000151581)
(0.000303253 -0.000143159 -0.000151581)
(0.000323506 -8.8325e-05 -0.000151581)
(0.000333929 -3.08079e-05 -0.00015158)
(0.000334206 2.76455e-05 -0.000151581)
(0.000324328 8.526e-05 -0.000151581)
(0.000304595 0.000140284 -0.00015158)
(0.000275608 0.000191045 -0.00015158)
(0.000238245 0.000236001 -0.000151581)
(0.000193644 0.000273787 -0.000151581)
(0.000143159 0.000303253 -0.000151581)
(8.83251e-05 0.000323506 -0.000151581)
(3.0808e-05 0.000333929 -0.00015158)
(-2.76455e-05 0.000334206 -0.000151581)
(-8.526e-05 0.000324328 -0.000151581)
(-0.000140284 0.000304595 -0.00015158)
(-0.000191045 0.000275608 -0.00015158)
(-0.000236001 0.000238245 -0.000151581)
(-0.000175412 0.000287334 -0.000104405)
(-0.000222642 0.000252508 -0.000104405)
(-0.000263107 0.000210011 -0.000104405)
(-0.000295578 0.000161132 -0.000104404)
(-0.000319069 0.000107358 -0.000104405)
(-0.000332864 5.03213e-05 -0.000104405)
(-0.000336545 -8.24435e-06 -0.000104404)
(-0.000330001 -6.65594e-05 -0.000104404)
(-0.000313429 -0.000122852 -0.000104405)
(-0.000287334 -0.000175412 -0.000104405)
(-0.000252508 -0.000222642 -0.000104405)
(-0.000210011 -0.000263107 -0.000104405)
(-0.000161132 -0.000295578 -0.000104404)
(-0.000107358 -0.000319069 -0.000104405)
(-5.03212e-05 -0.000332864 -0.000104405)
(8.24437e-06 -0.000336545 -0.000104404)
(6.65594e-05 -0.000330001 -0.000104404)
(0.000122852 -0.000313429 -0.000104405)
(0.000175412 -0.000287334 -0.000104405)
(0.000222642 -0.000252508 -0.000104405)
(0.000263107 -0.000210011 -0.000104405)
(0.000295578 -0.000161132 -0.000104404)
(0.000319069 -0.000107358 -0.000104405)
(0.000332864 -5.03212e-05 -0.000104405)
(0.000336545 8.24438e-06 -0.000104404)
(0.000330001 6.65594e-05 -0.000104404)
(0.000313429 0.000122852 -0.000104405)
(0.000287334 0.000175412 -0.000104405)
(0.000252508 0.000222642 -0.000104405)
(0.000210011 0.000263107 -0.000104405)
(0.000161132 0.000295578 -0.000104404)
(0.000107358 0.000319069 -0.000104405)
(5.03212e-05 0.000332864 -0.000104405)
(-8.24436e-06 0.000336545 -0.000104404)
(-6.65594e-05 0.000330001 -0.000104404)
(-0.000122852 0.000313429 -0.000104405)
(-0.000109571 0.000382809 -5.68171e-05)
(-0.00017438 0.000357966 -5.68171e-05)
(-0.000233891 0.000322248 -5.68174e-05)
(-0.000286295 0.000276737 -5.68172e-05)
(-0.000330002 0.000222818 -5.68173e-05)
(-0.00036368 0.000162129 -5.68171e-05)
(-0.000386308 9.65133e-05 -5.68173e-05)
(-0.000397199 2.79653e-05 -5.68174e-05)
(-0.00039602 -4.14323e-05 -5.68172e-05)
(-0.000382809 -0.000109571 -5.68171e-05)
(-0.000357966 -0.00017438 -5.68171e-05)
(-0.000322248 -0.000233891 -5.68174e-05)
(-0.000276737 -0.000286295 -5.68172e-05)
(-0.000222818 -0.000330002 -5.68174e-05)
(-0.000162129 -0.00036368 -5.68171e-05)
(-9.65133e-05 -0.000386308 -5.68174e-05)
(-2.79653e-05 -0.000397199 -5.68175e-05)
(4.14323e-05 -0.00039602 -5.68172e-05)
(0.000109571 -0.000382809 -5.68171e-05)
(0.00017438 -0.000357966 -5.68171e-05)
(0.000233891 -0.000322248 -5.68174e-05)
(0.000286295 -0.000276737 -5.68172e-05)
(0.000330002 -0.000222818 -5.68174e-05)
(0.00036368 -0.000162129 -5.68171e-05)
(0.000386308 -9.65133e-05 -5.68174e-05)
(0.000397199 -2.79653e-05 -5.68175e-05)
(0.00039602 4.14323e-05 -5.68172e-05)
(0.000382809 0.000109571 -5.68171e-05)
(0.000357966 0.00017438 -5.68171e-05)
(0.000322248 0.000233891 -5.68174e-05)
(0.000276737 0.000286296 -5.68172e-05)
(0.000222818 0.000330002 -5.68173e-05)
(0.000162129 0.00036368 -5.68171e-05)
(9.65133e-05 0.000386308 -5.68173e-05)
(2.79653e-05 0.000397199 -5.68174e-05)
(-4.14323e-05 0.00039602 -5.68172e-05)
(-0.000605117 0.000616591 -0.0005038)
(-0.000702994 0.000502146 -0.000503801)
(-0.000779511 0.000372444 -0.000503801)
(-0.000832343 0.000231426 -0.000503799)
(-0.000859885 8.33763e-05 -0.000503798)
(-0.000861299 -6.72076e-05 -0.000503799)
(-0.000836544 -0.00021575 -0.000503799)
(-0.00078637 -0.000357736 -0.000503799)
(-0.000712301 -0.000488854 -0.0005038)
(-0.000616591 -0.000605117 -0.0005038)
(-0.000502146 -0.000702994 -0.000503801)
(-0.000372443 -0.000779511 -0.000503801)
(-0.000231426 -0.000832343 -0.000503799)
(-8.33763e-05 -0.000859885 -0.000503798)
(6.72077e-05 -0.000861299 -0.000503799)
(0.00021575 -0.000836544 -0.000503799)
(0.000357737 -0.00078637 -0.000503799)
(0.000488854 -0.000712301 -0.0005038)
(0.000605117 -0.000616591 -0.0005038)
(0.000702994 -0.000502146 -0.000503801)
(0.000779511 -0.000372443 -0.000503801)
(0.000832343 -0.000231426 -0.000503799)
(0.000859885 -8.33762e-05 -0.000503798)
(0.000861299 6.72077e-05 -0.000503799)
(0.000836544 0.00021575 -0.000503799)
(0.00078637 0.000357737 -0.000503799)
(0.000712301 0.000488854 -0.0005038)
(0.000616591 0.000605117 -0.0005038)
(0.000502146 0.000702994 -0.000503801)
(0.000372444 0.000779511 -0.000503801)
(0.000231426 0.000832343 -0.000503799)
(8.33763e-05 0.000859885 -0.000503798)
(-6.72076e-05 0.000861299 -0.000503798)
(-0.00021575 0.000836544 -0.000503799)
(-0.000357736 0.00078637 -0.000503799)
(-0.000488854 0.000712301 -0.0005038)
(-0.000528775 0.000859232 -0.000369103)
(-0.000669946 0.000754357 -0.000369104)
(-0.000790761 0.000626562 -0.000369104)
(-0.000887549 0.00047973 -0.000369103)
(-0.00095737 0.000318321 -0.000369103)
(-0.000998101 0.000147239 -0.000369103)
(-0.00100851 -2.83164e-05 -0.000369103)
(-0.000988266 -0.000203011 -0.000369103)
(-0.000938 -0.000371538 -0.000369103)
(-0.000859232 -0.000528775 -0.000369103)
(-0.000754357 -0.000669946 -0.000369104)
(-0.000626562 -0.000790761 -0.000369104)
(-0.00047973 -0.000887549 -0.000369103)
(-0.000318321 -0.00095737 -0.000369103)
(-0.000147239 -0.000998101 -0.000369103)
(2.83164e-05 -0.00100851 -0.000369103)
(0.000203011 -0.000988266 -0.000369103)
(0.000371538 -0.000938 -0.000369103)
(0.000528775 -0.000859232 -0.000369103)
(0.000669946 -0.000754357 -0.000369104)
(0.000790761 -0.000626562 -0.000369104)
(0.000887549 -0.00047973 -0.000369103)
(0.00095737 -0.000318321 -0.000369103)
(0.000998101 -0.000147239 -0.000369103)
(0.00100851 2.83165e-05 -0.000369103)
(0.000988266 0.000203012 -0.000369103)
(0.000938 0.000371538 -0.000369103)
(0.000859232 0.000528775 -0.000369103)
(0.000754357 0.000669946 -0.000369104)
(0.000626562 0.000790761 -0.000369104)
(0.00047973 0.000887549 -0.000369103)
(0.000318321 0.00095737 -0.000369102)
(0.000147239 0.000998101 -0.000369103)
(-2.83164e-05 0.00100851 -0.000369103)
(-0.000203011 0.000988266 -0.000369103)
(-0.000371538 0.000938 -0.000369103)
(-0.000497806 0.00110098 -0.00023635)
(-0.000681426 0.000997814 -0.00023635)
(-0.000844342 0.000864326 -0.00023635)
(-0.000981602 0.000704577 -0.00023635)
(-0.00108904 0.000523419 -0.00023635)
(-0.00116338 0.000326357 -0.00023635)
(-0.00120238 0.000119379 -0.00023635)
(-0.00120485 -9.12258e-05 -0.00023635)
(-0.0011707 -0.000299059 -0.00023635)
(-0.00110098 -0.000497806 -0.000236351)
(-0.000997814 -0.000681426 -0.00023635)
(-0.000864326 -0.000844341 -0.00023635)
(-0.000704577 -0.000981602 -0.00023635)
(-0.000523419 -0.00108904 -0.00023635)
(-0.000326357 -0.00116338 -0.00023635)
(-0.000119379 -0.00120238 -0.00023635)
(9.12258e-05 -0.00120485 -0.00023635)
(0.000299059 -0.0011707 -0.000236351)
(0.000497806 -0.00110098 -0.000236351)
(0.000681426 -0.000997814 -0.00023635)
(0.000844342 -0.000864326 -0.00023635)
(0.000981602 -0.000704577 -0.00023635)
(0.00108904 -0.000523419 -0.00023635)
(0.00116338 -0.000326357 -0.00023635)
(0.00120238 -0.000119379 -0.00023635)
(0.00120485 9.12259e-05 -0.00023635)
(0.0011707 0.000299059 -0.00023635)
(0.00110098 0.000497806 -0.00023635)
(0.000997814 0.000681426 -0.00023635)
(0.000864326 0.000844342 -0.00023635)
(0.000704577 0.000981603 -0.00023635)
(0.000523419 0.00108904 -0.00023635)
(0.000326357 0.00116338 -0.00023635)
(0.000119379 0.00120238 -0.00023635)
(-9.12258e-05 0.00120485 -0.00023635)
(-0.000299059 0.0011707 -0.00023635)
(-0.000913065 0.00109836 -0.000926122)
(-0.00108992 0.000923117 -0.000926122)
(-0.00123366 0.00071983 -0.000926122)
(-0.00133992 0.000494672 -0.00092612)
(-0.00140546 0.000254485 -0.000926119)
(-0.0014283 6.56352e-06 -0.000926118)
(-0.00140774 -0.000241558 -0.000926119)
(-0.0013444 -0.000482339 -0.000926119)
(-0.00124022 -0.000708466 -0.000926121)
(-0.00109836 -0.000913065 -0.000926122)
(-0.000923117 -0.00108992 -0.000926122)
(-0.00071983 -0.00123366 -0.000926122)
(-0.000494672 -0.00133992 -0.00092612)
(-0.000254484 -0.00140546 -0.000926119)
(-6.56339e-06 -0.0014283 -0.000926119)
(0.000241558 -0.00140774 -0.000926119)
(0.00048234 -0.0013444 -0.00092612)
(0.000708466 -0.00124022 -0.000926121)
(0.000913065 -0.00109836 -0.000926122)
(0.00108992 -0.000923116 -0.000926122)
(0.00123366 -0.00071983 -0.000926122)
(0.00133992 -0.000494672 -0.00092612)
(0.00140546 -0.000254484 -0.000926119)
(0.0014283 -6.56334e-06 -0.000926119)
(0.00140774 0.000241558 -0.000926119)
(0.0013444 0.00048234 -0.00092612)
(0.00124022 0.000708466 -0.000926121)
(0.00109836 0.000913065 -0.000926122)
(0.000923117 0.00108992 -0.000926122)
(0.00071983 0.00123366 -0.000926122)
(0.000494672 0.00133992 -0.00092612)
(0.000254485 0.00140546 -0.000926118)
(6.56348e-06 0.0014283 -0.000926118)
(-0.000241558 0.00140774 -0.000926119)
(-0.00048234 0.0013444 -0.000926119)
(-0.000708466 0.00124022 -0.000926121)
(-0.000874283 0.00143965 -0.0007253)
(-0.00111099 0.00126596 -0.0007253)
(-0.00131395 0.00105381 -0.0007253)
(-0.00147698 0.000809635 -0.000725299)
(-0.00159513 0.000540861 -0.000725298)
(-0.00166482 0.000255652 -0.000725298)
(-0.00168392 -3.73241e-05 -0.000725299)
(-0.00165185 -0.000329167 -0.000725299)
(-0.0015696 -0.000611007 -0.000725299)
(-0.00143965 -0.000874283 -0.0007253)
(-0.00126596 -0.00111099 -0.0007253)
(-0.00105381 -0.00131395 -0.0007253)
(-0.000809635 -0.00147698 -0.000725299)
(-0.000540861 -0.00159513 -0.000725298)
(-0.000255652 -0.00166482 -0.000725299)
(3.73242e-05 -0.00168392 -0.000725299)
(0.000329167 -0.00165185 -0.000725299)
(0.000611008 -0.0015696 -0.000725299)
(0.000874283 -0.00143965 -0.0007253)
(0.00111099 -0.00126596 -0.0007253)
(0.00131395 -0.00105381 -0.0007253)
(0.00147698 -0.000809635 -0.000725299)
(0.00159513 -0.000540861 -0.000725298)
(0.00166482 -0.000255652 -0.000725299)
(0.00168392 3.73243e-05 -0.000725299)
(0.00165185 0.000329167 -0.000725299)
(0.0015696 0.000611008 -0.000725299)
(0.00143965 0.000874283 -0.0007253)
(0.00126596 0.00111099 -0.0007253)
(0.00105381 0.00131395 -0.0007253)
(0.000809635 0.00147698 -0.000725299)
(0.000540861 0.00159513 -0.000725298)
(0.000255652 0.00166482 -0.000725298)
(-3.73242e-05 0.00168392 -0.000725298)
(-0.000329167 0.00165185 -0.000725299)
(-0.000611007 0.0015696 -0.000725299)
(-0.000891396 0.00176578 -0.000530415)
(-0.00118448 0.00158417 -0.000530414)
(-0.00144157 0.00135442 -0.000530415)
(-0.00165486 0.00108352 -0.000530415)
(-0.00181787 0.00077969 -0.000530415)
(-0.00192565 0.000452174 -0.000530415)
(-0.00197491 0.000110919 -0.000530415)
(-0.00196417 -0.000233705 -0.000530415)
(-0.00189374 -0.000571229 -0.000530415)
(-0.00176578 -0.000891396 -0.000530415)
(-0.00158416 -0.00118448 -0.000530415)
(-0.00135442 -0.00144157 -0.000530415)
(-0.00108352 -0.00165486 -0.000530415)
(-0.00077969 -0.00181787 -0.000530415)
(-0.000452174 -0.00192564 -0.000530415)
(-0.000110919 -0.00197491 -0.000530415)
(0.000233705 -0.00196417 -0.000530415)
(0.000571229 -0.00189374 -0.000530415)
(0.000891396 -0.00176578 -0.000530415)
(0.00118448 -0.00158416 -0.000530415)
(0.00144157 -0.00135442 -0.000530415)
(0.00165486 -0.00108352 -0.000530415)
(0.00181787 -0.00077969 -0.000530415)
(0.00192565 -0.000452174 -0.000530415)
(0.00197491 -0.000110919 -0.000530415)
(0.00196417 0.000233705 -0.000530415)
(0.00189374 0.000571229 -0.000530415)
(0.00176578 0.000891396 -0.000530415)
(0.00158417 0.00118448 -0.000530415)
(0.00135442 0.00144157 -0.000530415)
(0.00108352 0.00165486 -0.000530415)
(0.00077969 0.00181787 -0.000530415)
(0.000452174 0.00192565 -0.000530415)
(0.000110919 0.00197491 -0.000530415)
(-0.000233705 0.00196417 -0.000530415)
(-0.000571229 0.00189374 -0.000530415)
(-0.00119639 0.00165702 -0.00138045)
(-0.00146595 0.0014241 -0.00138046)
(-0.00169097 0.0011479 -0.00138045)
(-0.00186461 0.00083683 -0.00138045)
(-0.0019816 0.00050033 -0.00138045)
(-0.00203838 0.000148628 -0.00138045)
(-0.00203322 -0.000207591 -0.00138045)
(-0.00196628 -0.000557503 -0.00138045)
(-0.0018396 -0.000890474 -0.00138045)
(-0.00165702 -0.00119639 -0.00138045)
(-0.0014241 -0.00146595 -0.00138046)
(-0.0011479 -0.00169097 -0.00138045)
(-0.000836829 -0.00186461 -0.00138045)
(-0.00050033 -0.0019816 -0.00138045)
(-0.000148627 -0.00203838 -0.00138045)
(0.000207591 -0.00203322 -0.00138045)
(0.000557503 -0.00196628 -0.00138045)
(0.000890474 -0.0018396 -0.00138045)
(0.00119639 -0.00165702 -0.00138045)
(0.00146595 -0.0014241 -0.00138046)
(0.00169097 -0.0011479 -0.00138045)
(0.00186461 -0.000836829 -0.00138045)
(0.0019816 -0.00050033 -0.00138045)
(0.00203838 -0.000148627 -0.00138045)
(0.00203322 0.000207591 -0.00138045)
(0.00196628 0.000557503 -0.00138045)
(0.0018396 0.000890474 -0.00138045)
(0.00165702 0.00119639 -0.00138045)
(0.0014241 0.00146595 -0.00138046)
(0.0011479 0.00169097 -0.00138045)
(0.00083683 0.00186461 -0.00138045)
(0.00050033 0.0019816 -0.00138045)
(0.000148627 0.00203838 -0.00138045)
(-0.000207591 0.00203322 -0.00138045)
(-0.000557503 0.00196628 -0.00138045)
(-0.000890474 0.0018396 -0.00138045)
(-0.00120325 0.00202553 -0.00113636)
(-0.0015367 0.00178582 -0.00113636)
(-0.00182346 0.00149184 -0.00113636)
(-0.00205481 0.00115254 -0.00113636)
(-0.00222373 0.000778215 -0.00113636)
(-0.00232508 0.000380245 -0.00113636)
(-0.00235579 -2.92785e-05 -0.00113636)
(-0.00231491 -0.000437913 -0.00113636)
(-0.0022037 -0.000833241 -0.00113636)
(-0.00202553 -0.00120325 -0.00113636)
(-0.00178582 -0.0015367 -0.00113636)
(-0.00149184 -0.00182346 -0.00113636)
(-0.00115254 -0.00205481 -0.00113636)
(-0.000778214 -0.00222373 -0.00113636)
(-0.000380245 -0.00232508 -0.00113636)
(2.92787e-05 -0.00235579 -0.00113636)
(0.000437913 -0.00231491 -0.00113636)
(0.000833241 -0.0022037 -0.00113636)
(0.00120325 -0.00202553 -0.00113636)
(0.0015367 -0.00178582 -0.00113636)
(0.00182346 -0.00149184 -0.00113636)
(0.00205481 -0.00115254 -0.00113636)
(0.00222373 -0.000778214 -0.00113636)
(0.00232508 -0.000380245 -0.00113636)
(0.00235579 2.92788e-05 -0.00113636)
(0.00231491 0.000437913 -0.00113636)
(0.0022037 0.000833241 -0.00113636)
(0.00202553 0.00120325 -0.00113636)
(0.00178582 0.0015367 -0.00113636)
(0.00149184 0.00182346 -0.00113636)
(0.00115254 0.00205481 -0.00113636)
(0.000778215 0.00222373 -0.00113636)
(0.000380245 0.00232508 -0.00113636)
(-2.92786e-05 0.00235579 -0.00113636)
(-0.000437913 0.00231491 -0.00113636)
(-0.000833241 0.0022037 -0.00113636)
(-0.00127195 0.00236039 -0.000904547)
(-0.00166251 0.00210366 -0.000904548)
(-0.00200255 0.00178301 -0.000904547)
(-0.00228174 0.00140818 -0.000904547)
(-0.0024916 0.000990569 -0.000904547)
(-0.00262576 0.000542858 -0.000904547)
(-0.00268013 7.86516e-05 -0.000904548)
(-0.00265307 -0.000387944 -0.000904548)
(-0.0025454 -0.000842752 -0.000904548)
(-0.00236039 -0.00127195 -0.000904547)
(-0.00210366 -0.00166251 -0.000904548)
(-0.00178301 -0.00200255 -0.000904548)
(-0.00140818 -0.00228174 -0.000904547)
(-0.000990569 -0.0024916 -0.000904547)
(-0.000542858 -0.00262576 -0.000904548)
(-7.86515e-05 -0.00268013 -0.000904548)
(0.000387944 -0.00265307 -0.000904548)
(0.000842752 -0.0025454 -0.000904548)
(0.00127195 -0.00236039 -0.000904547)
(0.00166251 -0.00210366 -0.000904548)
(0.00200255 -0.00178301 -0.000904548)
(0.00228174 -0.00140818 -0.000904548)
(0.0024916 -0.000990569 -0.000904547)
(0.00262576 -0.000542858 -0.000904548)
(0.00268013 -7.86514e-05 -0.000904548)
(0.00265307 0.000387944 -0.000904548)
(0.0025454 0.000842752 -0.000904548)
(0.00236039 0.00127195 -0.000904547)
(0.00210366 0.00166251 -0.000904548)
(0.00178301 0.00200255 -0.000904548)
(0.00140818 0.00228174 -0.000904547)
(0.000990569 0.0024916 -0.000904547)
(0.000542858 0.00262576 -0.000904547)
(7.86516e-05 0.00268013 -0.000904548)
(-0.000387944 0.00265307 -0.000904548)
(-0.000842752 0.0025454 -0.000904547)
(-0.00147064 0.00227703 -0.00184921)
(-0.0018437 0.00198706 -0.00184921)
(-0.00216074 0.00163672 -0.00184921)
(-0.00241213 0.00123665 -0.00184921)
(-0.00259022 0.000798999 -0.00184921)
(-0.00268962 0.000337073 -0.00184921)
(-0.00270729 -0.000135095 -0.00184921)
(-0.0026427 -0.000603159 -0.00184921)
(-0.00249781 -0.0010529 -0.00184921)
(-0.00227703 -0.00147064 -0.00184921)
(-0.00198706 -0.0018437 -0.00184921)
(-0.00163672 -0.00216074 -0.00184921)
(-0.00123665 -0.00241213 -0.00184921)
(-0.000798999 -0.00259022 -0.00184921)
(-0.000337072 -0.00268962 -0.00184921)
(0.000135096 -0.00270729 -0.00184921)
(0.00060316 -0.0026427 -0.00184921)
(0.0010529 -0.00249781 -0.00184921)
(0.00147064 -0.00227703 -0.00184921)
(0.0018437 -0.00198706 -0.00184921)
(0.00216074 -0.00163672 -0.00184921)
(0.00241213 -0.00123665 -0.00184921)
(0.00259022 -0.000798999 -0.00184921)
(0.00268962 -0.000337072 -0.00184921)
(0.00270729 0.000135096 -0.00184921)
(0.0026427 0.00060316 -0.00184921)
(0.00249781 0.0010529 -0.00184921)
(0.00227703 0.00147064 -0.00184921)
(0.00198706 0.0018437 -0.00184921)
(0.00163672 0.00216074 -0.00184921)
(0.00123665 0.00241213 -0.00184921)
(0.000798999 0.00259022 -0.00184921)
(0.000337073 0.00268962 -0.00184921)
(-0.000135095 0.00270729 -0.00184921)
(-0.000603159 0.0026427 -0.00184921)
(-0.0010529 0.00249781 -0.00184921)
(-0.00151669 0.00261183 -0.00157993)
(-0.00194719 0.00230877 -0.00157993)
(-0.00231852 0.00193557 -0.00157993)
(-0.00261941 0.00150356 -0.00157992)
(-0.0028407 0.00102586 -0.00157992)
(-0.00297569 0.000516995 -0.00157992)
(-0.00302025 -7.58239e-06 -0.00157992)
(-0.00297305 -0.000531929 -0.00157992)
(-0.00283552 -0.00104011 -0.00157992)
(-0.00261183 -0.00151669 -0.00157993)
(-0.00230877 -0.00194719 -0.00157993)
(-0.00193557 -0.00231852 -0.00157993)
(-0.00150356 -0.00261941 -0.00157993)
(-0.00102586 -0.0028407 -0.00157993)
(-0.000516995 -0.00297569 -0.00157992)
(7.58261e-06 -0.00302025 -0.00157992)
(0.000531929 -0.00297305 -0.00157992)
(0.00104011 -0.00283552 -0.00157992)
(0.0015167 -0.00261183 -0.00157993)
(0.00194719 -0.00230877 -0.00157993)
(0.00231852 -0.00193557 -0.00157993)
(0.00261941 -0.00150356 -0.00157993)
(0.0028407 -0.00102586 -0.00157993)
(0.00297569 -0.000516995 -0.00157992)
(0.00302025 7.58267e-06 -0.00157992)
(0.00297305 0.000531929 -0.00157992)
(0.00283552 0.00104011 -0.00157992)
(0.00261183 0.0015167 -0.00157993)
(0.00230877 0.00194719 -0.00157993)
(0.00193557 0.00231852 -0.00157993)
(0.00150356 0.00261941 -0.00157992)
(0.00102586 0.0028407 -0.00157992)
(0.000516995 0.00297569 -0.00157992)
(-7.58245e-06 0.00302025 -0.00157992)
(-0.000531929 0.00297305 -0.00157992)
(-0.00104011 0.00283552 -0.00157992)
(-0.00162492 0.00289578 -0.00132994)
(-0.00210308 0.00256963 -0.00132994)
(-0.00251734 0.00216539 -0.00132994)
(-0.00285511 0.00169536 -0.00132994)
(-0.00310613 0.00117382 -0.00132994)
(-0.00326277 0.000616617 -0.00132994)
(-0.00332028 4.0674e-05 -0.00132994)
(-0.0032769 -0.000536505 -0.00132994)
(-0.00313395 -0.00109738 -0.00132994)
(-0.00289578 -0.00162492 -0.00132994)
(-0.00256963 -0.00210308 -0.00132994)
(-0.00216539 -0.00251734 -0.00132994)
(-0.00169536 -0.00285511 -0.00132994)
(-0.00117382 -0.00310613 -0.00132994)
(-0.000616617 -0.00326277 -0.00132994)
(-4.06738e-05 -0.00332028 -0.00132994)
(0.000536505 -0.0032769 -0.00132994)
(0.00109738 -0.00313395 -0.00132994)
(0.00162492 -0.00289578 -0.00132994)
(0.00210308 -0.00256963 -0.00132994)
(0.00251734 -0.00216539 -0.00132994)
(0.00285511 -0.00169536 -0.00132994)
(0.00310613 -0.00117382 -0.00132994)
(0.00326277 -0.000616617 -0.00132994)
(0.00332028 -4.06738e-05 -0.00132994)
(0.0032769 0.000536505 -0.00132994)
(0.00313395 0.00109738 -0.00132994)
(0.00289578 0.00162492 -0.00132994)
(0.00256963 0.00210308 -0.00132994)
(0.00216539 0.00251734 -0.00132994)
(0.00169536 0.00285511 -0.00132994)
(0.00117382 0.00310613 -0.00132994)
(0.000616617 0.00326277 -0.00132994)
(4.0674e-05 0.00332028 -0.00132994)
(-0.000536505 0.0032769 -0.00132994)
(-0.00109738 0.00313395 -0.00132994)
(-0.00175309 0.00292288 -0.00233197)
(-0.002234 0.00257405 -0.00233197)
(-0.00264704 0.00214702 -0.00233197)
(-0.00297965 0.00165474 -0.00233197)
(-0.00322173 0.00111219 -0.00233197)
(-0.00336591 0.000535848 -0.00233197)
(-0.00340783 -5.67771e-05 -0.00233197)
(-0.0033462 -0.000647678 -0.00233197)
(-0.00318289 -0.0012189 -0.00233197)
(-0.00292288 -0.00175309 -0.00233197)
(-0.00257405 -0.002234 -0.00233197)
(-0.00214702 -0.00264704 -0.00233197)
(-0.00165474 -0.00297965 -0.00233197)
(-0.00111219 -0.00322173 -0.00233197)
(-0.000535848 -0.00336591 -0.00233197)
(5.67774e-05 -0.00340783 -0.00233197)
(0.000647679 -0.0033462 -0.00233197)
(0.0012189 -0.00318289 -0.00233197)
(0.00175309 -0.00292288 -0.00233197)
(0.002234 -0.00257405 -0.00233197)
(0.00264704 -0.00214702 -0.00233197)
(0.00297965 -0.00165474 -0.00233197)
(0.00322173 -0.00111219 -0.00233197)
(0.00336591 -0.000535848 -0.00233197)
(0.00340783 5.67774e-05 -0.00233197)
(0.0033462 0.000647679 -0.00233197)
(0.00318289 0.0012189 -0.00233197)
(0.00292288 0.00175309 -0.00233197)
(0.00257405 0.002234 -0.00233197)
(0.00214702 0.00264704 -0.00233197)
(0.00165474 0.00297965 -0.00233197)
(0.00111219 0.00322173 -0.00233197)
(0.000535848 0.00336591 -0.00233197)
(-5.67772e-05 0.00340783 -0.00233197)
(-0.000647678 0.0033462 -0.00233197)
(-0.0012189 0.00318289 -0.00233197)
(-0.00182204 0.00318416 -0.00204525)
(-0.00234728 0.00281939 -0.00204525)
(-0.0028012 0.00236896 -0.00204525)
(-0.00317001 0.00184654 -0.00204525)
(-0.0034425 0.00126803 -0.00204525)
(-0.00361039 0.000650978 -0.00204525)
(-0.00366858 1.41504e-05 -0.00204525)
(-0.0036153 -0.000623107 -0.00204525)
(-0.00345218 -0.00124143 -0.00204525)
(-0.00318416 -0.00182204 -0.00204525)
(-0.00281939 -0.00234728 -0.00204525)
(-0.00236896 -0.0028012 -0.00204525)
(-0.00184654 -0.00317001 -0.00204525)
(-0.00126803 -0.0034425 -0.00204525)
(-0.000650977 -0.00361039 -0.00204525)
(-1.41501e-05 -0.00366858 -0.00204525)
(0.000623108 -0.0036153 -0.00204525)
(0.00124143 -0.00345218 -0.00204525)
(0.00182204 -0.00318416 -0.00204525)
(0.00234728 -0.00281939 -0.00204525)
(0.0028012 -0.00236896 -0.00204525)
(0.00317001 -0.00184654 -0.00204525)
(0.0034425 -0.00126803 -0.00204525)
(0.00361039 -0.000650977 -0.00204525)
(0.00366858 -1.415e-05 -0.00204525)
(0.0036153 0.000623108 -0.00204525)
(0.00345218 0.00124143 -0.00204525)
(0.00318416 0.00182204 -0.00204525)
(0.00281939 0.00234728 -0.00204525)
(0.00236896 0.0028012 -0.00204525)
(0.00184654 0.00317001 -0.00204525)
(0.00126803 0.0034425 -0.00204525)
(0.000650978 0.00361039 -0.00204525)
(1.41503e-05 0.00366858 -0.00204525)
(-0.000623107 0.0036153 -0.00204525)
(-0.00124143 0.00345218 -0.00204525)
(-0.00194947 0.00338109 -0.00178444)
(-0.00250697 0.0029912 -0.00178444)
(-0.0029883 0.00251042 -0.00178444)
(-0.00337883 0.00195337 -0.00178444)
(-0.0036667 0.00133697 -0.00178444)
(-0.00384315 0.000679944 -0.00178444)
(-0.00390284 2.25823e-06 -0.00178444)
(-0.00384394 -0.000675498 -0.00178444)
(-0.00366824 -0.00133273 -0.00178444)
(-0.00338109 -0.00194947 -0.00178444)
(-0.0029912 -0.00250697 -0.00178444)
(-0.00251042 -0.0029883 -0.00178444)
(-0.00195337 -0.00337883 -0.00178444)
(-0.00133697 -0.0036667 -0.00178444)
(-0.000679943 -0.00384315 -0.00178444)
(-2.25797e-06 -0.00390284 -0.00178444)
(0.000675498 -0.00384394 -0.00178444)
(0.00133273 -0.00366824 -0.00178444)
(0.00194947 -0.00338109 -0.00178444)
(0.00250697 -0.0029912 -0.00178444)
(0.0029883 -0.00251042 -0.00178444)
(0.00337883 -0.00195337 -0.00178444)
(0.0036667 -0.00133697 -0.00178444)
(0.00384315 -0.000679943 -0.00178444)
(0.00390284 -2.25792e-06 -0.00178444)
(0.00384394 0.000675498 -0.00178444)
(0.00366824 0.00133273 -0.00178444)
(0.00338109 0.00194947 -0.00178444)
(0.0029912 0.00250697 -0.00178444)
(0.00251042 0.0029883 -0.00178444)
(0.00195337 0.00337883 -0.00178444)
(0.00133697 0.0036667 -0.00178444)
(0.000679944 0.00384316 -0.00178444)
(2.25819e-06 0.00390284 -0.00178444)
(-0.000675498 0.00384394 -0.00178444)
(-0.00133273 0.00366824 -0.00178444)
(-0.00205809 0.00354867 -0.00283407)
(-0.00264304 0.00313737 -0.00283407)
(-0.00314769 0.00263075 -0.00283407)
(-0.00355669 0.00204419 -0.00283407)
(-0.00385763 0.00139552 -0.00283407)
(-0.00404135 0.000704452 -0.00283407)
(-0.00410228 -8.02312e-06 -0.00283407)
(-0.00403856 -0.000720256 -0.00283407)
(-0.00385214 -0.0014106 -0.00283407)
(-0.00354867 -0.00205809 -0.00283407)
(-0.00313737 -0.00264304 -0.00283407)
(-0.00263075 -0.00314769 -0.00283407)
(-0.00204419 -0.00355669 -0.00283407)
(-0.00139552 -0.00385763 -0.00283407)
(-0.000704452 -0.00404135 -0.00283407)
(8.02348e-06 -0.00410228 -0.00283407)
(0.000720256 -0.00403856 -0.00283407)
(0.0014106 -0.00385214 -0.00283407)
(0.00205809 -0.00354867 -0.00283407)
(0.00264304 -0.00313737 -0.00283407)
(0.00314769 -0.00263075 -0.00283407)
(0.00355669 -0.00204419 -0.00283407)
(0.00385763 -0.00139552 -0.00283407)
(0.00404135 -0.000704452 -0.00283407)
(0.00410228 8.02351e-06 -0.00283407)
(0.00403856 0.000720256 -0.00283407)
(0.00385214 0.0014106 -0.00283407)
(0.00354867 0.00205809 -0.00283407)
(0.00313737 0.00264304 -0.00283407)
(0.00263075 0.00314769 -0.00283407)
(0.00204419 0.00355669 -0.00283407)
(0.00139552 0.00385763 -0.00283407)
(0.000704452 0.00404135 -0.00283407)
(-8.02318e-06 0.00410228 -0.00283407)
(-0.000720256 0.00403857 -0.00283407)
(-0.0014106 0.00385214 -0.00283407)
(-0.0021289 0.00371457 -0.00252898)
(-0.00274158 0.00328846 -0.00252898)
(-0.00327097 0.00276243 -0.00252898)
(-0.00370097 0.00215247 -0.00252898)
(-0.00401851 0.0014771 -0.00252898)
(-0.00421396 0.000756855 -0.00252898)
(-0.00428136 1.36095e-05 -0.00252898)
(-0.00421868 -0.000730048 -0.00252898)
(-0.00402782 -0.00145153 -0.00252898)
(-0.00371457 -0.0021289 -0.00252898)
(-0.00328846 -0.00274158 -0.00252898)
(-0.00276243 -0.00327097 -0.00252898)
(-0.00215247 -0.00370097 -0.00252898)
(-0.0014771 -0.00401851 -0.00252898)
(-0.000756854 -0.00421396 -0.00252898)
(-1.36091e-05 -0.00428136 -0.00252898)
(0.000730048 -0.00421868 -0.00252898)
(0.00145153 -0.00402782 -0.00252898)
(0.0021289 -0.00371457 -0.00252898)
(0.00274158 -0.00328846 -0.00252898)
(0.00327097 -0.00276243 -0.00252898)
(0.00370097 -0.00215247 -0.00252898)
(0.00401851 -0.0014771 -0.00252898)
(0.00421396 -0.000756854 -0.00252898)
(0.00428136 -1.36091e-05 -0.00252898)
(0.00421868 0.000730048 -0.00252898)
(0.00402782 0.00145153 -0.00252898)
(0.00371457 0.0021289 -0.00252898)
(0.00328846 0.00274158 -0.00252898)
(0.00276243 0.00327097 -0.00252898)
(0.00215247 0.00370097 -0.00252898)
(0.0014771 0.00401851 -0.00252898)
(0.000756855 0.00421396 -0.00252898)
(1.36094e-05 0.00428136 -0.00252898)
(-0.000730048 0.00421868 -0.00252898)
(-0.00145153 0.00402782 -0.00252898)
(-0.00225161 0.00380827 -0.00225509)
(-0.0028787 0.00335942 -0.00225509)
(-0.00341832 0.0028085 -0.00225509)
(-0.00385408 0.00217225 -0.00225509)
(-0.00417274 0.00147 -0.00225509)
(-0.00436461 0.000723076 -0.00225509)
(-0.00442386 -4.58153e-05 -0.00225509)
(-0.00434869 -0.000813314 -0.00225509)
(-0.0041414 -0.0015561 -0.00225509)
(-0.00380827 -0.00225161 -0.00225509)
(-0.00335942 -0.0028787 -0.00225509)
(-0.0028085 -0.00341832 -0.0022551)
(-0.00217225 -0.00385408 -0.00225509)
(-0.00147 -0.00417274 -0.00225509)
(-0.000723076 -0.00436461 -0.00225509)
(4.58157e-05 -0.00442386 -0.00225509)
(0.000813315 -0.00434869 -0.00225509)
(0.0015561 -0.0041414 -0.00225509)
(0.00225161 -0.00380827 -0.0022551)
(0.0028787 -0.00335942 -0.00225509)
(0.00341832 -0.0028085 -0.0022551)
(0.00385408 -0.00217225 -0.00225509)
(0.00417274 -0.00147 -0.00225509)
(0.00436461 -0.000723076 -0.00225509)
(0.00442386 4.58157e-05 -0.00225509)
(0.00434869 0.000813315 -0.00225509)
(0.0041414 0.0015561 -0.00225509)
(0.00380827 0.00225161 -0.00225509)
(0.00335942 0.0028787 -0.00225509)
(0.0028085 0.00341832 -0.00225509)
(0.00217225 0.00385408 -0.00225509)
(0.00147 0.00417274 -0.00225509)
(0.000723076 0.00436461 -0.00225509)
(-4.58154e-05 0.00442386 -0.00225509)
(-0.000813314 0.00434869 -0.00225509)
(-0.0015561 0.0041414 -0.00225509)
(-0.00238959 0.00409968 -0.00335716)
(-0.00306519 0.00362245 -0.00335716)
(-0.00364765 0.00303515 -0.00335716)
(-0.00411929 0.00235563 -0.00335717)
(-0.00446576 0.00160454 -0.00335717)
(-0.00467654 0.000804692 -0.00335716)
(-0.00474522 -1.96051e-05 -0.00335716)
(-0.00466973 -0.000843308 -0.00335716)
(-0.00445235 -0.00164139 -0.00335716)
(-0.00409968 -0.00238959 -0.00335716)
(-0.00362245 -0.00306519 -0.00335716)