/*--------------------------------*- C++ -*----------------------------------*\
| =========                 |                                                 |
| \\      /  F ield         | OpenFOAM: The Open Source CFD Toolbox           |
|  \\    /   O peration     | Version:  2312                                  |
|   \\  /    A nd           | Website:  www.openfoam.com                      |
|    \\/     M anipulation  |                                                 |
\*---------------------------------------------------------------------------*/
FoamFile
{
    version     2.0;
    format      ascii;
    arch        "LSB;label=32;scalar=64";
    class       volVectorField;
    location    "1";
    object      D_0_0_0;
}
// * * * * * * * * * * * * * * * * * * * * * * * * * * * * * * * * * * * * * //

dimensions      [0 1 0 0 0 0 0];

internalField   nonuniform List<vector> 
1620
(
(-0.000272816 0.000195175 -0.00015057)
(-0.000302562 0.000144836 -0.000150571)
(-0.000323117 9.00959e-05 -0.00015057)
(-0.000333853 3.26195e-05 -0.00015057)
(-0.000334445 -2.58484e-05 -0.00015057)
(-0.000324876 -8.35318e-05 -0.00015057)
(-0.000305435 -0.000138677 -0.00015057)
(-0.000276714 -0.000189608 -0.00015057)
(-0.000239584 -0.000234779 -0.00015057)
(-0.000195175 -0.000272816 -0.00015057)
(-0.000144836 -0.000302562 -0.000150571)
(-9.00958e-05 -0.000323117 -0.00015057)
(-3.26194e-05 -0.000333853 -0.00015057)
(2.58484e-05 -0.000334445 -0.00015057)
(8.35319e-05 -0.000324876 -0.00015057)
(0.000138677 -0.000305435 -0.00015057)
(0.000189608 -0.000276714 -0.00015057)
(0.000234779 -0.000239584 -0.00015057)
(0.000272816 -0.000195175 -0.00015057)
(0.000302562 -0.000144836 -0.000150571)
(0.000323117 -9.00958e-05 -0.00015057)
(0.000333853 -3.26194e-05 -0.00015057)
(0.000334445 2.58484e-05 -0.00015057)
(0.000324876 8.35319e-05 -0.00015057)
(0.000305435 0.000138677 -0.00015057)
(0.000276714 0.000189608 -0.00015057)
(0.000239584 0.000234779 -0.00015057)
(0.000195175 0.000272816 -0.00015057)
(0.000144836 0.000302562 -0.000150571)
(9.00959e-05 0.000323117 -0.00015057)
(3.26195e-05 0.000333853 -0.00015057)
(-2.58484e-05 0.000334445 -0.00015057)
(-8.35318e-05 0.000324876 -0.00015057)
(-0.000138677 0.000305435 -0.00015057)
(-0.000189608 0.000276714 -0.00015057)
(-0.000234779 0.000239584 -0.00015057)
(-0.000175057 0.000288134 -0.000103595)
(-0.000222431 0.000253358 -0.000103595)
(-0.000263047 0.000210884 -0.000103595)
(-0.000295671 0.000162003 -0.000103595)
(-0.000319311 0.000108199 -0.000103595)
(-0.000333248 5.11076e-05 -0.000103595)
(-0.00033706 -7.53677e-06 -0.000103595)
(-0.000330631 -6.5952e-05 -0.000103595)
(-0.000314155 -0.000122364 -0.000103595)
(-0.000288134 -0.000175057 -0.000103595)
(-0.000253358 -0.000222431 -0.000103595)
(-0.000210884 -0.000263047 -0.000103595)
(-0.000162003 -0.000295671 -0.000103595)
(-0.000108199 -0.000319311 -0.000103595)
(-5.11076e-05 -0.000333248 -0.000103595)
(7.53679e-06 -0.00033706 -0.000103595)
(6.59521e-05 -0.000330631 -0.000103595)
(0.000122364 -0.000314155 -0.000103595)
(0.000175057 -0.000288134 -0.000103595)
(0.000222431 -0.000253358 -0.000103595)
(0.000263047 -0.000210884 -0.000103595)
(0.000295671 -0.000162003 -0.000103595)
(0.000319311 -0.000108199 -0.000103595)
(0.000333248 -5.11076e-05 -0.000103595)
(0.00033706 7.5368e-06 -0.000103595)
(0.000330631 6.59521e-05 -0.000103595)
(0.000314155 0.000122364 -0.000103595)
(0.000288134 0.000175057 -0.000103595)
(0.000253358 0.000222432 -0.000103595)
(0.000210884 0.000263047 -0.000103595)
(0.000162003 0.000295671 -0.000103595)
(0.000108199 0.000319311 -0.000103595)
(5.11076e-05 0.000333248 -0.000103595)
(-7.53678e-06 0.00033706 -0.000103595)
(-6.59521e-05 0.000330631 -0.000103595)
(-0.000122364 0.000314155 -0.000103595)
(-0.000109749 0.000382758 -5.62268e-05)
(-0.000174547 0.000357885 -5.62268e-05)
(-0.000234042 0.000322139 -5.62271e-05)
(-0.000286424 0.000276603 -5.62268e-05)
(-0.000330106 0.000222664 -5.6227e-05)
(-0.000363755 0.000161959 -5.62268e-05)
(-0.000386353 9.6333e-05 -5.6227e-05)
(-0.000397212 2.778e-05 -5.62271e-05)
(-0.000396001 -4.16171e-05 -5.62269e-05)
(-0.000382758 -0.000109749 -5.62268e-05)
(-0.000357885 -0.000174547 -5.62268e-05)
(-0.000322139 -0.000234042 -5.62271e-05)
(-0.000276603 -0.000286424 -5.62268e-05)
(-0.000222664 -0.000330106 -5.6227e-05)
(-0.000161959 -0.000363755 -5.62268e-05)
(-9.6333e-05 -0.000386353 -5.6227e-05)
(-2.778e-05 -0.000397212 -5.62271e-05)
(4.16171e-05 -0.000396001 -5.62269e-05)
(0.000109749 -0.000382758 -5.62268e-05)
(0.000174547 -0.000357885 -5.62268e-05)
(0.000234042 -0.000322139 -5.62271e-05)
(0.000286424 -0.000276603 -5.62269e-05)
(0.000330106 -0.000222664 -5.6227e-05)
(0.000363755 -0.000161959 -5.62268e-05)
(0.000386353 -9.6333e-05 -5.6227e-05)
(0.000397212 -2.77799e-05 -5.62271e-05)
(0.000396001 4.16171e-05 -5.62269e-05)
(0.000382758 0.000109749 -5.62268e-05)
(0.000357885 0.000174547 -5.62268e-05)
(0.000322139 0.000234042 -5.62271e-05)
(0.000276603 0.000286425 -5.62268e-05)
(0.000222664 0.000330106 -5.6227e-05)
(0.000161959 0.000363755 -5.62268e-05)
(9.6333e-05 0.000386353 -5.6227e-05)
(2.77799e-05 0.000397212 -5.62271e-05)
(-4.16171e-05 0.000396001 -5.62268e-05)
(-0.000603607 0.000620784 -0.00050058)
(-0.000702235 0.000506538 -0.000500581)
(-0.000779527 0.000376901 -0.000500581)
(-0.000833132 0.000235812 -0.000500579)
(-0.000861423 8.75593e-05 -0.000500578)
(-0.000863541 -6.33554e-05 -0.000500578)
(-0.000839421 -0.000212346 -0.000500579)
(-0.000789794 -0.000354883 -0.000500579)
(-0.000716169 -0.000486639 -0.00050058)
(-0.000620784 -0.000603607 -0.00050058)
(-0.000506538 -0.000702235 -0.000500581)
(-0.0003769 -0.000779527 -0.000500581)
(-0.000235812 -0.000833132 -0.000500579)
(-8.75592e-05 -0.000861423 -0.000500578)
(6.33555e-05 -0.000863541 -0.000500579)
(0.000212346 -0.000839421 -0.000500579)
(0.000354883 -0.000789794 -0.000500579)
(0.000486639 -0.000716169 -0.00050058)
(0.000603607 -0.000620784 -0.00050058)
(0.000702235 -0.000506538 -0.000500581)
(0.000779527 -0.0003769 -0.000500581)
(0.000833132 -0.000235812 -0.000500579)
(0.000861424 -8.75591e-05 -0.000500578)
(0.000863541 6.33555e-05 -0.000500579)
(0.000839421 0.000212346 -0.000500579)
(0.000789794 0.000354883 -0.000500579)
(0.000716169 0.000486639 -0.00050058)
(0.000620784 0.000603607 -0.00050058)
(0.000506538 0.000702235 -0.000500581)
(0.000376901 0.000779527 -0.000500581)
(0.000235812 0.000833132 -0.000500578)
(8.75592e-05 0.000861424 -0.000500578)
(-6.33554e-05 0.000863541 -0.000500578)
(-0.000212346 0.000839421 -0.000500579)
(-0.000354883 0.000789794 -0.000500579)
(-0.000486639 0.000716169 -0.00050058)
(-0.000527749 0.000861489 -0.00036654)
(-0.000669327 0.000756757 -0.00036654)
(-0.000790568 0.000629034 -0.00036654)
(-0.000887788 0.000482198 -0.00036654)
(-0.000958034 0.00032071 -0.000366539)
(-0.00099917 0.000149476 -0.00036654)
(-0.00100995 -2.62992e-05 -0.00036654)
(-0.000990036 -0.000201275 -0.00036654)
(-0.000940044 -0.000370135 -0.00036654)
(-0.000861489 -0.000527749 -0.00036654)
(-0.000756757 -0.000669327 -0.00036654)
(-0.000629034 -0.000790568 -0.00036654)
(-0.000482198 -0.000887788 -0.00036654)
(-0.00032071 -0.000958034 -0.000366539)
(-0.000149476 -0.00099917 -0.00036654)
(2.62992e-05 -0.00100995 -0.00036654)
(0.000201275 -0.000990036 -0.00036654)
(0.000370135 -0.000940044 -0.00036654)
(0.000527749 -0.000861489 -0.00036654)
(0.000669327 -0.000756757 -0.00036654)
(0.000790568 -0.000629034 -0.00036654)
(0.000887788 -0.000482198 -0.00036654)
(0.000958034 -0.00032071 -0.000366539)
(0.00099917 -0.000149476 -0.00036654)
(0.00100995 2.62993e-05 -0.00036654)
(0.000990036 0.000201275 -0.00036654)
(0.000940044 0.000370135 -0.00036654)
(0.000861489 0.000527749 -0.00036654)
(0.000756757 0.000669327 -0.00036654)
(0.000629034 0.000790568 -0.00036654)
(0.000482198 0.000887788 -0.00036654)
(0.00032071 0.000958034 -0.000366539)
(0.000149476 0.00099917 -0.000366539)
(-2.62992e-05 0.00100995 -0.00036654)
(-0.000201275 0.000990036 -0.000366539)
(-0.000370135 0.000940044 -0.00036654)
(-0.000497044 0.00110115 -0.000234466)
(-0.000680704 0.000998107 -0.000234465)
(-0.000843681 0.000864741 -0.000234465)
(-0.000981024 0.0007051 -0.000234465)
(-0.00108856 0.000524035 -0.000234465)
(-0.00116302 0.000327047 -0.000234465)
(-0.00120214 0.000120121 -0.000234465)
(-0.00120474 -9.04532e-05 -0.000234465)
(-0.00117073 -0.00029828 -0.000234466)
(-0.00110115 -0.000497044 -0.000234466)
(-0.000998107 -0.000680704 -0.000234465)
(-0.000864741 -0.000843681 -0.000234465)
(-0.0007051 -0.000981024 -0.000234465)
(-0.000524035 -0.00108856 -0.000234465)
(-0.000327047 -0.00116302 -0.000234465)
(-0.000120121 -0.00120214 -0.000234466)
(9.04532e-05 -0.00120474 -0.000234465)
(0.00029828 -0.00117073 -0.000234466)
(0.000497044 -0.00110115 -0.000234466)
(0.000680704 -0.000998107 -0.000234465)
(0.000843681 -0.000864741 -0.000234465)
(0.000981024 -0.0007051 -0.000234465)
(0.00108856 -0.000524035 -0.000234465)
(0.00116302 -0.000327047 -0.000234465)
(0.00120214 -0.000120121 -0.000234466)
(0.00120474 9.04532e-05 -0.000234465)
(0.00117073 0.00029828 -0.000234466)
(0.00110115 0.000497044 -0.000234466)
(0.000998107 0.000680704 -0.000234465)
(0.000864741 0.000843681 -0.000234465)
(0.0007051 0.000981024 -0.000234465)
(0.000524035 0.00108856 -0.000234465)
(0.000327047 0.00116302 -0.000234465)
(0.000120121 0.00120214 -0.000234465)
(-9.04532e-05 0.00120474 -0.000234465)
(-0.00029828 0.00117073 -0.000234465)
(-0.000911256 0.00110427 -0.000920783)
(-0.00108917 0.000929257 -0.000920783)
(-0.00123398 0.000726008 -0.000920783)
(-0.00134131 0.0005007 -0.000920781)
(-0.00140788 0.000260179 -0.00092078)
(-0.00143167 1.17516e-05 -0.00092078)
(-0.00141196 -0.000237034 -0.00092078)
(-0.00134934 -0.000478617 -0.000920781)
(-0.00124573 -0.000705657 -0.000920782)
(-0.00110427 -0.000911256 -0.000920783)
(-0.000929257 -0.00108917 -0.000920783)
(-0.000726008 -0.00123398 -0.000920783)
(-0.0005007 -0.00134131 -0.000920781)
(-0.000260179 -0.00140788 -0.00092078)
(-1.17515e-05 -0.00143167 -0.00092078)
(0.000237034 -0.00141196 -0.00092078)
(0.000478617 -0.00134934 -0.000920781)
(0.000705657 -0.00124573 -0.000920782)
(0.000911257 -0.00110427 -0.000920783)
(0.00108917 -0.000929257 -0.000920783)
(0.00123398 -0.000726008 -0.000920783)
(0.00134131 -0.0005007 -0.000920781)
(0.00140788 -0.000260179 -0.00092078)
(0.00143167 -1.17514e-05 -0.00092078)
(0.00141196 0.000237034 -0.00092078)
(0.00134934 0.000478617 -0.000920781)
(0.00124573 0.000705657 -0.000920782)
(0.00110427 0.000911257 -0.000920783)
(0.000929257 0.00108917 -0.000920783)
(0.000726008 0.00123398 -0.000920783)
(0.0005007 0.00134131 -0.000920781)
(0.000260179 0.00140788 -0.00092078)
(1.17516e-05 0.00143167 -0.000920779)
(-0.000237034 0.00141196 -0.00092078)
(-0.000478617 0.00134935 -0.000920781)
(-0.000705657 0.00124573 -0.000920782)
(-0.000872629 0.00144294 -0.000720903)
(-0.00110993 0.00126948 -0.000720903)
(-0.00131352 0.00105746 -0.000720903)
(-0.00147719 0.000813306 -0.000720902)
(-0.00159597 0.00054444 -0.000720901)
(-0.00166627 0.00025903 -0.000720902)
(-0.00168593 -3.425e-05 -0.000720902)
(-0.00165437 -0.00032649 -0.000720902)
(-0.00157255 -0.000608808 -0.000720903)
(-0.00144294 -0.000872629 -0.000720903)
(-0.00126948 -0.00110993 -0.000720903)
(-0.00105746 -0.00131352 -0.000720903)
(-0.000813306 -0.00147719 -0.000720902)
(-0.00054444 -0.00159597 -0.000720901)
(-0.00025903 -0.00166627 -0.000720902)
(3.42501e-05 -0.00168593 -0.000720902)
(0.00032649 -0.00165437 -0.000720902)
(0.000608809 -0.00157255 -0.000720903)
(0.000872629 -0.00144294 -0.000720903)
(0.00110993 -0.00126948 -0.000720903)
(0.00131352 -0.00105746 -0.000720903)
(0.00147719 -0.000813306 -0.000720902)
(0.00159597 -0.00054444 -0.000720901)
(0.00166627 -0.00025903 -0.000720902)
(0.00168593 3.42501e-05 -0.000720902)
(0.00165437 0.00032649 -0.000720902)
(0.00157255 0.000608809 -0.000720902)
(0.00144294 0.000872629 -0.000720903)
(0.00126948 0.00110993 -0.000720903)
(0.00105746 0.00131352 -0.000720903)
(0.000813306 0.00147719 -0.000720902)
(0.00054444 0.00159597 -0.000720901)
(0.00025903 0.00166627 -0.000720901)
(-3.425e-05 0.00168593 -0.000720902)
(-0.00032649 0.00165437 -0.000720902)
(-0.000608809 0.00157255 -0.000720902)
(-0.000889532 0.00176641 -0.00052695)
(-0.00118275 0.0015851 -0.00052695)
(-0.00144003 0.00135564 -0.00052695)
(-0.00165356 0.00108499 -0.00052695)
(-0.00181684 0.000781367 -0.000526951)
(-0.00192493 0.000454004 -0.00052695)
(-0.00197452 0.000112846 -0.00052695)
(-0.00196412 -0.00023174 -0.00052695)
(-0.00189404 -0.000569285 -0.00052695)
(-0.00176641 -0.000889532 -0.00052695)
(-0.0015851 -0.00118275 -0.00052695)
(-0.00135564 -0.00144003 -0.00052695)
(-0.00108499 -0.00165356 -0.000526951)
(-0.000781367 -0.00181684 -0.000526951)
(-0.000454004 -0.00192493 -0.000526951)
(-0.000112846 -0.00197452 -0.00052695)
(0.00023174 -0.00196412 -0.00052695)
(0.000569285 -0.00189404 -0.00052695)
(0.000889532 -0.00176641 -0.00052695)
(0.00118275 -0.0015851 -0.00052695)
(0.00144003 -0.00135564 -0.00052695)
(0.00165356 -0.00108499 -0.000526951)
(0.00181684 -0.000781367 -0.000526951)
(0.00192493 -0.000454004 -0.000526951)
(0.00197452 -0.000112846 -0.00052695)
(0.00196412 0.00023174 -0.00052695)
(0.00189404 0.000569285 -0.00052695)
(0.00176641 0.000889532 -0.00052695)
(0.0015851 0.00118275 -0.00052695)
(0.00135564 0.00144003 -0.00052695)
(0.00108499 0.00165356 -0.00052695)
(0.000781367 0.00181684 -0.00052695)
(0.000454004 0.00192493 -0.00052695)
(0.000112846 0.00197452 -0.00052695)
(-0.00023174 0.00196412 -0.00052695)
(-0.000569285 0.00189404 -0.00052695)
(-0.00119458 0.00166338 -0.00137347)
(-0.00146527 0.00143067 -0.00137347)
(-0.00169145 0.00115449 -0.00137347)
(-0.00186623 0.000843237 -0.00137347)
(-0.0019843 0.000506361 -0.00137347)
(-0.00204208 0.000154098 -0.00137347)
(-0.00203782 -0.000202848 -0.00137347)
(-0.00197163 -0.00055363 -0.00137347)
(-0.00184554 -0.000887589 -0.00137347)
(-0.00166338 -0.00119458 -0.00137347)
(-0.00143067 -0.00146527 -0.00137347)
(-0.00115449 -0.00169145 -0.00137347)
(-0.000843237 -0.00186623 -0.00137347)
(-0.00050636 -0.0019843 -0.00137347)
(-0.000154098 -0.00204208 -0.00137347)
(0.000202848 -0.00203782 -0.00137347)
(0.00055363 -0.00197163 -0.00137347)
(0.000887589 -0.00184554 -0.00137347)
(0.00119458 -0.00166338 -0.00137347)
(0.00146527 -0.00143067 -0.00137347)
(0.00169145 -0.00115449 -0.00137347)
(0.00186623 -0.000843237 -0.00137347)
(0.0019843 -0.00050636 -0.00137347)
(0.00204208 -0.000154098 -0.00137347)
(0.00203782 0.000202848 -0.00137347)
(0.00197163 0.00055363 -0.00137347)
(0.00184554 0.000887589 -0.00137347)
(0.00166338 0.00119458 -0.00137347)
(0.00143067 0.00146527 -0.00137347)
(0.00115449 0.00169145 -0.00137347)
(0.000843237 0.00186623 -0.00137347)
(0.000506361 0.0019843 -0.00137347)
(0.000154098 0.00204208 -0.00137347)
(-0.000202848 0.00203782 -0.00137347)
(-0.00055363 0.00197163 -0.00137347)
(-0.000887589 0.00184554 -0.00137347)
(-0.00120117 0.00202917 -0.00113042)
(-0.00153529 0.00178976 -0.00113042)
(-0.00182275 0.00149597 -0.00113042)
(-0.00205483 0.00115673 -0.00113042)
(-0.00222448 0.000782339 -0.00113042)
(-0.00232653 0.000384177 -0.00113042)
(-0.0023579 -2.56577e-05 -0.00113042)
(-0.00231762 -0.000434714 -0.00113042)
(-0.00220693 -0.000830561 -0.00113042)
(-0.00202917 -0.00120117 -0.00113042)
(-0.00178976 -0.00153529 -0.00113042)
(-0.00149597 -0.00182275 -0.00113042)
(-0.00115673 -0.00205483 -0.00113042)
(-0.000782339 -0.00222448 -0.00113042)
(-0.000384177 -0.00232653 -0.00113042)
(2.56579e-05 -0.0023579 -0.00113042)
(0.000434714 -0.00231762 -0.00113042)
(0.000830561 -0.00220693 -0.00113042)
(0.00120117 -0.00202917 -0.00113042)
(0.00153529 -0.00178976 -0.00113042)
(0.00182275 -0.00149597 -0.00113042)
(0.00205483 -0.00115673 -0.00113042)
(0.00222448 -0.000782339 -0.00113042)
(0.00232653 -0.000384177 -0.00113042)
(0.0023579 2.56579e-05 -0.00113042)
(0.00231762 0.000434714 -0.00113042)
(0.00220693 0.000830561 -0.00113042)
(0.00202917 0.00120117 -0.00113042)
(0.00178976 0.00153529 -0.00113042)
(0.00149597 0.00182275 -0.00113042)
(0.00115673 0.00205483 -0.00113042)
(0.000782339 0.00222448 -0.00113042)
(0.000384177 0.00232653 -0.00113042)
(-2.56578e-05 0.0023579 -0.00113042)
(-0.000434714 0.00231762 -0.00113042)
(-0.000830561 0.00220693 -0.00113042)
(-0.00126918 0.00236148 -0.000899564)
(-0.00165996 0.00210521 -0.000899565)
(-0.00200031 0.00178498 -0.000899565)
(-0.00227988 0.00141051 -0.000899565)
(-0.00249017 0.000993189 -0.000899565)
(-0.00262481 0.000545686 -0.000899565)
(-0.00267969 8.16014e-05 -0.000899565)
(-0.00265315 -0.000384962 -0.000899565)
(-0.00254599 -0.000839829 -0.000899565)
(-0.00236148 -0.00126918 -0.000899565)
(-0.00210521 -0.00165996 -0.000899565)
(-0.00178498 -0.00200031 -0.000899565)
(-0.00141051 -0.00227988 -0.000899565)
(-0.000993189 -0.00249017 -0.000899565)
(-0.000545686 -0.00262481 -0.000899565)
(-8.16012e-05 -0.00267969 -0.000899565)
(0.000384962 -0.00265315 -0.000899565)
(0.000839829 -0.00254599 -0.000899565)
(0.00126918 -0.00236148 -0.000899565)
(0.00165996 -0.00210521 -0.000899565)
(0.00200031 -0.00178498 -0.000899565)
(0.00227988 -0.00141051 -0.000899565)
(0.00249017 -0.000993189 -0.000899565)
(0.00262481 -0.000545686 -0.000899565)
(0.00267969 -8.16012e-05 -0.000899565)
(0.00265315 0.000384962 -0.000899565)
(0.00254599 0.000839829 -0.000899565)
(0.00236148 0.00126918 -0.000899565)
(0.00210521 0.00165996 -0.000899565)
(0.00178498 0.00200031 -0.000899565)
(0.00141051 0.00227988 -0.000899565)
(0.000993189 0.00249017 -0.000899565)
(0.000545686 0.00262481 -0.000899565)
(8.16013e-05 0.00267969 -0.000899565)
(-0.000384962 0.00265315 -0.000899565)
(-0.000839829 0.00254599 -0.000899565)
(-0.0014691 0.00228264 -0.00184106)
(-0.00184316 0.00199285 -0.00184106)
(-0.00216122 0.00164252 -0.00184106)
(-0.0024136 0.00124227 -0.00184106)
(-0.00259265 0.000804282 -0.00184106)
(-0.00269292 0.000341854 -0.00184106)
(-0.00271138 -0.000130961 -0.00184106)
(-0.00264744 -0.000599798 -0.00184106)
(-0.00250307 -0.00105041 -0.00184106)
(-0.00228264 -0.0014691 -0.00184106)
(-0.00199285 -0.00184316 -0.00184106)
(-0.00164252 -0.00216122 -0.00184106)
(-0.00124227 -0.0024136 -0.00184106)
(-0.000804282 -0.00259265 -0.00184106)
(-0.000341854 -0.00269292 -0.00184106)
(0.000130962 -0.00271138 -0.00184106)
(0.000599798 -0.00264744 -0.00184106)
(0.00105041 -0.00250307 -0.00184106)
(0.00146911 -0.00228264 -0.00184106)
(0.00184316 -0.00199285 -0.00184106)
(0.00216122 -0.00164252 -0.00184106)
(0.0024136 -0.00124227 -0.00184106)
(0.00259265 -0.000804282 -0.00184106)
(0.00269293 -0.000341854 -0.00184106)
(0.00271138 0.000130962 -0.00184106)
(0.00264744 0.000599799 -0.00184106)
(0.00250307 0.00105041 -0.00184106)
(0.00228264 0.00146911 -0.00184106)
(0.00199285 0.00184316 -0.00184106)
(0.00164252 0.00216122 -0.00184106)
(0.00124227 0.0024136 -0.00184106)
(0.000804282 0.00259265 -0.00184106)
(0.000341854 0.00269293 -0.00184106)
(-0.000130961 0.00271138 -0.00184106)
(-0.000599798 0.00264744 -0.00184106)
(-0.00105041 0.00250307 -0.00184106)
(-0.00151449 0.002615 -0.00157282)
(-0.00194557 0.00231228 -0.00157282)
(-0.00231754 0.00193931 -0.00157282)
(-0.00261909 0.00150741 -0.00157281)
(-0.00284105 0.00102971 -0.00157281)
(-0.0029767 0.00052072 -0.00157281)
(-0.0030219 -4.08947e-06 -0.00157281)
(-0.00297528 -0.000528775 -0.00157281)
(-0.00283826 -0.00103739 -0.00157281)
(-0.002615 -0.00151449 -0.00157282)
(-0.00231228 -0.00194557 -0.00157282)
(-0.00193931 -0.00231754 -0.00157282)
(-0.00150741 -0.00261909 -0.00157282)
(-0.00102971 -0.00284105 -0.00157282)
(-0.00052072 -0.0029767 -0.00157281)
(4.08969e-06 -0.0030219 -0.00157281)
(0.000528775 -0.00297528 -0.00157282)
(0.00103739 -0.00283826 -0.00157281)
(0.00151449 -0.002615 -0.00157282)
(0.00194557 -0.00231228 -0.00157282)
(0.00231754 -0.00193931 -0.00157282)
(0.00261909 -0.00150741 -0.00157282)
(0.00284106 -0.00102971 -0.00157282)
(0.0029767 -0.00052072 -0.00157281)
(0.0030219 4.08972e-06 -0.00157281)
(0.00297528 0.000528775 -0.00157281)
(0.00283826 0.00103739 -0.00157281)
(0.002615 0.00151449 -0.00157282)
(0.00231228 0.00194557 -0.00157282)
(0.00193931 0.00231754 -0.00157282)
(0.00150741 0.00261909 -0.00157281)
(0.00102971 0.00284106 -0.00157281)
(0.00052072 0.0029767 -0.00157281)
(-4.0895e-06 0.0030219 -0.00157281)
(-0.000528775 0.00297528 -0.00157281)
(-0.00103739 0.00283826 -0.00157281)
(-0.00162163 0.00289687 -0.00132366)
(-0.00210003 0.00257127 -0.00132366)
(-0.00251462 0.00216754 -0.00132366)
(-0.00285281 0.00169795 -0.00132366)
(-0.00310432 0.00117677 -0.00132366)
(-0.0032615 0.000619834 -0.00132366)
(-0.00331958 4.40637e-05 -0.00132366)
(-0.0032768 -0.000533046 -0.00132366)
(-0.00313446 -0.00109396 -0.00132366)
(-0.00289687 -0.00162163 -0.00132366)
(-0.00257127 -0.00210003 -0.00132366)
(-0.00216754 -0.00251462 -0.00132366)
(-0.00169795 -0.00285281 -0.00132366)
(-0.00117677 -0.00310432 -0.00132366)
(-0.000619834 -0.0032615 -0.00132366)
(-4.40635e-05 -0.00331958 -0.00132366)
(0.000533046 -0.0032768 -0.00132366)
(0.00109396 -0.00313446 -0.00132366)
(0.00162163 -0.00289687 -0.00132366)
(0.00210003 -0.00257127 -0.00132366)
(0.00251463 -0.00216754 -0.00132366)
(0.00285281 -0.00169795 -0.00132366)
(0.00310432 -0.00117677 -0.00132366)
(0.0032615 -0.000619834 -0.00132366)
(0.00331958 -4.40635e-05 -0.00132366)
(0.0032768 0.000533046 -0.00132366)
(0.00313446 0.00109396 -0.00132366)
(0.00289687 0.00162163 -0.00132366)
(0.00257127 0.00210003 -0.00132366)
(0.00216754 0.00251463 -0.00132366)
(0.00169795 0.00285281 -0.00132366)
(0.00117677 0.00310432 -0.00132366)
(0.000619834 0.0032615 -0.00132366)
(4.40637e-05 0.00331958 -0.00132366)
(-0.000533046 0.0032768 -0.00132366)
(-0.00109396 0.00313446 -0.00132366)
(-0.00175196 0.00292683 -0.00232292)
(-0.00223358 0.00257814 -0.00232292)
(-0.00264734 0.00215112 -0.00232292)
(-0.00298066 0.00165873 -0.00232292)
(-0.00322341 0.00111595 -0.00232292)
(-0.00336822 0.000539252 -0.00232292)
(-0.00341069 -5.38261e-05 -0.00232292)
(-0.00334953 -0.000645269 -0.00232292)
(-0.00318659 -0.00121711 -0.00232292)
(-0.00292683 -0.00175196 -0.00232292)
(-0.00257814 -0.00223358 -0.00232292)
(-0.00215112 -0.00264734 -0.00232292)
(-0.00165873 -0.00298066 -0.00232292)
(-0.00111594 -0.00322341 -0.00232292)
(-0.000539252 -0.00336822 -0.00232292)
(5.38264e-05 -0.00341069 -0.00232292)
(0.00064527 -0.00334953 -0.00232292)
(0.00121711 -0.00318659 -0.00232292)
(0.00175196 -0.00292683 -0.00232292)
(0.00223359 -0.00257814 -0.00232292)
(0.00264734 -0.00215112 -0.00232292)
(0.00298066 -0.00165873 -0.00232292)
(0.00322341 -0.00111594 -0.00232292)
(0.00336822 -0.000539252 -0.00232292)
(0.00341069 5.38264e-05 -0.00232292)
(0.00334953 0.00064527 -0.00232292)
(0.00318659 0.00121711 -0.00232292)
(0.00292683 0.00175196 -0.00232292)
(0.00257814 0.00223359 -0.00232292)
(0.00215112 0.00264734 -0.00232292)
(0.00165873 0.00298066 -0.00232292)
(0.00111595 0.00322341 -0.00232292)
(0.000539252 0.00336822 -0.00232292)
(-5.38261e-05 0.00341069 -0.00232292)
(-0.000645269 0.00334953 -0.00232292)
(-0.00121711 0.00318659 -0.00232292)
(-0.00181997 0.00318608 -0.0020372)
(-0.00234558 0.00282164 -0.0020372)
(-0.00279991 0.00237147 -0.0020372)
(-0.00316918 0.00184924 -0.0020372)
(-0.00344215 0.00127083 -0.0020372)
(-0.00361053 0.000653796 -0.0020372)
(-0.00366921 1.69021e-05 -0.0020372)
(-0.0036164 -0.000620506 -0.0020372)
(-0.00345371 -0.00123906 -0.0020372)
(-0.00318608 -0.00181997 -0.0020372)
(-0.00282164 -0.00234558 -0.00203721)
(-0.00237147 -0.00279991 -0.0020372)
(-0.00184924 -0.00316918 -0.0020372)
(-0.00127083 -0.00344215 -0.0020372)
(-0.000653796 -0.00361053 -0.0020372)
(-1.69019e-05 -0.00366921 -0.0020372)
(0.000620506 -0.0036164 -0.0020372)
(0.00123906 -0.00345371 -0.0020372)
(0.00181997 -0.00318608 -0.0020372)
(0.00234558 -0.00282164 -0.00203721)
(0.00279991 -0.00237147 -0.0020372)
(0.00316918 -0.00184924 -0.0020372)
(0.00344215 -0.00127083 -0.0020372)
(0.00361053 -0.000653796 -0.0020372)
(0.00366921 -1.69018e-05 -0.0020372)
(0.0036164 0.000620506 -0.0020372)
(0.00345371 0.00123906 -0.0020372)
(0.00318608 0.00181997 -0.0020372)
(0.00282164 0.00234558 -0.0020372)
(0.00237147 0.00279991 -0.0020372)
(0.00184924 0.00316918 -0.0020372)
(0.00127083 0.00344215 -0.0020372)
(0.000653796 0.00361053 -0.0020372)
(1.69021e-05 0.00366921 -0.0020372)
(-0.000620506 0.0036164 -0.0020372)
(-0.00123906 0.00345371 -0.0020372)
(-0.00194608 0.00338149 -0.00177707)
(-0.0025037 0.00299219 -0.00177707)
(-0.00298525 0.00251196 -0.00177707)
(-0.0033761 0.00195542 -0.00177707)
(-0.00366436 0.00133946 -0.00177707)
(-0.00384129 0.0006828 -0.00177707)
(-0.0039015 5.39522e-06 -0.00177707)
(-0.00384316 -0.000672175 -0.00177707)
(-0.00366805 -0.00132932 -0.00177707)
(-0.00338149 -0.00194608 -0.00177707)
(-0.00299219 -0.0025037 -0.00177707)
(-0.00251196 -0.00298525 -0.00177707)
(-0.00195542 -0.0033761 -0.00177707)
(-0.00133946 -0.00366436 -0.00177707)
(-0.0006828 -0.00384129 -0.00177707)
(-5.39496e-06 -0.0039015 -0.00177707)
(0.000672176 -0.00384316 -0.00177707)
(0.00132932 -0.00366805 -0.00177707)
(0.00194608 -0.00338149 -0.00177707)
(0.0025037 -0.00299219 -0.00177707)
(0.00298525 -0.00251196 -0.00177707)
(0.0033761 -0.00195542 -0.00177707)
(0.00366436 -0.00133946 -0.00177707)
(0.00384129 -0.0006828 -0.00177707)
(0.0039015 -5.39494e-06 -0.00177707)
(0.00384316 0.000672176 -0.00177707)
(0.00366805 0.00132932 -0.00177707)
(0.00338149 0.00194608 -0.00177707)
(0.00299219 0.0025037 -0.00177707)
(0.00251196 0.00298525 -0.00177707)
(0.00195542 0.0033761 -0.00177707)
(0.00133946 0.00366436 -0.00177707)
(0.0006828 0.00384129 -0.00177707)
(5.39521e-06 0.0039015 -0.00177707)
(-0.000672175 0.00384316 -0.00177707)
(-0.00132932 0.00366805 -0.00177707)
(-0.00205726 0.00355041 -0.00282413)
(-0.00264253 0.00313923 -0.00282414)
(-0.00314751 0.00263267 -0.00282414)
(-0.00355685 0.00204611 -0.00282414)
(-0.00385811 0.00139739 -0.00282414)
(-0.00404215 0.000706202 -0.00282414)
(-0.00410337 -6.43834e-06 -0.00282414)
(-0.00403992 -0.000718885 -0.00282413)
(-0.00385371 -0.00140949 -0.00282413)
(-0.00355041 -0.00205726 -0.00282413)
(-0.00313923 -0.00264253 -0.00282414)
(-0.00263267 -0.00314751 -0.00282414)
(-0.00204611 -0.00355685 -0.00282414)
(-0.00139739 -0.00385811 -0.00282414)
(-0.000706202 -0.00404215 -0.00282414)
(6.4387e-06 -0.00410337 -0.00282414)
(0.000718885 -0.00403992 -0.00282414)
(0.00140949 -0.00385371 -0.00282413)
(0.00205726 -0.00355041 -0.00282413)
(0.00264253 -0.00313923 -0.00282414)
(0.00314751 -0.00263267 -0.00282414)
(0.00355685 -0.00204611 -0.00282414)
(0.00385811 -0.00139739 -0.00282414)
(0.00404215 -0.000706202 -0.00282414)
(0.00410337 6.43869e-06 -0.00282414)
(0.00403992 0.000718885 -0.00282413)
(0.00385371 0.00140949 -0.00282413)
(0.00355041 0.00205726 -0.00282413)
(0.00313923 0.00264253 -0.00282414)
(0.00263267 0.00314751 -0.00282414)
(0.00204611 0.00355685 -0.00282414)
(0.00139739 0.00385811 -0.00282414)
(0.000706202 0.00404215 -0.00282414)
(-6.43835e-06 0.00410337 -0.00282414)
(-0.000718885 0.00403992 -0.00282413)
(-0.00140949 0.00385371 -0.00282413)
(-0.00212701 0.00371469 -0.00252005)
(-0.00273975 0.00328891 -0.00252005)
(-0.00326924 0.00276319 -0.00252005)
(-0.00369939 0.00215351 -0.00252005)
(-0.00401714 0.0014784 -0.00252005)
(-0.00421284 0.000758374 -0.00252005)
(-0.00428052 1.53e-05 -0.00252005)
(-0.00421815 -0.000728238 -0.00252005)
(-0.00402761 -0.00144965 -0.00252005)
(-0.00371469 -0.00212701 -0.00252005)
(-0.00328891 -0.00273975 -0.00252005)
(-0.00276319 -0.00326924 -0.00252005)
(-0.00215351 -0.00369939 -0.00252005)
(-0.0014784 -0.00401714 -0.00252005)
(-0.000758374 -0.00421284 -0.00252005)
(-1.52997e-05 -0.00428052 -0.00252005)
(0.000728238 -0.00421815 -0.00252005)
(0.00144965 -0.00402761 -0.00252005)
(0.00212701 -0.00371469 -0.00252005)
(0.00273975 -0.00328891 -0.00252005)
(0.00326924 -0.00276319 -0.00252005)
(0.00369939 -0.00215351 -0.00252005)
(0.00401714 -0.0014784 -0.00252005)
(0.00421284 -0.000758374 -0.00252005)
(0.00428053 -1.52997e-05 -0.00252005)
(0.00421815 0.000728238 -0.00252005)
(0.00402761 0.00144965 -0.00252005)
(0.00371469 0.00212701 -0.00252005)
(0.00328891 0.00273975 -0.00252005)
(0.00276319 0.00326924 -0.00252005)
(0.00215351 0.00369939 -0.00252005)
(0.0014784 0.00401714 -0.00252005)
(0.000758374 0.00421284 -0.00252005)
(1.53e-05 0.00428053 -0.00252005)
(-0.000728238 0.00421815 -0.00252005)
(-0.00144965 0.00402761 -0.00252005)
(-0.00224835 0.00380741 -0.00224676)
(-0.00287534 0.00335914 -0.00224676)
(-0.00341497 0.00280881 -0.00224676)
(-0.00385083 0.00217314 -0.00224676)
(-0.00416969 0.00147143 -0.00224676)
(-0.00436185 0.000725021 -0.00224676)
(-0.00442148 -4.34217e-05 -0.00224676)
(-0.00434677 -0.000810545 -0.00224676)
(-0.00413999 -0.00155304 -0.00224676)
(-0.00380741 -0.00224835 -0.00224676)
(-0.00335914 -0.00287534 -0.00224676)
(-0.00280881 -0.00341497 -0.00224676)
(-0.00217314 -0.00385083 -0.00224676)
(-0.00147143 -0.00416969 -0.00224676)
(-0.000725021 -0.00436185 -0.00224676)
(4.3422e-05 -0.00442148 -0.00224676)
(0.000810545 -0.00434677 -0.00224676)
(0.00155304 -0.00413999 -0.00224676)
(0.00224835 -0.00380741 -0.00224676)
(0.00287534 -0.00335914 -0.00224676)
(0.00341497 -0.00280881 -0.00224676)
(0.00385083 -0.00217314 -0.00224676)
(0.00416969 -0.00147143 -0.00224676)
(0.00436185 -0.000725021 -0.00224676)
(0.00442148 4.3422e-05 -0.00224676)
(0.00434677 0.000810545 -0.00224676)
(0.00413999 0.00155304 -0.00224676)
(0.00380741 0.00224835 -0.00224676)
(0.00335914 0.00287534 -0.00224676)
(0.00280881 0.00341497 -0.00224676)
(0.00217314 0.00385083 -0.00224676)
(0.00147143 0.00416969 -0.00224676)
(0.000725021 0.00436185 -0.00224676)
(-4.34217e-05 0.00442148 -0.00224676)
(-0.000810545 0.00434677 -0.00224676)
(-0.00155304 0.00413999 -0.00224676)
(-0.00238864 0.00409904 -0.00334617)
(-0.00306414 0.00362198 -0.00334617)
(-0.00364654 0.00303487 -0.00334617)
(-0.00411814 0.00235555 -0.00334617)
(-0.00446461 0.00160466 -0.00334617)
(-0.00467543 0.000805009 -0.00334617)
(-0.00474419 -1.91009e-05 -0.00334617)
(-0.0046688 -0.000842632 -0.00334617)
(-0.00445155 -0.00164056 -0.00334617)
(-0.00409904 -0.00238864 -0.00334617)