/*--------------------------------*- C++ -*----------------------------------*\
| =========                 |                                                 |
| \\      /  F ield         | OpenFOAM: The Open Source CFD Toolbox           |
|  \\    /   O peration     | Version:  2312                                  |
|   \\  /    A nd           | Website:  www.openfoam.com                      |
|    \\/     M anipulation  |                                                 |
\*---------------------------------------------------------------------------*/
FoamFile
{
    version     2.0;
    format      ascii;
    arch        "LSB;label=32;scalar=64";
    class       volTensorField;
    location    "1";
    object      F;
}
// * * * * * * * * * * * * * * * * * * * * * * * * * * * * * * * * * * * * * //

dimensions      [0 0 0 0 0 0 0];

internalField   nonuniform List<tensor> 
1620
(
(0.795005 -0.00366619 0.0335242 0.0319253 1.08847 -0.0751502 -0.0952449 -0.00705445 1.19302)
(0.819502 -0.0271719 0.0293729 0.0260941 1.0745 -0.205963 -0.114207 -0.00951078 1.17424)
(0.859013 -0.0396063 0.0322704 0.0309275 1.06028 -0.293367 -0.11225 -0.0187463 1.13501)
(0.900574 -0.0358115 0.0325845 0.0384995 1.05725 -0.339593 -0.103579 -0.024254 1.08067)
(0.938662 -0.0161842 0.0248433 0.0481926 1.07181 -0.353763 -0.0915422 -0.0198526 1.01116)
(0.970638 0.0122831 0.00890436 0.0549181 1.10602 -0.346802 -0.076831 0.00283836 0.92617)
(0.994958 0.0371472 -0.0122908 0.0526022 1.15771 -0.329959 -0.0627719 0.0535424 0.828517)
(1.00637 0.0421391 -0.0364022 0.0390422 1.21685 -0.313501 -0.0487759 0.136079 0.729611)
(1.01131 0.0251326 -0.063644 0.0109033 1.25541 -0.305349 -0.0147458 0.222753 0.657165)
(1.02245 0.00105774 -0.090478 -0.0220621 1.25815 -0.30814 0.0271611 0.211702 0.643812)
(1.03201 -0.0376506 -0.0983553 -0.0448332 1.21877 -0.322756 0.0500725 0.120793 0.702029)
(1.02682 -0.0487654 -0.0968142 -0.0529439 1.15612 -0.345 0.0548644 0.0470506 0.792667)
(1.01271 -0.0346583 -0.0922423 -0.0483343 1.0976 -0.366244 0.0639446 0.00328458 0.882546)
(0.991864 -0.00947861 -0.0847567 -0.0318173 1.05613 -0.377682 0.0757568 -0.0168712 0.959588)
(0.962319 0.0143918 -0.0713997 -0.00879723 1.03624 -0.369955 0.0874401 -0.0215112 1.02185)
(0.923154 0.0285697 -0.0502196 0.0136672 1.03761 -0.33318 0.099625 -0.016385 1.07195)
(0.878342 0.029914 -0.0229115 0.0310326 1.05519 -0.257518 0.110857 -0.00594246 1.11262)
(0.84216 0.0191226 0.00421286 0.0306707 1.07889 -0.137944 0.108104 -0.000438048 1.13924)
(0.839732 0.000410732 0.0184996 0.0198395 1.08555 0.00344838 0.111823 -0.00376609 1.13612)
(0.871358 -0.01576 0.0177688 0.0168164 1.07373 0.129597 0.118397 0.00466141 1.10369)
(0.912205 -0.0231373 0.011152 0.0262916 1.0631 0.21366 0.106808 0.0188998 1.06088)
(0.948729 -0.0188633 0.00512749 0.0384917 1.06233 0.258207 0.0922939 0.0278618 1.01506)
(0.976268 -0.00414384 0.00293017 0.0500064 1.07576 0.273651 0.0779179 0.0278745 0.965159)
(0.994884 0.0160059 0.00517906 0.055686 1.10515 0.271012 0.0649049 0.0134595 0.906801)
(1.00614 0.0327343 0.0120557 0.0515618 1.15083 0.260062 0.0568344 -0.0251454 0.836192)
(1.00635 0.0327819 0.0257711 0.0376524 1.20749 0.248913 0.0517387 -0.0972857 0.757469)
(1.00471 0.0170494 0.0505364 0.0101881 1.2488 0.243856 0.0241014 -0.18636 0.692901)
(1.01369 -0.0053489 0.0838043 -0.0232574 1.25771 0.246879 -0.0144993 -0.190672 0.669891)
(1.02299 -0.0422793 0.10548 -0.0487807 1.22312 0.261357 -0.035791 -0.121472 0.711789)
(1.01805 -0.0541174 0.121093 -0.0598266 1.16285 0.285878 -0.0402776 -0.0614579 0.789803)
(1.00334 -0.0404083 0.13497 -0.055356 1.10314 0.31197 -0.0473684 -0.023712 0.874755)
(0.980025 -0.0129525 0.144008 -0.0359021 1.0589 0.328555 -0.055638 -0.00482689 0.953923)
(0.9462 0.0152258 0.141214 -0.00778607 1.03732 0.323338 -0.0631233 0.000810082 1.02282)
(0.90127 0.033196 0.122074 0.0203124 1.03919 0.284411 -0.0717818 -0.00252098 1.08224)
(0.849611 0.035393 0.0897088 0.0422389 1.05854 0.201927 -0.0818373 -0.011185 1.13521)
(0.806112 0.0213989 0.0548871 0.0448978 1.08258 0.0731662 -0.0818072 -0.0146857 1.17809)
(0.812901 -0.00501882 -0.0187968 0.0346132 1.09747 -0.0404919 -0.108129 0.00355424 1.14533)
(0.843007 -0.0399304 -0.0227778 0.0288077 1.07856 -0.157405 -0.111956 -0.000852097 1.11662)
(0.891096 -0.0521683 -0.0160317 0.0339406 1.05932 -0.234518 -0.104302 -0.0163037 1.07006)
(0.939199 -0.0429942 -0.00779995 0.0475545 1.0535 -0.274421 -0.0909516 -0.0227956 1.01375)
(0.979168 -0.017031 -0.00450322 0.0657104 1.0651 -0.284199 -0.0720418 -0.0199388 0.95009)
(1.00591 0.0172399 -0.00867342 0.0800527 1.09599 -0.2744 -0.0467502 -0.00197067 0.882045)
(1.01555 0.0469207 -0.0201709 0.0817569 1.14218 -0.256518 -0.0180494 0.040618 0.814983)
(1.00721 0.0548035 -0.0384329 0.062841 1.19322 -0.240625 0.00472327 0.113613 0.757434)
(0.997839 0.0323512 -0.0625868 0.0207239 1.22692 -0.233341 0.00870731 0.192347 0.7214)
(1.00207 -0.0122955 -0.0883867 -0.0309872 1.2301 -0.238695 -0.00428017 0.185165 0.715622)
(1.01952 -0.0526103 -0.10369 -0.0712743 1.1961 -0.258404 -0.00171176 0.102498 0.743494)
(1.03639 -0.0611844 -0.107512 -0.0867539 1.1389 -0.287237 0.0159685 0.0370814 0.794936)
(1.03947 -0.0422512 -0.101612 -0.0794389 1.08328 -0.317534 0.037441 0.000720223 0.855078)
(1.02747 -0.0105006 -0.0861326 -0.055749 1.04322 -0.340277 0.0565839 -0.0154014 0.914502)
(1.00049 0.0215102 -0.0604894 -0.0241175 1.02521 -0.344676 0.0724953 -0.0199048 0.968369)
(0.959649 0.0439096 -0.0260387 0.00542194 1.0297 -0.319666 0.0880857 -0.0168795 1.01494)
(0.910579 0.0487738 0.0119931 0.0249726 1.0548 -0.256516 0.105527 -0.00503775 1.05347)
(0.872581 0.0291419 0.0447305 0.027717 1.08575 -0.150796 0.118439 -0.000776145 1.07764)
(0.870511 -0.00567463 0.0609648 0.0235009 1.09275 -0.0244564 0.121533 -0.00769691 1.072)
(0.903863 -0.0300205 0.0586244 0.0224225 1.07542 0.0880314 0.111907 0.00146695 1.03902)
(0.947972 -0.0334518 0.0458659 0.033274 1.06007 0.161799 0.0944352 0.0186178 0.996945)
(0.985104 -0.0211715 0.0311047 0.0505799 1.0584 0.200111 0.0769694 0.0255852 0.953694)
(1.01002 0.000830791 0.0199002 0.0682954 1.07164 0.211127 0.0593846 0.0249156 0.90963)
(1.02192 0.0260601 0.0151404 0.0798526 1.09993 0.204875 0.0399149 0.0133997 0.864279)
(1.0201 0.0459946 0.0186869 0.0801661 1.14097 0.19104 0.0186652 -0.0186368 0.818608)
(1.00454 0.0472652 0.032655 0.0629172 1.18877 0.177679 0.000197888 -0.0823497 0.776639)
(0.991585 0.024667 0.0574817 0.0234215 1.22326 0.170182 -0.00543761 -0.162435 0.747182)
(0.994132 -0.0162582 0.0889051 -0.0281087 1.22918 0.17351 0.00483092 -0.167762 0.738512)
(1.00968 -0.052888 0.114371 -0.0712484 1.19689 0.192244 0.00352428 -0.102189 0.759735)
(1.0246 -0.0606745 0.131698 -0.0901969 1.1399 0.22348 -0.0105374 -0.0480206 0.805875)
(1.02616 -0.040472 0.140269 -0.0838289 1.08192 0.259568 -0.0280659 -0.0169305 0.86499)
(1.01089 -0.00477627 0.13708 -0.0573373 1.03895 0.289469 -0.0432325 -0.00253087 0.928313)
(0.977655 0.0324946 0.118541 -0.0201833 1.02009 0.29918 -0.0549757 0.00197081 0.990412)
(0.928048 0.0583985 0.0847877 0.0152825 1.02663 0.274742 -0.0664236 -7.47644e-05 1.04861)
(0.869313 0.0626017 0.0426289 0.0389707 1.05522 0.206775 -0.0809304 -0.00997722 1.1011)
(0.822294 0.0381145 0.00386259 0.0429101 1.08921 0.0930557 -0.0952436 -0.00987499 1.13973)
(0.83575 -0.0110155 -0.077369 0.0380727 1.10323 -0.00359238 -0.120412 0.00268382 1.09382)
(0.873069 -0.0616125 -0.0824102 0.0328591 1.0846 -0.103751 -0.10537 -0.00619234 1.05741)
(0.931682 -0.0754272 -0.0733212 0.0391858 1.05767 -0.172849 -0.0925168 -0.0187961 1.00355)
(0.986111 -0.0576673 -0.0570568 0.0610127 1.04545 -0.208976 -0.07371 -0.0252821 0.944726)
(1.02479 -0.020373 -0.040531 0.086948 1.05516 -0.216634 -0.047951 -0.0225097 0.887553)
(1.04104 0.023756 -0.0293702 0.103966 1.08581 -0.204569 -0.0147465 -0.00669144 0.838832)
(1.03144 0.0595483 -0.0277976 0.10125 1.12856 -0.183807 0.0226857 0.029803 0.806885)
(0.997881 0.0698339 -0.0385281 0.0733708 1.1693 -0.165404 0.0483342 0.0924652 0.79753)
(0.960853 0.0409747 -0.0642108 0.0252292 1.19425 -0.157911 0.0284473 0.160077 0.802737)
(0.960721 -0.026476 -0.0920151 -0.0323733 1.19806 -0.16604 -0.0283169 0.156658 0.798832)
(0.998719 -0.0696924 -0.112926 -0.0850568 1.17292 -0.190394 -0.0458122 0.0851337 0.794541)
(1.03954 -0.0768639 -0.119981 -0.113447 1.12242 -0.227173 -0.0197429 0.0289475 0.803813)
(1.06379 -0.0522434 -0.10999 -0.111191 1.06753 -0.268192 0.0105041 -0.000874098 0.830306)
(1.06534 -0.0107338 -0.083791 -0.0845879 1.0261 -0.302611 0.0344784 -0.0150179 0.869066)
(1.04387 0.0332186 -0.0438623 -0.0448452 1.00905 -0.318257 0.0534727 -0.021753 0.912684)
(1.00201 0.0660424 0.00470238 -0.00619619 1.02004 -0.303662 0.0720202 -0.0239779 0.954983)
(0.947702 0.0717894 0.0533989 0.016148 1.05401 -0.251126 0.0950117 -0.0206177 0.990613)
(0.907675 0.0392683 0.0909525 0.0228373 1.08585 -0.161577 0.127536 -0.0130418 1.01)
(0.906159 -0.0127972 0.108995 0.0282317 1.0936 -0.0536935 0.129725 0.00134517 1.00221)
(0.941466 -0.0479202 0.105969 0.0300107 1.07679 0.0421698 0.0999514 0.0143222 0.971274)
(0.989448 -0.0490455 0.0880437 0.0430517 1.05515 0.107797 0.0775275 0.0240242 0.930634)
(1.02633 -0.0265793 0.0641696 0.0673106 1.04987 0.14147 0.057538 0.0262467 0.889937)
(1.04594 0.00585078 0.0420216 0.0907042 1.06408 0.148774 0.0376882 0.02285 0.852711)
(1.047 0.0386461 0.0274204 0.103737 1.09429 0.138139 0.01362 0.0126049 0.822858)
(1.02845 0.0622951 0.0248634 0.0997436 1.13323 0.118795 -0.0172415 -0.0137885 0.806555)
(0.991917 0.0641251 0.0372717 0.0737382 1.17054 0.100025 -0.0433731 -0.0686284 0.808253)
(0.956403 0.0336888 0.0666369 0.027422 1.19408 0.0902913 -0.0296102 -0.137271 0.818548)
(0.957311 -0.0275069 0.0981651 -0.0305891 1.19608 0.0961768 0.0219594 -0.142649 0.816343)
(0.991475 -0.0645207 0.125614 -0.0847505 1.16871 0.120026 0.0393379 -0.0826921 0.814594)
(1.0274 -0.0687783 0.142361 -0.11497 1.11632 0.159782 0.0168706 -0.0355588 0.826713)
(1.0486 -0.0406703 0.142764 -0.113083 1.05847 0.207785 -0.00898943 -0.0108076 0.857043)
(1.04577 0.00715154 0.124515 -0.0833049 1.01459 0.251364 -0.0289715 0.000769393 0.902358)
(1.01577 0.0580162 0.0883363 -0.0374852 0.99813 0.274626 -0.0440484 0.00591016 0.956633)
(0.961472 0.0940798 0.0396751 0.00742091 1.01346 0.262688 -0.0580217 0.00719585 1.01355)
(0.893884 0.0966837 -0.011504 0.0334977 1.05391 0.207178 -0.0760062 0.00568305 1.06529)
(0.84266 0.0548522 -0.0533636 0.0392082 1.09247 0.111146 -0.108238 0.00639232 1.09746)
(0.69217 0.00293517 0.034786 0.0851011 1.25838 -0.0513584 -0.187996 -0.0143881 1.15482)
(0.719776 -0.0506276 0.0287118 0.085995 1.22423 -0.163201 -0.23247 -0.00656291 1.14217)
(0.77116 -0.0790972 0.0280148 0.103033 1.18169 -0.241966 -0.251385 -0.0221772 1.10755)
(0.828697 -0.0763042 0.0243263 0.122012 1.16076 -0.287805 -0.254093 -0.0389517 1.05383)
(0.882847 -0.0467029 0.0146977 0.139098 1.17188 -0.30631 -0.243198 -0.0392857 0.982099)
(0.92816 -0.00395819 0.000198255 0.143876 1.21438 -0.305517 -0.21922 -0.00529558 0.895097)
(0.96133 0.0331955 -0.0173973 0.126667 1.27998 -0.293994 -0.185836 0.0800039 0.799367)
(0.975756 0.0443783 -0.0377733 0.086385 1.35185 -0.279936 -0.140109 0.218054 0.708346)
(0.981276 0.0291199 -0.0599952 0.0248695 1.39712 -0.27257 -0.0575858 0.358012 0.641455)
(1.00416 0.00666214 -0.0812288 -0.0428563 1.39418 -0.27782 0.0456049 0.359154 0.616124)
(1.03254 -0.0458385 -0.0928888 -0.0945737 1.33582 -0.296268 0.121591 0.223619 0.655472)
(1.03736 -0.063892 -0.0914937 -0.119062 1.24859 -0.320814 0.15601 0.095898 0.736255)
(1.02505 -0.043869 -0.0847762 -0.114486 1.16588 -0.341695 0.180298 0.0150927 0.82593)
(0.997209 -0.00186922 -0.0755401 -0.0823394 1.10829 -0.350949 0.199719 -0.0216178 0.908194)
(0.951133 0.0428392 -0.0625022 -0.0335009 1.08857 -0.341323 0.213496 -0.0272306 0.976506)
(0.887746 0.0726186 -0.043149 0.0165302 1.11141 -0.305492 0.224761 -0.0145269 1.02968)
(0.817406 0.0760902 -0.0181167 0.0567993 1.16853 -0.237128 0.233718 0.00260333 1.06829)
(0.763227 0.0490447 0.00633853 0.0676915 1.23037 -0.134136 0.228886 0.00296189 1.08948)
(0.754327 0.00218388 0.0203735 0.06027 1.24769 -0.0149555 0.238131 -0.0133185 1.08639)
(0.792493 -0.0383885 0.0216891 0.0643388 1.21563 0.0926132 0.252629 -0.0054721 1.06047)
(0.849931 -0.0569393 0.0169705 0.0867262 1.1763 0.167613 0.2431 0.0236947 1.02212)
(0.905372 -0.0515739 0.0128823 0.110364 1.15771 0.210614 0.224532 0.0500172 0.977226)
(0.948265 -0.0283542 0.0120243 0.12872 1.16809 0.228878 0.202385 0.0594704 0.926304)
(0.975513 0.00154136 0.0143924 0.132826 1.20638 0.23081 0.178855 0.0381514 0.867647)
(0.987541 0.023959 0.0202881 0.116089 1.26747 0.223764 0.157158 -0.0312842 0.801253)
(0.980857 0.0231339 0.0322618 0.0791996 1.34021 0.2139 0.131265 -0.156981 0.734076)
(0.970873 0.00518088 0.0515986 0.0220373 1.39368 0.208934 0.0705769 -0.300666 0.680014)
(0.984565 -0.0154365 0.077527 -0.0453015 1.40139 0.214173 -0.0165178 -0.329962 0.650466)
(1.00772 -0.0626746 0.10202 -0.102626 1.34911 0.232193 -0.0856893 -0.232573 0.675525)
(1.00982 -0.0789094 0.115596 -0.133996 1.26234 0.258367 -0.119231 -0.131154 0.743411)
(0.994642 -0.0560269 0.124784 -0.130876 1.17486 0.283635 -0.14149 -0.063599 0.8272)
(0.963055 -0.00635974 0.129963 -0.0924948 1.11129 0.297928 -0.155549 -0.0311058 0.911108)
(0.912624 0.0495015 0.126798 -0.0315987 1.08931 0.291486 -0.1602 -0.0250631 0.986657)
(0.844683 0.088406 0.110479 0.031348 1.11547 0.255366 -0.160371 -0.0354464 1.05059)
(0.769616 0.0938722 0.0826919 0.0808152 1.17858 0.183119 -0.161461 -0.0489826 1.10276)
(0.70993 0.0609254 0.0534961 0.0963624 1.24242 0.0738409 -0.159008 -0.042909 1.14043)
(0.702944 0.00378761 0.0044053 0.0893422 1.26776 -0.0265271 -0.204592 0.00949677 1.12495)
(0.73626 -0.0670544 -0.00406003 0.0921936 1.228 -0.125968 -0.235366 0.0174508 1.10032)
(0.798161 -0.101609 -0.0049396 0.107907 1.17974 -0.194072 -0.250127 -0.00856238 1.05412)
(0.866672 -0.0973604 -0.00483965 0.131943 1.15463 -0.232844 -0.246661 -0.0333351 0.995366)
(0.927832 -0.0611025 -0.00797631 0.15764 1.1609 -0.246747 -0.221651 -0.0429232 0.927802)
(0.970923 -0.00814396 -0.0156941 0.170835 1.20021 -0.243853 -0.173227 -0.0194957 0.855907)
(0.988499 0.0397586 -0.0278467 0.158209 1.26315 -0.233316 -0.108114 0.0579357 0.786365)
(0.979929 0.0577981 -0.0439377 0.112037 1.33086 -0.223243 -0.0453935 0.196089 0.728232)
(0.968168 0.0336543 -0.0626065 0.0332847 1.37285 -0.21935 -0.00978932 0.33965 0.691175)
(0.97921 -0.0134178 -0.0818601 -0.0586237 1.36943 -0.225187 0.00134142 0.340118 0.681055)
(1.01307 -0.0665484 -0.0960468 -0.132317 1.31449 -0.242984 0.0330197 0.204848 0.703249)
(1.04587 -0.0784205 -0.100222 -0.165959 1.22814 -0.268817 0.0841756 0.0787322 0.751449)
(1.05691 -0.0465801 -0.0951975 -0.158366 1.14338 -0.294969 0.135667 0.00434838 0.81224)
(1.04052 0.00975889 -0.0819176 -0.116773 1.08467 -0.313314 0.175083 -0.0249824 0.875245)
(0.99555 0.0681608 -0.0605508 -0.0559218 1.0678 -0.314758 0.200105 -0.0264062 0.93394)
(0.926363 0.107154 -0.0322243 0.00400953 1.09665 -0.290323 0.216905 -0.0134091 0.984606)
(0.847092 0.110018 -0.00118082 0.0472888 1.16496 -0.234083 0.232101 0.0052023 1.02441)
(0.788241 0.0672247 0.0256444 0.063604 1.23641 -0.143788 0.243901 0.00122948 1.04536)
(0.778947 -0.00309709 0.0413446 0.0647851 1.25459 -0.0377778 0.252688 -0.0220218 1.03977)
(0.819901 -0.0592604 0.0440265 0.0728584 1.21667 0.0573509 0.250318 -0.0137613 1.0109)
(0.883231 -0.0793802 0.0380263 0.0951266 1.17189 0.122539 0.234808 0.0204819 0.969516)
(0.942779 -0.0673992 0.0299796 0.12356 1.15162 0.159603 0.211993 0.0479735 0.924813)
(0.985655 -0.0341897 0.0243935 0.149367 1.16085 0.174013 0.181348 0.0606343 0.878827)
(1.00623 0.00607097 0.0236433 0.161334 1.19885 0.173514 0.139898 0.045856 0.832318)
(1.00243 0.0370604 0.0291537 0.150677 1.25859 0.166048 0.0890754 -0.0174291 0.787327)
(0.977578 0.0403469 0.0419984 0.110672 1.32674 0.158312 0.0403577 -0.143579 0.748291)
(0.956285 0.0110397 0.0614492 0.0377136 1.37447 0.154895 0.0131281 -0.289032 0.721061)
(0.961622 -0.031316 0.0858033 -0.0547653 1.37701 0.159359 0.00624036 -0.313439 0.710501)
(0.989452 -0.0769947 0.109126 -0.135784 1.32394 0.175946 -0.019345 -0.212594 0.726684)
(1.01685 -0.0851523 0.125012 -0.178093 1.23496 0.203389 -0.0629886 -0.111353 0.768958)
(1.02401 -0.0483142 0.132507 -0.173596 1.14306 0.23425 -0.107436 -0.0498878 0.827963)
(1.00269 0.0176403 0.130177 -0.126179 1.07718 0.258866 -0.139555 -0.0259849 0.894875)
(0.950438 0.087373 0.115803 -0.0525495 1.05887 0.265508 -0.15487 -0.0266097 0.962986)
(0.872909 0.133331 0.089253 0.0211448 1.09367 0.242521 -0.158976 -0.0388722 1.02725)
(0.786133 0.135205 0.0558887 0.0737751 1.171 0.183114 -0.162919 -0.0516524 1.0827)
(0.720132 0.085255 0.0248988 0.0933658 1.24853 0.0863768 -0.17489 -0.0335659 1.11896)
(0.720781 0.00197496 -0.0382214 0.0957754 1.26895 0.000144058 -0.223205 0.0237868 1.09281)
(0.760531 -0.0902091 -0.048266 0.102484 1.23359 -0.0851056 -0.235516 0.0300337 1.05617)
(0.834759 -0.134813 -0.0494165 0.116106 1.18101 -0.144893 -0.246518 0.00369411 0.998819)
(0.915596 -0.129344 -0.0451085 0.14614 1.14779 -0.178432 -0.235139 -0.030011 0.934025)
(0.98302 -0.0835416 -0.0397287 0.179738 1.14823 -0.18887 -0.192712 -0.0508783 0.870232)
(1.01994 -0.0159565 -0.0372434 0.198214 1.18464 -0.183087 -0.11656 -0.0386566 0.814795)
(1.01604 0.0460932 -0.0404444 0.183932 1.24534 -0.170042 -0.018003 0.03152 0.775286)
(0.972686 0.0729776 -0.0505322 0.127647 1.30704 -0.158652 0.0584224 0.171254 0.757035)
(0.926557 0.0400174 -0.0666407 0.036561 1.34252 -0.155693 0.0398241 0.319033 0.756127)
(0.93153 -0.0337393 -0.0844374 -0.0683935 1.33872 -0.165092 -0.0445357 0.319076 0.75477)
(0.986145 -0.0882498 -0.100483 -0.160642 1.29019 -0.186145 -0.0606652 0.183765 0.756395)
(1.05053 -0.0937271 -0.107352 -0.210773 1.20519 -0.216435 0.00285998 0.0575412 0.769339)
(1.09051 -0.0471933 -0.100891 -0.207503 1.11646 -0.25004 0.0820849 -0.0114204 0.798127)
(1.09035 0.0281341 -0.080738 -0.159494 1.05537 -0.278076 0.143672 -0.0334899 0.839783)
(1.04843 0.104057 -0.0489121 -0.0866214 1.04222 -0.289954 0.181763 -0.0306475 0.887953)
(0.973041 0.153134 -0.0101469 -0.0149317 1.0819 -0.275656 0.20474 -0.0191898 0.935917)
(0.883398 0.150609 0.0282653 0.0311034 1.1606 -0.229334 0.225963 -0.0101048 0.97602)
(0.819943 0.0866245 0.0585578 0.055142 1.23151 -0.152925 0.25973 -0.0140298 0.996659)
(0.810465 -0.00830042 0.0756209 0.0716654 1.25049 -0.0617765 0.267566 -0.0170623 0.989048)
(0.853855 -0.0832156 0.078354 0.0861573 1.21706 0.0191494 0.242807 -0.00544926 0.957279)
(0.923761 -0.108604 0.070308 0.107791 1.16878 0.0767055 0.221933 0.0220941 0.913343)
(0.987693 -0.0901439 0.0570923 0.14233 1.14302 0.10903 0.194728 0.048833 0.868221)
(1.02923 -0.0447581 0.0446781 0.175585 1.1502 0.119705 0.154081 0.0650536 0.827219)
(1.03934 0.00903559 0.0380356 0.192864 1.18882 0.115328 0.0916236 0.0577738 0.794306)
(1.01482 0.0506552 0.0403076 0.181419 1.24882 0.103702 0.00798794 0.00119942 0.77409)
(0.961042 0.0593007 0.0522345 0.131136 1.31162 0.0924795 -0.060765 -0.126861 0.769778)
(0.915023 0.0185744 0.0720325 0.0429482 1.35008 0.0880914 -0.0436408 -0.275373 0.776419)
(0.920734 -0.0470553 0.0943657 -0.0651402 1.34587 0.0956464 0.035247 -0.29474 0.777802)
(0.967837 -0.0911482 0.116856 -0.164156 1.29376 0.115697 0.0535673 -0.189924 0.7813)
(1.02336 -0.0901244 0.132062 -0.222141 1.20305 0.147706 0.00086869 -0.08795 0.796078)
(1.05772 -0.0355773 0.134642 -0.222283 1.10539 0.186636 -0.0669368 -0.032189 0.828188)
(1.05081 0.0521104 0.121947 -0.168293 1.03688 0.222487 -0.119202 -0.0172479 0.876969)
(0.997833 0.139638 0.0945085 -0.0817199 1.02417 0.241462 -0.146979 -0.0254488 0.937612)
(0.909409 0.192565 0.0570391 0.00453498 1.07314 0.230028 -0.155534 -0.0388319 1.00263)
(0.809027 0.185034 0.0175753 0.060141 1.16464 0.181244 -0.161418 -0.0392133 1.06085)
(0.736657 0.110666 -0.0160042 0.0860977 1.24635 0.0984753 -0.192732 -0.0101183 1.09549)
(0.674922 0.0155237 0.0560434 0.104392 1.37812 -0.0112797 -0.213276 -0.0238023 1.06508)
(0.69291 -0.0491627 0.0464904 0.110267 1.33261 -0.0860034 -0.289285 -0.00212017 1.06989)
(0.736485 -0.0849264 0.0371349 0.139978 1.27583 -0.147569 -0.347047 -0.0141995 1.05166)
(0.791986 -0.0841069 0.0246191 0.170516 1.24535 -0.191684 -0.377509 -0.0336828 1.00824)
(0.848068 -0.0553849 0.0102911 0.195139 1.25337 -0.218506 -0.378532 -0.0349979 0.942414)
(0.896345 -0.0150181 -0.00394835 0.200024 1.2965 -0.231215 -0.350759 0.00562918 0.860818)
(0.93205 0.0191236 -0.0184187 0.174016 1.36071 -0.233938 -0.299684 0.107002 0.773497)
(0.950419 0.0305768 -0.0348574 0.115678 1.42513 -0.231422 -0.227612 0.266758 0.693608)
(0.960954 0.0196005 -0.0508383 0.0297542 1.46329 -0.232304 -0.115715 0.433752 0.630242)
(0.987989 0.000740623 -0.0676467 -0.0648235 1.46133 -0.243217 0.030392 0.475017 0.588145)
(1.02679 -0.0475291 -0.0871307 -0.140368 1.40724 -0.263195 0.156923 0.342952 0.598769)
(1.04802 -0.0721837 -0.0850037 -0.178377 1.3189 -0.284696 0.228013 0.188092 0.659135)
(1.0451 -0.0557969 -0.0742191 -0.174069 1.22962 -0.299224 0.271807 0.076785 0.7404)
(1.01933 -0.00941042 -0.061725 -0.129867 1.1649 -0.29997 0.299286 0.017919 0.822323)
(0.968956 0.0467968 -0.0498091 -0.0608471 1.14515 -0.283367 0.310186 0.000450875 0.89237)
(0.898957 0.0889158 -0.0365106 0.0109019 1.17968 -0.247414 0.308232 0.00745863 0.943883)
(0.824367 0.0980652 -0.020374 0.0694146 1.25806 -0.192551 0.297739 0.0177126 0.974248)
(0.767798 0.0681273 -0.00472933 0.0893541 1.33977 -0.1229 0.282669 0.00626539 0.984762)
(0.753872 0.0125874 0.00657884 0.0850238 1.36268 -0.04863 0.296909 -0.0207959 0.984226)
(0.784516 -0.0382505 0.011832 0.0952991 1.32101 0.0211211 0.326977 -0.0178431 0.975012)
(0.83678 -0.0631979 0.0134147 0.127866 1.26729 0.0774828 0.335921 0.0159803 0.952143)
(0.89098 -0.0590798 0.0156998 0.159202 1.23853 0.116986 0.326647 0.0514226 0.917513)
(0.934262 -0.0358871 0.0196801 0.181408 1.24576 0.141162 0.304305 0.0657688 0.87354)
(0.960631 -0.00857806 0.0247437 0.183721 1.28552 0.153615 0.272826 0.0392037 0.822183)
(0.969521 0.00811408 0.0312055 0.158278 1.34663 0.157912 0.236551 -0.0461937 0.767489)
(0.960899 0.0026409 0.0410579 0.104629 1.41279 0.157612 0.193918 -0.192387 0.717163)
(0.949844 -0.0174911 0.0521297 0.0252159 1.45979 0.16052 0.120004 -0.359751 0.67481)
(0.960609 -0.0385908 0.0691025 -0.0673887 1.46963 0.172623 0.00671288 -0.431929 0.637766)
(0.989427 -0.0767246 0.0979441 -0.149498 1.42295 0.193316 -0.103658 -0.348754 0.636125)
(1.00718 -0.0970355 0.107628 -0.197127 1.33416 0.215693 -0.172952 -0.230892 0.682128)
(1.00032 -0.0754502 0.108896 -0.196525 1.23891 0.233167 -0.216627 -0.141478 0.75488)
(0.97027 -0.018306 0.10729 -0.145274 1.16686 0.237787 -0.239069 -0.0934853 0.836054)
(0.915752 0.0533898 0.104318 -0.0607643 1.14428 0.224651 -0.236839 -0.0804673 0.912462)
(0.842083 0.108607 0.0968622 0.0268549 1.18362 0.191246 -0.215466 -0.0875781 0.975432)
(0.763454 0.120884 0.0832228 0.0944225 1.27106 0.137713 -0.18875 -0.0931433 1.02041)
(0.700039 0.083712 0.0682329 0.116098 1.35719 0.0672428 -0.172985 -0.0707231 1.04783)
(0.668252 0.0210189 0.0641682 0.109675 1.3869 -0.00555647 -0.230956 0.0136012 1.0634)
(0.693911 -0.0627045 0.0487043 0.118548 1.33294 -0.0723492 -0.299812 0.0423129 1.05334)
(0.750248 -0.109185 0.0335365 0.14595 1.2688 -0.12414 -0.355759 0.0174135 1.01831)
(0.819563 -0.111568 0.0172094 0.181098 1.23486 -0.160476 -0.379127 -0.0202286 0.965819)
(0.885582 -0.0775224 -6.75453e-05 0.21397 1.23961 -0.183118 -0.360441 -0.0415383 0.900968)
(0.934268 -0.0254234 -0.0172818 0.226188 1.28336 -0.195758 -0.298899 -0.0183463 0.82927)
(0.957556 0.0215834 -0.033704 0.202454 1.35122 -0.202756 -0.207025 0.0753317 0.757729)
(0.956288 0.0407238 -0.0485631 0.137185 1.41853 -0.20798 -0.111943 0.243122 0.695024)
(0.951105 0.0234206 -0.0603778 0.0365872 1.4563 -0.214341 -0.0435564 0.424326 0.650114)
(0.964927 -0.0176222 -0.071889 -0.0784654 1.44868 -0.222709 -0.00244544 0.459561 0.631797)
(1.00415 -0.0682795 -0.0830214 -0.175408 1.39055 -0.234988 0.05626 0.319447 0.646557)
(1.04886 -0.0851904 -0.086028 -0.2255 1.29685 -0.250553 0.135358 0.15896 0.689186)
(1.07061 -0.0532047 -0.0824096 -0.220979 1.19994 -0.263008 0.212879 0.0519963 0.747688)
(1.05788 0.0123191 -0.0747449 -0.167918 1.13048 -0.267272 0.270419 0.00479038 0.810881)
(1.00745 0.0849517 -0.0642039 -0.0851825 1.11302 -0.258624 0.300108 -0.000482025 0.870583)
(0.92742 0.134628 -0.0509684 -0.00147488 1.15537 -0.232934 0.306795 0.0143588 0.920942)
(0.838615 0.138959 -0.0361175 0.0603567 1.24856 -0.188551 0.302387 0.0267984 0.956655)
(0.773199 0.0904725 -0.0217869 0.0865241 1.34294 -0.127638 0.300015 0.00511105 0.970009)
(0.758489 0.01033 -0.00848212 0.0903863 1.36727 -0.0605174 0.313884 -0.0360717 0.966797)
(0.794893 -0.058237 0.00239434 0.10518 1.31889 0.00178562 0.331947 -0.0361354 0.950685)
(0.856461 -0.0888689 0.00999425 0.136094 1.25951 0.0509581 0.336179 0.00485579 0.919483)
(0.918309 -0.0812502 0.0168114 0.171732 1.22985 0.0856255 0.321583 0.0485426 0.881354)
(0.963948 -0.0481646 0.0244597 0.20177 1.23687 0.107589 0.286077 0.0733593 0.839999)
(0.984526 -0.00851932 0.0336048 0.211729 1.27918 0.120484 0.228911 0.0581015 0.797193)
(0.978985 0.0185467 0.0442445 0.190422 1.34469 0.128684 0.156294 -0.0215478 0.755151)
(0.95467 0.0175435 0.0557426 0.132717 1.41384 0.135881 0.0860994 -0.175452 0.717627)
(0.934831 -0.0109607 0.066903 0.0401911 1.45925 0.144271 0.0395519 -0.356193 0.688755)
(0.939703 -0.050808 0.0816704 -0.073843 1.45929 0.153148 0.0136861 -0.419142 0.674133)
(0.970648 -0.0907893 0.0998937 -0.179654 1.40394 0.164634 -0.0322617 -0.324926 0.682736)
(1.00841 -0.10124 0.112104 -0.242105 1.30674 0.180678 -0.101162 -0.201061 0.716826)
(1.02502 -0.0616357 0.118308 -0.243502 1.20065 0.195467 -0.171271 -0.116424 0.770497)
(1.00673 0.0167356 0.119846 -0.18416 1.12127 0.203326 -0.220539 -0.0824827 0.835526)
(0.949194 0.104654 0.116747 -0.0848715 1.10138 0.198456 -0.235663 -0.0858197 0.904288)
(0.862035 0.164446 0.108045 0.0163712 1.15229 0.17526 -0.220002 -0.102875 0.969428)
(0.767061 0.169019 0.0946788 0.0880085 1.25917 0.130932 -0.194133 -0.106183 1.02252)
(0.693634 0.113081 0.0796254 0.114444 1.36287 0.06705 -0.188185 -0.0608099 1.05295)
(0.668031 0.0231 0.0552478 0.117897 1.3871 0.00088952 -0.254041 0.0466741 1.06409)
(0.702379 -0.0845149 0.0365751 0.13205 1.33593 -0.057843 -0.31127 0.0811157 1.03525)
(0.773242 -0.144842 0.0171769 0.155648 1.26668 -0.10103 -0.365368 0.0522019 0.983833)
(0.858568 -0.151598 -0.00205574 0.196595 1.22394 -0.13009 -0.379617 -0.00509022 0.920953)
(0.935638 -0.110594 -0.0205523 0.238058 1.22282 -0.147699 -0.335373 -0.0512552 0.855318)
(0.982382 -0.0424092 -0.0378536 0.25696 1.26578 -0.157634 -0.231816 -0.0490507 0.793237)
(0.987133 0.0221521 -0.0529859 0.232302 1.33717 -0.164145 -0.0907582 0.0362575 0.73985)
(0.954625 0.0521442 -0.0643382 0.155161 1.40706 -0.170686 0.0286996 0.215184 0.700078)
(0.917087 0.0289593 -0.0677403 0.0363958 1.44282 -0.178869 0.0365202 0.414534 0.679704)
(0.920921 -0.0361531 -0.0725439 -0.0955129 1.42851 -0.190141 -0.0433849 0.4445 0.680683)
(0.975507 -0.0890054 -0.0788424 -0.209486 1.36768 -0.202558 -0.0581483 0.293385 0.695367)
(1.0489 -0.0966259 -0.0834921 -0.275666 1.26898 -0.216142 0.0246954 0.12311 0.718042)
(1.10061 -0.0451306 -0.0835381 -0.27637 1.163 -0.229512 0.138973 0.0187532 0.751704)
(1.1052 0.0450873 -0.0775052 -0.216345 1.08852 -0.238946 0.232633 -0.0154075 0.795443)
(1.05589 0.13847 -0.0656828 -0.119324 1.07553 -0.238646 0.285704 -0.00620344 0.845281)
(0.964739 0.196822 -0.0500532 -0.0213887 1.1323 -0.222417 0.302693 0.01537 0.895032)
(0.859517 0.19159 -0.0336303 0.0431826 1.23939 -0.186893 0.305172 0.0205175 0.935483)
(0.784411 0.116622 -0.017799 0.0783883 1.33522 -0.134081 0.32077 -0.00732618 0.955273)
(0.769265 0.00627204 -0.00332373 0.098649 1.36063 -0.0731701 0.333527 -0.0408053 0.949732)
(0.811885 -0.084621 0.00929325 0.120767 1.31704 -0.0182869 0.334063 -0.0421472 0.922619)
(0.883841 -0.124047 0.0200214 0.148922 1.25483 0.0246557 0.333505 -0.00443519 0.882821)
(0.95425 -0.113223 0.0292338 0.190521 1.21889 0.0548167 0.313087 0.0460516 0.840001)
(1.00172 -0.0681042 0.0385304 0.229437 1.22326 0.0737059 0.261087 0.0838138 0.800089)
(1.01331 -0.0124669 0.0494538 0.246792 1.26754 0.0848016 0.171689 0.0829477 0.765725)
(0.988227 0.0280696 0.0617721 0.226302 1.33831 0.0925404 0.0536449 0.0108177 0.737887)
(0.938902 0.0334917 0.073258 0.157807 1.4111 0.100222 -0.047339 -0.153023 0.717778)
(0.898142 -0.00311485 0.0787636 0.0442508 1.45336 0.108667 -0.0478306 -0.351382 0.709775)
(0.901833 -0.0630175 0.0891816 -0.0905326 1.44089 0.11912 0.0317923 -0.406155 0.715685)
(0.949077 -0.103779 0.101916 -0.213557 1.37674 0.130319 0.0523599 -0.29857 0.729582)
(1.01257 -0.101655 0.113341 -0.292163 1.27133 0.143706 -0.0155302 -0.166138 0.749797)
(1.05705 -0.039192 0.121085 -0.30035 1.15315 0.158777 -0.115246 -0.0855575 0.783434)
(1.05383 0.0665862 0.12281 -0.234428 1.06697 0.171927 -0.1969 -0.0677735 0.832684)
(0.993183 0.174518 0.117568 -0.119386 1.05337 0.175991 -0.233699 -0.0906213 0.895222)
(0.890516 0.23844 0.106304 -0.0021261 1.12351 0.162285 -0.225061 -0.117296 0.963598)
(0.777013 0.229727 0.0913791 0.0732097 1.24987 0.125734 -0.199847 -0.107161 1.02439)
(0.692978 0.14619 0.0739136 0.107454 1.3604 0.0680653 -0.208563 -0.0375169 1.06109)
(0.720812 0.0311658 0.0763773 0.0935246 1.44135 0.0263722 -0.201001 -0.0420847 0.941959)
(0.722278 -0.0267434 0.06738 0.0997343 1.39496 -0.0117125 -0.306144 -0.0102659 0.966123)
(0.747609 -0.0612912 0.0528582 0.137261 1.33559 -0.0543762 -0.404023 -0.0132317 0.972591)
(0.787339 -0.0660043 0.0351508 0.176919 1.30164 -0.0937456 -0.46487 -0.0289673 0.953389)
(0.831247 -0.0497792 0.0180183 0.205689 1.30471 -0.12679 -0.480315 -0.029535 0.910666)
(0.871387 -0.0249803 0.00251691 0.209186 1.33976 -0.153325 -0.452487 0.0111458 0.851475)
(0.903703 -0.00321976 -0.0127938 0.178022 1.39117 -0.174077 -0.390491 0.112258 0.784841)
(0.92545 0.00488301 -0.0293203 0.11166 1.43927 -0.190462 -0.302792 0.272344 0.719721)