/*--------------------------------*- C++ -*----------------------------------*\
| =========                 |                                                 |
| \\      /  F ield         | OpenFOAM: The Open Source CFD Toolbox           |
|  \\    /   O peration     | Version:  2312                                  |
|   \\  /    A nd           | Website:  www.openfoam.com                      |
|    \\/     M anipulation  |                                                 |
\*---------------------------------------------------------------------------*/
FoamFile
{
    version     2.0;
    format      ascii;
    arch        "LSB;label=32;scalar=64";
    class       volTensorField;
    location    "1";
    object      F;
}
// * * * * * * * * * * * * * * * * * * * * * * * * * * * * * * * * * * * * * //

dimensions      [0 0 0 0 0 0 0];

internalField   nonuniform List<tensor> 
1620
(
(1.09462 -0.0333414 -0.469505 0.120321 0.995912 0.207698 0.0509065 -0.108155 0.844869)
(1.00502 -0.0519868 -0.474665 0.0980179 0.975956 0.257087 -0.0384378 -0.10991 1.00809)
(0.940461 -0.0824022 -0.452739 0.0298213 0.967653 0.261848 -0.088703 -0.102003 1.13865)
(0.910431 -0.114859 -0.410713 -0.0390026 0.952741 0.221303 -0.0962743 -0.0904828 1.22457)
(0.911957 -0.133487 -0.356443 -0.0824377 0.923803 0.162591 -0.0776387 -0.0717381 1.27)
(0.933131 -0.130124 -0.299536 -0.0967398 0.888961 0.106814 -0.0523639 -0.0447443 1.28313)
(0.960899 -0.106348 -0.248197 -0.0893722 0.859438 0.0610546 -0.0325523 -0.0144238 1.27327)
(0.986086 -0.0695508 -0.205148 -0.0697297 0.842087 0.0239607 -0.0223445 0.0125465 1.24915)
(1.00435 -0.0282029 -0.167173 -0.0455037 0.838683 -0.00823936 -0.0209041 0.0308694 1.21739)
(1.01514 0.0107057 -0.127339 -0.0225896 0.848205 -0.0382723 -0.0249702 0.037601 1.1814)
(1.0205 0.0420935 -0.0782631 -0.00637962 0.869073 -0.0667703 -0.0309262 0.0326827 1.14068)
(1.02486 0.0621442 -0.0153092 -0.00273022 0.900031 -0.0933309 -0.0371798 0.0192701 1.09068)
(1.03564 0.0682094 0.061558 -0.0162315 0.939504 -0.118637 -0.0465724 0.00325383 1.02402)
(1.06184 0.0601751 0.148365 -0.0442379 0.984359 -0.144492 -0.0667679 -0.00790531 0.934488)
(1.10736 0.0417127 0.238772 -0.0700421 1.0285 -0.168733 -0.105166 -0.00593097 0.824855)
(1.16127 0.0187512 0.324104 -0.064757 1.06013 -0.180573 -0.155561 0.0166217 0.71704)
(1.19508 -0.00415044 0.394127 -0.00818398 1.06174 -0.172817 -0.182534 0.055983 0.6589)
(1.17341 -0.0211689 0.443102 0.075149 1.03197 -0.16921 -0.140339 0.090151 0.705914)
(1.09462 -0.0333414 0.469505 0.120321 0.995912 -0.207698 -0.0509065 0.108155 0.844869)
(1.00502 -0.0519868 0.474665 0.0980179 0.975956 -0.257087 0.0384378 0.10991 1.00809)
(0.940461 -0.0824022 0.452739 0.0298213 0.967653 -0.261848 0.088703 0.102003 1.13865)
(0.910431 -0.114859 0.410713 -0.0390026 0.952741 -0.221303 0.0962743 0.0904828 1.22457)
(0.911957 -0.133487 0.356443 -0.0824377 0.923803 -0.162591 0.0776387 0.0717381 1.27)
(0.933131 -0.130124 0.299536 -0.0967398 0.888961 -0.106814 0.0523639 0.0447443 1.28313)
(0.960899 -0.106348 0.248197 -0.0893722 0.859438 -0.0610546 0.0325523 0.0144238 1.27327)
(0.986086 -0.0695508 0.205148 -0.0697297 0.842087 -0.0239607 0.0223445 -0.0125465 1.24915)
(1.00435 -0.0282029 0.167173 -0.0455037 0.838683 0.00823936 0.0209041 -0.0308694 1.21739)
(1.01514 0.0107057 0.127339 -0.0225896 0.848205 0.0382723 0.0249702 -0.037601 1.1814)
(1.0205 0.0420935 0.0782631 -0.00637962 0.869073 0.0667703 0.0309262 -0.0326827 1.14068)
(1.02486 0.0621442 0.0153092 -0.00273021 0.900031 0.0933309 0.0371798 -0.0192701 1.09068)
(1.03564 0.0682094 -0.061558 -0.0162315 0.939504 0.118637 0.0465724 -0.00325384 1.02402)
(1.06184 0.0601751 -0.148365 -0.0442379 0.984359 0.144492 0.0667679 0.00790531 0.934488)
(1.10736 0.0417127 -0.238772 -0.0700421 1.0285 0.168733 0.105166 0.00593097 0.824855)
(1.16127 0.0187512 -0.324104 -0.064757 1.06013 0.180573 0.155561 -0.0166217 0.71704)
(1.19508 -0.00415044 -0.394127 -0.00818398 1.06174 0.172817 0.182534 -0.055983 0.6589)
(1.17341 -0.0211689 -0.443102 0.075149 1.03197 0.16921 0.140339 -0.090151 0.705914)
(1.10909 0.0262642 -0.43724 0.0912467 0.985082 0.235503 0.051278 -0.0489464 0.841101)
(1.02563 0.0118427 -0.458459 0.0724657 0.999837 0.270277 -0.0254108 -0.0599334 0.942657)
(0.961094 -0.0291954 -0.46029 0.00788522 1.008 0.262412 -0.0656108 -0.0733035 1.03382)
(0.929382 -0.0791413 -0.441173 -0.0565 0.991971 0.220238 -0.0649207 -0.078424 1.10867)
(0.930791 -0.117489 -0.404364 -0.0956618 0.95516 0.162971 -0.0423071 -0.0668894 1.16175)
(0.954127 -0.130953 -0.358053 -0.106564 0.910944 0.104841 -0.0186197 -0.0405187 1.19143)
(0.985165 -0.118021 -0.30884 -0.0957734 0.872047 0.0515738 -0.00510629 -0.00884189 1.20061)
(1.01297 -0.0855722 -0.259075 -0.0716173 0.846859 0.00412516 -0.00388437 0.0181846 1.19361)
(1.03173 -0.0436647 -0.207363 -0.0417854 0.839334 -0.0378619 -0.0118657 0.0337739 1.17375)
(1.04019 -0.00220835 -0.150295 -0.0131339 0.850234 -0.0741281 -0.0236001 0.0350638 1.14244)
(1.0406 0.0303437 -0.0847756 0.00775686 0.878417 -0.103268 -0.0333875 0.0236222 1.09924)
(1.03826 0.0474199 -0.010284 0.014035 0.921119 -0.123708 -0.0380529 0.00586535 1.04259)
(1.0417 0.0455209 0.0701049 -6.50629e-05 0.972558 -0.13572 -0.0401937 -0.00809467 0.9716)
(1.06115 0.0269818 0.151036 -0.0336721 1.02183 -0.142432 -0.0492681 -0.00839078 0.888564)
(1.10215 0.00198234 0.227478 -0.0711553 1.05319 -0.147597 -0.0764126 0.00836165 0.8021)
(1.15567 -0.0144643 0.295844 -0.0809945 1.05264 -0.153033 -0.12037 0.0332492 0.730582)
(1.19354 -0.0104886 0.35394 -0.0364178 1.0219 -0.162606 -0.150603 0.0476205 0.703754)
(1.17896 0.0114702 0.400669 0.0426613 0.990391 -0.189553 -0.124138 0.047121 0.748072)
(1.10909 0.0262642 0.43724 0.0912467 0.985082 -0.235503 -0.051278 0.0489464 0.841101)
(1.02563 0.0118427 0.458459 0.0724657 0.999837 -0.270277 0.0254108 0.0599334 0.942657)
(0.961094 -0.0291954 0.46029 0.00788523 1.008 -0.262412 0.0656108 0.0733035 1.03382)
(0.929382 -0.0791413 0.441173 -0.0565 0.991971 -0.220238 0.0649207 0.078424 1.10867)
(0.930791 -0.117489 0.404364 -0.0956618 0.95516 -0.162971 0.0423071 0.0668894 1.16175)
(0.954127 -0.130953 0.358053 -0.106564 0.910944 -0.104841 0.0186197 0.0405187 1.19143)
(0.985165 -0.118021 0.30884 -0.0957734 0.872047 -0.0515738 0.00510629 0.00884189 1.20061)
(1.01297 -0.0855722 0.259075 -0.0716173 0.846859 -0.00412516 0.00388437 -0.0181846 1.19361)
(1.03173 -0.0436647 0.207363 -0.0417854 0.839334 0.0378619 0.0118657 -0.0337739 1.17375)
(1.04019 -0.00220835 0.150295 -0.0131339 0.850234 0.0741281 0.0236001 -0.0350638 1.14244)
(1.0406 0.0303437 0.0847756 0.00775686 0.878417 0.103268 0.0333875 -0.0236222 1.09924)
(1.03826 0.0474199 0.010284 0.014035 0.921119 0.123708 0.0380529 -0.00586536 1.04259)
(1.0417 0.0455209 -0.0701049 -6.50622e-05 0.972558 0.13572 0.0401937 0.00809466 0.9716)
(1.06115 0.0269818 -0.151036 -0.0336721 1.02183 0.142432 0.0492681 0.00839078 0.888564)
(1.10215 0.00198234 -0.227478 -0.0711553 1.05319 0.147597 0.0764126 -0.00836165 0.8021)
(1.15567 -0.0144643 -0.295844 -0.0809945 1.05264 0.153033 0.12037 -0.0332492 0.730582)
(1.19354 -0.0104886 -0.35394 -0.0364178 1.0219 0.162606 0.150603 -0.0476205 0.703754)
(1.17896 0.0114702 -0.400669 0.0426613 0.990391 0.189553 0.124138 -0.047121 0.748072)
(1.12526 0.0757074 -0.369233 0.0604652 0.964211 0.263078 0.0531216 -0.00791369 0.850738)
(1.0492 0.0745527 -0.414104 0.046533 1.01141 0.286604 -0.00895078 -0.0184127 0.891867)
(0.980798 0.0357778 -0.4469 -0.0127498 1.0398 0.269433 -0.0394363 -0.0452929 0.941918)
(0.94144 -0.0256045 -0.455103 -0.0731442 1.0296 0.225627 -0.0315838 -0.0641432 1.00258)
(0.938543 -0.0848344 -0.439113 -0.11083 0.990692 0.1688 -0.00640021 -0.0592794 1.06047)
(0.963947 -0.120626 -0.405735 -0.121891 0.939812 0.107451 0.0139436 -0.0336467 1.10477)
(1.00204 -0.124633 -0.360325 -0.109708 0.891141 0.0463297 0.0189059 -0.000925299 1.13156)
(1.03795 -0.100637 -0.305377 -0.0797146 0.855946 -0.0112077 0.00858259 0.0253811 1.14032)
(1.0616 -0.0596586 -0.241659 -0.0392813 0.842473 -0.0621999 -0.0111076 0.0367588 1.131)
(1.06896 -0.0156596 -0.169459 0.00217089 0.855061 -0.103739 -0.0316405 0.0306116 1.10303)
(1.06232 0.0176619 -0.0898586 0.0338499 0.893293 -0.132891 -0.044305 0.0109281 1.05607)
(1.04989 0.0300126 -0.00604287 0.0449013 0.951117 -0.147204 -0.0440347 -0.0113844 0.991601)
(1.0444 0.018319 0.0760459 0.0272534 1.01551 -0.146263 -0.0345093 -0.0214312 0.915322)
(1.05868 -0.00994316 0.149027 -0.0180635 1.06588 -0.134154 -0.0299598 -0.00891688 0.838632)
(1.0978 -0.0374648 0.207726 -0.0723151 1.07871 -0.121273 -0.0467162 0.0210805 0.777335)
(1.15158 -0.0435583 0.252417 -0.0985361 1.04291 -0.122573 -0.084865 0.0460684 0.746914)
(1.19171 -0.0144558 0.288456 -0.0652288 0.980701 -0.150229 -0.115921 0.044013 0.75672)
(1.18347 0.0381441 0.324059 0.00887781 0.944983 -0.206449 -0.105433 0.0221111 0.800216)
(1.12526 0.0757074 0.369233 0.0604652 0.964211 -0.263078 -0.0531216 0.00791369 0.850738)
(1.0492 0.0745527 0.414104 0.046533 1.01141 -0.286604 0.00895078 0.0184127 0.891867)
(0.980798 0.0357778 0.4469 -0.0127498 1.0398 -0.269433 0.0394363 0.0452929 0.941918)
(0.94144 -0.0256045 0.455103 -0.0731442 1.0296 -0.225627 0.0315838 0.0641432 1.00258)
(0.938543 -0.0848344 0.439113 -0.11083 0.990692 -0.1688 0.00640021 0.0592794 1.06047)
(0.963947 -0.120626 0.405735 -0.121891 0.939812 -0.107451 -0.0139436 0.0336467 1.10477)
(1.00204 -0.124633 0.360325 -0.109708 0.891141 -0.0463297 -0.0189059 0.000925299 1.13156)
(1.03795 -0.100637 0.305377 -0.0797146 0.855946 0.0112077 -0.00858259 -0.0253811 1.14032)
(1.0616 -0.0596586 0.241659 -0.0392813 0.842473 0.0621999 0.0111076 -0.0367588 1.131)
(1.06896 -0.0156596 0.169459 0.00217089 0.855061 0.103739 0.0316405 -0.0306116 1.10303)
(1.06232 0.0176619 0.0898586 0.0338499 0.893293 0.132891 0.044305 -0.0109281 1.05607)
(1.04989 0.0300126 0.00604287 0.0449013 0.951117 0.147204 0.0440347 0.0113844 0.991601)
(1.0444 0.018319 -0.0760459 0.0272534 1.01551 0.146263 0.0345093 0.0214312 0.915322)
(1.05868 -0.00994316 -0.149027 -0.0180635 1.06588 0.134154 0.0299598 0.00891688 0.838632)
(1.0978 -0.0374648 -0.207726 -0.0723151 1.07871 0.121273 0.0467162 -0.0210805 0.777335)
(1.15158 -0.0435583 -0.252417 -0.0985361 1.04291 0.122573 0.084865 -0.0460684 0.746914)
(1.19171 -0.0144558 -0.288456 -0.0652288 0.980701 0.150229 0.115921 -0.044013 0.756721)
(1.18347 0.0381441 -0.324059 0.00887781 0.944983 0.206449 0.105433 -0.0221111 0.800216)
(1.15516 -0.0169557 -0.428951 0.185405 0.950235 0.288157 0.0591345 -0.295425 0.785996)
(1.03724 -0.0613069 -0.436942 0.133284 0.94793 0.312587 -0.12025 -0.318539 0.95106)
(0.942282 -0.129137 -0.417642 0.022873 0.981166 0.291171 -0.223878 -0.309128 1.09538)
(0.893831 -0.199203 -0.380211 -0.0728049 0.99432 0.241814 -0.240938 -0.285592 1.19793)
(0.891488 -0.24692 -0.333225 -0.127867 0.968738 0.183913 -0.206469 -0.245689 1.25923)
(0.918567 -0.258913 -0.28372 -0.146388 0.918481 0.129565 -0.157006 -0.191789 1.28785)
(0.959218 -0.23416 -0.236776 -0.140364 0.863033 0.0829662 -0.113549 -0.133394 1.29245)
(1.00224 -0.179778 -0.194402 -0.118858 0.816109 0.0436699 -0.0842863 -0.0821808 1.27992)
(1.0401 -0.106399 -0.154819 -0.0876879 0.785789 0.00937575 -0.0693657 -0.048584 1.25515)
(1.06816 -0.0257056 -0.113294 -0.0524778 0.776892 -0.0220404 -0.064061 -0.0396066 1.22043)
(1.08493 0.0502215 -0.0643697 -0.0217797 0.792206 -0.0514563 -0.0621444 -0.056399 1.17475)
(1.09363 0.109202 -0.00461173 -0.00832181 0.831738 -0.078854 -0.0606733 -0.0921306 1.11383)
(1.10442 0.141205 0.0655568 -0.0245223 0.891018 -0.10476 -0.0649651 -0.131777 1.03194)
(1.13244 0.142802 0.142153 -0.0697324 0.961413 -0.130857 -0.0892803 -0.154822 0.926341)
(1.1862 0.119611 0.219508 -0.116375 1.03158 -0.157879 -0.146902 -0.138912 0.804118)
(1.25189 0.0830486 0.291884 -0.112758 1.08187 -0.183374 -0.227868 -0.0628791 0.688898)
(1.29072 0.0442922 0.354205 -0.0204179 1.07842 -0.207004 -0.277731 0.0745619 0.623165)
(1.2606 0.011721 0.400262 0.121721 1.01305 -0.242615 -0.218237 0.213363 0.653747)
(1.15516 -0.0169557 0.428951 0.185405 0.950235 -0.288157 -0.0591345 0.295425 0.785996)
(1.03724 -0.0613069 0.436942 0.133284 0.94793 -0.312587 0.12025 0.318539 0.95106)
(0.942282 -0.129137 0.417642 0.022873 0.981166 -0.291171 0.223878 0.309128 1.09538)
(0.893831 -0.199203 0.380211 -0.0728049 0.99432 -0.241814 0.240938 0.285592 1.19793)
(0.891488 -0.24692 0.333225 -0.127867 0.968738 -0.183913 0.206469 0.245689 1.25923)
(0.918567 -0.258913 0.28372 -0.146388 0.918481 -0.129565 0.157006 0.191789 1.28785)
(0.959218 -0.23416 0.236776 -0.140364 0.863033 -0.0829662 0.113549 0.133394 1.29245)
(1.00224 -0.179778 0.194402 -0.118858 0.816109 -0.0436699 0.0842863 0.0821808 1.27992)
(1.0401 -0.106399 0.154819 -0.0876879 0.785789 -0.00937575 0.0693657 0.048584 1.25515)
(1.06816 -0.0257056 0.113294 -0.0524778 0.776892 0.0220404 0.064061 0.0396066 1.22043)
(1.08493 0.0502215 0.0643697 -0.0217797 0.792206 0.0514563 0.0621444 0.056399 1.17475)
(1.09363 0.109202 0.00461173 -0.00832181 0.831738 0.078854 0.0606733 0.0921306 1.11383)
(1.10442 0.141205 -0.0655568 -0.0245223 0.891018 0.10476 0.0649651 0.131777 1.03194)
(1.13244 0.142802 -0.142153 -0.0697324 0.961413 0.130857 0.0892803 0.154822 0.926341)
(1.1862 0.119611 -0.219508 -0.116375 1.03158 0.157879 0.146902 0.138912 0.804118)
(1.25189 0.0830486 -0.291884 -0.112758 1.08187 0.183374 0.227868 0.0628791 0.688898)
(1.29072 0.0442922 -0.354205 -0.0204179 1.07842 0.207004 0.277731 -0.0745619 0.623165)
(1.2606 0.011721 -0.400262 0.121721 1.01305 0.242615 0.218237 -0.213363 0.653747)
(1.19979 0.0647685 -0.403702 0.15393 0.938626 0.269463 0.0667425 -0.184512 0.77713)
(1.07513 0.0325767 -0.422522 0.107116 0.98688 0.287138 -0.104893 -0.219589 0.887318)
(0.968516 -0.0454059 -0.421673 0.00235993 1.03519 0.27 -0.196712 -0.258223 0.994789)
(0.913561 -0.140036 -0.402725 -0.0889705 1.04233 0.229785 -0.198152 -0.273743 1.08236)
(0.911359 -0.216014 -0.370644 -0.143494 1.00862 0.178568 -0.15294 -0.250736 1.14407)
(0.944747 -0.251789 -0.331179 -0.164757 0.950384 0.125017 -0.101875 -0.198174 1.18086)
(0.9957 -0.242524 -0.28794 -0.16072 0.885441 0.0735333 -0.0657829 -0.135223 1.19657)
(1.04905 -0.194153 -0.242077 -0.136895 0.828741 0.0260515 -0.0507438 -0.0801728 1.19493)
(1.09312 -0.119085 -0.192758 -0.0983953 0.791986 -0.0165552 -0.0537532 -0.0471827 1.17839)
(1.12071 -0.0333117 -0.138016 -0.0525173 0.783311 -0.0535209 -0.0657816 -0.0444656 1.14762)
(1.12992 0.0457868 -0.0761828 -0.0102672 0.806853 -0.0837718 -0.0751629 -0.0712612 1.10159)
(1.12543 0.101553 -0.0074043 0.0131739 0.861528 -0.106417 -0.0735861 -0.114862 1.03851)
(1.12041 0.121965 0.0656893 0.00201593 0.938294 -0.121928 -0.0641051 -0.151299 0.958051)
(1.13467 0.10611 0.138774 -0.0481018 1.01747 -0.132882 -0.0655411 -0.153469 0.864586)
(1.18265 0.0689439 0.207433 -0.112517 1.07007 -0.143372 -0.103159 -0.105618 0.769927)
(1.25484 0.0366308 0.268503 -0.133324 1.06846 -0.158391 -0.180187 -0.0153344 0.693726)
(1.31049 0.0308886 0.321129 -0.058581 1.00981 -0.184406 -0.245537 0.0846944 0.660422)
(1.29735 0.0520349 0.366572 0.0806998 0.945273 -0.225429 -0.210126 0.150948 0.690357)
(1.19979 0.0647685 0.403702 0.15393 0.938626 -0.269463 -0.0667425 0.184512 0.77713)
(1.07513 0.0325767 0.422522 0.107116 0.98688 -0.287138 0.104893 0.219589 0.887318)
(0.968516 -0.0454059 0.421673 0.00235993 1.03519 -0.27 0.196712 0.258223 0.994789)
(0.913561 -0.140036 0.402725 -0.0889705 1.04233 -0.229785 0.198152 0.273743 1.08236)
(0.911359 -0.216014 0.370644 -0.143494 1.00862 -0.178568 0.15294 0.250736 1.14407)
(0.944747 -0.251789 0.331179 -0.164757 0.950384 -0.125017 0.101875 0.198174 1.18086)
(0.9957 -0.242524 0.28794 -0.16072 0.885441 -0.0735333 0.0657829 0.135223 1.19657)
(1.04905 -0.194153 0.242077 -0.136895 0.828741 -0.0260515 0.0507438 0.0801728 1.19493)
(1.09312 -0.119085 0.192758 -0.0983953 0.791986 0.0165552 0.0537532 0.0471827 1.17839)
(1.12071 -0.0333117 0.138016 -0.0525173 0.783311 0.0535209 0.0657816 0.0444656 1.14762)
(1.12992 0.0457868 0.0761828 -0.0102672 0.806853 0.0837718 0.0751629 0.0712612 1.10159)
(1.12543 0.101553 0.0074043 0.0131739 0.861528 0.106417 0.0735861 0.114862 1.03851)
(1.12041 0.121965 -0.0656893 0.00201593 0.938294 0.121928 0.0641051 0.151299 0.958051)
(1.13467 0.10611 -0.138774 -0.0481018 1.01747 0.132882 0.0655411 0.153469 0.864586)
(1.18265 0.0689439 -0.207433 -0.112517 1.07007 0.143372 0.103159 0.105618 0.769927)
(1.25484 0.0366308 -0.268503 -0.133324 1.06846 0.158391 0.180187 0.0153344 0.693726)
(1.31049 0.0308886 -0.321129 -0.058581 1.00981 0.184406 0.245537 -0.0846944 0.660422)
(1.29735 0.0520349 -0.366572 0.0806998 0.945273 0.225429 0.210126 -0.150948 0.690357)
(1.24832 0.14641 -0.342519 0.120316 0.912021 0.257226 0.0746481 -0.0814379 0.786849)
(1.1153 0.143364 -0.380343 0.0782868 1.01198 0.272465 -0.0889325 -0.116414 0.839127)
(0.991576 0.0656734 -0.405385 -0.0189574 1.08066 0.260305 -0.168934 -0.199596 0.903247)
(0.924066 -0.0521733 -0.409551 -0.106097 1.09059 0.227545 -0.154097 -0.256773 0.970891)
(0.918299 -0.161389 -0.395052 -0.162959 1.05547 0.181723 -0.0972278 -0.25372 1.0302)
(0.959333 -0.229452 -0.366827 -0.191174 0.992406 0.128727 -0.0446586 -0.20369 1.07398)
(1.02623 -0.243536 -0.327971 -0.19168 0.917444 0.0730345 -0.0180068 -0.135986 1.10024)
(1.09697 -0.205871 -0.279649 -0.164082 0.84836 0.018571 -0.0209941 -0.0770225 1.10902)
(1.1524 -0.13047 -0.222337 -0.112572 0.80302 -0.031063 -0.0464129 -0.0457384 1.10014)
(1.18056 -0.0393762 -0.156802 -0.0481896 0.794856 -0.0727113 -0.0793553 -0.0517178 1.07275)
(1.1793 0.0423554 -0.084777 0.0124115 0.829526 -0.103879 -0.100911 -0.0913542 1.02592)
(1.15719 0.0923726 -0.00934473 0.0490357 0.903064 -0.123025 -0.0961204 -0.144051 0.960443)
(1.13317 0.0975542 0.0650311 0.0415129 0.998993 -0.130145 -0.0663128 -0.17475 0.881355)
(1.13284 0.0615216 0.13315 -0.0190157 1.08374 -0.128229 -0.0381242 -0.149803 0.800404)
(1.17563 0.00924815 0.190912 -0.107834 1.11028 -0.125449 -0.052927 -0.0637236 0.734947)
(1.25485 -0.0201666 0.237472 -0.155918 1.04872 -0.134419 -0.127591 0.0442903 0.700763)
(1.32833 0.00507553 0.275139 -0.0972859 0.93216 -0.163401 -0.211103 0.109918 0.704102)
(1.33482 0.0812181 0.307145 0.0393523 0.865196 -0.210889 -0.201183 0.104868 0.73974)
(1.24832 0.14641 0.342519 0.120316 0.912021 -0.257226 -0.0746481 0.0814379 0.786849)
(1.1153 0.143364 0.380343 0.0782868 1.01198 -0.272465 0.0889325 0.116414 0.839127)
(0.991576 0.0656734 0.405385 -0.0189574 1.08066 -0.260305 0.168934 0.199596 0.903247)
(0.924066 -0.0521733 0.409551 -0.106097 1.09059 -0.227545 0.154097 0.256773 0.970891)
(0.918299 -0.161389 0.395052 -0.162959 1.05547 -0.181723 0.0972278 0.25372 1.0302)
(0.959333 -0.229452 0.366827 -0.191174 0.992406 -0.128727 0.0446586 0.20369 1.07398)
(1.02623 -0.243536 0.327971 -0.19168 0.917444 -0.0730345 0.0180068 0.135986 1.10024)
(1.09697 -0.205871 0.279649 -0.164082 0.84836 -0.018571 0.0209941 0.0770225 1.10902)
(1.1524 -0.13047 0.222337 -0.112572 0.80302 0.031063 0.0464129 0.0457384 1.10014)
(1.18056 -0.0393762 0.156802 -0.0481896 0.794856 0.0727113 0.0793553 0.0517178 1.07275)
(1.1793 0.0423554 0.084777 0.0124115 0.829526 0.103879 0.100911 0.0913542 1.02592)
(1.15719 0.0923726 0.00934473 0.0490357 0.903064 0.123025 0.0961204 0.144051 0.960443)
(1.13317 0.0975542 -0.0650311 0.0415129 0.998993 0.130145 0.0663128 0.17475 0.881355)
(1.13284 0.0615216 -0.13315 -0.0190157 1.08374 0.128229 0.0381242 0.149803 0.800404)
(1.17563 0.00924815 -0.190912 -0.107834 1.11028 0.125449 0.052927 0.0637236 0.734947)
(1.25485 -0.0201666 -0.237472 -0.155918 1.04872 0.134419 0.127591 -0.0442903 0.700763)
(1.32833 0.00507553 -0.275139 -0.0972859 0.93216 0.163401 0.211103 -0.109918 0.704102)
(1.33482 0.0812181 -0.307145 0.0393523 0.865196 0.210889 0.201183 -0.104868 0.73974)
(1.18426 0.00404158 -0.351064 0.0653091 0.908076 0.405886 0.0505183 -0.484563 0.700207)
(1.06058 -0.0663531 -0.352553 0.00802892 0.938006 0.385313 -0.186828 -0.548367 0.854134)
(0.954105 -0.163753 -0.330015 -0.0765569 0.998631 0.336384 -0.326652 -0.543525 1.01158)
(0.89622 -0.256183 -0.295925 -0.146673 1.02268 0.285273 -0.361645 -0.510236 1.13564)
(0.88951 -0.321081 -0.260304 -0.187267 0.998448 0.236672 -0.32815 -0.461982 1.21857)
(0.918703 -0.346141 -0.225033 -0.200389 0.940336 0.190422 -0.267635 -0.404439 1.26864)
(0.968012 -0.327503 -0.189477 -0.192528 0.868403 0.147194 -0.206246 -0.34414 1.29398)
(1.02471 -0.268326 -0.153653 -0.167968 0.799584 0.107783 -0.156065 -0.290767 1.29923)
(1.07838 -0.177984 -0.117356 -0.130023 0.74739 0.0719221 -0.120088 -0.255349 1.28655)
(1.12106 -0.0708471 -0.0791642 -0.0844181 0.72232 0.0383988 -0.0957467 -0.246864 1.25625)
(1.14863 0.0352214 -0.0368738 -0.0421923 0.730897 0.0059636 -0.0783584 -0.26795 1.20674)
(1.16321 0.121601 0.0110777 -0.0201157 0.773452 -0.0259887 -0.0660788 -0.310662 1.13515)
(1.17522 0.174001 0.0643786 -0.0347913 0.842596 -0.0575929 -0.0656609 -0.354282 1.03948)
(1.20066 0.188006 0.120652 -0.0885082 0.924988 -0.0898212 -0.0944337 -0.367828 0.922502)
(1.24995 0.170312 0.17653 -0.153801 1.00359 -0.127049 -0.169746 -0.317541 0.796233)
(1.31306 0.134057 0.229854 -0.173572 1.05181 -0.179292 -0.279995 -0.17616 0.683118)
(1.35214 0.0893337 0.280326 -0.100045 1.02987 -0.25821 -0.35206 0.0550571 0.60943)
(1.30833 0.0484664 0.322882 0.0151538 0.954396 -0.355451 -0.279646 0.309375 0.603521)
(1.18426 0.00404158 0.351064 0.0653091 0.908076 -0.405886 -0.0505183 0.484563 0.700207)
(1.06058 -0.0663531 0.352553 0.00802892 0.938006 -0.385313 0.186828 0.548367 0.854134)
(0.954105 -0.163753 0.330015 -0.0765569 0.998631 -0.336384 0.326652 0.543525 1.01158)
(0.89622 -0.256183 0.295925 -0.146673 1.02268 -0.285273 0.361645 0.510236 1.13564)
(0.88951 -0.321081 0.260304 -0.187267 0.998448 -0.236672 0.32815 0.461982 1.21857)
(0.918703 -0.346141 0.225033 -0.200389 0.940336 -0.190422 0.267635 0.404439 1.26864)
(0.968012 -0.327503 0.189477 -0.192528 0.868403 -0.147194 0.206246 0.34414 1.29398)
(1.02471 -0.268326 0.153653 -0.167968 0.799584 -0.107783 0.156065 0.290767 1.29923)
(1.07838 -0.177984 0.117356 -0.130023 0.74739 -0.0719221 0.120088 0.255349 1.28655)
(1.12106 -0.0708471 0.0791642 -0.0844181 0.72232 -0.0383988 0.0957467 0.246864 1.25625)
(1.14863 0.0352214 0.0368738 -0.0421923 0.730897 -0.0059636 0.0783584 0.26795 1.20674)
(1.16321 0.121601 -0.0110777 -0.0201157 0.773452 0.0259887 0.0660788 0.310662 1.13515)
(1.17522 0.174001 -0.0643786 -0.0347913 0.842596 0.0575929 0.0656609 0.354282 1.03948)
(1.20066 0.188006 -0.120652 -0.0885082 0.924988 0.0898212 0.0944337 0.367828 0.922502)
(1.24995 0.170312 -0.17653 -0.153801 1.00359 0.127049 0.169746 0.317541 0.796233)
(1.31306 0.134057 -0.229854 -0.173572 1.05181 0.179292 0.279995 0.17616 0.683118)
(1.35214 0.0893337 -0.280326 -0.100045 1.02987 0.25821 0.35206 -0.0550571 0.60943)
(1.30833 0.0484664 -0.322882 0.0151538 0.954396 0.355451 0.279646 -0.309375 0.603521)
(1.25945 0.0983214 -0.340225 0.0467881 0.901088 0.310295 0.0740543 -0.330295 0.693824)
(1.11779 0.0433939 -0.343055 0.00291093 0.971076 0.305221 -0.165287 -0.414124 0.810796)
(0.989547 -0.0612556 -0.327909 -0.0749974 1.04078 0.280871 -0.301445 -0.475248 0.934533)
(0.91946 -0.18062 -0.303654 -0.146008 1.06563 0.249144 -0.321827 -0.495387 1.03573)
(0.911225 -0.27675 -0.276703 -0.193716 1.04204 0.212244 -0.275111 -0.471658 1.10681)
(0.948104 -0.327766 -0.248198 -0.217207 0.982638 0.171511 -0.210359 -0.417533 1.15155)
(1.01132 -0.326219 -0.217156 -0.21771 0.905248 0.129197 -0.154785 -0.352133 1.17497)
(1.08302 -0.274094 -0.182685 -0.195034 0.828259 0.0876421 -0.118938 -0.293559 1.18028)
(1.14682 -0.182312 -0.14423 -0.151172 0.769517 0.048506 -0.102844 -0.257598 1.16888)
(1.19042 -0.0698942 -0.101373 -0.0936833 0.743763 0.0125755 -0.0988736 -0.255066 1.14073)
(1.20866 0.039178 -0.0539308 -0.0369629 0.759468 -0.0200846 -0.0950632 -0.286507 1.09457)
(1.20617 0.121406 -0.00210205 -0.00119964 0.81616 -0.0499322 -0.0818312 -0.336592 1.02895)
(1.19816 0.160846 0.0535899 -0.0070251 0.902373 -0.0777233 -0.0621156 -0.372899 0.94438)
(1.2066 0.155814 0.112036 -0.0622987 0.9939 -0.104544 -0.0592422 -0.355403 0.846685)
(1.24789 0.121994 0.170648 -0.142642 1.05431 -0.132944 -0.108143 -0.259039 0.7493)
(1.31553 0.0876523 0.225551 -0.184775 1.04744 -0.168556 -0.216328 -0.0967517 0.670882)
(1.37209 0.0789986 0.273877 -0.130866 0.973073 -0.21779 -0.314765 0.0829282 0.626786)
(1.36049 0.0974827 0.314806 -0.0166508 0.898103 -0.274316 -0.281554 0.228155 0.62761)
(1.25945 0.0983214 0.340225 0.0467881 0.901088 -0.310295 -0.0740543 0.330295 0.693824)
(1.11779 0.0433939 0.343055 0.00291093 0.971076 -0.305221 0.165287 0.414124 0.810796)
(0.989547 -0.0612556 0.327909 -0.0749974 1.04078 -0.280871 0.301445 0.475248 0.934533)
(0.91946 -0.18062 0.303654 -0.146008 1.06563 -0.249144 0.321827 0.495387 1.03573)
(0.911225 -0.27675 0.276703 -0.193716 1.04204 -0.212244 0.275111 0.471658 1.10681)
(0.948104 -0.327766 0.248198 -0.217207 0.982638 -0.171511 0.210359 0.417533 1.15155)
(1.01132 -0.326219 0.217156 -0.21771 0.905248 -0.129197 0.154785 0.352133 1.17497)
(1.08302 -0.274094 0.182685 -0.195034 0.828259 -0.0876421 0.118938 0.293559 1.18028)
(1.14682 -0.182312 0.14423 -0.151172 0.769517 -0.048506 0.102844 0.257598 1.16888)
(1.19042 -0.0698942 0.101373 -0.0936833 0.743763 -0.0125755 0.0988736 0.255066 1.14073)
(1.20866 0.039178 0.0539308 -0.0369629 0.759468 0.0200846 0.0950632 0.286507 1.09457)
(1.20617 0.121406 0.00210205 -0.00119963 0.81616 0.0499322 0.0818312 0.336592 1.02895)
(1.19816 0.160846 -0.0535898 -0.0070251 0.902373 0.0777233 0.0621156 0.372899 0.94438)
(1.2066 0.155814 -0.112036 -0.0622987 0.9939 0.104544 0.0592422 0.355403 0.846685)
(1.24789 0.121994 -0.170648 -0.142642 1.05431 0.132944 0.108143 0.259039 0.7493)
(1.31553 0.0876523 -0.225551 -0.184775 1.04744 0.168556 0.216328 0.0967517 0.670882)
(1.37209 0.0789986 -0.273877 -0.130866 0.973073 0.21779 0.314765 -0.0829282 0.626786)
(1.36049 0.0974827 -0.314806 -0.0166508 0.898103 0.274316 0.281554 -0.228155 0.62761)
(1.3403 0.188078 -0.319286 0.0262942 0.87275 0.236982 0.101877 -0.174325 0.703489)
(1.17692 0.184786 -0.323121 -0.00361388 0.985752 0.242942 -0.14583 -0.254634 0.775861)
(1.01969 0.0806478 -0.317537 -0.0735239 1.07435 0.238244 -0.282143 -0.383857 0.857831)
(0.931567 -0.0690386 -0.304489 -0.146163 1.10985 0.222135 -0.285408 -0.469438 0.93133)
(0.919718 -0.204994 -0.286107 -0.203564 1.09321 0.195054 -0.221251 -0.478635 0.988701)
(0.967114 -0.292055 -0.263225 -0.24117 1.03564 0.159669 -0.150062 -0.430881 1.02798)
(1.05033 -0.315617 -0.235499 -0.252539 0.952785 0.11924 -0.101535 -0.360195 1.04996)
(1.14366 -0.275034 -0.201979 -0.230888 0.865741 0.0768854 -0.084017 -0.29591 1.05585)
(1.22198 -0.183192 -0.162005 -0.176538 0.798783 0.0354662 -0.0929679 -0.260232 1.04613)
(1.26688 -0.0656195 -0.115887 -0.100795 0.772574 -0.0027656 -0.11362 -0.266118 1.02048)
(1.27277 0.045414 -0.0648774 -0.0242696 0.797541 -0.0367523 -0.124526 -0.310865 0.97817)
(1.24916 0.120634 -0.0103023 0.0276167 0.870841 -0.0667523 -0.106922 -0.369227 0.919178)
(1.21826 0.143273 0.0473209 0.0296144 0.974615 -0.0935576 -0.0604711 -0.394153 0.846376)
(1.20883 0.116095 0.107652 -0.0320173 1.07061 -0.117934 -0.0181032 -0.335946 0.768708)
(1.24278 0.0649657 0.168669 -0.133287 1.10217 -0.141859 -0.0378203 -0.183035 0.701681)
(1.31525 0.0307136 0.22614 -0.197725 1.03427 -0.168656 -0.147299 0.00673669 0.660051)
(1.38815 0.0448447 0.274542 -0.159991 0.906866 -0.197794 -0.277541 0.141159 0.648215)
(1.41265 0.112401 0.307372 -0.0473505 0.82625 -0.220717 -0.288179 0.172894 0.662552)
(1.3403 0.188078 0.319286 0.0262942 0.87275 -0.236982 -0.101877 0.174325 0.703489)
(1.17692 0.184786 0.323121 -0.00361388 0.985752 -0.242942 0.14583 0.254634 0.775861)
(1.01969 0.0806478 0.317537 -0.0735239 1.07435 -0.238244 0.282143 0.383857 0.857831)
(0.931567 -0.0690386 0.304489 -0.146163 1.10985 -0.222135 0.285408 0.469438 0.93133)
(0.919718 -0.204994 0.286107 -0.203564 1.09321 -0.195054 0.221251 0.478635 0.988701)
(0.967114 -0.292055 0.263225 -0.24117 1.03564 -0.159669 0.150062 0.430881 1.02798)
(1.05033 -0.315617 0.235499 -0.252539 0.952785 -0.11924 0.101535 0.360195 1.04996)
(1.14366 -0.275034 0.201979 -0.230888 0.865741 -0.0768854 0.084017 0.29591 1.05585)
(1.22198 -0.183192 0.162005 -0.176538 0.798783 -0.0354662 0.0929679 0.260232 1.04613)
(1.26688 -0.0656195 0.115887 -0.100795 0.772574 0.00276559 0.11362 0.266118 1.02048)
(1.27277 0.045414 0.0648775 -0.0242696 0.797541 0.0367523 0.124526 0.310865 0.97817)
(1.24916 0.120634 0.0103023 0.0276167 0.870841 0.0667523 0.106922 0.369227 0.919178)
(1.21826 0.143273 -0.0473209 0.0296144 0.974615 0.0935576 0.0604711 0.394153 0.846376)
(1.20883 0.116095 -0.107652 -0.0320173 1.07061 0.117934 0.0181032 0.335946 0.768708)
(1.24278 0.0649657 -0.168669 -0.133287 1.10217 0.141859 0.0378203 0.183035 0.701681)
(1.31525 0.0307136 -0.22614 -0.197725 1.03427 0.168656 0.147299 -0.00673669 0.660051)
(1.38815 0.0448447 -0.274542 -0.159991 0.906866 0.197794 0.277541 -0.141159 0.648215)
(1.41265 0.112401 -0.307372 -0.0473505 0.82625 0.220717 0.288179 -0.172894 0.662552)
(1.20214 0.0212473 -0.263637 -0.184181 0.882089 0.39734 0.0700776 -0.594721 0.686155)
(1.08729 -0.0748207 -0.256488 -0.186283 0.946511 0.377773 -0.186269 -0.719351 0.779171)
(0.984644 -0.184383 -0.2286 -0.217744 0.998977 0.345401 -0.356911 -0.738978 0.912914)
(0.921934 -0.280982 -0.196198 -0.25057 1.01345 0.316575 -0.420501 -0.709557 1.03538)
(0.910233 -0.347134 -0.169766 -0.269839 0.984933 0.288859 -0.402575 -0.662956 1.12646)
(0.938929 -0.375662 -0.147695 -0.271161 0.923967 0.258022 -0.344135 -0.612843 1.18836)
(0.992245 -0.361913 -0.125245 -0.255102 0.846947 0.224229 -0.275201 -0.56368 1.22674)
(1.05604 -0.305497 -0.100122 -0.222752 0.770344 0.18935 -0.211669 -0.52132 1.24456)
(1.11823 -0.21316 -0.072278 -0.176349 0.709504 0.154563 -0.159619 -0.494101 1.24232)
(1.16917 -0.0990949 -0.0424036 -0.121881 0.677309 0.119755 -0.11932 -0.489485 1.2194)
(1.20349 0.0171327 -0.0110703 -0.070984 0.681431 0.0840621 -0.0885993 -0.509343 1.17516)