/*--------------------------------*- C++ -*----------------------------------*\
| =========                 |                                                 |
| \\      /  F ield         | OpenFOAM: The Open Source CFD Toolbox           |
|  \\    /   O peration     | Version:  2312                                  |
|   \\  /    A nd           | Website:  www.openfoam.com                      |
|    \\/     M anipulation  |                                                 |
\*---------------------------------------------------------------------------*/
FoamFile
{
    version     2.0;
    format      ascii;
    arch        "LSB;label=32;scalar=64";
    class       pointVectorField;
    location    "1";
    object      pointD;
}
// * * * * * * * * * * * * * * * * * * * * * * * * * * * * * * * * * * * * * //

dimensions      [0 1 0 0 0 0 0];

internalField   nonuniform List<vector> 
2164
(
(0 0 0)
(0 0 0)
(0 0 0)
(0 0 0)
(0 0 0)
(0 0 0)
(0 0 0)
(0 0 0)
(0 0 0)
(0 0 0)
(0 0 0)
(0 0 0)
(0 0 0)
(0 0 0)
(0 0 0)
(0 0 0)
(0 0 0)
(0 0 0)
(0 0 0)
(0 0 0)
(0 0 0)
(0 0 0)
(0 0 0)
(0 0 0)
(0 0 0)
(0 0 0)
(0 0 0)
(0 0 0)
(0 0 0)
(0 0 0)
(0 0 0)
(0 0 0)
(0 0 0)
(0 0 0)
(0 0 0)
(0 0 0)
(-0.000515069 0.000263509 -0.000367214)
(-0.000553002 0.000170066 -0.000367214)
(-0.000574133 7.14553e-05 -0.000367212)
(-0.000577819 -2.93269e-05 -0.000367212)
(-0.000563948 -0.000129218 -0.000367212)
(-0.000532942 -0.000225182 -0.000367212)
(-0.000485743 -0.000314306 -0.000367212)
(-0.000423783 -0.00039388 -0.000367213)
(-0.000348948 -0.000461486 -0.000367213)
(-0.000263509 -0.000515069 -0.000367214)
(-0.000170066 -0.000553002 -0.000367214)
(-7.14552e-05 -0.000574133 -0.000367212)
(2.9327e-05 -0.000577819 -0.000367212)
(0.000129218 -0.000563948 -0.000367212)
(0.000225182 -0.000532942 -0.000367212)
(0.000314306 -0.000485743 -0.000367212)
(0.00039388 -0.000423783 -0.000367213)
(0.000461486 -0.000348948 -0.000367213)
(0.000515069 -0.000263509 -0.000367214)
(0.000553002 -0.000170066 -0.000367214)
(0.000574133 -7.14552e-05 -0.000367212)
(0.000577819 2.9327e-05 -0.000367212)
(0.000563948 0.000129218 -0.000367212)
(0.000532942 0.000225182 -0.000367212)
(0.000485743 0.000314306 -0.000367212)
(0.000423783 0.00039388 -0.000367213)
(0.000348948 0.000461486 -0.000367213)
(0.000263509 0.000515069 -0.000367214)
(0.000170066 0.000553002 -0.000367214)
(7.14553e-05 0.000574133 -0.000367212)
(-2.93269e-05 0.000577819 -0.000367212)
(-0.000129218 0.000563948 -0.000367212)
(-0.000225182 0.000532942 -0.000367212)
(-0.000314306 0.000485743 -0.000367212)
(-0.00039388 0.000423783 -0.000367213)
(-0.000461486 0.000348948 -0.000367213)
(-0.00043686 0.000444894 -0.000275597)
(-0.000507479 0.000362274 -0.000275597)
(-0.000562677 0.000268648 -0.000275596)
(-0.00060078 0.00016686 -0.000275595)
(-0.000620628 6.00007e-05 -0.000275595)
(-0.000621618 -4.86825e-05 -0.000275596)
(-0.000603721 -0.000155885 -0.000275596)
(-0.000567479 -0.000258352 -0.000275596)
(-0.000513995 -0.000352969 -0.000275597)
(-0.000444894 -0.00043686 -0.000275597)
(-0.000362274 -0.000507479 -0.000275597)
(-0.000268648 -0.000562677 -0.000275596)
(-0.00016686 -0.00060078 -0.000275595)
(-6.00007e-05 -0.000620628 -0.000275595)
(4.86825e-05 -0.000621618 -0.000275596)
(0.000155885 -0.000603721 -0.000275596)
(0.000258352 -0.000567479 -0.000275596)
(0.000352969 -0.000513995 -0.000275597)
(0.00043686 -0.000444894 -0.000275597)
(0.000507479 -0.000362274 -0.000275597)
(0.000562677 -0.000268648 -0.000275596)
(0.00060078 -0.00016686 -0.000275595)
(0.000620628 -6.00007e-05 -0.000275595)
(0.000621618 4.86825e-05 -0.000275596)
(0.000603721 0.000155885 -0.000275596)
(0.000567479 0.000258352 -0.000275596)
(0.000513995 0.000352969 -0.000275597)
(0.000444894 0.00043686 -0.000275597)
(0.000362274 0.000507479 -0.000275597)
(0.000268648 0.000562677 -0.000275596)
(0.00016686 0.00060078 -0.000275595)
(6.00007e-05 0.000620628 -0.000275595)
(-4.86825e-05 0.000621618 -0.000275596)
(-0.000155885 0.000603721 -0.000275596)
(-0.000258352 0.000567479 -0.000275596)
(-0.000352969 0.000513995 -0.000275597)
(0 0 0)
(0 0 0)
(0 0 0)
(0 0 0)
(0 0 0)
(0 0 0)
(0 0 0)
(0 0 0)
(0 0 0)
(0 0 0)
(0 0 0)
(0 0 0)
(0 0 0)
(0 0 0)
(0 0 0)
(0 0 0)
(0 0 0)
(0 0 0)
(0 0 0)
(0 0 0)
(0 0 0)
(0 0 0)
(0 0 0)
(0 0 0)
(0 0 0)
(0 0 0)
(0 0 0)
(0 0 0)
(0 0 0)
(0 0 0)
(0 0 0)
(0 0 0)
(0 0 0)
(0 0 0)
(0 0 0)
(0 0 0)
(-0.00038171 0.000630896 -0.000181099)
(-0.000485465 0.000555027 -0.0001811)
(-0.000574469 0.000462296 -0.000181099)
(-0.000646018 0.000355517 -0.0001811)
(-0.000697939 0.000237936 -0.0001811)
(-0.000728654 0.000113126 -0.000181099)
(-0.000737227 -1.5123e-05 -0.0001811)
(-0.000723402 -0.000142911 -0.000181099)
(-0.000687594 -0.000266358 -0.0001811)
(-0.000630896 -0.00038171 -0.000181099)
(-0.000555026 -0.000485465 -0.0001811)
(-0.000462296 -0.000574469 -0.000181099)
(-0.000355517 -0.000646018 -0.0001811)
(-0.000237935 -0.000697939 -0.0001811)
(-0.000113126 -0.000728654 -0.000181099)
(1.51231e-05 -0.000737227 -0.0001811)
(0.000142911 -0.000723402 -0.000181099)
(0.000266358 -0.000687594 -0.0001811)
(0.00038171 -0.000630896 -0.000181099)
(0.000485465 -0.000555026 -0.0001811)
(0.000574469 -0.000462296 -0.000181099)
(0.000646018 -0.000355517 -0.0001811)
(0.000697939 -0.000237935 -0.0001811)
(0.000728654 -0.000113126 -0.000181099)
(0.000737227 1.51231e-05 -0.0001811)
(0.000723402 0.000142911 -0.000181099)
(0.000687594 0.000266358 -0.0001811)
(0.000630896 0.00038171 -0.000181099)
(0.000555026 0.000485465 -0.0001811)
(0.000462296 0.000574469 -0.000181099)
(0.000355517 0.000646018 -0.0001811)
(0.000237935 0.000697939 -0.0001811)
(0.000113126 0.000728654 -0.000181099)
(-1.51231e-05 0.000737227 -0.0001811)
(-0.000142911 0.000723402 -0.000181099)
(-0.000266358 0.000687594 -0.0001811)
(0 0 0)
(0 0 0)
(0 0 0)
(0 0 0)
(0 0 0)
(0 0 0)
(0 0 0)
(0 0 0)
(0 0 0)
(0 0 0)
(0 0 0)
(0 0 0)
(0 0 0)
(0 0 0)
(0 0 0)
(0 0 0)
(0 0 0)
(0 0 0)
(0 0 0)
(0 0 0)
(0 0 0)
(0 0 0)
(0 0 0)
(0 0 0)
(0 0 0)
(0 0 0)
(0 0 0)
(0 0 0)
(0 0 0)
(0 0 0)
(0 0 0)
(0 0 0)
(0 0 0)
(0 0 0)
(0 0 0)
(0 0 0)
(-0.000352389 0.000807908 -8.99986e-05)
(-0.000487327 0.000734442 -8.99989e-05)
(-0.000607458 0.000638662 -8.99991e-05)
(-0.000709132 0.000523475 -8.99991e-05)
(-0.000789259 0.000392383 -8.99991e-05)
(-0.000845406 0.000249367 -8.99992e-05)
(-0.000875864 9.87747e-05 -8.99996e-05)
(-0.00087971 -5.48174e-05 -8.99991e-05)
(-0.000856825 -0.000206745 -8.99994e-05)
(-0.000807908 -0.000352389 -8.99986e-05)
(-0.000734442 -0.000487327 -8.99989e-05)
(-0.000638662 -0.000607458 -8.99991e-05)
(-0.000523475 -0.000709132 -8.99992e-05)
(-0.000392383 -0.000789259 -8.99991e-05)
(-0.000249367 -0.000845405 -8.99992e-05)
(-9.87747e-05 -0.000875864 -8.99996e-05)
(5.48174e-05 -0.00087971 -8.99991e-05)
(0.000206745 -0.000856825 -8.99994e-05)
(0.000352389 -0.000807908 -8.99986e-05)
(0.000487327 -0.000734442 -8.99989e-05)
(0.000607458 -0.000638662 -8.99991e-05)
(0.000709132 -0.000523475 -8.99992e-05)
(0.000789259 -0.000392383 -8.99991e-05)
(0.000845406 -0.000249367 -8.99992e-05)
(0.000875864 -9.87747e-05 -8.99996e-05)
(0.00087971 5.48174e-05 -8.99991e-05)
(0.000856825 0.000206745 -8.99994e-05)
(0.000807908 0.000352389 -8.99986e-05)
(0.000734442 0.000487327 -8.99989e-05)
(0.000638662 0.000607458 -8.99991e-05)
(0.000523475 0.000709132 -8.99991e-05)
(0.000392383 0.000789259 -8.9999e-05)
(0.000249367 0.000845406 -8.99992e-05)
(9.87747e-05 0.000875864 -8.99995e-05)
(-5.48174e-05 0.00087971 -8.9999e-05)
(-0.000206745 0.000856825 -8.99994e-05)
(0 0 0)
(0 0 0)
(0 0 0)
(0 0 0)
(0 0 0)
(0 0 0)
(0 0 0)
(0 0 0)
(0 0 0)
(0 0 0)
(0 0 0)
(0 0 0)
(0 0 0)
(0 0 0)
(0 0 0)
(0 0 0)
(0 0 0)
(0 0 0)
(0 0 0)
(0 0 0)
(0 0 0)
(0 0 0)
(0 0 0)
(0 0 0)
(0 0 0)
(0 0 0)
(0 0 0)
(0 0 0)
(0 0 0)
(0 0 0)
(0 0 0)
(0 0 0)
(0 0 0)
(0 0 0)
(0 0 0)
(0 0 0)
(-0.000856672 0.000616043 -0.000792322)
(-0.000950633 0.000457924 -0.000792323)
(-0.00101571 0.000285893 -0.00079232)
(-0.00104992 0.000105175 -0.000792318)
(-0.00105224 -7.87385e-05 -0.000792318)
(-0.00102258 -0.00026026 -0.000792318)
(-0.000961847 -0.000433876 -0.000792319)
(-0.000871891 -0.000594308 -0.00079232)
(-0.000755445 -0.000736682 -0.000792321)
(-0.000616042 -0.000856672 -0.000792322)
(-0.000457923 -0.000950633 -0.000792323)
(-0.000285893 -0.00101571 -0.00079232)
(-0.000105175 -0.00104992 -0.000792318)
(7.87386e-05 -0.00105224 -0.000792318)
(0.00026026 -0.00102258 -0.000792318)
(0.000433876 -0.000961847 -0.000792319)
(0.000594308 -0.000871891 -0.000792321)
(0.000736682 -0.000755445 -0.000792321)
(0.000856672 -0.000616042 -0.000792323)
(0.000950633 -0.000457923 -0.000792323)
(0.00101571 -0.000285893 -0.00079232)
(0.00104992 -0.000105175 -0.000792318)
(0.00105224 7.87387e-05 -0.000792318)
(0.00102258 0.00026026 -0.000792318)
(0.000961848 0.000433876 -0.000792319)
(0.000871891 0.000594308 -0.00079232)
(0.000755445 0.000736682 -0.000792321)
(0.000616043 0.000856672 -0.000792322)
(0.000457923 0.000950633 -0.000792323)
(0.000285893 0.00101571 -0.00079232)
(0.000105175 0.00104992 -0.000792318)
(-7.87386e-05 0.00105224 -0.000792317)
(-0.00026026 0.00102258 -0.000792318)
(-0.000433876 0.000961848 -0.000792319)
(-0.000594308 0.000871891 -0.00079232)
(-0.000736682 0.000755445 -0.000792321)
(-0.000817682 0.000925511 -0.000621475)
(-0.000965973 0.000769462 -0.000621474)
(-0.00108491 0.000590031 -0.000621475)
(-0.00117089 0.000392676 -0.000621472)
(-0.00122129 0.000183389 -0.000621472)
(-0.00123458 -3.14735e-05 -0.000621473)
(-0.00121036 -0.000245376 -0.000621472)
(-0.00114936 -0.000451827 -0.000621473)
(-0.00105344 -0.000644546 -0.000621474)
(-0.000925511 -0.000817682 -0.000621475)
(-0.000769462 -0.000965973 -0.000621474)
(-0.000590031 -0.00108491 -0.000621475)
(-0.000392676 -0.00117089 -0.000621473)
(-0.000183389 -0.00122129 -0.000621472)
(3.14736e-05 -0.00123458 -0.000621473)
(0.000245377 -0.00121036 -0.000621472)
(0.000451827 -0.00114936 -0.000621474)
(0.000644546 -0.00105344 -0.000621474)
(0.000817682 -0.000925511 -0.000621475)
(0.000965973 -0.000769462 -0.000621474)
(0.00108491 -0.000590031 -0.000621475)
(0.00117089 -0.000392676 -0.000621473)
(0.00122129 -0.000183389 -0.000621472)
(0.00123458 3.14737e-05 -0.000621473)
(0.00121036 0.000245377 -0.000621472)
(0.00114936 0.000451827 -0.000621473)
(0.00105344 0.000644547 -0.000621474)
(0.000925511 0.000817682 -0.000621475)
(0.000769462 0.000965973 -0.000621474)
(0.000590031 0.00108491 -0.000621475)
(0.000392676 0.00117089 -0.000621472)
(0.000183389 0.00122129 -0.000621472)
(-3.14736e-05 0.00123458 -0.000621473)
(-0.000245376 0.00121036 -0.000621472)
(-0.000451827 0.00114936 -0.000621473)
(-0.000644546 0.00105344 -0.000621474)
(-0.000809717 0.00123915 -0.000447576)
(-0.00101259 0.00107972 -0.000447576)
(-0.0011847 0.000887484 -0.000447576)
(-0.00132081 0.000668282 -0.000447575)
(-0.00141679 0.000428771 -0.000447574)
(-0.00146972 0.000176233 -0.000447575)
(-0.001478 -8.16601e-05 -0.000447575)
(-0.00144136 -0.00033707 -0.000447576)
(-0.00136093 -0.000582239 -0.000447576)
(-0.00123915 -0.000809717 -0.000447576)
(-0.00107972 -0.00101259 -0.000447576)
(-0.000887484 -0.0011847 -0.000447576)
(-0.000668282 -0.00132081 -0.000447575)
(-0.000428771 -0.00141679 -0.000447574)
(-0.000176233 -0.00146972 -0.000447575)
(8.16602e-05 -0.001478 -0.000447575)
(0.00033707 -0.00144136 -0.000447576)
(0.000582239 -0.00136093 -0.000447576)
(0.000809717 -0.00123915 -0.000447576)
(0.00101259 -0.00107972 -0.000447576)
(0.0011847 -0.000887484 -0.000447576)
(0.00132081 -0.000668282 -0.000447575)
(0.00141679 -0.000428771 -0.000447574)
(0.00146972 -0.000176233 -0.000447575)
(0.001478 8.16602e-05 -0.000447575)
(0.00144136 0.00033707 -0.000447576)
(0.00136093 0.00058224 -0.000447576)
(0.00123915 0.000809718 -0.000447576)
(0.00107972 0.00101259 -0.000447576)
(0.000887484 0.0011847 -0.000447575)
(0.000668282 0.00132081 -0.000447574)
(0.000428771 0.00141679 -0.000447574)
(0.000176233 0.00146972 -0.000447575)
(-8.16602e-05 0.001478 -0.000447575)
(-0.00033707 0.00144136 -0.000447575)
(-0.000582239 0.00136093 -0.000447576)
(-0.000832921 0.00152988 -0.000281381)
(-0.00108593 0.001362 -0.000281382)
(-0.00130594 0.00115274 -0.000281383)
(-0.00148627 0.000908456 -0.000281384)
(-0.00162144 0.000636566 -0.000281384)
(-0.00170735 0.000345334 -0.000281384)
(-0.00174138 4.36117e-05 -0.000281383)
(-0.00172249 -0.000259438 -0.000281382)
(-0.00165127 -0.000554606 -0.000281383)
(-0.00152988 -0.000832921 -0.000281382)
(-0.001362 -0.00108593 -0.000281382)
(-0.00115274 -0.00130594 -0.000281383)
(-0.000908456 -0.00148627 -0.000281384)
(-0.000636566 -0.00162144 -0.000281384)
(-0.000345334 -0.00170735 -0.000281384)
(-4.36116e-05 -0.00174138 -0.000281383)
(0.000259438 -0.00172249 -0.000281382)
(0.000554606 -0.00165127 -0.000281383)
(0.000832921 -0.00152988 -0.000281382)
(0.00108593 -0.001362 -0.000281382)
(0.00130594 -0.00115274 -0.000281383)
(0.00148627 -0.000908456 -0.000281384)
(0.00162144 -0.000636566 -0.000281384)
(0.00170735 -0.000345334 -0.000281384)
(0.00174138 -4.36116e-05 -0.000281383)
(0.00172249 0.000259438 -0.000281382)
(0.00165127 0.000554606 -0.000281383)
(0.00152988 0.000832921 -0.000281382)
(0.001362 0.00108593 -0.000281382)
(0.00115274 0.00130594 -0.000281383)
(0.000908456 0.00148627 -0.000281384)
(0.000636566 0.00162144 -0.000281384)
(0.000345334 0.00170735 -0.000281384)
(4.36116e-05 0.00174138 -0.000281383)
(-0.000259438 0.00172249 -0.000281382)
(-0.000554606 0.00165127 -0.000281383)
(-0.00117363 0.00107996 -0.00126845)
(-0.00134333 0.000859758 -0.00126845)
(-0.00147222 0.000613431 -0.00126845)
(-0.00155638 0.000348466 -0.00126845)
(-0.00159324 7.29101e-05 -0.00126845)
(-0.0015817 -0.00020486 -0.00126845)
(-0.00152209 -0.000476409 -0.00126845)
(-0.00141624 -0.000733479 -0.00126845)
(-0.00126735 -0.000968263 -0.00126845)
(-0.00107996 -0.00117363 -0.00126845)
(-0.000859758 -0.00134333 -0.00126845)
(-0.000613431 -0.00147222 -0.00126845)
(-0.000348466 -0.00155638 -0.00126845)
(-7.29099e-05 -0.00159324 -0.00126845)
(0.00020486 -0.0015817 -0.00126845)
(0.000476409 -0.00152209 -0.00126845)
(0.000733479 -0.00141624 -0.00126845)
(0.000968263 -0.00126735 -0.00126845)
(0.00117363 -0.00107996 -0.00126845)
(0.00134333 -0.000859758 -0.00126845)
(0.00147222 -0.000613431 -0.00126845)
(0.00155638 -0.000348466 -0.00126845)
(0.00159324 -7.29099e-05 -0.00126845)
(0.0015817 0.000204861 -0.00126845)
(0.00152209 0.000476409 -0.00126845)
(0.00141624 0.00073348 -0.00126845)
(0.00126735 0.000968263 -0.00126845)
(0.00107996 0.00117363 -0.00126845)
(0.000859758 0.00134333 -0.00126845)
(0.000613431 0.00147222 -0.00126845)
(0.000348466 0.00155638 -0.00126845)
(7.291e-05 0.00159324 -0.00126845)
(-0.00020486 0.0015817 -0.00126844)
(-0.000476409 0.00152209 -0.00126845)
(-0.000733479 0.00141624 -0.00126845)
(-0.000968263 0.00126735 -0.00126845)
(-0.00118275 0.00145188 -0.00104215)
(-0.00141689 0.00122445 -0.00104215)
(-0.00160799 0.000959802 -0.00104215)
(-0.00175023 0.000665997 -0.00104215)
(-0.00183929 0.000351956 -0.00104215)
(-0.00187246 2.72191e-05 -0.00104215)
(-0.00184874 -0.000298344 -0.00104215)
(-0.00176885 -0.000614843 -0.00104215)
(-0.00163521 -0.00091266 -0.00104215)
(-0.00145188 -0.00118275 -0.00104215)
(-0.00122445 -0.00141689 -0.00104215)
(-0.000959802 -0.00160799 -0.00104215)
(-0.000665997 -0.00175023 -0.00104215)
(-0.000351956 -0.00183929 -0.00104215)
(-2.72189e-05 -0.00187246 -0.00104215)
(0.000298344 -0.00184874 -0.00104215)
(0.000614843 -0.00176885 -0.00104215)
(0.00091266 -0.00163521 -0.00104215)
(0.00118275 -0.00145188 -0.00104215)
(0.00141689 -0.00122445 -0.00104215)
(0.00160799 -0.000959802 -0.00104215)
(0.00175023 -0.000665997 -0.00104215)
(0.00183929 -0.000351956 -0.00104215)
(0.00187246 -2.72189e-05 -0.00104215)
(0.00184874 0.000298344 -0.00104215)
(0.00176885 0.000614843 -0.00104215)
(0.00163521 0.00091266 -0.00104215)
(0.00145188 0.00118275 -0.00104215)
(0.00122445 0.0014169 -0.00104215)
(0.000959802 0.00160799 -0.00104215)
(0.000665997 0.00175023 -0.00104215)
(0.000351956 0.00183929 -0.00104215)
(2.7219e-05 0.00187246 -0.00104215)
(-0.000298344 0.00184874 -0.00104215)
(-0.000614843 0.00176885 -0.00104215)
(-0.00091266 0.00163521 -0.00104215)
(-0.00122969 0.0018174 -0.000816108)
(-0.0015266 0.00157625 -0.000816108)
(-0.00177712 0.00128722 -0.000816108)
(-0.00197364 0.000959069 -0.000816108)
(-0.0021102 0.000601777 -0.000816108)
(-0.00218264 0.000226203 -0.000816107)
(-0.00218876 -0.000156245 -0.000816108)
(-0.00212838 -0.000533946 -0.000816108)
(-0.00200332 -0.000895422 -0.000816109)
(-0.0018174 -0.00122969 -0.000816108)
(-0.00157625 -0.0015266 -0.000816109)
(-0.00128722 -0.00177712 -0.000816108)
(-0.000959069 -0.00197364 -0.000816108)
(-0.000601777 -0.0021102 -0.000816108)
(-0.000226203 -0.00218264 -0.000816108)
(0.000156245 -0.00218876 -0.000816108)
(0.000533946 -0.00212838 -0.000816108)
(0.000895422 -0.00200332 -0.000816109)
(0.00122969 -0.0018174 -0.000816108)
(0.0015266 -0.00157625 -0.000816109)
(0.00177712 -0.00128722 -0.000816108)
(0.00197364 -0.000959069 -0.000816108)
(0.0021102 -0.000601777 -0.000816108)
(0.00218264 -0.000226203 -0.000816108)
(0.00218876 0.000156245 -0.000816108)
(0.00212838 0.000533946 -0.000816108)
(0.00200332 0.000895422 -0.000816109)
(0.0018174 0.00122969 -0.000816108)
(0.00157625 0.0015266 -0.000816108)
(0.00128722 0.00177712 -0.000816108)
(0.000959069 0.00197364 -0.000816108)
(0.000601777 0.0021102 -0.000816108)
(0.000226203 0.00218264 -0.000816107)
(-0.000156245 0.00218876 -0.000816108)
(-0.000533946 0.00212838 -0.000816108)
(-0.000895422 0.00200332 -0.000816109)
(-0.00130867 0.00214603 -0.000601347)
(-0.00166144 0.00188618 -0.000601347)
(-0.00196374 0.00156902 -0.000601346)
(-0.00220636 0.00120418 -0.000601347)
(-0.00238194 0.000802756 -0.000601348)
(-0.00248515 0.00037694 -0.000601347)
(-0.00251285 -6.03303e-05 -0.000601348)
(-0.0024642 -0.000495765 -0.000601348)
(-0.00234068 -0.000916139 -0.000601346)
(-0.00214603 -0.00130867 -0.000601347)
(-0.00188618 -0.00166144 -0.000601347)
(-0.00156902 -0.00196374 -0.000601347)
(-0.00120418 -0.00220636 -0.000601347)
(-0.000802756 -0.00238194 -0.000601348)
(-0.00037694 -0.00248515 -0.000601347)
(6.03304e-05 -0.00251285 -0.000601348)
(0.000495765 -0.0024642 -0.000601348)
(0.000916139 -0.00234068 -0.000601346)
(0.00130867 -0.00214603 -0.000601347)
(0.00166144 -0.00188618 -0.000601348)
(0.00196374 -0.00156902 -0.000601347)
(0.00220636 -0.00120418 -0.000601347)
(0.00238194 -0.000802756 -0.000601348)
(0.00248515 -0.00037694 -0.000601347)
(0.00251285 6.03305e-05 -0.000601348)
(0.0024642 0.000495765 -0.000601348)
(0.00234068 0.000916139 -0.000601346)
(0.00214603 0.00130867 -0.000601347)
(0.00188618 0.00166145 -0.000601347)
(0.00156902 0.00196374 -0.000601346)
(0.00120418 0.00220636 -0.000601347)
(0.000802756 0.00238194 -0.000601347)
(0.00037694 0.00248515 -0.000601347)
(-6.03304e-05 0.00251285 -0.000601348)
(-0.000495765 0.0024642 -0.000601348)
(-0.000916139 0.00234068 -0.000601346)
(-0.00148009 0.00165694 -0.00175197)
(-0.00174533 0.00137475 -0.00175197)
(-0.00195754 0.0010508 -0.00175197)
(-0.00211027 0.000694909 -0.00175197)
(-0.00219888 0.000317908 -0.00175197)
(-0.00222067 -6.87516e-05 -0.00175197)
(-0.002175 -0.000453323 -0.00175197)
(-0.00206323 -0.000824123 -0.00175197)
(-0.00188878 -0.00116988 -0.00175197)
(-0.00165694 -0.00148009 -0.00175197)
(-0.00137475 -0.00174533 -0.00175197)
(-0.00105079 -0.00195754 -0.00175197)
(-0.000694909 -0.00211027 -0.00175197)
(-0.000317908 -0.00219888 -0.00175197)
(6.87518e-05 -0.00222067 -0.00175197)
(0.000453324 -0.002175 -0.00175197)
(0.000824124 -0.00206323 -0.00175197)
(0.00116988 -0.00188878 -0.00175197)
(0.00148009 -0.00165694 -0.00175197)
(0.00174533 -0.00137475 -0.00175197)
(0.00195754 -0.00105079 -0.00175197)
(0.00211027 -0.000694909 -0.00175197)
(0.00219888 -0.000317908 -0.00175197)
(0.00222067 6.87518e-05 -0.00175197)
(0.002175 0.000453324 -0.00175197)
(0.00206323 0.000824124 -0.00175197)
(0.00188879 0.00116988 -0.00175197)
(0.00165694 0.00148009 -0.00175197)
(0.00137475 0.00174533 -0.00175197)
(0.00105079 0.00195754 -0.00175197)
(0.000694909 0.00211027 -0.00175197)
(0.000317908 0.00219888 -0.00175197)
(-6.87517e-05 0.00222067 -0.00175197)
(-0.000453323 0.002175 -0.00175197)
(-0.000824123 0.00206323 -0.00175197)
(-0.00116988 0.00188879 -0.00175197)
(-0.00153299 0.00202135 -0.00149154)
(-0.00186071 0.00172444 -0.00149154)
(-0.00213188 0.00137514 -0.00149154)
(-0.00233828 0.000984051 -0.00149154)
(-0.00247364 0.00056306 -0.00149154)
(-0.00253384 0.000124964 -0.00149154)
(-0.00251704 -0.000316931 -0.00149154)
(-0.00242377 -0.000749196 -0.00149154)
(-0.00225685 -0.0011587 -0.00149154)
(-0.00202135 -0.00153299 -0.00149154)
(-0.00172444 -0.00186071 -0.00149154)
(-0.00137514 -0.00213188 -0.00149154)
(-0.000984051 -0.00233828 -0.00149154)
(-0.00056306 -0.00247364 -0.00149154)
(-0.000124964 -0.00253383 -0.00149154)
(0.000316931 -0.00251704 -0.00149154)
(0.000749196 -0.00242377 -0.00149154)
(0.0011587 -0.00225685 -0.00149154)
(0.00153299 -0.00202135 -0.00149154)
(0.00186071 -0.00172444 -0.00149154)
(0.00213188 -0.00137514 -0.00149154)
(0.00233828 -0.000984051 -0.00149154)
(0.00247364 -0.00056306 -0.00149154)
(0.00253384 -0.000124964 -0.00149154)
(0.00251704 0.000316931 -0.00149154)
(0.00242377 0.000749196 -0.00149154)
(0.00225685 0.0011587 -0.00149154)
(0.00202135 0.00153299 -0.00149154)
(0.00172444 0.00186071 -0.00149154)
(0.00137514 0.00213188 -0.00149154)
(0.000984051 0.00233828 -0.00149154)
(0.00056306 0.00247364 -0.00149154)
(0.000124964 0.00253384 -0.00149154)
(-0.000316931 0.00251704 -0.00149154)
(-0.000749196 0.00242377 -0.00149154)
(-0.0011587 0.00225685 -0.00149154)
(-0.00162667 0.00236565 -0.00123663)
(-0.00201275 0.00204725 -0.00123663)
(-0.00233767 0.00166664 -0.00123663)
(-0.00259156 0.00123538 -0.00123662)
(-0.00276671 0.000766599 -0.00123662)
(-0.0028578 0.000274517 -0.00123662)
(-0.00286205 -0.000225907 -0.00123662)
(-0.00277934 -0.000719464 -0.00123663)
(-0.00261218 -0.00119116 -0.00123662)
(-0.00236565 -0.00162667 -0.00123663)
(-0.00204725 -0.00201275 -0.00123663)
(-0.00166664 -0.00233767 -0.00123663)
(-0.00123538 -0.00259156 -0.00123663)
(-0.000766599 -0.00276671 -0.00123663)
(-0.000274517 -0.0028578 -0.00123663)
(0.000225907 -0.00286205 -0.00123662)
(0.000719464 -0.00277934 -0.00123663)
(0.00119116 -0.00261218 -0.00123662)
(0.00162667 -0.00236565 -0.00123663)
(0.00201275 -0.00204725 -0.00123663)
(0.00233767 -0.00166664 -0.00123663)
(0.00259156 -0.00123538 -0.00123663)
(0.00276671 -0.000766598 -0.00123663)
(0.0028578 -0.000274517 -0.00123662)
(0.00286205 0.000225907 -0.00123662)
(0.00277934 0.000719464 -0.00123663)
(0.00261218 0.00119116 -0.00123662)
(0.00236565 0.00162667 -0.00123663)
(0.00204725 0.00201275 -0.00123663)
(0.00166664 0.00233767 -0.00123663)
(0.00123538 0.00259156 -0.00123662)
(0.000766599 0.00276671 -0.00123662)
(0.000274517 0.0028578 -0.00123662)
(-0.000225907 0.00286205 -0.00123662)
(-0.000719464 0.00277934 -0.00123663)
(-0.00119116 0.00261218 -0.00123662)
(-0.00175009 0.00266243 -0.000996421)
(-0.00218583 0.00231808 -0.00099642)
(-0.00255515 0.0019033 -0.000996421)
(-0.00284684 0.00143068 -0.000996421)
(-0.00305202 0.000914603 -0.000996421)
(-0.00316447 0.000370726 -0.000996422)
(-0.00318077 -0.00018441 -0.000996421)
(-0.00310043 -0.000733944 -0.000996422)
(-0.00292588 -0.00126118 -0.00099642)
(-0.00266243 -0.00175009 -0.000996421)
(-0.00231808 -0.00218583 -0.00099642)
(-0.0019033 -0.00255515 -0.000996421)
(-0.00143068 -0.00284684 -0.000996421)
(-0.000914603 -0.00305202 -0.000996421)
(-0.000370726 -0.00316447 -0.000996422)
(0.00018441 -0.00318077 -0.000996421)
(0.000733944 -0.00310043 -0.000996422)
(0.00126118 -0.00292588 -0.00099642)
(0.00175009 -0.00266243 -0.000996421)
(0.00218583 -0.00231808 -0.00099642)
(0.00255515 -0.0019033 -0.000996421)
(0.00284684 -0.00143068 -0.000996421)
(0.00305202 -0.000914603 -0.000996421)
(0.00316447 -0.000370726 -0.000996422)
(0.00318077 0.00018441 -0.000996421)
(0.00310043 0.000733944 -0.000996422)
(0.00292588 0.00126118 -0.00099642)
(0.00266243 0.00175009 -0.000996421)
(0.00231808 0.00218583 -0.00099642)
(0.0019033 0.00255515 -0.000996421)
(0.00143068 0.00284684 -0.000996421)
(0.000914603 0.00305202 -0.000996421)
(0.000370726 0.00316447 -0.000996422)
(-0.00018441 0.00318077 -0.000996421)
(-0.000733944 0.00310043 -0.000996421)
(-0.00126118 0.00292588 -0.00099642)
(-0.00179791 0.00230803 -0.00223963)
(-0.00217138 0.00196076 -0.00223963)
(-0.00247887 0.00155392 -0.00223963)
(-0.00271105 0.00109986 -0.00223963)
(-0.00286085 0.000612381 -0.00223963)
(-0.00292373 0.000106293 -0.00223963)
(-0.00289777 -0.00040302 -0.00223962)
(-0.00278376 -0.00090009 -0.00223963)
(-0.00258517 -0.00136981 -0.00223963)
(-0.00230803 -0.00179791 -0.00223963)
(-0.00196076 -0.00217138 -0.00223963)
(-0.00155392 -0.00247887 -0.00223963)
(-0.00109986 -0.00271105 -0.00223963)
(-0.00061238 -0.00286085 -0.00223963)
(-0.000106293 -0.00292373 -0.00223963)
(0.000403021 -0.00289777 -0.00223962)
(0.000900091 -0.00278376 -0.00223963)
(0.00136981 -0.00258517 -0.00223963)
(0.00179791 -0.00230803 -0.00223963)
(0.00217138 -0.00196076 -0.00223963)
(0.00247887 -0.00155392 -0.00223963)
(0.00271105 -0.00109986 -0.00223963)
(0.00286085 -0.00061238 -0.00223963)
(0.00292373 -0.000106293 -0.00223963)
(0.00289777 0.000403021 -0.00223962)
(0.00278376 0.000900091 -0.00223963)
(0.00258517 0.00136981 -0.00223963)
(0.00230803 0.00179791 -0.00223963)
(0.00196076 0.00217138 -0.00223963)
(0.00155392 0.00247887 -0.00223963)
(0.00109986 0.00271105 -0.00223963)
(0.000612381 0.00286085 -0.00223963)
(0.000106293 0.00292373 -0.00223963)
(-0.000403021 0.00289777 -0.00223962)
(-0.00090009 0.00278376 -0.00223962)
(-0.00136981 0.00258517 -0.00223963)
(-0.00187859 0.002614 -0.00195847)
(-0.00230396 0.00224807 -0.00195848)
(-0.00265933 0.00181384 -0.00195847)
(-0.0029339 0.0013245 -0.00195847)
(-0.00311932 0.000794908 -0.00195847)
(-0.00320997 0.000241167 -0.00195847)
(-0.00320308 -0.000319903 -0.00195847)
(-0.00309887 -0.000871251 -0.00195847)
(-0.0029005 -0.00139613 -0.00195847)
(-0.002614 -0.00187859 -0.00195847)
(-0.00224807 -0.00230396 -0.00195848)
(-0.00181384 -0.00265933 -0.00195847)
(-0.0013245 -0.0029339 -0.00195847)
(-0.000794908 -0.00311932 -0.00195847)
(-0.000241167 -0.00320997 -0.00195847)
(0.000319903 -0.00320308 -0.00195847)
(0.000871252 -0.00309887 -0.00195847)
(0.00139613 -0.0029005 -0.00195847)
(0.00187859 -0.002614 -0.00195847)
(0.00230396 -0.00224807 -0.00195848)
(0.00265933 -0.00181384 -0.00195847)
(0.0029339 -0.0013245 -0.00195847)
(0.00311932 -0.000794908 -0.00195847)
(0.00320997 -0.000241167 -0.00195847)
(0.00320308 0.000319903 -0.00195847)
(0.00309887 0.000871252 -0.00195847)
(0.0029005 0.00139613 -0.00195847)
(0.002614 0.00187859 -0.00195847)
(0.00224807 0.00230396 -0.00195848)
(0.00181384 0.00265933 -0.00195847)
(0.0013245 0.0029339 -0.00195847)
(0.000794908 0.00311932 -0.00195847)
(0.000241167 0.00320997 -0.00195847)
(-0.000319903 0.00320308 -0.00195847)
(-0.000871251 0.00309887 -0.00195847)
(-0.00139613 0.0029005 -0.00195847)
(-0.00199915 0.00288802 -0.00168833)
(-0.00247028 0.002497 -0.00168833)
(-0.00286635 0.0020301 -0.00168833)
(-0.00317532 0.00150153 -0.00168833)
(-0.00338782 0.000927324 -0.00168833)
(-0.00349738 0.000324948 -0.00168833)
(-0.00350067 -0.000287305 -0.00168833)
(-0.0033976 -0.000890823 -0.00168833)
(-0.00319129 -0.00146728 -0.00168833)
(-0.00288802 -0.00199915 -0.00168833)
(-0.002497 -0.00247028 -0.00168833)
(-0.0020301 -0.00286635 -0.00168833)
(-0.00150153 -0.00317532 -0.00168833)
(-0.000927324 -0.00338782 -0.00168833)
(-0.000324947 -0.00349738 -0.00168833)
(0.000287305 -0.00350067 -0.00168833)
(0.000890824 -0.0033976 -0.00168833)
(0.00146728 -0.00319129 -0.00168833)
(0.00199915 -0.00288802 -0.00168833)
(0.00247028 -0.002497 -0.00168833)
(0.00286635 -0.0020301 -0.00168833)
(0.00317532 -0.00150153 -0.00168833)
(0.00338782 -0.000927324 -0.00168833)
(0.00349738 -0.000324947 -0.00168833)
(0.00350067 0.000287305 -0.00168833)
(0.0033976 0.000890824 -0.00168833)
(0.00319129 0.00146728 -0.00168833)
(0.00288802 0.00199915 -0.00168833)
(0.002497 0.00247028 -0.00168833)
(0.0020301 0.00286635 -0.00168833)
(0.00150153 0.00317532 -0.00168833)
(0.000927324 0.00338782 -0.00168833)
(0.000324948 0.00349738 -0.00168833)
(-0.000287305 0.00350067 -0.00168833)
(-0.000890823 0.0033976 -0.00168833)
(-0.00146728 0.00319129 -0.00168833)
(-0.00214526 0.00310691 -0.00143594)
(-0.00265218 0.00268719 -0.00143594)
(-0.00307851 0.00218581 -0.00143593)
(-0.0034113 0.00161803 -0.00143594)
(-0.00364045 0.00100108 -0.00143594)
(-0.00375898 0.00035372 -0.00143593)
(-0.00376329 -0.000304395 -0.00143594)
(-0.00365326 -0.000953262 -0.00143594)
(-0.00343223 -0.00157316 -0.00143593)
(-0.00310691 -0.00214526 -0.00143594)
(-0.00268719 -0.00265218 -0.00143594)
(-0.00218581 -0.00307851 -0.00143593)
(-0.00161803 -0.0034113 -0.00143594)
(-0.00100108 -0.00364045 -0.00143594)
(-0.00035372 -0.00375898 -0.00143594)
(0.000304395 -0.00376329 -0.00143594)
(0.000953262 -0.00365326 -0.00143594)
(0.00157316 -0.00343223 -0.00143593)
(0.00214526 -0.00310691 -0.00143594)
(0.00265218 -0.00268719 -0.00143594)
(0.00307851 -0.00218581 -0.00143593)
(0.0034113 -0.00161803 -0.00143594)
(0.00364045 -0.00100108 -0.00143594)
(0.00375898 -0.00035372 -0.00143593)
(0.00376329 0.000304395 -0.00143594)
(0.00365326 0.000953262 -0.00143594)
(0.00343223 0.00157316 -0.00143593)
(0.00310691 0.00214526 -0.00143594)
(0.00268719 0.00265218 -0.00143594)
(0.00218581 0.00307851 -0.00143593)
(0.00161803 0.0034113 -0.00143594)
(0.00100108 0.00364045 -0.00143594)
(0.00035372 0.00375898 -0.00143593)
(-0.000304395 0.00376329 -0.00143594)
(-0.000953262 0.00365326 -0.00143594)
(-0.00157316 0.00343223 -0.00143593)
(-0.00214406 0.002979 -0.00274191)
(-0.00262878 0.00256143 -0.00274191)
(-0.00303363 0.00206603 -0.00274191)
(-0.00334631 0.00150786 -0.00274191)
(-0.0035573 0.000903872 -0.00274191)
(-0.00366022 0.000272421 -0.00274191)
(-0.00365191 -0.000367307 -0.00274191)
(-0.00353265 -0.000995876 -0.00274191)
(-0.00330605 -0.00159419 -0.00274191)
(-0.002979 -0.00214406 -0.00274191)
(-0.00256143 -0.00262878 -0.00274191)
(-0.00206603 -0.00303363 -0.00274191)