/*--------------------------------*- C++ -*----------------------------------*\
| =========                 |                                                 |
| \\      /  F ield         | OpenFOAM: The Open Source CFD Toolbox           |
|  \\    /   O peration     | Version:  2312                                  |
|   \\  /    A nd           | Website:  www.openfoam.com                      |
|    \\/     M anipulation  |                                                 |
\*---------------------------------------------------------------------------*/
FoamFile
{
    version     2.0;
    format      ascii;
    arch        "LSB;label=32;scalar=64";
    class       volScalarField;
    location    "1";
    object      sigmaEq;
}
// * * * * * * * * * * * * * * * * * * * * * * * * * * * * * * * * * * * * * //

dimensions      [1 -1 -2 0 0 0 0];

internalField   nonuniform List<scalar> 
1620
(
69043.6
72872.4
74387.4
70749.2
65358
61358.9
58990.7
57612
57949.4
58501.8
58462
59830.9
61984.4
65064.7
68281.1
69481.3
67822.5
65482.7
64246.2
64157.3
64285.4
63555.8
62012
60298.3
58796.8
57604.2
57984.8
58682.5
58814
59943.7
61738.9
64440.8
67524.4
68952.9
67935.9
67199.3
63955.6
63141.6
62273.3
61373.4
60531
59883.3
59459.6
59187.6
59130.1
59411.2
59740.4
60115.1
60604.1
61320.4
62252
63256.1
64318.3
65086.9
61333.8
61824.3
61428.5
60888.2
60351
59904.9
59559.8
59264.6
59122.8
59316.6
59602.9
59954.4
60448.3
61180.7
62115
63056.1
63923.8
64868.5
62714.7
61025.2
59543.7
58742.2
58353.8
58143.5
58032.3
58075.4
58672.2
57690.5
57236.8
57205
57267.5
57342.8
57491.1
57924.3
58896.9
60201.1
60574.1
59871
59153.4
58733
58522.3
58408.7
58341.6
58357.4
58765.8
57619.8
57209.1
57232.7
57387.9
57596.5
57939.6
58717.5
60339.1
62449.1
67160.7
72228.1
74444.1
70518.8
64471.5
59583
56080.2
53365.8
53676.5
54304.7
54701.8
56925.2
59405.5
62270.8
65162.7
66663.6
65713.9
63648.3
62661.7
63040.8
63462.5
62774.7
60981.6
58680.8
56284.5
53870.5
53949.7
54722.9
55225.9
57167.5
59281
61631.3
64185
65902.8
65593.7
64966.4
72145.7
72512.9
66495.5
62911.1
60626.9
59066.4
57943.3
56930
56129.3
56714.6
57983.8
58911.8
59786.4
60984.1
62799.5
65837.3
71656.9
72302.2
64735.4
67848.9
64464.5
62098.1
60480.3
59289.6
58326.9
57283.5
56183.1
56247.3
57320.9
58351.7
59373
60603.3
62350.9
65363.3
71184.1
71537.4
63226.6
62015.1
60466.2
59343.9
58507.8
57696.4
56813.8
55955
56029
54528.3
54869.1
55830.2
56793.3
57568.8
58129.3
58590.9
59128.9
59917.3
60573.3
60422.4
59809.4
59159.8
58532.4
57852
57093.1
56307.9
55994.5
54107.4
54556.4
55784.8
57043.1
58038.8
58801.2
59650.7
60984.2
62644.5
61147.9
65406.5
68286.2
66688.7
62242.4
57265.8
52762.3
49085
49276.8
51295.4
50435.6
53306.1
56288.2
58957.3
60989.4
61808.9
60904.6
58982
58294.2
59434.1
60551.8
60424.6
58893.7
56341
53286.2
50061.2
49342.3
52070.1
51220.1
53750.2
56555.2
58862.1
60517.2
61342.3
60824.8
59748.5
72502.5
86477.7
72291.7
64963.2
61002.2
58391.3
56421.9
54479.3
52616.4
53206
55581.2
57478.1
58887.1
60530
62983.9
67952.5
79874.4
70851.7
63107.7
75458.2
68445.5
63621.5
60734.3
58700.4
57048.9
55183.6
52806
52361.9
54123.2
56382.8
58273
60007.6
62173.8
66842
79096.3
70233.1
61393
63061
62191.6
60510.1
58904.6
57317.2
55643.1
53798.3
52563.5
50851.2
52221.3
54376.4
56275
57813.2
58889.9
59407
58958.5
57739.9
58793.8
60987.9
60985.6
59921.7
58659.4
57290
55827.4
54192.4
52762.9
50031.6
51432.4
54109.3
56610.2
58454.9
59777.2
60936.9
61516.5
60572.9
55509.1
58983.7
61918.3
62164.6
59460.5
55050.5
50645.1
47433.4
47609.3
51902.8
48913.1
50671.7
53480.7
56105.1
57815.5
58094.8
56676.1
54233.2
53531.9
55385
57243.2
57707.5
56595.4
54293.3
51526
48822.8
47667.5
52296.3
50069.1
51353.4
54075.2
56520
57922
58055.9
56715.2
54756.6
63423.3
86365.9
74415.3
66029.9
61298.9
58132.9
55853.6
53711.4
51406.2
51588.2
53883.2
56523.4
58283.7
60168.9
62899.6
68448.6
79706.1
63108.3
57795.1
75537.4
70372.4
64551.9
60925.3
58442
56572.1
54598.9
51784.8
50805.9
51871.6
54776.4
57307.2
59430.7
61731.8
66492.1
77373.2
61757.4
57197.4
63564.9
64478.3
62302.1
59841.2
57641.4
55718.7
53839.4
52328.5
49805
51377.8
53814.4
56064.2
58042.9
59589.1
60244.7
58583
54396.2
55712.3
61804.5
62868.5
61149.9
59175.7
57354.8
55725.7
54127.7
52641.5
48842
50387.2
53227.5
56316.6
58753.4
60693.7
62375.4
61641.2
56421.7
51795.8
54998.6
57687.5
58435.1
56712.5
53135.9
49481.1
47118.1
47177.9
51294
49348.6
49305.9
51172.9
53349.7
54882.2
54937.9
53152.4
50510.5
49995.4
52186.3
54442.7
55279.5
54608.3
52918.4
50972.8
49187.1
48011.5
50133
50804.8
50259.1
51982
54115.3
55476.3
55378.2
53555
51212.6
56511.5
75155
71245.3
65106.3
60873.9
57836.1
55733.4
53809.2
51315.3
50899.9
52820.4
55928.4
57891.8
59798.6
62502.9
67380.8
73312.7
56764.2
53108.1
68954.2
68465.3
63957.7
60566.8
58202.1
56537.3
54860.8
52126.4
50331.2
50682.7
53523.4
56341.2
58646.4
60928.4
64658.6
69494.4
55092
53732.4
63936.8
66448.8
64019.6
61025.2
58534.4
56657.2
55009.3
53425
49795.5
51763
53967.4
56165.2
58199.2
60018.5
60865
58285.8
51379.2
53049.6
63121.4
65076.6
62546.4
59962.8
57964.3
56477.7
55200.4
53883.9
49818.6
50689.8
52999.6
56104.2
58823.6
61312.9
63622.6
61862.6
52920.6
49709.1
52650.1
54997.1
55658.4
54375.2
51580
48763.4
47127.3
47185.3
49762.2
50784.9
49042.3
49607.3
50787.6
51800.5
51663.2
49925.8
47856.8
47929.2
50207.3
52468.4
53442.9
53154.1
52134.1
51011.4
49972.8
48963.2
48876.5
52146.9
50176.8
50498.2
51732.9
52774.4
52632.3
50881.1
48936.4
52481.1
65118.2
65934.8
62707.9
59602.3
57115.1
55407
53826
51474.3
50421.6
52013.6
55341.3
57508.9
59286.3
61648.5
65112.2
66071.4
52142.5
49711.8
61803.5
64294.5
61998
59531.7
57682.6
56422.3
55154.7
52866.3
50299.6
50224.1
52341.9
55218.4
57494.2
59545.7
61835.3
61871.9
50743.8
51478.3
63963.1
67375.3
64975.7
61910.9
59410.8
57610.4
56070
54344.1
50822.4
52376.6
54298.9
56360.8
58240
60108.9
61119.7
58004.7
49015.3
51163.9
64562.4
67035.1
63734.8
60734.1
58693.5
57359.6
56318.4
55225.5
53391.1
50862.7
52952.9
55784.3
58569.8
61419.8
64218.3
61903.4
50452.5
48373
51198.6
53188.2
53595.3
52468.6
50259.2
48134.3
47048.6
47230
49593.1
52723.9
49742.6
48898.4
48784.1
48826.1
48310.3
46926
45913.1
46865.4
49257.5
51322.5
52245.7
52190.9
51675
51152.2
50629.3
49883.2
49567.3
52348.7
50890
49771.7
49807.7
50059.2
49687.6
48243.1
47073.2
49664.6
58825.6
61195.1
59886.4
57811.8
55947.7
54694.2
53547.9
51601.7
50110.1
51340.8
54545.6
56980.6
58574.2
60305.2
62024.7
59725.4
48510.1
47196.6
56403
60035.9
59510
58074.3
56858.5
56063.1
55250.6
53561
50817.7
50324.5
51200.7
53864.5
55988.2
57562.2
58383.5
55744.8
47311.5
49540.3
63678.5
67465.3
65170.5
62286.3
59937.6
58226.5
56747.8
55073.2
52432.4
52426.9
54570.9
56500.7
58195.9
59969.2
61090.6
57678
46914.8
49619.2
66053.4
68664.6
64650.2
61377.9
59332.7
58103
57231.2
56428.5
56166.2
49572.2
52791.4
55256.1
58021.7
61032.9
64100.5
61383
47977.7
47446.6
50170.6
51805.7
51922.7
50808.6
48985.5
47388.8
46768.4
47161.6
49402.9
53190.8
51377.1
49072
47769.8
46673.8
45631.9
44750.9
44968.1
46791.1
49189.5
50902.8
51603.4
51586.3
51339.3
51186.5
51028.1
50587.1
50279.3
50241.1
52577.9
49980.6
48839.3
48126.1
47273.5
46073.8
45651.1
47401.3
54813.9
57560.4
57194.7
55800.6
54445
53628.1
52981.7
51605.5
49955.5
50817.8
53543.3
56281.6
57721.9
58672.1
58682.6
54696
46108.2
45763.2
52851.4
56623.7
57107.9
56462.7
55806.2
55453.2
55093.7
54023.6
51650.3
50501.6
50528.7
52374.8
54293.2
55315
54890.7
50999.1
44590.6
47824.4
63799.7
67458
65058.3
62332.6
60149.4
58538.7
57152.9
55675.5
53933.5
50977.8
54796.2
56593.5
58203.1
59864.4
61118.5
57789.9
45454.7
48750.9
68266.1
70318.7
65501.1
62001.9
59927
58752.6
58009.9
57434.2
57677.9
48536.2
52454.1
54616.8
57370
60459.7
63755.1
61011.5
45529.2
47379.5
49543.9
50636.6
50410.4
49242.9
47687.7
46515.5
46298.2
46966.1
48987.4
50831.9
54375.3
50300
48120.7
46152.4
44691.3
44341.5
45557.8
47803.4
49880.1
51062
51388.9
51234.4
51059.5
51103.2
51186.8
50986.5
50687.9
50110.9
54749
51293.6
49047.5
47650.3
46495.7
45589.1
45653.8
46352.9
52192.8
54763.6
54745
53730.3
52740.7
52282.4
52075.9
51278.2
49875.8
50313.8
52580.7
55492
56885.7
57158.9
55959.4
51721.5
45792.8
46006.9
51092.1
54283.3
55087.5
54885.1
54625.3
54629.2
54657.1
54147.1
52461.2
50609.9
51094.2
51122
52616.2
53305.4
52294
48426.2
43830.2
47806
65389.4
67934
65085.8
62368.2
60258.7
58699.7
57381.1
56035.9
54709.8
48997.2
55245.9
56832
58498.7
60157.7
61697.4
59279.3
45978.1
49671.4
72250.1
72258.4
66505.7
62782.7
60612.3
59414.7
58737
58275
58516.7
56460.8
51781.8
54234.5
56905.8
60138
63905.4
62356.7
44986.2
48210.5
49294.4
49581.1
48956.9
47765.5
46497.3
45737.1
45841
46708.4
48718.5
51069.2
59685.3
53117.5
49983
47631
46055.9
46043.5
47585.6
49574.4
51007.3
51563.7
51464
51095.6
50883.2
51001.8
51221.4
51181.2
50948.8
51252.2
52913.5
53873.8
50332.2
48499.7
47438.3
46939.1
47168.6
46996.7
50856.9
52673.8
52604.4
51785.8
51060.9
50843.1
50905.9
50548.4
49614.7
49874.4
52143
54818.4
56292.6
56218.1
54634.6
51322.7
47765.2
47962.4
51006
53071.1
53650.5
53559.8
53501.8
53724.2
54022.9
53967.1
53017.6
51159.3
52053.4
51000.1
51256.9
51841.2
51103.1
48392.3
45419.2
51380.1
69807.5
69234.9
65638.2
62742.3
60547.5
58905.1
57530.7
56163.4
54961.8
50647
56005.1
57634.5
59380.8
61218.4
63309.5
63118.6
49913.4
53573.9
79706.5
74331.1
67769.2
63847.5
61500.6
60167.4
59439.5
58978.7
59142.9
62665.4
49547.8
54399.3
57002.4
60476.8
65098.4
67264.9
47888.1
49195.4
49164.4
48615.9
47657
46568.5
45679.9
45322.3
45650.1
46635.5
48769.3
52157.3
60302.1
58445.1
53265.5
50802.7
49313.1
49184
50201.9
51462.1
52190
52208.6
51776
51235.8
50954.7
51065.1
51345.5
51457.1
51397.5
51983.2
51207.7
57200.9
52680
50139.8
49201.8
48965.5
49024.9
48804.9
50572
51274.9
50962
50268.4
49727
49592.9
49706.6
49605.2
49182
49606.6
51916.1
54658.5
56209.6
56072.7
54691.4
52670.1
50909.6
50801
52032.9
52863
52989
52809.1
52758.5
52999.2
53378.3
53599.9
53285.8
52019.3
51511.3
52970.8
50813.3
50966.9
50860.6
49690.8
48218
64243.3
78087.3
71799.7
67111.6
63779.2
61298.8
59381.5
57768.6
56258.7
55175.1
53318.2
54611.3
59331.7
60996
63200.3
66318.8
70211.6
60672.3
65428.9
89859.9
75783.9
69168.9
65082.3
62520.5
60980.6
60113.9
59586.3
59427.3
61644.7
52657.4
53945.3
57477.3
61370.1
67009.1
77915.3
57432.8
50041.2
49208.5
48111.7
47018.8
46169.5
45681.8
45631.1
46100.3
47268.6
49592.1
52795.5
52568.3
72020.4
59062.5
55284.9
53551.6
52842.3
52917.8
53254.9
53352.1
53029.4
52440.1
51848.3
51533.6
51602.7
51900.4
52159.9
52329.9
53101.1
55245.9
52375.5
56248.6
52572.6
51231.8
50860.5
50547
50456.2
50776.4
50646.2
50129.9
49503.4
49010.2
48768.7
48719.4
48683.8
48723.9
49449.4
51546.4
55524.4
56834.8
56716.1
55597
54314.6
53448.2
53153
53293.2
53386.2
53212.7
52908.6
52706.6
52740.3
52959.9
53215
53312.9
52908.3
51865.8
53805.1
52170.4
50999.9
51068.9
50763
50323.6
97492.6
81926.4
73496.3
68481.2
65049.5
62386.2
60135.9
58127.2
56272.8
54757
52997.8
49885.5
61268
62743.5
65156.7
69069.9
75916.9
91298.5
71262.2
80930
73730.3
69072.4
65618.8
63198.3
61575.9
60565.6
59939.6
59484.4
59905.9
64953
50138.2
55987.4
60357.4
65177.5
73589.9
68247
51400.6
50203.2
48986.7
48000.3
47385.4
47103.6
47112.4
47534.8
48634.1
50397.1
51680.5
52850.1
91273.3
73036.2
62393
58759.7
56877.6
55793.6
55094.9
54536.5
53992.4
53454.7
53019
52814.2
52907.1
53240.7
53683.4
54189.6
55123.6
57677.2
59871.1
54562.7
56309
54247.4
53199.7
52391.3
51594.2
51270.6
50787.1
50143.5
49495.6
48940.2
48523.1
48283.9
48277.8
48648.8
49622.3
51960.3
57043.3
58476.2
58181.9
57106.1
55959.3
55049.3
54466.6
54204.7
54064.6
53832.7
53504.1
53177.3
52971.4
52953.4
53124.1
53449.4
53807
53727.3
53272.9
54673.3
52953.4
52381.6
52184.4
51892
56807.6
63039
64449.3
64153.2
63115.1
61567.6
59638.9
57495.3
55287.2
53145.2
51109.9
49797.1
59556
62709.2
63895
65054.7
64739.6
59106.5
54052.6
58759.2
62831.7
63939.2
63445.2
62361.5
61232.8
60316.3
59669.3
59182.9
58828.8
59707.4
57236.4
52144.4
54576.7
55597
53958.3
51273
54230.6
52797.5
51501.7
50402.6
49513.7
48777.9
48269.2
48526.8
50473.8
54297
60576.7
79972.3
126579
109744
87414.6
70706.5
62670.8
58422.2
55904.9
54409.7
53581.7
53174.6
53022.1
53045.7
53242.9
53652.3
54311
55223.6
56410.3
58150.4
61233.2
61660.6
59140.7
58809.2
57358.1
55760.3
52995.1
51982.1
51031.5
50253.2
49700.2
49335.2
49091.8
48979.4
49102.9
49618.5
50805.8
53303.9
58488.4
63247.1
60859.7
58982.8
57283.3
55788.3
54591.7
53820.3
53455
53305.4
53202.9
53099.2
53039.1
53116.7
53426.5
54032.3
54950.2
56009.5
56633.2
56899.9
56789.9
55690.4
54787.2
53945.1
55080.1
55712.1
56224.5
56546.3
56657.8
56372.2
55589.1
54431.8
53118.7
51894.1
51111.2
51364.9
54585.3
60606.2
60254
60031.4
58799.8
56484.4
54521
54339.6
55681.6
57329.9
58477.9
58946.8
58925.5
58698.4
58477.9
58335.6
58239.6
58433.2
60925.3
55516.6
54002.7
53997.2
54165
54536.8
63872.8
61214.8
61618.8
62885
63427.2
62609.4
60792.3
58905.7
57557.2
56515.9
55544.5
56819.7
61828.6
66239.8
63794.7
63944.4
64040.1
64931.4
66560.5
67916.5
69265.5
71021.1
72858.6
74366.6
75482.4
76614.5
78572.8
83584.1
94798.6
110442
119129
131421
241707
177354
100080
73114.7
54131.9
51663.3
49670.9
48849
49139.8
49947.6
50811.4
51646.6
52601.9
53873.1
55708.7
58849.6
66724.4
77393.8
66689.6
62399.1
59592.7
56898.2
54023.9
51476
49896.2
49188.9
49038.4
49328.9
49983.3
50882.8
51959
53247.8
54844.6
56668.3
57939.1
59102
61406.7
60070
58361.1
56405.4
55925.8
54776
53577.1
52889.5
52826.6
52996.6
53036.8
52852.1
52540.9
52325.6
52563.8
53679.5
55679
58573.5
57723.3
58195.2
58422.8
57561.8
55545.3
53020.7
51340.3
51436.6
52890.9
54652.1
56048.6
56921.5
57374.1
57565.9
57698.3
58096.9
60175.1
61084.4
56742.9
56612
56796.1
56622.3
)
;

boundaryField
{
    fixed
    {
        type            calculated;
        value           nonuniform List<scalar> 
108
(
68943.5
72505
73950.3
70476.3
65199.7
61231.4
58842.9
57352.3
57016.4
57929.1
58361.2
59801.8
61931.8
64978.9
68206.7
69461.9
67808.2
65429.5
64179.4
64103
64231.8
63485
61941.6
60252
58772
57513.4
57090.5
58238.1
58594.7
59792.3
61595.9
64266.9
67284.5
68680.1
67773.3
67171.4
64214.5
63473
62504.9
61500.5
60588.2
59902.9
59461.9
59181.6
59096.5
59424.3
59752.8
60137.6
60650.4
61414.8
62432.4
63565.2
64752.8
65057.6
61265.9
61863.7
61503.6
60940.7
60378
59914.5
59559.5
59257.5
59086.8
59328.3
59614.4
59975.6
60492.5
61272.2
62293.4
63364.4
64361
65148.2
62575
60886.3
59445.4
58699.4
58351.1
58160.3
58049.3
58060.6
58426.6
57541.1
57147.4
57134.5
57210.5
57292.7
57435.5
57847.8
58787.7
60059.3
60446.8
59785.7
59093.7
58686.2
58476.5
58354.4
58272.2
58261.7
58544.7
57552.8
57220.8
57260
57410.3
57597.2
57897.9
58615.5
60189
62301.8
)
;
    }
    inside
    {
        type            calculated;
        value           nonuniform List<scalar> 
540
(
62723.3
61359.3
59956.5
58913.2
58163
57593.5
57212.5
57159.6
57585.2
56714.7
56284.7
56369.4
56729.9
57210.8
57803.1
58597.4
59598.6
60461.5
60457.8
59759.2
59016
58413.7
57954.9
57613.8
57412.6
57443.1
57859.2
56794.8
56512.8
56704.8
57159.2
57741.9
58487.8
59594.2
61178.4
62708.1
63096.7
61812.7
60348.3
59132.2
58036.6
56853.7
55590.2
54603.6
54591.1
53364
53544.5
54654.1
55999.4
57151.4
58013
58721.9
59431.1
60144.5
60250.2
59676.3
59006.3
58316.9
57569.9
56709.3
55782.3
55014.9
54972.4
53272.7
53719.9
55111.4
56658.1
57896.8
58836.7
59812.9
61179.3
62763
60899.7
61149.5
60439.6
59246.1
57719.9
55772.3
53554.2
51610.6
51565.9
50342
50583.2
52525.3
54827.9
56732
57912
58399.3
58246.2
57806.3
58088.1
58619.9
58549.9
57916.4
56871
55451.3
53812.4
52263
52037.8
50229.5
50723.9
53047
55767
57770.2
58973.4
59738.7
60203.1
60328.4
56227.7
59064.1
60074.8
59418.3
57722.3
55371.2
52976.3
51321.8
52840.7
52756
50659
51608.2
53926.4
56165.1
57571.7
57773.7
56447.1
54167.4
54504
56841.1
57875.5
57543.7
56431
54880.4
53265.5
51995.6
52846.3
52516.3
51275.6
52140.3
54994.4
57446.2
58892.7
59366.4
58331.6
55765.3
52284.5
56975.5
59405
59452.1
57977.7
55714.3
53617.8
52455.5
54456.4
56200.4
52966.4
51898.4
53489.3
55486.1
56889.9
56840.3
54538.4
50769.3
51239.1
55043.9
57109.7
57240.6
56361.9
55101.2
53932.7
53160.9
54206.6
54834.9
54471.3
52545.2
54457.2
56846.3
58434.9
58699.2
56451.4
51847
49575.7
55215.1
58514.3
59207.7
58228.5
56360.5
54617.5
53696.6
55200.9
58177.8
56502.4
52958.6
53468.3
54794.4
55854.3
55493.1
52478.8
47926.6
48738
53430.9
56314.5
56999
56546.9
55724.1
54996
54561
55317.6
54756.2
58517.9
54124.8
54216.7
55981.9
57432
57470.4
54451.3
48925.3
47162.3
53533.8
57469.5
58724
58318
56952.5
55525.6
54724.2
55810.1
58438
60639.2
54689.5
53773.6
54226.7
54622.7
53743.9
50099
45239.8
46571.8
51995.7
55606.8
56841.3
56838.2
56416.7
56017.5
55807.4
56418.4
53363.3
61279.6
57023.2
54485
55072.4
55971.8
55526.4
51796.9
45953
44733.1
51922.4
56418.3
58135.7
58261
57405
56293.6
55624.8
56573.4
57547.5
64633.7
57459.7
54508.9
54011.9
53603.2
52063.3
47913.8
43084.3
44999.9
51092.6
55233
56864.1
57209.5
57091.6
56935
56907.4
57478.5
52330.5
62155.5
61973.4
55995
54662
54642.4
53482.3
49010.3
42903.5
43497.1
50914.5
55611.8
57604.6
58171.8
57802.2
57029.9
56528
57382
56310
68059.8
62382.6
56190.2
54528.6
53397.2
51371
47204.9
42806.5
45038.3
51301.7
55463.5
57208.3
57752.7
57830.2
57842.1
57968.6
58542
52245.2
60775.9
68729
60350.8
55683.2
54315.1
52559.8
47840.8
41659.9
44524.6
51089.8
55301.4
57345.7
58278.4
58368.1
57948.5
57626.8
58361.9
55909.9
70912.1
70596.4
59855
56247.1
54476
52348.7
48912.9
45326.5
47302.2
52896.3
56441.7
58052.3
58679
58844.6
58925.5
59130.7
59700.5
52641.3
58219.8
72956.6
69395.1
59720.2
55780.8
53480.8
49286.1
43366.6
47330.3
52269.9
55648.8
57793.2
59093.6
59607.2
59527.7
59408.7
60036
56946.3
73099.1
80384.2
66541.9
59636.7
56918.3
54696.6
52138.4
49637.3
50976.6
55327.6
58119.6
59706.2
60376.6
60509.6
60530.6
60711.7
61219.1
53187.8
56855.2
72304.3
82698.4
69240.1
60190.1
56152.1
52384.9
47103.1
50325.3
54029.6
57330.1
59928.3
61730.5
62702
62969
63059
62906.5
59596.7
73582.7
86356.3
75943.7
65278.7
60916.3
58123.1
55621.2
53466.3
54166.1
57999.3
61008.3
62896.3
63567.8
63537.2
63356.4
63378.4
63733.2
53987
57454.5
66864.6
84973.2
83310.9
70257.4
62018.2
56440.2
50801.1
52124.5
57199.9
62076.6
65949.9
68847.7
70506.5
70896.2
70352.1
64920.4
63927.5
73793.7
84189.9
81828.6
73188.1
68100
64588.4
60312.1
55355.9
55238.5
61727.4
67709.3
70331.5
70617.1
69902.9
69048.7
68492.8
68441.1
55009
58937.5
64274.7
74651.9
85007.8
84043
76075.2
64174
53221.1
59675.8
73073.8
84111.2
90148
91368.4
88674
83405
75948.7
56262.7
68223.3
71825.4
76409.2
77814.4
76731.6
77879.8
83158.3
87897
67939.1
57534.4
93634.3
114792
107748
96059.6
87314
81794.2
78750.4
78483.9
55156.2
59308.3
62831.8
67289.7
72371.3
78249.7
85261.2
85177.1
56875.5
57979.5
63941.1
75243.4
85361.7
86668.7
80386.8
71421.5
61651.4
52528.1
69104.4
66151.2
65088
63666.8
62936.5
63457.8
64810.4
66203.4
63147.6
55029.2
57027.8
90954.3
126284
132162
120314
107251
99736.4
104135
55109.6
56330.6
57991.8
59346.5
59769.8
59324.8
58545.3
57537.4
56666.9
)
;
    }
    outside
    {
        type            calculated;
        value           nonuniform List<scalar> 
540
(
68777.8
71187.8
72096.6
69391
64744.5
60825.3
58180.7
56289.5
55546.2
56118.5
56672.9
58382.2
60523.4
63150.5
65662.1
66796.9
66282.2
65196.2
64280.6
63729.1
63331.9
62526.7
61193.1
59612.7
58017.8
56481
55694.2
56805.9
57241
58682.5
60540.9
62920.8
65371.1
66643.3
66653.1
67059.2
66754.8
69864.8
71288.8
68750.3
63865.4
59169.9
55255
51740.9
50287.1
51359
52670.4
55611.9
58378.8
61050.3
63386.4
64614.2
64374.7
63362.2
62667.8
62550.6
62440.4
61734
60222
58088.3
55555.7
52664.3
50707.4
52564.5
53431.6
55998.1
58434.5
60671.1
62712.4
64054.7
64417.1
64855.3
60821
63526.3
65537
64868.9
61508.9
56763.8
51721.5
47342.6
47460.1
49405
48285.8
51721.5
55277.4
58073
59891.3
60559.6
60022.5
58772.7
58320.4
59045.6
59659.1
59438.4
58106.1
55668.5
52416.1
48793.3
47257.3
50864.3
49412.6
52290.1
55662.1
58138.5
59624.6
60258.3
60076
59690.3
55269.5
57776.4
60005.5
60581.6
58653.9
54506.7
49689.7
46262.5
47774.4
53748.8
48118.1
49139.8
52364.8
55267.5
56993.7
57271.5
56088.1
54079.4
53562.1
55074.3
56502.3
56824.2
55832.8
53638.8
50792.1
48091.3
47638.7
55123.3
49897.6
49970.8
53008.2
55774.3
57246.8
57391.3
56292.7
54750.6
51574.9
54067.5
56315.1
57215.9
56064
52774.4
48893
46589.1
47809.9
57976.5
50356.6
48247.2
50058.4
52462.1
54106.9
54238
52657.8
50384.9
50010.2
51873
53799.1
54549.3
54006.1
52468.4
50601.3
49095.6
48857.5
59738.4
53273.5
49555.8
50839
53216.6
54778.3
54814.7
53248.4
51246.3
49502.1
51827.4
53910.8
54758.2
53986.6
51534.7
48672.2
47216.3
47913.8
61209.3
53628.2
48738.4
48679.2
49867.8
50979.9
50961.2
49460.7
47760.3
47921.3
49893.6
51925.8
52907.1
52798.5
51990.9
51064
50434.4
50271.6
64225.2
58533.7
50822.7
49535.2
50666.7
51917
52005.9
50589
48996.7
48196.7
50484.1
52293.4
52926.4
52303.1
50507.1
48494.9
47633.8
47944.9
65484
58224.3
50317.1
48308.1
47902.6
47945.9
47567.7
46482.4
45843.2
46847
48992.6
50916.5
51917.2
52089
51832.9
51570.8
51499.4
51521
70528.2
66135.6
53880.2
49380.4
48690.5
49004
48924.8
47925.3
47145.4
47311.4
49584.9
51069.7
51402.7
50768.3
49412.2
48066.7
47714.4
47779.5
72498.2
64734.5
52805.7
48903.7
47030.8
45787.2
44869.2
44338.8
44918.2
46781.6
49012.7
50653.5
51467.9
51701.3
51743.4
51886.5
52199.2
52512.5
79172
76790.7
60185.1
50874.5
47966.4
46991
46413.4
45735.2
45720
47287.2
49088.4
50028.9
49963.5
49215.6
48147.6
47360.2
47509.8
47414.2
80981.9
72013.4
56566.4
50597.9
47664.7
45396.9
44006
43998.2
45525.7
47814
49799.7
50960.6
51417.3
51520.2
51648.6
52010.6
52587.8
53186.1
89779.4
93121.9
72837.4
54869.2
48955.2
46750.7
45730.7
45303.3
45716.4
48153.5
48947.2
49061.2
48514.4
47650.4
46854.9
46602.7
47208.1
46864.1
91875.9
82796
63393.2
53724.2
49897.6
47174.3
45593.4
45821.4
47573.1
49601
51001.2
51576.7
51619.3
51508.3
51602.8
52055.9
52796.7
53668.1
102684
119103
94615.2
63455.1
52029.8
48316.6
47034.3
46806.8
47239.2
49164.7
48893.2
48158.3
47198.9
46346.2
45908.8
46162.1
47089.4
46278.4
115034
111632
78207.4
58307.6
53385.9
50688.4
49143
49103.7
50206.7
51487.1
52217
52288.8
52012.2
51727.4
51758.8
52238.6
53113
54386.3
111124
153710
137593
86257
58784.2
51408.9
49432.3
49074.5
49131.4
50054
49022.6
47782
46686.1
46053.2
46034.4
46660.3
47622.6
46315.4
165516
169156
107598
66659.3
58479.9
55304
53574.5
52860
52930.1
53257.8
53371.7
53127.5
52703.5
52370.6
52404.1
52947.1
54054
56149
101128
207574
229112
147644
78174.9
57332.6
52549.2
51343.4
50756.9
51633.8
50322.4
49103.3
48233.8
47885.7
48026.8
48466.2
48405.5
61307.6
356837
334466
174717
83845.5
66963.1
61813.2
58766.7
56942.6
55844.5
55128.5
54588.1
54126.9
53757
53595.7
53806.8
54550.4
56134.4
60229.6
59254.1
212884
348721
319754
152509
75120.4
58386.1
54468.8
52902.2
55524.7
54163.9
52903.1
51721.7
50626.8
49649.7
49646.8
63846.4
723465
1.57114e+06
664069
218824
99804.5
84779.5
76699.4
67033.3
61565.6
58236
56037.8
54623.8
53786.3
53343.3
53172.5
53271.2
53842.1
55664.6
63575
58071.7
57033.4
78746.9
121812
123289
80743.8
63972.3
59350.9
57113.5
47155.2
48148.6
49947.2
51674.7
52716.2
52949.5
52796.6
52877.2
53448.7
176279
96904.3
62057.8
48057
44882.1
42070.9
41050.5
43739.2
58375.3
80219.1
93444.2
93537.3
84216.6
70781.1
58550.7
51249.5
49210.6
49806
61468.9
53402.3
51312.3
50731.4
49379.6
48335.2
47170.3
47673.3
47358.4
)
;
    }
}


// ************************************************************************* //
