/*--------------------------------*- C++ -*----------------------------------*\
| =========                 |                                                 |
| \\      /  F ield         | OpenFOAM: The Open Source CFD Toolbox           |
|  \\    /   O peration     | Version:  2312                                  |
|   \\  /    A nd           | Website:  www.openfoam.com                      |
|    \\/     M anipulation  |                                                 |
\*---------------------------------------------------------------------------*/
FoamFile
{
    version     2.0;
    format      ascii;
    arch        "LSB;label=32;scalar=64";
    class       volScalarField;
    location    "1";
    object      sigmaEq;
}
// * * * * * * * * * * * * * * * * * * * * * * * * * * * * * * * * * * * * * //

dimensions      [1 -1 -2 0 0 0 0];

internalField   nonuniform List<scalar> 
1620
(
62089
58581
55401.6
54230.5
55436.3
57403.1
58871.3
59623.7
59927.7
60074.9
60241.6
60500.2
60889.7
61551.3
62916.3
65569.8
67919.1
65901.4
62089
58581
55401.6
54230.5
55436.3
57403.1
58871.3
59623.7
59927.7
60074.9
60241.6
60500.2
60889.7
61551.3
62916.3
65569.8
67919.1
65901.4
58813.2
57522.7
57076.4
58264.4
60716.8
62996.9
64146.7
64208.5
63635.8
62822.4
61999.3
61281.9
60727.6
60366.3
60206.3
60206
60172.7
59821.3
58813.2
57522.7
57076.4
58264.4
60716.8
62996.9
64146.7
64208.5
63635.8
62822.4
61999.3
61281.9
60727.6
60366.3
60206.3
60206
60172.7
59821.3
62150
62268.9
62381.4
63159.8
64593.6
66265.4
67595.9
68051.3
67402.8
65856.1
63935
62157
60748.6
59675.8
58943.6
58836.6
59658.7
61128.7
62150
62268.9
62381.4
63159.8
64593.6
66265.4
67595.9
68051.3
67402.8
65856.1
63935
62157
60748.6
59675.8
58943.6
58836.6
59658.7
61128.7
61122.6
57673.6
54806.1
53945.9
55562.6
57789.8
59423.6
60352.6
60829.6
61094.6
61282.9
61443.7
61625.7
62012.7
63082.6
65792.7
68543.3
65034
61122.6
57673.6
54806.1
53945.9
55562.6
57789.8
59423.6
60352.6
60829.6
61094.6
61282.9
61443.7
61625.7
62012.7
63082.6
65792.7
68543.3
65034
57504
57634.8
59725.9
63681.3
67350.6
68968.1
68745.7
67498.6
65844.1
64161.7
62676.9
61485.9
60556.2
59715.9
58617.1
57075.8
56411.7
57610.2
57504
57634.8
59725.9
63681.3
67350.6
68968.1
68745.7
67498.6
65844.1
64161.7
62676.9
61485.9
60556.2
59715.9
58617.1
57075.8
56411.7
57610.2
70144.6
71002.6
71340.6
70962.8
70435.3
70727
71779
72736.7
72696.8
71259.7
68668
65603.1
62734.1
60343.6
58537.4
57993.5
59940.8
65203.6
70144.6
71002.6
71340.6
70962.8
70435.3
70727
71779
72736.7
72696.8
71259.7
68668
65603.1
62734.1
60343.6
58537.4
57993.5
59940.8
65203.6
59331
57160.2
54671.5
54519.4
56995.3
59761.8
61743.4
62933.4
63557.8
63803.5
63749.8
63401.2
62810
62162.3
61685.5
62325.6
63443.7
56062.5
59331
57160.2
54671.5
54519.4
56995.3
59761.8
61743.4
62933.4
63557.8
63803.5
63749.8
63401.2
62810
62162.3
61685.5
62325.6
63443.7
56062.5
55448.9
57466.3
61441.6
67431.6
71940.6
73203
72179.5
70074.4
67622.5
65230.1
63104.8
61270.8
59561.8
57631
55008
51689.2
49907.4
52209
55448.9
57466.3
61441.6
67431.6
71940.6
73203
72179.5
70074.4
67622.5
65230.1
63104.8
61270.8
59561.8
57631
55008
51689.2
49907.4
52209
60721.1
70885.5
74973.3
75402.5
73809.2
73184.1
74130.4
75638.1
76435.9
75736.3
73278
69186.7
64205.3
59786.1
57349.8
58199.6
62646.7
59500.2
60721.1
70885.5
74973.3
75402.5
73809.2
73184.1
74130.4
75638.1
76435.9
75736.3
73278
69186.7
64205.3
59786.1
57349.8
58199.6
62646.7
59500.2
56299.9
53946
51921.4
52983.6
56398.6
59597.9
61928.4
63495
64444.2
64879.2
64820.1
64210
63026.4
61530.4
60512.9
61437.1
62520.7
58910
56299.9
53946
51921.4
52983.6
56398.6
59597.9
61928.4
63495
64444.2
64879.2
64820.1
64210
63026.4
61530.4
60512.9
61437.1
62520.7
58910
56496
55690
56996.3
61442
66046.5
68290.9
68453.4
67403.3
65740.4
63815
61764.6
59501.3
56808
53877.5
51814
51214
52075.9
55275.8
56496
55690
56996.3
61442
66046.5
68290.9
68453.4
67403.3
65740.4
63815
61764.6
59501.3
56808
53877.5
51814
51214
52075.9
55275.8
63780.3
64832.1
68181.5
71122.2
72447.3
73773.7
75961.4
78242
79522.6
79173.4
76782.5
71743.4
64315.8
57961.2
56610.1
60195.8
67525.1
68827.1
63780.3
64832.1
68181.5
71122.2
72447.3
73773.7
75961.4
78242
79522.6
79173.4
76782.5
71743.4
64315.8
57961.2
56610.1
60195.8
67525.1
68827.1
55869.5
51733.7
47757.6
49217.5
53498.5
57182.9
59812.7
61631.3
62817.9
63488.6
63687.2
63356.4
62467.6
61547.2
61777.7
62768.6
61604.3
58535.1
55869.5
51733.7
47757.6
49217.5
53498.5
57182.9
59812.7
61631.3
62817.9
63488.6
63687.2
63356.4
62467.6
61547.2
61777.7
62768.6
61604.3
58535.1
56567.7
55367
53334.8
54672.8
58867.1
62028.4
63401
63488.9
62706.5
61273.8
59221.9
56368.6
52649.1
49706
50298
52611.5
54487.6
56057.5
56567.7
55367
53334.8
54672.8
58867.1
62028.4
63401
63488.9
62706.5
61273.8
59221.9
56368.6
52649.1
49706
50298
52611.5
54487.6
56057.5
66715.7
65787.9
66731
68930.2
71945.7
75459.2
78891.7
81468.1
82545.5
81814.4
78836.5
72564.3
63015.6
55874.9
56044
59519.4
64112.5
67701.8
66715.7
65787.9
66731
68930.2
71945.7
75459.2
78891.7
81468.1
82545.5
81814.4
78836.5
72564.3
63015.6
55874.9
56044
59519.4
64112.5
67701.8
55171.8
51480.5
46554.2
46036.4
49918.4
53838.4
56701.6
58678.6
60019.1
60911.7
61504.1
61920.2
62357.7
63174.8
64041.2
63419.8
60927.6
57932.7
55171.8
51480.5
46554.2
46036.4
49918.4
53838.4
56701.6
58678.6
60019.1
60911.7
61504.1
61920.2
62357.7
63174.8
64041.2
63419.8
60927.6
57932.7
56381
55349.8
52515.4
51054.3
53940.2
57455.3
59605.2
60424.6
60153.1
58901.1
56634
53185.3
48922.5
46994.7
49898.3
53351.3
55295.2
56240.5
56381
55349.8
52515.4
51054.3
53940.2
57455.3
59605.2
60424.6
60153.1
58901.1
56634
53185.3
48922.5
46994.7
49898.3
53351.3
55295.2
56240.5
68128.6
68865.3
69605.5
71742.4
75724.5
80160.2
83396.3
85043.9
84999.3
83137.3
78976.4
71435.3
60882.3
54233.8
55236.7
58176.4
61345.9
65252.7
68128.6
68865.3
69605.5
71742.4
75724.5
80160.2
83396.3
85043.9
84999.3
83137.3
78976.4
71435.3
60882.3
54233.8
55236.7
58176.4
61345.9
65252.7
54831.5
51769.1
47595
45199.3
47184.4
50572.7
53392.7
55437.4
56924
58114.1
59281.5
60696.3
62516
64328.2
64670.9
62875.2
60132
57423.2
54831.5
51769.1
47595
45199.3
47184.4
50572.7
53392.7
55437.4
56924
58114.1
59281.5
60696.3
62516
64328.2
64670.9
62875.2
60132
57423.2
56022.7
55168.9
52783.6
50234.3
51231
54270.8
56712.1
57924.8
57890
56620.5
54091.1
50336.4
46419.1
46079.3
50045
53597.9
55403.1
56070.6
56022.7
55168.9
52783.6
50234.3
51231
54270.8
56712.1
57924.8
57890
56620.5
54091.1
50336.4
46419.1
46079.3
50045
53597.9
55403.1
56070.6
67311.5
71023.5
73794.1
77006.1
81387.1
85274.9
87146.6
87172.8
85604.1
82379.2
77027.8
68715.9
58505.1
53180.6
54560.7
57243.5
59857.8
63090
67311.5
71023.5
73794.1
77006.1
81387.1
85274.9
87146.6
87172.8
85604.1
82379.2
77027.8
68715.9
58505.1
53180.6
54560.7
57243.5
59857.8
63090
54606.7
52049.5
48729.1
45805.6
45829.2
48043
50466.5
52458.4
54096.4
55642.7
57376.9
59480
61812.3
63492.9
63298.6
61457.6
59150.6
56876.9
54606.7
52049.5
48729.1
45805.6
45829.2
48043
50466.5
52458.4
54096.4
55642.7
57376.9
59480
61812.3
63492.9
63298.6
61457.6
59150.6
56876.9
55465.1
54665.4
52784.8
50293
49853
51810.5
53979.6
55200.1
55167.7
53822.9
51220
47726.4
45053
46298.2
50369.8
53535
55117
55631.9
55465.1
54665.4
52784.8
50293
49853
51810.5
53979.6
55200.1
55167.7
53822.9
51220
47726.4
45053
46298.2
50369.8
53535
55117
55631.9
65543.9
70717.3
75985.9
80729.6
84957.4
87645.3
88052.6
86673.1
83892.4
79671.2
73614.8
65298.1
56523.5
52816.2
54283.5
56742.6
59059.7
61667.2
65543.9
70717.3
75985.9
80729.6
84957.4
87645.3
88052.6
86673.1
83892.4
79671.2
73614.8
65298.1
56523.5
52816.2
54283.5
56742.6
59059.7
61667.2
54204.9
52013.5
49260.8
46464.9
45345.1
46321.3
48145.7
49993.7
51751.4
53574.2
55624.9
57918
60115.2
61380.8
61102.6
59728.9
57985.4
56139.7
54204.9
52013.5
49260.8
46464.9
45345.1
46321.3
48145.7
49993.7
51751.4
53574.2
55624.9
57918
60115.2
61380.8
61102.6
59728.9
57985.4
56139.7
54645
53805.4
52193.7
50040
48915.8
49719
51201.2
52103.6
51921.9
50563
48208.1
45591.9
44630.9
46922.5
50547.3
53171.4
54507.4
54904.9
54645
53805.4
52193.7
50040
48915.8
49719
51201.2
52103.6
51921.9
50563
48208.1
45591.9
44630.9
46922.5
50547.3
53171.4
54507.4
54904.9
64078.5
69089.5
75301.1
80968.2
84921.4
86625.4
86064.1
83855.5
80429
75779.4
69653.5
62150.8
55477.3
53195.3
54500.2
56631.5
58676.6
60862.8
64078.5
69089.5
75301.1
80968.2
84921.4
86625.4
86064.1
83855.5
80429
75779.4
69653.5
62150.8
55477.3
53195.3
54500.2
56631.5
58676.6
60862.8
53398.9
51480.9
49139.7
46689.2
45183.2
45280.4
46479.5
48092
49855.2
51773.4
53880.1
56075.9
57974.2
58973.4
58831.5
57894.7
56574.7
55060.5
53398.9
51480.9
49139.7
46689.2
45183.2
45280.4
46479.5
48092
49855.2
51773.4
53880.1
56075.9
57974.2
58973.4
58831.5
57894.7
56574.7
55060.5
53454
52530.4
51016.4
49135.6
47782.5
47691.6
48334
48738.3
48373.4
47168.9
45463.7
44207.5
44807.8
47416.9
50370.7
52458.1
53541.6
53814.3
53454
52530.4
51016.4
49135.6
47782.5
47691.6
48334
48738.3
48373.4
47168.9
45463.7
44207.5
44807.8
47416.9
50370.7
52458.1
53541.6
53814.3
63147.3
67409.4
73095.1
78520.3
82011.9
83087.8
82064.1
79564
76022.8
71516.4
66013.2
60067.3
55587.1
54258.4
55220.9
56892.5
58606.9
60473.1
63147.3
67409.4
73095.1
78520.3
82011.9
83087.8
82064.1
79564
76022.8
71516.4
66013.2
60067.3
55587.1
54258.4
55220.9
56892.5
58606.9
60473.1
52052.5
50415.5
48522.1
46592.7
45223
44913.3
45589.3
46860.6
48456.1
50280.5
52271.6
54250.2
55837.6
56634
56562.8
55858.7
54780.5
53490.3
52052.5
50415.5
48522.1
46592.7
45223
44913.3
45589.3
46860.6
48456.1
50280.5
52271.6
54250.2
55837.6
56634
56562.8
55858.7
54780.5
53490.3
51794.1
50795.6
49348.8
47689.1
46318.2
45659.3
45553
45465
45027.5
44249.3
43544.7
43669.8
45148.2
47509.7
49766
51347.3
52154.6
52269.8
51794.1
50795.6
49348.8
47689.1
46318.2
45659.3
45553
45465
45027.5
44249.3
43544.7
43669.8
45148.2
47509.7
49766
51347.3
52154.6
52269.8
62598.7
66003.2
70482.5
74804.5
77538
78183.3
77039.4
74657.9
71478
67691.7
63468.2
59433.1
56699.1
55847.4
56375.1
57500.2
58816.1
60375
62598.7
66003.2
70482.5
74804.5
77538
78183.3
77039.4
74657.9
71478
67691.7
63468.2
59433.1
56699.1
55847.4
56375.1
57500.2
58816.1
60375
50236
49031.3
47771
46564.5
45674
45360
45691.3
46554.3
47811.7
49363.6
51073.5
52683.5
53850.8
54340.5
54162
53486.5
52509.9
51395.9
50236
49031.3
47771
46564.5
45674
45360
45691.3
46554.3
47811.7
49363.6
51073.5
52683.5
53850.8
54340.5
54162
53486.5
52509.9
51395.9
49655.8
48686.7
47434.2
46084.7
44883.6
44023.2
43503.5
43159.8
42860.7
42673.9
42886
43799.8
45378.9
47191.6
48762.8
49824.5
50301.6
50222.6
49655.8
48686.7
47434.2
46084.7
44883.6
44023.2
43503.5
43159.8
42860.7
42673.9
42886
43799.8
45378.9
47191.6
48762.8
49824.5
50301.6
50222.6
62320.7
64849.6
67968.5
70909
72759.3
73102
72088.3
70156.2
67742.1
65104
62422.7
60040.8
58405
57720.2
57826.3
58422.8
59321.3
60549.5
62320.7
64849.6
67968.5
70909
72759.3
73102
72088.3
70156.2
67742.1
65104
62422.7
60040.8
58405
57720.2
57826.3
58422.8
59321.3
60549.5
48429.4
47864.3
47383.5
46968
46662.3
46546.3
46694.3
47164.8
47994.5
49132.9
50377.4
51424.7
52019.4
52067.6
51632.5
50870.7
49977.1
49131.2
48429.4
47864.3
47383.5
46968
46662.3
46546.3
46694.3
47164.8
47994.5
49132.9
50377.4
51424.7
52019.4
52067.6
51632.5
50870.7
49977.1
49131.2
47247.8
46511.4
45676.4
44825.1
44035.2
43377.3
42896.8
42607.9
42530.2
42739
43334.8
44313.3
45495.8
46622.7
47485.5
47973.3
48063.5
47795.7
47247.8
46511.4
45676.4
44825.1
44035.2
43377.3
42896.8
42607.9
42530.2
42739
43334.8
44313.3
45495.8
46622.7
47485.5
47973.3
48063.4
47795.7
62447.5
64152.6
66089.4
67841.1
68930.4
69081.7
68348.3
67047.5
65541.6
64033.5
62585.7
61279
60262.5
59662.3
59499.9
59717.7
60265.2
61155.2
62447.5
64152.6
66089.4
67841.1
68930.4
69081.7
68348.3
67047.5
65541.6
64033.5
62585.7
61279
60262.5
59662.3
59499.9
59717.7
60265.2
61155.2
47458.5
47525.7
47677.1
47821.6
47905.9
47926
47946.4
48110.7
48558.1
49252.5
49941.9
50349.9
50349.8
49968.6
49327.7
48600.2
47973.9
47584.1
47458.5
47525.7
47677.1
47821.6
47905.9
47926
47946.4
48110.7
48558.1
49252.5
49941.9
50349.9
50349.8
49968.6
49327.7
48600.1
47973.9
47584.1
45201.3
44838.7
44538.9
44287.5
44061.7
43850.9
43667.2
43559.4
43615.2
43916.7
44459.6
45124.9
45742.5
46174
46351.1
46273.6
45996.3
45608.1
45201.3
44838.7
44538.9
44287.5
44061.7
43850.9
43667.2
43559.4
43615.2
43916.7
44459.6
45124.9
45742.5
46174
46351.1
46273.6
45996.3
45608.1
63620.4
64646.5
65705.1
66587.2
67072.7
67034.2
66523.3
65747.9
64926.4
64160
63445.6
62777.4
62208.2
61820.2
61670.5
61778.5
62144.6
62764.9
63620.4
64646.5
65705.1
66587.2
67072.7
67034.2
66523.3
65747.9
64926.4
64160
63445.6
62777.3
62208.2
61820.2
61670.5
61778.5
62144.6
62764.9
49243.2
49646.3
50027.1
50281.6
50360.7
50300.1
50202.1
50174.6
50262.1
50419.3
50530.3
50473.3
50200.6
49769.2
49308
48959.1
48825.8
48936.6
49243.2
49646.3
50027.1
50281.6
50360.7
50300.1
50202.1
50174.6
50262.1
50419.3
50530.3
50473.3
50200.6
49769.2
49308
48959.1
48825.8
48936.6
44176.4
43960.4
43914.6
44015.6
44222.6
44493.7
44803.2
45140.3
45492
45830.9
46122
46329.8
46410
46315.6
46026.3
45576.1
45051.1
44555.7
44176.4
43960.4
43914.6
44015.6
44222.6
44493.7
44803.2
45140.3
45492
45830.9
46122
46329.8
46410
46315.6
46026.3
45576.1
45051.1
44555.7
65985.7
66570.1
67095.8
67428.6
67448.4
67132.8
66571.9
65899.9
65223.6
64608.7
64108.9
63776.4
63649.7
63736.1
64007.5
64410.8
64892
65419.5
65985.7
66570.1
67095.8
67428.6
67448.4
67132.8
66571.9
65899.9
65223.6
64608.7
64108.9
63776.4
63649.7
63736.1
64007.5
64410.8
64892
65419.5
)
;

boundaryField
{
    fixed
    {
        type            calculated;
        value           nonuniform List<scalar> 
108
(
62139.2
59148.4
56116.4
54649.6
55453.3
57171.7
58558.9
59318.1
59657.3
59845.1
60055
60367.8
60840.7
61653.4
63316.7
66390
68489.6
65735.1
62139.2
59148.4
56116.4
54649.6
55453.3
57171.7
58558.9
59318.1
59657.3
59845.1
60055
60367.8
60840.7
61653.4
63316.7
66390
68489.6
65735.1
58949.8
57874.3
57188.1
57742.4
59479.4
61365.6
62537
62873.2
62656.4
62185.6
61655
61177.5
60832.6
60687.3
60752
60807.9
60422.1
59761.6
58949.8
57874.3
57188.1
57742.4
59479.4
61365.6
62537
62873.2
62656.4
62185.6
61655
61177.5
60832.6
60687.3
60752
60807.9
60422.1
59761.6
62156.4
62089.4
61717.9
61876.2
62756.2
64093.3
65396
66143.4
66024.8
65082.8
63668.9
62216.9
60981.1
59988.2
59258.1
59060.7
59757.5
61159.5
62156.4
62089.4
61717.9
61876.2
62756.2
64093.3
65396
66143.4
66024.8
65082.8
63668.9
62216.9
60981.1
59988.2
59258.1
59060.7
59757.5
61159.5
)
;
    }
    inside
    {
        type            calculated;
        value           nonuniform List<scalar> 
540
(
66350.4
65410.8
64572.5
64489.9
65056.4
65919.6
66651.2
66854
66307.8
65079.4
63514.7
62038.7
60908.6
60212.7
60119.8
61049.6
63302.8
65776.7
66350.4
65410.8
64572.5
64489.9
65056.4
65919.6
66651.2
66854
66307.8
65079.4
63514.7
62038.7
60908.6
60212.7
60119.8
61049.6
63302.8
65776.7
91742.5
79414.6
72899
69606.1
68510.8
69403.3
71572.2
73894.1
75217.3
74684.4
72116.2
68347.4
64776.9
62387.1
61791.3
64709.7
75377.9
93661
91742.5
79414.6
72899
69606.1
68510.8
69403.3
71572.2
73894.1
75217.3
74684.4
72116.2
68347.4
64776.9
62387.1
61791.3
64709.7
75377.9
93661
74159.5
81093.3
76846.1
72911.5
71022
72703.9
77584.2
83982.5
89443
91412.4
88174.5
80339.5
71475.6
65602
64727.8
72343.3
93501.7
81608.5
74159.5
81093.3
76846.1
72911.5
71022
72703.9
77584.2
83982.5
89443
91412.4
88174.5
80339.5
71475.6
65602
64727.8
72343.3
93501.7
81608.5
80032.5
72274.6
71997.1
72209.6
73302.5
78220.4
87620.5
99503.4
109828
113918
108882
95735.1
80072.3
69609.8
67927.3
76149.5
98829.9
104854
80032.5
72274.6
71997.1
72209.6
73302.5
78220.4
87620.5
99503.4
109828
113918
108882
95735.1
80072.3
69609.8
67927.3
76149.5
98829.9
104854
82793.8
74067.3
72271.6
73947.5
79100.3
89433.8
104529
121314
134106
136912
127632
109214
88134.1
73580.7
69362.8
72120
81642.5
91259.6
82793.8
74067.3
72271.6
73947.5
79100.3
89433.8
104529
121314
134106
136912
127632
109214
88134.1
73580.7
69362.8
72120
81642.5
91259.6
82224.4
79433.2
78301.8
81819
91389.2
107030
126146
144486
155656
154213
140095
117811
93587.1
76178.8
69112.1
67905.2
70924.7
78459
82224.4
79433.2
78301.8
81819
91389.2
107030
126146
144486
155656
154213
140095
117811
93587.1
76178.8
69112.1
67905.2
70924.7
78459
77620.3
82879.8
87153.7
94629.2
108068
126233
145410
161144
167808
161805
144522
120464
95214.7
76766.2
68265.4
65564.9
66327.4
70748.1
77620.3
82879.8
87153.7
94629.2
108068
126233
145410
161144
167808
161805
144522
120464
95214.7
76766.2
68265.4
65564.9
66327.4
70748.1
72693.9
81756.3
92983.8
106404
122820
140617
156591
167368
169160
160122
141868
118018
93735
76125
67538.3
64441.3
64348.8
66876.4
72693.9
81756.3
92983.8
106404
122820
140617
156591
167368
169160
160122
141868
118018
93735
76125
67538.3
64441.3
64348.8
66876.4
69672
78808
93403.2
111452
129875
146092
158028
164023
162305
152132
134668
112683
91007
75406.4
67347.1
64147.2
63629.1
65200.9
69672
78808
93403.2
111452
129875
146092
158028
164023
162305
152132
134668
112683
91007
75406.4
67347.1
64147.2
63629.1
65200.9
68476.9
76606.3
90965.2
109805
128206
142427
151071
153807
150351
140609
125298
106568
88512.7
75290.5
67873.6
64571.1
63745.8
64830
68476.9
76606.3
90965.2
109805
128206
142427
151071
153807
150351
140609
125298
106568
88512.7
75290.5
67873.6
64571.1
63745.8
64830
68686.9
75748.9
88110.5
104482
120462
132252
138569
139603
135852
127669
115540
100971
86839.1
75921.2
69138.9
65733.1
64662
65485.9
68686.9
75748.9
88110.5
104482
120462
132252
138569
139603
135852
127669
115540
100971
86839.1
75921.2
69138.9
65733.1
64662
65485.9
70256.6
76251
85986.2
98430.2
110625
119669
124256
124534
121313
115254
106695
96378.1
85927.1
77186.1
71173.2
67826.3
66637.7
67342.6
70256.6
76251
85986.2
98430.2
110625
119669
124256
124534
121313
115254
106695
96378.1
85927.1
77186.1
71173.2
67826.3
66637.7
67342.6
73855
78736.7
85882.9
94483.5
102822
109017
111954
111718
109195
105121
99660.2
92950.5
85745.6
79250.3
74407
71515.6
70475.4
71203.9
73855
78736.7
85882.9
94483.5
102822
109017
111954
111718
109195
105121
99660.1
92950.5
85745.6
79250.3
74407
71515.6
70475.4
71203.9
82071.2
85869.1
90751.7
96082.4
100861
104027
105009
104062
101938
99187
95869.8
91929.3
87663.9
83718.1
80705.2
78962.1
78595.1
79628
82071.2
85869.1
90751.7
96082.4
100861
104027
105009
104062
101938
99187
95869.8
91929.3
87663.9
83718.1
80705.2
78962.1
78595.1
79628
97236.4
100413
103850
106990
109031
109362
107949
105257
101878
98295.4
94895.6
92042.3
90059.5
89146.3
89319.7
90422.8
92214.4
94503.7
97236.5
100413
103850
106990
109031
109362
107949
105257
101878
98295.4
94895.6
92042.3
90059.5
89146.3
89319.7
90422.8
92214.4
94503.7
)
;
    }
    outside
    {
        type            calculated;
        value           nonuniform List<scalar> 
540
(
65789.7
61796.4
58093.6
55538.9
55136.9
56090.1
57266.2
58177.2
58794
59243.5
59661.1
60149.2
60804.7
61850.3
63934.2
68211.8
73071.3
71177.2
65789.7
61796.5
58093.6
55538.9
55136.9
56090.1
57266.2
58177.2
58794
59243.5
59661.1
60149.2
60804.7
61850.3
63934.2
68211.8
73071.3
71177.2
64185.4
59933.1
56367.2
53998.1
53971.2
55385
56986.5
58273.8
59239.3
60006.4
60678.3
61315.1
62018.2
63170.2
65981.3
73389.3
81700.5
72364.1
64185.5
59933.1
56367.2
53998.1
53971.2
55385
56986.5
58273.8
59239.3
60006.4
60678.3
61315.1
62018.2
63170.2
65981.3
73389.3
81700.5
72364.1
60564.9
58643.7
55035
52567.7
52945.2
54913.2
57084.4
58937.4
60436
61692
62776.4
63667.1
64408
65527.4
68796.4
79649.4
86756.4
59334.6
60564.9
58643.7
55035
52567.7
52945.2
54913.2
57084.4
58937.4
60436
61692
62776.4
63667.1
64408
65527.4
68796.4
79649.4
86756.4
59334.6
58555.1
56573.3
53206.9
51422.6
52636.9
55189.6
57803.5
60073.6
61993.9
63707.2
65314.1
66766.7
68005.8
69551.3
73571.6
84830.6
88233
63958.5
58555.1
56573.3
53206.9
51422.6
52636.9
55189.6
57803.5
60073.6
61993.9
63707.2
65314.1
66766.7
68005.8
69551.3
73571.6
84830.6
88233
63958.5
60910.9
56136
51649.9
50094.8
51767.3
54671.9
57660.4
60346
62736.2
65049.3
67542.9
70355.9
73467.7
76988.9
81500.6
86234.9
82664.6
68712.2
60910.9
56136
51649.9
50094.8
51767.3
54671.9
57660.4
60346
62736.2
65049.3
67542.9
70355.9
73467.7
76988.9
81500.6
86234.9
82664.6
68712.2
62491.8
57441.8
52366.1
49663.4
50655.2
53365.3
56475.3
59517.4
62480.9
65656
69489.9
74348.4
80090.3
85312
87214.4
84297.7
77395.1
68972.1
62491.8
57441.8
52366.1
49663.4
50655.2
53365.3
56475.3
59517.4
62480.9
65656
69489.9
74348.4
80090.3
85312
87214.4
84297.7
77395.1
68972.1
63099.1
58896.9
54313.4
50761
50390.6
52336.4
55200.4
58409.2
61926.2
66049.1
71203.6
77545.1
84248.4
88491.3
86834.7
80366.3
73283.1
67594.2
63099.1
58896.9
54313.4
50761
50390.6
52336.4
55200.4
58409.2
61926.2
66049.1
71203.6
77545.1
84248.4
88491.3
86834.7
80366.3
73283.1
67594.2
62812.1
59612.6
55909.3
52427.8
51053.1
52081.9
54507.9
57719.9
61612.8
66335.9
72009.4
78329.5
83909.4
85793.4
82151.8
75706.7
70042.9
65995.8
62812.1
59612.6
55909.3
52427.8
51053.1
52081.9
54507.9
57719.9
61612.8
66335.9
72009.4
78329.5
83909.4
85793.4
82151.8
75706.7
70042.9
65995.8
62076.2
59574.1
56660.4
53723.1
52072.5
52462.9
54452.3
57505.7
61399.5
66050.1
71282.3
76512.7
80218.4
80235.8
76430
71460.4
67419.1
64492.3
62076.2
59574.1
56660.4
53723.1
52072.5
52462.9
54452.3
57505.7
61399.5
66050.1
71282.3
76512.7
80218.4
80235.8
76430
71460.4
67419.1
64492.3
61067.7
59014
56689.1
54383.4
52949.4
53078.1
54683.3
57364.1
60819.6
64826.7
69076.8
72886.7
74959.2
74201.2
71260.5
67907.7
65156.6
63000.8
61067.7
59014
56689.1
54383.4
52949.4
53078.1
54683.3
57364.1
60819.6
64826.7
69076.8
72886.7
74959.2
74201.2
71260.5
67907.7
65156.6
63000.8
59664
57977.1
56165.1
54482.8
53455.5
53535.5
54757.4
56865.6
59588.7
62686.3
65812
68320.6
69372.2
68645.9
66781.3
64699.3
62854.8
61237.5
59664
57977.1
56165.1
54482.8
53455.5
53535.5
54757.4
56865.6
59588.7
62686.3
65812
68320.6
69372.2
68646
66781.3
64699.3
62854.8
61237.5
57613.7
56369
55129.7
54072.1
53467.1
53545.3
54362.5
55812.5
57730.7
59907
61996.2
63505.4
64030.3
63574.3
62514.6
61257.3
60013.6
58815.7
57613.7
56369
55129.7
54072.1
53467.1
53545.3
54362.5
55812.5
57730.7
59907
61996.2
63505.4
64030.3
63574.3
62514.6
61257.3
60013.6
58815.7
54771.1
54122
53535.6
53072
52825.3
52890.1
53333.1
54181
55388.2
56770.7
58004.4
58772.9
58944
58596
57914.4
57085.5
56247.5
55473.4
54771.1
54122
53535.6
53072
52825.3
52890.1
53333.1
54181
55388.2
56770.7
58004.4
58772.9
58944
58596
57914.4
57085.5
56247.5
55473.4
51546.9
51536.4
51549.9
51554.1
51549.3
51569.4
51694.3
52038.7
52653.3
53394
53975.5
54194.7
54032
53583.9
52987.7
52390.8
51923.2
51650.1
51546.9
51536.4
51549.9
51554.1
51549.3
51569.4
51694.3
52038.7
52653.3
53394
53975.5
54194.7
54032
53583.9
52987.7
52390.8
51923.2
51650.1
49393.5
49796.6
50173
50419.6
50489.7
50421.6
50318.6
50288.8
50376.1
50534.2
50646
50589.3
50316.9
49887.4
49430.8
49089.1
48964
49082.4
49393.5
49796.6
50173
50419.6
50489.7
50421.6
50318.6
50288.8
50376.1
50534.2
50646
50589.3
50316.9
49887.4
49430.8
49089.1
48964
49082.4
)
;
    }
}


// ************************************************************************* //
