/*--------------------------------*- C++ -*----------------------------------*\
| =========                 |                                                 |
| \\      /  F ield         | OpenFOAM: The Open Source CFD Toolbox           |
|  \\    /   O peration     | Version:  2312                                  |
|   \\  /    A nd           | Website:  www.openfoam.com                      |
|    \\/     M anipulation  |                                                 |
\*---------------------------------------------------------------------------*/
FoamFile
{
    version     2.0;
    format      ascii;
    arch        "LSB;label=32;scalar=64";
    class       volSymmTensorField;
    location    "1";
    object      sigma;
}
// * * * * * * * * * * * * * * * * * * * * * * * * * * * * * * * * * * * * * //

dimensions      [1 -1 -2 0 0 0 0];

internalField   nonuniform List<symmTensor> 
1620
(
(5101.85 -30218.4 -2680.92 13019.5 1929.57 -23123.7)
(36160.1 -28247 6805.47 40547 -9485.11 13558.9)
(53684 -24817.9 12710.7 50186.2 -14141.4 40632.5)
(62308.2 -21373.8 16527.9 52421 -15024.8 57966.3)
(64003.7 -18423.1 19672.7 49808 -14905.4 65638.6)
(61599.6 -16105.9 22327.8 44510.2 -14450 66316.6)
(57126.2 -14349.9 24305.9 38044.9 -13787.2 62830.6)
(51832 -13043 25606.1 31409.9 -13096.1 57441.6)
(46592 -12113.8 26407.8 25338.8 -12543.1 51720.1)
(41990.4 -11533.7 26910.6 20311.6 -12219.8 46543.2)
(38065.9 -11312.2 27243.3 16293.2 -12163.6 41983.6)
(33907.1 -11501.2 27443 12330.4 -12401.7 37029.7)
(27337.8 -12212.7 27470.4 6248.2 -12987.9 29307.4)
(15084.8 -13685.4 27238.6 -5176.82 -14013.5 15143.6)
(-5577.59 -16428.1 26560.4 -24657.6 -15537.1 -9183.99)
(-31715.1 -21026.4 24802.2 -49232.5 -17258 -42464.8)
(-48393.8 -26164.8 20709.5 -61466.9 -17866.4 -68596.4)
(-32258 -29237.4 13331.4 -33253.7 -13839.1 -58640.7)
(5101.85 -30218.4 2680.92 13019.5 -1929.57 -23123.7)
(36160.1 -28247 -6805.47 40547 9485.11 13558.9)
(53684 -24817.9 -12710.7 50186.2 14141.4 40632.5)
(62308.2 -21373.8 -16527.9 52421 15024.8 57966.3)
(64003.7 -18423.1 -19672.7 49808 14905.4 65638.6)
(61599.6 -16105.9 -22327.8 44510.2 14450 66316.6)
(57126.2 -14349.9 -24305.9 38044.9 13787.2 62830.6)
(51832 -13043 -25606.1 31409.9 13096.1 57441.6)
(46592 -12113.8 -26407.8 25338.8 12543.1 51720.1)
(41990.4 -11533.7 -26910.6 20311.6 12219.8 46543.2)
(38065.9 -11312.2 -27243.3 16293.2 12163.6 41983.6)
(33907.1 -11501.2 -27443 12330.4 12401.7 37029.7)
(27337.8 -12212.7 -27470.4 6248.2 12987.9 29307.4)
(15084.8 -13685.4 -27238.6 -5176.82 14013.5 15143.6)
(-5577.59 -16428.1 -26560.4 -24657.6 15537.1 -9183.99)
(-31715.1 -21026.4 -24802.2 -49232.5 17258 -42464.8)
(-48393.8 -26164.8 -20709.5 -61466.9 17866.4 -68596.4)
(-32258 -29237.4 -13331.4 -33253.7 13839.1 -58640.7)
(-45134.7 -5195.4 -127.343 10461.7 -8407.15 -46452.1)
(-25917.7 -4829.43 646.828 18916.5 -22909.3 -15972.7)
(-8115.91 -4570.77 625.209 24177.9 -28013.6 15607.6)
(4591.59 -4265.98 194.258 27500.9 -28182.3 39788)
(11584.6 -3867.97 2.18643 28401.9 -26979.6 55289.6)
(14732 -3408.9 381.826 27822.4 -25751.8 63883.7)
(15679.7 -2957.07 1178.04 26617.8 -24815.5 67487.1)
(15130.7 -2575.65 2092.62 24989.2 -24217.5 67571.5)
(13236.4 -2306.6 2942.7 22803.3 -23962.2 65098.2)
(9879.84 -2176.73 3664.29 19792.8 -24048.2 60481.9)
(4757.76 -2203.37 4236.05 15594.4 -24481.4 53643.6)
(-2677.46 -2397.49 4640.02 9702.91 -25290.9 44007.1)
(-13404.7 -2783.8 4866.8 1346.57 -26513.6 30322.2)
(-28848.9 -3443.45 4918.5 -10468.1 -28097.6 10576)
(-49453.4 -4494.48 4752.13 -25549 -29632.2 -16676.1)
(-70681.1 -5716.44 4177.78 -38628.6 -29769.1 -47927.7)
(-80259.6 -6177.36 3048.59 -36845.8 -25343.3 -70298.9)
(-66267.5 -5751.08 1565.64 -11516.4 -11787 -67298.8)
(-45134.7 -5195.4 127.343 10461.7 8407.15 -46452.1)
(-25917.7 -4829.43 -646.828 18916.5 22909.3 -15972.7)
(-8115.91 -4570.77 -625.209 24177.9 28013.6 15607.6)
(4591.59 -4265.98 -194.258 27500.9 28182.3 39788)
(11584.6 -3867.97 -2.18638 28401.9 26979.6 55289.6)
(14732 -3408.9 -381.826 27822.4 25751.8 63883.7)
(15679.7 -2957.07 -1178.04 26617.8 24815.5 67487.1)
(15130.7 -2575.65 -2092.62 24989.2 24217.5 67571.5)
(13236.4 -2306.6 -2942.7 22803.3 23962.2 65098.2)
(9879.84 -2176.73 -3664.29 19792.8 24048.2 60481.9)
(4757.76 -2203.37 -4236.05 15594.4 24481.4 53643.6)
(-2677.46 -2397.49 -4640.02 9702.91 25290.9 44007.1)
(-13404.7 -2783.8 -4866.8 1346.57 26513.6 30322.2)
(-28848.9 -3443.45 -4918.5 -10468.1 28097.6 10576)
(-49453.4 -4494.48 -4752.13 -25549 29632.2 -16676.1)
(-70681.1 -5716.44 -4177.78 -38628.6 29769.1 -47927.7)
(-80259.6 -6177.36 -3048.59 -36845.8 25343.3 -70298.9)
(-66267.5 -5751.08 -1565.64 -11516.4 11787 -67298.8)
(-37685.8 28420.9 -8444.26 -23872.9 -9798.68 -58963)
(-34081.9 25072.9 -16463.9 -27739.8 -17190.5 -47084.1)
(-25154.6 20886.7 -21987.7 -26446.8 -19292.4 -29605.2)
(-12062.9 17353.8 -25580.6 -19145.7 -18750.5 -10106.3)
(1299.28 14902.4 -27938.9 -9870.6 -17603.7 7592.55)
(13183.5 13519.1 -29415.4 -828.821 -16756.9 22220.1)
(22658.9 13061.4 -30093 6910.25 -16481.1 33216.8)
(28814 13290.4 -29959.3 12525.5 -16714.2 39939.2)
(30866 13892.8 -29091.4 15242.3 -17227.3 41809.5)
(28239.5 14598.1 -27725.7 14234.6 -17790.2 38412.4)
(20563.2 15306.4 -26171 8729.38 -18304 29476.1)
(7686.19 16105.3 -24619 -1678.25 -18809.2 14834.1)
(-10080.8 17151.3 -23021 -16601.8 -19347.3 -5394.41)
(-31045.7 18561.8 -21133 -34073.1 -19781 -29907.2)
(-50478.9 20473.3 -18599.9 -49151.5 -19628.6 -54490)
(-60855.9 23141.9 -14881.9 -54196.8 -17812.1 -71865.5)
(-57857.7 26425.9 -9151.85 -45224 -12395.7 -76685.2)
(-46689.7 28862.9 -957.543 -30303.4 -2054.93 -70445.3)
(-37685.8 28420.9 8444.26 -23872.9 9798.68 -58963)
(-34081.9 25072.9 16463.9 -27739.8 17190.5 -47084.1)
(-25154.6 20886.7 21987.7 -26446.8 19292.4 -29605.2)
(-12062.9 17353.8 25580.6 -19145.7 18750.5 -10106.3)
(1299.28 14902.4 27938.9 -9870.6 17603.7 7592.55)
(13183.5 13519.1 29415.4 -828.821 16756.9 22220.1)
(22658.9 13061.4 30093 6910.25 16481.1 33216.8)
(28814 13290.4 29959.3 12525.5 16714.2 39939.2)
(30866 13892.8 29091.4 15242.3 17227.3 41809.5)
(28239.5 14598.1 27725.7 14234.6 17790.2 38412.4)
(20563.2 15306.4 26171 8729.38 18304 29476.1)
(7686.19 16105.3 24619 -1678.25 18809.2 14834.1)
(-10080.8 17151.3 23021 -16601.8 19347.3 -5394.41)
(-31045.7 18561.8 21133 -34073.1 19781 -29907.2)
(-50478.9 20473.3 18599.9 -49151.5 19628.6 -54490)
(-60855.9 23141.9 14881.9 -54196.8 17812.1 -71865.5)
(-57857.7 26425.9 9151.85 -45224 12395.7 -76685.2)
(-46689.7 28862.9 957.543 -30303.4 2054.93 -70445.3)
(36892.7 -29325.6 -2672.25 46406.4 2069.97 9186.69)
(44346.5 -25361.2 12436.3 41189.9 -14520 25659.1)
(47612.6 -20185.6 17662.2 32817.9 -15069.9 40147.7)
(47888.9 -16800.6 19596.3 27688.3 -12747.3 48642.4)
(45996.1 -14245 21735.6 22764.4 -11016.5 51475.6)
(42969 -11980.9 24144.8 17527.3 -9802.27 49905.1)
(39411.4 -10050.5 26133.3 12363.4 -8752.58 45906.3)
(36106.2 -8508.99 27511.5 7956.03 -7832.62 41427.4)
(33842.6 -7317.28 28413.8 4951.05 -7093.05 37852.5)
(33142.6 -6415.16 29024 3754.23 -6555.56 35919.3)
(34073.3 -5772.78 29467.1 4365.53 -6214.2 35739.5)
(36228.6 -5417.55 29795.2 6337.03 -6067.33 36886)
(38867.2 -5448.96 30021.7 8836.62 -6149.02 38512.5)
(40923.1 -6095.77 30171.7 10498 -6555.67 39123.5)
(41112.5 -7974.98 30186.8 9045.19 -7447.53 35907.7)
(39562.9 -12096.1 29346.8 2264.02 -8922.37 25791.2)
(37201.1 -16891.6 26687.2 -4023.69 -11938.6 14752.6)
(31180.8 -22814.9 21040 13159.9 -18143.8 11746.6)
(36892.7 -29325.6 2672.25 46406.4 -2069.97 9186.69)
(44346.5 -25361.2 -12436.3 41189.9 14520 25659.1)
(47612.6 -20185.6 -17662.2 32817.9 15069.9 40147.7)
(47888.9 -16800.6 -19596.3 27688.3 12747.3 48642.4)
(45996.1 -14245 -21735.6 22764.4 11016.5 51475.6)
(42969 -11980.9 -24144.8 17527.3 9802.27 49905.1)
(39411.4 -10050.5 -26133.3 12363.4 8752.58 45906.3)
(36106.2 -8508.99 -27511.5 7956.03 7832.62 41427.4)
(33842.6 -7317.28 -28413.8 4951.05 7093.05 37852.5)
(33142.6 -6415.16 -29024 3754.23 6555.56 35919.3)
(34073.3 -5772.78 -29467.1 4365.53 6214.2 35739.5)
(36228.6 -5417.55 -29795.2 6337.03 6067.33 36886)
(38867.2 -5448.96 -30021.7 8836.62 6149.02 38512.5)
(40923.1 -6095.77 -30171.7 10498 6555.67 39123.5)
(41112.5 -7974.98 -30186.8 9045.19 7447.53 35907.7)
(39562.9 -12096.1 -29346.8 2264.02 8922.37 25791.2)
(37201.1 -16891.6 -26687.2 -4023.69 11938.6 14752.6)
(31180.8 -22814.9 -21040 13159.9 18143.8 11746.6)
(-32151.6 -5317.57 770.948 17593.6 -15658.1 -32351.4)
(-26328.3 -4245.21 1890.53 541.074 -29336.1 -1331.4)
(-16999.4 -3869.33 1011.15 -3574.27 -26480.6 25495.4)
(-12366 -4023.1 -119.831 -4980.39 -22179.7 41226.4)
(-9207.99 -4123.2 -174.282 -4929.62 -18965.8 51173.6)
(-6874.6 -3831.51 762.493 -4538.51 -16812.9 56411.8)
(-5225.48 -3260.13 2047.57 -4081.36 -15469.7 58295.7)
(-4266.61 -2638.06 3294.77 -3699.26 -14740.8 58069.6)
(-4039.47 -2109.1 4373.67 -3571.23 -14475.6 56493.2)
(-4549.48 -1733.17 5257.38 -3818.51 -14572.5 54016.7)
(-5662.98 -1534.64 5947.79 -4374.65 -14990.7 51015)
(-6922.92 -1538.37 6461.65 -4797.62 -15764.6 47984)
(-7656.44 -1800.3 6829.04 -4370.05 -17011.8 45378.6)
(-7861.53 -2459.63 7071.26 -2972.86 -18920.2 42603.5)
(-8932.51 -3780.78 7101.08 -1861.68 -21657.8 36995.5)
(-12342.2 -5655.29 6481.98 -2029.55 -25218 25187.8)
(-19784.1 -6535.71 4897.65 -48.8128 -28839.5 4044.96)
(-28527.3 -6186.37 2498.79 16281.7 -20508.1 -26561.8)
(-32151.6 -5317.57 -770.948 17593.6 15658.1 -32351.4)
(-26328.3 -4245.21 -1890.53 541.074 29336.1 -1331.4)
(-16999.4 -3869.33 -1011.15 -3574.27 26480.6 25495.4)
(-12366 -4023.1 119.831 -4980.39 22179.7 41226.4)
(-9207.99 -4123.2 174.282 -4929.62 18965.8 51173.6)
(-6874.6 -3831.51 -762.493 -4538.51 16812.9 56411.8)
(-5225.47 -3260.13 -2047.57 -4081.36 15469.7 58295.7)
(-4266.61 -2638.06 -3294.77 -3699.26 14740.8 58069.6)
(-4039.47 -2109.1 -4373.67 -3571.23 14475.6 56493.2)
(-4549.48 -1733.17 -5257.38 -3818.51 14572.5 54016.7)
(-5662.98 -1534.64 -5947.79 -4374.65 14990.7 51015)
(-6922.92 -1538.37 -6461.65 -4797.62 15764.6 47984)
(-7656.44 -1800.3 -6829.04 -4370.05 17011.8 45378.6)
(-7861.53 -2459.63 -7071.26 -2972.86 18920.2 42603.5)
(-8932.51 -3780.78 -7101.08 -1861.68 21657.8 36995.5)
(-12342.2 -5655.29 -6481.98 -2029.55 25218 25187.8)
(-19784.1 -6535.71 -4897.65 -48.8127 28839.5 4044.96)
(-28527.3 -6186.37 -2498.79 16281.7 20508.1 -26561.8)
(-36420.9 29565.2 -15900.2 -36177.2 -17673.7 -60842.8)
(-37924.3 20523.3 -27823 -50508.4 -21032.8 -41134.9)
(-37073.4 13483.2 -32216 -54409.4 -17079 -27575.7)
(-31359.2 9072.38 -33461.2 -50230.6 -13409.8 -15829.2)
(-20345 6387.25 -33708.1 -40394.6 -10916.7 -2602.57)
(-7865.11 4910.39 -34018.4 -29654.2 -9421.44 10151.6)
(3035.27 4519.8 -34474 -20836 -8841.67 20487.8)
(10644.6 5174.18 -34677.4 -14869.9 -9154.1 27266.1)
(13973.2 6601.85 -34226.9 -11910.4 -10168.7 29788.1)
(12755.8 8304.85 -32993.7 -11851.6 -11518.1 27895.5)
(7699.72 9807.3 -31177.8 -14289.2 -12839.7 22266.5)
(558.691 10912.3 -29166.7 -18206.7 -13986.3 14488.8)
(-6422.14 11757.2 -27259 -21990.4 -15087.3 6459.16)
(-11915.3 12633.4 -25475.1 -24507.3 -16375.3 -1116.58)
(-16399.1 13946.9 -23631.8 -26166.1 -17931.9 -9815.46)
(-21082.3 16744.9 -21259.1 -27500.6 -19426.5 -22513.7)
(-29154.8 22712.7 -16276.3 -28650.8 -18366.6 -44341.9)
(-34996.3 30426.4 -3532.03 -25488.5 -4531.55 -66400.1)
(-36420.9 29565.2 15900.2 -36177.2 17673.7 -60842.8)
(-37924.3 20523.3 27823 -50508.4 21032.8 -41134.9)
(-37073.4 13483.2 32216 -54409.4 17079 -27575.7)
(-31359.2 9072.38 33461.2 -50230.6 13409.8 -15829.2)
(-20345 6387.25 33708.1 -40394.6 10916.7 -2602.57)
(-7865.11 4910.39 34018.4 -29654.2 9421.44 10151.6)
(3035.27 4519.8 34474 -20836 8841.67 20487.8)
(10644.6 5174.18 34677.4 -14869.9 9154.1 27266.1)
(13973.2 6601.85 34226.9 -11910.4 10168.7 29788.1)
(12755.8 8304.85 32993.7 -11851.6 11518.1 27895.5)
(7699.72 9807.3 31177.8 -14289.2 12839.7 22266.5)
(558.691 10912.3 29166.7 -18206.7 13986.3 14488.8)
(-6422.14 11757.2 27259 -21990.4 15087.3 6459.16)
(-11915.3 12633.4 25475.1 -24507.3 16375.3 -1116.58)
(-16399.1 13946.9 23631.8 -26166.1 17931.9 -9815.46)
(-21082.3 16744.9 21259.1 -27500.6 19426.5 -22513.7)
(-29154.8 22712.7 16276.3 -28650.8 18366.6 -44341.9)
(-34996.3 30426.4 3532.03 -25488.5 4531.55 -66400.1)
(25149.3 -17198.3 13866.6 41230.2 -24909.8 32458.8)
(43717.6 -13684.5 23389.4 25332.4 -14818 46856.6)
(47994.8 -10579.9 23055.3 23897.7 -9965.81 53976.2)
(47543.7 -9908.76 22013.5 22659.5 -7466.97 59439.8)
(46495.9 -9312.06 22747.3 20531.9 -5870.42 62271.8)
(45235.5 -7757.44 24784.3 17313.2 -4686.96 61232.8)
(43679.6 -5763.32 26901.3 13971.3 -3679.72 57791)
(42260.1 -3908.92 28558.4 11323.3 -2779.37 53755.5)
(41634.3 -2363.42 29709.3 9871.08 -1978.29 50379.7)
(42205.9 -1070.11 30444.3 9819.04 -1267.4 48269.8)
(43866.3 65.461 30838.6 10987.3 -627.205 47402.1)
(46047.9 1079.89 30933.8 12833.2 -26.092 47275.8)
(47979.2 1940.26 30780.4 14512.5 605.378 47069.6)
(48690.5 2588.08 30423.2 14513.7 1410.15 45216.2)
(46776.1 2874.74 29592.3 9685.8 2689.74 38217.5)
(41351.9 2918.22 26967.9 -4612.94 5305.09 21218.4)
(27227.5 6681.49 23169.4 -23716.5 10533 565.79)
(7840.68 10475.9 18743.5 -2079.5 20774.6 22660.9)
(25149.3 -17198.3 -13866.6 41230.2 24909.8 32458.8)
(43717.6 -13684.5 -23389.4 25332.4 14818 46856.6)
(47994.8 -10579.9 -23055.3 23897.7 9965.81 53976.2)
(47543.7 -9908.76 -22013.5 22659.5 7466.97 59439.8)
(46495.9 -9312.06 -22747.3 20531.9 5870.42 62271.8)
(45235.5 -7757.44 -24784.3 17313.2 4686.96 61232.8)
(43679.6 -5763.32 -26901.3 13971.3 3679.72 57791)
(42260.1 -3908.92 -28558.4 11323.3 2779.37 53755.5)
(41634.3 -2363.42 -29709.3 9871.08 1978.29 50379.7)
(42205.9 -1070.11 -30444.3 9819.04 1267.4 48269.8)
(43866.3 65.461 -30838.6 10987.3 627.205 47402.1)
(46047.9 1079.89 -30933.8 12833.2 26.092 47275.8)
(47979.2 1940.26 -30780.4 14512.5 -605.378 47069.6)
(48690.5 2588.08 -30423.2 14513.7 -1410.15 45216.2)
(46776.1 2874.74 -29592.3 9685.8 -2689.74 38217.5)
(41351.9 2918.22 -26967.9 -4612.94 -5305.09 21218.4)
(27227.5 6681.49 -23169.4 -23716.5 -10533 565.79)
(7840.68 10475.9 -18743.5 -2079.5 -20774.6 22660.9)
(-53312.5 -1245.53 3433.59 -52745.5 -18709.1 -8484.39)
(-32980.2 -1132.79 3593.55 -36240.3 -8336.38 20556.2)
(-18082 -1762.16 1473.16 -20833.4 -5612.34 41032.6)
(-12059.3 -3018.75 -288.254 -13845.9 -4315.81 53839.3)
(-8602.26 -4029.76 -345.834 -10217.6 -3375.89 61935.9)
(-6234.86 -4063.31 789.459 -8703.83 -2641.49 65206.5)
(-4463.91 -3309.77 2228.85 -7931.77 -2224.72 65483.7)
(-3241.01 -2292.02 3574.98 -7282.26 -2117.89 64241)
(-2680.4 -1361.51 4701.67 -6848.94 -2206.28 62117.9)
(-2874.23 -633.676 5566.64 -6901.38 -2384.33 59389.6)
(-3794.76 -101.467 6182.55 -7538.19 -2606.07 56274.1)
(-5163.7 241.864 6626.68 -8513.08 -2859.78 53072)
(-6616.55 318.166 7008.09 -9506.54 -3091.34 49947.4)
(-8551.69 -51.1706 7345.34 -11219.8 -3137.12 46012.4)
(-12670.9 -1040.46 7359.78 -16254.7 -2737.33 38716.3)
(-21208.8 -2383.77 6350.97 -28462.2 -1724.57 25017.6)
(-36142.8 -2441.82 4451.12 -49030.9 -1051.1 5220.38)
(-54426 -1075.36 3483.58 -64779.1 -6672.19 -9883.76)
(-53312.5 -1245.53 -3433.59 -52745.5 18709.1 -8484.39)
(-32980.2 -1132.79 -3593.55 -36240.3 8336.38 20556.2)
(-18082 -1762.16 -1473.16 -20833.4 5612.34 41032.6)
(-12059.3 -3018.75 288.254 -13845.9 4315.81 53839.3)
(-8602.26 -4029.76 345.834 -10217.6 3375.89 61935.9)
(-6234.86 -4063.31 -789.459 -8703.83 2641.49 65206.5)
(-4463.91 -3309.77 -2228.85 -7931.77 2224.72 65483.7)
(-3241.01 -2292.02 -3574.98 -7282.26 2117.89 64241)
(-2680.4 -1361.51 -4701.67 -6848.94 2206.28 62117.9)
(-2874.23 -633.676 -5566.64 -6901.38 2384.33 59389.6)
(-3794.76 -101.467 -6182.55 -7538.19 2606.07 56274.1)
(-5163.7 241.864 -6626.68 -8513.08 2859.78 53072)
(-6616.55 318.166 -7008.09 -9506.54 3091.34 49947.4)
(-8551.69 -51.1705 -7345.34 -11219.8 3137.12 46012.4)
(-12670.9 -1040.46 -7359.78 -16254.7 2737.33 38716.3)
(-21208.8 -2383.77 -6350.97 -28462.2 1724.57 25017.6)
(-36142.8 -2441.82 -4451.12 -49030.9 1051.1 5220.38)
(-54426 -1075.36 -3483.58 -64779.1 6672.19 -9883.76)
(-73429.4 -2928.46 -25052.5 -99737.7 6414.39 -52880.3)
(-58154.7 -3059.81 -34041.7 -87549.2 4271.65 -44262.1)
(-53086.4 -2921.65 -36511.2 -79350.8 2690.02 -33705.4)
(-44327.3 -3753.81 -36553.3 -67680.1 2007.85 -21165.1)
(-31165.8 -4912.89 -35585.9 -53515.5 1810.41 -7817.29)
(-17412.4 -5828.65 -35205.3 -41216.3 1919.15 3847.69)
(-5786.58 -5958.61 -35642.6 -32773.6 1894.46 12667.2)
(2298.03 -4896.94 -36376.2 -28273.4 1291.05 18213.6)
(5756.63 -2697.75 -36764.9 -27285.5 -45.3682 20005.6)
(4136.27 85.7201 -36378.4 -29225.4 -1901.37 17790.4)
(-1865.35 2689.96 -35061.1 -33190 -3838.84 12136.9)
(-10324.6 4408.02 -32904.7 -37889.4 -5361.94 4602.49)
(-18807.3 4844.18 -30354 -42354.8 -6135.3 -3030.38)
(-26032.4 4218.96 -28177.3 -47110.4 -6300.29 -10364.4)
(-32526.5 3265.57 -27066.1 -53874.3 -6426.16 -18836.4)
(-38404 3082.88 -27529.1 -63357.7 -7259.89 -29433.2)
(-49186.1 6322.15 -28839.4 -78771.4 -10957.3 -46864.1)
(-74538.6 16180.4 -18833.6 -78669.6 -23627.7 -74829.4)
(-73429.4 -2928.46 25052.5 -99737.7 -6414.39 -52880.3)
(-58154.7 -3059.81 34041.7 -87549.2 -4271.65 -44262.1)
(-53086.4 -2921.65 36511.2 -79350.8 -2690.02 -33705.4)
(-44327.3 -3753.81 36553.3 -67680.1 -2007.85 -21165.1)
(-31165.8 -4912.89 35585.9 -53515.5 -1810.41 -7817.29)
(-17412.4 -5828.65 35205.3 -41216.3 -1919.15 3847.69)
(-5786.58 -5958.61 35642.6 -32773.6 -1894.46 12667.2)
(2298.03 -4896.94 36376.2 -28273.4 -1291.05 18213.6)
(5756.63 -2697.75 36764.9 -27285.5 45.3682 20005.6)
(4136.27 85.7201 36378.4 -29225.4 1901.37 17790.4)
(-1865.35 2689.96 35061.1 -33190 3838.84 12136.9)
(-10324.6 4408.02 32904.7 -37889.4 5361.94 4602.49)
(-18807.3 4844.18 30354 -42354.8 6135.3 -3030.38)
(-26032.4 4218.96 28177.3 -47110.4 6300.29 -10364.4)
(-32526.5 3265.57 27066.1 -53874.3 6426.16 -18836.4)
(-38404 3082.88 27529.1 -63357.7 7259.89 -29433.2)
(-49186.1 6322.15 28839.4 -78771.4 10957.3 -46864.1)
(-74538.6 16180.4 18833.6 -78669.6 23627.7 -74829.4)
(26611.3 15952 21675.8 16003.5 17344 24457)
(38341.8 5751.13 25408.8 14459.2 7204.08 43448.7)
(42057.8 770.669 24179.8 17399 2268.08 51375.3)
(42971.6 -2824.43 23145.9 19289.4 372.321 58609.3)
(43025.7 -4421.22 23709 18390.2 389.32 62015.7)
(43012.2 -3686.95 25387.3 15757.9 1098.72 61273.2)
(42805.9 -1734.51 27249.9 13037.6 1893.46 58303.6)
(42609.4 388.915 28788.5 11120.1 2662.18 54791.2)
(42957.1 2286.35 29858.1 10323.5 3409.36 51725.3)
(44204.9 3988.8 30437.7 10665.3 4146.62 49502)
(46249.3 5659.93 30508.6 11915.3 4874.87 47997.7)
(48601.7 7425.51 30033.7 13683.1 5612.37 46713.5)
(50684.4 9327.36 28975.6 15535.9 6495.07 44919.1)
(51826.7 11415.7 27249 16595.5 7891.69 41263.5)
(50476.6 13874.5 24388.2 14255.6 10262.8 32429.3)
(43166.4 17051.8 18936.2 4221.32 13650.3 12293.9)
(23835.2 22219.4 10671.9 -6114.94 15338.3 -17739)
(15706.5 27156.3 -2543.62 21920.3 -893.006 -15931.8)
(26611.3 15952 -21675.8 16003.5 -17344 24457)
(38341.8 5751.13 -25408.8 14459.2 -7204.08 43448.7)
(42057.8 770.669 -24179.8 17399 -2268.08 51375.3)
(42971.6 -2824.43 -23145.9 19289.4 -372.321 58609.3)
(43025.7 -4421.22 -23709 18390.2 -389.32 62015.7)
(43012.2 -3686.95 -25387.3 15757.9 -1098.72 61273.2)
(42805.9 -1734.51 -27249.9 13037.6 -1893.46 58303.6)
(42609.4 388.915 -28788.5 11120.1 -2662.18 54791.2)
(42957.1 2286.35 -29858.1 10323.5 -3409.36 51725.3)
(44204.9 3988.8 -30437.7 10665.3 -4146.62 49502)
(46249.3 5659.93 -30508.6 11915.3 -4874.87 47997.7)
(48601.7 7425.51 -30033.7 13683.1 -5612.37 46713.5)
(50684.4 9327.36 -28975.6 15535.9 -6495.07 44919.1)
(51826.7 11415.7 -27249 16595.5 -7891.69 41263.5)
(50476.6 13874.5 -24388.2 14255.6 -10262.8 32429.3)
(43166.4 17051.8 -18936.2 4221.32 -13650.3 12293.9)
(23835.2 22219.4 -10671.9 -6114.94 -15338.3 -17739)
(15706.5 27156.3 2543.62 21920.3 893.006 -15931.8)
(-48199.7 5041.97 2738.14 -6325.15 22959 -41283.4)
(-28937.7 2741.17 3952.14 -12706.8 26439.3 6330.66)
(-14978.3 375.585 2892.87 -7590.64 19515.7 33876.7)
(-8533.03 -2144.84 1789.16 -3655.77 14561.4 49563.2)
(-5136.16 -3977.05 1882.72 -2083.15 12037.4 58538.3)
(-2802.54 -4297.1 2742.66 -2245.89 11006.6 62452.8)
(-1011.49 -3436.76 3718.5 -2775.42 10501.7 63495.8)
(275.14 -2123.84 4570.17 -2996.47 10108.5 63078.8)
(1046.52 -849.422 5226.59 -2968.43 9772.14 61801.3)
(1310.27 231.935 5645.4 -2999.22 9527.99 59903.4)
(1076.15 1164.8 5827.93 -3279.4 9388.99 57466.4)
(305.493 1998.69 5878.39 -3772.11 9414.76 54359.2)
(-1220.69 2600.41 6012.78 -4406.36 9990.01 50020)
(-4082.2 2679.16 6284.07 -5691.21 12018.7 43357.4)
(-9004.52 2291.47 6163.33 -8698.1 16146.1 33253.6)
(-16732 1992.12 4908.11 -13425.5 22019.2 17723.1)
(-28692.8 2638.29 2617.09 -15364.4 27939 -8047.65)
(-44551.3 4934.02 778.751 -1160.19 18355.5 -46471.2)
(-48199.7 5041.97 -2738.14 -6325.15 -22959 -41283.4)
(-28937.7 2741.17 -3952.14 -12706.8 -26439.3 6330.66)
(-14978.3 375.585 -2892.87 -7590.64 -19515.7 33876.7)
(-8533.03 -2144.84 -1789.16 -3655.77 -14561.4 49563.2)
(-5136.16 -3977.05 -1882.72 -2083.15 -12037.4 58538.3)
(-2802.54 -4297.1 -2742.66 -2245.89 -11006.6 62452.8)
(-1011.48 -3436.76 -3718.5 -2775.42 -10501.7 63495.8)
(275.14 -2123.84 -4570.17 -2996.47 -10108.5 63078.8)
(1046.52 -849.422 -5226.59 -2968.43 -9772.14 61801.3)
(1310.27 231.935 -5645.4 -2999.22 -9527.99 59903.4)
(1076.15 1164.8 -5827.93 -3279.4 -9388.99 57466.4)
(305.493 1998.69 -5878.39 -3772.11 -9414.76 54359.2)
(-1220.69 2600.41 -6012.78 -4406.36 -9990.01 50020)
(-4082.2 2679.16 -6284.07 -5691.21 -12018.7 43357.4)
(-9004.52 2291.47 -6163.33 -8698.1 -16146.1 33253.6)
(-16732 1992.12 -4908.11 -13425.5 -22019.2 17723.1)
(-28692.8 2638.29 -2617.09 -15364.4 -27939 -8047.65)
(-44551.3 4934.02 -778.751 -1160.19 -18355.5 -46471.2)
(-51730.3 -29447.1 -3792.27 -36957.5 6046.06 -78256.1)
(-49808.6 -23161.3 -20510.3 -49506.9 20666.4 -56762.3)
(-45756.1 -18199.7 -27974.5 -55151.9 19173.9 -38699)
(-39519.6 -16420.8 -31275 -52129.4 15578.8 -24198.1)
(-28650 -16762.2 -32112.3 -43334.6 12894.1 -10465.8)
(-15925.4 -17574.6 -32529.4 -34650 11663.1 605.124)
(-4321.85 -17535.9 -33546 -29052.6 11174.1 8577.45)
(4201.75 -15955.6 -34986.6 -26999 10539.3 13551.9)
(8230.05 -12879.1 -36265.6 -28035.4 9274.66 15320.3)
(7148.22 -8983.91 -36873.3 -31451.3 7384.2 13662.4)
(1467.55 -5200.09 -36406.5 -36214.3 5219.74 8922.21)
(-7375.62 -2601.93 -34433.6 -41001.7 3493.72 1986.17)
(-17487.8 -2337.14 -30991.5 -45321.2 3336.02 -6418.32)
(-26869.7 -4565.03 -27566.4 -50240.2 5369.58 -15726.7)
(-33572.6 -7970.37 -25949 -55513.3 8764.81 -24479.2)
(-35925.7 -11927.2 -26298.1 -58156.4 12965.2 -31323.2)
(-34766.1 -17579 -27256 -55679.6 18562.4 -38727.6)
(-42410.8 -26037.6 -19765.8 -46059.5 20148.4 -61653.1)
(-51730.3 -29447.1 3792.27 -36957.5 -6046.06 -78256.1)
(-49808.6 -23161.3 20510.3 -49506.9 -20666.4 -56762.3)
(-45756.1 -18199.7 27974.5 -55151.9 -19173.9 -38699)
(-39519.6 -16420.8 31275 -52129.4 -15578.8 -24198.1)
(-28650 -16762.2 32112.3 -43334.6 -12894.1 -10465.8)
(-15925.4 -17574.6 32529.4 -34650 -11663.1 605.124)
(-4321.85 -17535.9 33546 -29052.6 -11174.1 8577.45)
(4201.75 -15955.6 34986.6 -26999 -10539.3 13551.9)
(8230.05 -12879.1 36265.6 -28035.4 -9274.66 15320.3)
(7148.22 -8983.91 36873.3 -31451.3 -7384.2 13662.4)
(1467.55 -5200.09 36406.5 -36214.3 -5219.74 8922.21)
(-7375.62 -2601.93 34433.6 -41001.7 -3493.72 1986.17)
(-17487.8 -2337.14 30991.5 -45321.2 -3336.02 -6418.32)
(-26869.7 -4565.03 27566.4 -50240.2 -5369.58 -15726.7)
(-33572.6 -7970.37 25949 -55513.3 -8764.81 -24479.2)
(-35925.7 -11927.2 26298.1 -58156.4 -12965.2 -31323.2)
(-34766.1 -17579 27256 -55679.6 -18562.4 -38727.6)
(-42410.8 -26037.6 19765.8 -46059.5 -20148.4 -61653.1)
(15636.5 22691.8 14481.2 9397.56 12515.9 -8658.06)
(23754.3 15748.9 20277.5 9891.48 13423.7 13076.7)
(32162 8809.82 22120.8 14980.4 9162.78 33900.2)
(36038.2 3353.59 22970 17612.8 6209.69 47693.1)
(37628.6 646.649 24058.4 16781 5779.05 53629.4)
(38600.1 624.802 25399.8 14222.3 6293.5 54137.2)
(39378.1 2188.53 26731.8 11703.8 6909.29 52032.6)
(40120 4266.83 27800.2 10041.6 7506.08 49116)
(41206.8 6335.52 28451.3 9421.31 8100.32 46353.3)
(42980.2 8349.6 28590.5 9753.4 8679.13 44126.6)
(45485.7 10494.9 28111 10825.5 9186.12 42326.3)
(48452.8 12981.1 26844.5 12441.3 9558.59 40442.2)
(51294.1 15886.1 24587 14478.7 9885.38 37559.4)
(52642.3 19051 21292.9 16253 10640.2 31939.8)
(49812.4 22095.6 17129.4 15432.7 12193.6 20829.7)
(39806 24579.7 11737.4 9844.6 13206.9 2074.72)
(26648.9 26366.1 4584.33 7750.5 9890.15 -15743)
(20163 26773.2 -4485.93 15162.1 -1356.95 -16852.6)
(15636.5 22691.8 -14481.2 9397.56 -12515.9 -8658.06)
(23754.3 15748.9 -20277.5 9891.48 -13423.7 13076.7)
(32162 8809.82 -22120.8 14980.4 -9162.77 33900.2)
(36038.2 3353.59 -22970 17612.8 -6209.69 47693.1)
(37628.6 646.649 -24058.4 16781 -5779.05 53629.4)
(38600.1 624.802 -25399.8 14222.3 -6293.5 54137.2)
(39378.1 2188.53 -26731.8 11703.8 -6909.29 52032.6)
(40120 4266.83 -27800.2 10041.6 -7506.08 49116)
(41206.8 6335.52 -28451.3 9421.31 -8100.32 46353.3)
(42980.2 8349.6 -28590.5 9753.4 -8679.13 44126.6)
(45485.7 10494.9 -28111 10825.5 -9186.12 42326.3)
(48452.8 12981.1 -26844.5 12441.3 -9558.59 40442.2)
(51294.1 15886.1 -24587 14478.7 -9885.38 37559.4)
(52642.3 19051 -21292.9 16253 -10640.2 31939.8)
(49812.4 22095.6 -17129.4 15432.7 -12193.6 20829.7)
(39806 24579.7 -11737.4 9844.6 -13206.9 2074.72)
(26648.9 26366.1 -4584.33 7750.5 -9890.15 -15743)
(20163 26773.2 4485.93 15162.1 1356.95 -16852.6)
(-28308 5183.31 2187.15 22480.4 12380.3 -29569.7)
(-26541.8 3799.82 3311.29 11859.5 24897.2 -12207.8)
(-15372.7 1273.88 3380.82 11485 25579 15422.5)
(-7609.11 -2030.17 3398.86 11878.4 22187.5 36491.8)
(-3298.86 -4455.95 3989.12 10243.7 19866.8 48599)
(-197.598 -4967.84 4679.26 7800.43 19047.3 54510.6)
(2279.15 -4064.46 5167.66 5793.09 18754.6 57192.1)
(4121.05 -2581.05 5434.73 4556.75 18517.7 58129.1)
(5433.56 -1034.31 5487.44 3953.31 18256.3 57957.3)
(6334.51 423.82 5295.4 3673.99 17975.6 56919)
(6793.91 1863.43 4850.7 3483.62 17657 54965.5)
(6467.66 3350.95 4302.4 3377.63 17396.6 51539.4)
(4507.68 4651 4060.05 3533.13 17889.9 45211.7)
(-301.775 5231.34 4370.65 3701.12 20444.8 34338.5)
(-8019.93 5155.46 4539.88 3566.37 24622.9 19424.5)
(-16459.5 5107.12 3742.91 5416.27 27283.2 1938.37)
(-20864.8 5315.93 1943.29 15223.9 24176.1 -14759.5)
(-21849.1 5563.04 -231.287 28440 9613.67 -26292.1)
(-28308 5183.31 -2187.15 22480.4 -12380.3 -29569.7)
(-26541.8 3799.82 -3311.29 11859.5 -24897.2 -12207.8)
(-15372.7 1273.88 -3380.82 11485 -25579 15422.5)
(-7609.11 -2030.17 -3398.86 11878.4 -22187.5 36491.8)
(-3298.86 -4455.95 -3989.12 10243.7 -19866.8 48599)
(-197.598 -4967.84 -4679.26 7800.43 -19047.3 54510.6)
(2279.15 -4064.46 -5167.65 5793.09 -18754.6 57192.1)
(4121.05 -2581.05 -5434.73 4556.75 -18517.7 58129.1)
(5433.56 -1034.31 -5487.44 3953.31 -18256.3 57957.3)
(6334.51 423.82 -5295.4 3673.99 -17975.6 56919)
(6793.91 1863.43 -4850.7 3483.62 -17657 54965.5)
(6467.66 3350.95 -4302.4 3377.63 -17396.6 51539.4)
(4507.68 4651 -4060.05 3533.13 -17889.9 45211.7)
(-301.775 5231.34 -4370.65 3701.12 -20444.8 34338.5)
(-8019.93 5155.46 -4539.88 3566.37 -24622.9 19424.5)
(-16459.5 5107.12 -3742.91 5416.27 -27283.2 1938.37)
(-20864.8 5315.93 -1943.29 15223.9 -24176.1 -14759.5)
(-21849.1 5563.04 231.287 28440 -9613.67 -26292.1)
(-17194.4 -31887.3 -484.539 -1195.86 1686.76 -43827.2)
(-23752.8 -29232.6 -11867.2 -11066 14392.1 -41900.4)
(-25462.4 -26319.1 -19599.4 -19638.9 19172.5 -32263.5)
(-22731.6 -25640.2 -24149.7 -21805 18457.3 -19652.7)
(-15425.5 -27295.4 -26023.6 -19057.2 16326.3 -7249.07)
(-4766.35 -29011.3 -27090.2 -15656 15440.3 2569.5)
(6217.52 -28978.9 -28732.7 -14174.4 15596.3 9669.28)
(14772.4 -26727.8 -30929.7 -15223.4 15697 14265.1)
(19074.9 -22626 -33102.6 -18485 15058.4 16178)
(18340.4 -17570.6 -34659.6 -23339.1 13535.6 15137)
(12770.9 -12638 -34993.7 -28940 11390.6 11105.4)
(3161.91 -9104.52 -33274.2 -34210.5 9443.08 3978.14)
(-9336.02 -8540.38 -29121.6 -38755.5 9414.83 -6931.58)
(-22236.4 -11301.2 -24498.2 -43217.4 12429 -20694.1)
(-30969.2 -15376.9 -21864.3 -45223.2 16432.1 -32178.6)
(-31845.2 -19687.8 -20325.5 -39384.2 19086.7 -37808.9)
(-24739.7 -24890.8 -17787.1 -24096.6 19050.3 -39032.2)
(-16729.9 -30377.3 -11464 -6720.43 12710.2 -41070.3)
(-17194.4 -31887.3 484.539 -1195.86 -1686.76 -43827.2)
(-23752.8 -29232.6 11867.2 -11066 -14392.1 -41900.4)
(-25462.4 -26319.1 19599.4 -19638.9 -19172.5 -32263.5)
(-22731.6 -25640.2 24149.7 -21805 -18457.3 -19652.7)
(-15425.5 -27295.4 26023.6 -19057.2 -16326.3 -7249.08)
(-4766.35 -29011.3 27090.2 -15656 -15440.3 2569.5)
(6217.52 -28978.9 28732.7 -14174.4 -15596.3 9669.28)
(14772.4 -26727.8 30929.7 -15223.4 -15697 14265.1)
(19074.9 -22626 33102.6 -18485 -15058.4 16178)
(18340.4 -17570.6 34659.6 -23339.1 -13535.6 15137)
(12770.9 -12638 34993.7 -28940 -11390.6 11105.4)
(3161.91 -9104.52 33274.2 -34210.5 -9443.08 3978.14)
(-9336.02 -8540.38 29121.6 -38755.5 -9414.83 -6931.58)
(-22236.4 -11301.2 24498.2 -43217.4 -12429 -20694.1)
(-30969.2 -15376.9 21864.3 -45223.2 -16432.1 -32178.6)
(-31845.2 -19687.8 20325.5 -39384.2 -19086.7 -37808.9)
(-24739.7 -24890.8 17787.1 -24096.6 -19050.3 -39032.2)
(-16729.9 -30377.3 11464 -6720.43 -12710.2 -41070.3)
(14756.5 23647.6 11140.2 9035.9 8304.67 -15718)
(16666.8 19206.7 16257.1 7857.78 11878.2 -4145.34)
(23429.1 13799.7 19260.4 11652.6 11128.4 14789.8)
(28643.2 8856.87 21252.4 14610.8 9678.25 31643.9)
(31497.7 6039.62 22861.1 14483.1 9761.82 40640.4)
(33259.6 5402.06 24127.6 12545.4 10401.9 43352.4)
(34777.2 6251.93 25079.9 10419.9 10920.2 42799.8)
(36342.8 7870.88 25675.3 8936.22 11302.8 40889.5)
(38205.5 9803.32 25824 8308.11 11621.9 38676.1)
(40641.1 11939.5 25415.1 8465.72 11859.1 36654.8)
(43792 14413.6 24295.9 9268.4 11910.6 34843.9)
(47499.6 17416.1 22242.1 10640.4 11652.4 32776.3)
(50934.5 20935.6 19043.6 12511.3 11142.3 29293.7)
(51775.8 24429.9 14968.8 14224.4 10912.3 22342.8)
(46695.6 26850.4 10990.2 14083.3 11302 10509.6)
(35368.6 27777 7089.01 11281.6 10703.3 -4564.07)
(23886.7 27681.8 2039.45 9697.18 6749.78 -16572.1)
(17945.6 26533.3 -4411.39 11150.9 -733.566 -19356.4)
(14756.5 23647.6 -11140.2 9035.9 -8304.67 -15718)
(16666.8 19206.7 -16257.1 7857.78 -11878.2 -4145.34)