/*--------------------------------*- C++ -*----------------------------------*\
| =========                 |                                                 |
| \\      /  F ield         | OpenFOAM: The Open Source CFD Toolbox           |
|  \\    /   O peration     | Version:  2312                                  |
|   \\  /    A nd           | Website:  www.openfoam.com                      |
|    \\/     M anipulation  |                                                 |
\*---------------------------------------------------------------------------*/
FoamFile
{
    version     2.0;
    format      ascii;
    arch        "LSB;label=32;scalar=64";
    class       volScalarField;
    location    "1";
    object      sigmaHyd;
}
// * * * * * * * * * * * * * * * * * * * * * * * * * * * * * * * * * * * * * //

dimensions      [1 -1 -2 0 0 0 0];

internalField   nonuniform List<scalar> 
1620
(
27550.6
27550.7
27550.7
27550.4
27550.4
27550.5
27550.5
27550.6
27550.7
27550.6
27550.7
27550.7
27550.4
27550.4
27550.5
27550.5
27550.6
27550.7
27550.6
27550.7
27550.7
27550.4
27550.4
27550.5
27550.5
27550.6
27550.7
27550.6
27550.7
27550.7
27550.4
27550.4
27550.5
27550.5
27550.6
27550.7
14229.6
14229.6
14229.5
14229.6
14229.6
14229.4
14229.6
14229.6
14229.5
14229.6
14229.6
14229.5
14229.6
14229.6
14229.4
14229.6
14229.6
14229.5
14229.6
14229.6
14229.5
14229.6
14229.6
14229.4
14229.6
14229.6
14229.5
14229.6
14229.6
14229.5
14229.6
14229.6
14229.4
14229.6
14229.6
14229.5
11.163
11.1503
10.9508
10.9373
11.1137
11.1086
11.1415
11.0125
11.1074
11.1672
11.1543
10.9546
10.9407
11.1169
11.1118
11.1446
11.0154
11.1101
11.1694
11.1561
10.9558
10.9413
11.1168
11.1111
11.1433
11.0135
11.1076
11.1665
11.1527
10.952
10.937
11.1121
11.106
11.1381
11.0085
11.1032
9848.15
9848.14
9848.32
9848.06
9848.1
9848.17
9847.98
9848.18
9848.16
9848.14
9848.14
9848.32
9848.06
9848.1
9848.17
9847.98
9848.18
9848.16
9848.14
9848.14
9848.32
9848.06
9848.1
9848.17
9847.98
9848.18
9848.16
9848.14
9848.14
9848.32
9848.06
9848.1
9848.17
9847.98
9848.18
9848.16
-4267.96
-4267.94
-4268.07
-4267.77
-4267.83
-4268.06
-4267.79
-4268.06
-4267.96
-4267.96
-4267.94
-4268.07
-4267.77
-4267.83
-4268.06
-4267.79
-4268.06
-4267.96
-4267.96
-4267.94
-4268.07
-4267.77
-4267.83
-4268.06
-4267.79
-4268.06
-4267.96
-4267.96
-4267.94
-4268.07
-4267.77
-4267.84
-4268.06
-4267.79
-4268.06
-4267.95
-24578.5
-24578.6
-24578.5
-24578.7
-24578.5
-24578.2
-24578.4
-24578.3
-24578.4
-24578.5
-24578.6
-24578.5
-24578.7
-24578.5
-24578.2
-24578.4
-24578.3
-24578.4
-24578.5
-24578.6
-24578.5
-24578.7
-24578.5
-24578.2
-24578.4
-24578.3
-24578.4
-24578.5
-24578.6
-24578.5
-24578.7
-24578.5
-24578.2
-24578.4
-24578.3
-24578.4
11351.1
11350.7
11351
11350.8
11351
11351.1
11350.7
11350.9
11350.7
11351.1
11350.7
11351
11350.8
11351
11351.1
11350.7
11350.9
11350.7
11351.1
11350.7
11351
11350.8
11351
11351.1
11350.7
11350.9
11350.7
11351.1
11350.7
11351
11350.8
11351
11351.1
11350.7
11350.9
11350.7
-3398.99
-3398.72
-3398.97
-3398.7
-3398.75
-3399.04
-3398.81
-3399.07
-3398.72
-3398.99
-3398.72
-3398.97
-3398.7
-3398.75
-3399.04
-3398.81
-3399.07
-3398.72
-3398.99
-3398.72
-3398.97
-3398.7
-3398.75
-3399.04
-3398.81
-3399.07
-3398.72
-3398.99
-3398.72
-3398.97
-3398.7
-3398.75
-3399.04
-3398.81
-3399.07
-3398.72
-28997.3
-28997.5
-28997.2
-28997.2
-28997.4
-28997.3
-28997.4
-28997.1
-28997.2
-28997.3
-28997.5
-28997.2
-28997.2
-28997.4
-28997.3
-28997.4
-28997.1
-28997.2
-28997.3
-28997.5
-28997.2
-28997.2
-28997.4
-28997.3
-28997.4
-28997.1
-28997.2
-28997.3
-28997.5
-28997.2
-28997.2
-28997.4
-28997.3
-28997.4
-28997.1
-28997.2
12306.9
12306.9
12306.9
12307
12307
12307
12307.1
12306.8
12307
12306.9
12306.9
12306.9
12307
12307
12307
12307.1
12306.8
12307
12306.9
12306.9
12306.9
12307
12307
12307
12307.1
12306.8
12307
12306.9
12306.9
12306.9
12307
12307
12307
12307.1
12306.8
12307
-3480.86
-3480.92
-3480.89
-3480.74
-3480.93
-3480.82
-3480.92
-3480.91
-3480.87
-3480.87
-3480.92
-3480.88
-3480.74
-3480.93
-3480.82
-3480.92
-3480.91
-3480.87
-3480.86
-3480.92
-3480.88
-3480.74
-3480.93
-3480.82
-3480.92
-3480.91
-3480.87
-3480.87
-3480.92
-3480.88
-3480.74
-3480.93
-3480.82
-3480.92
-3480.91
-3480.87
-32642.1
-32642.3
-32642.1
-32642.2
-32642.3
-32642.1
-32642.3
-32642.2
-32642.1
-32642.1
-32642.3
-32642.1
-32642.2
-32642.3
-32642.1
-32642.3
-32642.2
-32642.1
-32642.1
-32642.3
-32642.1
-32642.2
-32642.3
-32642.1
-32642.3
-32642.2
-32642.1
-32642.1
-32642.3
-32642.1
-32642.2
-32642.3
-32642.1
-32642.3
-32642.2
-32642.1
12469.1
12469.3
12469.1
12469.3
12469.2
12469.1
12469.4
12469
12469.3
12469.1
12469.3
12469.1
12469.3
12469.2
12469.1
12469.4
12469
12469.3
12469.1
12469.3
12469.1
12469.3
12469.2
12469.1
12469.4
12469
12469.3
12469.1
12469.3
12469.1
12469.3
12469.2
12469.1
12469.4
12469
12469.3
-4113.73
-4114.09
-4113.73
-4114
-4113.94
-4113.73
-4114.01
-4113.83
-4113.87
-4113.73
-4114.09
-4113.72
-4114
-4113.94
-4113.73
-4114.01
-4113.83
-4113.87
-4113.73
-4114.09
-4113.72
-4114
-4113.94
-4113.73
-4114.01
-4113.83
-4113.87
-4113.73
-4114.09
-4113.72
-4114
-4113.94
-4113.73
-4114.01
-4113.83
-4113.87
-34557.3
-34557
-34557.1
-34557.1
-34557
-34557.1
-34557
-34557.1
-34556.9
-34557.3
-34557
-34557.1
-34557.1
-34557
-34557.1
-34557
-34557.1
-34556.9
-34557.3
-34557
-34557.1
-34557.1
-34557
-34557.1
-34557
-34557.1
-34556.9
-34557.3
-34557
-34557.1
-34557.1
-34557
-34557.1
-34557
-34557.1
-34556.9
11747.5
11747.6
11747.5
11747.6
11747.5
11747.5
11747.6
11747.4
11747.7
11747.5
11747.6
11747.5
11747.6
11747.5
11747.5
11747.6
11747.4
11747.7
11747.5
11747.6
11747.5
11747.6
11747.5
11747.5
11747.6
11747.4
11747.7
11747.5
11747.6
11747.5
11747.6
11747.5
11747.5
11747.6
11747.4
11747.7
-5575.68
-5575.86
-5575.75
-5575.8
-5575.77
-5575.81
-5575.92
-5575.55
-5575.93
-5575.68
-5575.86
-5575.75
-5575.8
-5575.77
-5575.8
-5575.92
-5575.55
-5575.93
-5575.68
-5575.86
-5575.75
-5575.8
-5575.77
-5575.8
-5575.92
-5575.55
-5575.93
-5575.68
-5575.86
-5575.75
-5575.8
-5575.77
-5575.8
-5575.92
-5575.55
-5575.93
-35772.7
-35772.5
-35772.8
-35772.6
-35772.8
-35772.9
-35772.7
-35772.8
-35772.7
-35772.7
-35772.5
-35772.8
-35772.6
-35772.8
-35772.9
-35772.7
-35772.8
-35772.7
-35772.7
-35772.5
-35772.8
-35772.6
-35772.8
-35772.9
-35772.7
-35772.8
-35772.7
-35772.7
-35772.5
-35772.8
-35772.6
-35772.8
-35772.9
-35772.7
-35772.8
-35772.7
10045
10045.1
10044.7
10045.2
10044.9
10044.9
10045.1
10044.8
10045.1
10045
10045.1
10044.7
10045.2
10044.9
10044.9
10045.1
10044.8
10045.1
10045
10045.1
10044.7
10045.2
10044.9
10044.9
10045.1
10044.8
10045.1
10045
10045.1
10044.7
10045.2
10044.9
10044.9
10045.1
10044.8
10045.1
-7627.85
-7628.52
-7627.9
-7628.26
-7628.29
-7627.86
-7628.23
-7628.07
-7628.28
-7627.85
-7628.52
-7627.9
-7628.26
-7628.29
-7627.86
-7628.22
-7628.07
-7628.28
-7627.85
-7628.52
-7627.9
-7628.25
-7628.29
-7627.86
-7628.22
-7628.07
-7628.28
-7627.85
-7628.52
-7627.9
-7628.25
-7628.29
-7627.86
-7628.22
-7628.07
-7628.28
-36710.3
-36709.9
-36710.2
-36710.1
-36710.1
-36710.2
-36710.1
-36710.4
-36709.8
-36710.3
-36709.9
-36710.2
-36710.1
-36710.1
-36710.2
-36710.1
-36710.4
-36709.8
-36710.3
-36709.9
-36710.2
-36710.1
-36710.1
-36710.2
-36710.1
-36710.4
-36709.8
-36710.3
-36709.9
-36710.2
-36710.1
-36710.1
-36710.2
-36710.1
-36710.4
-36709.8
6939.01
6938.89
6938.75
6938.89
6938.79
6938.85
6938.94
6938.79
6938.74
6939.01
6938.89
6938.75
6938.89
6938.79
6938.85
6938.94
6938.79
6938.74
6939.01
6938.89
6938.75
6938.89
6938.79
6938.85
6938.94
6938.79
6938.74
6939.01
6938.89
6938.75
6938.89
6938.79
6938.85
6938.94
6938.79
6938.74
-10082.5
-10082.6
-10082.2
-10082.6
-10082.3
-10082.2
-10082.4
-10082.5
-10082.2
-10082.5
-10082.6
-10082.2
-10082.6
-10082.3
-10082.2
-10082.4
-10082.5
-10082.2
-10082.5
-10082.6
-10082.2
-10082.6
-10082.3
-10082.2
-10082.4
-10082.5
-10082.2
-10082.5
-10082.6
-10082.2
-10082.6
-10082.3
-10082.2
-10082.4
-10082.5
-10082.2
-37503.4
-37503.1
-37503.2
-37503.3
-37503.3
-37503.4
-37503.4
-37503.4
-37503.3
-37503.4
-37503.1
-37503.2
-37503.3
-37503.3
-37503.4
-37503.4
-37503.4
-37503.3
-37503.4
-37503.1
-37503.2
-37503.3
-37503.3
-37503.4
-37503.4
-37503.4
-37503.3
-37503.4
-37503.1
-37503.2
-37503.3
-37503.3
-37503.4
-37503.4
-37503.4
-37503.3
1565.43
1565.48
1565.43
1565.45
1565.43
1565.44
1565.37
1565.46
1565.53
1565.43
1565.48
1565.43
1565.45
1565.43
1565.44
1565.37
1565.46
1565.53
1565.43
1565.48
1565.43
1565.45
1565.43
1565.44
1565.37
1565.46
1565.52
1565.43
1565.48
1565.43
1565.45
1565.42
1565.44
1565.37
1565.46
1565.53
-12817
-12816.8
-12817
-12816.8
-12816.8
-12817.1
-12816.6
-12817
-12816.9
-12817
-12816.8
-12817
-12816.8
-12816.8
-12817.1
-12816.6
-12817
-12816.9
-12817
-12816.8
-12817
-12816.8
-12816.8
-12817.1
-12816.6
-12817
-12816.9
-12817.1
-12816.8
-12817
-12816.8
-12816.8
-12817.1
-12816.6
-12817
-12816.9
-37863.5
-37863.8
-37863.6
-37863.8
-37863.9
-37863.8
-37863.7
-37863.8
-37864
-37863.5
-37863.8
-37863.6
-37863.8
-37863.9
-37863.8
-37863.7
-37863.8
-37864
-37863.5
-37863.8
-37863.6
-37863.8
-37863.9
-37863.8
-37863.7
-37863.8
-37864
-37863.5
-37863.8
-37863.6
-37863.8
-37863.9
-37863.8
-37863.7
-37863.8
-37864
-7020.61
-7020.71
-7020.65
-7020.49
-7020.54
-7020.71
-7020.65
-7020.44
-7020.6
-7020.61
-7020.71
-7020.65
-7020.49
-7020.54
-7020.71
-7020.65
-7020.44
-7020.6
-7020.61
-7020.71
-7020.65
-7020.49
-7020.54
-7020.71
-7020.65
-7020.44
-7020.6
-7020.61
-7020.71
-7020.65
-7020.49
-7020.54
-7020.71
-7020.65
-7020.44
-7020.6
-15266.9
-15266.7
-15267
-15266.9
-15267
-15267
-15266.8
-15266.9
-15267.1
-15266.9
-15266.7
-15267
-15266.9
-15267
-15267
-15266.8
-15266.9
-15267.1
-15266.9
-15266.7
-15267
-15266.9
-15267
-15267
-15266.8
-15266.9
-15267.1
-15266.9
-15266.7
-15267
-15266.9
-15267
-15267
-15266.8
-15266.9
-15267.1
-36446.2
-36446.4
-36446.3
-36446.4
-36446.3
-36446.2
-36446.3
-36446.2
-36446.5
-36446.2
-36446.4
-36446.3
-36446.4
-36446.3
-36446.2
-36446.3
-36446.2
-36446.5
-36446.2
-36446.4
-36446.3
-36446.4
-36446.3
-36446.2
-36446.3
-36446.2
-36446.5
-36446.2
-36446.4
-36446.3
-36446.4
-36446.3
-36446.2
-36446.3
-36446.2
-36446.5
-17812.4
-17812.6
-17812.5
-17812.3
-17812.3
-17812.4
-17812.3
-17812.5
-17812.6
-17812.4
-17812.6
-17812.5
-17812.3
-17812.3
-17812.4
-17812.3
-17812.5
-17812.6
-17812.4
-17812.6
-17812.5
-17812.3
-17812.3
-17812.4
-17812.3
-17812.5
-17812.6
-17812.4
-17812.6
-17812.5
-17812.3
-17812.3
-17812.4
-17812.3
-17812.5
-17812.6
-15681.2
-15680.7
-15681.1
-15681.1
-15681
-15681.1
-15681.1
-15681.4
-15681
-15681.2
-15680.7
-15681.1
-15681.1
-15681
-15681.1
-15681.1
-15681.4
-15681
-15681.2
-15680.7
-15681.1
-15681.1
-15681
-15681.1
-15681.1
-15681.4
-15681
-15681.2
-15680.7
-15681.1
-15681.1
-15681
-15681.1
-15681.1
-15681.4
-15681
-30682.4
-30682.7
-30682.4
-30682.6
-30682.6
-30682.6
-30682.9
-30682.4
-30682.7
-30682.4
-30682.7
-30682.4
-30682.6
-30682.6
-30682.6
-30682.9
-30682.4
-30682.7
-30682.4
-30682.7
-30682.4
-30682.6
-30682.6
-30682.6
-30682.9
-30682.4
-30682.7
-30682.4
-30682.7
-30682.4
-30682.6
-30682.6
-30682.6
-30682.9
-30682.4
-30682.7
-27098.6
-27098.6
-27098.3
-27098.4
-27098.3
-27098.3
-27098.1
-27098.4
-27099
-27098.6
-27098.6
-27098.3
-27098.4
-27098.3
-27098.3
-27098.1
-27098.4
-27099
-27098.6
-27098.6
-27098.3
-27098.4
-27098.3
-27098.3
-27098.1
-27098.4
-27099
-27098.6
-27098.6
-27098.3
-27098.4
-27098.3
-27098.3
-27098.1
-27098.4
-27099
-12537.4
-12537.2
-12537.4
-12537.5
-12537.5
-12537.6
-12537.6
-12537.9
-12537.6
-12537.4
-12537.2
-12537.4
-12537.5
-12537.5
-12537.6
-12537.6
-12537.9
-12537.6
-12537.4
-12537.2
-12537.4
-12537.5
-12537.5
-12537.6
-12537.6
-12537.9
-12537.6
-12537.4
-12537.3
-12537.4
-12537.5
-12537.5
-12537.6
-12537.6
-12537.9
-12537.6
-16872.5
-16872.8
-16872.5
-16872.7
-16872.7
-16872.9
-16872.6
-16872.4
-16872.4
-16872.5
-16872.8
-16872.5
-16872.7
-16872.7
-16872.9
-16872.6
-16872.4
-16872.4
-16872.5
-16872.8
-16872.5
-16872.7
-16872.7
-16872.9
-16872.6
-16872.4
-16872.4
-16872.5
-16872.8
-16872.5
-16872.7
-16872.7
-16872.9
-16872.6
-16872.4
-16872.4
-31798.3
-31798.1
-31798
-31798
-31797.9
-31797.5
-31798.2
-31798.1
-31798.7
-31798.3
-31798.1
-31798
-31798
-31797.9
-31797.5
-31798.2
-31798.1
-31798.7
-31798.3
-31798.1
-31798
-31798
-31797.9
-31797.5
-31798.2
-31798.1
-31798.8
-31798.3
-31798.1
-31798
-31798
-31797.9
-31797.5
-31798.2
-31798.1
-31798.7
-7542.02
-7541.97
-7542.17
-7542.45
-7541.68
-7542.42
-7542.19
-7542.38
-7541.82
-7542.01
-7541.97
-7542.16
-7542.44
-7541.68
-7542.42
-7542.19
-7542.37
-7541.82
-7542.02
-7541.97
-7542.17
-7542.45
-7541.68
-7542.42
-7542.2
-7542.38
-7541.82
-7542.02
-7541.98
-7542.17
-7542.45
-7541.68
-7542.42
-7542.19
-7542.38
-7541.82
9695.29
9694.82
9694.97
9694.99
9694.7
9695.38
9694.98
9695.98
9695.31
9695.3
9694.82
9694.97
9694.98
9694.69
9695.37
9694.97
9695.98
9695.31
9695.29
9694.82
9694.97
9694.98
9694.69
9695.37
9694.97
9695.98
9695.31
9695.3
9694.82
9694.97
9694.98
9694.69
9695.37
9694.97
9695.97
9695.3
-30963
-30962.1
-30958.3
-30959.3
-30964.6
-30961.1
-30958
-30961.6
-30964
-30963.1
-30962.1
-30958.3
-30959.3
-30964.6
-30961.1
-30958
-30961.6
-30964.1
-30963.1
-30962.1
-30958.3
-30959.3
-30964.6
-30961.1
-30958.1
-30961.6
-30964.1
-30963.1
-30962.2
-30958.4
-30959.4
-30964.7
-30961.1
-30958.1
-30961.6
-30964
-7822.48
-7823.05
-7822.91
-7823.6
-7822.5
-7823.96
-7823.04
-7823.06
-7822.79
-7822.46
-7823.04
-7822.9
-7823.59
-7822.5
-7823.96
-7823.04
-7823.07
-7822.79
-7822.46
-7823.04
-7822.91
-7823.6
-7822.51
-7823.97
-7823.05
-7823.08
-7822.8
-7822.46
-7823.04
-7822.91
-7823.59
-7822.49
-7823.95
-7823.04
-7823.06
-7822.79
53583.8
53583.4
53583.4
53584.3
53583.8
53584.3
53584.9
53584.4
53584.2
53583.7
53583.4
53583.4
53584.3
53583.8
53584.3
53584.9
53584.4
53584.2
53583.7
53583.4
53583.4
53584.3
53583.8
53584.3
53584.9
53584.4
53584.2
53583.8
53583.4
53583.4
53584.3
53583.8
53584.3
53584.9
53584.4
53584.2
6495.2
6502.2
6468.35
6477.75
6509.5
6485.74
6465.72
6492.22
6489.03
6495.32
6502.4
6468.48
6477.8
6509.56
6485.8
6465.75
6492.28
6489.08
6495.33
6502.45
6468.49
6477.78
6509.56
6485.79
6465.73
6492.24
6489.03
6495.29
6502.4
6468.47
6477.77
6509.53
6485.78
6465.74
6492.22
6488.97
12686.3
12682.9
12685.5
12681.7
12692.5
12678.2
12689.3
12686.7
12688.7
12686.4
12682.9
12685.4
12681.7
12692.5
12678.2
12689.3
12686.7
12688.8
12686.4
12682.9
12685.4
12681.7
12692.5
12678.2
12689.3
12686.7
12688.8
12686.4
12683
12685.5
12681.7
12692.5
12678.2
12689.3
12686.7
12688.7
80418.5
80419.6
80413.7
80428.7
80405.5
80432.8
80410
80423.9
80417.9
80418.5
80419.6
80413.7
80428.7
80405.5
80432.8
80410
80423.9
80417.9
80418.5
80419.6
80413.7
80428.7
80405.5
80432.8
80410
80423.9
80417.9
80418.5
80419.6
80413.7
80428.7
80405.5
80432.8
80410
80423.9
80417.9
)
;

boundaryField
{
    fixed
    {
        type            zeroGradient;
    }
    inside
    {
        type            zeroGradient;
    }
    outside
    {
        type            zeroGradient;
    }
}


// ************************************************************************* //
