/*--------------------------------*- C++ -*----------------------------------*\
| =========                 |                                                 |
| \\      /  F ield         | OpenFOAM: The Open Source CFD Toolbox           |
|  \\    /   O peration     | Version:  2312                                  |
|   \\  /    A nd           | Website:  www.openfoam.com                      |
|    \\/     M anipulation  |                                                 |
\*---------------------------------------------------------------------------*/
FoamFile
{
    version     2.0;
    format      ascii;
    arch        "LSB;label=32;scalar=64";
    class       volScalarField;
    location    "1";
    object      sigmaHyd;
}
// * * * * * * * * * * * * * * * * * * * * * * * * * * * * * * * * * * * * * //

dimensions      [1 -1 -2 0 0 0 0];

internalField   nonuniform List<scalar> 
1620
(
-21667.5
10088.7
28167.6
37565.1
39816.8
37475.5
32667.3
26894.5
21217
16281.8
12114.3
7755.74
964.478
-11649.5
-33139.7
-61137.4
-79485.7
-61384.1
-21667.5
10088.7
28167.6
37565.1
39816.8
37475.5
32667.3
26894.5
21217
16281.8
12114.3
7755.74
964.478
-11649.5
-33139.7
-61137.4
-79485.7
-61384.1
-47041.7
-27658
-9443.47
3960.16
11758.7
15479.3
16594.9
15897.1
13712.7
10051.5
4665.24
-2989.15
-13912
-29580.3
-50559.5
-72412.5
-82468.1
-68360.9
-47041.7
-27658
-9443.47
3960.16
11758.7
15479.3
16594.9
15897.1
13712.7
10051.5
4665.24
-2989.15
-13912
-29580.3
-50559.5
-72412.5
-82468.1
-68360.9
-60173.9
-56301.9
-47068.9
-33771.6
-20326.3
-8475.07
928.66
7092.92
9305.95
6962.16
-410.428
-13052.6
-30692.3
-51675.3
-71373.5
-82306.1
-79922.3
-69146.2
-60173.9
-56301.9
-47068.9
-33771.6
-20326.3
-8475.07
928.66
7092.92
9305.95
6962.16
-410.428
-13052.6
-30692.3
-51675.3
-71373.5
-82306.1
-79922.3
-69146.2
10828.6
17065.2
20192.8
21406.5
20078.7
16800.5
12560.4
8496.55
5548.71
4272.07
4726.12
6483.87
8738.77
10181.5
8688.45
2539.38
-4023.34
-1304.21
10828.6
17065.2
20192.8
21406.5
20078.7
16800.5
12560.4
8496.55
5548.71
4272.07
4726.12
6483.87
8738.77
10181.5
8688.45
2539.38
-4023.34
-1304.21
-35636.4
-29039.5
-18359.4
-12040
-7654.68
-5000.44
-3670.38
-3298.77
-3705.82
-4783.77
-6340.87
-7912.18
-8882.63
-9410.3
-11266.2
-16394.7
-25262.6
-32935.8
-35636.4
-29039.5
-18359.4
-12040
-7654.68
-5000.44
-3670.38
-3298.77
-3705.82
-4783.77
-6340.87
-7912.18
-8882.63
-9410.3
-11266.2
-16394.7
-25262.6
-32935.8
-64480.3
-63189.2
-59686.2
-52473
-41114
-29122.6
-19104.3
-12319.7
-9383.05
-10400.1
-14774.4
-21053.1
-27317.8
-32513
-37460.2
-43698.9
-54049.2
-62295
-64480.3
-63189.2
-59686.2
-52473
-41114
-29122.6
-19104.3
-12319.7
-9383.05
-10400.1
-14774.4
-21053.1
-27317.8
-32513
-37460.2
-43698.9
-54049.2
-62295
12946.1
18635.5
21956.2
23214.3
23099.9
21260.5
18480.6
15779.6
13961.7
13431.6
14085.2
15385.6
16520.4
16140.2
11559.8
-680.883
-18641.1
-10526
12946.1
18635.5
21956.2
23214.3
23099.9
21260.5
18480.6
15779.6
13961.7
13431.6
14085.2
15385.6
16520.4
16140.2
11559.8
-680.883
-18641.1
-10526
-58180.8
-36221.4
-19294.2
-10688.7
-5627.98
-3244.08
-2304
-2094.1
-2470.46
-3462.01
-5019.63
-6868.27
-8725.24
-11253
-16736.4
-28217.8
-46651.1
-63029.6
-58180.8
-36221.4
-19294.2
-10688.7
-5627.98
-3244.08
-2304
-2094.1
-2470.46
-3462.01
-5019.63
-6868.27
-8725.24
-11253
-16736.4
-28217.8
-46651.1
-63029.6
-95349.1
-83322
-75380.8
-64390.8
-50832.9
-38260.3
-28631
-22587.2
-20507.8
-22432.9
-27639.5
-34537.2
-41397.5
-47835.7
-55079
-63731.6
-78273.9
-96012.5
-95349.1
-83322
-75380.8
-64390.8
-50832.9
-38260.3
-28631
-22587.2
-20507.8
-22432.9
-27639.5
-34537.2
-41397.5
-47835.7
-55079
-63731.6
-78273.9
-96012.5
2357.26
12083.3
16944
20290.1
21143.9
20014.4
18049
16173.5
15001.9
14790.7
15387.5
16332.8
17046.4
16561.9
12387.1
-106.124
-20006.2
-12768.3
2357.26
12083.3
16944
20290.1
21143.9
20014.4
18049
16173.5
15001.9
14790.7
15387.5
16332.8
17046.4
16561.9
12387.1
-106.124
-20006.2
-12768.3
-51936.1
-31771.3
-16230.7
-7541.85
-2893.67
-865.207
-97.0186
119.165
-40.1879
-595.182
-1578.96
-3035.8
-5202.33
-8805.34
-14816.4
-24144.8
-37368.3
-50727.6
-51936.1
-31771.3
-16230.7
-7541.85
-2893.67
-865.207
-97.0186
119.165
-40.1879
-595.182
-1578.96
-3035.8
-5202.33
-8805.34
-14816.4
-24144.8
-37368.3
-50727.6
-75648
-72025.9
-66535.7
-58615.7
-47483.5
-36656.8
-28265.7
-23081.8
-21495
-23546.9
-28608.2
-35463.7
-43075.8
-50945.5
-57855
-61801.8
-63057.8
-70041.1
-75648
-72025.9
-66535.7
-58615.7
-47483.5
-36656.8
-28265.7
-23081.8
-21495
-23546.9
-28608.2
-35463.7
-43075.8
-50945.5
-57855
-61801.8
-63057.8
-70041.1
-14541.3
-4425.84
7014.2
13781.4
16013
15653.2
14371.5
13092.5
12327.1
12286.7
12879.2
13778.7
14444.1
13611.7
8691.59
-2758.23
-13781.2
-13842.5
-14541.3
-4425.84
7014.2
13781.4
16013
15653.2
14371.5
13092.5
12327.1
12286.7
12879.2
13778.7
14444.1
13611.7
8691.59
-2758.23
-13781.2
-13842.5
-31799.1
-28963.4
-16155.1
-6412.97
-1485.39
704.467
1754.76
2268.96
2448.06
2309.17
1747.67
461.551
-2249.15
-7420.73
-15009.7
-23035
-26800.2
-26567.1
-31799.1
-28963.4
-16155.1
-6412.97
-1485.39
704.467
1754.76
2268.96
2448.06
2309.17
1747.67
461.551
-2249.15
-7420.73
-15009.7
-23035
-26800.2
-26567.1
-40739.2
-45573.1
-45788.3
-41396.4
-33910.6
-25951
-19429.2
-15395.3
-14410.7
-16620.6
-21687.9
-29023.5
-38341
-48716
-56123.7
-56346.1
-49289.5
-41506.9
-40739.2
-45573.1
-45788.3
-41396.4
-33910.6
-25951
-19429.2
-15395.3
-14410.7
-16620.6
-21687.9
-29023.5
-38341
-48716
-56123.7
-56346.1
-49289.5
-41506.9
-17308.5
-13206.9
-3376.18
4965.98
8873.72
9719.11
9332.31
8722.83
8396.57
8587.19
9301.43
10305.4
10913.2
9447.68
3762.83
-5971.32
-14329.4
-16753.3
-17308.5
-13206.9
-3376.18
4965.98
8873.72
9719.11
9332.31
8722.83
8396.57
8587.19
9301.43
10305.4
10913.2
9447.68
3762.83
-5971.32
-14329.4
-16753.3
-25117.8
-23677.2
-15608.1
-7049.62
-1703.93
994.434
2494.98
3396.45
3924.84
4143.51
3946.52
2929.29
97.9379
-5717.49
-13464.6
-19407.6
-21129.8
-22665.6
-25117.8
-23677.2
-15608.1
-7049.62
-1703.93
994.434
2494.98
3396.45
3924.84
4143.51
3946.52
2929.29
97.938
-5717.49
-13464.6
-19407.6
-21129.8
-22665.6
-23992.2
-25359.7
-25768.6
-23340
-18523
-13038.5
-8372.22
-5609.17
-5434.26
-8072.26
-13367.8
-21095.4
-31312.6
-42542.8
-49128.2
-46057.1
-35563.4
-26725
-23992.2
-25359.7
-25768.6
-23340
-18523
-13038.5
-8372.22
-5609.17
-5434.26
-8072.26
-13367.8
-21095.4
-31312.6
-42542.8
-49128.2
-46057.1
-35563.4
-26725
-21365.6
-18580.1
-11342.1
-3711.19
1158.55
3231.51
3859.47
3993.21
4127.28
4496.2
5131.21
5779.46
5629.59
3044.89
-3081.78
-11108.1
-17379.2
-20296.2
-21365.6
-18580.1
-11342.1
-3711.19
1158.55
3231.51
3859.47
3993.21
4127.28
4496.2
5131.21
5779.47
5629.59
3044.89
-3081.78
-11108.1
-17379.2
-20296.2
-21002.1
-19868.9
-14567.7
-7864.26
-2597.18
486.85
2304.59
3517.36
4372.55
4928.59
5057.08
4271.63
1486.14
-4122.62
-10921.2
-15718.2
-17627.3
-19279.9
-21002.1
-19868.9
-14567.7
-7864.26
-2597.18
486.85
2304.59
3517.36
4372.55
4928.59
5057.08
4271.63
1486.14
-4122.62
-10921.2
-15718.2
-17627.3
-19279.9
-8808.61
-8973.93
-9799.26
-9014.5
-6169.8
-2581.22
447.443
1979.04
1355.07
-1641.72
-6914.5
-14396
-24112
-33975.1
-38297.9
-33292.5
-22277.7
-12829.5
-8808.61
-8973.93
-9799.26
-9014.5
-6169.8
-2581.22
447.444
1979.04
1355.07
-1641.72
-6914.5
-14396
-24112
-33975.1
-38297.9
-33292.5
-22277.7
-12829.5
-26051
-23541.8
-17922.4
-11473.3
-6402.89
-3474.32
-2028.36
-1327.21
-951.741
-705.976
-573.424
-822.515
-2237.37
-6000.07
-12101.7
-18548.3
-23166.6
-25538.7
-26051
-23541.8
-17922.4
-11473.3
-6402.89
-3474.32
-2028.36
-1327.21
-951.741
-705.976
-573.424
-822.514
-2237.37
-6000.07
-12101.7
-18548.3
-23166.6
-25538.7
-18329.6
-17008
-13086.5
-8008.56
-3360.33
-186.306
1800.42
3211.55
4316.5
5138.42
5491.95
4827.17
2165.77
-2777.48
-8334.92
-12526.8
-15116
-17194.6
-18329.6
-17008
-13086.5
-8008.56
-3360.33
-186.306
1800.42
3211.55
4316.5
5138.42
5491.95
4827.17
2165.77
-2777.48
-8334.92
-12526.8
-15116
-17194.6
4067.28
3986.43
2552.31
1940.12
3071.3
5104.53
6775.55
7259.82
6043.62
2977.36
-1868.09
-8485.46
-16599.9
-23713
-25243.2
-19130.3
-8670.92
146.234
4067.28
3986.43
2552.31
1940.12
3071.3
5104.53
6775.55
7259.82
6043.62
2977.36
-1868.09
-8485.46
-16599.9
-23713
-25243.2
-19130.3
-8670.92
146.235
-31615.7
-29007.2
-24322.7
-18888.1
-14074.5
-10752.8
-8857.31
-7936.83
-7660.61
-7856.56
-8501.88
-9841.12
-12502.4
-17009.1
-22578.6
-27493.2
-30614.1
-31958.4
-31615.7
-29007.2
-24322.7
-18888.1
-14074.5
-10752.8
-8857.31
-7936.83
-7660.61
-7856.56
-8501.88
-9841.12
-12502.4
-17009.1
-22578.6
-27493.2
-30614.1
-31958.4
-16499.1
-15007.4
-11728.7
-7712.09
-3812.97
-783.234
1299.49
2862.51
4152.56
5141.73
5574.11
4876.01
2327.05
-1902.76
-6474.93
-10356.3
-13435
-15740.4
-16499.1
-15007.4
-11728.7
-7712.09
-3812.97
-783.234
1299.49
2862.51
4152.56
5141.73
5574.11
4876.01
2327.05
-1902.76
-6474.93
-10356.3
-13435
-15740.4
15784
15007
12724.5
10976.8
10699.5
11423.3
12026.9
11744
10211
7352.53
3218.72
-2140.72
-8058.37
-12092.3
-11151.1
-4484.4
5007.11
12673.1
15784
15007
12724.5
10976.8
10699.5
11423.3
12026.9
11744
10211
7352.53
3218.72
-2140.72
-8058.37
-12092.3
-11151.1
-4484.4
5007.11
12673.1
-37576.2
-34951
-31025.4
-26554.3
-22359.6
-19157.8
-17230.2
-16431.6
-16516.5
-17294.7
-18705.6
-20933.4
-24329.5
-28795.1
-33302.9
-36666.6
-38393.4
-38663.7
-37576.2
-34951
-31025.4
-26554.3
-22359.6
-19157.8
-17230.2
-16431.6
-16516.5
-17294.7
-18705.6
-20933.4
-24329.5
-28795.1
-33302.9
-36666.6
-38393.4
-38663.7
-15598.6
-14004.3
-11073
-7690.74
-4385.92
-1568.98
599.576
2324.29
3752.36
4783.02
5103.48
4212.57
1742.4
-1917.36
-5886.12
-9626.77
-12891.7
-15153.1
-15598.6
-14004.3
-11073
-7690.74
-4385.92
-1568.98
599.575
2324.29
3752.36
4783.02
5103.48
4212.57
1742.4
-1917.36
-5886.12
-9626.77
-12891.7
-15153.1
26942.2
25352.8
22301.9
19678.1
18296.8
17898.4
17632.7
16833
15228.1
12780.5
9534.62
5680.11
2144.8
882.616
3665.8
10440.7
18717.7
24922
26942.2
25352.8
22301.9
19678.1
18296.8
17898.4
17632.7
16833
15228.2
12780.5
9534.62
5680.11
2144.8
882.616
3665.8
10440.7
18717.7
24922
-43191.5
-40876.9
-37869.8
-34555.5
-31389.4
-28864.1
-27351.7
-26933
-27453.6
-28694
-30548.7
-33100.9
-36383.9
-39953
-42955
-44741
-45215.9
-44642.9
-43191.5
-40876.9
-37869.8
-34555.5
-31389.4
-28864.1
-27351.7
-26933
-27453.6
-28694
-30548.7
-33100.9
-36383.9
-39953
-42955
-44741
-45215.9
-44642.9
-16095.1
-14490.3
-11845.4
-8880.87
-5970.15
-3322.06
-1063.59
825.024
2325.84
3249.99
3288.93
2124.13
-310.524
-3629.23
-7290.09
-10895.6
-14014.8
-15955.4
-16095.1
-14490.3
-11845.4
-8880.87
-5970.15
-3322.06
-1063.59
825.022
2325.84
3249.99
3288.93
2124.13
-310.523
-3629.23
-7290.09
-10895.6
-14014.8
-15955.4
37878.9
35751.3
32319.2
29157.8
26958.6
25624.6
24642.5
23536.1
22078.7
20222.7
18035.1
15850.3
14570.5
15464.9
19336.5
25671.7
32406.3
36947.9
37878.9
35751.3
32319.2
29157.8
26958.6
25624.6
24642.5
23536.1
22078.7
20222.7
18035.1
15850.3
14570.5
15464.9
19336.5
25671.7
32406.3
36947.9
-47551.6
-45944.6
-44135.9
-42249.9
-40464.5
-39034.1
-38249
-38276.5
-39050.1
-40369
-42113
-44257.6
-46620.1
-48724.9
-50058
-50404.3
-49914.6
-48896.1
-47551.6
-45944.6
-44135.9
-42249.9
-40464.5
-39034.1
-38249
-38276.5
-39050.1
-40369
-42113
-44257.6
-46620.1
-48724.9
-50058
-50404.3
-49914.6
-48896.1
-18607.1
-17117.1
-14800.7
-12171.8
-9509.68
-6955.2
-4619.77
-2623.64
-1160.25
-491.909
-850.852
-2338.33
-4834.15
-7998.16
-11417.3
-14683.5
-17308.9
-18728.8
-18607.1
-17117.1
-14800.7
-12171.8
-9509.68
-6955.2
-4619.77
-2623.65
-1160.25
-491.903
-850.845
-2338.33
-4834.15
-7998.16
-11417.3
-14683.5
-17308.9
-18728.8
48698.5
46508.5
43258.7
40055
37457.5
35548.6
34166.4
33070.6
32052.6
31005.3
30004
29405
29844.9
31958.3
35919.2
41046.5
45822.5
48626.1
48698.5
46508.5
43258.7
40055
37457.5
35548.6
34166.4
33070.6
32052.6
31005.3
30004
29405
29844.9
31958.3
35919.2
41046.5
45822.5
48626.1
-50108
-49481.8
-49030.2
-48675.1
-48347.2
-48063.8
-47972
-48237.7
-48889.6
-49838.8
-50984
-52208.8
-53265.5
-53824.6
-53706.8
-52999.3
-51982.1
-50955.9
-50108
-49481.8
-49030.2
-48675.1
-48347.2
-48063.8
-47972
-48237.7
-48889.6
-49838.8
-50984
-52208.8
-53265.5
-53824.6
-53706.8
-52999.3
-51982.1
-50955.9
-23210.8
-21935
-20056.9
-17864.9
-15541.8
-13213.4
-11030.4
-9235.39
-8138.25
-8001.33
-8911.2
-10748.2
-13246.5
-16055.3
-18820.9
-21201.5
-22877.8
-23577.4
-23210.8
-21935
-20056.9
-17864.9
-15541.8
-13213.4
-11030.4
-9235.39
-8138.24
-8001.33
-8911.2
-10748.2
-13246.5
-16055.3
-18820.9
-21201.5
-22877.8
-23577.4
59243.9
57557.8
55108.1
52502.7
50167.9
48363.3
47213.4
46633.4
46361.2
46182
46125.8
46465.5
47547.8
49582.6
52456
55630.5
58256.6
59563.2
59243.9
57557.8
55108.1
52502.7
50167.9
48363.3
47213.4
46633.4
46361.2
46182
46125.8
46465.5
47547.8
49582.5
52456
55630.4
58256.6
59563.2
-49904.1
-50139.3
-50595.2
-51032.8
-51231.3
-51141.3
-50926.3
-50808.3
-50941.6
-51362.8
-51937.2
-52495.1
-52845.8
-52784.6
-52254.7
-51426.7
-50602.8
-50050.3
-49904.1
-50139.3
-50595.2
-51032.8
-51231.3
-51141.3
-50926.3
-50808.3
-50941.6
-51362.8
-51937.2
-52495.1
-52845.8
-52784.6
-52254.7
-51426.7
-50602.8
-50050.3
-29082.1
-28148.3
-26875.1
-25332.2
-23575.1
-21730.7
-20047.6
-18861.7
-18456.1
-18956.9
-20260.2
-22099.3
-24162.3
-26142.8
-27796.8
-28958.9
-29557.2
-29581.8
-29082.1
-28148.3
-26875.1
-25332.2
-23575.1
-21730.7
-20047.6
-18861.7
-18456.1
-18956.9
-20260.2
-22099.4
-24162.3
-26142.8
-27796.8
-28958.9
-29557.2
-29581.8
71299.2
70279.1
68839
67255
65849.6
64938.7
64678.5
64918.1
65313.6
65616.3
65842.3
66196.5
66869.1
67908.6
69190.5
70454.5
71375.5
71691.1
71299.3
70279.1
68839.1
67255
65849.6
64938.7
64678.5
64918.1
65313.6
65616.3
65842.3
66196.5
66869
67908.6
69190.5
70454.5
71375.6
71691.1
-49274.2
-49244.7
-49573
-50280.6
-51443
-53082.2
-54990.1
-56776.9
-58147.7
-58927.4
-58872.1
-57915.2
-56343.4
-54595.4
-52970.4
-51575.8
-50464.3
-49682.8
-49274.2
-49244.7
-49573
-50280.6
-51443
-53082.2
-54990.1
-56776.9
-58147.7
-58927.4
-58872.1
-57915.2
-56343.4
-54595.4
-52970.4
-51575.8
-50464.3
-49682.8
-27973.2
-27303.2
-26692.2
-26198.9
-25956.1
-26117.1
-26741.1
-27709.4
-28842.7
-29951.8
-30821.6
-31300.8
-31374.6
-31127.3
-30665.5
-30066.8
-29389.6
-28678.2
-27973.2
-27303.2
-26692.2
-26198.9
-25956.1
-26117.1
-26741.1
-27709.4
-28842.7
-29951.8
-30821.6
-31300.8
-31374.6
-31127.3
-30665.5
-30066.8
-29389.6
-28678.2
72154.3
72067.5
71893.3
71744
71727.9
71829.9
71968.5
72004.7
71901.1
71640.7
71265.2
70903.3
70702.8
70771.2
71071
71479.9
71849.5
72086.3
72154.3
72067.5
71893.3
71744
71727.9
71829.9
71968.5
72004.7
71901.1
71640.7
71265.2
70903.3
70702.8
70771.2
71071
71479.9
71849.5
72086.3
)
;

boundaryField
{
    fixed
    {
        type            zeroGradient;
    }
    inside
    {
        type            zeroGradient;
    }
    outside
    {
        type            zeroGradient;
    }
}


// ************************************************************************* //
