/*--------------------------------*- C++ -*----------------------------------*\
| =========                 |                                                 |
| \\      /  F ield         | OpenFOAM: The Open Source CFD Toolbox           |
|  \\    /   O peration     | Version:  2312                                  |
|   \\  /    A nd           | Website:  www.openfoam.com                      |
|    \\/     M anipulation  |                                                 |
\*---------------------------------------------------------------------------*/
FoamFile
{
    version     2.0;
    format      ascii;
    arch        "LSB;label=32;scalar=64";
    class       volVectorField;
    location    "1";
    object      traction;
}
// * * * * * * * * * * * * * * * * * * * * * * * * * * * * * * * * * * * * * //

dimensions      [1 -1 -2 0 0 0 0];

internalField   uniform (0 0 0);

boundaryField
{
    fixed
    {
        type            calculated;
        value           nonuniform List<vector> 
108
(
(-502.898 28500.9 55679.8)
(-5444.34 27980.5 55679.8)
(-10220.4 26610 55679.7)
(-14686 24431 55679.6)
(-18705.2 21509.7 55679.7)
(-22156.1 17934.8 55679.8)
(-24933.9 13814.9 55679.6)
(-26954 9275.31 55679.8)
(-28155.2 4453.91 55679.8)
(-28500.9 -502.898 55679.8)
(-27980.5 -5444.34 55679.8)
(-26610 -10220.4 55679.7)
(-24431 -14686 55679.6)
(-21509.7 -18705.2 55679.7)
(-17934.8 -22156.1 55679.8)
(-13814.9 -24933.9 55679.6)
(-9275.31 -26954 55679.8)
(-4453.91 -28155.2 55679.8)
(502.898 -28500.9 55679.8)
(5444.34 -27980.5 55679.8)
(10220.4 -26610 55679.7)
(14686 -24431 55679.6)
(18705.2 -21509.7 55679.7)
(22156.1 -17934.8 55679.8)
(24933.9 -13814.9 55679.6)
(26954 -9275.31 55679.8)
(28155.2 -4453.91 55679.8)
(28500.9 502.898 55679.8)
(27980.5 5444.34 55679.8)
(26610 10220.4 55679.7)
(24431 14686 55679.6)
(21509.7 18705.2 55679.7)
(17934.8 22156.1 55679.8)
(13814.9 24933.9 55679.6)
(9275.31 26954 55679.8)
(4453.91 28155.2 55679.8)
(954.322 3490.87 15475.8)
(333.646 3603.55 15475.8)
(-297.168 3606.7 15475.7)
(-919.042 3500.43 15475.9)
(-1513.03 3287.77 15475.8)
(-2060.85 2975.02 15475.7)
(-2545.99 2571.88 15475.8)
(-2953.94 2090.71 15475.8)
(-3272.12 1546 15475.7)
(-3490.87 954.322 15475.8)
(-3603.55 333.646 15475.8)
(-3606.7 -297.168 15475.7)
(-3500.43 -919.042 15475.9)
(-3287.77 -1513.03 15475.8)
(-2975.02 -2060.85 15475.7)
(-2571.88 -2545.99 15475.8)
(-2090.71 -2953.94 15475.8)
(-1546 -3272.12 15475.7)
(-954.322 -3490.87 15475.8)
(-333.646 -3603.55 15475.8)
(297.168 -3606.7 15475.7)
(919.042 -3500.43 15475.9)
(1513.03 -3287.77 15475.8)
(2060.85 -2975.02 15475.7)
(2545.99 -2571.88 15475.8)
(2953.94 -2090.71 15475.8)
(3272.12 -1546 15475.7)
(3490.87 -954.322 15475.8)
(3603.55 -333.646 15475.8)
(3606.7 297.168 15475.7)
(3500.43 919.042 15475.9)
(3287.77 1513.03 15475.8)
(2975.02 2060.85 15475.7)
(2571.88 2545.99 15475.8)
(2090.71 2953.94 15475.8)
(1546 3272.12 15475.7)
(5233.81 -36033.3 21763.7)
(11411.4 -34577.1 21763.7)
(17242.3 -32070.2 21763.5)
(22549.3 -28588.9 21763.5)
(27171.1 -24238.9 21763.5)
(30967.3 -19152.5 21763.6)
(33822.7 -13484.1 21763.7)
(35650.3 -7405.9 21763.5)
(36394.7 -1102.8 21763.6)
(36033.3 5233.81 21763.7)
(34577.1 11411.4 21763.7)
(32070.2 17242.3 21763.5)
(28588.9 22549.3 21763.5)
(24238.9 27171.1 21763.5)
(19152.5 30967.3 21763.6)
(13484.1 33822.7 21763.7)
(7405.9 35650.3 21763.6)
(1102.8 36394.7 21763.6)
(-5233.81 36033.3 21763.7)
(-11411.4 34577.1 21763.7)
(-17242.3 32070.2 21763.5)
(-22549.3 28588.9 21763.5)
(-27171.1 24238.9 21763.5)
(-30967.3 19152.5 21763.6)
(-33822.7 13484.1 21763.7)
(-35650.3 7405.9 21763.5)
(-36394.7 1102.8 21763.6)
(-36033.3 -5233.81 21763.7)
(-34577.1 -11411.4 21763.7)
(-32070.2 -17242.3 21763.5)
(-28588.9 -22549.3 21763.5)
(-24238.9 -27171.1 21763.5)
(-19152.5 -30967.3 21763.6)
(-13484.1 -33822.7 21763.7)
(-7405.9 -35650.3 21763.5)
(-1102.8 -36394.7 21763.6)
)
;
    }
    inside
    {
        type            calculated;
        value           nonuniform List<vector> 
540
(
(6020 188.75 2531.92)
(5895.78 1231.19 2531.91)
(5592.61 2236.39 2532.01)
(5119.29 3173.58 2531.9)
(4490.35 4014.17 2531.99)
(3725.06 4732.92 2531.99)
(2846.59 5307.84 2531.9)
(1881.67 5721.67 2532)
(859.455 5961.37 2531.84)
(-188.75 6019.99 2531.92)
(-1231.19 5895.78 2531.91)
(-2236.38 5592.6 2532.01)
(-3173.58 5119.28 2531.9)
(-4014.16 4490.35 2531.99)
(-4732.92 3725.06 2531.99)
(-5307.84 2846.59 2531.91)
(-5721.67 1881.67 2532)
(-5961.36 859.456 2531.84)
(-6019.99 -188.749 2531.92)
(-5895.78 -1231.19 2531.91)
(-5592.6 -2236.38 2532.01)
(-5119.28 -3173.58 2531.9)
(-4490.35 -4014.16 2531.99)
(-3725.06 -4732.92 2531.99)
(-2846.59 -5307.84 2531.91)
(-1881.67 -5721.67 2532)
(-859.456 -5961.37 2531.84)
(188.749 -6019.99 2531.92)
(1231.19 -5895.78 2531.91)
(2236.39 -5592.61 2532.01)
(3173.58 -5119.29 2531.9)
(4014.17 -4490.35 2531.99)
(4732.92 -3725.06 2531.99)
(5307.84 -2846.59 2531.91)
(5721.67 -1881.67 2532)
(5961.37 -859.456 2531.84)
(30981.5 6374.63 4737.12)
(29404.1 11657.5 4736.93)
(26932.9 16586.4 4736.97)
(23643.6 21011.4 4736.95)
(19635.7 24797.7 4736.99)
(15031.2 27830.5 4737.01)
(9970.16 30018 4736.98)
(4606.14 31293.2 4737.05)
(-897.656 31617.7 4736.9)
(-6374.63 30981.5 4737.12)
(-11657.5 29404.1 4736.93)
(-16586.4 26932.9 4736.97)
(-21011.4 23643.6 4736.95)
(-24797.7 19635.7 4736.99)
(-27830.5 15031.2 4737.01)
(-30018 9970.16 4736.98)
(-31293.2 4606.15 4737.05)
(-31617.7 -897.656 4736.9)
(-30981.5 -6374.63 4737.12)
(-29404.1 -11657.5 4736.93)
(-26932.9 -16586.4 4736.97)
(-23643.6 -21011.4 4736.95)
(-19635.7 -24797.7 4736.99)
(-15031.2 -27830.5 4737.01)
(-9970.16 -30018 4736.98)
(-4606.15 -31293.2 4737.05)
(897.656 -31617.7 4736.9)
(6374.63 -30981.5 4737.12)
(11657.5 -29404.1 4736.93)
(16586.4 -26932.9 4736.97)
(21011.4 -23643.6 4736.95)
(24797.7 -19635.7 4736.99)
(27830.5 -15031.2 4737.01)
(30018 -9970.16 4736.98)
(31293.2 -4606.15 4737.05)
(31617.7 897.656 4736.9)
(38604.4 15332.6 4148.65)
(35355.6 21803.4 4148.52)
(31032.2 27611.3 4148.61)
(25766.2 32580.5 4148.58)
(19717.2 36559.9 4148.61)
(13069 39428.3 4148.64)
(6023.79 41098.8 4148.57)
(-1204.58 41520.2 4148.62)
(-8396 40680.3 4148.57)
(-15332.6 38604.4 4148.65)
(-21803.4 35355.6 4148.52)
(-27611.3 31032.2 4148.61)
(-32580.5 25766.2 4148.58)
(-36559.9 19717.2 4148.61)
(-39428.3 13069 4148.64)
(-41098.8 6023.79 4148.57)
(-41520.2 -1204.58 4148.62)
(-40680.3 -8396 4148.57)
(-38604.4 -15332.6 4148.65)
(-35355.6 -21803.4 4148.52)
(-31032.2 -27611.3 4148.61)
(-25766.2 -32580.5 4148.58)
(-19717.2 -36559.9 4148.61)
(-13069 -39428.3 4148.64)
(-6023.79 -41098.8 4148.57)
(1204.58 -41520.2 4148.62)
(8396 -40680.3 4148.57)
(15332.6 -38604.4 4148.65)
(21803.4 -35355.6 4148.52)
(27611.3 -31032.2 4148.61)
(32580.5 -25766.2 4148.58)
(36559.9 -19717.2 4148.61)
(39428.3 -13069 4148.64)
(41098.8 -6023.79 4148.57)
(41520.2 1204.58 4148.62)
(40680.3 8396 4148.57)
(45006.2 26781.9 4096.11)
(39671.9 34190.4 4096.35)
(33132 40559.8 4096.24)
(25585.5 45697.1 4096.23)
(17261.7 49445.7 4096.21)
(8413.2 51691.8 4096.2)
(-690.808 52367.7 4096.19)
(-9773.72 51452 4096.21)
(-18560 48973 4096.32)
(-26781.9 45006.2 4096.11)
(-34190.4 39671.9 4096.35)
(-40559.8 33132 4096.23)
(-45697.1 25585.5 4096.23)
(-49445.7 17261.7 4096.21)
(-51691.8 8413.2 4096.2)
(-52367.7 -690.808 4096.19)
(-51452 -9773.72 4096.21)
(-48973 -18560 4096.32)
(-45006.2 -26781.9 4096.11)
(-39671.9 -34190.4 4096.35)
(-33132 -40559.8 4096.23)
(-25585.5 -45697.1 4096.23)
(-17261.7 -49445.7 4096.21)
(-8413.2 -51691.8 4096.2)
(690.808 -52367.7 4096.19)
(9773.72 -51452 4096.21)
(18560 -48973 4096.32)
(26781.9 -45006.2 4096.11)
(34190.4 -39671.9 4096.35)
(40559.8 -33132 4096.23)
(45697.1 -25585.5 4096.23)
(49445.7 -17261.7 4096.21)
(51691.8 -8413.2 4096.2)
(52367.7 690.809 4096.19)
(51452 9773.73 4096.21)
(48973 18560 4096.32)
(48634.6 39009.2 4906.99)
(41121.5 46861.9 4907.21)
(32359.5 53290.6 4907.02)
(22614 58100.2 4907.08)
(12181.4 61144.3 4907.07)
(1378.79 62330.8 4907.04)
(-9465.81 61623.2 4907.12)
(-20022.7 59043.3 4906.97)
(-29971.4 54669.3 4907.23)
(-39009.2 48634.6 4906.99)
(-46861.9 41121.5 4907.21)
(-53290.6 32359.5 4907.02)
(-58100.2 22614 4907.08)
(-61144.3 12181.4 4907.07)
(-62330.8 1378.79 4907.04)
(-61623.2 -9465.81 4907.12)
(-59043.3 -20022.7 4906.97)
(-54669.3 -29971.4 4907.23)
(-48634.6 -39009.2 4906.99)
(-41121.5 -46861.9 4907.2)
(-32359.5 -53290.6 4907.02)
(-22614 -58100.2 4907.08)
(-12181.4 -61144.3 4907.07)
(-1378.79 -62330.8 4907.04)
(9465.81 -61623.2 4907.12)
(20022.7 -59043.3 4906.97)
(29971.4 -54669.3 4907.23)
(39009.2 -48634.6 4906.99)
(46861.9 -41121.5 4907.21)
(53290.6 -32359.5 4907.02)
(58100.2 -22614 4907.08)
(61144.3 -12181.4 4907.07)
(62330.8 -1378.79 4907.04)
(61623.2 9465.81 4907.12)
(59043.3 20022.7 4906.97)
(54669.3 29971.4 4907.23)
(49933.9 50908.2 6390.48)
(40335 58805.7 6390.62)
(29510.9 64916.7 6390.67)
(17790 69054.7 6390.55)
(5528.45 71095 6390.53)
(-6901.11 70975.1 6390.55)
(-19120.8 68698.1 6390.41)
(-30759.7 64334.3 6390.46)
(-41464.1 58015.4 6390.63)
(-50908.2 49933.9 6390.48)
(-58805.7 40335 6390.62)
(-64916.7 29510.9 6390.67)
(-69054.7 17790 6390.55)
(-71095 5528.45 6390.53)
(-70975.1 -6901.11 6390.55)
(-68698.1 -19120.8 6390.41)
(-64334.3 -30759.7 6390.46)
(-58015.4 -41464.1 6390.62)
(-49933.9 -50908.2 6390.47)
(-40335 -58805.7 6390.62)
(-29510.9 -64916.7 6390.67)
(-17790 -69054.7 6390.55)
(-5528.45 -71095 6390.53)
(6901.11 -70975.1 6390.55)
(19120.8 -68698.1 6390.41)
(30759.7 -64334.3 6390.46)
(41464.1 -58015.4 6390.62)
(50908.2 -49933.9 6390.48)
(58805.7 -40335 6390.62)
(64916.7 -29510.9 6390.67)
(69054.7 -17790 6390.55)
(71095 -5528.45 6390.53)
(70975.1 6901.11 6390.55)
(68698.1 19120.8 6390.41)
(64334.3 30759.7 6390.46)
(58015.4 41464.1 6390.63)
(49064.3 61214 8260.24)
(37689 68803.7 8260.22)
(25168.9 74303.2 8260.2)
(11883.7 77544.9 8260.25)
(-1762.24 78430.3 8260.2)
(-15354.7 76932.8 8260.09)
(-28480.8 73097.8 8260.22)
(-40741.3 67041.9 8260.12)
(-51763.7 58948.3 8260.22)
(-61214 49064.3 8260.24)
(-68803.7 37689 8260.22)
(-74303.2 25168.9 8260.2)
(-77544.9 11883.7 8260.25)
(-78430.3 -1762.24 8260.2)
(-76932.8 -15354.7 8260.09)
(-73097.8 -28480.8 8260.21)
(-67041.9 -40741.3 8260.12)
(-58948.3 -51763.7 8260.22)
(-49064.3 -61214 8260.24)
(-37689 -68803.7 8260.22)
(-25168.9 -74303.2 8260.2)
(-11883.7 -77544.9 8260.25)
(1762.24 -78430.3 8260.2)
(15354.7 -76932.8 8260.09)
(28480.8 -73097.8 8260.21)
(40741.3 -67041.9 8260.12)
(51763.7 -58948.3 8260.22)
(61214 -49064.3 8260.24)
(68803.7 -37689 8260.22)
(74303.2 -25168.9 8260.2)
(77544.9 -11883.7 8260.25)
(78430.3 1762.24 8260.2)
(76932.8 15354.7 8260.09)
(73097.8 28480.8 8260.22)
(67041.9 40741.3 8260.12)
(58948.3 51763.7 8260.22)
(46003.6 67996.2 10269.7)
(33497.1 74951.5 10269.8)
(19973.4 79629.3 10269.7)
(5842.26 81888 10269.8)
(-8466.15 81658.5 10269.7)
(-22517.3 78947.8 10269.7)
(-35884.6 73838.4 10269.9)
(-48161.1 66485.3 10269.6)
(-58974.7 57112.1 10269.8)
(-67996.2 46003.6 10269.7)
(-74951.5 33497.1 10269.8)
(-79629.3 19973.4 10269.7)
(-81888 5842.26 10269.8)
(-81658.5 -8466.15 10269.7)
(-78947.8 -22517.3 10269.7)
(-73838.4 -35884.6 10269.9)
(-66485.3 -48161.1 10269.6)
(-57112.1 -58974.7 10269.8)
(-46003.6 -67996.2 10269.7)
(-33497.1 -74951.5 10269.8)
(-19973.4 -79629.3 10269.7)
(-5842.26 -81888 10269.8)
(8466.15 -81658.5 10269.7)
(22517.3 -78947.8 10269.7)
(35884.6 -73838.4 10269.9)
(48161.1 -66485.3 10269.6)
(58974.7 -57112.1 10269.8)
(67996.2 -46003.6 10269.7)
(74951.5 -33497.1 10269.8)
(79629.3 -19973.4 10269.7)
(81888 -5842.26 10269.8)
(81658.5 8466.15 10269.7)
(78947.8 22517.3 10269.7)
(73838.4 35884.6 10269.9)
(66485.3 48161.1 10269.6)
(57112.1 58974.7 10269.8)
(40774.6 68706.7 12153.4)
(28224.1 74744 12153.8)
(14816.2 78509.2 12153.6)
(958.197 79889.5 12153.6)
(-12928.9 78842.3 12153.6)
(-26423.3 75399.4 12153.5)
(-39114.9 69665.4 12153.6)
(-50617.9 61814.9 12153.5)
(-60583.3 52086.1 12153.8)
(-68706.7 40774.6 12153.4)
(-74744 28224.1 12153.8)
(-78509.2 14816.2 12153.6)
(-79889.6 958.197 12153.6)
(-78842.3 -12928.9 12153.6)
(-75399.4 -26423.3 12153.5)
(-69665.4 -39114.9 12153.6)
(-61814.9 -50617.9 12153.5)
(-52086.1 -60583.3 12153.8)
(-40774.6 -68706.7 12153.4)
(-28224.1 -74744 12153.8)
(-14816.2 -78509.2 12153.6)
(-958.197 -79889.6 12153.6)
(12928.9 -78842.3 12153.6)
(26423.3 -75399.4 12153.5)
(39114.9 -69665.4 12153.6)
(50617.9 -61814.9 12153.5)
(60583.3 -52086.1 12153.8)
(68706.7 -40774.6 12153.4)
(74744 -28224.1 12153.8)
(78509.2 -14816.2 12153.6)
(79889.5 -958.197 12153.6)
(78842.3 12928.9 12153.6)
(75399.4 26423.3 12153.5)
(69665.4 39114.9 12153.6)
(61814.9 50617.9 12153.5)
(52086.1 60583.3 12153.8)
(33847.4 61269.7 13369.4)
(22693.7 66216.7 13369.6)
(10850.4 69151.4 13369.7)
(-1322.4 69985.1 13369.5)
(-13455.2 68692.3 13369.5)
(-25179 65312.2 13369.6)
(-36137.7 59947.7 13369.5)
(-45998.5 52761.6 13369.6)
(-54461.9 43972.5 13369.7)
(-61269.7 33847.4 13369.4)
(-66216.7 22693.7 13369.6)
(-69151.4 10850.4 13369.7)
(-69985.1 -1322.4 13369.5)
(-68692.3 -13455.2 13369.5)
(-65312.2 -25179 13369.6)
(-59947.7 -36137.7 13369.5)
(-52761.6 -45998.5 13369.6)
(-43972.5 -54461.9 13369.7)
(-33847.4 -61269.7 13369.4)
(-22693.7 -66216.7 13369.6)
(-10850.4 -69151.4 13369.7)
(1322.4 -69985.1 13369.5)
(13455.2 -68692.3 13369.5)
(25179 -65312.2 13369.6)
(36137.7 -59947.7 13369.5)
(45998.5 -52761.6 13369.6)
(54461.9 -43972.5 13369.7)
(61269.7 -33847.4 13369.4)
(66216.7 -22693.7 13369.6)
(69151.4 -10850.4 13369.7)
(69985.1 1322.4 13369.5)
(68692.3 13455.2 13369.5)
(65312.2 25179 13369.6)
(59947.7 36137.7 13369.5)
(52761.6 45998.5 13369.6)
(43972.5 54461.9 13369.7)
(26434.4 44757.1 13575.9)
(18260.8 48667.8 13575.9)
(9532.33 51099.1 13576)
(514.312 51978.3 13575.9)
(-8519.47 51277.9 13576)
(-17294.5 49019.6 13576)
(-25544 45271.8 13575.8)
(-33016.9 40148 13575.9)
(-39487.2 33804.9 13575.9)
(-44757.1 26434.4 13575.9)
(-48667.8 18260.8 13575.9)
(-51099.1 9532.33 13576)
(-51978.3 514.313 13575.9)
(-51277.9 -8519.47 13576)
(-49019.6 -17294.5 13576)
(-45271.8 -25544 13575.8)
(-40148 -33016.9 13575.9)
(-33804.9 -39487.2 13575.9)
(-26434.4 -44757.1 13575.9)
(-18260.8 -48667.8 13575.9)
(-9532.33 -51099.1 13576)
(-514.312 -51978.3 13575.9)
(8519.47 -51277.9 13576)
(17294.5 -49019.6 13576)
(25544 -45271.8 13575.8)
(33016.9 -40148 13575.9)
(39487.2 -33804.9 13575.9)
(44757.1 -26434.4 13575.9)
(48667.8 -18260.8 13575.9)
(51099.1 -9532.33 13576)
(51978.3 -514.312 13575.9)
(51277.9 8519.47 13576)
(49019.6 17294.5 13576)
(45271.8 25544 13575.8)
(40148 33016.9 13575.9)
(33804.9 39487.2 13575.9)
(20721.6 19246.5 14956.5)
(17064.7 22552.6 14956.3)
(12889.3 25173.1 14956.5)
(8322.15 27029.1 14956.4)
(3502.12 28063.6 14956.3)
(-1424.34 28245.5 14956.3)
(-6307.29 27568.8 14956.3)
(-10998.6 26054.6 14956.6)
(-15355.7 23748.8 14956.5)
(-19246.5 20721.6 14956.5)
(-22552.5 17064.7 14956.3)
(-25173.1 12889.3 14956.5)
(-27029.1 8322.16 14956.4)
(-28063.6 3502.12 14956.3)
(-28245.5 -1424.34 14956.3)
(-27568.8 -6307.29 14956.3)
(-26054.6 -10998.6 14956.6)
(-23748.8 -15355.7 14956.4)
(-20721.6 -19246.5 14956.5)
(-17064.7 -22552.6 14956.3)
(-12889.3 -25173.1 14956.5)
(-8322.15 -27029.1 14956.4)
(-3502.12 -28063.6 14956.3)
(1424.34 -28245.5 14956.3)
(6307.29 -27568.8 14956.3)
(10998.6 -26054.6 14956.6)
(15355.7 -23748.8 14956.5)
(19246.5 -20721.6 14956.5)
(22552.5 -17064.7 14956.4)
(25173.1 -12889.3 14956.5)
(27029.1 -8322.16 14956.4)
(28063.6 -3502.12 14956.3)
(28245.5 1424.34 14956.3)
(27568.8 6307.29 14956.3)
(26054.6 10998.6 14956.6)
(23748.8 15355.7 14956.5)
(18834.9 -12654.4 23280)
(20746.2 -9191.11 23279.8)
(22027.1 -5448.9 23279.8)
(22638.6 -1541.15 23279.8)
(22562.2 2413.6 23279.6)
(21800.8 6294.3 23280.1)
(20376.4 9984.53 23279.8)
(18333.7 13370.8 23280.4)
(15732.8 16351.4 23280)
(12654.4 18834.9 23280)
(9191.12 20746.2 23279.8)
(5448.9 22027.1 23279.8)
(1541.15 22638.6 23279.8)
(-2413.6 22562.2 23279.6)
(-6294.31 21800.8 23280.1)
(-9984.53 20376.4 23279.8)
(-13370.8 18333.7 23280.4)
(-16351.4 15732.8 23280)
(-18834.9 12654.4 23280)
(-20746.2 9191.12 23279.8)
(-22027.1 5448.9 23279.8)
(-22638.6 1541.15 23279.8)
(-22562.2 -2413.6 23279.6)
(-21800.8 -6294.31 23280.1)
(-20376.4 -9984.53 23279.8)
(-18333.7 -13370.8 23280.4)
(-15732.8 -16351.4 23280)
(-12654.4 -18834.9 23280)
(-9191.12 -20746.2 23279.8)
(-5448.91 -22027.1 23279.8)
(-1541.15 -22638.6 23279.8)
(2413.6 -22562.2 23279.6)
(6294.31 -21800.8 23280.1)
(9984.54 -20376.4 23279.8)
(13370.8 -18333.7 23280.4)
(16351.4 -15732.8 23280)
(19149.1 -41486.2 45521.2)
(26063 -37530.4 45521.2)
(32183.4 -32434.5 45521)
(37327.3 -26353.4 45521.9)
(41336.2 -19471 45521.4)
(44089.9 -11997.6 45522.1)
(45503.9 -4159 45522.5)
(45534.2 3805.31 45521.9)
(44181.8 11655.3 45521.9)
(41486.2 19149.1 45521.2)
(37530.4 26063 45521.2)
(32434.5 32183.4 45521)
(26353.4 37327.3 45521.9)
(19471 41336.2 45521.4)
(11997.6 44089.9 45522)
(4159 45503.9 45522.5)
(-3805.31 45534.2 45521.9)
(-11655.3 44181.8 45521.9)
(-19149.1 41486.2 45521.2)
(-26063 37530.4 45521.2)
(-32183.4 32434.5 45521)
(-37327.3 26353.4 45521.9)
(-41336.2 19471 45521.4)
(-44089.9 11997.6 45522.1)
(-45503.9 4159.01 45522.5)
(-45534.3 -3805.31 45521.9)
(-44181.8 -11655.3 45521.9)
(-41486.2 -19149.1 45521.2)
(-37530.4 -26063 45521.2)
(-32434.5 -32183.4 45521)
(-26353.4 -37327.3 45521.9)
(-19471 -41336.2 45521.4)
(-11997.6 -44089.9 45522)
(-4159 -45503.9 45522.5)
(3805.31 -45534.2 45521.9)
(11655.3 -44181.8 45521.9)
(17667 -30438.9 47109.5)
(22684.6 -26908 47108.2)
(27012.2 -22559.2 47105.5)
(30520.4 -17529.9 47116.9)
(33097.2 -11956.5 47097.9)
(34677.5 -6035.58 47120.9)
(35191.6 83.5305 47101.2)
(34647.5 6190.38 47113.6)
(33043.8 12113.8 47107.6)
(30438.9 17667 47109.4)
(26908 22684.6 47108.2)
(22559.1 27012.2 47105.5)
(17529.9 30520.4 47116.9)
(11956.5 33097.2 47097.9)
(6035.58 34677.5 47120.9)
(-83.5295 35191.6 47101.2)
(-6190.38 34647.5 47113.6)
(-12113.8 33043.8 47107.6)
(-17667 30438.9 47109.4)
(-22684.6 26908 47108.1)
(-27012.2 22559.1 47105.5)
(-30520.4 17529.9 47116.9)
(-33097.2 11956.5 47097.9)
(-34677.5 6035.58 47120.9)
(-35191.6 -83.5222 47101.2)
(-34647.5 -6190.38 47113.6)
(-33043.8 -12113.8 47107.6)
(-30438.9 -17667 47109.5)
(-26908 -22684.6 47108.2)
(-22559.2 -27012.2 47105.5)
(-17529.9 -30520.4 47116.9)
(-11956.5 -33097.2 47097.9)
(-6035.58 -34677.5 47120.9)
(83.5202 -35191.6 47101.2)
(6190.38 -34647.5 47113.6)
(12113.8 -33043.8 47107.6)
)
;
    }
    outside
    {
        type            calculated;
        value           nonuniform List<vector> 
540
(
(25901.4 1431.69 -2204.85)
(25259.3 5907.87 -2204.65)
(23849.7 10204.2 -2204.91)
(21715.3 14190.4 -2204.82)
(18921.1 17745.7 -2204.56)
(15552.2 20761.9 -2204.56)
(11710.8 23147 -2204.86)
(7513.52 24829 -2204.86)
(3087.75 25756.6 -2204.8)
(-1431.69 25901.4 -2204.85)
(-5907.87 25259.3 -2204.65)
(-10204.2 23849.7 -2204.91)
(-14190.4 21715.3 -2204.82)
(-17745.7 18921.1 -2204.56)
(-20761.9 15552.2 -2204.56)
(-23147 11710.8 -2204.86)
(-24829 7513.52 -2204.86)
(-25756.6 3087.76 -2204.8)
(-25901.4 -1431.69 -2204.86)
(-25259.3 -5907.86 -2204.65)
(-23849.7 -10204.2 -2204.91)
(-21715.3 -14190.4 -2204.82)
(-18921.1 -17745.7 -2204.56)
(-15552.2 -20761.9 -2204.56)
(-11710.8 -23147 -2204.86)
(-7513.52 -24829 -2204.86)
(-3087.76 -25756.6 -2204.8)
(1431.69 -25901.4 -2204.86)
(5907.86 -25259.3 -2204.65)
(10204.2 -23849.7 -2204.91)
(14190.4 -21715.3 -2204.82)
(17745.7 -18921.1 -2204.56)
(20761.9 -15552.2 -2204.56)
(23147 -11710.8 -2204.86)
(24829 -7513.52 -2204.86)
(25756.6 -3087.76 -2204.8)
(7832.34 -645.931 -2309.04)
(7825.43 724.168 -2308.67)
(7580.96 2072.09 -2308.71)
(7105.87 3356.75 -2308.96)
(6415.06 4539.72 -2309)
(5529.16 5584.87 -2308.67)
(4475.35 6459.96 -2308.71)
(3285.69 7139.14 -2308.8)
(1995.99 7601.2 -2308.74)
(645.931 7832.34 -2309.04)
(-724.168 7825.43 -2308.67)
(-2072.09 7580.96 -2308.71)
(-3356.75 7105.87 -2308.96)
(-4539.72 6415.06 -2309)
(-5584.87 5529.16 -2308.67)
(-6459.96 4475.35 -2308.71)
(-7139.14 3285.69 -2308.8)
(-7601.2 1995.99 -2308.74)
(-7832.34 645.932 -2309.04)
(-7825.43 -724.168 -2308.67)
(-7580.96 -2072.09 -2308.71)
(-7105.87 -3356.75 -2308.96)
(-6415.06 -4539.72 -2309)
(-5529.16 -5584.87 -2308.67)
(-4475.35 -6459.96 -2308.71)
(-3285.69 -7139.14 -2308.81)
(-1995.99 -7601.2 -2308.74)
(-645.932 -7832.34 -2309.04)
(724.168 -7825.43 -2308.67)
(2072.09 -7580.96 -2308.71)
(3356.75 -7105.87 -2308.96)
(4539.72 -6415.06 -2309)
(5584.87 -5529.16 -2308.67)
(6459.96 -4475.35 -2308.71)
(7139.14 -3285.69 -2308.8)
(7601.2 -1995.99 -2308.74)
(7801 38.3901 -1459.98)
(7675.54 1392.25 -1460.14)
(7317.34 2704.17 -1460.02)
(6736.47 3933.52 -1460.13)
(5951.25 5043.68 -1460.23)
(4985.05 6000.56 -1460.2)
(3867.22 6774.7 -1460.13)
(2632.04 7343.52 -1460.1)
(1316.72 7688.81 -1459.8)
(-38.3899 7801 -1459.98)
(-1392.25 7675.54 -1460.14)
(-2704.17 7317.34 -1460.02)
(-3933.51 6736.47 -1460.13)
(-5043.68 5951.25 -1460.23)
(-6000.56 4985.05 -1460.2)
(-6774.7 3867.22 -1460.13)
(-7343.52 2632.04 -1460.1)
(-7688.81 1316.72 -1459.8)
(-7800.99 -38.3895 -1459.98)
(-7675.54 -1392.25 -1460.14)
(-7317.34 -2704.17 -1460.02)
(-6736.47 -3933.51 -1460.13)
(-5951.25 -5043.68 -1460.23)
(-4985.05 -6000.56 -1460.2)
(-3867.22 -6774.7 -1460.13)
(-2632.04 -7343.52 -1460.1)
(-1316.72 -7688.81 -1459.8)
(38.3896 -7801 -1459.98)
(1392.25 -7675.54 -1460.14)
(2704.17 -7317.34 -1460.02)
(3933.52 -6736.47 -1460.13)
(5043.68 -5951.25 -1460.23)
(6000.56 -4985.05 -1460.2)
(6774.7 -3867.22 -1460.13)
(7343.52 -2632.04 -1460.1)
(7688.8 -1316.72 -1459.8)
(7115.56 1153.09 719.53)
(6807.15 2371.24 719.632)
(6291.95 3517.21 719.596)
(5585.71 4556.43 719.563)
(4709.56 5457.26 719.837)
(3690.46 6192.12 719.64)
(2559.19 6738.92 719.534)
(1350.18 7080.7 719.388)
(99.9444 7207.73 719.626)
(-1153.09 7115.56 719.53)
(-2371.24 6807.15 719.632)
(-3517.21 6291.95 719.596)
(-4556.43 5585.71 719.562)
(-5457.26 4709.56 719.836)
(-6192.12 3690.46 719.639)
(-6738.92 2559.19 719.533)
(-7080.7 1350.18 719.387)
(-7207.72 99.9449 719.625)
(-7115.56 -1153.09 719.529)
(-6807.15 -2371.24 719.631)
(-6291.95 -3517.21 719.595)
(-5585.71 -4556.43 719.562)
(-4709.56 -5457.26 719.836)
(-3690.46 -6192.12 719.639)
(-2559.19 -6738.92 719.533)
(-1350.18 -7080.7 719.387)
(-99.9446 -7207.73 719.625)
(1153.09 -7115.56 719.53)
(2371.24 -6807.16 719.632)
(3517.21 -6291.95 719.596)
(4556.43 -5585.71 719.563)
(5457.26 -4709.56 719.837)
(6192.12 -3690.46 719.64)
(6738.92 -2559.19 719.534)
(7080.7 -1350.18 719.387)
(7207.73 -99.9443 719.626)
(5986.1 1991.84 3050.23)
(5549.34 3001.28 3050.44)
(4943.77 3919.14 3050.39)
(4188.3 4718.2 3050.19)
(3305.25 5373.73 3050.34)
(2321.85 5865.96 3050.38)
(1268 6180.35 3050.4)
(175.638 6306.24 3050.23)
(-922.227 6241.13 3050.34)
(-1991.84 5986.1 3050.23)
(-3001.28 5549.34 3050.44)
(-3919.14 4943.76 3050.38)
(-4718.2 4188.3 3050.19)
(-5373.73 3305.25 3050.34)
(-5865.96 2321.85 3050.38)
(-6180.35 1268 3050.4)
(-6306.24 175.638 3050.23)
(-6241.13 -922.226 3050.34)
(-5986.1 -1991.84 3050.23)
(-5549.34 -3001.28 3050.44)
(-4943.76 -3919.14 3050.38)
(-4188.3 -4718.2 3050.19)
(-3305.25 -5373.73 3050.34)
(-2321.85 -5865.96 3050.38)
(-1268 -6180.35 3050.4)
(-175.638 -6306.24 3050.23)
(922.227 -6241.13 3050.34)
(1991.84 -5986.1 3050.23)
(3001.28 -5549.34 3050.44)
(3919.14 -4943.76 3050.39)
(4718.2 -4188.3 3050.19)
(5373.73 -3305.25 3050.34)
(5865.96 -2321.85 3050.38)
(6180.35 -1268 3050.4)
(6306.25 -175.638 3050.23)
(6241.13 922.227 3050.34)
(4376.55 2125 5157.24)
(3941.17 2852.89 5157.44)
(3385.77 3493.81 5157.45)
(2727.76 4028.7 5157.24)
(1986.69 4441.06 5157.22)
(1185.28 4718.57 5157.36)
(347.936 4852.78 5157.36)
(-500.051 4839.37 5157.46)
(-1332.85 4679.22 5157.33)
(-2125 4376.55 5157.24)
(-2852.89 3941.17 5157.44)
(-3493.81 3385.77 5157.45)
(-4028.7 2727.76 5157.23)
(-4441.06 1986.69 5157.22)
(-4718.57 1185.28 5157.36)
(-4852.78 347.937 5157.35)
(-4839.37 -500.05 5157.46)
(-4679.22 -1332.85 5157.32)
(-4376.54 -2125 5157.24)
(-3941.17 -2852.89 5157.44)
(-3385.77 -3493.8 5157.45)
(-2727.76 -4028.7 5157.23)
(-1986.69 -4441.06 5157.22)
(-1185.28 -4718.57 5157.36)
(-347.936 -4852.78 5157.36)
(500.051 -4839.37 5157.46)
(1332.85 -4679.22 5157.33)
(2125 -4376.55 5157.24)
(2852.89 -3941.17 5157.44)
(3493.81 -3385.77 5157.45)
(4028.7 -2727.76 5157.24)
(4441.06 -1986.69 5157.22)
(4718.57 -1185.28 5157.36)
(4852.79 -347.936 5157.36)
(4839.37 500.051 5157.46)
(4679.22 1332.85 5157.33)
(2336.64 1038.96 6753.05)
(2120.87 1429.06 6752.97)
(1840.19 1775.27 6753.1)
(1504.2 2068.31 6753.03)
(1122.1 2297.65 6752.93)
(706.065 2457.6 6752.96)
(268.581 2543.16 6752.92)
(-177.136 2550.92 6753.15)
(-617.449 2481.6 6753.08)
(-1038.96 2336.64 6753.05)
(-1429.06 2120.87 6752.97)
(-1775.27 1840.19 6753.1)
(-2068.31 1504.2 6753.03)
(-2297.65 1122.1 6752.93)
(-2457.6 706.066 6752.96)
(-2543.16 268.581 6752.92)
(-2550.92 -177.136 6753.14)
(-2481.59 -617.448 6753.08)
(-2336.64 -1038.96 6753.05)
(-2120.87 -1429.06 6752.97)
(-1840.19 -1775.27 6753.1)
(-1504.2 -2068.31 6753.03)
(-1122.1 -2297.65 6752.93)
(-706.065 -2457.6 6752.96)
(-268.58 -2543.16 6752.92)
(177.137 -2550.92 6753.15)
(617.449 -2481.6 6753.08)
(1038.96 -2336.64 6753.05)
(1429.06 -2120.87 6752.97)
(1775.27 -1840.19 6753.1)
(2068.31 -1504.2 6753.03)
(2297.65 -1122.1 6752.93)
(2457.6 -706.065 6752.96)
(2543.16 -268.58 6752.92)
(2550.92 177.137 6753.15)
(2481.6 617.449 6753.08)
(182.395 -1526.87 7817.69)
(444.773 -1471.95 7817.91)
(693.5 -1372.62 7817.85)
(921.372 -1231.1 7818.03)
(1121.12 -1052.64 7817.95)
(1286.85 -841.825 7817.93)
(1413.5 -605.552 7817.82)
(1497.17 -350.92 7818)
(1535.47 -85.7446 7817.79)
(1526.87 182.395 7817.69)
(1471.96 444.772 7817.91)
(1372.62 693.5 7817.85)
(1231.1 921.371 7818.03)
(1052.64 1121.13 7817.95)
(841.827 1286.85 7817.93)
(605.553 1413.5 7817.82)
(350.921 1497.17 7818)
(85.7455 1535.47 7817.79)
(-182.394 1526.87 7817.69)
(-444.772 1471.96 7817.91)
(-693.5 1372.62 7817.85)
(-921.371 1231.1 7818.03)
(-1121.12 1052.64 7817.95)
(-1286.85 841.826 7817.93)
(-1413.5 605.552 7817.82)
(-1497.17 350.92 7818)
(-1535.47 85.7444 7817.79)
(-1526.87 -182.395 7817.69)
(-1471.95 -444.773 7817.91)
(-1372.62 -693.5 7817.85)
(-1231.1 -921.371 7818.03)
(-1052.64 -1121.12 7817.95)
(-841.826 -1286.85 7817.93)
(-605.552 -1413.5 7817.82)
(-350.92 -1497.17 7818)
(-85.7445 -1535.47 7817.79)
(-1293.9 -5074.81 8886.56)
(-392.937 -5222.33 8886.56)
(519.862 -5211.28 8886.56)
(1416.9 -5041.8 8886.5)
(2270.87 -4719.21 8886.49)
(3055.85 -4253.17 8886.5)
(3747.99 -3658.04 8886.48)
(4326.23 -2951.48 8886.62)
(4772.99 -2155.35 8886.65)
(5074.81 -1293.9 8886.56)
(5222.33 -392.937 8886.55)
(5211.28 519.861 8886.55)
(5041.81 1416.9 8886.5)
(4719.21 2270.87 8886.49)
(4253.17 3055.85 8886.5)
(3658.04 3747.99 8886.48)
(2951.48 4326.23 8886.62)
(2155.35 4772.99 8886.65)
(1293.9 5074.81 8886.56)
(392.937 5222.33 8886.55)
(-519.861 5211.28 8886.55)
(-1416.9 5041.81 8886.5)
(-2270.87 4719.21 8886.49)
(-3055.85 4253.17 8886.5)
(-3747.99 3658.04 8886.48)
(-4326.23 2951.48 8886.62)
(-4772.99 2155.35 8886.65)
(-5074.81 1293.9 8886.56)
(-5222.33 392.937 8886.56)
(-5211.28 -519.861 8886.56)
(-5041.8 -1416.9 8886.5)
(-4719.21 -2270.87 8886.49)
(-4253.17 -3055.85 8886.5)
(-3658.04 -3747.99 8886.48)
(-2951.48 -4326.23 8886.62)
(-2155.35 -4772.99 8886.65)
(-1401.44 -8683.52 11240.4)
(127.614 -8795.1 11240.4)
(1652.96 -8639.26 11240.4)
(3128.1 -8220.86 11240.4)
(4508.09 -7552.83 11240.4)
(5751.14 -6655.34 11240.5)
(6819.45 -5555.55 11240.4)
(7680.51 -4286.84 11240.3)
(8308.23 -2888 11240.4)
(8683.52 -1401.44 11240.4)
(8795.1 127.614 11240.4)
(8639.26 1652.96 11240.4)
(8220.87 3128.1 11240.4)
(7552.83 4508.09 11240.4)
(6655.34 5751.14 11240.5)
(5555.56 6819.45 11240.4)
(4286.84 7680.51 11240.3)
(2888 8308.23 11240.4)
(1401.44 8683.52 11240.4)
(-127.614 8795.1 11240.4)
(-1652.96 8639.26 11240.4)
(-3128.09 8220.86 11240.4)
(-4508.09 7552.83 11240.4)
(-5751.14 6655.34 11240.5)
(-6819.44 5555.55 11240.4)
(-7680.51 4286.84 11240.3)
(-8308.23 2888 11240.4)
(-8683.52 1401.44 11240.4)
(-8795.1 -127.614 11240.4)
(-8639.26 -1652.96 11240.4)
(-8220.86 -3128.1 11240.4)
(-7552.83 -4508.09 11240.4)
(-6655.34 -5751.14 11240.5)
(-5555.56 -6819.45 11240.4)
(-4286.84 -7680.51 11240.3)
(-2888 -8308.23 11240.4)
(-624.912 -12566.3 15776.5)
(1566.49 -12484.1 15776.4)
(3710.54 -12022.3 15776.4)
(5741.87 -11195.2 15776.4)
(7598.61 -10028 15776.4)
(9224.52 -8556.19 15776.4)
(10570.2 -6824.29 15776.4)
(11594.7 -4885.35 15776.4)
(12266.9 -2797.66 15776.5)
(12566.3 -624.912 15776.5)
(12484.1 1566.49 15776.4)
(12022.3 3710.54 15776.4)
(11195.2 5741.87 15776.4)
(10028 7598.61 15776.4)
(8556.19 9224.52 15776.4)
(6824.29 10570.2 15776.4)
(4885.35 11594.7 15776.4)
(2797.66 12266.9 15776.5)
(624.912 12566.3 15776.5)
(-1566.49 12484.1 15776.4)
(-3710.54 12022.3 15776.4)
(-5741.87 11195.2 15776.4)
(-7598.61 10028 15776.4)
(-9224.52 8556.19 15776.4)
(-10570.2 6824.29 15776.4)
(-11594.7 4885.35 15776.4)
(-12266.9 2797.66 15776.5)
(-12566.3 624.912 15776.5)
(-12484.1 -1566.49 15776.4)
(-12022.3 -3710.54 15776.4)
(-11195.2 -5741.87 15776.4)
(-10028 -7598.61 15776.4)
(-8556.2 -9224.53 15776.4)
(-6824.29 -10570.2 15776.4)
(-4885.35 -11594.7 15776.4)
(-2797.66 -12266.9 15776.5)
(266.009 -16297.5 21485.8)
(3091.88 -16003.7 21485.8)
(5824.08 -15223.2 21485.8)
(8378.97 -13981 21485.8)
(10679.4 -12313.3 21485.8)
(12655.3 -10271.9 21485.8)
(14246.6 -7917.91 21485.8)
(15405.4 -5324.05 21485.8)
(16096.1 -2568.3 21486.1)
(16297.5 266.009 21485.8)
(16003.7 3091.88 21485.8)
(15223.2 5824.08 21485.8)
(13981 8378.97 21485.8)
(12313.3 10679.4 21485.8)
(10271.9 12655.3 21485.8)
(7917.91 14246.6 21485.8)
(5324.05 15405.4 21485.8)
(2568.3 16096.1 21486.1)
(-266.008 16297.5 21485.8)
(-3091.88 16003.7 21485.8)
(-5824.08 15223.2 21485.8)
(-8378.97 13981 21485.8)
(-10679.4 12313.3 21485.8)
(-12655.3 10271.9 21485.8)
(-14246.6 7917.91 21485.8)
(-15405.4 5324.05 21485.8)
(-16096.1 2568.3 21486.1)
(-16297.5 -266.009 21485.8)
(-16003.7 -3091.88 21485.8)
(-15223.2 -5824.08 21485.8)
(-13981 -8378.97 21485.8)
(-12313.3 -10679.4 21485.8)
(-10271.9 -12655.3 21485.8)
(-7917.91 -14246.6 21485.8)
(-5324.05 -15405.4 21485.8)
(-2568.29 -16096.1 21486.1)
(1904.78 -15731.6 27103.2)
(4607.68 -15161.4 27103.3)