/*--------------------------------*- C++ -*----------------------------------*\
| =========                 |                                                 |
| \\      /  F ield         | OpenFOAM: The Open Source CFD Toolbox           |
|  \\    /   O peration     | Version:  2312                                  |
|   \\  /    A nd           | Website:  www.openfoam.com                      |
|    \\/     M anipulation  |                                                 |
\*---------------------------------------------------------------------------*/
FoamFile
{
    version     2.0;
    format      ascii;
    arch        "LSB;label=32;scalar=64";
    class       volVectorField;
    location    "1";
    object      traction;
}
// * * * * * * * * * * * * * * * * * * * * * * * * * * * * * * * * * * * * * //

dimensions      [1 -1 -2 0 0 0 0];

internalField   uniform (0 0 0);

boundaryField
{
    fixed
    {
        type            calculated;
        value           nonuniform List<vector> 
108
(
(3997.49 -7705.89 99183)
(8370.41 -21344.9 95531.2)
(14033.9 -28725.7 84600.3)
(19241 -29006.5 68549.7)
(23033.7 -25384 49964.8)
(25508.5 -20321 27607.4)
(26832.9 -13224.6 -1645.51)
(26637.8 -964.334 -42731.5)
(26355.9 15502 -83742.8)
(-26538.8 14931.6 -84772.9)
(-26943.1 -1548.85 -44539.3)
(-26817.9 -13025.4 -6459.37)
(-25011.5 -19904 22467.1)
(-21983.7 -24503.9 44599.4)
(-17715.5 -27056.1 62407)
(-12402.9 -25771.7 77484.9)
(-7216.1 -18909 88688)
(-3800.34 -7309.05 94999.7)
(-3847.87 5844.51 94276.8)
(-7050.77 16511.9 86765.4)
(-11697.4 22701.1 74835)
(-16724.6 24369.6 60403.2)
(-21124.9 22746.5 44826.5)
(-24488.2 19104.7 26910.9)
(-26676.8 13508.9 4094.09)
(-27046.8 3805.06 -30129.4)
(-26785.7 -10737.5 -68559.4)
(26868.4 -12577.9 -81803.8)
(27352.1 961.535 -49897.8)
(27010.7 11794.8 -15766.8)
(25308.8 19086.7 12729.3)
(22510.6 24260.8 35888.6)
(18492.4 27433.6 55260.3)
(13161.8 26793.5 72376.9)
(7522.71 20186.3 86355.2)
(3594.03 7777.5 95603.3)
(4423.96 -31752.9 52991.1)
(6554.17 -21424.6 20352.9)
(6461.64 -14444.2 8593.02)
(6260.52 -10818.5 -897.993)
(5962.55 -8340.16 -13427.5)
(5870.78 -5862.1 -29497.4)
(6213.22 -2093.77 -48520.5)
(6632.83 4292.99 -67095.5)
(5347.42 11084.5 -74754)
(-5688.57 10851.5 -76668.5)
(-6920.22 3900.98 -71289.8)
(-6531.68 -2143.71 -53825.9)
(-6127.73 -5772.17 -35540.1)
(-6001.99 -8311.05 -19994.8)
(-5996.17 -10910.8 -7877.3)
(-5899.98 -14658.6 1306.77)
(-5824.92 -21736.2 13710.1)
(-3675.99 -32089.4 46286.4)
(-3478.19 30506.1 44186.8)
(-5249.4 20495.6 10392.6)
(-5144.83 13557.4 -2178.51)
(-5139.84 10005.4 -11132.1)
(-5169.57 7686.02 -21467.2)
(-5363.74 5598.78 -33733.2)
(-5831.27 2718.47 -47923.6)
(-6299.47 -2345.24 -62307)
(-5223.48 -8606.97 -68905.6)
(5602.4 -9214.8 -71619.9)
(6910.81 -3683.13 -66890.4)
(6779.15 1551.07 -51158.6)
(6582.57 5107.7 -33520.3)
(6582.79 7853.87 -17625.2)
(6654.34 10702.1 -4583.82)
(6623.8 14661.6 5812.39)
(6538.3 21936.3 19084.4)
(4507.72 32437.4 53062.6)
(-1962.1 6990.19 58707.9)
(-6490.12 17255.2 46273.9)
(-13151.4 21760.3 24998.9)
(-18987.1 21528.2 2840.61)
(-22866.7 18929.1 -16739.2)
(-24747.1 15876 -31469.8)
(-25231.5 13493.1 -38314.1)
(-25598.6 11786.9 -36944.9)
(-26134.7 9641.68 -36922.6)
(24902.2 10171.4 -44159.5)
(24454.9 11713.9 -46125.1)
(24368.8 13214.2 -46120.1)
(23876.1 15789.9 -39064.5)
(22067.1 18942.4 -26002.3)
(18627.4 21503.5 -9132.21)
(13616.4 21645.6 9910.03)
(7931.57 16929.3 28392.2)
(4498.94 6029.86 37797.1)
(4732.48 -7539.85 36654.2)
(8457.49 -18060.2 25670.8)
(14350.5 -22385.3 5856.02)
(19423.4 -21931.9 -13653.4)
(22857 -19082.9 -29752.8)
(24641.7 -15596.7 -40596.2)
(25149.8 -12675.2 -43583.8)
(25448.5 -10656.6 -38796.8)
(25707.4 -8517.5 -36573.7)
(-25770.8 -9174.46 -38719.2)
(-25392.9 -11306.1 -36296.5)
(-24875 -13583.6 -33643.3)
(-23724.9 -16571.4 -24455.4)
(-21243.7 -19746 -9401.65)
(-17169.5 -22045.2 9614.9)
(-11593.5 -21769.9 30721)
(-5474.22 -16749.1 50497.9)
(-1523.18 -6095.2 60619.4)
)
;
    }
    inside
    {
        type            calculated;
        value           nonuniform List<vector> 
540
(
(3026.21 -184.327 -5654.89)
(8403.11 925.122 -6523.23)
(19037.4 6301.13 -5878.74)
(28769.7 15959.8 -3393.61)
(34475.1 28399.7 418.735)
(34531.4 40888.3 4242.73)
(28678.2 49031.5 6125.56)
(19684.7 50310 5392.2)
(11677 49803.5 4965.96)
(-12325.9 54767.8 7749.46)
(-21146.7 56707.9 8391.04)
(-30444.1 54045.2 8348.88)
(-36888.9 45465.7 6186.4)
(-38644.2 33635.1 2693.01)
(-36034.9 21902.6 -816.321)
(-30355.9 12234.8 -3475.38)
(-23640.3 5477.37 -4853.15)
(-21602.7 1873.66 -4549.66)
(-22496.2 -1314.19 -4271.46)
(-25906.5 -5465.28 -4030.99)
(-33973.5 -13277.9 -2094.38)
(-40064.7 -24130.1 829.818)
(-41926 -36481.9 4008.55)
(-38519.5 -47729.5 6421.07)
(-29896.4 -53683.7 6822.02)
(-19018.7 -52182.9 5149.76)
(-10078.5 -49672.4 4265.67)
(9622.04 -52440.7 4094.81)
(17345.8 -51303.7 3578.51)
(24895.9 -47154.3 2955.34)
(29145.3 -37711.1 1015.73)
(28323.9 -25510.2 -1698.89)
(22687 -13892.9 -4180.34)
(13822.5 -5147.23 -5694.85)
(4721.23 -512.257 -6020.65)
(1435.46 51.3497 -5459.9)
(14621.4 215.87 1112.61)
(15310.7 2676.92 16.9146)
(18646.2 6428.73 -1104.13)
(20813.3 10955.3 -1876.91)
(20226.9 14758.4 -2440.13)
(17048.1 16322.8 -3253.59)
(12140.8 13728.2 -5163.42)
(8395.3 9468.7 -7425.31)
(6803.66 5913.91 -8758.9)
(-7307.84 7941.74 -8015.82)
(-9148.9 13085.8 -6429.71)
(-13330.2 18205.9 -4155.95)
(-18028.4 19740.9 -3085.03)
(-21571.4 18039.3 -2882.67)
(-23114.1 14365.2 -2825.94)
(-22662.2 9967.55 -2421.55)
(-21689.7 5994.39 -1423.58)
(-24130.9 2878.85 39.7314)
(-25008.8 -1077.71 447.177)
(-22562.3 -4620.19 -354.992)
(-23584 -8938.62 -830.449)
(-24280.2 -13992.1 -900.9)
(-22852 -18639.9 -766.929)
(-18985.7 -21281.3 -889.959)
(-13207.1 -19525.5 -2015.38)
(-8388.05 -15417.1 -3588.97)
(-5564.4 -10308.8 -4804.5)
(4349.55 -8834.14 -6473.03)
(5861.22 -10852.8 -6012.27)
(9052.66 -14102.8 -4923.25)
(12095.3 -14223.5 -4474.79)
(13608.1 -11882.3 -4154.4)
(13204.5 -8499.14 -3411.9)
(11402.9 -5269.29 -2116.42)
(10016.3 -3069.49 -496.773)
(12562.9 -1878.07 928.533)
(1446.8 -608.948 4341.51)
(2770.95 -226.113 2983.46)
(8781.83 2263.5 946.689)
(13128.5 5821.28 -808.949)
(15824.2 10187.5 -1852.89)
(16299.5 14577.9 -2281.69)
(14289.4 17104.8 -3044.29)
(11384.2 17651.7 -4748.2)
(9239.47 16145 -7187.9)
(-7290.36 14474.5 -9066.32)
(-9373.6 16478.9 -7128.2)
(-12814.5 18359.2 -5102.89)
(-15502.8 16776.7 -4682.64)
(-16028.4 12765.6 -4871.3)
(-14204.2 8209.89 -4438.46)
(-10839.5 4429.15 -2937.72)
(-7239.82 1957.21 -727.81)
(-8740.99 1353.28 1284.47)
(-10165 84.9934 1954.92)
(-9926.07 -1430.03 1323.63)
(-13808.2 -4665.65 245.784)
(-17388.3 -9459.84 -581.807)
(-19284.7 -15280 -816.562)
(-18625 -20835.7 -691.1)
(-15411.2 -24049.4 -1044.92)
(-11409.5 -24871.5 -2402.79)
(-8011.98 -22096.7 -5020.38)
(3981.25 -16045.6 -9326.8)
(5949.27 -15346.2 -7986.97)
(8855.23 -15917.3 -6131.57)
(10346.9 -12917.2 -5441.69)
(8828.24 -7536.44 -4669.96)
(5021.99 -2822.75 -2801.28)
(1005.9 -335.42 -65.6902)
(-2278.97 497.041 2648.76)
(-264.157 -461.384 4245.94)
(-7698.07 -826.203 10220.1)
(-5820.53 -1624.68 8466.82)
(1921.51 138.29 5258.31)
(8471.8 3574.51 2454.6)
(13598.3 8599.86 470.595)
(16258.5 14341.6 -764.154)
(15958.9 18774 -2041.08)
(13464.8 19274.4 -4581.28)
(11493.4 18295.3 -8425.19)
(-6167.64 12075.2 -13938.7)
(-8520.21 12718 -10841)
(-11749.6 15944.5 -7206.43)
(-13279.8 13960.1 -5904.1)
(-11696.2 8893.98 -5205.91)
(-7233.04 3691.51 -3516.74)
(-1440.54 256.583 -424.434)
(4059.32 -1064.57 3329.51)
(3366.41 163.137 5917.66)
(1214.99 850.292 6704.32)
(-1319.47 459.353 5878.4)
(-7670.34 -2493.5 3844.56)
(-13297.4 -7434.81 1856.75)
(-17126.1 -13839.2 442.886)
(-18337.5 -20599 -388.693)
(-16816.1 -25949.2 -1249.65)
(-13199.8 -27120.4 -3180.61)
(-10210.5 -27092.9 -6934.89)
(2309.21 -16159.2 -14466.8)
(4574.45 -12524.7 -12269.7)
(7744.12 -14978.6 -8147.29)
(8873.39 -12304.1 -5779.38)
(6007.59 -5864.24 -3331.76)
(47.8672 74.7832 443.178)
(-5916.4 2754.23 4893.42)
(-10592.4 2936.82 8814.54)
(-9074.2 670.533 10386.8)
(-10115.3 -744.443 17184.1)
(-8180.7 -1483.67 14869.4)
(-649.526 171.268 10380.5)
(7329.8 4186.42 6092.15)
(13936.4 10260.7 2737.86)
(17828.5 17415.5 293.001)
(18594.4 23923.2 -1709.17)
(16264.6 26085.1 -4311.35)
(13796.2 27090.8 -8480.14)
(-4530.89 16377.2 -17702)
(-8106.2 13434.6 -14421.2)
(-11818.2 17205.1 -9220.65)
(-13008.6 14710 -6730.23)
(-10308.5 8695.56 -4653.89)
(-4428.4 2773.65 -1311.81)
(2753.14 -924.039 3605.98)
(8687.36 -1755.01 8985.6)
(8081.7 158.56 12126)
(4747.9 1420.32 12599.9)
(452.172 778.919 11020.3)
(-6634.34 -2694.24 7781.93)
(-13121.1 -8356.95 4413.77)
(-17701.9 -15547.2 1600.1)
(-19751.4 -23422.7 -494.038)
(-19130.4 -30751.8 -2154.7)
(-15578.5 -33925.6 -4130.09)
(-12047.4 -36626 -8252.75)
(137.651 -23348.8 -18398.7)
(3608.9 -15538.7 -16873.4)
(7624.31 -17971.8 -10710)
(9055.64 -15184.3 -6382.76)
(6194.16 -8308.23 -2022.18)
(-136.84 -1367.78 3794.92)
(-6964.44 2462.19 10240.8)
(-11821.9 2989.3 15577.4)
(-10877.8 801.593 17435.7)
(-5397.83 -686.894 21530)
(-4654.34 -177.447 19435.9)
(1351.85 2124.1 14179.8)
(9012.06 6783.62 8490.63)
(15676.5 13531.8 3731.92)
(19834.3 21484.3 106.571)
(21014.7 29250 -2605.04)
(18760.2 33259.9 -5058.97)
(15325.4 34852 -9053.47)
(-2360.19 22701.5 -21078.8)
(-7706.55 17535 -18646.6)
(-12340.9 20581.2 -11932.7)
(-13821.7 17451.3 -8129.78)
(-10942.4 10818.7 -4666.19)
(-4905.74 4551.08 187.241)
(2156.76 653.906 6608.3)
(7140.55 -146.643 13072.4)
(5675.59 1486.17 16280.9)
(1586.99 1981.96 16192.8)
(-2773.36 110.375 14032)
(-9239.47 -4296.66 9929.34)
(-15449.3 -10692.4 5458.52)
(-19835.5 -18421.7 1553.37)
(-21892.4 -26878.3 -1533.39)
(-21452 -35225.7 -3907.55)
(-17978.3 -40708.9 -5981.61)
(-13100.6 -42992.4 -9830.63)
(-2639.21 -32899 -21594.4)
(2674.94 -23815.1 -22682.6)
(7875.77 -23209.2 -15051.7)
(10032.9 -19582.8 -8574.53)
(8097.08 -12801.5 -2567.57)
(2797.45 -5620.73 4694.1)
(-3168.02 -916.921 12579.5)
(-6777.67 492.121 18910.8)
(-5561.32 -487.321 21206.4)
(1698.7 -827.466 21178.3)
(1546.58 1432 20186.9)
(5979.36 4822.21 15047)
(12502.8 10105.3 8679.28)
(18397.1 17136.3 3086.66)
(22270.9 25320.8 -1272.9)
(23494.2 33639.9 -4463.99)
(21283.9 39174.1 -6861.77)
(16641.4 40362.1 -10357.5)
(850.06 29933.9 -24462.3)
(-6644.35 23228.1 -24139.7)
(-12608.1 24040.1 -15922.7)
(-15130.8 20952 -10593)
(-12843.5 14017.2 -5983.93)
(-7194.64 7429.81 -111.385)
(-697.901 3299.23 7111.27)
(3312.7 2260.48 13877.6)
(1186.82 3236.64 16763.3)
(-3210.79 2577.31 16318.6)
(-7367.04 -656.182 14080.3)
(-13309 -5992.21 9640.34)
(-19138.8 -12991.5 4599.1)
(-23069.2 -21015.6 179.85)
(-24789.4 -29656.8 -3395.45)
(-24154 -38384.4 -6227)
(-20669 -45551.4 -8682.95)
(-14381.5 -47547.9 -11989.7)
(-6401.36 -43605 -25371.6)
(744.94 -32907.9 -29229.9)
(7075.83 -26606.8 -21188.2)
(10864.9 -23402 -12708.1)
(10567 -17333.1 -5407.02)
(6620.78 -10187.7 2617.38)
(1730.33 -4880.51 11045.7)
(-605.915 -2635.54 17525.6)
(1298.32 -2303.4 19977.1)
(6281.08 -850.133 18362.9)
(6496.16 2573.74 18249.2)
(10687.2 6917.48 13352.5)
(16505.1 12721 6886.75)
(21630.2 19806.7 1120.28)
(25123.6 27915.4 -3489.44)
(26316.1 36490.6 -6990.72)
(24231.3 43432.8 -9617.38)
(18523.2 45255.7 -12724.8)
(5147.45 38078 -28519)
(-4579.45 28491.5 -30634.3)
(-12081.4 25620.1 -21289.5)
(-16425.5 24005 -14307.3)
(-15445.2 17286.6 -8747.44)
(-10347 10207.4 -2280.85)
(-4059.81 5550.26 5222.06)
(35.2601 3970.7 12024.5)
(-1928.68 4346.73 14782.4)
(-6390.65 2939.04 14413.1)
(-10869.4 -1058.39 12317.6)
(-17203.2 -6900.83 7729.35)
(-23119 -14176.8 2533.8)
(-26767.9 -22219.4 -1920.16)
(-28187.3 -30795.5 -5625.27)
(-27322.8 -39649.5 -8805.77)
(-23841.5 -48024.3 -11958.4)
(-16624.8 -51464.5 -15281.9)
(-10859.8 -52695.1 -30809.4)
(-1918.37 -40643.9 -35778.3)
(5218.85 -27664.9 -28805.8)
(11167.1 -25520.3 -18670.9)
(12923.8 -20613.8 -10072.3)
(10262.1 -13562 -1466.92)
(5730.22 -7567.64 7263.8)
(3299.38 -4438.01 13882.3)
(5115.05 -3214.88 16598.8)
(7206.46 -189.812 15998.5)
(8584.75 3260.87 15863.4)
(14128.5 7890.65 10508.6)
(20053.9 13844.7 4126.58)
(24848.7 20805.3 -1449.05)
(28105.6 28724.8 -6057.36)
(29239.5 37400.8 -9859.44)
(27270.5 45476.5 -13073.3)
(20644.1 48776.5 -16270)
(9684.16 44605.4 -33379.2)
(-2115.51 32852.6 -37562.2)
(-11384.4 26388.4 -28587.2)
(-17857.4 26476.1 -19578)
(-18592.6 20220 -12908.4)
(-14130.2 12437.8 -5988.49)
(-7708.6 6890.84 1552.65)
(-2334.03 4295.79 8611.7)
(-2974.53 4072.9 11867)
(-6705.65 2563.49 12244.6)
(-11947.6 -1214.09 10288.5)
(-19922.5 -6892.3 5336.12)
(-26424 -13966.4 270.776)
(-30078.1 -21712.2 -3930.95)
(-31356.5 -29993.9 -7623.09)
(-30361.6 -38751 -11212.9)
(-26870.5 -47644.7 -15259.6)
(-19634.7 -53627.9 -19694.1)
(-15071.2 -55026.5 -36569.1)
(-4465.38 -46409.9 -41343.1)
(4106.28 -30683.3 -38741.7)
(11640.3 -26535.9 -27074.5)
(14946.9 -22017.8 -16114)
(13633.1 -15387.3 -6559.93)
(9166.77 -8781.18 2750.85)
(5337.74 -4502.12 10264.2)
(5603.35 -2507.29 14036.1)
(4437.82 1286.61 15229.6)
(6763.4 3719.19 14810.4)
(15727.3 7890.51 7622.24)
(22426.8 13505.4 1314.34)
(27371 20159.3 -4032.86)
(30509.7 27786.9 -8635.31)
(31465.3 36279.9 -12809)
(29412.4 44680.8 -16795.3)
(22209.8 49376.8 -20762.8)
(13518.2 45077.6 -38488.2)
(502.391 34980.3 -44624.3)
(-11037.8 27473.3 -38622.6)
(-19573.1 28233 -26879)
(-22173.3 22710.5 -18542.7)
(-18384 14127.6 -10932.1)
(-11538.9 7385.66 -3281.55)
(-2817.04 2907.37 5016.66)
(-884.121 2142.86 9125.95)
(-2367.87 1123.69 11097.2)
(-8305.37 -1374.81 9639.05)
(-20420.1 -6286.53 3313.51)
(-27950.9 -12762.6 -1449.43)
(-31905.5 -19990.8 -5301.9)
(-33110 -27712 -8937.02)
(-31980.6 -35910.9 -12960.5)
(-28425.1 -44374.6 -17874.3)
(-21838.1 -51838.9 -23982.5)
(-18307.7 -51067.8 -41755.7)
(-7013.42 -51003.1 -47209.8)
(3437.38 -34458.7 -48194.5)
(10458.4 -22815 -35656)
(15476.5 -19901 -22464.6)
(15950.9 -15033.7 -11621.5)
(11812.8 -8554.66 -1439.55)
(4870.28 -2758.84 8420.57)
(3718.86 -519.48 12705.8)
(-15918.6 4455.42 26644.5)
(4368.06 4022.81 12785.8)
(16889 7497.22 3811.73)
(24073.4 12615.1 -2028.95)
(28951.3 18849.1 -7049.71)
(31635.1 25927.5 -11634.2)
(32066.2 33670.9 -16184.8)
(29678.6 41326.1 -20994.5)
(22197.6 46247.5 -26432.6)
(16263.8 40612.3 -43880.3)
(3028.19 35897.1 -52380.3)
(-10857.4 27890.6 -50020.3)
(-20690.1 27615.5 -35731)
(-25511.9 24401.2 -25864.7)
(-22847.9 15615.2 -17316.1)
(-15189.8 7479.5 -9015.8)
(-3335.98 1319.72 599.108)
(18354.4 -3740.35 16013.9)
(20739.6 -2424.63 20252)
(-2093.38 -1735.26 9490.02)
(-20767.6 -5797.59 381.916)
(-28418.8 -11722.4 -3423.3)
(-32161.3 -18455.8 -6671.23)
(-32766.9 -25348.4 -10025.6)
(-31118.8 -32329.6 -14222.4)
(-27378.7 -39338 -19664.3)
(-21524.9 -46091.8 -26778.9)
(-20156.3 -43849.8 -46445.3)
(-9670.69 -49037.9 -51326.1)
(2599.59 -36302.6 -54291.2)
(9449.17 -17646.6 -44822.9)
(15289.8 -14867.1 -29663.1)
(17290.6 -12653.9 -17081.5)
(14162.3 -7647.89 -6344.08)
(1868.99 -55.9064 8145.12)
(-16055.7 5399.56 24645.2)
(-14310.7 4719.25 21501)
(4735.19 4049.03 8040.03)
(16867.5 7210.42 -268.531)
(24493.1 12174 -6353.79)
(28834.9 17943 -11480.9)
(30526.9 24023.5 -16252.5)
(29892.1 30133.8 -21134.4)
(26718.1 35654.7 -26536.6)
(18722.8 38703.7 -33335)
(16621.8 32394.4 -48290.7)
(4172.13 32046.4 -57388.5)
(-10738.9 26734.8 -58986.1)
(-21871.5 26461.5 -47000.1)
(-28143.1 25281.6 -35999.8)
(-26983 17060.8 -26212.1)
(-18310.6 7438.72 -15953.6)
(-4762.2 262.929 -4859.9)
(17134.7 -4992.8 11795.4)
(18974.1 -3171.54 15694.9)
(-2515.17 -1882.74 5500.67)
(-20325.5 -5667.48 -2725.08)
(-27913.3 -11754.3 -6263.73)
(-30680.9 -18223.8 -9161.2)
(-30091.4 -24137.4 -12240.5)
(-27498.3 -29369.3 -16252.9)
(-23550.1 -34151.1 -21649)
(-18577.4 -38720.4 -28600.9)
(-19843.5 -34144.9 -50672)
(-11377.3 -39315.9 -51237.2)
(1380.73 -35824.7 -55218)
(11832.9 -21167.1 -53485.1)
(16800.8 -11264.3 -39403.3)
(17830.1 -8601.25 -24062)
(15092.8 -5196.97 -12444.7)
(3070.54 1431.48 2844.83)
(-14034.9 6089.33 19680.3)
(13680.1 1814.85 -6883.65)
(16873 4711.11 -7280.51)
(24094.5 9190.56 -13434.7)
(27339.7 14199 -17953.2)
(28336.2 18812.7 -22403.3)
(27560.3 22881.8 -26957.2)
(25036.1 26331.7 -31618.3)
(20510.2 28756 -36568.1)
(11276 28692.6 -42567.1)
(14179.5 23379.8 -51515.6)
(3510.4 23722.7 -58148.6)
(-9409.04 24547.8 -63465.9)
(-21330.4 25797.8 -59228.2)
(-28852.3 24794.8 -50303)
(-31734.6 19351.6 -42440.2)
(-28062 11256.9 -33569.6)
(-18111.4 3867.32 -22440.8)
(-9058.4 850.597 -12456.1)
(-6286.48 235.225 -5437.85)
(-15574.4 -1787.09 -7050.84)
(-27562.7 -7432.74 -13018.3)
(-30870.5 -14290.3 -15568.6)
(-29677.2 -20145.1 -17427.6)
(-26337.2 -24498.4 -19605.6)
(-22044.3 -27484.7 -22538.5)
(-17520 -29589.8 -26575.7)
(-13512.9 -31588 -31750.3)
(-14683.4 -20632.4 -51514.9)
(-11868.9 -28400.7 -52918.6)
(-1500.25 -30801.9 -56198.4)
(10617.6 -26717.1 -57759.3)
(20407.6 -18552 -54420.7)
(25465.6 -12686.9 -46112.7)
(25622.2 -8212.71 -36068.5)
(19701.1 -3112.52 -22362.7)
(14026.1 -87.3668 -11150.1)
(28810.5 2963.75 -39062.3)
(25586.9 8846.52 -36808.8)
(23967.8 12306.9 -38668.1)
(22959 14629.6 -42592.1)
(21175.9 16259.7 -46099.9)
(18319.5 17484.6 -48397.3)
(14547.2 18462.1 -49908.1)
(9729.06 19019.5 -51097.4)
(1794.88 17208 -51135.4)
(10154.5 15438.9 -53797.7)
(2885.08 15678 -57768.4)
(-5201.13 17943.1 -63783.3)
(-14333.7 19420.6 -65409.2)
(-22382.8 18536.9 -62367.2)
(-29232.8 15461.2 -60179.8)
(-32796.5 9121.26 -56653.8)
(-31600.3 1862.31 -51743.8)
(-25530.8 664.445 -44943.5)
(-25864.8 3837.57 -32966.3)
(-33681.6 -7492.2 -34489.7)
(-35149.4 -14726.3 -40171.5)
(-31247.5 -18511.1 -41157.4)
(-25429.5 -20915.3 -40078.2)
(-19429.7 -22350.5 -38756.3)
(-14024.2 -22979.3 -38049.3)
(-9671.8 -23204.3 -38344.4)
(-7611.49 -24034.3 -39677.2)
(-3037.41 -7177.58 -48562.8)
(-8944.24 -12223 -52917.8)
(-4391.55 -15394.3 -55074)
(2749.63 -17506.5 -59118.2)
(12193.8 -18565 -65703.5)
(21654.9 -16548.5 -68465.6)
(27428.2 -11366.5 -65333.1)
(29364.2 -6304.72 -59537.2)
(29024.5 -4580.91 -46432.3)
(23012.1 1517.16 -68266.4)
(20396 3545.52 -76062.4)
(17321.2 6551.19 -85170.9)
(13975.9 8546.29 -92131.9)
(10700.4 9276.39 -94490.4)
(7922.47 9548.36 -92844.6)
(5615.13 9907.76 -89046.6)
(3476.19 10040.6 -84291.7)
(4451.92 6946.2 -78339)
(12557.4 11530.8 -76963.6)
(7957.78 9608.9 -76890.9)
(3017.8 9646.38 -77579)
(-2796.55 10627.6 -80977.4)
(-9078.75 9494.07 -74287.5)
(-14337 7295.06 -66285.4)
(-20327.2 5980.09 -68181.8)
(-24145.1 3190.85 -65741.6)
(-26724.2 1400.77 -64970.7)
(-25771.9 522.915 -65075.5)
(-24336.5 -3367.08 -72474.5)
(-25100.9 -9439.91 -86455.3)
(-24537.4 -13550 -97873.1)
(-20701 -14369.4 -99380)
(-15781.2 -13711.8 -94586.1)
(-11656.7 -13310 -88505.1)
(-9055.86 -14026.3 -83360.5)
(-10121.1 -17628.5 -80405.4)
(-1569.82 -2180.93 -69536.1)
(-8655.48 2319.52 -69563)
(-7290.55 1869.55 -67812.4)
(-3069.55 1525.5 -63684.1)
(1342.81 539.691 -66586.4)
(7156.95 -12.4882 -71480.3)
(13781.9 978.508 -72001.8)
(19332.1 2610.81 -66663.6)
(23255 2292.81 -64977.5)
)
;
    }
    outside
    {
        type            calculated;
        value           nonuniform List<vector> 
540
(
(31071 2110.09 3200.61)
(30086.4 6476.79 6637.91)
(25730.1 9073.6 11095.8)
(19361.9 8302.81 14998.1)
(12152.7 3105.97 16851.2)
(4343.09 -8315.38 14523.9)
(-2484.32 -27787.6 5512.32)
(-5326.81 -57453.7 -14040.7)
(5977.88 -83119.1 -38480.6)
(-4532.81 -86923.8 -38100)
(8068.31 -61818.4 -14261.8)
(7165.38 -33477.2 3419.92)
(1226.51 -13237.7 12359)
(-6271 -875.488 15303.8)
(-13605.9 5299.74 14472.3)
(-20585.3 7194.3 11737.6)
(-26372.8 5792.32 8593.16)
(-30344.8 2344.84 6795.17)
(-30607.2 -1947.83 7072.93)
(-26863.8 -5551.23 9325.77)
(-20677.9 -6947.12 12485.1)
(-13692.4 -5193.22 14841.4)
(-7181.34 -99.4495 15361.2)
(-1200.29 9374.65 13199.8)
(3658.58 25087.3 7250.23)
(6094.72 51428.9 -5977.15)
(-3621.21 77134 -24561.1)
(4535.2 86961.9 -32354.7)
(-8624.47 66174.2 -15254.1)
(-9909.26 39393.4 -569.287)
(-5138.07 18305.1 7625.95)
(2229.94 4254.74 10198)
(10008.1 -3453.41 8861.75)
(17661.7 -6395.33 5784.72)
(24328.3 -5598.86 2867.65)
(28842.3 -2292.81 1819.52)
(8744.61 990.793 -1727.32)
(11064.5 3241.2 219.321)
(11278 5085.3 3388.51)
(10705.1 5613.72 7360.43)
(10450.9 4998.54 11457.5)
(10044.1 3126.26 14609.9)
(9274.99 -421.796 15832)
(7192.25 -9272.36 12239.8)
(10152.6 -17720.7 4170.17)
(-9118.39 -19340.6 4916.77)
(-6891.76 -7132.66 14868.9)
(-8822.17 886.711 17696.6)
(-10132.4 4273.43 16575)
(-11046.3 5595.82 13684)
(-11697.5 5639.76 9901.25)
(-12705.1 4944.75 6133.55)
(-13362.9 3309.46 3114.91)
(-13316 1192.08 1586.25)
(-13317.9 -932.252 1729.9)
(-14372.5 -3237.6 3503.93)
(-13620.5 -5127.57 6334.68)
(-12061.6 -6035.67 9371.11)
(-10858.4 -6269.1 12036.8)
(-9764.19 -5658.78 14012.3)
(-8556.68 -3640.37 15160)
(-5729.72 4622.75 13200.2)
(-7212.56 14487.4 7498.79)
(8283.55 20948.5 2805.4)
(5316.3 11224.2 9437.16)
(5804.62 3801.67 11729.3)
(6266.76 0.858592 11015.9)
(6662.92 -2196.33 8438.24)
(6913.45 -3192.95 4781.67)
(7540.84 -3304.94 1226.85)
(8082.36 -2371.81 -1304.82)
(7454.2 -708.598 -2271.28)
(1106.05 1041.31 -3948.33)
(5687.51 2888.02 -2864.98)
(6337.94 4507.82 -648.877)
(5345.04 4815.91 2214.96)
(4607.18 4052.2 5163.76)
(4365.28 2546.38 7762.49)
(4479.39 695.681 9845.79)
(3836.69 -2949.54 10611.3)
(6552.08 -5817.37 9633.24)
(-7323.09 -11557.1 8239.7)
(-3103.31 -8364.3 10869.1)
(-3934.81 -3173.42 11841.1)
(-4216.75 -461.987 10902.1)
(-4841.28 1643.27 8946.1)
(-5521.16 2693.29 6092.79)
(-6201.31 2798.44 3035.13)
(-6082.79 1877.21 583.827)
(-4223.38 403.407 -745.915)
(-3650.12 -794.532 -873.33)
(-6552.56 -2365.82 15.2407)
(-6998.18 -3838.94 1605.71)
(-5852.2 -4397.91 3423.13)
(-4837.04 -4326.06 5064.33)
(-4190.02 -3779.44 6507.9)
(-3825.88 -3019.75 8076.63)
(-2497.44 -143.517 9479.64)
(-3266.78 2689.58 10642.8)
(6970.66 11831 7051.52)
(1871.38 11604.2 7194.26)
(944.228 6711.24 7113.27)
(183.888 4002.32 6308.45)
(471.292 1226.37 4679.75)
(1164.47 -726.202 1990.31)
(1776.06 -1542.95 -945.599)
(1983.33 -1220.28 -3129.61)
(-113.758 34.7817 -4032.12)
(-5329.56 1211.66 -4408.04)
(953.097 2494.28 -4312.93)
(2347.13 3917.67 -2949.27)
(1389.62 4495.64 -1234.23)
(957.142 4762.62 469.255)
(1690.68 5211.66 2775.94)
(2908.94 5975.34 6262.48)
(3317.77 6366.21 10813.5)
(4626.57 6560.14 15080.9)
(-8202.65 1687.58 15738.7)
(-2986.41 -2201.92 12754.6)
(-3564.49 690.597 10142.6)
(-2025.58 -368.792 7499.89)
(-925.205 -83.7671 5524.14)
(-362.622 409.088 3518.31)
(-158.035 704.976 1377.27)
(716.642 340.767 -471.146)
(3890.98 -576.789 -1551.03)
(4335.49 -1041.75 -2041.31)
(-142.395 -2048.65 -2294.99)
(-2023.87 -3392.85 -1989.29)
(-1829.69 -4236.25 -1337.81)
(-1601.55 -4923.79 -545.725)
(-1792.39 -5787.98 738.407)
(-2114.18 -7089.69 3074.86)
(-1653.47 -8358.21 6863.69)
(-1081.61 -9498.06 12289.5)
(7398.43 -1387.66 12140.2)
(1916.87 5520.78 9622.62)
(495.691 2075.76 5832.93)
(-2175.1 3252.94 3397.88)
(-3564.45 2563.57 1961.78)
(-3608 1153.54 315.2)
(-3172.81 87.1556 -1741.13)
(-3340.44 -24.637 -3500.06)
(-6387.1 831.765 -4156.07)
(-9992.32 1548.89 -4744.84)
(-3918.79 2335.86 -5661.71)
(-1516.73 3630.55 -5290.58)
(-1753.94 4578.08 -4485.27)
(-1655.11 5591.23 -3572.3)
(-479.221 6844.75 -1398.9)
(1041.67 8072.23 2819.72)
(2148.72 9530.5 8780.49)
(3229.3 10431.7 14911.8)
(-8468.3 4798.06 17001)
(-2533.14 -886.013 13998.2)
(-3021.96 3236.92 8968.86)
(-590.902 149.241 4942.06)
(1782.97 -870.558 2517.36)
(3810.51 -1145.73 951.046)
(5258.32 -1013.96 -424.998)
(7128.52 -1154.38 -1671.02)
(10511.3 -1615.36 -2429.12)
(10362.5 -1575.18 -3320.4)
(5177.84 -2155 -4744.97)
(1949.83 -3447.8 -5583.15)
(1156.22 -4543.39 -5726.9)
(845.557 -5562.21 -5365.99)
(360.067 -6760.74 -4113.69)
(-125.34 -8322.72 -1502.15)
(-240.398 -10784.3 2749.52)
(437.488 -13062.5 9195.03)
(6521.36 -4866.82 11624)
(2187.16 2616.68 11491.1)
(-82.2749 -742.129 5090.76)
(-3476.96 1767.22 1240.93)
(-6153.49 2600.24 -524.544)
(-7349.26 2081.42 -1530.26)
(-7460.73 1185.87 -2719.43)
(-8240.97 996.402 -3830.3)
(-11039 1496.51 -4166.98)
(-12622.1 1853.91 -5582.35)
(-7440.22 2436.75 -7247.88)
(-4396.63 3681.26 -7761.52)
(-3848.36 4859.87 -7515.8)
(-3256.54 6199.25 -6875.89)
(-1879.7 7702.85 -4638.53)
(-289.567 8943.29 -34.0549)
(1141.28 10417.8 6340.67)
(2394.87 10769.9 13031.2)
(-7764.14 4795.19 15672.6)
(-3150.95 2518.52 15144.1)
(-2666.83 5395.32 8176.99)
(-134.524 1359.66 3297.71)
(2826.95 -695.926 294.828)
(5869.63 -1707.81 -1341.3)
(8537.39 -2052.4 -2352.36)
(11295.1 -2313.72 -3127.82)
(14180.4 -2478.6 -3684.22)
(13395.4 -2137.89 -4973.74)
(8343.19 -2469.75 -7230.59)
(4435.68 -3704.31 -8834.56)
(2960.94 -4913.44 -9340.24)
(2345.69 -5991.85 -9052.46)
(1783.4 -7167.68 -7792.09)
(1255.11 -8671.98 -5254.1)
(918.393 -11139.2 -1309.29)
(1432.51 -13574.7 4850.48)
(4686.61 -7696.47 8988.38)
(3444.62 -3516.9 11817.5)
(-533.329 -2202.36 4985.1)
(-3596.82 -418.827 -99.9282)
(-6793.73 1394.95 -2464.48)
(-8972.58 1790.7 -3456.64)
(-10149.1 1549.65 -4093.52)
(-11684.4 1616.14 -4525.97)
(-13814.2 1897.41 -4649.04)
(-13744.6 1971.73 -6745.34)
(-9316.97 2529.44 -8921.71)
(-6036.32 3777.54 -9961.35)
(-4960.3 5059.68 -9893.34)
(-4071.7 6477.19 -9195.36)
(-2642.88 8041.43 -6872.81)
(-1070.39 9345.97 -2215.01)
(417.285 10793.2 4092.99)
(1732.44 10960.9 10991.5)
(-6927.32 6334.41 14272.9)
(-4408.21 7749.06 15481.6)
(-2387.97 6947.05 7560.39)
(-232.432 2970.87 2219.79)
(2835.73 -85.5572 -1020.45)
(6092.42 -1638.77 -2907.56)
(9349.32 -2494.04 -3888.93)
(12514.7 -3000.62 -4440.85)
(14871.2 -3008.29 -5025.91)
(13875 -2535.5 -6668.71)
(9486.53 -2732.78 -9285.91)
(5593.17 -3846.96 -11164)
(3833.93 -5039.24 -11707.6)
(3102.97 -6070.86 -11365.1)
(2548.84 -7168.14 -10212.1)
(2009.69 -8670.98 -8097.55)
(1639.89 -11129 -4934.79)
(2069.34 -14361.4 85.8377)
(2959.22 -12441.8 5606.96)
(4745.3 -9610.04 10458.3)
(-635.738 -2539.54 5955.6)
(-2988.9 -2739.8 -644.48)
(-6108.48 -317.445 -3535.22)
(-8562.81 717.691 -4901.89)
(-10606.5 1241.99 -5406.43)
(-12944.2 1765.14 -5381.78)
(-14905 2020.06 -5424.83)
(-13685.5 1876.73 -7521.95)
(-9952.84 2431.3 -9925.73)
(-6723.92 3655.72 -11137.4)
(-5306.36 5010.72 -11081)
(-4244.63 6482.9 -10303.2)
(-2858.72 8102.9 -8053.25)
(-1356.12 9634.74 -3720.52)
(117.676 11559.4 2034.62)
(1631.48 13423.8 8436.61)
(-6480.71 11231.2 12656.3)
(-5890.77 12286.8 14978.5)
(-1768.12 6695.18 7610.89)
(-808.683 5242.7 1281.75)
(2390.17 796.651 -1634.9)
(5412.42 -1263.93 -3532.15)
(8702.66 -2550.41 -4495.39)
(11927.4 -3242.58 -5022.22)
(14036.1 -3172.63 -5827.51)
(13191.3 -2682.03 -7717.2)
(9540.13 -2777.32 -10293)
(5898.45 -3714.01 -12077.4)
(4029.22 -4831.88 -12534.7)
(3259.04 -5819.21 -12204.2)
(2772.64 -6844.93 -11341)
(2300.03 -8324.4 -9927.85)
(2007.36 -10761.2 -7857.3)
(2324.2 -14888 -4553.55)
(1603.69 -14980.5 2630.65)
(5641.94 -12699 9173.77)
(779.687 -4982.04 7662.64)
(-1965.12 -4893.51 -220.903)
(-4837.87 -2146.88 -3679.8)
(-7167.77 -577.618 -5388.99)
(-9500.99 525.971 -6003.98)
(-12319.9 1452.27 -5839.88)
(-14488.7 1836.48 -5919.63)
(-13338.4 1588.66 -7105.69)
(-10153.4 2097.87 -9322.35)
(-7067.01 3224.26 -10493.8)
(-5354.11 4617.25 -10582)
(-4140.61 6145.98 -9957.91)
(-2870.68 7757.83 -7988.72)
(-1540.25 9355.6 -4188.53)
(-182.077 11401.5 905.192)
(1813.66 14475.4 6463.09)
(-6456.65 11956.9 11672.6)
(-6526.42 12268.1 14579.9)
(-1739.02 7465.18 8275.73)
(-1697.66 8186.3 69.681)
(1846.58 2049.08 -2068.17)
(4804.18 -755.972 -3402.42)
(8080.1 -2411.95 -3979.2)
(11348.2 -3166.91 -4419.9)
(13322 -3014.67 -5459.94)
(12548.2 -2533.47 -7426.67)
(9371.66 -2515.15 -9650.28)
(5888.53 -3231.46 -11169.3)
(3918.27 -4230.87 -11606.6)
(3131.08 -5157.69 -11466.9)
(2764.55 -6061.33 -11056.7)
(2447.24 -7331.75 -10434.3)
(2297.53 -9422.74 -9457.63)
(2661.27 -13044.7 -7558.86)
(706.11 -13437.9 1994.18)
(6824.59 -15165.5 9028.33)
(4238.41 -11134 8892.49)
(-1273.88 -5768.78 2090.66)
(-3661.57 -3862.69 -2868.3)
(-6067.23 -1728.22 -4757.3)
(-8539.5 -236.946 -5492.62)
(-11600.9 925.259 -5355.22)
(-13864.8 1430.88 -5516.31)
(-13673.2 1259.98 -4532.71)
(-10700.3 1665.59 -6343.26)
(-7689.17 2616.41 -7566.7)
(-5666.17 3929.22 -8128.44)
(-4255.22 5408.65 -7969.47)
(-3050.03 6907.14 -6475.95)
(-1874.71 8381.76 -3295.71)
(-639.589 10160 1207.15)
(1810.39 12723.4 6338.68)
(-7123.81 8576.82 13911.4)
(-6940.16 11850.3 16473.3)
(-3611.93 13464.3 7965.69)
(-2766.33 11464.7 -1686.25)
(1219.48 3821.35 -2949.92)
(4625.48 -148.411 -2969.87)
(8125.77 -2182.43 -2544.83)
(11514 -2913.42 -2449.72)
(13460.4 -2691.49 -3235.28)
(12493.9 -2164 -4982.95)
(9443.19 -2009.07 -6754.37)
(5993.36 -2475.69 -8148.84)
(3941.66 -3282.69 -8825.84)
(3161.14 -4063.65 -9105.45)
(2911.87 -4757.15 -9276.29)
(2753.1 -5673.36 -9464.66)
(2720.58 -7261.56 -9612.88)
(3162.6 -10047.8 -9121.15)
(411.895 -10836.2 3850.55)
(8828.76 -15516.8 12113.9)
(7889.66 -14948.9 12153.2)
(-78.9331 -6911.96 6536.52)
(-2726.56 -5549.63 -886.739)
(-5685.68 -2777.48 -3089.94)
(-8565.24 -898.45 -3788.39)
(-11902.4 467.571 -3444.67)
(-14222.1 1077.99 -3327.82)
(-13828.3 1084.47 349.944)
(-11706.9 1443.38 -777.921)
(-8852.14 2075.09 -2410.15)
(-6649.2 3057.45 -3666.5)
(-4999.25 4263.95 -4163.15)
(-3650.9 5578.21 -3355.29)
(-2389.83 7010.75 -1034.23)
(-1046.21 8848.73 2505.09)
(1962.2 11277.2 6680.51)
(-9198.67 9424.36 20801.9)
(-9734.68 16257.6 24876)
(-5926.01 18968.4 10273.1)
(-2802.12 12312 -1972.59)
(-47.8643 6299.79 -4590.02)
(4258.81 655.581 -2492.52)
(8000.13 -1854.25 -529.675)
(11557.8 -2674.9 949.688)
(13049.4 -2340 878.076)
(12046.6 -1785.91 -196.964)
(9713.29 -1556.29 -1330.48)
(6491.14 -1712.09 -3017.49)
(4502.2 -2187.72 -4260.68)
(3752.77 -2671.71 -5125.01)
(3549.97 -3043.07 -5919.12)
(3457.18 -3505.77 -6862.26)
(3432.2 -4459.79 -8046.19)
(3753.21 -6321.25 -8961.49)
(-224.897 -7558.03 7569.23)
(10896.4 -12181.5 20524)
(13064.5 -17313.1 22251.9)
(4801.56 -12747 12732.1)
(-2664.34 -6378.65 4419.04)
(-5669.84 -3874.86 -195.937)
(-9135.52 -1410.48 -603.898)
(-12620.5 223.269 442.099)
(-14380.9 868.006 896.965)
(-13118.7 1228.87 7390.39)
(-11615.4 1398.12 6142.35)
(-9600.36 1647.49 4359.83)
(-7692.76 2122.84 2710.25)
(-5906.34 2909.71 1584.9)
(-4254.75 4059.89 1495.72)
(-2694.7 5607.77 2687.12)
(-1050.59 7686.91 4981.46)
(2260.32 9244.49 8360.19)
(-13762.2 14647 38924.4)
(-13601.4 19486.6 46901.2)
(-6371.95 19208.5 22385.4)
(-4535.32 15185.7 -1071.08)
(-3934.24 10810.3 -7410.03)
(1729.58 2509.02 -1959.93)