/*--------------------------------*- C++ -*----------------------------------*\
| =========                 |                                                 |
| \\      /  F ield         | OpenFOAM: The Open Source CFD Toolbox           |
|  \\    /   O peration     | Version:  2312                                  |
|   \\  /    A nd           | Website:  www.openfoam.com                      |
|    \\/     M anipulation  |                                                 |
\*---------------------------------------------------------------------------*/
FoamFile
{
    version     2.0;
    format      ascii;
    arch        "LSB;label=32;scalar=64";
    class       volVectorField;
    location    "1";
    object      traction;
}
// * * * * * * * * * * * * * * * * * * * * * * * * * * * * * * * * * * * * * //

dimensions      [1 -1 -2 0 0 0 0];

internalField   uniform (0 0 0);

boundaryField
{
    fixed
    {
        type            calculated;
        value           nonuniform List<vector> 
108
(
(-6151.96 4876.78 -22629.2)
(2676.89 -3568.69 11447)
(12219.1 -8936.03 36743.7)
(18649.5 -11107 53628.6)
(21903.2 -12474.1 61667.2)
(23511.3 -13857 63039.4)
(24634.9 -14964.9 60228.1)
(25670 -15522.4 55403.4)
(26601.7 -15590.6 50141.6)
(27307.3 -15416.2 45280.6)
(27688.1 -15244.6 40814.7)
(27703.4 -15270 35705.6)
(27350.4 -15740.6 27697.5)
(26415.6 -16984.5 13367.7)
(23867.7 -18941.2 -10774.3)
(18315.5 -20108.8 -43383.2)
(11705.7 -17829.4 -68411.5)
(9513.66 -12501.5 -57598.6)
(6151.96 -4876.78 -22629.2)
(-2676.89 3568.69 11447)
(-12219.1 8936.03 36743.7)
(-18649.5 11107 53628.6)
(-21903.2 12474.1 61667.2)
(-23511.3 13857 63039.4)
(-24634.9 14964.9 60228.1)
(-25670 15522.4 55403.4)
(-26601.7 15590.6 50141.6)
(-27307.3 15416.2 45280.6)
(-27688.1 15244.6 40814.7)
(-27703.4 15270 35705.6)
(-27350.4 15740.6 27697.5)
(-26415.6 16984.5 13367.7)
(-23867.7 18941.2 -10774.3)
(-18315.5 20108.8 -43383.2)
(-11705.7 17829.4 -68411.5)
(-9513.66 12501.5 -57598.6)
(1718.91 -5751.64 -47172)
(-499.094 -18291.1 -20905.6)
(-450.87 -24191.7 7332.84)
(277.463 -25700.9 30106.6)
(626.684 -26048.4 45897.3)
(900.346 -26569.5 55872.9)
(1451.82 -27245.6 61129.5)
(2254.92 -27799.6 62569.1)
(3115.53 -28085.1 60923.2)
(3824.84 -28123.9 56549.4)
(4227.01 -28101.3 49394.3)
(4276.85 -28329.3 39028.3)
(3995.89 -29056.5 24515.6)
(3164.08 -30074.3 4241.85)
(944.23 -30283.1 -22868.4)
(-3348.47 -27825.2 -52858.3)
(-7103.56 -21221.7 -72598.9)
(-5422.08 -9631.3 -67023.2)
(-1718.91 5751.64 -47172)
(499.094 18291.1 -20905.6)
(450.87 24191.7 7332.84)
(-277.463 25700.9 30106.6)
(-626.684 26048.4 45897.3)
(-900.346 26569.5 55872.9)
(-1451.82 27245.6 61129.5)
(-2254.92 27799.6 62569.1)
(-3115.53 28085.1 60923.2)
(-3824.84 28123.9 56549.4)
(-4227.01 28101.3 49394.3)
(-4276.85 28329.3 39028.3)
(-3995.89 29056.5 24515.6)
(-3164.08 30074.3 4241.85)
(-944.231 30283.1 -22868.4)
(3348.47 27825.2 -52858.3)
(7103.56 21221.7 -72598.9)
(5422.08 9631.3 -67023.2)
(-4768.79 -9502.23 -59621.3)
(-13580.5 -15146.2 -50713.7)
(-18981.8 -18231.5 -35747.7)
(-21716.7 -19158.6 -17102.4)
(-23922.3 -18848.2 1291.11)
(-26265.4 -18468.4 17324.3)
(-28039.5 -18663.9 29507.8)
(-28470.8 -19269.7 36738.7)
(-27472.7 -19707.5 38451.8)
(-25638.2 -19620.6 34468.5)
(-23781.2 -19270.6 24826.2)
(-22313.5 -19306.5 9675.3)
(-21024.7 -19819.7 -10660.8)
(-19721.3 -19605.1 -34900.3)
(-18781.8 -17047.5 -58876.9)
(-17811.8 -12072 -75082.4)
(-14002.4 -5784.68 -78007.7)
(-5580.59 1747.36 -70200.9)
(4768.79 9502.23 -59621.3)
(13580.5 15146.2 -50713.7)
(18981.8 18231.5 -35747.7)
(21716.7 19158.6 -17102.4)
(23922.3 18848.2 1291.11)
(26265.4 18468.4 17324.3)
(28039.5 18663.9 29507.8)
(28470.8 19269.7 36738.7)
(27472.7 19707.5 38451.8)
(25638.2 19620.6 34468.5)
(23781.2 19270.6 24826.2)
(22313.5 19306.5 9675.3)
(21024.7 19819.7 -10660.8)
(19721.3 19605.1 -34900.3)
(18781.8 17047.5 -58876.8)
(17811.8 12072 -75082.4)
(14002.4 5784.68 -78007.7)
(5580.59 -1747.36 -70200.9)
)
;
    }
    inside
    {
        type            calculated;
        value           nonuniform List<vector> 
540
(
(14877.8 -18928.4 39322.2)
(11525.7 -7304.91 40554.5)
(2717.26 1972.91 36988.7)
(-9367.98 5777.43 30737.2)
(-19615.7 4531.94 24602.7)
(-25414.5 60.026 19305)
(-26088.4 -5413.31 14632.7)
(-22081.9 -9598.18 10299.3)
(-14760.4 -10518.3 6212.63)
(-6255.88 -6787.75 2557.18)
(758.812 2098.68 -144.406)
(3481.52 15401 -925.284)
(-269.028 30778.8 1679.26)
(-10612.8 44170.5 9081.25)
(-23619.7 50747.2 20721.4)
(-31721.2 48188.5 32100.9)
(-29998.2 39545 37806.7)
(-21815 29449.9 38517.6)
(-14877.8 18928.4 39322.2)
(-11525.7 7304.91 40554.5)
(-2717.26 -1972.91 36988.7)
(9367.98 -5777.43 30737.2)
(19615.7 -4531.94 24602.7)
(25414.5 -60.0261 19305)
(26088.4 5413.31 14632.7)
(22081.9 9598.18 10299.3)
(14760.4 10518.3 6212.63)
(6255.88 6787.75 2557.18)
(-758.812 -2098.68 -144.406)
(-3481.52 -15401 -925.284)
(269.028 -30778.8 1679.26)
(10612.8 -44170.5 9081.25)
(23619.7 -50747.2 20721.4)
(31721.2 -48188.5 32100.9)
(29998.2 -39545 37806.7)
(21815 -29449.9 38517.6)
(11436.1 -21479.4 51115.7)
(18636.7 -558.804 51211.6)
(17207.4 14782.5 45320.5)
(9939.06 23881.8 37273.5)
(-190.212 25792.9 29228.3)
(-8363.74 22904.2 22598.7)
(-12361 18396.4 17204.8)
(-12172 14665.5 12496.5)
(-8900.19 13308.7 8163.99)
(-4257.54 15014 4211.76)
(-27.0079 19330.8 882.068)
(2680.24 24719.5 -1476.98)
(3953.67 29214.8 -2524.6)
(4603.78 31823.3 -1876.75)
(4850.17 33188.3 1162.45)
(4421.48 34385.3 7563)
(1685.44 37021.1 19708.3)
(-1274.08 36948.5 37470.4)
(-11436.1 21479.4 51115.7)
(-18636.7 558.804 51211.6)
(-17207.4 -14782.5 45320.5)
(-9939.06 -23881.8 37273.5)
(190.212 -25792.9 29228.3)
(8363.74 -22904.2 22598.7)
(12361 -18396.4 17204.8)
(12172 -14665.5 12496.5)
(8900.19 -13308.7 8163.99)
(4257.54 -15014 4211.76)
(27.0079 -19330.8 882.068)
(-2680.24 -24719.5 -1476.98)
(-3953.67 -29214.8 -2524.6)
(-4603.78 -31823.3 -1876.75)
(-4850.17 -33188.3 1162.45)
(-4421.48 -34385.3 7563)
(-1685.44 -37021.1 19708.3)
(1274.08 -36948.5 37470.4)
(59197.3 9250.81 59553.4)
(41663.1 23815.2 54453)
(35083.7 34712.6 44116.4)
(24009.2 40405.6 33921.5)
(11515 39957.5 25631.1)
(2185.3 36477 19544.5)
(-2572.77 32870.3 14705.3)
(-3449.43 30771.4 10299.3)
(-1861.53 31064.2 5991.14)
(452.327 33766.5 1875.02)
(1989.61 37740.4 -1645.42)
(2236.85 41178.9 -4072.21)
(1733.35 42903.3 -4977.25)
(1074.81 43233 -3870.2)
(407.392 42968.9 -134.514)
(1610.97 41733.8 5611.09)
(2188.14 43188.7 13300.6)
(-37160.2 46034.3 35832.2)
(-59197.3 -9250.81 59553.4)
(-41663.1 -23815.2 54453)
(-35083.7 -34712.6 44116.4)
(-24009.2 -40405.6 33921.5)
(-11515 -39957.5 25631.1)
(-2185.3 -36477 19544.5)
(2572.77 -32870.3 14705.3)
(3449.43 -30771.4 10299.3)
(1861.53 -31064.2 5991.14)
(-452.327 -33766.5 1875.02)
(-1989.61 -37740.4 -1645.42)
(-2236.85 -41178.9 -4072.21)
(-1733.35 -42903.3 -4977.26)
(-1074.81 -43233 -3870.2)
(-407.391 -42968.9 -134.515)
(-1610.97 -41733.8 5611.09)
(-2188.14 -43188.7 13300.6)
(37160.2 -46034.3 35832.2)
(19100.6 33559.2 21202.2)
(30557.6 37679.2 28422)
(28438.9 42076.7 26158.1)
(21994.2 45115.4 22166.6)
(13373.9 44368.2 17860.8)
(6649.89 41669.9 13942.9)
(3519.56 39403.4 10151.2)
(3489.26 38893.4 6079.64)
(5094.01 40420.8 1663.24)
(6713.27 43235.5 -2727.78)
(7373.09 45822 -6450.16)
(7193.36 46794.6 -8917.74)
(6821.65 46085 -9820.79)
(6476 44653.8 -8933.33)
(6993.84 41463.7 -6382.2)
(11700.1 32853.2 -4649.39)
(24043 15231.5 -8694.7)
(15976.3 -13118.8 -4718.72)
(-19100.6 -33559.2 21202.2)
(-30557.6 -37679.2 28422)
(-28438.9 -42076.7 26158.1)
(-21994.2 -45115.4 22166.6)
(-13373.9 -44368.2 17860.8)
(-6649.89 -41669.9 13942.9)
(-3519.56 -39403.4 10151.2)
(-3489.26 -38893.4 6079.64)
(-5094.01 -40420.8 1663.24)
(-6713.27 -43235.5 -2727.78)
(-7373.09 -45822 -6450.16)
(-7193.36 -46794.6 -8917.74)
(-6821.65 -46085 -9820.79)
(-6476 -44653.8 -8933.33)
(-6993.84 -41463.7 -6382.2)
(-11700.1 -32853.2 -4649.39)
(-24043 -15231.5 -8694.7)
(-15976.3 13118.8 -4718.72)
(-15197.9 34996 591.78)
(2388.76 37412.7 9169.83)
(8170.09 39598.3 11625.2)
(8189.78 41304.2 12262.3)
(6472.36 41527.9 11676.4)
(5285.78 40715.9 9859.44)
(5919.96 40246.5 6998.66)
(8307.33 41145.5 3183.44)
(11206 43189.4 -1274.94)
(13332.7 45128.4 -5686.51)
(14342.6 45838.3 -9304.23)
(14665.8 45058.8 -11697.5)
(14519.5 43452.4 -12870.4)
(13454 41766.6 -12847.8)
(12588.6 37272 -11494.4)
(15352.7 24812.6 -10425.6)
(24377.9 2478.94 -12309.8)
(30067.8 -23120.3 -11794.3)
(15197.9 -34996 591.78)
(-2388.76 -37412.7 9169.83)
(-8170.09 -39598.3 11625.2)
(-8189.78 -41304.2 12262.3)
(-6472.36 -41527.9 11676.4)
(-5285.78 -40715.9 9859.44)
(-5919.96 -40246.5 6998.66)
(-8307.33 -41145.5 3183.44)
(-11206 -43189.4 -1274.94)
(-13332.7 -45128.4 -5686.51)
(-14342.6 -45838.3 -9304.23)
(-14665.8 -45058.8 -11697.5)
(-14519.5 -43452.4 -12870.4)
(-13454 -41766.6 -12847.8)
(-12588.6 -37272 -11494.4)
(-15352.7 -24812.6 -10425.6)
(-24377.9 -2478.94 -12309.8)
(-30067.8 23120.3 -11794.3)
(-30474.8 34790.5 -7564.95)
(-19117.9 36525.5 128.517)
(-11522.4 36537.1 4441.14)
(-7039.29 37312.4 7082.09)
(-2892.68 38420.5 8392.84)
(1511.12 39283 7858.33)
(6316.3 40239.4 5655.79)
(11487.8 41837.5 2156.45)
(16087.5 43521.9 -2045.07)
(19257.3 44067 -6110.23)
(21076.1 43027.5 -9406.93)
(21984.1 40889.5 -11808.6)
(21760.8 38371.5 -13726.7)
(19766.8 35741.9 -15341)
(17800.6 29766.3 -15731.1)
(20035.1 15498.9 -15283.4)
(28060.7 -5262.04 -15251.3)
(35031.3 -24199.1 -14167.6)
(30474.8 -34790.5 -7564.95)
(19117.9 -36525.5 128.517)
(11522.4 -36537.1 4441.14)
(7039.29 -37312.4 7082.09)
(2892.68 -38420.5 8392.84)
(-1511.12 -39283 7858.33)
(-6316.3 -40239.4 5655.79)
(-11487.8 -41837.5 2156.45)
(-16087.5 -43521.9 -2045.07)
(-19257.3 -44067 -6110.23)
(-21076.1 -43027.5 -9406.93)
(-21984.1 -40889.5 -11808.6)
(-21760.8 -38371.5 -13726.7)
(-19766.8 -35741.9 -15341)
(-17800.6 -29766.3 -15731.1)
(-20035.1 -15498.9 -15283.4)
(-28060.7 5262.04 -15251.3)
(-35031.3 24199.1 -14167.6)
(-42373.1 32554.8 -7662.56)
(-34946.1 34609.7 -2508.76)
(-26454.7 34940.2 1588.24)
(-18757.3 35985.6 4423.52)
(-10743.1 37817.2 6114.51)
(-2428.8 39483.2 6140.75)
(5561.96 40820.3 4467.04)
(12956.7 42026.9 1482.36)
(19095.5 42557.7 -2146.08)
(23457.6 41614.3 -5636.9)
(26196 39179.6 -8534.7)
(27566.8 35776 -10946.8)
(27216.6 31811.1 -13526.5)
(25030.6 27160.5 -16319.4)
(23506 19148.5 -17720)
(26591 4662.97 -17052.8)
(34863.4 -12783.4 -14940.8)
(42515.2 -25808.2 -11908)
(42373.1 -32554.8 -7662.56)
(34946.1 -34609.7 -2508.76)
(26454.7 -34940.2 1588.24)
(18757.3 -35985.6 4423.52)
(10743.1 -37817.2 6114.51)
(2428.8 -39483.2 6140.75)
(-5561.96 -40820.3 4467.04)
(-12956.7 -42026.9 1482.36)
(-19095.5 -42557.7 -2146.08)
(-23457.6 -41614.3 -5636.9)
(-26196 -39179.6 -8534.7)
(-27566.8 -35776 -10946.8)
(-27216.6 -31811.1 -13526.5)
(-25030.6 -27160.5 -16319.4)
(-23506 -19148.5 -17720)
(-26591 -4662.97 -17052.8)
(-34863.4 12783.4 -14940.8)
(-42515.2 25808.2 -11908)
(-51184.7 30238.3 -3250.01)
(-45371.6 31052.9 -574.82)
(-36668.4 32630 1479.96)
(-27054.9 35073 3069.88)
(-16735.9 37669.2 4147.87)
(-6170.23 39405.1 4255.58)
(3801.84 40145.7 3059.77)
(12731.8 40158.6 722.976)
(20145.1 39220.1 -2202.43)
(25679.6 36970.5 -5070.79)
(29364.4 33450.8 -7541.32)
(31255 28875.1 -9820.28)
(31175.5 23343.3 -12529.4)
(29783.3 16577.9 -15377.4)
(29798.1 6950.89 -16541)
(34265.4 -6577.79 -14995.2)
(42928.1 -20168.3 -11288.4)
(50449.1 -28036.1 -6885.49)
(51184.7 -30238.3 -3250.01)
(45371.6 -31052.9 -574.82)
(36668.4 -32630 1479.96)
(27054.9 -35073 3069.88)
(16735.9 -37669.2 4147.87)
(6170.23 -39405.1 4255.58)
(-3801.84 -40145.7 3059.77)
(-12731.8 -40158.6 722.976)
(-20145.1 -39220.1 -2202.43)
(-25679.6 -36970.5 -5070.79)
(-29364.4 -33450.8 -7541.32)
(-31255 -28875.1 -9820.28)
(-31175.5 -23343.3 -12529.4)
(-29783.3 -16577.9 -15377.4)
(-29798.1 -6950.89 -16541)
(-34265.4 6577.79 -14995.2)
(-42928.1 20168.3 -11288.4)
(-50449.1 28036.1 -6885.49)
(-58581.3 28582.2 2974.31)
(-52694.7 27013.7 4024.52)
(-43615 28519.7 3892.27)
(-33050.2 32022.1 3593.51)
(-21571.5 35228.8 3495.34)
(-9861.21 36728.6 3288.97)
(1249.22 36531.5 2412.78)
(11231.9 35206.1 682.086)
(19689 32946.7 -1588.79)
(26296.9 29657.3 -3901.16)
(30938.5 25253.8 -5972.98)
(33557.5 19678.4 -7988.16)
(34297.7 12901.8 -10306.2)
(34385.4 4737.76 -12330.5)
(36327.3 -5436.05 -12474.7)
(42202.7 -17195.7 -9888.2)
(51120.7 -26887.1 -5199.27)
(58181 -30312.8 -250.047)
(58581.3 -28582.2 2974.31)
(52694.7 -27013.7 4024.52)
(43615 -28519.7 3892.27)
(33050.2 -32022.1 3593.51)
(21571.5 -35228.8 3495.34)
(9861.22 -36728.6 3288.97)
(-1249.22 -36531.5 2412.78)
(-11231.9 -35206.1 682.086)
(-19689 -32946.7 -1588.79)
(-26296.9 -29657.3 -3901.17)
(-30938.5 -25253.8 -5972.98)
(-33557.5 -19678.4 -7988.16)
(-34297.7 -12901.8 -10306.2)
(-34385.4 -4737.76 -12330.5)
(-36327.3 5436.05 -12474.7)
(-42202.7 17195.7 -9888.2)
(-51120.7 26887.1 -5199.27)
(-58181 30312.8 -250.047)
(-64975.4 27199.9 10143.6)
(-58528.4 23216.1 10048.6)
(-48919.2 23327.4 8402.84)
(-37840.2 26411.5 6535.43)
(-25876.3 29420 5213.48)
(-13668.3 30431.4 4405.35)
(-1945.55 29380.1 3550.11)
(8747.54 26973.2 2218.36)
(18027.5 23677.3 454.168)
(25589 19547.4 -1417.71)
(31223.2 14426.9 -3155.55)
(34859 8159.25 -4804.91)
(36931.8 714.195 -6368.04)
(38893.7 -7903 -7149)
(42825.9 -17555.4 -6020.27)
(49988.8 -26938.6 -2479.44)
(58984.9 -32726.8 2708.21)
(65309.7 -32151.8 7574.35)
(64975.4 -27199.9 10143.6)
(58528.4 -23216.1 10048.6)
(48919.2 -23327.4 8402.84)
(37840.2 -26411.5 6535.43)
(25876.3 -29420 5213.48)
(13668.3 -30431.4 4405.35)
(1945.55 -29380.1 3550.12)
(-8747.54 -26973.2 2218.36)
(-18027.5 -23677.3 454.169)
(-25589 -19547.4 -1417.71)
(-31223.2 -14426.9 -3155.55)
(-34859 -8159.25 -4804.91)
(-36931.8 -714.195 -6368.04)
(-38893.7 7903 -7149)
(-42825.9 17555.4 -6020.27)
(-49988.8 26938.6 -2479.44)
(-58984.9 32726.8 2708.21)
(-65309.7 32151.8 7574.35)
(-70188.4 25613 18299.5)
(-63344.1 19538.4 17278.5)
(-53422.5 17603.3 14709.7)
(-42100 18874 11879.8)
(-30010.3 20561.7 9630.21)
(-17691 20657.9 8139.9)
(-5747.96 18822.3 7038.57)
(5315.49 15581 5870.56)
(15162.7 11458.1 4470.59)
(23546.2 6643.42 2969.78)
(30247.1 1040.94 1582.8)
(35233.3 -5490.71 466.177)
(39077.8 -12951.1 -110.487)
(43143.4 -21111.6 446.797)
(48999.1 -29264.4 2802.63)
(57203.6 -35623.8 7081.71)
(65972.3 -37387.9 12332.6)
(71309.7 -33165.8 16624.3)
(70188.4 -25613 18299.5)
(63344.1 -19538.4 17278.5)
(53422.5 -17603.3 14709.7)
(42100 -18874 11879.8)
(30010.3 -20561.7 9630.21)
(17691 -20657.9 8139.9)
(5747.96 -18822.3 7038.57)
(-5315.49 -15581 5870.56)
(-15162.7 -11458.1 4470.59)
(-23546.2 -6643.42 2969.78)
(-30247.1 -1040.94 1582.8)
(-35233.3 5490.71 466.176)
(-39077.8 12951.1 -110.487)
(-43143.4 21111.6 446.797)
(-48999.1 29264.4 2802.63)
(-57203.6 35623.8 7081.71)
(-65972.3 37387.9 12332.6)
(-71309.7 33165.8 16624.3)
(-73320.1 23465.3 27905.3)
(-66618.8 15704 26155.3)
(-56977.2 11484.4 23082.2)
(-45886.3 10125.7 19770.2)
(-34054.5 9613.21 16945.5)
(-21993.6 8265.96 14893.6)
(-10230.5 5460.27 13500.5)
(825.555 1375.66 12433.5)
(10964.4 -3512.02 11404.5)
(20055.8 -8861.07 10363)
(27924.4 -14632.4 9498.56)
(34553.7 -20916.3 9122.03)
(40442.7 -27635.3 9608.61)
(46635.2 -34310.8 11365.8)
(54124.2 -39855.3 14658)
(62844.5 -42444.2 19236.4)
(70860.5 -40152 23995.4)
(74999.7 -32878.7 27259.1)
(73320.1 -23465.3 27905.3)
(66618.8 -15704 26155.3)
(56977.2 -11484.4 23082.2)
(45886.3 -10125.7 19770.2)
(34054.5 -9613.21 16945.5)
(21993.6 -8265.96 14893.6)
(10230.5 -5460.27 13500.5)
(-825.552 -1375.66 12433.5)
(-10964.4 3512.02 11404.5)
(-20055.8 8861.06 10363)
(-27924.4 14632.3 9498.55)
(-34553.7 20916.3 9122.03)
(-40442.7 27635.3 9608.62)
(-46635.2 34310.8 11365.8)
(-54124.2 39855.3 14658)
(-62844.5 42444.2 19236.4)
(-70860.5 40152 23995.4)
(-74999.7 32878.7 27259.1)
(-71882 20350.6 39751.2)
(-66200 11629.5 37607.4)
(-57837.9 5417.65 34436.6)
(-47902.7 1377.32 31043.8)
(-37102.6 -1666.54 28029.7)
(-25978.6 -4911.86 25773.9)
(-15001.2 -9059.72 24391)
(-4442.73 -14136.5 23668.9)
(5642.88 -19682.5 23228.2)
(15215.3 -25232.1 22865.8)
(24115.5 -30625.2 22725.3)
(32261 -35864.8 23163.7)
(39925.3 -40751.9 24526.9)
(47688.6 -44657.6 27009.9)
(55922.5 -46507.6 30539.6)
(64122.7 -45016.6 34597.4)
(70665.8 -39408.2 38148.6)
(73569 -30421.9 40046.3)
(71882 -20350.6 39751.2)
(66200 -11629.5 37607.4)
(57837.9 -5417.65 34436.6)
(47902.7 -1377.32 31043.8)
(37102.6 1666.54 28029.7)
(25978.6 4911.86 25773.9)
(15001.2 9059.72 24391)
(4442.73 14136.5 23668.9)
(-5642.88 19682.5 23228.2)
(-15215.2 25232.1 22865.8)
(-24115.5 30625.2 22725.3)
(-32261 35864.8 23163.7)
(-39925.3 40751.9 24526.9)
(-47688.6 44657.6 27009.9)
(-55922.5 46507.6 30539.6)
(-64122.7 45016.6 34597.4)
(-70665.8 39408.3 38148.6)
(-73569 30421.9 40046.3)
(-60408.4 15136.1 56253.5)
(-56616.9 7079.43 54163.6)
(-50739.2 353.26 51427)
(-43390.2 -5145.55 48570.1)
(-35099.4 -9956.05 46107.7)
(-26307.5 -14727.5 44475.1)
(-17335.3 -19855.9 43843.1)
(-8332.93 -25265.7 43968.5)
(662.342 -30548.2 44388.7)
(9553.23 -35294.5 44819.1)
(18165.8 -39303.6 45343.1)
(26352.6 -42465.6 46259.8)
(34156 -44535.8 47805.1)
(41694.1 -45037.3 49993.1)
(48876 -43376.7 52573.4)
(55164.6 -39125.3 55045.7)
(59656.3 -32379.2 56763.7)
(61513.2 -23952 57210.4)
(60408.4 -15136.1 56253.5)
(56616.9 -7079.43 54163.6)
(50739.2 -353.259 51427)
(43390.2 5145.55 48570.1)
(35099.4 9956.06 46107.7)
(26307.5 14727.5 44475.1)
(17335.3 19855.9 43843.1)
(8332.93 25265.7 43968.5)
(-662.34 30548.2 44388.7)
(-9553.23 35294.5 44819.1)
(-18165.8 39303.6 45343.1)
(-26352.6 42465.6 46259.8)
(-34156 44535.8 47805.1)
(-41694.1 45037.3 49993.1)
(-48876 43376.7 52573.4)
(-55164.6 39125.3 55045.7)
(-59656.3 32379.2 56763.8)
(-61513.2 23952 57210.4)
(-21802.7 4296.46 62370.4)
(-20033.3 1139.33 61422.1)
(-17439.3 -1315.22 60366.8)
(-14307.9 -3105.19 59459.8)
(-10903.9 -4435.8 58985.7)
(-7466.23 -5539.33 59065.9)
(-4228.8 -6618.36 59636.5)
(-1365.7 -7866.38 60449.1)
(1100.9 -9459.11 61290.7)
(3322.63 -11430.5 61962)
(5574.64 -13607 62359.2)
(8107.16 -15631.7 62541.2)
(11035.9 -17069.3 62663.9)
(14252.9 -17523.2 62877.1)
(17437.5 -16729.7 63165.9)
(20136.4 -14658.8 63395)
(21909.2 -11563.8 63389)
(22479.7 -7922.71 63050)
(21802.7 -4296.46 62370.4)
(20033.3 -1139.33 61422.1)
(17439.3 1315.22 60366.8)
(14307.9 3105.19 59459.8)
(10903.9 4435.8 58985.7)
(7466.23 5539.33 59065.9)
(4228.81 6618.36 59636.5)
(1365.7 7866.38 60449.1)
(-1100.9 9459.11 61290.7)
(-3322.63 11430.5 61962)
(-5574.63 13606.9 62359.2)
(-8107.16 15631.7 62541.2)
(-11035.9 17069.3 62663.9)
(-14252.9 17523.2 62877.1)
(-17437.5 16729.7 63165.9)
(-20136.4 14658.8 63395)
(-21909.2 11563.8 63389)
(-22479.7 7922.71 63050)
)
;
    }
    outside
    {
        type            calculated;
        value           nonuniform List<vector> 
540
(
(9243.35 -21215.5 -19151.6)
(36650.6 -15537.9 4008.1)
(49481.1 -3125.73 13432)
(51676.9 9416.16 15752.3)
(46083.2 18485.1 14679.8)
(35787 23460.7 11964.2)
(23401.4 24804.3 8460.89)
(10920 23448.3 4615.65)
(-385.302 20577.2 676.506)
(-9924.32 17280.6 -3157.29)
(-17505.5 14053.9 -6698.09)
(-22721.3 10384.9 -9888.21)
(-24137.2 4840.12 -13198.2)
(-18857.3 -3863.82 -18514.7)
(-4102.02 -14190.2 -29979.1)
(16966.7 -18547 -50313.8)
(31282.7 -7856.31 -67017.6)
(21352.9 11888 -52239.8)
(-9243.35 21215.5 -19151.6)
(-36650.6 15537.9 4008.1)
(-49481.1 3125.73 13432)
(-51676.9 -9416.16 15752.3)
(-46083.2 -18485.1 14679.8)
(-35787 -23460.7 11964.2)
(-23401.4 -24804.3 8460.89)
(-10920 -23448.3 4615.65)
(385.302 -20577.2 676.506)
(9924.32 -17280.6 -3157.29)
(17505.5 -14053.9 -6698.09)
(22721.3 -10384.9 -9888.21)
(24137.2 -4840.12 -13198.2)
(18857.3 3863.82 -18514.7)
(4102.02 14190.2 -29979.1)
(-16966.7 18547 -50313.8)
(-31282.7 7856.31 -67017.6)
(-21352.9 -11888 -52239.8)
(29978.5 -12918.3 -2490.83)
(40107.4 -10702.2 8548.3)
(42172.9 -4176.72 12267.7)
(39295.4 1224.16 12594.4)
(33428 4788.6 11732.1)
(25893 6391.5 10025.9)
(17602.4 6112.96 7560.49)
(9498.26 4766.56 4531.64)
(2141.05 3498.33 1165.47)
(-4433.85 3213.59 -2262.01)
(-10472.1 4173.2 -5396.82)
(-16100 5952.99 -7831.93)
(-21101.6 7695.29 -9211.18)
(-24941.3 8186.46 -9530.19)
(-27112.8 6031.19 -9971.96)
(-28832.4 1847.55 -13603.2)
(-29776.2 1030.33 -19186.5)
(-22632.3 6444.95 -15529.6)
(-29978.5 12918.3 -2490.83)
(-40107.4 10702.2 8548.3)
(-42172.9 4176.72 12267.7)
(-39295.4 -1224.16 12594.4)
(-33428 -4788.6 11732.1)
(-25893 -6391.5 10025.9)
(-17602.4 -6112.96 7560.49)
(-9498.26 -4766.56 4531.64)
(-2141.05 -3498.33 1165.47)
(4433.85 -3213.59 -2262.01)
(10472.1 -4173.2 -5396.82)
(16100 -5952.99 -7831.93)
(21101.6 -7695.29 -9211.18)
(24941.3 -8186.46 -9530.19)
(27112.8 -6031.19 -9971.96)
(28832.4 -1847.55 -13603.2)
(29776.2 -1030.33 -19186.5)
(22632.3 -6444.95 -15529.6)
(23601 -13665.8 10764.1)
(44481.4 -7675.43 17718.9)
(46343.8 222.633 15735)
(41712.2 4452.08 12773.8)
(35521.2 7475.58 10707)
(28815.8 9578.76 9093.53)
(21600.5 10508.7 7187.35)
(14077 10525.2 4745.1)
(6607.87 10317.4 1872.52)
(-582.401 10469.1 -1131.59)
(-7368.76 11061.6 -3848.38)
(-13516.4 11700.7 -5831.57)
(-18677.6 11716.2 -6752.73)
(-22606.4 9856.23 -6671.59)
(-25582.4 3731.6 -6713.36)
(-29967.2 -8070.04 -10236.4)
(-25451.5 -16240.6 -19943.4)
(-2404.9 -5790.67 -11724.8)
(-23601 13665.8 10764.1)
(-44481.4 7675.43 17718.9)
(-46343.8 -222.633 15735)
(-41712.2 -4452.08 12773.8)
(-35521.2 -7475.58 10707)
(-28815.8 -9578.76 9093.53)
(-21600.5 -10508.7 7187.35)
(-14077 -10525.2 4745.1)
(-6607.87 -10317.4 1872.52)
(582.401 -10469.1 -1131.59)
(7368.76 -11061.6 -3848.38)
(13516.4 -11700.7 -5831.57)
(18677.6 -11716.2 -6752.73)
(22606.4 -9856.23 -6671.59)
(25582.4 -3731.6 -6713.36)
(29967.2 8070.04 -10236.4)
(25451.5 16240.6 -19943.4)
(2404.9 5790.67 -11724.8)
(42377.7 10650.7 32159.7)
(48475.4 2876.59 25527.7)
(46381.7 4339.64 17688.5)
(41024.7 6316.23 11984.6)
(34591 7888.94 8813.21)
(28396.8 9239.58 7104.5)
(22205.8 10116 5553.35)
(15695.2 10412.8 3583.54)
(8939.67 10389.6 1155.82)
(2174.98 10332.6 -1480.79)
(-4343.04 10231.4 -3935.41)
(-10331.8 9817.07 -5790.74)
(-15605.6 8755.39 -6662.78)
(-20259.1 6190.85 -6203.99)
(-24674.5 -490.279 -4386.74)
(-29945.6 -14538.4 -2777.86)
(-28033.5 -26535.5 -6405.71)
(-27057.2 -26649 5617.09)
(-42377.7 -10650.7 32159.7)
(-48475.4 -2876.59 25527.7)
(-46381.7 -4339.64 17688.5)
(-41024.7 -6316.23 11984.6)
(-34591 -7888.94 8813.21)
(-28396.8 -9239.58 7104.5)
(-22205.8 -10116 5553.35)
(-15695.2 -10412.8 3583.54)
(-8939.67 -10389.6 1155.82)
(-2174.98 -10332.6 -1480.79)
(4343.04 -10231.4 -3935.41)
(10331.8 -9817.07 -5790.74)
(15605.6 -8755.39 -6662.78)
(20259.1 -6190.85 -6203.99)
(24674.5 490.279 -4386.74)
(29945.6 14538.4 -2777.86)
(28033.5 26535.5 -6405.7)
(27057.2 26649 5617.09)
(33565.6 15982.8 20113.1)
(38794.4 8070 22342.5)
(41164.7 6558.5 17008.8)
(38066.9 7006.78 11116.6)
(32700.6 7437.78 7681.99)
(27167.5 7769.54 5928.2)
(21705 7935.64 4510.52)
(16015.1 7770.89 2782.46)
(10037.5 7291.44 624.903)
(3929.56 6569.16 -1793.09)
(-2085.04 5513.14 -4144.6)
(-7791.22 3914.26 -6006.19)
(-13073.8 1611.49 -6769.46)
(-17832.2 -1952.5 -5562.16)
(-21668.3 -8547.48 -2130.7)
(-24428.1 -19073.5 1714.01)
(-27814.8 -24947.4 3810.89)
(-33110.6 -22945.4 9409.97)
(-33565.6 -15982.8 20113.1)
(-38794.4 -8070 22342.5)
(-41164.7 -6558.5 17008.8)
(-38066.9 -7006.78 11116.6)
(-32700.6 -7437.78 7681.99)
(-27167.5 -7769.54 5928.2)
(-21705 -7935.64 4510.52)
(-16015.1 -7770.89 2782.46)
(-10037.5 -7291.44 624.903)
(-3929.56 -6569.16 -1793.09)
(2085.04 -5513.14 -4144.6)
(7791.22 -3914.26 -6006.19)
(13073.8 -1611.49 -6769.46)
(17832.2 1952.5 -5562.16)
(21668.3 8547.48 -2130.7)
(24428.1 19073.5 1714.01)
(27814.8 24947.4 3810.89)
(33110.6 22945.4 9409.97)
(30554.4 16440.7 18042.5)
(31889.5 9527.87 20458.4)
(34603.8 6479.83 16936)
(33954.4 6042.8 11419.5)
(30446 5987.2 7789.44)
(25968.2 5708.3 5890.48)
(21209.3 5193.96 4449.48)
(16161.8 4378.66 2792.81)
(10813.3 3216.52 761.87)
(5287.15 1677.36 -1520.9)
(-243.069 -346.029 -3753.58)
(-5629.84 -2986.6 -5444.28)
(-10736 -6280.56 -5752.27)
(-15142 -10317.3 -3634.53)
(-17943.9 -15467.4 536.702)
(-19137 -21506.9 4491.87)
(-21931.2 -24672.8 7558.28)
(-27963 -22363.6 11988)
(-30554.4 -16440.7 18042.5)
(-31889.5 -9527.87 20458.4)
(-34603.8 -6479.83 16936)
(-33954.4 -6042.8 11419.5)
(-30446 -5987.2 7789.44)
(-25968.2 -5708.3 5890.48)
(-21209.3 -5193.96 4449.48)
(-16161.8 -4378.66 2792.81)
(-10813.3 -3216.52 761.87)
(-5287.15 -1677.36 -1520.9)
(243.069 346.029 -3753.58)
(5629.84 2986.6 -5444.28)
(10736 6280.56 -5752.27)
(15142 10317.3 -3634.53)
(17943.9 15467.4 536.702)
(19137 21506.9 4491.87)
(21931.2 24672.8 7558.28)
(27963 22363.6 11988)
(24558.3 16905.7 19057.8)
(26566.1 10123.1 20837.1)
(29105 6046.58 18109.7)
(29721.4 4401.22 13087.1)
(27854.2 3708.87 9096.53)
(24629.7 3018.22 6803.83)
(20767.8 2041.96 5176.45)
(16439 690.396 3505.57)
(11724.7 -1096.31 1593.11)
(6776.46 -3366.34 -455.213)
(1762.96 -6166.24 -2337.55)
(-3180.8 -9501.26 -3537.02)
(-7836.07 -13239.5 -3218.86)
(-11562.3 -17056.5 -634.358)
(-13481.5 -20658.8 3309.24)
(-14158.1 -23896.9 6754.89)
(-16462.2 -25269.5 9939.93)
(-21345.4 -22900.8 14289.4)
(-24558.3 -16905.7 19057.8)
(-26566.1 -10123.1 20837.1)
(-29105 -6046.58 18109.7)
(-29721.4 -4401.22 13087.1)
(-27854.2 -3708.87 9096.53)
(-24629.7 -3018.22 6803.83)
(-20767.8 -2041.96 5176.45)
(-16439 -690.396 3505.57)
(-11724.7 1096.31 1593.11)
(-6776.46 3366.34 -455.213)
(-1762.96 6166.24 -2337.55)
(3180.8 9501.26 -3537.02)
(7836.07 13239.5 -3218.86)
(11562.3 17056.5 -634.358)
(13481.5 20658.8 3309.24)
(14158.1 23896.9 6754.89)
(16462.2 25269.5 9939.93)
(21345.4 22900.8 14289.4)
(18276.8 17690.4 20912.8)
(21303.9 10756.4 22176.5)
(24177.2 5783.9 19944.4)
(25604 2851.44 15571.2)
(25019 1154.95 11417.4)
(22994.9 -142.674 8667.31)
(20130.2 -1597.31 6787.6)
(16652.2 -3446.27 5123.59)
(12693.9 -5782.17 3443.68)
(8433.81 -8624.41 1816.59)
(4053.65 -11928.2 490.613)
(-278.462 -15586.2 -96.0024)
(-4237.62 -19337.7 722.01)
(-7093.29 -22686.5 3304.01)
(-8273.92 -25273.7 6658.11)
(-8764 -27049.9 9692.31)
(-10756.7 -27080 12904.1)
(-14656.3 -23970.3 17014.9)
(-18276.8 -17690.4 20912.8)
(-21303.9 -10756.4 22176.5)
(-24177.2 -5783.9 19944.4)
(-25604 -2851.44 15571.2)
(-25019 -1154.95 11417.4)
(-22994.9 142.674 8667.31)
(-20130.2 1597.31 6787.6)
(-16652.2 3446.27 5123.59)
(-12693.9 5782.17 3443.68)
(-8433.81 8624.41 1816.59)
(-4053.65 11928.2 490.613)
(278.462 15586.2 -96.0025)
(4237.62 19337.7 722.01)
(7093.29 22686.5 3304.01)
(8273.92 25273.7 6658.11)
(8764 27049.9 9692.31)
(10756.7 27080 12904.1)
(14656.3 23970.3 17014.9)
(12214.1 18162.6 23493)
(15930.9 11022.2 24137.5)
(19257.2 5342.33 22179.1)
(21345.3 1297.91 18483)
(21792.5 -1510 14551.8)
(20859.2 -3645.92 11574.4)
(18983.1 -5734.72 9544.62)
(16419 -8147.52 7995.24)
(13331.8 -11007.7 6670.71)
(9906.89 -14295.6 5558.97)
(6335.5 -17907.5 4812.63)
(2832.71 -21672.7 4772.29)
(-188.469 -25256.9 5914.3)
(-2048.21 -28163.5 8290.67)
(-2594.47 -30069.2 11112.1)
(-3020.88 -30726.7 13900.1)
(-4912.22 -29297.6 17029.6)
(-8378.16 -24957.7 20606.4)
(-12214.1 -18162.6 23493)
(-15930.9 -11022.2 24137.5)
(-19257.2 -5342.33 22179.1)
(-21345.3 -1297.91 18483)
(-21792.5 1510 14551.8)
(-20859.2 3645.92 11574.4)
(-18983.1 5734.72 9544.62)
(-16419 8147.52 7995.24)
(-13331.8 11007.7 6670.71)
(-9906.89 14295.6 5558.97)
(-6335.5 17907.5 4812.63)
(-2832.71 21672.7 4772.29)
(188.47 25256.9 5914.3)
(2048.21 28163.5 8290.67)
(2594.47 30069.2 11112.1)
(3020.88 30726.7 13900.1)
(4912.22 29297.6 17029.6)
(8378.16 24957.7 20606.4)
(6796.63 17850.9 26723.9)
(10736.4 10437.2 26713.3)
(14239.6 4216.71 24861)
(16730.5 -680.717 21779.2)
(17926.2 -4472.04 18387.5)
(17917.2 -7518.96 15573.9)
(16975.9 -10361.2 13614.8)
(15350.7 -13410 12293.6)
(13235.3 -16800.5 11369.7)
(10812.8 -20473.4 10746.9)
(8263.73 -24273.8 10495.3)
(5823.47 -27978 10874.2)
(3924.34 -31238.6 12168.2)
(3038.53 -33626.3 14259.7)
(2927.16 -34744.5 16671.3)
(2430.1 -34094.9 19243.4)
(476.645 -31010.6 22087.2)
(-2872.87 -25287.5 24901.1)
(-6796.63 -17850.9 26723.9)
(-10736.4 -10437.2 26713.3)
(-14239.6 -4216.71 24861)
(-16730.5 680.717 21779.2)
(-17926.2 4472.04 18387.5)
(-17917.2 7518.96 15573.9)
(-16975.9 10361.2 13614.8)
(-15350.7 13410 12293.6)
(-13235.3 16800.5 11369.7)
(-10812.8 20473.4 10746.9)
(-8263.73 24273.8 10495.3)
(-5823.47 27978 10874.2)
(-3924.34 31238.6 12168.2)
(-3038.53 33626.3 14259.7)
(-2927.16 34744.5 16671.3)
(-2430.1 34094.9 19243.4)
(-476.645 31010.6 22087.2)
(2872.87 25287.5 24901.1)
(2388.47 16489.4 30224.9)
(6076.18 8861.23 29696.5)
(9333.41 2271.53 27975.5)
(11830.8 -3224.15 25523.9)
(13400.5 -7786.84 22891.8)
(14058.4 -11678.6 20616)
(13948.3 -15304 18987.8)
(13267.5 -19012.6 17980.1)
(12206.3 -22906.5 17422.7)
(10922.2 -26863.6 17184.4)
(9553.83 -30663.4 17287.3)
(8313.59 -34056.7 17904.7)
(7542.31 -36740.5 19153.8)
(7409.05 -38314.9 20899.1)
(7448 -38275.4 22925.4)
(6727.33 -36068.3 25156.1)
(4624.39 -31346.2 27460.1)
(1355.77 -24434.9 29369.9)
(-2388.47 -16489.4 30224.9)
(-6076.18 -8861.23 29696.5)
(-9333.41 -2271.53 27975.5)
(-11830.8 3224.15 25523.9)
(-13400.5 7786.84 22891.8)
(-14058.4 11678.6 20616)
(-13948.3 15304 18987.8)
(-13267.5 19012.6 17980.1)
(-12206.3 22906.5 17422.7)
(-10922.2 26863.6 17184.4)
(-9553.83 30663.4 17287.3)
(-8313.59 34056.7 17904.7)
(-7542.31 36740.5 19153.8)
(-7409.05 38314.9 20899.1)
(-7448 38275.4 22925.4)
(-6727.33 36068.3 25156.1)
(-4624.39 31346.2 27460.1)
(-1355.77 24434.9 29369.9)
(-600.463 14014.6 33399.6)
(2394.79 6530.59 32664.9)
(5007.54 -97.8952 31307.8)
(7125.68 -5871.14 29629.4)
(8699.5 -10923.7 27909.3)
(9735.38 -15445 26395.9)
(10288.8 -19696.8 25273.5)
(10467.3 -23903.8 24601.9)
(10400.7 -28083.4 24314)
(10190.2 -32033.7 24315.3)
(9921.46 -35492.2 24610.2)
(9745.77 -38239.7 25280.4)
(9828.26 -40020.6 26335.4)
(10073.1 -40436 27680.5)
(9983.71 -38992.9 29219.9)
(8955.23 -35311.2 30850.5)
(6767.96 -29413.9 32332.9)
(3786.56 -21952.9 33283.9)
(600.464 -14014.6 33399.6)
(-2394.79 -6530.59 32664.9)
(-5007.54 97.8944 31307.8)
(-7125.68 5871.14 29629.4)
(-8699.5 10923.7 27909.3)
(-9735.38 15445 26395.9)
(-10288.8 19696.8 25273.5)
(-10467.3 23903.8 24601.9)
(-10400.7 28083.4 24314)
(-10190.2 32033.7 24315.3)
(-9921.46 35492.2 24610.2)
(-9745.77 38239.7 25280.4)