/*--------------------------------*- C++ -*----------------------------------*\
| =========                 |                                                 |
| \\      /  F ield         | OpenFOAM: The Open Source CFD Toolbox           |
|  \\    /   O peration     | Version:  2312                                  |
|   \\  /    A nd           | Website:  www.openfoam.com                      |
|    \\/     M anipulation  |                                                 |
\*---------------------------------------------------------------------------*/
FoamFile
{
    version     2.0;
    format      ascii;
    arch        "LSB;label=32;scalar=64";
    class       volVectorField;
    location    "1";
    object      U;
}
// * * * * * * * * * * * * * * * * * * * * * * * * * * * * * * * * * * * * * //

dimensions      [0 1 -1 0 0 0 0];

internalField   nonuniform List<vector> 
1620
(
(0.00016591 0.000155883 7.58149e-06)
(0.000129343 8.47744e-05 -0.000146392)
(0.000107177 1.02651e-05 -0.000229241)
(8.30892e-05 -2.23629e-05 -0.000244054)
(5.71263e-05 -2.53109e-05 -0.000214333)
(3.82558e-05 -2.10365e-05 -0.000162479)
(3.08824e-05 -1.74788e-05 -0.000106909)
(3.11732e-05 -1.32564e-05 -5.97023e-05)
(3.12169e-05 -6.98156e-06 -2.65045e-05)
(2.37087e-05 -1.51829e-07 -8.53517e-06)
(4.74657e-06 4.99075e-06 -3.64173e-06)
(-2.49912e-05 1.00436e-05 -5.44945e-06)
(-6.13892e-05 2.31638e-05 -1.56811e-06)
(-0.000101404 5.13784e-05 2.64028e-05)
(-0.000146453 7.91895e-05 9.51059e-05)
(-0.000195128 5.79442e-05 0.000194528)
(-0.000227625 -4.36231e-05 0.000250774)
(-0.000213564 -0.000147785 0.000170696)
(-0.00016591 -0.000155883 7.58149e-06)
(-0.000129343 -8.47744e-05 -0.000146392)
(-0.000107177 -1.02651e-05 -0.000229241)
(-8.30892e-05 2.23629e-05 -0.000244054)
(-5.71263e-05 2.53109e-05 -0.000214333)
(-3.82558e-05 2.10365e-05 -0.000162479)
(-3.08824e-05 1.74788e-05 -0.000106909)
(-3.11732e-05 1.32564e-05 -5.97023e-05)
(-3.12169e-05 6.98156e-06 -2.65045e-05)
(-2.37087e-05 1.51829e-07 -8.53517e-06)
(-4.74657e-06 -4.99075e-06 -3.64173e-06)
(2.49912e-05 -1.00436e-05 -5.44945e-06)
(6.13892e-05 -2.31638e-05 -1.56811e-06)
(0.000101404 -5.13784e-05 2.64028e-05)
(0.000146453 -7.91895e-05 9.51059e-05)
(0.000195128 -5.79442e-05 0.000194528)
(0.000227625 4.36231e-05 0.000250774)
(0.000213564 0.000147785 0.000170696)
(0.000173586 9.80973e-05 6.508e-06)
(0.000194704 4.76006e-05 -7.47066e-05)
(0.000203274 9.35024e-06 -0.000128524)
(0.000194664 1.40733e-06 -0.000152437)
(0.000172125 1.25894e-05 -0.000155517)
(0.000143841 2.8933e-05 -0.000145603)
(0.000116153 4.42751e-05 -0.000130073)
(9.07716e-05 5.81129e-05 -0.000114491)
(6.60947e-05 7.13417e-05 -0.000101027)
(3.94034e-05 8.39044e-05 -8.86848e-05)
(8.85074e-06 9.42155e-05 -7.44059e-05)
(-2.44854e-05 0.000100021 -5.42167e-05)
(-5.59853e-05 9.9889e-05 -2.43066e-05)
(-8.11643e-05 9.18427e-05 1.73465e-05)
(-0.000101217 6.74804e-05 6.71379e-05)
(-0.000121001 1.37352e-05 0.000110108)
(-0.000139208 -6.19303e-05 0.000120865)
(-0.000153808 -0.000110496 8.29072e-05)
(-0.000173586 -9.80973e-05 6.50801e-06)
(-0.000194704 -4.76006e-05 -7.47066e-05)
(-0.000203275 -9.35024e-06 -0.000128524)
(-0.000194664 -1.40733e-06 -0.000152437)
(-0.000172125 -1.25894e-05 -0.000155517)
(-0.000143841 -2.8933e-05 -0.000145603)
(-0.000116153 -4.42751e-05 -0.000130073)
(-9.07716e-05 -5.81129e-05 -0.000114491)
(-6.60947e-05 -7.13417e-05 -0.000101027)
(-3.94034e-05 -8.39044e-05 -8.86848e-05)
(-8.85075e-06 -9.42155e-05 -7.44059e-05)
(2.44854e-05 -0.000100021 -5.42167e-05)
(5.59853e-05 -9.9889e-05 -2.43066e-05)
(8.11643e-05 -9.18427e-05 1.73465e-05)
(0.000101217 -6.74804e-05 6.71379e-05)
(0.000121001 -1.37352e-05 0.000110108)
(0.000139208 6.19303e-05 0.000120865)
(0.000153808 0.000110496 8.29072e-05)
(0.000141484 7.75637e-05 -1.77316e-05)
(0.000205652 3.9422e-05 -4.80014e-05)
(0.000255542 3.05162e-05 -7.81856e-05)
(0.000281908 4.59008e-05 -0.000111641)
(0.000281759 7.26946e-05 -0.000144758)
(0.000259868 0.000103584 -0.000170313)
(0.000223525 0.000134829 -0.000185009)
(0.000178737 0.000163516 -0.000188846)
(0.000129836 0.000186716 -0.000181344)
(8.05717e-05 0.000201062 -0.000160201)
(3.54073e-05 0.00020242 -0.000123171)
(2.69567e-07 0.000186132 -7.18708e-05)
(-1.88966e-05 0.000148409 -1.52028e-05)
(-2.13703e-05 8.86758e-05 3.17359e-05)
(-1.64301e-05 1.23429e-05 5.5869e-05)
(-1.7977e-05 -6.52337e-05 5.45923e-05)
(-3.52986e-05 -0.000116106 3.62112e-05)
(-7.71688e-05 -0.000115717 1.19292e-05)
(-0.000141484 -7.75637e-05 -1.77316e-05)
(-0.000205652 -3.9422e-05 -4.80014e-05)
(-0.000255542 -3.05162e-05 -7.81856e-05)
(-0.000281908 -4.59008e-05 -0.000111641)
(-0.000281759 -7.26946e-05 -0.000144758)
(-0.000259868 -0.000103584 -0.000170313)
(-0.000223525 -0.000134829 -0.000185009)
(-0.000178737 -0.000163516 -0.000188846)
(-0.000129836 -0.000186716 -0.000181344)
(-8.05717e-05 -0.000201062 -0.000160201)
(-3.54073e-05 -0.00020242 -0.000123171)
(-2.69567e-07 -0.000186132 -7.18708e-05)
(1.88966e-05 -0.000148409 -1.52028e-05)
(2.13703e-05 -8.86758e-05 3.17359e-05)
(1.64301e-05 -1.23429e-05 5.5869e-05)
(1.7977e-05 6.52337e-05 5.45923e-05)
(3.52986e-05 0.000116106 3.62112e-05)
(7.71688e-05 0.000115717 1.19292e-05)
(0.000446125 0.000239793 4.88416e-05)
(0.000450671 8.24404e-05 -0.000362303)
(0.000434792 1.06354e-06 -0.000603719)
(0.000370371 2.10975e-05 -0.000673879)
(0.000280023 6.8154e-05 -0.000631278)
(0.00019736 9.84617e-05 -0.00053253)
(0.000138759 0.000110762 -0.000417942)
(0.000100969 0.00011661 -0.000313577)
(6.91922e-05 0.000123912 -0.000234617)
(2.56144e-05 0.000132207 -0.000187011)
(-4.24048e-05 0.000134697 -0.000166037)
(-0.000134482 0.000126933 -0.000152008)
(-0.000234829 0.000118044 -0.00010763)
(-0.000323192 0.000125691 1.29774e-05)
(-0.000391287 0.000136358 0.000235266)
(-0.00044284 7.10591e-05 0.000512477)
(-0.000475307 -0.000127961 0.000662159)
(-0.000469706 -0.000295121 0.000466073)
(-0.000446125 -0.000239793 4.88416e-05)
(-0.000450671 -8.24404e-05 -0.000362303)
(-0.000434792 -1.06354e-06 -0.000603719)
(-0.000370371 -2.10975e-05 -0.000673879)
(-0.000280023 -6.8154e-05 -0.000631278)
(-0.00019736 -9.84617e-05 -0.00053253)
(-0.000138759 -0.000110762 -0.000417942)
(-0.000100969 -0.00011661 -0.000313577)
(-6.91922e-05 -0.000123912 -0.000234617)
(-2.56144e-05 -0.000132207 -0.000187011)
(4.24048e-05 -0.000134697 -0.000166037)
(0.000134482 -0.000126933 -0.000152008)
(0.000234829 -0.000118044 -0.00010763)
(0.000323192 -0.000125691 1.29774e-05)
(0.000391287 -0.000136358 0.000235266)
(0.00044284 -7.10591e-05 0.000512477)
(0.000475307 0.000127961 0.000662159)
(0.000469706 0.000295121 0.000466073)
(0.000469221 0.00016059 8.8839e-05)
(0.000528642 4.09455e-05 -0.000182086)
(0.000544841 -1.20416e-05 -0.000366549)
(0.000513321 1.99259e-06 -0.000459638)
(0.000451646 4.13555e-05 -0.000479317)
(0.000383127 8.32659e-05 -0.000452768)
(0.000318019 0.000124016 -0.000407426)
(0.000255554 0.000164657 -0.000361289)
(0.000189752 0.000204864 -0.000321071)
(0.000113611 0.000240469 -0.000283939)
(2.38298e-05 0.000262864 -0.000239372)
(-7.36489e-05 0.000262531 -0.000171167)
(-0.000162648 0.000236489 -6.19942e-05)
(-0.000228065 0.000189316 9.67244e-05)
(-0.000271985 0.000116978 0.000290031)
(-0.000310873 -7.27457e-07 0.000463585)
(-0.000352845 -0.000150333 0.000518026)
(-0.000400774 -0.000225808 0.000367996)
(-0.000469221 -0.00016059 8.8839e-05)
(-0.000528642 -4.09455e-05 -0.000182086)
(-0.000544841 1.20416e-05 -0.000366549)
(-0.000513321 -1.99259e-06 -0.000459638)
(-0.000451646 -4.13555e-05 -0.000479317)
(-0.000383127 -8.32659e-05 -0.000452768)
(-0.000318019 -0.000124016 -0.000407426)
(-0.000255554 -0.000164657 -0.000361289)
(-0.000189752 -0.000204864 -0.000321071)
(-0.000113611 -0.000240469 -0.000283939)
(-2.38298e-05 -0.000262864 -0.000239372)
(7.36489e-05 -0.000262531 -0.000171167)
(0.000162648 -0.000236489 -6.19942e-05)
(0.000228065 -0.000189316 9.67244e-05)
(0.000271985 -0.000116978 0.000290031)
(0.000310873 7.2746e-07 0.000463585)
(0.000352845 0.000150333 0.000518026)
(0.000400774 0.000225808 0.000367996)
(0.000392767 9.79462e-05 7.50528e-05)
(0.000497854 1.3967e-05 -7.3998e-05)
(0.000573089 -1.54435e-05 -0.000203453)
(0.000604268 -6.08086e-06 -0.000313473)
(0.000596713 2.8651e-05 -0.000387171)
(0.00056097 8.51208e-05 -0.000423699)
(0.000502034 0.000157444 -0.000436073)
(0.000422584 0.000235244 -0.000434144)
(0.00032642 0.000307252 -0.000417005)
(0.000219496 0.000362731 -0.000374142)
(0.000110776 0.000390728 -0.000290884)
(1.30628e-05 0.000379692 -0.000157121)
(-5.91396e-05 0.000319459 2.14068e-05)
(-9.88924e-05 0.000206098 0.000214574)
(-0.000118229 5.05588e-05 0.000372185)
(-0.000142855 -0.000108471 0.000444065)
(-0.000191766 -0.000206167 0.00040142)
(-0.000275153 -0.000189053 0.000255416)
(-0.000392767 -9.79462e-05 7.50528e-05)
(-0.000497854 -1.3967e-05 -7.3998e-05)
(-0.000573089 1.54435e-05 -0.000203453)
(-0.000604268 6.08086e-06 -0.000313473)
(-0.000596713 -2.8651e-05 -0.000387171)
(-0.00056097 -8.51208e-05 -0.000423699)
(-0.000502034 -0.000157444 -0.000436073)
(-0.000422584 -0.000235244 -0.000434144)
(-0.00032642 -0.000307252 -0.000417005)
(-0.000219496 -0.000362731 -0.000374142)
(-0.000110776 -0.000390728 -0.000290884)
(-1.30628e-05 -0.000379692 -0.000157121)
(5.91396e-05 -0.000319459 2.14068e-05)
(9.88924e-05 -0.000206098 0.000214574)
(0.000118229 -5.05588e-05 0.000372185)
(0.000142855 0.000108471 0.000444065)
(0.000191766 0.000206167 0.00040142)
(0.000275153 0.000189053 0.000255416)
(0.00062312 -8.39765e-06 0.000196512)
(0.000667675 -0.000183955 -0.000466954)
(0.000647338 -0.000193493 -0.000864611)
(0.000552635 -0.000100353 -0.000984567)
(0.000430654 -1.48597e-07 -0.00094547)
(0.000316095 7.09173e-05 -0.000845136)
(0.000222053 0.000115776 -0.00073054)
(0.000146295 0.000145712 -0.000623261)
(7.57719e-05 0.000168896 -0.00053572)
(-7.92925e-06 0.000186519 -0.000472646)
(-0.000118879 0.000193345 -0.000424506)
(-0.000254891 0.000185844 -0.000360335)
(-0.000393129 0.000173833 -0.000228873)
(-0.000503362 0.000175266 2.28773e-05)
(-0.000570722 0.00017888 0.00041028)
(-0.000606584 0.000111853 0.000850433)
(-0.000632456 -6.93717e-05 0.001095)
(-0.000625946 -0.000147504 0.000848862)
(-0.00062312 8.39765e-06 0.000196512)
(-0.000667675 0.000183955 -0.000466954)
(-0.000647338 0.000193493 -0.000864611)
(-0.000552635 0.000100353 -0.000984567)
(-0.000430654 1.486e-07 -0.00094547)
(-0.000316095 -7.09173e-05 -0.000845136)
(-0.000222053 -0.000115776 -0.00073054)
(-0.000146295 -0.000145712 -0.000623261)
(-7.57719e-05 -0.000168896 -0.00053572)
(7.92924e-06 -0.000186519 -0.000472646)
(0.000118879 -0.000193345 -0.000424506)
(0.000254891 -0.000185844 -0.000360335)
(0.000393129 -0.000173833 -0.000228873)
(0.000503362 -0.000175266 2.28773e-05)
(0.000570722 -0.00017888 0.00041028)
(0.000606584 -0.000111853 0.000850433)
(0.000632456 6.93717e-05 0.001095)
(0.000625946 0.000147504 0.000848862)
(0.000707216 -2.63037e-05 0.000312368)
(0.000770188 -0.000149779 -0.000168806)
(0.000765639 -0.000165672 -0.000507403)
(0.000707034 -0.000114222 -0.000672696)
(0.000622808 -4.08025e-05 -0.000713486)
(0.000533464 3.52327e-05 -0.000689497)
(0.000444163 0.000109559 -0.000642019)
(0.000352012 0.000180445 -0.000591577)
(0.00025078 0.000244937 -0.000543622)
(0.000134529 0.000296852 -0.000491424)
(3.35981e-06 0.000326609 -0.000416322)
(-0.000131093 0.000325891 -0.000289791)
(-0.000248165 0.000294803 -8.32031e-05)
(-0.000333287 0.000239512 0.000212052)
(-0.000392353 0.000155809 0.000560239)
(-0.000446278 3.07343e-05 0.000864848)
(-0.00051077 -9.71654e-05 0.000976596)
(-0.000599188 -0.000104701 0.00077319)
(-0.000707216 2.63037e-05 0.000312368)
(-0.000770188 0.000149779 -0.000168806)
(-0.000765639 0.000165672 -0.000507403)
(-0.000707034 0.000114222 -0.000672696)
(-0.000622808 4.08025e-05 -0.000713486)
(-0.000533464 -3.52327e-05 -0.000689497)
(-0.000444163 -0.000109559 -0.000642019)
(-0.000352012 -0.000180445 -0.000591577)
(-0.00025078 -0.000244937 -0.000543622)
(-0.000134529 -0.000296852 -0.000491424)
(-3.35982e-06 -0.000326609 -0.000416322)
(0.000131093 -0.000325891 -0.000289791)
(0.000248165 -0.000294803 -8.32031e-05)
(0.000333287 -0.000239512 0.000212052)
(0.000392353 -0.000155809 0.000560239)
(0.000446278 -3.07343e-05 0.000864848)
(0.00051077 9.71654e-05 0.000976595)
(0.000599188 0.000104701 0.00077319)
(0.000603633 -4.2456e-05 0.000336189)
(0.000710528 -0.000122948 3.33199e-05)
(0.00077548 -0.000147711 -0.000232068)
(0.00079353 -0.00013235 -0.000425998)
(0.000774812 -8.25729e-05 -0.000535338)
(0.000727457 -1.06107e-06 -0.00058006)
(0.000653008 0.000102297 -0.000590463)
(0.000551453 0.0002127 -0.000584307)
(0.000425378 0.000314658 -0.000560752)
(0.000282892 0.000393645 -0.000503262)
(0.000139079 0.000437235 -0.000386397)
(1.32536e-05 0.000435805 -0.000186595)
(-7.94717e-05 0.000380889 0.00010063)
(-0.000139327 0.000264595 0.000438767)
(-0.000187008 9.52511e-05 0.000741123)
(-0.000252037 -7.14663e-05 0.00090491)
(-0.00035004 -0.000148491 0.000871424)
(-0.000473749 -8.88219e-05 0.000647552)
(-0.000603633 4.2456e-05 0.000336189)
(-0.000710528 0.000122948 3.33199e-05)
(-0.00077548 0.000147711 -0.000232068)
(-0.00079353 0.00013235 -0.000425998)
(-0.000774812 8.25729e-05 -0.000535338)
(-0.000727457 1.06107e-06 -0.00058006)
(-0.000653008 -0.000102297 -0.000590463)
(-0.000551453 -0.0002127 -0.000584307)
(-0.000425378 -0.000314658 -0.000560752)
(-0.000282892 -0.000393645 -0.000503262)
(-0.000139079 -0.000437235 -0.000386397)
(-1.32536e-05 -0.000435805 -0.000186595)
(7.94717e-05 -0.000380889 0.00010063)
(0.000139327 -0.000264595 0.000438767)
(0.000187008 -9.52511e-05 0.000741123)
(0.000252037 7.14663e-05 0.00090491)
(0.00035004 0.000148491 0.000871424)
(0.000473749 8.88219e-05 0.000647552)
(0.000805558 -0.000511271 0.000484875)
(0.000824434 -0.000590397 -0.000330053)
(0.000758841 -0.000515078 -0.000850338)
(0.000633917 -0.000373437 -0.00103579)
(0.000499819 -0.000236838 -0.00103895)
(0.000374169 -0.000129131 -0.000979015)
(0.000260518 -4.90148e-05 -0.000903597)
(0.000156 1.10693e-05 -0.000827245)
(5.15414e-05 5.79507e-05 -0.000753557)
(-6.54718e-05 9.47774e-05 -0.000678598)
(-0.000203046 0.000120372 -0.000586833)
(-0.000354377 0.000133548 -0.000448913)
(-0.000495899 0.000140367 -0.000226767)
(-0.000602224 0.00015372 0.000113645)
(-0.000668555 0.000174634 0.000575799)
(-0.000716697 0.000174707 0.00107502)
(-0.000768932 0.000165329 0.00138388)
(-0.000790112 0.000299985 0.00120783)
(-0.000805558 0.000511271 0.000484875)
(-0.000824434 0.000590397 -0.000330053)
(-0.000758841 0.000515078 -0.000850338)
(-0.000633917 0.000373437 -0.00103579)
(-0.000499819 0.000236838 -0.00103895)
(-0.000374169 0.000129131 -0.000979015)
(-0.000260518 4.90148e-05 -0.000903597)
(-0.000156 -1.10693e-05 -0.000827245)
(-5.15414e-05 -5.79507e-05 -0.000753557)
(6.54718e-05 -9.47774e-05 -0.000678598)
(0.000203046 -0.000120372 -0.000586833)
(0.000354377 -0.000133548 -0.000448913)
(0.000495899 -0.000140367 -0.000226767)
(0.000602224 -0.00015372 0.000113645)
(0.000668555 -0.000174634 0.000575799)
(0.000716697 -0.000174707 0.00107502)
(0.000768932 -0.000165329 0.00138388)
(0.000790112 -0.000299985 0.00120783)
(0.000862361 -0.000391628 0.000638887)
(0.000897166 -0.000462241 2.28602e-05)
(0.000859334 -0.000425382 -0.000437363)
(0.000779607 -0.000336856 -0.000679004)
(0.000684989 -0.000231645 -0.00076601)
(0.000585056 -0.000125517 -0.000775528)
(0.000480165 -2.49049e-05 -0.000753555)
(0.000366935 6.67189e-05 -0.000718849)
(0.000240896 0.000145872 -0.000672684)
(0.000100236 0.000207545 -0.000603496)
(-4.91797e-05 0.000245892 -0.000488866)
(-0.000191899 0.000257849 -0.000299971)
(-0.000310362 0.000246217 -1.292e-05)
(-0.000400004 0.00021619 0.000371944)
(-0.000474976 0.00016781 0.000805409)
(-0.000554923 0.000107062 0.00117237)
(-0.000649587 9.39299e-05 0.00132158)
(-0.000761675 0.000216042 0.00114737)
(-0.000862361 0.000391628 0.000638887)
(-0.000897166 0.000462241 2.28602e-05)
(-0.000859334 0.000425382 -0.000437363)
(-0.000779607 0.000336856 -0.000679004)
(-0.000684989 0.000231645 -0.00076601)
(-0.000585056 0.000125517 -0.000775528)
(-0.000480165 2.49049e-05 -0.000753555)
(-0.000366935 -6.67189e-05 -0.000718849)
(-0.000240896 -0.000145872 -0.000672684)
(-0.000100236 -0.000207545 -0.000603496)
(4.91797e-05 -0.000245892 -0.000488866)
(0.000191899 -0.000257849 -0.000299971)
(0.000310362 -0.000246217 -1.292e-05)
(0.000400004 -0.00021619 0.000371944)
(0.000474977 -0.000167809 0.000805409)
(0.000554923 -0.000107062 0.00117237)
(0.000649587 -9.39299e-05 0.00132158)
(0.000761675 -0.000216042 0.00114737)
(0.000744264 -0.000301449 0.00068216)
(0.000820254 -0.000363136 0.000273357)
(0.00085917 -0.000359487 -0.000100788)
(0.000859976 -0.000315985 -0.000376821)
(0.000827271 -0.000238802 -0.00053711)
(0.00076597 -0.000134027 -0.000609894)
(0.000677518 -1.35361e-05 -0.000633508)
(0.000561562 0.00010867 -0.000629239)
(0.000420037 0.000218394 -0.000596652)
(0.000262575 0.00030231 -0.0005182)
(0.000108564 0.000351236 -0.000366906)
(-1.98015e-05 0.000362189 -0.000116659)
(-0.000112688 0.000332919 0.000241497)
(-0.000183009 0.000255438 0.000670978)
(-0.000258402 0.000137471 0.00106459)
(-0.000362076 4.18217e-05 0.00128506)
(-0.000496742 5.26543e-05 0.00126506)
(-0.000639424 0.000168718 0.00103828)
(-0.000744264 0.000301449 0.00068216)
(-0.000820254 0.000363136 0.000273357)
(-0.00085917 0.000359487 -0.000100788)
(-0.000859976 0.000315985 -0.000376821)
(-0.000827271 0.000238802 -0.00053711)
(-0.00076597 0.000134027 -0.000609894)
(-0.000677518 1.35361e-05 -0.000633508)
(-0.000561562 -0.00010867 -0.000629239)
(-0.000420037 -0.000218394 -0.000596652)
(-0.000262575 -0.00030231 -0.0005182)
(-0.000108564 -0.000351236 -0.000366906)
(1.98015e-05 -0.000362189 -0.000116659)
(0.000112688 -0.000332919 0.000241497)
(0.000183009 -0.000255438 0.000670978)
(0.000258402 -0.000137471 0.00106459)
(0.000362076 -4.18217e-05 0.00128506)
(0.000496742 -5.26543e-05 0.00126506)
(0.000639424 -0.000168718 0.00103828)
(0.000989898 -0.000841182 0.000857055)
(0.000949264 -0.00089845 6.3261e-05)
(0.000816688 -0.000807542 -0.000533164)
(0.000659117 -0.000665071 -0.000805113)
(0.000515865 -0.000522213 -0.000888664)
(0.000384871 -0.000396627 -0.000897897)
(0.000260177 -0.000292777 -0.000875955)
(0.000137246 -0.000208018 -0.000833182)
(1.01817e-05 -0.000137333 -0.000767481)
(-0.000126926 -7.70192e-05 -0.00066986)
(-0.000274079 -2.68491e-05 -0.000526735)
(-0.000419464 1.18541e-05 -0.000324612)
(-0.000542878 4.35439e-05 -5.42677e-05)
(-0.000634693 8.45757e-05 0.00029388)
(-0.0007126 0.000151872 0.000726226)
(-0.000803111 0.000247752 0.00118302)
(-0.000899228 0.000393235 0.00148289)
(-0.000960927 0.000620614 0.0014091)
(-0.000989898 0.000841182 0.000857055)
(-0.000949264 0.00089845 6.3261e-05)
(-0.000816688 0.000807542 -0.000533164)
(-0.000659117 0.000665071 -0.000805113)
(-0.000515865 0.000522213 -0.000888664)
(-0.000384871 0.000396627 -0.000897897)
(-0.000260177 0.000292777 -0.000875955)
(-0.000137246 0.000208018 -0.000833182)
(-1.01817e-05 0.000137333 -0.000767481)
(0.000126926 7.70192e-05 -0.00066986)
(0.000274079 2.68491e-05 -0.000526735)
(0.000419464 -1.18541e-05 -0.000324612)
(0.000542878 -4.35439e-05 -5.42677e-05)
(0.000634693 -8.45757e-05 0.00029388)
(0.0007126 -0.000151872 0.000726226)
(0.000803111 -0.000247752 0.00118302)
(0.000899228 -0.000393235 0.00148289)
(0.000960927 -0.000620614 0.0014091)
(0.000928835 -0.000639376 0.000950958)
(0.000929024 -0.000698782 0.000367455)
(0.000862775 -0.00065778 -0.000147294)
(0.000766986 -0.000565884 -0.000464065)
(0.000666686 -0.000452839 -0.000617467)
(0.000562084 -0.000334812 -0.000679242)
(0.000449451 -0.000222012 -0.000692865)
(0.000325461 -0.000119934 -0.00067503)
(0.00018788 -3.20994e-05 -0.000625042)
(3.899e-05 3.81756e-05 -0.000531)
(-0.000111113 8.83409e-05 -0.000374997)
(-0.00024607 0.000118953 -0.000139725)
(-0.000353823 0.000135633 0.000183419)
(-0.000441391 0.000148201 0.000584837)
(-0.000532537 0.000166679 0.00101745)
(-0.000642821 0.000206212 0.00137376)
(-0.000762686 0.000307624 0.00151969)
(-0.000866343 0.000481082 0.00137616)
(-0.000928835 0.000639376 0.000950958)
(-0.000929024 0.000698782 0.000367455)
(-0.000862775 0.00065778 -0.000147294)
(-0.000766986 0.000565884 -0.000464065)
(-0.000666686 0.00045284 -0.000617467)
(-0.000562084 0.000334812 -0.000679242)
(-0.000449451 0.000222012 -0.000692865)
(-0.000325461 0.000119934 -0.00067503)
(-0.00018788 3.20994e-05 -0.000625042)
(-3.899e-05 -3.81756e-05 -0.000531)
(0.000111113 -8.83409e-05 -0.000374997)
(0.00024607 -0.000118953 -0.000139725)
(0.000353823 -0.000135633 0.000183419)
(0.000441391 -0.000148201 0.000584837)
(0.000532537 -0.000166679 0.00101745)
(0.000642821 -0.000206212 0.00137376)
(0.000762686 -0.000307624 0.00151969)
(0.000866342 -0.000481082 0.00137616)
(0.000782331 -0.000508306 0.000991589)
(0.000820877 -0.000556845 0.000582147)
(0.00083926 -0.000547634 0.000166013)
(0.000826083 -0.00049259 -0.000173344)
(0.000781106 -0.000402356 -0.00038822)
(0.000709318 -0.000289402 -0.000497118)
(0.000612848 -0.000166661 -0.000538719)
(0.000491764 -4.62519e-05 -0.000535428)
(0.000348383 6.01967e-05 -0.000488471)
(0.000193027 0.000142355 -0.000384207)
(4.53047e-05 0.000195097 -0.000202146)
(-7.45811e-05 0.00022092 7.71042e-05)
(-0.000162561 0.000224004 0.000460684)
(-0.000238757 0.00020238 0.000915542)
(-0.000330566 0.000167422 0.0013325)
(-0.000451527 0.000171082 0.00156905)
(-0.000590885 0.000261968 0.00155937)
(-0.000712457 0.000401747 0.00133953)
(-0.000782331 0.000508306 0.000991589)
(-0.000820877 0.000556845 0.000582147)
(-0.00083926 0.000547634 0.000166013)
(-0.000826084 0.00049259 -0.000173344)
(-0.000781106 0.000402356 -0.00038822)
(-0.000709318 0.000289402 -0.000497118)
(-0.000612848 0.000166661 -0.000538719)
(-0.000491764 4.62519e-05 -0.000535428)
(-0.000348383 -6.01967e-05 -0.000488471)
(-0.000193027 -0.000142355 -0.000384207)
(-4.53047e-05 -0.000195097 -0.000202145)
(7.45811e-05 -0.00022092 7.71041e-05)
(0.000162561 -0.000224004 0.000460684)
(0.000238757 -0.00020238 0.000915542)
(0.000330566 -0.000167422 0.0013325)
(0.000451527 -0.000171082 0.00156905)
(0.000590885 -0.000261968 0.00155937)
(0.000712457 -0.000401747 0.00133953)
(0.00106761 -0.000968518 0.00111928)
(0.000986108 -0.0010346 0.000507307)
(0.000820235 -0.000974415 -5.05373e-05)
(0.000644064 -0.000865156 -0.00038183)
(0.000494887 -0.000743185 -0.000544724)
(0.00036107 -0.00062147 -0.000622892)
(0.000230522 -0.000508815 -0.000648854)
(9.7401e-05 -0.000408285 -0.000629251)
(-4.16156e-05 -0.000319101 -0.000560965)
(-0.000186559 -0.000240505 -0.00043758)
(-0.000330627 -0.000174038 -0.000256087)
(-0.000459284 -0.000120824 -2.41358e-05)
(-0.000559343 -7.26231e-05 0.000241626)
(-0.000639121 -5.7948e-06 0.000536372)
(-0.000733369 0.000105409 0.000877716)
(-0.000860577 0.000271813 0.00124024)
(-0.000985811 0.000496518 0.00149901)
(-0.00106016 0.00075669 0.00148976)
(-0.00106761 0.000968518 0.00111928)
(-0.000986108 0.0010346 0.000507307)
(-0.000820235 0.000974415 -5.05373e-05)
(-0.000644064 0.000865156 -0.00038183)
(-0.000494887 0.000743185 -0.000544724)
(-0.00036107 0.00062147 -0.000622892)
(-0.000230522 0.000508815 -0.000648854)
(-9.7401e-05 0.000408285 -0.000629251)
(4.16155e-05 0.000319101 -0.000560965)
(0.000186559 0.000240505 -0.00043758)
(0.000330627 0.000174038 -0.000256087)
(0.000459284 0.000120824 -2.41358e-05)
(0.000559343 7.26231e-05 0.000241626)
(0.000639121 5.79481e-06 0.000536372)
(0.000733369 -0.000105409 0.000877716)
(0.000860577 -0.000271813 0.00124024)
(0.000985811 -0.000496518 0.00149901)
(0.00106016 -0.00075669 0.00148976)
(0.000935263 -0.00075423 0.0012261)
(0.000897524 -0.000818294 0.000745715)
(0.000808912 -0.000797929 0.000263485)
(0.000701679 -0.000727347 -9.08215e-05)
(0.00059788 -0.000629615 -0.000301033)
(0.0004932 -0.000518913 -0.00041133)
(0.000379983 -0.000407082 -0.000455758)
(0.000254579 -0.000302153 -0.000448376)
(0.000116698 -0.000209252 -0.00038945)
(-2.85663e-05 -0.000132071 -0.000271907)
(-0.000169384 -7.23826e-05 -8.80708e-05)
(-0.000290974 -2.76527e-05 0.000164124)
(-0.000387286 1.19035e-05 0.000478246)
(-0.000473779 6.31841e-05 0.000839177)
(-0.000577131 0.000142383 0.00120962)
(-0.000702654 0.000259287 0.00150937)
(-0.000824385 0.0004216 0.00164428)
(-0.000909048 0.000606223 0.00155229)
(-0.000935263 0.00075423 0.0012261)
(-0.000897524 0.000818294 0.000745715)
(-0.000808912 0.000797929 0.000263485)
(-0.000701679 0.000727347 -9.08215e-05)
(-0.00059788 0.000629615 -0.000301033)
(-0.0004932 0.000518913 -0.00041133)
(-0.000379983 0.000407082 -0.000455758)
(-0.000254579 0.000302153 -0.000448376)
(-0.000116698 0.000209252 -0.00038945)
(2.85663e-05 0.000132071 -0.000271907)
(0.000169384 7.23826e-05 -8.80708e-05)
(0.000290974 2.76527e-05 0.000164124)
(0.000387286 -1.19035e-05 0.000478246)
(0.000473779 -6.31841e-05 0.000839177)
(0.000577131 -0.000142383 0.00120962)
(0.000702654 -0.000259287 0.00150937)
(0.000824385 -0.0004216 0.00164428)
(0.000909048 -0.000606223 0.00155229)
(0.000761616 -0.000627839 0.00130467)
(0.000771137 -0.000676181 0.000922377)
(0.00076287 -0.000672732 0.00051338)
(0.000730803 -0.000623384 0.000150026)
(0.000674763 -0.000539499 -0.000102516)
(0.000598822 -0.000434389 -0.000241101)
(0.00050283 -0.000319754 -0.000296904)
(0.000386088 -0.000206801 -0.000291782)
(0.000251448 -0.000105997 -0.00023)
(0.000108826 -2.5594e-05 -0.000104712)
(-2.51279e-05 3.17748e-05 9.49278e-05)
(-0.000135098 7.13394e-05 0.00037892)
(-0.000221229 0.000102334 0.000750003)
(-0.000303554 0.000131341 0.0011779)
(-0.000401785 0.00017152 0.00156361)
(-0.00051773 0.000252334 0.00178579)
(-0.000633589 0.000384788 0.00179319)
(-0.000720162 0.000526506 0.00161283)
(-0.000761616 0.000627839 0.00130467)
(-0.000771137 0.000676181 0.000922377)
(-0.00076287 0.000672732 0.00051338)
(-0.000730803 0.000623384 0.000150026)
(-0.000674763 0.000539499 -0.000102516)
(-0.000598822 0.000434389 -0.000241101)
(-0.00050283 0.000319754 -0.000296904)
(-0.000386088 0.000206801 -0.000291782)
(-0.000251448 0.000105997 -0.00023)
(-0.000108826 2.5594e-05 -0.000104712)
(2.51278e-05 -3.17748e-05 9.49278e-05)
(0.000135098 -7.13394e-05 0.00037892)
(0.000221229 -0.000102334 0.000750003)
(0.000303554 -0.000131341 0.0011779)
(0.000401785 -0.00017152 0.00156361)
(0.00051773 -0.000252334 0.00178579)
(0.000633589 -0.000384788 0.00179319)
(0.000720162 -0.000526506 0.00161283)
(0.00104181 -0.000937656 0.00131343)
(0.000933365 -0.00102196 0.000894083)
(0.000762119 -0.00100721 0.000449968)
(0.000586156 -0.000941556 0.000117861)
(0.00043817 -0.000851733 -9.02597e-05)
(0.000305955 -0.000748063 -0.000213346)
(0.000174482 -0.000640094 -0.000269441)
(3.79969e-05 -0.000535402 -0.000261082)
(-0.000103658 -0.000438598 -0.000186972)
(-0.000245568 -0.000353321 -4.81924e-05)
(-0.00037706 -0.000282908 0.000145001)
(-0.000485145 -0.000226416 0.000368812)
(-0.000566162 -0.000170876 0.000594927)
(-0.000640963 -8.95695e-05 0.00081811)
(-0.000745748 4.36791e-05 0.00106478)
(-0.000883418 0.000238399 0.00132986)
(-0.00100645 0.000484222 0.00152913)
(-0.00106528 0.000740831 0.0015454)
(-0.00104181 0.000937656 0.00131343)
(-0.000933365 0.00102196 0.000894083)
(-0.000762119 0.00100721 0.000449968)
(-0.000586156 0.000941556 0.000117861)
(-0.00043817 0.000851733 -9.02597e-05)
(-0.000305955 0.000748063 -0.000213346)
(-0.000174482 0.000640094 -0.000269441)
(-3.79969e-05 0.000535402 -0.000261082)
(0.000103658 0.000438598 -0.000186972)
(0.000245568 0.000353321 -4.81924e-05)
(0.00037706 0.000282908 0.000145001)
(0.000485145 0.000226416 0.000368812)
(0.000566162 0.000170876 0.000594927)
(0.000640963 8.95695e-05 0.00081811)
(0.000745748 -4.36791e-05 0.00106478)
(0.000883418 -0.000238399 0.00132986)
(0.00100645 -0.000484222 0.00152913)
(0.00106528 -0.000740831 0.0015454)
(0.000889037 -0.000762316 0.00147575)
(0.000823816 -0.000835826 0.00110752)
(0.000720223 -0.000841134 0.000701429)
(0.000606698 -0.000799297 0.000357011)
(0.0005018 -0.00072641 0.000120231)
(0.00040027 -0.000633618 -1.93984e-05)
(0.000291458 -0.000531759 -8.2243e-05)
(0.000170983 -0.000430741 -7.89717e-05)
(4.01097e-05 -0.000338171 -1.22197e-05)
(-9.43876e-05 -0.000259307 0.000118027)
(-0.000220989 -0.000196035 0.000308677)
(-0.000328548 -0.000144134 0.000549946)
(-0.00041698 -9.04707e-05 0.000827122)
(-0.000504666 -1.51446e-05 0.00112484)
(-0.000612158 9.73684e-05 0.00141722)
(-0.000733725 0.000249551 0.00165194)
(-0.000838409 0.00043268 0.00176609)
(-0.000895285 0.000618192 0.00171107)
(-0.000889037 0.000762316 0.00147575)
(-0.000823816 0.000835826 0.00110752)
(-0.000720223 0.000841134 0.000701429)
(-0.000606698 0.000799297 0.000357011)
(-0.0005018 0.00072641 0.000120231)
(-0.000400271 0.000633618 -1.93984e-05)
(-0.000291458 0.000531759 -8.2243e-05)
(-0.000170983 0.000430741 -7.89717e-05)
(-4.01097e-05 0.000338171 -1.22197e-05)
(9.43876e-05 0.000259307 0.000118027)
(0.000220989 0.000196035 0.000308677)
(0.000328548 0.000144134 0.000549946)
(0.00041698 9.04707e-05 0.000827122)
(0.000504666 1.51446e-05 0.00112484)
(0.000612158 -9.73684e-05 0.00141722)
(0.000733725 -0.000249551 0.00165194)
(0.000838409 -0.00043268 0.00176609)
(0.000895285 -0.000618192 0.00171107)
(0.000718323 -0.000673862 0.00160893)
(0.00070056 -0.000728417 0.00127139)
(0.000665202 -0.000733866 0.000897591)
(0.00061305 -0.000697797 0.000547052)
(0.000547548 -0.000629835 0.000283997)
(0.000471646 -0.000539786 0.000129691)
(0.000381589 -0.000437349 6.58712e-05)
(0.000274793 -0.000333566 7.33182e-05)
(0.000153942 -0.000238735 0.000144568)
(2.7575e-05 -0.000160088 0.00027961)
(-9.16905e-05 -9.91019e-05 0.000480802)
(-0.000193864 -4.93942e-05 0.000750665)
(-0.000281639 1.37734e-06 0.0010875)
(-0.000370042 6.51826e-05 0.00146204)
(-0.000467719 0.000152484 0.00179212)
(-0.000567985 0.00027412 0.00198682)
(-0.00065407 0.000423634 0.00200765)
(-0.000706509 0.000567952 0.00186833)
(-0.000718323 0.000673862 0.00160893)
(-0.00070056 0.000728417 0.00127139)
(-0.000665202 0.000733866 0.000897591)
(-0.00061305 0.000697797 0.000547052)
(-0.000547548 0.000629835 0.000283997)
(-0.000471646 0.000539786 0.000129691)
(-0.000381589 0.000437349 6.58712e-05)