/*--------------------------------*- C++ -*----------------------------------*\
| =========                 |                                                 |
| \\      /  F ield         | OpenFOAM: The Open Source CFD Toolbox           |
|  \\    /   O peration     | Version:  2312                                  |
|   \\  /    A nd           | Website:  www.openfoam.com                      |
|    \\/     M anipulation  |                                                 |
\*---------------------------------------------------------------------------*/
FoamFile
{
    version     2.0;
    format      ascii;
    arch        "LSB;label=32;scalar=64";
    class       volVectorField;
    location    "0.6";
    object      D;
}
// * * * * * * * * * * * * * * * * * * * * * * * * * * * * * * * * * * * * * //

dimensions      [0 1 0 0 0 0 0];

internalField   nonuniform List<vector> 
1620
(
(0.000152867 -0.000273333 4.88992e-05)
(0.000198009 -0.000242635 4.88995e-05)
(0.000237134 -0.000204565 4.88996e-05)
(0.000269054 -0.000160279 4.88994e-05)
(0.000292799 -0.000111123 4.88995e-05)
(0.000307646 -5.85911e-05 4.88994e-05)
(0.000313146 -4.27886e-06 4.8899e-05)
(0.000309132 5.01632e-05 4.88989e-05)
(0.000295725 0.000103081 4.88991e-05)
(0.000273333 0.000152867 4.88992e-05)
(0.000242635 0.000198009 4.88995e-05)
(0.000204565 0.000237134 4.88996e-05)
(0.000160279 0.000269054 4.88994e-05)
(0.000111123 0.000292799 4.88995e-05)
(5.85911e-05 0.000307646 4.88994e-05)
(4.27886e-06 0.000313146 4.8899e-05)
(-5.01632e-05 0.000309132 4.88989e-05)
(-0.000103081 0.000295725 4.88991e-05)
(-0.000152867 0.000273333 4.88992e-05)
(-0.000198009 0.000242635 4.88995e-05)
(-0.000237134 0.000204565 4.88996e-05)
(-0.000269054 0.000160279 4.88994e-05)
(-0.000292799 0.000111123 4.88995e-05)
(-0.000307646 5.85911e-05 4.88994e-05)
(-0.000313146 4.27886e-06 4.8899e-05)
(-0.000309132 -5.01632e-05 4.88989e-05)
(-0.000295725 -0.000103081 4.88991e-05)
(-0.000273333 -0.000152867 4.88992e-05)
(-0.000242635 -0.000198009 4.88995e-05)
(-0.000204565 -0.000237134 4.88996e-05)
(-0.000160279 -0.000269054 4.88994e-05)
(-0.000111123 -0.000292799 4.88995e-05)
(-5.85911e-05 -0.000307646 4.88994e-05)
(-4.27886e-06 -0.000313146 4.8899e-05)
(5.01632e-05 -0.000309132 4.88989e-05)
(0.000103081 -0.000295725 4.88991e-05)
(9.75861e-05 -0.00030622 6.76775e-05)
(0.000149278 -0.000284622 6.76777e-05)
(0.000196434 -0.000254376 6.76777e-05)
(0.000237622 -0.000216401 6.76777e-05)
(0.00027159 -0.000171851 6.76779e-05)
(0.000297305 -0.000122078 6.76778e-05)
(0.000313987 -6.85974e-05 6.76776e-05)
(0.000321129 -1.30323e-05 6.76775e-05)
(0.000318513 4.29291e-05 6.76776e-05)
(0.00030622 9.75861e-05 6.76775e-05)
(0.000284622 0.000149278 6.76777e-05)
(0.000254376 0.000196434 6.76777e-05)
(0.000216401 0.000237622 6.76777e-05)
(0.000171851 0.00027159 6.76779e-05)
(0.000122078 0.000297305 6.76778e-05)
(6.85974e-05 0.000313987 6.76776e-05)
(1.30323e-05 0.000321129 6.76775e-05)
(-4.29291e-05 0.000318513 6.76776e-05)
(-9.75861e-05 0.00030622 6.76775e-05)
(-0.000149278 0.000284622 6.76777e-05)
(-0.000196434 0.000254376 6.76777e-05)
(-0.000237622 0.000216401 6.76777e-05)
(-0.00027159 0.000171851 6.76779e-05)
(-0.000297305 0.000122078 6.76778e-05)
(-0.000313987 6.85974e-05 6.76776e-05)
(-0.000321129 1.30323e-05 6.76775e-05)
(-0.000318513 -4.29291e-05 6.76776e-05)
(-0.00030622 -9.75861e-05 6.76775e-05)
(-0.000284622 -0.000149278 6.76777e-05)
(-0.000254376 -0.000196434 6.76777e-05)
(-0.000216401 -0.000237622 6.76777e-05)
(-0.000171851 -0.00027159 6.76779e-05)
(-0.000122078 -0.000297305 6.76778e-05)
(-6.85974e-05 -0.000313987 6.76776e-05)
(-1.30323e-05 -0.000321129 6.76775e-05)
(4.29291e-05 -0.000318513 6.76776e-05)
(1.31257e-05 -0.000337547 7.70118e-05)
(7.15407e-05 -0.00033014 7.70117e-05)
(0.000127782 -0.000312702 7.7012e-05)
(0.000180141 -0.000285762 7.7012e-05)
(0.000227027 -0.000250139 7.70121e-05)
(0.000267013 -0.000206916 7.70119e-05)
(0.000298888 -0.000157406 7.70119e-05)
(0.00032168 -0.000103114 7.7012e-05)
(0.000334698 -4.56881e-05 7.70118e-05)
(0.000337547 1.31257e-05 7.70118e-05)
(0.00033014 7.15407e-05 7.70117e-05)
(0.000312702 0.000127782 7.7012e-05)
(0.000285762 0.000180141 7.7012e-05)
(0.000250139 0.000227027 7.70121e-05)
(0.000206916 0.000267013 7.70119e-05)
(0.000157406 0.000298888 7.70119e-05)
(0.000103114 0.00032168 7.7012e-05)
(4.56881e-05 0.000334698 7.70118e-05)
(-1.31257e-05 0.000337547 7.70118e-05)
(-7.15407e-05 0.00033014 7.70117e-05)
(-0.000127782 0.000312702 7.7012e-05)
(-0.000180141 0.000285762 7.7012e-05)
(-0.000227027 0.000250139 7.70121e-05)
(-0.000267013 0.000206916 7.70119e-05)
(-0.000298888 0.000157406 7.70119e-05)
(-0.00032168 0.000103114 7.7012e-05)
(-0.000334698 4.56881e-05 7.70118e-05)
(-0.000337547 -1.31257e-05 7.70118e-05)
(-0.00033014 -7.15407e-05 7.70117e-05)
(-0.000312702 -0.000127782 7.7012e-05)
(-0.000285762 -0.000180141 7.7012e-05)
(-0.000250139 -0.000227027 7.70121e-05)
(-0.000206916 -0.000267013 7.70119e-05)
(-0.000157406 -0.000298888 7.70119e-05)
(-0.000103114 -0.00032168 7.7012e-05)
(-4.56881e-05 -0.000334698 7.70118e-05)
(0.000343835 -0.000829928 0.000186477)
(0.000482727 -0.000757613 0.000186478)
(0.000606952 -0.000662278 0.000186478)
(0.000712734 -0.00054682 0.000186478)
(0.00079686 -0.000414747 0.000186479)
(0.000856774 -0.000270073 0.000186478)
(0.000890656 -0.000117193 0.000186477)
(0.000897476 3.9248e-05 0.000186477)
(0.000877025 0.000194496 0.000186477)
(0.000829928 0.000343835 0.000186477)
(0.000757613 0.000482727 0.000186478)
(0.000662278 0.000606952 0.000186478)
(0.00054682 0.000712734 0.000186478)
(0.000414747 0.00079686 0.000186479)
(0.000270073 0.000856774 0.000186478)
(0.000117193 0.000890656 0.000186477)
(-3.9248e-05 0.000897476 0.000186477)
(-0.000194496 0.000877025 0.000186477)
(-0.000343835 0.000829928 0.000186477)
(-0.000482727 0.000757613 0.000186478)
(-0.000606952 0.000662278 0.000186478)
(-0.000712734 0.00054682 0.000186478)
(-0.00079686 0.000414747 0.000186479)
(-0.000856774 0.000270073 0.000186478)
(-0.000890656 0.000117193 0.000186477)
(-0.000897476 -3.9248e-05 0.000186477)
(-0.000877025 -0.000194496 0.000186477)
(-0.000829928 -0.000343835 0.000186477)
(-0.000757613 -0.000482727 0.000186478)
(-0.000662278 -0.000606952 0.000186478)
(-0.00054682 -0.000712734 0.000186478)
(-0.000414747 -0.00079686 0.000186479)
(-0.000270073 -0.000856774 0.000186478)
(-0.000117193 -0.000890656 0.000186477)
(3.9248e-05 -0.000897476 0.000186477)
(0.000194496 -0.000877025 0.000186477)
(0.00025466 -0.000910661 0.000246361)
(0.000408926 -0.000852604 0.000246361)
(0.000550767 -0.000768642 0.000246362)
(0.000675873 -0.000661325 0.000246362)
(0.000780443 -0.000533914 0.000246362)
(0.0008613 -0.000390279 0.000246362)
(0.000915986 -0.000234787 0.000246361)
(0.00094284 -7.21614e-05 0.000246361)
(0.000941047 9.26568e-05 0.000246361)
(0.000910661 0.00025466 0.000246361)
(0.000852604 0.000408926 0.000246361)
(0.000768642 0.000550767 0.000246362)
(0.000661325 0.000675873 0.000246362)
(0.000533914 0.000780443 0.000246362)
(0.000390279 0.0008613 0.000246362)
(0.000234787 0.000915986 0.000246361)
(7.21614e-05 0.00094284 0.000246361)
(-9.26568e-05 0.000941047 0.000246361)
(-0.00025466 0.000910661 0.000246361)
(-0.000408926 0.000852604 0.000246361)
(-0.000550767 0.000768642 0.000246362)
(-0.000675873 0.000661325 0.000246362)
(-0.000780443 0.000533914 0.000246362)
(-0.0008613 0.000390279 0.000246362)
(-0.000915986 0.000234787 0.000246361)
(-0.00094284 7.21614e-05 0.000246361)
(-0.000941047 -9.26568e-05 0.000246361)
(-0.000910661 -0.00025466 0.000246361)
(-0.000852604 -0.000408926 0.000246361)
(-0.000768642 -0.000550767 0.000246362)
(-0.000661325 -0.000675873 0.000246362)
(-0.000533914 -0.000780443 0.000246362)
(-0.000390279 -0.0008613 0.000246362)
(-0.000234787 -0.000915986 0.000246361)
(-7.21614e-05 -0.00094284 0.000246361)
(9.26568e-05 -0.000941047 0.000246361)
(0.000131282 -0.000986385 0.000292124)
(0.000300572 -0.000948603 0.000292124)
(0.000460728 -0.000881997 0.000292124)
(0.000606886 -0.000788593 0.000292124)
(0.000734604 -0.000671227 0.000292124)
(0.000840001 -0.000533467 0.000292124)
(0.000919876 -0.000379498 0.000292124)
(0.0009718 -0.000213998 0.000292124)
(0.000994197 -4.19962e-05 0.000292124)
(0.000986385 0.000131282 0.000292124)
(0.000948603 0.000300572 0.000292124)
(0.000881997 0.000460728 0.000292124)
(0.000788593 0.000606886 0.000292124)
(0.000671227 0.000734604 0.000292124)
(0.000533467 0.000840001 0.000292124)
(0.000379498 0.000919876 0.000292124)
(0.000213998 0.0009718 0.000292124)
(4.19962e-05 0.000994197 0.000292124)
(-0.000131282 0.000986385 0.000292124)
(-0.000300572 0.000948603 0.000292124)
(-0.000460728 0.000881997 0.000292124)
(-0.000606886 0.000788593 0.000292124)
(-0.000734604 0.000671227 0.000292124)
(-0.000840001 0.000533467 0.000292124)
(-0.000919876 0.000379498 0.000292124)
(-0.0009718 0.000213998 0.000292124)
(-0.000994197 4.19962e-05 0.000292124)
(-0.000986385 -0.000131282 0.000292124)
(-0.000948603 -0.000300572 0.000292124)
(-0.000881997 -0.000460728 0.000292124)
(-0.000788593 -0.000606886 0.000292124)
(-0.000671227 -0.000734604 0.000292124)
(-0.000533467 -0.000840001 0.000292124)
(-0.000379498 -0.000919876 0.000292124)
(-0.000213998 -0.0009718 0.000292124)
(-4.19962e-05 -0.000994197 0.000292124)
(0.000495417 -0.00139658 0.000412697)
(0.000730405 -0.00128934 0.000412697)
(0.0009432 -0.00114292 0.000412698)
(0.00112734 -0.000961767 0.000412698)
(0.00127722 -0.000751396 0.000412698)
(0.00138829 -0.000518195 0.000412697)
(0.00145719 -0.000269247 0.000412696)
(0.0014818 -1.21191e-05 0.000412696)
(0.00146139 0.000245377 0.000412696)
(0.00139658 0.000495417 0.000412697)
(0.00128934 0.000730405 0.000412697)
(0.00114292 0.0009432 0.000412698)
(0.000961767 0.00112734 0.000412698)
(0.000751396 0.00127722 0.000412698)
(0.000518195 0.00138829 0.000412697)
(0.000269247 0.00145719 0.000412696)
(1.21191e-05 0.0014818 0.000412696)
(-0.000245377 0.00146139 0.000412696)
(-0.000495417 0.00139658 0.000412697)
(-0.000730405 0.00128934 0.000412697)
(-0.0009432 0.00114292 0.000412698)
(-0.00112734 0.000961767 0.000412698)
(-0.00127722 0.000751396 0.000412698)
(-0.00138829 0.000518195 0.000412697)
(-0.00145719 0.000269247 0.000412696)
(-0.0014818 1.21191e-05 0.000412696)
(-0.00146139 -0.000245377 0.000412696)
(-0.00139658 -0.000495417 0.000412697)
(-0.00128934 -0.000730405 0.000412697)
(-0.00114292 -0.0009432 0.000412698)
(-0.000961767 -0.00112734 0.000412698)
(-0.000751396 -0.00127722 0.000412698)
(-0.000518195 -0.00138829 0.000412697)
(-0.000269247 -0.00145719 0.000412696)
(-1.21191e-05 -0.0014818 0.000412696)
(0.000245377 -0.00146139 0.000412696)
(0.000371227 -0.00149927 0.000494445)
(0.000625932 -0.00141203 0.000494445)
(0.000861618 -0.00128188 0.000494445)
(0.00107112 -0.00111279 0.000494445)
(0.00124809 -0.000909883 0.000494445)
(0.00138712 -0.000679331 0.000494445)
(0.00148402 -0.00042814 0.000494444)
(0.00153582 -0.000163939 0.000494445)
(0.00154095 0.000105243 0.000494444)
(0.00149927 0.000371227 0.000494445)
(0.00141203 0.000625932 0.000494445)
(0.00128188 0.000861618 0.000494445)
(0.00111279 0.00107112 0.000494445)
(0.000909883 0.00124809 0.000494445)
(0.000679331 0.00138712 0.000494445)
(0.00042814 0.00148402 0.000494444)
(0.000163939 0.00153582 0.000494445)
(-0.000105243 0.00154095 0.000494444)
(-0.000371227 0.00149927 0.000494445)
(-0.000625932 0.00141203 0.000494445)
(-0.000861618 0.00128188 0.000494445)
(-0.00107112 0.00111279 0.000494445)
(-0.00124809 0.000909883 0.000494445)
(-0.00138712 0.000679331 0.000494445)
(-0.00148402 0.00042814 0.000494444)
(-0.00153582 0.000163939 0.000494445)
(-0.00154095 -0.000105243 0.000494444)
(-0.00149927 -0.000371227 0.000494445)
(-0.00141203 -0.000625932 0.000494445)
(-0.00128188 -0.000861618 0.000494445)
(-0.00111279 -0.00107112 0.000494445)
(-0.000909883 -0.00124809 0.000494445)
(-0.000679331 -0.00138712 0.000494445)
(-0.00042814 -0.00148402 0.000494444)
(-0.000163939 -0.00153582 0.000494445)
(0.000105243 -0.00154095 0.000494444)
(0.000216474 -0.0015928 0.00056116)
(0.000489772 -0.00153101 0.00056116)
(0.000748188 -0.0014227 0.00056116)
(0.000983871 -0.00127117 0.000561161)
(0.00118966 -0.00108101 0.000561161)
(0.0013593 -0.000858 0.000561161)
(0.00148764 -0.000608925 0.000561161)
(0.00157078 -0.000341349 0.00056116)
(0.00160619 -6.34008e-05 0.00056116)
(0.0015928 0.000216474 0.00056116)
(0.00153101 0.000489772 0.00056116)
(0.0014227 0.000748188 0.00056116)
(0.00127117 0.000983871 0.000561161)
(0.00108101 0.00118966 0.000561161)
(0.000858 0.0013593 0.000561161)
(0.000608925 0.00148764 0.000561161)
(0.000341349 0.00157078 0.00056116)
(6.34008e-05 0.00160619 0.00056116)
(-0.000216474 0.0015928 0.00056116)
(-0.000489772 0.00153101 0.00056116)
(-0.000748188 0.0014227 0.00056116)
(-0.000983871 0.00127117 0.000561161)
(-0.00118966 0.00108101 0.000561161)
(-0.0013593 0.000858 0.000561161)
(-0.00148764 0.000608925 0.000561161)
(-0.00157078 0.000341349 0.00056116)
(-0.00160619 6.34008e-05 0.00056116)
(-0.0015928 -0.000216474 0.00056116)
(-0.00153101 -0.000489772 0.00056116)
(-0.0014227 -0.000748188 0.00056116)
(-0.00127117 -0.000983871 0.000561161)
(-0.00108101 -0.00118966 0.000561161)
(-0.000858 -0.0013593 0.000561161)
(-0.000608925 -0.00148764 0.000561161)
(-0.000341349 -0.00157078 0.00056116)
(-6.34008e-05 -0.00160619 0.00056116)
(0.000579661 -0.00196224 0.000687937)
(0.000911595 -0.00183177 0.000687938)
(0.00121583 -0.00164565 0.000687938)
(0.00148312 -0.00140952 0.000687939)
(0.00170535 -0.00113057 0.000687938)
(0.00187576 -0.000817259 0.000687938)
(0.00198918 -0.00047912 0.000687937)
(0.00204216 -0.000126423 0.000687937)
(0.00203309 0.000230115 0.000687937)
(0.00196224 0.000579661 0.000687937)
(0.00183177 0.000911595 0.000687938)
(0.00164565 0.00121583 0.000687938)
(0.00140952 0.00148312 0.000687939)
(0.00113057 0.00170535 0.000687938)
(0.000817259 0.00187576 0.000687938)
(0.00047912 0.00198918 0.000687937)
(0.000126423 0.00204216 0.000687937)
(-0.000230115 0.00203309 0.000687937)
(-0.000579661 0.00196224 0.000687937)
(-0.000911595 0.00183177 0.000687938)
(-0.00121583 0.00164565 0.000687938)
(-0.00148312 0.00140952 0.000687939)
(-0.00170535 0.00113057 0.000687938)
(-0.00187576 0.000817259 0.000687938)
(-0.00198918 0.00047912 0.000687937)
(-0.00204216 0.000126423 0.000687937)
(-0.00203309 -0.000230115 0.000687937)
(-0.00196224 -0.000579661 0.000687937)
(-0.00183177 -0.000911595 0.000687938)
(-0.00164565 -0.00121583 0.000687938)
(-0.00140952 -0.00148312 0.000687939)
(-0.00113057 -0.00170535 0.000687938)
(-0.000817259 -0.00187576 0.000687938)
(-0.00047912 -0.00198918 0.000687937)
(-0.000126423 -0.00204216 0.000687937)
(0.000230115 -0.00203309 0.000687937)
(0.000434241 -0.0020559 0.000775875)
(0.000784648 -0.00194926 0.000775875)
(0.00111121 -0.0017834 0.000775875)
(0.00140401 -0.00156334 0.000775875)
(0.00165416 -0.00129579 0.000775874)
(0.00185404 -0.000988859 0.000775874)
(0.00199758 -0.000651886 0.000775874)
(0.00208043 -0.000295106 0.000775874)
(0.00210007 7.06405e-05 0.000775874)
(0.0020559 0.000434241 0.000775875)
(0.00194926 0.000784648 0.000775875)
(0.0017834 0.00111121 0.000775875)
(0.00156334 0.00140401 0.000775875)
(0.00129579 0.00165416 0.000775874)
(0.000988859 0.00185404 0.000775874)
(0.000651886 0.00199758 0.000775874)
(0.000295106 0.00208043 0.000775874)
(-7.06405e-05 0.00210007 0.000775874)
(-0.000434241 0.0020559 0.000775875)
(-0.000784648 0.00194926 0.000775875)
(-0.00111121 0.0017834 0.000775875)
(-0.00140401 0.00156334 0.000775875)
(-0.00165416 0.00129579 0.000775874)
(-0.00185404 0.000988859 0.000775874)
(-0.00199758 0.000651886 0.000775874)
(-0.00208043 0.000295106 0.000775874)
(-0.00210007 -7.06405e-05 0.000775874)
(-0.0020559 -0.000434241 0.000775875)
(-0.00194926 -0.000784648 0.000775875)
(-0.0017834 -0.00111121 0.000775875)
(-0.00156334 -0.00140401 0.000775875)
(-0.00129579 -0.00165416 0.000775874)
(-0.000988859 -0.00185404 0.000775874)
(-0.000651886 -0.00199758 0.000775874)
(-0.000295106 -0.00208043 0.000775874)
(7.06405e-05 -0.00210007 0.000775874)
(0.00026282 -0.00213919 0.00084849)
(0.000630294 -0.00206105 0.00084849)
(0.000978616 -0.00192029 0.00084849)
(0.0012972 -0.00172118 0.00084849)
(0.00157638 -0.00146978 0.000848489)
(0.00180765 -0.00117371 0.00084849)
(0.001984 -0.000841986 0.00084849)
(0.00210007 -0.000484676 0.00084849)
(0.00215233 -0.00011264 0.00084849)
(0.00213919 0.00026282 0.00084849)
(0.00206105 0.000630294 0.00084849)
(0.00192029 0.000978616 0.00084849)
(0.00172118 0.0012972 0.00084849)
(0.00146978 0.00157638 0.000848489)
(0.00117371 0.00180765 0.00084849)
(0.000841986 0.001984 0.00084849)
(0.000484676 0.00210007 0.00084849)
(0.00011264 0.00215233 0.00084849)
(-0.00026282 0.00213919 0.00084849)
(-0.000630294 0.00206105 0.00084849)
(-0.000978616 0.00192029 0.00084849)
(-0.0012972 0.00172118 0.00084849)
(-0.00157638 0.00146978 0.000848489)
(-0.00180765 0.00117371 0.00084849)
(-0.001984 0.000841986 0.00084849)
(-0.00210007 0.000484676 0.00084849)
(-0.00215233 0.00011264 0.00084849)
(-0.00213919 -0.00026282 0.00084849)
(-0.00206105 -0.000630294 0.00084849)
(-0.00192029 -0.000978616 0.00084849)
(-0.00172118 -0.0012972 0.00084849)
(-0.00146978 -0.00157638 0.000848489)
(-0.00117371 -0.00180765 0.00084849)
(-0.000841986 -0.001984 0.00084849)
(-0.000484676 -0.00210007 0.00084849)
(-0.00011264 -0.00215233 0.00084849)
(0.0005983 -0.00250195 0.000990854)
(0.00102367 -0.00236004 0.000990853)
(0.00141793 -0.00214643 0.000990853)
(0.00176912 -0.0018676 0.000990853)
(0.00206655 -0.00153202 0.000990853)
(0.00230118 -0.0011499 0.000990853)
(0.0024659 -0.000732832 0.000990852)
(0.00255569 -0.000293499 0.000990852)
(0.00256783 0.000154751 0.000990853)
(0.00250195 0.0005983 0.000990854)
(0.00236004 0.00102367 0.000990853)
(0.00214643 0.00141793 0.000990853)
(0.0018676 0.00176912 0.000990853)
(0.00153202 0.00206655 0.000990853)
(0.0011499 0.00230118 0.000990853)
(0.000732832 0.0024659 0.000990852)
(0.000293499 0.00255569 0.000990852)
(-0.000154751 0.00256783 0.000990853)
(-0.0005983 0.00250195 0.000990854)
(-0.00102367 0.00236004 0.000990853)
(-0.00141793 0.00214643 0.000990853)
(-0.00176912 0.0018676 0.000990853)
(-0.00206655 0.00153202 0.000990853)
(-0.00230118 0.0011499 0.000990853)
(-0.0024659 0.000732832 0.000990852)
(-0.00255569 0.000293499 0.000990852)
(-0.00256783 -0.000154751 0.000990853)
(-0.00250195 -0.0005983 0.000990854)
(-0.00236004 -0.00102367 0.000990853)
(-0.00214643 -0.00141793 0.000990853)
(-0.0018676 -0.00176912 0.000990853)
(-0.00153202 -0.00206655 0.000990853)
(-0.0011499 -0.00230118 0.000990853)
(-0.000732832 -0.0024659 0.000990852)
(-0.000293499 -0.00255569 0.000990852)
(0.000154751 -0.00256783 0.000990853)
(0.000442419 -0.00256281 0.00107379)
(0.000880725 -0.00244705 0.00107379)
(0.00129227 -0.00225693 0.00107379)
(0.00166455 -0.00199825 0.00107379)
(0.00198625 -0.00167884 0.00107379)
(0.00224761 -0.00130843 0.00107379)
(0.00244067 -0.000898258 0.00107379)
(0.00255957 -0.000460795 0.00107379)
(0.0026007 -9.3299e-06 0.00107379)
(0.00256281 0.000442419 0.00107379)
(0.00244705 0.000880725 0.00107379)
(0.00225693 0.00129227 0.00107379)
(0.00199825 0.00166455 0.00107379)
(0.00167884 0.00198625 0.00107379)
(0.00130843 0.00224761 0.00107379)
(0.000898258 0.00244067 0.00107379)
(0.000460795 0.00255957 0.00107379)
(9.3299e-06 0.0026007 0.00107379)
(-0.000442419 0.00256281 0.00107379)
(-0.000880725 0.00244705 0.00107379)
(-0.00129227 0.00225693 0.00107379)
(-0.00166455 0.00199825 0.00107379)
(-0.00198625 0.00167884 0.00107379)
(-0.00224761 0.00130843 0.00107379)
(-0.00244067 0.000898258 0.00107379)
(-0.00255957 0.000460795 0.00107379)
(-0.0026007 9.3299e-06 0.00107379)
(-0.00256281 -0.000442419 0.00107379)
(-0.00244705 -0.000880725 0.00107379)
(-0.00225693 -0.00129227 0.00107379)
(-0.00199825 -0.00166455 0.00107379)
(-0.00167884 -0.00198625 0.00107379)
(-0.00130843 -0.00224761 0.00107379)
(-0.000898258 -0.00244067 0.00107379)
(-0.000460795 -0.00255957 0.00107379)
(-9.3299e-06 -0.0026007 0.00107379)
(0.000265064 -0.00261402 0.00114137)
(0.000714957 -0.00252828 0.00114137)
(0.00114313 -0.00236572 0.00114137)
(0.00153656 -0.00213128 0.00114137)
(0.00188331 -0.00183208 0.00114137)
(0.00217284 -0.00147721 0.00114137)
(0.00239634 -0.00107746 0.00114137)
(0.00254704 -0.000644971 0.00114137)
(0.00262034 -0.000192884 0.00114137)
(0.00261402 0.000265064 0.00114137)
(0.00252828 0.000714957 0.00114137)
(0.00236572 0.00114313 0.00114137)
(0.00213128 0.00153656 0.00114137)
(0.00183208 0.00188331 0.00114137)
(0.00147721 0.00217284 0.00114137)
(0.00107746 0.00239634 0.00114137)
(0.000644971 0.00254704 0.00114137)
(0.000192884 0.00262034 0.00114137)
(-0.000265064 0.00261402 0.00114137)
(-0.000714957 0.00252828 0.00114137)
(-0.00114313 0.00236572 0.00114137)
(-0.00153656 0.00213128 0.00114137)
(-0.00188331 0.00183208 0.00114137)
(-0.00217284 0.00147721 0.00114137)
(-0.00239634 0.00107746 0.00114137)
(-0.00254704 0.000644971 0.00114137)
(-0.00262034 0.000192884 0.00114137)
(-0.00261402 -0.000265064 0.00114137)
(-0.00252828 -0.000714957 0.00114137)
(-0.00236572 -0.00114313 0.00114137)
(-0.00213128 -0.00153656 0.00114137)
(-0.00183208 -0.00188331 0.00114137)
(-0.00147721 -0.00217284 0.00114137)
(-0.00107746 -0.00239634 0.00114137)
(-0.000644971 -0.00254704 0.00114137)
(-0.000192884 -0.00262034 0.00114137)
(0.000563128 -0.00298763 0.00131065)
(0.00107337 -0.00284446 0.00131065)
(0.001551 -0.00261485 0.00131065)
(0.0019815 -0.0023058 0.00131065)
(0.00235179 -0.00192669 0.00131065)
(0.00265063 -0.00148903 0.00131065)
(0.00286893 -0.00100613 0.00131065)
(0.00300006 -0.000492664 0.00131065)
(0.00304003 3.57753e-05 0.00131065)
(0.00298763 0.000563128 0.00131065)
(0.00284446 0.00107337 0.00131065)
(0.00261485 0.001551 0.00131065)
(0.0023058 0.0019815 0.00131065)
(0.00192669 0.00235179 0.00131065)
(0.00148903 0.00265063 0.00131065)
(0.00100613 0.00286893 0.00131065)
(0.000492664 0.00300006 0.00131065)
(-3.57753e-05 0.00304003 0.00131065)
(-0.000563128 0.00298763 0.00131065)
(-0.00107337 0.00284446 0.00131065)
(-0.001551 0.00261485 0.00131065)
(-0.0019815 0.0023058 0.00131065)
(-0.00235179 0.00192669 0.00131065)
(-0.00265063 0.00148903 0.00131065)
(-0.00286893 0.00100613 0.00131065)
(-0.00300006 0.000492664 0.00131065)
(-0.00304003 -3.57753e-05 0.00131065)
(-0.00298763 -0.000563128 0.00131065)
(-0.00284446 -0.00107337 0.00131065)
(-0.00261485 -0.001551 0.00131065)
(-0.0023058 -0.0019815 0.00131065)
(-0.00192669 -0.00235179 0.00131065)
(-0.00148903 -0.00265063 0.00131065)
(-0.00100613 -0.00286893 0.00131065)
(-0.000492664 -0.00300006 0.00131065)
(3.57753e-05 -0.00304003 0.00131065)
(0.000402614 -0.00300054 0.00138047)
(0.000917536 -0.00288504 0.00138047)
(0.00140458 -0.00268188 0.00138047)
(0.00184894 -0.00239724 0.00138047)
(0.00223713 -0.00203975 0.00138047)
(0.00255734 -0.00162029 0.00138047)
(0.00279985 -0.0011516 0.00138047)
(0.00295729 -0.000647913 0.00138047)
(0.00302487 -0.000124541 0.00138047)
(0.00300054 0.000402614 0.00138047)
(0.00288504 0.000917536 0.00138047)
(0.00268188 0.00140458 0.00138047)
(0.00239724 0.00184894 0.00138047)
(0.00203975 0.00223713 0.00138047)
(0.00162029 0.00255734 0.00138047)
(0.0011516 0.00279985 0.00138047)
(0.000647913 0.00295729 0.00138047)
(0.000124541 0.00302487 0.00138047)
(-0.000402614 0.00300054 0.00138047)
(-0.000917536 0.00288504 0.00138047)
(-0.00140458 0.00268188 0.00138047)
(-0.00184894 0.00239724 0.00138047)
(-0.00223713 0.00203975 0.00138047)
(-0.00255734 0.00162029 0.00138047)
(-0.00279985 0.0011516 0.00138047)
(-0.00295729 0.000647913 0.00138047)
(-0.00302487 0.000124541 0.00138047)
(-0.00300054 -0.000402614 0.00138047)
(-0.00288504 -0.000917536 0.00138047)
(-0.00268188 -0.00140458 0.00138047)
(-0.00239724 -0.00184894 0.00138047)
(-0.00203975 -0.00223713 0.00138047)
(-0.00162029 -0.00255734 0.00138047)
(-0.0011516 -0.00279985 0.00138047)
(-0.000647913 -0.00295729 0.00138047)
(-0.000124541 -0.00302487 0.00138047)
(0.000225547 -0.00300595 0.00143478)
(0.000744099 -0.00292112 0.00143478)
(0.00124004 -0.00274753 0.00143478)
(0.00169831 -0.00249046 0.00143478)
(0.00210497 -0.00215771 0.00143478)
(0.00244767 -0.00175941 0.00143478)
(0.002716 -0.00130765 0.00143478)
(0.00290181 -0.000816151 0.00143478)
(0.00299945 -0.000299857 0.00143478)
(0.00300595 0.000225547 0.00143478)
(0.00292112 0.000744099 0.00143478)
(0.00274753 0.00124004 0.00143478)
(0.00249046 0.00169831 0.00143478)
(0.00215771 0.00210497 0.00143478)
(0.00175941 0.00244767 0.00143478)
(0.00130765 0.002716 0.00143478)
(0.000816151 0.00290181 0.00143478)
(0.000299857 0.00299945 0.00143478)
(-0.000225547 0.00300595 0.00143478)
(-0.000744099 0.00292112 0.00143478)
(-0.00124004 0.00274753 0.00143478)
(-0.00169831 0.00249046 0.00143478)
(-0.00210497 0.00215771 0.00143478)
(-0.00244767 0.00175941 0.00143478)
(-0.002716 0.00130765 0.00143478)
(-0.00290181 0.000816151 0.00143478)
(-0.00299945 0.000299857 0.00143478)
(-0.00300595 -0.000225547 0.00143478)
(-0.00292112 -0.000744099 0.00143478)
(-0.00274753 -0.00124004 0.00143478)
(-0.00249046 -0.00169831 0.00143478)
(-0.00215771 -0.00210497 0.00143478)
(-0.00175941 -0.00244767 0.00143478)
(-0.00130765 -0.002716 0.00143478)
(-0.000816151 -0.00290181 0.00143478)
(-0.000299857 -0.00299945 0.00143478)
(0.000491639 -0.00339338 0.0016474)
(0.00107343 -0.00325646 0.0016474)
(0.0016226 -0.00302059 0.0016474)
(0.00212246 -0.00269294 0.0016474)
(0.00255784 -0.00228346 0.0016474)
(0.0029155 -0.00180461 0.0016474)
(0.00318458 -0.00127092 0.0016474)
(0.00335689 -0.000698615 0.0016474)
(0.0034272 -0.000105084 0.0016474)
(0.00339338 0.000491639 0.0016474)
(0.00325646 0.00107343 0.0016474)
(0.00302059 0.0016226 0.0016474)
(0.00269294 0.00212246 0.0016474)
(0.00228346 0.00255784 0.0016474)
(0.00180461 0.0029155 0.0016474)
(0.00127092 0.00318458 0.0016474)
(0.000698615 0.00335689 0.0016474)
(0.000105084 0.0034272 0.0016474)
(-0.000491639 0.00339338 0.0016474)
(-0.00107343 0.00325646 0.0016474)
(-0.0016226 0.00302059 0.0016474)
(-0.00212246 0.00269294 0.0016474)
(-0.00255784 0.00228346 0.0016474)
(-0.0029155 0.00180461 0.0016474)
(-0.00318458 0.00127092 0.0016474)
(-0.00335689 0.000698615 0.0016474)
(-0.0034272 0.000105084 0.0016474)
(-0.00339338 -0.000491639 0.0016474)
(-0.00325646 -0.00107343 0.0016474)
(-0.00302059 -0.0016226 0.0016474)
(-0.00269294 -0.00212246 0.0016474)
(-0.00228346 -0.00255784 0.0016474)
(-0.00180461 -0.0029155 0.0016474)
(-0.00127092 -0.00318458 0.0016474)
(-0.000698615 -0.00335689 0.0016474)
(-0.000105084 -0.0034272 0.0016474)
(0.000327986 -0.00334915 0.00169722)
(0.000904579 -0.00324132 0.00169722)
(0.00145368 -0.00303499 0.00169722)
(0.00195862 -0.00273646 0.00169722)
(0.00240405 -0.00235477 0.00169722)
(0.00277642 -0.00190154 0.00169722)
(0.00306444 -0.00139053 0.00169722)
(0.00325935 -0.000837271 0.00169722)
(0.00335523 -0.00025857 0.00169722)
(0.00334915 0.000327986 0.00169722)
(0.00324132 0.000904579 0.00169722)
(0.00303499 0.00145368 0.00169722)
(0.00273646 0.00195862 0.00169722)
(0.00235477 0.00240405 0.00169722)
(0.00190154 0.00277642 0.00169722)
(0.00139053 0.00306444 0.00169722)
(0.000837271 0.00325935 0.00169722)
(0.00025857 0.00335523 0.00169722)
(-0.000327986 0.00334915 0.00169722)
(-0.000904579 0.00324132 0.00169722)
(-0.00145368 0.00303499 0.00169722)
(-0.00195862 0.00273646 0.00169722)
(-0.00240405 0.00235477 0.00169722)
(-0.00277642 0.00190154 0.00169722)
(-0.00306444 0.00139053 0.00169722)
(-0.00325935 0.000837271 0.00169722)
(-0.00335523 0.00025857 0.00169722)
(-0.00334915 -0.000327986 0.00169722)
(-0.00324132 -0.000904579 0.00169722)
(-0.00303499 -0.00145368 0.00169722)
(-0.00273646 -0.00195862 0.00169722)
(-0.00235477 -0.00240405 0.00169722)
(-0.00190154 -0.00277642 0.00169722)
(-0.00139053 -0.00306444 0.00169722)
(-0.000837271 -0.00325935 0.00169722)
(-0.00025857 -0.00335523 0.00169722)
(0.000153473 -0.00330108 0.00173099)
(0.000724368 -0.00322428 0.00173099)
(0.00127325 -0.00304951 0.00173099)
(0.00178345 -0.00278208 0.00173099)
(0.00223946 -0.00243012 0.00173099)
(0.00262742 -0.00200433 0.00173099)
(0.00293556 -0.00151763 0.00173099)
(0.00315449 -0.000984819 0.00173099)
(0.00327758 -0.000422086 0.00173099)
(0.00330108 0.000153473 0.00173099)
(0.00322428 0.000724368 0.00173099)
(0.00304951 0.00127325 0.00173099)
(0.00278208 0.00178345 0.00173099)
(0.00243012 0.00223946 0.00173099)
(0.00200433 0.00262742 0.00173099)
(0.00151763 0.00293556 0.00173099)
(0.000984819 0.00315449 0.00173099)
(0.000422086 0.00327758 0.00173099)
(-0.000153473 0.00330108 0.00173099)
(-0.000724368 0.00322428 0.00173099)
(-0.00127325 0.00304951 0.00173099)
(-0.00178345 0.00278208 0.00173099)
(-0.00223946 0.00243012 0.00173099)
(-0.00262742 0.00200433 0.00173099)
(-0.00293556 0.00151763 0.00173099)
(-0.00315449 0.000984819 0.00173099)
(-0.00327758 0.000422086 0.00173099)
(-0.00330108 -0.000153473 0.00173099)
(-0.00322428 -0.000724368 0.00173099)
(-0.00304951 -0.00127325 0.00173099)
(-0.00278208 -0.00178345 0.00173099)
(-0.00243012 -0.00223946 0.00173099)
(-0.00200433 -0.00262742 0.00173099)
(-0.00151763 -0.00293556 0.00173099)
(-0.000984819 -0.00315449 0.00173099)
(-0.000422086 -0.00327758 0.00173099)
(0.000404136 -0.00369616 0.00200815)
(0.00103983 -0.00356983 0.00200815)
(0.00164392 -0.00333503 0.00200815)
(0.00219807 -0.0029989 0.00200815)
(0.00268543 -0.00257165 0.00200815)
(0.0030912 -0.00206626 0.00200815)
(0.00340304 -0.00149809 0.00200815)
(0.00361148 -0.000884396 0.00200815)
(0.00371018 -0.000243834 0.00200815)
(0.00369616 0.000404136 0.00200815)
(0.00356983 0.00103983 0.00200815)
(0.00333503 0.00164392 0.00200815)
(0.0029989 0.00219807 0.00200815)
(0.00257165 0.00268543 0.00200815)
(0.00206626 0.0030912 0.00200815)
(0.00149809 0.00340304 0.00200815)
(0.000884396 0.00361148 0.00200815)
(0.000243834 0.00371018 0.00200815)
(-0.000404136 0.00369616 0.00200815)
(-0.00103983 0.00356983 0.00200815)
(-0.00164392 0.00333503 0.00200815)
(-0.00219807 0.0029989 0.00200815)
(-0.00268543 0.00257165 0.00200815)
(-0.0030912 0.00206626 0.00200815)
(-0.00340304 0.00149809 0.00200815)
(-0.00361148 0.000884396 0.00200815)
(-0.00371018 0.000243834 0.00200815)