/*--------------------------------*- C++ -*----------------------------------*\
| =========                 |                                                 |
| \\      /  F ield         | OpenFOAM: The Open Source CFD Toolbox           |
|  \\    /   O peration     | Version:  2312                                  |
|   \\  /    A nd           | Website:  www.openfoam.com                      |
|    \\/     M anipulation  |                                                 |
\*---------------------------------------------------------------------------*/
FoamFile
{
    version     2.0;
    format      ascii;
    arch        "LSB;label=32;scalar=64";
    class       volVectorField;
    location    "0.6";
    object      D_0;
}
// * * * * * * * * * * * * * * * * * * * * * * * * * * * * * * * * * * * * * //

dimensions      [0 1 0 0 0 0 0];

internalField   nonuniform List<vector> 
1620
(
(0.000152075 -0.000272385 4.87827e-05)
(0.000197063 -0.000241839 4.8783e-05)
(0.000236065 -0.000203945 4.87831e-05)
(0.000267894 -0.000159855 4.8783e-05)
(0.000291582 -0.000110907 4.87831e-05)
(0.000306411 -5.85893e-05 4.8783e-05)
(0.00031193 -4.49161e-06 4.87826e-05)
(0.000307971 4.97424e-05 4.87825e-05)
(0.000294654 0.000102465 4.87827e-05)
(0.000272385 0.000152075 4.87827e-05)
(0.000241839 0.000197063 4.8783e-05)
(0.000203945 0.000236065 4.87831e-05)
(0.000159855 0.000267894 4.8783e-05)
(0.000110907 0.000291582 4.87831e-05)
(5.85893e-05 0.000306411 4.8783e-05)
(4.49161e-06 0.00031193 4.87826e-05)
(-4.97424e-05 0.000307971 4.87825e-05)
(-0.000102465 0.000294654 4.87827e-05)
(-0.000152075 0.000272385 4.87827e-05)
(-0.000197063 0.000241839 4.8783e-05)
(-0.000236065 0.000203945 4.87831e-05)
(-0.000267894 0.000159855 4.8783e-05)
(-0.000291582 0.000110907 4.87831e-05)
(-0.000306411 5.85893e-05 4.8783e-05)
(-0.00031193 4.49161e-06 4.87826e-05)
(-0.000307971 -4.97424e-05 4.87825e-05)
(-0.000294654 -0.000102465 4.87827e-05)
(-0.000272385 -0.000152075 4.87827e-05)
(-0.000241839 -0.000197063 4.8783e-05)
(-0.000203945 -0.000236065 4.87831e-05)
(-0.000159855 -0.000267894 4.8783e-05)
(-0.000110907 -0.000291582 4.87831e-05)
(-5.85893e-05 -0.000306411 4.8783e-05)
(-4.49161e-06 -0.00031193 4.87826e-05)
(4.97424e-05 -0.000307971 4.87825e-05)
(0.000102465 -0.000294654 4.87827e-05)
(9.71354e-05 -0.000304533 6.70753e-05)
(0.000148541 -0.000283039 6.70755e-05)
(0.000195434 -0.000252945 6.70755e-05)
(0.000236388 -0.000215166 6.70755e-05)
(0.000270161 -0.000170848 6.70757e-05)
(0.000295723 -0.000121339 6.70756e-05)
(0.000312301 -6.81444e-05 6.70754e-05)
(0.00031939 -1.28789e-05 6.70753e-05)
(0.000316774 4.27781e-05 6.70753e-05)
(0.000304533 9.71354e-05 6.70753e-05)
(0.000283039 0.000148541 6.70755e-05)
(0.000252945 0.000195434 6.70755e-05)
(0.000215166 0.000236388 6.70755e-05)
(0.000170848 0.000270161 6.70757e-05)
(0.000121339 0.000295723 6.70756e-05)
(6.81444e-05 0.000312301 6.70754e-05)
(1.28789e-05 0.00031939 6.70753e-05)
(-4.27781e-05 0.000316774 6.70753e-05)
(-9.71354e-05 0.000304533 6.70753e-05)
(-0.000148541 0.000283039 6.70755e-05)
(-0.000195434 0.000252945 6.70755e-05)
(-0.000236388 0.000215166 6.70755e-05)
(-0.000270161 0.000170848 6.70757e-05)
(-0.000295723 0.000121339 6.70756e-05)
(-0.000312301 6.81444e-05 6.70754e-05)
(-0.00031939 1.28789e-05 6.70753e-05)
(-0.000316774 -4.27781e-05 6.70753e-05)
(-0.000304533 -9.71354e-05 6.70753e-05)
(-0.000283039 -0.000148541 6.70755e-05)
(-0.000252945 -0.000195434 6.70755e-05)
(-0.000215166 -0.000236388 6.70755e-05)
(-0.000170848 -0.000270161 6.70757e-05)
(-0.000121339 -0.000295723 6.70756e-05)
(-6.81444e-05 -0.000312301 6.70754e-05)
(-1.28789e-05 -0.00031939 6.70753e-05)
(4.27781e-05 -0.000316774 6.70753e-05)
(1.34911e-05 -0.000335166 7.61139e-05)
(7.14872e-05 -0.000327732 7.61138e-05)
(0.000127311 -0.00031034 7.61141e-05)
(0.000179267 -0.000283517 7.61141e-05)
(0.000225776 -0.000248081 7.61142e-05)
(0.000265424 -0.000205106 7.6114e-05)
(0.000297009 -0.0001559 7.6114e-05)
(0.000319568 -0.000101956 7.61141e-05)
(0.000332417 -4.49148e-05 7.6114e-05)
(0.000335166 1.34911e-05 7.61139e-05)
(0.000327732 7.14872e-05 7.61138e-05)
(0.00031034 0.000127311 7.61141e-05)
(0.000283517 0.000179267 7.61141e-05)
(0.000248081 0.000225776 7.61142e-05)
(0.000205106 0.000265424 7.6114e-05)
(0.0001559 0.000297009 7.6114e-05)
(0.000101956 0.000319568 7.61141e-05)
(4.49148e-05 0.000332417 7.6114e-05)
(-1.34911e-05 0.000335166 7.61139e-05)
(-7.14872e-05 0.000327732 7.61138e-05)
(-0.000127311 0.00031034 7.61141e-05)
(-0.000179267 0.000283517 7.61141e-05)
(-0.000225776 0.000248081 7.61142e-05)
(-0.000265424 0.000205106 7.6114e-05)
(-0.000297009 0.0001559 7.6114e-05)
(-0.000319568 0.000101956 7.61141e-05)
(-0.000332417 4.49148e-05 7.6114e-05)
(-0.000335166 -1.34911e-05 7.61139e-05)
(-0.000327732 -7.14872e-05 7.61138e-05)
(-0.00031034 -0.000127311 7.61141e-05)
(-0.000283517 -0.000179267 7.61141e-05)
(-0.000248081 -0.000225776 7.61142e-05)
(-0.000205106 -0.000265424 7.6114e-05)
(-0.0001559 -0.000297009 7.6114e-05)
(-0.000101956 -0.000319568 7.61141e-05)
(-4.49148e-05 -0.000332417 7.6114e-05)
(0.000342257 -0.00082684 0.000185783)
(0.000480637 -0.000754846 0.000185784)
(0.000604413 -0.000659917 0.000185784)
(0.000709824 -0.000544935 0.000185784)
(0.000793667 -0.000413397 0.000185784)
(0.000853395 -0.000269298 0.000185784)
(0.000887193 -0.000117016 0.000185783)
(0.000894034 3.88212e-05 0.000185782)
(0.000873711 0.000193478 0.000185783)
(0.00082684 0.000342257 0.000185783)
(0.000754846 0.000480637 0.000185784)
(0.000659917 0.000604413 0.000185784)
(0.000544935 0.000709824 0.000185784)
(0.000413397 0.000793667 0.000185784)
(0.000269298 0.000853395 0.000185784)
(0.000117016 0.000887193 0.000185783)
(-3.88212e-05 0.000894034 0.000185782)
(-0.000193478 0.000873711 0.000185783)
(-0.000342257 0.00082684 0.000185783)
(-0.000480637 0.000754846 0.000185784)
(-0.000604413 0.000659917 0.000185784)
(-0.000709824 0.000544935 0.000185784)
(-0.000793667 0.000413397 0.000185784)
(-0.000853395 0.000269298 0.000185784)
(-0.000887193 0.000117016 0.000185783)
(-0.000894034 -3.88212e-05 0.000185782)
(-0.000873711 -0.000193478 0.000185783)
(-0.00082684 -0.000342257 0.000185783)
(-0.000754846 -0.000480637 0.000185784)
(-0.000659917 -0.000604413 0.000185784)
(-0.000544935 -0.000709824 0.000185784)
(-0.000413397 -0.000793667 0.000185784)
(-0.000269298 -0.000853395 0.000185784)
(-0.000117016 -0.000887193 0.000185783)
(3.88212e-05 -0.000894034 0.000185782)
(0.000193478 -0.000873711 0.000185783)
(0.00025381 -0.000905638 0.000244409)
(0.000407216 -0.000847806 0.000244409)
(0.00054825 -0.000764213 0.000244409)
(0.000672625 -0.000657401 0.00024441)
(0.000776563 -0.000530613 0.00024441)
(0.000856906 -0.000387703 0.00024441)
(0.000911211 -0.000233013 0.000244409)
(0.000937829 -7.12431e-05 0.000244408)
(0.000935953 9.26912e-05 0.000244409)
(0.000905638 0.00025381 0.000244409)
(0.000847806 0.000407216 0.000244409)
(0.000764213 0.00054825 0.000244409)
(0.000657401 0.000672625 0.00024441)
(0.000530613 0.000776563 0.00024441)
(0.000387703 0.000856906 0.00024441)
(0.000233013 0.000911211 0.000244409)
(7.12431e-05 0.000937829 0.000244408)
(-9.26912e-05 0.000935953 0.000244409)
(-0.00025381 0.000905638 0.000244409)
(-0.000407216 0.000847806 0.000244409)
(-0.00054825 0.000764213 0.000244409)
(-0.000672625 0.000657401 0.00024441)
(-0.000776563 0.000530613 0.00024441)
(-0.000856906 0.000387703 0.00024441)
(-0.000911211 0.000233013 0.000244409)
(-0.000937829 7.12431e-05 0.000244408)
(-0.000935953 -9.26912e-05 0.000244409)
(-0.000905638 -0.00025381 0.000244409)
(-0.000847806 -0.000407216 0.000244409)
(-0.000764213 -0.00054825 0.000244409)
(-0.000657401 -0.000672625 0.00024441)
(-0.000530613 -0.000776563 0.00024441)
(-0.000387703 -0.000856906 0.00024441)
(-0.000233013 -0.000911211 0.000244409)
(-7.12431e-05 -0.000937829 0.000244408)
(9.26912e-05 -0.000935953 0.000244409)
(0.000131729 -0.000979538 0.000289207)
(0.000299822 -0.000941782 0.000289206)
(0.000458805 -0.00087541 0.000289207)
(0.000603848 -0.000782439 0.000289207)
(0.000730544 -0.000665695 0.000289207)
(0.000835043 -0.000528724 0.000289207)
(0.000914169 -0.000375688 0.000289207)
(0.000965518 -0.000211237 0.000289207)
(0.000987531 -4.03678e-05 0.000289207)
(0.000979538 0.000131729 0.000289207)
(0.000941782 0.000299822 0.000289206)
(0.00087541 0.000458805 0.000289207)
(0.000782439 0.000603848 0.000289207)
(0.000665695 0.000730544 0.000289207)
(0.000528724 0.000835043 0.000289207)
(0.000375688 0.000914169 0.000289207)
(0.000211237 0.000965518 0.000289207)
(4.03678e-05 0.000987531 0.000289207)
(-0.000131729 0.000979538 0.000289207)
(-0.000299822 0.000941782 0.000289206)
(-0.000458805 0.00087541 0.000289207)
(-0.000603848 0.000782439 0.000289207)
(-0.000730544 0.000665695 0.000289207)
(-0.000835043 0.000528724 0.000289207)
(-0.000914169 0.000375688 0.000289207)
(-0.000965518 0.000211237 0.000289207)
(-0.000987531 4.03678e-05 0.000289207)
(-0.000979538 -0.000131729 0.000289207)
(-0.000941782 -0.000299822 0.000289206)
(-0.00087541 -0.000458805 0.000289207)
(-0.000782439 -0.000603848 0.000289207)
(-0.000665695 -0.000730544 0.000289207)
(-0.000528724 -0.000835043 0.000289207)
(-0.000375688 -0.000914169 0.000289207)
(-0.000211237 -0.000965518 0.000289207)
(-4.03678e-05 -0.000987531 0.000289207)
(0.000493659 -0.00139091 0.000410902)
(0.000727687 -0.00128405 0.000410903)
(0.000939606 -0.00113818 0.000410904)
(0.00112297 -0.00095773 0.000410904)
(0.00127222 -0.000748178 0.000410904)
(0.00138281 -0.000515893 0.000410903)
(0.00145139 -0.000267931 0.000410902)
(0.00147587 -1.18299e-05 0.000410902)
(0.0014555 0.000244631 0.000410902)
(0.00139091 0.000493659 0.000410902)
(0.00128405 0.000727687 0.000410903)
(0.00113818 0.000939606 0.000410904)
(0.00095773 0.00112297 0.000410904)
(0.000748178 0.00127222 0.000410904)
(0.000515893 0.00138281 0.000410903)
(0.000267931 0.00145139 0.000410902)
(1.18299e-05 0.00147587 0.000410902)
(-0.000244631 0.0014555 0.000410902)
(-0.000493659 0.00139091 0.000410902)
(-0.000727687 0.00128405 0.000410903)
(-0.000939606 0.00113818 0.000410904)
(-0.00112297 0.00095773 0.000410904)
(-0.00127222 0.000748178 0.000410904)
(-0.00138281 0.000515893 0.000410903)
(-0.00145139 0.000267931 0.000410902)
(-0.00147587 1.18299e-05 0.000410902)
(-0.0014555 -0.000244631 0.000410902)
(-0.00139091 -0.000493659 0.000410902)
(-0.00128405 -0.000727687 0.000410903)
(-0.00113818 -0.000939606 0.000410904)
(-0.00095773 -0.00112297 0.000410904)
(-0.000748178 -0.00127222 0.000410904)
(-0.000515893 -0.00138281 0.000410903)
(-0.000267931 -0.00145139 0.000410902)
(-1.18299e-05 -0.00147587 0.000410902)
(0.000244631 -0.0014555 0.000410902)
(0.000370458 -0.00149094 0.000491008)
(0.000623729 -0.00140396 0.000491008)
(0.000858049 -0.00127432 0.000491008)
(0.0010663 -0.00110596 0.000491008)
(0.00124215 -0.000904001 0.000491008)
(0.00138025 -0.00067457 0.000491008)
(0.00147642 -0.000424644 0.000491008)
(0.00152773 -0.000161815 0.000491008)
(0.00153262 0.000105931 0.000491008)
(0.00149094 0.000370458 0.000491008)
(0.00140396 0.000623729 0.000491008)
(0.00127432 0.000858049 0.000491008)
(0.00110596 0.0010663 0.000491008)
(0.000904001 0.00124215 0.000491008)
(0.00067457 0.00138025 0.000491008)
(0.000424644 0.00147642 0.000491008)
(0.000161815 0.00152773 0.000491008)
(-0.000105931 0.00153262 0.000491008)
(-0.000370458 0.00149094 0.000491008)
(-0.000623729 0.00140396 0.000491008)
(-0.000858049 0.00127432 0.000491008)
(-0.0010663 0.00110596 0.000491008)
(-0.00124215 0.000904001 0.000491008)
(-0.00138025 0.00067457 0.000491008)
(-0.00147642 0.000424644 0.000491008)
(-0.00152773 0.000161815 0.000491008)
(-0.00153262 -0.000105931 0.000491008)
(-0.00149094 -0.000370458 0.000491008)
(-0.00140396 -0.000623729 0.000491008)
(-0.00127432 -0.000858049 0.000491008)
(-0.00110596 -0.0010663 0.000491008)
(-0.000904001 -0.00124215 0.000491008)
(-0.00067457 -0.00138025 0.000491008)
(-0.000424644 -0.00147642 0.000491008)
(-0.000161815 -0.00152773 0.000491008)
(0.000105931 -0.00153262 0.000491008)
(0.0002172 -0.001582 0.000556387)
(0.000488613 -0.00152025 0.000556387)
(0.000745179 -0.00141231 0.000556387)
(0.000979104 -0.00126146 0.000556387)
(0.00118328 -0.00107227 0.000556387)
(0.0013515 -0.000850507 0.000556387)
(0.00147866 -0.000602901 0.000556387)
(0.00156088 -0.000336976 0.000556387)
(0.00159569 -6.0812e-05 0.000556387)
(0.001582 0.0002172 0.000556387)
(0.00152025 0.000488613 0.000556387)
(0.00141231 0.000745179 0.000556387)
(0.00126146 0.000979104 0.000556387)
(0.00107227 0.00118328 0.000556387)
(0.000850507 0.0013515 0.000556387)
(0.000602901 0.00147866 0.000556387)
(0.000336976 0.00156088 0.000556387)
(6.0812e-05 0.00159569 0.000556387)
(-0.0002172 0.001582 0.000556387)
(-0.000488613 0.00152025 0.000556387)
(-0.000745179 0.00141231 0.000556387)
(-0.000979104 0.00126146 0.000556387)
(-0.00118328 0.00107227 0.000556387)
(-0.0013515 0.000850507 0.000556387)
(-0.00147866 0.000602901 0.000556387)
(-0.00156088 0.000336976 0.000556387)
(-0.00159569 6.0812e-05 0.000556387)
(-0.001582 -0.0002172 0.000556387)
(-0.00152025 -0.000488613 0.000556387)
(-0.00141231 -0.000745179 0.000556387)
(-0.00126146 -0.000979104 0.000556387)
(-0.00107227 -0.00118328 0.000556387)
(-0.000850507 -0.0013515 0.000556387)
(-0.000602901 -0.00147866 0.000556387)
(-0.000336976 -0.00156088 0.000556387)
(-6.0812e-05 -0.00159569 0.000556387)
(0.000578584 -0.00195366 0.000685131)
(0.000909043 -0.00182351 0.000685132)
(0.00121188 -0.00163795 0.000685132)
(0.0014779 -0.00140262 0.000685132)
(0.00169901 -0.00112468 0.000685132)
(0.0018685 -0.000812566 0.000685131)
(0.00198121 -0.00047576 0.000685131)
(0.00203373 -0.000124499 0.000685131)
(0.00202445 0.000230545 0.000685131)
(0.00195366 0.000578584 0.000685131)
(0.00182351 0.000909043 0.000685132)
(0.00163795 0.00121188 0.000685132)
(0.00140262 0.0014779 0.000685132)
(0.00112468 0.00169901 0.000685132)
(0.000812566 0.0018685 0.000685131)
(0.00047576 0.00198121 0.000685131)
(0.000124499 0.00203373 0.000685131)
(-0.000230545 0.00202445 0.000685131)
(-0.000578584 0.00195366 0.000685131)
(-0.000909043 0.00182351 0.000685132)
(-0.00121188 0.00163795 0.000685132)
(-0.0014779 0.00140262 0.000685132)
(-0.00169901 0.00112468 0.000685132)
(-0.0018685 0.000812566 0.000685131)
(-0.00198121 0.00047576 0.000685131)
(-0.00203373 0.000124499 0.000685131)
(-0.00202445 -0.000230545 0.000685131)
(-0.00195366 -0.000578584 0.000685131)
(-0.00182351 -0.000909043 0.000685132)
(-0.00163795 -0.00121188 0.000685132)
(-0.00140262 -0.0014779 0.000685132)
(-0.00112468 -0.00169901 0.000685132)
(-0.000812566 -0.0018685 0.000685131)
(-0.00047576 -0.00198121 0.000685131)
(-0.000124499 -0.00203373 0.000685131)
(0.000230545 -0.00202445 0.000685131)
(0.000434136 -0.00204444 0.000771302)
(0.000782555 -0.00193799 0.000771302)
(0.0011072 -0.00177266 0.000771303)
(0.00139819 -0.00155347 0.000771302)
(0.00164671 -0.00128707 0.000771302)
(0.00184519 -0.000981573 0.000771302)
(0.00198761 -0.000646248 0.000771302)
(0.00206963 -0.000291285 0.000771302)
(0.00208877 7.25273e-05 0.000771302)
(0.00204444 0.000434136 0.000771302)
(0.00193799 0.000782555 0.000771302)
(0.00177266 0.0011072 0.000771303)
(0.00155347 0.00139819 0.000771302)
(0.00128707 0.00164671 0.000771302)
(0.000981573 0.00184519 0.000771302)
(0.000646248 0.00198761 0.000771302)
(0.000291285 0.00206963 0.000771302)
(-7.25273e-05 0.00208877 0.000771302)
(-0.000434136 0.00204444 0.000771302)
(-0.000782555 0.00193799 0.000771302)
(-0.0011072 0.00177266 0.000771303)
(-0.00139819 0.00155347 0.000771302)
(-0.00164671 0.00128707 0.000771302)
(-0.00184519 0.000981573 0.000771302)
(-0.00198761 0.000646248 0.000771302)
(-0.00206963 0.000291285 0.000771302)
(-0.00208877 -7.25273e-05 0.000771302)
(-0.00204444 -0.000434136 0.000771302)
(-0.00193799 -0.000782555 0.000771302)
(-0.00177266 -0.0011072 0.000771303)
(-0.00155347 -0.00139819 0.000771302)
(-0.00128707 -0.00164671 0.000771302)
(-0.000981573 -0.00184519 0.000771302)
(-0.000646248 -0.00198761 0.000771302)
(-0.000291285 -0.00206963 0.000771302)
(7.25273e-05 -0.00208877 0.000771302)
(0.000264122 -0.00212505 0.000842451)
(0.000629121 -0.0020469 0.000842451)
(0.000975004 -0.00190656 0.000842451)
(0.00129126 -0.00170829 0.000842451)
(0.00156829 -0.00145811 0.00084245)
(0.00179766 -0.00116363 0.000842451)
(0.00197241 -0.00083379 0.000842451)
(0.00208723 -0.000478617 0.00084245)
(0.00213863 -0.000108902 0.000842451)
(0.00212505 0.000264122 0.000842451)
(0.0020469 0.000629121 0.000842451)
(0.00190656 0.000975004 0.000842451)
(0.00170829 0.00129126 0.000842451)
(0.00145811 0.00156829 0.00084245)
(0.00116363 0.00179766 0.000842451)
(0.00083379 0.00197241 0.000842451)
(0.000478617 0.00208723 0.00084245)
(0.000108902 0.00213863 0.000842451)
(-0.000264122 0.00212505 0.000842451)
(-0.000629121 0.0020469 0.000842451)
(-0.000975004 0.00190656 0.000842451)
(-0.00129126 0.00170829 0.000842451)
(-0.00156829 0.00145811 0.00084245)
(-0.00179766 0.00116363 0.000842451)
(-0.00197241 0.00083379 0.000842451)
(-0.00208723 0.000478617 0.00084245)
(-0.00213863 0.000108902 0.000842451)
(-0.00212505 -0.000264122 0.000842451)
(-0.0020469 -0.000629121 0.000842451)
(-0.00190656 -0.000975004 0.000842451)
(-0.00170829 -0.00129126 0.000842451)
(-0.00145811 -0.00156829 0.00084245)
(-0.00116363 -0.00179766 0.000842451)
(-0.00083379 -0.00197241 0.000842451)
(-0.000478617 -0.00208723 0.00084245)
(-0.000108902 -0.00213863 0.000842451)
(0.000598577 -0.00249055 0.000987451)
(0.00102196 -0.00234877 0.000987451)
(0.0014143 -0.00213562 0.000987451)
(0.00176366 -0.00185759 0.000987451)
(0.00205943 -0.00152311 0.000987451)
(0.00229263 -0.00114236 0.000987451)
(0.00245617 -0.000726892 0.00098745)
(0.00254508 -0.00028934 0.00098745)
(0.00255665 0.000157003 0.000987451)
(0.00249055 0.000598577 0.000987451)
(0.00234877 0.00102196 0.000987451)
(0.00213562 0.0014143 0.000987451)
(0.00185759 0.00176366 0.000987451)
(0.00152311 0.00205943 0.000987451)
(0.00114236 0.00229263 0.000987451)
(0.000726892 0.00245617 0.00098745)
(0.00028934 0.00254508 0.00098745)
(-0.000157003 0.00255665 0.000987451)
(-0.000598577 0.00249055 0.000987451)
(-0.00102196 0.00234877 0.000987451)
(-0.0014143 0.00213562 0.000987451)
(-0.00176366 0.00185759 0.000987451)
(-0.00205943 0.00152311 0.000987451)
(-0.00229263 0.00114236 0.000987451)
(-0.00245617 0.000726892 0.00098745)
(-0.00254508 0.00028934 0.00098745)
(-0.00255665 -0.000157003 0.000987451)
(-0.00249055 -0.000598577 0.000987451)
(-0.00234877 -0.00102196 0.000987451)
(-0.00213562 -0.0014143 0.000987451)
(-0.00185759 -0.00176366 0.000987451)
(-0.00152311 -0.00205943 0.000987451)
(-0.00114236 -0.00229263 0.000987451)
(-0.000726892 -0.00245617 0.00098745)
(-0.00028934 -0.00254508 0.00098745)
(0.000157003 -0.00255665 0.000987451)
(0.000443496 -0.00254855 0.00106863)
(0.00087931 -0.00243282 0.00106863)
(0.00128841 -0.00224317 0.00106863)
(0.00165835 -0.00198536 0.00106863)
(0.00197791 -0.00166723 0.00106863)
(0.00223738 -0.00129844 0.00106863)
(0.00242886 -0.000890197 0.00106863)
(0.00254654 -0.000454906 0.00106863)
(0.00258684 -5.79335e-06 0.00106863)
(0.00254855 0.000443496 0.00106863)
(0.00243282 0.00087931 0.00106863)
(0.00224317 0.00128841 0.00106863)
(0.00198536 0.00165835 0.00106863)
(0.00166723 0.00197791 0.00106863)
(0.00129844 0.00223738 0.00106863)
(0.000890197 0.00242886 0.00106863)
(0.000454906 0.00254654 0.00106863)
(5.79335e-06 0.00258684 0.00106863)
(-0.000443496 0.00254855 0.00106863)
(-0.00087931 0.00243282 0.00106863)
(-0.00128841 0.00224317 0.00106863)
(-0.00165835 0.00198536 0.00106863)
(-0.00197791 0.00166723 0.00106863)
(-0.00223738 0.00129844 0.00106863)
(-0.00242886 0.000890197 0.00106863)
(-0.00254654 0.000454906 0.00106863)
(-0.00258684 5.79335e-06 0.00106863)
(-0.00254855 -0.000443496 0.00106863)
(-0.00243282 -0.00087931 0.00106863)
(-0.00224317 -0.00128841 0.00106863)
(-0.00198536 -0.00165835 0.00106863)
(-0.00166723 -0.00197791 0.00106863)
(-0.00129844 -0.00223738 0.00106863)
(-0.000890197 -0.00242886 0.00106863)
(-0.000454906 -0.00254654 0.00106863)
(-5.79335e-06 -0.00258684 0.00106863)
(0.000267308 -0.0025971 0.00113474)
(0.000714228 -0.00251122 0.00113474)
(0.00113945 -0.00234905 0.00113474)
(0.00153004 -0.0021155 0.00113474)
(0.00187415 -0.00181767 0.00113474)
(0.00216131 -0.00146461 0.00113474)
(0.00238281 -0.00106705 0.00113474)
(0.0025319 -0.000637072 0.00113474)
(0.00260406 -0.000187735 0.00113474)
(0.0025971 0.000267308 0.00113474)
(0.00251122 0.000714228 0.00113474)
(0.00234905 0.00113945 0.00113474)
(0.0021155 0.00153004 0.00113474)
(0.00181767 0.00187415 0.00113474)
(0.00146461 0.00216131 0.00113474)
(0.00106705 0.00238281 0.00113474)
(0.000637072 0.0025319 0.00113474)
(0.000187735 0.00260406 0.00113474)
(-0.000267308 0.0025971 0.00113474)
(-0.000714228 0.00251122 0.00113474)
(-0.00113945 0.00234905 0.00113474)
(-0.00153004 0.0021155 0.00113474)
(-0.00187415 0.00181767 0.00113474)
(-0.00216131 0.00146461 0.00113474)
(-0.00238281 0.00106705 0.00113474)
(-0.0025319 0.000637072 0.00113474)
(-0.00260406 0.000187735 0.00113474)
(-0.0025971 -0.000267308 0.00113474)
(-0.00251122 -0.000714228 0.00113474)
(-0.00234905 -0.00113945 0.00113474)
(-0.0021155 -0.00153004 0.00113474)
(-0.00181767 -0.00187415 0.00113474)
(-0.00146461 -0.00216131 0.00113474)
(-0.00106705 -0.00238281 0.00113474)
(-0.000637072 -0.0025319 0.00113474)
(-0.000187735 -0.00260406 0.00113474)
(0.000565122 -0.00297391 0.00130716)
(0.00107295 -0.0028306 0.00130716)
(0.00154818 -0.00260128 0.00130716)
(0.00197637 -0.00229292 0.00130716)
(0.0023445 -0.0019149 0.00130716)
(0.0026414 -0.00147869 0.00130716)
(0.00285805 -0.000997547 0.00130715)
(0.00298785 -0.000486098 0.00130716)
(0.00302687 4.01211e-05 0.00130716)
(0.00297391 0.000565122 0.00130716)
(0.0028306 0.00107295 0.00130716)
(0.00260128 0.00154818 0.00130716)
(0.00229292 0.00197637 0.00130716)
(0.0019149 0.0023445 0.00130716)
(0.00147869 0.0026414 0.00130716)
(0.000997547 0.00285805 0.00130715)
(0.000486098 0.00298785 0.00130716)
(-4.01211e-05 0.00302687 0.00130716)
(-0.000565122 0.00297391 0.00130716)
(-0.00107295 0.0028306 0.00130716)
(-0.00154818 0.00260128 0.00130716)
(-0.00197637 0.00229292 0.00130716)
(-0.0023445 0.0019149 0.00130716)
(-0.0026414 0.00147869 0.00130716)
(-0.00285805 0.000997547 0.00130715)
(-0.00298785 0.000486098 0.00130716)
(-0.00302687 -4.01211e-05 0.00130716)
(-0.00297391 -0.000565122 0.00130716)
(-0.0028306 -0.00107295 0.00130716)
(-0.00260128 -0.00154818 0.00130716)
(-0.00229292 -0.00197637 0.00130716)
(-0.0019149 -0.0023445 0.00130716)
(-0.00147869 -0.0026414 0.00130716)
(-0.000997547 -0.00285805 0.00130715)
(-0.000486098 -0.00298785 0.00130716)
(4.01211e-05 -0.00302687 0.00130716)
(0.000405233 -0.00298403 0.0013753)
(0.000917248 -0.00286832 0.0013753)
(0.00140139 -0.00266547 0.0013753)
(0.00184296 -0.00238163 0.0013753)
(0.00222852 -0.00202542 0.0013753)
(0.00254638 -0.00160767 0.0013753)
(0.00278686 -0.00114107 0.0013753)
(0.00294267 -0.000639804 0.0013753)
(0.00300906 -0.000119094 0.0013753)
(0.00298403 0.000405233 0.0013753)
(0.00286832 0.000917248 0.0013753)
(0.00266547 0.00140139 0.0013753)
(0.00238163 0.00184296 0.0013753)
(0.00202542 0.00222852 0.0013753)
(0.00160767 0.00254638 0.0013753)
(0.00114107 0.00278686 0.0013753)
(0.000639804 0.00294267 0.0013753)
(0.000119094 0.00300906 0.0013753)
(-0.000405233 0.00298403 0.0013753)
(-0.000917248 0.00286832 0.0013753)
(-0.00140139 0.00266547 0.0013753)
(-0.00184296 0.00238163 0.0013753)
(-0.00222852 0.00202542 0.0013753)
(-0.00254638 0.00160767 0.0013753)
(-0.00278686 0.00114107 0.0013753)
(-0.00294267 0.000639804 0.0013753)
(-0.00300906 0.000119094 0.0013753)
(-0.00298403 -0.000405233 0.0013753)
(-0.00286832 -0.000917248 0.0013753)
(-0.00266547 -0.00140139 0.0013753)
(-0.00238163 -0.00184296 0.0013753)
(-0.00202542 -0.00222852 0.0013753)
(-0.00160767 -0.00254638 0.0013753)
(-0.00114107 -0.00278686 0.0013753)
(-0.000639804 -0.00294267 0.0013753)
(-0.000119094 -0.00300906 0.0013753)
(0.00022908 -0.00298681 0.00142821)
(0.000744253 -0.00290165 0.00142821)
(0.00123681 -0.00272833 0.00142821)
(0.00169179 -0.00247211 0.00142821)
(0.00209537 -0.00214078 0.00142821)
(0.00243528 -0.0017444 0.00142821)
(0.00270119 -0.00129502 0.00142821)
(0.00288503 -0.000806284 0.00142821)
(0.00298121 -0.000293054 0.00142821)
(0.00298681 0.00022908 0.00142821)
(0.00290165 0.000744253 0.00142821)
(0.00272833 0.00123681 0.00142821)
(0.00247211 0.00169179 0.00142821)
(0.00214078 0.00209537 0.00142821)
(0.0017444 0.00243528 0.00142821)
(0.00129502 0.00270119 0.00142821)
(0.000806284 0.00288503 0.00142821)
(0.000293054 0.00298121 0.00142821)
(-0.00022908 0.00298681 0.00142821)
(-0.000744253 0.00290165 0.00142821)
(-0.00123681 0.00272833 0.00142821)
(-0.00169179 0.00247211 0.00142821)
(-0.00209537 0.00214078 0.00142821)
(-0.00243528 0.0017444 0.00142821)
(-0.00270119 0.00129502 0.00142821)
(-0.00288503 0.000806284 0.00142821)
(-0.00298121 0.000293054 0.00142821)
(-0.00298681 -0.00022908 0.00142821)
(-0.00290165 -0.000744253 0.00142821)
(-0.00272833 -0.00123681 0.00142821)
(-0.00247211 -0.00169179 0.00142821)
(-0.00214078 -0.00209537 0.00142821)
(-0.0017444 -0.00243528 0.00142821)
(-0.00129502 -0.00270119 0.00142821)
(-0.000806284 -0.00288503 0.00142821)
(-0.000293054 -0.00298121 0.00142821)
(0.000495369 -0.00337812 0.00164421)
(0.00107445 -0.00324078 0.00164421)
(0.00162088 -0.00300496 0.00164421)
(0.00211806 -0.00267785 0.00164421)
(0.00255089 -0.00226937 0.0016442)
(0.00290621 -0.00179194 0.00164421)
(0.00317322 -0.00126006 0.00164421)
(0.00334382 -0.000689888 0.00164421)
(0.00341282 -9.87596e-05 0.00164421)
(0.00337812 0.000495369 0.00164421)
(0.00324078 0.00107445 0.00164421)
(0.00300496 0.00162088 0.00164421)
(0.00267785 0.00211806 0.00164421)
(0.00226937 0.00255089 0.0016442)
(0.00179194 0.00290621 0.00164421)
(0.00126006 0.00317322 0.00164421)
(0.000689888 0.00334382 0.00164421)
(9.87596e-05 0.00341282 0.00164421)
(-0.000495369 0.00337812 0.00164421)
(-0.00107445 0.00324078 0.00164421)
(-0.00162088 0.00300496 0.00164421)
(-0.00211806 0.00267785 0.00164421)
(-0.00255089 0.00226937 0.0016442)
(-0.00290621 0.00179194 0.00164421)
(-0.00317322 0.00126006 0.00164421)
(-0.00334382 0.000689888 0.00164421)
(-0.00341282 9.87597e-05 0.00164421)
(-0.00337812 -0.000495369 0.00164421)
(-0.00324078 -0.00107445 0.00164421)
(-0.00300496 -0.00162088 0.00164421)
(-0.00267785 -0.00211806 0.00164421)
(-0.00226937 -0.00255089 0.0016442)
(-0.00179194 -0.00290621 0.00164421)
(-0.00126006 -0.00317322 0.00164421)
(-0.000689888 -0.00334382 0.00164421)
(-9.87597e-05 -0.00341282 0.00164421)
(0.000332281 -0.00333113 0.00169247)
(0.000905679 -0.00322282 0.00169246)
(0.00145156 -0.00301659 0.00169246)
(0.00195333 -0.0027187 0.00169246)
(0.00239575 -0.00233821 0.00169246)
(0.00276538 -0.00188667 0.00169246)
(0.00305099 -0.0013778 0.00169246)
(0.00324389 -0.000827072 0.00169246)
(0.00333823 -0.000251211 0.00169247)
(0.00333113 0.000332281 0.00169247)
(0.00322282 0.000905679 0.00169246)
(0.00301659 0.00145156 0.00169246)
(0.0027187 0.00195333 0.00169246)
(0.00233821 0.00239575 0.00169246)
(0.00188667 0.00276538 0.00169246)
(0.0013778 0.00305099 0.00169246)
(0.000827072 0.00324389 0.00169246)
(0.000251211 0.00333823 0.00169247)
(-0.000332281 0.00333113 0.00169247)
(-0.000905679 0.00322282 0.00169246)
(-0.00145156 0.00301659 0.00169246)
(-0.00195333 0.0027187 0.00169246)
(-0.00239575 0.00233821 0.00169246)
(-0.00276538 0.00188667 0.00169246)
(-0.00305099 0.0013778 0.00169246)
(-0.00324389 0.000827072 0.00169246)
(-0.00333823 0.000251211 0.00169247)
(-0.00333113 -0.000332281 0.00169247)
(-0.00322282 -0.000905679 0.00169246)
(-0.00301659 -0.00145156 0.00169246)
(-0.0027187 -0.00195333 0.00169246)
(-0.00233821 -0.00239575 0.00169246)
(-0.00188667 -0.00276538 0.00169246)
(-0.0013778 -0.00305099 0.00169246)
(-0.000827072 -0.00324389 0.00169246)
(-0.000251211 -0.00333823 0.00169247)
(0.000158518 -0.00328041 0.00172497)
(0.000725748 -0.00320305 0.00172497)
(0.00127093 -0.00302836 0.00172497)
(0.00177749 -0.00276166 0.00172497)
(0.00223004 -0.00241105 0.00172497)
(0.00261483 -0.00198718 0.00172497)
(0.00292018 -0.00150293 0.00172497)
(0.0031368 -0.00097301 0.00172497)
(0.0032581 -0.000413529 0.00172497)
(0.00328041 0.000158518 0.00172497)
(0.00320305 0.000725748 0.00172497)
(0.00302836 0.00127093 0.00172497)
(0.00276166 0.00177749 0.00172497)
(0.00241105 0.00223004 0.00172497)
(0.00198718 0.00261483 0.00172497)
(0.00150293 0.00292018 0.00172497)
(0.00097301 0.0031368 0.00172497)
(0.000413529 0.0032581 0.00172497)
(-0.000158518 0.00328041 0.00172497)
(-0.000725748 0.00320305 0.00172497)
(-0.00127093 0.00302836 0.00172497)
(-0.00177749 0.00276166 0.00172497)
(-0.00223004 0.00241105 0.00172497)
(-0.00261483 0.00198718 0.00172497)
(-0.00292018 0.00150293 0.00172497)
(-0.0031368 0.00097301 0.00172497)
(-0.0032581 0.000413529 0.00172497)
(-0.00328041 -0.000158518 0.00172497)
(-0.00320305 -0.000725748 0.00172497)
(-0.00302836 -0.00127093 0.00172497)
(-0.00276166 -0.00177749 0.00172497)
(-0.00241105 -0.00223004 0.00172497)
(-0.00198718 -0.00261483 0.00172497)
(-0.00150293 -0.00292018 0.00172497)
(-0.00097301 -0.0031368 0.00172497)
(-0.000413529 -0.0032581 0.00172497)
(0.000409276 -0.00368028 0.0020054)
(0.00104213 -0.0035533 0.00200539)
(0.00164332 -0.00331835 0.00200539)
(0.00219458 -0.00298258 0.00200539)
(0.00267916 -0.00255618 0.00200539)
(0.00308233 -0.00205211 0.00200539)
(0.00339185 -0.0014857 0.00200539)
(0.00359831 -0.000874135 0.0020054)
(0.00369544 -0.000236014 0.0020054)
(0.00368028 0.000409276 0.0020054)
(0.0035533 0.00104213 0.00200539)
(0.00331835 0.00164332 0.00200539)
(0.00298258 0.00219458 0.00200539)
(0.00255618 0.00267916 0.00200539)
(0.00205211 0.00308233 0.00200539)
(0.0014857 0.00339185 0.00200539)
(0.000874135 0.00359831 0.0020054)
(0.000236014 0.00369544 0.0020054)
(-0.000409276 0.00368028 0.0020054)
(-0.00104213 0.0035533 0.00200539)
(-0.00164332 0.00331835 0.00200539)
(-0.00219458 0.00298258 0.00200539)
(-0.00267916 0.00255618 0.00200539)
(-0.00308233 0.00205211 0.00200539)
(-0.00339185 0.0014857 0.00200539)
(-0.00359831 0.000874135 0.0020054)