/*--------------------------------*- C++ -*----------------------------------*\
| =========                 |                                                 |
| \\      /  F ield         | OpenFOAM: The Open Source CFD Toolbox           |
|  \\    /   O peration     | Version:  2312                                  |
|   \\  /    A nd           | Website:  www.openfoam.com                      |
|    \\/     M anipulation  |                                                 |
\*---------------------------------------------------------------------------*/
FoamFile
{
    version     2.0;
    format      ascii;
    arch        "LSB;label=32;scalar=64";
    class       volVectorField;
    location    "0.6";
    object      D_0_0;
}
// * * * * * * * * * * * * * * * * * * * * * * * * * * * * * * * * * * * * * //

dimensions      [0 1 0 0 0 0 0];

internalField   nonuniform List<vector> 
1620
(
(0.000151266 -0.000271411 4.86578e-05)
(0.000196098 -0.000241021 4.8658e-05)
(0.000234971 -0.000203307 4.86581e-05)
(0.000266706 -0.000159416 4.8658e-05)
(0.000290337 -0.000110681 4.86581e-05)
(0.000305145 -5.85831e-05 4.8658e-05)
(0.000310682 -4.70539e-06 4.86576e-05)
(0.000306779 4.93151e-05 4.86575e-05)
(0.000293555 0.000101838 4.86577e-05)
(0.000271411 0.000151266 4.86578e-05)
(0.000241021 0.000196098 4.8658e-05)
(0.000203307 0.000234971 4.86581e-05)
(0.000159416 0.000266706 4.8658e-05)
(0.000110681 0.000290337 4.86581e-05)
(5.85831e-05 0.000305145 4.8658e-05)
(4.70539e-06 0.000310682 4.86576e-05)
(-4.93151e-05 0.000306779 4.86575e-05)
(-0.000101838 0.000293555 4.86577e-05)
(-0.000151266 0.000271411 4.86578e-05)
(-0.000196098 0.000241021 4.8658e-05)
(-0.000234971 0.000203307 4.86581e-05)
(-0.000266706 0.000159416 4.8658e-05)
(-0.000290337 0.000110681 4.86581e-05)
(-0.000305145 5.85831e-05 4.8658e-05)
(-0.000310682 4.70539e-06 4.86576e-05)
(-0.000306779 -4.93151e-05 4.86575e-05)
(-0.000293555 -0.000101838 4.86577e-05)
(-0.000271411 -0.000151266 4.86578e-05)
(-0.000241021 -0.000196098 4.8658e-05)
(-0.000203307 -0.000234971 4.86581e-05)
(-0.000159416 -0.000266706 4.8658e-05)
(-0.000110681 -0.000290337 4.86581e-05)
(-5.85831e-05 -0.000305145 4.8658e-05)
(-4.70539e-06 -0.000310682 4.86576e-05)
(4.93151e-05 -0.000306779 4.86575e-05)
(0.000101838 -0.000293555 4.86577e-05)
(9.66767e-05 -0.000302814 6.64657e-05)
(0.000147791 -0.000281425 6.64658e-05)
(0.000194415 -0.000251486 6.64659e-05)
(0.000235131 -0.000213906 6.64659e-05)
(0.000268704 -0.000169826 6.6466e-05)
(0.000294111 -0.000120586 6.64659e-05)
(0.000310582 -6.76819e-05 6.64657e-05)
(0.000317617 -1.27219e-05 6.64657e-05)
(0.000315001 4.2625e-05 6.64657e-05)
(0.000302814 9.66767e-05 6.64657e-05)
(0.000281425 0.000147791 6.64658e-05)
(0.000251486 0.000194415 6.64659e-05)
(0.000213906 0.000235131 6.64659e-05)
(0.000169826 0.000268704 6.6466e-05)
(0.000120586 0.000294111 6.64659e-05)
(6.76819e-05 0.000310582 6.64657e-05)
(1.27219e-05 0.000317617 6.64657e-05)
(-4.2625e-05 0.000315001 6.64657e-05)
(-9.66767e-05 0.000302814 6.64657e-05)
(-0.000147791 0.000281425 6.64658e-05)
(-0.000194415 0.000251486 6.64659e-05)
(-0.000235131 0.000213906 6.64659e-05)
(-0.000268704 0.000169826 6.6466e-05)
(-0.000294111 0.000120586 6.64659e-05)
(-0.000310582 6.76819e-05 6.64657e-05)
(-0.000317617 1.27219e-05 6.64657e-05)
(-0.000315001 -4.2625e-05 6.64657e-05)
(-0.000302814 -9.66767e-05 6.64657e-05)
(-0.000281425 -0.000147791 6.64658e-05)
(-0.000251486 -0.000194415 6.64659e-05)
(-0.000213906 -0.000235131 6.64659e-05)
(-0.000169826 -0.000268704 6.6466e-05)
(-0.000120586 -0.000294111 6.64659e-05)
(-6.76819e-05 -0.000310582 6.64657e-05)
(-1.27219e-05 -0.000317617 6.64657e-05)
(4.2625e-05 -0.000315001 6.64657e-05)
(1.38592e-05 -0.000332746 7.52094e-05)
(7.14295e-05 -0.000325285 7.52094e-05)
(0.00012683 -0.00030794 7.52097e-05)
(0.000178376 -0.000281237 7.52096e-05)
(0.000224503 -0.00024599 7.52097e-05)
(0.000263807 -0.000203269 7.52095e-05)
(0.000295097 -0.000154371 7.52096e-05)
(0.00031742 -0.000100783 7.52097e-05)
(0.000330098 -4.41321e-05 7.52095e-05)
(0.000332746 1.38592e-05 7.52094e-05)
(0.000325285 7.14295e-05 7.52094e-05)
(0.00030794 0.00012683 7.52097e-05)
(0.000281237 0.000178376 7.52096e-05)
(0.00024599 0.000224503 7.52097e-05)
(0.000203269 0.000263807 7.52095e-05)
(0.000154371 0.000295097 7.52096e-05)
(0.000100783 0.00031742 7.52097e-05)
(4.41321e-05 0.000330098 7.52095e-05)
(-1.38592e-05 0.000332746 7.52094e-05)
(-7.14295e-05 0.000325285 7.52094e-05)
(-0.00012683 0.00030794 7.52097e-05)
(-0.000178376 0.000281237 7.52096e-05)
(-0.000224503 0.00024599 7.52097e-05)
(-0.000263807 0.000203269 7.52095e-05)
(-0.000295097 0.000154371 7.52096e-05)
(-0.00031742 0.000100783 7.52097e-05)
(-0.000330098 4.41321e-05 7.52095e-05)
(-0.000332746 -1.38592e-05 7.52094e-05)
(-0.000325285 -7.14295e-05 7.52094e-05)
(-0.00030794 -0.00012683 7.52097e-05)
(-0.000281237 -0.000178376 7.52096e-05)
(-0.00024599 -0.000224503 7.52097e-05)
(-0.000203269 -0.000263807 7.52095e-05)
(-0.000154371 -0.000295097 7.52096e-05)
(-0.000100783 -0.00031742 7.52097e-05)
(-4.41321e-05 -0.000330098 7.52095e-05)
(0.000340643 -0.000823674 0.000185058)
(0.000478498 -0.000752009 0.000185059)
(0.000601814 -0.000657493 0.000185059)
(0.000706843 -0.000543 0.000185059)
(0.000790395 -0.000412009 0.000185059)
(0.000849932 -0.000268499 0.000185059)
(0.000883644 -0.000116831 0.000185058)
(0.000890507 3.83874e-05 0.000185058)
(0.000870312 0.000192439 0.000185058)
(0.000823674 0.000340643 0.000185058)
(0.000752009 0.000478498 0.000185059)
(0.000657493 0.000601814 0.000185059)
(0.000543 0.000706843 0.000185059)
(0.000412009 0.000790395 0.000185059)
(0.000268499 0.000849932 0.000185059)
(0.000116831 0.000883644 0.000185058)
(-3.83874e-05 0.000890507 0.000185058)
(-0.000192439 0.000870312 0.000185058)
(-0.000340643 0.000823674 0.000185058)
(-0.000478498 0.000752009 0.000185059)
(-0.000601814 0.000657493 0.000185059)
(-0.000706843 0.000543 0.000185059)
(-0.000790395 0.000412009 0.000185059)
(-0.000849932 0.000268499 0.000185059)
(-0.000883644 0.000116831 0.000185058)
(-0.000890507 -3.83874e-05 0.000185058)
(-0.000870312 -0.000192439 0.000185058)
(-0.000823674 -0.000340643 0.000185058)
(-0.000752009 -0.000478498 0.000185059)
(-0.000657493 -0.000601814 0.000185059)
(-0.000543 -0.000706843 0.000185059)
(-0.000412009 -0.000790395 0.000185059)
(-0.000268499 -0.000849932 0.000185059)
(-0.000116831 -0.000883644 0.000185058)
(3.83874e-05 -0.000890507 0.000185058)
(0.000192439 -0.000870312 0.000185058)
(0.000252937 -0.000900519 0.000242425)
(0.000405468 -0.000842916 0.000242426)
(0.000545679 -0.000759701 0.000242426)
(0.00066931 -0.000653404 0.000242426)
(0.000772604 -0.000527252 0.000242427)
(0.000852423 -0.00038508 0.000242426)
(0.000906341 -0.000231209 0.000242426)
(0.00093272 -7.03118e-05 0.000242425)
(0.00093076 9.27212e-05 0.000242425)
(0.000900519 0.000252937 0.000242425)
(0.000842916 0.000405468 0.000242426)
(0.000759701 0.000545679 0.000242426)
(0.000653404 0.00066931 0.000242426)
(0.000527252 0.000772604 0.000242427)
(0.00038508 0.000852423 0.000242426)
(0.000231209 0.000906341 0.000242426)
(7.03118e-05 0.00093272 0.000242425)
(-9.27212e-05 0.00093076 0.000242425)
(-0.000252937 0.000900519 0.000242425)
(-0.000405468 0.000842916 0.000242426)
(-0.000545679 0.000759701 0.000242426)
(-0.00066931 0.000653404 0.000242426)
(-0.000772604 0.000527252 0.000242427)
(-0.000852423 0.00038508 0.000242426)
(-0.000906341 0.000231209 0.000242426)
(-0.00093272 7.03118e-05 0.000242425)
(-0.00093076 -9.27212e-05 0.000242425)
(-0.000900519 -0.000252937 0.000242425)
(-0.000842916 -0.000405468 0.000242426)
(-0.000759701 -0.000545679 0.000242426)
(-0.000653404 -0.00066931 0.000242426)
(-0.000527252 -0.000772604 0.000242427)
(-0.00038508 -0.000852423 0.000242426)
(-0.000231209 -0.000906341 0.000242426)
(-7.03118e-05 -0.00093272 0.000242425)
(9.27212e-05 -0.00093076 0.000242425)
(0.00013217 -0.000972574 0.000286258)
(0.000299048 -0.000934847 0.000286258)
(0.000456839 -0.000868715 0.000286258)
(0.000600749 -0.000776188 0.000286258)
(0.000726406 -0.000660077 0.000286258)
(0.000829992 -0.00052391 0.000286258)
(0.000908359 -0.000371824 0.000286258)
(0.000959126 -0.000208441 0.000286258)
(0.00098075 -3.87238e-05 0.000286258)
(0.000972574 0.00013217 0.000286258)
(0.000934847 0.000299048 0.000286258)
(0.000868715 0.000456839 0.000286258)
(0.000776188 0.000600749 0.000286258)
(0.000660077 0.000726406 0.000286258)
(0.00052391 0.000829992 0.000286258)
(0.000371824 0.000908359 0.000286258)
(0.000208441 0.000959126 0.000286258)
(3.87238e-05 0.00098075 0.000286258)
(-0.00013217 0.000972574 0.000286258)
(-0.000299048 0.000934847 0.000286258)
(-0.000456839 0.000868715 0.000286258)
(-0.000600749 0.000776188 0.000286258)
(-0.000726406 0.000660077 0.000286258)
(-0.000829992 0.00052391 0.000286258)
(-0.000908359 0.000371824 0.000286258)
(-0.000959126 0.000208441 0.000286258)
(-0.00098075 3.87238e-05 0.000286258)
(-0.000972574 -0.00013217 0.000286258)
(-0.000934847 -0.000299048 0.000286258)
(-0.000868715 -0.000456839 0.000286258)
(-0.000776188 -0.000600749 0.000286258)
(-0.000660077 -0.000726406 0.000286258)
(-0.00052391 -0.000829992 0.000286258)
(-0.000371824 -0.000908359 0.000286258)
(-0.000208441 -0.000959126 0.000286258)
(-3.87238e-05 -0.00098075 0.000286258)
(0.000491843 -0.0013851 0.000409041)
(0.000724891 -0.00127865 0.000409042)
(0.000935913 -0.00113335 0.000409042)
(0.0011185 -0.000953609 0.000409042)
(0.0012671 -0.000744897 0.000409042)
(0.0013772 -0.000513551 0.000409042)
(0.00144545 -0.000266601 0.000409041)
(0.00146979 -1.15504e-05 0.00040904)
(0.00144946 0.000243851 0.00040904)
(0.0013851 0.000491843 0.000409041)
(0.00127865 0.000724891 0.000409042)
(0.00113335 0.000935913 0.000409042)
(0.000953609 0.0011185 0.000409042)
(0.000744897 0.0012671 0.000409042)
(0.000513551 0.0013772 0.000409042)
(0.000266601 0.00144545 0.000409041)
(1.15504e-05 0.00146979 0.00040904)
(-0.000243851 0.00144946 0.00040904)
(-0.000491843 0.0013851 0.000409041)
(-0.000724891 0.00127865 0.000409042)
(-0.000935913 0.00113335 0.000409042)
(-0.0011185 0.000953609 0.000409042)
(-0.0012671 0.000744897 0.000409042)
(-0.0013772 0.000513551 0.000409042)
(-0.00144545 0.000266601 0.000409041)
(-0.00146979 1.15504e-05 0.00040904)
(-0.00144946 -0.000243851 0.00040904)
(-0.0013851 -0.000491843 0.000409041)
(-0.00127865 -0.000724891 0.000409042)
(-0.00113335 -0.000935913 0.000409042)
(-0.000953609 -0.0011185 0.000409042)
(-0.000744897 -0.0012671 0.000409042)
(-0.000513551 -0.0013772 0.000409042)
(-0.000266601 -0.00144545 0.000409041)
(-1.15504e-05 -0.00146979 0.00040904)
(0.000243851 -0.00144946 0.00040904)
(0.000369656 -0.00148246 0.000487503)
(0.000621466 -0.00139575 0.000487504)
(0.000854394 -0.00126663 0.000487504)
(0.00106136 -0.00109902 0.000487504)
(0.00123608 -0.000898019 0.000487504)
(0.00137324 -0.000669732 0.000487503)
(0.00146868 -0.000421098 0.000487503)
(0.00151949 -0.000159668 0.000487503)
(0.00152413 0.000106614 0.000487503)
(0.00148246 0.000369656 0.000487503)
(0.00139575 0.000621466 0.000487504)
(0.00126663 0.000854394 0.000487504)
(0.00109902 0.00106136 0.000487504)
(0.000898019 0.00123608 0.000487504)
(0.000669732 0.00137324 0.000487503)
(0.000421098 0.00146868 0.000487503)
(0.000159668 0.00151949 0.000487503)
(-0.000106614 0.00152413 0.000487503)
(-0.000369656 0.00148246 0.000487503)
(-0.000621466 0.00139575 0.000487504)
(-0.000854394 0.00126663 0.000487504)
(-0.00106136 0.00109902 0.000487504)
(-0.00123608 0.000898019 0.000487504)
(-0.00137324 0.000669732 0.000487503)
(-0.00146868 0.000421098 0.000487503)
(-0.00151949 0.000159668 0.000487503)
(-0.00152413 -0.000106614 0.000487503)
(-0.00148246 -0.000369656 0.000487503)
(-0.00139575 -0.000621466 0.000487504)
(-0.00126663 -0.000854394 0.000487504)
(-0.00109902 -0.00106136 0.000487504)
(-0.000898019 -0.00123608 0.000487504)
(-0.000669732 -0.00137324 0.000487503)
(-0.000421098 -0.00146868 0.000487503)
(-0.000159668 -0.00151949 0.000487503)
(0.000106614 -0.00152413 0.000487503)
(0.000217918 -0.00157102 0.000551545)
(0.000487413 -0.00150932 0.000551545)
(0.000742098 -0.00140175 0.000551545)
(0.000974235 -0.00125159 0.000551545)
(0.00117677 -0.0010634 0.000551545)
(0.00134355 -0.000842899 0.000551545)
(0.00146951 -0.000596789 0.000551545)
(0.00155081 -0.000332546 0.000551545)
(0.001585 -5.81984e-05 0.000551545)
(0.00157102 0.000217918 0.000551545)
(0.00150932 0.000487413 0.000551545)
(0.00140175 0.000742098 0.000551545)
(0.00125159 0.000974235 0.000551545)
(0.0010634 0.00117677 0.000551545)
(0.000842899 0.00134355 0.000551545)
(0.000596789 0.00146951 0.000551545)
(0.000332546 0.00155081 0.000551545)
(5.81984e-05 0.001585 0.000551545)
(-0.000217918 0.00157102 0.000551545)
(-0.000487413 0.00150932 0.000551545)
(-0.000742098 0.00140175 0.000551545)
(-0.000974235 0.00125159 0.000551545)
(-0.00117677 0.0010634 0.000551545)
(-0.00134355 0.000842899 0.000551545)
(-0.00146951 0.000596789 0.000551545)
(-0.00155081 0.000332546 0.000551545)
(-0.001585 5.81984e-05 0.000551545)
(-0.00157102 -0.000217918 0.000551545)
(-0.00150932 -0.000487413 0.000551545)
(-0.00140175 -0.000742098 0.000551545)
(-0.00125159 -0.000974235 0.000551545)
(-0.0010634 -0.00117677 0.000551545)
(-0.000842899 -0.00134355 0.000551545)
(-0.000596789 -0.00146951 0.000551545)
(-0.000332546 -0.00155081 0.000551545)
(-5.81984e-05 -0.001585 0.000551545)
(0.000577429 -0.00194489 0.000682209)
(0.000906383 -0.00181507 0.00068221)
(0.0012078 -0.00163011 0.00068221)
(0.00147251 -0.00139561 0.00068221)
(0.00169249 -0.00111871 0.00068221)
(0.00186104 -0.000807815 0.000682209)
(0.00197304 -0.000472377 0.000682209)
(0.00202509 -0.000122585 0.000682208)
(0.00201561 0.00023093 0.000682209)
(0.00194489 0.000577429 0.000682209)
(0.00181507 0.000906383 0.00068221)
(0.00163011 0.0012078 0.00068221)
(0.00139561 0.00147251 0.00068221)
(0.00111871 0.00169249 0.00068221)
(0.000807815 0.00186104 0.000682209)
(0.000472377 0.00197304 0.000682209)
(0.000122585 0.00202509 0.000682208)
(-0.00023093 0.00201561 0.000682209)
(-0.000577429 0.00194489 0.000682209)
(-0.000906383 0.00181507 0.00068221)
(-0.0012078 0.00163011 0.00068221)
(-0.00147251 0.00139561 0.00068221)
(-0.00169249 0.00111871 0.00068221)
(-0.00186104 0.000807815 0.000682209)
(-0.00197304 0.000472377 0.000682209)
(-0.00202509 0.000122585 0.000682208)
(-0.00201561 -0.00023093 0.000682209)
(-0.00194489 -0.000577429 0.000682209)
(-0.00181507 -0.000906383 0.00068221)
(-0.00163011 -0.0012078 0.00068221)
(-0.00139561 -0.00147251 0.00068221)
(-0.00111871 -0.00169249 0.00068221)
(-0.000807815 -0.00186104 0.000682209)
(-0.000472377 -0.00197304 0.000682209)
(-0.000122585 -0.00202509 0.000682208)
(0.00023093 -0.00201561 0.000682209)
(0.000433988 -0.00203277 0.000766615)
(0.000780381 -0.00192652 0.000766615)
(0.00110306 -0.00176174 0.000766615)
(0.00139223 -0.00154343 0.000766615)
(0.00163909 -0.00127823 0.000766615)
(0.00183615 -0.000974183 0.000766614)
(0.00197742 -0.000640539 0.000766614)
(0.00205861 -0.000287432 0.000766614)
(0.00207725 7.44081e-05 0.000766614)
(0.00203277 0.000433988 0.000766615)
(0.00192652 0.000780381 0.000766615)
(0.00176174 0.00110306 0.000766615)
(0.00154343 0.00139223 0.000766615)
(0.00127823 0.00163909 0.000766615)
(0.000974183 0.00183615 0.000766614)
(0.000640539 0.00197742 0.000766614)
(0.000287432 0.00205861 0.000766614)
(-7.44081e-05 0.00207725 0.000766614)
(-0.000433988 0.00203277 0.000766615)
(-0.000780381 0.00192652 0.000766615)
(-0.00110306 0.00176174 0.000766615)
(-0.00139223 0.00154343 0.000766615)
(-0.00163909 0.00127823 0.000766615)
(-0.00183615 0.000974183 0.000766614)
(-0.00197742 0.000640539 0.000766614)
(-0.00205861 0.000287432 0.000766614)
(-0.00207725 -7.44081e-05 0.000766614)
(-0.00203277 -0.000433988 0.000766615)
(-0.00192652 -0.000780381 0.000766615)
(-0.00176174 -0.00110306 0.000766615)
(-0.00154343 -0.00139223 0.000766615)
(-0.00127823 -0.00163909 0.000766615)
(-0.000974183 -0.00183615 0.000766614)
(-0.000640539 -0.00197742 0.000766614)
(-0.000287432 -0.00205861 0.000766614)
(7.44081e-05 -0.00207725 0.000766614)
(0.000265415 -0.00211066 0.000836297)
(0.000627896 -0.00203251 0.000836297)
(0.000971298 -0.0018926 0.000836297)
(0.00128519 -0.00169518 0.000836297)
(0.00156003 -0.00144626 0.000836297)
(0.00178747 -0.00115339 0.000836297)
(0.0019606 -0.000825476 0.000836297)
(0.00207415 -0.000472481 0.000836297)
(0.00212469 -0.000105131 0.000836297)
(0.00211066 0.000265415 0.000836297)
(0.00203251 0.000627896 0.000836297)
(0.0018926 0.000971298 0.000836297)
(0.00169518 0.00128519 0.000836297)
(0.00144626 0.00156003 0.000836297)
(0.00115339 0.00178747 0.000836297)
(0.000825476 0.0019606 0.000836297)
(0.000472481 0.00207415 0.000836297)
(0.000105131 0.00212469 0.000836297)
(-0.000265415 0.00211066 0.000836297)
(-0.000627896 0.00203251 0.000836297)
(-0.000971298 0.0018926 0.000836297)
(-0.00128519 0.00169518 0.000836297)
(-0.00156003 0.00144626 0.000836297)
(-0.00178747 0.00115339 0.000836297)
(-0.0019606 0.000825476 0.000836297)
(-0.00207415 0.000472481 0.000836297)
(-0.00212469 0.000105131 0.000836297)
(-0.00211066 -0.000265415 0.000836297)
(-0.00203251 -0.000627896 0.000836297)
(-0.0018926 -0.000971298 0.000836297)
(-0.00169518 -0.00128519 0.000836297)
(-0.00144626 -0.00156003 0.000836297)
(-0.00115339 -0.00178747 0.000836297)
(-0.000825476 -0.0019606 0.000836297)
(-0.000472481 -0.00207415 0.000836297)
(-0.000105131 -0.00212469 0.000836297)
(0.00059876 -0.00247891 0.000983872)
(0.00102012 -0.00233728 0.000983872)
(0.00141049 -0.00212463 0.000983872)
(0.001758 -0.00184742 0.000983872)
(0.00205209 -0.00151408 0.000983871)
(0.00228383 -0.00113474 0.000983871)
(0.00244618 -0.000720916 0.000983871)
(0.00253421 -0.000285188 0.00098387)
(0.00254523 0.000159204 0.000983872)
(0.00247891 0.00059876 0.000983872)
(0.00233728 0.00102012 0.000983872)
(0.00212463 0.00141049 0.000983872)
(0.00184742 0.001758 0.000983872)
(0.00151408 0.00205209 0.000983871)
(0.00113474 0.00228383 0.000983871)
(0.000720916 0.00244618 0.000983871)
(0.000285188 0.00253421 0.00098387)
(-0.000159204 0.00254523 0.000983872)
(-0.00059876 0.00247891 0.000983872)
(-0.00102012 0.00233728 0.000983872)
(-0.00141049 0.00212463 0.000983872)
(-0.001758 0.00184742 0.000983872)
(-0.00205209 0.00151408 0.000983871)
(-0.00228383 0.00113474 0.000983871)
(-0.00244618 0.000720916 0.000983871)
(-0.00253421 0.000285188 0.00098387)
(-0.00254523 -0.000159204 0.000983872)
(-0.00247891 -0.00059876 0.000983872)
(-0.00233728 -0.00102012 0.000983872)
(-0.00212463 -0.00141049 0.000983872)
(-0.00184742 -0.001758 0.000983872)
(-0.00151408 -0.00205209 0.000983871)
(-0.00113474 -0.00228383 0.000983871)
(-0.000720916 -0.00244618 0.000983871)
(-0.000285188 -0.00253421 0.00098387)
(0.000159204 -0.00254523 0.000983872)
(0.000444521 -0.00253403 0.0010633)
(0.000877797 -0.00241834 0.0010633)
(0.0012844 -0.00222917 0.0010633)
(0.00165198 -0.00197227 0.0010633)
(0.00196936 -0.00165544 0.0010633)
(0.00222691 -0.00128832 0.0010633)
(0.00241679 -0.000882047 0.0010633)
(0.00253324 -0.000448975 0.0010633)
(0.00257272 -2.26187e-06 0.0010633)
(0.00253403 0.000444521 0.0010633)
(0.00241834 0.000877797 0.0010633)
(0.00222917 0.0012844 0.0010633)
(0.00197227 0.00165198 0.0010633)
(0.00165544 0.00196936 0.0010633)
(0.00128832 0.00222691 0.0010633)
(0.000882047 0.00241679 0.0010633)
(0.000448975 0.00253324 0.0010633)
(2.26187e-06 0.00257272 0.0010633)
(-0.000444521 0.00253403 0.0010633)
(-0.000877797 0.00241834 0.0010633)
(-0.0012844 0.00222917 0.0010633)
(-0.00165198 0.00197227 0.0010633)
(-0.00196936 0.00165544 0.0010633)
(-0.00222691 0.00128832 0.0010633)
(-0.00241679 0.000882047 0.0010633)
(-0.00253324 0.000448975 0.0010633)
(-0.00257272 2.26187e-06 0.0010633)
(-0.00253403 -0.000444521 0.0010633)
(-0.00241834 -0.000877797 0.0010633)
(-0.00222917 -0.0012844 0.0010633)
(-0.00197227 -0.00165198 0.0010633)
(-0.00165544 -0.00196936 0.0010633)
(-0.00128832 -0.00222691 0.0010633)
(-0.000882047 -0.00241679 0.0010633)
(-0.000448975 -0.00253324 0.0010633)
(-2.26187e-06 -0.00257272 0.0010633)
(0.000269542 -0.00257987 0.00112795)
(0.000713436 -0.00249387 0.00112795)
(0.00113565 -0.00233209 0.00112795)
(0.00152336 -0.00209946 0.00112795)
(0.00186479 -0.00180304 0.00112795)
(0.00214955 -0.00145183 0.00112795)
(0.002369 -0.00105651 0.00112795)
(0.00251647 -0.000629081 0.00112795)
(0.00258748 -0.000182543 0.00112795)
(0.00257987 0.000269542 0.00112795)
(0.00249387 0.000713436 0.00112795)
(0.00233209 0.00113565 0.00112795)
(0.00209946 0.00152336 0.00112795)
(0.00180304 0.00186479 0.00112795)
(0.00145183 0.00214955 0.00112795)
(0.00105651 0.002369 0.00112795)
(0.000629081 0.00251647 0.00112795)
(0.000182543 0.00258748 0.00112795)
(-0.000269542 0.00257987 0.00112795)
(-0.000713436 0.00249387 0.00112795)
(-0.00113565 0.00233209 0.00112795)
(-0.00152336 0.00209946 0.00112795)
(-0.00186479 0.00180304 0.00112795)
(-0.00214955 0.00145183 0.00112795)
(-0.002369 0.00105651 0.00112795)
(-0.00251647 0.000629081 0.00112795)
(-0.00258748 0.000182543 0.00112795)
(-0.00257987 -0.000269542 0.00112795)
(-0.00249387 -0.000713436 0.00112795)
(-0.00233209 -0.00113565 0.00112795)
(-0.00209946 -0.00152336 0.00112795)
(-0.00180304 -0.00186479 0.00112795)
(-0.00145183 -0.00214955 0.00112795)
(-0.00105651 -0.002369 0.00112795)
(-0.000629081 -0.00251647 0.00112795)
(-0.000182543 -0.00258748 0.00112795)
(0.000567009 -0.00295991 0.00130342)
(0.00107238 -0.00281648 0.00130342)
(0.00154516 -0.00258747 0.00130342)
(0.001971 -0.00227985 0.00130341)
(0.00233695 -0.00190295 0.00130341)
(0.00263189 -0.00146824 0.00130341)
(0.00284686 -0.000988909 0.00130341)
(0.00297533 -0.000479533 0.00130341)
(0.0030134 4.44125e-05 0.00130342)
(0.00295991 0.000567009 0.00130342)
(0.00281648 0.00107238 0.00130342)
(0.00258747 0.00154516 0.00130342)
(0.00227985 0.001971 0.00130341)
(0.00190295 0.00233695 0.00130341)
(0.00146824 0.00263189 0.00130341)
(0.000988909 0.00284686 0.00130341)
(0.000479533 0.00297533 0.00130341)
(-4.44125e-05 0.0030134 0.00130342)
(-0.000567009 0.00295991 0.00130342)
(-0.00107238 0.00281648 0.00130342)
(-0.00154516 0.00258747 0.00130342)
(-0.001971 0.00227985 0.00130341)
(-0.00233695 0.00190295 0.00130341)
(-0.00263189 0.00146824 0.00130341)
(-0.00284686 0.000988909 0.00130341)
(-0.00297533 0.000479533 0.00130341)
(-0.0030134 -4.44125e-05 0.00130342)
(-0.00295991 -0.000567009 0.00130342)
(-0.00281648 -0.00107238 0.00130342)
(-0.00258747 -0.00154516 0.00130342)
(-0.00227985 -0.001971 0.00130341)
(-0.00190295 -0.00233695 0.00130341)
(-0.00146824 -0.00263189 0.00130341)
(-0.000988909 -0.00284686 0.00130341)
(-0.000479533 -0.00297533 0.00130341)
(4.44125e-05 -0.0030134 0.00130342)
(0.000407793 -0.0029672 0.00136988)
(0.000916849 -0.00285131 0.00136988)
(0.00139804 -0.00264879 0.00136988)
(0.00183676 -0.00236578 0.00136988)
(0.00221967 -0.00201089 0.00136988)
(0.00253514 -0.00159489 0.00136988)
(0.00277357 -0.00113044 0.00136988)
(0.00292773 -0.000631644 0.00136988)
(0.00299294 -0.000113652 0.00136988)
(0.0029672 0.000407793 0.00136988)
(0.00285131 0.000916849 0.00136988)
(0.00264879 0.00139804 0.00136988)
(0.00236578 0.00183676 0.00136988)
(0.00201089 0.00221967 0.00136988)
(0.00159489 0.00253514 0.00136988)
(0.00113044 0.00277357 0.00136988)
(0.000631644 0.00292773 0.00136988)
(0.000113652 0.00299294 0.00136988)
(-0.000407793 0.0029672 0.00136988)
(-0.000916849 0.00285131 0.00136988)
(-0.00139804 0.00264879 0.00136988)
(-0.00183676 0.00236578 0.00136988)
(-0.00221967 0.00201089 0.00136988)
(-0.00253514 0.00159489 0.00136988)
(-0.00277357 0.00113044 0.00136988)
(-0.00292773 0.000631644 0.00136988)
(-0.00299294 0.000113652 0.00136988)
(-0.0029672 -0.000407793 0.00136988)
(-0.00285131 -0.000916849 0.00136988)
(-0.00264879 -0.00139804 0.00136988)
(-0.00236578 -0.00183676 0.00136988)
(-0.00201089 -0.00221967 0.00136988)
(-0.00159489 -0.00253514 0.00136988)
(-0.00113044 -0.00277357 0.00136988)
(-0.000631644 -0.00292773 0.00136988)
(-0.000113652 -0.00299294 0.00136988)
(0.0002326 -0.00296733 0.00142141)
(0.000744337 -0.00288186 0.00142141)
(0.00123346 -0.00270882 0.00142141)
(0.0016851 -0.00245348 0.00142141)
(0.00208554 -0.00212359 0.00142141)
(0.00242262 -0.00172918 0.00142141)
(0.00268608 -0.00128223 0.00142141)
(0.00286793 -0.000796314 0.00142141)
(0.00296264 -0.000286205 0.00142141)
(0.00296733 0.0002326 0.00142141)
(0.00288186 0.000744337 0.00142141)
(0.00270882 0.00123346 0.00142141)
(0.00245348 0.0016851 0.00142141)
(0.00212359 0.00208554 0.00142141)
(0.00172918 0.00242262 0.00142141)
(0.00128223 0.00268608 0.00142141)
(0.000796314 0.00286793 0.00142141)
(0.000286205 0.00296264 0.00142141)
(-0.0002326 0.00296733 0.00142141)
(-0.000744337 0.00288186 0.00142141)
(-0.00123346 0.00270882 0.00142141)
(-0.0016851 0.00245348 0.00142141)
(-0.00208554 0.00212359 0.00142141)
(-0.00242262 0.00172918 0.00142141)
(-0.00268608 0.00128223 0.00142141)
(-0.00286793 0.000796314 0.00142141)
(-0.00296264 0.000286205 0.00142141)
(-0.00296733 -0.0002326 0.00142141)
(-0.00288186 -0.000744337 0.00142141)
(-0.00270882 -0.00123346 0.00142141)
(-0.00245348 -0.0016851 0.00142141)
(-0.00212359 -0.00208554 0.00142141)
(-0.00172918 -0.00242262 0.00142141)
(-0.00128223 -0.00268608 0.00142141)
(-0.000796314 -0.00286793 0.00142141)
(-0.000286205 -0.00296264 0.00142141)
(0.000498984 -0.00336252 0.00164068)
(0.0010753 -0.00322478 0.00164068)
(0.00161894 -0.00298907 0.00164068)
(0.00211339 -0.00266253 0.00164068)
(0.00254363 -0.0022551 0.00164068)
(0.00289658 -0.00177914 0.00164068)
(0.00316152 -0.00124913 0.00164068)
(0.0033304 -0.000681156 0.00164068)
(0.00339808 -9.24905e-05 0.00164068)
(0.00336252 0.000498984 0.00164068)
(0.00322478 0.0010753 0.00164068)
(0.00298907 0.00161894 0.00164068)
(0.00266253 0.00211339 0.00164068)
(0.0022551 0.00254363 0.00164068)
(0.00177914 0.00289658 0.00164068)
(0.00124913 0.00316152 0.00164068)
(0.000681156 0.0033304 0.00164068)
(9.24905e-05 0.00339808 0.00164068)
(-0.000498984 0.00336252 0.00164068)
(-0.0010753 0.00322478 0.00164068)
(-0.00161894 0.00298907 0.00164068)
(-0.00211339 0.00266253 0.00164068)
(-0.00254363 0.0022551 0.00164068)
(-0.00289658 0.00177914 0.00164068)
(-0.00316152 0.00124913 0.00164068)
(-0.0033304 0.000681156 0.00164068)
(-0.00339808 9.24905e-05 0.00164068)
(-0.00336252 -0.000498984 0.00164068)
(-0.00322478 -0.0010753 0.00164068)
(-0.00298907 -0.00161894 0.00164068)
(-0.00266253 -0.00211339 0.00164068)
(-0.0022551 -0.00254363 0.00164068)
(-0.00177914 -0.00289658 0.00164068)
(-0.00124913 -0.00316152 0.00164068)
(-0.000681156 -0.0033304 0.00164068)
(-9.24905e-05 -0.00339808 0.00164068)
(0.000336511 -0.00331277 0.0016874)
(0.000906657 -0.00320401 0.0016874)
(0.00144925 -0.00299789 0.0016874)
(0.00194781 -0.00270069 0.0016874)
(0.00238719 -0.00232142 0.0016874)
(0.00275404 -0.00187163 0.0016874)
(0.0030372 -0.00136496 0.0016874)
(0.00322808 -0.000816817 0.0016874)
(0.00332088 -0.000243857 0.0016874)
(0.00331277 0.000336511 0.0016874)
(0.00320401 0.000906657 0.0016874)
(0.00299789 0.00144925 0.0016874)
(0.00270069 0.00194781 0.0016874)
(0.00232142 0.00238719 0.0016874)
(0.00187163 0.00275404 0.0016874)
(0.00136496 0.0030372 0.0016874)
(0.000816817 0.00322808 0.0016874)
(0.000243857 0.00332088 0.0016874)
(-0.000336511 0.00331277 0.0016874)
(-0.000906657 0.00320401 0.0016874)
(-0.00144925 0.00299789 0.0016874)
(-0.00194781 0.00270069 0.0016874)
(-0.00238719 0.00232142 0.0016874)
(-0.00275404 0.00187163 0.0016874)
(-0.0030372 0.00136496 0.0016874)
(-0.00322808 0.000816817 0.0016874)
(-0.00332088 0.000243857 0.0016874)
(-0.00331277 -0.000336511 0.0016874)
(-0.00320401 -0.000906657 0.0016874)
(-0.00299789 -0.00144925 0.0016874)
(-0.00270069 -0.00194781 0.0016874)
(-0.00232142 -0.00238719 0.0016874)
(-0.00187163 -0.00275404 0.0016874)
(-0.00136496 -0.0030372 0.0016874)
(-0.000816817 -0.00322808 0.0016874)
(-0.000243857 -0.00332088 0.0016874)
(0.000163547 -0.00325939 0.00171865)
(0.00072705 -0.00318148 0.00171865)
(0.00126846 -0.00300689 0.00171865)
(0.00177133 -0.00274094 0.00171865)
(0.00222038 -0.00239171 0.00171865)
(0.00260197 -0.00196981 0.00171865)
(0.00290449 -0.00148806 0.00171865)
(0.00311876 -0.000961096 0.00171865)
(0.00323828 -0.000404927 0.00171865)
(0.00325939 0.000163547 0.00171865)
(0.00318148 0.00072705 0.00171865)
(0.00300689 0.00126846 0.00171865)
(0.00274094 0.00177133 0.00171865)
(0.00239171 0.00222038 0.00171865)
(0.00196981 0.00260197 0.00171865)
(0.00148806 0.00290449 0.00171865)
(0.000961096 0.00311876 0.00171865)
(0.000404927 0.00323828 0.00171865)
(-0.000163547 0.00325939 0.00171865)
(-0.00072705 0.00318148 0.00171865)
(-0.00126846 0.00300689 0.00171865)
(-0.00177133 0.00274094 0.00171865)
(-0.00222038 0.00239171 0.00171865)
(-0.00260197 0.00196981 0.00171865)
(-0.00290449 0.00148806 0.00171865)
(-0.00311876 0.000961096 0.00171865)
(-0.00323828 0.000404927 0.00171865)
(-0.00325939 -0.000163547 0.00171865)
(-0.00318148 -0.00072705 0.00171865)
(-0.00300689 -0.00126846 0.00171865)
(-0.00274094 -0.00177133 0.00171865)
(-0.00239171 -0.00222038 0.00171865)
(-0.00196981 -0.00260197 0.00171865)
(-0.00148806 -0.00290449 0.00171865)
(-0.000961096 -0.00311876 0.00171865)
(-0.000404927 -0.00323828 0.00171865)
(0.000414295 -0.00366403 0.00200222)
(0.00104425 -0.00353642 0.00200222)
(0.00164248 -0.00330136 0.00200222)
(0.0021908 -0.00296599 0.00200221)
(0.00267256 -0.0025405 0.00200221)
(0.00307311 -0.00203782 0.00200222)
(0.00338029 -0.00147322 0.00200222)
(0.00358476 -0.00086386 0.00200222)
(0.00368031 -0.00022825 0.00200222)
(0.00366403 0.000414295 0.00200222)
(0.00353642 0.00104425 0.00200222)
(0.00330136 0.00164248 0.00200222)
(0.00296599 0.0021908 0.00200221)
(0.0025405 0.00267256 0.00200221)
(0.00203782 0.00307311 0.00200222)
(0.00147322 0.00338029 0.00200222)
(0.00086386 0.00358476 0.00200222)
(0.00022825 0.00368031 0.00200222)
(-0.000414295 0.00366403 0.00200222)
(-0.00104425 0.00353642 0.00200222)
(-0.00164248 0.00330136 0.00200222)
(-0.0021908 0.00296599 0.00200221)
(-0.00267256 0.0025405 0.00200221)
(-0.00307311 0.00203782 0.00200222)
(-0.00338029 0.00147322 0.00200222)
(-0.00358476 0.00086386 0.00200222)
(-0.00368031 0.00022825 0.00200222)