/*--------------------------------*- C++ -*----------------------------------*\
| =========                 |                                                 |
| \\      /  F ield         | OpenFOAM: The Open Source CFD Toolbox           |
|  \\    /   O peration     | Version:  2312                                  |
|   \\  /    A nd           | Website:  www.openfoam.com                      |
|    \\/     M anipulation  |                                                 |
\*---------------------------------------------------------------------------*/
FoamFile
{
    version     2.0;
    format      ascii;
    arch        "LSB;label=32;scalar=64";
    class       volVectorField;
    location    "0.6";
    object      D_0_0_0;
}
// * * * * * * * * * * * * * * * * * * * * * * * * * * * * * * * * * * * * * //

dimensions      [0 1 0 0 0 0 0];

internalField   nonuniform List<vector> 
1620
(
(0.000150439 -0.00027041 4.85239e-05)
(0.00019511 -0.000240178 4.85242e-05)
(0.000233852 -0.000202649 4.85243e-05)
(0.00026549 -0.000158962 4.85242e-05)
(0.00028906 -0.000110445 4.85243e-05)
(0.000303847 -5.85726e-05 4.85242e-05)
(0.000309401 -4.92047e-06 4.85238e-05)
(0.000305555 4.8881e-05 4.85237e-05)
(0.000292425 0.000101198 4.85239e-05)
(0.00027041 0.000150439 4.85239e-05)
(0.000240178 0.00019511 4.85242e-05)
(0.000202649 0.000233852 4.85243e-05)
(0.000158962 0.00026549 4.85242e-05)
(0.000110445 0.00028906 4.85243e-05)
(5.85726e-05 0.000303847 4.85242e-05)
(4.92047e-06 0.000309401 4.85238e-05)
(-4.8881e-05 0.000305555 4.85237e-05)
(-0.000101198 0.000292425 4.85239e-05)
(-0.000150439 0.00027041 4.85239e-05)
(-0.00019511 0.000240178 4.85242e-05)
(-0.000233852 0.000202649 4.85243e-05)
(-0.00026549 0.000158962 4.85242e-05)
(-0.00028906 0.000110445 4.85243e-05)
(-0.000303847 5.85726e-05 4.85242e-05)
(-0.000309401 4.92047e-06 4.85238e-05)
(-0.000305555 -4.8881e-05 4.85237e-05)
(-0.000292425 -0.000101198 4.85239e-05)
(-0.00027041 -0.000150439 4.85239e-05)
(-0.000240178 -0.00019511 4.85242e-05)
(-0.000202649 -0.000233852 4.85243e-05)
(-0.000158962 -0.00026549 4.85242e-05)
(-0.000110445 -0.00028906 4.85243e-05)
(-5.85726e-05 -0.000303847 4.85242e-05)
(-4.92047e-06 -0.000309401 4.85238e-05)
(4.8881e-05 -0.000305555 4.85237e-05)
(0.000101198 -0.000292425 4.85239e-05)
(9.62093e-05 -0.00030106 6.58484e-05)
(0.000147026 -0.00027978 6.58486e-05)
(0.000193376 -0.000249998 6.58486e-05)
(0.00023385 -0.000212621 6.58486e-05)
(0.000267219 -0.000168783 6.58488e-05)
(0.000292468 -0.000119817 6.58487e-05)
(0.00030883 -6.721e-05 6.58485e-05)
(0.00031581 -1.25614e-05 6.58484e-05)
(0.000313193 4.24692e-05 6.58484e-05)
(0.00030106 9.62093e-05 6.58484e-05)
(0.00027978 0.000147026 6.58486e-05)
(0.000249998 0.000193376 6.58486e-05)
(0.000212621 0.00023385 6.58486e-05)
(0.000168783 0.000267219 6.58488e-05)
(0.000119817 0.000292468 6.58487e-05)
(6.721e-05 0.00030883 6.58485e-05)
(1.25614e-05 0.00031581 6.58484e-05)
(-4.24692e-05 0.000313193 6.58484e-05)
(-9.62093e-05 0.00030106 6.58484e-05)
(-0.000147026 0.00027978 6.58486e-05)
(-0.000193376 0.000249998 6.58486e-05)
(-0.00023385 0.000212621 6.58486e-05)
(-0.000267219 0.000168783 6.58488e-05)
(-0.000292468 0.000119817 6.58487e-05)
(-0.00030883 6.721e-05 6.58485e-05)
(-0.00031581 1.25614e-05 6.58484e-05)
(-0.000313193 -4.24692e-05 6.58484e-05)
(-0.00030106 -9.62093e-05 6.58484e-05)
(-0.00027978 -0.000147026 6.58486e-05)
(-0.000249998 -0.000193376 6.58486e-05)
(-0.000212621 -0.00023385 6.58486e-05)
(-0.000168783 -0.000267219 6.58488e-05)
(-0.000119817 -0.000292468 6.58487e-05)
(-6.721e-05 -0.00030883 6.58485e-05)
(-1.25614e-05 -0.00031581 6.58484e-05)
(4.24692e-05 -0.000313193 6.58484e-05)
(1.42296e-05 -0.000330286 7.42983e-05)
(7.1367e-05 -0.000322798 7.42982e-05)
(0.000126336 -0.000305501 7.42985e-05)
(0.000177466 -0.000278921 7.42985e-05)
(0.000223205 -0.000243868 7.42986e-05)
(0.000262161 -0.000201403 7.42984e-05)
(0.000293152 -0.00015282 7.42984e-05)
(0.000315235 -9.95929e-05 7.42985e-05)
(0.000327739 -4.334e-05 7.42983e-05)
(0.000330286 1.42296e-05 7.42983e-05)
(0.000322798 7.1367e-05 7.42982e-05)
(0.000305501 0.000126336 7.42985e-05)
(0.000278921 0.000177466 7.42985e-05)
(0.000243868 0.000223205 7.42986e-05)
(0.000201403 0.000262161 7.42984e-05)
(0.00015282 0.000293152 7.42984e-05)
(9.95929e-05 0.000315235 7.42985e-05)
(4.334e-05 0.000327739 7.42983e-05)
(-1.42296e-05 0.000330286 7.42983e-05)
(-7.1367e-05 0.000322798 7.42982e-05)
(-0.000126336 0.000305501 7.42985e-05)
(-0.000177466 0.000278921 7.42985e-05)
(-0.000223205 0.000243868 7.42986e-05)
(-0.000262161 0.000201403 7.42984e-05)
(-0.000293152 0.00015282 7.42984e-05)
(-0.000315235 9.95929e-05 7.42985e-05)
(-0.000327739 4.334e-05 7.42983e-05)
(-0.000330286 -1.42296e-05 7.42983e-05)
(-0.000322798 -7.1367e-05 7.42982e-05)
(-0.000305501 -0.000126336 7.42985e-05)
(-0.000278921 -0.000177466 7.42985e-05)
(-0.000243868 -0.000223205 7.42986e-05)
(-0.000201403 -0.000262161 7.42984e-05)
(-0.00015282 -0.000293152 7.42984e-05)
(-9.95929e-05 -0.000315235 7.42985e-05)
(-4.334e-05 -0.000327739 7.42983e-05)
(0.000338991 -0.000820426 0.000184302)
(0.000476307 -0.000749097 0.000184303)
(0.000599151 -0.000655007 0.000184303)
(0.000703789 -0.000541014 0.000184303)
(0.000787042 -0.000410583 0.000184303)
(0.000846382 -0.000267677 0.000184303)
(0.000880006 -0.000116638 0.000184302)
(0.000886891 3.79457e-05 0.000184301)
(0.000866827 0.000191376 0.000184302)
(0.000820426 0.000338991 0.000184302)
(0.000749097 0.000476307 0.000184303)
(0.000655007 0.000599151 0.000184303)
(0.000541014 0.000703789 0.000184303)
(0.000410583 0.000787042 0.000184303)
(0.000267677 0.000846382 0.000184303)
(0.000116638 0.000880006 0.000184302)
(-3.79457e-05 0.000886891 0.000184301)
(-0.000191376 0.000866827 0.000184302)
(-0.000338991 0.000820426 0.000184302)
(-0.000476307 0.000749097 0.000184303)
(-0.000599151 0.000655007 0.000184303)
(-0.000703789 0.000541014 0.000184303)
(-0.000787042 0.000410583 0.000184303)
(-0.000846382 0.000267677 0.000184303)
(-0.000880006 0.000116638 0.000184302)
(-0.000886891 -3.79457e-05 0.000184301)
(-0.000866827 -0.000191376 0.000184302)
(-0.000820426 -0.000338991 0.000184302)
(-0.000749097 -0.000476307 0.000184303)
(-0.000655007 -0.000599151 0.000184303)
(-0.000541014 -0.000703789 0.000184303)
(-0.000410583 -0.000787042 0.000184303)
(-0.000267677 -0.000846382 0.000184303)
(-0.000116638 -0.000880006 0.000184302)
(3.79457e-05 -0.000886891 0.000184301)
(0.000191376 -0.000866827 0.000184302)
(0.000252042 -0.000895299 0.000240411)
(0.000403679 -0.000837931 0.000240411)
(0.000543052 -0.000755102 0.000240411)
(0.000665924 -0.000649331 0.000240412)
(0.000768563 -0.000523829 0.000240412)
(0.000847849 -0.000382411 0.000240411)
(0.000901373 -0.000229374 0.000240411)
(0.000927509 -6.93681e-05 0.00024041)
(0.000925464 9.27455e-05 0.000240411)
(0.000895299 0.000252042 0.000240411)
(0.000837931 0.000403679 0.000240411)
(0.000755102 0.000543052 0.000240411)
(0.000649331 0.000665924 0.000240412)
(0.000523829 0.000768563 0.000240412)
(0.000382411 0.000847849 0.000240411)
(0.000229374 0.000901373 0.000240411)
(6.93681e-05 0.000927509 0.00024041)
(-9.27455e-05 0.000925464 0.000240411)
(-0.000252042 0.000895299 0.000240411)
(-0.000403679 0.000837931 0.000240411)
(-0.000543052 0.000755102 0.000240411)
(-0.000665924 0.000649331 0.000240412)
(-0.000768563 0.000523829 0.000240412)
(-0.000847849 0.000382411 0.000240411)
(-0.000901373 0.000229374 0.000240411)
(-0.000927509 6.93681e-05 0.00024041)
(-0.000925464 -9.27455e-05 0.000240411)
(-0.000895299 -0.000252042 0.000240411)
(-0.000837931 -0.000403679 0.000240411)
(-0.000755102 -0.000543052 0.000240411)
(-0.000649331 -0.000665924 0.000240412)
(-0.000523829 -0.000768563 0.000240412)
(-0.000382411 -0.000847849 0.000240411)
(-0.000229374 -0.000901373 0.000240411)
(-6.93681e-05 -0.000927509 0.00024041)
(9.27455e-05 -0.000925464 0.000240411)
(0.000132605 -0.000965491 0.000283276)
(0.000298246 -0.000927796 0.000283276)
(0.000454825 -0.000861911 0.000283276)
(0.000597585 -0.000769836 0.000283277)
(0.000722187 -0.000654371 0.000283277)
(0.000824846 -0.000519023 0.000283276)
(0.000902443 -0.000367905 0.000283277)
(0.000952619 -0.000205609 0.000283277)
(0.00097385 -3.70651e-05 0.000283276)
(0.000965491 0.000132605 0.000283276)
(0.000927796 0.000298246 0.000283276)
(0.000861911 0.000454825 0.000283276)
(0.000769836 0.000597585 0.000283277)
(0.000654371 0.000722187 0.000283277)
(0.000519023 0.000824846 0.000283276)
(0.000367905 0.000902443 0.000283277)
(0.000205609 0.000952619 0.000283277)
(3.70651e-05 0.00097385 0.000283276)
(-0.000132605 0.000965491 0.000283276)
(-0.000298246 0.000927796 0.000283276)
(-0.000454825 0.000861911 0.000283276)
(-0.000597585 0.000769836 0.000283277)
(-0.000722187 0.000654371 0.000283277)
(-0.000824846 0.000519023 0.000283276)
(-0.000902443 0.000367905 0.000283277)
(-0.000952619 0.000205609 0.000283277)
(-0.00097385 3.70651e-05 0.000283276)
(-0.000965491 -0.000132605 0.000283276)
(-0.000927796 -0.000298246 0.000283276)
(-0.000861911 -0.000454825 0.000283276)
(-0.000769836 -0.000597585 0.000283277)
(-0.000654371 -0.000722187 0.000283277)
(-0.000519023 -0.000824846 0.000283276)
(-0.000367905 -0.000902443 0.000283277)
(-0.000205609 -0.000952619 0.000283277)
(-3.70651e-05 -0.00097385 0.000283276)
(0.000489966 -0.00137916 0.00040711)
(0.000722011 -0.00127312 0.000407111)
(0.000932118 -0.00112841 0.000407112)
(0.0011139 -0.000949403 0.000407112)
(0.00126184 -0.000741552 0.000407112)
(0.00137144 -0.00051117 0.000407111)
(0.00143937 -0.000265256 0.00040711)
(0.00146356 -1.12822e-05 0.00040711)
(0.00144329 0.000243034 0.00040711)
(0.00137916 0.000489966 0.00040711)
(0.00127312 0.000722011 0.000407111)
(0.00112841 0.000932118 0.000407112)
(0.000949403 0.0011139 0.000407112)
(0.000741552 0.00126184 0.000407112)
(0.00051117 0.00137144 0.000407111)
(0.000265256 0.00143937 0.00040711)
(1.12822e-05 0.00146356 0.00040711)
(-0.000243034 0.00144329 0.00040711)
(-0.000489966 0.00137916 0.00040711)
(-0.000722011 0.00127312 0.000407111)
(-0.000932118 0.00112841 0.000407112)
(-0.0011139 0.000949403 0.000407112)
(-0.00126184 0.000741552 0.000407112)
(-0.00137144 0.00051117 0.000407111)
(-0.00143937 0.000265256 0.00040711)
(-0.00146356 1.12822e-05 0.00040711)
(-0.00144329 -0.000243034 0.00040711)
(-0.00137916 -0.000489966 0.00040711)
(-0.00127312 -0.000722011 0.000407111)
(-0.00112841 -0.000932118 0.000407112)
(-0.000949403 -0.0011139 0.000407112)
(-0.000741552 -0.00126184 0.000407112)
(-0.00051117 -0.00137144 0.000407111)
(-0.000265256 -0.00143937 0.00040711)
(-1.12822e-05 -0.00146356 0.00040711)
(0.000243034 -0.00144329 0.00040711)
(0.000368817 -0.00147381 0.000483928)
(0.000619138 -0.00138738 0.000483929)
(0.000850648 -0.00125879 0.000483929)
(0.00105631 -0.00109195 0.000483929)
(0.00122988 -0.000891934 0.000483929)
(0.00136608 -0.000664817 0.000483929)
(0.00146077 -0.000417501 0.000483928)
(0.00151107 -0.000157499 0.000483928)
(0.00151547 0.000107288 0.000483928)
(0.00147381 0.000368817 0.000483928)
(0.00138738 0.000619138 0.000483929)
(0.00125879 0.000850648 0.000483929)
(0.00109195 0.00105631 0.000483929)
(0.000891934 0.00122988 0.000483929)
(0.000664817 0.00136608 0.000483929)
(0.000417501 0.00146077 0.000483928)
(0.000157499 0.00151107 0.000483928)
(-0.000107288 0.00151547 0.000483928)
(-0.000368817 0.00147381 0.000483928)
(-0.000619138 0.00138738 0.000483929)
(-0.000850648 0.00125879 0.000483929)
(-0.00105631 0.00109195 0.000483929)
(-0.00122988 0.000891934 0.000483929)
(-0.00136608 0.000664817 0.000483929)
(-0.00146077 0.000417501 0.000483928)
(-0.00151107 0.000157499 0.000483928)
(-0.00151547 -0.000107288 0.000483928)
(-0.00147381 -0.000368817 0.000483928)
(-0.00138738 -0.000619138 0.000483929)
(-0.00125879 -0.000850648 0.000483929)
(-0.00109195 -0.00105631 0.000483929)
(-0.000891934 -0.00122988 0.000483929)
(-0.000664817 -0.00136608 0.000483929)
(-0.000417501 -0.00146077 0.000483928)
(-0.000157499 -0.00151107 0.000483928)
(0.000107288 -0.00151547 0.000483928)
(0.000218625 -0.00155985 0.000546631)
(0.000486169 -0.00149819 0.000546631)
(0.000738941 -0.00139101 0.000546631)
(0.000969261 -0.00124156 0.000546632)
(0.00117013 -0.00105438 0.000546632)
(0.00133545 -0.000835175 0.000546632)
(0.00146018 -0.000590589 0.000546631)
(0.00154055 -0.00032806 0.000546631)
(0.00157412 -5.55616e-05 0.000546631)
(0.00155985 0.000218625 0.000546631)
(0.00149819 0.000486169 0.000546631)
(0.00139101 0.000738941 0.000546631)
(0.00124156 0.000969261 0.000546632)
(0.00105438 0.00117013 0.000546632)
(0.000835175 0.00133545 0.000546632)
(0.000590589 0.00146018 0.000546631)
(0.00032806 0.00154055 0.000546631)
(5.55616e-05 0.00157412 0.000546631)
(-0.000218625 0.00155985 0.000546631)
(-0.000486169 0.00149819 0.000546631)
(-0.000738941 0.00139101 0.000546631)
(-0.000969261 0.00124156 0.000546632)
(-0.00117013 0.00105438 0.000546632)
(-0.00133545 0.000835175 0.000546632)
(-0.00146018 0.000590589 0.000546631)
(-0.00154055 0.00032806 0.000546631)
(-0.00157412 5.55616e-05 0.000546631)
(-0.00155985 -0.000218625 0.000546631)
(-0.00149819 -0.000486169 0.000546631)
(-0.00139101 -0.000738941 0.000546631)
(-0.00124156 -0.000969261 0.000546632)
(-0.00105438 -0.00117013 0.000546632)
(-0.000835175 -0.00133545 0.000546632)
(-0.000590589 -0.00146018 0.000546631)
(-0.00032806 -0.00154055 0.000546631)
(-5.55616e-05 -0.00157412 0.000546631)
(0.000576192 -0.00193593 0.000679166)
(0.00090361 -0.00180647 0.000679167)
(0.00120357 -0.00162211 0.000679167)
(0.00146696 -0.00138847 0.000679168)
(0.00168578 -0.00111264 0.000679167)
(0.00185338 -0.000803006 0.000679167)
(0.00196466 -0.000468971 0.000679166)
(0.00201625 -0.000120685 0.000679166)
(0.00200658 0.000231267 0.000679166)
(0.00193593 0.000576192 0.000679166)
(0.00180647 0.00090361 0.000679167)
(0.00162211 0.00120357 0.000679167)
(0.00138847 0.00146696 0.000679168)
(0.00111264 0.00168578 0.000679167)
(0.000803006 0.00185338 0.000679167)
(0.000468971 0.00196466 0.000679166)
(0.000120685 0.00201625 0.000679166)
(-0.000231267 0.00200658 0.000679166)
(-0.000576192 0.00193593 0.000679166)
(-0.00090361 0.00180647 0.000679167)
(-0.00120357 0.00162211 0.000679167)
(-0.00146696 0.00138847 0.000679168)
(-0.00168578 0.00111264 0.000679167)
(-0.00185338 0.000803006 0.000679167)
(-0.00196466 0.000468971 0.000679166)
(-0.00201625 0.000120685 0.000679166)
(-0.00200658 -0.000231267 0.000679166)
(-0.00193593 -0.000576192 0.000679166)
(-0.00180647 -0.00090361 0.000679167)
(-0.00162211 -0.00120357 0.000679167)
(-0.00138847 -0.00146696 0.000679168)
(-0.00111264 -0.00168578 0.000679167)
(-0.000803006 -0.00185338 0.000679167)
(-0.000468971 -0.00196466 0.000679166)
(-0.000120685 -0.00201625 0.000679166)
(0.000231267 -0.00200658 0.000679166)
(0.000433791 -0.00202087 0.000761807)
(0.00077812 -0.00191484 0.000761807)
(0.00109881 -0.00175063 0.000761808)
(0.00138611 -0.00153323 0.000761807)
(0.00163129 -0.00126924 0.000761807)
(0.00182691 -0.000966685 0.000761807)
(0.00196702 -0.00063476 0.000761807)
(0.00204736 -0.000283547 0.000761807)
(0.00206549 7.62805e-05 0.000761807)
(0.00202087 0.000433791 0.000761807)
(0.00191484 0.00077812 0.000761807)
(0.00175063 0.00109881 0.000761808)
(0.00153323 0.00138611 0.000761807)
(0.00126924 0.00163129 0.000761807)
(0.000966685 0.00182691 0.000761807)
(0.00063476 0.00196702 0.000761807)
(0.000283547 0.00204736 0.000761807)
(-7.62805e-05 0.00206549 0.000761807)
(-0.000433791 0.00202087 0.000761807)
(-0.00077812 0.00191484 0.000761807)
(-0.00109881 0.00175063 0.000761808)
(-0.00138611 0.00153323 0.000761807)
(-0.00163129 0.00126924 0.000761807)
(-0.00182691 0.000966685 0.000761807)
(-0.00196702 0.00063476 0.000761807)
(-0.00204736 0.000283547 0.000761807)
(-0.00206549 -7.62805e-05 0.000761807)
(-0.00202087 -0.000433791 0.000761807)
(-0.00191484 -0.00077812 0.000761807)
(-0.00175063 -0.00109881 0.000761808)
(-0.00153323 -0.00138611 0.000761807)
(-0.00126924 -0.00163129 0.000761807)
(-0.000966685 -0.00182691 0.000761807)
(-0.00063476 -0.00196702 0.000761807)
(-0.000283547 -0.00204736 0.000761807)
(7.62805e-05 -0.00206549 0.000761807)
(0.000266695 -0.00209602 0.000830025)
(0.000626613 -0.00201786 0.000830025)
(0.000967491 -0.0018784 0.000830025)
(0.00127897 -0.00168186 0.000830025)
(0.00155159 -0.00143421 0.000830025)
(0.00177707 -0.00114299 0.000830025)
(0.00194855 -0.000817044 0.000830025)
(0.00206083 -0.000466269 0.000830025)
(0.00211048 -0.000101327 0.000830025)
(0.00209602 0.000266695 0.000830025)
(0.00201786 0.000626613 0.000830025)
(0.0018784 0.000967491 0.000830025)
(0.00168186 0.00127897 0.000830025)
(0.00143421 0.00155159 0.000830025)
(0.00114299 0.00177707 0.000830025)
(0.000817044 0.00194855 0.000830025)
(0.000466269 0.00206083 0.000830025)
(0.000101327 0.00211048 0.000830025)
(-0.000266695 0.00209602 0.000830025)
(-0.000626613 0.00201786 0.000830025)
(-0.000967491 0.0018784 0.000830025)
(-0.00127897 0.00168186 0.000830025)
(-0.00155159 0.00143421 0.000830025)
(-0.00177707 0.00114299 0.000830025)
(-0.00194855 0.000817044 0.000830025)
(-0.00206083 0.000466269 0.000830025)
(-0.00211048 0.000101327 0.000830025)
(-0.00209602 -0.000266695 0.000830025)
(-0.00201786 -0.000626613 0.000830025)
(-0.0018784 -0.000967491 0.000830025)
(-0.00168186 -0.00127897 0.000830025)
(-0.00143421 -0.00155159 0.000830025)
(-0.00114299 -0.00177707 0.000830025)
(-0.000817044 -0.00194855 0.000830025)
(-0.000466269 -0.00206083 0.000830025)
(-0.000101327 -0.00211048 0.000830025)
(0.000598843 -0.00246704 0.000980109)
(0.00101814 -0.00232557 0.000980108)
(0.0014065 -0.00211344 0.000980108)
(0.00175213 -0.00183709 0.000980109)
(0.00204452 -0.00150493 0.000980108)
(0.00227479 -0.00112704 0.000980108)
(0.00243594 -0.000714905 0.000980107)
(0.00252307 -0.000281047 0.000980107)
(0.00253354 0.000161349 0.000980108)
(0.00246704 0.000598843 0.000980109)
(0.00232557 0.00101814 0.000980108)
(0.00211344 0.0014065 0.000980108)
(0.00183709 0.00175213 0.000980109)
(0.00150493 0.00204452 0.000980108)
(0.00112704 0.00227479 0.000980108)
(0.000714905 0.00243594 0.000980107)
(0.000281047 0.00252307 0.000980107)
(-0.000161349 0.00253354 0.000980108)
(-0.000598843 0.00246704 0.000980109)
(-0.00101814 0.00232557 0.000980108)
(-0.0014065 0.00211344 0.000980108)
(-0.00175213 0.00183709 0.000980109)
(-0.00204452 0.00150493 0.000980108)
(-0.00227479 0.00112704 0.000980108)
(-0.00243594 0.000714905 0.000980107)
(-0.00252307 0.000281047 0.000980107)
(-0.00253354 -0.000161349 0.000980108)
(-0.00246704 -0.000598843 0.000980109)
(-0.00232557 -0.00101814 0.000980108)
(-0.00211344 -0.0014065 0.000980108)
(-0.00183709 -0.00175213 0.000980109)
(-0.00150493 -0.00204452 0.000980108)
(-0.00112704 -0.00227479 0.000980108)
(-0.000714905 -0.00243594 0.000980107)
(-0.000281047 -0.00252307 0.000980107)
(0.000161349 -0.00253354 0.000980108)
(0.000445489 -0.00251922 0.00105779)
(0.00087618 -0.00240359 0.00105779)
(0.00128025 -0.00221493 0.00105779)
(0.00164542 -0.00195897 0.00105779)
(0.00196059 -0.00164348 0.00105779)
(0.00221619 -0.00127806 0.00105779)
(0.00240446 -0.000873808 0.00105779)
(0.00251966 -0.000443004 0.00105779)
(0.00255831 1.26165e-06 0.00105779)
(0.00251922 0.000445489 0.00105779)
(0.00240359 0.00087618 0.00105779)
(0.00221493 0.00128025 0.00105779)
(0.00195897 0.00164542 0.00105779)
(0.00164348 0.00196059 0.00105779)
(0.00127806 0.00221619 0.00105779)
(0.000873808 0.00240446 0.00105779)
(0.000443004 0.00251966 0.00105779)
(-1.26165e-06 0.00255831 0.00105779)
(-0.000445489 0.00251922 0.00105779)
(-0.00087618 0.00240359 0.00105779)
(-0.00128025 0.00221493 0.00105779)
(-0.00164542 0.00195897 0.00105779)
(-0.00196059 0.00164348 0.00105779)
(-0.00221619 0.00127806 0.00105779)
(-0.00240446 0.000873808 0.00105779)
(-0.00251966 0.000443004 0.00105779)
(-0.00255831 -1.26165e-06 0.00105779)
(-0.00251922 -0.000445489 0.00105779)
(-0.00240359 -0.00087618 0.00105779)
(-0.00221493 -0.00128025 0.00105779)
(-0.00195897 -0.00164542 0.00105779)
(-0.00164348 -0.00196059 0.00105779)
(-0.00127806 -0.00221619 0.00105779)
(-0.000873808 -0.00240446 0.00105779)
(-0.000443004 -0.00251966 0.00105779)
(1.26165e-06 -0.00255831 0.00105779)
(0.000271761 -0.00256233 0.00112098)
(0.000712577 -0.00247621 0.00112098)
(0.00113174 -0.00231486 0.00112098)
(0.00151652 -0.00208316 0.00112098)
(0.00185522 -0.00178818 0.00112098)
(0.00213755 -0.00143886 0.00112098)
(0.00235493 -0.00104582 0.00112098)
(0.00250075 -0.000620998 0.00112098)
(0.0025706 -0.000177313 0.00112098)
(0.00256233 0.000271761 0.00112098)
(0.00247621 0.000712577 0.00112098)
(0.00231486 0.00113174 0.00112098)
(0.00208316 0.00151652 0.00112098)
(0.00178818 0.00185522 0.00112098)
(0.00143886 0.00213755 0.00112098)
(0.00104582 0.00235493 0.00112098)
(0.000620998 0.00250075 0.00112098)
(0.000177313 0.0025706 0.00112098)
(-0.000271761 0.00256233 0.00112098)
(-0.000712577 0.00247621 0.00112098)
(-0.00113174 0.00231486 0.00112098)
(-0.00151652 0.00208316 0.00112098)
(-0.00185522 0.00178818 0.00112098)
(-0.00213755 0.00143886 0.00112098)
(-0.00235493 0.00104582 0.00112098)
(-0.00250075 0.000620998 0.00112098)
(-0.0025706 0.000177313 0.00112098)
(-0.00256233 -0.000271761 0.00112098)
(-0.00247621 -0.000712577 0.00112098)
(-0.00231486 -0.00113174 0.00112098)
(-0.00208316 -0.00151652 0.00112098)
(-0.00178818 -0.00185522 0.00112098)
(-0.00143886 -0.00213755 0.00112098)
(-0.00104582 -0.00235493 0.00112098)
(-0.000620998 -0.00250075 0.00112098)
(-0.000177313 -0.0025706 0.00112098)
(0.000568785 -0.0029456 0.00129942)
(0.00107164 -0.00280208 0.00129942)
(0.00154194 -0.00257343 0.00129942)
(0.00196538 -0.00226657 0.00129942)
(0.00232911 -0.00189085 0.00129942)
(0.00262207 -0.00145768 0.00129942)
(0.00283536 -0.00098022 0.00129942)
(0.0029625 -0.000472973 0.00129942)
(0.00299962 4.86451e-05 0.00129942)
(0.0029456 0.000568785 0.00129942)
(0.00280208 0.00107164 0.00129942)
(0.00257343 0.00154194 0.00129942)
(0.00226657 0.00196538 0.00129942)
(0.00189085 0.00232911 0.00129942)
(0.00145768 0.00262207 0.00129942)
(0.00098022 0.00283536 0.00129942)
(0.000472973 0.0029625 0.00129942)
(-4.86451e-05 0.00299962 0.00129942)
(-0.000568785 0.0029456 0.00129942)
(-0.00107164 0.00280208 0.00129942)
(-0.00154194 0.00257343 0.00129942)
(-0.00196538 0.00226657 0.00129942)
(-0.00232911 0.00189085 0.00129942)
(-0.00262207 0.00145768 0.00129942)
(-0.00283536 0.00098022 0.00129942)
(-0.0029625 0.000472973 0.00129942)
(-0.00299962 -4.86451e-05 0.00129942)
(-0.0029456 -0.000568785 0.00129942)
(-0.00280208 -0.00107164 0.00129942)
(-0.00257343 -0.00154194 0.00129942)
(-0.00226657 -0.00196538 0.00129942)
(-0.00189085 -0.00232911 0.00129942)
(-0.00145768 -0.00262207 0.00129942)
(-0.00098022 -0.00283536 0.00129942)
(-0.000472973 -0.0029625 0.00129942)
(4.86451e-05 -0.00299962 0.00129942)
(0.000410291 -0.00295006 0.00136422)
(0.000916331 -0.002834 0.00136422)
(0.00139453 -0.00263182 0.00136422)
(0.00183035 -0.00234968 0.00136422)
(0.00221056 -0.00199615 0.00136422)
(0.00252361 -0.00158196 0.00136422)
(0.00275997 -0.00111971 0.00136422)
(0.00291248 -0.000623435 0.00136422)
(0.00297649 -0.000108216 0.00136422)
(0.00295006 0.000410291 0.00136422)
(0.002834 0.000916331 0.00136422)
(0.00263182 0.00139453 0.00136422)
(0.00234968 0.00183035 0.00136422)
(0.00199615 0.00221056 0.00136422)
(0.00158196 0.00252361 0.00136422)
(0.00111971 0.00275997 0.00136422)
(0.000623435 0.00291248 0.00136422)
(0.000108216 0.00297649 0.00136422)
(-0.000410291 0.00295006 0.00136422)
(-0.000916331 0.002834 0.00136422)
(-0.00139453 0.00263182 0.00136422)
(-0.00183035 0.00234968 0.00136422)
(-0.00221056 0.00199615 0.00136422)
(-0.00252361 0.00158196 0.00136422)
(-0.00275997 0.00111971 0.00136422)
(-0.00291248 0.000623435 0.00136422)
(-0.00297649 0.000108216 0.00136422)
(-0.00295006 -0.000410291 0.00136422)
(-0.002834 -0.000916331 0.00136422)
(-0.00263182 -0.00139453 0.00136422)
(-0.00234968 -0.00183035 0.00136422)
(-0.00199615 -0.00221056 0.00136422)
(-0.00158196 -0.00252361 0.00136422)
(-0.00111971 -0.00275997 0.00136422)
(-0.000623435 -0.00291248 0.00136422)
(-0.000108216 -0.00297649 0.00136422)
(0.000236103 -0.0029475 0.00141437)
(0.000744345 -0.00286173 0.00141437)
(0.00122997 -0.002689 0.00141437)
(0.00167822 -0.00243456 0.00141437)
(0.00207548 -0.00210616 0.00141437)
(0.00240968 -0.00171375 0.00141437)
(0.00267066 -0.00126928 0.00141437)
(0.0028505 -0.000786243 0.00141437)
(0.00294372 -0.000279313 0.00141437)
(0.0029475 0.000236103 0.00141437)
(0.00286173 0.000744345 0.00141437)
(0.002689 0.00122997 0.00141437)
(0.00243456 0.00167822 0.00141437)
(0.00210616 0.00207548 0.00141437)
(0.00171375 0.00240968 0.00141437)
(0.00126928 0.00267066 0.00141437)
(0.000786243 0.0028505 0.00141437)
(0.000279313 0.00294372 0.00141437)
(-0.000236103 0.0029475 0.00141437)
(-0.000744345 0.00286173 0.00141437)
(-0.00122997 0.002689 0.00141437)
(-0.00167822 0.00243456 0.00141437)
(-0.00207548 0.00210616 0.00141437)
(-0.00240968 0.00171375 0.00141437)
(-0.00267066 0.00126928 0.00141437)
(-0.0028505 0.000786243 0.00141437)
(-0.00294372 0.000279313 0.00141437)
(-0.0029475 -0.000236103 0.00141437)
(-0.00286173 -0.000744345 0.00141437)
(-0.002689 -0.00122997 0.00141437)
(-0.00243456 -0.00167822 0.00141437)
(-0.00210616 -0.00207548 0.00141437)
(-0.00171375 -0.00240968 0.00141437)
(-0.00126928 -0.00267066 0.00141437)
(-0.000786243 -0.0028505 0.00141437)
(-0.000279313 -0.00294372 0.00141437)
(0.000502479 -0.00334657 0.00163682)
(0.00107597 -0.00320848 0.00163682)
(0.00161677 -0.00297289 0.00163682)
(0.00210845 -0.00264698 0.00163682)
(0.00253606 -0.00224064 0.00163682)
(0.00288661 -0.00176621 0.00163682)
(0.00314946 -0.00123813 0.00163682)
(0.00331661 -0.000672419 0.00163682)
(0.00338299 -8.62803e-05 0.00163682)
(0.00334657 0.000502479 0.00163682)
(0.00320848 0.00107597 0.00163682)
(0.00297289 0.00161677 0.00163682)
(0.00264698 0.00210845 0.00163682)
(0.00224064 0.00253606 0.00163682)
(0.00176621 0.00288661 0.00163682)
(0.00123813 0.00314946 0.00163682)
(0.000672419 0.00331661 0.00163682)
(8.62803e-05 0.00338299 0.00163682)
(-0.000502479 0.00334657 0.00163682)
(-0.00107597 0.00320848 0.00163682)
(-0.00161677 0.00297289 0.00163682)
(-0.00210845 0.00264698 0.00163682)
(-0.00253606 0.00224064 0.00163682)
(-0.00288661 0.00176621 0.00163682)
(-0.00314946 0.00123813 0.00163682)
(-0.00331661 0.000672419 0.00163682)
(-0.00338299 8.62803e-05 0.00163682)
(-0.00334657 -0.000502479 0.00163682)
(-0.00320848 -0.00107597 0.00163682)
(-0.00297289 -0.00161677 0.00163682)
(-0.00264698 -0.00210845 0.00163682)
(-0.00224064 -0.00253606 0.00163682)
(-0.00176621 -0.00288661 0.00163682)
(-0.00123813 -0.00314946 0.00163682)
(-0.000672419 -0.00331661 0.00163682)
(-8.62803e-05 -0.00338299 0.00163682)
(0.000340672 -0.00329406 0.00168201)
(0.000907505 -0.00318486 0.00168201)
(0.00144676 -0.00297889 0.00168201)
(0.00194206 -0.0026824 0.00168201)
(0.00237835 -0.00230441 0.00168201)
(0.00274238 -0.00185641 0.00168201)
(0.00302308 -0.001352 0.00168201)
(0.00321192 -0.000806507 0.00168201)
(0.00330317 -0.00023651 0.00168201)
(0.00329406 0.000340672 0.00168201)
(0.00318486 0.000907505 0.00168201)
(0.00297889 0.00144676 0.00168201)
(0.0026824 0.00194206 0.00168201)
(0.00230441 0.00237835 0.00168201)
(0.00185641 0.00274238 0.00168201)
(0.001352 0.00302308 0.00168201)
(0.000806507 0.00321192 0.00168201)
(0.00023651 0.00330317 0.00168201)
(-0.000340672 0.00329406 0.00168201)
(-0.000907505 0.00318486 0.00168201)
(-0.00144676 0.00297889 0.00168201)
(-0.00194206 0.0026824 0.00168201)
(-0.00237835 0.00230441 0.00168201)
(-0.00274238 0.00185641 0.00168201)
(-0.00302308 0.001352 0.00168201)
(-0.00321192 0.000806507 0.00168201)
(-0.00330317 0.00023651 0.00168201)
(-0.00329406 -0.000340672 0.00168201)
(-0.00318486 -0.000907505 0.00168201)
(-0.00297889 -0.00144676 0.00168201)
(-0.0026824 -0.00194206 0.00168201)
(-0.00230441 -0.00237835 0.00168201)
(-0.00185641 -0.00274238 0.00168201)
(-0.001352 -0.00302308 0.00168201)
(-0.000806507 -0.00321192 0.00168201)
(-0.00023651 -0.00330317 0.00168201)
(0.000168555 -0.00323801 0.00171203)
(0.000728269 -0.00315955 0.00171203)
(0.00126586 -0.00298509 0.00171203)
(0.00176498 -0.00271992 0.00171203)
(0.00221047 -0.00237212 0.00171203)
(0.00258881 -0.00195223 0.00171203)
(0.00288848 -0.00147303 0.00171203)
(0.00310038 -0.000949076 0.00171203)
(0.00321809 -0.000396281 0.00171203)
(0.00323801 0.000168555 0.00171203)
(0.00315955 0.000728269 0.00171203)
(0.00298509 0.00126586 0.00171203)
(0.00271992 0.00176498 0.00171203)
(0.00237212 0.00221047 0.00171203)
(0.00195223 0.00258881 0.00171203)
(0.00147303 0.00288848 0.00171203)
(0.000949076 0.00310038 0.00171203)
(0.000396281 0.00321809 0.00171203)
(-0.000168555 0.00323801 0.00171203)
(-0.000728269 0.00315955 0.00171203)
(-0.00126586 0.00298509 0.00171203)
(-0.00176498 0.00271992 0.00171203)
(-0.00221047 0.00237212 0.00171203)
(-0.00258881 0.00195223 0.00171203)
(-0.00288848 0.00147303 0.00171203)
(-0.00310038 0.000949076 0.00171203)
(-0.00321809 0.000396281 0.00171203)
(-0.00323801 -0.000168555 0.00171203)
(-0.00315955 -0.000728269 0.00171203)
(-0.00298509 -0.00126586 0.00171203)
(-0.00271992 -0.00176498 0.00171203)
(-0.00237212 -0.00221047 0.00171203)
(-0.00195223 -0.00258881 0.00171203)
(-0.00147303 -0.00288848 0.00171203)
(-0.000949076 -0.00310038 0.00171203)
(-0.000396281 -0.00321809 0.00171203)
(0.000419188 -0.0036474 0.00199861)
(0.00104618 -0.00351919 0.0019986)
(0.00164139 -0.00328406 0.0019986)
(0.00218673 -0.00294914 0.0019986)
(0.00266562 -0.00252462 0.0019986)
(0.00306352 -0.00202339 0.0019986)
(0.00336833 -0.00146067 0.0019986)
(0.0035708 -0.000853574 0.0019986)
(0.00366478 -0.000220543 0.00199861)
(0.0036474 0.000419188 0.00199861)
(0.00351919 0.00104618 0.0019986)
(0.00328406 0.00164139 0.0019986)
(0.00294914 0.00218673 0.0019986)
(0.00252462 0.00266562 0.0019986)
(0.00202339 0.00306352 0.0019986)
(0.00146067 0.00336833 0.0019986)
(0.000853574 0.0035708 0.0019986)
(0.000220543 0.00366478 0.00199861)
(-0.000419188 0.0036474 0.00199861)
(-0.00104618 0.00351919 0.0019986)
(-0.00164139 0.00328406 0.0019986)
(-0.00218673 0.00294914 0.0019986)
(-0.00266562 0.00252462 0.0019986)
(-0.00306352 0.00202339 0.0019986)