/*--------------------------------*- C++ -*----------------------------------*\
| =========                 |                                                 |
| \\      /  F ield         | OpenFOAM: The Open Source CFD Toolbox           |
|  \\    /   O peration     | Version:  2312                                  |
|   \\  /    A nd           | Website:  www.openfoam.com                      |
|    \\/     M anipulation  |                                                 |
\*---------------------------------------------------------------------------*/
FoamFile
{
    version     2.0;
    format      ascii;
    arch        "LSB;label=32;scalar=64";
    class       volTensorField;
    location    "0.6";
    object      F;
}
// * * * * * * * * * * * * * * * * * * * * * * * * * * * * * * * * * * * * * //

dimensions      [0 0 0 0 0 0 0];

internalField   nonuniform List<tensor> 
1620
(
(1.05263 0.0342465 -0.094251 0.0304318 1.01924 0.28956 -0.0185192 -0.0016201 0.927607)
(1.04056 0.0380066 -0.143101 0.0341918 1.03131 0.268795 -0.0179563 -0.00481125 0.927607)
(1.02794 0.0374126 -0.187603 0.0335977 1.04393 0.239862 -0.016848 -0.00785642 0.927607)
(1.01628 0.0325361 -0.226404 0.0287213 1.05559 0.203641 -0.015228 -0.0106628 0.927607)
(1.00699 0.0239651 -0.258326 0.0201507 1.06489 0.161233 -0.0131451 -0.0131451 0.927607)
(1.00119 0.0127337 -0.2824 0.00891933 1.07068 0.113925 -0.0106627 -0.0152281 0.927607)
(0.999582 0.000196494 -0.297892 -0.00361782 1.07229 0.0631563 -0.00785643 -0.0168485 0.927607)
(1.00236 -0.0121342 -0.304334 -0.0159486 1.06951 0.0104683 -0.00481151 -0.0179567 0.927607)
(1.00919 -0.0227714 -0.301528 -0.0265859 1.06269 -0.0425375 -0.00162031 -0.0185193 0.927607)
(1.01924 -0.0304318 -0.28956 -0.0342465 1.05263 -0.094251 0.0016201 -0.0185192 0.927607)
(1.03131 -0.0341918 -0.268795 -0.0380066 1.04056 -0.143101 0.00481125 -0.0179563 0.927607)
(1.04393 -0.0335977 -0.239862 -0.0374126 1.02794 -0.187603 0.00785642 -0.016848 0.927607)
(1.05559 -0.0287213 -0.203641 -0.0325361 1.01628 -0.226404 0.0106628 -0.015228 0.927607)
(1.06489 -0.0201507 -0.161233 -0.0239651 1.00699 -0.258326 0.0131451 -0.0131451 0.927607)
(1.07068 -0.00891933 -0.113925 -0.0127337 1.00119 -0.2824 0.0152281 -0.0106627 0.927607)
(1.07229 0.00361782 -0.0631563 -0.000196494 0.999582 -0.297892 0.0168485 -0.00785643 0.927607)
(1.06951 0.0159486 -0.0104683 0.0121342 1.00236 -0.304334 0.0179567 -0.00481151 0.927607)
(1.06269 0.0265859 0.0425375 0.0227714 1.00919 -0.301528 0.0185193 -0.00162031 0.927607)
(1.05263 0.0342465 0.094251 0.0304318 1.01924 -0.28956 0.0185192 0.0016201 0.927607)
(1.04056 0.0380066 0.143101 0.0341918 1.03131 -0.268795 0.0179563 0.00481125 0.927607)
(1.02794 0.0374126 0.187603 0.0335977 1.04393 -0.239862 0.016848 0.00785642 0.927607)
(1.01628 0.0325361 0.226404 0.0287213 1.05559 -0.203641 0.015228 0.0106628 0.927607)
(1.00699 0.0239651 0.258326 0.0201507 1.06489 -0.161233 0.0131451 0.0131451 0.927607)
(1.00119 0.0127337 0.2824 0.00891933 1.07068 -0.113925 0.0106627 0.0152281 0.927607)
(0.999582 0.000196494 0.297892 -0.00361782 1.07229 -0.0631563 0.00785643 0.0168485 0.927607)
(1.00236 -0.0121342 0.304334 -0.0159486 1.06951 -0.0104683 0.00481151 0.0179567 0.927607)
(1.00919 -0.0227714 0.301528 -0.0265859 1.06269 0.0425375 0.00162031 0.0185193 0.927607)
(1.01924 -0.0304318 0.28956 -0.0342465 1.05263 0.094251 -0.0016201 0.0185192 0.927607)
(1.03131 -0.0341918 0.268795 -0.0380066 1.04056 0.143101 -0.00481125 0.0179563 0.927607)
(1.04393 -0.0335977 0.239862 -0.0374126 1.02794 0.187603 -0.00785642 0.016848 0.927607)
(1.05559 -0.0287213 0.203641 -0.0325361 1.01628 0.226404 -0.0106628 0.015228 0.927607)
(1.06489 -0.0201507 0.161233 -0.0239651 1.00699 0.258326 -0.0131451 0.0131451 0.927607)
(1.07068 -0.00891933 0.113925 -0.0127337 1.00119 0.2824 -0.0152281 0.0106627 0.927607)
(1.07229 0.00361782 0.0631563 -0.000196494 0.999582 0.297892 -0.0168485 0.00785643 0.927607)
(1.06951 0.0159486 0.0104683 0.0121342 1.00236 0.304334 -0.0179567 0.00481151 0.927607)
(1.06269 0.0265859 -0.0425375 0.0227714 1.00919 0.301528 -0.0185193 0.00162031 0.927607)
(1.0661 0.042985 -0.0760005 0.0304945 1.01452 0.314941 -0.0141022 -0.00123374 0.906525)
(1.05198 0.049589 -0.129535 0.0370983 1.02864 0.296959 -0.0136735 -0.00366368 0.906524)
(1.03645 0.050965 -0.179133 0.0384745 1.04417 0.269953 -0.0128296 -0.00598248 0.906524)
(1.02139 0.0469471 -0.223289 0.0344567 1.05923 0.234746 -0.0115959 -0.00811958 0.906524)
(1.00861 0.0380199 -0.26066 0.0255295 1.07201 0.192406 -0.0100098 -0.0100098 0.906524)
(0.999651 0.0252602 -0.290111 0.0127698 1.08097 0.14422 -0.0081195 -0.0115959 0.906524)
(0.995599 0.0102071 -0.310747 -0.00228314 1.08502 0.0916518 -0.00598252 -0.0128298 0.906525)
(0.996941 -0.00532392 -0.321941 -0.0178141 1.08368 0.0362988 -0.00366385 -0.0136739 0.906525)
(1.00351 -0.0194594 -0.323353 -0.0319498 1.07711 -0.020157 -0.00123378 -0.0141022 0.906525)
(1.01452 -0.0304945 -0.314941 -0.042985 1.0661 -0.0760005 0.00123374 -0.0141022 0.906525)
(1.02864 -0.0370983 -0.296959 -0.049589 1.05198 -0.129535 0.00366368 -0.0136735 0.906524)
(1.04417 -0.0384745 -0.269953 -0.050965 1.03645 -0.179133 0.00598248 -0.0128296 0.906524)
(1.05923 -0.0344567 -0.234746 -0.0469471 1.02139 -0.223289 0.00811958 -0.0115959 0.906524)
(1.07201 -0.0255295 -0.192406 -0.0380199 1.00861 -0.26066 0.0100098 -0.0100098 0.906524)
(1.08097 -0.0127698 -0.14422 -0.0252602 0.999651 -0.290111 0.0115959 -0.0081195 0.906524)
(1.08502 0.00228314 -0.0916518 -0.0102071 0.995599 -0.310747 0.0128298 -0.00598252 0.906525)
(1.08368 0.0178141 -0.0362988 0.00532392 0.996941 -0.321941 0.0136739 -0.00366385 0.906525)
(1.07711 0.0319498 0.020157 0.0194594 1.00351 -0.323353 0.0141022 -0.00123378 0.906525)
(1.0661 0.042985 0.0760005 0.0304945 1.01452 -0.314941 0.0141022 0.00123374 0.906525)
(1.05198 0.049589 0.129535 0.0370983 1.02864 -0.296959 0.0136735 0.00366368 0.906524)
(1.03645 0.050965 0.179133 0.0384745 1.04417 -0.269953 0.0128296 0.00598248 0.906524)
(1.02139 0.0469471 0.223289 0.0344567 1.05923 -0.234746 0.0115959 0.00811958 0.906524)
(1.00861 0.0380199 0.26066 0.0255295 1.07201 -0.192406 0.0100098 0.0100098 0.906524)
(0.999651 0.0252602 0.290111 0.0127698 1.08097 -0.14422 0.0081195 0.0115959 0.906524)
(0.995599 0.0102071 0.310747 -0.00228314 1.08502 -0.0916518 0.00598252 0.0128298 0.906525)
(0.996941 -0.00532392 0.321941 -0.0178141 1.08368 -0.0362988 0.00366385 0.0136739 0.906525)
(1.00351 -0.0194594 0.323353 -0.0319498 1.07711 0.020157 0.00123378 0.0141022 0.906525)
(1.01452 -0.0304945 0.314941 -0.042985 1.0661 0.0760005 -0.00123374 0.0141022 0.906525)
(1.02864 -0.0370983 0.296959 -0.049589 1.05198 0.129535 -0.00366368 0.0136735 0.906524)
(1.04417 -0.0384745 0.269953 -0.050965 1.03645 0.179133 -0.00598248 0.0128296 0.906524)
(1.05923 -0.0344567 0.234746 -0.0469471 1.02139 0.223289 -0.00811958 0.0115959 0.906524)
(1.07201 -0.0255295 0.192406 -0.0380199 1.00861 0.26066 -0.0100098 0.0100098 0.906524)
(1.08097 -0.0127698 0.14422 -0.0252602 0.999651 0.290111 -0.0115959 0.0081195 0.906524)
(1.08502 0.00228314 0.0916518 -0.0102071 0.995599 0.310747 -0.0128298 0.00598252 0.906525)
(1.08368 0.0178141 0.0362988 0.00532392 0.996941 0.321941 -0.0136739 0.00366385 0.906525)
(1.07711 0.0319498 -0.020157 0.0194594 1.00351 0.323353 -0.0141022 0.00123378 0.906525)
(1.07986 0.0535907 -0.0549569 0.0302598 1.00446 0.339099 -0.0092121 -0.00080604 0.887643)
(1.06325 0.0639565 -0.113006 0.0406256 1.02107 0.324405 -0.00893194 -0.00239327 0.887643)
(1.04409 0.0680154 -0.167621 0.0446845 1.04023 0.299853 -0.00838074 -0.00390786 0.887643)
(1.0247 0.0652777 -0.217144 0.0419465 1.05962 0.26619 -0.00757484 -0.00530397 0.887643)
(1.00742 0.0560732 -0.260068 0.0327423 1.0769 0.224439 -0.00653863 -0.0065387 0.887643)
(0.994325 0.0415124 -0.295091 0.0181818 1.08999 0.175869 -0.00530385 -0.00757472 0.887643)
(0.987001 0.0233521 -0.321147 2.12961e-05 1.09732 0.121955 -0.00390805 -0.00838073 0.887643)
(0.986331 0.00378188 -0.337446 -0.0195489 1.09799 0.0643362 -0.00239344 -0.00893234 0.887643)
(0.992394 -0.0148373 -0.343491 -0.0381682 1.09193 0.00476209 -0.000805885 -0.00921216 0.887643)
(1.00446 -0.0302598 -0.339099 -0.0535907 1.07986 -0.0549569 0.00080604 -0.0092121 0.887643)
(1.02107 -0.0406256 -0.324405 -0.0639565 1.06325 -0.113006 0.00239327 -0.00893194 0.887643)
(1.04023 -0.0446845 -0.299853 -0.0680154 1.04409 -0.167621 0.00390786 -0.00838074 0.887643)
(1.05962 -0.0419465 -0.26619 -0.0652777 1.0247 -0.217144 0.00530397 -0.00757484 0.887643)
(1.0769 -0.0327423 -0.224439 -0.0560732 1.00742 -0.260068 0.0065387 -0.00653863 0.887643)
(1.08999 -0.0181818 -0.175869 -0.0415124 0.994325 -0.295091 0.00757472 -0.00530385 0.887643)
(1.09732 -2.12961e-05 -0.121955 -0.0233521 0.987001 -0.321147 0.00838073 -0.00390805 0.887643)
(1.09799 0.0195489 -0.0643362 -0.00378188 0.986331 -0.337446 0.00893234 -0.00239344 0.887643)
(1.09193 0.0381682 -0.0047621 0.0148373 0.992394 -0.343491 0.00921216 -0.000805885 0.887643)
(1.07986 0.0535907 0.0549569 0.0302598 1.00446 -0.339099 0.0092121 0.00080604 0.887643)
(1.06325 0.0639565 0.113006 0.0406256 1.02107 -0.324405 0.00893194 0.00239327 0.887643)
(1.04409 0.0680154 0.167621 0.0446845 1.04023 -0.299853 0.00838074 0.00390786 0.887643)
(1.0247 0.0652777 0.217144 0.0419465 1.05962 -0.26619 0.00757484 0.00530397 0.887643)
(1.00742 0.0560732 0.260068 0.0327423 1.0769 -0.224439 0.00653863 0.0065387 0.887643)
(0.994325 0.0415124 0.295091 0.0181818 1.08999 -0.175869 0.00530385 0.00757472 0.887643)
(0.987001 0.0233521 0.321147 2.12961e-05 1.09732 -0.121955 0.00390805 0.00838073 0.887643)
(0.986331 0.00378188 0.337446 -0.0195489 1.09799 -0.0643362 0.00239344 0.00893234 0.887643)
(0.992394 -0.0148373 0.343491 -0.0381682 1.09193 -0.0047621 0.000805885 0.00921216 0.887643)
(1.00446 -0.0302598 0.339099 -0.0535907 1.07986 0.0549569 -0.00080604 0.0092121 0.887643)
(1.02107 -0.0406256 0.324405 -0.0639565 1.06325 0.113006 -0.00239327 0.00893194 0.887643)
(1.04023 -0.0446845 0.299853 -0.0680154 1.04409 0.167621 -0.00390786 0.00838074 0.887643)
(1.05962 -0.0419465 0.26619 -0.0652777 1.0247 0.217144 -0.00530397 0.00757484 0.887643)
(1.0769 -0.0327423 0.224439 -0.0560732 1.00742 0.260068 -0.0065387 0.00653863 0.887643)
(1.08999 -0.0181818 0.175869 -0.0415124 0.994325 0.295091 -0.00757472 0.00530385 0.887643)
(1.09732 -2.12961e-05 0.121955 -0.0233521 0.987001 0.321147 -0.00838073 0.00390805 0.887643)
(1.09799 0.0195489 0.0643362 -0.00378188 0.986331 0.337446 -0.00893234 0.00239344 0.887643)
(1.09193 0.0381682 0.0047621 0.0148373 0.992394 0.343491 -0.00921216 0.000805885 0.887643)
(1.08091 0.095657 -0.083695 0.0768151 1.04342 0.294127 -0.0601368 -0.00526106 0.90275)
(1.05028 0.0968675 -0.133498 0.0780253 1.07404 0.275125 -0.0583094 -0.0156237 0.902749)
(1.02109 0.0875305 -0.179245 0.0686884 1.10324 0.247763 -0.0547105 -0.0255117 0.902749)
(0.996853 0.0687724 -0.219545 0.0499304 1.12747 0.212874 -0.0494493 -0.0346246 0.902749)
(0.980492 0.0428554 -0.253175 0.0240136 1.14383 0.171516 -0.0426852 -0.0426853 0.902749)
(0.973982 0.0129057 -0.279112 -0.00593591 1.15034 0.124947 -0.0346243 -0.0494496 0.902749)
(0.978108 -0.0174643 -0.296569 -0.0363057 1.14622 0.0745813 -0.0255118 -0.0547114 0.902749)
(0.992372 -0.0445912 -0.305014 -0.0634326 1.13195 0.0219496 -0.0156242 -0.0583101 0.902749)
(1.01505 -0.0652036 -0.304192 -0.0840451 1.10927 -0.031349 -0.00526152 -0.060137 0.90275)
(1.04342 -0.0768151 -0.294127 -0.095657 1.08091 -0.083695 0.00526106 -0.0601368 0.90275)
(1.07404 -0.0780253 -0.275125 -0.0968675 1.05028 -0.133498 0.0156237 -0.0583094 0.902749)
(1.10324 -0.0686884 -0.247763 -0.0875305 1.02109 -0.179245 0.0255117 -0.0547105 0.902749)
(1.12747 -0.0499304 -0.212874 -0.0687724 0.996853 -0.219545 0.0346246 -0.0494493 0.902749)
(1.14383 -0.0240136 -0.171516 -0.0428554 0.980492 -0.253175 0.0426853 -0.0426852 0.902749)
(1.15034 0.00593591 -0.124947 -0.0129057 0.973982 -0.279112 0.0494496 -0.0346243 0.902749)
(1.14622 0.0363057 -0.0745813 0.0174643 0.978108 -0.296569 0.0547114 -0.0255118 0.902749)
(1.13195 0.0634326 -0.0219496 0.0445912 0.992372 -0.305014 0.0583101 -0.0156242 0.902749)
(1.10927 0.0840451 0.031349 0.0652036 1.01505 -0.304192 0.060137 -0.00526152 0.90275)
(1.08091 0.095657 0.083695 0.0768151 1.04342 -0.294127 0.0601368 0.00526106 0.90275)
(1.05028 0.0968675 0.133498 0.0780253 1.07404 -0.275125 0.0583094 0.0156237 0.902749)
(1.02109 0.0875305 0.179245 0.0686884 1.10324 -0.247763 0.0547105 0.0255117 0.902749)
(0.996853 0.0687724 0.219545 0.0499304 1.12747 -0.212874 0.0494493 0.0346246 0.902749)
(0.980492 0.0428554 0.253175 0.0240136 1.14383 -0.171516 0.0426852 0.0426853 0.902749)
(0.973982 0.0129057 0.279112 -0.00593591 1.15034 -0.124947 0.0346243 0.0494496 0.902749)
(0.978108 -0.0174643 0.296569 -0.0363057 1.14622 -0.0745813 0.0255118 0.0547114 0.902749)
(0.992372 -0.0445912 0.305014 -0.0634326 1.13195 -0.0219496 0.0156242 0.0583101 0.902749)
(1.01505 -0.0652036 0.304192 -0.0840451 1.10927 0.031349 0.00526152 0.060137 0.90275)
(1.04342 -0.0768151 0.294127 -0.095657 1.08091 0.083695 -0.00526106 0.0601368 0.90275)
(1.07404 -0.0780253 0.275125 -0.0968675 1.05028 0.133498 -0.0156237 0.0583094 0.902749)
(1.10324 -0.0686884 0.247763 -0.0875305 1.02109 0.179245 -0.0255117 0.0547105 0.902749)
(1.12747 -0.0499304 0.212874 -0.0687724 0.996853 0.219545 -0.0346246 0.0494493 0.902749)
(1.14383 -0.0240136 0.171516 -0.0428554 0.980492 0.253175 -0.0426853 0.0426852 0.902749)
(1.15034 0.00593591 0.124947 -0.0129057 0.973982 0.279112 -0.0494496 0.0346243 0.902749)
(1.14622 0.0363057 0.0745813 0.0174643 0.978108 0.296569 -0.0547114 0.0255118 0.902749)
(1.13195 0.0634326 0.0219496 0.0445912 0.992372 0.305014 -0.0583101 0.0156242 0.902749)
(1.10927 0.0840451 -0.031349 0.0652036 1.01505 0.304192 -0.060137 0.00526152 0.90275)
(1.09576 0.117092 -0.0655962 0.0763282 1.03708 0.314019 -0.0536726 -0.00469564 0.886009)
(1.06091 0.121294 -0.119128 0.0805303 1.07193 0.297857 -0.0520416 -0.0139443 0.886009)
(1.02673 0.113325 -0.169041 0.072561 1.10611 0.272646 -0.0488295 -0.0227693 0.886009)
(0.997334 0.0941451 -0.213817 0.0533815 1.1355 0.23915 -0.0441338 -0.0309027 0.886009)
(0.976272 0.0660685 -0.252097 0.0253049 1.15656 0.198388 -0.0380968 -0.0380969 0.886009)
(0.966083 0.0324813 -0.282717 -0.00828215 1.16675 0.151597 -0.0309026 -0.044134 0.886009)
(0.967995 -0.00256535 -0.304746 -0.0433282 1.16484 0.100201 -0.0227696 -0.0488302 0.886009)
(0.981779 -0.034844 -0.317516 -0.075607 1.15106 0.0457604 -0.0139446 -0.0520423 0.886009)
(1.00577 -0.0604615 -0.320639 -0.101225 1.12706 -0.0100709 -0.00469581 -0.0536728 0.886009)
(1.03708 -0.0763282 -0.314019 -0.117092 1.09576 -0.0655962 0.00469564 -0.0536726 0.886009)
(1.07193 -0.0805303 -0.297857 -0.121294 1.06091 -0.119128 0.0139443 -0.0520416 0.886009)
(1.10611 -0.072561 -0.272646 -0.113325 1.02673 -0.169041 0.0227693 -0.0488295 0.886009)
(1.1355 -0.0533815 -0.23915 -0.0941451 0.997334 -0.213817 0.0309027 -0.0441338 0.886009)
(1.15656 -0.0253049 -0.198388 -0.0660685 0.976272 -0.252097 0.0380969 -0.0380968 0.886009)
(1.16675 0.00828215 -0.151597 -0.0324813 0.966083 -0.282717 0.044134 -0.0309026 0.886009)
(1.16484 0.0433282 -0.100201 0.00256535 0.967995 -0.304746 0.0488302 -0.0227696 0.886009)
(1.15106 0.075607 -0.0457604 0.034844 0.981779 -0.317516 0.0520423 -0.0139446 0.886009)
(1.12706 0.101225 0.0100709 0.0604615 1.00577 -0.320639 0.0536728 -0.00469581 0.886009)
(1.09576 0.117092 0.0655962 0.0763282 1.03708 -0.314019 0.0536726 0.00469564 0.886009)
(1.06091 0.121294 0.119128 0.0805303 1.07193 -0.297857 0.0520416 0.0139443 0.886009)
(1.02673 0.113325 0.169041 0.072561 1.10611 -0.272646 0.0488295 0.0227693 0.886009)
(0.997334 0.0941451 0.213817 0.0533815 1.1355 -0.23915 0.0441338 0.0309027 0.886009)
(0.976272 0.0660685 0.252097 0.0253049 1.15656 -0.198388 0.0380968 0.0380969 0.886009)
(0.966083 0.0324813 0.282717 -0.00828215 1.16675 -0.151597 0.0309026 0.044134 0.886009)
(0.967995 -0.00256535 0.304746 -0.0433282 1.16484 -0.100201 0.0227696 0.0488302 0.886009)
(0.981779 -0.034844 0.317516 -0.075607 1.15106 -0.0457604 0.0139446 0.0520423 0.886009)
(1.00577 -0.0604615 0.320639 -0.101225 1.12706 0.0100709 0.00469581 0.0536728 0.886009)
(1.03708 -0.0763282 0.314019 -0.117092 1.09576 0.0655962 -0.00469564 0.0536726 0.886009)
(1.07193 -0.0805303 0.297857 -0.121294 1.06091 0.119128 -0.0139443 0.0520416 0.886009)
(1.10611 -0.072561 0.272646 -0.113325 1.02673 0.169041 -0.0227693 0.0488295 0.886009)
(1.1355 -0.0533815 0.23915 -0.0941451 0.997334 0.213817 -0.0309027 0.0441338 0.886009)
(1.15656 -0.0253049 0.198388 -0.0660685 0.976272 0.252097 -0.0380969 0.0380968 0.886009)
(1.16675 0.00828215 0.151597 -0.0324813 0.966083 0.282717 -0.044134 0.0309026 0.886009)
(1.16484 0.0433282 0.100201 0.00256535 0.967995 0.304746 -0.0488302 0.0227696 0.886009)
(1.15106 0.075607 0.0457604 0.034844 0.981779 0.317516 -0.0520423 0.0139446 0.886009)
(1.12706 0.101225 -0.0100709 0.0604615 1.00577 0.320639 -0.0536728 0.00469581 0.886009)
(1.1109 0.143212 -0.0467294 0.0742151 1.02426 0.332489 -0.0466467 -0.00408108 0.870391)
(1.0711 0.151471 -0.103756 0.0824743 1.06406 0.319323 -0.045229 -0.012119 0.870391)
(1.03088 0.145622 -0.157629 0.0766249 1.10428 0.296455 -0.0424374 -0.0197886 0.870391)
(0.99509 0.126369 -0.206714 0.0573724 1.14007 0.264579 -0.0383563 -0.0268573 0.870391)
(0.96804 0.0960358 -0.249517 0.0270389 1.16712 0.224664 -0.0331098 -0.0331098 0.870391)
(0.952996 0.0582797 -0.284739 -0.0107169 1.18216 0.177923 -0.0268574 -0.0383564 0.870391)
(0.951772 0.0176553 -0.311309 -0.0513411 1.18339 0.125775 -0.019789 -0.0424379 0.870391)
(0.964517 -0.0209375 -0.32842 -0.0899338 1.17064 0.0698065 -0.0121191 -0.0452297 0.870391)
(0.989693 -0.0528436 -0.335552 -0.12184 1.14547 0.0117166 -0.00408099 -0.0466467 0.870391)
(1.02426 -0.0742151 -0.332489 -0.143212 1.1109 -0.0467294 0.00408108 -0.0466467 0.870391)
(1.06406 -0.0824743 -0.319323 -0.151471 1.0711 -0.103756 0.012119 -0.045229 0.870391)
(1.10428 -0.0766249 -0.296455 -0.145622 1.03088 -0.157629 0.0197886 -0.0424374 0.870391)
(1.14007 -0.0573724 -0.264579 -0.126369 0.99509 -0.206714 0.0268573 -0.0383563 0.870391)
(1.16712 -0.0270389 -0.224664 -0.0960358 0.96804 -0.249517 0.0331098 -0.0331098 0.870391)
(1.18216 0.0107169 -0.177923 -0.0582797 0.952996 -0.284739 0.0383564 -0.0268574 0.870391)
(1.18339 0.0513411 -0.125775 -0.0176553 0.951772 -0.311309 0.0424379 -0.019789 0.870391)
(1.17064 0.0899338 -0.0698065 0.0209375 0.964517 -0.32842 0.0452297 -0.0121191 0.870391)
(1.14547 0.12184 -0.0117166 0.0528436 0.989693 -0.335552 0.0466467 -0.00408099 0.870391)
(1.1109 0.143212 0.0467294 0.0742151 1.02426 -0.332489 0.0466467 0.00408108 0.870391)
(1.0711 0.151471 0.103756 0.0824743 1.06406 -0.319323 0.045229 0.012119 0.870391)
(1.03088 0.145622 0.157629 0.0766249 1.10428 -0.296455 0.0424374 0.0197886 0.870391)
(0.99509 0.126369 0.206714 0.0573724 1.14007 -0.264579 0.0383563 0.0268573 0.870391)
(0.96804 0.0960358 0.249517 0.0270389 1.16712 -0.224664 0.0331098 0.0331098 0.870391)
(0.952996 0.0582797 0.284739 -0.0107169 1.18216 -0.177923 0.0268574 0.0383564 0.870391)
(0.951772 0.0176553 0.311309 -0.0513411 1.18339 -0.125775 0.019789 0.0424379 0.870391)
(0.964517 -0.0209375 0.32842 -0.0899338 1.17064 -0.0698065 0.0121191 0.0452297 0.870391)
(0.989693 -0.0528436 0.335552 -0.12184 1.14547 -0.0117166 0.00408099 0.0466467 0.870391)
(1.02426 -0.0742151 0.332489 -0.143212 1.1109 0.0467294 -0.00408108 0.0466467 0.870391)
(1.06406 -0.0824743 0.319323 -0.151471 1.0711 0.103756 -0.012119 0.045229 0.870391)
(1.10428 -0.0766249 0.296455 -0.145622 1.03088 0.157629 -0.0197886 0.0424374 0.870391)
(1.14007 -0.0573724 0.264579 -0.126369 0.99509 0.206714 -0.0268573 0.0383563 0.870391)
(1.16712 -0.0270389 0.224664 -0.0960358 0.96804 0.249517 -0.0331098 0.0331098 0.870391)
(1.18216 0.0107169 0.177923 -0.0582797 0.952996 0.284739 -0.0383564 0.0268574 0.870391)
(1.18339 0.0513411 0.125775 -0.0176553 0.951772 0.311309 -0.0424379 0.019789 0.870391)
(1.17064 0.0899338 0.0698065 0.0209375 0.964517 0.32842 -0.0452297 0.0121191 0.870391)
(1.14547 0.12184 0.0117166 0.0528436 0.989693 0.335552 -0.0466467 0.00408099 0.870391)
(1.10936 0.157777 -0.0605086 0.102516 1.06154 0.293413 -0.0842203 -0.00736788 0.869851)
(1.0634 0.158105 -0.11054 0.102843 1.1075 0.278448 -0.0816608 -0.0218805 0.869851)
(1.02011 0.142696 -0.157212 0.0874337 1.15079 0.255023 -0.0766204 -0.0357284 0.869851)
(0.984693 0.113408 -0.199108 0.0581459 1.18621 0.223848 -0.069252 -0.0484908 0.869851)
(0.961432 0.0737734 -0.234954 0.0185119 1.20947 0.185873 -0.0597794 -0.0597797 0.869851)
(0.95313 0.0285739 -0.263661 -0.0266874 1.21777 0.14225 -0.0484906 -0.0692526 0.869851)
(0.960787 -0.0167392 -0.284357 -0.0720006 1.21011 0.0943044 -0.0357287 -0.0766214 0.869851)
(0.983481 -0.0567005 -0.296413 -0.111962 1.18742 0.0434936 -0.0218811 -0.0816615 0.869851)
(1.01847 -0.0864903 -0.299463 -0.141752 1.15243 -0.00863874 -0.00736843 -0.0842205 0.869851)
(1.06154 -0.102516 -0.293413 -0.157777 1.10936 -0.0605086 0.00736788 -0.0842203 0.869851)
(1.1075 -0.102843 -0.278448 -0.158105 1.0634 -0.11054 0.0218805 -0.0816608 0.869851)
(1.15079 -0.0874337 -0.255023 -0.142696 1.02011 -0.157212 0.0357284 -0.0766204 0.869851)
(1.18621 -0.0581459 -0.223848 -0.113408 0.984693 -0.199108 0.0484908 -0.069252 0.869851)
(1.20947 -0.0185119 -0.185873 -0.0737734 0.961432 -0.234954 0.0597797 -0.0597794 0.869851)
(1.21777 0.0266874 -0.14225 -0.0285739 0.95313 -0.263661 0.0692526 -0.0484906 0.869851)
(1.21011 0.0720006 -0.0943044 0.0167392 0.960787 -0.284357 0.0766214 -0.0357287 0.869851)
(1.18742 0.111962 -0.0434936 0.0567005 0.983481 -0.296413 0.0816615 -0.0218811 0.869851)
(1.15243 0.141752 0.00863874 0.0864903 1.01847 -0.299463 0.0842205 -0.00736843 0.869851)
(1.10936 0.157777 0.0605086 0.102516 1.06154 -0.293413 0.0842203 0.00736788 0.869851)
(1.0634 0.158105 0.11054 0.102843 1.1075 -0.278448 0.0816608 0.0218805 0.869851)
(1.02011 0.142696 0.157212 0.0874337 1.15079 -0.255023 0.0766204 0.0357284 0.869851)
(0.984693 0.113408 0.199108 0.0581459 1.18621 -0.223848 0.069252 0.0484908 0.869851)
(0.961432 0.0737734 0.234954 0.0185119 1.20947 -0.185873 0.0597794 0.0597797 0.869851)
(0.95313 0.0285739 0.263661 -0.0266874 1.21777 -0.14225 0.0484906 0.0692526 0.869851)
(0.960787 -0.0167392 0.284357 -0.0720006 1.21011 -0.0943044 0.0357287 0.0766214 0.869851)
(0.983481 -0.0567005 0.296413 -0.111962 1.18742 -0.0434936 0.0218811 0.0816615 0.869851)
(1.01847 -0.0864903 0.299463 -0.141752 1.15243 0.00863874 0.00736843 0.0842205 0.869851)
(1.06154 -0.102516 0.293413 -0.157777 1.10936 0.0605086 -0.00736788 0.0842203 0.869851)
(1.1075 -0.102843 0.278448 -0.158105 1.0634 0.11054 -0.0218805 0.0816608 0.869851)
(1.15079 -0.0874337 0.255023 -0.142696 1.02011 0.157212 -0.0357284 0.0766204 0.869851)
(1.18621 -0.0581459 0.223848 -0.113408 0.984693 0.199108 -0.0484908 0.069252 0.869851)
(1.20947 -0.0185119 0.185873 -0.0737734 0.961432 0.234954 -0.0597797 0.0597794 0.869851)
(1.21777 0.0266874 0.14225 -0.0285739 0.95313 0.263661 -0.0692526 0.0484906 0.869851)
(1.21011 0.0720006 0.0943044 0.0167392 0.960787 0.284357 -0.0766214 0.0357287 0.869851)
(1.18742 0.111962 0.0434936 0.0567005 0.983481 0.296413 -0.0816615 0.0218811 0.869851)
(1.15243 0.141752 -0.00863874 0.0864903 1.01847 0.299463 -0.0842205 0.00736843 0.869851)
(1.12202 0.188546 -0.0465887 0.101188 1.05289 0.301209 -0.0780945 -0.00683219 0.860409)
(1.07039 0.19163 -0.0981853 0.104272 1.10453 0.288543 -0.0757213 -0.0202892 0.860409)
(1.02081 0.17687 -0.146799 0.0895112 1.1541 0.267109 -0.0710474 -0.0331298 0.860409)
(0.979279 0.146044 -0.190951 0.0586859 1.19563 0.23756 -0.064215 -0.0449638 0.860409)
(0.950792 0.102872 -0.229302 0.0155137 1.22412 0.200793 -0.0554315 -0.0554316 0.860409)
(0.938789 0.0525599 -0.260686 -0.0347981 1.23612 0.157924 -0.0449638 -0.0642155 0.860409)
(0.944717 0.00117697 -0.284149 -0.0861808 1.2302 0.110257 -0.0331301 -0.0710482 0.860409)
(0.967862 -0.0450794 -0.298978 -0.132437 1.20705 0.0592404 -0.0202895 -0.0757219 0.860409)
(1.00543 -0.0806302 -0.304723 -0.167988 1.16948 0.00642345 -0.00683245 -0.0780947 0.860409)
(1.05289 -0.101188 -0.301209 -0.188546 1.12202 -0.0465887 0.00683219 -0.0780945 0.860409)
(1.10453 -0.104272 -0.288543 -0.19163 1.07039 -0.0981853 0.0202892 -0.0757213 0.860409)
(1.1541 -0.0895112 -0.267109 -0.17687 1.02081 -0.146799 0.0331298 -0.0710474 0.860409)
(1.19563 -0.0586859 -0.23756 -0.146044 0.979279 -0.190951 0.0449638 -0.064215 0.860409)
(1.22412 -0.0155137 -0.200793 -0.102872 0.950792 -0.229302 0.0554316 -0.0554315 0.860409)
(1.23612 0.0347981 -0.157924 -0.0525599 0.938789 -0.260686 0.0642155 -0.0449638 0.860409)
(1.2302 0.0861808 -0.110257 -0.00117697 0.944717 -0.284149 0.0710482 -0.0331301 0.860409)
(1.20705 0.132437 -0.0592404 0.0450794 0.967862 -0.298978 0.0757219 -0.0202895 0.860409)
(1.16948 0.167988 -0.00642345 0.0806302 1.00543 -0.304723 0.0780947 -0.00683245 0.860409)
(1.12202 0.188546 0.0465887 0.101188 1.05289 -0.301209 0.0780945 0.00683219 0.860409)
(1.07039 0.19163 0.0981853 0.104272 1.10453 -0.288543 0.0757213 0.0202892 0.860409)
(1.02081 0.17687 0.146799 0.0895112 1.1541 -0.267109 0.0710474 0.0331298 0.860409)
(0.979279 0.146044 0.190951 0.0586859 1.19563 -0.23756 0.064215 0.0449638 0.860409)
(0.950792 0.102872 0.229302 0.0155137 1.22412 -0.200793 0.0554315 0.0554316 0.860409)
(0.938789 0.0525599 0.260686 -0.0347981 1.23612 -0.157924 0.0449638 0.0642155 0.860409)
(0.944717 0.00117697 0.284149 -0.0861808 1.2302 -0.110257 0.0331301 0.0710482 0.860409)
(0.967862 -0.0450794 0.298978 -0.132437 1.20705 -0.0592404 0.0202895 0.0757219 0.860409)
(1.00543 -0.0806302 0.304723 -0.167988 1.16948 -0.00642345 0.00683245 0.0780947 0.860409)
(1.05289 -0.101188 0.301209 -0.188546 1.12202 0.0465887 -0.00683219 0.0780945 0.860409)
(1.10453 -0.104272 0.288543 -0.19163 1.07039 0.0981853 -0.0202892 0.0757213 0.860409)
(1.1541 -0.0895112 0.267109 -0.17687 1.02081 0.146799 -0.0331298 0.0710474 0.860409)
(1.19563 -0.0586859 0.23756 -0.146044 0.979279 0.190951 -0.0449638 0.064215 0.860409)
(1.22412 -0.0155137 0.200793 -0.102872 0.950792 0.229302 -0.0554316 0.0554315 0.860409)
(1.23612 0.0347981 0.157924 -0.0525599 0.938789 0.260686 -0.0642155 0.0449638 0.860409)
(1.2302 0.0861808 0.110257 -0.00117697 0.944717 0.284149 -0.0710482 0.0331301 0.860409)
(1.20705 0.132437 0.0592404 0.0450794 0.967862 0.298978 -0.0757219 0.0202895 0.860409)
(1.16948 0.167988 0.00642345 0.0806302 1.00543 0.304723 -0.0780947 0.00683245 0.860409)
(1.13463 0.22583 -0.0341772 0.096976 1.03758 0.308078 -0.0708699 -0.00620029 0.850907)
(1.0765 0.232694 -0.0871552 0.10384 1.09571 0.297462 -0.0687163 -0.0184124 0.850907)
(1.01953 0.219262 -0.137485 0.090408 1.15268 0.277809 -0.0644748 -0.030065 0.850907)
(0.970588 0.187155 -0.183637 0.0583009 1.20162 0.249714 -0.0582745 -0.0408042 0.850907)
(0.935579 0.140245 -0.22421 0.0113909 1.23663 0.214032 -0.0503036 -0.0503036 0.850907)
(0.918726 0.0841901 -0.25797 -0.0446639 1.25348 0.171847 -0.0408044 -0.0582748 0.850907)
(0.922061 0.0257516 -0.283892 -0.103102 1.25015 0.12444 -0.0300654 -0.0644755 0.850907)
(0.945181 -0.028022 -0.301188 -0.156876 1.22703 0.0732527 -0.0184125 -0.0687168 0.850907)
(0.985299 -0.0706447 -0.309332 -0.199499 1.18691 0.0198392 -0.00620028 -0.0708701 0.850907)
(1.03758 -0.096976 -0.308078 -0.22583 1.13463 -0.0341772 0.00620029 -0.0708699 0.850907)
(1.09571 -0.10384 -0.297462 -0.232694 1.0765 -0.0871552 0.0184124 -0.0687163 0.850907)
(1.15268 -0.090408 -0.277809 -0.219262 1.01953 -0.137485 0.030065 -0.0644748 0.850907)
(1.20162 -0.0583009 -0.249714 -0.187155 0.970588 -0.183637 0.0408042 -0.0582745 0.850907)
(1.23663 -0.0113909 -0.214032 -0.140245 0.935579 -0.22421 0.0503036 -0.0503036 0.850907)
(1.25348 0.0446639 -0.171847 -0.0841901 0.918726 -0.25797 0.0582748 -0.0408044 0.850907)
(1.25015 0.103102 -0.12444 -0.0257516 0.922061 -0.283892 0.0644755 -0.0300654 0.850907)
(1.22703 0.156876 -0.0732527 0.028022 0.945181 -0.301188 0.0687168 -0.0184125 0.850907)
(1.18691 0.199499 -0.0198392 0.0706447 0.985299 -0.309332 0.0708701 -0.00620028 0.850907)
(1.13463 0.22583 0.0341772 0.096976 1.03758 -0.308078 0.0708699 0.00620029 0.850907)
(1.0765 0.232694 0.0871552 0.10384 1.09571 -0.297462 0.0687163 0.0184124 0.850907)
(1.01953 0.219262 0.137485 0.090408 1.15268 -0.277809 0.0644748 0.030065 0.850907)
(0.970588 0.187155 0.183637 0.0583009 1.20162 -0.249714 0.0582745 0.0408042 0.850907)
(0.935579 0.140245 0.22421 0.0113909 1.23663 -0.214032 0.0503036 0.0503036 0.850907)
(0.918726 0.0841901 0.25797 -0.0446639 1.25348 -0.171847 0.0408044 0.0582748 0.850907)
(0.922061 0.0257516 0.283892 -0.103102 1.25015 -0.12444 0.0300654 0.0644755 0.850907)
(0.945181 -0.028022 0.301188 -0.156876 1.22703 -0.0732527 0.0184125 0.0687168 0.850907)
(0.985299 -0.0706447 0.309332 -0.199499 1.18691 -0.0198392 0.00620028 0.0708701 0.850907)
(1.03758 -0.096976 0.308078 -0.22583 1.13463 0.0341772 -0.00620029 0.0708699 0.850907)
(1.09571 -0.10384 0.297462 -0.232694 1.0765 0.0871552 -0.0184124 0.0687163 0.850907)
(1.15268 -0.090408 0.277809 -0.219262 1.01953 0.137485 -0.030065 0.0644748 0.850907)
(1.20162 -0.0583009 0.249714 -0.187155 0.970588 0.183637 -0.0408042 0.0582745 0.850907)
(1.23663 -0.0113909 0.214032 -0.140245 0.935579 0.22421 -0.0503036 0.0503036 0.850907)
(1.25348 0.0446639 0.171847 -0.0841901 0.918726 0.25797 -0.0582748 0.0408044 0.850907)
(1.25015 0.103102 0.12444 -0.0257516 0.922061 0.283892 -0.0644755 0.0300654 0.850907)
(1.22703 0.156876 0.0732527 0.028022 0.945181 0.301188 -0.0687168 0.0184125 0.850907)
(1.18691 0.199499 0.0198392 0.0706447 0.985299 0.309332 -0.0708701 0.00620028 0.850907)
(1.12493 0.220031 -0.03317 0.102387 1.07073 0.282572 -0.0961563 -0.00841227 0.853929)
(1.06816 0.219578 -0.0817342 0.101933 1.1275 0.27252 -0.0932342 -0.0249818 0.853929)
(1.01496 0.199735 -0.127815 0.0820905 1.18069 0.254186 -0.0874796 -0.0407925 0.85393)
(0.971767 0.162896 -0.170012 0.0452517 1.22389 0.22813 -0.079067 -0.0553635 0.85393)
(0.943774 0.113504 -0.207044 -0.00414023 1.25188 0.195142 -0.0682522 -0.0682526 0.85393)