/*--------------------------------*- C++ -*----------------------------------*\
| =========                 |                                                 |
| \\      /  F ield         | OpenFOAM: The Open Source CFD Toolbox           |
|  \\    /   O peration     | Version:  2312                                  |
|   \\  /    A nd           | Website:  www.openfoam.com                      |
|    \\/     M anipulation  |                                                 |
\*---------------------------------------------------------------------------*/
FoamFile
{
    version     2.0;
    format      ascii;
    arch        "LSB;label=32;scalar=64";
    class       pointVectorField;
    location    "0.6";
    object      pointD;
}
// * * * * * * * * * * * * * * * * * * * * * * * * * * * * * * * * * * * * * //

dimensions      [0 1 0 0 0 0 0];

internalField   nonuniform List<vector> 
2164
(
(0 0 0)
(0 0 0)
(0 0 0)
(0 0 0)
(0 0 0)
(0 0 0)
(0 0 0)
(0 0 0)
(0 0 0)
(0 0 0)
(0 0 0)
(0 0 0)
(0 0 0)
(0 0 0)
(0 0 0)
(0 0 0)
(0 0 0)
(0 0 0)
(0 0 0)
(0 0 0)
(0 0 0)
(0 0 0)
(0 0 0)
(0 0 0)
(0 0 0)
(0 0 0)
(0 0 0)
(0 0 0)
(0 0 0)
(0 0 0)
(0 0 0)
(0 0 0)
(0 0 0)
(0 0 0)
(0 0 0)
(0 0 0)
(0.0003344 -0.000495744 8.60823e-05)
(0.000415404 -0.000430145 8.6083e-05)
(0.000483787 -0.000351475 8.60831e-05)
(0.000537471 -0.000262126 8.60831e-05)
(0.000574823 -0.000164813 8.60831e-05)
(0.000594709 -6.24933e-05 8.60824e-05)
(0.000596526 4.17264e-05 8.60816e-05)
(0.000580218 0.000144678 8.60815e-05)
(0.00054628 0.000243234 8.60821e-05)
(0.000495744 0.0003344 8.60823e-05)
(0.000430145 0.000415404 8.6083e-05)
(0.000351475 0.000483787 8.60831e-05)
(0.000262126 0.000537471 8.60831e-05)
(0.000164813 0.000574823 8.60831e-05)
(6.24933e-05 0.000594709 8.60824e-05)
(-4.17264e-05 0.000596526 8.60816e-05)
(-0.000144678 0.000580218 8.60815e-05)
(-0.000243234 0.00054628 8.60821e-05)
(-0.0003344 0.000495744 8.60823e-05)
(-0.000415404 0.000430145 8.6083e-05)
(-0.000483787 0.000351475 8.60831e-05)
(-0.000537471 0.000262126 8.60831e-05)
(-0.000574823 0.000164813 8.60831e-05)
(-0.000594709 6.24933e-05 8.60824e-05)
(-0.000596526 -4.17264e-05 8.60816e-05)
(-0.000580218 -0.000144678 8.60815e-05)
(-0.00054628 -0.000243234 8.60821e-05)
(-0.000495744 -0.0003344 8.60823e-05)
(-0.000430145 -0.000415404 8.6083e-05)
(-0.000351475 -0.000483787 8.60831e-05)
(-0.000262126 -0.000537471 8.60831e-05)
(-0.000164813 -0.000574823 8.60831e-05)
(-6.24933e-05 -0.000594709 8.60824e-05)
(4.17264e-05 -0.000596526 8.60816e-05)
(0.000144678 -0.000580218 8.60815e-05)
(0.000243234 -0.00054628 8.60821e-05)
(0.000271775 -0.000560739 0.000128521)
(0.000365018 -0.000505026 0.000128521)
(0.000447169 -0.000433969 0.000128521)
(0.000515734 -0.000349726 0.000128521)
(0.000568628 -0.000254856 0.000128521)
(0.000604245 -0.000152242 0.000128521)
(0.000621501 -4.50044e-05 0.00012852)
(0.000619875 6.36016e-05 0.00012852)
(0.000599413 0.000170275 0.00012852)
(0.000560739 0.000271775 0.000128521)
(0.000505026 0.000365018 0.000128521)
(0.000433969 0.000447169 0.000128521)
(0.000349726 0.000515734 0.000128521)
(0.000254856 0.000568628 0.000128521)
(0.000152242 0.000604245 0.000128521)
(4.50044e-05 0.000621501 0.00012852)
(-6.36016e-05 0.000619875 0.00012852)
(-0.000170275 0.000599413 0.00012852)
(-0.000271775 0.000560739 0.000128521)
(-0.000365018 0.000505026 0.000128521)
(-0.000447169 0.000433969 0.000128521)
(-0.000515734 0.000349726 0.000128521)
(-0.000568628 0.000254856 0.000128521)
(-0.000604245 0.000152242 0.000128521)
(-0.000621501 4.50044e-05 0.00012852)
(-0.000619875 -6.36016e-05 0.00012852)
(-0.000599413 -0.000170275 0.00012852)
(-0.000560739 -0.000271775 0.000128521)
(-0.000505026 -0.000365018 0.000128521)
(-0.000433969 -0.000447169 0.000128521)
(-0.000349726 -0.000515734 0.000128521)
(-0.000254856 -0.000568628 0.000128521)
(-0.000152242 -0.000604245 0.000128521)
(-4.50044e-05 -0.000621501 0.00012852)
(6.36016e-05 -0.000619875 0.00012852)
(0.000170275 -0.000599413 0.00012852)
(0 0 0)
(0 0 0)
(0 0 0)
(0 0 0)
(0 0 0)
(0 0 0)
(0 0 0)
(0 0 0)
(0 0 0)
(0 0 0)
(0 0 0)
(0 0 0)
(0 0 0)
(0 0 0)
(0 0 0)
(0 0 0)
(0 0 0)
(0 0 0)
(0 0 0)
(0 0 0)
(0 0 0)
(0 0 0)
(0 0 0)
(0 0 0)
(0 0 0)
(0 0 0)
(0 0 0)
(0 0 0)
(0 0 0)
(0 0 0)
(0 0 0)
(0 0 0)
(0 0 0)
(0 0 0)
(0 0 0)
(0 0 0)
(0.00018878 -0.000628061 0.000164437)
(0.000294975 -0.000585737 0.000164437)
(0.000392205 -0.000525617 0.000164437)
(0.000477519 -0.000449526 0.000164437)
(0.000548324 -0.000359776 0.000164437)
(0.000602468 -0.000259095 0.000164437)
(0.000638307 -0.000150541 0.000164437)
(0.000654751 -3.74139e-05 0.000164437)
(0.000651301 7.68513e-05 0.000164437)
(0.000628061 0.00018878 0.000164437)
(0.000585737 0.000294975 0.000164437)
(0.000525617 0.000392205 0.000164437)
(0.000449526 0.000477519 0.000164437)
(0.000359776 0.000548324 0.000164437)
(0.000259095 0.000602468 0.000164437)
(0.000150541 0.000638307 0.000164437)
(3.74139e-05 0.000654751 0.000164437)
(-7.68513e-05 0.000651301 0.000164437)
(-0.00018878 0.000628061 0.000164437)
(-0.000294975 0.000585737 0.000164437)
(-0.000392205 0.000525617 0.000164437)
(-0.000477519 0.000449526 0.000164437)
(-0.000548324 0.000359776 0.000164437)
(-0.000602468 0.000259095 0.000164437)
(-0.000638307 0.000150541 0.000164437)
(-0.000654751 3.74139e-05 0.000164437)
(-0.000651301 -7.68513e-05 0.000164437)
(-0.000628061 -0.00018878 0.000164437)
(-0.000585737 -0.000294975 0.000164437)
(-0.000525617 -0.000392205 0.000164437)
(-0.000449526 -0.000477519 0.000164437)
(-0.000359776 -0.000548324 0.000164437)
(-0.000259095 -0.000602468 0.000164437)
(-0.000150541 -0.000638307 0.000164437)
(-3.74139e-05 -0.000654751 0.000164437)
(7.68513e-05 -0.000651301 0.000164437)
(0 0 0)
(0 0 0)
(0 0 0)
(0 0 0)
(0 0 0)
(0 0 0)
(0 0 0)
(0 0 0)
(0 0 0)
(0 0 0)
(0 0 0)
(0 0 0)
(0 0 0)
(0 0 0)
(0 0 0)
(0 0 0)
(0 0 0)
(0 0 0)
(0 0 0)
(0 0 0)
(0 0 0)
(0 0 0)
(0 0 0)
(0 0 0)
(0 0 0)
(0 0 0)
(0 0 0)
(0 0 0)
(0 0 0)
(0 0 0)
(0 0 0)
(0 0 0)
(0 0 0)
(0 0 0)
(0 0 0)
(0 0 0)
(8.60286e-05 -0.00069114 0.000191768)
(0.000204737 -0.000665701 0.000191768)
(0.000317224 -0.000620036 0.000191768)
(0.000420074 -0.00055553 0.000191768)
(0.000510158 -0.000474146 0.000191768)
(0.000584743 -0.000378354 0.000191768)
(0.00064156 -0.000271066 0.000191768)
(0.000678883 -0.000155543 0.000191768)
(0.000695579 -3.52928e-05 0.000191768)
(0.00069114 8.60286e-05 0.000191768)
(0.000665701 0.000204737 0.000191768)
(0.000620036 0.000317224 0.000191768)
(0.00055553 0.000420074 0.000191768)
(0.000474146 0.000510158 0.000191768)
(0.000378354 0.000584743 0.000191768)
(0.000271066 0.00064156 0.000191768)
(0.000155543 0.000678883 0.000191768)
(3.52928e-05 0.000695579 0.000191768)
(-8.60286e-05 0.00069114 0.000191768)
(-0.000204737 0.000665701 0.000191768)
(-0.000317224 0.000620036 0.000191768)
(-0.000420074 0.00055553 0.000191768)
(-0.000510158 0.000474146 0.000191768)
(-0.000584743 0.000378354 0.000191768)
(-0.00064156 0.000271066 0.000191768)
(-0.000678883 0.000155543 0.000191768)
(-0.000695579 3.52928e-05 0.000191768)
(-0.00069114 -8.60286e-05 0.000191768)
(-0.000665701 -0.000204737 0.000191768)
(-0.000620036 -0.000317224 0.000191768)
(-0.00055553 -0.000420074 0.000191768)
(-0.000474146 -0.000510158 0.000191768)
(-0.000378354 -0.000584743 0.000191768)
(-0.000271066 -0.00064156 0.000191768)
(-0.000155543 -0.000678883 0.000191768)
(-3.52928e-05 -0.000695579 0.000191768)
(0 0 0)
(0 0 0)
(0 0 0)
(0 0 0)
(0 0 0)
(0 0 0)
(0 0 0)
(0 0 0)
(0 0 0)
(0 0 0)
(0 0 0)
(0 0 0)
(0 0 0)
(0 0 0)
(0 0 0)
(0 0 0)
(0 0 0)
(0 0 0)
(0 0 0)
(0 0 0)
(0 0 0)
(0 0 0)
(0 0 0)
(0 0 0)
(0 0 0)
(0 0 0)
(0 0 0)
(0 0 0)
(0 0 0)
(0 0 0)
(0 0 0)
(0 0 0)
(0 0 0)
(0 0 0)
(0 0 0)
(0 0 0)
(0.000578238 -0.00102504 0.000247105)
(0.000747449 -0.000909055 0.000247106)
(0.00089395 -0.000765451 0.000247107)
(0.00101329 -0.00059859 0.000247107)
(0.00110184 -0.00041354 0.000247107)
(0.00115691 -0.000215927 0.000247105)
(0.00117683 -1.17502e-05 0.000247104)
(0.00116099 0.000192782 0.000247104)
(0.00110988 0.000391456 0.000247105)
(0.00102504 0.000578238 0.000247105)
(0.000909055 0.000747449 0.000247106)
(0.000765451 0.00089395 0.000247107)
(0.00059859 0.00101329 0.000247107)
(0.00041354 0.00110184 0.000247107)
(0.000215927 0.00115691 0.000247105)
(1.17502e-05 0.00117683 0.000247104)
(-0.000192782 0.00116099 0.000247104)
(-0.000391456 0.00110988 0.000247105)
(-0.000578238 0.00102504 0.000247105)
(-0.000747449 0.000909055 0.000247106)
(-0.00089395 0.000765451 0.000247107)
(-0.00101329 0.00059859 0.000247107)
(-0.00110184 0.00041354 0.000247107)
(-0.00115691 0.000215927 0.000247105)
(-0.00117683 1.17502e-05 0.000247104)
(-0.00116099 -0.000192782 0.000247104)
(-0.00110988 -0.000391456 0.000247105)
(-0.00102504 -0.000578238 0.000247105)
(-0.000909055 -0.000747449 0.000247106)
(-0.000765451 -0.00089395 0.000247107)
(-0.00059859 -0.00101329 0.000247107)
(-0.00041354 -0.00110184 0.000247107)
(-0.000215927 -0.00115691 0.000247105)
(-1.17502e-05 -0.00117683 0.000247104)
(0.000192782 -0.00116099 0.000247104)
(0.000391456 -0.00110988 0.000247105)
(0.000483174 -0.0011297 0.000322411)
(0.000672004 -0.00102864 0.000322412)
(0.000840416 -0.000896314 0.000322412)
(0.000983292 -0.000736761 0.000322412)
(0.00109629 -0.000554822 0.000322412)
(0.00117598 -0.000356023 0.000322411)
(0.00121994 -0.000146409 0.000322411)
(0.00122683 6.76557e-05 0.000322411)
(0.00119644 0.000279663 0.000322411)
(0.0011297 0.000483174 0.000322411)
(0.00102864 0.000672004 0.000322412)
(0.000896314 0.000840416 0.000322412)
(0.000736761 0.000983292 0.000322412)
(0.000554822 0.00109629 0.000322412)
(0.000356023 0.00117598 0.000322411)
(0.000146409 0.00121994 0.000322411)
(-6.76557e-05 0.00122683 0.000322411)
(-0.000279663 0.00119644 0.000322411)
(-0.000483174 0.0011297 0.000322411)
(-0.000672004 0.00102864 0.000322412)
(-0.000840416 0.000896314 0.000322412)
(-0.000983292 0.000736761 0.000322412)
(-0.00109629 0.000554822 0.000322412)
(-0.00117598 0.000356023 0.000322411)
(-0.00121994 0.000146409 0.000322411)
(-0.00122683 -6.76557e-05 0.000322411)
(-0.00119644 -0.000279663 0.000322411)
(-0.0011297 -0.000483174 0.000322411)
(-0.00102864 -0.000672004 0.000322412)
(-0.000896314 -0.000840416 0.000322412)
(-0.000736761 -0.000983292 0.000322412)
(-0.000554822 -0.00109629 0.000322412)
(-0.000356023 -0.00117598 0.000322411)
(-0.000146409 -0.00121994 0.000322411)
(6.76557e-05 -0.00122683 0.000322411)
(0.000279663 -0.00119644 0.000322411)
(0.000366309 -0.00123662 0.000390296)
(0.00057548 -0.00115422 0.000390296)
(0.000767166 -0.00103676 0.000390296)
(0.000935543 -0.000887791 0.000390296)
(0.00107549 -0.000711847 0.000390296)
(0.00118277 -0.000514274 0.000390296)
(0.0012541 -0.000301076 0.000390296)
(0.00128733 -7.87319e-05 0.000390295)
(0.00128144 0.000146007 0.000390295)
(0.00123662 0.000366309 0.000390296)
(0.00115422 0.00057548 0.000390296)
(0.00103676 0.000767166 0.000390296)
(0.000887791 0.000935543 0.000390296)
(0.000711847 0.00107549 0.000390296)
(0.000514274 0.00118277 0.000390296)
(0.000301076 0.0012541 0.000390296)
(7.87319e-05 0.00128733 0.000390295)
(-0.000146007 0.00128144 0.000390295)
(-0.000366309 0.00123662 0.000390296)
(-0.00057548 0.00115422 0.000390296)
(-0.000767166 0.00103676 0.000390296)
(-0.000935543 0.000887791 0.000390296)
(-0.00107549 0.000711847 0.000390296)
(-0.00118277 0.000514274 0.000390296)
(-0.0012541 0.000301076 0.000390296)
(-0.00128733 7.87319e-05 0.000390295)
(-0.00128144 -0.000146007 0.000390295)
(-0.00123662 -0.000366309 0.000390296)
(-0.00115422 -0.00057548 0.000390296)
(-0.00103676 -0.000767166 0.000390296)
(-0.000887791 -0.000935543 0.000390296)
(-0.000711847 -0.00107549 0.000390296)
(-0.000514274 -0.00118277 0.000390296)
(-0.000301076 -0.0012541 0.000390296)
(-7.87319e-05 -0.00128733 0.000390295)
(0.000146007 -0.00128144 0.000390295)
(0.000230134 -0.00133313 0.000446295)
(0.000458133 -0.00127291 0.000446295)
(0.000672213 -0.00117402 0.000446295)
(0.000865867 -0.00103946 0.000446295)
(0.00103321 -0.000873308 0.000446295)
(0.00116916 -0.000680625 0.000446295)
(0.00126959 -0.000467264 0.000446295)
(0.00133144 -0.000239703 0.000446295)
(0.00135284 -4.85748e-06 0.000446295)
(0.00133313 0.000230134 0.000446295)
(0.00127291 0.000458133 0.000446295)
(0.00117402 0.000672213 0.000446295)
(0.00103946 0.000865867 0.000446295)
(0.000873308 0.00103321 0.000446295)
(0.000680625 0.00116916 0.000446295)
(0.000467264 0.00126959 0.000446295)
(0.000239703 0.00133144 0.000446295)
(4.85748e-06 0.00135284 0.000446295)
(-0.000230134 0.00133313 0.000446295)
(-0.000458133 0.00127291 0.000446295)
(-0.000672213 0.00117402 0.000446295)
(-0.000865867 0.00103946 0.000446295)
(-0.00103321 0.000873308 0.000446295)
(-0.00116916 0.000680625 0.000446295)
(-0.00126959 0.000467264 0.000446295)
(-0.00133144 0.000239703 0.000446295)
(-0.00135284 4.85748e-06 0.000446295)
(-0.00133313 -0.000230134 0.000446295)
(-0.00127291 -0.000458133 0.000446295)
(-0.00117402 -0.000672213 0.000446295)
(-0.00103946 -0.000865867 0.000446295)
(-0.000873308 -0.00103321 0.000446295)
(-0.000680625 -0.00116916 0.000446295)
(-0.000467264 -0.00126959 0.000446295)
(-0.000239703 -0.00133144 0.000446295)
(-4.85748e-06 -0.00135284 0.000446295)
(0.000763055 -0.00158192 0.000498824)
(0.00102616 -0.00142539 0.000498825)
(0.00125809 -0.00122554 0.000498826)
(0.00145179 -0.000988459 0.000498826)
(0.00160138 -0.000721342 0.000498825)
(0.00170231 -0.000432308 0.000498824)
(0.00175151 -0.000130136 0.000498823)
(0.0017475 0.000175989 0.000498823)
(0.00169039 0.000476765 0.000498823)
(0.00158192 0.000763055 0.000498824)
(0.00142539 0.00102616 0.000498825)
(0.00122554 0.00125809 0.000498826)
(0.000988459 0.00145179 0.000498826)
(0.000721342 0.00160138 0.000498825)
(0.000432308 0.00170231 0.000498824)
(0.000130136 0.00175151 0.000498823)
(-0.000175989 0.0017475 0.000498823)
(-0.000476765 0.00169039 0.000498823)
(-0.000763055 0.00158192 0.000498824)
(-0.00102616 0.00142539 0.000498825)
(-0.00125809 0.00122554 0.000498826)
(-0.00145179 0.000988459 0.000498826)
(-0.00160138 0.000721342 0.000498825)
(-0.00170231 0.000432308 0.000498824)
(-0.00175151 0.000130136 0.000498823)
(-0.0017475 -0.000175989 0.000498823)
(-0.00169039 -0.000476765 0.000498823)
(-0.00158192 -0.000763055 0.000498824)
(-0.00142539 -0.00102616 0.000498825)
(-0.00122554 -0.00125809 0.000498826)
(-0.000988459 -0.00145179 0.000498826)
(-0.000721342 -0.00160138 0.000498825)
(-0.000432308 -0.00170231 0.000498824)
(-0.000130136 -0.00175151 0.000498823)
(0.000175989 -0.0017475 0.000498823)
(0.000476765 -0.00169039 0.000498823)
(0.000638919 -0.0016954 0.000587869)
(0.000923615 -0.0015587 0.00058787)
(0.00118025 -0.00137463 0.000587869)
(0.00140102 -0.0011488 0.00058787)
(0.00157922 -0.000888063 0.000587869)
(0.00170944 -0.000600341 0.000587868)
(0.00178772 -0.00029438 0.000587868)
(0.00181168 2.05263e-05 0.000587868)
(0.00178059 0.000334808 0.000587869)
(0.0016954 0.000638919 0.000587869)
(0.0015587 0.000923615 0.00058787)
(0.00137463 0.00118025 0.000587869)
(0.0011488 0.00140102 0.00058787)
(0.000888063 0.00157922 0.000587869)
(0.000600341 0.00170944 0.000587868)
(0.00029438 0.00178772 0.000587868)
(-2.05263e-05 0.00181168 0.000587868)
(-0.000334808 0.00178059 0.000587869)
(-0.000638919 0.0016954 0.000587869)
(-0.000923615 0.0015587 0.00058787)
(-0.00118025 0.00137463 0.000587869)
(-0.00140102 0.0011488 0.00058787)
(-0.00157922 0.000888063 0.000587869)
(-0.00170944 0.000600341 0.000587868)
(-0.00178772 0.00029438 0.000587868)
(-0.00181168 -2.05263e-05 0.000587868)
(-0.00178059 -0.000334808 0.000587869)
(-0.0016954 -0.000638919 0.000587869)
(-0.0015587 -0.000923615 0.00058787)
(-0.00137463 -0.00118025 0.000587869)
(-0.0011488 -0.00140102 0.00058787)
(-0.000888063 -0.00157922 0.000587869)
(-0.000600341 -0.00170944 0.000587868)
(-0.00029438 -0.00178772 0.000587868)
(2.05263e-05 -0.00181168 0.000587868)
(0.000334808 -0.00178059 0.000587869)
(0.000495366 -0.00180962 0.000668777)
(0.000802079 -0.00169611 0.000668777)
(0.00108442 -0.00153106 0.000668778)
(0.00133381 -0.00131949 0.000668777)
(0.00154268 -0.00106783 0.000668777)
(0.00170467 -0.000783728 0.000668777)
(0.00181486 -0.00047581 0.000668777)
(0.00186991 -0.000153434 0.000668777)
(0.00186815 0.000173604 0.000668777)
(0.00180962 0.000495366 0.000668777)
(0.00169611 0.000802079 0.000668777)
(0.00153106 0.00108442 0.000668778)
(0.00131949 0.00133381 0.000668777)
(0.00106783 0.00154268 0.000668777)
(0.000783728 0.00170467 0.000668777)
(0.00047581 0.00181486 0.000668777)
(0.000153434 0.00186991 0.000668777)
(-0.000173604 0.00186815 0.000668777)
(-0.000495366 0.00180962 0.000668777)
(-0.000802079 0.00169611 0.000668777)
(-0.00108442 0.00153106 0.000668778)
(-0.00133381 0.00131949 0.000668777)
(-0.00154268 0.00106783 0.000668777)
(-0.00170467 0.000783728 0.000668777)
(-0.00181486 0.00047581 0.000668777)
(-0.00186991 0.000153434 0.000668777)
(-0.00186815 -0.000173604 0.000668777)
(-0.00180962 -0.000495366 0.000668777)
(-0.00169611 -0.000802079 0.000668777)
(-0.00153106 -0.00108442 0.000668778)
(-0.00131949 -0.00133381 0.000668777)
(-0.00106783 -0.00154268 0.000668777)
(-0.000783728 -0.00170467 0.000668777)
(-0.00047581 -0.00181486 0.000668777)
(-0.000153434 -0.00186991 0.000668777)
(0.000173604 -0.00186815 0.000668777)
(0.000335857 -0.00190991 0.00073745)
(0.000662405 -0.00182257 0.000737449)
(0.000968827 -0.00167986 0.00073745)
(0.00124581 -0.0014861 0.00073745)
(0.00148494 -0.00124719 0.00073745)
(0.00167896 -0.000970384 0.00073745)
(0.00182196 -0.000664093 0.00073745)
(0.00190959 -0.000337626 0.00073745)
(0.00193921 -8.99461e-07 0.00073745)
(0.00190991 0.000335857 0.00073745)
(0.00182257 0.000662405 0.000737449)
(0.00167986 0.000968827 0.00073745)
(0.0014861 0.00124581 0.00073745)
(0.00124719 0.00148494 0.00073745)
(0.000970384 0.00167896 0.00073745)
(0.000664093 0.00182196 0.00073745)
(0.000337626 0.00190959 0.00073745)
(8.99462e-07 0.00193921 0.00073745)
(-0.000335857 0.00190991 0.00073745)
(-0.000662405 0.00182257 0.000737449)
(-0.000968827 0.00167986 0.00073745)
(-0.00124581 0.0014861 0.00073745)
(-0.00148494 0.00124719 0.00073745)
(-0.00167896 0.000970384 0.00073745)
(-0.00182196 0.000664093 0.00073745)
(-0.00190959 0.000337626 0.00073745)
(-0.00193921 8.99462e-07 0.00073745)
(-0.00190991 -0.000335857 0.00073745)
(-0.00182257 -0.000662405 0.000737449)
(-0.00167986 -0.000968827 0.00073745)
(-0.0014861 -0.00124581 0.00073745)
(-0.00124719 -0.00148494 0.00073745)
(-0.000970384 -0.00167896 0.00073745)
(-0.000664093 -0.00182196 0.00073745)
(-0.000337626 -0.00190959 0.00073745)
(-8.99462e-07 -0.00193921 0.00073745)
(0.000870512 -0.00214765 0.000791996)
(0.00123022 -0.00196385 0.000791997)
(0.00155255 -0.00172039 0.000791997)
(0.00182771 -0.00142466 0.000791996)
(0.00204733 -0.00108564 0.000791996)
(0.00220475 -0.00071363 0.000791995)
(0.00229517 -0.000319938 0.000791995)
(0.00231586 8.34777e-05 0.000791995)
(0.00226618 0.000484352 0.000791996)
(0.00214765 0.000870512 0.000791996)
(0.00196385 0.00123022 0.000791997)
(0.00172039 0.00155255 0.000791997)
(0.00142466 0.00182771 0.000791996)
(0.00108564 0.00204733 0.000791996)
(0.00071363 0.00220475 0.000791995)
(0.000319938 0.00229517 0.000791995)
(-8.34777e-05 0.00231586 0.000791995)
(-0.000484352 0.00226618 0.000791996)
(-0.000870512 0.00214765 0.000791996)
(-0.00123022 0.00196385 0.000791997)
(-0.00155255 0.00172039 0.000791997)
(-0.00182771 0.00142466 0.000791996)
(-0.00204733 0.00108564 0.000791996)
(-0.00220475 0.00071363 0.000791995)
(-0.00229517 0.000319938 0.000791995)
(-0.00231586 -8.34777e-05 0.000791995)
(-0.00226618 -0.000484352 0.000791996)
(-0.00214765 -0.000870512 0.000791996)
(-0.00196385 -0.00123022 0.000791997)
(-0.00172039 -0.00155255 0.000791997)
(-0.00142466 -0.00182771 0.000791996)
(-0.00108564 -0.00204733 0.000791996)
(-0.00071363 -0.00220475 0.000791995)
(-0.000319938 -0.00229517 0.000791995)
(8.34777e-05 -0.00231586 0.000791995)
(0.000484352 -0.00226618 0.000791996)
(0.00072831 -0.00224005 0.000881262)
(0.00110623 -0.00207955 0.000881262)
(0.00145053 -0.00185586 0.000881262)
(0.00175076 -0.00157579 0.000881261)
(0.0019978 -0.00124783 0.000881261)
(0.00218413 -0.00088196 0.000881261)
(0.0023041 -0.000489291 0.00088126)
(0.00235406 -8.17551e-05 0.000881261)
(0.00233249 0.000328265 0.000881261)
(0.00224005 0.00072831 0.000881262)
(0.00207955 0.00110623 0.000881262)
(0.00185586 0.00145053 0.000881262)
(0.00157579 0.00175076 0.000881261)
(0.00124783 0.0019978 0.000881261)
(0.00088196 0.00218413 0.000881261)
(0.000489291 0.0023041 0.00088126)
(8.17551e-05 0.00235406 0.000881261)
(-0.000328265 0.00233249 0.000881261)
(-0.00072831 0.00224005 0.000881262)
(-0.00110623 0.00207955 0.000881262)
(-0.00145053 0.00185586 0.000881262)
(-0.00175076 0.00157579 0.000881261)
(-0.0019978 0.00124783 0.000881261)
(-0.00218413 0.00088196 0.000881261)
(-0.0023041 0.000489291 0.00088126)
(-0.00235406 8.17551e-05 0.000881261)
(-0.00233249 -0.000328265 0.000881261)
(-0.00224005 -0.00072831 0.000881262)
(-0.00207955 -0.00110623 0.000881262)
(-0.00185586 -0.00145053 0.000881262)
(-0.00157579 -0.00175076 0.000881261)
(-0.00124783 -0.0019978 0.000881261)
(-0.00088196 -0.00218413 0.000881261)
(-0.000489291 -0.0023041 0.00088126)
(-8.17551e-05 -0.00235406 0.000881261)
(0.000328265 -0.00233249 0.000881261)
(0.000570118 -0.00233257 0.000961794)
(0.000966501 -0.00219813 0.000961794)
(0.00133352 -0.0019969 0.000961794)
(0.00166002 -0.001735 0.000961794)
(0.00193608 -0.00142039 0.000961794)
(0.00215331 -0.00106261 0.000961794)
(0.00230512 -0.000672548 0.000961794)
(0.00238689 -0.000262051 0.000961793)
(0.00239613 0.000156409 0.000961794)
(0.00233257 0.000570118 0.000961794)
(0.00219813 0.000966501 0.000961794)
(0.0019969 0.00133352 0.000961794)
(0.001735 0.00166002 0.000961794)
(0.00142039 0.00193608 0.000961794)
(0.00106261 0.00215331 0.000961794)
(0.000672548 0.00230512 0.000961794)
(0.000262051 0.00238689 0.000961793)
(-0.000156409 0.00239613 0.000961794)
(-0.000570118 0.00233257 0.000961794)
(-0.000966501 0.00219813 0.000961794)
(-0.00133352 0.0019969 0.000961794)
(-0.00166002 0.001735 0.000961794)
(-0.00193608 0.00142039 0.000961794)
(-0.00215331 0.00106261 0.000961794)
(-0.00230512 0.000672548 0.000961794)
(-0.00238689 0.000262051 0.000961793)
(-0.00239613 -0.000156409 0.000961794)
(-0.00233257 -0.000570118 0.000961794)
(-0.00219813 -0.000966501 0.000961794)
(-0.0019969 -0.00133352 0.000961794)
(-0.001735 -0.00166002 0.000961794)
(-0.00142039 -0.00193608 0.000961794)
(-0.00106261 -0.00215331 0.000961794)
(-0.000672548 -0.00230512 0.000961794)
(-0.000262051 -0.00238689 0.000961793)
(0.000156409 -0.00239613 0.000961794)
(0.000398534 -0.0024106 0.00103017)
(0.000811076 -0.00230478 0.00103017)
(0.00119897 -0.00212892 0.00103017)
(0.00155044 -0.00188838 0.00103017)
(0.0018548 -0.00159046 0.00103017)
(0.0021028 -0.00124421 0.00103017)
(0.00228691 -0.000860163 0.00103017)
(0.00240153 -0.000449976 0.00103017)
(0.00244319 -2.61184e-05 0.00103017)
(0.0024106 0.000398534 0.00103017)
(0.00230478 0.000811076 0.00103017)
(0.00212892 0.00119897 0.00103017)
(0.00188838 0.00155044 0.00103017)
(0.00159046 0.0018548 0.00103017)
(0.00124421 0.0021028 0.00103017)
(0.000860163 0.00228691 0.00103017)
(0.000449976 0.00240153 0.00103017)
(2.61184e-05 0.00244319 0.00103017)
(-0.000398534 0.0024106 0.00103017)
(-0.000811076 0.00230478 0.00103017)
(-0.00119897 0.00212892 0.00103017)
(-0.00155044 0.00188838 0.00103017)
(-0.0018548 0.00159046 0.00103017)
(-0.0021028 0.00124421 0.00103017)
(-0.00228691 0.000860163 0.00103017)
(-0.00240153 0.000449976 0.00103017)
(-0.00244319 2.61184e-05 0.00103017)
(-0.0024106 -0.000398534 0.00103017)
(-0.00230478 -0.000811076 0.00103017)
(-0.00212892 -0.00119897 0.00103017)
(-0.00188838 -0.00155044 0.00103017)
(-0.00159046 -0.0018548 0.00103017)
(-0.00124421 -0.0021028 0.00103017)
(-0.000860163 -0.00228691 0.00103017)
(-0.000449976 -0.00240153 0.00103017)
(-2.61184e-05 -0.00244319 0.00103017)
(0.000909363 -0.00268873 0.00110952)
(0.00136244 -0.00248997 0.00110952)
(0.00177412 -0.00221556 0.00110952)
(0.0021319 -0.00187382 0.00110952)
(0.00242489 -0.00147516 0.00110952)
(0.00264421 -0.00103167 0.00110952)
(0.00278319 -0.000556832 0.00110952)
(0.0028376 -6.50761e-05 0.00110952)
(0.00280579 0.000428655 0.00110952)
(0.00268873 0.000909363 0.00110952)
(0.00248997 0.00136244 0.00110952)
(0.00221556 0.00177412 0.00110952)
(0.00187382 0.0021319 0.00110952)
(0.00147516 0.00242489 0.00110952)
(0.00103167 0.00264421 0.00110952)
(0.000556832 0.00278319 0.00110952)
(6.50761e-05 0.0028376 0.00110952)
(-0.000428655 0.00280579 0.00110952)
(-0.000909363 0.00268873 0.00110952)
(-0.00136244 0.00248997 0.00110952)
(-0.00177412 0.00221556 0.00110952)
(-0.0021319 0.00187382 0.00110952)
(-0.00242489 0.00147516 0.00110952)
(-0.00264421 0.00103167 0.00110952)
(-0.00278319 0.000556832 0.00110952)
(-0.0028376 6.50761e-05 0.00110952)
(-0.00280579 -0.000428655 0.00110952)
(-0.00268873 -0.000909363 0.00110952)
(-0.00248997 -0.00136244 0.00110952)
(-0.00221556 -0.00177412 0.00110952)
(-0.00187382 -0.0021319 0.00110952)
(-0.00147516 -0.00242489 0.00110952)
(-0.00103167 -0.00264421 0.00110952)
(-0.000556832 -0.00278319 0.00110952)
(-6.50761e-05 -0.0028376 0.00110952)
(0.000428655 -0.00280579 0.00110952)
(0.000755878 -0.00273956 0.00118955)
(0.00122011 -0.00256668 0.00118955)
(0.00164728 -0.00231582 0.00118955)
(0.00202439 -0.00199459 0.00118955)
(0.00233999 -0.00161276 0.00118955)
(0.00258449 -0.00118192 0.00118955)
(0.00275047 -0.000715172 0.00118955)
(0.00283287 -0.000226694 0.00118955)
(0.0028292 0.000268673 0.00118955)
(0.00273956 0.000755878 0.00118955)
(0.00256668 0.00122011 0.00118955)
(0.00231582 0.00164728 0.00118955)
(0.00199459 0.00202439 0.00118955)
(0.00161276 0.00233999 0.00118955)
(0.00118192 0.00258449 0.00118955)
(0.000715172 0.00275047 0.00118955)
(0.000226694 0.00283287 0.00118955)
(-0.000268673 0.0028292 0.00118955)
(-0.000755878 0.00273956 0.00118955)
(-0.00122011 0.00256668 0.00118955)
(-0.00164728 0.00231582 0.00118955)
(-0.00202439 0.00199459 0.00118955)
(-0.00233999 0.00161276 0.00118955)
(-0.00258449 0.00118192 0.00118955)
(-0.00275047 0.000715172 0.00118955)
(-0.00283287 0.000226694 0.00118955)
(-0.0028292 -0.000268673 0.00118955)
(-0.00273956 -0.000755878 0.00118955)
(-0.00256668 -0.00122011 0.00118955)
(-0.00231582 -0.00164728 0.00118955)
(-0.00199459 -0.00202439 0.00118955)
(-0.00161276 -0.00233999 0.00118955)
(-0.00118192 -0.00258449 0.00118955)
(-0.000715172 -0.00275047 0.00118955)
(-0.000226694 -0.00283287 0.00118955)
(0.000268673 -0.0028292 0.00118955)
(0.000589892 -0.00279101 0.00126044)
(0.00106558 -0.00264617 0.00126044)
(0.0015089 -0.00242094 0.00126044)
(0.00190636 -0.00212214 0.00126044)
(0.00224591 -0.00175886 0.00126044)
(0.00251721 -0.00134214 0.00126044)
(0.00271203 -0.000884643 0.00126044)
(0.00282445 -0.000400266 0.00126044)
(0.00285104 9.62754e-05 0.00126044)
(0.00279101 0.000589892 0.00126044)
(0.00264617 0.00106558 0.00126044)
(0.00242094 0.0015089 0.00126044)
(0.00212214 0.00190636 0.00126044)
(0.00175886 0.00224591 0.00126044)
(0.00134214 0.00251721 0.00126044)
(0.000884643 0.00271203 0.00126044)
(0.000400266 0.00282445 0.00126044)
(-9.62754e-05 0.00285104 0.00126044)
(-0.000589892 0.00279101 0.00126044)
(-0.00106558 0.00264617 0.00126044)
(-0.0015089 0.00242094 0.00126044)
(-0.00190636 0.00212214 0.00126044)
(-0.00224591 0.00175886 0.00126044)
(-0.00251721 0.00134214 0.00126044)
(-0.00271203 0.000884643 0.00126044)
(-0.00282445 0.000400266 0.00126044)
(-0.00285104 -9.62754e-05 0.00126044)
(-0.00279101 -0.000589892 0.00126044)
(-0.00264617 -0.00106558 0.00126044)
(-0.00242094 -0.0015089 0.00126044)
(-0.00212214 -0.00190636 0.00126044)
(-0.00175886 -0.00224591 0.00126044)
(-0.00134214 -0.00251721 0.00126044)
(-0.000884643 -0.00271203 0.00126044)
(-0.000400266 -0.00282445 0.00126044)
(9.62754e-05 -0.00285104 0.00126044)
(0.000413262 -0.00282883 0.00131927)
(0.000898207 -0.00271409 0.00131927)
(0.00135586 -0.00251689 0.00131927)
(0.00177231 -0.00224321 0.00131927)
(0.00213491 -0.00190137 0.00131927)
(0.00243265 -0.00150176 0.00131927)
(0.00265647 -0.00105652 0.00131927)
(0.00279957 -0.000579177 0.00131927)
(0.00285762 -8.42383e-05 0.00131927)
(0.00282883 0.000413262 0.00131927)
(0.00271409 0.000898207 0.00131927)
(0.00251689 0.00135586 0.00131927)
(0.00224321 0.00177231 0.00131927)
(0.00190137 0.00213491 0.00131927)
(0.00150176 0.00243265 0.00131927)
(0.00105652 0.00265647 0.00131927)
(0.000579177 0.00279957 0.00131927)
(8.42383e-05 0.00285762 0.00131927)
(-0.000413262 0.00282883 0.00131927)
(-0.000898207 0.00271409 0.00131927)
(-0.00135586 0.00251689 0.00131927)
(-0.00177231 0.00224321 0.00131927)
(-0.00213491 0.00190137 0.00131927)
(-0.00243265 0.00150176 0.00131927)
(-0.00265647 0.00105652 0.00131927)
(-0.00279957 0.000579177 0.00131927)
(-0.00285762 8.42383e-05 0.00131927)
(-0.00282883 -0.000413262 0.00131927)
(-0.00271409 -0.000898207 0.00131927)
(-0.00251689 -0.00135586 0.00131927)
(-0.00224321 -0.00177231 0.00131927)
(-0.00190137 -0.00213491 0.00131927)
(-0.00150176 -0.00243265 0.00131927)
(-0.00105652 -0.00265647 0.00131927)
(-0.000579177 -0.00279957 0.00131927)
(-8.42383e-05 -0.00285762 0.00131927)
(0.000894673 -0.00317228 0.00144547)
(0.00143194 -0.00296873 0.00144547)
(0.0019257 -0.00267498 0.00144547)
(0.00236095 -0.00229994 0.00144547)
(0.00272447 -0.00185503 0.00144547)
(0.0030052 -0.00135375 0.00144547)
(0.00319462 -0.000811333 0.00144547)
(0.00328697 -0.000244267 0.00144547)
(0.00327945 0.000330219 0.00144547)
(0.00317228 0.000894673 0.00144547)
(0.00296873 0.00143194 0.00144547)
(0.00267498 0.0019257 0.00144547)
(0.00229994 0.00236095 0.00144547)
(0.00185503 0.00272447 0.00144547)
(0.00135375 0.0030052 0.00144547)
(0.000811333 0.00319462 0.00144547)
(0.000244267 0.00328697 0.00144547)
(-0.000330219 0.00327945 0.00144547)
(-0.000894673 0.00317228 0.00144547)
(-0.00143194 0.00296873 0.00144547)
(-0.0019257 0.00267498 0.00144547)
(-0.00236095 0.00229994 0.00144547)
(-0.00272447 0.00185503 0.00144547)
(-0.0030052 0.00135375 0.00144547)
(-0.00319462 0.000811333 0.00144547)
(-0.00328697 0.000244267 0.00144547)
(-0.00327945 -0.000330219 0.00144547)