/*--------------------------------*- C++ -*----------------------------------*\
| =========                 |                                                 |
| \\      /  F ield         | OpenFOAM: The Open Source CFD Toolbox           |
|  \\    /   O peration     | Version:  2312                                  |
|   \\  /    A nd           | Website:  www.openfoam.com                      |
|    \\/     M anipulation  |                                                 |
\*---------------------------------------------------------------------------*/
FoamFile
{
    version     2.0;
    format      ascii;
    arch        "LSB;label=32;scalar=64";
    class       volVectorField;
    location    "0.1";
    object      D;
}
// * * * * * * * * * * * * * * * * * * * * * * * * * * * * * * * * * * * * * //

dimensions      [0 1 0 0 0 0 0];

internalField   nonuniform List<vector> 
1620
(
(-9.3001e-05 0.000204553 -2.73194e-05)
(-0.000127108 0.000185296 -2.73194e-05)
(-0.000157354 0.000160409 -2.73194e-05)
(-0.000182818 0.000130648 -2.73194e-05)
(-0.000202727 9.69173e-05 -2.73194e-05)
(-0.000216477 6.02416e-05 -2.73194e-05)
(-0.000223649 2.17355e-05 -2.73194e-05)
(-0.000224025 -1.74308e-05 -2.73193e-05)
(-0.000217595 -5.60677e-05 -2.73194e-05)
(-0.000204553 -9.3001e-05 -2.73194e-05)
(-0.000185296 -0.000127108 -2.73194e-05)
(-0.000160409 -0.000157354 -2.73194e-05)
(-0.000130648 -0.000182818 -2.73194e-05)
(-9.69173e-05 -0.000202727 -2.73194e-05)
(-6.02416e-05 -0.000216477 -2.73194e-05)
(-2.17355e-05 -0.000223649 -2.73194e-05)
(1.74308e-05 -0.000224025 -2.73193e-05)
(5.60677e-05 -0.000217595 -2.73194e-05)
(9.3001e-05 -0.000204553 -2.73194e-05)
(0.000127108 -0.000185296 -2.73194e-05)
(0.000157354 -0.000160409 -2.73194e-05)
(0.000182818 -0.000130648 -2.73194e-05)
(0.000202727 -9.69173e-05 -2.73194e-05)
(0.000216477 -6.02416e-05 -2.73194e-05)
(0.000223649 -2.17355e-05 -2.73194e-05)
(0.000224025 1.74308e-05 -2.73193e-05)
(0.000217595 5.60677e-05 -2.73194e-05)
(0.000204553 9.3001e-05 -2.73194e-05)
(0.000185296 0.000127108 -2.73194e-05)
(0.000160409 0.000157354 -2.73194e-05)
(0.000130648 0.000182818 -2.73194e-05)
(9.69173e-05 0.000202727 -2.73194e-05)
(6.02416e-05 0.000216477 -2.73194e-05)
(2.17355e-05 0.000223649 -2.73193e-05)
(-1.74308e-05 0.000224025 -2.73193e-05)
(-5.60677e-05 0.000217595 -2.73194e-05)
(-7.66944e-05 0.000199908 -1.99202e-05)
(-0.000110243 0.000183553 -1.99202e-05)
(-0.000140442 0.000161621 -1.99202e-05)
(-0.000166373 0.000134778 -1.99202e-05)
(-0.00018725 0.000103841 -1.99202e-05)
(-0.000202437 6.97472e-05 -1.99202e-05)
(-0.000211473 3.35348e-05 -1.99202e-05)
(-0.000214083 -3.69648e-06 -1.99202e-05)
(-0.000210189 -4.08156e-05 -1.99202e-05)
(-0.000199908 -7.66944e-05 -1.99202e-05)
(-0.000183553 -0.000110243 -1.99202e-05)
(-0.000161621 -0.000140442 -1.99202e-05)
(-0.000134778 -0.000166373 -1.99202e-05)
(-0.000103841 -0.00018725 -1.99202e-05)
(-6.97472e-05 -0.000202437 -1.99202e-05)
(-3.35348e-05 -0.000211473 -1.99202e-05)
(3.69648e-06 -0.000214083 -1.99202e-05)
(4.08156e-05 -0.000210189 -1.99202e-05)
(7.66944e-05 -0.000199908 -1.99202e-05)
(0.000110243 -0.000183553 -1.99202e-05)
(0.000140442 -0.000161621 -1.99202e-05)
(0.000166373 -0.000134778 -1.99202e-05)
(0.00018725 -0.000103841 -1.99202e-05)
(0.000202437 -6.97472e-05 -1.99202e-05)
(0.000211473 -3.35348e-05 -1.99202e-05)
(0.000214083 3.69648e-06 -1.99202e-05)
(0.000210189 4.08156e-05 -1.99202e-05)
(0.000199908 7.66944e-05 -1.99202e-05)
(0.000183553 0.000110243 -1.99202e-05)
(0.000161621 0.000140442 -1.99202e-05)
(0.000134778 0.000166373 -1.99202e-05)
(0.000103841 0.00018725 -1.99202e-05)
(6.97472e-05 0.000202437 -1.99202e-05)
(3.35348e-05 0.000211473 -1.99202e-05)
(-3.69648e-06 0.000214083 -1.99202e-05)
(-4.08156e-05 0.000210189 -1.99202e-05)
(-6.34072e-05 0.000194999 -1.47507e-05)
(-9.63051e-05 0.000181026 -1.47507e-05)
(-0.000126277 0.000161553 -1.47508e-05)
(-0.000152412 0.00013717 -1.47507e-05)
(-0.000173916 0.000108621 -1.47508e-05)
(-0.000190135 7.67701e-05 -1.47507e-05)
(-0.000200578 4.25872e-05 -1.47508e-05)
(-0.000204926 7.11019e-06 -1.47508e-05)
(-0.000203047 -2.85828e-05 -1.47507e-05)
(-0.000194999 -6.34072e-05 -1.47507e-05)
(-0.000181026 -9.63051e-05 -1.47507e-05)
(-0.000161553 -0.000126277 -1.47508e-05)
(-0.00013717 -0.000152412 -1.47507e-05)
(-0.000108621 -0.000173916 -1.47508e-05)
(-7.67701e-05 -0.000190135 -1.47507e-05)
(-4.25872e-05 -0.000200578 -1.47508e-05)
(-7.11019e-06 -0.000204926 -1.47508e-05)
(2.85828e-05 -0.000203047 -1.47507e-05)
(6.34072e-05 -0.000194999 -1.47507e-05)
(9.63051e-05 -0.000181026 -1.47507e-05)
(0.000126277 -0.000161553 -1.47508e-05)
(0.000152412 -0.00013717 -1.47507e-05)
(0.000173916 -0.000108621 -1.47508e-05)
(0.000190135 -7.67701e-05 -1.47507e-05)
(0.000200578 -4.25872e-05 -1.47508e-05)
(0.000204926 -7.11019e-06 -1.47508e-05)
(0.000203047 2.85828e-05 -1.47507e-05)
(0.000194999 6.34072e-05 -1.47507e-05)
(0.000181026 9.63051e-05 -1.47507e-05)
(0.000161553 0.000126277 -1.47508e-05)
(0.00013717 0.000152412 -1.47507e-05)
(0.000108621 0.000173916 -1.47508e-05)
(7.67701e-05 0.000190135 -1.47507e-05)
(4.25872e-05 0.000200578 -1.47508e-05)
(7.11019e-06 0.000204926 -1.47508e-05)
(-2.85828e-05 0.000203047 -1.47507e-05)
(-0.000245825 0.000624738 -8.35156e-05)
(-0.000350575 0.00057256 -8.35157e-05)
(-0.000444673 0.000502985 -8.35158e-05)
(-0.000525259 0.000418127 -8.35156e-05)
(-0.000589886 0.000320564 -8.35155e-05)
(-0.00063659 0.000213262 -8.35156e-05)
(-0.000663952 9.9479e-05 -8.35156e-05)
(-0.000671139 -1.73263e-05 -8.35156e-05)
(-0.000657934 -0.000133605 -8.35156e-05)
(-0.000624738 -0.000245825 -8.35156e-05)
(-0.00057256 -0.000350575 -8.35157e-05)
(-0.000502985 -0.000444673 -8.35158e-05)
(-0.000418127 -0.000525259 -8.35156e-05)
(-0.000320564 -0.000589886 -8.35155e-05)
(-0.000213262 -0.00063659 -8.35156e-05)
(-9.9479e-05 -0.000663952 -8.35156e-05)
(1.73263e-05 -0.000671139 -8.35156e-05)
(0.000133605 -0.000657934 -8.35156e-05)
(0.000245825 -0.000624738 -8.35156e-05)
(0.000350575 -0.00057256 -8.35157e-05)
(0.000444673 -0.000502985 -8.35158e-05)
(0.000525259 -0.000418127 -8.35156e-05)
(0.000589886 -0.000320564 -8.35155e-05)
(0.00063659 -0.000213262 -8.35156e-05)
(0.000663952 -9.9479e-05 -8.35156e-05)
(0.000671139 1.73263e-05 -8.35156e-05)
(0.000657934 0.000133605 -8.35156e-05)
(0.000624738 0.000245825 -8.35156e-05)
(0.00057256 0.000350575 -8.35157e-05)
(0.000502985 0.000444673 -8.35157e-05)
(0.000418127 0.000525259 -8.35156e-05)
(0.000320564 0.000589886 -8.35155e-05)
(0.000213262 0.00063659 -8.35156e-05)
(9.9479e-05 0.000663952 -8.35156e-05)
(-1.73263e-05 0.000671139 -8.35156e-05)
(-0.000133605 0.000657934 -8.35156e-05)
(-0.000227931 0.000595401 -6.96035e-05)
(-0.000327858 0.000546776 -6.96035e-05)
(-0.000417824 0.000481537 -6.96036e-05)
(-0.000495095 0.000401668 -6.96036e-05)
(-0.000557322 0.000309593 -6.96036e-05)
(-0.000602616 0.000208111 -6.96036e-05)
(-0.000629598 0.000100307 -6.96036e-05)
(-0.000637451 -1.05458e-05 -6.96035e-05)
(-0.000625936 -0.000121078 -6.96036e-05)
(-0.000595401 -0.000227931 -6.96035e-05)
(-0.000546776 -0.000327858 -6.96035e-05)
(-0.000481537 -0.000417824 -6.96036e-05)
(-0.000401668 -0.000495095 -6.96036e-05)
(-0.000309593 -0.000557322 -6.96036e-05)
(-0.000208111 -0.000602616 -6.96036e-05)
(-0.000100307 -0.000629598 -6.96036e-05)
(1.05459e-05 -0.000637451 -6.96035e-05)
(0.000121078 -0.000625936 -6.96036e-05)
(0.000227931 -0.000595401 -6.96035e-05)
(0.000327858 -0.000546776 -6.96036e-05)
(0.000417824 -0.000481537 -6.96036e-05)
(0.000495095 -0.000401668 -6.96036e-05)
(0.000557322 -0.000309593 -6.96036e-05)
(0.000602616 -0.000208111 -6.96036e-05)
(0.000629598 -0.000100307 -6.96036e-05)
(0.000637451 1.05459e-05 -6.96035e-05)
(0.000625936 0.000121078 -6.96035e-05)
(0.000595401 0.000227931 -6.96035e-05)
(0.000546776 0.000327858 -6.96035e-05)
(0.000481537 0.000417824 -6.96036e-05)
(0.000401668 0.000495095 -6.96036e-05)
(0.000309593 0.000557322 -6.96036e-05)
(0.000208111 0.000602616 -6.96036e-05)
(0.000100307 0.000629598 -6.96036e-05)
(-1.05459e-05 0.000637451 -6.96035e-05)
(-0.000121078 0.000625936 -6.96035e-05)
(-0.000214067 0.000564876 -5.64918e-05)
(-0.000308905 0.000519122 -5.64917e-05)
(-0.000394356 0.000457595 -5.64917e-05)
(-0.000467825 0.000382163 -5.64917e-05)
(-0.00052708 0.00029512 -5.64917e-05)
(-0.00057032 0.00019911 -5.64917e-05)
(-0.000596231 9.70502e-05 -5.64918e-05)
(-0.000604025 -7.95844e-06 -5.64918e-05)
(-0.000593467 -0.000112725 -5.64918e-05)
(-0.000564876 -0.000214067 -5.64918e-05)
(-0.000519122 -0.000308905 -5.64917e-05)
(-0.000457595 -0.000394356 -5.64917e-05)
(-0.000382163 -0.000467825 -5.64917e-05)
(-0.00029512 -0.00052708 -5.64917e-05)
(-0.00019911 -0.00057032 -5.64917e-05)
(-9.70502e-05 -0.000596231 -5.64918e-05)
(7.95845e-06 -0.000604025 -5.64918e-05)
(0.000112725 -0.000593467 -5.64918e-05)
(0.000214067 -0.000564876 -5.64918e-05)
(0.000308905 -0.000519122 -5.64917e-05)
(0.000394356 -0.000457595 -5.64917e-05)
(0.000467825 -0.000382163 -5.64917e-05)
(0.00052708 -0.00029512 -5.64917e-05)
(0.00057032 -0.00019911 -5.64917e-05)
(0.000596231 -9.70502e-05 -5.64918e-05)
(0.000604025 7.95845e-06 -5.64918e-05)
(0.000593467 0.000112725 -5.64918e-05)
(0.000564876 0.000214067 -5.64918e-05)
(0.000519122 0.000308905 -5.64917e-05)
(0.000457595 0.000394356 -5.64917e-05)
(0.000382163 0.000467825 -5.64917e-05)
(0.00029512 0.00052708 -5.64917e-05)
(0.00019911 0.00057032 -5.64917e-05)
(9.70502e-05 0.000596231 -5.64918e-05)
(-7.95845e-06 0.000604025 -5.64918e-05)
(-0.000112725 0.000593467 -5.64918e-05)
(-0.000399205 0.00103544 -0.00016128)
(-0.000572943 0.000950388 -0.00016128)
(-0.000729272 0.000836459 -0.00016128)
(-0.000863442 0.000697114 -0.00016128)
(-0.000971377 0.000536589 -0.00016128)
(-0.0010498 0.000359759 -0.00016128)
(-0.00109632 0.000171998 -0.00016128)
(-0.00110953 -2.0989e-05 -0.00016128)
(-0.00108903 -0.000213338 -0.00016128)
(-0.00103544 -0.000399205 -0.00016128)
(-0.000950388 -0.000572943 -0.00016128)
(-0.000836459 -0.000729272 -0.00016128)
(-0.000697114 -0.000863442 -0.00016128)
(-0.000536589 -0.000971377 -0.00016128)
(-0.000359759 -0.0010498 -0.00016128)
(-0.000171998 -0.00109632 -0.00016128)
(2.0989e-05 -0.00110953 -0.00016128)
(0.000213338 -0.00108903 -0.00016128)
(0.000399205 -0.00103544 -0.00016128)
(0.000572943 -0.000950388 -0.00016128)
(0.000729272 -0.000836459 -0.00016128)
(0.000863442 -0.000697114 -0.00016128)
(0.000971377 -0.000536589 -0.00016128)
(0.0010498 -0.000359759 -0.00016128)
(0.00109632 -0.000171998 -0.00016128)
(0.00110953 2.0989e-05 -0.00016128)
(0.00108903 0.000213338 -0.00016128)
(0.00103544 0.000399205 -0.00016128)
(0.000950388 0.000572943 -0.00016128)
(0.000836459 0.000729272 -0.00016128)
(0.000697114 0.000863442 -0.00016128)
(0.000536589 0.000971377 -0.00016128)
(0.000359759 0.0010498 -0.00016128)
(0.000171998 0.00109632 -0.00016128)
(-2.0989e-05 0.00110953 -0.00016128)
(-0.000213338 0.00108903 -0.00016128)
(-0.000376093 0.000979984 -0.000142271)
(-0.000540552 0.000899788 -0.000142271)
(-0.000688586 0.000792252 -0.000142271)
(-0.000815698 0.000660645 -0.000142271)
(-0.000918025 0.000508963 -0.000142271)
(-0.000992459 0.000341817 -0.000142271)
(-0.00103674 0.000164286 -0.000142271)
(-0.00104952 -1.82377e-05 -0.000142271)
(-0.0010304 -0.000200207 -0.000142271)
(-0.000979984 -0.000376093 -0.000142271)
(-0.000899788 -0.000540552 -0.000142271)
(-0.000792252 -0.000688586 -0.000142271)
(-0.000660645 -0.000815698 -0.000142271)
(-0.000508963 -0.000918025 -0.000142271)
(-0.000341817 -0.000992459 -0.000142271)
(-0.000164286 -0.00103674 -0.000142271)
(1.82377e-05 -0.00104952 -0.000142271)
(0.000200207 -0.0010304 -0.000142271)
(0.000376093 -0.000979984 -0.000142271)
(0.000540552 -0.000899788 -0.000142271)
(0.000688586 -0.000792252 -0.000142271)
(0.000815698 -0.000660645 -0.000142271)
(0.000918025 -0.000508963 -0.000142271)
(0.000992459 -0.000341817 -0.000142271)
(0.00103674 -0.000164286 -0.000142271)
(0.00104952 1.82377e-05 -0.000142271)
(0.0010304 0.000200207 -0.000142271)
(0.000979984 0.000376093 -0.000142271)
(0.000899788 0.000540552 -0.000142271)
(0.000792252 0.000688586 -0.000142271)
(0.000660645 0.000815698 -0.000142271)
(0.000508963 0.000918025 -0.000142271)
(0.000341817 0.000992459 -0.000142271)
(0.000164286 0.00103674 -0.000142271)
(-1.82377e-05 0.00104952 -0.000142271)
(-0.000200207 0.0010304 -0.000142271)
(-0.000356966 0.000922817 -0.000123954)
(-0.000511789 0.000846811 -0.000123954)
(-0.000651061 0.000745075 -0.000123954)
(-0.00077055 0.0006207 -0.000123954)
(-0.000866628 0.000477466 -0.000123954)
(-0.000936373 0.000319723 -0.000123954)
(-0.000977666 0.000152267 -0.000123954)
(-0.000989254 -1.98163e-05 -0.000123954)
(-0.000970784 -0.000191298 -0.000123954)
(-0.000922817 -0.000356966 -0.000123954)
(-0.000846811 -0.000511789 -0.000123954)
(-0.000745075 -0.000651061 -0.000123954)
(-0.0006207 -0.00077055 -0.000123954)
(-0.000477466 -0.000866628 -0.000123954)
(-0.000319723 -0.000936373 -0.000123954)
(-0.000152267 -0.000977666 -0.000123954)
(1.98164e-05 -0.000989254 -0.000123954)
(0.000191298 -0.000970784 -0.000123954)
(0.000356966 -0.000922817 -0.000123954)
(0.000511789 -0.000846811 -0.000123954)
(0.000651061 -0.000745075 -0.000123954)
(0.00077055 -0.0006207 -0.000123954)
(0.000866628 -0.000477466 -0.000123954)
(0.000936373 -0.000319723 -0.000123954)
(0.000977666 -0.000152267 -0.000123954)
(0.000989254 1.98164e-05 -0.000123954)
(0.000970784 0.000191298 -0.000123954)
(0.000922817 0.000356966 -0.000123954)
(0.000846811 0.000511789 -0.000123954)
(0.000745075 0.000651061 -0.000123954)
(0.0006207 0.00077055 -0.000123954)
(0.000477466 0.000866628 -0.000123954)
(0.000319723 0.000936373 -0.000123954)
(0.000152267 0.000977666 -0.000123954)
(-1.98164e-05 0.000989254 -0.000123954)
(-0.000191298 0.000970784 -0.000123954)
(-0.000549416 0.00142928 -0.000256708)
(-0.000789262 0.00131216 -0.000256708)
(-0.00100513 0.00115517 -0.000256708)
(-0.00119045 0.000963086 -0.000256708)
(-0.0013396 0.000741735 -0.000256708)
(-0.00144805 0.000497847 -0.000256708)
(-0.0015125 0.000238832 -0.000256708)
(-0.001531 -2.74396e-05 -0.000256708)
(-0.00150297 -0.000292878 -0.000256708)
(-0.00142928 -0.000549416 -0.000256708)
(-0.00131216 -0.000789262 -0.000256708)
(-0.00115517 -0.00100513 -0.000256708)
(-0.000963086 -0.00119045 -0.000256708)
(-0.000741735 -0.0013396 -0.000256708)
(-0.000497847 -0.00144805 -0.000256708)
(-0.000238832 -0.0015125 -0.000256708)
(2.74397e-05 -0.001531 -0.000256708)
(0.000292878 -0.00150297 -0.000256708)
(0.000549416 -0.00142928 -0.000256708)
(0.000789262 -0.00131216 -0.000256708)
(0.00100513 -0.00115517 -0.000256708)
(0.00119045 -0.000963086 -0.000256708)
(0.0013396 -0.000741735 -0.000256708)
(0.00144805 -0.000497847 -0.000256708)
(0.0015125 -0.000238832 -0.000256708)
(0.001531 2.74397e-05 -0.000256708)
(0.00150297 0.000292878 -0.000256708)
(0.00142928 0.000549416 -0.000256708)
(0.00131216 0.000789262 -0.000256708)
(0.00115517 0.00100513 -0.000256708)
(0.000963086 0.00119045 -0.000256708)
(0.000741735 0.0013396 -0.000256708)
(0.000497847 0.00144805 -0.000256708)
(0.000238832 0.0015125 -0.000256708)
(-2.74396e-05 0.001531 -0.000256708)
(-0.000292878 0.00150297 -0.000256708)
(-0.000519389 0.00134597 -0.000232981)
(-0.000745223 0.00123533 -0.000232981)
(-0.000948414 0.00108716 -0.000232981)
(-0.00112279 0.000905948 -0.000232981)
(-0.00126305 0.000697215 -0.000232981)
(-0.00136493 0.000467297 -0.000232981)
(-0.00142534 0.000223181 -0.000232981)
(-0.00144244 -2.77171e-05 -0.000232981)
(-0.00141571 -0.000277773 -0.000232981)
(-0.00134597 -0.000519389 -0.000232981)
(-0.00123533 -0.000745223 -0.000232981)
(-0.00108716 -0.000948414 -0.000232981)
(-0.000905948 -0.00112279 -0.000232981)
(-0.000697215 -0.00126305 -0.000232981)
(-0.000467297 -0.00136493 -0.000232981)
(-0.000223181 -0.00142534 -0.000232981)
(2.77171e-05 -0.00144244 -0.000232981)
(0.000277773 -0.00141571 -0.000232981)
(0.000519389 -0.00134597 -0.000232981)
(0.000745223 -0.00123533 -0.000232981)
(0.000948414 -0.00108716 -0.000232981)
(0.00112279 -0.000905948 -0.000232981)
(0.00126305 -0.000697215 -0.000232981)
(0.00136493 -0.000467297 -0.000232981)
(0.00142534 -0.000223181 -0.000232981)
(0.00144244 2.77171e-05 -0.000232981)
(0.00141571 0.000277773 -0.000232981)
(0.00134597 0.000519389 -0.000232981)
(0.00123533 0.000745223 -0.000232981)
(0.00108716 0.000948414 -0.000232981)
(0.000905948 0.00112279 -0.000232981)
(0.000697215 0.00126305 -0.000232981)
(0.000467297 0.00136493 -0.00023298)
(0.000223181 0.00142534 -0.00023298)
(-2.77171e-05 0.00144244 -0.00023298)
(-0.000277773 0.00141571 -0.000232981)
(-0.000493416 0.00126051 -0.00021003)
(-0.000704805 0.00115568 -0.00021003)
(-0.000894778 0.00101573 -0.00021003)
(-0.00105756 0.000844923 -0.00021003)
(-0.00118822 0.000648442 -0.00021003)
(-0.00128277 0.00043226 -0.00021003)
(-0.00133834 0.000202943 -0.00021003)
(-0.00135325 -3.25405e-05 -0.00021003)
(-0.00132704 -0.000267035 -0.00021003)
(-0.00126051 -0.000493416 -0.00021003)
(-0.00115568 -0.000704805 -0.00021003)
(-0.00101573 -0.000894778 -0.00021003)
(-0.000844923 -0.00105756 -0.00021003)
(-0.000648442 -0.00118822 -0.00021003)
(-0.00043226 -0.00128277 -0.00021003)
(-0.000202943 -0.00133834 -0.00021003)
(3.25406e-05 -0.00135325 -0.00021003)
(0.000267035 -0.00132704 -0.00021003)
(0.000493416 -0.00126051 -0.00021003)
(0.000704805 -0.00115568 -0.00021003)
(0.000894778 -0.00101573 -0.00021003)
(0.00105756 -0.000844923 -0.00021003)
(0.00118822 -0.000648442 -0.00021003)
(0.00128277 -0.00043226 -0.00021003)
(0.00133834 -0.000202943 -0.00021003)
(0.00135325 3.25406e-05 -0.00021003)
(0.00132704 0.000267035 -0.00021003)
(0.00126051 0.000493416 -0.00021003)
(0.00115568 0.000704805 -0.00021003)
(0.00101573 0.000894778 -0.00021003)
(0.000844923 0.00105756 -0.00021003)
(0.000648442 0.00118822 -0.00021003)
(0.00043226 0.00128277 -0.00021003)
(0.000202943 0.00133834 -0.00021003)
(-3.25405e-05 0.00135325 -0.00021003)
(-0.000267035 0.00132704 -0.00021003)
(-0.000695192 0.00179909 -0.000367227)
(-0.000997038 0.00165103 -0.000367227)
(-0.00126859 0.00145282 -0.000367227)
(-0.0015016 0.00121046 -0.000367227)
(-0.00168898 0.000931319 -0.000367227)
(-0.00182504 0.000623882 -0.000367227)
(-0.00190565 0.000297489 -0.000367227)
(-0.00192836 -3.79433e-05 -0.000367227)
(-0.00189247 -0.000372222 -0.000367227)
(-0.00179909 -0.000695192 -0.000367227)
(-0.00165103 -0.000997038 -0.000367227)
(-0.00145282 -0.00126859 -0.000367227)
(-0.00121046 -0.0015016 -0.000367227)
(-0.000931319 -0.00168898 -0.000367227)
(-0.000623882 -0.00182504 -0.000367227)
(-0.000297489 -0.00190565 -0.000367227)
(3.79433e-05 -0.00192836 -0.000367227)
(0.000372223 -0.00189247 -0.000367227)
(0.000695192 -0.00179909 -0.000367227)
(0.000997038 -0.00165103 -0.000367227)
(0.00126859 -0.00145282 -0.000367227)
(0.0015016 -0.00121046 -0.000367227)
(0.00168898 -0.000931319 -0.000367227)
(0.00182504 -0.000623882 -0.000367227)
(0.00190565 -0.000297489 -0.000367227)
(0.00192836 3.79433e-05 -0.000367227)
(0.00189247 0.000372222 -0.000367227)
(0.00179909 0.000695192 -0.000367227)
(0.00165103 0.000997038 -0.000367227)
(0.00145282 0.00126859 -0.000367227)
(0.00121046 0.0015016 -0.000367227)
(0.000931319 0.00168898 -0.000367227)
(0.000623882 0.00182504 -0.000367227)
(0.000297489 0.00190565 -0.000367227)
(-3.79433e-05 0.00192836 -0.000367227)
(-0.000372222 0.00189247 -0.000367227)
(-0.000656839 0.00168551 -0.000338584)
(-0.000939546 0.00154585 -0.000338584)
(-0.00119371 0.00135921 -0.000338584)
(-0.00141159 0.00113128 -0.000338584)
(-0.00158659 0.000868969 -0.000338584)
(-0.00171338 0.000580258 -0.000338584)
(-0.00178811 0.000273917 -0.000338584)
(-0.00180851 -4.07473e-05 -0.000338584)
(-0.00177396 -0.000354174 -0.000338584)
(-0.00168551 -0.000656839 -0.000338584)
(-0.00154585 -0.000939546 -0.000338584)
(-0.00135921 -0.00119371 -0.000338584)
(-0.00113128 -0.00141159 -0.000338584)
(-0.000868969 -0.00158659 -0.000338584)
(-0.000580258 -0.00171338 -0.000338584)
(-0.000273917 -0.00178811 -0.000338584)
(4.07473e-05 -0.00180851 -0.000338584)
(0.000354174 -0.00177396 -0.000338584)
(0.000656839 -0.00168551 -0.000338584)
(0.000939546 -0.00154585 -0.000338584)
(0.00119371 -0.00135921 -0.000338584)
(0.00141159 -0.00113128 -0.000338584)
(0.00158659 -0.000868969 -0.000338584)
(0.00171338 -0.000580258 -0.000338584)
(0.00178811 -0.000273917 -0.000338584)
(0.00180851 4.07473e-05 -0.000338584)
(0.00177396 0.000354174 -0.000338584)
(0.00168551 0.000656839 -0.000338584)
(0.00154585 0.000939546 -0.000338584)
(0.00135921 0.00119371 -0.000338584)
(0.00113128 0.00141159 -0.000338584)
(0.000868969 0.00158659 -0.000338584)
(0.000580258 0.00171338 -0.000338584)
(0.000273917 0.00178811 -0.000338584)
(-4.07473e-05 0.00180851 -0.000338584)
(-0.000354174 0.00177396 -0.000338584)
(-0.000622636 0.00156953 -0.000310841)
(-0.000885722 0.00143756 -0.000310841)
(-0.0011219 0.00126192 -0.000310841)
(-0.00132398 0.00104793 -0.000310841)
(-0.00148584 0.000802104 -0.000310841)
(-0.00160255 0.000531906 -0.000310841)
(-0.00167057 0.000245545 -0.000310841)
(-0.00168783 -4.82765e-05 -0.000310841)
(-0.0016538 -0.000340631 -0.000310841)
(-0.00156953 -0.000622636 -0.000310841)
(-0.00143756 -0.000885722 -0.000310841)
(-0.00126192 -0.0011219 -0.000310841)
(-0.00104793 -0.00132398 -0.000310841)
(-0.000802104 -0.00148584 -0.000310841)
(-0.000531906 -0.00160255 -0.000310841)
(-0.000245545 -0.00167057 -0.000310841)
(4.82765e-05 -0.00168783 -0.000310841)
(0.000340631 -0.0016538 -0.000310841)
(0.000622636 -0.00156953 -0.000310841)
(0.000885722 -0.00143756 -0.000310841)
(0.0011219 -0.00126192 -0.000310841)
(0.00132398 -0.00104793 -0.000310841)
(0.00148584 -0.000802104 -0.000310841)
(0.00160255 -0.000531906 -0.000310841)
(0.00167057 -0.000245545 -0.000310841)
(0.00168783 4.82765e-05 -0.000310841)
(0.0016538 0.000340631 -0.000310841)
(0.00156953 0.000622636 -0.000310841)
(0.00143756 0.000885722 -0.000310841)
(0.00126192 0.0011219 -0.000310841)
(0.00104793 0.00132398 -0.000310841)
(0.000802104 0.00148584 -0.000310841)
(0.000531906 0.00160255 -0.000310841)
(0.000245545 0.00167057 -0.000310841)
(-4.82765e-05 0.00168783 -0.000310841)
(-0.000340631 0.0016538 -0.000310841)
(-0.00083536 0.00213743 -0.000489594)
(-0.00119383 0.0019599 -0.000489594)
(-0.00151603 0.00172282 -0.000489594)
(-0.00179216 0.00143339 -0.000489594)
(-0.00201384 0.00110041 -0.000489594)
(-0.00217433 0.000733993 -0.000489594)
(-0.00226875 0.000345274 -0.000489594)
(-0.00229424 -5.39364e-05 -0.000489594)
(-0.00225002 -0.000451508 -0.000489594)
(-0.00213743 -0.00083536 -0.000489594)
(-0.0019599 -0.00119383 -0.000489594)
(-0.00172282 -0.00151603 -0.000489594)
(-0.00143339 -0.00179216 -0.000489594)
(-0.00110041 -0.00201384 -0.000489594)
(-0.000733993 -0.00217433 -0.000489594)
(-0.000345274 -0.00226875 -0.000489594)
(5.39365e-05 -0.00229424 -0.000489594)
(0.000451508 -0.00225002 -0.000489594)
(0.00083536 -0.00213743 -0.000489594)
(0.00119383 -0.0019599 -0.000489594)
(0.00151603 -0.00172282 -0.000489594)
(0.00179216 -0.00143339 -0.000489594)
(0.00201384 -0.00110041 -0.000489594)
(0.00217433 -0.000733993 -0.000489594)
(0.00226875 -0.000345274 -0.000489594)
(0.00229424 5.39365e-05 -0.000489594)
(0.00225002 0.000451508 -0.000489594)
(0.00213743 0.00083536 -0.000489594)
(0.0019599 0.00119383 -0.000489594)
(0.00172282 0.00151603 -0.000489594)
(0.00143339 0.00179216 -0.000489594)
(0.00110041 0.00201384 -0.000489594)
(0.000733993 0.00217433 -0.000489594)
(0.000345274 0.00226875 -0.000489594)
(-5.39365e-05 0.00229424 -0.000489594)
(-0.000451508 0.00225002 -0.000489594)
(-0.000787137 0.00199045 -0.000455433)
(-0.00112082 0.00182352 -0.000455433)
(-0.00142044 0.00160119 -0.000455433)
(-0.0016769 0.00133021 -0.000455433)
(-0.00188242 0.00101881 -0.000455433)
(-0.00203073 0.000676452 -0.000455433)
(-0.00211734 0.000313543 -0.000455433)
(-0.00213962 -5.88935e-05 -0.000455433)
(-0.00209689 -0.000429541 -0.000455433)
(-0.00199045 -0.000787137 -0.000455433)
(-0.00182352 -0.00112082 -0.000455433)
(-0.00160119 -0.00142044 -0.000455433)
(-0.00133021 -0.0016769 -0.000455433)
(-0.00101881 -0.00188242 -0.000455433)
(-0.000676452 -0.00203073 -0.000455433)
(-0.000313543 -0.00211734 -0.000455433)
(5.88936e-05 -0.00213962 -0.000455433)
(0.000429541 -0.00209689 -0.000455433)
(0.000787137 -0.00199045 -0.000455433)
(0.00112082 -0.00182352 -0.000455433)
(0.00142044 -0.00160119 -0.000455433)
(0.0016769 -0.00133021 -0.000455433)
(0.00188242 -0.00101881 -0.000455433)
(0.00203073 -0.000676452 -0.000455433)
(0.00211734 -0.000313543 -0.000455433)
(0.00213962 5.88935e-05 -0.000455433)
(0.00209689 0.000429541 -0.000455433)
(0.00199045 0.000787137 -0.000455433)
(0.00182352 0.00112082 -0.000455433)
(0.00160119 0.00142044 -0.000455433)
(0.00133021 0.0016769 -0.000455433)
(0.00101881 0.00188242 -0.000455433)
(0.000676452 0.00203073 -0.000455433)
(0.000313543 0.00211734 -0.000455433)
(-5.88935e-05 0.00213962 -0.000455433)
(-0.000429541 0.00209689 -0.000455433)
(-0.000743103 0.00184103 -0.000422298)
(-0.00105151 0.00168403 -0.000422298)
(-0.00132796 0.00147585 -0.000422298)
(-0.00156406 0.00122283 -0.000422298)
(-0.00175264 0.000932656 -0.000422298)
(-0.00188797 0.000614144 -0.000422298)
(-0.00196593 0.000276972 -0.000422298)
(-0.00198416 -6.86172e-05 -0.000422298)
(-0.0019421 -0.000412121 -0.000422298)
(-0.00184103 -0.000743103 -0.000422298)
(-0.00168403 -0.00105151 -0.000422298)
(-0.00147585 -0.00132796 -0.000422298)
(-0.00122283 -0.00156406 -0.000422298)
(-0.000932656 -0.00175264 -0.000422298)
(-0.000614144 -0.00188797 -0.000422298)
(-0.000276972 -0.00196593 -0.000422298)
(6.86172e-05 -0.00198416 -0.000422298)
(0.000412121 -0.0019421 -0.000422298)
(0.000743103 -0.00184103 -0.000422298)
(0.00105151 -0.00168403 -0.000422298)
(0.00132796 -0.00147585 -0.000422298)
(0.00156406 -0.00122283 -0.000422298)
(0.00175264 -0.000932656 -0.000422298)
(0.00188797 -0.000614144 -0.000422298)
(0.00196593 -0.000276972 -0.000422298)
(0.00198416 6.86172e-05 -0.000422298)
(0.0019421 0.000412121 -0.000422298)
(0.00184103 0.000743103 -0.000422298)
(0.00168403 0.00105151 -0.000422298)
(0.00147585 0.00132796 -0.000422298)
(0.00122283 0.00156406 -0.000422298)
(0.000932656 0.00175264 -0.000422298)
(0.000614144 0.00188797 -0.000422298)
(0.000276972 0.00196593 -0.000422298)
(-6.86172e-05 0.00198416 -0.000422298)
(-0.000412121 0.0019421 -0.000422298)
(-0.000968148 0.00243585 -0.000620146)
(-0.00137642 0.00223072 -0.000620146)
(-0.00174287 0.00195782 -0.000620146)
(-0.00205636 0.00162543 -0.000620146)
(-0.00230738 0.00124365 -0.000620146)
(-0.00248828 0.000824087 -0.000620146)
(-0.00259358 0.000379482 -0.000620146)
(-0.00262007 -7.66534e-05 -0.000620146)
(-0.00256696 -0.00053046 -0.000620146)
(-0.00243585 -0.000968148 -0.000620146)
(-0.00223072 -0.00137642 -0.000620146)
(-0.00195782 -0.00174287 -0.000620146)
(-0.00162543 -0.00205636 -0.000620146)
(-0.00124365 -0.00230738 -0.000620146)
(-0.000824087 -0.00248828 -0.000620146)
(-0.000379482 -0.00259358 -0.000620146)
(7.66535e-05 -0.00262007 -0.000620146)
(0.00053046 -0.00256696 -0.000620146)
(0.000968148 -0.00243585 -0.000620146)
(0.00137642 -0.00223072 -0.000620146)
(0.00174287 -0.00195782 -0.000620146)
(0.00205636 -0.00162543 -0.000620146)
(0.00230738 -0.00124365 -0.000620146)
(0.00248828 -0.000824087 -0.000620146)
(0.00259358 -0.000379482 -0.000620146)
(0.00262007 7.66535e-05 -0.000620146)
(0.00256696 0.00053046 -0.000620146)
(0.00243585 0.000968148 -0.000620146)
(0.00223072 0.00137642 -0.000620146)
(0.00195782 0.00174287 -0.000620146)
(0.00162543 0.00205636 -0.000620146)
(0.00124365 0.00230738 -0.000620146)
(0.000824087 0.00248828 -0.000620146)
(0.000379482 0.00259358 -0.000620146)
(-7.66535e-05 0.00262007 -0.000620146)
(-0.00053046 0.00256696 -0.000620146)
(-0.000908001 0.0022518 -0.000579635)
(-0.00128523 0.00205991 -0.000579635)
(-0.0016234 0.00180544 -0.000579635)
(-0.00191225 0.00149611 -0.000579635)
(-0.002143 0.00114133 -0.000579635)
(-0.00230863 0.000751859 -0.000579635)
(-0.00240411 0.000339547 -0.000579635)
(-0.00242655 -8.30815e-05 -0.000579635)
(-0.00237526 -0.000503186 -0.000579635)
(-0.0022518 -0.000908001 -0.000579635)
(-0.00205991 -0.00128523 -0.000579635)
(-0.00180544 -0.0016234 -0.000579635)
(-0.00149611 -0.00191225 -0.000579635)
(-0.00114132 -0.002143 -0.000579635)
(-0.000751859 -0.00230863 -0.000579635)
(-0.000339547 -0.00240411 -0.000579635)
(8.30816e-05 -0.00242655 -0.000579635)
(0.000503186 -0.00237526 -0.000579635)
(0.000908001 -0.0022518 -0.000579635)
(0.00128523 -0.00205991 -0.000579635)
(0.0016234 -0.00180544 -0.000579635)
(0.00191225 -0.00149611 -0.000579635)
(0.002143 -0.00114132 -0.000579635)
(0.00230863 -0.000751859 -0.000579635)
(0.00240411 -0.000339547 -0.000579635)
(0.00242655 8.30815e-05 -0.000579635)
(0.00237526 0.000503186 -0.000579635)
(0.0022518 0.000908001 -0.000579635)
(0.00205991 0.00128523 -0.000579635)
(0.00180544 0.0016234 -0.000579635)
(0.00149611 0.00191225 -0.000579635)
(0.00114132 0.002143 -0.000579635)
(0.000751859 0.00230863 -0.000579635)
(0.000339547 0.00240411 -0.000579635)
(-8.30815e-05 0.00242655 -0.000579635)
(-0.000503186 0.00237526 -0.000579635)
(-0.000851961 0.00206563 -0.00054031)
(-0.00119771 0.00188631 -0.00054031)
(-0.00150707 0.00164967 -0.00054031)
(-0.00177064 0.00136291 -0.00054031)
(-0.0019804 0.00103474 -0.000540309)
(-0.00212999 0.000675123 -0.00054031)
(-0.00221487 0.000294996 -0.00054031)
(-0.00223245 -9.40936e-05 -0.00054031)
(-0.00218219 -0.000480324 -0.00054031)
(-0.00206563 -0.000851961 -0.00054031)
(-0.00188631 -0.00119771 -0.00054031)
(-0.00164967 -0.00150707 -0.00054031)
(-0.00136291 -0.00177064 -0.00054031)
(-0.00103474 -0.0019804 -0.00054031)
(-0.000675123 -0.00212999 -0.00054031)
(-0.000294996 -0.00221487 -0.00054031)
(9.40936e-05 -0.00223245 -0.00054031)
(0.000480324 -0.00218219 -0.00054031)
(0.000851961 -0.00206563 -0.00054031)
(0.00119771 -0.00188631 -0.00054031)
(0.00150707 -0.00164967 -0.00054031)
(0.00177064 -0.00136291 -0.00054031)
(0.0019804 -0.00103474 -0.00054031)
(0.00212999 -0.000675123 -0.00054031)
(0.00221487 -0.000294996 -0.00054031)
(0.00223245 9.40936e-05 -0.00054031)
(0.00218219 0.000480324 -0.00054031)