/*--------------------------------*- C++ -*----------------------------------*\
| =========                 |                                                 |
| \\      /  F ield         | OpenFOAM: The Open Source CFD Toolbox           |
|  \\    /   O peration     | Version:  2312                                  |
|   \\  /    A nd           | Website:  www.openfoam.com                      |
|    \\/     M anipulation  |                                                 |
\*---------------------------------------------------------------------------*/
FoamFile
{
    version     2.0;
    format      ascii;
    arch        "LSB;label=32;scalar=64";
    class       volVectorField;
    location    "0.1";
    object      D_0_0;
}
// * * * * * * * * * * * * * * * * * * * * * * * * * * * * * * * * * * * * * //

dimensions      [0 1 0 0 0 0 0];

internalField   nonuniform List<vector> 
1620
(
(-7.33206e-05 0.000174855 -2.1308e-05)
(-0.00010257 0.000159467 -2.13081e-05)
(-0.000128703 0.000139233 -2.13081e-05)
(-0.000150925 0.000114769 -2.13081e-05)
(-0.000168562 8.68175e-05 -2.13081e-05)
(-0.000181077 5.6228e-05 -2.13081e-05)
(-0.000188089 2.39301e-05 -2.1308e-05)
(-0.000189387 -9.09478e-06 -2.1308e-05)
(-0.000184931 -4.18434e-05 -2.1308e-05)
(-0.000174855 -7.33206e-05 -2.1308e-05)
(-0.000159467 -0.00010257 -2.13081e-05)
(-0.000139233 -0.000128703 -2.13081e-05)
(-0.000114769 -0.000150925 -2.13081e-05)
(-8.68175e-05 -0.000168562 -2.13081e-05)
(-5.6228e-05 -0.000181077 -2.13081e-05)
(-2.39301e-05 -0.000188089 -2.1308e-05)
(9.09479e-06 -0.000189387 -2.1308e-05)
(4.18434e-05 -0.000184931 -2.1308e-05)
(7.33207e-05 -0.000174855 -2.1308e-05)
(0.00010257 -0.000159467 -2.13081e-05)
(0.000128703 -0.000139233 -2.13081e-05)
(0.000150925 -0.000114769 -2.13081e-05)
(0.000168562 -8.68175e-05 -2.13081e-05)
(0.000181077 -5.6228e-05 -2.13081e-05)
(0.000188089 -2.39301e-05 -2.1308e-05)
(0.000189387 9.09479e-06 -2.1308e-05)
(0.000184931 4.18434e-05 -2.1308e-05)
(0.000174855 7.33206e-05 -2.1308e-05)
(0.000159467 0.00010257 -2.13081e-05)
(0.000139233 0.000128703 -2.13081e-05)
(0.000114769 0.000150925 -2.13081e-05)
(8.68175e-05 0.000168562 -2.13081e-05)
(5.6228e-05 0.000181077 -2.13081e-05)
(2.39301e-05 0.000188089 -2.1308e-05)
(-9.09478e-06 0.000189387 -2.1308e-05)
(-4.18434e-05 0.000184931 -2.1308e-05)
(-6.02954e-05 0.000168717 -1.5666e-05)
(-8.86768e-05 0.000155684 -1.5666e-05)
(-0.000114364 0.00013792 -1.5666e-05)
(-0.000136576 0.000115966 -1.5666e-05)
(-0.000154638 9.04878e-05 -1.5666e-05)
(-0.000168002 6.22602e-05 -1.5666e-05)
(-0.000176261 3.21412e-05 -1.5666e-05)
(-0.000179165 1.04551e-06 -1.5666e-05)
(-0.000176624 -3.0082e-05 -1.5666e-05)
(-0.000168717 -6.02954e-05 -1.5666e-05)
(-0.000155684 -8.86768e-05 -1.5666e-05)
(-0.00013792 -0.000114364 -1.5666e-05)
(-0.000115966 -0.000136576 -1.5666e-05)
(-9.04878e-05 -0.000154638 -1.5666e-05)
(-6.22602e-05 -0.000168002 -1.5666e-05)
(-3.21412e-05 -0.000176261 -1.5666e-05)
(-1.0455e-06 -0.000179165 -1.5666e-05)
(3.0082e-05 -0.000176624 -1.5666e-05)
(6.02954e-05 -0.000168717 -1.5666e-05)
(8.86769e-05 -0.000155684 -1.5666e-05)
(0.000114364 -0.00013792 -1.5666e-05)
(0.000136576 -0.000115966 -1.5666e-05)
(0.000154638 -9.04878e-05 -1.5666e-05)
(0.000168002 -6.22602e-05 -1.5666e-05)
(0.000176261 -3.21412e-05 -1.5666e-05)
(0.000179165 -1.0455e-06 -1.5666e-05)
(0.000176624 3.0082e-05 -1.5666e-05)
(0.000168717 6.02954e-05 -1.5666e-05)
(0.000155684 8.86768e-05 -1.5666e-05)
(0.00013792 0.000114364 -1.5666e-05)
(0.000115966 0.000136576 -1.5666e-05)
(9.04878e-05 0.000154638 -1.5666e-05)
(6.22602e-05 0.000168002 -1.5666e-05)
(3.21412e-05 0.000176261 -1.5666e-05)
(1.04551e-06 0.000179165 -1.5666e-05)
(-3.0082e-05 0.000176624 -1.5666e-05)
(-4.91921e-05 0.00016236 -1.18062e-05)
(-7.66383e-05 0.000151351 -1.18062e-05)
(-0.000101756 0.000135744 -1.18062e-05)
(-0.000123782 0.000116012 -1.18062e-05)
(-0.000142047 9.27551e-05 -1.18062e-05)
(-0.000155995 6.66797e-05 -1.18062e-05)
(-0.000165204 3.85784e-05 -1.18062e-05)
(-0.000169393 9.30492e-06 -1.18063e-05)
(-0.000168435 -2.02513e-05 -1.18062e-05)
(-0.00016236 -4.91921e-05 -1.18062e-05)
(-0.000151351 -7.66383e-05 -1.18062e-05)
(-0.000135744 -0.000101756 -1.18062e-05)
(-0.000116012 -0.000123782 -1.18062e-05)
(-9.27551e-05 -0.000142047 -1.18062e-05)
(-6.66797e-05 -0.000155995 -1.18062e-05)
(-3.85784e-05 -0.000165204 -1.18062e-05)
(-9.30492e-06 -0.000169393 -1.18063e-05)
(2.02513e-05 -0.000168435 -1.18062e-05)
(4.91921e-05 -0.00016236 -1.18062e-05)
(7.66383e-05 -0.000151351 -1.18062e-05)
(0.000101756 -0.000135744 -1.18062e-05)
(0.000123782 -0.000116012 -1.18062e-05)
(0.000142047 -9.27551e-05 -1.18062e-05)
(0.000155995 -6.66797e-05 -1.18062e-05)
(0.000165204 -3.85784e-05 -1.18062e-05)
(0.000169393 -9.30492e-06 -1.18063e-05)
(0.000168435 2.02513e-05 -1.18062e-05)
(0.00016236 4.91921e-05 -1.18062e-05)
(0.000151351 7.66383e-05 -1.18062e-05)
(0.000135744 0.000101756 -1.18062e-05)
(0.000116012 0.000123782 -1.18062e-05)
(9.27551e-05 0.000142047 -1.18062e-05)
(6.66797e-05 0.000155995 -1.18062e-05)
(3.85784e-05 0.000165204 -1.18062e-05)
(9.30492e-06 0.000169393 -1.18063e-05)
(-2.02513e-05 0.000168435 -1.18062e-05)
(-0.000194058 0.000533156 -6.48632e-05)
(-0.000283692 0.000491358 -6.48633e-05)
(-0.000364705 0.000434631 -6.48633e-05)
(-0.000434637 0.000364698 -6.48632e-05)
(-0.000491363 0.000283683 -6.48631e-05)
(-0.000533159 0.000194049 -6.48632e-05)
(-0.000558756 9.85188e-05 -6.48632e-05)
(-0.000567375 -4.83222e-09 -6.48632e-05)
(-0.000558754 -9.85283e-05 -6.48632e-05)
(-0.000533156 -0.000194058 -6.48632e-05)
(-0.000491358 -0.000283692 -6.48633e-05)
(-0.000434631 -0.000364705 -6.48633e-05)
(-0.000364698 -0.000434637 -6.48632e-05)
(-0.000283683 -0.000491363 -6.48631e-05)
(-0.000194049 -0.000533159 -6.48632e-05)
(-9.85188e-05 -0.000558756 -6.48632e-05)
(4.85697e-09 -0.000567375 -6.48632e-05)
(9.85284e-05 -0.000558754 -6.48632e-05)
(0.000194058 -0.000533156 -6.48632e-05)
(0.000283692 -0.000491358 -6.48633e-05)
(0.000364705 -0.000434631 -6.48633e-05)
(0.000434637 -0.000364698 -6.48632e-05)
(0.000491363 -0.000283683 -6.48631e-05)
(0.000533159 -0.000194049 -6.48632e-05)
(0.000558756 -9.85188e-05 -6.48632e-05)
(0.000567375 4.85634e-09 -6.48632e-05)
(0.000558754 9.85284e-05 -6.48632e-05)
(0.000533156 0.000194058 -6.48632e-05)
(0.000491358 0.000283692 -6.48633e-05)
(0.000434631 0.000364705 -6.48633e-05)
(0.000364698 0.000434637 -6.48631e-05)
(0.000283683 0.000491363 -6.48631e-05)
(0.000194049 0.000533159 -6.48632e-05)
(9.85188e-05 0.000558756 -6.48632e-05)
(-4.83838e-09 0.000567375 -6.48632e-05)
(-9.85283e-05 0.000558754 -6.48632e-05)
(-0.000178911 0.000502542 -5.47894e-05)
(-0.000263458 0.000463839 -5.47894e-05)
(-0.000340001 0.000411044 -5.47894e-05)
(-0.000406212 0.000345759 -5.47894e-05)
(-0.000460082 0.000269968 -5.47894e-05)
(-0.000499971 0.000185974 -5.47894e-05)
(-0.00052467 9.63295e-05 -5.47894e-05)
(-0.000533426 3.75804e-06 -5.47894e-05)
(-0.000525975 -8.89275e-05 -5.47894e-05)
(-0.000502542 -0.000178911 -5.47894e-05)
(-0.000463839 -0.000263458 -5.47894e-05)
(-0.000411044 -0.000340001 -5.47894e-05)
(-0.000345759 -0.000406212 -5.47894e-05)
(-0.000269968 -0.000460082 -5.47894e-05)
(-0.000185974 -0.000499971 -5.47894e-05)
(-9.63295e-05 -0.00052467 -5.47894e-05)
(-3.75801e-06 -0.000533426 -5.47894e-05)
(8.89275e-05 -0.000525975 -5.47894e-05)
(0.000178911 -0.000502542 -5.47894e-05)
(0.000263458 -0.000463839 -5.47894e-05)
(0.000340001 -0.000411044 -5.47894e-05)
(0.000406212 -0.000345759 -5.47894e-05)
(0.000460082 -0.000269968 -5.47894e-05)
(0.000499971 -0.000185974 -5.47894e-05)
(0.00052467 -9.63295e-05 -5.47894e-05)
(0.000533426 -3.75801e-06 -5.47894e-05)
(0.000525975 8.89275e-05 -5.47894e-05)
(0.000502542 0.000178911 -5.47894e-05)
(0.000463839 0.000263458 -5.47894e-05)
(0.000411044 0.000340001 -5.47894e-05)
(0.000345759 0.000406212 -5.47894e-05)
(0.000269968 0.000460082 -5.47894e-05)
(0.000185974 0.000499971 -5.47894e-05)
(9.63295e-05 0.00052467 -5.47894e-05)
(3.75803e-06 0.000533426 -5.47894e-05)
(-8.89275e-05 0.000525975 -5.47894e-05)
(-0.000166399 0.000471056 -4.53261e-05)
(-0.000245669 0.000435005 -4.5326e-05)
(-0.000317475 0.000385736 -4.53261e-05)
(-0.000379634 0.000324747 -4.53261e-05)
(-0.000430258 0.00025389 -4.53261e-05)
(-0.000467809 0.00017532 -4.53261e-05)
(-0.000491146 9.1422e-05 -4.53261e-05)
(-0.00049956 4.7466e-06 -4.53261e-05)
(-0.000492795 -8.20732e-05 -4.53261e-05)
(-0.000471056 -0.000166399 -4.53261e-05)
(-0.000435005 -0.000245669 -4.5326e-05)
(-0.000385736 -0.000317475 -4.53261e-05)
(-0.000324747 -0.000379634 -4.53261e-05)
(-0.00025389 -0.000430258 -4.53261e-05)
(-0.00017532 -0.000467809 -4.53261e-05)
(-9.1422e-05 -0.000491146 -4.53261e-05)
(-4.74658e-06 -0.00049956 -4.53261e-05)
(8.20732e-05 -0.000492795 -4.53261e-05)
(0.000166399 -0.000471056 -4.53261e-05)
(0.000245669 -0.000435005 -4.5326e-05)
(0.000317475 -0.000385736 -4.53261e-05)
(0.000379634 -0.000324747 -4.53261e-05)
(0.000430258 -0.00025389 -4.53261e-05)
(0.000467809 -0.00017532 -4.53261e-05)
(0.000491146 -9.1422e-05 -4.53261e-05)
(0.00049956 -4.74658e-06 -4.53261e-05)
(0.000492795 8.20732e-05 -4.53261e-05)
(0.000471056 0.000166399 -4.53261e-05)
(0.000435005 0.000245669 -4.5326e-05)
(0.000385736 0.000317475 -4.53261e-05)
(0.000324747 0.000379634 -4.53261e-05)
(0.00025389 0.000430258 -4.53261e-05)
(0.00017532 0.000467809 -4.53261e-05)
(9.1422e-05 0.000491146 -4.53261e-05)
(4.74659e-06 0.00049956 -4.53261e-05)
(-8.20732e-05 0.000492795 -4.53261e-05)
(-0.000315205 0.000883774 -0.000125479)
(-0.000463882 0.000815613 -0.000125479)
(-0.000598464 0.00072267 -0.000125479)
(-0.000714863 0.000607768 -0.000125479)
(-0.00080954 0.000474401 -0.000125478)
(-0.00087962 0.000326618 -0.000125478)
(-0.000922973 0.000168912 -0.000125478)
(-0.000938282 6.0729e-06 -0.000125478)
(-0.000925082 -0.000156951 -0.000125479)
(-0.000883774 -0.000315205 -0.000125479)
(-0.000815613 -0.000463882 -0.000125479)
(-0.00072267 -0.000598464 -0.000125479)
(-0.000607768 -0.000714863 -0.000125479)
(-0.0004744 -0.00080954 -0.000125478)
(-0.000326618 -0.00087962 -0.000125478)
(-0.000168912 -0.000922973 -0.000125479)
(-6.07286e-06 -0.000938282 -0.000125479)
(0.000156951 -0.000925082 -0.000125479)
(0.000315205 -0.000883774 -0.000125479)
(0.000463882 -0.000815613 -0.000125479)
(0.000598464 -0.00072267 -0.000125479)
(0.000714863 -0.000607768 -0.000125479)
(0.00080954 -0.0004744 -0.000125478)
(0.00087962 -0.000326618 -0.000125478)
(0.000922973 -0.000168912 -0.000125479)
(0.000938282 -6.07286e-06 -0.000125478)
(0.000925082 0.000156951 -0.000125479)
(0.000883774 0.000315205 -0.000125479)
(0.000815613 0.000463882 -0.000125479)
(0.00072267 0.000598464 -0.000125479)
(0.000607768 0.000714863 -0.000125479)
(0.000474401 0.00080954 -0.000125478)
(0.000326618 0.00087962 -0.000125478)
(0.000168912 0.000922973 -0.000125478)
(6.07289e-06 0.000938282 -0.000125478)
(-0.000156951 0.000925082 -0.000125479)
(-0.000294902 0.000827397 -0.000112006)
(-0.000434098 0.000763618 -0.000112006)
(-0.000560103 0.000676637 -0.000112006)
(-0.000669091 0.000569096 -0.000112006)
(-0.000757748 0.000444264 -0.000112006)
(-0.000823382 0.000305933 -0.000112006)
(-0.000863998 0.000158306 -0.000112006)
(-0.000878361 5.86936e-06 -0.000112006)
(-0.000866036 -0.000146745 -0.000112006)
(-0.000827397 -0.000294902 -0.000112006)
(-0.000763618 -0.000434098 -0.000112006)
(-0.000676637 -0.000560103 -0.000112006)
(-0.000569096 -0.000669091 -0.000112006)
(-0.000444264 -0.000757748 -0.000112006)
(-0.000305933 -0.000823382 -0.000112006)
(-0.000158306 -0.000863998 -0.000112006)
(-5.86932e-06 -0.000878361 -0.000112006)
(0.000146746 -0.000866036 -0.000112006)
(0.000294902 -0.000827397 -0.000112006)
(0.000434098 -0.000763618 -0.000112006)
(0.000560103 -0.000676637 -0.000112006)
(0.000669091 -0.000569096 -0.000112006)
(0.000757748 -0.000444264 -0.000112006)
(0.000823382 -0.000305933 -0.000112006)
(0.000863998 -0.000158306 -0.000112006)
(0.000878361 -5.86932e-06 -0.000112006)
(0.000866036 0.000146746 -0.000112006)
(0.000827397 0.000294902 -0.000112006)
(0.000763618 0.000434098 -0.000112006)
(0.000676637 0.000560103 -0.000112006)
(0.000569096 0.000669091 -0.000112006)
(0.000444264 0.000757748 -0.000112006)
(0.000305933 0.000823382 -0.000112006)
(0.000158306 0.000863998 -0.000112006)
(5.86935e-06 0.000878361 -0.000112006)
(-0.000146745 0.000866036 -0.000112006)
(-0.000277182 0.000769846 -9.90004e-05)
(-0.000406654 0.000710018 -9.90004e-05)
(-0.000523769 0.000628617 -9.90005e-05)
(-0.00062497 0.000528115 -9.90005e-05)
(-0.000707181 0.000411567 -9.90005e-05)
(-0.000767906 0.000282513 -9.90005e-05)
(-0.000805297 0.000144876 -9.90005e-05)
(-0.00081822 2.83675e-06 -9.90005e-05)
(-0.000806282 -0.000139289 -9.90005e-05)
(-0.000769846 -0.000277182 -9.90004e-05)
(-0.000710018 -0.000406654 -9.90004e-05)
(-0.000628617 -0.000523769 -9.90005e-05)
(-0.000528115 -0.00062497 -9.90005e-05)
(-0.000411567 -0.000707181 -9.90005e-05)
(-0.000282513 -0.000767906 -9.90005e-05)
(-0.000144876 -0.000805297 -9.90005e-05)
(-2.83672e-06 -0.00081822 -9.90005e-05)
(0.000139289 -0.000806282 -9.90005e-05)
(0.000277182 -0.000769846 -9.90005e-05)
(0.000406654 -0.000710018 -9.90004e-05)
(0.000523769 -0.000628617 -9.90005e-05)
(0.00062497 -0.000528115 -9.90005e-05)
(0.000707181 -0.000411567 -9.90005e-05)
(0.000767906 -0.000282513 -9.90005e-05)
(0.000805297 -0.000144876 -9.90005e-05)
(0.00081822 -2.83672e-06 -9.90005e-05)
(0.000806282 0.000139289 -9.90005e-05)
(0.000769846 0.000277182 -9.90004e-05)
(0.000710018 0.000406654 -9.90004e-05)
(0.000628617 0.000523769 -9.90005e-05)
(0.000528115 0.00062497 -9.90005e-05)
(0.000411567 0.000707181 -9.90005e-05)
(0.000282513 0.000767906 -9.90005e-05)
(0.000144876 0.000805297 -9.90005e-05)
(2.83674e-06 0.00081822 -9.90005e-05)
(-0.000139289 0.000806282 -9.90005e-05)
(-0.000433683 0.00122074 -0.000200046)
(-0.000639075 0.00112689 -0.000200046)
(-0.000825048 0.000998796 -0.000200046)
(-0.000985953 0.000840355 -0.000200046)
(-0.0011169 0.000656379 -0.000200046)
(-0.00121391 0.000452459 -0.000200046)
(-0.00127404 0.000234792 -0.000200046)
(-0.00129545 9.99041e-06 -0.000200046)
(-0.00127751 -0.000215114 -0.000200046)
(-0.00122074 -0.000433683 -0.000200046)
(-0.00112689 -0.000639075 -0.000200046)
(-0.000998796 -0.000825048 -0.000200046)
(-0.000840355 -0.000985953 -0.000200046)
(-0.000656379 -0.0011169 -0.000200046)
(-0.000452459 -0.00121391 -0.000200046)
(-0.000234792 -0.00127404 -0.000200046)
(-9.99035e-06 -0.00129545 -0.000200046)
(0.000215115 -0.00127751 -0.000200046)
(0.000433683 -0.00122074 -0.000200046)
(0.000639075 -0.00112689 -0.000200046)
(0.000825048 -0.000998796 -0.000200046)
(0.000985953 -0.000840354 -0.000200046)
(0.0011169 -0.000656379 -0.000200046)
(0.00121391 -0.000452459 -0.000200046)
(0.00127404 -0.000234792 -0.000200046)
(0.00129545 -9.99035e-06 -0.000200046)
(0.00127751 0.000215115 -0.000200046)
(0.00122074 0.000433683 -0.000200046)
(0.00112689 0.000639075 -0.000200046)
(0.000998796 0.000825048 -0.000200046)
(0.000840355 0.000985953 -0.000200046)
(0.000656379 0.0011169 -0.000200046)
(0.000452459 0.00121391 -0.000200046)
(0.000234792 0.00127404 -0.000200046)
(9.99039e-06 0.00129545 -0.000200046)
(-0.000215115 0.00127751 -0.000200046)
(-0.000406767 0.00113727 -0.000183329)
(-0.000598073 0.00104936 -0.000183329)
(-0.000771207 0.000929565 -0.000183329)
(-0.000920907 0.000781524 -0.000183329)
(-0.00104263 0.000609737 -0.000183329)
(-0.00113267 0.000419423 -0.000183329)
(-0.00118829 0.000216366 -0.000183329)
(-0.00120781 6.73423e-06 -0.000183329)
(-0.00119063 -0.000203102 -0.000183329)
(-0.00113727 -0.000406767 -0.000183329)
(-0.00104936 -0.000598073 -0.000183329)
(-0.000929564 -0.000771207 -0.000183329)
(-0.000781524 -0.000920907 -0.000183329)
(-0.000609737 -0.00104263 -0.000183329)
(-0.000419423 -0.00113267 -0.000183329)
(-0.000216366 -0.00118829 -0.000183329)
(-6.73417e-06 -0.00120781 -0.000183329)
(0.000203102 -0.00119063 -0.000183329)
(0.000406767 -0.00113727 -0.000183329)
(0.000598073 -0.00104936 -0.000183329)
(0.000771207 -0.000929564 -0.000183329)
(0.000920907 -0.000781524 -0.000183329)
(0.00104263 -0.000609737 -0.000183329)
(0.00113267 -0.000419423 -0.000183329)
(0.00118829 -0.000216366 -0.000183329)
(0.00120781 -6.73417e-06 -0.000183329)
(0.00119063 0.000203102 -0.000183329)
(0.00113727 0.000406767 -0.000183329)
(0.00104936 0.000598073 -0.000183329)
(0.000929565 0.000771207 -0.000183329)
(0.000781524 0.000920907 -0.000183329)
(0.000609737 0.00104263 -0.000183329)
(0.000419423 0.00113267 -0.000183329)
(0.000216366 0.00118829 -0.000183329)
(6.73421e-06 0.00120781 -0.000183329)
(-0.000203102 0.00119063 -0.000183329)
(-0.000382516 0.00105241 -0.000167095)
(-0.000559454 0.000969997 -0.000167095)
(-0.000719392 0.000858112 -0.000167095)
(-0.000857473 0.000720154 -0.000167095)
(-0.000969499 0.000560315 -0.000167095)
(-0.00105207 0.000383451 -0.000167095)
(-0.00110267 0.000194936 -0.000167095)
(-0.00111977 4.97694e-07 -0.000167095)
(-0.00110284 -0.000193956 -0.000167095)
(-0.00105241 -0.000382516 -0.000167095)
(-0.000969997 -0.000559454 -0.000167095)
(-0.000858112 -0.000719392 -0.000167095)
(-0.000720154 -0.000857473 -0.000167095)
(-0.000560315 -0.000969499 -0.000167095)
(-0.000383451 -0.00105207 -0.000167095)
(-0.000194936 -0.00110267 -0.000167095)
(-4.97644e-07 -0.00111977 -0.000167095)
(0.000193956 -0.00110284 -0.000167095)
(0.000382516 -0.00105241 -0.000167095)
(0.000559454 -0.000969997 -0.000167095)
(0.000719392 -0.000858112 -0.000167095)
(0.000857473 -0.000720154 -0.000167095)
(0.000969499 -0.000560315 -0.000167095)
(0.00105207 -0.000383451 -0.000167095)
(0.00110267 -0.000194936 -0.000167095)
(0.00111977 -4.97644e-07 -0.000167095)
(0.00110284 0.000193956 -0.000167095)
(0.00105241 0.000382516 -0.000167095)
(0.000969997 0.000559454 -0.000167095)
(0.000858112 0.000719392 -0.000167095)
(0.000720154 0.000857473 -0.000167095)
(0.000560315 0.000969499 -0.000167095)
(0.000383451 0.00105207 -0.000167095)
(0.000194936 0.00110267 -0.000167095)
(4.97679e-07 0.00111977 -0.000167095)
(-0.000193956 0.00110284 -0.000167095)
(-0.000548347 0.00153822 -0.000286572)
(-0.000807126 0.00141963 -0.000286572)
(-0.00104138 0.00125791 -0.000286572)
(-0.00124399 0.00105797 -0.000286572)
(-0.00140881 0.000825875 -0.000286572)
(-0.00153082 0.000568691 -0.000286572)
(-0.00160631 0.000294228 -0.000286572)
(-0.001633 1.08248e-05 -0.000286572)
(-0.00161007 -0.000272907 -0.000286572)
(-0.00153822 -0.000548347 -0.000286572)
(-0.00141963 -0.000807126 -0.000286572)
(-0.00125791 -0.00104138 -0.000286572)
(-0.00105796 -0.00124399 -0.000286572)
(-0.000825875 -0.00140881 -0.000286572)
(-0.000568691 -0.00153082 -0.000286572)
(-0.000294228 -0.00160631 -0.000286572)
(-1.08247e-05 -0.001633 -0.000286572)
(0.000272907 -0.00161007 -0.000286572)
(0.000548347 -0.00153822 -0.000286572)
(0.000807126 -0.00141963 -0.000286572)
(0.00104138 -0.00125791 -0.000286572)
(0.00124399 -0.00105796 -0.000286572)
(0.00140881 -0.000825875 -0.000286572)
(0.00153082 -0.000568691 -0.000286572)
(0.00160631 -0.000294228 -0.000286572)
(0.001633 -1.08247e-05 -0.000286572)
(0.00161007 0.000272907 -0.000286572)
(0.00153822 0.000548347 -0.000286572)
(0.00141963 0.000807126 -0.000286572)
(0.00125791 0.00104138 -0.000286572)
(0.00105797 0.00124399 -0.000286572)
(0.000825875 0.00140881 -0.000286572)
(0.000568691 0.00153082 -0.000286572)
(0.000294228 0.00160631 -0.000286572)
(1.08248e-05 0.001633 -0.000286572)
(-0.000272907 0.00161007 -0.000286572)
(-0.000513643 0.00142598 -0.000266286)
(-0.000753458 0.00131512 -0.000266286)
(-0.00097038 0.00116431 -0.000266286)
(-0.00115782 0.000978112 -0.000266286)
(-0.00131007 0.0007622 -0.000266286)
(-0.00142253 0.000523128 -0.000266286)
(-0.00149175 0.000268162 -0.000266286)
(-0.00151566 5.04752e-06 -0.000266286)
(-0.00149351 -0.000258221 -0.000266286)
(-0.00142598 -0.000513643 -0.000266286)
(-0.00131512 -0.000753458 -0.000266286)
(-0.00116431 -0.00097038 -0.000266286)
(-0.000978112 -0.00115782 -0.000266286)
(-0.0007622 -0.00131007 -0.000266286)
(-0.000523128 -0.00142253 -0.000266286)
(-0.000268162 -0.00149175 -0.000266286)
(-5.04745e-06 -0.00151566 -0.000266286)
(0.000258221 -0.00149351 -0.000266286)
(0.000513643 -0.00142598 -0.000266286)
(0.000753458 -0.00131512 -0.000266286)
(0.00097038 -0.00116431 -0.000266286)
(0.00115782 -0.000978112 -0.000266286)
(0.00131007 -0.0007622 -0.000266286)
(0.00142253 -0.000523128 -0.000266286)
(0.00149175 -0.000268162 -0.000266286)
(0.00151566 -5.04745e-06 -0.000266286)
(0.00149351 0.000258221 -0.000266286)
(0.00142598 0.000513643 -0.000266286)
(0.00131512 0.000753458 -0.000266286)
(0.00116431 0.00097038 -0.000266286)
(0.000978112 0.00115782 -0.000266286)
(0.0007622 0.00131007 -0.000266286)
(0.000523128 0.00142253 -0.000266286)
(0.000268162 0.00149175 -0.000266286)
(5.04749e-06 0.00151566 -0.000266286)
(-0.000258221 0.00149351 -0.000266286)
(-0.000481741 0.00131225 -0.000246527)
(-0.000702292 0.00120866 -0.000246527)
(-0.000901505 0.00106835 -0.000246527)
(-0.00107333 0.000895573 -0.000246527)
(-0.00121253 0.000695587 -0.000246527)
(-0.0013149 0.000474465 -0.000246527)
(-0.00137731 0.000238927 -0.000246527)
(-0.00139788 -3.87141e-06 -0.000246527)
(-0.00137597 -0.000246552 -0.000246527)
(-0.00131225 -0.000481741 -0.000246527)
(-0.00120866 -0.000702292 -0.000246527)
(-0.00106835 -0.000901505 -0.000246527)
(-0.000895573 -0.00107333 -0.000246527)
(-0.000695586 -0.00121253 -0.000246527)
(-0.000474465 -0.0013149 -0.000246527)
(-0.000238927 -0.00137731 -0.000246527)
(3.87147e-06 -0.00139788 -0.000246527)
(0.000246552 -0.00137597 -0.000246527)
(0.000481741 -0.00131225 -0.000246527)
(0.000702292 -0.00120866 -0.000246527)
(0.000901505 -0.00106835 -0.000246527)
(0.00107333 -0.000895573 -0.000246527)
(0.00121253 -0.000695586 -0.000246527)
(0.0013149 -0.000474465 -0.000246527)
(0.00137731 -0.000238927 -0.000246527)
(0.00139788 3.87147e-06 -0.000246527)
(0.00137597 0.000246552 -0.000246527)
(0.00131225 0.000481741 -0.000246527)
(0.00120866 0.000702292 -0.000246527)
(0.00106835 0.000901505 -0.000246527)
(0.000895573 0.00107333 -0.000246527)
(0.000695587 0.00121253 -0.000246527)
(0.000474465 0.0013149 -0.000246527)
(0.000238927 0.00137731 -0.000246527)
(-3.87143e-06 0.00139788 -0.000246527)
(-0.000246552 0.00137597 -0.000246527)
(-0.000658151 0.00183012 -0.000382619)
(-0.000965949 0.00168803 -0.000382619)
(-0.0012444 0.00149465 -0.000382619)
(-0.00148503 0.00125585 -0.000382619)
(-0.00168055 0.000978901 -0.000382619)
(-0.001825 0.000672205 -0.000382619)
(-0.001914 0.000345084 -0.000382619)
(-0.00194485 7.47793e-06 -0.000382619)
(-0.0019166 -0.000330355 -0.000382619)
(-0.00183012 -0.000658151 -0.000382619)
(-0.00168803 -0.000965949 -0.000382619)
(-0.00149465 -0.0012444 -0.000382619)
(-0.00125585 -0.00148503 -0.000382619)
(-0.000978901 -0.00168055 -0.000382619)
(-0.000672205 -0.001825 -0.000382619)
(-0.000345084 -0.001914 -0.000382619)
(-7.47783e-06 -0.00194485 -0.000382619)
(0.000330355 -0.0019166 -0.000382619)
(0.000658151 -0.00183012 -0.000382619)
(0.000965949 -0.00168803 -0.000382619)
(0.0012444 -0.00149465 -0.000382619)
(0.00148503 -0.00125585 -0.000382619)
(0.00168055 -0.000978901 -0.000382619)
(0.001825 -0.000672205 -0.000382619)
(0.001914 -0.000345084 -0.000382619)
(0.00194485 -7.47784e-06 -0.000382619)
(0.0019166 0.000330355 -0.000382619)
(0.00183012 0.000658151 -0.000382619)
(0.00168803 0.000965949 -0.000382619)
(0.00149465 0.0012444 -0.000382619)
(0.00125585 0.00148503 -0.000382619)
(0.000978901 0.00168055 -0.000382619)
(0.000672205 0.001825 -0.000382619)
(0.000345084 0.001914 -0.000382619)
(7.47789e-06 0.00194485 -0.000382619)
(-0.000330355 0.0019166 -0.000382619)
(-0.000614456 0.00168697 -0.000358102)
(-0.00089806 0.00155464 -0.000358102)
(-0.00115438 0.00137507 -0.000358102)
(-0.00137562 0.00115373 -0.000358102)
(-0.00155506 0.000897326 -0.000358102)
(-0.00168725 0.00061366 -0.000358102)
(-0.00176818 0.000311349 -0.000358102)
(-0.00179539 -4.22765e-07 -0.000358102)
(-0.00176804 -0.000312182 -0.000358102)
(-0.00168697 -0.000614456 -0.000358102)
(-0.00155464 -0.00089806 -0.000358102)
(-0.00137507 -0.00115438 -0.000358102)
(-0.00115373 -0.00137562 -0.000358102)
(-0.000897326 -0.00155506 -0.000358102)
(-0.00061366 -0.00168725 -0.000358102)
(-0.000311349 -0.00176818 -0.000358102)
(4.22852e-07 -0.00179539 -0.000358102)
(0.000312182 -0.00176804 -0.000358102)
(0.000614456 -0.00168697 -0.000358102)
(0.00089806 -0.00155464 -0.000358102)
(0.00115438 -0.00137507 -0.000358102)
(0.00137562 -0.00115373 -0.000358102)
(0.00155506 -0.000897326 -0.000358102)
(0.00168725 -0.00061366 -0.000358102)
(0.00176818 -0.000311349 -0.000358102)
(0.00179539 4.22844e-07 -0.000358102)
(0.00176804 0.000312182 -0.000358102)
(0.00168697 0.000614456 -0.000358102)
(0.00155464 0.00089806 -0.000358102)
(0.00137507 0.00115438 -0.000358102)
(0.00115373 0.00137562 -0.000358102)
(0.000897326 0.00155506 -0.000358102)
(0.00061366 0.00168725 -0.000358102)
(0.000311349 0.00176818 -0.000358102)
(-4.22794e-07 0.00179539 -0.000358102)
(-0.000312182 0.00176804 -0.000358102)
(-0.000573701 0.0015424 -0.000334156)
(-0.000832821 0.00141935 -0.000334156)
(-0.00106663 0.00125316 -0.000334156)
(-0.00126804 0.00104891 -0.000334156)
(-0.00143092 0.000812778 -0.000334156)
(-0.00155031 0.000551955 -0.000334156)
(-0.00162261 0.00027436 -0.000334156)
(-0.0016456 -1.15709e-05 -0.000334156)
(-0.00161859 -0.000297151 -0.000334156)
(-0.0015424 -0.000573701 -0.000334156)
(-0.00141934 -0.000832821 -0.000334156)
(-0.00125316 -0.00106663 -0.000334156)
(-0.00104891 -0.00126804 -0.000334156)
(-0.000812778 -0.00143092 -0.000334156)
(-0.000551955 -0.00155031 -0.000334156)
(-0.00027436 -0.00162261 -0.000334156)
(1.1571e-05 -0.0016456 -0.000334156)
(0.000297151 -0.00161859 -0.000334156)
(0.000573702 -0.0015424 -0.000334156)
(0.000832821 -0.00141934 -0.000334156)
(0.00106663 -0.00125316 -0.000334156)
(0.00126804 -0.00104891 -0.000334156)
(0.00143092 -0.000812778 -0.000334156)
(0.00155031 -0.000551955 -0.000334156)
(0.00162261 -0.00027436 -0.000334156)
(0.0016456 1.1571e-05 -0.000334156)
(0.00161859 0.000297151 -0.000334156)
(0.0015424 0.000573702 -0.000334156)
(0.00141935 0.000832821 -0.000334156)
(0.00125316 0.00106663 -0.000334156)
(0.00104891 0.00126804 -0.000334156)
(0.000812778 0.00143092 -0.000334156)
(0.000551955 0.00155031 -0.000334156)
(0.00027436 0.00162261 -0.000334156)
(-1.15709e-05 0.0016456 -0.000334156)
(-0.000297151 0.00161859 -0.000334156)
(-0.000761671 0.00208945 -0.000485545)
(-0.00111293 0.00192544 -0.000485545)
(-0.00143037 0.00170293 -0.000485545)
(-0.00170435 0.00142868 -0.000485545)
(-0.00192654 0.00111102 -0.000485545)
(-0.0020902 0.000759596 -0.000485545)
(-0.00219035 0.000385096 -0.000485545)
(-0.00222394 -1.10476e-06 -0.000485545)
(-0.00218997 -0.000387272 -0.000485545)
(-0.00208945 -0.000761671 -0.000485545)
(-0.00192544 -0.00111293 -0.000485545)
(-0.00170293 -0.00143037 -0.000485545)
(-0.00142868 -0.00170435 -0.000485545)
(-0.00111102 -0.00192654 -0.000485545)
(-0.000759596 -0.0020902 -0.000485545)
(-0.000385096 -0.00219035 -0.000485545)
(1.10487e-06 -0.00222394 -0.000485545)
(0.000387272 -0.00218997 -0.000485545)
(0.000761671 -0.00208945 -0.000485545)
(0.00111293 -0.00192544 -0.000485545)
(0.00143037 -0.00170293 -0.000485545)
(0.00170435 -0.00142868 -0.000485545)
(0.00192654 -0.00111102 -0.000485545)
(0.0020902 -0.000759596 -0.000485545)
(0.00219035 -0.000385096 -0.000485545)
(0.00222394 1.10485e-06 -0.000485545)
(0.00218997 0.000387272 -0.000485545)
(0.00208945 0.000761671 -0.000485545)
(0.00192544 0.00111293 -0.000485545)
(0.00170293 0.00143037 -0.000485545)
(0.00142868 0.00170435 -0.000485545)
(0.00111102 0.00192654 -0.000485545)
(0.000759596 0.0020902 -0.000485545)
(0.000385096 0.00219035 -0.000485545)
(-1.1048e-06 0.00222394 -0.000485545)
(-0.000387272 0.00218997 -0.000485545)
(-0.00070748 0.0019129 -0.000455953)
(-0.0010289 0.00176099 -0.000455953)
(-0.00131906 0.00155557 -0.000455953)
(-0.00156915 0.00130288 -0.000455953)
(-0.00177155 0.00101061 -0.000455953)
(-0.00192013 0.000687628 -0.000455953)
(-0.00201036 0.000343754 -0.000455953)
(-0.00203951 -1.05632e-05 -0.000455953)
(-0.00200669 -0.000364561 -0.000455953)
(-0.0019129 -0.00070748 -0.000455953)
(-0.00176099 -0.0010289 -0.000455953)
(-0.00155557 -0.00131906 -0.000455953)
(-0.00130288 -0.00156915 -0.000455953)
(-0.00101061 -0.00177155 -0.000455953)
(-0.000687628 -0.00192013 -0.000455953)
(-0.000343754 -0.00201036 -0.000455953)
(1.05633e-05 -0.00203951 -0.000455953)
(0.000364561 -0.00200669 -0.000455953)
(0.00070748 -0.0019129 -0.000455953)
(0.0010289 -0.00176099 -0.000455953)
(0.00131906 -0.00155557 -0.000455953)
(0.00156915 -0.00130288 -0.000455953)
(0.00177155 -0.00101061 -0.000455953)
(0.00192013 -0.000687628 -0.000455953)
(0.00201036 -0.000343754 -0.000455953)
(0.00203951 1.05633e-05 -0.000455953)
(0.00200669 0.000364561 -0.000455953)
(0.0019129 0.00070748 -0.000455953)
(0.00176099 0.0010289 -0.000455953)
(0.00155557 0.00131906 -0.000455953)
(0.00130288 0.00156915 -0.000455953)
(0.00101061 0.00177155 -0.000455953)
(0.000687628 0.00192013 -0.000455953)
(0.000343754 0.00201036 -0.000455953)
(-1.05632e-05 0.00203951 -0.000455953)
(-0.000364561 0.00200669 -0.000455953)
(-0.000656325 0.00173521 -0.000426989)
(-0.000947669 0.00159488 -0.000426989)
(-0.00121022 0.00140609 -0.000426989)
(-0.001436 0.00117457 -0.000426989)
(-0.00161814 0.000907369 -0.000426989)
(-0.00175112 0.000612597 -0.000426989)
(-0.0018309 0.000299211 -0.000426989)
(-0.00185504 -2.32668e-05 -0.000426989)
(-0.00182282 -0.000345037 -0.000426989)
(-0.00173521 -0.000656325 -0.000426989)
(-0.00159488 -0.000947669 -0.000426989)
(-0.00140609 -0.00121022 -0.000426989)
(-0.00117457 -0.001436 -0.000426989)
(-0.000907369 -0.00161814 -0.000426989)
(-0.000612597 -0.00175112 -0.000426989)
(-0.000299211 -0.0018309 -0.000426989)
(2.32669e-05 -0.00185504 -0.000426989)
(0.000345037 -0.00182282 -0.000426989)
(0.000656325 -0.00173521 -0.000426989)
(0.000947669 -0.00159488 -0.000426989)
(0.00121022 -0.00140609 -0.000426989)
(0.001436 -0.00117457 -0.000426989)
(0.00161814 -0.000907369 -0.000426989)
(0.00175112 -0.000612597 -0.000426989)