/*--------------------------------*- C++ -*----------------------------------*\
| =========                 |                                                 |
| \\      /  F ield         | OpenFOAM: The Open Source CFD Toolbox           |
|  \\    /   O peration     | Version:  2312                                  |
|   \\  /    A nd           | Website:  www.openfoam.com                      |
|    \\/     M anipulation  |                                                 |
\*---------------------------------------------------------------------------*/
FoamFile
{
    version     2.0;
    format      ascii;
    arch        "LSB;label=32;scalar=64";
    class       volSymmTensorField;
    location    "0.1";
    object      sigma;
}
// * * * * * * * * * * * * * * * * * * * * * * * * * * * * * * * * * * * * * //

dimensions      [1 -1 -2 0 0 0 0];

internalField   nonuniform List<symmTensor> 
1620
(
(4545.92 -385.738 -46.7192 7562.22 1917.52 6965.59)
(4768.81 -878.289 -378.979 7339.35 1880.28 6965.6)
(5146.71 -1264.92 -699.734 6961.44 1785.9 6965.59)
(5634.02 -1498.96 -999.223 6474.04 1637.26 6965.57)
(6172.01 -1552.21 -1268.35 5936.04 1438.88 6965.57)
(6695.8 -1418.25 -1498.93 5412.29 1196.77 6965.58)
(7142.19 -1113.23 -1683.98 4965.93 918.303 6965.57)
(7457.32 -673.933 -1817.86 4650.81 611.933 6965.59)
(7603.2 -153.347 -1896.5 4504.94 286.968 6965.59)
(7562.22 385.738 -1917.52 4545.92 -46.7192 6965.59)
(7339.35 878.289 -1880.28 4768.81 -378.979 6965.6)
(6961.44 1264.92 -1785.9 5146.71 -699.734 6965.59)
(6474.04 1498.96 -1637.26 5634.02 -999.223 6965.57)
(5936.04 1552.21 -1438.88 6172.01 -1268.35 6965.57)
(5412.29 1418.25 -1196.77 6695.8 -1498.93 6965.58)
(4965.93 1113.23 -918.303 7142.19 -1683.98 6965.57)
(4650.81 673.933 -611.933 7457.32 -1817.86 6965.59)
(4504.94 153.347 -286.968 7603.2 -1896.5 6965.59)
(4545.92 -385.738 46.7192 7562.22 -1917.52 6965.59)
(4768.81 -878.289 378.979 7339.35 -1880.28 6965.6)
(5146.71 -1264.92 699.734 6961.44 -1785.9 6965.59)
(5634.02 -1498.96 999.223 6474.04 -1637.26 6965.57)
(6172.01 -1552.21 1268.35 5936.04 -1438.88 6965.57)
(6695.8 -1418.25 1498.93 5412.29 -1196.77 6965.58)
(7142.19 -1113.23 1683.98 4965.93 -918.303 6965.57)
(7457.32 -673.933 1817.86 4650.81 -611.933 6965.59)
(7603.2 -153.347 1896.5 4504.94 -286.968 6965.59)
(7562.22 385.738 1917.52 4545.92 46.7192 6965.59)
(7339.35 878.289 1880.28 4768.81 378.979 6965.6)
(6961.44 1264.92 1785.9 5146.71 699.734 6965.59)
(6474.04 1498.96 1637.26 5634.02 999.223 6965.57)
(5936.04 1552.21 1438.88 6172.01 1268.35 6965.57)
(5412.29 1418.25 1196.77 6695.8 1498.93 6965.58)
(4965.93 1113.23 918.303 7142.19 1683.98 6965.57)
(4650.81 673.933 611.933 7457.32 1817.86 6965.59)
(4504.94 153.347 286.968 7603.2 1896.5 6965.59)
(3576.13 -680.652 176.394 9526.34 -396.933 3737.49)
(3988.35 -1657.15 242.641 9114.13 -360.272 3737.49)
(4709.67 -2433.78 301.516 8392.76 -312.667 3737.46)
(5653.15 -2916.84 351.22 7449.32 -255.547 3737.48)
(6704.92 -3048.1 390.25 6397.53 -190.666 3737.48)
(7738.14 -2811.72 417.441 5364.29 -120.01 3737.47)
(8628.24 -2236.2 431.954 4474.22 -45.7059 3737.48)
(9267.81 -1390.95 433.325 3834.65 29.9971 3737.48)
(9579.71 -377.942 421.533 3522.74 104.788 3737.47)
(9526.34 680.652 396.933 3576.13 176.394 3737.49)
(9114.13 1657.15 360.272 3988.35 242.641 3737.49)
(8392.76 2433.78 312.667 4709.67 301.516 3737.46)
(7449.32 2916.84 255.547 5653.15 351.22 3737.48)
(6397.53 3048.1 190.666 6704.92 390.25 3737.48)
(5364.29 2811.72 120.01 7738.14 417.441 3737.47)
(4474.22 2236.2 45.7059 8628.24 431.954 3737.48)
(3834.65 1390.95 -29.9971 9267.81 433.325 3737.48)
(3522.74 377.942 -104.788 9579.71 421.533 3737.47)
(3576.13 -680.652 -176.394 9526.34 396.933 3737.49)
(3988.35 -1657.15 -242.641 9114.13 360.272 3737.49)
(4709.67 -2433.78 -301.516 8392.76 312.667 3737.47)
(5653.15 -2916.84 -351.22 7449.32 255.547 3737.48)
(6704.92 -3048.1 -390.25 6397.53 190.666 3737.48)
(7738.14 -2811.72 -417.441 5364.29 120.01 3737.47)
(8628.24 -2236.2 -431.954 4474.22 45.7059 3737.48)
(9267.81 -1390.95 -433.325 3834.65 -29.9971 3737.48)
(9579.71 -377.942 -421.533 3522.74 -104.788 3737.47)
(9526.34 680.652 -396.933 3576.13 -176.394 3737.49)
(9114.13 1657.15 -360.272 3988.35 -242.641 3737.49)
(8392.76 2433.78 -312.667 4709.67 -301.516 3737.46)
(7449.32 2916.84 -255.547 5653.15 -351.22 3737.48)
(6397.53 3048.1 -190.666 6704.91 -390.25 3737.48)
(5364.29 2811.72 -120.01 7738.14 -417.441 3737.47)
(4474.22 2236.2 -45.7059 8628.24 -431.954 3737.48)
(3834.65 1390.95 29.9971 9267.81 -433.325 3737.48)
(3522.74 377.942 104.788 9579.71 -421.533 3737.47)
(1539.89 -621.591 569.727 6541.34 -4211.67 4493.15)
(1903.31 -1439.4 1292.42 6177.94 -4048.76 4493.16)
(2524.48 -2083.6 1975.85 5556.69 -3762.82 4493.13)
(3328.54 -2476.49 2599.24 4752.62 -3362.55 4493.11)
(4218.52 -2570.68 3143.64 3862.71 -2860.11 4493.12)
(5086.99 -2354.79 3592.54 2994.2 -2270.78 4493.13)
(5829.29 -1854.89 3932.28 2251.94 -1612.44 4493.16)
(6355.81 -1131.26 4152.54 1725.37 -905.102 4493.12)
(6603.12 -271.19 4246.62 1478.1 -170.275 4493.14)
(6541.34 621.591 4211.67 1539.89 569.727 4493.15)
(6177.94 1439.4 4048.76 1903.31 1292.42 4493.16)
(5556.69 2083.6 3762.82 2524.48 1975.85 4493.13)
(4752.62 2476.49 3362.55 3328.54 2599.24 4493.11)
(3862.71 2570.68 2860.11 4218.52 3143.64 4493.12)
(2994.2 2354.79 2270.78 5086.99 3592.54 4493.13)
(2251.94 1854.89 1612.44 5829.29 3932.28 4493.16)
(1725.37 1131.26 905.102 6355.81 4152.54 4493.12)
(1478.1 271.19 170.275 6603.12 4246.62 4493.14)
(1539.89 -621.591 -569.727 6541.34 4211.67 4493.15)
(1903.31 -1439.4 -1292.42 6177.94 4048.76 4493.16)
(2524.48 -2083.6 -1975.85 5556.7 3762.82 4493.13)
(3328.54 -2476.49 -2599.24 4752.62 3362.55 4493.11)
(4218.52 -2570.68 -3143.64 3862.71 2860.11 4493.12)
(5086.99 -2354.79 -3592.54 2994.2 2270.78 4493.13)
(5829.29 -1854.89 -3932.28 2251.94 1612.44 4493.16)
(6355.81 -1131.26 -4152.54 1725.37 905.102 4493.12)
(6603.12 -271.19 -4246.62 1478.1 170.275 4493.14)
(6541.34 621.591 -4211.67 1539.89 -569.727 4493.15)
(6177.94 1439.4 -4048.76 1903.31 -1292.42 4493.16)
(5556.69 2083.6 -3762.82 2524.48 -1975.85 4493.13)
(4752.62 2476.49 -3362.55 3328.54 -2599.24 4493.11)
(3862.71 2570.68 -2860.11 4218.51 -3143.64 4493.12)
(2994.2 2354.79 -2270.78 5086.98 -3592.54 4493.13)
(2251.94 1854.89 -1612.44 5829.29 -3932.28 4493.16)
(1725.37 1131.26 -905.102 6355.81 -4152.54 4493.12)
(1478.1 271.19 -170.275 6603.12 -4246.62 4493.14)
(574.242 -413.991 -76.2333 3195.07 1943.32 3341.7)
(794.862 -837.201 -412.521 2974.44 1900.56 3341.72)
(1146.96 -1159.45 -736.287 2622.41 1800.05 3341.73)
(1587.95 -1341.84 -1037.68 2181.3 1644.85 3341.7)
(2064.78 -1362.38 -1307.54 1704.48 1439.67 3341.71)
(2519.88 -1218.61 -1537.66 1249.41 1190.76 3341.73)
(2898.37 -927.859 -1721.08 870.915 905.647 3341.69)
(3154.6 -525.184 -1852.2 614.731 593.025 3341.73)
(3257.64 -59.1738 -1927.03 511.685 262.39 3341.7)
(3195.07 413.991 -1943.32 574.242 -76.2333 3341.7)
(2974.44 837.201 -1900.56 794.862 -412.521 3341.72)
(2622.41 1159.45 -1800.05 1146.96 -736.287 3341.73)
(2181.3 1341.84 -1644.85 1587.95 -1037.68 3341.7)
(1704.48 1362.38 -1439.67 2064.78 -1307.54 3341.71)
(1249.41 1218.61 -1190.76 2519.88 -1537.66 3341.73)
(870.915 927.859 -905.647 2898.37 -1721.08 3341.69)
(614.731 525.184 -593.025 3154.6 -1852.2 3341.73)
(511.685 59.1738 -262.39 3257.64 -1927.03 3341.7)
(574.242 -413.991 76.2333 3195.07 -1943.32 3341.7)
(794.862 -837.201 412.521 2974.44 -1900.56 3341.72)
(1146.96 -1159.45 736.287 2622.41 -1800.05 3341.73)
(1587.95 -1341.84 1037.68 2181.3 -1644.85 3341.7)
(2064.78 -1362.38 1307.54 1704.48 -1439.67 3341.71)
(2519.88 -1218.61 1537.66 1249.41 -1190.76 3341.73)
(2898.37 -927.859 1721.08 870.915 -905.647 3341.69)
(3154.6 -525.184 1852.2 614.731 -593.025 3341.73)
(3257.64 -59.1738 1927.03 511.685 -262.39 3341.7)
(3195.07 413.991 1943.32 574.242 76.2333 3341.7)
(2974.44 837.201 1900.56 794.862 412.521 3341.72)
(2622.41 1159.45 1800.05 1146.96 736.287 3341.73)
(2181.3 1341.84 1644.85 1587.95 1037.68 3341.7)
(1704.48 1362.38 1439.67 2064.78 1307.54 3341.71)
(1249.41 1218.61 1190.76 2519.88 1537.66 3341.73)
(870.916 927.859 905.647 2898.37 1721.08 3341.69)
(614.731 525.184 593.025 3154.6 1852.2 3341.73)
(511.685 59.1738 262.39 3257.64 1927.03 3341.7)
(-560.89 -740.007 170.959 5051.54 -206.765 -401.332)
(-138.568 -1655.15 204.261 4629.2 -173.92 -401.334)
(571.292 -2370.67 231.361 3919.33 -135.813 -401.341)
(1483.1 -2800.25 251.423 3007.59 -93.5654 -401.303)
(2486.81 -2892.08 263.855 2003.88 -48.4885 -401.306)
(3461.37 -2635.08 268.261 1029.27 -1.93047 -401.322)
(4289.31 -2060.25 264.532 201.376 44.6771 -401.309)
(4870.64 -1236.92 252.749 -380.046 89.9355 -401.351)
(5135.39 -264.415 233.31 -644.753 132.458 -401.335)
(5051.54 740.007 206.765 -560.889 170.959 -401.331)
(4629.2 1655.15 173.92 -138.568 204.261 -401.334)
(3919.33 2370.67 135.813 571.292 231.361 -401.342)
(3007.59 2800.25 93.5654 1483.1 251.423 -401.303)
(2003.88 2892.08 48.4885 2486.81 263.855 -401.306)
(1029.27 2635.08 1.93046 3461.37 268.261 -401.322)
(201.376 2060.25 -44.6771 4289.31 264.532 -401.309)
(-380.046 1236.92 -89.9355 4870.64 252.749 -401.351)
(-644.753 264.415 -132.458 5135.39 233.31 -401.335)
(-560.889 -740.007 -170.959 5051.54 206.765 -401.331)
(-138.568 -1655.15 -204.261 4629.2 173.92 -401.334)
(571.292 -2370.67 -231.361 3919.33 135.813 -401.342)
(1483.1 -2800.25 -251.423 3007.59 93.5654 -401.303)
(2486.81 -2892.08 -263.855 2003.88 48.4885 -401.306)
(3461.37 -2635.08 -268.261 1029.27 1.93047 -401.322)
(4289.31 -2060.25 -264.532 201.376 -44.6771 -401.309)
(4870.64 -1236.92 -252.749 -380.046 -89.9355 -401.351)
(5135.39 -264.415 -233.31 -644.753 -132.458 -401.335)
(5051.54 740.007 -206.765 -560.889 -170.959 -401.331)
(4629.2 1655.15 -173.92 -138.568 -204.261 -401.334)
(3919.33 2370.67 -135.813 571.292 -231.361 -401.342)
(3007.59 2800.25 -93.5654 1483.1 -251.423 -401.303)
(2003.88 2892.08 -48.4885 2486.81 -263.855 -401.306)
(1029.27 2635.08 -1.93047 3461.37 -268.261 -401.322)
(201.376 2060.25 44.6771 4289.31 -264.532 -401.31)
(-380.046 1236.92 89.9355 4870.64 -252.749 -401.351)
(-644.753 264.415 132.458 5135.39 -233.31 -401.334)
(-3142.82 -636.027 555.367 1627.57 -4109.95 -282.598)
(-2781.46 -1413.45 1260.61 1266.19 -3951.07 -282.615)
(-2175.97 -2020.39 1927.55 660.716 -3672.15 -282.599)
(-1399.45 -2383.65 2535.93 -115.878 -3281.64 -282.635)
(-545.462 -2459.41 3067.26 -969.807 -2791.42 -282.614)
(282.928 -2238.52 3505.38 -1798.15 -2216.4 -282.579)
(985.795 -1747.63 3837.01 -2501.04 -1574.01 -282.594)
(1478.39 -1045.95 4052.03 -2993.61 -883.811 -282.595)
(1701.27 -218.127 4143.95 -3216.5 -166.764 -282.584)
(1627.57 636.027 4109.95 -3142.82 555.367 -282.598)
(1266.19 1413.45 3951.07 -2781.46 1260.61 -282.615)
(660.716 2020.39 3672.15 -2175.97 1927.55 -282.599)
(-115.878 2383.65 3281.64 -1399.45 2535.93 -282.635)
(-969.807 2459.41 2791.42 -545.462 3067.26 -282.614)
(-1798.15 2238.52 2216.4 282.928 3505.38 -282.579)
(-2501.04 1747.63 1574.01 985.795 3837.01 -282.594)
(-2993.61 1045.95 883.811 1478.39 4052.03 -282.594)
(-3216.5 218.127 166.764 1701.27 4143.95 -282.584)
(-3142.82 -636.027 -555.367 1627.57 4109.95 -282.598)
(-2781.46 -1413.45 -1260.61 1266.19 3951.07 -282.615)
(-2175.97 -2020.39 -1927.55 660.716 3672.15 -282.599)
(-1399.45 -2383.65 -2535.93 -115.878 3281.64 -282.635)
(-545.462 -2459.41 -3067.26 -969.807 2791.42 -282.614)
(282.928 -2238.52 -3505.38 -1798.15 2216.4 -282.579)
(985.795 -1747.63 -3837.01 -2501.04 1574.01 -282.594)
(1478.39 -1045.95 -4052.03 -2993.61 883.811 -282.595)
(1701.27 -218.127 -4143.95 -3216.5 166.764 -282.584)
(1627.57 636.027 -4109.95 -3142.82 -555.367 -282.598)
(1266.19 1413.45 -3951.07 -2781.46 -1260.61 -282.615)
(660.716 2020.39 -3672.15 -2175.97 -1927.55 -282.599)
(-115.878 2383.65 -3281.64 -1399.45 -2535.93 -282.635)
(-969.807 2459.41 -2791.42 -545.462 -3067.26 -282.614)
(-1798.15 2238.52 -2216.4 282.928 -3505.38 -282.579)
(-2501.04 1747.63 -1574.01 985.795 -3837.01 -282.594)
(-2993.61 1045.95 -883.811 1478.39 -4052.03 -282.595)
(-3216.5 218.127 -166.764 1701.27 -4143.95 -282.584)
(737.88 -390.176 -23.5596 3280.54 1957.21 3616.31)
(947.952 -801.471 -363.076 3070.36 1923.38 3616.27)
(1286.11 -1116.09 -691.548 2732.29 1831.11 3616.3)
(1711.41 -1296.08 -999.012 2306.92 1683.21 3616.3)
(2172.69 -1319.77 -1276.12 1845.71 1484.16 3616.29)
(2614.21 -1184.25 -1514.46 1404.18 1240.02 3616.33)
(2982.73 -905.913 -1706.77 1035.6 958.2 3616.27)
(3233.87 -518.294 -1847.23 784.479 647.259 3616.29)
(3337.27 -68.175 -1931.56 681.063 316.665 3616.27)
(3280.54 390.176 -1957.21 737.88 -23.5596 3616.31)
(3070.36 801.471 -1923.38 947.952 -363.076 3616.27)
(2732.29 1116.09 -1831.11 1286.11 -691.548 3616.3)
(2306.92 1296.08 -1683.21 1711.41 -999.012 3616.3)
(1845.71 1319.77 -1484.16 2172.69 -1276.12 3616.29)
(1404.18 1184.25 -1240.02 2614.21 -1514.46 3616.33)
(1035.6 905.913 -958.2 2982.73 -1706.77 3616.27)
(784.479 518.294 -647.259 3233.87 -1847.23 3616.29)
(681.063 68.175 -316.665 3337.27 -1931.56 3616.27)
(737.88 -390.176 23.5596 3280.54 -1957.21 3616.31)
(947.952 -801.471 363.076 3070.36 -1923.38 3616.27)
(1286.11 -1116.09 691.548 2732.29 -1831.11 3616.3)
(1711.41 -1296.08 999.012 2306.92 -1683.21 3616.3)
(2172.69 -1319.77 1276.12 1845.71 -1484.16 3616.29)
(2614.21 -1184.25 1514.46 1404.18 -1240.02 3616.33)
(2982.73 -905.913 1706.77 1035.6 -958.2 3616.27)
(3233.87 -518.294 1847.23 784.479 -647.259 3616.29)
(3337.27 -68.175 1931.56 681.063 -316.665 3616.27)
(3280.54 390.176 1957.21 737.88 23.5596 3616.31)
(3070.36 801.471 1923.38 947.952 363.076 3616.27)
(2732.29 1116.09 1831.11 1286.11 691.548 3616.3)
(2306.92 1296.08 1683.21 1711.41 999.012 3616.3)
(1845.71 1319.77 1484.16 2172.69 1276.12 3616.29)
(1404.18 1184.25 1240.02 2614.21 1514.46 3616.33)
(1035.6 905.913 958.2 2982.73 1706.77 3616.27)
(784.478 518.294 647.259 3233.87 1847.23 3616.29)
(681.063 68.175 316.665 3337.27 1931.56 3616.27)
(-313.123 -757.99 188.928 5082.29 -170.529 -124.747)
(108.857 -1634.94 215.667 4660.39 -135.12 -124.701)
(805.245 -2314.7 235.854 3963.92 -95.6176 -124.745)
(1692.19 -2715.27 248.874 3077.04 -53.2085 -124.713)
(2662.62 -2788.35 254.346 2106.59 -9.19577 -124.73)
(3599.5 -2525.1 252.063 1169.65 35.1202 -124.751)
(4389.9 -1957.29 242.136 379.327 78.3571 -124.716)
(4938.38 -1153.4 224.856 -169.193 119.212 -124.735)
(5178.88 -210.402 200.746 -409.645 156.447 -124.715)
(5082.29 757.99 170.529 -313.123 188.928 -124.747)
(4660.4 1634.94 135.125 108.857 215.669 -124.702)
(3963.92 2314.7 95.6176 805.245 235.854 -124.745)
(3077.04 2715.27 53.2085 1692.19 248.874 -124.713)
(2106.59 2788.35 9.19576 2662.62 254.346 -124.73)
(1169.65 2525.1 -35.1202 3599.5 252.063 -124.751)
(379.327 1957.29 -78.3571 4389.9 242.136 -124.716)
(-169.193 1153.4 -119.212 4938.38 224.856 -124.735)
(-409.645 210.402 -156.447 5178.88 200.746 -124.715)
(-313.123 -757.99 -188.928 5082.29 170.529 -124.747)
(108.857 -1634.94 -215.669 4660.4 135.125 -124.702)
(805.245 -2314.7 -235.854 3963.92 95.6176 -124.745)
(1692.19 -2715.27 -248.874 3077.04 53.2085 -124.713)
(2662.62 -2788.35 -254.346 2106.59 9.19577 -124.73)
(3599.5 -2525.1 -252.063 1169.65 -35.1202 -124.751)
(4389.9 -1957.29 -242.136 379.327 -78.3571 -124.716)
(4938.38 -1153.4 -224.856 -169.193 -119.212 -124.735)
(5178.88 -210.402 -200.746 -409.645 -156.447 -124.715)
(5082.29 757.99 -170.529 -313.123 -188.928 -124.747)
(4660.4 1634.94 -135.125 108.857 -215.669 -124.702)
(3963.92 2314.7 -95.6176 805.245 -235.854 -124.745)
(3077.04 2715.27 -53.2085 1692.19 -248.874 -124.713)
(2106.59 2788.35 -9.19576 2662.62 -254.346 -124.73)
(1169.65 2525.1 35.1202 3599.5 -252.063 -124.751)
(379.327 1957.29 78.3571 4389.9 -242.136 -124.716)
(-169.192 1153.4 119.213 4938.38 -224.851 -124.734)
(-409.645 210.402 156.447 5178.88 -200.746 -124.715)
(-2795.53 -863.542 729.051 1714.82 -4093.96 68.2715)
(-2364.2 -1582.78 1428.88 1283.46 -3905.16 68.2393)
(-1712.81 -2111.11 2085.3 632.173 -3597.71 68.2906)
(-920.067 -2384.81 2678.36 -160.592 -3180.95 68.2926)
(-81.5151 -2370.87 3190.03 -999.152 -2667.53 68.2781)
(701.697 -2070.96 3604.78 -1782.37 -2073.06 68.2831)
(1335.08 -1521.27 3910 -2415.8 -1415.6 68.249)
(1742.3 -788.094 4096.41 -2822.97 -715.137 68.2795)
(1874.18 40.1447 4158.36 -2954.86 7.06308 68.2829)
(1714.82 863.542 4093.96 -2795.53 729.051 68.2715)
(1283.46 1582.78 3905.16 -2364.2 1428.88 68.2395)
(632.173 2111.11 3597.71 -1712.81 2085.3 68.2907)
(-160.592 2384.81 3180.95 -920.067 2678.36 68.2926)
(-999.152 2370.87 2667.53 -81.5151 3190.03 68.2781)
(-1782.37 2070.96 2073.06 701.697 3604.78 68.2831)
(-2415.8 1521.27 1415.6 1335.08 3910 68.2491)
(-2822.97 788.094 715.137 1742.3 4096.41 68.2795)
(-2954.86 -40.1447 -7.06309 1874.18 4158.36 68.2829)
(-2795.53 -863.542 -729.051 1714.82 4093.96 68.2715)
(-2364.2 -1582.78 -1428.88 1283.46 3905.16 68.2395)
(-1712.81 -2111.11 -2085.3 632.173 3597.71 68.2907)
(-920.067 -2384.81 -2678.36 -160.592 3180.95 68.2926)
(-81.5151 -2370.87 -3190.03 -999.152 2667.53 68.2781)
(701.697 -2070.96 -3604.78 -1782.37 2073.06 68.2831)
(1335.08 -1521.27 -3910 -2415.8 1415.6 68.249)
(1742.3 -788.094 -4096.41 -2822.97 715.137 68.2795)
(1874.18 40.1447 -4158.36 -2954.86 -7.06308 68.2829)
(1714.82 863.542 -4093.96 -2795.53 -729.051 68.2715)
(1283.46 1582.78 -3905.16 -2364.2 -1428.88 68.2395)
(632.173 2111.11 -3597.71 -1712.81 -2085.3 68.2906)
(-160.592 2384.81 -3180.95 -920.067 -2678.36 68.2925)
(-999.152 2370.87 -2667.53 -81.5151 -3190.03 68.278)
(-1782.37 2070.96 -2073.06 701.697 -3604.78 68.283)
(-2415.8 1521.27 -1415.6 1335.08 -3910 68.249)
(-2822.97 788.094 -715.137 1742.3 -4096.41 68.2793)
(-2954.86 -40.1447 7.06307 1874.18 -4158.36 68.2829)
(622.299 -301.406 93.7818 3120.82 1975.52 3565.95)
(800.75 -710.508 -250.691 2942.43 1961.79 3565.95)
(1108.32 -1033.91 -587.551 2634.81 1888.45 3565.93)
(1507.99 -1232.6 -906.549 2235.18 1757.73 3565.96)
(1951.48 -1282.62 -1198 1791.69 1573.61 3565.96)
(2385.36 -1177.95 -1453.06 1357.82 1341.67 3565.97)
(2757.25 -931.195 -1663.96 985.927 1068.98 3565.95)
(3022.31 -572.113 -1824.31 720.821 763.781 3565.93)
(3148.58 -144.037 -1929.22 594.557 435.396 3565.96)
(3120.82 301.406 -1975.52 622.299 93.7818 3565.95)
(2942.43 710.508 -1961.79 800.75 -250.691 3565.95)
(2634.81 1033.91 -1888.45 1108.32 -587.551 3565.93)
(2235.18 1232.6 -1757.73 1507.99 -906.549 3565.96)
(1791.69 1282.62 -1573.61 1951.48 -1198 3565.96)
(1357.82 1177.95 -1341.67 2385.36 -1453.06 3565.97)
(985.927 931.195 -1068.98 2757.25 -1663.96 3565.95)
(720.821 572.113 -763.781 3022.31 -1824.31 3565.93)
(594.557 144.037 -435.396 3148.58 -1929.22 3565.96)
(622.299 -301.406 -93.7818 3120.82 -1975.52 3565.95)
(800.75 -710.508 250.691 2942.43 -1961.79 3565.95)
(1108.32 -1033.91 587.551 2634.81 -1888.45 3565.93)
(1507.99 -1232.6 906.549 2235.18 -1757.73 3565.96)
(1951.48 -1282.62 1198 1791.69 -1573.61 3565.96)
(2385.36 -1177.95 1453.06 1357.82 -1341.67 3565.97)
(2757.25 -931.195 1663.96 985.927 -1068.98 3565.95)
(3022.31 -572.113 1824.31 720.821 -763.781 3565.93)
(3148.58 -144.037 1929.22 594.557 -435.396 3565.96)
(3120.82 301.406 1975.52 622.299 -93.7818 3565.95)
(2942.43 710.508 1961.79 800.75 250.691 3565.95)
(2634.81 1033.91 1888.45 1108.32 587.551 3565.93)
(2235.18 1232.6 1757.73 1507.99 906.549 3565.96)
(1791.69 1282.62 1573.61 1951.48 1198 3565.95)
(1357.82 1177.95 1341.67 2385.36 1453.06 3565.97)
(985.927 931.195 1068.98 2757.25 1663.96 3565.95)
(720.821 572.113 763.781 3022.31 1824.31 3565.93)
(594.557 144.037 435.396 3148.58 1929.22 3565.96)
(-371.684 -761.182 209.379 4833.71 -144.905 -171.38)
(45.5988 -1605.45 231.36 4416.39 -106.345 -171.4)
(726.502 -2256.08 246.312 3735.5 -64.5549 -171.392)
(1588.87 -2634.59 253.776 2873.15 -20.7978 -171.382)
(2528.66 -2695.33 253.532 1933.34 23.5864 -171.391)
(3432.57 -2430.98 245.584 1029.43 67.2539 -171.395)
(4191.56 -1873.41 230.181 270.453 108.875 -171.389)
(4714.07 -1089.88 207.778 -252.058 147.191 -171.391)
(4937.09 -174.894 179.062 -475.061 181.035 -171.38)
(4833.71 761.182 144.905 -371.684 209.379 -171.381)
(4416.39 1605.45 106.345 45.5989 231.36 -171.4)
(3735.51 2256.08 64.5549 726.502 246.312 -171.391)
(2873.15 2634.59 20.7977 1588.87 253.776 -171.382)
(1933.34 2695.33 -23.5864 2528.66 253.532 -171.391)
(1029.43 2430.98 -67.2539 3432.57 245.584 -171.395)
(270.453 1873.41 -108.875 4191.56 230.181 -171.389)
(-252.058 1089.88 -147.191 4714.07 207.778 -171.391)
(-475.061 174.894 -181.035 4937.09 179.062 -171.38)
(-371.684 -761.182 -209.379 4833.71 144.905 -171.381)
(45.5989 -1605.45 -231.36 4416.39 106.345 -171.4)
(726.502 -2256.08 -246.312 3735.51 64.5549 -171.391)
(1588.87 -2634.59 -253.776 2873.15 20.7978 -171.382)
(2528.66 -2695.33 -253.532 1933.34 -23.5864 -171.391)
(3432.57 -2430.98 -245.584 1029.43 -67.2539 -171.395)
(4191.56 -1873.41 -230.181 270.453 -108.875 -171.389)
(4714.07 -1089.88 -207.778 -252.058 -147.191 -171.391)
(4937.09 -174.894 -179.062 -475.061 -181.035 -171.38)
(4833.71 761.182 -144.905 -371.684 -209.379 -171.381)
(4416.39 1605.45 -106.345 45.5989 -231.36 -171.4)
(3735.51 2256.08 -64.5549 726.502 -246.312 -171.391)
(2873.15 2634.59 -20.7977 1588.87 -253.776 -171.382)
(1933.34 2695.33 23.5864 2528.66 -253.532 -171.391)
(1029.43 2430.98 67.2539 3432.57 -245.584 -171.395)
(270.454 1873.41 108.875 4191.56 -230.181 -171.388)
(-252.058 1089.88 147.191 4714.07 -207.778 -171.391)
(-475.061 174.894 181.035 4937.09 -179.062 -171.38)
(-2949.08 -1074.95 902.864 1279.99 -4052.63 -138.443)
(-2453.91 -1733.34 1592.88 784.813 -3834.27 -138.458)
(-1763.4 -2182.66 2234.5 94.3222 -3499.42 -138.441)
(-960.883 -2368.72 2808.22 -708.231 -3058.24 -138.454)
(-143.129 -2269.08 3296.61 -1526 -2524.14 -138.474)
(591.279 -1895.75 3684.84 -2260.34 -1913.34 -138.427)
(1153.64 -1293.77 3961.11 -2822.77 -1244.41 -138.465)
(1476.26 -535.739 4117.02 -3145.34 -537.664 -138.446)
(1520.12 286.914 4147.84 -3189.22 185.419 -138.451)
(1279.99 1074.95 4052.63 -2949.08 902.864 -138.443)
(784.813 1733.34 3834.27 -2453.91 1592.88 -138.459)
(94.3221 2182.66 3499.42 -1763.4 2234.5 -138.441)
(-708.231 2368.72 3058.24 -960.883 2808.22 -138.454)
(-1526 2269.08 2524.14 -143.13 3296.61 -138.474)
(-2260.34 1895.75 1913.34 591.279 3684.84 -138.427)
(-2822.77 1293.77 1244.41 1153.64 3961.11 -138.464)
(-3145.34 535.739 537.664 1476.26 4117.02 -138.446)
(-3189.22 -286.914 -185.419 1520.12 4147.84 -138.451)
(-2949.08 -1074.95 -902.864 1279.99 4052.63 -138.443)
(-2453.91 -1733.34 -1592.88 784.813 3834.27 -138.458)
(-1763.4 -2182.66 -2234.5 94.3221 3499.42 -138.441)
(-960.883 -2368.72 -2808.22 -708.231 3058.24 -138.454)
(-143.13 -2269.08 -3296.61 -1526 2524.14 -138.474)
(591.279 -1895.75 -3684.84 -2260.34 1913.34 -138.427)
(1153.64 -1293.77 -3961.11 -2822.77 1244.41 -138.465)
(1476.26 -535.739 -4117.02 -3145.34 537.664 -138.446)
(1520.12 286.914 -4147.84 -3189.22 -185.419 -138.451)
(1279.99 1074.95 -4052.63 -2949.08 -902.864 -138.443)
(784.813 1733.34 -3834.27 -2453.91 -1592.88 -138.459)
(94.3221 2182.66 -3499.42 -1763.4 -2234.5 -138.441)
(-708.231 2368.72 -3058.24 -960.883 -2808.22 -138.454)
(-1526 2269.08 -2524.14 -143.129 -3296.61 -138.474)
(-2260.34 1895.75 -1913.34 591.279 -3684.84 -138.427)
(-2822.77 1293.77 -1244.41 1153.64 -3961.11 -138.465)
(-3145.34 535.739 -537.664 1476.26 -4117.02 -138.446)
(-3189.22 -286.914 185.419 1520.12 -4147.84 -138.451)
(574.911 -192.668 225.535 3011.87 1991.23 3544.16)
(714.318 -597.795 -123.666 2872.52 2000.14 3544.17)
(983.807 -930.817 -469.109 2602.94 1948.28 3544.13)
(1351.03 -1151.58 -800.307 2235.79 1837.22 3544.16)
(1771.54 -1233.42 -1107.17 1815.22 1670.34 3544.17)
(2194.72 -1166.52 -1380.4 1392.05 1452.71 3544.13)
(2569.52 -958.902 -1611.69 1017.33 1190.93 3544.19)
(2850.62 -635.63 -1794.01 736.1 892.97 3544.12)
(3004.29 -235.69 -1921.82 582.508 567.877 3544.17)
(3011.87 192.668 -1991.23 574.911 225.535 3544.16)
(2872.52 597.795 -2000.14 714.318 -123.666 3544.17)
(2602.94 930.817 -1948.28 983.807 -469.109 3544.13)
(2235.79 1151.58 -1837.22 1351.03 -800.307 3544.16)
(1815.22 1233.42 -1670.34 1771.54 -1107.17 3544.17)
(1392.05 1166.52 -1452.71 2194.72 -1380.4 3544.13)
(1017.33 958.902 -1190.93 2569.52 -1611.69 3544.19)
(736.1 635.63 -892.97 2850.62 -1794.01 3544.12)
(582.508 235.69 -567.877 3004.29 -1921.82 3544.17)
(574.911 -192.668 -225.535 3011.87 -1991.23 3544.16)
(714.318 -597.795 123.666 2872.52 -2000.14 3544.17)
(983.807 -930.817 469.109 2602.94 -1948.28 3544.13)
(1351.03 -1151.58 800.307 2235.79 -1837.22 3544.16)
(1771.54 -1233.42 1107.17 1815.22 -1670.34 3544.17)
(2194.72 -1166.52 1380.4 1392.05 -1452.71 3544.13)
(2569.52 -958.902 1611.69 1017.33 -1190.93 3544.19)
(2850.62 -635.63 1794.01 736.1 -892.97 3544.12)
(3004.29 -235.69 1921.82 582.508 -567.877 3544.17)
(3011.87 192.668 1991.23 574.911 -225.535 3544.16)
(2872.52 597.795 2000.14 714.318 123.666 3544.17)
(2602.94 930.817 1948.28 983.806 469.109 3544.13)
(2235.79 1151.58 1837.22 1351.03 800.307 3544.16)
(1815.22 1233.42 1670.34 1771.54 1107.17 3544.17)
(1392.05 1166.52 1452.71 2194.72 1380.4 3544.13)
(1017.33 958.902 1190.93 2569.52 1611.69 3544.19)
(736.1 635.63 892.97 2850.62 1794.01 3544.12)
(582.508 235.69 567.877 3004.29 1921.82 3544.17)
(-376.396 -748.829 227.996 4647.29 -104.88 -177.902)
(31.1573 -1562.77 242.745 4239.64 -63.6962 -177.947)
(692.614 -2188.22 250.12 3578.3 -20.5813 -177.893)
(1528.01 -2549.74 249.897 2742.82 23.16 -177.936)
(2436.71 -2603.71 242.067 1834.15 66.2141 -177.912)
(3309.08 -2343.65 226.906 961.826 107.234 -177.897)
(4039.85 -1800.9 204.832 230.984 145.008 -177.935)
(4540.98 -1040.94 176.534 -270.067 178.376 -177.893)
(4751.9 -155.425 142.878 -481.051 206.32 -177.924)
(4647.29 748.829 104.88 -376.396 227.996 -177.902)
(4239.64 1562.77 63.6962 31.1577 242.745 -177.947)
(3578.3 2188.22 20.5813 692.615 250.12 -177.892)
(2742.82 2549.74 -23.16 1528.01 249.896 -177.936)
(1834.15 2603.71 -66.2141 2436.71 242.067 -177.912)
(961.826 2343.65 -107.234 3309.08 226.906 -177.897)
(230.984 1800.9 -145.008 4039.85 204.832 -177.935)
(-270.067 1040.94 -178.376 4540.98 176.534 -177.893)
(-481.051 155.425 -206.32 4751.9 142.878 -177.924)
(-376.396 -748.829 -227.996 4647.29 104.88 -177.902)
(31.1577 -1562.77 -242.745 4239.64 63.6962 -177.947)
(692.615 -2188.22 -250.12 3578.3 20.5813 -177.892)
(1528.01 -2549.74 -249.896 2742.82 -23.16 -177.936)
(2436.71 -2603.71 -242.067 1834.15 -66.2141 -177.912)
(3309.08 -2343.65 -226.906 961.826 -107.234 -177.897)
(4039.85 -1800.9 -204.832 230.984 -145.008 -177.935)
(4540.98 -1040.94 -176.534 -270.067 -178.376 -177.893)
(4751.9 -155.425 -142.878 -481.051 -206.32 -177.924)
(4647.29 748.829 -104.88 -376.396 -227.996 -177.902)
(4239.64 1562.77 -63.6962 31.1577 -242.745 -177.947)
(3578.3 2188.22 -20.5813 692.615 -250.12 -177.892)
(2742.82 2549.74 23.16 1528.01 -249.896 -177.936)
(1834.15 2603.71 66.2141 2436.71 -242.067 -177.912)
(961.826 2343.65 107.234 3309.08 -226.906 -177.897)
(230.984 1800.9 145.008 4039.85 -204.832 -177.935)
(-270.067 1040.94 178.376 4540.98 -176.534 -177.893)
(-481.051 155.425 206.32 4751.9 -142.878 -177.924)
(-2991.62 -1261.06 1064.83 939.706 -3977.54 -296.517)
(-2441.74 -1857.31 1739.36 389.867 -3732.21 -296.481)
(-1721.14 -2229.54 2361.02 -330.771 -3373.47 -296.513)
(-916.668 -2332.84 2910.95 -1135.25 -2912.23 -296.505)
(-125.361 -2154.78 3372.43 -1926.51 -2362.51 -296.49)
(557.276 -1716.82 3731.44 -2609.2 -1741 -296.509)
(1049 -1071.78 3977.07 -3100.89 -1066.59 -296.498)
(1290.4 -297.471 4101.86 -3342.36 -359.782 -296.521)
(1252.49 512.724 4102.02 -3304.37 357.97 -296.497)
(939.706 1261.06 3977.54 -2991.62 1064.83 -296.518)
(389.867 1857.31 3732.21 -2441.74 1739.36 -296.481)
(-330.774 2229.54 3373.47 -1721.13 2361.02 -296.509)
(-1135.25 2332.84 2912.23 -916.668 2910.95 -296.505)
(-1926.51 2154.78 2362.51 -125.361 3372.43 -296.49)
(-2609.2 1716.82 1741 557.277 3731.44 -296.509)
(-3100.89 1071.78 1066.59 1049 3977.07 -296.498)
(-3342.36 297.471 359.781 1290.4 4101.86 -296.521)
(-3304.37 -512.724 -357.97 1252.49 4102.02 -296.497)
(-2991.62 -1261.06 -1064.83 939.706 3977.54 -296.517)
(-2441.74 -1857.31 -1739.36 389.867 3732.21 -296.481)
(-1721.13 -2229.54 -2361.02 -330.774 3373.47 -296.509)
(-916.668 -2332.84 -2910.95 -1135.25 2912.23 -296.505)
(-125.361 -2154.78 -3372.43 -1926.51 2362.51 -296.49)
(557.277 -1716.82 -3731.44 -2609.2 1741 -296.509)
(1049 -1071.78 -3977.07 -3100.89 1066.59 -296.498)
(1290.4 -297.471 -4101.86 -3342.36 359.782 -296.521)
(1252.49 512.724 -4102.02 -3304.37 -357.97 -296.497)
(939.706 1261.06 -3977.54 -2991.62 -1064.83 -296.518)
(389.867 1857.31 -3732.21 -2441.74 -1739.36 -296.481)
(-330.774 2229.54 -3373.47 -1721.13 -2361.02 -296.509)
(-1135.25 2332.84 -2912.23 -916.668 -2910.95 -296.505)
(-1926.51 2154.78 -2362.51 -125.361 -3372.43 -296.49)
(-2609.2 1716.82 -1741 557.277 -3731.44 -296.509)
(-3100.89 1071.78 -1066.59 1049 -3977.07 -296.498)
(-3342.36 297.471 -359.782 1290.4 -4101.86 -296.521)
(-3304.37 -512.724 357.97 1252.49 -4102.02 -296.497)
(522.459 -64.0137 366.133 2874.67 2002.72 3472.52)
(615.319 -462.402 12.8048 2781.89 2035.87 3472.56)
(838.761 -805.016 -340.912 2558.36 2007.17 3472.53)
(1165.97 -1050.54 -684.276 2231.21 1917.47 3472.54)
(1557.39 -1169.35 -1006.85 1839.76 1769.52 3472.53)
(1965.84 -1147.12 -1298.83 1431.29 1567.8 3472.51)
(2342.07 -986.528 -1551.34 1055.09 1318.44 3472.55)
(2640.64 -706.951 -1756.71 756.454 1029.03 3472.51)
(2825.66 -342.099 -1908.71 571.518 708.34 3472.54)
(2874.67 64.0137 -2002.72 522.459 366.133 3472.52)
(2781.89 462.402 -2035.87 615.319 12.8048 3472.56)
(2558.36 805.016 -2007.17 838.761 -340.912 3472.53)
(2231.21 1050.54 -1917.47 1165.97 -684.276 3472.54)
(1839.76 1169.35 -1769.52 1557.39 -1006.85 3472.53)
(1431.29 1147.12 -1567.8 1965.84 -1298.83 3472.51)
(1055.09 986.528 -1318.44 2342.07 -1551.34 3472.55)
(756.454 706.951 -1029.03 2640.64 -1756.71 3472.51)
(571.518 342.099 -708.34 2825.66 -1908.71 3472.54)
(522.459 -64.0138 -366.133 2874.67 -2002.72 3472.52)
(615.319 -462.402 -12.8048 2781.89 -2035.87 3472.56)
(838.761 -805.016 340.912 2558.36 -2007.17 3472.53)
(1165.97 -1050.54 684.276 2231.21 -1917.47 3472.54)