/*--------------------------------*- C++ -*----------------------------------*\
| =========                 |                                                 |
| \\      /  F ield         | OpenFOAM: The Open Source CFD Toolbox           |
|  \\    /   O peration     | Version:  2312                                  |
|   \\  /    A nd           | Website:  www.openfoam.com                      |
|    \\/     M anipulation  |                                                 |
\*---------------------------------------------------------------------------*/
FoamFile
{
    version     2.0;
    format      ascii;
    arch        "LSB;label=32;scalar=64";
    class       volVectorField;
    location    "0.4";
    object      D;
}
// * * * * * * * * * * * * * * * * * * * * * * * * * * * * * * * * * * * * * //

dimensions      [0 1 0 0 0 0 0];

internalField   nonuniform List<vector> 
1620
(
(0.000132652 -0.000247839 4.44848e-05)
(0.000173673 -0.000221038 4.4485e-05)
(0.000209418 -0.000187522 4.44851e-05)
(0.0002388 -0.000148308 4.4485e-05)
(0.000260925 -0.000104588 4.44851e-05)
(0.000275123 -5.76899e-05 4.4485e-05)
(0.00028096 -9.03904e-06 4.44847e-05)
(0.000278261 3.98863e-05 4.44846e-05)
(0.000267108 8.76e-05 4.44847e-05)
(0.000247839 0.000132652 4.44848e-05)
(0.000221038 0.000173673 4.4485e-05)
(0.000187522 0.000209418 4.44851e-05)
(0.000148308 0.0002388 4.4485e-05)
(0.000104588 0.000260925 4.44851e-05)
(5.76899e-05 0.000275123 4.4485e-05)
(9.03904e-06 0.00028096 4.44847e-05)
(-3.98863e-05 0.000278261 4.44846e-05)
(-8.76e-05 0.000267108 4.44847e-05)
(-0.000132652 0.000247839 4.44848e-05)
(-0.000173673 0.000221038 4.4485e-05)
(-0.000209418 0.000187522 4.44851e-05)
(-0.0002388 0.000148308 4.4485e-05)
(-0.000260925 0.000104588 4.44851e-05)
(-0.000275123 5.76899e-05 4.4485e-05)
(-0.00028096 9.03904e-06 4.44847e-05)
(-0.000278261 -3.98863e-05 4.44846e-05)
(-0.000267108 -8.76e-05 4.44847e-05)
(-0.000247839 -0.000132652 4.44848e-05)
(-0.000221038 -0.000173673 4.4485e-05)
(-0.000187522 -0.000209418 4.44851e-05)
(-0.000148308 -0.0002388 4.4485e-05)
(-0.000104588 -0.000260925 4.44851e-05)
(-5.76899e-05 -0.000275123 4.4485e-05)
(-9.03904e-06 -0.00028096 4.44847e-05)
(3.98863e-05 -0.000278261 4.44846e-05)
(8.76e-05 -0.000267108 4.44847e-05)
(8.61585e-05 -0.000264695 5.38844e-05)
(0.000130813 -0.000245712 5.38845e-05)
(0.000171493 -0.000219264 5.38845e-05)
(0.000206963 -0.000186153 5.38846e-05)
(0.000236144 -0.000147386 5.38847e-05)
(0.00025815 -0.000104141 5.38846e-05)
(0.000272312 -5.77317e-05 5.38845e-05)
(0.0002782 -9.56839e-06 5.38844e-05)
(0.000275635 3.88859e-05 5.38844e-05)
(0.000264695 8.61585e-05 5.38844e-05)
(0.000245712 0.000130813 5.38845e-05)
(0.000219264 0.000171493 5.38845e-05)
(0.000186153 0.000206963 5.38846e-05)
(0.000147386 0.000236144 5.38847e-05)
(0.000104141 0.00025815 5.38846e-05)
(5.77317e-05 0.000272312 5.38845e-05)
(9.56839e-06 0.0002782 5.38844e-05)
(-3.88859e-05 0.000275635 5.38844e-05)
(-8.61585e-05 0.000264695 5.38844e-05)
(-0.000130813 0.000245712 5.38845e-05)
(-0.000171493 0.000219264 5.38845e-05)
(-0.000206963 0.000186153 5.38846e-05)
(-0.000236144 0.000147386 5.38847e-05)
(-0.00025815 0.000104141 5.38846e-05)
(-0.000272312 5.77317e-05 5.38845e-05)
(-0.0002782 9.56839e-06 5.38844e-05)
(-0.000275635 -3.88859e-05 5.38844e-05)
(-0.000264695 -8.61585e-05 5.38844e-05)
(-0.000245712 -0.000130813 5.38845e-05)
(-0.000219264 -0.000171493 5.38845e-05)
(-0.000186153 -0.000206963 5.38846e-05)
(-0.000147386 -0.000236144 5.38847e-05)
(-0.000104141 -0.00025815 5.38846e-05)
(-5.77317e-05 -0.000272312 5.38845e-05)
(-9.56839e-06 -0.0002782 5.38844e-05)
(3.88859e-05 -0.000275635 5.38844e-05)
(2.04086e-05 -0.000280868 5.75824e-05)
(6.88708e-05 -0.000273057 5.75824e-05)
(0.00011524 -0.00025695 5.75826e-05)
(0.000158108 -0.000233035 5.75825e-05)
(0.000196173 -0.000202039 5.75826e-05)
(0.000228276 -0.000164905 5.75825e-05)
(0.000253444 -0.00012276 5.75825e-05)
(0.00027091 -7.68847e-05 5.75826e-05)
(0.000280145 -2.86736e-05 5.75824e-05)
(0.000280868 2.04086e-05 5.75824e-05)
(0.000273057 6.88708e-05 5.75824e-05)
(0.00025695 0.00011524 5.75826e-05)
(0.000233035 0.000158108 5.75825e-05)
(0.000202039 0.000196173 5.75826e-05)
(0.000164905 0.000228276 5.75825e-05)
(0.00012276 0.000253444 5.75825e-05)
(7.68847e-05 0.00027091 5.75826e-05)
(2.86736e-05 0.000280145 5.75824e-05)
(-2.04086e-05 0.000280868 5.75824e-05)
(-6.88708e-05 0.000273057 5.75824e-05)
(-0.00011524 0.00025695 5.75826e-05)
(-0.000158108 0.000233035 5.75825e-05)
(-0.000196173 0.000202039 5.75826e-05)
(-0.000228276 0.000164905 5.75825e-05)
(-0.000253444 0.00012276 5.75825e-05)
(-0.00027091 7.68847e-05 5.75826e-05)
(-0.000280145 2.86736e-05 5.75824e-05)
(-0.000280868 -2.04086e-05 5.75824e-05)
(-0.000273057 -6.88708e-05 5.75824e-05)
(-0.00025695 -0.00011524 5.75826e-05)
(-0.000233035 -0.000158108 5.75825e-05)
(-0.000202039 -0.000196173 5.75826e-05)
(-0.000164905 -0.000228276 5.75825e-05)
(-0.00012276 -0.000253444 5.75825e-05)
(-7.68847e-05 -0.00027091 5.75826e-05)
(-2.86736e-05 -0.000280145 5.75824e-05)
(0.000302488 -0.000748747 0.000165238)
(0.000427911 -0.000684846 0.000165239)
(0.000540333 -0.000600135 0.000165239)
(0.000636336 -0.000497189 0.000165239)
(0.000713004 -0.000379137 0.000165239)
(0.000768009 -0.000249566 0.000165239)
(0.000799678 -0.000112411 0.000165238)
(0.000807049 2.81593e-05 0.000165238)
(0.000789898 0.000167874 0.000165238)
(0.000748747 0.000302488 0.000165238)
(0.000684846 0.000427911 0.000165239)
(0.000600135 0.000540333 0.000165239)
(0.000497189 0.000636336 0.000165239)
(0.000379137 0.000713004 0.000165239)
(0.000249566 0.000768009 0.000165239)
(0.000112411 0.000799678 0.000165238)
(-2.81593e-05 0.000807049 0.000165238)
(-0.000167874 0.000789898 0.000165238)
(-0.000302488 0.000748747 0.000165238)
(-0.000427911 0.000684846 0.000165239)
(-0.000540333 0.000600135 0.000165239)
(-0.000636336 0.000497189 0.000165239)
(-0.000713004 0.000379137 0.000165239)
(-0.000768009 0.000249566 0.000165239)
(-0.000799678 0.000112411 0.000165238)
(-0.000807049 -2.81593e-05 0.000165238)
(-0.000789898 -0.000167874 0.000165238)
(-0.000748747 -0.000302488 0.000165238)
(-0.000684846 -0.000427911 0.000165239)
(-0.000600135 -0.000540333 0.000165239)
(-0.000497189 -0.000636336 0.000165239)
(-0.000379137 -0.000713004 0.000165239)
(-0.000249566 -0.000768009 0.000165239)
(-0.000112411 -0.000799678 0.000165238)
(2.81593e-05 -0.000807049 0.000165238)
(0.000167874 -0.000789898 0.000165238)
(0.000230987 -0.000787118 0.000200064)
(0.00036416 -0.000735049 0.000200064)
(0.000486268 -0.000660647 0.000200064)
(0.0005936 -0.000566171 0.000200064)
(0.000682897 -0.000454492 0.000200064)
(0.000751444 -0.000329003 0.000200064)
(0.000797158 -0.000193518 0.000200064)
(0.000818651 -5.21528e-05 0.000200063)
(0.000815271 9.07965e-05 0.000200064)
(0.000787118 0.000230987 0.000200064)
(0.000735049 0.00036416 0.000200064)
(0.000660647 0.000486268 0.000200064)
(0.000566171 0.0005936 0.000200064)
(0.000454492 0.000682897 0.000200064)
(0.000329003 0.000751444 0.000200064)
(0.000193518 0.000797158 0.000200064)
(5.21528e-05 0.000818651 0.000200063)
(-9.07965e-05 0.000815271 0.000200064)
(-0.000230987 0.000787118 0.000200064)
(-0.00036416 0.000735049 0.000200064)
(-0.000486268 0.000660647 0.000200064)
(-0.0005936 0.000566171 0.000200064)
(-0.000682897 0.000454492 0.000200064)
(-0.000751444 0.000329003 0.000200064)
(-0.000797158 0.000193518 0.000200064)
(-0.000818651 5.21528e-05 0.000200063)
(-0.000815271 -9.07965e-05 0.000200064)
(-0.000787118 -0.000230987 0.000200064)
(-0.000735049 -0.00036416 0.000200064)
(-0.000660647 -0.000486268 0.000200064)
(-0.000566171 -0.0005936 0.000200064)
(-0.000454492 -0.000682897 0.000200064)
(-0.000329003 -0.000751444 0.000200064)
(-0.000193518 -0.000797158 0.000200064)
(-5.21528e-05 -0.000818651 0.000200063)
(9.07965e-05 -0.000815271 0.000200064)
(0.000137162 -0.000822662 0.000226536)
(0.000277932 -0.000786346 0.000226536)
(0.000410257 -0.000726137 0.000226536)
(0.000530116 -0.000643865 0.000226536)
(0.000633869 -0.000542029 0.000226536)
(0.000718361 -0.000423724 0.000226536)
(0.000781027 -0.000292545 0.000226536)
(0.000819962 -0.000152477 0.000226536)
(0.000833982 -7.7759e-06 0.000226536)
(0.000822662 0.000137162 0.000226536)
(0.000786346 0.000277932 0.000226536)
(0.000726137 0.000410257 0.000226536)
(0.000643865 0.000530116 0.000226536)
(0.000542029 0.000633869 0.000226536)
(0.000423724 0.000718361 0.000226536)
(0.000292545 0.000781027 0.000226536)
(0.000152477 0.000819962 0.000226536)
(7.7759e-06 0.000833982 0.000226536)
(-0.000137162 0.000822662 0.000226536)
(-0.000277932 0.000786346 0.000226536)
(-0.000410257 0.000726137 0.000226536)
(-0.000530116 0.000643865 0.000226536)
(-0.000633869 0.000542029 0.000226536)
(-0.000718361 0.000423724 0.000226536)
(-0.000781027 0.000292545 0.000226536)
(-0.000819962 0.000152477 0.000226536)
(-0.000833982 7.7759e-06 0.000226536)
(-0.000822662 -0.000137162 0.000226536)
(-0.000786346 -0.000277932 0.000226536)
(-0.000726137 -0.000410257 0.000226536)
(-0.000643865 -0.000530116 0.000226536)
(-0.000542029 -0.000633869 0.000226536)
(-0.000423724 -0.000718361 0.000226536)
(-0.000292545 -0.000781027 0.000226536)
(-0.000152477 -0.000819962 0.000226536)
(-7.7759e-06 -0.000833982 0.000226536)
(0.000444665 -0.00125107 0.000360722)
(0.000655155 -0.00115485 0.000360723)
(0.00084574 -0.00102354 0.000360723)
(0.00101063 -0.000861126 0.000360724)
(0.00114481 -0.00067255 0.000360724)
(0.0012442 -0.00046354 0.000360723)
(0.00130579 -0.000240444 0.000360722)
(0.00132771 -1.00429e-05 0.000360722)
(0.00130928 0.000220663 0.000360722)
(0.00125107 0.000444665 0.000360722)
(0.00115485 0.000655155 0.000360723)
(0.00102354 0.00084574 0.000360723)
(0.000861126 0.00101063 0.000360724)
(0.00067255 0.00114481 0.000360724)
(0.00046354 0.0012442 0.000360723)
(0.000240444 0.00130579 0.000360722)
(1.00429e-05 0.00132771 0.000360722)
(-0.000220663 0.00130928 0.000360722)
(-0.000444665 0.00125107 0.000360722)
(-0.000655155 0.00115485 0.000360723)
(-0.00084574 0.00102354 0.000360723)
(-0.00101063 0.000861126 0.000360724)
(-0.00114481 0.00067255 0.000360724)
(-0.0012442 0.00046354 0.000360723)
(-0.00130579 0.000240444 0.000360722)
(-0.00132771 1.00429e-05 0.000360722)
(-0.00130928 -0.000220663 0.000360722)
(-0.00125107 -0.000444665 0.000360722)
(-0.00115485 -0.000655155 0.000360723)
(-0.00102354 -0.00084574 0.000360723)
(-0.000861126 -0.00101063 0.000360724)
(-0.00067255 -0.00114481 0.000360724)
(-0.00046354 -0.0012442 0.000360723)
(-0.000240444 -0.00130579 0.000360722)
(-1.00429e-05 -0.00132771 0.000360722)
(0.000220663 -0.00130928 0.000360722)
(0.000345365 -0.00129498 0.000409595)
(0.000564989 -0.00121533 0.000409595)
(0.000767447 -0.00109876 0.000409595)
(0.000946585 -0.000948803 0.000409595)
(0.00109696 -0.000770015 0.000409595)
(0.00121401 -0.000567831 0.000409595)
(0.00129417 -0.000348395 0.000409595)
(0.00133501 -0.000118372 0.000409595)
(0.00133528 0.000115247 0.000409595)
(0.00129498 0.000345365 0.000409595)
(0.00121533 0.000564989 0.000409595)
(0.00109876 0.000767447 0.000409595)
(0.000948803 0.000946585 0.000409595)
(0.000770015 0.00109696 0.000409595)
(0.000567831 0.00121401 0.000409595)
(0.000348395 0.00129417 0.000409595)
(0.000118372 0.00133501 0.000409595)
(-0.000115247 0.00133528 0.000409595)
(-0.000345365 0.00129498 0.000409595)
(-0.000564989 0.00121533 0.000409595)
(-0.000767447 0.00109876 0.000409595)
(-0.000946585 0.000948803 0.000409595)
(-0.00109696 0.000770015 0.000409595)
(-0.00121401 0.000567831 0.000409595)
(-0.00129417 0.000348395 0.000409595)
(-0.00133501 0.000118372 0.000409595)
(-0.00133528 -0.000115247 0.000409595)
(-0.00129498 -0.000345365 0.000409595)
(-0.00121533 -0.000564989 0.000409595)
(-0.00109876 -0.000767447 0.000409595)
(-0.000948803 -0.000946585 0.000409595)
(-0.000770015 -0.00109696 0.000409595)
(-0.000567831 -0.00121401 0.000409595)
(-0.000348395 -0.00129417 0.000409595)
(-0.000118372 -0.00133501 0.000409595)
(0.000115247 -0.00133528 0.000409595)
(0.000225987 -0.00133336 0.000449514)
(0.00045409 -0.00127386 0.000449514)
(0.000668395 -0.00117566 0.000449514)
(0.000862391 -0.00104173 0.000449514)
(0.00103018 -0.000876152 0.000449514)
(0.00116668 -0.000683951 0.000449514)
(0.00126772 -0.000470969 0.000449514)
(0.00133024 -0.000243678 0.000449514)
(0.00135235 -8.98202e-06 0.000449514)
(0.00133336 0.000225987 0.000449514)
(0.00127386 0.00045409 0.000449514)
(0.00117566 0.000668395 0.000449514)
(0.00104173 0.000862391 0.000449514)
(0.000876152 0.00103018 0.000449514)
(0.000683951 0.00116668 0.000449514)
(0.000470969 0.00126772 0.000449514)
(0.000243678 0.00133024 0.000449514)
(8.98202e-06 0.00135235 0.000449514)
(-0.000225987 0.00133336 0.000449514)
(-0.00045409 0.00127386 0.000449514)
(-0.000668395 0.00117566 0.000449514)
(-0.000862391 0.00104173 0.000449514)
(-0.00103018 0.000876152 0.000449514)
(-0.00116668 0.000683951 0.000449514)
(-0.00126772 0.000470969 0.000449514)
(-0.00133024 0.000243678 0.000449514)
(-0.00135235 8.98202e-06 0.000449514)
(-0.00133336 -0.000225987 0.000449514)
(-0.00127386 -0.00045409 0.000449514)
(-0.00117566 -0.000668395 0.000449514)
(-0.00104173 -0.000862391 0.000449514)
(-0.000876152 -0.00103018 0.000449514)
(-0.000683951 -0.00116668 0.000449514)
(-0.000470969 -0.00126772 0.000449514)
(-0.000243678 -0.00133024 0.000449514)
(-8.98202e-06 -0.00135235 0.000449514)
(0.000537187 -0.00174607 0.000603914)
(0.000832228 -0.00162626 0.000603915)
(0.00110198 -0.00145704 0.000603915)
(0.00133825 -0.00124355 0.000603915)
(0.00153386 -0.000992271 0.000603915)
(0.00168287 -0.000710844 0.000603914)
(0.00178074 -0.000407818 0.000603914)
(0.0018245 -9.24004e-05 0.000603914)
(0.00181283 0.000225824 0.000603914)
(0.00174607 0.000537187 0.000603914)
(0.00162626 0.000832228 0.000603915)
(0.00145704 0.00110198 0.000603915)
(0.00124355 0.00133825 0.000603915)
(0.000992271 0.00153386 0.000603915)
(0.000710844 0.00168287 0.000603914)
(0.000407818 0.00178074 0.000603914)
(9.24004e-05 0.0018245 0.000603914)
(-0.000225824 0.00181283 0.000603914)
(-0.000537187 0.00174607 0.000603914)
(-0.000832228 0.00162626 0.000603915)
(-0.00110198 0.00145704 0.000603915)
(-0.00133825 0.00124355 0.000603915)
(-0.00153386 0.000992271 0.000603915)
(-0.00168287 0.000710844 0.000603914)
(-0.00178074 0.000407818 0.000603914)
(-0.0018245 9.24004e-05 0.000603914)
(-0.00181283 -0.000225824 0.000603914)
(-0.00174607 -0.000537187 0.000603914)
(-0.00162626 -0.000832228 0.000603915)
(-0.00145704 -0.00110198 0.000603915)
(-0.00124355 -0.00133825 0.000603915)
(-0.000992271 -0.00153386 0.000603915)
(-0.000710844 -0.00168287 0.000603914)
(-0.000407818 -0.00178074 0.000603914)
(-9.24004e-05 -0.0018245 0.000603914)
(0.000225824 -0.00181283 0.000603914)
(0.000418465 -0.00177526 0.000656786)
(0.000720378 -0.00167562 0.000656786)
(0.0010004 -0.00152507 0.000656786)
(0.00125003 -0.00132818 0.000656786)
(0.00146168 -0.00109094 0.000656786)
(0.00162891 -0.00082055 0.000656786)
(0.00174665 -0.000525227 0.000656786)
(0.00181132 -0.000213945 0.000656786)
(0.00182095 0.000103837 0.000656786)
(0.00177526 0.000418465 0.000656786)
(0.00167562 0.000720378 0.000656786)
(0.00152507 0.0010004 0.000656786)
(0.00132818 0.00125003 0.000656786)
(0.00109094 0.00146168 0.000656786)
(0.00082055 0.00162891 0.000656786)
(0.000525227 0.00174665 0.000656786)
(0.000213945 0.00181132 0.000656786)
(-0.000103837 0.00182095 0.000656786)
(-0.000418465 0.00177526 0.000656786)
(-0.000720378 0.00167562 0.000656786)
(-0.0010004 0.00152507 0.000656786)
(-0.00125003 0.00132818 0.000656786)
(-0.00146168 0.00109094 0.000656786)
(-0.00162891 0.00082055 0.000656786)
(-0.00174665 0.000525227 0.000656786)
(-0.00181132 0.000213945 0.000656786)
(-0.00182095 -0.000103837 0.000656786)
(-0.00177526 -0.000418465 0.000656786)
(-0.00167562 -0.000720378 0.000656786)
(-0.00152507 -0.0010004 0.000656786)
(-0.00132818 -0.00125003 0.000656786)
(-0.00109094 -0.00146168 0.000656786)
(-0.00082055 -0.00162891 0.000656786)
(-0.000525227 -0.00174665 0.000656786)
(-0.000213945 -0.00181132 0.000656786)
(0.000103837 -0.00182095 0.000656786)
(0.000282621 -0.00179806 0.000700362)
(0.000590557 -0.00172166 0.000700362)
(0.000880548 -0.00159296 0.000700362)
(0.00114378 -0.00141585 0.000700362)
(0.00137227 -0.00119572 0.000700362)
(0.00155906 -0.000939268 0.000700362)
(0.00169847 -0.000654271 0.000700362)
(0.00178628 -0.000349394 0.000700362)
(0.00181982 -3.39019e-05 0.000700362)
(0.00179806 0.000282621 0.000700362)
(0.00172166 0.000590557 0.000700362)
(0.00159296 0.000880548 0.000700362)
(0.00141585 0.00114378 0.000700362)
(0.00119572 0.00137227 0.000700362)
(0.000939268 0.00155906 0.000700362)
(0.000654271 0.00169847 0.000700362)
(0.000349394 0.00178628 0.000700362)
(3.39019e-05 0.00181982 0.000700362)
(-0.000282621 0.00179806 0.000700362)
(-0.000590557 0.00172166 0.000700362)
(-0.000880548 0.00159296 0.000700362)
(-0.00114378 0.00141585 0.000700362)
(-0.00137227 0.00119572 0.000700362)
(-0.00155906 0.000939268 0.000700362)
(-0.00169847 0.000654271 0.000700362)
(-0.00178628 0.000349394 0.000700362)
(-0.00181982 3.39019e-05 0.000700362)
(-0.00179806 -0.000282621 0.000700362)
(-0.00172166 -0.000590557 0.000700362)
(-0.00159296 -0.000880548 0.000700362)
(-0.00141585 -0.00114378 0.000700362)
(-0.00119572 -0.00137227 0.000700362)
(-0.000939268 -0.00155906 0.000700362)
(-0.000654271 -0.00169847 0.000700362)
(-0.000349394 -0.00178628 0.000700362)
(-3.39019e-05 -0.00181982 0.000700362)
(0.000578623 -0.0022169 0.000880197)
(0.000954794 -0.00208274 0.000880197)
(0.00130195 -0.0018853 0.000880197)
(0.00160955 -0.00163058 0.000880197)
(0.00186825 -0.00132631 0.000880196)
(0.00207018 -0.000981745 0.000880196)
(0.00220921 -0.000607349 0.000880196)
(0.00228111 -0.000214497 0.000880196)
(0.0022837 0.000184872 0.000880196)
(0.0022169 0.000578623 0.000880197)
(0.00208274 0.000954794 0.000880197)
(0.0018853 0.00130195 0.000880197)
(0.00163058 0.00160955 0.000880197)
(0.00132631 0.00186825 0.000880196)
(0.000981745 0.00207018 0.000880196)
(0.000607349 0.00220921 0.000880196)
(0.000214497 0.00228111 0.000880196)
(-0.000184872 0.0022837 0.000880196)
(-0.000578623 0.0022169 0.000880197)
(-0.000954794 0.00208274 0.000880197)
(-0.00130195 0.0018853 0.000880197)
(-0.00160955 0.00163058 0.000880197)
(-0.00186825 0.00132631 0.000880196)
(-0.00207018 0.000981745 0.000880196)
(-0.00220921 0.000607349 0.000880196)
(-0.00228111 0.000214497 0.000880196)
(-0.0022837 -0.000184872 0.000880196)
(-0.0022169 -0.000578623 0.000880197)
(-0.00208274 -0.000954794 0.000880197)
(-0.0018853 -0.00130195 0.000880197)
(-0.00163058 -0.00160955 0.000880197)
(-0.00132631 -0.00186825 0.000880196)
(-0.000981745 -0.00207018 0.000880196)
(-0.000607349 -0.00220921 0.000880196)
(-0.000214497 -0.00228111 0.000880196)
(0.000184872 -0.0022837 0.000880196)
(0.000447851 -0.00221408 0.000929081)
(0.000825518 -0.00210267 0.000929081)
(0.0011781 -0.00192738 0.000929081)
(0.00149489 -0.00169352 0.000929081)
(0.00176625 -0.00140821 0.000929081)
(0.00198395 -0.00108011 0.000929081)
(0.00214137 -0.000719188 0.000929081)
(0.00223373 -0.000336417 0.000929081)
(0.00225821 5.65762e-05 0.000929081)
(0.00221408 0.000447851 0.000929081)
(0.00210267 0.000825518 0.000929081)
(0.00192738 0.0011781 0.000929081)
(0.00169352 0.00149489 0.000929081)
(0.00140821 0.00176625 0.000929081)
(0.00108011 0.00198395 0.000929081)
(0.000719188 0.00214137 0.000929081)
(0.000336417 0.00223373 0.000929081)
(-5.65762e-05 0.00225821 0.000929081)
(-0.000447851 0.00221408 0.000929081)
(-0.000825518 0.00210267 0.000929081)
(-0.0011781 0.00192738 0.000929081)
(-0.00149489 0.00169352 0.000929081)
(-0.00176625 0.00140821 0.000929081)
(-0.00198395 0.00108011 0.000929081)
(-0.00214137 0.000719188 0.000929081)
(-0.00223373 0.000336417 0.000929081)
(-0.00225821 -5.65762e-05 0.000929081)
(-0.00221408 -0.000447851 0.000929081)
(-0.00210267 -0.000825518 0.000929081)
(-0.00192738 -0.0011781 0.000929081)
(-0.00169352 -0.00149489 0.000929081)
(-0.00140821 -0.00176625 0.000929081)
(-0.00108011 -0.00198395 0.000929081)
(-0.000719188 -0.00214137 0.000929081)
(-0.000336417 -0.00223373 0.000929081)
(5.65762e-05 -0.00225821 0.000929081)
(0.000302927 -0.00220533 0.000968483)
(0.000681277 -0.00211922 0.000968483)
(0.00103893 -0.00196872 0.000968483)
(0.00136501 -0.00175841 0.000968483)
(0.00164961 -0.00149466 0.000968483)
(0.0018841 -0.0011855 0.000968483)
(0.00206133 -0.000840322 0.000968483)
(0.00217594 -0.000469609 0.000968483)
(0.00222443 -8.46267e-05 0.000968483)
(0.00220533 0.000302927 0.000968483)
(0.00211922 0.000681277 0.000968483)
(0.00196872 0.00103893 0.000968483)
(0.00175841 0.00136501 0.000968483)
(0.00149466 0.00164961 0.000968483)
(0.0011855 0.0018841 0.000968483)
(0.000840322 0.00206133 0.000968483)
(0.000469609 0.00217594 0.000968483)
(8.46267e-05 0.00222443 0.000968483)
(-0.000302927 0.00220533 0.000968483)
(-0.000681277 0.00211922 0.000968483)
(-0.00103893 0.00196872 0.000968483)
(-0.00136501 0.00175841 0.000968483)
(-0.00164961 0.00149466 0.000968483)
(-0.0018841 0.0011855 0.000968483)
(-0.00206133 0.000840322 0.000968483)
(-0.00217594 0.000469609 0.000968483)
(-0.00222443 8.46267e-05 0.000968483)
(-0.00220533 -0.000302927 0.000968483)
(-0.00211922 -0.000681277 0.000968483)
(-0.00196872 -0.00103893 0.000968483)
(-0.00175841 -0.00136501 0.000968483)
(-0.00149466 -0.00164961 0.000968483)
(-0.0011855 -0.0018841 0.000968483)
(-0.000840322 -0.00206133 0.000968483)
(-0.000469609 -0.00217594 0.000968483)
(-8.46267e-05 -0.00222443 0.000968483)
(0.000574798 -0.00264397 0.00118097)
(0.00102519 -0.00250399 0.00118097)
(0.00144442 -0.00228793 0.00118097)
(0.00181977 -0.00200235 0.00118097)
(0.00213983 -0.00165593 0.00118097)
(0.00239487 -0.00125919 0.00118097)
(0.00257715 -0.000824196 0.00118097)
(0.00268111 -0.000364158 0.00118097)
(0.00270362 0.000106944 0.00118097)
(0.00264397 0.000574798 0.00118097)
(0.00250399 0.00102519 0.00118097)
(0.00228793 0.00144442 0.00118097)
(0.00200235 0.00181977 0.00118097)
(0.00165593 0.00213983 0.00118097)
(0.00125919 0.00239487 0.00118097)
(0.000824196 0.00257715 0.00118097)
(0.000364158 0.00268111 0.00118097)
(-0.000106944 0.00270362 0.00118097)
(-0.000574798 0.00264397 0.00118097)
(-0.00102519 0.00250399 0.00118097)
(-0.00144442 0.00228793 0.00118097)
(-0.00181977 0.00200235 0.00118097)
(-0.00213983 0.00165593 0.00118097)
(-0.00239487 0.00125919 0.00118097)
(-0.00257715 0.000824196 0.00118097)
(-0.00268111 0.000364158 0.00118097)
(-0.00270362 -0.000106944 0.00118097)
(-0.00264397 -0.000574798 0.00118097)
(-0.00250399 -0.00102519 0.00118097)
(-0.00228793 -0.00144442 0.00118097)
(-0.00200235 -0.00181977 0.00118097)
(-0.00165593 -0.00213983 0.00118097)
(-0.00125919 -0.00239487 0.00118097)
(-0.000824196 -0.00257715 0.00118097)
(-0.000364158 -0.00268111 0.00118097)
(0.000106944 -0.00270362 0.00118097)
(0.000437174 -0.00259651 0.00121946)
(0.000881413 -0.00248115 0.00121946)
(0.00129887 -0.0022904 0.00121946)
(0.00167686 -0.00203006 0.00121946)
(0.0020039 -0.00170803 0.00121946)
(0.00227005 -0.00133411 0.00121946)
(0.00246723 -0.000919652 0.00121946)
(0.00258945 -0.00047725 0.00121946)
(0.00263298 -2.03467e-05 0.00121946)
(0.00259651 0.000437174 0.00121946)
(0.00248115 0.000881413 0.00121946)
(0.0022904 0.00129887 0.00121946)
(0.00203006 0.00167686 0.00121946)
(0.00170803 0.0020039 0.00121946)
(0.00133411 0.00227005 0.00121946)
(0.000919652 0.00246723 0.00121946)
(0.00047725 0.00258945 0.00121946)
(2.03467e-05 0.00263298 0.00121946)
(-0.000437174 0.00259651 0.00121946)
(-0.000881413 0.00248115 0.00121946)
(-0.00129887 0.0022904 0.00121946)
(-0.00167686 0.00203006 0.00121946)
(-0.0020039 0.00170803 0.00121946)
(-0.00227005 0.00133411 0.00121946)
(-0.00246723 0.000919652 0.00121946)
(-0.00258945 0.00047725 0.00121946)
(-0.00263298 2.03467e-05 0.00121946)
(-0.00259651 -0.000437174 0.00121946)
(-0.00248115 -0.000881413 0.00121946)
(-0.0022904 -0.00129887 0.00121946)
(-0.00203006 -0.00167686 0.00121946)
(-0.00170803 -0.0020039 0.00121946)
(-0.00133411 -0.00227005 0.00121946)
(-0.000919652 -0.00246723 0.00121946)
(-0.00047725 -0.00258945 0.00121946)
(-2.03467e-05 -0.00263298 0.00121946)
(0.000288569 -0.00254457 0.00124823)
(0.000726045 -0.0024558 0.00124823)
(0.00114146 -0.00229241 0.00124823)
(0.00152219 -0.00205938 0.00124823)
(0.00185667 -0.00176376 0.00124823)
(0.00213474 -0.00141456 0.00124823)
(0.00234794 -0.00102238 0.00124823)
(0.00248981 -0.000599128 0.00124823)
(0.00255602 -0.000157675 0.00124823)
(0.00254457 0.000288569 0.00124823)
(0.0024558 0.000726045 0.00124823)
(0.00229241 0.00114146 0.00124823)
(0.00205938 0.00152219 0.00124823)
(0.00176376 0.00185667 0.00124823)
(0.00141456 0.00213474 0.00124823)
(0.00102238 0.00234794 0.00124823)
(0.000599128 0.00248981 0.00124823)
(0.000157675 0.00255602 0.00124823)
(-0.000288569 0.00254457 0.00124823)
(-0.000726045 0.0024558 0.00124823)
(-0.00114146 0.00229241 0.00124823)
(-0.00152219 0.00205938 0.00124823)
(-0.00185667 0.00176376 0.00124823)
(-0.00213474 0.00141456 0.00124823)
(-0.00234794 0.00102238 0.00124823)
(-0.00248981 0.000599128 0.00124823)
(-0.00255602 0.000157675 0.00124823)
(-0.00254457 -0.000288569 0.00124823)
(-0.0024558 -0.000726045 0.00124823)
(-0.00229241 -0.00114146 0.00124823)
(-0.00205938 -0.00152219 0.00124823)
(-0.00176376 -0.00185667 0.00124823)
(-0.00141456 -0.00213474 0.00124823)
(-0.00102238 -0.00234794 0.00124823)
(-0.000599128 -0.00248981 0.00124823)
(-0.000157675 -0.00255602 0.00124823)
(0.000536264 -0.00300779 0.00150434)
(0.00105041 -0.00286897 0.00150434)
(0.00153265 -0.00264298 0.00150434)
(0.00196831 -0.00233669 0.00150434)
(0.00234417 -0.0019594 0.00150434)
(0.00264881 -0.00152257 0.00150434)
(0.00287296 -0.00103948 0.00150434)
(0.00300981 -0.000524801 0.00150434)
(0.00305522 5.82065e-06 0.00150434)
(0.00300779 0.000536264 0.00150434)
(0.00286897 0.00105041 0.00150434)
(0.00264298 0.00153265 0.00150434)
(0.00233669 0.00196831 0.00150434)
(0.0019594 0.00234417 0.00150434)
(0.00152257 0.00264881 0.00150434)
(0.00103948 0.00287296 0.00150434)
(0.000524801 0.00300981 0.00150434)
(-5.82065e-06 0.00305522 0.00150434)
(-0.000536264 0.00300779 0.00150434)
(-0.00105041 0.00286897 0.00150434)
(-0.00153265 0.00264298 0.00150434)
(-0.00196831 0.00233669 0.00150434)
(-0.00234417 0.0019594 0.00150434)
(-0.00264881 0.00152257 0.00150434)
(-0.00287296 0.00103948 0.00150434)
(-0.00300981 0.000524801 0.00150434)
(-0.00305522 -5.82065e-06 0.00150434)
(-0.00300779 -0.000536264 0.00150434)
(-0.00286897 -0.00105041 0.00150434)
(-0.00264298 -0.00153265 0.00150434)
(-0.00233669 -0.00196831 0.00150434)
(-0.0019594 -0.00234417 0.00150434)
(-0.00152257 -0.00264881 0.00150434)
(-0.00103948 -0.00287296 0.00150434)
(-0.000524801 -0.00300981 0.00150434)
(5.82065e-06 -0.00305522 0.00150434)
(0.000394896 -0.00290713 0.00152674)
(0.000893715 -0.00279439 0.00152674)
(0.00136538 -0.00259674 0.00152674)
(0.00179555 -0.0023202 0.00152674)
(0.00217117 -0.00197315 0.00152674)
(0.00248082 -0.00156616 0.00152674)
(0.00271509 -0.00111157 0.00152674)
(0.00286687 -0.000623215 0.00152674)
(0.00293153 -0.00011592 0.00152674)
(0.00290713 0.000394896 0.00152674)
(0.00279439 0.000893715 0.00152674)
(0.00259674 0.00136538 0.00152674)
(0.0023202 0.00179555 0.00152674)
(0.00197315 0.00217117 0.00152674)
(0.00156616 0.00248082 0.00152674)
(0.00111157 0.00271509 0.00152674)
(0.000623215 0.00286687 0.00152674)
(0.00011592 0.00293153 0.00152674)
(-0.000394896 0.00290713 0.00152674)
(-0.000893715 0.00279439 0.00152674)
(-0.00136538 0.00259674 0.00152674)
(-0.00179555 0.0023202 0.00152674)
(-0.00217117 0.00197315 0.00152674)
(-0.00248082 0.00156616 0.00152674)
(-0.00271509 0.00111157 0.00152674)
(-0.00286687 0.000623215 0.00152674)
(-0.00293153 0.00011592 0.00152674)
(-0.00290713 -0.000394896 0.00152674)
(-0.00279439 -0.000893715 0.00152674)
(-0.00259674 -0.00136538 0.00152674)
(-0.0023202 -0.00179555 0.00152674)
(-0.00197315 -0.00217117 0.00152674)
(-0.00156616 -0.00248082 0.00152674)
(-0.00111157 -0.00271509 0.00152674)
(-0.000623215 -0.00286687 0.00152674)
(-0.00011592 -0.00293153 0.00152674)
(0.000246113 -0.00280434 0.00153902)
(0.000729343 -0.002719 0.00153902)
(0.00119041 -0.00255104 0.00153902)
(0.00161531 -0.00230557 0.00153902)
(0.00199113 -0.00199005 0.00153902)
(0.00230645 -0.00161406 0.00153902)
(0.00255169 -0.00118903 0.00153902)
(0.00271939 -0.00072787 0.00153902)
(0.00280447 -0.000244595 0.00153902)
(0.00280434 0.000246113 0.00153902)
(0.002719 0.000729343 0.00153902)
(0.00255104 0.00119041 0.00153902)
(0.00230557 0.00161531 0.00153902)
(0.00199005 0.00199113 0.00153902)
(0.00161406 0.00230645 0.00153902)
(0.00118903 0.00255169 0.00153902)
(0.00072787 0.00271939 0.00153902)
(0.000244595 0.00280447 0.00153902)
(-0.000246113 0.00280434 0.00153902)
(-0.000729343 0.002719 0.00153902)
(-0.00119041 0.00255104 0.00153902)
(-0.00161531 0.00230557 0.00153902)
(-0.00199113 0.00199005 0.00153902)
(-0.00230645 0.00161406 0.00153902)
(-0.00255169 0.00118903 0.00153902)
(-0.00271939 0.00072787 0.00153902)
(-0.00280447 0.000244595 0.00153902)
(-0.00280434 -0.000246113 0.00153902)
(-0.002719 -0.000729343 0.00153902)
(-0.00255104 -0.00119041 0.00153902)
(-0.00230557 -0.00161531 0.00153902)
(-0.00199005 -0.00199113 0.00153902)
(-0.00161406 -0.00230645 0.00153902)
(-0.00118903 -0.00255169 0.00153902)
(-0.00072787 -0.00271939 0.00153902)
(-0.000244595 -0.00280447 0.00153902)
(0.0004763 -0.00328952 0.00185282)
(0.00104028 -0.00315684 0.00185282)
(0.00157266 -0.00292824 0.00185282)
(0.00205725 -0.00261066 0.00185282)
(0.00247933 -0.00221376 0.00185282)
(0.00282608 -0.0017496 0.00185282)
(0.00308696 -0.00123227 0.00185282)
(0.00325405 -0.000677506 0.00185282)
(0.00332226 -0.000102154 0.00185282)
(0.00328952 0.0004763 0.00185282)
(0.00315684 0.00104028 0.00185282)
(0.00292824 0.00157266 0.00185282)
(0.00261066 0.00205725 0.00185282)
(0.00221376 0.00247933 0.00185282)
(0.0017496 0.00282608 0.00185282)
(0.00123227 0.00308696 0.00185282)
(0.000677506 0.00325405 0.00185282)
(0.000102154 0.00332226 0.00185282)
(-0.0004763 0.00328952 0.00185282)
(-0.00104028 0.00315684 0.00185282)