/*--------------------------------*- C++ -*----------------------------------*\
| =========                 |                                                 |
| \\      /  F ield         | OpenFOAM: The Open Source CFD Toolbox           |
|  \\    /   O peration     | Version:  2312                                  |
|   \\  /    A nd           | Website:  www.openfoam.com                      |
|    \\/     M anipulation  |                                                 |
\*---------------------------------------------------------------------------*/
FoamFile
{
    version     2.0;
    format      ascii;
    arch        "LSB;label=32;scalar=64";
    class       volVectorField;
    location    "0.4";
    object      D_0;
}
// * * * * * * * * * * * * * * * * * * * * * * * * * * * * * * * * * * * * * //

dimensions      [0 1 0 0 0 0 0];

internalField   nonuniform List<vector> 
1620
(
(0.000131306 -0.000246069 4.41127e-05)
(0.000172041 -0.000219529 4.41129e-05)
(0.000207548 -0.00018632 4.41129e-05)
(0.00023675 -0.000147449 4.41129e-05)
(0.000258757 -0.000104097 4.4113e-05)
(0.000272902 -5.75833e-05 4.41129e-05)
(0.000278755 -9.31959e-06 4.41126e-05)
(0.000276138 3.92271e-05 4.41125e-05)
(0.000265132 8.65821e-05 4.41126e-05)
(0.000246069 0.000131306 4.41127e-05)
(0.000219529 0.000172041 4.41129e-05)
(0.00018632 0.000207548 4.41129e-05)
(0.000147449 0.00023675 4.41129e-05)
(0.000104097 0.000258757 4.4113e-05)
(5.75833e-05 0.000272902 4.41129e-05)
(9.31959e-06 0.000278755 4.41126e-05)
(-3.92271e-05 0.000276138 4.41125e-05)
(-8.65821e-05 0.000265132 4.41126e-05)
(-0.000131306 0.000246069 4.41127e-05)
(-0.000172041 0.000219529 4.41129e-05)
(-0.000207548 0.00018632 4.41129e-05)
(-0.00023675 0.000147449 4.41129e-05)
(-0.000258757 0.000104097 4.4113e-05)
(-0.000272902 5.75833e-05 4.41129e-05)
(-0.000278755 9.31959e-06 4.41126e-05)
(-0.000276138 -3.92271e-05 4.41125e-05)
(-0.000265132 -8.65821e-05 4.41126e-05)
(-0.000246069 -0.000131306 4.41127e-05)
(-0.000219529 -0.000172041 4.41129e-05)
(-0.00018632 -0.000207548 4.41129e-05)
(-0.000147449 -0.00023675 4.41129e-05)
(-0.000104097 -0.000258757 4.4113e-05)
(-5.75833e-05 -0.000272902 4.41129e-05)
(-9.31959e-06 -0.000278755 4.41126e-05)
(3.92271e-05 -0.000276138 4.41125e-05)
(8.65821e-05 -0.000265132 4.41126e-05)
(8.53868e-05 -0.000262057 5.3072e-05)
(0.000129595 -0.000243249 5.30721e-05)
(0.000169866 -0.000217049 5.30722e-05)
(0.000204976 -0.000184255 5.30722e-05)
(0.000233858 -0.000145862 5.30723e-05)
(0.000255633 -0.000103037 5.30722e-05)
(0.000269642 -5.70812e-05 5.30721e-05)
(0.000275457 -9.39148e-06 5.3072e-05)
(0.000272903 3.85839e-05 5.3072e-05)
(0.000262057 8.53868e-05 5.3072e-05)
(0.000243249 0.000129595 5.30721e-05)
(0.000217049 0.000169866 5.30722e-05)
(0.000184255 0.000204976 5.30722e-05)
(0.000145862 0.000233858 5.30723e-05)
(0.000103037 0.000255633 5.30722e-05)
(5.70812e-05 0.000269642 5.30721e-05)
(9.39148e-06 0.000275457 5.3072e-05)
(-3.85839e-05 0.000272903 5.3072e-05)
(-8.53868e-05 0.000262057 5.3072e-05)
(-0.000129595 0.000243249 5.30721e-05)
(-0.000169866 0.000217049 5.30722e-05)
(-0.000204976 0.000184255 5.30722e-05)
(-0.000233858 0.000145862 5.30723e-05)
(-0.000255633 0.000103037 5.30722e-05)
(-0.000269642 5.70812e-05 5.30721e-05)
(-0.000275457 9.39148e-06 5.3072e-05)
(-0.000272903 -3.85839e-05 5.3072e-05)
(-0.000262057 -8.53868e-05 5.3072e-05)
(-0.000243249 -0.000129595 5.30721e-05)
(-0.000217049 -0.000169866 5.30722e-05)
(-0.000184255 -0.000204976 5.30722e-05)
(-0.000145862 -0.000233858 5.30723e-05)
(-0.000103037 -0.000255633 5.30722e-05)
(-5.70812e-05 -0.000269642 5.30721e-05)
(-9.39148e-06 -0.000275457 5.3072e-05)
(3.85839e-05 -0.000272903 5.3072e-05)
(2.07309e-05 -0.000277404 5.65125e-05)
(6.85867e-05 -0.00026959 5.65125e-05)
(0.000114359 -0.000253585 5.65127e-05)
(0.000156656 -0.000229874 5.65127e-05)
(0.000194194 -0.000199179 5.65127e-05)
(0.00022583 -0.000162431 5.65126e-05)
(0.000250605 -0.000120749 5.65126e-05)
(0.000267766 -7.53972e-05 5.65127e-05)
(0.00027679 -2.77548e-05 5.65126e-05)
(0.000277404 2.07309e-05 5.65125e-05)
(0.00026959 6.85867e-05 5.65125e-05)
(0.000253585 0.000114359 5.65127e-05)
(0.000229874 0.000156656 5.65127e-05)
(0.000199179 0.000194194 5.65127e-05)
(0.000162431 0.00022583 5.65126e-05)
(0.000120749 0.000250605 5.65126e-05)
(7.53972e-05 0.000267766 5.65127e-05)
(2.77548e-05 0.00027679 5.65126e-05)
(-2.07309e-05 0.000277404 5.65125e-05)
(-6.85867e-05 0.00026959 5.65125e-05)
(-0.000114359 0.000253585 5.65127e-05)
(-0.000156656 0.000229874 5.65127e-05)
(-0.000194194 0.000199179 5.65127e-05)
(-0.00022583 0.000162431 5.65126e-05)
(-0.000250605 0.000120749 5.65126e-05)
(-0.000267766 7.53972e-05 5.65127e-05)
(-0.00027679 2.77548e-05 5.65126e-05)
(-0.000277404 -2.07309e-05 5.65125e-05)
(-0.00026959 -6.85867e-05 5.65125e-05)
(-0.000253585 -0.000114359 5.65127e-05)
(-0.000229874 -0.000156656 5.65127e-05)
(-0.000199179 -0.000194194 5.65127e-05)
(-0.000162431 -0.00022583 5.65126e-05)
(-0.000120749 -0.000250605 5.65126e-05)
(-7.53972e-05 -0.000267766 5.65127e-05)
(-2.77548e-05 -0.00027679 5.65126e-05)
(0.000299656 -0.000743218 0.000163647)
(0.000424162 -0.000679893 0.000163648)
(0.00053578 -0.000595908 0.000163648)
(0.000631119 -0.000493817 0.000163648)
(0.000707281 -0.000376722 0.000163648)
(0.000761953 -0.000248181 0.000163648)
(0.000793474 -0.000112099 0.000163647)
(0.000800885 2.73891e-05 0.000163647)
(0.000783962 0.000166045 0.000163647)
(0.000743218 0.000299656 0.000163647)
(0.000679893 0.000424162 0.000163648)
(0.000595908 0.00053578 0.000163648)
(0.000493817 0.000631119 0.000163648)
(0.000376722 0.000707281 0.000163648)
(0.000248181 0.000761953 0.000163648)
(0.000112099 0.000793474 0.000163647)
(-2.73891e-05 0.000800885 0.000163647)
(-0.000166045 0.000783962 0.000163647)
(-0.000299656 0.000743218 0.000163647)
(-0.000424162 0.000679893 0.000163648)
(-0.00053578 0.000595908 0.000163648)
(-0.000631119 0.000493817 0.000163648)
(-0.000707281 0.000376722 0.000163648)
(-0.000761953 0.000248181 0.000163648)
(-0.000793474 0.000112099 0.000163647)
(-0.000800885 -2.73891e-05 0.000163647)
(-0.000783962 -0.000166045 0.000163647)
(-0.000743218 -0.000299656 0.000163647)
(-0.000679893 -0.000424162 0.000163648)
(-0.000595908 -0.00053578 0.000163648)
(-0.000493817 -0.000631119 0.000163648)
(-0.000376722 -0.000707281 0.000163648)
(-0.000248181 -0.000761953 0.000163648)
(-0.000112099 -0.000793474 0.000163647)
(2.73891e-05 -0.000800885 0.000163647)
(0.000166045 -0.000783962 0.000163647)
(0.000229243 -0.000779277 0.00019724)
(0.00036108 -0.00072763 0.00019724)
(0.000481946 -0.000653875 0.000197241)
(0.000588169 -0.000560252 0.000197241)
(0.00067652 -0.000449606 0.000197241)
(0.000744316 -0.000325299 0.000197241)
(0.000789495 -0.000191108 0.00019724)
(0.000810686 -5.11104e-05 0.00019724)
(0.000807246 9.04399e-05 0.00019724)
(0.000779277 0.000229243 0.00019724)
(0.00072763 0.00036108 0.00019724)
(0.000653875 0.000481946 0.000197241)
(0.000560252 0.000588169 0.000197241)
(0.000449606 0.00067652 0.000197241)
(0.000325299 0.000744316 0.000197241)
(0.000191108 0.000789495 0.00019724)
(5.11104e-05 0.000810686 0.00019724)
(-9.04399e-05 0.000807246 0.00019724)
(-0.000229243 0.000779277 0.00019724)
(-0.00036108 0.00072763 0.00019724)
(-0.000481946 0.000653875 0.000197241)
(-0.000588169 0.000560252 0.000197241)
(-0.00067652 0.000449606 0.000197241)
(-0.000744316 0.000325299 0.000197241)
(-0.000789495 0.000191108 0.00019724)
(-0.000810686 5.11104e-05 0.00019724)
(-0.000807246 -9.04399e-05 0.00019724)
(-0.000779277 -0.000229243 0.00019724)
(-0.00072763 -0.00036108 0.00019724)
(-0.000653875 -0.000481946 0.000197241)
(-0.000560252 -0.000588169 0.000197241)
(-0.000449606 -0.00067652 0.000197241)
(-0.000325299 -0.000744316 0.000197241)
(-0.000191108 -0.000789495 0.00019724)
(-5.11104e-05 -0.000810686 0.00019724)
(9.04399e-05 -0.000807246 0.00019724)
(0.000137123 -0.000812616 0.000222761)
(0.000276149 -0.000776459 0.00022276)
(0.000406784 -0.00071671 0.000222761)
(0.000525059 -0.000635184 0.000222761)
(0.000627382 -0.000534358 0.000222761)
(0.000710641 -0.000417297 0.000222761)
(0.000772308 -0.000287555 0.000222761)
(0.000810508 -0.000149078 0.000222761)
(0.000824082 -6.06963e-06 0.000222761)
(0.000812616 0.000137123 0.000222761)
(0.000776459 0.000276149 0.00022276)
(0.00071671 0.000406784 0.000222761)
(0.000635184 0.000525059 0.000222761)
(0.000534358 0.000627382 0.000222761)
(0.000417297 0.000710641 0.000222761)
(0.000287555 0.000772308 0.000222761)
(0.000149078 0.000810508 0.000222761)
(6.06963e-06 0.000824082 0.000222761)
(-0.000137123 0.000812616 0.000222761)
(-0.000276149 0.000776459 0.00022276)
(-0.000406784 0.00071671 0.000222761)
(-0.000525059 0.000635184 0.000222761)
(-0.000627382 0.000534358 0.000222761)
(-0.000710641 0.000417297 0.000222761)
(-0.000772308 0.000287555 0.000222761)
(-0.000810508 0.000149078 0.000222761)
(-0.000824082 6.06963e-06 0.000222761)
(-0.000812616 -0.000137123 0.000222761)
(-0.000776459 -0.000276149 0.00022276)
(-0.00071671 -0.000406784 0.000222761)
(-0.000635184 -0.000525059 0.000222761)
(-0.000534358 -0.000627382 0.000222761)
(-0.000417297 -0.000710641 0.000222761)
(-0.000287555 -0.000772308 0.000222761)
(-0.000149078 -0.000810508 0.000222761)
(-6.06963e-06 -0.000824082 0.000222761)
(0.000440917 -0.00124138 0.000356974)
(0.000649782 -0.00114596 0.000356975)
(0.000838905 -0.00101572 0.000356975)
(0.00100254 -0.000854611 0.000356976)
(0.00113571 -0.000667539 0.000356976)
(0.00123437 -0.000460185 0.000356975)
(0.00129553 -0.000238847 0.000356974)
(0.00131732 -1.02518e-05 0.000356974)
(0.00129909 0.000218654 0.000356974)
(0.00124138 0.000440917 0.000356974)
(0.00114596 0.000649782 0.000356975)
(0.00101572 0.000838905 0.000356975)
(0.000854611 0.00100254 0.000356976)
(0.000667539 0.00113571 0.000356976)
(0.000460185 0.00123437 0.000356975)
(0.000238847 0.00129553 0.000356974)
(1.02518e-05 0.00131732 0.000356974)
(-0.000218654 0.00129909 0.000356974)
(-0.000440917 0.00124138 0.000356974)
(-0.000649782 0.00114596 0.000356975)
(-0.000838905 0.00101572 0.000356975)
(-0.00100254 0.000854611 0.000356976)
(-0.00113571 0.000667539 0.000356976)
(-0.00123437 0.000460185 0.000356975)
(-0.00129553 0.000238847 0.000356974)
(-0.00131732 1.02518e-05 0.000356974)
(-0.00129909 -0.000218654 0.000356974)
(-0.00124138 -0.000440917 0.000356974)
(-0.00114596 -0.000649782 0.000356975)
(-0.00101572 -0.000838905 0.000356975)
(-0.000854611 -0.00100254 0.000356976)
(-0.000667539 -0.00113571 0.000356976)
(-0.000460185 -0.00123437 0.000356975)
(-0.000238847 -0.00129553 0.000356974)
(-1.02518e-05 -0.00131732 0.000356974)
(0.000218654 -0.00129909 0.000356974)
(0.000343186 -0.00128204 0.000404215)
(0.000560596 -0.00120297 0.000404216)
(0.000760974 -0.00108735 0.000404216)
(0.000938229 -0.000938687 0.000404216)
(0.00108698 -0.000761504 0.000404216)
(0.0012027 -0.000561183 0.000404216)
(0.00128187 -0.000343812 0.000404215)
(0.0013221 -0.000115994 0.000404215)
(0.00132216 0.000115348 0.000404215)
(0.00128204 0.000343186 0.000404215)
(0.00120297 0.000560596 0.000404216)
(0.00108735 0.000760974 0.000404216)
(0.000938687 0.000938229 0.000404216)
(0.000761504 0.00108698 0.000404216)
(0.000561183 0.0012027 0.000404216)
(0.000343812 0.00128187 0.000404215)
(0.000115994 0.0013221 0.000404215)
(-0.000115348 0.00132216 0.000404215)
(-0.000343186 0.00128204 0.000404215)
(-0.000560596 0.00120297 0.000404216)
(-0.000760974 0.00108735 0.000404216)
(-0.000938229 0.000938687 0.000404216)
(-0.00108698 0.000761504 0.000404216)
(-0.0012027 0.000561183 0.000404216)
(-0.00128187 0.000343812 0.000404215)
(-0.0013221 0.000115994 0.000404215)
(-0.00132216 -0.000115348 0.000404215)
(-0.00128204 -0.000343186 0.000404215)
(-0.00120297 -0.000560596 0.000404216)
(-0.00108735 -0.000760974 0.000404216)
(-0.000938687 -0.000938229 0.000404216)
(-0.000761504 -0.00108698 0.000404216)
(-0.000561183 -0.0012027 0.000404216)
(-0.000343812 -0.00128187 0.000404215)
(-0.000115994 -0.0013221 0.000404215)
(0.000115348 -0.00132216 0.000404215)
(0.000225921 -0.00131735 0.000442802)
(0.000451244 -0.00125811 0.000442802)
(0.000662856 -0.00116064 0.000442802)
(0.000854329 -0.0010279 0.000442802)
(0.00101984 -0.00086393 0.000442802)
(0.00115437 -0.000673711 0.000442802)
(0.00125382 -0.000463022 0.000442802)
(0.00131517 -0.000238265 0.000442802)
(0.00133657 -6.26745e-06 0.000442802)
(0.00131735 0.000225921 0.000442802)
(0.00125811 0.000451244 0.000442802)
(0.00116064 0.000662856 0.000442802)
(0.0010279 0.000854329 0.000442802)
(0.00086393 0.00101984 0.000442802)
(0.000673711 0.00115437 0.000442802)
(0.000463022 0.00125382 0.000442802)
(0.000238265 0.00131517 0.000442802)
(6.26745e-06 0.00133657 0.000442802)
(-0.000225921 0.00131735 0.000442802)
(-0.000451244 0.00125811 0.000442802)
(-0.000662856 0.00116064 0.000442802)
(-0.000854329 0.0010279 0.000442802)
(-0.00101984 0.00086393 0.000442802)
(-0.00115437 0.000673711 0.000442802)
(-0.00125382 0.000463022 0.000442802)
(-0.00131517 0.000238265 0.000442802)
(-0.00133657 6.26745e-06 0.000442802)
(-0.00131735 -0.000225921 0.000442802)
(-0.00125811 -0.000451244 0.000442802)
(-0.00116064 -0.000662856 0.000442802)
(-0.0010279 -0.000854329 0.000442802)
(-0.00086393 -0.00101984 0.000442802)
(-0.000673711 -0.00115437 0.000442802)
(-0.000463022 -0.00125382 0.000442802)
(-0.000238265 -0.00131517 0.000442802)
(-6.26745e-06 -0.00133657 0.000442802)
(0.000533446 -0.00173193 0.000597722)
(0.000826089 -0.00161299 0.000597723)
(0.00109363 -0.00144504 0.000597723)
(0.00132795 -0.00123318 0.000597723)
(0.00152191 -0.000983846 0.000597723)
(0.00166963 -0.000704623 0.000597723)
(0.00176662 -0.000403989 0.000597722)
(0.00180994 -9.10807e-05 0.000597722)
(0.00179826 0.000224595 0.000597722)
(0.00173193 0.000533446 0.000597722)
(0.00161299 0.000826089 0.000597723)
(0.00144504 0.00109363 0.000597723)
(0.00123318 0.00132795 0.000597723)
(0.000983846 0.00152191 0.000597723)
(0.000704623 0.00166963 0.000597723)
(0.000403989 0.00176662 0.000597722)
(9.10807e-05 0.00180994 0.000597722)
(-0.000224595 0.00179826 0.000597722)
(-0.000533446 0.00173193 0.000597722)
(-0.000826089 0.00161299 0.000597723)
(-0.00109363 0.00144504 0.000597723)
(-0.00132795 0.00123318 0.000597723)
(-0.00152191 0.000983846 0.000597723)
(-0.00166963 0.000704623 0.000597723)
(-0.00176662 0.000403989 0.000597722)
(-0.00180994 9.10807e-05 0.000597722)
(-0.00179826 -0.000224595 0.000597722)
(-0.00173193 -0.000533446 0.000597722)
(-0.00161299 -0.000826089 0.000597723)
(-0.00144504 -0.00109363 0.000597723)
(-0.00123318 -0.00132795 0.000597723)
(-0.000983846 -0.00152191 0.000597723)
(-0.000704623 -0.00166963 0.000597723)
(-0.000403989 -0.00176662 0.000597722)
(-9.10807e-05 -0.00180994 0.000597722)
(0.000224595 -0.00179826 0.000597722)
(0.00041652 -0.00175751 0.000648866)
(0.000715382 -0.00165849 0.000648866)
(0.000992506 -0.00150906 0.000648866)
(0.00123947 -0.00131379 0.000648866)
(0.00144878 -0.0010786 0.000648866)
(0.00161407 -0.000810635 0.000648866)
(0.00173031 -0.00051804 0.000648866)
(0.00179398 -0.000209704 0.000648866)
(0.00180314 0.000105003 0.000648866)
(0.00175751 0.00041652 0.000648866)
(0.00165849 0.000715382 0.000648866)
(0.00150906 0.000992506 0.000648866)
(0.00131379 0.00123947 0.000648866)
(0.0010786 0.00144878 0.000648866)
(0.000810635 0.00161407 0.000648866)
(0.00051804 0.00173031 0.000648866)
(0.000209704 0.00179398 0.000648866)
(-0.000105003 0.00180314 0.000648866)
(-0.00041652 0.00175751 0.000648866)
(-0.000715382 0.00165849 0.000648866)
(-0.000992506 0.00150906 0.000648866)
(-0.00123947 0.00131379 0.000648866)
(-0.00144878 0.0010786 0.000648866)
(-0.00161407 0.000810635 0.000648866)
(-0.00173031 0.00051804 0.000648866)
(-0.00179398 0.000209704 0.000648866)
(-0.00180314 -0.000105003 0.000648866)
(-0.00175751 -0.00041652 0.000648866)
(-0.00165849 -0.000715382 0.000648866)
(-0.00150906 -0.000992506 0.000648866)
(-0.00131379 -0.00123947 0.000648866)
(-0.0010786 -0.00144878 0.000648866)
(-0.000810635 -0.00161407 0.000648866)
(-0.00051804 -0.00173031 0.000648866)
(-0.000209704 -0.00179398 0.000648866)
(0.000105003 -0.00180314 0.000648866)
(0.000282926 -0.00177691 0.000691015)
(0.000587185 -0.00170078 0.000691015)
(0.000873602 -0.00157298 0.000691015)
(0.00113348 -0.00139738 0.000691015)
(0.00135891 -0.00117933 0.000691015)
(0.00154305 -0.000925441 0.000691015)
(0.00168031 -0.000643433 0.000691015)
(0.00176652 -0.000341875 0.000691015)
(0.00179904 -2.99293e-05 0.000691015)
(0.00177691 0.000282926 0.000691015)
(0.00170078 0.000587185 0.000691015)
(0.00157298 0.000873602 0.000691015)
(0.00139738 0.00113348 0.000691015)
(0.00117933 0.00135891 0.000691015)
(0.000925441 0.00154305 0.000691015)
(0.000643433 0.00168031 0.000691015)
(0.000341875 0.00176652 0.000691015)
(2.99293e-05 0.00179904 0.000691015)
(-0.000282926 0.00177691 0.000691015)
(-0.000587185 0.00170078 0.000691015)
(-0.000873602 0.00157298 0.000691015)
(-0.00113348 0.00139738 0.000691015)
(-0.00135891 0.00117933 0.000691015)
(-0.00154305 0.000925441 0.000691015)
(-0.00168031 0.000643433 0.000691015)
(-0.00176652 0.000341875 0.000691015)
(-0.00179904 2.99293e-05 0.000691015)
(-0.00177691 -0.000282926 0.000691015)
(-0.00170078 -0.000587185 0.000691015)
(-0.00157298 -0.000873602 0.000691015)
(-0.00139738 -0.00113348 0.000691015)
(-0.00117933 -0.00135891 0.000691015)
(-0.000925441 -0.00154305 0.000691015)
(-0.000643433 -0.00168031 0.000691015)
(-0.000341875 -0.00176652 0.000691015)
(-2.99293e-05 -0.00179904 0.000691015)
(0.000575698 -0.00219842 0.000871623)
(0.000948703 -0.00206505 0.000871623)
(0.00129288 -0.00186894 0.000871623)
(0.00159778 -0.00161604 0.000871623)
(0.00185413 -0.00131403 0.000871623)
(0.00205414 -0.000972106 0.000871622)
(0.00219174 -0.000600641 0.000871622)
(0.00226274 -0.000210924 0.000871622)
(0.00226499 0.0001852 0.000871622)
(0.00219842 0.000575698 0.000871623)
(0.00206505 0.000948703 0.000871623)
(0.00186894 0.00129288 0.000871623)
(0.00161604 0.00159778 0.000871623)
(0.00131403 0.00185413 0.000871623)
(0.000972106 0.00205414 0.000871622)
(0.000600641 0.00219174 0.000871622)
(0.000210924 0.00226274 0.000871622)
(-0.0001852 0.00226499 0.000871622)
(-0.000575698 0.00219842 0.000871623)
(-0.000948703 0.00206505 0.000871623)
(-0.00129288 0.00186894 0.000871623)
(-0.00159778 0.00161604 0.000871623)
(-0.00185413 0.00131403 0.000871623)
(-0.00205414 0.000972106 0.000871622)
(-0.00219174 0.000600641 0.000871622)
(-0.00226274 0.000210924 0.000871622)
(-0.00226499 -0.0001852 0.000871622)
(-0.00219842 -0.000575698 0.000871623)
(-0.00206505 -0.000948703 0.000871623)
(-0.00186894 -0.00129288 0.000871623)
(-0.00161604 -0.00159778 0.000871623)
(-0.00131403 -0.00185413 0.000871623)
(-0.000972106 -0.00205414 0.000871622)
(-0.000600641 -0.00219174 0.000871622)
(-0.000210924 -0.00226274 0.000871622)
(0.0001852 -0.00226499 0.000871622)
(0.000446765 -0.00219205 0.000918874)
(0.000820624 -0.00208117 0.000918874)
(0.00116955 -0.00190705 0.000918874)
(0.00148294 -0.00167499 0.000918874)
(0.00175127 -0.00139203 0.000918874)
(0.00196638 -0.00106678 0.000918874)
(0.00212176 -0.000709116 0.000918874)
(0.00221266 -0.000329904 0.000918874)
(0.00223633 5.93318e-05 0.000918874)
(0.00219205 0.000446765 0.000918874)
(0.00208117 0.000820624 0.000918874)
(0.00190705 0.00116955 0.000918874)
(0.00167499 0.00148294 0.000918874)
(0.00139203 0.00175127 0.000918874)
(0.00106678 0.00196638 0.000918874)
(0.000709116 0.00212176 0.000918874)
(0.000329904 0.00221266 0.000918874)
(-5.93318e-05 0.00223633 0.000918874)
(-0.000446765 0.00219205 0.000918874)
(-0.000820624 0.00208117 0.000918874)
(-0.00116955 0.00190705 0.000918874)
(-0.00148294 0.00167499 0.000918874)
(-0.00175127 0.00139203 0.000918874)
(-0.00196638 0.00106678 0.000918874)
(-0.00212176 0.000709116 0.000918874)
(-0.00221266 0.000329904 0.000918874)
(-0.00223633 -5.93318e-05 0.000918874)
(-0.00219205 -0.000446765 0.000918874)
(-0.00208117 -0.000820624 0.000918874)
(-0.00190705 -0.00116955 0.000918874)
(-0.00167499 -0.00148294 0.000918874)
(-0.00139203 -0.00175127 0.000918874)
(-0.00106678 -0.00196638 0.000918874)
(-0.000709116 -0.00212176 0.000918874)
(-0.000329904 -0.00221266 0.000918874)
(5.93318e-05 -0.00223633 0.000918874)
(0.000304048 -0.00217995 0.000956939)
(0.000677973 -0.00209403 0.000956939)
(0.0010313 -0.00194449 0.000956939)
(0.00135329 -0.00173587 0.000956939)
(0.00163416 -0.0014745 0.000956939)
(0.00186537 -0.00116833 0.000956939)
(0.00203991 -0.000826661 0.000956939)
(0.00215247 -0.000459875 0.000956939)
(0.00219963 -7.91159e-05 0.000956939)
(0.00217995 0.000304048 0.000956939)
(0.00209403 0.000677973 0.000956939)
(0.00194449 0.0010313 0.000956939)
(0.00173587 0.00135329 0.000956939)
(0.0014745 0.00163416 0.000956939)
(0.00116833 0.00186537 0.000956939)
(0.000826661 0.00203991 0.000956939)
(0.000459875 0.00215247 0.000956939)
(7.91159e-05 0.00219963 0.000956939)
(-0.000304048 0.00217995 0.000956939)
(-0.000677973 0.00209403 0.000956939)
(-0.0010313 0.00194449 0.000956939)
(-0.00135329 0.00173587 0.000956939)
(-0.00163416 0.0014745 0.000956939)
(-0.00186537 0.00116833 0.000956939)
(-0.00203991 0.000826661 0.000956939)
(-0.00215247 0.000459875 0.000956939)
(-0.00219963 7.91159e-05 0.000956939)
(-0.00217995 -0.000304048 0.000956939)
(-0.00209403 -0.000677973 0.000956939)
(-0.00194449 -0.0010313 0.000956939)
(-0.00173587 -0.00135329 0.000956939)
(-0.0014745 -0.00163416 0.000956939)
(-0.00116833 -0.00186537 0.000956939)
(-0.000826661 -0.00203991 0.000956939)
(-0.000459875 -0.00215247 0.000956939)
(-7.91159e-05 -0.00219963 0.000956939)
(0.000573221 -0.00262169 0.00117021)
(0.00101976 -0.00248232 0.00117021)
(0.00143532 -0.00226753 0.00117021)
(0.00180727 -0.00198384 0.00117021)
(0.0021243 -0.00163987 0.00117021)
(0.00237679 -0.00124607 0.00117021)
(0.00255706 -0.00081442 0.00117021)
(0.00265963 -0.000358019 0.00117021)
(0.0026814 0.000109261 0.00117021)
(0.00262169 0.000573221 0.00117021)
(0.00248232 0.00101976 0.00117021)
(0.00226753 0.00143532 0.00117021)
(0.00198384 0.00180727 0.00117021)
(0.00163987 0.0021243 0.00117021)
(0.00124607 0.00237679 0.00117021)
(0.00081442 0.00255706 0.00117021)
(0.000358019 0.00265963 0.00117021)
(-0.000109261 0.0026814 0.00117021)
(-0.000573221 0.00262169 0.00117021)
(-0.00101976 0.00248232 0.00117021)
(-0.00143532 0.00226753 0.00117021)
(-0.00180727 0.00198384 0.00117021)
(-0.0021243 0.00163987 0.00117021)
(-0.00237679 0.00124607 0.00117021)
(-0.00255706 0.00081442 0.00117021)
(-0.00265963 0.000358019 0.00117021)
(-0.0026814 -0.000109261 0.00117021)
(-0.00262169 -0.000573221 0.00117021)
(-0.00248232 -0.00101976 0.00117021)
(-0.00226753 -0.00143532 0.00117021)
(-0.00198384 -0.00180727 0.00117021)
(-0.00163987 -0.0021243 0.00117021)
(-0.00124607 -0.00237679 0.00117021)
(-0.00081442 -0.00255706 0.00117021)
(-0.000358019 -0.00265963 0.00117021)
(0.000109261 -0.0026814 0.00117021)
(0.000437414 -0.00257098 0.00120727)
(0.000877215 -0.00245596 0.00120727)
(0.00129036 -0.00226632 0.00120727)
(0.0016643 -0.00200782 0.00120727)
(0.00198767 -0.00168832 0.00120727)
(0.00225065 -0.00131751 0.00120727)
(0.00244524 -0.000906677 0.00120727)
(0.00256553 -0.000468292 0.00120727)
(0.00260787 -1.5677e-05 0.00120727)
(0.00257098 0.000437414 0.00120727)
(0.00245596 0.000877215 0.00120727)
(0.00226632 0.00129036 0.00120727)
(0.00200782 0.0016643 0.00120727)
(0.00168832 0.00198767 0.00120727)
(0.00131751 0.00225065 0.00120727)
(0.000906677 0.00244524 0.00120727)
(0.000468292 0.00256553 0.00120727)
(1.5677e-05 0.00260787 0.00120727)
(-0.000437414 0.00257098 0.00120727)
(-0.000877215 0.00245596 0.00120727)
(-0.00129036 0.00226632 0.00120727)
(-0.0016643 0.00200782 0.00120727)
(-0.00198767 0.00168832 0.00120727)
(-0.00225065 0.00131751 0.00120727)
(-0.00244524 0.000906677 0.00120727)
(-0.00256553 0.000468292 0.00120727)
(-0.00260787 1.5677e-05 0.00120727)
(-0.00257098 -0.000437414 0.00120727)
(-0.00245596 -0.000877215 0.00120727)
(-0.00226632 -0.00129036 0.00120727)
(-0.00200782 -0.0016643 0.00120727)
(-0.00168832 -0.00198767 0.00120727)
(-0.00131751 -0.00225065 0.00120727)
(-0.000906677 -0.00244524 0.00120727)
(-0.000468292 -0.00256553 0.00120727)
(-1.5677e-05 -0.00260787 0.00120727)
(0.000290896 -0.00251593 0.00123492)
(0.000723363 -0.00242719 0.00123492)
(0.00113385 -0.0022647 0.00123492)
(0.00150989 -0.00203341 0.00123492)
(0.00184004 -0.00174033 0.00123492)
(0.0021143 -0.00139437 0.00123492)
(0.0023243 -0.00100604 0.00123492)
(0.00246369 -0.000587145 0.00123492)
(0.00252822 -0.00015041 0.00123492)
(0.00251593 0.000290896 0.00123492)
(0.00242719 0.000723363 0.00123492)
(0.0022647 0.00113385 0.00123492)
(0.00203341 0.00150989 0.00123492)
(0.00174033 0.00184004 0.00123492)
(0.00139437 0.0021143 0.00123492)
(0.00100604 0.0023243 0.00123492)
(0.000587145 0.00246369 0.00123492)
(0.00015041 0.00252822 0.00123492)
(-0.000290896 0.00251593 0.00123492)
(-0.000723363 0.00242719 0.00123492)
(-0.00113385 0.0022647 0.00123492)
(-0.00150989 0.00203341 0.00123492)
(-0.00184004 0.00174033 0.00123492)
(-0.0021143 0.00139437 0.00123492)
(-0.0023243 0.00100604 0.00123492)
(-0.00246369 0.000587145 0.00123492)
(-0.00252822 0.00015041 0.00123492)
(-0.00251593 -0.000290896 0.00123492)
(-0.00242719 -0.000723363 0.00123492)
(-0.0022647 -0.00113385 0.00123492)
(-0.00203341 -0.00150989 0.00123492)
(-0.00174033 -0.00184004 0.00123492)
(-0.00139437 -0.0021143 0.00123492)
(-0.00100604 -0.0023243 0.00123492)
(-0.000587145 -0.00246369 0.00123492)
(-0.00015041 -0.00252822 0.00123492)
(0.000536225 -0.00298262 0.00149154)
(0.00104601 -0.0028442 0.00149154)
(0.001524 -0.00261935 0.00149154)
(0.0019557 -0.00231492 0.00149154)
(0.00232797 -0.00194014 0.00149153)
(0.0026295 -0.00150642 0.00149154)
(0.00285114 -0.00102693 0.00149154)
(0.00298615 -0.00051623 0.00149154)
(0.00303043 1.01525e-05 0.00149154)
(0.00298262 0.000536225 0.00149154)
(0.0028442 0.00104601 0.00149154)
(0.00261935 0.001524 0.00149154)
(0.00231492 0.0019557 0.00149154)
(0.00194014 0.00232797 0.00149153)
(0.00150642 0.0026295 0.00149154)
(0.00102693 0.00285114 0.00149154)
(0.00051623 0.00298615 0.00149154)
(-1.01525e-05 0.00303043 0.00149154)
(-0.000536225 0.00298262 0.00149154)
(-0.00104601 0.0028442 0.00149154)
(-0.001524 0.00261935 0.00149154)
(-0.0019557 0.00231492 0.00149154)
(-0.00232797 0.00194014 0.00149153)
(-0.0026295 0.00150642 0.00149154)
(-0.00285114 0.00102693 0.00149154)
(-0.00298615 0.00051623 0.00149154)
(-0.00303043 -1.01525e-05 0.00149154)
(-0.00298262 -0.000536225 0.00149154)
(-0.0028442 -0.00104601 0.00149154)
(-0.00261935 -0.001524 0.00149154)
(-0.00231492 -0.0019557 0.00149154)
(-0.00194014 -0.00232797 0.00149153)
(-0.00150642 -0.0026295 0.00149154)
(-0.00102693 -0.00285114 0.00149154)
(-0.00051623 -0.00298615 0.00149154)
(1.01525e-05 -0.00303043 0.00149154)
(0.000396684 -0.00287911 0.0015128)
(0.000890611 -0.00276648 0.00151279)
(0.00135747 -0.0025698 0.00151279)
(0.00178309 -0.00229504 0.00151279)
(0.00215453 -0.00195054 0.00151279)
(0.00246051 -0.00154678 0.00151279)
(0.00269172 -0.00109602 0.00151279)
(0.00284115 -0.000611951 0.00151279)
(0.00290425 -0.000109293 0.0015128)
(0.00287911 0.000396684 0.0015128)
(0.00276648 0.000890611 0.00151279)
(0.0025698 0.00135747 0.00151279)
(0.00229504 0.00178309 0.00151279)
(0.00195054 0.00215453 0.00151279)
(0.00154678 0.00246051 0.00151279)
(0.00109602 0.00269172 0.00151279)
(0.000611951 0.00284115 0.00151279)
(0.000109293 0.00290425 0.0015128)
(-0.000396684 0.00287911 0.0015128)
(-0.000890611 0.00276648 0.00151279)
(-0.00135747 0.0025698 0.00151279)
(-0.00178309 0.00229504 0.00151279)
(-0.00215453 0.00195054 0.00151279)
(-0.00246051 0.00154678 0.00151279)
(-0.00269172 0.00109602 0.00151279)
(-0.00284115 0.000611951 0.00151279)
(-0.00290425 0.000109293 0.0015128)
(-0.00287911 -0.000396684 0.0015128)
(-0.00276648 -0.000890611 0.00151279)
(-0.0025698 -0.00135747 0.00151279)
(-0.00229504 -0.00178309 0.00151279)
(-0.00195054 -0.00215453 0.00151279)
(-0.00154678 -0.00246051 0.00151279)
(-0.00109602 -0.00269172 0.00151279)
(-0.000611951 -0.00284115 0.00151279)
(-0.000109293 -0.00290425 0.0015128)
(0.000249891 -0.00277354 0.00152423)
(0.000727715 -0.00268801 0.00152423)
(0.00118343 -0.00252081 0.00152423)
(0.00160318 -0.00227701 0.00152423)
(0.00197422 -0.00196403 0.00152423)
(0.00228528 -0.00159137 0.00152423)
(0.0025269 -0.00117036 0.00152423)
(0.00269174 -0.000713786 0.00152423)
(0.0027748 -0.000235526 0.00152423)
(0.00277354 0.000249891 0.00152423)
(0.00268801 0.000727715 0.00152423)
(0.00252081 0.00118343 0.00152423)
(0.00227701 0.00160318 0.00152423)
(0.00196403 0.00197422 0.00152423)
(0.00159137 0.00228528 0.00152423)
(0.00117036 0.0025269 0.00152423)
(0.000713786 0.00269174 0.00152423)
(0.000235526 0.0027748 0.00152423)
(-0.000249891 0.00277354 0.00152423)
(-0.000727715 0.00268801 0.00152423)
(-0.00118343 0.00252081 0.00152423)
(-0.00160318 0.00227701 0.00152423)
(-0.00197422 0.00196403 0.00152423)
(-0.00228528 0.00159137 0.00152423)
(-0.0025269 0.00117036 0.00152423)
(-0.00269174 0.000713786 0.00152423)
(-0.0027748 0.000235526 0.00152423)
(-0.00277354 -0.000249891 0.00152423)
(-0.00268801 -0.000727715 0.00152423)
(-0.00252081 -0.00118343 0.00152423)
(-0.00227701 -0.00160318 0.00152423)
(-0.00196403 -0.00197422 0.00152423)
(-0.00159137 -0.00228528 0.00152423)
(-0.00117036 -0.0025269 0.00152423)
(-0.000713786 -0.00269174 0.00152423)
(-0.000235526 -0.0027748 0.00152423)
(0.000477633 -0.00326267 0.00183792)
(0.00103693 -0.00313016 0.00183791)
(0.00156473 -0.00290255 0.00183791)
(0.00204498 -0.00258674 0.00183791)
(0.00246309 -0.00219233 0.00183791)
(0.00280637 -0.00173132 0.00183791)
(0.00306437 -0.00121769 0.00183791)
(0.00322927 -0.000667069 0.00183791)
(0.00329604 -9.61786e-05 0.00183792)
(0.00326267 0.000477633 0.00183792)
(0.00313016 0.00103693 0.00183791)
(0.00290255 0.00156473 0.00183791)
(0.00258674 0.00204498 0.00183791)
(0.00219233 0.00246309 0.00183791)
(0.00173132 0.00280637 0.00183791)
(0.00121769 0.00306437 0.00183791)
(0.000667069 0.00322927 0.00183791)
(9.61786e-05 0.00329604 0.00183792)
(-0.000477633 0.00326267 0.00183792)
(-0.00103693 0.00313016 0.00183791)
(-0.00156473 0.00290255 0.00183791)