/*--------------------------------*- C++ -*----------------------------------*\
| =========                 |                                                 |
| \\      /  F ield         | OpenFOAM: The Open Source CFD Toolbox           |
|  \\    /   O peration     | Version:  2312                                  |
|   \\  /    A nd           | Website:  www.openfoam.com                      |
|    \\/     M anipulation  |                                                 |
\*---------------------------------------------------------------------------*/
FoamFile
{
    version     2.0;
    format      ascii;
    arch        "LSB;label=32;scalar=64";
    class       volVectorField;
    location    "0.4";
    object      D_0_0_0;
}
// * * * * * * * * * * * * * * * * * * * * * * * * * * * * * * * * * * * * * //

dimensions      [0 1 0 0 0 0 0];

internalField   nonuniform List<vector> 
1620
(
(0.000128475 -0.000242326 4.33075e-05)
(0.000168602 -0.000216335 4.33077e-05)
(0.000203607 -0.000183771 4.33078e-05)
(0.000232426 -0.000145623 4.33077e-05)
(0.000254182 -0.00010305 4.33078e-05)
(0.000268215 -5.73465e-05 4.33077e-05)
(0.000274098 -9.90035e-06 4.33074e-05)
(0.000271653 3.78465e-05 4.33073e-05)
(0.000260954 8.44436e-05 4.33074e-05)
(0.000242326 0.000128475 4.33075e-05)
(0.000216335 0.000168602 4.33077e-05)
(0.000183771 0.000203607 4.33078e-05)
(0.000145623 0.000232426 4.33077e-05)
(0.00010305 0.000254182 4.33078e-05)
(5.73465e-05 0.000268215 4.33077e-05)
(9.90035e-06 0.000274098 4.33074e-05)
(-3.78465e-05 0.000271653 4.33073e-05)
(-8.44436e-05 0.000260954 4.33074e-05)
(-0.000128475 0.000242326 4.33075e-05)
(-0.000168602 0.000216335 4.33077e-05)
(-0.000203607 0.000183771 4.33078e-05)
(-0.000232426 0.000145623 4.33077e-05)
(-0.000254182 0.00010305 4.33078e-05)
(-0.000268215 5.73465e-05 4.33077e-05)
(-0.000274098 9.90035e-06 4.33074e-05)
(-0.000271653 -3.78465e-05 4.33073e-05)
(-0.000260954 -8.44436e-05 4.33074e-05)
(-0.000242326 -0.000128475 4.33075e-05)
(-0.000216335 -0.000168602 4.33077e-05)
(-0.000183771 -0.000203607 4.33078e-05)
(-0.000145623 -0.000232426 4.33077e-05)
(-0.00010305 -0.000254182 4.33078e-05)
(-5.73465e-05 -0.000268215 4.33077e-05)
(-9.90035e-06 -0.000274098 4.33074e-05)
(3.78465e-05 -0.000271653 4.33073e-05)
(8.44436e-05 -0.000260954 4.33074e-05)
(8.37553e-05 -0.000256564 5.13994e-05)
(0.000127035 -0.000238122 5.13995e-05)
(0.000166454 -0.000212445 5.13995e-05)
(0.000200816 -0.000180313 5.13996e-05)
(0.000229077 -0.000142703 5.13997e-05)
(0.000250376 -0.000100755 5.13996e-05)
(0.000264069 -5.57475e-05 5.13995e-05)
(0.000269737 -9.04578e-06 5.13994e-05)
(0.00026721 3.7931e-05 5.13994e-05)
(0.000256564 8.37553e-05 5.13994e-05)
(0.000238122 0.000127035 5.13995e-05)
(0.000212445 0.000166454 5.13995e-05)
(0.000180313 0.000200816 5.13996e-05)
(0.000142703 0.000229077 5.13997e-05)
(0.000100755 0.000250376 5.13996e-05)
(5.57475e-05 0.000264069 5.13995e-05)
(9.04578e-06 0.000269737 5.13994e-05)
(-3.7931e-05 0.00026721 5.13994e-05)
(-8.37553e-05 0.000256564 5.13994e-05)
(-0.000127035 0.000238122 5.13995e-05)
(-0.000166454 0.000212445 5.13995e-05)
(-0.000200816 0.000180313 5.13996e-05)
(-0.000229077 0.000142703 5.13997e-05)
(-0.000250376 0.000100755 5.13996e-05)
(-0.000264069 5.57475e-05 5.13995e-05)
(-0.000269737 9.04578e-06 5.13994e-05)
(-0.00026721 -3.7931e-05 5.13994e-05)
(-0.000256564 -8.37553e-05 5.13994e-05)
(-0.000238122 -0.000127035 5.13995e-05)
(-0.000212445 -0.000166454 5.13995e-05)
(-0.000180313 -0.000200816 5.13996e-05)
(-0.000142703 -0.000229077 5.13997e-05)
(-0.000100755 -0.000250376 5.13996e-05)
(-5.57475e-05 -0.000264069 5.13995e-05)
(-9.04578e-06 -0.000269737 5.13994e-05)
(3.7931e-05 -0.00026721 5.13994e-05)
(2.13454e-05 -0.000270243 5.43363e-05)
(6.79484e-05 -0.000262431 5.43363e-05)
(0.000112487 -0.000246645 5.43365e-05)
(0.000153607 -0.000223365 5.43364e-05)
(0.000190061 -0.000193298 5.43365e-05)
(0.000220739 -0.000157357 5.43364e-05)
(0.00024471 -0.000116636 5.43364e-05)
(0.000261246 -7.23703e-05 5.43365e-05)
(0.000269844 -2.5906e-05 5.43363e-05)
(0.000270243 2.13454e-05 5.43363e-05)
(0.000262431 6.79484e-05 5.43363e-05)
(0.000246645 0.000112487 5.43365e-05)
(0.000223365 0.000153607 5.43364e-05)
(0.000193298 0.000190061 5.43365e-05)
(0.000157357 0.000220739 5.43364e-05)
(0.000116636 0.00024471 5.43364e-05)
(7.23703e-05 0.000261246 5.43365e-05)
(2.5906e-05 0.000269844 5.43363e-05)
(-2.13454e-05 0.000270243 5.43363e-05)
(-6.79484e-05 0.000262431 5.43363e-05)
(-0.000112487 0.000246645 5.43365e-05)
(-0.000153607 0.000223365 5.43364e-05)
(-0.000190061 0.000193298 5.43365e-05)
(-0.000220739 0.000157357 5.43364e-05)
(-0.00024471 0.000116636 5.43364e-05)
(-0.000261246 7.23703e-05 5.43365e-05)
(-0.000269844 2.5906e-05 5.43363e-05)
(-0.000270243 -2.13454e-05 5.43363e-05)
(-0.000262431 -6.79484e-05 5.43363e-05)
(-0.000246645 -0.000112487 5.43365e-05)
(-0.000223365 -0.000153607 5.43364e-05)
(-0.000193298 -0.000190061 5.43365e-05)
(-0.000157357 -0.000220739 5.43364e-05)
(-0.000116636 -0.00024471 5.43364e-05)
(-7.23703e-05 -0.000261246 5.43365e-05)
(-2.5906e-05 -0.000269844 5.43363e-05)
(0.000293669 -0.000731556 0.000160254)
(0.000416241 -0.000669447 0.000160254)
(0.000526166 -0.000586997 0.000160254)
(0.000620103 -0.000486711 0.000160254)
(0.000695199 -0.000371637 0.000160255)
(0.000749171 -0.000245271 0.000160254)
(0.000780381 -0.000111453 0.000160254)
(0.000787879 2.57519e-05 0.000160253)
(0.000771437 0.000162174 0.000160253)
(0.000731556 0.000293669 0.000160254)
(0.000669447 0.000416241 0.000160254)
(0.000586997 0.000526166 0.000160254)
(0.000486711 0.000620103 0.000160254)
(0.000371637 0.000695199 0.000160255)
(0.000245271 0.000749171 0.000160254)
(0.000111453 0.000780381 0.000160254)
(-2.57519e-05 0.000787879 0.000160253)
(-0.000162174 0.000771437 0.000160253)
(-0.000293669 0.000731556 0.000160254)
(-0.000416241 0.000669447 0.000160254)
(-0.000526166 0.000586997 0.000160254)
(-0.000620103 0.000486711 0.000160254)
(-0.000695199 0.000371637 0.000160255)
(-0.000749171 0.000245271 0.000160254)
(-0.000780381 0.000111453 0.000160254)
(-0.000787879 -2.57519e-05 0.000160253)
(-0.000771437 -0.000162174 0.000160253)
(-0.000731556 -0.000293669 0.000160254)
(-0.000669447 -0.000416241 0.000160254)
(-0.000586997 -0.000526166 0.000160254)
(-0.000486711 -0.000620103 0.000160254)
(-0.000371637 -0.000695199 0.000160255)
(-0.000245271 -0.000749171 0.000160254)
(-0.000111453 -0.000780381 0.000160254)
(2.57519e-05 -0.000787879 0.000160253)
(0.000162174 -0.000771437 0.000160253)
(0.000225503 -0.000762947 0.000191395)
(0.000354562 -0.000712197 0.000191395)
(0.000472847 -0.000639808 0.000191395)
(0.000576765 -0.000547979 0.000191396)
(0.000663159 -0.0004395 0.000191396)
(0.000729403 -0.000317666 0.000191396)
(0.000773483 -0.000186181 0.000191395)
(0.000794062 -4.90388e-05 0.000191395)
(0.000790514 8.95934e-05 0.000191395)
(0.000762947 0.000225503 0.000191395)
(0.000712197 0.000354562 0.000191395)
(0.000639808 0.000472847 0.000191395)
(0.000547979 0.000576765 0.000191396)
(0.0004395 0.000663159 0.000191396)
(0.000317666 0.000729403 0.000191396)
(0.000186181 0.000773483 0.000191395)
(4.90388e-05 0.000794062 0.000191395)
(-8.95934e-05 0.000790514 0.000191395)
(-0.000225503 0.000762947 0.000191395)
(-0.000354562 0.000712197 0.000191395)
(-0.000472847 0.000639808 0.000191395)
(-0.000576765 0.000547979 0.000191396)
(-0.000663159 0.0004395 0.000191396)
(-0.000729403 0.000317666 0.000191396)
(-0.000773483 0.000186181 0.000191395)
(-0.000794062 4.90388e-05 0.000191395)
(-0.000790514 -8.95934e-05 0.000191395)
(-0.000762947 -0.000225503 0.000191395)
(-0.000712197 -0.000354562 0.000191395)
(-0.000639808 -0.000472847 0.000191395)
(-0.000547979 -0.000576765 0.000191396)
(-0.0004395 -0.000663159 0.000191396)
(-0.000317666 -0.000729403 0.000191396)
(-0.000186181 -0.000773483 0.000191395)
(-4.90388e-05 -0.000794062 0.000191395)
(8.95934e-05 -0.000790514 0.000191395)
(0.000136875 -0.000791832 0.000215021)
(0.000272296 -0.000756033 0.000215021)
(0.000399442 -0.000697264 0.000215021)
(0.000514453 -0.000617308 0.000215021)
(0.000613832 -0.000518596 0.000215021)
(0.000694559 -0.000404126 0.000215021)
(0.000754184 -0.000277378 0.000215021)
(0.000790892 -0.000142202 0.000215021)
(0.00080357 -2.70457e-06 0.000215021)
(0.000791832 0.000136875 0.000215021)
(0.000756033 0.000272296 0.000215021)
(0.000697264 0.000399442 0.000215021)
(0.000617308 0.000514453 0.000215021)
(0.000518596 0.000613832 0.000215021)
(0.000404126 0.000694559 0.000215021)
(0.000277378 0.000754184 0.000215021)
(0.000142202 0.000790892 0.000215021)
(2.70457e-06 0.00080357 0.000215021)
(-0.000136875 0.000791832 0.000215021)
(-0.000272296 0.000756033 0.000215021)
(-0.000399442 0.000697264 0.000215021)
(-0.000514453 0.000617308 0.000215021)
(-0.000613832 0.000518596 0.000215021)
(-0.000694559 0.000404126 0.000215021)
(-0.000754184 0.000277378 0.000215021)
(-0.000790892 0.000142202 0.000215021)
(-0.00080357 2.70458e-06 0.000215021)
(-0.000791832 -0.000136875 0.000215021)
(-0.000756033 -0.000272296 0.000215021)
(-0.000697264 -0.000399442 0.000215021)
(-0.000617308 -0.000514453 0.000215021)
(-0.000518596 -0.000613832 0.000215021)
(-0.000404126 -0.000694559 0.000215021)
(-0.000277378 -0.000754184 0.000215021)
(-0.000142202 -0.000790892 0.000215021)
(-2.70458e-06 -0.00080357 0.000215021)
(0.000432914 -0.00122102 0.000349023)
(0.000638365 -0.0011273 0.000349024)
(0.00082442 -0.000999321 0.000349024)
(0.000985426 -0.00084098 0.000349025)
(0.00111649 -0.000657086 0.000349025)
(0.00121363 -0.000453227 0.000349024)
(0.00127389 -0.000235597 0.000349023)
(0.00129545 -1.08084e-05 0.000349023)
(0.00127765 0.000214308 0.000349023)
(0.00122102 0.000432914 0.000349023)
(0.0011273 0.000638365 0.000349024)
(0.000999321 0.00082442 0.000349024)
(0.00084098 0.000985426 0.000349025)
(0.000657086 0.00111649 0.000349025)
(0.000453227 0.00121363 0.000349024)
(0.000235597 0.00127389 0.000349023)
(1.08084e-05 0.00129545 0.000349023)
(-0.000214308 0.00127765 0.000349023)
(-0.000432914 0.00122102 0.000349023)
(-0.000638365 0.0011273 0.000349024)
(-0.00082442 0.000999321 0.000349024)
(-0.000985426 0.00084098 0.000349025)
(-0.00111649 0.000657086 0.000349025)
(-0.00121363 0.000453227 0.000349024)
(-0.00127389 0.000235597 0.000349023)
(-0.00129545 1.08084e-05 0.000349023)
(-0.00127765 -0.000214308 0.000349023)
(-0.00122102 -0.000432914 0.000349023)
(-0.0011273 -0.000638365 0.000349024)
(-0.000999321 -0.00082442 0.000349024)
(-0.00084098 -0.000985426 0.000349025)
(-0.000657086 -0.00111649 0.000349025)
(-0.000453227 -0.00121363 0.000349024)
(-0.000235597 -0.00127389 0.000349023)
(-1.08084e-05 -0.00129545 0.000349023)
(0.000214308 -0.00127765 0.000349023)
(0.000338433 -0.0012551 0.000393013)
(0.000551237 -0.00117727 0.000393013)
(0.000747293 -0.00106366 0.000393013)
(0.000920642 -0.000917733 0.000393013)
(0.00106602 -0.000743923 0.000393013)
(0.001179 -0.000547508 0.000393013)
(0.00125617 -0.000334459 0.000393013)
(0.00129516 -0.000111247 0.000393013)
(0.0012948 0.000115345 0.000393013)
(0.0012551 0.000338433 0.000393013)
(0.00117727 0.000551237 0.000393013)
(0.00106366 0.000747293 0.000393013)
(0.000917733 0.000920642 0.000393013)
(0.000743923 0.00106602 0.000393013)
(0.000547508 0.001179 0.000393013)
(0.000334459 0.00125617 0.000393013)
(0.000111247 0.00129516 0.000393013)
(-0.000115345 0.0012948 0.000393013)
(-0.000338433 0.0012551 0.000393013)
(-0.000551237 0.00117727 0.000393013)
(-0.000747293 0.00106366 0.000393013)
(-0.000920642 0.000917733 0.000393013)
(-0.00106602 0.000743923 0.000393013)
(-0.001179 0.000547508 0.000393013)
(-0.00125617 0.000334459 0.000393013)
(-0.00129516 0.000111247 0.000393013)
(-0.0012948 -0.000115345 0.000393013)
(-0.0012551 -0.000338433 0.000393013)
(-0.00117727 -0.000551237 0.000393013)
(-0.00106366 -0.000747293 0.000393013)
(-0.000917733 -0.000920642 0.000393013)
(-0.000743923 -0.00106602 0.000393013)
(-0.000547508 -0.001179 0.000393013)
(-0.000334459 -0.00125617 0.000393013)
(-0.000111247 -0.00129516 0.000393013)
(0.000115345 -0.0012948 0.000393013)
(0.00022551 -0.0012842 0.000428942)
(0.000445083 -0.00122553 0.000428942)
(0.000651132 -0.00112962 0.000428942)
(0.000837397 -0.000999393 0.000428942)
(0.000998218 -0.000838798 0.000428942)
(0.00112871 -0.000652715 0.000428942)
(0.0012249 -0.000446801 0.000428942)
(0.00128388 -0.000227312 0.000428942)
(0.00130385 -9.14879e-07 0.000428942)
(0.0012842 0.00022551 0.000428942)
(0.00122553 0.000445083 0.000428942)
(0.00112962 0.000651132 0.000428942)
(0.000999393 0.000837397 0.000428942)
(0.000838798 0.000998218 0.000428942)
(0.000652715 0.00112871 0.000428942)
(0.000446801 0.0012249 0.000428942)
(0.000227312 0.00128388 0.000428942)
(9.14879e-07 0.00130385 0.000428942)
(-0.00022551 0.0012842 0.000428942)
(-0.000445083 0.00122553 0.000428942)
(-0.000651132 0.00112962 0.000428942)
(-0.000837397 0.000999393 0.000428942)
(-0.000998218 0.000838798 0.000428942)
(-0.00112871 0.000652715 0.000428942)
(-0.0012249 0.000446801 0.000428942)
(-0.00128388 0.000227312 0.000428942)
(-0.00130385 9.1488e-07 0.000428942)
(-0.0012842 -0.00022551 0.000428942)
(-0.00122553 -0.000445083 0.000428942)
(-0.00112962 -0.000651132 0.000428942)
(-0.000999393 -0.000837397 0.000428942)
(-0.000838798 -0.000998218 0.000428942)
(-0.000652715 -0.00112871 0.000428942)
(-0.000446801 -0.0012249 0.000428942)
(-0.000227312 -0.00128388 0.000428942)
(-9.1488e-07 -0.00130385 0.000428942)
(0.000525291 -0.00170231 0.000584554)
(0.000812913 -0.00158523 0.000584554)
(0.00107584 -0.00141998 0.000584554)
(0.00130607 -0.0012116 0.000584555)
(0.00149662 -0.000966392 0.000584554)
(0.00164169 -0.000691825 0.000584554)
(0.00173689 -0.000396238 0.000584554)
(0.00177931 -8.86106e-05 0.000584553)
(0.00176766 0.000221709 0.000584554)
(0.00170231 0.000525291 0.000584554)
(0.00158523 0.000812913 0.000584554)
(0.00141998 0.00107584 0.000584554)
(0.0012116 0.00130607 0.000584555)
(0.000966392 0.00149662 0.000584554)
(0.000691825 0.00164169 0.000584554)
(0.000396238 0.00173689 0.000584554)
(8.86106e-05 0.00177931 0.000584553)
(-0.000221709 0.00176766 0.000584554)
(-0.000525291 0.00170231 0.000584554)
(-0.000812913 0.00158523 0.000584554)
(-0.00107584 0.00141998 0.000584554)
(-0.00130607 0.0012116 0.000584555)
(-0.00149662 0.000966392 0.000584554)
(-0.00164169 0.000691825 0.000584554)
(-0.00173689 0.000396238 0.000584554)
(-0.00177931 8.86106e-05 0.000584553)
(-0.00176766 -0.000221709 0.000584554)
(-0.00170231 -0.000525291 0.000584554)
(-0.00158523 -0.000812913 0.000584554)
(-0.00141998 -0.00107584 0.000584554)
(-0.0012116 -0.00130607 0.000584555)
(-0.000966392 -0.00149662 0.000584554)
(-0.000691825 -0.00164169 0.000584554)
(-0.000396238 -0.00173689 0.000584554)
(-8.86106e-05 -0.00177931 0.000584553)
(0.000221709 -0.00176766 0.000584554)
(0.000412116 -0.00172058 0.000632256)
(0.000704631 -0.00162288 0.000632256)
(0.000975737 -0.00147587 0.000632256)
(0.00121719 -0.00128401 0.000632256)
(0.00142167 -0.00105314 0.000632256)
(0.00158295 -0.000790271 0.000632255)
(0.00169613 -0.00050339 0.000632255)
(0.00175777 -0.000201213 0.000632255)
(0.00176601 0.000107078 0.000632255)
(0.00172058 0.000412116 0.000632256)
(0.00162288 0.000704631 0.000632256)
(0.00147587 0.000975737 0.000632256)
(0.00128401 0.00121719 0.000632256)
(0.00105314 0.00142167 0.000632256)
(0.000790271 0.00158295 0.000632255)
(0.00050339 0.00169613 0.000632255)
(0.000201213 0.00175777 0.000632255)
(-0.000107078 0.00176601 0.000632255)
(-0.000412116 0.00172058 0.000632256)
(-0.000704631 0.00162288 0.000632256)
(-0.000975737 0.00147587 0.000632256)
(-0.00121719 0.00128401 0.000632256)
(-0.00142167 0.00105314 0.000632256)
(-0.00158295 0.000790271 0.000632255)
(-0.00169613 0.00050339 0.000632255)
(-0.00175777 0.000201213 0.000632255)
(-0.00176601 -0.000107078 0.000632255)
(-0.00172058 -0.000412116 0.000632256)
(-0.00162288 -0.000704631 0.000632256)
(-0.00147587 -0.000975737 0.000632256)
(-0.00128401 -0.00121719 0.000632256)
(-0.00105314 -0.00142167 0.000632256)
(-0.000790271 -0.00158295 0.000632255)
(-0.00050339 -0.00169613 0.000632255)
(-0.000201213 -0.00175777 0.000632255)
(0.000107078 -0.00176601 0.000632255)
(0.000283182 -0.00173308 0.000671561)
(0.000579827 -0.00165758 0.000671561)
(0.000858853 -0.00153171 0.000671561)
(0.00111178 -0.0013593 0.000671561)
(0.00133093 -0.00114559 0.00067156)
(0.00150964 -0.000897074 0.000671561)
(0.00164248 -0.000621298 0.000671561)
(0.00172542 -0.000326645 0.000671561)
(0.00175593 -2.20669e-05 0.000671561)
(0.00173308 0.000283182 0.000671561)
(0.00165758 0.000579827 0.000671561)
(0.00153171 0.000858853 0.000671561)
(0.0013593 0.00111178 0.000671561)
(0.00114559 0.00133093 0.00067156)
(0.000897074 0.00150964 0.000671561)
(0.000621298 0.00164248 0.000671561)
(0.000326645 0.00172542 0.000671561)
(2.20669e-05 0.00175593 0.000671561)
(-0.000283182 0.00173308 0.000671561)
(-0.000579827 0.00165758 0.000671561)
(-0.000858853 0.00153171 0.000671561)
(-0.00111178 0.0013593 0.000671561)
(-0.00133093 0.00114559 0.00067156)
(-0.00150964 0.000897074 0.000671561)
(-0.00164248 0.000621298 0.000671561)
(-0.00172542 0.000326645 0.000671561)
(-0.00175593 2.20669e-05 0.000671561)
(-0.00173308 -0.000283182 0.000671561)
(-0.00165758 -0.000579827 0.000671561)
(-0.00153171 -0.000858853 0.000671561)
(-0.0013593 -0.00111178 0.000671561)
(-0.00114559 -0.00133093 0.00067156)
(-0.000897074 -0.00150964 0.000671561)
(-0.000621298 -0.00164248 0.000671561)
(-0.000326645 -0.00172542 0.000671561)
(-2.20669e-05 -0.00175593 0.000671561)
(0.00056904 -0.00215974 0.000853278)
(0.00093543 -0.00202812 0.000853278)
(0.0012734 -0.00183487 0.000853278)
(0.00157267 -0.00158587 0.000853278)
(0.00182416 -0.00128868 0.000853277)
(0.00202023 -0.000952344 0.000853277)
(0.00215491 -0.000587067 0.000853277)
(0.00222412 -0.000203952 0.000853277)
(0.00222574 0.00018536 0.000853277)
(0.00215974 0.00056904 0.000853278)
(0.00202812 0.00093543 0.000853278)
(0.00183487 0.0012734 0.000853278)
(0.00158587 0.00157267 0.000853278)
(0.00128868 0.00182416 0.000853277)
(0.000952344 0.00202023 0.000853277)
(0.000587067 0.00215491 0.000853277)
(0.000203952 0.00222412 0.000853277)
(-0.00018536 0.00222574 0.000853277)
(-0.00056904 0.00215974 0.000853278)
(-0.00093543 0.00202812 0.000853278)
(-0.0012734 0.00183487 0.000853278)
(-0.00157267 0.00158587 0.000853278)
(-0.00182416 0.00128868 0.000853277)
(-0.00202023 0.000952344 0.000853277)
(-0.00215491 0.000587067 0.000853277)
(-0.00222412 0.000203952 0.000853277)
(-0.00222574 -0.00018536 0.000853277)
(-0.00215974 -0.00056904 0.000853278)
(-0.00202812 -0.00093543 0.000853278)
(-0.00183487 -0.0012734 0.000853278)
(-0.00158587 -0.00157267 0.000853278)
(-0.00128868 -0.00182416 0.000853277)
(-0.000952344 -0.00202023 0.000853277)
(-0.000587067 -0.00215491 0.000853277)
(-0.000203952 -0.00222412 0.000853277)
(0.00018536 -0.00222574 0.000853277)
(0.000443989 -0.00214621 0.000897288)
(0.00080993 -0.00203651 0.000897288)
(0.00115126 -0.00186492 0.000897288)
(0.00145761 -0.00163668 0.000897288)
(0.00171967 -0.0013587 0.000897288)
(0.00192948 -0.00103944 0.000897288)
(0.00208067 -0.0006886 0.000897288)
(0.00216863 -0.000316834 0.000897288)
(0.0021907 6.45581e-05 0.000897288)
(0.00214621 0.000443989 0.000897288)
(0.00203651 0.00080993 0.000897288)
(0.00186492 0.00115126 0.000897288)
(0.00163668 0.00145761 0.000897288)
(0.0013587 0.00171967 0.000897288)
(0.00103944 0.00192948 0.000897288)
(0.0006886 0.00208067 0.000897288)
(0.000316834 0.00216863 0.000897288)
(-6.45581e-05 0.0021907 0.000897288)
(-0.000443989 0.00214621 0.000897288)
(-0.00080993 0.00203651 0.000897288)
(-0.00115126 0.00186492 0.000897288)
(-0.00145761 0.00163668 0.000897288)
(-0.00171967 0.0013587 0.000897288)
(-0.00192948 0.00103944 0.000897288)
(-0.00208067 0.0006886 0.000897288)
(-0.00216863 0.000316834 0.000897288)
(-0.0021907 -6.45581e-05 0.000897288)
(-0.00214621 -0.000443989 0.000897288)
(-0.00203651 -0.00080993 0.000897288)
(-0.00186492 -0.00115126 0.000897288)
(-0.00163668 -0.00145761 0.000897288)
(-0.0013587 -0.00171967 0.000897288)
(-0.00103944 -0.00192948 0.000897288)
(-0.0006886 -0.00208067 0.000897288)
(-0.000316834 -0.00216863 0.000897288)
(6.45581e-05 -0.0021907 0.000897288)
(0.000305885 -0.00212732 0.000932704)
(0.000670642 -0.00204188 0.000932703)
(0.00101502 -0.0018944 0.000932703)
(0.00132856 -0.00168937 0.000932703)
(0.00160173 -0.001433 0.000932704)
(0.00182624 -0.00113309 0.000932703)
(0.00199525 -0.000798754 0.000932704)
(0.00210364 -0.000440147 0.000932703)
(0.00214811 -6.8167e-05 0.000932704)
(0.00212732 0.000305885 0.000932704)
(0.00204188 0.000670642 0.000932703)
(0.0018944 0.00101502 0.000932703)
(0.00168937 0.00132856 0.000932703)
(0.001433 0.00160173 0.000932704)
(0.00113309 0.00182624 0.000932703)
(0.000798754 0.00199525 0.000932704)
(0.000440147 0.00210364 0.000932703)
(6.8167e-05 0.00214811 0.000932704)
(-0.000305885 0.00212732 0.000932704)
(-0.000670642 0.00204188 0.000932703)
(-0.00101502 0.0018944 0.000932703)
(-0.00132856 0.00168937 0.000932703)
(-0.00160173 0.001433 0.000932704)
(-0.00182624 0.00113309 0.000932703)
(-0.00199525 0.000798754 0.000932704)
(-0.00210364 0.000440147 0.000932703)
(-0.00214811 6.8167e-05 0.000932704)
(-0.00212732 -0.000305885 0.000932704)
(-0.00204188 -0.000670642 0.000932703)
(-0.0018944 -0.00101502 0.000932703)
(-0.00168937 -0.00132856 0.000932703)
(-0.001433 -0.00160173 0.000932704)
(-0.00113309 -0.00182624 0.000932703)
(-0.000798754 -0.00199525 0.000932704)
(-0.000440147 -0.00210364 0.000932703)
(-6.8167e-05 -0.00214811 0.000932704)
(0.000569172 -0.00257507 0.00114702)
(0.00100768 -0.00243711 0.00114702)
(0.00141557 -0.0022251 0.00114702)
(0.00178045 -0.00194549 0.00114702)
(0.00209123 -0.00160676 0.00114702)
(0.00233847 -0.00121921 0.00114702)
(0.00251466 -0.000794617 0.00114702)
(0.00261444 -0.000345879 0.00114702)
(0.00263478 0.000113369 0.00114702)
(0.00257507 0.000569172 0.00114702)
(0.00243711 0.00100768 0.00114702)
(0.0022251 0.00141557 0.00114702)
(0.00194549 0.00178045 0.00114702)
(0.00160676 0.00209123 0.00114702)
(0.00121921 0.00233847 0.00114702)
(0.000794617 0.00251466 0.00114702)
(0.000345879 0.00261444 0.00114702)
(-0.000113369 0.00263478 0.00114702)
(-0.000569172 0.00257507 0.00114702)
(-0.00100768 0.00243711 0.00114702)
(-0.00141557 0.0022251 0.00114702)
(-0.00178045 0.00194549 0.00114702)
(-0.00209123 0.00160676 0.00114702)
(-0.00233847 0.00121921 0.00114702)
(-0.00251466 0.000794617 0.00114702)
(-0.00261444 0.000345879 0.00114702)
(-0.00263478 -0.000113369 0.00114702)
(-0.00257507 -0.000569172 0.00114702)
(-0.00243711 -0.00100768 0.00114702)
(-0.0022251 -0.00141557 0.00114702)
(-0.00194549 -0.00178045 0.00114702)
(-0.00160676 -0.00209123 0.00114702)
(-0.00121921 -0.00233847 0.00114702)
(-0.000794617 -0.00251466 0.00114702)
(-0.000345879 -0.00261444 0.00114702)
(0.000113369 -0.00263478 0.00114702)
(0.000437232 -0.00251782 0.00118128)
(0.000867805 -0.00240365 0.00118128)
(0.00127201 -0.00221644 0.00118127)
(0.00163756 -0.00196188 0.00118128)
(0.00195336 -0.00164772 0.00118127)
(0.00220981 -0.00128349 0.00118127)
(0.00239911 -0.000880257 0.00118127)
(0.00251552 -0.000450283 0.00118128)
(0.0025555 -6.62604e-06 0.00118128)
(0.00251782 0.000437232 0.00118128)
(0.00240365 0.000867805 0.00118128)
(0.00221644 0.00127201 0.00118127)
(0.00196188 0.00163757 0.00118128)
(0.00164772 0.00195336 0.00118127)
(0.00128349 0.00220981 0.00118127)
(0.000880257 0.00239911 0.00118127)
(0.000450283 0.00251552 0.00118128)
(6.62604e-06 0.0025555 0.00118128)
(-0.000437232 0.00251782 0.00118128)
(-0.000867805 0.00240365 0.00118128)
(-0.00127201 0.00221644 0.00118127)
(-0.00163757 0.00196188 0.00118128)
(-0.00195336 0.00164772 0.00118127)
(-0.00220981 0.00128349 0.00118127)
(-0.00239911 0.000880257 0.00118127)
(-0.00251552 0.000450283 0.00118128)
(-0.0025555 6.62604e-06 0.00118128)
(-0.00251782 -0.000437232 0.00118128)
(-0.00240365 -0.000867805 0.00118128)
(-0.00221644 -0.00127201 0.00118127)
(-0.00196188 -0.00163756 0.00118128)
(-0.00164772 -0.00195336 0.00118127)
(-0.00128349 -0.00220981 0.00118127)
(-0.000880257 -0.00239911 0.00118127)
(-0.000450283 -0.00251552 0.00118128)
(-6.62604e-06 -0.0025555 0.00118128)
(0.00029512 -0.00245652 0.0012067)
(0.000717207 -0.00236795 0.0012067)
(0.0011175 -0.00220743 0.0012067)
(0.00148384 -0.00197985 0.0012067)
(0.00180509 -0.0016921 0.0012067)
(0.0020715 -0.00135294 0.0012067)
(0.00227497 -0.000972677 0.0012067)
(0.00240931 -0.000562856 0.0012067)
(0.00247044 -0.000135933 0.0012067)
(0.00245652 0.00029512 0.0012067)
(0.00236795 0.000717207 0.0012067)
(0.00220743 0.0011175 0.0012067)
(0.00197985 0.00148384 0.0012067)
(0.0016921 0.00180509 0.0012067)
(0.00135294 0.0020715 0.0012067)
(0.000972677 0.00227497 0.0012067)
(0.000562856 0.00240931 0.0012067)
(0.000135933 0.00247044 0.0012067)
(-0.00029512 0.00245652 0.0012067)
(-0.000717207 0.00236795 0.0012067)
(-0.0011175 0.00220743 0.0012067)
(-0.00148384 0.00197985 0.0012067)
(-0.00180509 0.0016921 0.0012067)
(-0.0020715 0.00135294 0.0012067)
(-0.00227497 0.000972677 0.0012067)
(-0.00240931 0.000562856 0.0012067)
(-0.00247044 0.000135933 0.0012067)
(-0.00245652 -0.00029512 0.0012067)
(-0.00236795 -0.000717207 0.0012067)
(-0.00220743 -0.0011175 0.0012067)
(-0.00197985 -0.00148384 0.0012067)
(-0.0016921 -0.00180509 0.0012067)
(-0.00135294 -0.0020715 0.0012067)
(-0.000972677 -0.00227497 0.0012067)
(-0.000562856 -0.00240931 0.0012067)
(-0.000135933 -0.00247044 0.0012067)
(0.000535214 -0.00292994 0.00146371)
(0.00103586 -0.00279249 0.00146371)
(0.00150504 -0.00257019 0.00146371)
(0.00192848 -0.00226979 0.00146371)
(0.00229333 -0.00190043 0.00146371)
(0.00258849 -0.00147333 0.00146371)
(0.00280501 -0.00100146 0.00146371)
(0.0029363 -0.00049916 0.00146371)
(0.00297837 1.83057e-05 0.00146371)
(0.00292994 0.000535214 0.00146371)
(0.00279249 0.00103586 0.00146371)
(0.00257019 0.00150504 0.00146371)
(0.00226979 0.00192848 0.00146371)
(0.00190043 0.00229333 0.00146371)
(0.00147333 0.00258849 0.00146371)
(0.00100146 0.00280501 0.00146371)
(0.00049916 0.0029363 0.00146371)
(-1.83057e-05 0.00297837 0.00146371)
(-0.000535214 0.00292994 0.00146371)
(-0.00103586 0.00279249 0.00146371)
(-0.00150504 0.00257019 0.00146371)
(-0.00192848 0.00226979 0.00146371)
(-0.00229333 0.00190043 0.00146371)
(-0.00258849 0.00147333 0.00146371)
(-0.00280501 0.00100146 0.00146371)
(-0.0029363 0.00049916 0.00146371)
(-0.00297837 -1.83057e-05 0.00146371)
(-0.00292994 -0.000535214 0.00146371)
(-0.00279249 -0.00103586 0.00146371)
(-0.00257019 -0.00150504 0.00146371)
(-0.00226979 -0.00192848 0.00146371)
(-0.00190043 -0.00229333 0.00146371)
(-0.00147333 -0.00258849 0.00146371)
(-0.00100146 -0.00280501 0.00146371)
(-0.00049916 -0.0029363 0.00146371)
(1.83057e-05 -0.00297837 0.00146371)
(0.000399576 -0.00282075 0.00148276)
(0.000883325 -0.00270851 0.00148276)
(0.00134023 -0.00251397 0.00148276)
(0.00175642 -0.00224305 0.00148276)
(0.00211924 -0.00190398 0.00148276)
(0.00241766 -0.00150705 0.00148276)
(0.00264263 -0.00106433 0.00148276)
(0.0027873 -0.000589274 0.00148276)
(0.00284728 -9.63113e-05 0.00148276)
(0.00282075 0.000399576 0.00148276)
(0.00270851 0.000883325 0.00148276)
(0.00251397 0.00134023 0.00148276)
(0.00224305 0.00175642 0.00148276)
(0.00190398 0.00211924 0.00148276)
(0.00150705 0.00241766 0.00148276)
(0.00106433 0.00264263 0.00148276)
(0.000589274 0.0027873 0.00148276)
(9.63113e-05 0.00284728 0.00148276)
(-0.000399576 0.00282075 0.00148276)
(-0.000883325 0.00270851 0.00148276)
(-0.00134023 0.00251397 0.00148276)
(-0.00175642 0.00224305 0.00148276)
(-0.00211924 0.00190398 0.00148276)
(-0.00241766 0.00150705 0.00148276)
(-0.00264263 0.00106433 0.00148276)
(-0.0027873 0.000589274 0.00148276)
(-0.00284728 9.63113e-05 0.00148276)
(-0.00282075 -0.000399576 0.00148276)
(-0.00270851 -0.000883325 0.00148276)
(-0.00251397 -0.00134023 0.00148276)
(-0.00224305 -0.00175642 0.00148276)
(-0.00190398 -0.00211924 0.00148276)
(-0.00150705 -0.00241766 0.00148276)
(-0.00106433 -0.00264263 0.00148276)
(-0.000589274 -0.0027873 0.00148276)
(-9.63113e-05 -0.00284728 0.00148276)
(0.000257008 -0.00270964 0.00149259)
(0.000723628 -0.00262385 0.00149259)
(0.00116826 -0.00245833 0.00149259)
(0.0015774 -0.00221812 0.00149259)
(0.0019386 -0.00191051 0.00149259)
(0.00224091 -0.00154485 0.00149259)
(0.00247512 -0.00113225 0.00149259)
(0.00263413 -0.000685245 0.00149259)
(0.00271311 -0.000217422 0.00149259)
(0.00270964 0.000257008 0.00149259)
(0.00262385 0.000723628 0.00149259)
(0.00245833 0.00116826 0.00149259)
(0.00221812 0.0015774 0.00149259)
(0.00191051 0.0019386 0.00149259)
(0.00154485 0.00224091 0.00149259)
(0.00113225 0.00247512 0.00149259)
(0.000685245 0.00263413 0.00149259)
(0.000217422 0.00271311 0.00149259)
(-0.000257008 0.00270964 0.00149259)
(-0.000723628 0.00262385 0.00149259)
(-0.00116826 0.00245833 0.00149259)
(-0.0015774 0.00221812 0.00149259)
(-0.0019386 0.00191051 0.00149259)
(-0.00224091 0.00154485 0.00149259)
(-0.00247512 0.00113225 0.00149259)
(-0.00263413 0.000685245 0.00149259)
(-0.00271311 0.000217422 0.00149259)
(-0.00270964 -0.000257008 0.00149259)
(-0.00262385 -0.000723628 0.00149259)
(-0.00245833 -0.00116826 0.00149259)
(-0.00221812 -0.0015774 0.00149259)
(-0.00191051 -0.0019386 0.00149259)
(-0.00154485 -0.00224091 0.00149259)
(-0.00113225 -0.00247512 0.00149259)
(-0.000685245 -0.00263413 0.00149259)
(-0.000217422 -0.00271311 0.00149259)
(0.000479372 -0.00320636 0.00180531)
(0.00102887 -0.0030744 0.00180531)
(0.0015471 -0.00284903 0.00180531)
(0.00201833 -0.0025371 0.00180531)
(0.00242823 -0.00214808 0.00180531)
(0.00276435 -0.00169379 0.00180531)
(0.00301647 -0.00118803 0.00180531)
(0.00317694 -0.000646175 0.00180531)
(0.00324089 -8.46871e-05 0.00180531)
(0.00320636 0.000479372 0.00180531)
(0.0030744 0.00102887 0.00180531)
(0.00284903 0.0015471 0.00180531)
(0.0025371 0.00201833 0.00180531)
(0.00214808 0.00242823 0.00180531)
(0.00169379 0.00276435 0.00180531)
(0.00118803 0.00301647 0.00180531)
(0.000646175 0.00317694 0.00180531)
(8.46871e-05 0.00324089 0.00180531)
(-0.000479372 0.00320636 0.00180531)
(-0.00102887 0.0030744 0.00180531)
(-0.0015471 0.00284903 0.00180531)