/*--------------------------------*- C++ -*----------------------------------*\
| =========                 |                                                 |
| \\      /  F ield         | OpenFOAM: The Open Source CFD Toolbox           |
|  \\    /   O peration     | Version:  2312                                  |
|   \\  /    A nd           | Website:  www.openfoam.com                      |
|    \\/     M anipulation  |                                                 |
\*---------------------------------------------------------------------------*/
FoamFile
{
    version     2.0;
    format      ascii;
    arch        "LSB;label=32;scalar=64";
    class       volTensorField;
    location    "0.4";
    object      F;
}
// * * * * * * * * * * * * * * * * * * * * * * * * * * * * * * * * * * * * * //

dimensions      [0 0 0 0 0 0 0];

internalField   nonuniform List<tensor> 
1620
(
(1.04411 0.0307361 -0.084026 0.0147839 1.01568 0.259615 -0.0092238 -0.000806894 0.937002)
(1.03547 0.0342253 -0.127831 0.018273 1.02432 0.24108 -0.00894343 -0.00239628 0.937002)
(1.02615 0.0345484 -0.167752 0.0185962 1.03363 0.21522 -0.00839142 -0.003913 0.937002)
(1.01729 0.0316666 -0.202576 0.0157143 1.0425 0.18282 -0.00758457 -0.0053108 0.937002)
(1.00995 0.0259271 -0.231245 0.00997509 1.04984 0.144866 -0.00654713 -0.00654713 0.937002)
(1.00501 0.0180226 -0.252888 0.0020706 1.05478 0.10251 -0.00531073 -0.00758465 0.937002)
(1.00308 0.00890626 -0.266847 -0.00704564 1.05671 0.057039 -0.00391301 -0.00839172 0.937002)
(1.00437 -0.000322161 -0.272697 -0.0162741 1.05541 0.00983501 -0.00239644 -0.00894368 0.937002)
(1.00875 -0.00854968 -0.270262 -0.0245017 1.05104 -0.0376677 -0.000807022 -0.00922386 0.937002)
(1.01568 -0.0147839 -0.259615 -0.0307361 1.04411 -0.084026 0.000806894 -0.0092238 0.937002)
(1.02432 -0.018273 -0.24108 -0.0342253 1.03547 -0.127831 0.00239628 -0.00894343 0.937002)
(1.03363 -0.0185962 -0.21522 -0.0345484 1.02615 -0.167752 0.003913 -0.00839142 0.937002)
(1.0425 -0.0157143 -0.18282 -0.0316666 1.01729 -0.202576 0.0053108 -0.00758457 0.937002)
(1.04984 -0.00997509 -0.144866 -0.0259271 1.00995 -0.231245 0.00654713 -0.00654713 0.937002)
(1.05478 -0.0020706 -0.10251 -0.0180226 1.00501 -0.252888 0.00758465 -0.00531073 0.937002)
(1.05671 0.00704564 -0.057039 -0.00890626 1.00308 -0.266847 0.00839172 -0.00391301 0.937002)
(1.05541 0.0162741 -0.00983501 0.000322161 1.00437 -0.272697 0.00894368 -0.00239644 0.937002)
(1.05104 0.0245017 0.0376677 0.00854968 1.00875 -0.270262 0.00922386 -0.000807022 0.937002)
(1.04411 0.0307361 0.084026 0.0147839 1.01568 -0.259615 0.0092238 0.000806894 0.937002)
(1.03547 0.0342253 0.127831 0.018273 1.02432 -0.24108 0.00894343 0.00239628 0.937002)
(1.02615 0.0345484 0.167752 0.0185962 1.03363 -0.21522 0.00839142 0.003913 0.937002)
(1.01729 0.0316666 0.202576 0.0157143 1.0425 -0.18282 0.00758457 0.0053108 0.937002)
(1.00995 0.0259271 0.231245 0.00997509 1.04984 -0.144866 0.00654713 0.00654713 0.937002)
(1.00501 0.0180226 0.252888 0.0020706 1.05478 -0.10251 0.00531073 0.00758465 0.937002)
(1.00308 0.00890626 0.266847 -0.00704564 1.05671 -0.057039 0.00391301 0.00839172 0.937002)
(1.00437 -0.000322161 0.272697 -0.0162741 1.05541 -0.00983501 0.00239644 0.00894368 0.937002)
(1.00875 -0.00854968 0.270262 -0.0245017 1.05104 0.0376677 0.000807022 0.00922386 0.937002)
(1.01568 -0.0147839 0.259615 -0.0307361 1.04411 0.084026 -0.000806894 0.0092238 0.937002)
(1.02432 -0.018273 0.24108 -0.0342253 1.03547 0.127831 -0.00239628 0.00894343 0.937002)
(1.03363 -0.0185962 0.21522 -0.0345484 1.02615 0.167752 -0.003913 0.00839142 0.937002)
(1.0425 -0.0157143 0.18282 -0.0316666 1.01729 0.202576 -0.0053108 0.00758457 0.937002)
(1.04984 -0.00997509 0.144866 -0.0259271 1.00995 0.231245 -0.00654713 0.00654713 0.937002)
(1.05478 -0.0020706 0.10251 -0.0180226 1.00501 0.252888 -0.00758465 0.00531073 0.937002)
(1.05671 0.00704564 0.057039 -0.00890626 1.00308 0.266847 -0.00839172 0.00391301 0.937002)
(1.05541 0.0162741 0.00983501 0.000322161 1.00437 0.272697 -0.00894368 0.00239644 0.937002)
(1.05104 0.0245017 -0.0376677 0.00854968 1.00875 0.270262 -0.00922386 0.000807022 0.937002)
(1.05299 0.0367933 -0.0706835 0.0151119 1.01179 0.271354 -0.0065579 -0.000573717 0.923909)
(1.04287 0.0422736 -0.11673 0.0205921 1.02191 0.254957 -0.0063585 -0.00170367 0.923909)
(1.03149 0.0439627 -0.159229 0.0222812 1.03329 0.230814 -0.00596608 -0.00278198 0.923909)
(1.02021 0.0416567 -0.196891 0.0199752 1.04456 0.199657 -0.00539242 -0.00377582 0.923908)
(1.01041 0.0356337 -0.22857 0.0139524 1.05437 0.162435 -0.00465481 -0.00465479 0.923908)
(1.00325 0.0266204 -0.253304 0.00493902 1.06152 0.120276 -0.00377578 -0.00539241 0.923909)
(0.999613 0.0157039 -0.270341 -0.0059774 1.06516 0.0744631 -0.00278201 -0.00596624 0.923909)
(0.999927 0.00420072 -0.279164 -0.0174805 1.06485 0.0263876 -0.00170378 -0.00635878 0.923909)
(1.00416 -0.00650145 -0.279505 -0.0281829 1.06062 -0.0224896 -0.000573738 -0.00655795 0.923909)
(1.01179 -0.0151119 -0.271354 -0.0367933 1.05299 -0.0706835 0.000573717 -0.0065579 0.923909)
(1.02191 -0.0205921 -0.254957 -0.0422736 1.04287 -0.11673 0.00170367 -0.0063585 0.923909)
(1.03329 -0.0222812 -0.230814 -0.0439627 1.03149 -0.159229 0.00278198 -0.00596608 0.923909)
(1.04456 -0.0199752 -0.199657 -0.0416567 1.02021 -0.196891 0.00377582 -0.00539242 0.923908)
(1.05437 -0.0139524 -0.162435 -0.0356337 1.01041 -0.22857 0.00465479 -0.00465481 0.923908)
(1.06152 -0.00493902 -0.120276 -0.0266204 1.00325 -0.253304 0.00539241 -0.00377578 0.923909)
(1.06516 0.0059774 -0.0744631 -0.0157039 0.999613 -0.270341 0.00596624 -0.00278201 0.923909)
(1.06485 0.0174805 -0.0263876 -0.00420072 0.999927 -0.279164 0.00635878 -0.00170378 0.923909)
(1.06062 0.0281829 0.0224896 0.00650145 1.00416 -0.279505 0.00655795 -0.000573738 0.923909)
(1.05299 0.0367933 0.0706835 0.0151119 1.01179 -0.271354 0.0065579 0.000573717 0.923909)
(1.04287 0.0422736 0.11673 0.0205921 1.02191 -0.254957 0.0063585 0.00170367 0.923909)
(1.03149 0.0439627 0.159229 0.0222812 1.03329 -0.230814 0.00596608 0.00278198 0.923909)
(1.02021 0.0416567 0.196891 0.0199752 1.04456 -0.199657 0.00539242 0.00377582 0.923908)
(1.01041 0.0356337 0.22857 0.0139524 1.05437 -0.162435 0.00465481 0.00465479 0.923908)
(1.00325 0.0266204 0.253304 0.00493902 1.06152 -0.120276 0.00377578 0.00539241 0.923909)
(0.999613 0.0157039 0.270341 -0.0059774 1.06516 -0.0744631 0.00278201 0.00596624 0.923909)
(0.999927 0.00420072 0.279164 -0.0174805 1.06485 -0.0263876 0.00170378 0.00635878 0.923909)
(1.00416 -0.00650145 0.279505 -0.0281829 1.06062 0.0224896 0.000573738 0.00655795 0.923909)
(1.01179 -0.0151119 0.271354 -0.0367933 1.05299 0.0706835 -0.000573717 0.0065579 0.923909)
(1.02191 -0.0205921 0.254957 -0.0422736 1.04287 0.11673 -0.00170367 0.0063585 0.923909)
(1.03329 -0.0222812 0.230814 -0.0439627 1.03149 0.159229 -0.00278198 0.00596608 0.923909)
(1.04456 -0.0199752 0.199657 -0.0416567 1.02021 0.196891 -0.00377582 0.00539242 0.923908)
(1.05437 -0.0139524 0.162435 -0.0356337 1.01041 0.22857 -0.00465479 0.00465481 0.923908)
(1.06152 -0.00493902 0.120276 -0.0266204 1.00325 0.253304 -0.00539241 0.00377578 0.923909)
(1.06516 0.0059774 0.0744631 -0.0157039 0.999613 0.270341 -0.00596624 0.00278201 0.923909)
(1.06485 0.0174805 0.0263876 -0.00420072 0.999927 0.279164 -0.00635878 0.00170378 0.923909)
(1.06062 0.0281829 -0.0224896 0.00650145 1.00416 0.279505 -0.00655795 0.000573738 0.923909)
(1.06197 0.0442004 -0.0556387 0.0152414 1.00415 0.282402 -0.00362808 -0.000317482 0.912027)
(1.05007 0.0522962 -0.103832 0.0233373 1.01606 0.268451 -0.00351766 -0.000942533 0.912027)
(1.03611 0.0558309 -0.148871 0.0268719 1.03002 0.246342 -0.0033006 -0.00153899 0.912027)
(1.02178 0.054378 -0.189386 0.0254189 1.04435 0.216748 -0.00298321 -0.00208888 0.912027)
(1.00881 0.0481125 -0.224147 0.0191536 1.05731 0.180569 -0.00257509 -0.00257513 0.912027)
(0.998773 0.0377904 -0.252097 0.0088316 1.06735 0.138903 -0.0020888 -0.00298313 0.912027)
(0.992868 0.0246569 -0.272387 -0.004302 1.07326 0.0930166 -0.00153912 -0.00330059 0.912027)
(0.991811 0.0102956 -0.284401 -0.0186633 1.07431 0.044304 -0.000942648 -0.00351793 0.912027)
(0.99573 -0.00356089 -0.287774 -0.0325199 1.0704 -0.00575471 -0.000317366 -0.00362813 0.912027)
(1.00415 -0.0152414 -0.282402 -0.0442004 1.06197 -0.0556387 0.000317482 -0.00362808 0.912027)
(1.01606 -0.0233373 -0.268451 -0.0522962 1.05007 -0.103832 0.000942533 -0.00351766 0.912027)
(1.03002 -0.0268719 -0.246342 -0.0558309 1.03611 -0.148871 0.00153899 -0.0033006 0.912027)
(1.04435 -0.0254189 -0.216748 -0.054378 1.02178 -0.189386 0.00208888 -0.00298321 0.912027)
(1.05731 -0.0191536 -0.180569 -0.0481125 1.00881 -0.224147 0.00257513 -0.00257509 0.912027)
(1.06735 -0.0088316 -0.138903 -0.0377904 0.998773 -0.252097 0.00298313 -0.0020888 0.912027)
(1.07326 0.004302 -0.0930166 -0.0246569 0.992868 -0.272387 0.00330059 -0.00153912 0.912027)
(1.07431 0.0186633 -0.044304 -0.0102956 0.991811 -0.284401 0.00351793 -0.000942648 0.912027)
(1.0704 0.0325199 0.00575471 0.00356089 0.99573 -0.287774 0.00362813 -0.000317366 0.912027)
(1.06197 0.0442004 0.0556387 0.0152414 1.00415 -0.282402 0.00362808 0.000317482 0.912027)
(1.05007 0.0522962 0.103832 0.0233373 1.01606 -0.268451 0.00351766 0.000942533 0.912027)
(1.03611 0.0558309 0.148871 0.0268719 1.03002 -0.246342 0.0033006 0.00153899 0.912027)
(1.02178 0.054378 0.189386 0.0254189 1.04435 -0.216748 0.00298321 0.00208888 0.912027)
(1.00881 0.0481125 0.224147 0.0191536 1.05731 -0.180569 0.00257509 0.00257513 0.912027)
(0.998773 0.0377904 0.252097 0.0088316 1.06735 -0.138903 0.0020888 0.00298313 0.912027)
(0.992868 0.0246569 0.272387 -0.004302 1.07326 -0.0930166 0.00153912 0.00330059 0.912027)
(0.991811 0.0102956 0.284401 -0.0186633 1.07431 -0.044304 0.000942648 0.00351793 0.912027)
(0.99573 -0.00356089 0.287774 -0.0325199 1.0704 0.00575471 0.000317366 0.00362813 0.912027)
(1.00415 -0.0152414 0.282402 -0.0442004 1.06197 0.0556387 -0.000317482 0.00362808 0.912027)
(1.01606 -0.0233373 0.268451 -0.0522962 1.05007 0.103832 -0.000942533 0.00351766 0.912027)
(1.03002 -0.0268719 0.246342 -0.0558309 1.03611 0.148871 -0.00153899 0.0033006 0.912027)
(1.04435 -0.0254189 0.216748 -0.054378 1.02178 0.189386 -0.00208888 0.00298321 0.912027)
(1.05731 -0.0191536 0.180569 -0.0481125 1.00881 0.224147 -0.00257513 0.00257509 0.912027)
(1.06735 -0.0088316 0.138903 -0.0377904 0.998773 0.252097 -0.00298313 0.0020888 0.912027)
(1.07326 0.004302 0.0930166 -0.0246569 0.992868 0.272387 -0.00330059 0.00153912 0.912027)
(1.07431 0.0186633 0.044304 -0.0102956 0.991811 0.284401 -0.00351793 0.000942648 0.912027)
(1.0704 0.0325199 -0.00575471 0.00356089 0.99573 0.287774 -0.00362813 0.000317366 0.912027)
(1.06407 0.0855196 -0.0767594 0.0352046 1.03536 0.260934 -0.0352074 -0.00308009 0.91636)
(1.04256 0.0867885 -0.120904 0.0364734 1.05688 0.243641 -0.0341376 -0.00914691 0.91636)
(1.02191 0.0806238 -0.161375 0.0303087 1.07752 0.218945 -0.0320305 -0.0149359 0.91636)
(1.00462 0.067769 -0.196943 0.017454 1.09482 0.187596 -0.0289503 -0.0202711 0.91636)
(0.992765 0.0497744 -0.226526 -0.000540409 1.10667 0.150547 -0.0249902 -0.0249903 0.91636)
(0.98778 0.0288108 -0.249227 -0.021504 1.11166 0.108924 -0.0202709 -0.0289505 0.91636)
(0.990266 0.00740646 -0.264356 -0.0429082 1.10917 0.0639917 -0.014936 -0.0320311 0.91636)
(0.999923 -0.0118566 -0.271451 -0.0621713 1.09951 0.0171146 -0.00914723 -0.034138 0.91636)
(1.01559 -0.0266554 -0.270299 -0.0769701 1.08385 -0.0302825 -0.00308039 -0.0352076 0.91636)
(1.03536 -0.0352046 -0.260934 -0.0855196 1.06407 -0.0767594 0.00308009 -0.0352074 0.91636)
(1.05688 -0.0364734 -0.243641 -0.0867885 1.04256 -0.120904 0.00914691 -0.0341376 0.91636)
(1.07752 -0.0303087 -0.218945 -0.0806238 1.02191 -0.161375 0.0149359 -0.0320305 0.91636)
(1.09482 -0.017454 -0.187596 -0.067769 1.00462 -0.196943 0.0202711 -0.0289503 0.91636)
(1.10667 0.000540409 -0.150547 -0.0497744 0.992765 -0.226526 0.0249903 -0.0249902 0.91636)
(1.11166 0.021504 -0.108924 -0.0288108 0.98778 -0.249227 0.0289505 -0.0202709 0.91636)
(1.10917 0.0429082 -0.0639917 -0.00740646 0.990266 -0.264356 0.0320311 -0.014936 0.91636)
(1.09951 0.0621713 -0.0171146 0.0118566 0.999923 -0.271451 0.034138 -0.00914723 0.91636)
(1.08385 0.0769701 0.0302825 0.0266554 1.01559 -0.270299 0.0352076 -0.00308039 0.91636)
(1.06407 0.0855196 0.0767594 0.0352046 1.03536 -0.260934 0.0352074 0.00308009 0.91636)
(1.04256 0.0867885 0.120904 0.0364734 1.05688 -0.243641 0.0341376 0.00914691 0.91636)
(1.02191 0.0806238 0.161375 0.0303087 1.07752 -0.218945 0.0320305 0.0149359 0.91636)
(1.00462 0.067769 0.196943 0.017454 1.09482 -0.187596 0.0289503 0.0202711 0.91636)
(0.992765 0.0497744 0.226526 -0.000540409 1.10667 -0.150547 0.0249902 0.0249903 0.91636)
(0.98778 0.0288108 0.249227 -0.021504 1.11166 -0.108924 0.0202709 0.0289505 0.91636)
(0.990266 0.00740646 0.264356 -0.0429082 1.10917 -0.0639917 0.014936 0.0320311 0.91636)
(0.999923 -0.0118566 0.271451 -0.0621713 1.09951 -0.0171146 0.00914723 0.034138 0.91636)
(1.01559 -0.0266554 0.270299 -0.0769701 1.08385 0.0302825 0.00308039 0.0352076 0.91636)
(1.03536 -0.0352046 0.260934 -0.0855196 1.06407 0.0767594 -0.00308009 0.0352074 0.91636)
(1.05688 -0.0364734 0.243641 -0.0867885 1.04256 0.120904 -0.00914691 0.0341376 0.91636)
(1.07752 -0.0303087 0.218945 -0.0806238 1.02191 0.161375 -0.0149359 0.0320305 0.91636)
(1.09482 -0.017454 0.187596 -0.067769 1.00462 0.196943 -0.0202711 0.0289503 0.91636)
(1.10667 0.000540409 0.150547 -0.0497744 0.992765 0.226526 -0.0249903 0.0249902 0.91636)
(1.11166 0.021504 0.108924 -0.0288108 0.98778 0.249227 -0.0289505 0.0202709 0.91636)
(1.10917 0.0429082 0.0639917 -0.00740646 0.990266 0.264356 -0.0320311 0.014936 0.91636)
(1.09951 0.0621713 0.0171146 0.0118566 0.999923 0.271451 -0.034138 0.00914723 0.91636)
(1.08385 0.0769701 -0.0302825 0.0266554 1.01559 0.270299 -0.0352076 0.00308039 0.91636)
(1.0737 0.100414 -0.0630648 0.0352769 1.03066 0.269606 -0.0313568 -0.00274329 0.905657)
(1.0492 0.103683 -0.108923 0.0385457 1.05516 0.254559 -0.0304039 -0.00814652 0.905657)
(1.02506 0.0983741 -0.151472 0.0332371 1.07931 0.231777 -0.0285273 -0.0133023 0.905657)
(1.00419 0.0851283 -0.189419 0.0199915 1.10018 0.201953 -0.0257839 -0.018054 0.905657)
(0.989104 0.065543 -0.22161 0.000406227 1.11526 0.165993 -0.022257 -0.022257 0.905657)
(0.98163 0.0419805 -0.247068 -0.0231563 1.12273 0.124989 -0.0180539 -0.025784 0.905657)
(0.982666 0.0172827 -0.265018 -0.0478537 1.1217 0.0801873 -0.0133025 -0.0285277 0.905657)
(0.992086 -0.00557135 -0.274916 -0.0707078 1.11228 0.0329491 -0.00814674 -0.0304043 0.905657)
(1.00875 -0.0238251 -0.276461 -0.0889616 1.09561 -0.0152901 -0.00274339 -0.0313569 0.905657)
(1.03066 -0.0352769 -0.269606 -0.100414 1.0737 -0.0630648 0.00274329 -0.0313568 0.905657)
(1.05516 -0.0385457 -0.254559 -0.103683 1.0492 -0.108923 0.00814652 -0.0304039 0.905657)
(1.07931 -0.0332371 -0.231777 -0.0983741 1.02506 -0.151472 0.0133023 -0.0285273 0.905657)
(1.10018 -0.0199915 -0.201953 -0.0851283 1.00419 -0.189419 0.018054 -0.0257839 0.905657)
(1.11526 -0.000406227 -0.165993 -0.065543 0.989104 -0.22161 0.022257 -0.022257 0.905657)
(1.12273 0.0231563 -0.124989 -0.0419805 0.98163 -0.247068 0.025784 -0.0180539 0.905657)
(1.1217 0.0478537 -0.0801873 -0.0172827 0.982666 -0.265018 0.0285277 -0.0133025 0.905657)
(1.11228 0.0707078 -0.0329491 0.00557135 0.992086 -0.274916 0.0304043 -0.00814674 0.905657)
(1.09561 0.0889616 0.0152901 0.0238251 1.00875 -0.276461 0.0313569 -0.00274339 0.905657)
(1.0737 0.100414 0.0630648 0.0352769 1.03066 -0.269606 0.0313568 0.00274329 0.905657)
(1.0492 0.103683 0.108923 0.0385457 1.05516 -0.254559 0.0304039 0.00814652 0.905657)
(1.02506 0.0983741 0.151472 0.0332371 1.07931 -0.231777 0.0285273 0.0133023 0.905657)
(1.00419 0.0851283 0.189419 0.0199915 1.10018 -0.201953 0.0257839 0.018054 0.905657)
(0.989104 0.065543 0.22161 0.000406227 1.11526 -0.165993 0.022257 0.022257 0.905657)
(0.98163 0.0419805 0.247068 -0.0231563 1.12273 -0.124989 0.0180539 0.025784 0.905657)
(0.982666 0.0172827 0.265018 -0.0478537 1.1217 -0.0801873 0.0133025 0.0285277 0.905657)
(0.992086 -0.00557135 0.274916 -0.0707078 1.11228 -0.0329491 0.00814674 0.0304043 0.905657)
(1.00875 -0.0238251 0.276461 -0.0889616 1.09561 0.0152901 0.00274339 0.0313569 0.905657)
(1.03066 -0.0352769 0.269606 -0.100414 1.0737 0.0630648 -0.00274329 0.0313568 0.905657)
(1.05516 -0.0385457 0.254559 -0.103683 1.0492 0.108923 -0.00814652 0.0304039 0.905657)
(1.07931 -0.0332371 0.231777 -0.0983741 1.02506 0.151472 -0.0133023 0.0285273 0.905657)
(1.10018 -0.0199915 0.201953 -0.0851283 1.00419 0.189419 -0.018054 0.0257839 0.905657)
(1.11526 -0.000406227 0.165993 -0.065543 0.989104 0.22161 -0.022257 0.022257 0.905657)
(1.12273 0.0231563 0.124989 -0.0419805 0.98163 0.247068 -0.025784 0.0180539 0.905657)
(1.1217 0.0478537 0.0801873 -0.0172827 0.982666 0.265018 -0.0285277 0.0133025 0.905657)
(1.11228 0.0707078 0.0329491 0.00557135 0.992086 0.274916 -0.0304043 0.00814674 0.905657)
(1.09561 0.0889616 -0.0152901 0.0238251 1.00875 0.276461 -0.0313569 0.00274339 0.905657)
(1.08346 0.118651 -0.0488635 0.0342001 1.02156 0.277381 -0.0273293 -0.00239103 0.895548)
(1.05546 0.124628 -0.096288 0.0401772 1.04956 0.264682 -0.0264987 -0.00710026 0.895548)
(1.02709 0.120667 -0.140787 0.0362153 1.07792 0.243941 -0.0248632 -0.0115937 0.895548)
(1.0018 0.107244 -0.181008 0.0227923 1.10322 0.215787 -0.0224722 -0.0157351 0.895548)
(0.982619 0.0859784 -0.215729 0.00152719 1.1224 0.181077 -0.0193983 -0.0193983 0.895548)
(0.97187 0.0594358 -0.243895 -0.0250151 1.13315 0.140866 -0.0157352 -0.0224722 0.895548)
(0.970847 0.0308176 -0.264651 -0.0536333 1.13417 0.0963736 -0.011594 -0.0248635 0.895548)
(0.979673 0.00357523 -0.277366 -0.0808756 1.12535 0.0489533 -0.00710033 -0.0264992 0.895548)
(0.997285 -0.019005 -0.281652 -0.103456 1.10773 4.56268e-05 -0.00239095 -0.0273294 0.895548)
(1.02156 -0.0342001 -0.277381 -0.118651 1.08346 -0.0488635 0.00239103 -0.0273293 0.895548)
(1.04956 -0.0401772 -0.264682 -0.124628 1.05546 -0.096288 0.00710026 -0.0264987 0.895548)
(1.07792 -0.0362153 -0.243941 -0.120667 1.02709 -0.140787 0.0115937 -0.0248632 0.895548)
(1.10322 -0.0227923 -0.215787 -0.107244 1.0018 -0.181008 0.0157351 -0.0224722 0.895548)
(1.1224 -0.00152719 -0.181077 -0.0859784 0.982619 -0.215729 0.0193983 -0.0193983 0.895548)
(1.13315 0.0250151 -0.140866 -0.0594358 0.97187 -0.243895 0.0224722 -0.0157352 0.895548)
(1.13417 0.0536333 -0.0963736 -0.0308176 0.970847 -0.264651 0.0248635 -0.011594 0.895548)
(1.12535 0.0808756 -0.0489533 -0.00357523 0.979673 -0.277366 0.0264992 -0.00710033 0.895548)
(1.10773 0.103456 -4.56269e-05 0.019005 0.997285 -0.281652 0.0273294 -0.00239095 0.895548)
(1.08346 0.118651 0.0488635 0.0342001 1.02156 -0.277381 0.0273293 0.00239103 0.895548)
(1.05546 0.124628 0.096288 0.0401772 1.04956 -0.264682 0.0264987 0.00710026 0.895548)
(1.02709 0.120667 0.140787 0.0362153 1.07792 -0.243941 0.0248632 0.0115937 0.895548)
(1.0018 0.107244 0.181008 0.0227923 1.10322 -0.215787 0.0224722 0.0157351 0.895548)
(0.982619 0.0859784 0.215729 0.00152719 1.1224 -0.181077 0.0193983 0.0193983 0.895548)
(0.97187 0.0594358 0.243895 -0.0250151 1.13315 -0.140866 0.0157352 0.0224722 0.895548)
(0.970847 0.0308176 0.264651 -0.0536333 1.13417 -0.0963736 0.011594 0.0248635 0.895548)
(0.979673 0.00357523 0.277366 -0.0808756 1.12535 -0.0489533 0.00710033 0.0264992 0.895548)
(0.997285 -0.019005 0.281652 -0.103456 1.10773 -4.56268e-05 0.00239095 0.0273294 0.895548)
(1.02156 -0.0342001 0.277381 -0.118651 1.08346 0.0488635 -0.00239103 0.0273293 0.895548)
(1.04956 -0.0401772 0.264682 -0.124628 1.05546 0.096288 -0.00710026 0.0264987 0.895548)
(1.07792 -0.0362153 0.243941 -0.120667 1.02709 0.140787 -0.0115937 0.0248632 0.895548)
(1.10322 -0.0227923 0.215787 -0.107244 1.0018 0.181008 -0.0157351 0.0224722 0.895548)
(1.1224 -0.00152719 0.181077 -0.0859784 0.982619 0.215729 -0.0193983 0.0193983 0.895548)
(1.13315 0.0250151 0.140866 -0.0594358 0.97187 0.243895 -0.0224722 0.0157352 0.895548)
(1.13417 0.0536333 0.0963736 -0.0308176 0.970847 0.264651 -0.0248635 0.011594 0.895548)
(1.12535 0.0808756 0.0489533 -0.00357523 0.979673 0.277366 -0.0264992 0.00710033 0.895548)
(1.10773 0.103456 4.56267e-05 0.019005 0.997285 0.281652 -0.0273294 0.00239095 0.895548)
(1.08594 0.140286 -0.0603281 0.044166 1.05105 0.258262 -0.0513313 -0.00449061 0.886218)
(1.05334 0.14069 -0.104258 0.0445694 1.08365 0.243862 -0.0497713 -0.0133358 0.886218)
(1.02257 0.129921 -0.145021 0.0338003 1.11442 0.222053 -0.0466992 -0.021776 0.886218)
(0.997345 0.109278 -0.181377 0.0131578 1.13964 0.193497 -0.0422082 -0.0295545 0.886218)
(0.980698 0.0812513 -0.212222 -0.0148686 1.15629 0.159062 -0.0364348 -0.036435 0.886218)
(0.974641 0.0492214 -0.236618 -0.0468984 1.16235 0.119794 -0.0295544 -0.0422086 0.886218)
(0.979904 0.0170516 -0.253826 -0.0790683 1.15709 0.0768853 -0.0217762 -0.0466998 0.886218)
(0.995852 -0.0113781 -0.26332 -0.107498 1.14114 0.0316409 -0.0133362 -0.0497717 0.886218)
(1.02056 -0.0326387 -0.264814 -0.128759 1.11643 -0.0145649 -0.00449096 -0.0513314 0.886218)
(1.05105 -0.044166 -0.258262 -0.140286 1.08594 -0.0603281 0.00449061 -0.0513313 0.886218)
(1.08365 -0.0445694 -0.243862 -0.14069 1.05334 -0.104258 0.0133358 -0.0497713 0.886218)
(1.11442 -0.0338003 -0.222053 -0.129921 1.02257 -0.145021 0.021776 -0.0466992 0.886218)
(1.13964 -0.0131578 -0.193497 -0.109278 0.997345 -0.181377 0.0295545 -0.0422082 0.886218)
(1.15629 0.0148686 -0.159062 -0.0812513 0.980698 -0.212222 0.036435 -0.0364348 0.886218)
(1.16235 0.0468984 -0.119794 -0.0492214 0.974641 -0.236618 0.0422086 -0.0295544 0.886218)
(1.15709 0.0790683 -0.0768853 -0.0170516 0.979904 -0.253826 0.0466998 -0.0217762 0.886218)
(1.14114 0.107498 -0.0316409 0.0113781 0.995852 -0.26332 0.0497717 -0.0133362 0.886218)
(1.11643 0.128759 0.0145649 0.0326387 1.02056 -0.264814 0.0513314 -0.00449096 0.886218)
(1.08594 0.140286 0.0603281 0.044166 1.05105 -0.258262 0.0513313 0.00449061 0.886218)
(1.05334 0.14069 0.104258 0.0445694 1.08365 -0.243862 0.0497713 0.0133358 0.886218)
(1.02257 0.129921 0.145021 0.0338003 1.11442 -0.222053 0.0466992 0.021776 0.886218)
(0.997345 0.109278 0.181377 0.0131578 1.13964 -0.193497 0.0422082 0.0295545 0.886218)
(0.980698 0.0812513 0.212222 -0.0148686 1.15629 -0.159062 0.0364348 0.036435 0.886218)
(0.974641 0.0492214 0.236618 -0.0468984 1.16235 -0.119794 0.0295544 0.0422086 0.886218)
(0.979904 0.0170516 0.253826 -0.0790683 1.15709 -0.0768853 0.0217762 0.0466998 0.886218)
(0.995852 -0.0113781 0.26332 -0.107498 1.14114 -0.0316409 0.0133362 0.0497717 0.886218)
(1.02056 -0.0326387 0.264814 -0.128759 1.11643 0.0145649 0.00449096 0.0513314 0.886218)
(1.05105 -0.044166 0.258262 -0.140286 1.08594 0.0603281 -0.00449061 0.0513313 0.886218)
(1.08365 -0.0445694 0.243862 -0.14069 1.05334 0.104258 -0.0133358 0.0497713 0.886218)
(1.11442 -0.0338003 0.222053 -0.129921 1.02257 0.145021 -0.021776 0.0466992 0.886218)
(1.13964 -0.0131578 0.193497 -0.109278 0.997345 0.181377 -0.0295545 0.0422082 0.886218)
(1.15629 0.0148686 0.159062 -0.0812513 0.980698 0.212222 -0.036435 0.0364348 0.886218)
(1.16235 0.0468984 0.119794 -0.0492214 0.974641 0.236618 -0.0422086 0.0295544 0.886218)
(1.15709 0.0790683 0.0768853 -0.0170516 0.979904 0.253826 -0.0466998 0.0217762 0.886218)
(1.14114 0.107498 0.0316409 0.0113781 0.995852 0.26332 -0.0497717 0.0133362 0.886218)
(1.11643 0.128759 -0.0145649 0.0326387 1.02056 0.264814 -0.0513314 0.00449096 0.886218)
(1.0942 0.161876 -0.048784 0.0436694 1.04479 0.259724 -0.0477563 -0.00417801 0.879651)
(1.05756 0.164127 -0.0931435 0.0459201 1.08143 0.247307 -0.046305 -0.0124072 0.879651)
(1.02236 0.15371 -0.134673 0.0355033 1.11663 0.227376 -0.0434468 -0.0202595 0.879651)
(0.992843 0.131882 -0.17211 0.0136758 1.14615 0.200536 -0.0392687 -0.0274962 0.879652)
(0.972574 0.101276 -0.204318 -0.0169301 1.16642 0.167603 -0.0338974 -0.0338975 0.879652)
(0.963995 0.0655835 -0.230318 -0.0526227 1.175 0.129577 -0.0274962 -0.039269 0.879652)
(0.968141 0.0291093 -0.24932 -0.0890968 1.17085 0.087614 -0.0202597 -0.0434474 0.879651)
(0.984512 -0.00374711 -0.260746 -0.121953 1.15448 0.042989 -0.0124074 -0.0463054 0.879651)
(1.01113 -0.0290229 -0.26425 -0.147229 1.12786 -0.00294216 -0.00417816 -0.0477564 0.879651)
(1.04479 -0.0436694 -0.259724 -0.161876 1.0942 -0.048784 0.00417801 -0.0477563 0.879651)
(1.08143 -0.0459201 -0.247307 -0.164127 1.05756 -0.0931435 0.0124072 -0.046305 0.879651)
(1.11663 -0.0355033 -0.227376 -0.15371 1.02236 -0.134673 0.0202595 -0.0434468 0.879651)
(1.14615 -0.0136758 -0.200536 -0.131882 0.992843 -0.17211 0.0274962 -0.0392687 0.879652)
(1.16642 0.0169301 -0.167603 -0.101276 0.972574 -0.204318 0.0338975 -0.0338974 0.879652)
(1.175 0.0526227 -0.129577 -0.0655835 0.963995 -0.230318 0.039269 -0.0274962 0.879652)
(1.17085 0.0890968 -0.087614 -0.0291093 0.968141 -0.24932 0.0434474 -0.0202597 0.879651)
(1.15448 0.121953 -0.042989 0.00374711 0.984512 -0.260746 0.0463054 -0.0124074 0.879651)
(1.12786 0.147229 0.00294216 0.0290229 1.01113 -0.26425 0.0477564 -0.00417816 0.879651)
(1.0942 0.161876 0.048784 0.0436694 1.04479 -0.259724 0.0477563 0.00417801 0.879651)
(1.05756 0.164127 0.0931435 0.0459201 1.08143 -0.247307 0.046305 0.0124072 0.879651)
(1.02236 0.15371 0.134673 0.0355033 1.11663 -0.227376 0.0434468 0.0202595 0.879651)
(0.992843 0.131882 0.17211 0.0136758 1.14615 -0.200536 0.0392687 0.0274962 0.879652)
(0.972574 0.101276 0.204318 -0.0169301 1.16642 -0.167603 0.0338974 0.0338975 0.879652)
(0.963995 0.0655835 0.230318 -0.0526227 1.175 -0.129577 0.0274962 0.039269 0.879652)
(0.968141 0.0291093 0.24932 -0.0890968 1.17085 -0.087614 0.0202597 0.0434474 0.879651)
(0.984512 -0.00374711 0.260746 -0.121953 1.15448 -0.042989 0.0124074 0.0463054 0.879651)
(1.01113 -0.0290229 0.26425 -0.147229 1.12786 0.00294216 0.00417816 0.0477564 0.879651)
(1.04479 -0.0436694 0.259724 -0.161876 1.0942 0.048784 -0.00417801 0.0477563 0.879651)
(1.08143 -0.0459201 0.247307 -0.164127 1.05756 0.0931435 -0.0124072 0.046305 0.879651)
(1.11663 -0.0355033 0.227376 -0.15371 1.02236 0.134673 -0.0202595 0.0434468 0.879651)
(1.14615 -0.0136758 0.200536 -0.131882 0.992843 0.17211 -0.0274962 0.0392687 0.879652)
(1.16642 0.0169301 0.167603 -0.101276 0.972574 0.204318 -0.0338975 0.0338974 0.879652)
(1.175 0.0526227 0.129577 -0.0655835 0.963995 0.230318 -0.039269 0.0274962 0.879652)
(1.17085 0.0890968 0.087614 -0.0291093 0.968141 0.24932 -0.0434474 0.0202597 0.879651)
(1.15448 0.121953 0.042989 0.00374711 0.984512 0.260746 -0.0463054 0.0124074 0.879651)
(1.12786 0.147229 -0.00294216 0.0290229 1.01113 0.26425 -0.0477564 0.00417816 0.879651)
(1.10238 0.188144 -0.0381039 0.041118 1.03397 0.260498 -0.0436466 -0.00381857 0.873038)
(1.06111 0.19293 -0.0827601 0.0459043 1.07524 0.249924 -0.0423202 -0.0113396 0.873038)
(1.02069 0.183313 -0.124902 0.0362872 1.11565 0.231756 -0.039708 -0.0185161 0.873038)
(0.986004 0.160452 -0.163248 0.0134266 1.15034 0.206546 -0.0358894 -0.02513 0.873038)
(0.961224 0.127105 -0.196634 -0.0199204 1.17512 0.17506 -0.0309804 -0.0309804 0.873038)
(0.949344 0.0872943 -0.224046 -0.0597313 1.187 0.138256 -0.0251301 -0.0358896 0.873038)
(0.951797 0.0458211 -0.24465 -0.101204 1.18455 0.09725 -0.0185163 -0.0397084 0.873038)
(0.968287 0.00768799 -0.25782 -0.139338 1.16806 0.0532896 -0.0113397 -0.0423206 0.873038)
(0.996824 -0.0225056 -0.263157 -0.169531 1.13952 0.00770997 -0.00381854 -0.0436467 0.873038)
(1.03397 -0.041118 -0.260498 -0.188144 1.10238 -0.0381039 0.00381857 -0.0436466 0.873038)
(1.07524 -0.0459043 -0.249924 -0.19293 1.06111 -0.0827601 0.0113396 -0.0423202 0.873038)
(1.11565 -0.0362872 -0.231756 -0.183313 1.02069 -0.124902 0.0185161 -0.039708 0.873038)
(1.15034 -0.0134266 -0.206546 -0.160452 0.986004 -0.163248 0.02513 -0.0358894 0.873038)
(1.17512 0.0199204 -0.17506 -0.127105 0.961224 -0.196634 0.0309804 -0.0309804 0.873038)
(1.187 0.0597313 -0.138256 -0.0872943 0.949344 -0.224046 0.0358896 -0.0251301 0.873038)
(1.18455 0.101204 -0.09725 -0.0458211 0.951797 -0.24465 0.0397084 -0.0185163 0.873038)
(1.16806 0.139338 -0.0532896 -0.00768799 0.968287 -0.25782 0.0423206 -0.0113397 0.873038)
(1.13952 0.169531 -0.00770997 0.0225056 0.996824 -0.263157 0.0436467 -0.00381854 0.873038)
(1.10238 0.188144 0.0381039 0.041118 1.03397 -0.260498 0.0436466 0.00381857 0.873038)
(1.06111 0.19293 0.0827601 0.0459043 1.07524 -0.249924 0.0423202 0.0113396 0.873038)
(1.02069 0.183313 0.124902 0.0362872 1.11565 -0.231756 0.039708 0.0185161 0.873038)
(0.986004 0.160452 0.163248 0.0134266 1.15034 -0.206546 0.0358894 0.02513 0.873038)
(0.961224 0.127105 0.196634 -0.0199204 1.17512 -0.17506 0.0309804 0.0309804 0.873038)
(0.949344 0.0872943 0.224046 -0.0597313 1.187 -0.138256 0.0251301 0.0358896 0.873038)
(0.951797 0.0458211 0.24465 -0.101204 1.18455 -0.09725 0.0185163 0.0397084 0.873038)
(0.968287 0.00768799 0.25782 -0.139338 1.16806 -0.0532896 0.0113397 0.0423206 0.873038)
(0.996824 -0.0225056 0.263157 -0.169531 1.13952 -0.00770997 0.00381854 0.0436467 0.873038)
(1.03397 -0.041118 0.260498 -0.188144 1.10238 0.0381039 -0.00381857 0.0436466 0.873038)
(1.07524 -0.0459043 0.249924 -0.19293 1.06111 0.0827601 -0.0113396 0.0423202 0.873038)
(1.11565 -0.0362872 0.231756 -0.183313 1.02069 0.124902 -0.0185161 0.039708 0.873038)
(1.15034 -0.0134266 0.206546 -0.160452 0.986004 0.163248 -0.02513 0.0358894 0.873038)
(1.17512 0.0199204 0.17506 -0.127105 0.961224 0.196634 -0.0309804 0.0309804 0.873038)
(1.187 0.0597313 0.138256 -0.0872943 0.949344 0.224046 -0.0358896 0.0251301 0.873038)
(1.18455 0.101204 0.09725 -0.0458211 0.951797 0.24465 -0.0397084 0.0185163 0.873038)
(1.16806 0.139338 0.0532896 -0.00768799 0.968287 0.25782 -0.0423206 0.0113397 0.873038)
(1.13952 0.169531 0.00770997 0.0225056 0.996824 0.263157 -0.0436467 0.00381854 0.873038)
(1.09992 0.194807 -0.0400415 0.0371195 1.06049 0.249247 -0.0606262 -0.00530389 0.867592)
(1.05907 0.194557 -0.0827145 0.036869 1.10134 0.238508 -0.0587837 -0.0157509 0.867592)
(1.02077 0.18035 -0.122874 0.0226618 1.13964 0.220521 -0.0551555 -0.0257195 0.867592)