/*--------------------------------*- C++ -*----------------------------------*\
| =========                 |                                                 |
| \\      /  F ield         | OpenFOAM: The Open Source CFD Toolbox           |
|  \\    /   O peration     | Version:  2312                                  |
|   \\  /    A nd           | Website:  www.openfoam.com                      |
|    \\/     M anipulation  |                                                 |
\*---------------------------------------------------------------------------*/
FoamFile
{
    version     2.0;
    format      ascii;
    arch        "LSB;label=32;scalar=64";
    class       pointVectorField;
    location    "0.4";
    object      pointD;
}
// * * * * * * * * * * * * * * * * * * * * * * * * * * * * * * * * * * * * * //

dimensions      [0 1 0 0 0 0 0];

internalField   nonuniform List<vector> 
2164
(
(0 0 0)
(0 0 0)
(0 0 0)
(0 0 0)
(0 0 0)
(0 0 0)
(0 0 0)
(0 0 0)
(0 0 0)
(0 0 0)
(0 0 0)
(0 0 0)
(0 0 0)
(0 0 0)
(0 0 0)
(0 0 0)
(0 0 0)
(0 0 0)
(0 0 0)
(0 0 0)
(0 0 0)
(0 0 0)
(0 0 0)
(0 0 0)
(0 0 0)
(0 0 0)
(0 0 0)
(0 0 0)
(0 0 0)
(0 0 0)
(0 0 0)
(0 0 0)
(0 0 0)
(0 0 0)
(0 0 0)
(0 0 0)
(0.000292298 -0.000461466 8.36966e-05)
(0.00036799 -0.000403698 8.36971e-05)
(0.000432501 -0.000333664 8.36972e-05)
(0.000483871 -0.000253492 8.36972e-05)
(0.000520538 -0.000165617 8.36973e-05)
(0.000541389 -7.27112e-05 8.36967e-05)
(0.00054579 2.24046e-05 8.36962e-05)
(0.000533608 0.00011684 8.36961e-05)
(0.000505212 0.000207725 8.36964e-05)
(0.000461466 0.000292298 8.36966e-05)
(0.000403698 0.00036799 8.36971e-05)
(0.000333664 0.000432501 8.36972e-05)
(0.000253492 0.000483871 8.36972e-05)
(0.000165617 0.000520538 8.36973e-05)
(7.27112e-05 0.000541389 8.36967e-05)
(-2.24046e-05 0.00054579 8.36962e-05)
(-0.00011684 0.000533608 8.36961e-05)
(-0.000207725 0.000505212 8.36964e-05)
(-0.000292298 0.000461466 8.36966e-05)
(-0.00036799 0.000403698 8.36971e-05)
(-0.000432501 0.000333664 8.36972e-05)
(-0.000483871 0.000253492 8.36972e-05)
(-0.000520538 0.000165617 8.36973e-05)
(-0.000541389 7.27112e-05 8.36967e-05)
(-0.00054579 -2.24046e-05 8.36962e-05)
(-0.000533608 -0.00011684 8.36961e-05)
(-0.000505212 -0.000207725 8.36964e-05)
(-0.000461466 -0.000292298 8.36966e-05)
(-0.000403698 -0.00036799 8.36971e-05)
(-0.000333664 -0.000432501 8.36972e-05)
(-0.000253492 -0.000483871 8.36972e-05)
(-0.000165617 -0.000520538 8.36973e-05)
(-7.27112e-05 -0.000541389 8.36967e-05)
(2.24046e-05 -0.00054579 8.36962e-05)
(0.00011684 -0.000533608 8.36961e-05)
(0.000207725 -0.000505212 8.36964e-05)
(0.000239027 -0.000495559 0.000107839)
(0.000321449 -0.000446524 0.000107839)
(0.000394103 -0.000383921 0.000107839)
(0.000454783 -0.000309653 0.00010784)
(0.000501645 -0.000225976 0.00010784)
(0.000533264 -0.000135433 0.000107839)
(0.00054868 -4.07758e-05 0.000107839)
(0.000547425 5.51209e-05 0.000107839)
(0.000529537 0.000149343 0.000107839)
(0.000495559 0.000239027 0.000107839)
(0.000446524 0.000321449 0.000107839)
(0.000383921 0.000394103 0.000107839)
(0.000309653 0.000454783 0.00010784)
(0.000225976 0.000501645 0.00010784)
(0.000135433 0.000533264 0.000107839)
(4.07758e-05 0.00054868 0.000107839)
(-5.51209e-05 0.000547425 0.000107839)
(-0.000149343 0.000529537 0.000107839)
(-0.000239027 0.000495559 0.000107839)
(-0.000321449 0.000446524 0.000107839)
(-0.000394103 0.000383921 0.000107839)
(-0.000454783 0.000309653 0.00010784)
(-0.000501645 0.000225976 0.00010784)
(-0.000533264 0.000135433 0.000107839)
(-0.00054868 4.07758e-05 0.000107839)
(-0.000547425 -5.51209e-05 0.000107839)
(-0.000529537 -0.000149343 0.000107839)
(-0.000495559 -0.000239027 0.000107839)
(-0.000446524 -0.000321449 0.000107839)
(-0.000383921 -0.000394103 0.000107839)
(-0.000309653 -0.000454783 0.00010784)
(-0.000225976 -0.000501645 0.00010784)
(-0.000135433 -0.000533264 0.000107839)
(-4.07758e-05 -0.00054868 0.000107839)
(5.51209e-05 -0.000547425 0.000107839)
(0.000149343 -0.000529537 0.000107839)
(0 0 0)
(0 0 0)
(0 0 0)
(0 0 0)
(0 0 0)
(0 0 0)
(0 0 0)
(0 0 0)
(0 0 0)
(0 0 0)
(0 0 0)
(0 0 0)
(0 0 0)
(0 0 0)
(0 0 0)
(0 0 0)
(0 0 0)
(0 0 0)
(0 0 0)
(0 0 0)
(0 0 0)
(0 0 0)
(0 0 0)
(0 0 0)
(0 0 0)
(0 0 0)
(0 0 0)
(0 0 0)
(0 0 0)
(0 0 0)
(0 0 0)
(0 0 0)
(0 0 0)
(0 0 0)
(0 0 0)
(0 0 0)
(0.000172449 -0.000531289 0.000127905)
(0.000262087 -0.000493271 0.000127905)
(0.000343761 -0.000440267 0.000127906)
(0.00041499 -0.000373884 0.000127906)
(0.00047361 -0.000296142 0.000127906)
(0.000517839 -0.000209402 0.000127906)
(0.000546334 -0.000116298 0.000127905)
(0.000558229 -1.96622e-05 0.000127905)
(0.000553163 7.75723e-05 0.000127905)
(0.000531289 0.000172449 0.000127905)
(0.000493271 0.000262087 0.000127905)
(0.000440267 0.000343761 0.000127906)
(0.000373884 0.00041499 0.000127906)
(0.000296142 0.00047361 0.000127906)
(0.000209402 0.000517839 0.000127906)
(0.000116298 0.000546334 0.000127905)
(1.96622e-05 0.000558229 0.000127905)
(-7.75723e-05 0.000553163 0.000127905)
(-0.000172449 0.000531289 0.000127905)
(-0.000262087 0.000493271 0.000127905)
(-0.000343761 0.000440267 0.000127906)
(-0.00041499 0.000373884 0.000127906)
(-0.00047361 0.000296142 0.000127906)
(-0.000517839 0.000209402 0.000127906)
(-0.000546334 0.000116298 0.000127905)
(-0.000558229 1.96622e-05 0.000127905)
(-0.000553163 -7.75723e-05 0.000127905)
(-0.000531289 -0.000172449 0.000127905)
(-0.000493271 -0.000262087 0.000127905)
(-0.000440267 -0.000343761 0.000127906)
(-0.000373884 -0.00041499 0.000127906)
(-0.000296142 -0.00047361 0.000127906)
(-0.000209402 -0.000517839 0.000127906)
(-0.000116298 -0.000546334 0.000127905)
(-1.96622e-05 -0.000558229 0.000127905)
(7.75723e-05 -0.000553163 0.000127905)
(0 0 0)
(0 0 0)
(0 0 0)
(0 0 0)
(0 0 0)
(0 0 0)
(0 0 0)
(0 0 0)
(0 0 0)
(0 0 0)
(0 0 0)
(0 0 0)
(0 0 0)
(0 0 0)
(0 0 0)
(0 0 0)
(0 0 0)
(0 0 0)
(0 0 0)
(0 0 0)
(0 0 0)
(0 0 0)
(0 0 0)
(0 0 0)
(0 0 0)
(0 0 0)
(0 0 0)
(0 0 0)
(0 0 0)
(0 0 0)
(0 0 0)
(0 0 0)
(0 0 0)
(0 0 0)
(0 0 0)
(0 0 0)
(9.28604e-05 -0.000564429 0.000143026)
(0.000189462 -0.000539729 0.000143026)
(0.000280306 -0.00049863 0.000143026)
(0.000362634 -0.000442379 0.000143026)
(0.000433944 -0.000372688 0.000143026)
(0.000492068 -0.000291672 0.000143026)
(0.000535241 -0.000201794 0.000143026)
(0.00056215 -0.000105786 0.000143026)
(0.000571979 -6.56177e-06 0.000143026)
(0.000564429 9.28604e-05 0.000143026)
(0.000539729 0.000189462 0.000143026)
(0.00049863 0.000280306 0.000143026)
(0.000442379 0.000362634 0.000143026)
(0.000372688 0.000433944 0.000143026)
(0.000291672 0.000492068 0.000143026)
(0.000201794 0.000535241 0.000143026)
(0.000105786 0.00056215 0.000143026)
(6.56177e-06 0.000571979 0.000143026)
(-9.28604e-05 0.000564429 0.000143026)
(-0.000189462 0.000539729 0.000143026)
(-0.000280306 0.00049863 0.000143026)
(-0.000362634 0.000442379 0.000143026)
(-0.000433944 0.000372688 0.000143026)
(-0.000492068 0.000291672 0.000143026)
(-0.000535241 0.000201794 0.000143026)
(-0.00056215 0.000105786 0.000143026)
(-0.000571979 6.56177e-06 0.000143026)
(-0.000564429 -9.28604e-05 0.000143026)
(-0.000539729 -0.000189462 0.000143026)
(-0.00049863 -0.000280306 0.000143026)
(-0.000442379 -0.000362634 0.000143026)
(-0.000372688 -0.000433944 0.000143026)
(-0.000291672 -0.000492068 0.000143026)
(-0.000201794 -0.000535241 0.000143026)
(-0.000105786 -0.00056215 0.000143026)
(-6.56177e-06 -0.000571979 0.000143026)
(0 0 0)
(0 0 0)
(0 0 0)
(0 0 0)
(0 0 0)
(0 0 0)
(0 0 0)
(0 0 0)
(0 0 0)
(0 0 0)
(0 0 0)
(0 0 0)
(0 0 0)
(0 0 0)
(0 0 0)
(0 0 0)
(0 0 0)
(0 0 0)
(0 0 0)
(0 0 0)
(0 0 0)
(0 0 0)
(0 0 0)
(0 0 0)
(0 0 0)
(0 0 0)
(0 0 0)
(0 0 0)
(0 0 0)
(0 0 0)
(0 0 0)
(0 0 0)
(0 0 0)
(0 0 0)
(0 0 0)
(0 0 0)
(0.000510531 -0.000943361 0.000226603)
(0.000666588 -0.000840376 0.000226604)
(0.000802391 -0.000711857 0.000226604)
(0.000913813 -0.000561709 0.000226605)
(0.00099747 -0.000394494 0.000226604)
(0.00105082 -0.000215292 0.000226603)
(0.00107224 -2.95479e-05 0.000226603)
(0.00106108 0.000157093 0.000226602)
(0.00101768 0.000338961 0.000226603)
(0.000943361 0.000510531 0.000226603)
(0.000840376 0.000666588 0.000226604)
(0.000711857 0.000802391 0.000226604)
(0.000561709 0.000913813 0.000226605)
(0.000394494 0.00099747 0.000226604)
(0.000215292 0.00105082 0.000226603)
(2.95479e-05 0.00107224 0.000226603)
(-0.000157093 0.00106108 0.000226602)
(-0.000338961 0.00101768 0.000226603)
(-0.000510531 0.000943361 0.000226603)
(-0.000666588 0.000840376 0.000226604)
(-0.000802391 0.000711857 0.000226604)
(-0.000913813 0.000561709 0.000226605)
(-0.00099747 0.000394494 0.000226604)
(-0.00105082 0.000215292 0.000226603)
(-0.00107224 2.95479e-05 0.000226603)
(-0.00106108 -0.000157093 0.000226602)
(-0.00101768 -0.000338961 0.000226603)
(-0.000943361 -0.000510531 0.000226603)
(-0.000840376 -0.000666588 0.000226604)
(-0.000711857 -0.000802391 0.000226604)
(-0.000561709 -0.000913813 0.000226605)
(-0.000394494 -0.00099747 0.000226604)
(-0.000215292 -0.00105082 0.000226603)
(-2.95479e-05 -0.00107224 0.000226603)
(0.000157093 -0.00106108 0.000226602)
(0.000338961 -0.00101768 0.000226603)
(0.000431327 -0.000994322 0.000271403)
(0.000597437 -0.000904317 0.000271404)
(0.000745394 -0.000786833 0.000271404)
(0.000870702 -0.000645443 0.000271404)
(0.000969554 -0.000484442 0.000271404)
(0.00103895 -0.00030872 0.000271403)
(0.00107677 -0.00012362 0.000271403)
(0.00108188 6.5238e-05 0.000271403)
(0.00105412 0.000252112 0.000271403)
(0.000994322 0.000431327 0.000271403)
(0.000904317 0.000597437 0.000271404)
(0.000786833 0.000745394 0.000271404)
(0.000645443 0.000870702 0.000271404)
(0.000484442 0.000969554 0.000271404)
(0.00030872 0.00103895 0.000271403)
(0.00012362 0.00107677 0.000271403)
(-6.5238e-05 0.00108188 0.000271403)
(-0.000252112 0.00105412 0.000271403)
(-0.000431327 0.000994322 0.000271403)
(-0.000597437 0.000904317 0.000271404)
(-0.000745394 0.000786833 0.000271404)
(-0.000870702 0.000645443 0.000271404)
(-0.000969554 0.000484442 0.000271404)
(-0.00103895 0.00030872 0.000271403)
(-0.00107677 0.00012362 0.000271403)
(-0.00108188 -6.5238e-05 0.000271403)
(-0.00105412 -0.000252112 0.000271403)
(-0.000994322 -0.000431327 0.000271403)
(-0.000904317 -0.000597437 0.000271404)
(-0.000786833 -0.000745394 0.000271404)
(-0.000645443 -0.000870702 0.000271404)
(-0.000484442 -0.000969554 0.000271404)
(-0.00030872 -0.00103895 0.000271403)
(-0.00012362 -0.00107677 0.000271403)
(6.5238e-05 -0.00108188 0.000271403)
(0.000252112 -0.00105412 0.000271403)
(0.000337949 -0.00104691 0.000311599)
(0.000514607 -0.000972318 0.000311599)
(0.000675631 -0.000868185 0.000311599)
(0.000816125 -0.000737674 0.0003116)
(0.000931823 -0.000584747 0.0003116)
(0.00101921 -0.000414054 0.000311599)
(0.00107562 -0.00023078 0.000311599)
(0.00109936 -4.04957e-05 0.000311599)
(0.00108969 0.000151021 0.000311599)
(0.00104691 0.000337949 0.000311599)
(0.000972318 0.000514607 0.000311599)
(0.000868185 0.000675631 0.000311599)
(0.000737674 0.000816125 0.0003116)
(0.000584747 0.000931823 0.0003116)
(0.000414054 0.00101921 0.000311599)
(0.00023078 0.00107562 0.000311599)
(4.04957e-05 0.00109936 0.000311599)
(-0.000151021 0.00108969 0.000311599)
(-0.000337949 0.00104691 0.000311599)
(-0.000514607 0.000972318 0.000311599)
(-0.000675631 0.000868185 0.000311599)
(-0.000816125 0.000737674 0.0003116)
(-0.000931823 0.000584747 0.0003116)
(-0.00101921 0.000414054 0.000311599)
(-0.00107562 0.00023078 0.000311599)
(-0.00109936 4.04957e-05 0.000311599)
(-0.00108969 -0.000151021 0.000311599)
(-0.00104691 -0.000337949 0.000311599)
(-0.000972318 -0.000514607 0.000311599)
(-0.000868185 -0.000675631 0.000311599)
(-0.000737674 -0.000816125 0.0003116)
(-0.000584747 -0.000931823 0.0003116)
(-0.000414054 -0.00101921 0.000311599)
(-0.00023078 -0.00107562 0.000311599)
(-4.04957e-05 -0.00109936 0.000311599)
(0.000151021 -0.00108969 0.000311599)
(0.000231837 -0.00109284 0.000344828)
(0.000418085 -0.00103598 0.000344828)
(0.000591629 -0.000947641 0.000344827)
(0.000747198 -0.000830509 0.000344828)
(0.000880063 -0.000688142 0.000344828)
(0.000986187 -0.000524866 0.000344828)
(0.00106235 -0.000345644 0.000344828)
(0.00110623 -0.000155919 0.000344828)
(0.0011165 3.85454e-05 0.000344827)
(0.00109284 0.000231837 0.000344828)
(0.00103598 0.000418085 0.000344828)
(0.000947641 0.000591629 0.000344827)
(0.000830509 0.000747198 0.000344828)
(0.000688142 0.000880063 0.000344828)
(0.000524866 0.000986187 0.000344828)
(0.000345644 0.00106235 0.000344828)
(0.000155919 0.00110623 0.000344828)
(-3.85454e-05 0.0011165 0.000344827)
(-0.000231837 0.00109284 0.000344828)
(-0.000418085 0.00103598 0.000344828)
(-0.000591629 0.000947641 0.000344827)
(-0.000747198 0.000830509 0.000344828)
(-0.000880063 0.000688142 0.000344828)
(-0.000986187 0.000524866 0.000344828)
(-0.00106235 0.000345644 0.000344828)
(-0.00110623 0.000155919 0.000344828)
(-0.0011165 -3.85454e-05 0.000344827)
(-0.00109284 -0.000231837 0.000344828)
(-0.00103598 -0.000418085 0.000344828)
(-0.000947641 -0.000591629 0.000344827)
(-0.000830509 -0.000747198 0.000344828)
(-0.000688142 -0.000880063 0.000344828)
(-0.000524866 -0.000986187 0.000344828)
(-0.000345644 -0.00106235 0.000344828)
(-0.000155919 -0.00110623 0.000344828)
(3.85454e-05 -0.0011165 0.000344827)
(0.000686674 -0.00143689 0.000446884)
(0.000925756 -0.00129583 0.000446885)
(0.00113671 -0.00111538 0.000446885)
(0.00131312 -0.000901051 0.000446885)
(0.00144964 -0.00065934 0.000446885)
(0.00154211 -0.000397596 0.000446884)
(0.00158772 -0.000123769 0.000446883)
(0.0015851 0.000153817 0.000446883)
(0.00153431 0.000426728 0.000446883)
(0.00143689 0.000686674 0.000446884)
(0.00129583 0.000925756 0.000446885)
(0.00111538 0.00113671 0.000446885)
(0.000901051 0.00131312 0.000446885)
(0.00065934 0.00144964 0.000446885)
(0.000397596 0.00154211 0.000446884)
(0.000123769 0.00158772 0.000446883)
(-0.000153817 0.0015851 0.000446883)
(-0.000426728 0.00153431 0.000446883)
(-0.000686674 0.00143689 0.000446884)
(-0.000925756 0.00129583 0.000446885)
(-0.00113671 0.00111538 0.000446885)
(-0.00131312 0.000901051 0.000446885)
(-0.00144964 0.00065934 0.000446885)
(-0.00154211 0.000397596 0.000446884)
(-0.00158772 0.000123769 0.000446883)
(-0.0015851 -0.000153817 0.000446883)
(-0.00153431 -0.000426728 0.000446883)
(-0.00143689 -0.000686674 0.000446884)
(-0.00129583 -0.000925756 0.000446885)
(-0.00111538 -0.00113671 0.000446885)
(-0.000901051 -0.00131312 0.000446885)
(-0.00065934 -0.00144964 0.000446885)
(-0.000397596 -0.00154211 0.000446884)
(-0.000123769 -0.00158772 0.000446883)
(0.000153817 -0.0015851 0.000446883)
(0.000426728 -0.00153431 0.000446883)
(0.00058229 -0.00148536 0.000500708)
(0.000831374 -0.00136168 0.000500709)
(0.0010552 -0.00119663 0.000500708)
(0.00124696 -0.000995217 0.000500709)
(0.00140083 -0.000763566 0.000500708)
(0.00151214 -0.000508713 0.000500708)
(0.00157751 -0.000238404 0.000500708)
(0.00159494 3.91489e-05 0.000500708)
(0.00156391 0.000315512 0.000500708)
(0.00148536 0.00058229 0.000500708)
(0.00136168 0.000831374 0.000500709)
(0.00119663 0.0010552 0.000500708)
(0.000995217 0.00124696 0.000500709)
(0.000763566 0.00140083 0.000500708)
(0.000508713 0.00151214 0.000500708)
(0.000238404 0.00157751 0.000500708)
(-3.91489e-05 0.00159494 0.000500708)
(-0.000315512 0.00156391 0.000500708)
(-0.00058229 0.00148536 0.000500708)
(-0.000831374 0.00136168 0.000500709)
(-0.0010552 0.00119663 0.000500708)
(-0.00124696 0.000995217 0.000500709)
(-0.00140083 0.000763566 0.000500708)
(-0.00151214 0.000508713 0.000500708)
(-0.00157751 0.000238404 0.000500708)
(-0.00159494 -3.91489e-05 0.000500708)
(-0.00156391 -0.000315512 0.000500708)
(-0.00148536 -0.00058229 0.000500708)
(-0.00136168 -0.000831374 0.000500709)
(-0.00119663 -0.0010552 0.000500708)
(-0.000995217 -0.00124696 0.000500709)
(-0.000763566 -0.00140083 0.000500708)
(-0.000508713 -0.00151214 0.000500708)
(-0.000238404 -0.00157751 0.000500708)
(3.91489e-05 -0.00159494 0.000500708)
(0.000315512 -0.00156391 0.000500708)
(0.000465124 -0.00153471 0.000549449)
(0.000724558 -0.00143062 0.000549449)
(0.000961975 -0.00128307 0.000549449)
(0.00117016 -0.00109653 0.000549449)
(0.0013428 -0.000876677 0.000549449)
(0.00147463 -0.000630185 0.000549449)
(0.00156166 -0.000364544 0.000549448)
(0.00160124 -8.78265e-05 0.000549448)
(0.00159216 0.00019156 0.000549448)
(0.00153471 0.000465124 0.000549449)
(0.00143062 0.000724558 0.000549449)
(0.00128307 0.000961975 0.000549449)
(0.00109653 0.00117016 0.000549449)
(0.000876677 0.0013428 0.000549449)
(0.000630185 0.00147463 0.000549449)
(0.000364544 0.00156166 0.000549448)
(8.78265e-05 0.00160124 0.000549448)
(-0.00019156 0.00159216 0.000549448)
(-0.000465124 0.00153471 0.000549449)
(-0.000724558 0.00143062 0.000549449)
(-0.000961975 0.00128307 0.000549449)
(-0.00117016 0.00109653 0.000549449)
(-0.0013428 0.000876677 0.000549449)
(-0.00147463 0.000630185 0.000549449)
(-0.00156166 0.000364544 0.000549448)
(-0.00160124 8.78265e-05 0.000549448)
(-0.00159216 -0.00019156 0.000549448)
(-0.00153471 -0.000465124 0.000549449)
(-0.00143062 -0.000724558 0.000549449)
(-0.00128307 -0.000961975 0.000549449)
(-0.00109653 -0.00117016 0.000549449)
(-0.000876677 -0.0013428 0.000549449)
(-0.000630185 -0.00147463 0.000549449)
(-0.000364544 -0.00156166 0.000549448)
(-8.78265e-05 -0.00160124 0.000549448)
(0.00019156 -0.00159216 0.000549448)
(0.0003375 -0.00157476 0.000590796)
(0.000605827 -0.00149223 0.000590796)
(0.000855747 -0.00136436 0.000590796)
(0.00107967 -0.00119504 0.000590796)
(0.00127078 -0.000989399 0.000590796)
(0.00142328 -0.0007537 0.000590796)
(0.00153254 -0.000495099 0.000590796)
(0.00159523 -0.000221456 0.000590796)
(0.00160945 5.89164e-05 0.000590796)
(0.00157476 0.0003375 0.000590796)
(0.00149223 0.000605827 0.000590796)
(0.00136436 0.000855747 0.000590796)
(0.00119504 0.00107967 0.000590796)
(0.000989399 0.00127078 0.000590796)
(0.0007537 0.00142328 0.000590796)
(0.000495099 0.00153254 0.000590796)
(0.000221456 0.00159523 0.000590796)
(-5.89164e-05 0.00160945 0.000590796)
(-0.0003375 0.00157476 0.000590796)
(-0.000605827 0.00149223 0.000590796)
(-0.000855747 0.00136436 0.000590796)
(-0.00107967 0.00119504 0.000590796)
(-0.00127078 0.000989399 0.000590796)
(-0.00142328 0.0007537 0.000590796)
(-0.00153254 0.000495099 0.000590796)
(-0.00159523 0.000221456 0.000590796)
(-0.00160945 -5.89164e-05 0.000590796)
(-0.00157476 -0.0003375 0.000590796)
(-0.00149223 -0.000605827 0.000590796)
(-0.00136436 -0.000855747 0.000590796)
(-0.00119504 -0.00107967 0.000590796)
(-0.000989399 -0.00127078 0.000590796)
(-0.0007537 -0.00142328 0.000590796)
(-0.000495099 -0.00153254 0.000590796)
(-0.000221456 -0.00159523 0.000590796)
(5.89164e-05 -0.00160945 0.000590796)
(0.000804596 -0.00193029 0.000709805)
(0.00112756 -0.00176125 0.000709805)
(0.00141627 -0.00153869 0.000709805)
(0.00166195 -0.00126938 0.000709805)
(0.00185712 -0.000961504 0.000709804)
(0.00199587 -0.000624412 0.000709804)
(0.00207398 -0.000268347 0.000709804)
(0.00208907 9.58756e-05 0.000709804)
(0.00204068 0.00045718 0.000709805)
(0.00193029 0.000804596 0.000709805)
(0.00176125 0.00112756 0.000709805)
(0.00153869 0.00141627 0.000709805)
(0.00126938 0.00166195 0.000709805)
(0.000961504 0.00185712 0.000709804)
(0.000624412 0.00199587 0.000709804)
(0.000268347 0.00207398 0.000709804)
(-9.58756e-05 0.00208907 0.000709804)
(-0.00045718 0.00204068 0.000709805)
(-0.000804596 0.00193029 0.000709805)
(-0.00112756 0.00176125 0.000709805)
(-0.00141627 0.00153869 0.000709805)
(-0.00166195 0.00126938 0.000709805)
(-0.00185712 0.000961504 0.000709804)
(-0.00199587 0.000624412 0.000709804)
(-0.00207398 0.000268347 0.000709804)
(-0.00208907 -9.58756e-05 0.000709804)
(-0.00204068 -0.00045718 0.000709805)
(-0.00193029 -0.000804596 0.000709805)
(-0.00176125 -0.00112756 0.000709805)
(-0.00153869 -0.00141627 0.000709805)
(-0.00126938 -0.00166195 0.000709805)
(-0.000961504 -0.00185712 0.000709804)
(-0.000624412 -0.00199587 0.000709804)
(-0.000268347 -0.00207398 0.000709804)
(9.58756e-05 -0.00208907 0.000709804)
(0.00045718 -0.00204068 0.000709805)
(0.000681995 -0.00195585 0.000763552)
(0.00101126 -0.00180771 0.000763552)
(0.0013098 -0.00160464 0.000763553)
(0.00156855 -0.00135282 0.000763552)
(0.00177963 -0.00105989 0.000763552)
(0.00193664 -0.000734756 0.000763552)
(0.00203481 -0.000387299 0.000763552)
(0.00207115 -2.80736e-05 0.000763552)
(0.00204456 0.000332005 0.000763552)
(0.00195585 0.000681995 0.000763552)
(0.00180771 0.00101126 0.000763552)
(0.00160464 0.0013098 0.000763553)
(0.00135282 0.00156855 0.000763552)
(0.00105989 0.00177963 0.000763552)
(0.000734756 0.00193664 0.000763552)
(0.000387299 0.00203481 0.000763552)
(2.80736e-05 0.00207115 0.000763552)
(-0.000332005 0.00204456 0.000763552)
(-0.000681995 0.00195585 0.000763552)
(-0.00101126 0.00180771 0.000763552)
(-0.0013098 0.00160464 0.000763553)
(-0.00156855 0.00135282 0.000763552)
(-0.00177963 0.00105989 0.000763552)
(-0.00193664 0.000734756 0.000763552)
(-0.00203481 0.000387299 0.000763552)
(-0.00207115 2.80736e-05 0.000763552)
(-0.00204456 -0.000332005 0.000763552)
(-0.00195585 -0.000681995 0.000763552)
(-0.00180771 -0.00101126 0.000763552)
(-0.00160464 -0.0013098 0.000763553)
(-0.00135282 -0.00156855 0.000763552)
(-0.00105989 -0.00177963 0.000763552)
(-0.000734756 -0.00193664 0.000763552)
(-0.000387299 -0.00203481 0.000763552)
(-2.80736e-05 -0.00207115 0.000763552)
(0.000332005 -0.00204456 0.000763552)
(0.000548799 -0.0019821 0.000811743)
(0.000884649 -0.00185669 0.000811743)
(0.00119362 -0.00167486 0.000811743)
(0.00146632 -0.00144215 0.000811743)
(0.00169447 -0.00116562 0.000811743)
(0.00187114 -0.000853666 0.000811743)
(0.00199095 -0.000515776 0.000811743)
(0.00205026 -0.000162217 0.000811743)
(0.00204728 0.000196272 0.000811743)
(0.0019821 0.000548799 0.000811743)
(0.00185669 0.000884649 0.000811743)
(0.00167486 0.00119362 0.000811743)
(0.00144215 0.00146632 0.000811743)
(0.00116562 0.00169447 0.000811743)
(0.000853666 0.00187114 0.000811743)
(0.000515776 0.00199095 0.000811743)
(0.000162217 0.00205026 0.000811743)
(-0.000196272 0.00204728 0.000811743)
(-0.000548799 0.0019821 0.000811743)
(-0.000884649 0.00185669 0.000811743)
(-0.00119362 0.00167486 0.000811743)
(-0.00146632 0.00144215 0.000811743)
(-0.00169447 0.00116562 0.000811743)
(-0.00187114 0.000853666 0.000811743)
(-0.00199095 0.000515776 0.000811743)
(-0.00205026 0.000162217 0.000811743)
(-0.00204728 -0.000196272 0.000811743)
(-0.0019821 -0.000548799 0.000811743)
(-0.00185669 -0.000884649 0.000811743)
(-0.00167486 -0.00119362 0.000811743)
(-0.00144215 -0.00146632 0.000811743)
(-0.00116562 -0.00169447 0.000811743)
(-0.000853666 -0.00187114 0.000811743)
(-0.000515776 -0.00199095 0.000811743)
(-0.000162217 -0.00205026 0.000811743)
(0.000196272 -0.00204728 0.000811743)
(0.000406953 -0.00199838 0.000852357)
(0.000747784 -0.00189735 0.000852357)
(0.0010659 -0.00173868 0.000852357)
(0.00135162 -0.00152717 0.000852357)
(0.00159628 -0.00126927 0.000852357)
(0.00179243 -0.00097279 0.000852357)
(0.00193412 -0.00064676 0.000852357)
(0.00201705 -0.000301076 0.000852357)
(0.00203869 5.37542e-05 0.000852357)
(0.00199838 0.000406953 0.000852357)
(0.00189735 0.000747784 0.000852357)
(0.00173868 0.0010659 0.000852357)
(0.00152717 0.00135162 0.000852357)
(0.00126927 0.00159628 0.000852357)
(0.00097279 0.00179243 0.000852357)
(0.00064676 0.00193412 0.000852357)
(0.000301076 0.00201705 0.000852357)
(-5.37542e-05 0.00203869 0.000852357)
(-0.000406953 0.00199838 0.000852357)
(-0.000747784 0.00189735 0.000852357)
(-0.0010659 0.00173868 0.000852357)
(-0.00135162 0.00152717 0.000852357)
(-0.00159628 0.00126927 0.000852357)
(-0.00179243 0.00097279 0.000852357)
(-0.00193412 0.00064676 0.000852357)
(-0.00201705 0.000301076 0.000852357)
(-0.00203869 -5.37542e-05 0.000852357)
(-0.00199838 -0.000406953 0.000852357)
(-0.00189735 -0.000747784 0.000852357)
(-0.00173868 -0.0010659 0.000852357)
(-0.00152717 -0.00135162 0.000852357)
(-0.00126927 -0.00159628 0.000852357)
(-0.00097279 -0.00179243 0.000852357)
(-0.00064676 -0.00193412 0.000852357)
(-0.000301076 -0.00201705 0.000852357)
(5.37542e-05 -0.00203869 0.000852357)
(0.000867303 -0.00240194 0.00100351)
(0.00127122 -0.00221484 0.00100351)
(0.00163651 -0.00196045 0.00100351)
(0.00195208 -0.00164649 0.00100351)
(0.00220833 -0.0012825 0.00100351)
(0.00239749 -0.000879543 0.00100351)
(0.00251379 -0.000449863 0.00100351)
(0.00255372 -6.51286e-06 0.00100351)
(0.00251605 0.000437034 0.00100351)
(0.00240194 0.000867303 0.00100351)
(0.00221484 0.00127122 0.00100351)
(0.00196045 0.00163651 0.00100351)
(0.00164649 0.00195208 0.00100351)
(0.0012825 0.00220833 0.00100351)
(0.000879543 0.00239749 0.00100351)
(0.000449863 0.00251379 0.00100351)
(6.51286e-06 0.00255372 0.00100351)
(-0.000437034 0.00251605 0.00100351)
(-0.000867303 0.00240194 0.00100351)
(-0.00127122 0.00221484 0.00100351)
(-0.00163651 0.00196045 0.00100351)
(-0.00195208 0.00164649 0.00100351)
(-0.00220833 0.0012825 0.00100351)
(-0.00239749 0.000879543 0.00100351)
(-0.00251379 0.000449863 0.00100351)
(-0.00255372 6.51286e-06 0.00100351)
(-0.00251605 -0.000437034 0.00100351)
(-0.00240194 -0.000867303 0.00100351)
(-0.00221484 -0.00127122 0.00100351)
(-0.00196045 -0.00163651 0.00100351)
(-0.00164649 -0.00195208 0.00100351)
(-0.0012825 -0.00220833 0.00100351)
(-0.000879543 -0.00239749 0.00100351)
(-0.000449863 -0.00251379 0.00100351)
(-6.51286e-06 -0.00255372 0.00100351)
(0.000437034 -0.00251605 0.00100351)
(0.000731587 -0.00238873 0.00105004)
(0.00113527 -0.0022254 0.00105004)
(0.00150446 -0.00199445 0.00105004)
(0.00182794 -0.00170291 0.00105004)
(0.00209587 -0.00135962 0.00105004)
(0.00230013 -0.000975019 0.00105004)
(0.00243449 -0.000560793 0.00105004)
(0.00249489 -0.000129529 0.00105004)
(0.00247948 0.000305672 0.00105004)
(0.00238873 0.000731587 0.00105004)
(0.0022254 0.00113527 0.00105004)
(0.00199445 0.00150446 0.00105004)
(0.00170291 0.00182794 0.00105004)
(0.00135962 0.00209587 0.00105004)
(0.000975019 0.00230013 0.00105004)
(0.000560793 0.00243449 0.00105004)
(0.000129529 0.00249489 0.00105004)
(-0.000305672 0.00247948 0.00105004)
(-0.000731587 0.00238873 0.00105004)
(-0.00113527 0.0022254 0.00105004)
(-0.00150446 0.00199445 0.00105004)
(-0.00182794 0.00170291 0.00105004)
(-0.00209587 0.00135962 0.00105004)
(-0.00230013 0.000975019 0.00105004)
(-0.00243449 0.000560793 0.00105004)
(-0.00249489 0.000129529 0.00105004)
(-0.00247948 -0.000305672 0.00105004)
(-0.00238873 -0.000731587 0.00105004)
(-0.0022254 -0.00113527 0.00105004)
(-0.00199445 -0.00150446 0.00105004)
(-0.00170291 -0.00182794 0.00105004)
(-0.00135962 -0.00209587 0.00105004)
(-0.000975019 -0.00230013 0.00105004)
(-0.000560793 -0.00243449 0.00105004)
(-0.000129529 -0.00249489 0.00105004)
(0.000305672 -0.00247948 0.00105004)
(0.000587508 -0.00237672 0.00109065)
(0.000991292 -0.00223859 0.00109065)
(0.00136496 -0.00203244 0.00109065)
(0.00169715 -0.00176454 0.00109065)
(0.00197778 -0.00144303 0.00109065)
(0.00219831 -0.00107767 0.00109065)
(0.00235205 -0.000679562 0.00109065)
(0.00243432 -0.00026081 0.00109065)
(0.00244263 0.000165868 0.00109065)
(0.00237672 0.000587508 0.00109065)
(0.00223859 0.000991292 0.00109065)
(0.00203244 0.00136496 0.00109065)
(0.00176454 0.00169715 0.00109065)
(0.00144303 0.00197778 0.00109065)
(0.00107767 0.00219831 0.00109065)
(0.000679562 0.00235205 0.00109065)
(0.00026081 0.00243432 0.00109065)
(-0.000165868 0.00244263 0.00109065)
(-0.000587508 0.00237672 0.00109065)
(-0.000991292 0.00223859 0.00109065)
(-0.00136496 0.00203244 0.00109065)
(-0.00169715 0.00176454 0.00109065)
(-0.00197778 0.00144303 0.00109065)
(-0.00219831 0.00107767 0.00109065)
(-0.00235205 0.000679562 0.00109065)
(-0.00243432 0.00026081 0.00109065)
(-0.00244263 -0.000165868 0.00109065)
(-0.00237672 -0.000587508 0.00109065)
(-0.00223859 -0.000991292 0.00109065)
(-0.00203244 -0.00136496 0.00109065)
(-0.00176454 -0.00169715 0.00109065)
(-0.00144303 -0.00197778 0.00109065)
(-0.00107767 -0.00219831 0.00109065)
(-0.000679562 -0.00235205 0.00109065)
(-0.00026081 -0.00243432 0.00109065)
(0.000165868 -0.00244263 0.00109065)
(0.000436711 -0.00235515 0.00112355)
(0.000839046 -0.00224354 0.00112355)
(0.00121589 -0.00206376 0.00112355)
(0.00155578 -0.00182127 0.00112355)
(0.0018484 -0.00152344 0.00112355)
(0.00208486 -0.00117933 0.00112355)
(0.00225798 -0.000799376 0.00112355)
(0.00236249 -0.000395136 0.00112355)
(0.00239521 2.11072e-05 0.00112355)
(0.00235515 0.000436711 0.00112355)
(0.00224354 0.000839046 0.00112355)
(0.00206376 0.00121589 0.00112355)
(0.00182127 0.00155578 0.00112355)
(0.00152344 0.0018484 0.00112355)
(0.00117933 0.00208486 0.00112355)
(0.000799376 0.00225798 0.00112355)
(0.000395136 0.00236249 0.00112355)
(-2.11072e-05 0.00239521 0.00112355)
(-0.000436711 0.00235515 0.00112355)
(-0.000839046 0.00224354 0.00112355)
(-0.00121589 0.00206376 0.00112355)
(-0.00155578 0.00182127 0.00112355)
(-0.0018484 0.00152344 0.00112355)
(-0.00208486 0.00117933 0.00112355)
(-0.00225798 0.000799376 0.00112355)
(-0.00236249 0.000395136 0.00112355)
(-0.00239521 -2.11072e-05 0.00112355)
(-0.00235515 -0.000436711 0.00112355)
(-0.00224354 -0.000839046 0.00112355)
(-0.00206376 -0.00121589 0.00112355)
(-0.00182127 -0.00155578 0.00112355)
(-0.00152344 -0.0018484 0.00112355)
(-0.00117933 -0.00208486 0.00112355)
(-0.000799376 -0.00225798 0.00112355)
(-0.000395136 -0.00236249 0.00112355)
(2.11072e-05 -0.00239521 0.00112355)
(0.000882643 -0.00282889 0.00132243)
(0.00136047 -0.00263264 0.00132243)
(0.00179695 -0.0023564 0.00132243)
(0.00217883 -0.00200857 0.00132243)
(0.00249452 -0.0015997 0.00132243)
(0.00273441 -0.00114223 0.00132243)
(0.00289121 -0.000650053 0.00132243)
(0.00296017 -0.000138123 0.00132243)
(0.00293918 0.000378002 0.00132243)
(0.00282889 0.000882643 0.00132243)
(0.00263264 0.00136047 0.00132243)
(0.0023564 0.00179695 0.00132243)
(0.00200857 0.00217883 0.00132243)
(0.0015997 0.00249452 0.00132243)
(0.00114223 0.00273441 0.00132243)
(0.000650053 0.00289121 0.00132243)
(0.000138123 0.00296017 0.00132243)
(-0.000378002 0.00293918 0.00132243)
(-0.000882643 0.00282889 0.00132243)
(-0.00136047 0.00263264 0.00132243)
(-0.00179695 0.0023564 0.00132243)
(-0.00217883 0.00200857 0.00132243)