/*--------------------------------*- C++ -*----------------------------------*\
| =========                 |                                                 |
| \\      /  F ield         | OpenFOAM: The Open Source CFD Toolbox           |
|  \\    /   O peration     | Version:  2312                                  |
|   \\  /    A nd           | Website:  www.openfoam.com                      |
|    \\/     M anipulation  |                                                 |
\*---------------------------------------------------------------------------*/
FoamFile
{
    version     2.0;
    format      ascii;
    arch        "LSB;label=32;scalar=64";
    class       volVectorField;
    location    "0.8";
    object      D;
}
// * * * * * * * * * * * * * * * * * * * * * * * * * * * * * * * * * * * * * //

dimensions      [0 1 0 0 0 0 0];

internalField   nonuniform List<vector> 
12960
(
(0.000118933 -0.000149563 -2.40242e-06)
(0.000131515 -0.000138628 -2.40244e-06)
(0.000143097 -0.000126638 -2.40239e-06)
(0.00015359 -0.000113684 -2.40248e-06)
(0.000162914 -9.98656e-05 -2.4025e-06)
(0.000170997 -8.52866e-05 -2.4024e-06)
(0.00017778 -7.00587e-05 -2.40249e-06)
(0.00018321 -5.42976e-05 -2.40266e-06)
(0.000187245 -3.81231e-05 -2.40277e-06)
(0.000189855 -2.16587e-05 -2.40261e-06)
(0.00019102 -5.0293e-06 -2.40242e-06)
(0.000190731 1.16385e-05 -2.40226e-06)
(0.000188991 2.82175e-05 -2.40225e-06)
(0.000185813 4.45818e-05 -2.4023e-06)
(0.00018122 6.06068e-05 -2.40244e-06)
(0.000175248 7.61707e-05 -2.4024e-06)
(0.000167943 9.11546e-05 -2.40243e-06)
(0.000159359 0.000105445 -2.40261e-06)
(0.000149563 0.000118933 -2.40242e-06)
(0.000138628 0.000131515 -2.40244e-06)
(0.000126638 0.000143097 -2.40239e-06)
(0.000113684 0.00015359 -2.40248e-06)
(9.98656e-05 0.000162914 -2.4025e-06)
(8.52866e-05 0.000170997 -2.4024e-06)
(7.00587e-05 0.00017778 -2.40249e-06)
(5.42976e-05 0.00018321 -2.40266e-06)
(3.81231e-05 0.000187245 -2.40277e-06)
(2.16587e-05 0.000189855 -2.40261e-06)
(5.0293e-06 0.00019102 -2.40242e-06)
(-1.16385e-05 0.000190731 -2.40226e-06)
(-2.82175e-05 0.000188991 -2.40225e-06)
(-4.45818e-05 0.000185813 -2.4023e-06)
(-6.06068e-05 0.00018122 -2.40244e-06)
(-7.61707e-05 0.000175248 -2.4024e-06)
(-9.11546e-05 0.000167943 -2.40243e-06)
(-0.000105445 0.000159359 -2.40261e-06)
(-0.000118933 0.000149563 -2.40242e-06)
(-0.000131515 0.000138628 -2.40244e-06)
(-0.000143097 0.000126638 -2.40239e-06)
(-0.00015359 0.000113684 -2.40248e-06)
(-0.000162914 9.98656e-05 -2.4025e-06)
(-0.000170997 8.52866e-05 -2.4024e-06)
(-0.00017778 7.00587e-05 -2.40249e-06)
(-0.00018321 5.42976e-05 -2.40266e-06)
(-0.000187245 3.81231e-05 -2.40277e-06)
(-0.000189855 2.16587e-05 -2.40261e-06)
(-0.00019102 5.0293e-06 -2.40242e-06)
(-0.000190731 -1.16385e-05 -2.40226e-06)
(-0.000188991 -2.82175e-05 -2.40225e-06)
(-0.000185813 -4.45818e-05 -2.4023e-06)
(-0.00018122 -6.06068e-05 -2.40244e-06)
(-0.000175248 -7.61707e-05 -2.4024e-06)
(-0.000167943 -9.11546e-05 -2.40243e-06)
(-0.000159359 -0.000105445 -2.40261e-06)
(-0.000149563 -0.000118933 -2.40242e-06)
(-0.000138628 -0.000131515 -2.40244e-06)
(-0.000126638 -0.000143097 -2.40239e-06)
(-0.000113684 -0.00015359 -2.40248e-06)
(-9.98656e-05 -0.000162914 -2.4025e-06)
(-8.52866e-05 -0.000170997 -2.4024e-06)
(-7.00587e-05 -0.00017778 -2.40249e-06)
(-5.42976e-05 -0.00018321 -2.40266e-06)
(-3.81231e-05 -0.000187245 -2.40277e-06)
(-2.16587e-05 -0.000189855 -2.40261e-06)
(-5.0293e-06 -0.00019102 -2.40242e-06)
(1.16385e-05 -0.000190731 -2.40226e-06)
(2.82175e-05 -0.000188991 -2.40225e-06)
(4.45818e-05 -0.000185813 -2.4023e-06)
(6.06068e-05 -0.00018122 -2.40244e-06)
(7.61707e-05 -0.000175248 -2.4024e-06)
(9.11546e-05 -0.000167943 -2.40243e-06)
(0.000105445 -0.000159359 -2.40261e-06)
(0.000105497 -0.000173243 1.90319e-05)
(0.000120194 -0.000163388 1.90319e-05)
(0.000133977 -0.000152291 1.9032e-05)
(0.000146741 -0.000140035 1.90321e-05)
(0.000158387 -0.000126713 1.9032e-05)
(0.000168829 -0.000112427 1.9032e-05)
(0.000177985 -9.72844e-05 1.90319e-05)
(0.000185786 -8.14017e-05 1.90319e-05)
(0.000192174 -6.48995e-05 1.90319e-05)
(0.000197099 -4.79037e-05 1.90319e-05)
(0.000200524 -3.05431e-05 1.90321e-05)
(0.000202423 -1.29498e-05 1.9032e-05)
(0.000202781 4.74169e-06 1.9032e-05)
(0.000201596 2.23972e-05 1.90321e-05)
(0.000198877 3.98822e-05 1.9032e-05)
(0.000194644 5.70637e-05 1.9032e-05)
(0.000188929 7.38107e-05 1.9032e-05)
(0.000181778 8.99963e-05 1.90319e-05)
(0.000173243 0.000105497 1.90319e-05)
(0.000163388 0.000120194 1.90319e-05)
(0.000152291 0.000133977 1.9032e-05)
(0.000140035 0.000146741 1.90321e-05)
(0.000126713 0.000158387 1.9032e-05)
(0.000112427 0.000168829 1.9032e-05)
(9.72844e-05 0.000177985 1.90319e-05)
(8.14017e-05 0.000185786 1.90319e-05)
(6.48995e-05 0.000192174 1.90319e-05)
(4.79037e-05 0.000197099 1.90319e-05)
(3.05431e-05 0.000200524 1.90321e-05)
(1.29498e-05 0.000202423 1.9032e-05)
(-4.74169e-06 0.000202781 1.9032e-05)
(-2.23972e-05 0.000201596 1.90321e-05)
(-3.98822e-05 0.000198877 1.9032e-05)
(-5.70637e-05 0.000194644 1.9032e-05)
(-7.38107e-05 0.000188929 1.9032e-05)
(-8.99963e-05 0.000181778 1.90319e-05)
(-0.000105497 0.000173243 1.90319e-05)
(-0.000120194 0.000163388 1.90319e-05)
(-0.000133977 0.000152291 1.9032e-05)
(-0.000146741 0.000140035 1.90321e-05)
(-0.000158387 0.000126713 1.9032e-05)
(-0.000168829 0.000112427 1.9032e-05)
(-0.000177985 9.72844e-05 1.90319e-05)
(-0.000185786 8.14017e-05 1.90319e-05)
(-0.000192174 6.48995e-05 1.90319e-05)
(-0.000197099 4.79037e-05 1.90319e-05)
(-0.000200524 3.05431e-05 1.90321e-05)
(-0.000202423 1.29498e-05 1.9032e-05)
(-0.000202781 -4.74169e-06 1.9032e-05)
(-0.000201596 -2.23972e-05 1.90321e-05)
(-0.000198877 -3.98822e-05 1.9032e-05)
(-0.000194644 -5.70637e-05 1.9032e-05)
(-0.000188929 -7.38107e-05 1.9032e-05)
(-0.000181778 -8.99963e-05 1.90319e-05)
(-0.000173243 -0.000105497 1.90319e-05)
(-0.000163388 -0.000120194 1.90319e-05)
(-0.000152291 -0.000133977 1.9032e-05)
(-0.000140035 -0.000146741 1.90321e-05)
(-0.000126713 -0.000158387 1.9032e-05)
(-0.000112427 -0.000168829 1.9032e-05)
(-9.72844e-05 -0.000177985 1.90319e-05)
(-8.14017e-05 -0.000185786 1.90319e-05)
(-6.48995e-05 -0.000192174 1.90319e-05)
(-4.79037e-05 -0.000197099 1.90319e-05)
(-3.05431e-05 -0.000200524 1.90321e-05)
(-1.29498e-05 -0.000202423 1.9032e-05)
(4.74169e-06 -0.000202781 1.9032e-05)
(2.23972e-05 -0.000201596 1.90321e-05)
(3.98822e-05 -0.000198877 1.9032e-05)
(5.70637e-05 -0.000194644 1.9032e-05)
(7.38107e-05 -0.000188929 1.9032e-05)
(8.99963e-05 -0.000181778 1.90319e-05)
(8.1175e-05 -0.00019529 2.88005e-05)
(9.78869e-05 -0.000187472 2.88005e-05)
(0.000113854 -0.000178228 2.88006e-05)
(0.000128954 -0.000167626 2.88006e-05)
(0.000143073 -0.00015575 2.88007e-05)
(0.000156103 -0.000142687 2.88005e-05)
(0.000167944 -0.000128539 2.88005e-05)
(0.000178508 -0.000113412 2.88005e-05)
(0.000187713 -9.74227e-05 2.88005e-05)
(0.00019549 -8.06917e-05 2.88005e-05)
(0.000201779 -6.33466e-05 2.88006e-05)
(0.000206532 -4.55192e-05 2.88005e-05)
(0.000209714 -2.73456e-05 2.88006e-05)
(0.000211299 -8.96368e-06 2.88006e-05)
(0.000211276 9.48626e-06 2.88006e-05)
(0.000209645 2.78642e-05 2.88006e-05)
(0.000206419 4.603e-05 2.88006e-05)
(0.000201622 6.38455e-05 2.88005e-05)
(0.00019529 8.1175e-05 2.88005e-05)
(0.000187472 9.78869e-05 2.88005e-05)
(0.000178228 0.000113854 2.88006e-05)
(0.000167626 0.000128954 2.88006e-05)
(0.00015575 0.000143073 2.88007e-05)
(0.000142687 0.000156103 2.88005e-05)
(0.000128539 0.000167944 2.88005e-05)
(0.000113412 0.000178508 2.88005e-05)
(9.74227e-05 0.000187713 2.88005e-05)
(8.06917e-05 0.00019549 2.88005e-05)
(6.33466e-05 0.000201779 2.88006e-05)
(4.55192e-05 0.000206532 2.88005e-05)
(2.73456e-05 0.000209714 2.88006e-05)
(8.96368e-06 0.000211299 2.88006e-05)
(-9.48626e-06 0.000211276 2.88006e-05)
(-2.78642e-05 0.000209645 2.88006e-05)
(-4.603e-05 0.000206419 2.88006e-05)
(-6.38455e-05 0.000201622 2.88005e-05)
(-8.1175e-05 0.00019529 2.88005e-05)
(-9.78869e-05 0.000187472 2.88005e-05)
(-0.000113854 0.000178228 2.88006e-05)
(-0.000128954 0.000167626 2.88006e-05)
(-0.000143073 0.00015575 2.88007e-05)
(-0.000156103 0.000142687 2.88005e-05)
(-0.000167944 0.000128539 2.88005e-05)
(-0.000178508 0.000113412 2.88005e-05)
(-0.000187713 9.74227e-05 2.88005e-05)
(-0.00019549 8.06917e-05 2.88005e-05)
(-0.000201779 6.33466e-05 2.88006e-05)
(-0.000206532 4.55192e-05 2.88005e-05)
(-0.000209714 2.73456e-05 2.88006e-05)
(-0.000211299 8.96368e-06 2.88006e-05)
(-0.000211276 -9.48626e-06 2.88006e-05)
(-0.000209645 -2.78642e-05 2.88006e-05)
(-0.000206419 -4.603e-05 2.88006e-05)
(-0.000201622 -6.38455e-05 2.88005e-05)
(-0.00019529 -8.1175e-05 2.88005e-05)
(-0.000187472 -9.78869e-05 2.88005e-05)
(-0.000178228 -0.000113854 2.88006e-05)
(-0.000167626 -0.000128954 2.88006e-05)
(-0.00015575 -0.000143073 2.88007e-05)
(-0.000142687 -0.000156103 2.88005e-05)
(-0.000128539 -0.000167944 2.88005e-05)
(-0.000113412 -0.000178508 2.88005e-05)
(-9.74227e-05 -0.000187713 2.88005e-05)
(-8.06917e-05 -0.00019549 2.88005e-05)
(-6.33466e-05 -0.000201779 2.88006e-05)
(-4.55192e-05 -0.000206532 2.88005e-05)
(-2.73456e-05 -0.000209714 2.88006e-05)
(-8.96368e-06 -0.000211299 2.88006e-05)
(9.48626e-06 -0.000211276 2.88006e-05)
(2.78642e-05 -0.000209645 2.88006e-05)
(4.603e-05 -0.000206419 2.88006e-05)
(6.38455e-05 -0.000201622 2.88005e-05)
(4.93603e-05 -0.000212854 3.17424e-05)
(6.7724e-05 -0.000207742 3.17424e-05)
(8.55724e-05 -0.00020105 3.17426e-05)
(0.000102769 -0.000192826 3.17424e-05)
(0.000119184 -0.000183135 3.17424e-05)
(0.000134692 -0.000172051 3.17424e-05)
(0.000149174 -0.000159657 3.17425e-05)
(0.000162522 -0.000146048 3.17425e-05)
(0.000174632 -0.000131328 3.17424e-05)
(0.000185414 -0.000115608 3.17425e-05)
(0.000194784 -9.90082e-05 3.17425e-05)
(0.000202672 -8.16549e-05 3.17425e-05)
(0.000209017 -6.36801e-05 3.17425e-05)
(0.000213771 -4.52205e-05 3.17423e-05)
(0.000216899 -2.6417e-05 3.17424e-05)
(0.000218377 -7.41254e-06 3.17425e-05)
(0.000218192 1.16485e-05 3.17424e-05)
(0.000216346 3.0621e-05 3.17424e-05)
(0.000212854 4.93603e-05 3.17424e-05)
(0.000207742 6.7724e-05 3.17424e-05)
(0.00020105 8.55724e-05 3.17426e-05)
(0.000192826 0.000102769 3.17424e-05)
(0.000183135 0.000119184 3.17424e-05)
(0.000172051 0.000134692 3.17424e-05)
(0.000159657 0.000149174 3.17425e-05)
(0.000146048 0.000162522 3.17425e-05)
(0.000131328 0.000174632 3.17424e-05)
(0.000115608 0.000185414 3.17425e-05)
(9.90082e-05 0.000194784 3.17425e-05)
(8.16549e-05 0.000202672 3.17425e-05)
(6.36801e-05 0.000209017 3.17425e-05)
(4.52205e-05 0.000213771 3.17423e-05)
(2.6417e-05 0.000216899 3.17424e-05)
(7.41254e-06 0.000218377 3.17425e-05)
(-1.16485e-05 0.000218192 3.17424e-05)
(-3.0621e-05 0.000216346 3.17424e-05)
(-4.93603e-05 0.000212854 3.17424e-05)
(-6.7724e-05 0.000207742 3.17424e-05)
(-8.55724e-05 0.00020105 3.17426e-05)
(-0.000102769 0.000192826 3.17424e-05)
(-0.000119184 0.000183135 3.17424e-05)
(-0.000134692 0.000172051 3.17424e-05)
(-0.000149174 0.000159657 3.17425e-05)
(-0.000162522 0.000146048 3.17425e-05)
(-0.000174632 0.000131328 3.17424e-05)
(-0.000185414 0.000115608 3.17425e-05)
(-0.000194784 9.90082e-05 3.17425e-05)
(-0.000202672 8.16549e-05 3.17425e-05)
(-0.000209017 6.36801e-05 3.17425e-05)
(-0.000213771 4.52205e-05 3.17423e-05)
(-0.000216899 2.6417e-05 3.17424e-05)
(-0.000218377 7.41254e-06 3.17425e-05)
(-0.000218192 -1.16485e-05 3.17424e-05)
(-0.000216346 -3.0621e-05 3.17424e-05)
(-0.000212854 -4.93603e-05 3.17424e-05)
(-0.000207742 -6.7724e-05 3.17424e-05)
(-0.00020105 -8.55724e-05 3.17426e-05)
(-0.000192826 -0.000102769 3.17424e-05)
(-0.000183135 -0.000119184 3.17424e-05)
(-0.000172051 -0.000134692 3.17424e-05)
(-0.000159657 -0.000149174 3.17425e-05)
(-0.000146048 -0.000162522 3.17425e-05)
(-0.000131328 -0.000174632 3.17424e-05)
(-0.000115608 -0.000185414 3.17425e-05)
(-9.90082e-05 -0.000194784 3.17425e-05)
(-8.16549e-05 -0.000202672 3.17425e-05)
(-6.36801e-05 -0.000209017 3.17425e-05)
(-4.52205e-05 -0.000213771 3.17423e-05)
(-2.6417e-05 -0.000216899 3.17424e-05)
(-7.41254e-06 -0.000218377 3.17425e-05)
(1.16485e-05 -0.000218192 3.17424e-05)
(3.0621e-05 -0.000216346 3.17424e-05)
(9.286e-06 -0.000224947 3.46457e-05)
(2.88561e-05 -0.000223282 3.46458e-05)
(4.82063e-05 -0.000219917 3.46457e-05)
(6.719e-05 -0.000214879 3.46458e-05)
(8.56621e-05 -0.000208205 3.46458e-05)
(0.000103482 -0.000199946 3.46457e-05)
(0.000120515 -0.000190166 3.46457e-05)
(0.00013663 -0.000178939 3.46457e-05)
(0.000151707 -0.000166351 3.46457e-05)
(0.000165628 -0.000152496 3.46458e-05)
(0.000178288 -0.000137479 3.46456e-05)
(0.000189591 -0.000121417 3.46457e-05)
(0.000199452 -0.000104431 3.46456e-05)
(0.000207795 -8.66507e-05 3.46455e-05)
(0.000214557 -6.82106e-05 3.46457e-05)
(0.000219685 -4.92511e-05 3.46457e-05)
(0.000223142 -2.99168e-05 3.46458e-05)
(0.0002249 -1.03548e-05 3.46457e-05)
(0.000224947 9.286e-06 3.46457e-05)
(0.000223282 2.88561e-05 3.46458e-05)
(0.000219917 4.82063e-05 3.46457e-05)
(0.000214879 6.719e-05 3.46458e-05)
(0.000208205 8.56621e-05 3.46458e-05)
(0.000199946 0.000103482 3.46457e-05)
(0.000190166 0.000120515 3.46457e-05)
(0.000178939 0.00013663 3.46457e-05)
(0.000166351 0.000151707 3.46457e-05)
(0.000152496 0.000165628 3.46458e-05)
(0.000137479 0.000178288 3.46456e-05)
(0.000121417 0.000189591 3.46457e-05)
(0.000104431 0.000199452 3.46456e-05)
(8.66507e-05 0.000207795 3.46455e-05)
(6.82106e-05 0.000214557 3.46457e-05)
(4.92511e-05 0.000219685 3.46457e-05)
(2.99168e-05 0.000223142 3.46458e-05)
(1.03548e-05 0.0002249 3.46457e-05)
(-9.286e-06 0.000224947 3.46457e-05)
(-2.88561e-05 0.000223282 3.46458e-05)
(-4.82063e-05 0.000219917 3.46457e-05)
(-6.719e-05 0.000214879 3.46458e-05)
(-8.56621e-05 0.000208205 3.46458e-05)
(-0.000103482 0.000199946 3.46457e-05)
(-0.000120515 0.000190166 3.46457e-05)
(-0.00013663 0.000178939 3.46457e-05)
(-0.000151707 0.000166351 3.46457e-05)
(-0.000165628 0.000152496 3.46458e-05)
(-0.000178288 0.000137479 3.46456e-05)
(-0.000189591 0.000121417 3.46457e-05)
(-0.000199452 0.000104431 3.46456e-05)
(-0.000207795 8.66507e-05 3.46455e-05)
(-0.000214557 6.82106e-05 3.46457e-05)
(-0.000219685 4.92511e-05 3.46457e-05)
(-0.000223142 2.99168e-05 3.46458e-05)
(-0.0002249 1.03548e-05 3.46457e-05)
(-0.000224947 -9.286e-06 3.46457e-05)
(-0.000223282 -2.88561e-05 3.46458e-05)
(-0.000219917 -4.82063e-05 3.46457e-05)
(-0.000214879 -6.719e-05 3.46458e-05)
(-0.000208205 -8.56621e-05 3.46458e-05)
(-0.000199946 -0.000103482 3.46457e-05)
(-0.000190166 -0.000120515 3.46457e-05)
(-0.000178939 -0.00013663 3.46457e-05)
(-0.000166351 -0.000151707 3.46457e-05)
(-0.000152496 -0.000165628 3.46458e-05)
(-0.000137479 -0.000178288 3.46456e-05)
(-0.000121417 -0.000189591 3.46457e-05)
(-0.000104431 -0.000199452 3.46456e-05)
(-8.66507e-05 -0.000207795 3.46455e-05)
(-6.82106e-05 -0.000214557 3.46457e-05)
(-4.92511e-05 -0.000219685 3.46457e-05)
(-2.99168e-05 -0.000223142 3.46458e-05)
(-1.03548e-05 -0.0002249 3.46457e-05)
(-4.80266e-05 -0.000233835 3.81488e-05)
(-2.74636e-05 -0.00023713 3.81487e-05)
(-6.69196e-06 -0.000238622 3.81487e-05)
(1.41311e-05 -0.000238299 3.81489e-05)
(3.48465e-05 -0.00023616 3.81487e-05)
(5.52965e-05 -0.000232224 3.81487e-05)
(7.53255e-05 -0.00022652 3.81486e-05)
(9.47809e-05 -0.000219093 3.81486e-05)
(0.000113516 -0.000209999 3.81487e-05)
(0.000131386 -0.000199306 3.81488e-05)
(0.000148257 -0.000187096 3.81487e-05)
(0.000164 -0.000173463 3.81487e-05)
(0.000178494 -0.00015851 3.81485e-05)
(0.00019163 -0.00014235 3.81484e-05)
(0.000203308 -0.000125107 3.81486e-05)
(0.000213436 -0.000106911 3.81486e-05)
(0.000221942 -8.79017e-05 3.81487e-05)
(0.00022876 -6.82238e-05 3.81489e-05)
(0.000233835 -4.80266e-05 3.81488e-05)
(0.00023713 -2.74636e-05 3.81487e-05)
(0.000238622 -6.69196e-06 3.81487e-05)
(0.000238299 1.41311e-05 3.81489e-05)
(0.00023616 3.48465e-05 3.81487e-05)
(0.000232224 5.52965e-05 3.81487e-05)
(0.00022652 7.53255e-05 3.81486e-05)
(0.000219093 9.47809e-05 3.81486e-05)
(0.000209999 0.000113516 3.81487e-05)
(0.000199306 0.000131386 3.81488e-05)
(0.000187096 0.000148257 3.81487e-05)
(0.000173463 0.000164 3.81487e-05)
(0.00015851 0.000178494 3.81485e-05)
(0.00014235 0.00019163 3.81484e-05)
(0.000125107 0.000203308 3.81486e-05)
(0.000106911 0.000213436 3.81486e-05)
(8.79017e-05 0.000221942 3.81487e-05)
(6.82238e-05 0.00022876 3.81489e-05)
(4.80266e-05 0.000233835 3.81488e-05)
(2.74636e-05 0.00023713 3.81487e-05)
(6.69196e-06 0.000238622 3.81487e-05)
(-1.41311e-05 0.000238299 3.81489e-05)
(-3.48465e-05 0.00023616 3.81487e-05)
(-5.52965e-05 0.000232224 3.81487e-05)
(-7.53255e-05 0.00022652 3.81486e-05)
(-9.47809e-05 0.000219093 3.81486e-05)
(-0.000113516 0.000209999 3.81487e-05)
(-0.000131386 0.000199306 3.81488e-05)
(-0.000148257 0.000187096 3.81487e-05)
(-0.000164 0.000173463 3.81487e-05)
(-0.000178494 0.00015851 3.81485e-05)
(-0.00019163 0.00014235 3.81484e-05)
(-0.000203308 0.000125107 3.81486e-05)
(-0.000213436 0.000106911 3.81486e-05)
(-0.000221942 8.79017e-05 3.81487e-05)
(-0.00022876 6.82238e-05 3.81489e-05)
(-0.000233835 4.80266e-05 3.81488e-05)
(-0.00023713 2.74636e-05 3.81487e-05)
(-0.000238622 6.69196e-06 3.81487e-05)
(-0.000238299 -1.41311e-05 3.81489e-05)
(-0.00023616 -3.48465e-05 3.81487e-05)
(-0.000232224 -5.52965e-05 3.81487e-05)
(-0.00022652 -7.53255e-05 3.81486e-05)
(-0.000219093 -9.47809e-05 3.81486e-05)
(-0.000209999 -0.000113516 3.81487e-05)
(-0.000199306 -0.000131386 3.81488e-05)
(-0.000187096 -0.000148257 3.81487e-05)
(-0.000173463 -0.000164 3.81487e-05)
(-0.00015851 -0.000178494 3.81485e-05)
(-0.00014235 -0.00019163 3.81484e-05)
(-0.000125107 -0.000203308 3.81486e-05)
(-0.000106911 -0.000213436 3.81486e-05)
(-8.79017e-05 -0.000221942 3.81487e-05)
(-6.82238e-05 -0.00022876 3.81489e-05)
(0.000303091 -0.000463201 2.21825e-05)
(0.000342309 -0.000435023 2.21822e-05)
(0.000378921 -0.000403533 2.21826e-05)
(0.000412649 -0.000368972 2.21826e-05)
(0.000443237 -0.000331604 2.21824e-05)
(0.000470452 -0.000291711 2.21822e-05)
(0.000494085 -0.000249598 2.21822e-05)
(0.000513959 -0.000205586 2.21818e-05)
(0.000529922 -0.000160009 2.21816e-05)
(0.000541851 -0.000113215 2.21818e-05)
(0.000549656 -6.55582e-05 2.21825e-05)
(0.000553278 -1.74031e-05 2.21826e-05)
(0.00055269 3.08843e-05 2.21826e-05)
(0.000547894 7.89369e-05 2.21828e-05)
(0.000538929 0.000126389 2.21828e-05)
(0.000525863 0.000172879 2.21825e-05)
(0.000508795 0.000218053 2.21824e-05)
(0.000487854 0.000261568 2.21823e-05)
(0.000463201 0.000303091 2.21825e-05)
(0.000435023 0.000342309 2.21822e-05)
(0.000403533 0.000378921 2.21826e-05)
(0.000368972 0.000412649 2.21826e-05)
(0.000331604 0.000443237 2.21824e-05)
(0.000291711 0.000470452 2.21822e-05)
(0.000249598 0.000494085 2.21822e-05)
(0.000205586 0.000513959 2.21818e-05)
(0.000160009 0.000529922 2.21816e-05)
(0.000113215 0.000541851 2.21818e-05)
(6.55582e-05 0.000549656 2.21825e-05)
(1.74031e-05 0.000553278 2.21826e-05)
(-3.08843e-05 0.00055269 2.21826e-05)
(-7.89369e-05 0.000547894 2.21828e-05)
(-0.000126389 0.000538929 2.21828e-05)
(-0.000172879 0.000525863 2.21825e-05)
(-0.000218053 0.000508795 2.21824e-05)
(-0.000261568 0.000487854 2.21823e-05)
(-0.000303091 0.000463201 2.21825e-05)
(-0.000342309 0.000435023 2.21822e-05)
(-0.000378921 0.000403533 2.21826e-05)
(-0.000412649 0.000368972 2.21826e-05)
(-0.000443237 0.000331604 2.21824e-05)
(-0.000470452 0.000291711 2.21822e-05)
(-0.000494085 0.000249598 2.21822e-05)
(-0.000513959 0.000205586 2.21818e-05)
(-0.000529922 0.000160009 2.21816e-05)
(-0.000541851 0.000113215 2.21818e-05)
(-0.000549656 6.55582e-05 2.21825e-05)
(-0.000553278 1.74031e-05 2.21826e-05)
(-0.00055269 -3.08843e-05 2.21826e-05)
(-0.000547894 -7.89369e-05 2.21828e-05)
(-0.000538929 -0.000126389 2.21828e-05)
(-0.000525863 -0.000172879 2.21825e-05)
(-0.000508795 -0.000218053 2.21824e-05)
(-0.000487854 -0.000261568 2.21823e-05)
(-0.000463201 -0.000303091 2.21825e-05)
(-0.000435023 -0.000342309 2.21822e-05)
(-0.000403533 -0.000378921 2.21826e-05)
(-0.000368972 -0.000412649 2.21826e-05)
(-0.000331604 -0.000443237 2.21824e-05)
(-0.000291711 -0.000470452 2.21822e-05)
(-0.000249598 -0.000494085 2.21822e-05)
(-0.000205586 -0.000513959 2.21818e-05)
(-0.000160009 -0.000529922 2.21816e-05)
(-0.000113215 -0.000541851 2.21818e-05)
(-6.55582e-05 -0.000549656 2.21825e-05)
(-1.74031e-05 -0.000553278 2.21826e-05)
(3.08843e-05 -0.00055269 2.21826e-05)
(7.89369e-05 -0.000547894 2.21828e-05)
(0.000126389 -0.000538929 2.21828e-05)
(0.000172879 -0.000525863 2.21825e-05)
(0.000218053 -0.000508795 2.21824e-05)
(0.000261568 -0.000487854 2.21823e-05)
(0.000263883 -0.000523892 8.094e-05)
(0.000308539 -0.0004989 8.09399e-05)
(0.000350847 -0.000470111 8.09402e-05)
(0.000390484 -0.000437743 8.09403e-05)
(0.00042715 -0.000402045 8.094e-05)
(0.000460565 -0.000363286 8.09399e-05)
(0.000490475 -0.000321763 8.09402e-05)
(0.000516652 -0.000277791 8.094e-05)
(0.000538897 -0.000231705 8.094e-05)
(0.000557041 -0.000183855 8.09401e-05)
(0.000570945 -0.000134606 8.09403e-05)
(0.000580504 -8.43323e-05 8.09405e-05)
(0.000585645 -3.34173e-05 8.09403e-05)
(0.000586329 1.77524e-05 8.09402e-05)
(0.00058255 6.87867e-05 8.09404e-05)
(0.000574338 0.000119298 8.09404e-05)
(0.000561756 0.000168901 8.09401e-05)
(0.000544898 0.000217218 8.094e-05)
(0.000523892 0.000263883 8.094e-05)
(0.0004989 0.000308539 8.09399e-05)
(0.000470111 0.000350847 8.09402e-05)
(0.000437743 0.000390484 8.09403e-05)
(0.000402045 0.00042715 8.094e-05)
(0.000363286 0.000460565 8.09399e-05)
(0.000321763 0.000490475 8.09402e-05)
(0.000277791 0.000516652 8.094e-05)
(0.000231705 0.000538897 8.094e-05)
(0.000183855 0.000557041 8.09401e-05)
(0.000134606 0.000570945 8.09403e-05)
(8.43323e-05 0.000580504 8.09405e-05)
(3.34173e-05 0.000585645 8.09403e-05)
(-1.77524e-05 0.000586329 8.09402e-05)
(-6.87867e-05 0.00058255 8.09404e-05)
(-0.000119298 0.000574338 8.09404e-05)
(-0.000168901 0.000561756 8.09401e-05)
(-0.000217218 0.000544898 8.094e-05)
(-0.000263883 0.000523892 8.094e-05)
(-0.000308539 0.0004989 8.09399e-05)
(-0.000350847 0.000470111 8.09402e-05)
(-0.000390484 0.000437743 8.09403e-05)
(-0.00042715 0.000402045 8.094e-05)
(-0.000460565 0.000363286 8.09399e-05)
(-0.000490475 0.000321763 8.09402e-05)
(-0.000516652 0.000277791 8.094e-05)
(-0.000538897 0.000231705 8.094e-05)
(-0.000557041 0.000183855 8.09401e-05)
(-0.000570945 0.000134606 8.09403e-05)
(-0.000580504 8.43323e-05 8.09405e-05)
(-0.000585645 3.34173e-05 8.09403e-05)
(-0.000586329 -1.77524e-05 8.09402e-05)
(-0.00058255 -6.87867e-05 8.09404e-05)
(-0.000574338 -0.000119298 8.09404e-05)
(-0.000561756 -0.000168901 8.09401e-05)
(-0.000544898 -0.000217218 8.094e-05)
(-0.000523892 -0.000263883 8.094e-05)
(-0.0004989 -0.000308539 8.09399e-05)
(-0.000470111 -0.000350847 8.09402e-05)
(-0.000437743 -0.000390484 8.09403e-05)
(-0.000402045 -0.00042715 8.094e-05)
(-0.000363286 -0.000460565 8.09399e-05)
(-0.000321763 -0.000490475 8.09402e-05)
(-0.000277791 -0.000516652 8.094e-05)
(-0.000231705 -0.000538897 8.094e-05)
(-0.000183855 -0.000557041 8.09401e-05)
(-0.000134606 -0.000570945 8.09403e-05)
(-8.43323e-05 -0.000580504 8.09405e-05)
(-3.34173e-05 -0.000585645 8.09403e-05)
(1.77524e-05 -0.000586329 8.09402e-05)
(6.87867e-05 -0.00058255 8.09404e-05)
(0.000119298 -0.000574338 8.09404e-05)
(0.000168901 -0.000561756 8.09401e-05)
(0.000217218 -0.000544898 8.094e-05)
(0.00020623 -0.000581717 0.000120835)
(0.000256145 -0.000561529 0.000120835)
(0.000304111 -0.000537068 0.000120835)
(0.000349762 -0.000508519 0.000120835)
(0.000392752 -0.0004761 0.000120835)
(0.000432752 -0.000440059 0.000120835)
(0.000469459 -0.000400667 0.000120836)
(0.000502593 -0.000358226 0.000120835)
(0.000531901 -0.000313059 0.000120835)
(0.000557162 -0.00026551 0.000120835)
(0.000578183 -0.000215939 0.000120835)
(0.000594803 -0.000164726 0.000120836)
(0.000606897 -0.000112258 0.000120836)
(0.000614371 -5.89363e-05 0.000120835)
(0.00061717 -5.16649e-06 0.000120835)
(0.000615271 4.86436e-05 0.000120835)
(0.00060869 0.000102083 0.000120835)
(0.000597477 0.000154745 0.000120835)
(0.000581717 0.00020623 0.000120835)
(0.000561529 0.000256145 0.000120835)
(0.000537068 0.000304111 0.000120835)
(0.000508519 0.000349762 0.000120835)
(0.0004761 0.000392752 0.000120835)
(0.000440059 0.000432752 0.000120835)
(0.000400667 0.000469459 0.000120836)
(0.000358226 0.000502593 0.000120835)
(0.000313059 0.000531901 0.000120835)
(0.00026551 0.000557162 0.000120835)
(0.000215939 0.000578183 0.000120835)
(0.000164726 0.000594803 0.000120836)
(0.000112258 0.000606897 0.000120836)
(5.89363e-05 0.000614371 0.000120835)
(5.16649e-06 0.00061717 0.000120835)
(-4.86436e-05 0.000615271 0.000120835)
(-0.000102083 0.00060869 0.000120835)
(-0.000154745 0.000597477 0.000120835)
(-0.00020623 0.000581717 0.000120835)
(-0.000256145 0.000561529 0.000120835)
(-0.000304111 0.000537068 0.000120835)
(-0.000349762 0.000508519 0.000120835)
(-0.000392752 0.0004761 0.000120835)
(-0.000432752 0.000440059 0.000120835)
(-0.000469459 0.000400667 0.000120836)
(-0.000502593 0.000358226 0.000120835)
(-0.000531901 0.000313059 0.000120835)
(-0.000557162 0.00026551 0.000120835)
(-0.000578183 0.000215939 0.000120835)
(-0.000594803 0.000164726 0.000120836)
(-0.000606897 0.000112258 0.000120836)
(-0.000614371 5.89363e-05 0.000120835)
(-0.00061717 5.16649e-06 0.000120835)
(-0.000615271 -4.86436e-05 0.000120835)
(-0.00060869 -0.000102083 0.000120835)
(-0.000597477 -0.000154745 0.000120835)
(-0.000581717 -0.00020623 0.000120835)
(-0.000561529 -0.000256145 0.000120835)
(-0.000537068 -0.000304111 0.000120835)
(-0.000508519 -0.000349762 0.000120835)
(-0.0004761 -0.000392752 0.000120835)
(-0.000440059 -0.000432752 0.000120835)
(-0.000400667 -0.000469459 0.000120836)
(-0.000358226 -0.000502593 0.000120835)
(-0.000313059 -0.000531901 0.000120835)
(-0.00026551 -0.000557162 0.000120835)
(-0.000215939 -0.000578183 0.000120835)
(-0.000164726 -0.000594803 0.000120836)
(-0.000112258 -0.000606897 0.000120836)
(-5.89363e-05 -0.000614371 0.000120835)
(-5.16649e-06 -0.00061717 0.000120835)
(4.86436e-05 -0.000615271 0.000120835)
(0.000102083 -0.00060869 0.000120835)
(0.000154745 -0.000597477 0.000120835)
(0.000135015 -0.000630396 0.000143837)
(0.000189443 -0.00061623 0.000143837)
(0.000242431 -0.000597374 0.000143837)
(0.000293572 -0.000573971 0.000143837)
(0.00034248 -0.000546201 0.000143837)
(0.000388781 -0.000514273 0.000143837)
(0.000432123 -0.000478432 0.000143837)
(0.000472177 -0.00043895 0.000143837)
(0.000508637 -0.000396126 0.000143837)
(0.000541227 -0.000350288 0.000143837)
(0.000569697 -0.000301784 0.000143837)
(0.00059383 -0.000250983 0.000143837)
(0.000613446 -0.000198272 0.000143837)
(0.000628392 -0.000144052 0.000143837)
(0.000638555 -8.87359e-05 0.000143837)
(0.00064386 -3.27447e-05 0.000143837)
(0.000644264 2.34961e-05 0.000143837)
(0.000639764 7.95582e-05 0.000143837)
(0.000630396 0.000135015 0.000143837)
(0.00061623 0.000189443 0.000143837)
(0.000597374 0.000242431 0.000143837)
(0.000573971 0.000293572 0.000143837)
(0.000546201 0.00034248 0.000143837)
(0.000514273 0.000388781 0.000143837)
(0.000478432 0.000432123 0.000143837)
(0.00043895 0.000472177 0.000143837)
(0.000396126 0.000508637 0.000143837)
(0.000350288 0.000541227 0.000143837)
(0.000301784 0.000569697 0.000143837)
(0.000250983 0.00059383 0.000143837)
(0.000198272 0.000613446 0.000143837)
(0.000144052 0.000628392 0.000143837)
(8.87359e-05 0.000638555 0.000143837)
(3.27448e-05 0.00064386 0.000143837)
(-2.34961e-05 0.000644264 0.000143837)
(-7.95582e-05 0.000639764 0.000143837)
(-0.000135015 0.000630396 0.000143837)
(-0.000189443 0.00061623 0.000143837)
(-0.000242431 0.000597374 0.000143837)
(-0.000293572 0.000573971 0.000143837)
(-0.00034248 0.000546201 0.000143837)
(-0.000388781 0.000514273 0.000143837)
(-0.000432123 0.000478432 0.000143837)
(-0.000472177 0.00043895 0.000143837)
(-0.000508637 0.000396126 0.000143837)
(-0.000541227 0.000350288 0.000143837)
(-0.000569697 0.000301784 0.000143837)
(-0.00059383 0.000250983 0.000143837)
(-0.000613446 0.000198272 0.000143837)
(-0.000628392 0.000144052 0.000143837)
(-0.000638555 8.87359e-05 0.000143837)
(-0.00064386 3.27448e-05 0.000143837)
(-0.000644264 -2.34961e-05 0.000143837)
(-0.000639764 -7.95582e-05 0.000143837)
(-0.000630396 -0.000135015 0.000143837)
(-0.00061623 -0.000189443 0.000143837)
(-0.000597374 -0.000242431 0.000143837)
(-0.000573971 -0.000293572 0.000143837)
(-0.000546201 -0.00034248 0.000143837)
(-0.000514273 -0.000388781 0.000143837)
(-0.000478432 -0.000432123 0.000143837)
(-0.00043895 -0.000472177 0.000143837)
(-0.000396126 -0.000508637 0.000143837)
(-0.000350288 -0.000541227 0.000143837)
(-0.000301784 -0.000569697 0.000143837)
(-0.000250983 -0.00059383 0.000143837)
(-0.000198272 -0.000613446 0.000143837)
(-0.000144052 -0.000628392 0.000143837)
(-8.87359e-05 -0.000638555 0.000143837)
(-3.27447e-05 -0.00064386 0.000143837)
(2.34961e-05 -0.000644264 0.000143837)
(7.95582e-05 -0.000639764 0.000143837)
(5.11049e-05 -0.00066566 0.000159344)
(0.000108926 -0.000658673 0.000159344)
(0.000165919 -0.000646673 0.000159344)
(0.000221649 -0.000629751 0.000159344)
(0.000275692 -0.000608036 0.000159344)
(0.000327637 -0.000581694 0.000159344)
(0.000377088 -0.000550926 0.000159344)
(0.000423669 -0.000515964 0.000159344)
(0.000467025 -0.000477075 0.000159343)
(0.000506828 -0.000434556 0.000159343)
(0.000542774 -0.000388729 0.000159343)
(0.000574589 -0.000339945 0.000159344)
(0.00060203 -0.000288572 0.000159343)
(0.00062489 -0.000235003 0.000159343)
(0.000642994 -0.000179646 0.000159344)
(0.000656205 -0.000122922 0.000159344)
(0.000664421 -6.52626e-05 0.000159344)
(0.000667581 -7.10586e-06 0.000159344)
(0.00066566 5.11049e-05 0.000159344)
(0.000658673 0.000108926 0.000159344)
(0.000646673 0.000165919 0.000159344)
(0.000629751 0.000221649 0.000159344)
(0.000608036 0.000275692 0.000159344)
(0.000581694 0.000327637 0.000159344)
(0.000550926 0.000377088 0.000159344)
(0.000515964 0.000423669 0.000159344)
(0.000477075 0.000467025 0.000159343)
(0.000434556 0.000506828 0.000159343)
(0.000388729 0.000542774 0.000159343)
(0.000339945 0.000574589 0.000159344)
(0.000288572 0.00060203 0.000159343)
(0.000235003 0.00062489 0.000159343)