/*--------------------------------*- C++ -*----------------------------------*\
| =========                 |                                                 |
| \\      /  F ield         | OpenFOAM: The Open Source CFD Toolbox           |
|  \\    /   O peration     | Version:  2312                                  |
|   \\  /    A nd           | Website:  www.openfoam.com                      |
|    \\/     M anipulation  |                                                 |
\*---------------------------------------------------------------------------*/
FoamFile
{
    version     2.0;
    format      ascii;
    arch        "LSB;label=32;scalar=64";
    class       volVectorField;
    location    "0.8";
    object      D_0;
}
// * * * * * * * * * * * * * * * * * * * * * * * * * * * * * * * * * * * * * //

dimensions      [0 1 0 0 0 0 0];

internalField   nonuniform List<vector> 
12960
(
(0.000118459 -0.000148821 -2.22511e-06)
(0.000130979 -0.000137931 -2.22512e-06)
(0.000142502 -0.000125991 -2.22508e-06)
(0.00015294 -0.000113091 -2.22517e-06)
(0.000162215 -9.9331e-05 -2.22518e-06)
(0.000170255 -8.4815e-05 -2.22509e-06)
(0.000176999 -6.96535e-05 -2.22517e-06)
(0.000182396 -5.39621e-05 -2.22534e-06)
(0.000186405 -3.78598e-05 -2.22545e-06)
(0.000188996 -2.14696e-05 -2.22529e-06)
(0.000190148 -4.91571e-06 -2.22511e-06)
(0.000189852 1.16756e-05 -2.22495e-06)
(0.000188112 2.81778e-05 -2.22494e-06)
(0.000184941 4.44657e-05 -2.22498e-06)
(0.000180361 6.04152e-05 -2.22512e-06)
(0.00017441 7.59049e-05 -2.22509e-06)
(0.00016713 9.08168e-05 -2.22512e-06)
(0.000158579 0.000105038 -2.2253e-06)
(0.000148821 0.000118459 -2.22511e-06)
(0.000137931 0.000130979 -2.22512e-06)
(0.000125991 0.000142502 -2.22508e-06)
(0.000113091 0.00015294 -2.22517e-06)
(9.9331e-05 0.000162215 -2.22518e-06)
(8.4815e-05 0.000170255 -2.22509e-06)
(6.96535e-05 0.000176999 -2.22517e-06)
(5.39621e-05 0.000182396 -2.22534e-06)
(3.78598e-05 0.000186405 -2.22545e-06)
(2.14696e-05 0.000188996 -2.22529e-06)
(4.91571e-06 0.000190148 -2.22511e-06)
(-1.16756e-05 0.000189852 -2.22495e-06)
(-2.81778e-05 0.000188112 -2.22494e-06)
(-4.44657e-05 0.000184941 -2.22498e-06)
(-6.04152e-05 0.000180361 -2.22512e-06)
(-7.59049e-05 0.00017441 -2.22509e-06)
(-9.08168e-05 0.00016713 -2.22512e-06)
(-0.000105038 0.000158579 -2.2253e-06)
(-0.000118459 0.000148821 -2.22511e-06)
(-0.000130979 0.000137931 -2.22512e-06)
(-0.000142502 0.000125991 -2.22508e-06)
(-0.00015294 0.000113091 -2.22517e-06)
(-0.000162215 9.9331e-05 -2.22518e-06)
(-0.000170255 8.4815e-05 -2.22509e-06)
(-0.000176999 6.96535e-05 -2.22517e-06)
(-0.000182396 5.39621e-05 -2.22534e-06)
(-0.000186405 3.78598e-05 -2.22545e-06)
(-0.000188996 2.14696e-05 -2.22529e-06)
(-0.000190148 4.91571e-06 -2.22511e-06)
(-0.000189852 -1.16756e-05 -2.22495e-06)
(-0.000188112 -2.81778e-05 -2.22494e-06)
(-0.000184941 -4.44657e-05 -2.22498e-06)
(-0.000180361 -6.04152e-05 -2.22512e-06)
(-0.00017441 -7.59049e-05 -2.22509e-06)
(-0.00016713 -9.08168e-05 -2.22512e-06)
(-0.000158579 -0.000105038 -2.2253e-06)
(-0.000148821 -0.000118459 -2.22511e-06)
(-0.000137931 -0.000130979 -2.22512e-06)
(-0.000125991 -0.000142502 -2.22508e-06)
(-0.000113091 -0.00015294 -2.22517e-06)
(-9.9331e-05 -0.000162215 -2.22518e-06)
(-8.4815e-05 -0.000170255 -2.22509e-06)
(-6.96535e-05 -0.000176999 -2.22517e-06)
(-5.39621e-05 -0.000182396 -2.22534e-06)
(-3.78598e-05 -0.000186405 -2.22545e-06)
(-2.14696e-05 -0.000188996 -2.22529e-06)
(-4.91571e-06 -0.000190148 -2.22511e-06)
(1.16756e-05 -0.000189852 -2.22495e-06)
(2.81778e-05 -0.000188112 -2.22494e-06)
(4.44657e-05 -0.000184941 -2.22498e-06)
(6.04152e-05 -0.000180361 -2.22512e-06)
(7.59049e-05 -0.00017441 -2.22509e-06)
(9.08168e-05 -0.00016713 -2.22512e-06)
(0.000105038 -0.000158579 -2.2253e-06)
(0.000105127 -0.000172264 1.88822e-05)
(0.00011974 -0.000162446 1.88822e-05)
(0.000133443 -0.000151392 1.88823e-05)
(0.00014613 -0.000139185 1.88823e-05)
(0.000157705 -0.00012592 1.88823e-05)
(0.000168079 -0.000111696 1.88823e-05)
(0.000177175 -9.66218e-05 1.88822e-05)
(0.000184922 -8.08122e-05 1.88822e-05)
(0.000191261 -6.43876e-05 1.88822e-05)
(0.000196145 -4.74733e-05 1.88822e-05)
(0.000199536 -3.01975e-05 1.88823e-05)
(0.000201409 -1.26916e-05 1.88823e-05)
(0.000201748 4.91057e-06 1.88823e-05)
(0.000200552 2.24754e-05 1.88823e-05)
(0.000197831 3.98692e-05 1.88823e-05)
(0.000193603 5.69595e-05 1.88823e-05)
(0.000187901 7.36162e-05 1.88823e-05)
(0.000180771 8.97129e-05 1.88822e-05)
(0.000172264 0.000105127 1.88822e-05)
(0.000162446 0.00011974 1.88822e-05)
(0.000151392 0.000133443 1.88823e-05)
(0.000139185 0.00014613 1.88823e-05)
(0.00012592 0.000157705 1.88823e-05)
(0.000111696 0.000168079 1.88823e-05)
(9.66218e-05 0.000177175 1.88822e-05)
(8.08122e-05 0.000184922 1.88822e-05)
(6.43876e-05 0.000191261 1.88822e-05)
(4.74733e-05 0.000196145 1.88822e-05)
(3.01975e-05 0.000199536 1.88823e-05)
(1.26916e-05 0.000201409 1.88823e-05)
(-4.91057e-06 0.000201748 1.88823e-05)
(-2.24754e-05 0.000200552 1.88823e-05)
(-3.98692e-05 0.000197831 1.88823e-05)
(-5.69595e-05 0.000193603 1.88823e-05)
(-7.36162e-05 0.000187901 1.88823e-05)
(-8.97129e-05 0.000180771 1.88822e-05)
(-0.000105127 0.000172264 1.88822e-05)
(-0.00011974 0.000162446 1.88822e-05)
(-0.000133443 0.000151392 1.88823e-05)
(-0.00014613 0.000139185 1.88823e-05)
(-0.000157705 0.00012592 1.88823e-05)
(-0.000168079 0.000111696 1.88823e-05)
(-0.000177175 9.66218e-05 1.88822e-05)
(-0.000184922 8.08122e-05 1.88822e-05)
(-0.000191261 6.43876e-05 1.88822e-05)
(-0.000196145 4.74733e-05 1.88822e-05)
(-0.000199536 3.01975e-05 1.88823e-05)
(-0.000201409 1.26916e-05 1.88823e-05)
(-0.000201748 -4.91057e-06 1.88823e-05)
(-0.000200552 -2.24754e-05 1.88823e-05)
(-0.000197831 -3.98692e-05 1.88823e-05)
(-0.000193603 -5.69595e-05 1.88823e-05)
(-0.000187901 -7.36162e-05 1.88823e-05)
(-0.000180771 -8.97129e-05 1.88822e-05)
(-0.000172264 -0.000105127 1.88822e-05)
(-0.000162446 -0.00011974 1.88822e-05)
(-0.000151392 -0.000133443 1.88823e-05)
(-0.000139185 -0.00014613 1.88823e-05)
(-0.00012592 -0.000157705 1.88823e-05)
(-0.000111696 -0.000168079 1.88823e-05)
(-9.66218e-05 -0.000177175 1.88822e-05)
(-8.08122e-05 -0.000184922 1.88822e-05)
(-6.43876e-05 -0.000191261 1.88822e-05)
(-4.74733e-05 -0.000196145 1.88822e-05)
(-3.01975e-05 -0.000199536 1.88823e-05)
(-1.26916e-05 -0.000201409 1.88823e-05)
(4.91057e-06 -0.000201748 1.88823e-05)
(2.24754e-05 -0.000200552 1.88823e-05)
(3.98692e-05 -0.000197831 1.88823e-05)
(5.69595e-05 -0.000193603 1.88823e-05)
(7.36162e-05 -0.000187901 1.88823e-05)
(8.97129e-05 -0.000180771 1.88822e-05)
(8.10423e-05 -0.000194103 2.85146e-05)
(9.76512e-05 -0.000186302 2.85146e-05)
(0.000113517 -0.000177082 2.85146e-05)
(0.000128518 -0.000166514 2.85146e-05)
(0.000142542 -0.00015468 2.85148e-05)
(0.000155481 -0.000141668 2.85146e-05)
(0.000167236 -0.000127577 2.85145e-05)
(0.000177719 -0.000112516 2.85146e-05)
(0.000186849 -9.6599e-05 2.85146e-05)
(0.000194557 -7.99465e-05 2.85146e-05)
(0.000200785 -6.26855e-05 2.85147e-05)
(0.000205484 -4.49473e-05 2.85146e-05)
(0.000208619 -2.68672e-05 2.85146e-05)
(0.000210168 -8.5825e-06 2.85147e-05)
(0.000210116 9.76737e-06 2.85146e-05)
(0.000208465 2.80431e-05 2.85146e-05)
(0.000205227 4.61053e-05 2.85147e-05)
(0.000200428 6.38167e-05 2.85146e-05)
(0.000194103 8.10423e-05 2.85146e-05)
(0.000186302 9.76512e-05 2.85146e-05)
(0.000177082 0.000113517 2.85146e-05)
(0.000166514 0.000128518 2.85146e-05)
(0.00015468 0.000142542 2.85148e-05)
(0.000141668 0.000155481 2.85146e-05)
(0.000127577 0.000167236 2.85145e-05)
(0.000112516 0.000177719 2.85146e-05)
(9.6599e-05 0.000186849 2.85146e-05)
(7.99465e-05 0.000194557 2.85146e-05)
(6.26855e-05 0.000200785 2.85147e-05)
(4.49473e-05 0.000205484 2.85146e-05)
(2.68672e-05 0.000208619 2.85146e-05)
(8.5825e-06 0.000210168 2.85147e-05)
(-9.76737e-06 0.000210116 2.85146e-05)
(-2.80431e-05 0.000208465 2.85146e-05)
(-4.61053e-05 0.000205227 2.85147e-05)
(-6.38167e-05 0.000200428 2.85146e-05)
(-8.10423e-05 0.000194103 2.85146e-05)
(-9.76512e-05 0.000186302 2.85146e-05)
(-0.000113517 0.000177082 2.85146e-05)
(-0.000128518 0.000166514 2.85146e-05)
(-0.000142542 0.00015468 2.85148e-05)
(-0.000155481 0.000141668 2.85146e-05)
(-0.000167236 0.000127577 2.85145e-05)
(-0.000177719 0.000112516 2.85146e-05)
(-0.000186849 9.6599e-05 2.85146e-05)
(-0.000194557 7.99465e-05 2.85146e-05)
(-0.000200785 6.26855e-05 2.85147e-05)
(-0.000205484 4.49473e-05 2.85146e-05)
(-0.000208619 2.68672e-05 2.85146e-05)
(-0.000210168 8.5825e-06 2.85147e-05)
(-0.000210116 -9.76737e-06 2.85146e-05)
(-0.000208465 -2.80431e-05 2.85146e-05)
(-0.000205227 -4.61053e-05 2.85147e-05)
(-0.000200428 -6.38167e-05 2.85146e-05)
(-0.000194103 -8.10423e-05 2.85146e-05)
(-0.000186302 -9.76512e-05 2.85146e-05)
(-0.000177082 -0.000113517 2.85146e-05)
(-0.000166514 -0.000128518 2.85146e-05)
(-0.00015468 -0.000142542 2.85148e-05)
(-0.000141668 -0.000155481 2.85146e-05)
(-0.000127577 -0.000167236 2.85145e-05)
(-0.000112516 -0.000177719 2.85146e-05)
(-9.6599e-05 -0.000186849 2.85146e-05)
(-7.99465e-05 -0.000194557 2.85146e-05)
(-6.26855e-05 -0.000200785 2.85147e-05)
(-4.49473e-05 -0.000205484 2.85146e-05)
(-2.68672e-05 -0.000208619 2.85146e-05)
(-8.5825e-06 -0.000210168 2.85147e-05)
(9.76737e-06 -0.000210116 2.85146e-05)
(2.80431e-05 -0.000208465 2.85146e-05)
(4.61053e-05 -0.000205227 2.85147e-05)
(6.38167e-05 -0.000200428 2.85146e-05)
(4.95299e-05 -0.000211528 3.14472e-05)
(6.77773e-05 -0.000206406 3.14472e-05)
(8.55091e-05 -0.000199714 3.14474e-05)
(0.000102589 -0.000191501 3.14472e-05)
(0.000118889 -0.000181831 3.14473e-05)
(0.000134285 -0.000170777 3.14473e-05)
(0.000148658 -0.000158424 3.14473e-05)
(0.0001619 -0.000144865 3.14473e-05)
(0.00017391 -0.000130203 3.14473e-05)
(0.000184596 -0.00011455 3.14473e-05)
(0.000193877 -9.80257e-05 3.14474e-05)
(0.000201682 -8.07551e-05 3.14473e-05)
(0.000207953 -6.287e-05 3.14473e-05)
(0.000212641 -4.45062e-05 3.14471e-05)
(0.000215711 -2.5804e-05 3.14473e-05)
(0.00021714 -6.90545e-06 3.14473e-05)
(0.000216915 1.20458e-05 3.14473e-05)
(0.00021504 3.09055e-05 3.14472e-05)
(0.000211528 4.95299e-05 3.14472e-05)
(0.000206406 6.77773e-05 3.14472e-05)
(0.000199714 8.55091e-05 3.14474e-05)
(0.000191501 0.000102589 3.14472e-05)
(0.000181831 0.000118889 3.14473e-05)
(0.000170777 0.000134285 3.14473e-05)
(0.000158424 0.000148658 3.14473e-05)
(0.000144865 0.0001619 3.14473e-05)
(0.000130203 0.00017391 3.14473e-05)
(0.00011455 0.000184596 3.14473e-05)
(9.80257e-05 0.000193877 3.14474e-05)
(8.07551e-05 0.000201682 3.14473e-05)
(6.287e-05 0.000207953 3.14473e-05)
(4.45062e-05 0.000212641 3.14471e-05)
(2.5804e-05 0.000215711 3.14473e-05)
(6.90545e-06 0.00021714 3.14473e-05)
(-1.20458e-05 0.000216915 3.14473e-05)
(-3.09055e-05 0.00021504 3.14472e-05)
(-4.95299e-05 0.000211528 3.14472e-05)
(-6.77773e-05 0.000206406 3.14472e-05)
(-8.55091e-05 0.000199714 3.14474e-05)
(-0.000102589 0.000191501 3.14472e-05)
(-0.000118889 0.000181831 3.14473e-05)
(-0.000134285 0.000170777 3.14473e-05)
(-0.000148658 0.000158424 3.14473e-05)
(-0.0001619 0.000144865 3.14473e-05)
(-0.00017391 0.000130203 3.14473e-05)
(-0.000184596 0.00011455 3.14473e-05)
(-0.000193877 9.80257e-05 3.14474e-05)
(-0.000201682 8.07551e-05 3.14473e-05)
(-0.000207953 6.287e-05 3.14473e-05)
(-0.000212641 4.45062e-05 3.14471e-05)
(-0.000215711 2.5804e-05 3.14473e-05)
(-0.00021714 6.90545e-06 3.14473e-05)
(-0.000216915 -1.20458e-05 3.14473e-05)
(-0.00021504 -3.09055e-05 3.14472e-05)
(-0.000211528 -4.95299e-05 3.14472e-05)
(-0.000206406 -6.77773e-05 3.14472e-05)
(-0.000199714 -8.55091e-05 3.14474e-05)
(-0.000191501 -0.000102589 3.14472e-05)
(-0.000181831 -0.000118889 3.14473e-05)
(-0.000170777 -0.000134285 3.14473e-05)
(-0.000158424 -0.000148658 3.14473e-05)
(-0.000144865 -0.0001619 3.14473e-05)
(-0.000130203 -0.00017391 3.14473e-05)
(-0.00011455 -0.000184596 3.14473e-05)
(-9.80257e-05 -0.000193877 3.14474e-05)
(-8.07551e-05 -0.000201682 3.14473e-05)
(-6.287e-05 -0.000207953 3.14473e-05)
(-4.45062e-05 -0.000212641 3.14471e-05)
(-2.5804e-05 -0.000215711 3.14473e-05)
(-6.90545e-06 -0.00021714 3.14473e-05)
(1.20458e-05 -0.000216915 3.14473e-05)
(3.09055e-05 -0.00021504 3.14472e-05)
(9.80457e-06 -0.000223556 3.43683e-05)
(2.92514e-05 -0.000221851 3.43684e-05)
(4.84754e-05 -0.000218457 3.43684e-05)
(6.73308e-05 -0.000213401 3.43684e-05)
(8.56736e-05 -0.00020672 3.43684e-05)
(0.000103364 -0.000198466 3.43683e-05)
(0.000120268 -0.000188702 3.43683e-05)
(0.000136257 -0.000177502 3.43683e-05)
(0.00015121 -0.000164952 3.43684e-05)
(0.000165011 -0.000151146 3.43684e-05)
(0.000177555 -0.000136188 3.43683e-05)
(0.000188749 -0.000120195 3.43683e-05)
(0.000198507 -0.000103287 3.43683e-05)
(0.000206753 -8.55927e-05 3.43682e-05)
(0.000213427 -6.72475e-05 3.43683e-05)
(0.000218475 -4.83902e-05 3.43684e-05)
(0.000221862 -2.91646e-05 3.43684e-05)
(0.00022356 -9.71697e-06 3.43683e-05)
(0.000223556 9.80457e-06 3.43683e-05)
(0.000221851 2.92514e-05 3.43684e-05)
(0.000218457 4.84754e-05 3.43684e-05)
(0.000213401 6.73308e-05 3.43684e-05)
(0.00020672 8.56736e-05 3.43684e-05)
(0.000198466 0.000103364 3.43683e-05)
(0.000188702 0.000120268 3.43683e-05)
(0.000177502 0.000136257 3.43683e-05)
(0.000164952 0.00015121 3.43684e-05)
(0.000151146 0.000165011 3.43684e-05)
(0.000136188 0.000177555 3.43683e-05)
(0.000120195 0.000188749 3.43683e-05)
(0.000103287 0.000198507 3.43683e-05)
(8.55927e-05 0.000206753 3.43682e-05)
(6.72475e-05 0.000213427 3.43683e-05)
(4.83902e-05 0.000218475 3.43684e-05)
(2.91646e-05 0.000221862 3.43684e-05)
(9.71697e-06 0.00022356 3.43683e-05)
(-9.80457e-06 0.000223556 3.43683e-05)
(-2.92514e-05 0.000221851 3.43684e-05)
(-4.84754e-05 0.000218457 3.43684e-05)
(-6.73308e-05 0.000213401 3.43684e-05)
(-8.56736e-05 0.00020672 3.43684e-05)
(-0.000103364 0.000198466 3.43683e-05)
(-0.000120268 0.000188702 3.43683e-05)
(-0.000136257 0.000177502 3.43683e-05)
(-0.00015121 0.000164952 3.43684e-05)
(-0.000165011 0.000151146 3.43684e-05)
(-0.000177555 0.000136188 3.43683e-05)
(-0.000188749 0.000120195 3.43683e-05)
(-0.000198507 0.000103287 3.43683e-05)
(-0.000206753 8.55927e-05 3.43682e-05)
(-0.000213427 6.72475e-05 3.43683e-05)
(-0.000218475 4.83902e-05 3.43684e-05)
(-0.000221862 2.91646e-05 3.43684e-05)
(-0.00022356 9.71697e-06 3.43683e-05)
(-0.000223556 -9.80457e-06 3.43683e-05)
(-0.000221851 -2.92514e-05 3.43684e-05)
(-0.000218457 -4.84754e-05 3.43684e-05)
(-0.000213401 -6.73308e-05 3.43684e-05)
(-0.00020672 -8.56736e-05 3.43684e-05)
(-0.000198466 -0.000103364 3.43683e-05)
(-0.000188702 -0.000120268 3.43683e-05)
(-0.000177502 -0.000136257 3.43683e-05)
(-0.000164952 -0.00015121 3.43684e-05)
(-0.000151146 -0.000165011 3.43684e-05)
(-0.000136188 -0.000177555 3.43683e-05)
(-0.000120195 -0.000188749 3.43683e-05)
(-0.000103287 -0.000198507 3.43683e-05)
(-8.55927e-05 -0.000206753 3.43682e-05)
(-6.72475e-05 -0.000213427 3.43683e-05)
(-4.83902e-05 -0.000218475 3.43684e-05)
(-2.91646e-05 -0.000221862 3.43684e-05)
(-9.71697e-06 -0.00022356 3.43683e-05)
(-4.70748e-05 -0.000232423 3.78834e-05)
(-2.66385e-05 -0.00023564 3.78834e-05)
(-5.99982e-06 -0.000237066 3.78833e-05)
(1.4685e-05 -0.000236688 3.78835e-05)
(3.52579e-05 -0.000234507 3.78833e-05)
(5.55623e-05 -0.000230541 3.78833e-05)
(7.54437e-05 -0.000224821 3.78833e-05)
(9.47506e-05 -0.00021739 3.78832e-05)
(0.000113337 -0.000208305 3.78834e-05)
(0.000131061 -0.000197635 3.78834e-05)
(0.000147787 -0.000185459 3.78833e-05)
(0.000163389 -0.000171873 3.78834e-05)
(0.000177747 -0.000156979 3.78831e-05)
(0.000190752 -0.00014089 3.78831e-05)
(0.000202306 -0.00012373 3.78832e-05)
(0.000212319 -0.000105626 3.78833e-05)
(0.000220716 -8.6719e-05 3.78833e-05)
(0.000227436 -6.71525e-05 3.78835e-05)
(0.000232423 -4.70748e-05 3.78834e-05)
(0.00023564 -2.66385e-05 3.78834e-05)
(0.000237066 -5.99982e-06 3.78833e-05)
(0.000236688 1.4685e-05 3.78835e-05)
(0.000234507 3.52579e-05 3.78833e-05)
(0.000230541 5.55623e-05 3.78833e-05)
(0.000224821 7.54437e-05 3.78833e-05)
(0.00021739 9.47506e-05 3.78832e-05)
(0.000208305 0.000113337 3.78834e-05)
(0.000197635 0.000131061 3.78834e-05)
(0.000185459 0.000147787 3.78833e-05)
(0.000171873 0.000163389 3.78834e-05)
(0.000156979 0.000177747 3.78831e-05)
(0.00014089 0.000190752 3.78831e-05)
(0.00012373 0.000202306 3.78832e-05)
(0.000105626 0.000212319 3.78833e-05)
(8.6719e-05 0.000220716 3.78833e-05)
(6.71525e-05 0.000227436 3.78835e-05)
(4.70748e-05 0.000232423 3.78834e-05)
(2.66385e-05 0.00023564 3.78834e-05)
(5.99982e-06 0.000237066 3.78833e-05)
(-1.4685e-05 0.000236688 3.78835e-05)
(-3.52579e-05 0.000234507 3.78833e-05)
(-5.55623e-05 0.000230541 3.78833e-05)
(-7.54436e-05 0.000224821 3.78833e-05)
(-9.47506e-05 0.00021739 3.78832e-05)
(-0.000113337 0.000208305 3.78834e-05)
(-0.000131061 0.000197635 3.78834e-05)
(-0.000147787 0.000185459 3.78833e-05)
(-0.000163389 0.000171873 3.78834e-05)
(-0.000177747 0.000156979 3.78831e-05)
(-0.000190752 0.00014089 3.78831e-05)
(-0.000202306 0.00012373 3.78832e-05)
(-0.000212319 0.000105626 3.78833e-05)
(-0.000220716 8.6719e-05 3.78833e-05)
(-0.000227436 6.71525e-05 3.78835e-05)
(-0.000232423 4.70748e-05 3.78834e-05)
(-0.00023564 2.66385e-05 3.78834e-05)
(-0.000237066 5.99982e-06 3.78833e-05)
(-0.000236688 -1.4685e-05 3.78835e-05)
(-0.000234507 -3.52579e-05 3.78833e-05)
(-0.000230541 -5.55623e-05 3.78833e-05)
(-0.000224821 -7.54436e-05 3.78833e-05)
(-0.00021739 -9.47506e-05 3.78832e-05)
(-0.000208305 -0.000113337 3.78834e-05)
(-0.000197635 -0.000131061 3.78834e-05)
(-0.000185459 -0.000147787 3.78833e-05)
(-0.000171873 -0.000163389 3.78834e-05)
(-0.000156979 -0.000177747 3.78831e-05)
(-0.00014089 -0.000190752 3.78831e-05)
(-0.00012373 -0.000202306 3.78832e-05)
(-0.000105626 -0.000212319 3.78833e-05)
(-8.6719e-05 -0.000220716 3.78833e-05)
(-6.71525e-05 -0.000227436 3.78835e-05)
(0.000302043 -0.000460759 2.23988e-05)
(0.000341052 -0.000432681 2.23986e-05)
(0.000377465 -0.00040131 2.2399e-05)
(0.000411005 -0.000366884 2.2399e-05)
(0.000441417 -0.000329667 2.23988e-05)
(0.00046847 -0.000289941 2.23985e-05)
(0.000491957 -0.000248008 2.23986e-05)
(0.0005117 -0.000204187 2.23982e-05)
(0.00052755 -0.000158812 2.2398e-05)
(0.000539384 -0.000112229 2.23982e-05)
(0.000547111 -6.47913e-05 2.23989e-05)
(0.000550676 -1.68609e-05 2.2399e-05)
(0.000550051 3.11977e-05 2.2399e-05)
(0.000545238 7.90191e-05 2.23992e-05)
(0.000536276 0.000126239 2.23992e-05)
(0.000523233 0.000172498 2.23989e-05)
(0.000506208 0.000217445 2.23988e-05)
(0.00048533 0.000260736 2.23987e-05)
(0.000460759 0.000302043 2.23988e-05)
(0.000432681 0.000341052 2.23986e-05)
(0.00040131 0.000377465 2.2399e-05)
(0.000366884 0.000411005 2.2399e-05)
(0.000329667 0.000441417 2.23988e-05)
(0.000289941 0.00046847 2.23985e-05)
(0.000248008 0.000491957 2.23986e-05)
(0.000204187 0.0005117 2.23982e-05)
(0.000158812 0.00052755 2.2398e-05)
(0.000112229 0.000539384 2.23982e-05)
(6.47913e-05 0.000547111 2.23989e-05)
(1.68609e-05 0.000550676 2.2399e-05)
(-3.11977e-05 0.000550051 2.2399e-05)
(-7.90191e-05 0.000545238 2.23992e-05)
(-0.000126239 0.000536276 2.23992e-05)
(-0.000172498 0.000523233 2.23989e-05)
(-0.000217445 0.000506208 2.23988e-05)
(-0.000260736 0.00048533 2.23987e-05)
(-0.000302043 0.000460759 2.23988e-05)
(-0.000341052 0.000432681 2.23986e-05)
(-0.000377465 0.00040131 2.2399e-05)
(-0.000411005 0.000366884 2.2399e-05)
(-0.000441417 0.000329667 2.23988e-05)
(-0.00046847 0.000289941 2.23985e-05)
(-0.000491957 0.000248008 2.23986e-05)
(-0.0005117 0.000204187 2.23982e-05)
(-0.00052755 0.000158812 2.2398e-05)
(-0.000539384 0.000112229 2.23982e-05)
(-0.000547111 6.47913e-05 2.23989e-05)
(-0.000550676 1.68609e-05 2.2399e-05)
(-0.000550051 -3.11977e-05 2.2399e-05)
(-0.000545238 -7.90191e-05 2.23992e-05)
(-0.000536276 -0.000126239 2.23992e-05)
(-0.000523233 -0.000172498 2.23989e-05)
(-0.000506208 -0.000217445 2.23988e-05)
(-0.00048533 -0.000260736 2.23987e-05)
(-0.000460759 -0.000302043 2.23988e-05)
(-0.000432681 -0.000341052 2.23986e-05)
(-0.00040131 -0.000377465 2.2399e-05)
(-0.000366884 -0.000411005 2.2399e-05)
(-0.000329667 -0.000441417 2.23988e-05)
(-0.000289941 -0.00046847 2.23985e-05)
(-0.000248008 -0.000491957 2.23986e-05)
(-0.000204187 -0.0005117 2.23982e-05)
(-0.000158812 -0.00052755 2.2398e-05)
(-0.000112229 -0.000539384 2.23982e-05)
(-6.47913e-05 -0.000547111 2.23989e-05)
(-1.68609e-05 -0.000550676 2.2399e-05)
(3.11977e-05 -0.000550051 2.2399e-05)
(7.90191e-05 -0.000545238 2.23992e-05)
(0.000126239 -0.000536276 2.23992e-05)
(0.000172498 -0.000523233 2.23989e-05)
(0.000217445 -0.000506208 2.23988e-05)
(0.000260736 -0.00048533 2.23987e-05)
(0.000263229 -0.000520897 8.03871e-05)
(0.000307626 -0.000495973 8.0387e-05)
(0.000349683 -0.000467274 8.03873e-05)
(0.000389077 -0.000435019 8.03874e-05)
(0.000425511 -0.000399453 8.03871e-05)
(0.000458706 -0.000360847 8.03869e-05)
(0.000488411 -0.000319496 8.03873e-05)
(0.000514398 -0.000275712 8.03871e-05)
(0.000536471 -0.00022983 8.03871e-05)
(0.00055446 -0.000182199 8.03872e-05)
(0.00056823 -0.000133181 8.03873e-05)
(0.000577675 -8.31495e-05 8.03875e-05)
(0.000582723 -3.24856e-05 8.03873e-05)
(0.000583337 1.84259e-05 8.03873e-05)
(0.000579512 6.91969e-05 8.03875e-05)
(0.000571276 0.000119441 8.03875e-05)
(0.000558692 0.000168777 8.03872e-05)
(0.000541856 0.000216828 8.03871e-05)
(0.000520897 0.000263229 8.03871e-05)
(0.000495973 0.000307626 8.0387e-05)
(0.000467274 0.000349683 8.03873e-05)
(0.000435019 0.000389077 8.03874e-05)
(0.000399453 0.000425511 8.03871e-05)
(0.000360847 0.000458706 8.03869e-05)
(0.000319496 0.000488411 8.03873e-05)
(0.000275712 0.000514398 8.03871e-05)
(0.00022983 0.000536471 8.03871e-05)
(0.000182199 0.00055446 8.03872e-05)
(0.000133181 0.00056823 8.03873e-05)
(8.31495e-05 0.000577675 8.03875e-05)
(3.24856e-05 0.000582723 8.03873e-05)
(-1.84259e-05 0.000583337 8.03873e-05)
(-6.91969e-05 0.000579512 8.03875e-05)
(-0.000119441 0.000571276 8.03875e-05)
(-0.000168777 0.000558692 8.03872e-05)
(-0.000216828 0.000541856 8.03871e-05)
(-0.000263229 0.000520897 8.03871e-05)
(-0.000307626 0.000495973 8.0387e-05)
(-0.000349683 0.000467274 8.03873e-05)
(-0.000389077 0.000435019 8.03874e-05)
(-0.000425511 0.000399453 8.03871e-05)
(-0.000458706 0.000360847 8.03869e-05)
(-0.000488411 0.000319496 8.03873e-05)
(-0.000514398 0.000275712 8.03871e-05)
(-0.000536471 0.00022983 8.03871e-05)
(-0.00055446 0.000182199 8.03872e-05)
(-0.00056823 0.000133181 8.03873e-05)
(-0.000577675 8.31495e-05 8.03875e-05)
(-0.000582723 3.24856e-05 8.03873e-05)
(-0.000583337 -1.84259e-05 8.03873e-05)
(-0.000579512 -6.91969e-05 8.03875e-05)
(-0.000571276 -0.000119441 8.03875e-05)
(-0.000558692 -0.000168777 8.03872e-05)
(-0.000541856 -0.000216828 8.03871e-05)
(-0.000520897 -0.000263229 8.03871e-05)
(-0.000495973 -0.000307626 8.0387e-05)
(-0.000467274 -0.000349683 8.03873e-05)
(-0.000435019 -0.000389077 8.03874e-05)
(-0.000399453 -0.000425511 8.03871e-05)
(-0.000360847 -0.000458706 8.03869e-05)
(-0.000319496 -0.000488411 8.03873e-05)
(-0.000275712 -0.000514398 8.03871e-05)
(-0.00022983 -0.000536471 8.03871e-05)
(-0.000182199 -0.00055446 8.03872e-05)
(-0.000133181 -0.00056823 8.03873e-05)
(-8.31495e-05 -0.000577675 8.03875e-05)
(-3.24856e-05 -0.000582723 8.03873e-05)
(1.84259e-05 -0.000583337 8.03873e-05)
(6.91969e-05 -0.000579512 8.03875e-05)
(0.000119441 -0.000571276 8.03875e-05)
(0.000168777 -0.000558692 8.03872e-05)
(0.000216828 -0.000541856 8.03871e-05)
(0.000206139 -0.00057821 0.000119805)
(0.000255749 -0.000558044 0.000119805)
(0.000303413 -0.000533631 0.000119805)
(0.000348767 -0.000505156 0.000119806)
(0.000391467 -0.000472836 0.000119806)
(0.000431188 -0.000436919 0.000119806)
(0.000467627 -0.000397676 0.000119806)
(0.000500507 -0.000355406 0.000119806)
(0.000529578 -0.000310432 0.000119806)
(0.000554619 -0.000263095 0.000119806)
(0.000575438 -0.000213755 0.000119806)
(0.000591879 -0.000162789 0.000119806)
(0.000603814 -0.000110584 0.000119806)
(0.000611154 -5.75368e-05 0.000119806)
(0.000613844 -4.05266e-06 0.000119806)
(0.000611861 4.94633e-05 0.000119806)
(0.000605222 0.000102602 0.000119806)
(0.000593976 0.00015496 0.000119805)
(0.00057821 0.000206139 0.000119805)
(0.000558044 0.000255749 0.000119805)
(0.000533631 0.000303413 0.000119805)
(0.000505156 0.000348767 0.000119806)
(0.000472836 0.000391467 0.000119806)
(0.000436919 0.000431188 0.000119806)
(0.000397676 0.000467627 0.000119806)
(0.000355406 0.000500507 0.000119806)
(0.000310432 0.000529578 0.000119806)
(0.000263095 0.000554619 0.000119806)
(0.000213755 0.000575438 0.000119806)
(0.000162789 0.000591879 0.000119806)
(0.000110584 0.000603814 0.000119806)
(5.75368e-05 0.000611154 0.000119806)
(4.05266e-06 0.000613844 0.000119806)
(-4.94633e-05 0.000611861 0.000119806)
(-0.000102602 0.000605222 0.000119806)
(-0.00015496 0.000593976 0.000119805)
(-0.000206139 0.00057821 0.000119805)
(-0.000255749 0.000558044 0.000119805)
(-0.000303413 0.000533631 0.000119805)
(-0.000348767 0.000505156 0.000119806)
(-0.000391467 0.000472836 0.000119806)
(-0.000431188 0.000436919 0.000119806)
(-0.000467627 0.000397676 0.000119806)
(-0.000500507 0.000355406 0.000119806)
(-0.000529578 0.000310432 0.000119806)
(-0.000554619 0.000263095 0.000119806)
(-0.000575438 0.000213755 0.000119806)
(-0.000591879 0.000162789 0.000119806)
(-0.000603814 0.000110584 0.000119806)
(-0.000611154 5.75368e-05 0.000119806)
(-0.000613844 4.05266e-06 0.000119806)
(-0.000611861 -4.94633e-05 0.000119806)
(-0.000605222 -0.000102602 0.000119806)
(-0.000593976 -0.00015496 0.000119805)
(-0.00057821 -0.000206139 0.000119805)
(-0.000558044 -0.000255749 0.000119805)
(-0.000533631 -0.000303413 0.000119805)
(-0.000505156 -0.000348767 0.000119806)
(-0.000472836 -0.000391467 0.000119806)
(-0.000436919 -0.000431188 0.000119806)
(-0.000397676 -0.000467627 0.000119806)
(-0.000355406 -0.000500507 0.000119806)
(-0.000310432 -0.000529578 0.000119806)
(-0.000263095 -0.000554619 0.000119806)
(-0.000213755 -0.000575438 0.000119806)
(-0.000162789 -0.000591879 0.000119806)
(-0.000110584 -0.000603814 0.000119806)
(-5.75368e-05 -0.000611154 0.000119806)
(-4.05266e-06 -0.000613844 0.000119806)
(4.94633e-05 -0.000611861 0.000119806)
(0.000102602 -0.000605222 0.000119806)
(0.00015496 -0.000593976 0.000119805)
(0.000135591 -0.000626511 0.000142635)
(0.000189679 -0.000612309 0.000142635)
(0.000242323 -0.000593448 0.000142635)
(0.000293123 -0.00057007 0.000142635)
(0.000341693 -0.000542353 0.000142635)
(0.000387661 -0.000510509 0.000142635)
(0.00043068 -0.000474779 0.000142635)
(0.000470421 -0.000435437 0.000142636)
(0.000506581 -0.000392779 0.000142635)
(0.000538887 -0.000347133 0.000142635)
(0.000567091 -0.000298845 0.000142635)
(0.000590978 -0.000248283 0.000142635)
(0.000610369 -0.000195831 0.000142635)
(0.000625114 -0.000141888 0.000142635)
(0.000635102 -8.68658e-05 0.000142635)
(0.000640256 -3.11828e-05 0.000142635)
(0.000640538 2.47381e-05 0.000142635)
(0.000635944 8.04707e-05 0.000142635)
(0.000626511 0.000135591 0.000142635)
(0.000612309 0.000189679 0.000142635)
(0.000593448 0.000242323 0.000142635)
(0.00057007 0.000293123 0.000142635)
(0.000542353 0.000341693 0.000142635)
(0.000510509 0.000387661 0.000142635)
(0.000474779 0.00043068 0.000142635)
(0.000435437 0.000470421 0.000142636)
(0.000392779 0.000506581 0.000142635)
(0.000347133 0.000538887 0.000142635)
(0.000298845 0.000567091 0.000142635)
(0.000248283 0.000590978 0.000142635)
(0.000195831 0.000610369 0.000142635)
(0.000141888 0.000625114 0.000142635)
(8.68658e-05 0.000635102 0.000142635)
(3.11828e-05 0.000640256 0.000142635)
(-2.47381e-05 0.000640538 0.000142635)
(-8.04707e-05 0.000635944 0.000142635)
(-0.000135591 0.000626511 0.000142635)
(-0.000189679 0.000612309 0.000142635)
(-0.000242323 0.000593448 0.000142635)
(-0.000293123 0.00057007 0.000142635)
(-0.000341693 0.000542353 0.000142635)
(-0.000387661 0.000510509 0.000142635)
(-0.00043068 0.000474779 0.000142635)
(-0.000470421 0.000435437 0.000142636)
(-0.000506581 0.000392779 0.000142635)
(-0.000538887 0.000347133 0.000142635)
(-0.000567091 0.000298845 0.000142635)
(-0.000590978 0.000248283 0.000142635)
(-0.000610369 0.000195831 0.000142635)
(-0.000625114 0.000141888 0.000142635)
(-0.000635102 8.68658e-05 0.000142635)
(-0.000640256 3.11828e-05 0.000142635)
(-0.000640538 -2.47381e-05 0.000142635)
(-0.000635944 -8.04707e-05 0.000142635)
(-0.000626511 -0.000135591 0.000142635)
(-0.000612309 -0.000189679 0.000142635)
(-0.000593448 -0.000242323 0.000142635)
(-0.00057007 -0.000293123 0.000142635)
(-0.000542353 -0.000341693 0.000142635)
(-0.000510509 -0.000387661 0.000142635)
(-0.000474779 -0.00043068 0.000142635)
(-0.000435437 -0.000470421 0.000142636)
(-0.000392779 -0.000506581 0.000142635)
(-0.000347133 -0.000538887 0.000142635)
(-0.000298845 -0.000567091 0.000142635)
(-0.000248283 -0.000590978 0.000142635)
(-0.000195831 -0.000610369 0.000142635)
(-0.000141888 -0.000625114 0.000142635)
(-8.68658e-05 -0.000635102 0.000142635)
(-3.11828e-05 -0.000640256 0.000142635)
(2.47381e-05 -0.000640538 0.000142635)
(8.04707e-05 -0.000635944 0.000142635)
(5.24244e-05 -0.000661594 0.000158146)
(0.000109886 -0.000654507 0.000158146)
(0.000166512 -0.00064244 0.000158146)
(0.000221871 -0.000625482 0.000158146)
(0.000275541 -0.000603764 0.000158146)
(0.000327114 -0.000577452 0.000158146)
(0.000376198 -0.000546745 0.000158146)
(0.000422417 -0.000511876 0.000158145)
(0.000465423 -0.000473112 0.000158145)
(0.000504886 -0.000430747 0.000158145)
(0.000540507 -0.000385105 0.000158145)
(0.000572015 -0.000336532 0.000158146)
(0.000599169 -0.000285396 0.000158145)
(0.000621762 -0.000232089 0.000158145)
(0.000639624 -0.000177016 0.000158146)
(0.000652619 -0.000120595 0.000158146)
(0.000660646 -6.32571e-05 0.000158146)
(0.000663645 -5.43697e-06 0.000158146)
(0.000661594 5.24244e-05 0.000158146)
(0.000654507 0.000109886 0.000158146)
(0.00064244 0.000166512 0.000158146)
(0.000625482 0.000221871 0.000158146)
(0.000603764 0.000275541 0.000158146)
(0.000577452 0.000327114 0.000158146)
(0.000546745 0.000376198 0.000158146)
(0.000511876 0.000422417 0.000158145)
(0.000473112 0.000465423 0.000158145)
(0.000430747 0.000504886 0.000158145)
(0.000385105 0.000540507 0.000158145)