/*--------------------------------*- C++ -*----------------------------------*\
| =========                 |                                                 |
| \\      /  F ield         | OpenFOAM: The Open Source CFD Toolbox           |
|  \\    /   O peration     | Version:  2312                                  |
|   \\  /    A nd           | Website:  www.openfoam.com                      |
|    \\/     M anipulation  |                                                 |
\*---------------------------------------------------------------------------*/
FoamFile
{
    version     2.0;
    format      ascii;
    arch        "LSB;label=32;scalar=64";
    class       volVectorField;
    location    "0.8";
    object      D_0_0_0;
}
// * * * * * * * * * * * * * * * * * * * * * * * * * * * * * * * * * * * * * //

dimensions      [0 1 0 0 0 0 0];

internalField   nonuniform List<vector> 
12960
(
(0.000117493 -0.000147331 -1.86521e-06)
(0.000129886 -0.000136531 -1.86522e-06)
(0.000141292 -0.000124691 -1.86518e-06)
(0.000151621 -0.000111902 -1.86527e-06)
(0.000160798 -9.82613e-05 -1.86529e-06)
(0.000168749 -8.38729e-05 -1.86519e-06)
(0.000175417 -6.88463e-05 -1.86527e-06)
(0.00018075 -5.32957e-05 -1.86544e-06)
(0.000184707 -3.73395e-05 -1.86554e-06)
(0.000187259 -2.10992e-05 -1.86539e-06)
(0.000188385 -4.69813e-06 -1.86521e-06)
(0.000188078 1.17388e-05 -1.86506e-06)
(0.000186339 2.80861e-05 -1.86505e-06)
(0.000183182 4.42197e-05 -1.86509e-06)
(0.000178631 6.00168e-05 -1.86522e-06)
(0.00017272 7.53572e-05 -1.86519e-06)
(0.000165495 9.0124e-05 -1.86522e-06)
(0.000157011 0.000104205 -1.86539e-06)
(0.000147331 0.000117493 -1.86521e-06)
(0.000136531 0.000129886 -1.86522e-06)
(0.000124691 0.000141292 -1.86518e-06)
(0.000111902 0.000151621 -1.86527e-06)
(9.82613e-05 0.000160798 -1.86529e-06)
(8.38729e-05 0.000168749 -1.86519e-06)
(6.88463e-05 0.000175417 -1.86527e-06)
(5.32957e-05 0.00018075 -1.86544e-06)
(3.73395e-05 0.000184707 -1.86554e-06)
(2.10992e-05 0.000187259 -1.86539e-06)
(4.69813e-06 0.000188385 -1.86521e-06)
(-1.17388e-05 0.000188078 -1.86506e-06)
(-2.80861e-05 0.000186339 -1.86505e-06)
(-4.42197e-05 0.000183182 -1.86509e-06)
(-6.00168e-05 0.000178631 -1.86522e-06)
(-7.53572e-05 0.00017272 -1.86519e-06)
(-9.0124e-05 0.000165495 -1.86522e-06)
(-0.000104205 0.000157011 -1.86539e-06)
(-0.000117493 0.000147331 -1.86521e-06)
(-0.000129886 0.000136531 -1.86522e-06)
(-0.000141292 0.000124691 -1.86518e-06)
(-0.000151621 0.000111902 -1.86527e-06)
(-0.000160798 9.82613e-05 -1.86529e-06)
(-0.000168749 8.38729e-05 -1.86519e-06)
(-0.000175417 6.88463e-05 -1.86527e-06)
(-0.00018075 5.32957e-05 -1.86544e-06)
(-0.000184707 3.73395e-05 -1.86554e-06)
(-0.000187259 2.10992e-05 -1.86539e-06)
(-0.000188385 4.69813e-06 -1.86521e-06)
(-0.000188078 -1.17388e-05 -1.86506e-06)
(-0.000186339 -2.80861e-05 -1.86505e-06)
(-0.000183182 -4.42197e-05 -1.86509e-06)
(-0.000178631 -6.00168e-05 -1.86522e-06)
(-0.00017272 -7.53572e-05 -1.86519e-06)
(-0.000165495 -9.0124e-05 -1.86522e-06)
(-0.000157011 -0.000104205 -1.86539e-06)
(-0.000147331 -0.000117493 -1.86521e-06)
(-0.000136531 -0.000129886 -1.86522e-06)
(-0.000124691 -0.000141292 -1.86518e-06)
(-0.000111902 -0.000151621 -1.86527e-06)
(-9.82613e-05 -0.000160798 -1.86529e-06)
(-8.38729e-05 -0.000168749 -1.86519e-06)
(-6.88463e-05 -0.000175417 -1.86527e-06)
(-5.32957e-05 -0.00018075 -1.86544e-06)
(-3.73395e-05 -0.000184707 -1.86554e-06)
(-2.10992e-05 -0.000187259 -1.86539e-06)
(-4.69813e-06 -0.000188385 -1.86521e-06)
(1.17388e-05 -0.000188078 -1.86506e-06)
(2.80861e-05 -0.000186339 -1.86505e-06)
(4.42197e-05 -0.000183182 -1.86509e-06)
(6.00168e-05 -0.000178631 -1.86522e-06)
(7.53572e-05 -0.00017272 -1.86519e-06)
(9.0124e-05 -0.000165495 -1.86522e-06)
(0.000104205 -0.000157011 -1.86539e-06)
(0.000104364 -0.000170291 1.85838e-05)
(0.000118808 -0.000160547 1.85838e-05)
(0.000132349 -0.000149581 1.85839e-05)
(0.000144882 -0.000137477 1.8584e-05)
(0.000156313 -0.000124326 1.85839e-05)
(0.000166554 -0.00011023 1.85839e-05)
(0.000175528 -9.52946e-05 1.85839e-05)
(0.000183165 -7.96336e-05 1.85838e-05)
(0.000189408 -6.33666e-05 1.85838e-05)
(0.00019421 -4.66176e-05 1.85839e-05)
(0.000197535 -2.95137e-05 1.8584e-05)
(0.000199355 -1.21849e-05 1.8584e-05)
(0.000199658 5.23631e-06 1.8584e-05)
(0.000198442 2.26177e-05 1.8584e-05)
(0.000195716 3.9827e-05 1.8584e-05)
(0.000191499 5.67332e-05 1.8584e-05)
(0.000185826 7.32074e-05 1.85839e-05)
(0.000178739 8.91248e-05 1.85839e-05)
(0.000170291 0.000104364 1.85838e-05)
(0.000160547 0.000118808 1.85838e-05)
(0.000149581 0.000132349 1.85839e-05)
(0.000137477 0.000144882 1.8584e-05)
(0.000124326 0.000156313 1.85839e-05)
(0.00011023 0.000166554 1.85839e-05)
(9.52946e-05 0.000175528 1.85839e-05)
(7.96336e-05 0.000183165 1.85838e-05)
(6.33666e-05 0.000189408 1.85838e-05)
(4.66176e-05 0.00019421 1.85839e-05)
(2.95137e-05 0.000197535 1.8584e-05)
(1.21849e-05 0.000199355 1.8584e-05)
(-5.23631e-06 0.000199658 1.8584e-05)
(-2.26177e-05 0.000198442 1.8584e-05)
(-3.9827e-05 0.000195716 1.8584e-05)
(-5.67332e-05 0.000191499 1.8584e-05)
(-7.32074e-05 0.000185826 1.85839e-05)
(-8.91248e-05 0.000178739 1.85839e-05)
(-0.000104364 0.000170291 1.85838e-05)
(-0.000118808 0.000160547 1.85838e-05)
(-0.000132349 0.000149581 1.85839e-05)
(-0.000144882 0.000137477 1.8584e-05)
(-0.000156313 0.000124326 1.85839e-05)
(-0.000166554 0.00011023 1.85839e-05)
(-0.000175528 9.52946e-05 1.85839e-05)
(-0.000183165 7.96336e-05 1.85838e-05)
(-0.000189408 6.33666e-05 1.85838e-05)
(-0.00019421 4.66176e-05 1.85839e-05)
(-0.000197535 2.95137e-05 1.8584e-05)
(-0.000199355 1.21849e-05 1.8584e-05)
(-0.000199658 -5.23631e-06 1.8584e-05)
(-0.000198442 -2.26177e-05 1.8584e-05)
(-0.000195716 -3.9827e-05 1.8584e-05)
(-0.000191499 -5.67332e-05 1.8584e-05)
(-0.000185826 -7.32074e-05 1.85839e-05)
(-0.000178739 -8.91248e-05 1.85839e-05)
(-0.000170291 -0.000104364 1.85838e-05)
(-0.000160547 -0.000118808 1.85838e-05)
(-0.000149581 -0.000132349 1.85839e-05)
(-0.000137477 -0.000144882 1.8584e-05)
(-0.000124326 -0.000156313 1.85839e-05)
(-0.00011023 -0.000166554 1.85839e-05)
(-9.52946e-05 -0.000175528 1.85839e-05)
(-7.96336e-05 -0.000183165 1.85838e-05)
(-6.33666e-05 -0.000189408 1.85838e-05)
(-4.66176e-05 -0.00019421 1.85839e-05)
(-2.95137e-05 -0.000197535 1.8584e-05)
(-1.21849e-05 -0.000199355 1.8584e-05)
(5.23631e-06 -0.000199658 1.8584e-05)
(2.26177e-05 -0.000198442 1.8584e-05)
(3.9827e-05 -0.000195716 1.8584e-05)
(5.67332e-05 -0.000191499 1.8584e-05)
(7.32074e-05 -0.000185826 1.85839e-05)
(8.91248e-05 -0.000178739 1.85839e-05)
(8.07542e-05 -0.000191707 2.79405e-05)
(9.71554e-05 -0.000183939 2.79406e-05)
(0.000112817 -0.000174772 2.79406e-05)
(0.00012762 -0.000164274 2.79406e-05)
(0.000141452 -0.000152526 2.79407e-05)
(0.000154207 -0.000139617 2.79405e-05)
(0.000165788 -0.000125646 2.79405e-05)
(0.000176108 -0.000110718 2.79405e-05)
(0.000185088 -9.49481e-05 2.79405e-05)
(0.000192659 -7.84554e-05 2.79405e-05)
(0.000198764 -6.13655e-05 2.79406e-05)
(0.000203355 -4.38085e-05 2.79405e-05)
(0.0002064 -2.59183e-05 2.79406e-05)
(0.000207874 -7.83064e-06 2.79406e-05)
(0.000207765 1.03164e-05 2.79406e-05)
(0.000206075 2.83852e-05 2.79406e-05)
(0.000202817 4.62379e-05 2.79407e-05)
(0.000198015 6.37386e-05 2.79405e-05)
(0.000191707 8.07542e-05 2.79405e-05)
(0.000183939 9.71554e-05 2.79406e-05)
(0.000174772 0.000112817 2.79406e-05)
(0.000164274 0.00012762 2.79406e-05)
(0.000152526 0.000141452 2.79407e-05)
(0.000139617 0.000154207 2.79405e-05)
(0.000125646 0.000165788 2.79405e-05)
(0.000110718 0.000176108 2.79405e-05)
(9.49481e-05 0.000185088 2.79405e-05)
(7.84554e-05 0.000192659 2.79405e-05)
(6.13655e-05 0.000198764 2.79406e-05)
(4.38085e-05 0.000203355 2.79405e-05)
(2.59183e-05 0.0002064 2.79406e-05)
(7.83064e-06 0.000207874 2.79406e-05)
(-1.03164e-05 0.000207765 2.79406e-05)
(-2.83852e-05 0.000206075 2.79406e-05)
(-4.62379e-05 0.000202817 2.79407e-05)
(-6.37386e-05 0.000198015 2.79405e-05)
(-8.07543e-05 0.000191707 2.79405e-05)
(-9.71554e-05 0.000183939 2.79406e-05)
(-0.000112817 0.000174772 2.79406e-05)
(-0.00012762 0.000164274 2.79406e-05)
(-0.000141452 0.000152526 2.79407e-05)
(-0.000154207 0.000139617 2.79405e-05)
(-0.000165788 0.000125646 2.79405e-05)
(-0.000176108 0.000110718 2.79405e-05)
(-0.000185088 9.49481e-05 2.79405e-05)
(-0.000192659 7.84554e-05 2.79405e-05)
(-0.000198764 6.13655e-05 2.79406e-05)
(-0.000203355 4.38085e-05 2.79405e-05)
(-0.0002064 2.59183e-05 2.79406e-05)
(-0.000207874 7.83064e-06 2.79406e-05)
(-0.000207765 -1.03164e-05 2.79406e-05)
(-0.000206075 -2.83852e-05 2.79406e-05)
(-0.000202817 -4.62379e-05 2.79407e-05)
(-0.000198015 -6.37386e-05 2.79405e-05)
(-0.000191707 -8.07542e-05 2.79405e-05)
(-0.000183939 -9.71554e-05 2.79406e-05)
(-0.000174772 -0.000112817 2.79406e-05)
(-0.000164274 -0.00012762 2.79406e-05)
(-0.000152526 -0.000141452 2.79407e-05)
(-0.000139617 -0.000154207 2.79405e-05)
(-0.000125646 -0.000165788 2.79405e-05)
(-0.000110718 -0.000176108 2.79405e-05)
(-9.49481e-05 -0.000185088 2.79405e-05)
(-7.84554e-05 -0.000192659 2.79405e-05)
(-6.13655e-05 -0.000198764 2.79406e-05)
(-4.38085e-05 -0.000203355 2.79405e-05)
(-2.59183e-05 -0.0002064 2.79406e-05)
(-7.83064e-06 -0.000207874 2.79406e-05)
(1.03164e-05 -0.000207765 2.79406e-05)
(2.83852e-05 -0.000206075 2.79406e-05)
(4.62379e-05 -0.000202817 2.79407e-05)
(6.37386e-05 -0.000198015 2.79405e-05)
(4.985e-05 -0.000208844 3.0852e-05)
(6.78622e-05 -0.000203705 3.0852e-05)
(8.53582e-05 -0.000197015 3.08522e-05)
(0.000102204 -0.000188825 3.0852e-05)
(0.000118272 -0.000179199 3.08521e-05)
(0.00013344 -0.000168209 3.08521e-05)
(0.000147593 -0.000155939 3.08521e-05)
(0.000160623 -0.000142482 3.08521e-05)
(0.00017243 -0.000127941 3.0852e-05)
(0.000182924 -0.000112426 3.08521e-05)
(0.000192027 -9.60552e-05 3.08521e-05)
(0.000199667 -7.89535e-05 3.08521e-05)
(0.000205789 -6.12508e-05 3.08521e-05)
(0.000210344 -4.30818e-05 3.08519e-05)
(0.000213298 -2.45852e-05 3.0852e-05)
(0.00021463 -5.90159e-06 3.08521e-05)
(0.000214327 1.28272e-05 3.0852e-05)
(0.000212394 3.14583e-05 3.0852e-05)
(0.000208844 4.985e-05 3.0852e-05)
(0.000203705 6.78622e-05 3.0852e-05)
(0.000197015 8.53582e-05 3.08522e-05)
(0.000188825 0.000102204 3.0852e-05)
(0.000179199 0.000118272 3.08521e-05)
(0.000168209 0.00013344 3.08521e-05)
(0.000155939 0.000147593 3.08521e-05)
(0.000142482 0.000160623 3.08521e-05)
(0.000127941 0.00017243 3.0852e-05)
(0.000112426 0.000182924 3.08521e-05)
(9.60552e-05 0.000192027 3.08521e-05)
(7.89535e-05 0.000199667 3.08521e-05)
(6.12508e-05 0.000205789 3.08521e-05)
(4.30818e-05 0.000210344 3.08519e-05)
(2.45852e-05 0.000213298 3.0852e-05)
(5.90159e-06 0.00021463 3.08521e-05)
(-1.28272e-05 0.000214327 3.0852e-05)
(-3.14583e-05 0.000212394 3.0852e-05)
(-4.985e-05 0.000208844 3.0852e-05)
(-6.78622e-05 0.000203705 3.0852e-05)
(-8.53582e-05 0.000197015 3.08522e-05)
(-0.000102204 0.000188825 3.0852e-05)
(-0.000118272 0.000179199 3.08521e-05)
(-0.00013344 0.000168209 3.08521e-05)
(-0.000147593 0.000155939 3.08521e-05)
(-0.000160623 0.000142482 3.08521e-05)
(-0.00017243 0.000127941 3.0852e-05)
(-0.000182924 0.000112426 3.08521e-05)
(-0.000192027 9.60552e-05 3.08521e-05)
(-0.000199667 7.89535e-05 3.08521e-05)
(-0.000205789 6.12508e-05 3.08521e-05)
(-0.000210344 4.30818e-05 3.08519e-05)
(-0.000213298 2.45852e-05 3.0852e-05)
(-0.00021463 5.90159e-06 3.08521e-05)
(-0.000214327 -1.28272e-05 3.0852e-05)
(-0.000212394 -3.14583e-05 3.0852e-05)
(-0.000208844 -4.985e-05 3.0852e-05)
(-0.000203705 -6.78622e-05 3.0852e-05)
(-0.000197015 -8.53582e-05 3.08522e-05)
(-0.000188825 -0.000102204 3.0852e-05)
(-0.000179199 -0.000118272 3.08521e-05)
(-0.000168209 -0.00013344 3.08521e-05)
(-0.000155939 -0.000147593 3.08521e-05)
(-0.000142482 -0.000160623 3.08521e-05)
(-0.000127941 -0.00017243 3.0852e-05)
(-0.000112426 -0.000182924 3.08521e-05)
(-9.60552e-05 -0.000192027 3.08521e-05)
(-7.89535e-05 -0.000199667 3.08521e-05)
(-6.12508e-05 -0.000205789 3.08521e-05)
(-4.30818e-05 -0.000210344 3.08519e-05)
(-2.45852e-05 -0.000213298 3.0852e-05)
(-5.90159e-06 -0.00021463 3.08521e-05)
(1.28272e-05 -0.000214327 3.0852e-05)
(3.14583e-05 -0.000212394 3.0852e-05)
(1.08309e-05 -0.000220736 3.38053e-05)
(3.00281e-05 -0.000218952 3.38054e-05)
(4.89965e-05 -0.000215501 3.38053e-05)
(6.75923e-05 -0.000210411 3.38054e-05)
(8.56735e-05 -0.000203719 3.38054e-05)
(0.000103103 -0.000195477 3.38053e-05)
(0.000119747 -0.000185747 3.38053e-05)
(0.00013548 -0.000174603 3.38053e-05)
(0.000150183 -0.000162132 3.38053e-05)
(0.000163743 -0.000148426 3.38054e-05)
(0.000176055 -0.000133589 3.38052e-05)
(0.000187028 -0.000117736 3.38053e-05)
(0.000196578 -0.000100988 3.38052e-05)
(0.000204631 -8.34709e-05 3.38052e-05)
(0.000211128 -6.53186e-05 3.38053e-05)
(0.000216017 -4.6669e-05 3.38053e-05)
(0.000219263 -2.76642e-05 3.38054e-05)
(0.00022084 -8.44881e-06 3.38053e-05)
(0.000220736 1.08309e-05 3.38053e-05)
(0.000218952 3.00281e-05 3.38054e-05)
(0.000215501 4.89965e-05 3.38053e-05)
(0.000210411 6.75923e-05 3.38054e-05)
(0.000203719 8.56735e-05 3.38054e-05)
(0.000195477 0.000103103 3.38053e-05)
(0.000185747 0.000119747 3.38053e-05)
(0.000174603 0.00013548 3.38053e-05)
(0.000162132 0.000150183 3.38053e-05)
(0.000148426 0.000163743 3.38054e-05)
(0.000133589 0.000176055 3.38052e-05)
(0.000117736 0.000187028 3.38053e-05)
(0.000100988 0.000196578 3.38052e-05)
(8.34709e-05 0.000204631 3.38052e-05)
(6.53186e-05 0.000211128 3.38053e-05)
(4.6669e-05 0.000216017 3.38053e-05)
(2.76642e-05 0.000219263 3.38054e-05)
(8.44881e-06 0.00022084 3.38053e-05)
(-1.08309e-05 0.000220736 3.38053e-05)
(-3.00281e-05 0.000218952 3.38054e-05)
(-4.89965e-05 0.000215501 3.38053e-05)
(-6.75923e-05 0.000210411 3.38054e-05)
(-8.56735e-05 0.000203719 3.38054e-05)
(-0.000103103 0.000195477 3.38053e-05)
(-0.000119747 0.000185747 3.38053e-05)
(-0.00013548 0.000174603 3.38053e-05)
(-0.000150183 0.000162132 3.38053e-05)
(-0.000163743 0.000148426 3.38054e-05)
(-0.000176055 0.000133589 3.38052e-05)
(-0.000187028 0.000117736 3.38053e-05)
(-0.000196578 0.000100988 3.38052e-05)
(-0.000204631 8.34709e-05 3.38052e-05)
(-0.000211128 6.53186e-05 3.38053e-05)
(-0.000216017 4.6669e-05 3.38053e-05)
(-0.000219263 2.76642e-05 3.38054e-05)
(-0.00022084 8.44881e-06 3.38053e-05)
(-0.000220736 -1.08309e-05 3.38053e-05)
(-0.000218952 -3.00281e-05 3.38054e-05)
(-0.000215501 -4.89965e-05 3.38053e-05)
(-0.000210411 -6.75923e-05 3.38054e-05)
(-0.000203719 -8.56735e-05 3.38054e-05)
(-0.000195477 -0.000103103 3.38053e-05)
(-0.000185747 -0.000119747 3.38053e-05)
(-0.000174603 -0.00013548 3.38053e-05)
(-0.000162132 -0.000150183 3.38053e-05)
(-0.000148426 -0.000163743 3.38054e-05)
(-0.000133589 -0.000176055 3.38052e-05)
(-0.000117736 -0.000187028 3.38053e-05)
(-0.000100988 -0.000196578 3.38052e-05)
(-8.34709e-05 -0.000204631 3.38052e-05)
(-6.53186e-05 -0.000211128 3.38053e-05)
(-4.6669e-05 -0.000216017 3.38053e-05)
(-2.76642e-05 -0.000219263 3.38054e-05)
(-8.44881e-06 -0.00022084 3.38053e-05)
(-4.51649e-05 -0.000229555 3.73397e-05)
(-2.49858e-05 -0.000232617 3.73396e-05)
(-4.61695e-06 -0.00023391 3.73396e-05)
(1.57875e-05 -0.000233424 3.73398e-05)
(3.60717e-05 -0.000231159 3.73396e-05)
(5.60812e-05 -0.000227135 3.73396e-05)
(7.56637e-05 -0.000221383 3.73395e-05)
(9.46701e-05 -0.000213945 3.73395e-05)
(0.000112957 -0.000204881 3.73396e-05)
(0.000130383 -0.000194256 3.73397e-05)
(0.000146818 -0.000182153 3.73396e-05)
(0.000162135 -0.000168664 3.73396e-05)
(0.000176218 -0.000153891 3.73394e-05)
(0.00018896 -0.000137947 3.73393e-05)
(0.000200264 -0.000120954 3.73395e-05)
(0.000210043 -0.000103039 3.73395e-05)
(0.000218224 -8.43402e-05 3.73396e-05)
(0.000224745 -6.49999e-05 3.73398e-05)
(0.000229555 -4.51649e-05 3.73397e-05)
(0.000232617 -2.49858e-05 3.73396e-05)
(0.00023391 -4.61695e-06 3.73396e-05)
(0.000233424 1.57875e-05 3.73398e-05)
(0.000231159 3.60717e-05 3.73396e-05)
(0.000227135 5.60812e-05 3.73396e-05)
(0.000221383 7.56637e-05 3.73395e-05)
(0.000213945 9.46701e-05 3.73395e-05)
(0.000204881 0.000112957 3.73396e-05)
(0.000194256 0.000130383 3.73397e-05)
(0.000182153 0.000146818 3.73396e-05)
(0.000168664 0.000162135 3.73396e-05)
(0.000153891 0.000176218 3.73394e-05)
(0.000137947 0.00018896 3.73393e-05)
(0.000120954 0.000200264 3.73395e-05)
(0.000103039 0.000210043 3.73395e-05)
(8.43402e-05 0.000218224 3.73396e-05)
(6.49999e-05 0.000224745 3.73398e-05)
(4.51649e-05 0.000229555 3.73397e-05)
(2.49858e-05 0.000232617 3.73396e-05)
(4.61695e-06 0.00023391 3.73396e-05)
(-1.57875e-05 0.000233424 3.73398e-05)
(-3.60717e-05 0.000231159 3.73396e-05)
(-5.60812e-05 0.000227135 3.73396e-05)
(-7.56637e-05 0.000221383 3.73395e-05)
(-9.46701e-05 0.000213945 3.73395e-05)
(-0.000112957 0.000204881 3.73396e-05)
(-0.000130383 0.000194256 3.73397e-05)
(-0.000146818 0.000182153 3.73396e-05)
(-0.000162135 0.000168664 3.73396e-05)
(-0.000176218 0.000153891 3.73394e-05)
(-0.00018896 0.000137947 3.73393e-05)
(-0.000200264 0.000120954 3.73395e-05)
(-0.000210043 0.000103039 3.73395e-05)
(-0.000218224 8.43402e-05 3.73396e-05)
(-0.000224745 6.49999e-05 3.73398e-05)
(-0.000229555 4.51649e-05 3.73397e-05)
(-0.000232617 2.49858e-05 3.73396e-05)
(-0.00023391 4.61695e-06 3.73396e-05)
(-0.000233424 -1.57875e-05 3.73398e-05)
(-0.000231159 -3.60717e-05 3.73396e-05)
(-0.000227135 -5.60812e-05 3.73396e-05)
(-0.000221383 -7.56637e-05 3.73395e-05)
(-0.000213945 -9.46701e-05 3.73395e-05)
(-0.000204881 -0.000112957 3.73396e-05)
(-0.000194256 -0.000130383 3.73397e-05)
(-0.000182153 -0.000146818 3.73396e-05)
(-0.000168664 -0.000162135 3.73396e-05)
(-0.000153891 -0.000176218 3.73394e-05)
(-0.000137947 -0.00018896 3.73393e-05)
(-0.000120954 -0.000200264 3.73395e-05)
(-0.000103039 -0.000210043 3.73395e-05)
(-8.43402e-05 -0.000218224 3.73396e-05)
(-6.49999e-05 -0.000224745 3.73398e-05)
(0.00029989 -0.000455852 2.28472e-05)
(0.000338479 -0.00042798 2.28469e-05)
(0.000374492 -0.000396851 2.28473e-05)
(0.000407654 -0.000362702 2.28473e-05)
(0.000437715 -0.000325793 2.28471e-05)
(0.000464444 -0.000286404 2.28469e-05)
(0.000487638 -0.000244835 2.28469e-05)
(0.000507121 -0.000201402 2.28466e-05)
(0.000522745 -0.000156438 2.28463e-05)
(0.000534391 -0.000110282 2.28466e-05)
(0.000541968 -6.3287e-05 2.28472e-05)
(0.000545421 -1.58106e-05 2.28473e-05)
(0.000544724 3.1786e-05 2.28473e-05)
(0.00053988 7.91409e-05 2.28475e-05)
(0.000530928 0.000125893 2.28475e-05)
(0.000517935 0.000171688 2.28472e-05)
(0.000501001 0.000216176 2.28471e-05)
(0.000480254 0.000259018 2.2847e-05)
(0.000455852 0.00029989 2.28472e-05)
(0.00042798 0.000338479 2.28469e-05)
(0.000396851 0.000374492 2.28473e-05)
(0.000362702 0.000407654 2.28473e-05)
(0.000325793 0.000437715 2.28471e-05)
(0.000286404 0.000464444 2.28469e-05)
(0.000244835 0.000487638 2.28469e-05)
(0.000201402 0.000507121 2.28466e-05)
(0.000156438 0.000522745 2.28463e-05)
(0.000110282 0.000534391 2.28466e-05)
(6.3287e-05 0.000541968 2.28472e-05)
(1.58106e-05 0.000545421 2.28473e-05)
(-3.1786e-05 0.000544724 2.28473e-05)
(-7.91409e-05 0.00053988 2.28475e-05)
(-0.000125893 0.000530928 2.28475e-05)
(-0.000171688 0.000517935 2.28472e-05)
(-0.000216176 0.000501001 2.28471e-05)
(-0.000259018 0.000480254 2.2847e-05)
(-0.00029989 0.000455852 2.28472e-05)
(-0.000338479 0.00042798 2.28469e-05)
(-0.000374492 0.000396851 2.28473e-05)
(-0.000407654 0.000362702 2.28473e-05)
(-0.000437715 0.000325793 2.28471e-05)
(-0.000464444 0.000286404 2.28469e-05)
(-0.000487638 0.000244835 2.28469e-05)
(-0.000507121 0.000201402 2.28466e-05)
(-0.000522745 0.000156438 2.28463e-05)
(-0.000534391 0.000110282 2.28466e-05)
(-0.000541968 6.3287e-05 2.28472e-05)
(-0.000545421 1.58106e-05 2.28473e-05)
(-0.000544724 -3.1786e-05 2.28473e-05)
(-0.00053988 -7.91409e-05 2.28475e-05)
(-0.000530928 -0.000125893 2.28475e-05)
(-0.000517935 -0.000171688 2.28472e-05)
(-0.000501001 -0.000216176 2.28471e-05)
(-0.000480254 -0.000259018 2.2847e-05)
(-0.000455852 -0.00029989 2.28472e-05)
(-0.00042798 -0.000338479 2.28469e-05)
(-0.000396851 -0.000374492 2.28473e-05)
(-0.000362702 -0.000407654 2.28473e-05)
(-0.000325793 -0.000437715 2.28471e-05)
(-0.000286404 -0.000464444 2.28469e-05)
(-0.000244835 -0.000487638 2.28469e-05)
(-0.000201402 -0.000507121 2.28466e-05)
(-0.000156438 -0.000522745 2.28463e-05)
(-0.000110282 -0.000534391 2.28466e-05)
(-6.3287e-05 -0.000541968 2.28472e-05)
(-1.58106e-05 -0.000545421 2.28473e-05)
(3.1786e-05 -0.000544724 2.28473e-05)
(7.91409e-05 -0.00053988 2.28475e-05)
(0.000125893 -0.000530928 2.28475e-05)
(0.000171688 -0.000517935 2.28472e-05)
(0.000216176 -0.000501001 2.28471e-05)
(0.000259018 -0.000480254 2.2847e-05)
(0.000261861 -0.000514858 7.92835e-05)
(0.000305737 -0.000490076 7.92834e-05)
(0.000347287 -0.000461565 7.92837e-05)
(0.000386193 -0.00042954 7.92838e-05)
(0.000422161 -0.000394246 7.92835e-05)
(0.000454915 -0.000355952 7.92834e-05)
(0.000484207 -0.00031495 7.92837e-05)
(0.000509814 -0.00027155 7.92835e-05)
(0.000531542 -0.000226083 7.92835e-05)
(0.000549223 -0.000178896 7.92836e-05)
(0.000562725 -0.000130347 7.92838e-05)
(0.000571944 -8.08063e-05 7.92839e-05)
(0.00057681 -3.06508e-05 7.92838e-05)
(0.000577286 1.97383e-05 7.92837e-05)
(0.000573369 6.9977e-05 7.92839e-05)
(0.000565089 0.000119683 7.92839e-05)
(0.000552507 0.000168479 7.92836e-05)
(0.000535721 0.000215992 7.92835e-05)
(0.000514858 0.000261861 7.92835e-05)
(0.000490076 0.000305737 7.92834e-05)
(0.000461565 0.000347287 7.92837e-05)
(0.00042954 0.000386193 7.92838e-05)
(0.000394246 0.000422161 7.92835e-05)
(0.000355952 0.000454915 7.92834e-05)
(0.00031495 0.000484207 7.92837e-05)
(0.00027155 0.000509814 7.92835e-05)
(0.000226083 0.000531542 7.92835e-05)
(0.000178896 0.000549223 7.92836e-05)
(0.000130347 0.000562725 7.92838e-05)
(8.08063e-05 0.000571944 7.92839e-05)
(3.06508e-05 0.00057681 7.92838e-05)
(-1.97383e-05 0.000577286 7.92837e-05)
(-6.9977e-05 0.000573369 7.92839e-05)
(-0.000119683 0.000565089 7.92839e-05)
(-0.000168479 0.000552507 7.92836e-05)
(-0.000215992 0.000535721 7.92835e-05)
(-0.000261861 0.000514858 7.92835e-05)
(-0.000305737 0.000490076 7.92834e-05)
(-0.000347287 0.000461565 7.92837e-05)
(-0.000386193 0.00042954 7.92838e-05)
(-0.000422161 0.000394246 7.92835e-05)
(-0.000454915 0.000355952 7.92834e-05)
(-0.000484207 0.00031495 7.92837e-05)
(-0.000509814 0.00027155 7.92835e-05)
(-0.000531542 0.000226083 7.92835e-05)
(-0.000549223 0.000178896 7.92836e-05)
(-0.000562725 0.000130347 7.92838e-05)
(-0.000571944 8.08063e-05 7.92839e-05)
(-0.00057681 3.06508e-05 7.92838e-05)
(-0.000577286 -1.97383e-05 7.92837e-05)
(-0.000573369 -6.9977e-05 7.92839e-05)
(-0.000565089 -0.000119683 7.92839e-05)
(-0.000552507 -0.000168479 7.92836e-05)
(-0.000535721 -0.000215992 7.92835e-05)
(-0.000514858 -0.000261861 7.92835e-05)
(-0.000490076 -0.000305737 7.92834e-05)
(-0.000461565 -0.000347287 7.92837e-05)
(-0.00042954 -0.000386193 7.92838e-05)
(-0.000394246 -0.000422161 7.92835e-05)
(-0.000355952 -0.000454915 7.92834e-05)
(-0.00031495 -0.000484207 7.92837e-05)
(-0.00027155 -0.000509814 7.92835e-05)
(-0.000226083 -0.000531542 7.92835e-05)
(-0.000178896 -0.000549223 7.92836e-05)
(-0.000130347 -0.000562725 7.92838e-05)
(-8.08063e-05 -0.000571944 7.92839e-05)
(-3.06508e-05 -0.00057681 7.92838e-05)
(1.97383e-05 -0.000577286 7.92837e-05)
(6.9977e-05 -0.000573369 7.92839e-05)
(0.000119683 -0.000565089 7.92839e-05)
(0.000168479 -0.000552507 7.92836e-05)
(0.000215992 -0.000535721 7.92835e-05)
(0.000205901 -0.000571128 0.000117736)
(0.000254895 -0.000551009 0.000117736)
(0.000301948 -0.000526697 0.000117737)
(0.000346704 -0.000498376 0.000117737)
(0.000388821 -0.000466262 0.000117737)
(0.000427979 -0.000430601 0.000117737)
(0.000463879 -0.000391661 0.000117737)
(0.00049625 -0.000349741 0.000117737)
(0.000524843 -0.000305159 0.000117737)
(0.000549442 -0.000258254 0.000117737)
(0.00056986 -0.000209385 0.000117737)
(0.000585941 -0.000158922 0.000117737)
(0.000597562 -0.000107248 0.000117737)
(0.000604635 -5.47591e-05 0.000117737)
(0.000607107 -1.8537e-06 0.000117737)
(0.000604958 5.10668e-05 0.000117737)
(0.000598205 0.000103598 0.000117737)
(0.0005869 0.000155341 0.000117736)
(0.000571128 0.000205901 0.000117736)
(0.000551009 0.000254895 0.000117736)
(0.000526697 0.000301948 0.000117737)
(0.000498376 0.000346704 0.000117737)
(0.000466262 0.000388821 0.000117737)
(0.000430601 0.000427979 0.000117737)
(0.000391661 0.000463879 0.000117737)
(0.000349741 0.00049625 0.000117737)
(0.000305159 0.000524843 0.000117737)
(0.000258254 0.000549442 0.000117737)
(0.000209385 0.00056986 0.000117737)
(0.000158922 0.000585941 0.000117737)
(0.000107248 0.000597562 0.000117737)
(5.47591e-05 0.000604635 0.000117737)
(1.8537e-06 0.000607107 0.000117737)
(-5.10668e-05 0.000604958 0.000117737)
(-0.000103598 0.000598205 0.000117737)
(-0.000155341 0.0005869 0.000117736)
(-0.000205901 0.000571128 0.000117736)
(-0.000254895 0.000551009 0.000117736)
(-0.000301948 0.000526697 0.000117737)
(-0.000346704 0.000498376 0.000117737)
(-0.000388821 0.000466262 0.000117737)
(-0.000427979 0.000430601 0.000117737)
(-0.000463879 0.000391661 0.000117737)
(-0.00049625 0.000349741 0.000117737)
(-0.000524843 0.000305159 0.000117737)
(-0.000549442 0.000258254 0.000117737)
(-0.00056986 0.000209385 0.000117737)
(-0.000585941 0.000158922 0.000117737)
(-0.000597562 0.000107248 0.000117737)
(-0.000604635 5.47591e-05 0.000117737)
(-0.000607107 1.8537e-06 0.000117737)
(-0.000604958 -5.10668e-05 0.000117737)
(-0.000598205 -0.000103598 0.000117737)
(-0.0005869 -0.000155341 0.000117736)
(-0.000571128 -0.000205901 0.000117736)
(-0.000551009 -0.000254895 0.000117736)
(-0.000526697 -0.000301948 0.000117737)
(-0.000498376 -0.000346704 0.000117737)
(-0.000466262 -0.000388821 0.000117737)
(-0.000430601 -0.000427979 0.000117737)
(-0.000391661 -0.000463879 0.000117737)
(-0.000349741 -0.00049625 0.000117737)
(-0.000305159 -0.000524843 0.000117737)
(-0.000258254 -0.000549442 0.000117737)
(-0.000209385 -0.00056986 0.000117737)
(-0.000158922 -0.000585941 0.000117737)
(-0.000107248 -0.000597562 0.000117737)
(-5.47591e-05 -0.000604635 0.000117737)
(-1.8537e-06 -0.000607107 0.000117737)
(5.10668e-05 -0.000604958 0.000117737)
(0.000103598 -0.000598205 0.000117737)
(0.000155341 -0.0005869 0.000117736)
(0.000136697 -0.000618649 0.000140209)
(0.000190095 -0.000604382 0.00014021)
(0.000242047 -0.000585514 0.00014021)
(0.000292157 -0.00056219 0.00014021)
(0.000340043 -0.000534587 0.00014021)
(0.000385341 -0.000502916 0.00014021)
(0.000427707 -0.000467418 0.00014021)
(0.000466818 -0.000428363 0.00014021)
(0.000502375 -0.000386046 0.00014021)
(0.00053411 -0.000340792 0.00014021)
(0.00056178 -0.000292945 0.00014021)
(0.000585173 -0.000242868 0.00014021)
(0.000604114 -0.000190942 0.00014021)
(0.000618457 -0.000137563 0.00014021)
(0.000628093 -8.31377e-05 0.00014021)
(0.000632949 -2.80798e-05 0.00014021)
(0.000632988 2.71924e-05 0.00014021)
(0.000628209 8.22577e-05 0.000140209)
(0.000618649 0.000136697 0.000140209)
(0.000604382 0.000190095 0.00014021)
(0.000585514 0.000242047 0.00014021)
(0.00056219 0.000292157 0.00014021)
(0.000534587 0.000340043 0.00014021)
(0.000502916 0.000385341 0.00014021)
(0.000467418 0.000427707 0.00014021)
(0.000428363 0.000466818 0.00014021)
(0.000386046 0.000502375 0.00014021)
(0.000340792 0.00053411 0.00014021)
(0.000292945 0.00056178 0.00014021)
(0.000242868 0.000585173 0.00014021)
(0.000190942 0.000604114 0.00014021)
(0.000137563 0.000618457 0.00014021)
(8.31377e-05 0.000628093 0.00014021)
(2.80798e-05 0.000632949 0.00014021)
(-2.71924e-05 0.000632988 0.00014021)
(-8.22577e-05 0.000628209 0.000140209)
(-0.000136697 0.000618649 0.000140209)
(-0.000190095 0.000604382 0.00014021)
(-0.000242047 0.000585514 0.00014021)
(-0.000292157 0.00056219 0.00014021)
(-0.000340043 0.000534587 0.00014021)
(-0.000385341 0.000502916 0.00014021)
(-0.000427707 0.000467418 0.00014021)
(-0.000466818 0.000428363 0.00014021)
(-0.000502375 0.000386046 0.00014021)
(-0.00053411 0.000340792 0.00014021)
(-0.00056178 0.000292945 0.00014021)
(-0.000585173 0.000242868 0.00014021)
(-0.000604114 0.000190942 0.00014021)
(-0.000618457 0.000137563 0.00014021)
(-0.000628093 8.31377e-05 0.00014021)
(-0.000632949 2.80798e-05 0.00014021)
(-0.000632988 -2.71924e-05 0.00014021)
(-0.000628209 -8.22577e-05 0.000140209)
(-0.000618649 -0.000136697 0.000140209)
(-0.000604382 -0.000190095 0.00014021)
(-0.000585514 -0.000242047 0.00014021)
(-0.00056219 -0.000292157 0.00014021)
(-0.000534587 -0.000340043 0.00014021)
(-0.000502916 -0.000385341 0.00014021)
(-0.000467418 -0.000427707 0.00014021)
(-0.000428363 -0.000466818 0.00014021)
(-0.000386046 -0.000502375 0.00014021)
(-0.000340792 -0.00053411 0.00014021)
(-0.000292945 -0.00056178 0.00014021)
(-0.000242868 -0.000585173 0.00014021)
(-0.000190942 -0.000604114 0.00014021)
(-0.000137564 -0.000618457 0.00014021)
(-8.31377e-05 -0.000628093 0.00014021)
(-2.80798e-05 -0.000632949 0.00014021)
(2.71924e-05 -0.000632988 0.00014021)
(8.22577e-05 -0.000628209 0.000140209)
(5.5035e-05 -0.00065335 0.000155712)
(0.000111768 -0.000646067 0.000155712)
(0.000167652 -0.000633868 0.000155713)
(0.000222259 -0.000616844 0.000155713)
(0.000275175 -0.000595125 0.000155712)
(0.000325996 -0.000568877 0.000155712)
(0.000374337 -0.000538301 0.000155713)
(0.000419827 -0.000503626 0.000155712)
(0.000462124 -0.000465119 0.000155712)
(0.000500903 -0.000423072 0.000155712)
(0.00053587 -0.000377806 0.000155712)
(0.00056676 -0.000329665 0.000155713)
(0.000593335 -0.000279013 0.000155712)
(0.000615394 -0.000226239 0.000155712)
(0.000632771 -0.000171743 0.000155712)
(0.000645331 -0.00011594 0.000155713)
(0.000652981 -5.92547e-05 0.000155712)
(0.00065566 -2.11787e-06 0.000155712)
(0.00065335 5.5035e-05 0.000155712)
(0.000646067 0.000111768 0.000155712)
(0.000633868 0.000167652 0.000155713)
(0.000616844 0.000222259 0.000155713)
(0.000595125 0.000275175 0.000155712)
(0.000568877 0.000325996 0.000155712)
(0.000538301 0.000374337 0.000155713)
(0.000503626 0.000419827 0.000155712)
(0.000465119 0.000462124 0.000155712)
(0.000423072 0.000500903 0.000155712)
(0.000377806 0.00053587 0.000155712)
(0.000329665 0.00056676 0.000155713)
(0.000279013 0.000593335 0.000155712)