/*--------------------------------*- C++ -*----------------------------------*\
| =========                 |                                                 |
| \\      /  F ield         | OpenFOAM: The Open Source CFD Toolbox           |
|  \\    /   O peration     | Version:  2312                                  |
|   \\  /    A nd           | Website:  www.openfoam.com                      |
|    \\/     M anipulation  |                                                 |
\*---------------------------------------------------------------------------*/
FoamFile
{
    version     2.0;
    format      ascii;
    arch        "LSB;label=32;scalar=64";
    class       volTensorField;
    location    "0.8";
    object      F;
}
// * * * * * * * * * * * * * * * * * * * * * * * * * * * * * * * * * * * * * //

dimensions      [0 0 0 0 0 0 0];

internalField   nonuniform List<tensor> 
12960
(
(1.02645 0.0169427 -0.187232 0.0463263 1.01458 0.328405 -0.0428113 -0.00186909 0.97025)
(1.02086 0.0174927 -0.215142 0.0468761 1.02016 0.310837 -0.0424856 -0.0055933 0.97025)
(1.01527 0.0170647 -0.241415 0.046448 1.02575 0.290904 -0.0418363 -0.00927483 0.97025)
(1.00983 0.0156717 -0.26585 0.0450551 1.03119 0.268756 -0.0408689 -0.012886 0.97025)
(1.00472 0.0133561 -0.288262 0.0427397 1.0363 0.244563 -0.0395905 -0.0163989 0.97025)
(1.00009 0.0101883 -0.30848 0.0395721 1.04093 0.218509 -0.0380103 -0.0197868 0.97025)
(0.996082 0.00626471 -0.326351 0.0356482 1.04494 0.190791 -0.0361411 -0.0230246 0.97025)
(0.992815 0.00170434 -0.341737 0.0310878 1.04821 0.161622 -0.0339969 -0.0260871 0.97025)
(0.990388 -0.00335419 -0.354523 0.0260292 1.05064 0.131223 -0.0315942 -0.0289508 0.97025)
(0.988877 -0.00875721 -0.364611 0.0206261 1.05215 0.0998243 -0.0289508 -0.0315939 0.97025)
(0.988328 -0.0143408 -0.371923 0.0150427 1.0527 0.0676666 -0.0260871 -0.0339968 0.97025)
(0.988755 -0.0199352 -0.376406 0.00944868 1.05227 0.0349939 -0.0230245 -0.0361409 0.97025)
(0.990148 -0.0253698 -0.378023 0.00401376 1.05088 0.0020548 -0.0197867 -0.0380101 0.97025)
(0.992464 -0.03048 -0.376764 -0.00109656 1.04856 -0.0308999 -0.0163987 -0.0395902 0.97025)
(0.995632 -0.0351108 -0.372637 -0.00572719 1.04539 -0.0636195 -0.0128858 -0.0408689 0.970249)
(0.999555 -0.0391209 -0.365674 -0.00973734 1.04147 -0.0958549 -0.00927483 -0.0418365 0.97025)
(1.00412 -0.0423889 -0.355928 -0.0130053 1.03691 -0.127361 -0.00559321 -0.0424858 0.97025)
(1.00917 -0.0448154 -0.343474 -0.0154317 1.03185 -0.157897 -0.00186922 -0.0428118 0.97025)
(1.01458 -0.0463263 -0.328405 -0.0169427 1.02645 -0.187232 0.00186909 -0.0428113 0.97025)
(1.02016 -0.0468761 -0.310837 -0.0174927 1.02086 -0.215142 0.0055933 -0.0424856 0.97025)
(1.02575 -0.046448 -0.290904 -0.0170647 1.01527 -0.241415 0.00927483 -0.0418363 0.97025)
(1.03119 -0.0450551 -0.268756 -0.0156717 1.00983 -0.26585 0.012886 -0.0408689 0.97025)
(1.0363 -0.0427397 -0.244563 -0.0133561 1.00472 -0.288262 0.0163989 -0.0395905 0.97025)
(1.04093 -0.0395721 -0.218509 -0.0101883 1.00009 -0.30848 0.0197868 -0.0380103 0.97025)
(1.04494 -0.0356482 -0.190791 -0.00626471 0.996082 -0.326351 0.0230246 -0.0361411 0.97025)
(1.04821 -0.0310878 -0.161622 -0.00170434 0.992815 -0.341737 0.0260871 -0.0339969 0.97025)
(1.05064 -0.0260292 -0.131223 0.00335419 0.990388 -0.354523 0.0289508 -0.0315942 0.97025)
(1.05215 -0.0206261 -0.0998243 0.00875721 0.988877 -0.364611 0.0315939 -0.0289508 0.97025)
(1.0527 -0.0150427 -0.0676666 0.0143408 0.988328 -0.371923 0.0339968 -0.0260871 0.97025)
(1.05227 -0.00944868 -0.0349939 0.0199352 0.988755 -0.376406 0.0361409 -0.0230245 0.97025)
(1.05088 -0.00401376 -0.0020548 0.0253698 0.990148 -0.378023 0.0380101 -0.0197867 0.97025)
(1.04856 0.00109656 0.0308999 0.03048 0.992464 -0.376764 0.0395902 -0.0163987 0.97025)
(1.04539 0.00572719 0.0636195 0.0351108 0.995632 -0.372637 0.0408689 -0.0128858 0.970249)
(1.04147 0.00973734 0.0958549 0.0391209 0.999555 -0.365674 0.0418365 -0.00927483 0.97025)
(1.03691 0.0130053 0.127361 0.0423889 1.00412 -0.355928 0.0424858 -0.00559321 0.97025)
(1.03185 0.0154317 0.157897 0.0448154 1.00917 -0.343474 0.0428118 -0.00186922 0.97025)
(1.02645 0.0169427 0.187232 0.0463263 1.01458 -0.328405 0.0428113 0.00186909 0.97025)
(1.02086 0.0174927 0.215142 0.0468761 1.02016 -0.310837 0.0424856 0.0055933 0.97025)
(1.01527 0.0170647 0.241415 0.046448 1.02575 -0.290904 0.0418363 0.00927483 0.97025)
(1.00983 0.0156717 0.26585 0.0450551 1.03119 -0.268756 0.0408689 0.012886 0.97025)
(1.00472 0.0133561 0.288262 0.0427397 1.0363 -0.244563 0.0395905 0.0163989 0.97025)
(1.00009 0.0101883 0.30848 0.0395721 1.04093 -0.218509 0.0380103 0.0197868 0.97025)
(0.996082 0.00626471 0.326351 0.0356482 1.04494 -0.190791 0.0361411 0.0230246 0.97025)
(0.992815 0.00170434 0.341737 0.0310878 1.04821 -0.161622 0.0339969 0.0260871 0.97025)
(0.990388 -0.00335419 0.354523 0.0260292 1.05064 -0.131223 0.0315942 0.0289508 0.97025)
(0.988877 -0.00875721 0.364611 0.0206261 1.05215 -0.0998243 0.0289508 0.0315939 0.97025)
(0.988328 -0.0143408 0.371923 0.0150427 1.0527 -0.0676666 0.0260871 0.0339968 0.97025)
(0.988755 -0.0199352 0.376406 0.00944868 1.05227 -0.0349939 0.0230245 0.0361409 0.97025)
(0.990148 -0.0253698 0.378023 0.00401376 1.05088 -0.0020548 0.0197867 0.0380101 0.97025)
(0.992464 -0.03048 0.376764 -0.00109656 1.04856 0.0308999 0.0163987 0.0395902 0.97025)
(0.995632 -0.0351108 0.372637 -0.00572719 1.04539 0.0636195 0.0128858 0.0408689 0.970249)
(0.999555 -0.0391209 0.365674 -0.00973734 1.04147 0.0958549 0.00927483 0.0418365 0.97025)
(1.00412 -0.0423889 0.355928 -0.0130053 1.03691 0.127361 0.00559321 0.0424858 0.97025)
(1.00917 -0.0448154 0.343474 -0.0154317 1.03185 0.157897 0.00186922 0.0428118 0.97025)
(1.01458 -0.0463263 0.328405 -0.0169427 1.02645 0.187232 -0.00186909 0.0428113 0.97025)
(1.02016 -0.0468761 0.310837 -0.0174927 1.02086 0.215142 -0.0055933 0.0424856 0.97025)
(1.02575 -0.046448 0.290904 -0.0170647 1.01527 0.241415 -0.00927483 0.0418363 0.97025)
(1.03119 -0.0450551 0.268756 -0.0156717 1.00983 0.26585 -0.012886 0.0408689 0.97025)
(1.0363 -0.0427397 0.244563 -0.0133561 1.00472 0.288262 -0.0163989 0.0395905 0.97025)
(1.04093 -0.0395721 0.218509 -0.0101883 1.00009 0.30848 -0.0197868 0.0380103 0.97025)
(1.04494 -0.0356482 0.190791 -0.00626471 0.996082 0.326351 -0.0230246 0.0361411 0.97025)
(1.04821 -0.0310878 0.161622 -0.00170434 0.992815 0.341737 -0.0260871 0.0339969 0.97025)
(1.05064 -0.0260292 0.131223 0.00335419 0.990388 0.354523 -0.0289508 0.0315942 0.97025)
(1.05215 -0.0206261 0.0998243 0.00875721 0.988877 0.364611 -0.0315939 0.0289508 0.97025)
(1.0527 -0.0150427 0.0676666 0.0143408 0.988328 0.371923 -0.0339968 0.0260871 0.97025)
(1.05227 -0.00944868 0.0349939 0.0199352 0.988755 0.376406 -0.0361409 0.0230245 0.97025)
(1.05088 -0.00401376 0.0020548 0.0253698 0.990148 0.378023 -0.0380101 0.0197867 0.97025)
(1.04856 0.00109656 -0.0308999 0.03048 0.992464 0.376764 -0.0395902 0.0163987 0.97025)
(1.04539 0.00572719 -0.0636195 0.0351108 0.995632 0.372637 -0.0408689 0.0128858 0.970249)
(1.04147 0.00973734 -0.0958549 0.0391209 0.999555 0.365674 -0.0418365 0.00927483 0.97025)
(1.03691 0.0130053 -0.127361 0.0423889 1.00412 0.355928 -0.0424858 0.00559321 0.97025)
(1.03185 0.0154317 -0.157897 0.0448154 1.00917 0.343474 -0.0428118 0.00186922 0.97025)
(1.03695 0.0209162 -0.159546 0.0448396 1.01371 0.36627 -0.0313607 -0.0013692 0.932962)
(1.03107 0.0224346 -0.190862 0.0463579 1.0196 0.350971 -0.031122 -0.00409727 0.932962)
(1.02501 0.0229079 -0.220725 0.0468311 1.02566 0.333001 -0.0306464 -0.00679408 0.932962)
(1.01896 0.0223217 -0.248908 0.0462448 1.03171 0.312496 -0.0299376 -0.00943928 0.932962)
(1.0131 0.0206939 -0.275196 0.0446172 1.03756 0.289613 -0.0290012 -0.0120127 0.932962)
(1.00762 0.0180737 -0.299391 0.0419969 1.04305 0.264526 -0.0278436 -0.0144945 0.932962)
(1.00267 0.0145409 -0.321306 0.0384641 1.048 0.237426 -0.0264744 -0.0168663 0.932962)
(0.998412 0.010203 -0.340777 0.0341262 1.05225 0.208519 -0.0249039 -0.0191095 0.932962)
(0.994972 0.00519169 -0.357653 0.0291149 1.05569 0.178025 -0.0231437 -0.0212072 0.932962)
(0.992455 -0.000340897 -0.371808 0.0235822 1.05821 0.146176 -0.0212073 -0.0231435 0.932962)
(0.990937 -0.00622673 -0.383133 0.0176965 1.05973 0.113214 -0.0191094 -0.0249038 0.932962)
(0.990463 -0.0122868 -0.391543 0.0116365 1.0602 0.0793909 -0.0168661 -0.0264743 0.932962)
(0.99105 -0.0183369 -0.396972 0.00558647 1.05962 0.0449639 -0.0144944 -0.0278436 0.932962)
(0.992677 -0.0241932 -0.39938 -0.000269929 1.05799 0.0101944 -0.0120126 -0.029001 0.932962)
(0.995298 -0.029678 -0.398749 -0.00575465 1.05537 -0.0246528 -0.00943926 -0.0299376 0.932962)
(0.99883 -0.0346246 -0.395083 -0.010701 1.05184 -0.0593121 -0.00679413 -0.0306464 0.932962)
(1.00317 -0.0388825 -0.38841 -0.0149589 1.0475 -0.0935203 -0.00409726 -0.0311221 0.932962)
(1.00818 -0.0423223 -0.378781 -0.0183987 1.04249 -0.127017 -0.00136915 -0.0313609 0.932962)
(1.01371 -0.0448396 -0.36627 -0.0209162 1.03695 -0.159546 0.0013692 -0.0313607 0.932962)
(1.0196 -0.0463579 -0.350971 -0.0224346 1.03107 -0.190862 0.00409727 -0.031122 0.932962)
(1.02566 -0.0468311 -0.333001 -0.0229079 1.02501 -0.220725 0.00679408 -0.0306464 0.932962)
(1.03171 -0.0462448 -0.312496 -0.0223217 1.01896 -0.248908 0.00943928 -0.0299376 0.932962)
(1.03756 -0.0446172 -0.289613 -0.0206939 1.0131 -0.275196 0.0120127 -0.0290012 0.932962)
(1.04305 -0.0419969 -0.264526 -0.0180737 1.00762 -0.299391 0.0144945 -0.0278436 0.932962)
(1.048 -0.0384641 -0.237426 -0.0145409 1.00267 -0.321306 0.0168663 -0.0264744 0.932962)
(1.05225 -0.0341262 -0.208519 -0.010203 0.998412 -0.340777 0.0191095 -0.0249039 0.932962)
(1.05569 -0.0291149 -0.178025 -0.00519169 0.994972 -0.357653 0.0212072 -0.0231437 0.932962)
(1.05821 -0.0235822 -0.146176 0.000340897 0.992455 -0.371808 0.0231435 -0.0212073 0.932962)
(1.05973 -0.0176965 -0.113214 0.00622673 0.990937 -0.383133 0.0249038 -0.0191094 0.932962)
(1.0602 -0.0116365 -0.0793909 0.0122868 0.990463 -0.391543 0.0264743 -0.0168661 0.932962)
(1.05962 -0.00558647 -0.0449639 0.0183369 0.99105 -0.396972 0.0278436 -0.0144944 0.932962)
(1.05799 0.000269929 -0.0101944 0.0241932 0.992677 -0.39938 0.029001 -0.0120126 0.932962)
(1.05537 0.00575465 0.0246528 0.029678 0.995298 -0.398749 0.0299376 -0.00943926 0.932962)
(1.05184 0.010701 0.0593121 0.0346246 0.99883 -0.395083 0.0306464 -0.00679413 0.932962)
(1.0475 0.0149589 0.0935203 0.0388825 1.00317 -0.38841 0.0311221 -0.00409726 0.932962)
(1.04249 0.0183987 0.127017 0.0423223 1.00818 -0.378781 0.0313609 -0.00136915 0.932962)
(1.03695 0.0209162 0.159546 0.0448396 1.01371 -0.36627 0.0313607 0.0013692 0.932962)
(1.03107 0.0224346 0.190862 0.0463579 1.0196 -0.350971 0.031122 0.00409727 0.932962)
(1.02501 0.0229079 0.220725 0.0468311 1.02566 -0.333001 0.0306464 0.00679408 0.932962)
(1.01896 0.0223217 0.248908 0.0462448 1.03171 -0.312496 0.0299376 0.00943928 0.932962)
(1.0131 0.0206939 0.275196 0.0446172 1.03756 -0.289613 0.0290012 0.0120127 0.932962)
(1.00762 0.0180737 0.299391 0.0419969 1.04305 -0.264526 0.0278436 0.0144945 0.932962)
(1.00267 0.0145409 0.321306 0.0384641 1.048 -0.237426 0.0264744 0.0168663 0.932962)
(0.998412 0.010203 0.340777 0.0341262 1.05225 -0.208519 0.0249039 0.0191095 0.932962)
(0.994972 0.00519169 0.357653 0.0291149 1.05569 -0.178025 0.0231437 0.0212072 0.932962)
(0.992455 -0.000340897 0.371808 0.0235822 1.05821 -0.146176 0.0212073 0.0231435 0.932962)
(0.990937 -0.00622673 0.383133 0.0176965 1.05973 -0.113214 0.0191094 0.0249038 0.932962)
(0.990463 -0.0122868 0.391543 0.0116365 1.0602 -0.0793909 0.0168661 0.0264743 0.932962)
(0.99105 -0.0183369 0.396972 0.00558647 1.05962 -0.0449639 0.0144944 0.0278436 0.932962)
(0.992677 -0.0241932 0.39938 -0.000269929 1.05799 -0.0101944 0.0120126 0.029001 0.932962)
(0.995298 -0.029678 0.398749 -0.00575465 1.05537 0.0246528 0.00943926 0.0299376 0.932962)
(0.99883 -0.0346246 0.395083 -0.010701 1.05184 0.0593121 0.00679413 0.0306464 0.932962)
(1.00317 -0.0388825 0.38841 -0.0149589 1.0475 0.0935203 0.00409726 0.0311221 0.932962)
(1.00818 -0.0423223 0.378781 -0.0183987 1.04249 0.127017 0.00136915 0.0313609 0.932962)
(1.01371 -0.0448396 0.36627 -0.0209162 1.03695 0.159546 -0.0013692 0.0313607 0.932962)
(1.0196 -0.0463579 0.350971 -0.0224346 1.03107 0.190862 -0.00409727 0.031122 0.932962)
(1.02566 -0.0468311 0.333001 -0.0229079 1.02501 0.220725 -0.00679408 0.0306464 0.932962)
(1.03171 -0.0462448 0.312496 -0.0223217 1.01896 0.248908 -0.00943928 0.0299376 0.932962)
(1.03756 -0.0446172 0.289613 -0.0206939 1.0131 0.275196 -0.0120127 0.0290012 0.932962)
(1.04305 -0.0419969 0.264526 -0.0180737 1.00762 0.299391 -0.0144945 0.0278436 0.932962)
(1.048 -0.0384641 0.237426 -0.0145409 1.00267 0.321306 -0.0168663 0.0264744 0.932962)
(1.05225 -0.0341262 0.208519 -0.010203 0.998412 0.340777 -0.0191095 0.0249039 0.932962)
(1.05569 -0.0291149 0.178025 -0.00519169 0.994972 0.357653 -0.0212072 0.0231437 0.932962)
(1.05821 -0.0235822 0.146176 0.000340897 0.992455 0.371808 -0.0231435 0.0212073 0.932962)
(1.05973 -0.0176965 0.113214 0.00622673 0.990937 0.383133 -0.0249038 0.0191094 0.932962)
(1.0602 -0.0116365 0.0793909 0.0122868 0.990463 0.391543 -0.0264743 0.0168661 0.932962)
(1.05962 -0.00558647 0.0449639 0.0183369 0.99105 0.396972 -0.0278436 0.0144944 0.932962)
(1.05799 0.000269929 0.0101944 0.0241932 0.992677 0.39938 -0.029001 0.0120126 0.932962)
(1.05537 0.00575465 -0.0246528 0.029678 0.995298 0.398749 -0.0299376 0.00943926 0.932962)
(1.05184 0.010701 -0.0593121 0.0346246 0.99883 0.395083 -0.0306464 0.00679413 0.932962)
(1.0475 0.0149589 -0.0935203 0.0388825 1.00317 0.38841 -0.0311221 0.00409726 0.932962)
(1.04249 0.0183987 -0.127017 0.0423223 1.00818 0.378781 -0.0313609 0.00136915 0.932962)
(1.05517 0.0254462 -0.123351 0.0389666 1.01128 0.402551 -0.012776 -0.000557839 0.90378)
(1.04924 0.0287679 -0.157967 0.0422881 1.0172 0.390268 -0.0126787 -0.00166918 0.90378)
(1.04283 0.03101 -0.191379 0.0445303 1.02362 0.375016 -0.0124851 -0.00276786 0.90378)
(1.03613 0.0321048 -0.223336 0.0456249 1.03032 0.356909 -0.0121963 -0.00384541 0.90378)
(1.02933 0.0320183 -0.253593 0.0455387 1.03711 0.336086 -0.0118148 -0.00489391 0.90378)
(1.02266 0.0307538 -0.281919 0.0442741 1.04379 0.312705 -0.0113433 -0.00590498 0.90378)
(1.01631 0.0283495 -0.3081 0.0418697 1.05014 0.286944 -0.0107856 -0.00687117 0.90378)
(1.01047 0.0248783 -0.331937 0.0383986 1.05598 0.258999 -0.0101457 -0.00778514 0.90378)
(1.00532 0.0204459 -0.353247 0.0339661 1.06113 0.229084 -0.00942844 -0.00863957 0.90378)
(1.00102 0.0151867 -0.371869 0.028707 1.06543 0.197424 -0.00863962 -0.00942837 0.90378)
(0.997696 0.00926063 -0.38766 0.022781 1.06875 0.164262 -0.00778504 -0.0101455 0.90378)
(0.995454 0.00284785 -0.400502 0.0163682 1.07099 0.129851 -0.00687109 -0.0107855 0.90378)
(0.994359 -0.00385683 -0.410295 0.00966335 1.07209 0.0944504 -0.00590491 -0.0113433 0.90378)
(0.994445 -0.0106497 -0.416965 0.00287042 1.072 0.0583313 -0.00489378 -0.0118146 0.90378)
(0.99571 -0.0173246 -0.420463 -0.00380421 1.07074 0.0217686 -0.00384547 -0.0121964 0.90378)
(0.998114 -0.0236785 -0.42076 -0.0101581 1.06833 -0.0149603 -0.00276791 -0.0124849 0.90378)
(1.00159 -0.0295181 -0.417855 -0.0159977 1.06486 -0.051575 -0.0016692 -0.0126786 0.90378)
(1.00602 -0.0346663 -0.41177 -0.0211459 1.06043 -0.0877972 -0.000557759 -0.012776 0.90378)
(1.01128 -0.0389666 -0.402551 -0.0254462 1.05517 -0.123351 0.000557839 -0.012776 0.90378)
(1.0172 -0.0422881 -0.390268 -0.0287679 1.04924 -0.157967 0.00166918 -0.0126787 0.90378)
(1.02362 -0.0445303 -0.375016 -0.03101 1.04283 -0.191379 0.00276786 -0.0124851 0.90378)
(1.03032 -0.0456249 -0.356909 -0.0321048 1.03613 -0.223336 0.00384541 -0.0121963 0.90378)
(1.03711 -0.0455387 -0.336086 -0.0320183 1.02933 -0.253593 0.00489391 -0.0118148 0.90378)
(1.04379 -0.0442741 -0.312705 -0.0307538 1.02266 -0.281919 0.00590498 -0.0113433 0.90378)
(1.05014 -0.0418697 -0.286944 -0.0283495 1.01631 -0.3081 0.00687117 -0.0107856 0.90378)
(1.05598 -0.0383986 -0.258999 -0.0248783 1.01047 -0.331937 0.00778514 -0.0101457 0.90378)
(1.06113 -0.0339661 -0.229084 -0.0204459 1.00532 -0.353247 0.00863957 -0.00942844 0.90378)
(1.06543 -0.028707 -0.197424 -0.0151867 1.00102 -0.371869 0.00942837 -0.00863962 0.90378)
(1.06875 -0.022781 -0.164262 -0.00926063 0.997696 -0.38766 0.0101455 -0.00778504 0.90378)
(1.07099 -0.0163682 -0.129851 -0.00284785 0.995454 -0.400502 0.0107855 -0.00687109 0.90378)
(1.07209 -0.00966335 -0.0944504 0.00385683 0.994359 -0.410295 0.0113433 -0.00590491 0.90378)
(1.072 -0.00287042 -0.0583313 0.0106497 0.994445 -0.416965 0.0118146 -0.00489378 0.90378)
(1.07074 0.00380421 -0.0217686 0.0173246 0.99571 -0.420463 0.0121964 -0.00384547 0.90378)
(1.06833 0.0101581 0.0149603 0.0236785 0.998114 -0.42076 0.0124849 -0.00276791 0.90378)
(1.06486 0.0159977 0.051575 0.0295181 1.00159 -0.417855 0.0126786 -0.0016692 0.90378)
(1.06043 0.0211459 0.0877972 0.0346663 1.00602 -0.41177 0.012776 -0.000557759 0.90378)
(1.05517 0.0254462 0.123351 0.0389666 1.01128 -0.402551 0.012776 0.000557839 0.90378)
(1.04924 0.0287679 0.157967 0.0422881 1.0172 -0.390268 0.0126787 0.00166918 0.90378)
(1.04283 0.03101 0.191379 0.0445303 1.02362 -0.375016 0.0124851 0.00276786 0.90378)
(1.03613 0.0321048 0.223336 0.0456249 1.03032 -0.356909 0.0121963 0.00384541 0.90378)
(1.02933 0.0320183 0.253593 0.0455387 1.03711 -0.336086 0.0118148 0.00489391 0.90378)
(1.02266 0.0307538 0.281919 0.0442741 1.04379 -0.312705 0.0113433 0.00590498 0.90378)
(1.01631 0.0283495 0.3081 0.0418697 1.05014 -0.286944 0.0107856 0.00687117 0.90378)
(1.01047 0.0248783 0.331937 0.0383986 1.05598 -0.258999 0.0101457 0.00778514 0.90378)
(1.00532 0.0204459 0.353247 0.0339661 1.06113 -0.229084 0.00942844 0.00863957 0.90378)
(1.00102 0.0151867 0.371869 0.028707 1.06543 -0.197424 0.00863962 0.00942837 0.90378)
(0.997696 0.00926063 0.38766 0.022781 1.06875 -0.164262 0.00778504 0.0101455 0.90378)
(0.995454 0.00284785 0.400502 0.0163682 1.07099 -0.129851 0.00687109 0.0107855 0.90378)
(0.994359 -0.00385683 0.410295 0.00966335 1.07209 -0.0944504 0.00590491 0.0113433 0.90378)
(0.994445 -0.0106497 0.416965 0.00287042 1.072 -0.0583313 0.00489378 0.0118146 0.90378)
(0.99571 -0.0173246 0.420463 -0.00380421 1.07074 -0.0217686 0.00384547 0.0121964 0.90378)
(0.998114 -0.0236785 0.42076 -0.0101581 1.06833 0.0149603 0.00276791 0.0124849 0.90378)
(1.00159 -0.0295181 0.417855 -0.0159977 1.06486 0.051575 0.0016692 0.0126786 0.90378)
(1.00602 -0.0346663 0.41177 -0.0211459 1.06043 0.0877972 0.000557759 0.012776 0.90378)
(1.01128 -0.0389666 0.402551 -0.0254462 1.05517 0.123351 -0.000557839 0.012776 0.90378)
(1.0172 -0.0422881 0.390268 -0.0287679 1.04924 0.157967 -0.00166918 0.0126787 0.90378)
(1.02362 -0.0445303 0.375016 -0.03101 1.04283 0.191379 -0.00276786 0.0124851 0.90378)
(1.03032 -0.0456249 0.356909 -0.0321048 1.03613 0.223336 -0.00384541 0.0121963 0.90378)
(1.03711 -0.0455387 0.336086 -0.0320183 1.02933 0.253593 -0.00489391 0.0118148 0.90378)
(1.04379 -0.0442741 0.312705 -0.0307538 1.02266 0.281919 -0.00590498 0.0113433 0.90378)
(1.05014 -0.0418697 0.286944 -0.0283495 1.01631 0.3081 -0.00687117 0.0107856 0.90378)
(1.05598 -0.0383986 0.258999 -0.0248783 1.01047 0.331937 -0.00778514 0.0101457 0.90378)
(1.06113 -0.0339661 0.229084 -0.0204459 1.00532 0.353247 -0.00863957 0.00942844 0.90378)
(1.06543 -0.028707 0.197424 -0.0151867 1.00102 0.371869 -0.00942837 0.00863962 0.90378)
(1.06875 -0.022781 0.164262 -0.00926063 0.997696 0.38766 -0.0101455 0.00778504 0.90378)
(1.07099 -0.0163682 0.129851 -0.00284785 0.995454 0.400502 -0.0107855 0.00687109 0.90378)
(1.07209 -0.00966335 0.0944504 0.00385683 0.994359 0.410295 -0.0113433 0.00590491 0.90378)
(1.072 -0.00287042 0.0583313 0.0106497 0.994445 0.416965 -0.0118146 0.00489378 0.90378)
(1.07074 0.00380421 0.0217686 0.0173246 0.99571 0.420463 -0.0121964 0.00384547 0.90378)
(1.06833 0.0101581 -0.0149603 0.0236785 0.998114 0.42076 -0.0124849 0.00276791 0.90378)
(1.06486 0.0159977 -0.051575 0.0295181 1.00159 0.417855 -0.0126786 0.0016692 0.90378)
(1.06043 0.0211459 -0.0877972 0.0346663 1.00602 0.41177 -0.012776 0.000557759 0.90378)
(1.07071 0.0297631 -0.0811937 0.0292942 1.00746 0.433808 -0.00579778 -0.000253129 0.883754)
(1.06511 0.0348061 -0.118694 0.0343372 1.01307 0.425081 -0.00575371 -0.000757461 0.883753)
(1.05871 0.0387986 -0.15529 0.0383296 1.01947 0.413119 -0.00566589 -0.00125602 0.883753)
(1.05171 0.0416192 -0.190705 0.0411505 1.02647 0.398012 -0.00553478 -0.00174497 0.883753)
(1.04434 0.0431825 -0.224668 0.0427139 1.03384 0.379877 -0.00536164 -0.00222089 0.883753)
(1.0368 0.0434408 -0.256922 0.0429721 1.04138 0.35885 -0.00514769 -0.00267979 0.883753)
(1.02933 0.0423865 -0.28722 0.0419175 1.04885 0.335092 -0.00489454 -0.00311819 0.883753)
(1.02216 0.0400514 -0.315332 0.0395823 1.05602 0.308785 -0.00460411 -0.00353305 0.883753)
(1.0155 0.0365066 -0.341044 0.0360375 1.06268 0.280126 -0.0042785 -0.00392062 0.883753)
(1.00956 0.0318593 -0.364161 0.0313905 1.06862 0.249336 -0.00392069 -0.00427851 0.883753)
(1.00452 0.0262511 -0.384507 0.0257823 1.07366 0.216649 -0.00353293 -0.00460401 0.883753)
(1.00053 0.0198526 -0.401926 0.0193836 1.07765 0.182313 -0.00311818 -0.00489453 0.883753)
(0.997705 0.012858 -0.416286 0.012389 1.08047 0.146589 -0.00267962 -0.00514759 0.883753)
(0.996141 0.00547982 -0.427478 0.00501091 1.08204 0.109749 -0.00222086 -0.00536151 0.883753)
(0.995883 -0.00205775 -0.435416 -0.00252667 1.0823 0.0720741 -0.00174502 -0.00553471 0.883753)
(0.996938 -0.00952587 -0.440041 -0.00999451 1.08124 0.0338509 -0.00125601 -0.0056659 0.883753)
(0.999273 -0.0166973 -0.441317 -0.017166 1.07891 -0.00463006 -0.000757496 -0.00575362 0.883753)
(1.00282 -0.0233541 -0.439234 -0.023823 1.07536 -0.0430759 -0.000253113 -0.00579775 0.883754)
(1.00746 -0.0292942 -0.433808 -0.0297631 1.07071 -0.0811937 0.000253129 -0.00579778 0.883754)
(1.01307 -0.0343372 -0.425081 -0.0348061 1.06511 -0.118694 0.000757461 -0.00575371 0.883753)
(1.01947 -0.0383296 -0.413119 -0.0387986 1.05871 -0.15529 0.00125602 -0.00566589 0.883753)
(1.02647 -0.0411505 -0.398012 -0.0416192 1.05171 -0.190705 0.00174497 -0.00553478 0.883753)
(1.03384 -0.0427139 -0.379877 -0.0431825 1.04434 -0.224668 0.00222089 -0.00536164 0.883753)
(1.04138 -0.0429721 -0.35885 -0.0434408 1.0368 -0.256922 0.00267979 -0.00514769 0.883753)
(1.04885 -0.0419175 -0.335092 -0.0423865 1.02933 -0.28722 0.00311819 -0.00489454 0.883753)
(1.05602 -0.0395823 -0.308785 -0.0400514 1.02216 -0.315332 0.00353305 -0.00460411 0.883753)
(1.06268 -0.0360375 -0.280126 -0.0365066 1.0155 -0.341044 0.00392062 -0.0042785 0.883753)
(1.06862 -0.0313905 -0.249336 -0.0318593 1.00956 -0.364161 0.00427851 -0.00392069 0.883753)
(1.07366 -0.0257823 -0.216649 -0.0262511 1.00452 -0.384507 0.00460401 -0.00353293 0.883753)
(1.07765 -0.0193836 -0.182313 -0.0198526 1.00053 -0.401926 0.00489453 -0.00311818 0.883753)
(1.08047 -0.012389 -0.146589 -0.012858 0.997705 -0.416286 0.00514759 -0.00267962 0.883753)
(1.08204 -0.00501091 -0.109749 -0.00547982 0.996141 -0.427478 0.00536151 -0.00222086 0.883753)
(1.0823 0.00252667 -0.0720741 0.00205775 0.995883 -0.435416 0.00553471 -0.00174502 0.883753)
(1.08124 0.00999451 -0.0338509 0.00952587 0.996938 -0.440041 0.0056659 -0.00125601 0.883753)
(1.07891 0.017166 0.00463006 0.0166973 0.999273 -0.441317 0.00575362 -0.000757496 0.883753)
(1.07536 0.023823 0.0430759 0.0233541 1.00282 -0.439234 0.00579775 -0.000253113 0.883754)
(1.07071 0.0297631 0.0811937 0.0292942 1.00746 -0.433808 0.00579778 0.000253129 0.883754)
(1.06511 0.0348061 0.118694 0.0343372 1.01307 -0.425081 0.00575371 0.000757461 0.883753)
(1.05871 0.0387986 0.15529 0.0383296 1.01947 -0.413119 0.00566589 0.00125602 0.883753)
(1.05171 0.0416192 0.190705 0.0411505 1.02647 -0.398012 0.00553478 0.00174497 0.883753)
(1.04434 0.0431825 0.224668 0.0427139 1.03384 -0.379877 0.00536164 0.00222089 0.883753)
(1.0368 0.0434408 0.256922 0.0429721 1.04138 -0.35885 0.00514769 0.00267979 0.883753)
(1.02933 0.0423865 0.28722 0.0419175 1.04885 -0.335092 0.00489454 0.00311819 0.883753)
(1.02216 0.0400514 0.315332 0.0395823 1.05602 -0.308785 0.00460411 0.00353305 0.883753)
(1.0155 0.0365066 0.341044 0.0360375 1.06268 -0.280126 0.0042785 0.00392062 0.883753)
(1.00956 0.0318593 0.364161 0.0313905 1.06862 -0.249336 0.00392069 0.00427851 0.883753)
(1.00452 0.0262511 0.384507 0.0257823 1.07366 -0.216649 0.00353293 0.00460401 0.883753)
(1.00053 0.0198526 0.401926 0.0193836 1.07765 -0.182313 0.00311818 0.00489453 0.883753)
(0.997705 0.012858 0.416286 0.012389 1.08047 -0.146589 0.00267962 0.00514759 0.883753)
(0.996141 0.00547982 0.427478 0.00501091 1.08204 -0.109749 0.00222086 0.00536151 0.883753)
(0.995883 -0.00205775 0.435416 -0.00252667 1.0823 -0.0720741 0.00174502 0.00553471 0.883753)
(0.996938 -0.00952587 0.440041 -0.00999451 1.08124 -0.0338509 0.00125601 0.0056659 0.883753)
(0.999273 -0.0166973 0.441317 -0.017166 1.07891 0.00463006 0.000757496 0.00575362 0.883753)
(1.00282 -0.0233541 0.439234 -0.023823 1.07536 0.0430759 0.000253113 0.00579775 0.883754)
(1.00746 -0.0292942 0.433808 -0.0297631 1.07071 0.0811937 -0.000253129 0.00579778 0.883754)
(1.01307 -0.0343372 0.425081 -0.0348061 1.06511 0.118694 -0.000757461 0.00575371 0.883753)
(1.01947 -0.0383296 0.413119 -0.0387986 1.05871 0.15529 -0.00125602 0.00566589 0.883753)
(1.02647 -0.0411505 0.398012 -0.0416192 1.05171 0.190705 -0.00174497 0.00553478 0.883753)
(1.03384 -0.0427139 0.379877 -0.0431825 1.04434 0.224668 -0.00222089 0.00536164 0.883753)
(1.04138 -0.0429721 0.35885 -0.0434408 1.0368 0.256922 -0.00267979 0.00514769 0.883753)
(1.04885 -0.0419175 0.335092 -0.0423865 1.02933 0.28722 -0.00311819 0.00489454 0.883753)
(1.05602 -0.0395823 0.308785 -0.0400514 1.02216 0.315332 -0.00353305 0.00460411 0.883753)
(1.06268 -0.0360375 0.280126 -0.0365066 1.0155 0.341044 -0.00392062 0.0042785 0.883753)
(1.06862 -0.0313905 0.249336 -0.0318593 1.00956 0.364161 -0.00427851 0.00392069 0.883753)
(1.07366 -0.0257823 0.216649 -0.0262511 1.00452 0.384507 -0.00460401 0.00353293 0.883753)
(1.07765 -0.0193836 0.182313 -0.0198526 1.00053 0.401926 -0.00489453 0.00311818 0.883753)
(1.08047 -0.012389 0.146589 -0.012858 0.997705 0.416286 -0.00514759 0.00267962 0.883753)
(1.08204 -0.00501091 0.109749 -0.00547982 0.996141 0.427478 -0.00536151 0.00222086 0.883753)
(1.0823 0.00252667 0.0720741 0.00205775 0.995883 0.435416 -0.00553471 0.00174502 0.883753)
(1.08124 0.00999451 0.0338509 0.00952587 0.996938 0.440041 -0.0056659 0.00125601 0.883753)
(1.07891 0.017166 -0.00463006 0.0166973 0.999273 0.441317 -0.00575362 0.000757496 0.883753)
(1.07536 0.023823 -0.0430759 0.0233541 1.00282 0.439234 -0.00579775 0.000253113 0.883754)
(1.09588 0.0342522 -0.033465 0.0209149 1.00215 0.457186 -0.00638343 -0.000278686 0.870597)
(1.09038 0.0419709 -0.073184 0.0286341 1.00766 0.452529 -0.00633504 -0.000833916 0.870597)
(1.08362 0.0486173 -0.112346 0.0352804 1.01441 0.444429 -0.00623812 -0.00138291 0.870597)
(1.07581 0.0539891 -0.150653 0.0406524 1.02222 0.432946 -0.00609354 -0.00192126 0.870597)
(1.06719 0.0579229 -0.187813 0.0445861 1.03085 0.418168 -0.00590274 -0.00244495 0.870597)
(1.05801 0.0602991 -0.223544 0.0469626 1.04003 0.400208 -0.0056674 -0.00295023 0.870597)
(1.04856 0.0610461 -0.257574 0.0477093 1.04947 0.379202 -0.00538862 -0.00343293 0.870597)
(1.03913 0.0601412 -0.289643 0.046804 1.05891 0.35531 -0.00506891 -0.00388986 0.870597)
(1.02999 0.0576113 -0.319509 0.0442745 1.06805 0.328714 -0.00471078 -0.00431686 0.870597)
(1.02144 0.0535336 -0.346942 0.0401965 1.0766 0.299616 -0.00431689 -0.00471077 0.870597)
(1.01372 0.0480311 -0.371735 0.0346945 1.08432 0.268238 -0.00388987 -0.00506899 0.870597)
(1.00707 0.0412726 -0.393699 0.0279358 1.09097 0.234818 -0.00343294 -0.00538872 0.870597)
(1.0017 0.0334628 -0.412667 0.0201257 1.09634 0.199611 -0.00294998 -0.00566727 0.870597)
(0.997765 0.0248386 -0.428493 0.0115018 1.10027 0.162885 -0.00244494 -0.00590263 0.870597)
(0.995388 0.0156625 -0.441059 0.00232559 1.10265 0.12492 -0.0019213 -0.00609316 0.870597)
(0.994641 0.0062128 -0.450268 -0.00712423 1.1034 0.0860038 -0.00138298 -0.00623813 0.870597)
(0.995546 -0.00322285 -0.456051 -0.0165601 1.10249 0.0464328 -0.000833903 -0.00633498 0.870597)
(0.998076 -0.0123583 -0.458363 -0.0256952 1.09996 0.00650876 -0.000278678 -0.00638355 0.870597)
(1.00215 -0.0209149 -0.457186 -0.0342522 1.09588 -0.033465 0.000278686 -0.00638343 0.870597)
(1.00766 -0.0286341 -0.452529 -0.0419709 1.09038 -0.073184 0.000833916 -0.00633504 0.870597)
(1.01441 -0.0352804 -0.444429 -0.0486173 1.08362 -0.112346 0.00138291 -0.00623812 0.870597)
(1.02222 -0.0406524 -0.432946 -0.0539891 1.07581 -0.150653 0.00192126 -0.00609354 0.870597)
(1.03085 -0.0445861 -0.418168 -0.0579229 1.06719 -0.187813 0.00244495 -0.00590274 0.870597)
(1.04003 -0.0469626 -0.400208 -0.0602991 1.05801 -0.223544 0.00295023 -0.0056674 0.870597)
(1.04947 -0.0477093 -0.379202 -0.0610461 1.04856 -0.257574 0.00343293 -0.00538862 0.870597)
(1.05891 -0.046804 -0.35531 -0.0601412 1.03913 -0.289643 0.00388986 -0.00506891 0.870597)
(1.06805 -0.0442745 -0.328714 -0.0576113 1.02999 -0.319509 0.00431686 -0.00471078 0.870597)
(1.0766 -0.0401965 -0.299616 -0.0535336 1.02144 -0.346942 0.00471077 -0.00431689 0.870597)
(1.08432 -0.0346945 -0.268238 -0.0480311 1.01372 -0.371735 0.00506899 -0.00388987 0.870597)
(1.09097 -0.0279358 -0.234818 -0.0412726 1.00707 -0.393699 0.00538872 -0.00343294 0.870597)
(1.09634 -0.0201257 -0.199611 -0.0334628 1.0017 -0.412667 0.00566727 -0.00294998 0.870597)
(1.10027 -0.0115018 -0.162885 -0.0248386 0.997765 -0.428493 0.00590263 -0.00244494 0.870597)
(1.10265 -0.00232559 -0.12492 -0.0156625 0.995388 -0.441059 0.00609316 -0.0019213 0.870597)
(1.1034 0.00712423 -0.0860038 -0.0062128 0.994641 -0.450268 0.00623813 -0.00138298 0.870597)
(1.10249 0.0165601 -0.0464328 0.00322285 0.995546 -0.456051 0.00633498 -0.000833903 0.870597)
(1.09996 0.0256952 -0.00650876 0.0123583 0.998076 -0.458363 0.00638355 -0.000278678 0.870597)
(1.09588 0.0342522 0.033465 0.0209149 1.00215 -0.457186 0.00638343 0.000278686 0.870597)
(1.09038 0.0419709 0.073184 0.0286341 1.00766 -0.452529 0.00633504 0.000833916 0.870597)