/*--------------------------------*- C++ -*----------------------------------*\
| =========                 |                                                 |
| \\      /  F ield         | OpenFOAM: The Open Source CFD Toolbox           |
|  \\    /   O peration     | Version:  2312                                  |
|   \\  /    A nd           | Website:  www.openfoam.com                      |
|    \\/     M anipulation  |                                                 |
\*---------------------------------------------------------------------------*/
FoamFile
{
    version     2.0;
    format      ascii;
    arch        "LSB;label=32;scalar=64";
    class       volSymmTensorField;
    location    "0.8";
    object      sigma;
}
// * * * * * * * * * * * * * * * * * * * * * * * * * * * * * * * * * * * * * //

dimensions      [1 -1 -2 0 0 0 0];

internalField   nonuniform List<symmTensor> 
12960
(
(2594.69 977.087 -5622.16 6351.12 -11898.3 44871.1)
(2453.65 636.103 -4563.72 6492.47 -12343.2 44871)
(2373.78 275.777 -3470.7 6571.85 -12693.6 44871.2)
(2357.79 -92.9156 -2351.13 6587.94 -12947.9 44871.2)
(2405.98 -458.79 -1213.68 6539.64 -13103.6 44871.1)
(2517.26 -810.769 -66.8686 6428.92 -13159.7 44871.1)
(2687.82 -1138.01 1080.15 6258.35 -13115.2 44871.4)
(2912.66 -1430.71 2219.06 6033.67 -12971.1 44871.5)
(3184.88 -1680.11 3341.49 5761.77 -12728.7 44871.2)
(3496.17 -1878.32 4438.16 5450.42 -12389.1 44871.1)
(3836.85 -2019.28 5500.62 5109.01 -11954.8 44871.3)
(4197.29 -2099.09 6521.69 4748.85 -11430 44871.4)
(4566.05 -2115.19 7493.35 4380.17 -10818.2 44871.1)
(4931.58 -2066.82 8407.42 4014.01 -10123.8 44871.1)
(5283.48 -1955.74 9257.73 3662.07 -9352.53 44871.1)
(5610.93 -1785.23 10037.5 3334.98 -8510.09 44871.4)
(5903.83 -1560.58 10741.5 3042.21 -7602.86 44871)
(6152.92 -1288.39 11363.1 2792.89 -6637.77 44871)
(6351.12 -977.087 11898.3 2594.69 -5622.16 44871.1)
(6492.47 -636.103 12343.2 2453.65 -4563.72 44871)
(6571.85 -275.777 12693.6 2373.78 -3470.7 44871.2)
(6587.94 92.9156 12947.9 2357.79 -2351.13 44871.2)
(6539.64 458.79 13103.6 2405.98 -1213.68 44871.1)
(6428.92 810.769 13159.7 2517.26 -66.8686 44871.1)
(6258.35 1138.01 13115.2 2687.82 1080.15 44871.4)
(6033.67 1430.71 12971.1 2912.66 2219.06 44871.5)
(5761.77 1680.11 12728.7 3184.88 3341.49 44871.2)
(5450.42 1878.32 12389.1 3496.17 4438.16 44871.1)
(5109.01 2019.28 11954.8 3836.85 5500.62 44871.3)
(4748.85 2099.09 11430 4197.29 6521.69 44871.4)
(4380.17 2115.19 10818.2 4566.05 7493.35 44871.1)
(4014.01 2066.83 10123.8 4931.58 8407.42 44871.1)
(3662.07 1955.74 9352.53 5283.48 9257.73 44871.1)
(3334.98 1785.23 8510.09 5610.93 10037.5 44871.4)
(3042.21 1560.58 7602.86 5903.83 10741.5 44871)
(2792.89 1288.39 6637.77 6152.92 11363.1 44871)
(2594.69 977.087 5622.16 6351.12 11898.3 44871.1)
(2453.65 636.103 4563.72 6492.47 12343.2 44871)
(2373.78 275.777 3470.7 6571.85 12693.6 44871.2)
(2357.79 -92.9156 2351.13 6587.94 12947.9 44871.2)
(2405.98 -458.79 1213.68 6539.64 13103.6 44871.1)
(2517.26 -810.769 66.8686 6428.92 13159.7 44871.1)
(2687.82 -1138.01 -1080.15 6258.35 13115.2 44871.4)
(2912.66 -1430.71 -2219.06 6033.67 12971.1 44871.5)
(3184.88 -1680.11 -3341.49 5761.77 12728.7 44871.2)
(3496.17 -1878.32 -4438.16 5450.42 12389.1 44871.1)
(3836.85 -2019.28 -5500.62 5109.01 11954.8 44871.3)
(4197.29 -2099.09 -6521.69 4748.85 11430 44871.4)
(4566.05 -2115.19 -7493.35 4380.17 10818.2 44871.1)
(4931.58 -2066.83 -8407.42 4014.01 10123.8 44871.1)
(5283.48 -1955.74 -9257.73 3662.07 9352.53 44871.1)
(5610.93 -1785.23 -10037.5 3334.98 8510.09 44871.4)
(5903.83 -1560.58 -10741.5 3042.21 7602.86 44871)
(6152.92 -1288.39 -11363.1 2792.89 6637.77 44871)
(6351.12 -977.087 -11898.3 2594.69 5622.16 44871.1)
(6492.47 -636.103 -12343.2 2453.65 4563.72 44871)
(6571.85 -275.777 -12693.6 2373.78 3470.7 44871.2)
(6587.94 92.9156 -12947.9 2357.79 2351.13 44871.2)
(6539.64 458.79 -13103.6 2405.98 1213.68 44871.1)
(6428.92 810.769 -13159.7 2517.26 66.8686 44871.1)
(6258.35 1138.01 -13115.2 2687.82 -1080.15 44871.4)
(6033.67 1430.71 -12971.1 2912.66 -2219.06 44871.5)
(5761.77 1680.11 -12728.7 3184.88 -3341.49 44871.2)
(5450.42 1878.32 -12389.1 3496.17 -4438.16 44871.1)
(5109.01 2019.28 -11954.8 3836.85 -5500.62 44871.3)
(4748.85 2099.09 -11430 4197.29 -6521.69 44871.4)
(4380.17 2115.19 -10818.2 4566.05 -7493.35 44871.1)
(4014.01 2066.82 -10123.8 4931.58 -8407.42 44871.1)
(3662.07 1955.74 -9352.53 5283.48 -9257.73 44871.1)
(3334.98 1785.23 -8510.09 5610.93 -10037.5 44871.4)
(3042.21 1560.58 -7602.86 5903.83 -10741.5 44871)
(2792.89 1288.39 -6637.77 6152.92 -11363.1 44871)
(-24513.6 1694.69 -2565.98 -3313.42 -22028.3 7.97949)
(-24646.6 -171.739 -636.321 -3179.94 -22168.1 8.11262)
(-24453.8 -2032.92 1298.15 -3373.08 -22139.2 8.23232)
(-23940.9 -3832.36 3222.77 -3886.46 -21941.8 7.91709)
(-23122.8 -5515.37 5122.87 -4703.89 -21577.4 8.13349)
(-22025.4 -7030.83 6984 -5801.72 -21048.8 7.81198)
(-20681.4 -8332.57 8791.92 -7146.01 -20360 7.78858)
(-19131.6 -9381.15 10533 -8695.75 -19516.3 7.95978)
(-17423.1 -10144.9 12193.9 -10403.9 -18524 7.64237)
(-15608.2 -10600.2 13762 -12218.8 -17390.8 7.6478)
(-13742 -10733.3 15225.2 -14085.4 -16125.2 7.92467)
(-11880.8 -10540.4 16572.7 -15946.7 -14736.8 7.71328)
(-10081.3 -10027.3 17794.1 -17746.1 -13236.3 7.62573)
(-8397.97 -9209.44 18880 -19428.7 -11635.1 8.18192)
(-6882.95 -8111.79 19822.2 -20944.5 -9945.37 7.85166)
(-5581.03 -6767.64 20613.5 -22246.1 -8179.88 8.0925)
(-4532.1 -5217.93 21248 -23294.6 -6352.15 8.05299)
(-3768.68 -3509.62 21720.8 -24058.2 -4476.1 8.03167)
(-3313.42 -1694.69 22028.3 -24513.6 -2565.98 7.97949)
(-3179.94 171.739 22168.1 -24646.6 -636.321 8.11263)
(-3373.08 2032.92 22139.2 -24453.8 1298.15 8.23233)
(-3886.46 3832.36 21941.8 -23940.9 3222.77 7.9171)
(-4703.89 5515.37 21577.4 -23122.8 5122.87 8.13351)
(-5801.72 7030.83 21048.8 -22025.4 6984 7.812)
(-7146.01 8332.57 20360 -20681.4 8791.92 7.78861)
(-8695.75 9381.15 19516.3 -19131.6 10533 7.95981)
(-10403.9 10144.9 18524 -17423.1 12193.9 7.6424)
(-12218.8 10600.2 17390.8 -15608.2 13762 7.64784)
(-14085.4 10733.3 16125.2 -13742 15225.2 7.92471)
(-15946.7 10540.4 14736.8 -11880.8 16572.7 7.71332)
(-17746.1 10027.3 13236.3 -10081.3 17794.1 7.62577)
(-19428.7 9209.44 11635.1 -8397.97 18880 8.18197)
(-20944.5 8111.79 9945.37 -6882.95 19822.2 7.85171)
(-22246.1 6767.64 8179.88 -5581.03 20613.5 8.09255)
(-23294.6 5217.93 6352.15 -4532.1 21248 8.05304)
(-24058.2 3509.62 4476.1 -3768.68 21720.8 8.03172)
(-24513.6 1694.69 2565.98 -3313.42 22028.3 7.97953)
(-24646.6 -171.739 636.321 -3179.94 22168.1 8.11268)
(-24453.8 -2032.92 -1298.15 -3373.08 22139.2 8.23238)
(-23940.9 -3832.36 -3222.77 -3886.46 21941.8 7.91715)
(-23122.8 -5515.37 -5122.87 -4703.89 21577.4 8.13355)
(-22025.4 -7030.83 -6984 -5801.72 21048.8 7.81205)
(-20681.4 -8332.57 -8791.92 -7146.01 20360 7.78865)
(-19131.6 -9381.15 -10533 -8695.75 19516.3 7.95985)
(-17423.1 -10144.9 -12193.9 -10403.9 18524 7.64244)
(-15608.2 -10600.2 -13762 -12218.8 17390.8 7.64787)
(-13742 -10733.3 -15225.2 -14085.4 16125.2 7.92474)
(-11880.8 -10540.4 -16572.7 -15946.7 14736.8 7.71334)
(-10081.3 -10027.3 -17794.1 -17746.1 13236.3 7.62579)
(-8397.97 -9209.44 -18880 -19428.7 11635.1 8.18199)
(-6882.95 -8111.79 -19822.2 -20944.5 9945.37 7.85172)
(-5581.03 -6767.64 -20613.5 -22246.1 8179.88 8.09256)
(-4532.1 -5217.93 -21248 -23294.6 6352.15 8.05305)
(-3768.68 -3509.62 -21720.8 -24058.2 4476.1 8.03172)
(-3313.42 -1694.69 -22028.3 -24513.6 2565.98 7.97953)
(-3179.94 171.739 -22168.1 -24646.6 636.321 8.11267)
(-3373.08 2032.92 -22139.2 -24453.8 -1298.15 8.23237)
(-3886.46 3832.36 -21941.8 -23940.9 -3222.77 7.91713)
(-4703.89 5515.37 -21577.4 -23122.8 -5122.87 8.13354)
(-5801.72 7030.83 -21048.8 -22025.4 -6984 7.81202)
(-7146.01 8332.57 -20360 -20681.4 -8791.92 7.78862)
(-8695.75 9381.15 -19516.3 -19131.6 -10533 7.95982)
(-10403.9 10144.9 -18524 -17423.1 -12193.9 7.64241)
(-12218.8 10600.2 -17390.8 -15608.2 -13762 7.64783)
(-14085.4 10733.3 -16125.2 -13742 -15225.2 7.9247)
(-15946.7 10540.4 -14736.8 -11880.8 -16572.7 7.7133)
(-17746.1 10027.3 -13236.3 -10081.3 -17794.1 7.62575)
(-19428.7 9209.44 -11635.1 -8397.97 -18880 8.18194)
(-20944.5 8111.79 -9945.37 -6882.95 -19822.2 7.85168)
(-22246.1 6767.64 -8179.88 -5581.03 -20613.5 8.09251)
(-23294.6 5217.93 -6352.15 -4532.1 -21248 8.053)
(-24058.2 3509.62 -4476.1 -3768.68 -21720.8 8.03167)
(-38405.5 91.1157 -311.739 3579.29 -14165.2 -33377.7)
(-38102.5 -3555.57 924.027 3276.14 -14138.5 -33377.8)
(-37170.6 -7094.19 2152.77 2344.43 -14004.2 -33377.6)
(-35638.7 -10417.3 3365.12 812.304 -13763.2 -33377.8)
(-33553 -13423.9 4551.85 -1273.65 -13417.6 -33377.9)
(-30976.6 -16022.6 5703.92 -3849.64 -12969.7 -33377.8)
(-27988.2 -18134.4 6812.62 -6838 -12423.3 -33377.8)
(-24678.5 -19695.3 7869.46 -10147.6 -11782.2 -33377.7)
(-21147.9 -20657.7 8866.35 -13678 -11051.5 -33377.7)
(-17504.1 -20992.5 9795.8 -17321.9 -10236.7 -33377.8)
(-13857.5 -20689.3 10650.8 -20968.6 -9344.02 -33377.7)
(-10318.9 -19757.6 11424.6 -24507.3 -8380.16 -33377.8)
(-6995.92 -18225.5 12111.5 -27830.5 -7352.55 -33377.9)
(-3989.41 -16139.7 12706.3 -30837.2 -6269 -33377.9)
(-1390.72 -13563.4 13204.4 -33435.8 -5137.74 -33377.8)
(721.113 -10575.1 13601.9 -35547.6 -3967.36 -33377.8)
(2282.03 -7265.44 13895.9 -37108.5 -2766.76 -33377.8)
(3244.56 -3735.02 14084.2 -38070.7 -1545.13 -33377.7)
(3579.29 -91.1157 14165.2 -38405.5 -311.739 -33377.7)
(3276.14 3555.57 14138.5 -38102.5 924.027 -33377.8)
(2344.43 7094.19 14004.2 -37170.6 2152.77 -33377.6)
(812.304 10417.3 13763.2 -35638.7 3365.12 -33377.8)
(-1273.65 13423.9 13417.6 -33553 4551.85 -33377.9)
(-3849.64 16022.6 12969.7 -30976.6 5703.92 -33377.8)
(-6838 18134.4 12423.3 -27988.2 6812.62 -33377.8)
(-10147.6 19695.3 11782.2 -24678.5 7869.46 -33377.7)
(-13678 20657.7 11051.5 -21147.9 8866.35 -33377.7)
(-17321.9 20992.5 10236.7 -17504.1 9795.8 -33377.8)
(-20968.6 20689.3 9344.02 -13857.5 10650.8 -33377.7)
(-24507.3 19757.6 8380.16 -10318.9 11424.6 -33377.8)
(-27830.5 18225.5 7352.55 -6995.91 12111.5 -33377.9)
(-30837.2 16139.7 6269 -3989.41 12706.3 -33377.9)
(-33435.8 13563.4 5137.74 -1390.72 13204.4 -33377.8)
(-35547.6 10575.1 3967.36 721.113 13601.9 -33377.8)
(-37108.5 7265.44 2766.76 2282.03 13895.9 -33377.8)
(-38070.7 3735.02 1545.13 3244.56 14084.2 -33377.7)
(-38405.5 91.1157 311.739 3579.29 14165.2 -33377.7)
(-38102.5 -3555.57 -924.027 3276.14 14138.5 -33377.8)
(-37170.6 -7094.19 -2152.77 2344.43 14004.2 -33377.6)
(-35638.7 -10417.3 -3365.12 812.304 13763.2 -33377.8)
(-33553 -13423.9 -4551.85 -1273.65 13417.6 -33377.9)
(-30976.6 -16022.6 -5703.92 -3849.64 12969.7 -33377.8)
(-27988.2 -18134.4 -6812.62 -6838 12423.3 -33377.8)
(-24678.5 -19695.3 -7869.46 -10147.6 11782.2 -33377.7)
(-21147.9 -20657.7 -8866.35 -13678 11051.5 -33377.7)
(-17504.1 -20992.5 -9795.8 -17321.9 10236.7 -33377.8)
(-13857.5 -20689.3 -10650.8 -20968.6 9344.02 -33377.7)
(-10318.9 -19757.6 -11424.6 -24507.3 8380.16 -33377.8)
(-6995.91 -18225.5 -12111.5 -27830.5 7352.55 -33377.9)
(-3989.41 -16139.7 -12706.3 -30837.2 6269 -33377.9)
(-1390.72 -13563.4 -13204.4 -33435.8 5137.74 -33377.8)
(721.113 -10575.1 -13601.9 -35547.6 3967.36 -33377.8)
(2282.03 -7265.44 -13895.9 -37108.5 2766.76 -33377.8)
(3244.56 -3735.02 -14084.2 -38070.7 1545.13 -33377.7)
(3579.29 -91.1157 -14165.2 -38405.5 311.739 -33377.7)
(3276.14 3555.57 -14138.5 -38102.5 -924.027 -33377.8)
(2344.43 7094.19 -14004.2 -37170.6 -2152.77 -33377.6)
(812.304 10417.3 -13763.2 -35638.7 -3365.12 -33377.8)
(-1273.65 13423.9 -13417.6 -33553 -4551.85 -33377.9)
(-3849.64 16022.6 -12969.7 -30976.6 -5703.92 -33377.8)
(-6838 18134.4 -12423.3 -27988.2 -6812.62 -33377.8)
(-10147.6 19695.3 -11782.2 -24678.5 -7869.46 -33377.7)
(-13678 20657.7 -11051.5 -21147.9 -8866.35 -33377.7)
(-17321.9 20992.5 -10236.7 -17504.1 -9795.8 -33377.8)
(-20968.6 20689.3 -9344.02 -13857.5 -10650.8 -33377.7)
(-24507.3 19757.6 -8380.16 -10318.9 -11424.6 -33377.8)
(-27830.5 18225.5 -7352.55 -6995.92 -12111.5 -33377.9)
(-30837.2 16139.7 -6269 -3989.41 -12706.3 -33377.9)
(-33435.8 13563.4 -5137.74 -1390.72 -13204.4 -33377.8)
(-35547.6 10575.1 -3967.36 721.113 -13601.9 -33377.8)
(-37108.5 7265.44 -2766.76 2282.03 -13895.9 -33377.8)
(-38070.7 3735.02 -1545.13 3244.56 -14084.2 -33377.7)
(-49676.2 -2777.22 -598.797 -291.822 8652.97 -49315.6)
(-48818.8 -7022.8 -1350.68 -1149.17 8567.86 -49315.5)
(-47237.3 -11055 -2092.27 -2730.9 8417.53 -49315.7)
(-44979.5 -14751.2 -2817.95 -4988.55 8203.15 -49315.6)
(-42114.2 -17999.3 -3522.19 -7853.86 7926.37 -49315.6)
(-38728.5 -20700.5 -4199.67 -11239.8 7589.32 -49315.7)
(-34925.2 -22772.7 -4845.08 -15043.3 7194.33 -49315.8)
(-30819.7 -24152.9 -5453.7 -19148.7 6744.72 -49315.8)
(-26536.8 -24799.3 -6020.83 -23431.4 6243.76 -49315.6)
(-22206.8 -24692.2 -6542.09 -27761.3 5695.25 -49315.6)
(-17961.4 -23834.8 -7013.54 -32007 5103.37 -49315.7)
(-13929.2 -22253.2 -7431.6 -36039.2 4472.66 -49315.8)
(-10233 -19995.4 -7793.22 -39735.5 3807.97 -49315.7)
(-6984.79 -17130.2 -8095.36 -42983.4 3114.23 -49315.6)
(-4283.54 -13744.3 -8335.93 -45684.5 2396.8 -49315.6)
(-2211.5 -9940.95 -8513.11 -47756.8 1661.16 -49315.7)
(-831.101 -5835.5 -8625.49 -49136.9 912.874 -49315.6)
(-184.692 -1552.73 -8672.23 -49783.3 157.638 -49315.6)
(-291.822 2777.22 -8652.97 -49676.2 -598.797 -49315.6)
(-1149.17 7022.8 -8567.86 -48818.8 -1350.68 -49315.5)
(-2730.9 11055 -8417.53 -47237.3 -2092.27 -49315.7)
(-4988.55 14751.2 -8203.15 -44979.5 -2817.95 -49315.6)
(-7853.86 17999.3 -7926.37 -42114.2 -3522.19 -49315.6)
(-11239.8 20700.5 -7589.32 -38728.5 -4199.67 -49315.7)
(-15043.3 22772.7 -7194.33 -34925.2 -4845.08 -49315.8)
(-19148.7 24152.9 -6744.72 -30819.7 -5453.7 -49315.8)
(-23431.4 24799.3 -6243.76 -26536.8 -6020.83 -49315.6)
(-27761.3 24692.2 -5695.25 -22206.8 -6542.09 -49315.6)
(-32007 23834.8 -5103.37 -17961.4 -7013.54 -49315.7)
(-36039.2 22253.2 -4472.66 -13929.2 -7431.6 -49315.8)
(-39735.5 19995.4 -3807.97 -10233 -7793.22 -49315.7)
(-42983.4 17130.2 -3114.23 -6984.79 -8095.36 -49315.6)
(-45684.5 13744.3 -2396.8 -4283.54 -8335.93 -49315.6)
(-47756.8 9940.95 -1661.16 -2211.5 -8513.11 -49315.7)
(-49136.9 5835.5 -912.874 -831.101 -8625.49 -49315.6)
(-49783.3 1552.73 -157.638 -184.692 -8672.23 -49315.6)
(-49676.2 -2777.22 598.797 -291.822 -8652.97 -49315.6)
(-48818.8 -7022.8 1350.68 -1149.17 -8567.86 -49315.5)
(-47237.3 -11055 2092.27 -2730.9 -8417.53 -49315.7)
(-44979.5 -14751.2 2817.95 -4988.55 -8203.15 -49315.6)
(-42114.2 -17999.3 3522.19 -7853.86 -7926.37 -49315.6)
(-38728.5 -20700.5 4199.67 -11239.8 -7589.32 -49315.7)
(-34925.2 -22772.7 4845.08 -15043.3 -7194.33 -49315.8)
(-30819.7 -24152.9 5453.7 -19148.7 -6744.72 -49315.8)
(-26536.8 -24799.3 6020.83 -23431.4 -6243.76 -49315.6)
(-22206.8 -24692.2 6542.09 -27761.3 -5695.25 -49315.6)
(-17961.4 -23834.8 7013.54 -32007 -5103.37 -49315.7)
(-13929.2 -22253.2 7431.6 -36039.2 -4472.66 -49315.8)
(-10233 -19995.4 7793.22 -39735.5 -3807.97 -49315.7)
(-6984.79 -17130.2 8095.36 -42983.4 -3114.23 -49315.6)
(-4283.54 -13744.3 8335.93 -45684.5 -2396.8 -49315.6)
(-2211.5 -9940.95 8513.11 -47756.8 -1661.16 -49315.7)
(-831.101 -5835.5 8625.49 -49136.9 -912.874 -49315.6)
(-184.692 -1552.73 8672.23 -49783.3 -157.638 -49315.6)
(-291.822 2777.22 8652.97 -49676.2 598.797 -49315.6)
(-1149.17 7022.8 8567.86 -48818.8 1350.68 -49315.5)
(-2730.9 11055 8417.53 -47237.3 2092.27 -49315.7)
(-4988.55 14751.2 8203.15 -44979.5 2817.95 -49315.6)
(-7853.86 17999.3 7926.37 -42114.2 3522.19 -49315.6)
(-11239.8 20700.5 7589.32 -38728.5 4199.67 -49315.7)
(-15043.3 22772.7 7194.33 -34925.2 4845.08 -49315.8)
(-19148.7 24152.9 6744.72 -30819.7 5453.7 -49315.8)
(-23431.4 24799.3 6243.76 -26536.8 6020.83 -49315.6)
(-27761.3 24692.2 5695.25 -22206.8 6542.09 -49315.6)
(-32007 23834.8 5103.37 -17961.4 7013.54 -49315.7)
(-36039.2 22253.2 4472.66 -13929.2 7431.6 -49315.8)
(-39735.5 19995.4 3807.97 -10233 7793.22 -49315.7)
(-42983.4 17130.2 3114.23 -6984.79 8095.36 -49315.6)
(-45684.5 13744.3 2396.8 -4283.54 8335.93 -49315.6)
(-47756.8 9940.95 1661.16 -2211.5 8513.11 -49315.7)
(-49136.9 5835.5 912.874 -831.101 8625.49 -49315.6)
(-49783.3 1552.73 157.638 -184.692 8672.23 -49315.6)
(-47048 -4087.88 -3376.86 -13545 26937 -28547.5)
(-46083.7 -6934.65 -5711.73 -14509.4 26540.2 -28547.6)
(-44639.5 -9570.7 -8003.12 -15953.2 25941.3 -28547.4)
(-42759.6 -11916 -10233.6 -17833 25145.1 -28547.4)
(-40501 -13899.1 -12386.2 -20091.5 24157.5 -28547.2)
(-37932.7 -15460.1 -14444.5 -22660.3 22986 -28547.6)
(-35132 -16551.2 -16392.9 -25460.9 21639.7 -28547.5)
(-32184.4 -17139.4 -18216.6 -28408.4 20128.6 -28547.5)
(-29179.5 -17206.8 -19901.6 -31413.3 18464.3 -28547.4)
(-26208.5 -16751.5 -21435.1 -34384.2 16659.5 -28547.3)
(-23361.9 -15787.2 -22805.5 -37231.2 14727.9 -28547.7)
(-20725.7 -14343.1 -24002.3 -39867.1 12684.2 -28547.5)
(-18380.4 -12463.3 -25016.5 -42212.4 10544 -28547.5)
(-16397.2 -10204.7 -25840.3 -44195.4 8323.59 -28547.2)
(-14836.2 -7636.16 -26467.4 -45756.2 6039.77 -28547.3)
(-13745.3 -4835.54 -26893.1 -46847.6 3710 -28547.5)
(-13157.1 -1888 -27114.1 -47435.9 1351.99 -28547.6)
(-13089.6 1116.9 -27128.8 -47503.3 -1016.3 -28547.5)
(-13545 4087.88 -26937 -47048 -3376.86 -28547.5)
(-14509.4 6934.65 -26540.2 -46083.7 -5711.73 -28547.6)
(-15953.2 9570.7 -25941.3 -44639.5 -8003.12 -28547.4)
(-17833 11916 -25145.1 -42759.6 -10233.6 -28547.4)
(-20091.5 13899.1 -24157.5 -40501 -12386.2 -28547.2)
(-22660.3 15460.1 -22986 -37932.7 -14444.5 -28547.6)
(-25460.9 16551.2 -21639.7 -35132 -16392.9 -28547.5)
(-28408.4 17139.4 -20128.6 -32184.4 -18216.6 -28547.5)
(-31413.3 17206.8 -18464.3 -29179.5 -19901.6 -28547.4)
(-34384.2 16751.5 -16659.5 -26208.5 -21435.1 -28547.3)
(-37231.2 15787.2 -14727.9 -23361.9 -22805.5 -28547.7)
(-39867.1 14343.1 -12684.2 -20725.7 -24002.3 -28547.5)
(-42212.4 12463.3 -10544 -18380.4 -25016.5 -28547.5)
(-44195.4 10204.7 -8323.59 -16397.2 -25840.3 -28547.2)
(-45756.2 7636.16 -6039.77 -14836.2 -26467.4 -28547.3)
(-46847.6 4835.54 -3710 -13745.3 -26893.1 -28547.5)
(-47435.9 1888 -1351.99 -13157.1 -27114.1 -28547.6)
(-47503.3 -1116.9 1016.3 -13089.6 -27128.8 -28547.5)
(-47048 -4087.88 3376.86 -13545 -26937 -28547.5)
(-46083.7 -6934.65 5711.73 -14509.4 -26540.2 -28547.6)
(-44639.5 -9570.7 8003.12 -15953.2 -25941.3 -28547.4)
(-42759.6 -11916 10233.6 -17833 -25145.1 -28547.4)
(-40501 -13899.1 12386.2 -20091.5 -24157.5 -28547.2)
(-37932.7 -15460.1 14444.5 -22660.3 -22986 -28547.6)
(-35132 -16551.2 16392.9 -25460.9 -21639.7 -28547.5)
(-32184.4 -17139.4 18216.6 -28408.4 -20128.6 -28547.5)
(-29179.5 -17206.8 19901.6 -31413.3 -18464.3 -28547.4)
(-26208.5 -16751.5 21435.1 -34384.2 -16659.5 -28547.3)
(-23361.9 -15787.2 22805.5 -37231.2 -14727.9 -28547.7)
(-20725.7 -14343.1 24002.3 -39867.1 -12684.2 -28547.5)
(-18380.4 -12463.3 25016.5 -42212.4 -10544 -28547.5)
(-16397.2 -10204.7 25840.3 -44195.4 -8323.59 -28547.2)
(-14836.2 -7636.16 26467.4 -45756.2 -6039.77 -28547.3)
(-13745.3 -4835.54 26893.1 -46847.6 -3710 -28547.5)
(-13157.1 -1888 27114.1 -47435.9 -1351.99 -28547.6)
(-13089.6 1116.9 27128.8 -47503.3 1016.3 -28547.5)
(-13545 4087.88 26937 -47048 3376.86 -28547.5)
(-14509.4 6934.65 26540.2 -46083.7 5711.73 -28547.6)
(-15953.2 9570.7 25941.3 -44639.5 8003.12 -28547.4)
(-17833 11916 25145.1 -42759.6 10233.6 -28547.4)
(-20091.5 13899.1 24157.5 -40501 12386.2 -28547.2)
(-22660.3 15460.1 22986 -37932.7 14444.5 -28547.6)
(-25460.9 16551.2 21639.7 -35132 16392.9 -28547.5)
(-28408.4 17139.4 20128.6 -32184.4 18216.6 -28547.5)
(-31413.3 17206.8 18464.3 -29179.5 19901.6 -28547.4)
(-34384.2 16751.5 16659.5 -26208.5 21435.1 -28547.3)
(-37231.2 15787.2 14727.9 -23361.9 22805.5 -28547.7)
(-39867.1 14343.1 12684.2 -20725.7 24002.3 -28547.5)
(-42212.4 12463.3 10544 -18380.4 25016.5 -28547.5)
(-44195.4 10204.7 8323.59 -16397.2 25840.3 -28547.2)
(-45756.2 7636.16 6039.77 -14836.2 26467.4 -28547.3)
(-46847.6 4835.54 3710 -13745.3 26893.1 -28547.5)
(-47435.9 1888 1351.99 -13157.1 27114.1 -28547.6)
(-47503.3 -1116.9 -1016.3 -13089.6 27128.8 -28547.5)
(-52008.3 -1663.92 -5446.07 -45216 16890.5 -9982.22)
(-51667.8 -2228.38 -6897.48 -45556.5 16351.6 -9982.26)
(-51234.3 -2725.12 -8296.35 -45989.8 15688.2 -9982.14)
(-50721.2 -3139.07 -9632.1 -46502.8 14905.4 -9982.08)
(-50144.2 -3457.67 -10894.6 -47080 14009.3 -9982.28)
(-49520.4 -3671.17 -12074.1 -47703.6 13006.5 -9982.18)
(-48869.1 -3773.15 -13161.8 -48355 11904.7 -9982.24)
(-48210.2 -3760.45 -14149.2 -49014.2 10712.2 -9982.35)
(-47563 -3633.49 -15029 -49660.8 9438.24 -9982.01)
(-46947.9 -3396.16 -15794.4 -50275.7 8092.49 -9981.95)
(-46383.6 -3055.63 -16439.6 -50840.4 6685.11 -9982.13)
(-45886.7 -2622.27 -16959.7 -51337 5226.89 -9982.05)
(-45472.9 -2109.2 -17350.7 -51751 3728.85 -9982.1)
(-45154.2 -1532.06 -17609.7 -52069.6 2202.46 -9982.1)
(-44940.8 -908.357 -17734.5 -52283.1 659.256 -9982.05)
(-44838.9 -257.07 -17724.5 -52385.1 -888.936 -9982.06)
(-44851.6 402.027 -17579.6 -52372.5 -2430.34 -9982.17)
(-44978.5 1048.91 -17300.9 -52245.4 -3953.26 -9982.07)
(-45216 1663.92 -16890.5 -52008.3 -5446.07 -9982.22)
(-45556.5 2228.38 -16351.6 -51667.8 -6897.48 -9982.26)
(-45989.8 2725.12 -15688.2 -51234.3 -8296.35 -9982.14)
(-46502.8 3139.07 -14905.4 -50721.2 -9632.1 -9982.08)
(-47080 3457.67 -14009.3 -50144.2 -10894.6 -9982.28)
(-47703.6 3671.17 -13006.5 -49520.4 -12074.1 -9982.18)
(-48355 3773.15 -11904.7 -48869.1 -13161.8 -9982.24)
(-49014.2 3760.45 -10712.2 -48210.2 -14149.2 -9982.35)
(-49660.8 3633.49 -9438.24 -47563 -15029 -9982.01)
(-50275.7 3396.16 -8092.49 -46947.9 -15794.4 -9981.95)
(-50840.4 3055.63 -6685.11 -46383.6 -16439.6 -9982.13)
(-51337 2622.27 -5226.89 -45886.7 -16959.7 -9982.05)
(-51751 2109.2 -3728.85 -45472.9 -17350.7 -9982.1)
(-52069.6 1532.06 -2202.46 -45154.2 -17609.7 -9982.1)
(-52283.1 908.357 -659.256 -44940.8 -17734.5 -9982.05)
(-52385.1 257.07 888.936 -44838.9 -17724.5 -9982.06)
(-52372.5 -402.027 2430.34 -44851.6 -17579.6 -9982.17)
(-52245.4 -1048.91 3953.26 -44978.5 -17300.9 -9982.07)
(-52008.3 -1663.92 5446.07 -45216 -16890.5 -9982.22)
(-51667.8 -2228.38 6897.48 -45556.5 -16351.6 -9982.26)
(-51234.3 -2725.12 8296.35 -45989.8 -15688.2 -9982.14)
(-50721.2 -3139.07 9632.1 -46502.8 -14905.4 -9982.08)
(-50144.2 -3457.67 10894.6 -47080 -14009.3 -9982.28)
(-49520.4 -3671.17 12074.1 -47703.6 -13006.5 -9982.18)
(-48869.1 -3773.15 13161.8 -48355 -11904.7 -9982.24)
(-48210.2 -3760.45 14149.2 -49014.2 -10712.2 -9982.35)
(-47563 -3633.49 15029 -49660.8 -9438.24 -9982.01)
(-46947.9 -3396.16 15794.4 -50275.7 -8092.49 -9981.95)
(-46383.6 -3055.63 16439.6 -50840.4 -6685.11 -9982.13)
(-45886.7 -2622.27 16959.7 -51337 -5226.89 -9982.05)
(-45472.9 -2109.2 17350.7 -51751 -3728.85 -9982.1)
(-45154.2 -1532.06 17609.7 -52069.6 -2202.46 -9982.1)
(-44940.8 -908.357 17734.5 -52283.1 -659.256 -9982.05)
(-44838.9 -257.07 17724.5 -52385.1 888.936 -9982.06)
(-44851.6 402.027 17579.6 -52372.5 2430.34 -9982.17)
(-44978.5 1048.91 17300.9 -52245.4 3953.26 -9982.07)
(-45216 1663.92 16890.5 -52008.3 5446.07 -9982.22)
(-45556.5 2228.38 16351.6 -51667.8 6897.48 -9982.26)
(-45989.8 2725.12 15688.2 -51234.3 8296.35 -9982.14)
(-46502.8 3139.07 14905.4 -50721.2 9632.1 -9982.08)
(-47080 3457.67 14009.3 -50144.2 10894.6 -9982.28)
(-47703.6 3671.17 13006.5 -49520.4 12074.1 -9982.18)
(-48355 3773.15 11904.7 -48869.1 13161.8 -9982.24)
(-49014.2 3760.45 10712.2 -48210.2 14149.2 -9982.35)
(-49660.8 3633.49 9438.24 -47563 15029 -9982.01)
(-50275.7 3396.16 8092.49 -46947.9 15794.4 -9981.95)
(-50840.4 3055.63 6685.11 -46383.6 16439.6 -9982.13)
(-51337 2622.27 5226.89 -45886.7 16959.7 -9982.05)
(-51751 2109.2 3728.85 -45472.9 17350.7 -9982.1)
(-52069.6 1532.06 2202.46 -45154.2 17609.7 -9982.1)
(-52283.1 908.357 659.256 -44940.8 17734.5 -9982.05)
(-52385.1 257.07 -888.936 -44838.9 17724.5 -9982.06)
(-52372.5 -402.027 -2430.34 -44851.6 17579.6 -9982.17)
(-52245.4 -1048.91 -3953.26 -44978.5 17300.9 -9982.07)
(13578.5 741.919 -5301.9 15239.3 -8178.33 57397.5)
(13462.1 586.476 -4568.87 15355.5 -8609.69 57397.1)
(13374.7 413.162 -3801.25 15442.7 -8974.56 57397.4)
(13318.8 227.335 -3004.65 15498.8 -9271.58 57397.6)
(13295.8 34.589 -2185.04 15521.8 -9498.39 57397.4)
(13306.4 -159.235 -1348.74 15510.7 -9652.97 57397)
(13351.1 -348.179 -502.4 15466.5 -9733.61 57397.4)
(13427.8 -526.493 347.602 15390.1 -9740.1 57397.8)
(13533.8 -688.94 1195.49 15283.5 -9673 57397.2)
(13666.6 -830.392 2033.99 15150.5 -9532.03 57397.1)
(13822.4 -946.514 2856.66 14995.3 -9318.2 57397.7)
(13995.7 -1034.06 3658.3 14822.1 -9033.99 57397.5)
(14181.3 -1090.14 4431.92 14635.9 -8680.84 57397)
(14374.1 -1112.99 5171.31 14443.3 -8261.45 57397.4)
(14568 -1102.04 5871.46 14249.7 -7779.22 57397.7)
(14756.9 -1057.68 6527.25 14060.6 -7237.93 57397.5)
(14935.3 -981.24 7133.8 13882.1 -6641.52 57397)
(15097.7 -874.846 7685.15 13719.9 -5994.52 57397.4)
(15239.3 -741.919 8178.33 13578.5 -5301.9 57397.5)
(15355.5 -586.476 8609.69 13462.1 -4568.87 57397.1)
(15442.7 -413.162 8974.56 13374.7 -3801.25 57397.4)
(15498.8 -227.335 9271.58 13318.8 -3004.65 57397.6)
(15521.8 -34.589 9498.39 13295.8 -2185.04 57397.4)
(15510.7 159.235 9652.97 13306.4 -1348.74 57397)
(15466.5 348.179 9733.61 13351.1 -502.4 57397.4)
(15390.1 526.493 9740.1 13427.8 347.602 57397.8)
(15283.5 688.94 9673 13533.8 1195.49 57397.2)
(15150.5 830.392 9532.03 13666.6 2033.99 57397.1)
(14995.3 946.514 9318.2 13822.4 2856.66 57397.7)
(14822.1 1034.06 9033.99 13995.7 3658.3 57397.5)
(14635.9 1090.14 8680.84 14181.3 4431.92 57397)
(14443.3 1112.99 8261.45 14374.1 5171.31 57397.4)
(14249.7 1102.04 7779.22 14568 5871.46 57397.7)
(14060.6 1057.68 7237.93 14756.9 6527.25 57397.5)
(13882.1 981.24 6641.52 14935.3 7133.8 57397)
(13719.9 874.846 5994.52 15097.7 7685.15 57397.4)
(13578.5 741.919 5301.9 15239.3 8178.33 57397.5)
(13462.1 586.476 4568.87 15355.5 8609.69 57397.1)
(13374.7 413.162 3801.25 15442.7 8974.56 57397.4)
(13318.8 227.335 3004.65 15498.8 9271.58 57397.6)
(13295.8 34.589 2185.04 15521.8 9498.39 57397.4)
(13306.4 -159.235 1348.74 15510.7 9652.97 57397)
(13351.1 -348.179 502.4 15466.5 9733.61 57397.4)
(13427.8 -526.493 -347.602 15390.1 9740.1 57397.8)
(13533.8 -688.94 -1195.49 15283.5 9673 57397.2)
(13666.6 -830.392 -2033.99 15150.5 9532.03 57397.1)
(13822.4 -946.514 -2856.66 14995.3 9318.2 57397.7)
(13995.7 -1034.06 -3658.3 14822.1 9033.99 57397.5)
(14181.3 -1090.14 -4431.92 14635.9 8680.84 57397)
(14374.1 -1112.99 -5171.31 14443.3 8261.45 57397.4)
(14568 -1102.04 -5871.46 14249.7 7779.22 57397.7)
(14756.9 -1057.68 -6527.25 14060.6 7237.93 57397.5)
(14935.3 -981.24 -7133.8 13882.1 6641.52 57397)
(15097.7 -874.846 -7685.15 13719.9 5994.52 57397.4)
(15239.3 -741.919 -8178.33 13578.5 5301.9 57397.5)
(15355.5 -586.476 -8609.69 13462.1 4568.87 57397.1)
(15442.7 -413.162 -8974.56 13374.7 3801.25 57397.4)
(15498.8 -227.335 -9271.58 13318.8 3004.65 57397.6)
(15521.8 -34.589 -9498.39 13295.8 2185.04 57397.4)
(15510.7 159.235 -9652.97 13306.4 1348.74 57397)
(15466.5 348.179 -9733.61 13351.1 502.4 57397.4)
(15390.1 526.493 -9740.1 13427.8 -347.602 57397.8)
(15283.5 688.94 -9673 13533.8 -1195.49 57397.2)
(15150.5 830.392 -9532.03 13666.6 -2033.99 57397.1)
(14995.3 946.514 -9318.2 13822.4 -2856.66 57397.7)
(14822.1 1034.06 -9033.99 13995.7 -3658.3 57397.5)
(14635.9 1090.14 -8680.84 14181.3 -4431.92 57397)
(14443.3 1112.99 -8261.45 14374.1 -5171.31 57397.4)
(14249.7 1102.04 -7779.22 14568 -5871.46 57397.7)
(14060.6 1057.68 -7237.93 14756.9 -6527.25 57397.5)
(13882.1 981.24 -6641.52 14935.3 -7133.8 57397)
(13719.9 874.846 -5994.52 15097.7 -7685.15 57397.4)
(-3750.16 1844.08 -2535.56 14829.5 -21670.9 22018.7)
(-3929.22 202.896 -637.168 15008.6 -21809.4 22018.7)
(-3820.5 -1444.42 1266.05 14900 -21781.9 22018.9)
(-3427.37 -3047.86 3159.64 14507.1 -21588.7 22019)
(-2762.11 -4558.67 5029.18 13841.3 -21231.2 22018.9)
(-1843.95 -5931.05 6860.5 12924.1 -20712 22019.1)
(-702.195 -7123.17 8639.56 11781.7 -20035.3 22018.8)
(629.545 -8098.79 10352.9 10449.8 -19206.1 22019)
(2110.65 -8828.49 11987.4 8969.11 -18230.7 22018.8)
(3695.74 -9289.83 13530.7 7383.89 -17116.5 22018.8)
(5336.62 -9468.82 14971 5742.5 -15872.1 22018.8)
(6984.17 -9360.28 16297.4 4095.29 -14506.9 22018.8)
(8587.9 -8967.26 17499.7 2492.14 -13031.3 22019.1)
(10098.3 -8301.72 18568.9 980.958 -11456.5 22018.9)
(11470.8 -7383.99 19496.7 -391.241 -9794.51 22019)
(12662.9 -6241.91 20276.2 -1583.4 -8058.01 22018.9)
(13638.6 -4910.18 20901.4 -2559.17 -6260.13 22018.6)
(14368.1 -3429.22 21367.4 -3288.8 -4414.66 22018.7)
(14829.5 -1844.08 21670.9 -3750.16 -2535.56 22018.7)
(15008.6 -202.896 21809.4 -3929.22 -637.168 22018.7)
(14900 1444.42 21781.9 -3820.5 1266.05 22018.9)
(14507.1 3047.86 21588.7 -3427.37 3159.64 22019)
(13841.3 4558.67 21231.2 -2762.11 5029.18 22018.9)
(12924.1 5931.05 20712 -1843.95 6860.5 22019.1)
(11781.7 7123.17 20035.3 -702.195 8639.56 22018.8)
(10449.8 8098.79 19206.1 629.545 10352.9 22019)
(8969.11 8828.49 18230.7 2110.65 11987.4 22018.8)
(7383.89 9289.83 17116.5 3695.74 13530.7 22018.8)
(5742.5 9468.82 15872.1 5336.62 14971 22018.8)
(4095.29 9360.28 14506.9 6984.17 16297.4 22018.8)
(2492.14 8967.26 13031.3 8587.9 17499.7 22019.1)
(980.958 8301.72 11456.5 10098.3 18568.9 22018.9)
(-391.241 7383.99 9794.51 11470.8 19496.7 22019)
(-1583.4 6241.91 8058.01 12662.9 20276.2 22018.9)
(-2559.17 4910.18 6260.13 13638.6 20901.4 22018.6)
(-3288.8 3429.22 4414.66 14368.1 21367.4 22018.7)
(-3750.16 1844.08 2535.56 14829.5 21670.9 22018.7)
(-3929.22 202.896 637.168 15008.6 21809.4 22018.7)
(-3820.5 -1444.42 -1266.05 14900 21781.9 22018.9)
(-3427.37 -3047.86 -3159.64 14507.1 21588.7 22019)
(-2762.11 -4558.67 -5029.18 13841.3 21231.2 22018.9)
(-1843.95 -5931.05 -6860.5 12924.1 20712 22019.1)
(-702.195 -7123.17 -8639.56 11781.7 20035.3 22018.8)
(629.545 -8098.79 -10352.9 10449.8 19206.1 22019)
(2110.65 -8828.49 -11987.4 8969.11 18230.7 22018.8)
(3695.74 -9289.83 -13530.7 7383.89 17116.5 22018.8)
(5336.62 -9468.82 -14971 5742.5 15872.1 22018.8)
(6984.17 -9360.28 -16297.4 4095.29 14506.9 22018.8)
(8587.9 -8967.26 -17499.7 2492.14 13031.3 22019.1)
(10098.3 -8301.72 -18568.9 980.958 11456.5 22018.9)
(11470.8 -7383.99 -19496.7 -391.241 9794.51 22019)