/*--------------------------------*- C++ -*----------------------------------*\
| =========                 |                                                 |
| \\      /  F ield         | OpenFOAM: The Open Source CFD Toolbox           |
|  \\    /   O peration     | Version:  2412                                  |
|   \\  /    A nd           | Website:  www.openfoam.com                      |
|    \\/     M anipulation  |                                                 |
\*---------------------------------------------------------------------------*/
FoamFile
{
    version     2.0;
    format      ascii;
    arch        "LSB;label=32;scalar=64";
    class       volScalarField;
    location    "0";
    object      u1;
}
// * * * * * * * * * * * * * * * * * * * * * * * * * * * * * * * * * * * * * //

dimensions      [0 0 0 0 0 0 0];

internalField   nonuniform List<scalar> 
320
(
2.00155
2.00458
2.00751
2.01035
2.01309
2.01573
2.01828
2.02073
2.02308
2.02534
2.0275
2.02957
2.03154
2.03342
2.0352
2.03688
2.03847
2.03997
2.04136
2.04267
2.04388
2.04499
2.04601
2.04694
2.04777
2.04851
2.04916
2.04971
2.05017
2.05054
2.05082
2.051
2.05109
2.05109
2.051
2.05082
2.05054
2.05018
2.04973
2.04918
2.04855
2.04783
2.04702
2.04612
2.04514
2.04407
2.04291
2.04166
2.04033
2.03891
2.03741
2.03582
2.03415
2.03239
2.03055
2.02863
2.02663
2.02454
2.02237
2.02012
2.01779
2.01539
2.0129
2.01033
2.00768
2.00496
2.00216
1.99928
1.99633
1.9933
1.9902
1.98702
1.98377
1.98045
1.97705
1.97358
1.97004
1.96643
1.96276
1.95901
1.95519
1.9513
1.94735
1.94333
1.93925
1.9351
1.93089
1.92661
1.92227
1.91787
1.9134
1.90888
1.90429
1.89965
1.89495
1.89019
1.88537
1.8805
1.87557
1.87058
1.86554
1.86045
1.85531
1.85012
1.84487
1.83957
1.83423
1.82884
1.8234
1.81791
1.81237
1.8068
1.80117
1.79551
1.7898
1.78405
1.77826
1.77243
1.76656
1.76065
1.75471
1.74872
1.74271
1.73666
1.73057
1.72445
1.7183
1.71212
1.70591
1.69967
1.6934
1.6871
1.68078
1.67443
1.66805
1.66165
1.65523
1.64879
1.64232
1.63584
1.62934
1.62281
1.61627
1.60972
1.60315
1.59656
1.58996
1.58335
1.57672
1.57009
1.56344
1.55679
1.55013
1.54346
1.53678
1.5301
1.52342
1.51673
1.51004
1.50335
1.49665
1.48996
1.48327
1.47658
1.4699
1.46322
1.45654
1.44987
1.44321
1.43656
1.42991
1.42328
1.41665
1.41004
1.40344
1.39685
1.39028
1.38373
1.37719
1.37066
1.36416
1.35768
1.35121
1.34477
1.33835
1.33195
1.32557
1.31922
1.3129
1.3066
1.30033
1.29409
1.28788
1.2817
1.27555
1.26943
1.26334
1.25729
1.25128
1.24529
1.23935
1.23344
1.22757
1.22174
1.21595
1.2102
1.20449
1.19883
1.1932
1.18763
1.18209
1.1766
1.17116
1.16577
1.16043
1.15513
1.14988
1.14469
1.13955
1.13446
1.12942
1.12443
1.1195
1.11463
1.10981
1.10505
1.10035
1.09571
1.09112
1.0866
1.08213
1.07773
1.07339
1.06911
1.0649
1.06075
1.05667
1.05265
1.0487
1.04481
1.04099
1.03724
1.03357
1.02996
1.02642
1.02295
1.01955
1.01623
1.01298
1.0098
1.0067
1.00367
1.00072
0.997839
0.995039
0.992316
0.98967
0.987103
0.984614
0.982205
0.979876
0.977627
0.975459
0.973372
0.971368
0.969446
0.967606
0.965851
0.964179
0.962591
0.961088
0.95967
0.958338
0.957092
0.955933
0.95486
0.953875
0.952978
0.952168
0.951448
0.950816
0.950273
0.94982
0.949456
0.949183
0.949001
0.94891
0.948909
0.949001
0.949184
0.949459
0.949826
0.950286
0.950839
0.951486
0.952225
0.953058
0.953985
0.955006
0.956122
0.957331
0.958636
0.960035
0.961529
0.963118
0.964803
0.966583
0.968458
0.970429
0.972496
0.974659
0.976917
0.979272
0.981723
0.98427
0.986913
0.989653
0.992489
0.995421
0.99845
)
;

boundaryField
{
    inlet
    {
        type            zeroGradient;
    }
    outlet
    {
        type            zeroGradient;
    }
    sides
    {
        type            empty;
    }
}


// ************************************************************************* //
