/*--------------------------------*- C++ -*----------------------------------*\
| =========                 |                                                 |
| \\      /  F ield         | OpenFOAM: The Open Source CFD Toolbox           |
|  \\    /   O peration     | Version:  2412                                  |
|   \\  /    A nd           | Website:  www.openfoam.com                      |
|    \\/     M anipulation  |                                                 |
\*---------------------------------------------------------------------------*/
FoamFile
{
    version     2.0;
    format      ascii;
    arch        "LSB;label=32;scalar=64";
    class       volScalarField;
    location    "0";
    object      u2;
}
// * * * * * * * * * * * * * * * * * * * * * * * * * * * * * * * * * * * * * //

dimensions      [0 0 0 0 0 0 0];

internalField   nonuniform List<scalar> 
320
(
0.99922
0.997664
0.996116
0.994576
0.993042
0.991515
0.989996
0.988483
0.986978
0.985479
0.983987
0.982502
0.981023
0.979551
0.978086
0.976627
0.975175
0.973729
0.97229
0.970857
0.96943
0.96801
0.966595
0.965187
0.963785
0.96239
0.961
0.959616
0.958238
0.956867
0.955501
0.95414
0.952786
0.951438
0.950095
0.948757
0.947426
0.9461
0.944779
0.943464
0.942155
0.940851
0.939552
0.938259
0.936971
0.935689
0.934411
0.933139
0.931872
0.93061
0.929353
0.928102
0.926855
0.925614
0.924377
0.923145
0.921918
0.920697
0.919479
0.918267
0.91706
0.915857
0.914659
0.913466
0.912277
0.911093
0.909914
0.908739
0.907569
0.906403
0.905242
0.904085
0.902932
0.901784
0.900641
0.899501
0.898366
0.897235
0.896109
0.894987
0.893869
0.892755
0.891645
0.89054
0.889438
0.888341
0.887247
0.886158
0.885073
0.883991
0.882914
0.881841
0.880771
0.879705
0.878644
0.877586
0.876531
0.875481
0.874434
0.873392
0.872352
0.871317
0.870285
0.869257
0.868233
0.867212
0.866195
0.865181
0.864171
0.863164
0.862161
0.861161
0.860165
0.859173
0.858183
0.857198
0.856215
0.855236
0.85426
0.853288
0.852319
0.851353
0.85039
0.849431
0.848475
0.847522
0.846573
0.845626
0.844683
0.843743
0.842806
0.841872
0.840941
0.840014
0.839089
0.838167
0.837249
0.836333
0.835421
0.834511
0.833605
0.832701
0.8318
0.830903
0.830008
0.829116
0.828227
0.82734
0.826457
0.825576
0.824698
0.823823
0.822951
0.822082
0.821215
0.820351
0.81949
0.818631
0.817775
0.816922
0.816072
0.815224
0.814379
0.813536
0.812696
0.811859
0.811024
0.810191
0.809362
0.808535
0.80771
0.806888
0.806068
0.805251
0.804437
0.803624
0.802815
0.802008
0.801203
0.8004
0.7996
0.798803
0.798007
0.797215
0.796424
0.795636
0.79485
0.794067
0.793285
0.792507
0.79173
0.790956
0.790184
0.789414
0.788646
0.787881
0.787118
0.786357
0.785598
0.784842
0.784088
0.783336
0.782586
0.781838
0.781092
0.780349
0.779607
0.778868
0.778131
0.777395
0.776662
0.775931
0.775203
0.774476
0.773751
0.773028
0.772307
0.771589
0.770872
0.770157
0.769444
0.768733
0.768025
0.767318
0.766613
0.76591
0.765209
0.76451
0.763812
0.763117
0.762424
0.761732
0.761042
0.760355
0.759669
0.758985
0.758302
0.757622
0.756943
0.756267
0.755592
0.754919
0.754247
0.753578
0.75291
0.752244
0.75158
0.750917
0.750256
0.749597
0.74894
0.748285
0.747631
0.746979
0.746328
0.74568
0.745033
0.744387
0.743744
0.743102
0.742461
0.741823
0.741186
0.74055
0.739917
0.739284
0.738654
0.738025
0.737398
0.736772
0.736148
0.735525
0.734904
0.734285
0.733667
0.733051
0.732436
0.731823
0.731211
0.730601
0.729993
0.729386
0.72878
0.728176
0.727573
0.726972
0.726373
0.725775
0.725178
0.724583
0.723989
0.723397
0.722806
0.722217
0.721629
0.721043
0.720458
0.719874
0.719292
0.718711
0.718132
0.717554
0.716977
0.716402
0.715828
0.715256
0.714685
0.714115
0.713547
0.71298
0.712414
0.71185
0.711287
0.710725
0.710165
0.709606
0.709048
0.708492
0.707937
0.707383
)
;

boundaryField
{
    inlet
    {
        type            zeroGradient;
    }
    outlet
    {
        type            zeroGradient;
    }
    sides
    {
        type            empty;
    }
}


// ************************************************************************* //
