/*--------------------------------*- C++ -*----------------------------------*\
| =========                 |                                                 |
| \\      /  F ield         | OpenFOAM: The Open Source CFD Toolbox           |
|  \\    /   O peration     | Version:  2412                                  |
|   \\  /    A nd           | Website:  www.openfoam.com                      |
|    \\/     M anipulation  |                                                 |
\*---------------------------------------------------------------------------*/
FoamFile
{
    version     2.0;
    format      ascii;
    arch        "LSB;label=32;scalar=64";
    class       volScalarField;
    location    "0";
    object      Vm;
}
// * * * * * * * * * * * * * * * * * * * * * * * * * * * * * * * * * * * * * //

dimensions      [1 2 -3 0 0 -1 0];

internalField   nonuniform List<scalar> 
320
(
0.999988
0.999892
0.999699
0.99941
0.999024
0.998543
0.997965
0.99729
0.99652
0.995654
0.994692
0.993633
0.99248
0.99123
0.989885
0.988444
0.986909
0.985278
0.983552
0.981731
0.979816
0.977806
0.975702
0.973504
0.971212
0.968827
0.966348
0.963776
0.961111
0.958354
0.955504
0.952562
0.949528
0.946403
0.943186
0.939879
0.936481
0.932993
0.929415
0.925747
0.92199
0.918144
0.91421
0.910187
0.906077
0.90188
0.897595
0.893224
0.888767
0.884225
0.879597
0.874884
0.870087
0.865206
0.860242
0.855195
0.850065
0.844854
0.839561
0.834187
0.828732
0.823198
0.817585
0.811893
0.806122
0.800274
0.794348
0.788346
0.782269
0.776115
0.769887
0.763585
0.757209
0.75076
0.744239
0.737646
0.730982
0.724247
0.717443
0.710569
0.703627
0.696617
0.689541
0.682397
0.675188
0.667914
0.660575
0.653173
0.645708
0.63818
0.630591
0.622941
0.615232
0.607462
0.599635
0.591749
0.583807
0.575808
0.567754
0.559645
0.551482
0.543266
0.534998
0.526678
0.518307
0.509886
0.501416
0.492898
0.484333
0.47572
0.467062
0.458359
0.449611
0.440821
0.431987
0.423113
0.414197
0.405241
0.396247
0.387214
0.378144
0.369037
0.359895
0.350718
0.341508
0.332264
0.322988
0.313682
0.304345
0.294979
0.285584
0.276162
0.266713
0.257238
0.247739
0.238216
0.228669
0.219101
0.209512
0.199902
0.190274
0.180626
0.170962
0.161281
0.151584
0.141873
0.132148
0.122411
0.112661
0.102901
0.0931309
0.0833517
0.0735646
0.0637703
0.0539699
0.0441643
0.0343544
0.0245412
0.0147257
0.00490872
-0.00490872
-0.0147257
-0.0245412
-0.0343544
-0.0441643
-0.0539699
-0.0637703
-0.0735646
-0.0833517
-0.0931309
-0.102901
-0.112661
-0.122411
-0.132148
-0.141873
-0.151584
-0.161281
-0.170962
-0.180626
-0.190274
-0.199902
-0.209512
-0.219101
-0.228669
-0.238216
-0.247739
-0.257238
-0.266713
-0.276162
-0.285584
-0.294979
-0.304345
-0.313682
-0.322988
-0.332264
-0.341508
-0.350718
-0.359895
-0.369037
-0.378144
-0.387214
-0.396247
-0.405241
-0.414197
-0.423113
-0.431987
-0.440821
-0.449611
-0.458359
-0.467062
-0.47572
-0.484333
-0.492898
-0.501416
-0.509886
-0.518307
-0.526678
-0.534998
-0.543266
-0.551482
-0.559645
-0.567754
-0.575808
-0.583807
-0.591749
-0.599635
-0.607462
-0.615232
-0.622941
-0.630591
-0.63818
-0.645708
-0.653173
-0.660575
-0.667914
-0.675188
-0.682397
-0.689541
-0.696617
-0.703627
-0.710569
-0.717443
-0.724247
-0.730982
-0.737646
-0.744239
-0.75076
-0.757209
-0.763585
-0.769887
-0.776115
-0.782269
-0.788346
-0.794348
-0.800274
-0.806122
-0.811893
-0.817585
-0.823198
-0.828732
-0.834187
-0.839561
-0.844854
-0.850065
-0.855195
-0.860242
-0.865206
-0.870087
-0.874884
-0.879597
-0.884225
-0.888767
-0.893224
-0.897595
-0.90188
-0.906077
-0.910187
-0.91421
-0.918144
-0.92199
-0.925747
-0.929415
-0.932993
-0.936481
-0.939879
-0.943186
-0.946403
-0.949528
-0.952562
-0.955504
-0.958354
-0.961111
-0.963776
-0.966348
-0.968827
-0.971212
-0.973504
-0.975702
-0.977806
-0.979816
-0.981731
-0.983552
-0.985278
-0.986909
-0.988444
-0.989885
-0.99123
-0.99248
-0.993633
-0.994692
-0.995654
-0.99652
-0.99729
-0.997965
-0.998543
-0.999024
-0.99941
-0.999699
-0.999892
-0.999988
)
;

boundaryField
{
    inlet
    {
        type            zeroGradient;
    }
    outlet
    {
        type            zeroGradient;
    }
    sides
    {
        type            empty;
    }
}


// ************************************************************************* //
