/*--------------------------------*- C++ -*----------------------------------*\
| =========                 |                                                 |
| \\      /  F ield         | OpenFOAM: The Open Source CFD Toolbox           |
|  \\    /   O peration     | Version:  2312                                  |
|   \\  /    A nd           | Website:  www.openfoam.com                      |
|    \\/     M anipulation  |                                                 |
\*---------------------------------------------------------------------------*/
FoamFile
{
    version     2.0;
    format      ascii;
    arch        "LSB;label=32;scalar=64";
    class       volVectorField;
    location    "0.6";
    object      D_0;
}
// * * * * * * * * * * * * * * * * * * * * * * * * * * * * * * * * * * * * * //

dimensions      [0 1 0 0 0 0 0];

internalField   nonuniform List<vector> 
12960
(
(0.000107356 -0.000133361 1.65884e-06)
(0.000118571 -0.000123497 1.65884e-06)
(0.000128883 -0.000112693 1.65887e-06)
(0.000138215 -0.000101031 1.65879e-06)
(0.000146494 -8.86002e-05 1.65879e-06)
(0.000153658 -7.54952e-05 1.65886e-06)
(0.000159654 -6.18157e-05 1.65882e-06)
(0.000164434 -4.76658e-05 1.65867e-06)
(0.000167962 -3.3153e-05 1.65859e-06)
(0.000170213 -1.8388e-05 1.65871e-06)
(0.000171168 -3.48299e-06 1.65884e-06)
(0.00017082 1.14486e-05 1.65895e-06)
(0.000169172 2.62929e-05 1.65897e-06)
(0.000166237 4.09372e-05 1.65896e-06)
(0.000162036 5.52699e-05 1.65885e-06)
(0.000156602 6.91821e-05 1.65886e-06)
(0.000149977 8.25675e-05 1.65883e-06)
(0.00014221 9.53248e-05 1.65872e-06)
(0.000133361 0.000107356 1.65884e-06)
(0.000123497 0.000118571 1.65884e-06)
(0.000112693 0.000128883 1.65887e-06)
(0.000101031 0.000138215 1.65879e-06)
(8.86002e-05 0.000146494 1.65879e-06)
(7.54952e-05 0.000153658 1.65886e-06)
(6.18157e-05 0.000159654 1.65882e-06)
(4.76658e-05 0.000164434 1.65867e-06)
(3.3153e-05 0.000167962 1.65859e-06)
(1.8388e-05 0.000170213 1.65871e-06)
(3.48299e-06 0.000171168 1.65884e-06)
(-1.14486e-05 0.00017082 1.65895e-06)
(-2.62929e-05 0.000169172 1.65897e-06)
(-4.09372e-05 0.000166237 1.65896e-06)
(-5.52699e-05 0.000162036 1.65885e-06)
(-6.91821e-05 0.000156602 1.65886e-06)
(-8.25675e-05 0.000149977 1.65883e-06)
(-9.53248e-05 0.00014221 1.65872e-06)
(-0.000107356 0.000133361 1.65884e-06)
(-0.000118571 0.000123497 1.65884e-06)
(-0.000128883 0.000112693 1.65887e-06)
(-0.000138215 0.000101031 1.65879e-06)
(-0.000146494 8.86002e-05 1.65879e-06)
(-0.000153658 7.54952e-05 1.65886e-06)
(-0.000159654 6.18157e-05 1.65882e-06)
(-0.000164434 4.76658e-05 1.65867e-06)
(-0.000167962 3.3153e-05 1.65859e-06)
(-0.000170213 1.8388e-05 1.65871e-06)
(-0.000171168 3.48299e-06 1.65884e-06)
(-0.00017082 -1.14486e-05 1.65895e-06)
(-0.000169172 -2.62929e-05 1.65897e-06)
(-0.000166237 -4.09372e-05 1.65896e-06)
(-0.000162036 -5.52699e-05 1.65885e-06)
(-0.000156602 -6.91821e-05 1.65886e-06)
(-0.000149977 -8.25675e-05 1.65883e-06)
(-0.00014221 -9.53248e-05 1.65872e-06)
(-0.000133361 -0.000107356 1.65884e-06)
(-0.000123497 -0.000118571 1.65884e-06)
(-0.000112693 -0.000128883 1.65887e-06)
(-0.000101031 -0.000138215 1.65879e-06)
(-8.86002e-05 -0.000146494 1.65879e-06)
(-7.54952e-05 -0.000153658 1.65886e-06)
(-6.18157e-05 -0.000159654 1.65882e-06)
(-4.76658e-05 -0.000164434 1.65867e-06)
(-3.3153e-05 -0.000167962 1.65859e-06)
(-1.8388e-05 -0.000170213 1.65871e-06)
(-3.48299e-06 -0.000171168 1.65884e-06)
(1.14486e-05 -0.00017082 1.65895e-06)
(2.62929e-05 -0.000169172 1.65897e-06)
(4.09372e-05 -0.000166237 1.65896e-06)
(5.52699e-05 -0.000162036 1.65885e-06)
(6.91821e-05 -0.000156602 1.65886e-06)
(8.25675e-05 -0.000149977 1.65883e-06)
(9.53248e-05 -0.00014221 1.65872e-06)
(9.58118e-05 -0.000151448 1.59428e-05)
(0.000108647 -0.000142521 1.59427e-05)
(0.000120655 -0.00013251 1.59428e-05)
(0.000131745 -0.00012149 1.59429e-05)
(0.000141832 -0.000109545 1.59428e-05)
(0.00015084 -9.67669e-05 1.59428e-05)
(0.0001587 -8.32522e-05 1.59428e-05)
(0.000165352 -6.91037e-05 1.59427e-05)
(0.000170745 -5.44293e-05 1.59427e-05)
(0.000174839 -3.93409e-05 1.59428e-05)
(0.000177603 -2.3953e-05 1.59429e-05)
(0.000179015 -8.38253e-06 1.59429e-05)
(0.000179064 7.25147e-06 1.59429e-05)
(0.00017775 2.28303e-05 1.59429e-05)
(0.000175084 3.82354e-05 1.59429e-05)
(0.000171085 5.33494e-05 1.59428e-05)
(0.000165784 6.80574e-05 1.59428e-05)
(0.000159222 8.22476e-05 1.59428e-05)
(0.000151448 9.58118e-05 1.59428e-05)
(0.000142521 0.000108647 1.59427e-05)
(0.00013251 0.000120655 1.59428e-05)
(0.00012149 0.000131745 1.59429e-05)
(0.000109545 0.000141832 1.59428e-05)
(9.67669e-05 0.00015084 1.59428e-05)
(8.32522e-05 0.0001587 1.59428e-05)
(6.91037e-05 0.000165352 1.59427e-05)
(5.44293e-05 0.000170745 1.59427e-05)
(3.93409e-05 0.000174839 1.59428e-05)
(2.3953e-05 0.000177603 1.59429e-05)
(8.38253e-06 0.000179015 1.59429e-05)
(-7.25147e-06 0.000179064 1.59429e-05)
(-2.28303e-05 0.00017775 1.59429e-05)
(-3.82354e-05 0.000175084 1.59429e-05)
(-5.33494e-05 0.000171085 1.59428e-05)
(-6.80574e-05 0.000165784 1.59428e-05)
(-8.22476e-05 0.000159222 1.59428e-05)
(-9.58118e-05 0.000151448 1.59428e-05)
(-0.000108647 0.000142521 1.59427e-05)
(-0.000120655 0.00013251 1.59428e-05)
(-0.000131745 0.00012149 1.59429e-05)
(-0.000141832 0.000109545 1.59428e-05)
(-0.00015084 9.67669e-05 1.59428e-05)
(-0.0001587 8.32522e-05 1.59428e-05)
(-0.000165352 6.91037e-05 1.59427e-05)
(-0.000170745 5.44293e-05 1.59427e-05)
(-0.000174839 3.93409e-05 1.59428e-05)
(-0.000177603 2.3953e-05 1.59429e-05)
(-0.000179015 8.38253e-06 1.59429e-05)
(-0.000179064 -7.25147e-06 1.59429e-05)
(-0.00017775 -2.28303e-05 1.59429e-05)
(-0.000175084 -3.82354e-05 1.59429e-05)
(-0.000171085 -5.33494e-05 1.59428e-05)
(-0.000165784 -6.80574e-05 1.59428e-05)
(-0.000159222 -8.22476e-05 1.59428e-05)
(-0.000151448 -9.58118e-05 1.59428e-05)
(-0.000142521 -0.000108647 1.59427e-05)
(-0.00013251 -0.000120655 1.59428e-05)
(-0.00012149 -0.000131745 1.59429e-05)
(-0.000109545 -0.000141832 1.59428e-05)
(-9.67669e-05 -0.00015084 1.59428e-05)
(-8.32522e-05 -0.0001587 1.59428e-05)
(-6.91037e-05 -0.000165352 1.59427e-05)
(-5.44293e-05 -0.000170745 1.59427e-05)
(-3.93409e-05 -0.000174839 1.59428e-05)
(-2.3953e-05 -0.000177603 1.59429e-05)
(-8.38253e-06 -0.000179015 1.59429e-05)
(7.25147e-06 -0.000179064 1.59429e-05)
(2.28303e-05 -0.00017775 1.59429e-05)
(3.82354e-05 -0.000175084 1.59429e-05)
(5.33494e-05 -0.000171085 1.59428e-05)
(6.80574e-05 -0.000165784 1.59428e-05)
(8.22476e-05 -0.000159222 1.59428e-05)
(7.6498e-05 -0.000168512 2.26203e-05)
(9.08938e-05 -0.000161204 2.26203e-05)
(0.000104598 -0.000152668 2.26203e-05)
(0.000117506 -0.000142971 2.26203e-05)
(0.000129519 -0.000132186 2.26204e-05)
(0.000140547 -0.000120394 2.26203e-05)
(0.000150505 -0.000107686 2.26202e-05)
(0.000159318 -9.41595e-05 2.26202e-05)
(0.000166918 -7.99157e-05 2.26202e-05)
(0.000173248 -6.50638e-05 2.26202e-05)
(0.00017826 -4.97166e-05 2.26203e-05)
(0.000181914 -3.3991e-05 2.26202e-05)
(0.000184184 -1.80069e-05 2.26203e-05)
(0.000185053 -1.88552e-06 2.26204e-05)
(0.000184513 1.425e-05 2.26203e-05)
(0.000182569 3.02773e-05 2.26203e-05)
(0.000179236 4.60741e-05 2.26204e-05)
(0.000174538 6.15202e-05 2.26203e-05)
(0.000168512 7.6498e-05 2.26203e-05)
(0.000161204 9.08938e-05 2.26203e-05)
(0.000152668 0.000104598 2.26203e-05)
(0.000142971 0.000117506 2.26203e-05)
(0.000132186 0.000129519 2.26204e-05)
(0.000120394 0.000140547 2.26203e-05)
(0.000107686 0.000150505 2.26202e-05)
(9.41595e-05 0.000159318 2.26202e-05)
(7.99157e-05 0.000166918 2.26202e-05)
(6.50638e-05 0.000173248 2.26202e-05)
(4.97166e-05 0.00017826 2.26203e-05)
(3.3991e-05 0.000181914 2.26202e-05)
(1.80069e-05 0.000184184 2.26203e-05)
(1.88552e-06 0.000185053 2.26204e-05)
(-1.425e-05 0.000184513 2.26203e-05)
(-3.02773e-05 0.000182569 2.26203e-05)
(-4.60741e-05 0.000179236 2.26204e-05)
(-6.15202e-05 0.000174538 2.26203e-05)
(-7.6498e-05 0.000168512 2.26203e-05)
(-9.08938e-05 0.000161204 2.26203e-05)
(-0.000104598 0.000152668 2.26203e-05)
(-0.000117506 0.000142971 2.26203e-05)
(-0.000129519 0.000132186 2.26204e-05)
(-0.000140547 0.000120394 2.26203e-05)
(-0.000150505 0.000107686 2.26202e-05)
(-0.000159318 9.41595e-05 2.26202e-05)
(-0.000166918 7.99157e-05 2.26202e-05)
(-0.000173248 6.50638e-05 2.26202e-05)
(-0.00017826 4.97166e-05 2.26203e-05)
(-0.000181914 3.3991e-05 2.26202e-05)
(-0.000184184 1.80069e-05 2.26203e-05)
(-0.000185053 1.88552e-06 2.26204e-05)
(-0.000184513 -1.425e-05 2.26203e-05)
(-0.000182569 -3.02773e-05 2.26203e-05)
(-0.000179236 -4.60741e-05 2.26204e-05)
(-0.000174538 -6.15202e-05 2.26203e-05)
(-0.000168512 -7.6498e-05 2.26203e-05)
(-0.000161204 -9.08938e-05 2.26203e-05)
(-0.000152668 -0.000104598 2.26203e-05)
(-0.000142971 -0.000117506 2.26203e-05)
(-0.000132186 -0.000129519 2.26204e-05)
(-0.000120394 -0.000140547 2.26203e-05)
(-0.000107686 -0.000150505 2.26202e-05)
(-9.41595e-05 -0.000159318 2.26202e-05)
(-7.99157e-05 -0.000166918 2.26202e-05)
(-6.50638e-05 -0.000173248 2.26202e-05)
(-4.97166e-05 -0.00017826 2.26203e-05)
(-3.3991e-05 -0.000181914 2.26202e-05)
(-1.80069e-05 -0.000184184 2.26203e-05)
(-1.88552e-06 -0.000185053 2.26204e-05)
(1.425e-05 -0.000184513 2.26203e-05)
(3.02773e-05 -0.000182569 2.26203e-05)
(4.60741e-05 -0.000179236 2.26204e-05)
(6.15202e-05 -0.000174538 2.26203e-05)
(5.13068e-05 -0.000182552 2.51586e-05)
(6.7022e-05 -0.000177386 2.51586e-05)
(8.22274e-05 -0.00017087 2.51588e-05)
(9.68062e-05 -0.000163052 2.51586e-05)
(0.000110649 -0.000153994 2.51587e-05)
(0.000123649 -0.000143765 2.51587e-05)
(0.000135709 -0.000132441 2.51587e-05)
(0.000146736 -0.00012011 2.51587e-05)
(0.000156646 -0.000106864 2.51587e-05)
(0.000165363 -9.28048e-05 2.51587e-05)
(0.000172822 -7.80391e-05 2.51587e-05)
(0.000178966 -6.26796e-05 2.51587e-05)
(0.000183748 -4.68432e-05 2.51587e-05)
(0.000187131 -3.065e-05 2.51586e-05)
(0.00018909 -1.42239e-05 2.51587e-05)
(0.000189611 2.3105e-06 2.51587e-05)
(0.000188688 1.88274e-05 2.51587e-05)
(0.000186329 3.52011e-05 2.51586e-05)
(0.000182552 5.13068e-05 2.51586e-05)
(0.000177386 6.7022e-05 2.51586e-05)
(0.00017087 8.22274e-05 2.51588e-05)
(0.000163052 9.68062e-05 2.51586e-05)
(0.000153994 0.000110649 2.51587e-05)
(0.000143765 0.000123649 2.51587e-05)
(0.000132441 0.000135709 2.51587e-05)
(0.00012011 0.000146736 2.51587e-05)
(0.000106864 0.000156646 2.51587e-05)
(9.28048e-05 0.000165363 2.51587e-05)
(7.80391e-05 0.000172822 2.51587e-05)
(6.26796e-05 0.000178966 2.51587e-05)
(4.68432e-05 0.000183748 2.51587e-05)
(3.065e-05 0.000187131 2.51586e-05)
(1.42239e-05 0.00018909 2.51587e-05)
(-2.3105e-06 0.000189611 2.51587e-05)
(-1.88274e-05 0.000188688 2.51587e-05)
(-3.52011e-05 0.000186329 2.51586e-05)
(-5.13068e-05 0.000182552 2.51586e-05)
(-6.7022e-05 0.000177386 2.51586e-05)
(-8.22274e-05 0.00017087 2.51588e-05)
(-9.68062e-05 0.000163052 2.51586e-05)
(-0.000110649 0.000153994 2.51587e-05)
(-0.000123649 0.000143765 2.51587e-05)
(-0.000135709 0.000132441 2.51587e-05)
(-0.000146736 0.00012011 2.51587e-05)
(-0.000156646 0.000106864 2.51587e-05)
(-0.000165363 9.28048e-05 2.51587e-05)
(-0.000172822 7.80391e-05 2.51587e-05)
(-0.000178966 6.26796e-05 2.51587e-05)
(-0.000183748 4.68432e-05 2.51587e-05)
(-0.000187131 3.065e-05 2.51586e-05)
(-0.00018909 1.42239e-05 2.51587e-05)
(-0.000189611 -2.3105e-06 2.51587e-05)
(-0.000188688 -1.88274e-05 2.51587e-05)
(-0.000186329 -3.52011e-05 2.51586e-05)
(-0.000182552 -5.13068e-05 2.51586e-05)
(-0.000177386 -6.7022e-05 2.51586e-05)
(-0.00017087 -8.22274e-05 2.51588e-05)
(-0.000163052 -9.68062e-05 2.51586e-05)
(-0.000153994 -0.000110649 2.51587e-05)
(-0.000143765 -0.000123649 2.51587e-05)
(-0.000132441 -0.000135709 2.51587e-05)
(-0.00012011 -0.000146736 2.51587e-05)
(-0.000106864 -0.000156646 2.51587e-05)
(-9.28048e-05 -0.000165363 2.51587e-05)
(-7.80391e-05 -0.000172822 2.51587e-05)
(-6.26796e-05 -0.000178966 2.51587e-05)
(-4.68432e-05 -0.000183748 2.51587e-05)
(-3.065e-05 -0.000187131 2.51586e-05)
(-1.42239e-05 -0.00018909 2.51587e-05)
(2.3105e-06 -0.000189611 2.51587e-05)
(1.88274e-05 -0.000188688 2.51587e-05)
(3.52011e-05 -0.000186329 2.51586e-05)
(1.91848e-05 -0.000192769 2.8173e-05)
(3.59127e-05 -0.000190364 2.81731e-05)
(5.23671e-05 -0.000186509 2.81731e-05)
(6.84232e-05 -0.000181235 2.81731e-05)
(8.39585e-05 -0.000174582 2.81731e-05)
(9.88548e-05 -0.0001666 2.81731e-05)
(0.000112998 -0.00015735 2.8173e-05)
(0.000126283 -0.000146903 2.8173e-05)
(0.000138606 -0.000135338 2.81731e-05)
(0.000149874 -0.000122743 2.81731e-05)
(0.000160001 -0.000109213 2.8173e-05)
(0.00016891 -9.48523e-05 2.8173e-05)
(0.000176535 -7.97699e-05 2.8173e-05)
(0.000182815 -6.40804e-05 2.81729e-05)
(0.000187705 -4.79033e-05 2.8173e-05)
(0.000191166 -3.13614e-05 2.81731e-05)
(0.000193172 -1.45808e-05 2.81731e-05)
(0.000193708 2.31077e-06 2.8173e-05)
(0.000192769 1.91848e-05 2.8173e-05)
(0.000190364 3.59127e-05 2.81731e-05)
(0.000186509 5.23671e-05 2.81731e-05)
(0.000181235 6.84232e-05 2.81731e-05)
(0.000174582 8.39585e-05 2.81731e-05)
(0.0001666 9.88548e-05 2.81731e-05)
(0.00015735 0.000112998 2.8173e-05)
(0.000146903 0.000126283 2.8173e-05)
(0.000135338 0.000138606 2.81731e-05)
(0.000122743 0.000149874 2.81731e-05)
(0.000109213 0.000160001 2.8173e-05)
(9.48523e-05 0.00016891 2.8173e-05)
(7.97699e-05 0.000176535 2.8173e-05)
(6.40804e-05 0.000182815 2.81729e-05)
(4.79033e-05 0.000187705 2.8173e-05)
(3.13614e-05 0.000191166 2.81731e-05)
(1.45808e-05 0.000193172 2.81731e-05)
(-2.31077e-06 0.000193708 2.8173e-05)
(-1.91848e-05 0.000192769 2.8173e-05)
(-3.59127e-05 0.000190364 2.81731e-05)
(-5.23671e-05 0.000186509 2.81731e-05)
(-6.84232e-05 0.000181235 2.81731e-05)
(-8.39585e-05 0.000174582 2.81731e-05)
(-9.88548e-05 0.0001666 2.81731e-05)
(-0.000112998 0.00015735 2.8173e-05)
(-0.000126283 0.000146903 2.8173e-05)
(-0.000138606 0.000135338 2.81731e-05)
(-0.000149874 0.000122743 2.81731e-05)
(-0.000160001 0.000109213 2.8173e-05)
(-0.00016891 9.48523e-05 2.8173e-05)
(-0.000176535 7.97699e-05 2.8173e-05)
(-0.000182815 6.40804e-05 2.81729e-05)
(-0.000187705 4.79033e-05 2.8173e-05)
(-0.000191166 3.13614e-05 2.81731e-05)
(-0.000193172 1.45808e-05 2.81731e-05)
(-0.000193708 -2.31077e-06 2.8173e-05)
(-0.000192769 -1.91848e-05 2.8173e-05)
(-0.000190364 -3.59127e-05 2.81731e-05)
(-0.000186509 -5.23671e-05 2.81731e-05)
(-0.000181235 -6.84232e-05 2.81731e-05)
(-0.000174582 -8.39585e-05 2.81731e-05)
(-0.0001666 -9.88548e-05 2.81731e-05)
(-0.00015735 -0.000112998 2.8173e-05)
(-0.000146903 -0.000126283 2.8173e-05)
(-0.000135338 -0.000138606 2.81731e-05)
(-0.000122743 -0.000149874 2.81731e-05)
(-0.000109213 -0.000160001 2.8173e-05)
(-9.48523e-05 -0.00016891 2.8173e-05)
(-7.97699e-05 -0.000176535 2.8173e-05)
(-6.40804e-05 -0.000182815 2.81729e-05)
(-4.79033e-05 -0.000187705 2.8173e-05)
(-3.13614e-05 -0.000191166 2.81731e-05)
(-1.45808e-05 -0.000193172 2.81731e-05)
(2.31077e-06 -0.000193708 2.8173e-05)
(-2.77238e-05 -0.000200744 3.15861e-05)
(-1.01222e-05 -0.000202396 3.15861e-05)
(7.55619e-06 -0.000202508 3.15861e-05)
(2.51776e-05 -0.000201081 3.15862e-05)
(4.26071e-05 -0.000198121 3.15861e-05)
(5.97122e-05 -0.000193653 3.15861e-05)
(7.63628e-05 -0.000187712 3.1586e-05)
(9.2432e-05 -0.000180341 3.1586e-05)
(0.000107798 -0.0001716 3.15861e-05)
(0.000122344 -0.000161551 3.15862e-05)
(0.000135958 -0.000150273 3.15861e-05)
(0.000148539 -0.000137852 3.15861e-05)
(0.000159988 -0.000124382 3.15859e-05)
(0.00017022 -0.000109965 3.15859e-05)
(0.000179156 -9.47109e-05 3.1586e-05)
(0.000186728 -7.87355e-05 3.1586e-05)
(0.00019288 -6.21613e-05 3.15861e-05)
(0.000197564 -4.51143e-05 3.15862e-05)
(0.000200744 -2.77238e-05 3.15861e-05)
(0.000202396 -1.01222e-05 3.15861e-05)
(0.000202508 7.55619e-06 3.15861e-05)
(0.000201081 2.51776e-05 3.15862e-05)
(0.000198121 4.26071e-05 3.15861e-05)
(0.000193653 5.97122e-05 3.15861e-05)
(0.000187712 7.63628e-05 3.1586e-05)
(0.000180341 9.2432e-05 3.1586e-05)
(0.0001716 0.000107798 3.15861e-05)
(0.000161551 0.000122344 3.15862e-05)
(0.000150273 0.000135958 3.15861e-05)
(0.000137852 0.000148539 3.15861e-05)
(0.000124382 0.000159988 3.15859e-05)
(0.000109965 0.00017022 3.15859e-05)
(9.47109e-05 0.000179156 3.1586e-05)
(7.87355e-05 0.000186728 3.1586e-05)
(6.21613e-05 0.00019288 3.15861e-05)
(4.51143e-05 0.000197564 3.15862e-05)
(2.77238e-05 0.000200744 3.15861e-05)
(1.01222e-05 0.000202396 3.15861e-05)
(-7.55619e-06 0.000202508 3.15861e-05)
(-2.51776e-05 0.000201081 3.15862e-05)
(-4.26071e-05 0.000198121 3.15861e-05)
(-5.97122e-05 0.000193653 3.15861e-05)
(-7.63628e-05 0.000187712 3.1586e-05)
(-9.2432e-05 0.000180341 3.1586e-05)
(-0.000107798 0.0001716 3.15861e-05)
(-0.000122344 0.000161551 3.15862e-05)
(-0.000135958 0.000150273 3.15861e-05)
(-0.000148539 0.000137852 3.15861e-05)
(-0.000159988 0.000124382 3.15859e-05)
(-0.00017022 0.000109965 3.15859e-05)
(-0.000179156 9.47109e-05 3.1586e-05)
(-0.000186728 7.87355e-05 3.1586e-05)
(-0.00019288 6.21613e-05 3.15861e-05)
(-0.000197564 4.51143e-05 3.15862e-05)
(-0.000200744 2.77238e-05 3.15861e-05)
(-0.000202396 1.01222e-05 3.15861e-05)
(-0.000202508 -7.55619e-06 3.15861e-05)
(-0.000201081 -2.51776e-05 3.15862e-05)
(-0.000198121 -4.26071e-05 3.15861e-05)
(-0.000193653 -5.97122e-05 3.15861e-05)
(-0.000187712 -7.63628e-05 3.1586e-05)
(-0.000180341 -9.2432e-05 3.1586e-05)
(-0.0001716 -0.000107798 3.15861e-05)
(-0.000161551 -0.000122344 3.15862e-05)
(-0.000150273 -0.000135958 3.15861e-05)
(-0.000137852 -0.000148539 3.15861e-05)
(-0.000124382 -0.000159988 3.15859e-05)
(-0.000109965 -0.00017022 3.15859e-05)
(-9.47109e-05 -0.000179156 3.1586e-05)
(-7.87355e-05 -0.000186728 3.1586e-05)
(-6.21613e-05 -0.00019288 3.15861e-05)
(-4.51143e-05 -0.000197564 3.15862e-05)
(0.000276129 -0.000409947 2.77321e-05)
(0.000310808 -0.000384321 2.77319e-05)
(0.000343121 -0.00035577 2.77322e-05)
(0.000372822 -0.000324511 2.77322e-05)
(0.000399687 -0.000290783 2.7732e-05)
(0.000423509 -0.000254842 2.77319e-05)
(0.000444108 -0.000216961 2.77319e-05)
(0.000461327 -0.000177428 2.77317e-05)
(0.000475037 -0.000136546 2.77314e-05)
(0.00048513 -9.46239e-05 2.77316e-05)
(0.00049153 -5.19819e-05 2.77321e-05)
(0.00049419 -8.94449e-06 2.77322e-05)
(0.000493089 3.4161e-05 2.77322e-05)
(0.000488235 7.70065e-05 2.77324e-05)
(0.000479665 0.000119266 2.77324e-05)
(0.000467445 0.000160618 2.77321e-05)
(0.000451668 0.000200747 2.7732e-05)
(0.000432453 0.000239349 2.7732e-05)
(0.000409947 0.000276129 2.77321e-05)
(0.000384321 0.000310808 2.77319e-05)
(0.00035577 0.000343121 2.77322e-05)
(0.000324511 0.000372822 2.77322e-05)
(0.000290783 0.000399687 2.7732e-05)
(0.000254842 0.000423509 2.77319e-05)
(0.000216961 0.000444108 2.77319e-05)
(0.000177428 0.000461327 2.77317e-05)
(0.000136546 0.000475037 2.77314e-05)
(9.46239e-05 0.00048513 2.77316e-05)
(5.19819e-05 0.00049153 2.77321e-05)
(8.94449e-06 0.00049419 2.77322e-05)
(-3.4161e-05 0.000493089 2.77322e-05)
(-7.70065e-05 0.000488235 2.77324e-05)
(-0.000119266 0.000479665 2.77324e-05)
(-0.000160618 0.000467445 2.77321e-05)
(-0.000200747 0.000451668 2.7732e-05)
(-0.000239349 0.000432453 2.7732e-05)
(-0.000276129 0.000409947 2.77321e-05)
(-0.000310808 0.000384321 2.77319e-05)
(-0.000343121 0.00035577 2.77322e-05)
(-0.000372822 0.000324511 2.77322e-05)
(-0.000399687 0.000290783 2.7732e-05)
(-0.000423509 0.000254842 2.77319e-05)
(-0.000444108 0.000216961 2.77319e-05)
(-0.000461327 0.000177428 2.77317e-05)
(-0.000475037 0.000136546 2.77314e-05)
(-0.00048513 9.46239e-05 2.77316e-05)
(-0.00049153 5.19819e-05 2.77321e-05)
(-0.00049419 8.94449e-06 2.77322e-05)
(-0.000493089 -3.4161e-05 2.77322e-05)
(-0.000488235 -7.70065e-05 2.77324e-05)
(-0.000479665 -0.000119266 2.77324e-05)
(-0.000467445 -0.000160618 2.77321e-05)
(-0.000451668 -0.000200747 2.7732e-05)
(-0.000432453 -0.000239349 2.7732e-05)
(-0.000409947 -0.000276129 2.77321e-05)
(-0.000384321 -0.000310808 2.77319e-05)
(-0.00035577 -0.000343121 2.77322e-05)
(-0.000324511 -0.000372822 2.77322e-05)
(-0.000290783 -0.000399687 2.7732e-05)
(-0.000254842 -0.000423509 2.77319e-05)
(-0.000216961 -0.000444108 2.77319e-05)
(-0.000177428 -0.000461327 2.77317e-05)
(-0.000136546 -0.000475037 2.77314e-05)
(-9.46239e-05 -0.00048513 2.77316e-05)
(-5.19819e-05 -0.00049153 2.77321e-05)
(-8.94449e-06 -0.00049419 2.77322e-05)
(3.4161e-05 -0.000493089 2.77322e-05)
(7.70065e-05 -0.000488235 2.77324e-05)
(0.000119266 -0.000479665 2.77324e-05)
(0.000160618 -0.000467445 2.77321e-05)
(0.000200747 -0.000451668 2.7732e-05)
(0.000239349 -0.000432453 2.7732e-05)
(0.000245047 -0.000457194 6.93878e-05)
(0.000283961 -0.000434097 6.93878e-05)
(0.000320715 -0.000407697 6.9388e-05)
(0.000355027 -0.000378193 6.9388e-05)
(0.000386638 -0.000345811 6.93878e-05)
(0.000415306 -0.000310797 6.93877e-05)
(0.000440814 -0.000273419 6.9388e-05)
(0.000462966 -0.000233959 6.93878e-05)
(0.000481595 -0.000192719 6.93878e-05)
(0.000496559 -0.000150012 6.93879e-05)
(0.000507744 -0.000106162 6.9388e-05)
(0.000515064 -6.15054e-05 6.93881e-05)
(0.000518464 -1.63808e-05 6.9388e-05)
(0.000517919 2.88689e-05 6.9388e-05)
(0.000513432 7.38986e-05 6.93881e-05)
(0.000505038 0.000118366 6.93881e-05)
(0.0004928 0.000161933 6.93879e-05)
(0.000476811 0.000204267 6.93878e-05)
(0.000457194 0.000245047 6.93878e-05)
(0.000434097 0.000283961 6.93878e-05)
(0.000407697 0.000320715 6.9388e-05)
(0.000378193 0.000355027 6.9388e-05)
(0.000345811 0.000386638 6.93878e-05)
(0.000310797 0.000415306 6.93877e-05)
(0.000273419 0.000440814 6.9388e-05)
(0.000233959 0.000462966 6.93878e-05)
(0.000192719 0.000481595 6.93878e-05)
(0.000150012 0.000496559 6.93879e-05)
(0.000106162 0.000507744 6.9388e-05)
(6.15054e-05 0.000515064 6.93881e-05)
(1.63808e-05 0.000518464 6.9388e-05)
(-2.88689e-05 0.000517919 6.9388e-05)
(-7.38986e-05 0.000513432 6.93881e-05)
(-0.000118366 0.000505038 6.93881e-05)
(-0.000161933 0.0004928 6.93879e-05)
(-0.000204267 0.000476811 6.93878e-05)
(-0.000245047 0.000457194 6.93878e-05)
(-0.000283961 0.000434097 6.93878e-05)
(-0.000320715 0.000407697 6.9388e-05)
(-0.000355027 0.000378193 6.9388e-05)
(-0.000386638 0.000345811 6.93878e-05)
(-0.000415306 0.000310797 6.93877e-05)
(-0.000440814 0.000273419 6.9388e-05)
(-0.000462966 0.000233959 6.93878e-05)
(-0.000481595 0.000192719 6.93878e-05)
(-0.000496559 0.000150012 6.93879e-05)
(-0.000507744 0.000106162 6.9388e-05)
(-0.000515064 6.15054e-05 6.93881e-05)
(-0.000518464 1.63808e-05 6.9388e-05)
(-0.000517919 -2.88689e-05 6.9388e-05)
(-0.000513432 -7.38986e-05 6.93881e-05)
(-0.000505038 -0.000118366 6.93881e-05)
(-0.0004928 -0.000161933 6.93879e-05)
(-0.000476811 -0.000204267 6.93878e-05)
(-0.000457194 -0.000245047 6.93878e-05)
(-0.000434097 -0.000283961 6.93878e-05)
(-0.000407697 -0.000320715 6.9388e-05)
(-0.000378193 -0.000355027 6.9388e-05)
(-0.000345811 -0.000386638 6.93878e-05)
(-0.000310797 -0.000415306 6.93877e-05)
(-0.000273419 -0.000440814 6.9388e-05)
(-0.000233959 -0.000462966 6.93878e-05)
(-0.000192719 -0.000481595 6.93878e-05)
(-0.000150012 -0.000496559 6.93879e-05)
(-0.000106162 -0.000507744 6.9388e-05)
(-6.15054e-05 -0.000515064 6.93881e-05)
(-1.63808e-05 -0.000518464 6.9388e-05)
(2.88689e-05 -0.000517919 6.9388e-05)
(7.38986e-05 -0.000513432 6.93881e-05)
(0.000118366 -0.000505038 6.93881e-05)
(0.000161933 -0.0004928 6.93879e-05)
(0.000204267 -0.000476811 6.93878e-05)
(0.000199534 -0.000502525 9.83939e-05)
(0.000242573 -0.000483222 9.8394e-05)
(0.000283765 -0.000460242 9.83941e-05)
(0.000322798 -0.000433758 9.83942e-05)
(0.000359374 -0.000403974 9.83941e-05)
(0.000393215 -0.000371116 9.83943e-05)
(0.000424064 -0.000335433 9.83944e-05)
(0.000451685 -0.000297196 9.83942e-05)
(0.000475868 -0.000256698 9.83942e-05)
(0.00049643 -0.000214247 9.83942e-05)
(0.000513214 -0.000170165 9.83942e-05)
(0.000526092 -0.000124788 9.83945e-05)
(0.000534966 -7.8461e-05 9.83945e-05)
(0.000539768 -3.15368e-05 9.83941e-05)
(0.000540463 1.56268e-05 9.83943e-05)
(0.000537044 6.26722e-05 9.83942e-05)
(0.000529539 0.00010924 9.83941e-05)
(0.000518003 0.000154977 9.8394e-05)
(0.000502525 0.000199534 9.83939e-05)
(0.000483222 0.000242573 9.8394e-05)
(0.000460242 0.000283765 9.83941e-05)
(0.000433758 0.000322798 9.83942e-05)
(0.000403974 0.000359374 9.83941e-05)
(0.000371116 0.000393215 9.83943e-05)
(0.000335433 0.000424064 9.83944e-05)
(0.000297196 0.000451685 9.83942e-05)
(0.000256698 0.000475868 9.83942e-05)
(0.000214247 0.00049643 9.83942e-05)
(0.000170165 0.000513214 9.83942e-05)
(0.000124788 0.000526092 9.83945e-05)
(7.8461e-05 0.000534966 9.83945e-05)
(3.15368e-05 0.000539768 9.83941e-05)
(-1.56268e-05 0.000540463 9.83943e-05)
(-6.26722e-05 0.000537044 9.83942e-05)
(-0.00010924 0.000529539 9.83941e-05)
(-0.000154977 0.000518003 9.8394e-05)
(-0.000199534 0.000502525 9.83939e-05)
(-0.000242573 0.000483222 9.8394e-05)
(-0.000283765 0.000460242 9.83941e-05)
(-0.000322798 0.000433758 9.83942e-05)
(-0.000359374 0.000403974 9.83941e-05)
(-0.000393215 0.000371116 9.83943e-05)
(-0.000424064 0.000335433 9.83944e-05)
(-0.000451685 0.000297196 9.83942e-05)
(-0.000475868 0.000256698 9.83942e-05)
(-0.00049643 0.000214247 9.83942e-05)
(-0.000513214 0.000170165 9.83942e-05)
(-0.000526092 0.000124788 9.83945e-05)
(-0.000534966 7.8461e-05 9.83945e-05)
(-0.000539768 3.15368e-05 9.83941e-05)
(-0.000540463 -1.56268e-05 9.83943e-05)
(-0.000537044 -6.26722e-05 9.83942e-05)
(-0.000529539 -0.00010924 9.83941e-05)
(-0.000518003 -0.000154977 9.8394e-05)
(-0.000502525 -0.000199534 9.83939e-05)
(-0.000483222 -0.000242573 9.8394e-05)
(-0.000460242 -0.000283765 9.83941e-05)
(-0.000433758 -0.000322798 9.83942e-05)
(-0.000403974 -0.000359374 9.83941e-05)
(-0.000371116 -0.000393215 9.83943e-05)
(-0.000335433 -0.000424064 9.83944e-05)
(-0.000297196 -0.000451685 9.83942e-05)
(-0.000256698 -0.000475868 9.83942e-05)
(-0.000214247 -0.00049643 9.83942e-05)
(-0.000170165 -0.000513214 9.83942e-05)
(-0.000124788 -0.000526092 9.83945e-05)
(-7.8461e-05 -0.000534966 9.83945e-05)
(-3.15368e-05 -0.000539768 9.83941e-05)
(1.56268e-05 -0.000540463 9.83943e-05)
(6.26722e-05 -0.000537044 9.83942e-05)
(0.00010924 -0.000529539 9.83941e-05)
(0.000154977 -0.000518003 9.8394e-05)
(0.000143089 -0.000541579 0.000116833)
(0.000189746 -0.000527047 0.000116833)
(0.00023496 -0.000508504 0.000116833)
(0.000278384 -0.000486091 0.000116833)
(0.000319691 -0.000459978 0.000116833)
(0.000358563 -0.000430365 0.000116833)
(0.000394708 -0.000397477 0.000116833)
(0.000427848 -0.000361563 0.000116833)
(0.000457733 -0.000322898 0.000116833)
(0.000484133 -0.000281775 0.000116833)
(0.000506849 -0.000238508 0.000116833)
(0.000525707 -0.000193426 0.000116833)
(0.000540565 -0.000146871 0.000116833)
(0.000551309 -9.91985e-05 0.000116833)
(0.000557857 -5.07711e-05 0.000116833)
(0.000560159 -1.95771e-06 0.000116833)
(0.000558198 4.6871e-05 0.000116833)
(0.000551989 9.5343e-05 0.000116833)
(0.000541579 0.000143089 0.000116833)
(0.000527047 0.000189746 0.000116833)
(0.000508504 0.00023496 0.000116833)
(0.000486091 0.000278384 0.000116833)
(0.000459978 0.000319691 0.000116833)
(0.000430365 0.000358563 0.000116833)
(0.000397477 0.000394708 0.000116833)
(0.000361563 0.000427848 0.000116833)
(0.000322898 0.000457733 0.000116833)
(0.000281775 0.000484133 0.000116833)
(0.000238508 0.000506849 0.000116833)
(0.000193426 0.000525707 0.000116833)
(0.000146871 0.000540565 0.000116833)
(9.91985e-05 0.000551309 0.000116833)
(5.07711e-05 0.000557857 0.000116833)
(1.95771e-06 0.000560159 0.000116833)
(-4.6871e-05 0.000558198 0.000116833)
(-9.5343e-05 0.000551989 0.000116833)
(-0.000143089 0.000541579 0.000116833)
(-0.000189746 0.000527047 0.000116833)
(-0.00023496 0.000508504 0.000116833)
(-0.000278384 0.000486091 0.000116833)
(-0.000319691 0.000459978 0.000116833)
(-0.000358563 0.000430365 0.000116833)
(-0.000394708 0.000397477 0.000116833)
(-0.000427848 0.000361563 0.000116833)
(-0.000457733 0.000322898 0.000116833)
(-0.000484133 0.000281775 0.000116833)
(-0.000506849 0.000238508 0.000116833)
(-0.000525707 0.000193426 0.000116833)
(-0.000540565 0.000146871 0.000116833)
(-0.000551309 9.91985e-05 0.000116833)
(-0.000557857 5.07711e-05 0.000116833)
(-0.000560159 1.95771e-06 0.000116833)
(-0.000558198 -4.6871e-05 0.000116833)
(-0.000551989 -9.5343e-05 0.000116833)
(-0.000541579 -0.000143089 0.000116833)
(-0.000527047 -0.000189746 0.000116833)
(-0.000508504 -0.00023496 0.000116833)
(-0.000486091 -0.000278384 0.000116833)
(-0.000459978 -0.000319691 0.000116833)
(-0.000430365 -0.000358563 0.000116833)
(-0.000397477 -0.000394708 0.000116833)
(-0.000361563 -0.000427848 0.000116833)
(-0.000322898 -0.000457733 0.000116833)
(-0.000281775 -0.000484133 0.000116833)
(-0.000238508 -0.000506849 0.000116833)
(-0.000193426 -0.000525707 0.000116833)
(-0.000146871 -0.000540565 0.000116833)
(-9.91985e-05 -0.000551309 0.000116833)
(-5.07711e-05 -0.000557857 0.000116833)
(-1.95771e-06 -0.000560159 0.000116833)
(4.6871e-05 -0.000558198 0.000116833)
(9.5343e-05 -0.000551989 0.000116833)
(7.61241e-05 -0.000571441 0.000131292)
(0.000125638 -0.000562632 0.000131292)
(0.000174197 -0.000549541 0.000131293)
(0.00022143 -0.000532267 0.000131293)
(0.000266978 -0.000510942 0.000131292)
(0.000310493 -0.00048573 0.000131292)
(0.000351646 -0.000456821 0.000131293)
(0.000390122 -0.000424434 0.000131292)
(0.000425629 -0.000388817 0.000131292)
(0.000457897 -0.000350242 0.000131292)
(0.00048668 -0.000309001 0.000131292)
(0.00051176 -0.000265408 0.000131293)
(0.000532944 -0.000219795 0.000131292)
(0.000550072 -0.000172509 0.000131292)
(0.000563014 -0.000123911 0.000131292)
(0.000571672 -7.43699e-05 0.000131292)
(0.000575978 -2.42625e-05 0.000131292)
(0.000575901 2.60299e-05 0.000131292)
(0.000571441 7.61241e-05 0.000131292)
(0.000562632 0.000125638 0.000131292)
(0.000549541 0.000174197 0.000131293)
(0.000532267 0.00022143 0.000131293)
(0.000510942 0.000266978 0.000131292)
(0.00048573 0.000310493 0.000131292)
(0.000456821 0.000351646 0.000131293)
(0.000424434 0.000390122 0.000131292)
(0.000388817 0.000425629 0.000131292)
(0.000350242 0.000457897 0.000131292)
(0.000309001 0.00048668 0.000131292)
(0.000265408 0.00051176 0.000131293)
(0.000219795 0.000532944 0.000131292)
(0.000172509 0.000550072 0.000131292)
(0.000123911 0.000563014 0.000131292)