/*--------------------------------*- C++ -*----------------------------------*\
| =========                 |                                                 |
| \\      /  F ield         | OpenFOAM: The Open Source CFD Toolbox           |
|  \\    /   O peration     | Version:  2312                                  |
|   \\  /    A nd           | Website:  www.openfoam.com                      |
|    \\/     M anipulation  |                                                 |
\*---------------------------------------------------------------------------*/
FoamFile
{
    version     2.0;
    format      ascii;
    arch        "LSB;label=32;scalar=64";
    class       volVectorField;
    location    "0.6";
    object      D_0_0_0;
}
// * * * * * * * * * * * * * * * * * * * * * * * * * * * * * * * * * * * * * //

dimensions      [0 1 0 0 0 0 0];

internalField   nonuniform List<vector> 
12960
(
(0.00010603 -0.000131719 2.07376e-06)
(0.000117107 -0.000121977 2.07376e-06)
(0.000127292 -0.000111306 2.07379e-06)
(0.000136508 -9.97879e-05 2.07371e-06)
(0.000144686 -8.75109e-05 2.07371e-06)
(0.000151762 -7.45675e-05 2.07378e-06)
(0.000157684 -6.10568e-05 2.07374e-06)
(0.000162406 -4.70814e-05 2.07359e-06)
(0.000165891 -3.27476e-05 2.07351e-06)
(0.000168114 -1.81648e-05 2.07363e-06)
(0.000169057 -3.44351e-06 2.07376e-06)
(0.000168714 1.1304e-05 2.07386e-06)
(0.000167086 2.59653e-05 2.07389e-06)
(0.000164188 4.04292e-05 2.07387e-06)
(0.000160039 5.45852e-05 2.07377e-06)
(0.000154673 6.8326e-05 2.07377e-06)
(0.00014813 8.15465e-05 2.07375e-06)
(0.000140459 9.41467e-05 2.07364e-06)
(0.000131719 0.00010603 2.07376e-06)
(0.000121977 0.000117107 2.07376e-06)
(0.000111306 0.000127292 2.07379e-06)
(9.97879e-05 0.000136508 2.07371e-06)
(8.75109e-05 0.000144686 2.07371e-06)
(7.45675e-05 0.000151762 2.07378e-06)
(6.10568e-05 0.000157684 2.07374e-06)
(4.70814e-05 0.000162406 2.07359e-06)
(3.27476e-05 0.000165891 2.07351e-06)
(1.81648e-05 0.000168114 2.07363e-06)
(3.44351e-06 0.000169057 2.07376e-06)
(-1.1304e-05 0.000168714 2.07386e-06)
(-2.59653e-05 0.000167086 2.07389e-06)
(-4.04292e-05 0.000164188 2.07387e-06)
(-5.45852e-05 0.000160039 2.07377e-06)
(-6.8326e-05 0.000154673 2.07377e-06)
(-8.15465e-05 0.00014813 2.07375e-06)
(-9.41467e-05 0.000140459 2.07364e-06)
(-0.00010603 0.000131719 2.07376e-06)
(-0.000117107 0.000121977 2.07376e-06)
(-0.000127292 0.000111306 2.07379e-06)
(-0.000136508 9.97879e-05 2.07371e-06)
(-0.000144686 8.75109e-05 2.07371e-06)
(-0.000151762 7.45675e-05 2.07378e-06)
(-0.000157684 6.10568e-05 2.07374e-06)
(-0.000162406 4.70814e-05 2.07359e-06)
(-0.000165891 3.27476e-05 2.07351e-06)
(-0.000168114 1.81648e-05 2.07363e-06)
(-0.000169057 3.44351e-06 2.07376e-06)
(-0.000168714 -1.1304e-05 2.07386e-06)
(-0.000167086 -2.59653e-05 2.07389e-06)
(-0.000164188 -4.04292e-05 2.07387e-06)
(-0.000160039 -5.45852e-05 2.07377e-06)
(-0.000154673 -6.8326e-05 2.07377e-06)
(-0.00014813 -8.15465e-05 2.07375e-06)
(-0.000140459 -9.41467e-05 2.07364e-06)
(-0.000131719 -0.00010603 2.07376e-06)
(-0.000121977 -0.000117107 2.07376e-06)
(-0.000111306 -0.000127292 2.07379e-06)
(-9.97879e-05 -0.000136508 2.07371e-06)
(-8.75109e-05 -0.000144686 2.07371e-06)
(-7.45675e-05 -0.000151762 2.07378e-06)
(-6.10568e-05 -0.000157684 2.07374e-06)
(-4.70814e-05 -0.000162406 2.07359e-06)
(-3.27476e-05 -0.000165891 2.07351e-06)
(-1.81648e-05 -0.000168114 2.07363e-06)
(-3.44351e-06 -0.000169057 2.07376e-06)
(1.1304e-05 -0.000168714 2.07386e-06)
(2.59653e-05 -0.000167086 2.07389e-06)
(4.04292e-05 -0.000164188 2.07387e-06)
(5.45852e-05 -0.000160039 2.07377e-06)
(6.8326e-05 -0.000154673 2.07377e-06)
(8.15465e-05 -0.00014813 2.07375e-06)
(9.41467e-05 -0.000140459 2.07364e-06)
(9.46364e-05 -0.000149201 1.56503e-05)
(0.00010728 -0.000140385 1.56503e-05)
(0.000119107 -0.000130501 1.56503e-05)
(0.000130028 -0.000119624 1.56504e-05)
(0.000139959 -0.000107836 1.56503e-05)
(0.000148825 -9.52274e-05 1.56503e-05)
(0.000156559 -8.18941e-05 1.56503e-05)
(0.0001631 -6.79374e-05 1.56502e-05)
(0.0001684 -5.34637e-05 1.56502e-05)
(0.000172419 -3.85833e-05 1.56503e-05)
(0.000175126 -2.34091e-05 1.56504e-05)
(0.0001765 -8.05662e-06 1.56504e-05)
(0.00017653 7.35697e-06 1.56504e-05)
(0.000175217 2.27146e-05 1.56504e-05)
(0.000172571 3.78994e-05 1.56504e-05)
(0.000168611 5.27956e-05 1.56503e-05)
(0.000163367 6.72901e-05 1.56503e-05)
(0.000156881 8.12726e-05 1.56503e-05)
(0.000149201 9.46364e-05 1.56503e-05)
(0.000140385 0.00010728 1.56503e-05)
(0.000130501 0.000119107 1.56503e-05)
(0.000119624 0.000130028 1.56504e-05)
(0.000107836 0.000139959 1.56503e-05)
(9.52274e-05 0.000148825 1.56503e-05)
(8.18941e-05 0.000156559 1.56503e-05)
(6.79374e-05 0.0001631 1.56502e-05)
(5.34637e-05 0.0001684 1.56502e-05)
(3.85833e-05 0.000172419 1.56503e-05)
(2.34091e-05 0.000175126 1.56504e-05)
(8.05662e-06 0.0001765 1.56504e-05)
(-7.35697e-06 0.00017653 1.56504e-05)
(-2.27146e-05 0.000175217 1.56504e-05)
(-3.78994e-05 0.000172571 1.56504e-05)
(-5.27956e-05 0.000168611 1.56503e-05)
(-6.72901e-05 0.000163367 1.56503e-05)
(-8.12726e-05 0.000156881 1.56503e-05)
(-9.46364e-05 0.000149201 1.56503e-05)
(-0.00010728 0.000140385 1.56503e-05)
(-0.000119107 0.000130501 1.56503e-05)
(-0.000130028 0.000119624 1.56504e-05)
(-0.000139959 0.000107836 1.56503e-05)
(-0.000148825 9.52274e-05 1.56503e-05)
(-0.000156559 8.18941e-05 1.56503e-05)
(-0.0001631 6.79374e-05 1.56502e-05)
(-0.0001684 5.34637e-05 1.56502e-05)
(-0.000172419 3.85833e-05 1.56503e-05)
(-0.000175126 2.34091e-05 1.56504e-05)
(-0.0001765 8.05662e-06 1.56504e-05)
(-0.00017653 -7.35697e-06 1.56504e-05)
(-0.000175217 -2.27146e-05 1.56504e-05)
(-0.000172571 -3.78994e-05 1.56504e-05)
(-0.000168611 -5.27956e-05 1.56503e-05)
(-0.000163367 -6.72901e-05 1.56503e-05)
(-0.000156881 -8.12726e-05 1.56503e-05)
(-0.000149201 -9.46364e-05 1.56503e-05)
(-0.000140385 -0.00010728 1.56503e-05)
(-0.000130501 -0.000119107 1.56503e-05)
(-0.000119624 -0.000130028 1.56504e-05)
(-0.000107836 -0.000139959 1.56503e-05)
(-9.52274e-05 -0.000148825 1.56503e-05)
(-8.18941e-05 -0.000156559 1.56503e-05)
(-6.79374e-05 -0.0001631 1.56502e-05)
(-5.34637e-05 -0.0001684 1.56502e-05)
(-3.85833e-05 -0.000172419 1.56503e-05)
(-2.34091e-05 -0.000175126 1.56504e-05)
(-8.05662e-06 -0.0001765 1.56504e-05)
(7.35697e-06 -0.00017653 1.56504e-05)
(2.27146e-05 -0.000175217 1.56504e-05)
(3.78994e-05 -0.000172571 1.56504e-05)
(5.27956e-05 -0.000168611 1.56503e-05)
(6.72901e-05 -0.000163367 1.56503e-05)
(8.12726e-05 -0.000156881 1.56503e-05)
(7.58056e-05 -0.000165716 2.20092e-05)
(8.99603e-05 -0.000158479 2.20092e-05)
(0.00010343 -0.000150035 2.20092e-05)
(0.000116113 -0.00014045 2.20092e-05)
(0.000127912 -0.000129796 2.20093e-05)
(0.000138738 -0.000118153 2.20092e-05)
(0.000148507 -0.000105611 2.20091e-05)
(0.000157147 -9.22665e-05 2.20092e-05)
(0.00016459 -7.82191e-05 2.20091e-05)
(0.000170781 -6.35765e-05 2.20091e-05)
(0.000175673 -4.845e-05 2.20092e-05)
(0.000179227 -3.29546e-05 2.20092e-05)
(0.000181417 -1.72086e-05 2.20092e-05)
(0.000182227 -1.33151e-06 2.20093e-05)
(0.000181649 1.45556e-05 2.20092e-05)
(0.000179689 3.03321e-05 2.20092e-05)
(0.000176362 4.58776e-05 2.20093e-05)
(0.000171692 6.1074e-05 2.20092e-05)
(0.000165716 7.58056e-05 2.20092e-05)
(0.000158479 8.99603e-05 2.20092e-05)
(0.000150035 0.00010343 2.20092e-05)
(0.00014045 0.000116113 2.20092e-05)
(0.000129796 0.000127912 2.20093e-05)
(0.000118153 0.000138738 2.20092e-05)
(0.000105611 0.000148507 2.20091e-05)
(9.22665e-05 0.000157147 2.20092e-05)
(7.82191e-05 0.00016459 2.20091e-05)
(6.35765e-05 0.000170781 2.20091e-05)
(4.845e-05 0.000175673 2.20092e-05)
(3.29546e-05 0.000179227 2.20092e-05)
(1.72086e-05 0.000181417 2.20092e-05)
(1.33151e-06 0.000182227 2.20093e-05)
(-1.45556e-05 0.000181649 2.20092e-05)
(-3.03321e-05 0.000179689 2.20092e-05)
(-4.58776e-05 0.000176362 2.20093e-05)
(-6.1074e-05 0.000171692 2.20092e-05)
(-7.58056e-05 0.000165716 2.20092e-05)
(-8.99603e-05 0.000158479 2.20092e-05)
(-0.00010343 0.000150035 2.20092e-05)
(-0.000116113 0.00014045 2.20092e-05)
(-0.000127912 0.000129796 2.20093e-05)
(-0.000138738 0.000118153 2.20092e-05)
(-0.000148507 0.000105611 2.20091e-05)
(-0.000157147 9.22665e-05 2.20092e-05)
(-0.00016459 7.82191e-05 2.20091e-05)
(-0.000170781 6.35765e-05 2.20091e-05)
(-0.000175673 4.845e-05 2.20092e-05)
(-0.000179227 3.29546e-05 2.20092e-05)
(-0.000181417 1.72086e-05 2.20092e-05)
(-0.000182227 1.33151e-06 2.20093e-05)
(-0.000181649 -1.45556e-05 2.20092e-05)
(-0.000179689 -3.03321e-05 2.20092e-05)
(-0.000176362 -4.58776e-05 2.20093e-05)
(-0.000171692 -6.1074e-05 2.20092e-05)
(-0.000165716 -7.58056e-05 2.20092e-05)
(-0.000158479 -8.99603e-05 2.20092e-05)
(-0.000150035 -0.00010343 2.20092e-05)
(-0.00014045 -0.000116113 2.20092e-05)
(-0.000129796 -0.000127912 2.20093e-05)
(-0.000118153 -0.000138738 2.20092e-05)
(-0.000105611 -0.000148507 2.20091e-05)
(-9.22665e-05 -0.000157147 2.20092e-05)
(-7.82191e-05 -0.00016459 2.20091e-05)
(-6.35765e-05 -0.000170781 2.20091e-05)
(-4.845e-05 -0.000175673 2.20092e-05)
(-3.29546e-05 -0.000179227 2.20092e-05)
(-1.72086e-05 -0.000181417 2.20092e-05)
(-1.33151e-06 -0.000182227 2.20093e-05)
(1.45556e-05 -0.000181649 2.20092e-05)
(3.03321e-05 -0.000179689 2.20092e-05)
(4.58776e-05 -0.000176362 2.20093e-05)
(6.1074e-05 -0.000171692 2.20092e-05)
(5.12811e-05 -0.000179348 2.44834e-05)
(6.67172e-05 -0.000174196 2.44834e-05)
(8.16457e-05 -0.000167719 2.44835e-05)
(9.59522e-05 -0.000159964 2.44834e-05)
(0.000109529 -0.000150993 2.44834e-05)
(0.000122272 -0.000140872 2.44834e-05)
(0.000134084 -0.00012968 2.44835e-05)
(0.000144877 -0.0001175 2.44835e-05)
(0.000154566 -0.000104426 2.44834e-05)
(0.00016308 -9.05574e-05 2.44834e-05)
(0.000170352 -7.59993e-05 2.44835e-05)
(0.000176327 -6.0863e-05 2.44835e-05)
(0.00018096 -4.52635e-05 2.44835e-05)
(0.000184216 -2.93193e-05 2.44833e-05)
(0.000186071 -1.31523e-05 2.44834e-05)
(0.00018651 3.1149e-06 2.44835e-05)
(0.000185528 1.93585e-05 2.44834e-05)
(0.000183135 3.54547e-05 2.44834e-05)
(0.000179348 5.12811e-05 2.44834e-05)
(0.000174196 6.67172e-05 2.44834e-05)
(0.000167719 8.16457e-05 2.44835e-05)
(0.000159964 9.59522e-05 2.44834e-05)
(0.000150993 0.000109529 2.44834e-05)
(0.000140872 0.000122272 2.44834e-05)
(0.00012968 0.000134084 2.44835e-05)
(0.0001175 0.000144877 2.44835e-05)
(0.000104426 0.000154566 2.44834e-05)
(9.05574e-05 0.00016308 2.44834e-05)
(7.59993e-05 0.000170352 2.44835e-05)
(6.0863e-05 0.000176327 2.44835e-05)
(4.52635e-05 0.00018096 2.44835e-05)
(2.93193e-05 0.000184216 2.44833e-05)
(1.31523e-05 0.000186071 2.44834e-05)
(-3.1149e-06 0.00018651 2.44835e-05)
(-1.93585e-05 0.000185528 2.44834e-05)
(-3.54547e-05 0.000183135 2.44834e-05)
(-5.12811e-05 0.000179348 2.44834e-05)
(-6.67172e-05 0.000174196 2.44834e-05)
(-8.16457e-05 0.000167719 2.44835e-05)
(-9.59522e-05 0.000159964 2.44834e-05)
(-0.000109529 0.000150993 2.44834e-05)
(-0.000122272 0.000140872 2.44834e-05)
(-0.000134084 0.00012968 2.44835e-05)
(-0.000144877 0.0001175 2.44835e-05)
(-0.000154566 0.000104426 2.44834e-05)
(-0.00016308 9.05574e-05 2.44834e-05)
(-0.000170352 7.59993e-05 2.44835e-05)
(-0.000176327 6.0863e-05 2.44835e-05)
(-0.00018096 4.52635e-05 2.44835e-05)
(-0.000184216 2.93193e-05 2.44833e-05)
(-0.000186071 1.31523e-05 2.44834e-05)
(-0.00018651 -3.1149e-06 2.44835e-05)
(-0.000185528 -1.93585e-05 2.44834e-05)
(-0.000183135 -3.54547e-05 2.44834e-05)
(-0.000179348 -5.12811e-05 2.44834e-05)
(-0.000174196 -6.67172e-05 2.44834e-05)
(-0.000167719 -8.16457e-05 2.44835e-05)
(-0.000159964 -9.59522e-05 2.44834e-05)
(-0.000150993 -0.000109529 2.44834e-05)
(-0.000140872 -0.000122272 2.44834e-05)
(-0.00012968 -0.000134084 2.44835e-05)
(-0.0001175 -0.000144877 2.44835e-05)
(-0.000104426 -0.000154566 2.44834e-05)
(-9.05574e-05 -0.00016308 2.44834e-05)
(-7.59993e-05 -0.000170352 2.44835e-05)
(-6.0863e-05 -0.000176327 2.44835e-05)
(-4.52635e-05 -0.00018096 2.44835e-05)
(-2.93193e-05 -0.000184216 2.44833e-05)
(-1.31523e-05 -0.000186071 2.44834e-05)
(3.1149e-06 -0.00018651 2.44835e-05)
(1.93585e-05 -0.000185528 2.44834e-05)
(3.54547e-05 -0.000183135 2.44834e-05)
(1.99938e-05 -0.00018932 2.74753e-05)
(3.64181e-05 -0.000186858 2.74754e-05)
(5.2565e-05 -0.000182972 2.74753e-05)
(6.83121e-05 -0.000177695 2.74754e-05)
(8.35392e-05 -0.000171065 2.74754e-05)
(9.81306e-05 -0.000163133 2.74753e-05)
(0.000111975 -0.000153959 2.74753e-05)
(0.000124967 -0.000143614 2.74753e-05)
(0.000137009 -0.000132177 2.74753e-05)
(0.000148008 -0.000119733 2.74754e-05)
(0.000157879 -0.000106376 2.74753e-05)
(0.000166549 -9.22116e-05 2.74753e-05)
(0.000173953 -7.7345e-05 2.74753e-05)
(0.000180032 -6.18897e-05 2.74752e-05)
(0.000184741 -4.59635e-05 2.74753e-05)
(0.000188044 -2.96874e-05 2.74753e-05)
(0.000189916 -1.31852e-05 2.74754e-05)
(0.000190343 3.4173e-06 2.74753e-05)
(0.00018932 1.99938e-05 2.74753e-05)
(0.000186858 3.64181e-05 2.74754e-05)
(0.000182972 5.2565e-05 2.74753e-05)
(0.000177695 6.83121e-05 2.74754e-05)
(0.000171065 8.35392e-05 2.74754e-05)
(0.000163133 9.81306e-05 2.74753e-05)
(0.000153959 0.000111975 2.74753e-05)
(0.000143614 0.000124967 2.74753e-05)
(0.000132177 0.000137009 2.74753e-05)
(0.000119733 0.000148008 2.74754e-05)
(0.000106376 0.000157879 2.74753e-05)
(9.22116e-05 0.000166549 2.74753e-05)
(7.7345e-05 0.000173953 2.74753e-05)
(6.18897e-05 0.000180032 2.74752e-05)
(4.59635e-05 0.000184741 2.74753e-05)
(2.96874e-05 0.000188044 2.74753e-05)
(1.31852e-05 0.000189916 2.74754e-05)
(-3.4173e-06 0.000190343 2.74753e-05)
(-1.99938e-05 0.00018932 2.74753e-05)
(-3.64181e-05 0.000186858 2.74754e-05)
(-5.2565e-05 0.000182972 2.74753e-05)
(-6.83121e-05 0.000177695 2.74754e-05)
(-8.35392e-05 0.000171065 2.74754e-05)
(-9.81306e-05 0.000163133 2.74753e-05)
(-0.000111975 0.000153959 2.74753e-05)
(-0.000124967 0.000143614 2.74753e-05)
(-0.000137009 0.000132177 2.74753e-05)
(-0.000148008 0.000119733 2.74754e-05)
(-0.000157879 0.000106376 2.74753e-05)
(-0.000166549 9.22116e-05 2.74753e-05)
(-0.000173953 7.7345e-05 2.74753e-05)
(-0.000180032 6.18897e-05 2.74752e-05)
(-0.000184741 4.59635e-05 2.74753e-05)
(-0.000188044 2.96874e-05 2.74753e-05)
(-0.000189916 1.31852e-05 2.74754e-05)
(-0.000190343 -3.4173e-06 2.74753e-05)
(-0.00018932 -1.99938e-05 2.74753e-05)
(-0.000186858 -3.64181e-05 2.74754e-05)
(-0.000182972 -5.2565e-05 2.74753e-05)
(-0.000177695 -6.83121e-05 2.74754e-05)
(-0.000171065 -8.35392e-05 2.74754e-05)
(-0.000163133 -9.81306e-05 2.74753e-05)
(-0.000153959 -0.000111975 2.74753e-05)
(-0.000143614 -0.000124967 2.74753e-05)
(-0.000132177 -0.000137009 2.74753e-05)
(-0.000119733 -0.000148008 2.74754e-05)
(-0.000106376 -0.000157879 2.74753e-05)
(-9.22116e-05 -0.000166549 2.74753e-05)
(-7.7345e-05 -0.000173953 2.74753e-05)
(-6.18897e-05 -0.000180032 2.74752e-05)
(-4.59635e-05 -0.000184741 2.74753e-05)
(-2.96874e-05 -0.000188044 2.74753e-05)
(-1.31852e-05 -0.000189916 2.74754e-05)
(3.4173e-06 -0.000190343 2.74753e-05)
(-2.57641e-05 -0.000197147 3.08407e-05)
(-8.48352e-06 -0.000198641 3.08407e-05)
(8.86143e-06 -0.000198625 3.08407e-05)
(2.61394e-05 -0.000197098 3.08409e-05)
(4.32182e-05 -0.00019407 3.08407e-05)
(5.99679e-05 -0.000189564 3.08407e-05)
(7.62612e-05 -0.000183616 3.08407e-05)
(9.19738e-05 -0.00017627 3.08406e-05)
(0.000106987 -0.000167584 3.08408e-05)
(0.000121186 -0.000157622 3.08408e-05)
(0.000134462 -0.00014646 3.08407e-05)
(0.000146716 -0.000134183 3.08408e-05)
(0.000157852 -0.000120886 3.08406e-05)
(0.000167788 -0.000106668 3.08405e-05)
(0.000176446 -9.16388e-05 3.08407e-05)
(0.00018376 -7.59114e-05 3.08407e-05)
(0.000189677 -5.96066e-05 3.08407e-05)
(0.000194151 -4.28484e-05 3.08408e-05)
(0.000197147 -2.57641e-05 3.08407e-05)
(0.000198641 -8.48352e-06 3.08407e-05)
(0.000198625 8.86143e-06 3.08407e-05)
(0.000197098 2.61394e-05 3.08409e-05)
(0.00019407 4.32182e-05 3.08407e-05)
(0.000189564 5.99679e-05 3.08407e-05)
(0.000183616 7.62612e-05 3.08407e-05)
(0.00017627 9.19738e-05 3.08406e-05)
(0.000167584 0.000106987 3.08408e-05)
(0.000157622 0.000121186 3.08408e-05)
(0.00014646 0.000134462 3.08407e-05)
(0.000134183 0.000146716 3.08408e-05)
(0.000120886 0.000157852 3.08406e-05)
(0.000106668 0.000167788 3.08405e-05)
(9.16388e-05 0.000176446 3.08407e-05)
(7.59114e-05 0.00018376 3.08407e-05)
(5.96066e-05 0.000189677 3.08407e-05)
(4.28484e-05 0.000194151 3.08408e-05)
(2.57641e-05 0.000197147 3.08407e-05)
(8.48352e-06 0.000198641 3.08407e-05)
(-8.86143e-06 0.000198625 3.08407e-05)
(-2.61394e-05 0.000197098 3.08409e-05)
(-4.32182e-05 0.00019407 3.08407e-05)
(-5.99679e-05 0.000189564 3.08407e-05)
(-7.62612e-05 0.000183616 3.08407e-05)
(-9.19738e-05 0.00017627 3.08406e-05)
(-0.000106987 0.000167584 3.08408e-05)
(-0.000121186 0.000157622 3.08408e-05)
(-0.000134462 0.00014646 3.08407e-05)
(-0.000146716 0.000134183 3.08408e-05)
(-0.000157852 0.000120886 3.08406e-05)
(-0.000167788 0.000106668 3.08405e-05)
(-0.000176446 9.16388e-05 3.08407e-05)
(-0.00018376 7.59114e-05 3.08407e-05)
(-0.000189677 5.96066e-05 3.08407e-05)
(-0.000194151 4.28484e-05 3.08408e-05)
(-0.000197147 2.57641e-05 3.08407e-05)
(-0.000198641 8.48352e-06 3.08407e-05)
(-0.000198625 -8.86143e-06 3.08407e-05)
(-0.000197098 -2.61394e-05 3.08409e-05)
(-0.00019407 -4.32182e-05 3.08407e-05)
(-0.000189564 -5.99679e-05 3.08407e-05)
(-0.000183616 -7.62612e-05 3.08407e-05)
(-0.00017627 -9.19738e-05 3.08406e-05)
(-0.000167584 -0.000106987 3.08408e-05)
(-0.000157622 -0.000121186 3.08408e-05)
(-0.00014646 -0.000134462 3.08407e-05)
(-0.000134183 -0.000146716 3.08408e-05)
(-0.000120886 -0.000157852 3.08406e-05)
(-0.000106668 -0.000167788 3.08405e-05)
(-9.16388e-05 -0.000176446 3.08407e-05)
(-7.59114e-05 -0.00018376 3.08407e-05)
(-5.96066e-05 -0.000189677 3.08407e-05)
(-4.28484e-05 -0.000194151 3.08408e-05)
(0.000272896 -0.000404574 2.83446e-05)
(0.000307118 -0.000379251 2.83445e-05)
(0.000339004 -0.00035104 2.83447e-05)
(0.000368308 -0.000320158 2.83447e-05)
(0.000394811 -0.00028684 2.83446e-05)
(0.000418308 -0.000251339 2.83444e-05)
(0.000438622 -0.000213924 2.83445e-05)
(0.000455597 -0.000174881 2.83442e-05)
(0.000469106 -0.000134508 2.8344e-05)
(0.000479044 -9.3111e-05 2.83442e-05)
(0.000485336 -5.10052e-05 2.83446e-05)
(0.000487934 -8.5113e-06 2.83447e-05)
(0.00048682 3.40473e-05 2.83447e-05)
(0.000481999 7.63469e-05 2.83449e-05)
(0.00047351 0.000118065 2.83449e-05)
(0.000461419 0.000158885 2.83447e-05)
(0.000445816 0.000198496 2.83446e-05)
(0.000426819 0.000236596 2.83445e-05)
(0.000404574 0.000272896 2.83446e-05)
(0.000379251 0.000307118 2.83445e-05)
(0.00035104 0.000339004 2.83447e-05)
(0.000320158 0.000368308 2.83447e-05)
(0.00028684 0.000394811 2.83446e-05)
(0.000251339 0.000418308 2.83444e-05)
(0.000213924 0.000438622 2.83445e-05)
(0.000174881 0.000455597 2.83442e-05)
(0.000134508 0.000469106 2.8344e-05)
(9.3111e-05 0.000479044 2.83442e-05)
(5.10052e-05 0.000485336 2.83446e-05)
(8.5113e-06 0.000487934 2.83447e-05)
(-3.40473e-05 0.00048682 2.83447e-05)
(-7.63469e-05 0.000481999 2.83449e-05)
(-0.000118065 0.00047351 2.83449e-05)
(-0.000158885 0.000461419 2.83447e-05)
(-0.000198496 0.000445816 2.83446e-05)
(-0.000236596 0.000426819 2.83445e-05)
(-0.000272896 0.000404574 2.83446e-05)
(-0.000307118 0.000379251 2.83445e-05)
(-0.000339004 0.00035104 2.83447e-05)
(-0.000368308 0.000320158 2.83447e-05)
(-0.000394811 0.00028684 2.83446e-05)
(-0.000418308 0.000251339 2.83444e-05)
(-0.000438622 0.000213924 2.83445e-05)
(-0.000455597 0.000174881 2.83442e-05)
(-0.000469106 0.000134508 2.8344e-05)
(-0.000479044 9.3111e-05 2.83442e-05)
(-0.000485336 5.10052e-05 2.83446e-05)
(-0.000487934 8.5113e-06 2.83447e-05)
(-0.00048682 -3.40473e-05 2.83447e-05)
(-0.000481999 -7.63469e-05 2.83449e-05)
(-0.00047351 -0.000118065 2.83449e-05)
(-0.000461419 -0.000158885 2.83447e-05)
(-0.000445816 -0.000198496 2.83446e-05)
(-0.000426819 -0.000236596 2.83445e-05)
(-0.000404574 -0.000272896 2.83446e-05)
(-0.000379251 -0.000307118 2.83445e-05)
(-0.00035104 -0.000339004 2.83447e-05)
(-0.000320158 -0.000368308 2.83447e-05)
(-0.00028684 -0.000394811 2.83446e-05)
(-0.000251339 -0.000418308 2.83444e-05)
(-0.000213924 -0.000438622 2.83445e-05)
(-0.000174881 -0.000455597 2.83442e-05)
(-0.000134508 -0.000469106 2.8344e-05)
(-9.3111e-05 -0.000479044 2.83442e-05)
(-5.10052e-05 -0.000485336 2.83446e-05)
(-8.51131e-06 -0.000487934 2.83447e-05)
(3.40473e-05 -0.00048682 2.83447e-05)
(7.63469e-05 -0.000481999 2.83449e-05)
(0.000118065 -0.00047351 2.83449e-05)
(0.000158885 -0.000461419 2.83447e-05)
(0.000198496 -0.000445816 2.83446e-05)
(0.000236596 -0.000426819 2.83445e-05)
(0.000242574 -0.000450322 6.82702e-05)
(0.000280899 -0.000427467 6.82701e-05)
(0.000317086 -0.000401358 6.82703e-05)
(0.00035086 -0.000372195 6.82704e-05)
(0.000381964 -0.000340199 6.82701e-05)
(0.00041016 -0.000305614 6.82701e-05)
(0.000435236 -0.000268704 6.82703e-05)
(0.000456999 -0.000229747 6.82702e-05)
(0.000475284 -0.000189043 6.82702e-05)
(0.000489951 -0.0001469 6.82703e-05)
(0.00050089 -0.000103639 6.82704e-05)
(0.000508016 -5.95891e-05 6.82705e-05)
(0.000511276 -1.5086e-05 6.82703e-05)
(0.000510646 2.95323e-05 6.82703e-05)
(0.000506129 7.39256e-05 6.82705e-05)
(0.00049776 0.000117756 6.82705e-05)
(0.000485602 0.000160691 6.82702e-05)
(0.00046975 0.000202403 6.82702e-05)
(0.000450322 0.000242574 6.82702e-05)
(0.000427467 0.000280899 6.82701e-05)
(0.000401358 0.000317086 6.82703e-05)
(0.000372195 0.00035086 6.82704e-05)
(0.000340199 0.000381964 6.82701e-05)
(0.000305614 0.00041016 6.82701e-05)
(0.000268704 0.000435236 6.82703e-05)
(0.000229747 0.000456999 6.82702e-05)
(0.000189043 0.000475284 6.82702e-05)
(0.0001469 0.000489951 6.82703e-05)
(0.000103639 0.00050089 6.82704e-05)
(5.95891e-05 0.000508016 6.82705e-05)
(1.5086e-05 0.000511276 6.82703e-05)
(-2.95323e-05 0.000510646 6.82703e-05)
(-7.39256e-05 0.000506129 6.82705e-05)
(-0.000117756 0.00049776 6.82705e-05)
(-0.000160691 0.000485602 6.82702e-05)
(-0.000202403 0.00046975 6.82702e-05)
(-0.000242574 0.000450322 6.82702e-05)
(-0.000280899 0.000427467 6.82701e-05)
(-0.000317086 0.000401358 6.82703e-05)
(-0.00035086 0.000372195 6.82704e-05)
(-0.000381964 0.000340199 6.82701e-05)
(-0.00041016 0.000305614 6.82701e-05)
(-0.000435236 0.000268704 6.82703e-05)
(-0.000456999 0.000229747 6.82702e-05)
(-0.000475284 0.000189043 6.82702e-05)
(-0.000489951 0.0001469 6.82703e-05)
(-0.00050089 0.000103639 6.82704e-05)
(-0.000508016 5.95891e-05 6.82705e-05)
(-0.000511276 1.5086e-05 6.82703e-05)
(-0.000510646 -2.95323e-05 6.82703e-05)
(-0.000506129 -7.39256e-05 6.82705e-05)
(-0.00049776 -0.000117756 6.82705e-05)
(-0.000485602 -0.000160691 6.82702e-05)
(-0.00046975 -0.000202403 6.82702e-05)
(-0.000450322 -0.000242574 6.82702e-05)
(-0.000427467 -0.000280899 6.82701e-05)
(-0.000401358 -0.000317086 6.82703e-05)
(-0.000372195 -0.00035086 6.82704e-05)
(-0.000340199 -0.000381964 6.82701e-05)
(-0.000305614 -0.00041016 6.82701e-05)
(-0.000268704 -0.000435236 6.82703e-05)
(-0.000229747 -0.000456999 6.82702e-05)
(-0.000189043 -0.000475284 6.82702e-05)
(-0.0001469 -0.000489951 6.82703e-05)
(-0.000103639 -0.00050089 6.82704e-05)
(-5.95891e-05 -0.000508016 6.82705e-05)
(-1.5086e-05 -0.000511276 6.82703e-05)
(2.95323e-05 -0.000510646 6.82703e-05)
(7.39256e-05 -0.000506129 6.82705e-05)
(0.000117756 -0.00049776 6.82705e-05)
(0.000160691 -0.000485602 6.82702e-05)
(0.000202403 -0.00046975 6.82702e-05)
(0.000198261 -0.000494247 9.61412e-05)
(0.000240583 -0.000475086 9.61413e-05)
(0.000281074 -0.00045231 9.61414e-05)
(0.000319426 -0.000426092 9.61415e-05)
(0.000355347 -0.00039663 9.61415e-05)
(0.000388563 -0.000364151 9.61416e-05)
(0.000418823 -0.0003289 9.61417e-05)
(0.000445894 -0.000291145 9.61416e-05)
(0.000469572 -0.000251175 9.61415e-05)
(0.000489677 -0.000209294 9.61415e-05)
(0.000506055 -0.000165819 9.61415e-05)
(0.000518581 -0.000121083 9.61418e-05)
(0.000527161 -7.54243e-05 9.61418e-05)
(0.000531728 -2.9192e-05 9.61415e-05)
(0.000532249 1.72619e-05 9.61416e-05)
(0.000528719 6.35853e-05 9.61415e-05)
(0.000521165 0.000109424 9.61414e-05)
(0.000509645 0.00015443 9.61413e-05)
(0.000494247 0.000198261 9.61412e-05)
(0.000475086 0.000240583 9.61413e-05)
(0.00045231 0.000281074 9.61414e-05)
(0.000426092 0.000319426 9.61415e-05)
(0.00039663 0.000355347 9.61415e-05)
(0.000364151 0.000388563 9.61416e-05)
(0.0003289 0.000418823 9.61417e-05)
(0.000291145 0.000445894 9.61416e-05)
(0.000251175 0.000469572 9.61415e-05)
(0.000209294 0.000489677 9.61415e-05)
(0.000165819 0.000506055 9.61415e-05)
(0.000121083 0.000518581 9.61418e-05)
(7.54243e-05 0.000527161 9.61418e-05)
(2.9192e-05 0.000531728 9.61415e-05)
(-1.72619e-05 0.000532249 9.61416e-05)
(-6.35853e-05 0.000528719 9.61415e-05)
(-0.000109424 0.000521165 9.61414e-05)
(-0.00015443 0.000509645 9.61413e-05)
(-0.000198261 0.000494247 9.61412e-05)
(-0.000240583 0.000475086 9.61413e-05)
(-0.000281074 0.00045231 9.61414e-05)
(-0.000319426 0.000426092 9.61415e-05)
(-0.000355347 0.00039663 9.61415e-05)
(-0.000388563 0.000364151 9.61416e-05)
(-0.000418823 0.0003289 9.61417e-05)
(-0.000445894 0.000291145 9.61416e-05)
(-0.000469572 0.000251175 9.61415e-05)
(-0.000489677 0.000209294 9.61415e-05)
(-0.000506055 0.000165819 9.61415e-05)
(-0.000518581 0.000121083 9.61418e-05)
(-0.000527161 7.54243e-05 9.61418e-05)
(-0.000531728 2.9192e-05 9.61415e-05)
(-0.000532249 -1.72619e-05 9.61416e-05)
(-0.000528719 -6.35853e-05 9.61415e-05)
(-0.000521165 -0.000109424 9.61414e-05)
(-0.000509645 -0.00015443 9.61413e-05)
(-0.000494247 -0.000198261 9.61412e-05)
(-0.000475086 -0.000240583 9.61413e-05)
(-0.00045231 -0.000281074 9.61414e-05)
(-0.000426092 -0.000319426 9.61415e-05)
(-0.00039663 -0.000355347 9.61415e-05)
(-0.000364151 -0.000388563 9.61416e-05)
(-0.0003289 -0.000418823 9.61417e-05)
(-0.000291145 -0.000445894 9.61416e-05)
(-0.000251175 -0.000469572 9.61415e-05)
(-0.000209294 -0.000489677 9.61415e-05)
(-0.000165819 -0.000506055 9.61415e-05)
(-0.000121083 -0.000518581 9.61418e-05)
(-7.54243e-05 -0.000527161 9.61418e-05)
(-2.9192e-05 -0.000531728 9.61415e-05)
(1.72619e-05 -0.000532249 9.61416e-05)
(6.35853e-05 -0.000528719 9.61415e-05)
(0.000109424 -0.000521165 9.61414e-05)
(0.00015443 -0.000509645 9.61413e-05)
(0.000143321 -0.000532176 0.000114033)
(0.000189157 -0.00051766 0.000114034)
(0.000233555 -0.000499204 0.000114034)
(0.000276174 -0.000476949 0.000114034)
(0.000316692 -0.000451064 0.000114034)
(0.000354799 -0.000421746 0.000114034)
(0.000390207 -0.000389218 0.000114034)
(0.000422645 -0.000353729 0.000114034)
(0.000451866 -0.000315546 0.000114034)
(0.000477648 -0.000274963 0.000114034)
(0.000499795 -0.000232287 0.000114034)
(0.000518138 -0.000187843 0.000114034)
(0.000532538 -0.000141969 0.000114034)
(0.000542885 -9.50151e-05 0.000114034)
(0.0005491 -4.73378e-05 0.000114034)
(0.000551137 6.99312e-07 0.000114034)
(0.000548979 4.87316e-05 0.000114034)
(0.000542642 9.63929e-05 0.000114033)
(0.000532176 0.000143321 0.000114033)
(0.00051766 0.000189157 0.000114034)
(0.000499204 0.000233555 0.000114034)
(0.000476949 0.000276174 0.000114034)
(0.000451064 0.000316692 0.000114034)
(0.000421746 0.000354799 0.000114034)
(0.000389218 0.000390207 0.000114034)
(0.000353729 0.000422645 0.000114034)
(0.000315546 0.000451866 0.000114034)
(0.000274963 0.000477648 0.000114034)
(0.000232287 0.000499795 0.000114034)
(0.000187843 0.000518138 0.000114034)
(0.000141969 0.000532538 0.000114034)
(9.50151e-05 0.000542885 0.000114034)
(4.73378e-05 0.0005491 0.000114034)
(-6.99312e-07 0.000551137 0.000114034)
(-4.87316e-05 0.000548979 0.000114034)
(-9.63929e-05 0.000542642 0.000114033)
(-0.000143321 0.000532176 0.000114033)
(-0.000189157 0.00051766 0.000114034)
(-0.000233555 0.000499204 0.000114034)
(-0.000276174 0.000476949 0.000114034)
(-0.000316692 0.000451064 0.000114034)
(-0.000354799 0.000421746 0.000114034)
(-0.000390207 0.000389218 0.000114034)
(-0.000422645 0.000353729 0.000114034)
(-0.000451866 0.000315546 0.000114034)
(-0.000477648 0.000274963 0.000114034)
(-0.000499795 0.000232287 0.000114034)
(-0.000518138 0.000187843 0.000114034)
(-0.000532538 0.000141969 0.000114034)
(-0.000542885 9.50151e-05 0.000114034)
(-0.0005491 4.73378e-05 0.000114034)
(-0.000551137 -6.99312e-07 0.000114034)
(-0.000548979 -4.87316e-05 0.000114034)
(-0.000542642 -9.63929e-05 0.000114033)
(-0.000532176 -0.000143321 0.000114033)
(-0.00051766 -0.000189157 0.000114034)
(-0.000499204 -0.000233555 0.000114034)
(-0.000476949 -0.000276174 0.000114034)
(-0.000451064 -0.000316692 0.000114034)
(-0.000421746 -0.000354799 0.000114034)
(-0.000389218 -0.000390207 0.000114034)
(-0.000353729 -0.000422645 0.000114034)
(-0.000315546 -0.000451866 0.000114034)
(-0.000274963 -0.000477648 0.000114034)
(-0.000232287 -0.000499795 0.000114034)
(-0.000187843 -0.000518138 0.000114034)
(-0.000141969 -0.000532538 0.000114034)
(-9.50151e-05 -0.000542885 0.000114034)
(-4.73378e-05 -0.0005491 0.000114034)
(6.99311e-07 -0.000551137 0.000114034)
(4.87316e-05 -0.000548979 0.000114034)
(9.63929e-05 -0.000542642 0.000114033)
(7.81335e-05 -0.000561321 0.000128257)
(0.000126758 -0.000552375 0.000128257)
(0.000174419 -0.000539226 0.000128257)
(0.000220752 -0.000521972 0.000128257)
(0.000265404 -0.000500746 0.000128257)
(0.000308037 -0.000475709 0.000128257)
(0.000348326 -0.000447052 0.000128257)
(0.000385963 -0.000414991 0.000128257)
(0.000420663 -0.000379773 0.000128257)
(0.000452162 -0.000341665 0.000128257)
(0.00048022 -0.000300956 0.000128257)
(0.000504623 -0.000257958 0.000128257)
(0.000525185 -0.000212995 0.000128257)
(0.00054175 -0.000166411 0.000128257)
(0.000554192 -0.000118562 0.000128257)
(0.000562417 -6.98098e-05 0.000128257)
(0.000566361 -2.05263e-05 0.000128257)
(0.000565995 2.89137e-05 0.000128257)
(0.000561321 7.81335e-05 0.000128257)
(0.000552375 0.000126758 0.000128257)
(0.000539226 0.000174419 0.000128257)
(0.000521972 0.000220752 0.000128257)
(0.000500746 0.000265404 0.000128257)
(0.000475709 0.000308037 0.000128257)
(0.000447052 0.000348326 0.000128257)
(0.000414991 0.000385963 0.000128257)
(0.000379773 0.000420663 0.000128257)
(0.000341665 0.000452162 0.000128257)
(0.000300956 0.00048022 0.000128257)
(0.000257958 0.000504623 0.000128257)
(0.000212995 0.000525185 0.000128257)
(0.000166411 0.00054175 0.000128257)