/*--------------------------------*- C++ -*----------------------------------*\
| =========                 |                                                 |
| \\      /  F ield         | OpenFOAM: The Open Source CFD Toolbox           |
|  \\    /   O peration     | Version:  2312                                  |
|   \\  /    A nd           | Website:  www.openfoam.com                      |
|    \\/     M anipulation  |                                                 |
\*---------------------------------------------------------------------------*/
FoamFile
{
    version     2.0;
    format      ascii;
    arch        "LSB;label=32;scalar=64";
    class       pointVectorField;
    location    "0.6";
    object      pointD;
}
// * * * * * * * * * * * * * * * * * * * * * * * * * * * * * * * * * * * * * //

dimensions      [0 1 0 0 0 0 0];

internalField   nonuniform List<vector> 
15127
(
(0 0 0)
(0 0 0)
(0 0 0)
(0 0 0)
(0 0 0)
(0 0 0)
(0 0 0)
(0 0 0)
(0 0 0)
(0 0 0)
(0 0 0)
(0 0 0)
(0 0 0)
(0 0 0)
(0 0 0)
(0 0 0)
(0 0 0)
(0 0 0)
(0 0 0)
(0 0 0)
(0 0 0)
(0 0 0)
(0 0 0)
(0 0 0)
(0 0 0)
(0 0 0)
(0 0 0)
(0 0 0)
(0 0 0)
(0 0 0)
(0 0 0)
(0 0 0)
(0 0 0)
(0 0 0)
(0 0 0)
(0 0 0)
(0 0 0)
(0 0 0)
(0 0 0)
(0 0 0)
(0 0 0)
(0 0 0)
(0 0 0)
(0 0 0)
(0 0 0)
(0 0 0)
(0 0 0)
(0 0 0)
(0 0 0)
(0 0 0)
(0 0 0)
(0 0 0)
(0 0 0)
(0 0 0)
(0 0 0)
(0 0 0)
(0 0 0)
(0 0 0)
(0 0 0)
(0 0 0)
(0 0 0)
(0 0 0)
(0 0 0)
(0 0 0)
(0 0 0)
(0 0 0)
(0 0 0)
(0 0 0)
(0 0 0)
(0 0 0)
(0 0 0)
(0 0 0)
(0.00021663 -0.000244915 -6.98625e-06)
(0.000237152 -0.000225103 -6.98637e-06)
(0.000255869 -0.000203577 -6.98619e-06)
(0.000272638 -0.000180502 -6.98653e-06)
(0.000287332 -0.000156053 -6.98637e-06)
(0.000299839 -0.000130417 -6.98641e-06)
(0.000310065 -0.000103788 -6.98651e-06)
(0.000317931 -7.63684e-05 -6.9871e-06)
(0.000323377 -4.83687e-05 -6.98686e-06)
(0.000326362 -2e-05 -6.98672e-06)
(0.000326863 8.52022e-06 -6.98617e-06)
(0.000324876 3.69758e-05 -6.98619e-06)
(0.000320418 6.51498e-05 -6.98603e-06)
(0.00031352 9.28287e-05 -6.98625e-06)
(0.000304236 0.0001198 -6.98621e-06)
(0.000292637 0.00014586 -6.98643e-06)
(0.000278811 0.00017081 -6.98637e-06)
(0.000262863 0.000194461 -6.98669e-06)
(0.000244915 0.00021663 -6.98625e-06)
(0.000225103 0.000237152 -6.98637e-06)
(0.000203577 0.000255869 -6.98619e-06)
(0.000180502 0.000272638 -6.98653e-06)
(0.000156053 0.000287332 -6.98637e-06)
(0.000130417 0.000299839 -6.98641e-06)
(0.000103788 0.000310065 -6.98651e-06)
(7.63684e-05 0.000317931 -6.9871e-06)
(4.83687e-05 0.000323377 -6.98686e-06)
(2e-05 0.000326362 -6.98672e-06)
(-8.52022e-06 0.000326863 -6.98617e-06)
(-3.69758e-05 0.000324876 -6.98619e-06)
(-6.51498e-05 0.000320418 -6.98603e-06)
(-9.28287e-05 0.00031352 -6.98625e-06)
(-0.0001198 0.000304236 -6.98621e-06)
(-0.00014586 0.000292637 -6.98643e-06)
(-0.00017081 0.000278811 -6.98637e-06)
(-0.000194461 0.000262863 -6.98669e-06)
(-0.00021663 0.000244915 -6.98625e-06)
(-0.000237152 0.000225103 -6.98637e-06)
(-0.000255869 0.000203577 -6.98619e-06)
(-0.000272638 0.000180502 -6.98653e-06)
(-0.000287332 0.000156053 -6.98637e-06)
(-0.000299839 0.000130417 -6.98641e-06)
(-0.000310065 0.000103788 -6.98651e-06)
(-0.000317931 7.63684e-05 -6.9871e-06)
(-0.000323377 4.83687e-05 -6.98686e-06)
(-0.000326362 2e-05 -6.98672e-06)
(-0.000326863 -8.52022e-06 -6.98617e-06)
(-0.000324876 -3.69758e-05 -6.98619e-06)
(-0.000320418 -6.51498e-05 -6.98603e-06)
(-0.00031352 -9.28287e-05 -6.98625e-06)
(-0.000304236 -0.0001198 -6.98621e-06)
(-0.000292637 -0.00014586 -6.98643e-06)
(-0.000278811 -0.00017081 -6.98637e-06)
(-0.000262863 -0.000194461 -6.98669e-06)
(-0.000244915 -0.00021663 -6.98625e-06)
(-0.000225103 -0.000237152 -6.98637e-06)
(-0.000203577 -0.000255869 -6.98619e-06)
(-0.000180502 -0.000272638 -6.98653e-06)
(-0.000156053 -0.000287332 -6.98637e-06)
(-0.000130417 -0.000299839 -6.98641e-06)
(-0.000103788 -0.000310065 -6.98651e-06)
(-7.63684e-05 -0.000317931 -6.9871e-06)
(-4.83687e-05 -0.000323377 -6.98686e-06)
(-2e-05 -0.000326362 -6.98672e-06)
(8.52022e-06 -0.000326863 -6.98617e-06)
(3.69758e-05 -0.000324876 -6.98619e-06)
(6.51498e-05 -0.000320418 -6.98603e-06)
(9.28287e-05 -0.00031352 -6.98625e-06)
(0.0001198 -0.000304236 -6.98621e-06)
(0.00014586 -0.000292637 -6.98643e-06)
(0.00017081 -0.000278811 -6.98637e-06)
(0.000194461 -0.000262863 -6.98669e-06)
(0.000198321 -0.000279824 2.32914e-05)
(0.000221955 -0.000261474 2.32915e-05)
(0.000243899 -0.000241134 2.32915e-05)
(0.000263988 -0.000218959 2.32913e-05)
(0.000282067 -0.000195118 2.32914e-05)
(0.000297999 -0.000169792 2.32911e-05)
(0.000311663 -0.000143174 2.32914e-05)
(0.000322956 -0.000115465 2.32911e-05)
(0.00033179 -8.68787e-05 2.3291e-05)
(0.0003381 -5.7631e-05 2.32913e-05)
(0.000341836 -2.7944e-05 2.32916e-05)
(0.00034297 1.95554e-06 2.32913e-05)
(0.000341495 3.18393e-05 2.32916e-05)
(0.00033742 6.14818e-05 2.32914e-05)
(0.000330778 9.06559e-05 2.32916e-05)
(0.000321618 0.00011914 2.32916e-05)
(0.00031001 0.000146718 2.32914e-05)
(0.000296044 0.000173178 2.32915e-05)
(0.000279824 0.000198321 2.32914e-05)
(0.000261474 0.000221955 2.32915e-05)
(0.000241134 0.000243899 2.32915e-05)
(0.000218959 0.000263988 2.32913e-05)
(0.000195118 0.000282067 2.32914e-05)
(0.000169792 0.000297999 2.32911e-05)
(0.000143174 0.000311663 2.32914e-05)
(0.000115465 0.000322956 2.32911e-05)
(8.68787e-05 0.00033179 2.3291e-05)
(5.7631e-05 0.0003381 2.32913e-05)
(2.7944e-05 0.000341836 2.32916e-05)
(-1.95554e-06 0.00034297 2.32913e-05)
(-3.18393e-05 0.000341495 2.32916e-05)
(-6.14818e-05 0.00033742 2.32914e-05)
(-9.06559e-05 0.000330778 2.32916e-05)
(-0.00011914 0.000321618 2.32916e-05)
(-0.000146718 0.00031001 2.32914e-05)
(-0.000173178 0.000296044 2.32915e-05)
(-0.000198321 0.000279824 2.32914e-05)
(-0.000221955 0.000261474 2.32915e-05)
(-0.000243899 0.000241134 2.32915e-05)
(-0.000263988 0.000218959 2.32913e-05)
(-0.000282067 0.000195118 2.32914e-05)
(-0.000297999 0.000169792 2.32911e-05)
(-0.000311663 0.000143174 2.32914e-05)
(-0.000322956 0.000115465 2.32911e-05)
(-0.00033179 8.68787e-05 2.3291e-05)
(-0.0003381 5.7631e-05 2.32913e-05)
(-0.000341836 2.7944e-05 2.32916e-05)
(-0.00034297 -1.95554e-06 2.32913e-05)
(-0.000341495 -3.18393e-05 2.32916e-05)
(-0.00033742 -6.14818e-05 2.32914e-05)
(-0.000330778 -9.06559e-05 2.32916e-05)
(-0.000321618 -0.00011914 2.32916e-05)
(-0.00031001 -0.000146718 2.32914e-05)
(-0.000296044 -0.000173178 2.32915e-05)
(-0.000279824 -0.000198321 2.32914e-05)
(-0.000261474 -0.000221955 2.32915e-05)
(-0.000241134 -0.000243899 2.32915e-05)
(-0.000218959 -0.000263988 2.32913e-05)
(-0.000195118 -0.000282067 2.32914e-05)
(-0.000169792 -0.000297999 2.32911e-05)
(-0.000143174 -0.000311663 2.32914e-05)
(-0.000115465 -0.000322956 2.32911e-05)
(-8.68787e-05 -0.00033179 2.3291e-05)
(-5.7631e-05 -0.0003381 2.32913e-05)
(-2.7944e-05 -0.000341836 2.32916e-05)
(1.95554e-06 -0.00034297 2.32913e-05)
(3.18393e-05 -0.000341495 2.32916e-05)
(6.14818e-05 -0.00033742 2.32914e-05)
(9.06559e-05 -0.000330778 2.32916e-05)
(0.00011914 -0.000321618 2.32916e-05)
(0.000146718 -0.00031001 2.32914e-05)
(0.000173178 -0.000296044 2.32915e-05)
(0 0 0)
(0 0 0)
(0 0 0)
(0 0 0)
(0 0 0)
(0 0 0)
(0 0 0)
(0 0 0)
(0 0 0)
(0 0 0)
(0 0 0)
(0 0 0)
(0 0 0)
(0 0 0)
(0 0 0)
(0 0 0)
(0 0 0)
(0 0 0)
(0 0 0)
(0 0 0)
(0 0 0)
(0 0 0)
(0 0 0)
(0 0 0)
(0 0 0)
(0 0 0)
(0 0 0)
(0 0 0)
(0 0 0)
(0 0 0)
(0 0 0)
(0 0 0)
(0 0 0)
(0 0 0)
(0 0 0)
(0 0 0)
(0 0 0)
(0 0 0)
(0 0 0)
(0 0 0)
(0 0 0)
(0 0 0)
(0 0 0)
(0 0 0)
(0 0 0)
(0 0 0)
(0 0 0)
(0 0 0)
(0 0 0)
(0 0 0)
(0 0 0)
(0 0 0)
(0 0 0)
(0 0 0)
(0 0 0)
(0 0 0)
(0 0 0)
(0 0 0)
(0 0 0)
(0 0 0)
(0 0 0)
(0 0 0)
(0 0 0)
(0 0 0)
(0 0 0)
(0 0 0)
(0 0 0)
(0 0 0)
(0 0 0)
(0 0 0)
(0 0 0)
(0 0 0)
(0.0001739 -0.000315179 4.78464e-05)
(0.000200708 -0.000298823 4.78464e-05)
(0.000225988 -0.000280194 4.78468e-05)
(0.000249549 -0.000259431 4.78465e-05)
(0.00027121 -0.000236694 4.78465e-05)
(0.000290807 -0.000212157 4.78468e-05)
(0.000308191 -0.000186003 4.78466e-05)
(0.00032323 -0.000158435 4.78466e-05)
(0.000335808 -0.000129661 4.78466e-05)
(0.000345831 -9.98998e-05 4.78467e-05)
(0.000353222 -6.93781e-05 4.78466e-05)
(0.000357924 -3.83293e-05 4.78469e-05)
(0.000359903 -6.98768e-06 4.78466e-05)
(0.000359142 2.44067e-05 4.78465e-05)
(0.000355648 5.56144e-05 4.78469e-05)
(0.000349448 8.64004e-05 4.78465e-05)
(0.000340588 0.000116528 4.78465e-05)
(0.000329136 0.000145769 4.78464e-05)
(0.000315179 0.0001739 4.78464e-05)
(0.000298823 0.000200708 4.78464e-05)
(0.000280194 0.000225988 4.78468e-05)
(0.000259431 0.000249549 4.78465e-05)
(0.000236694 0.00027121 4.78465e-05)
(0.000212157 0.000290807 4.78468e-05)
(0.000186003 0.000308191 4.78466e-05)
(0.000158435 0.00032323 4.78466e-05)
(0.000129661 0.000335808 4.78466e-05)
(9.98998e-05 0.000345831 4.78467e-05)
(6.93781e-05 0.000353222 4.78466e-05)
(3.83293e-05 0.000357924 4.78469e-05)
(6.98769e-06 0.000359903 4.78466e-05)
(-2.44067e-05 0.000359142 4.78465e-05)
(-5.56144e-05 0.000355648 4.78469e-05)
(-8.64004e-05 0.000349448 4.78465e-05)
(-0.000116528 0.000340588 4.78465e-05)
(-0.000145769 0.000329136 4.78464e-05)
(-0.0001739 0.000315179 4.78464e-05)
(-0.000200708 0.000298823 4.78464e-05)
(-0.000225988 0.000280194 4.78468e-05)
(-0.000249549 0.000259431 4.78465e-05)
(-0.00027121 0.000236694 4.78465e-05)
(-0.000290807 0.000212157 4.78468e-05)
(-0.000308191 0.000186003 4.78466e-05)
(-0.00032323 0.000158435 4.78466e-05)
(-0.000335808 0.000129661 4.78466e-05)
(-0.000345831 9.98998e-05 4.78467e-05)
(-0.000353222 6.93781e-05 4.78466e-05)
(-0.000357924 3.83293e-05 4.78469e-05)
(-0.000359903 6.98769e-06 4.78466e-05)
(-0.000359142 -2.44067e-05 4.78465e-05)
(-0.000355648 -5.56144e-05 4.78469e-05)
(-0.000349448 -8.64004e-05 4.78465e-05)
(-0.000340588 -0.000116528 4.78465e-05)
(-0.000329136 -0.000145769 4.78464e-05)
(-0.000315179 -0.0001739 4.78464e-05)
(-0.000298823 -0.000200708 4.78464e-05)
(-0.000280194 -0.000225988 4.78468e-05)
(-0.000259431 -0.000249549 4.78465e-05)
(-0.000236694 -0.00027121 4.78465e-05)
(-0.000212157 -0.000290807 4.78468e-05)
(-0.000186003 -0.000308191 4.78466e-05)
(-0.000158435 -0.00032323 4.78466e-05)
(-0.000129661 -0.000335808 4.78466e-05)
(-9.98998e-05 -0.000345831 4.78467e-05)
(-6.93781e-05 -0.000353222 4.78466e-05)
(-3.83293e-05 -0.000357924 4.78469e-05)
(-6.98768e-06 -0.000359903 4.78466e-05)
(2.44067e-05 -0.000359142 4.78465e-05)
(5.56144e-05 -0.000355648 4.78469e-05)
(8.64004e-05 -0.000349448 4.78465e-05)
(0.000116528 -0.000340588 4.78465e-05)
(0.000145769 -0.000329136 4.78464e-05)
(0 0 0)
(0 0 0)
(0 0 0)
(0 0 0)
(0 0 0)
(0 0 0)
(0 0 0)
(0 0 0)
(0 0 0)
(0 0 0)
(0 0 0)
(0 0 0)
(0 0 0)
(0 0 0)
(0 0 0)
(0 0 0)
(0 0 0)
(0 0 0)
(0 0 0)
(0 0 0)
(0 0 0)
(0 0 0)
(0 0 0)
(0 0 0)
(0 0 0)
(0 0 0)
(0 0 0)
(0 0 0)
(0 0 0)
(0 0 0)
(0 0 0)
(0 0 0)
(0 0 0)
(0 0 0)
(0 0 0)
(0 0 0)
(0 0 0)
(0 0 0)
(0 0 0)
(0 0 0)
(0 0 0)
(0 0 0)
(0 0 0)
(0 0 0)
(0 0 0)
(0 0 0)
(0 0 0)
(0 0 0)
(0 0 0)
(0 0 0)
(0 0 0)
(0 0 0)
(0 0 0)
(0 0 0)
(0 0 0)
(0 0 0)
(0 0 0)
(0 0 0)
(0 0 0)
(0 0 0)
(0 0 0)
(0 0 0)
(0 0 0)
(0 0 0)
(0 0 0)
(0 0 0)
(0 0 0)
(0 0 0)
(0 0 0)
(0 0 0)
(0 0 0)
(0 0 0)
(0.000137319 -0.000347909 6.10337e-05)
(0.000167119 -0.000334618 6.10338e-05)
(0.000195648 -0.000318778 6.10337e-05)
(0.000222686 -0.000300514 6.1034e-05)
(0.00024803 -0.000279962 6.10339e-05)
(0.000271486 -0.00025728 6.1034e-05)
(0.000292877 -0.000232639 6.10338e-05)
(0.000312038 -0.000206228 6.10339e-05)
(0.000328824 -0.000178247 6.10338e-05)
(0.000343108 -0.00014891 6.10339e-05)
(0.000354781 -0.000118439 6.10338e-05)
(0.000363754 -8.70678e-05 6.1034e-05)
(0.000369958 -5.50327e-05 6.10339e-05)
(0.000373346 -2.25797e-05 6.10339e-05)
(0.000373894 1.00462e-05 6.10337e-05)
(0.000371595 4.25945e-05 6.10339e-05)
(0.000366469 7.48193e-05 6.10338e-05)
(0.000358554 0.000106475 6.10337e-05)
(0.000347909 0.000137319 6.10337e-05)
(0.000334618 0.000167119 6.10338e-05)
(0.000318778 0.000195648 6.10337e-05)
(0.000300514 0.000222686 6.1034e-05)
(0.000279962 0.00024803 6.10339e-05)
(0.00025728 0.000271486 6.1034e-05)
(0.000232639 0.000292877 6.10338e-05)
(0.000206228 0.000312038 6.10339e-05)
(0.000178247 0.000328824 6.10338e-05)
(0.00014891 0.000343108 6.10339e-05)
(0.000118439 0.000354781 6.10338e-05)
(8.70678e-05 0.000363754 6.1034e-05)
(5.50327e-05 0.000369958 6.10339e-05)
(2.25797e-05 0.000373346 6.10339e-05)
(-1.00462e-05 0.000373894 6.10337e-05)
(-4.25945e-05 0.000371595 6.10339e-05)
(-7.48193e-05 0.000366469 6.10338e-05)
(-0.000106475 0.000358554 6.10337e-05)
(-0.000137319 0.000347909 6.10337e-05)
(-0.000167119 0.000334618 6.10338e-05)
(-0.000195648 0.000318778 6.10337e-05)
(-0.000222686 0.000300514 6.1034e-05)
(-0.00024803 0.000279962 6.10339e-05)
(-0.000271486 0.00025728 6.1034e-05)
(-0.000292877 0.000232639 6.10338e-05)
(-0.000312038 0.000206228 6.10339e-05)
(-0.000328824 0.000178247 6.10338e-05)
(-0.000343108 0.00014891 6.10339e-05)
(-0.000354781 0.000118439 6.10338e-05)
(-0.000363754 8.70678e-05 6.1034e-05)
(-0.000369958 5.50327e-05 6.10339e-05)
(-0.000373346 2.25797e-05 6.10339e-05)
(-0.000373894 -1.00462e-05 6.10337e-05)
(-0.000371595 -4.25945e-05 6.10339e-05)
(-0.000366469 -7.48193e-05 6.10338e-05)
(-0.000358554 -0.000106475 6.10337e-05)
(-0.000347909 -0.000137319 6.10337e-05)
(-0.000334618 -0.000167119 6.10338e-05)
(-0.000318778 -0.000195648 6.10337e-05)
(-0.000300514 -0.000222686 6.1034e-05)
(-0.000279962 -0.00024803 6.10339e-05)
(-0.00025728 -0.000271486 6.1034e-05)
(-0.000232639 -0.000292877 6.10338e-05)
(-0.000206228 -0.000312038 6.10339e-05)
(-0.000178247 -0.000328824 6.10338e-05)
(-0.00014891 -0.000343108 6.10339e-05)
(-0.000118439 -0.000354781 6.10338e-05)
(-8.70678e-05 -0.000363754 6.1034e-05)
(-5.50327e-05 -0.000369958 6.10339e-05)
(-2.25797e-05 -0.000373346 6.10339e-05)
(1.00462e-05 -0.000373894 6.10337e-05)
(4.25945e-05 -0.000371595 6.10339e-05)
(7.48193e-05 -0.000366469 6.10338e-05)
(0.000106475 -0.000358554 6.10337e-05)
(0 0 0)
(0 0 0)
(0 0 0)
(0 0 0)
(0 0 0)
(0 0 0)
(0 0 0)
(0 0 0)
(0 0 0)
(0 0 0)
(0 0 0)
(0 0 0)
(0 0 0)
(0 0 0)
(0 0 0)
(0 0 0)
(0 0 0)
(0 0 0)
(0 0 0)
(0 0 0)
(0 0 0)
(0 0 0)
(0 0 0)
(0 0 0)
(0 0 0)
(0 0 0)
(0 0 0)
(0 0 0)
(0 0 0)
(0 0 0)
(0 0 0)
(0 0 0)
(0 0 0)
(0 0 0)
(0 0 0)
(0 0 0)
(0 0 0)
(0 0 0)
(0 0 0)
(0 0 0)
(0 0 0)
(0 0 0)
(0 0 0)
(0 0 0)
(0 0 0)
(0 0 0)
(0 0 0)
(0 0 0)
(0 0 0)
(0 0 0)
(0 0 0)
(0 0 0)
(0 0 0)
(0 0 0)
(0 0 0)
(0 0 0)
(0 0 0)
(0 0 0)
(0 0 0)
(0 0 0)
(0 0 0)
(0 0 0)
(0 0 0)
(0 0 0)
(0 0 0)
(0 0 0)
(0 0 0)
(0 0 0)
(0 0 0)
(0 0 0)
(0 0 0)
(0 0 0)
(9.23375e-05 -0.000374443 6.96202e-05)
(0.000124621 -0.000364971 6.96203e-05)
(0.000155956 -0.000352721 6.96204e-05)
(0.000186104 -0.000337786 6.96204e-05)
(0.000214836 -0.00032028 6.96204e-05)
(0.000241932 -0.000300338 6.96204e-05)
(0.000267188 -0.000278109 6.96204e-05)
(0.00029041 -0.000253763 6.96203e-05)
(0.000311422 -0.000227488 6.96203e-05)
(0.000330064 -0.000199479 6.96202e-05)
(0.000346193 -0.000169953 6.96204e-05)
(0.000359688 -0.000139134 6.96204e-05)
(0.000370446 -0.000107255 6.96203e-05)
(0.000378384 -7.45603e-05 6.96203e-05)
(0.000383443 -4.12991e-05 6.96204e-05)
(0.000385583 -7.72239e-06 6.96203e-05)
(0.000384789 2.59132e-05 6.96202e-05)
(0.000381066 5.93511e-05 6.96202e-05)
(0.000374443 9.23375e-05 6.96202e-05)
(0.000364971 0.000124621 6.96203e-05)
(0.000352721 0.000155956 6.96204e-05)
(0.000337786 0.000186104 6.96204e-05)
(0.00032028 0.000214836 6.96204e-05)
(0.000300338 0.000241932 6.96204e-05)
(0.000278109 0.000267188 6.96204e-05)
(0.000253763 0.00029041 6.96203e-05)
(0.000227488 0.000311422 6.96203e-05)
(0.000199479 0.000330064 6.96202e-05)
(0.000169953 0.000346193 6.96204e-05)
(0.000139134 0.000359688 6.96204e-05)
(0.000107255 0.000370446 6.96203e-05)
(7.45603e-05 0.000378384 6.96203e-05)
(4.12991e-05 0.000383443 6.96204e-05)
(7.72239e-06 0.000385583 6.96203e-05)
(-2.59132e-05 0.000384789 6.96202e-05)
(-5.93511e-05 0.000381066 6.96202e-05)
(-9.23375e-05 0.000374443 6.96202e-05)
(-0.000124621 0.000364971 6.96203e-05)
(-0.000155956 0.000352721 6.96204e-05)
(-0.000186104 0.000337786 6.96204e-05)
(-0.000214836 0.00032028 6.96204e-05)
(-0.000241932 0.000300338 6.96204e-05)
(-0.000267188 0.000278109 6.96204e-05)
(-0.00029041 0.000253763 6.96203e-05)
(-0.000311422 0.000227488 6.96203e-05)
(-0.000330064 0.000199479 6.96202e-05)
(-0.000346193 0.000169953 6.96204e-05)
(-0.000359688 0.000139134 6.96204e-05)
(-0.000370446 0.000107255 6.96203e-05)
(-0.000378384 7.45603e-05 6.96203e-05)
(-0.000383443 4.12991e-05 6.96204e-05)
(-0.000385583 7.72239e-06 6.96203e-05)
(-0.000384789 -2.59132e-05 6.96202e-05)
(-0.000381066 -5.93511e-05 6.96202e-05)
(-0.000374443 -9.23375e-05 6.96202e-05)
(-0.000364971 -0.000124621 6.96203e-05)
(-0.000352721 -0.000155956 6.96204e-05)
(-0.000337786 -0.000186104 6.96204e-05)
(-0.00032028 -0.000214836 6.96204e-05)
(-0.000300338 -0.000241932 6.96204e-05)
(-0.000278109 -0.000267188 6.96204e-05)
(-0.000253763 -0.00029041 6.96203e-05)
(-0.000227488 -0.000311422 6.96203e-05)
(-0.000199479 -0.000330064 6.96202e-05)
(-0.000169953 -0.000346193 6.96204e-05)
(-0.000139134 -0.000359688 6.96204e-05)
(-0.000107255 -0.000370446 6.96203e-05)
(-7.45603e-05 -0.000378384 6.96203e-05)
(-4.12991e-05 -0.000383443 6.96204e-05)
(-7.72239e-06 -0.000385583 6.96203e-05)
(2.59132e-05 -0.000384789 6.96202e-05)
(5.93511e-05 -0.000381066 6.96202e-05)
(0 0 0)
(0 0 0)
(0 0 0)
(0 0 0)
(0 0 0)
(0 0 0)
(0 0 0)
(0 0 0)
(0 0 0)
(0 0 0)
(0 0 0)
(0 0 0)
(0 0 0)
(0 0 0)
(0 0 0)
(0 0 0)
(0 0 0)
(0 0 0)
(0 0 0)
(0 0 0)
(0 0 0)
(0 0 0)
(0 0 0)
(0 0 0)
(0 0 0)
(0 0 0)
(0 0 0)
(0 0 0)
(0 0 0)
(0 0 0)
(0 0 0)
(0 0 0)
(0 0 0)
(0 0 0)
(0 0 0)
(0 0 0)
(0 0 0)
(0 0 0)
(0 0 0)
(0 0 0)
(0 0 0)
(0 0 0)
(0 0 0)
(0 0 0)
(0 0 0)
(0 0 0)
(0 0 0)
(0 0 0)
(0 0 0)
(0 0 0)
(0 0 0)
(0 0 0)
(0 0 0)
(0 0 0)
(0 0 0)
(0 0 0)
(0 0 0)
(0 0 0)
(0 0 0)
(0 0 0)
(0 0 0)
(0 0 0)
(0 0 0)
(0 0 0)
(0 0 0)
(0 0 0)
(0 0 0)
(0 0 0)
(0 0 0)
(0 0 0)
(0 0 0)
(0 0 0)
(3.39885e-05 -0.000394867 7.84402e-05)
(6.82741e-05 -0.000390402 7.84402e-05)
(0.00010204 -0.000382966 7.84402e-05)
(0.00013503 -0.000372615 7.84401e-05)
(0.000166992 -0.000359428 7.844e-05)
(0.000197682 -0.000343506 7.844e-05)
(0.000226869 -0.000324969 7.844e-05)
(0.000254328 -0.000303961 7.844e-05)
(0.000279852 -0.000280638 7.84401e-05)
(0.000303247 -0.000255179 7.844e-05)
(0.000324333 -0.000227778 7.844e-05)
(0.000342951 -0.000198644 7.84399e-05)
(0.000358959 -0.000167998 7.84398e-05)
(0.000372235 -0.000136073 7.84398e-05)
(0.000382678 -0.000103113 7.844e-05)
(0.000390209 -6.93688e-05 7.84401e-05)
(0.00039477 -3.50959e-05 7.84401e-05)
(0.000396326 -5.55056e-07 7.844e-05)
(0.000394867 3.39885e-05 7.84402e-05)
(0.000390402 6.82741e-05 7.84402e-05)
(0.000382966 0.00010204 7.84402e-05)
(0.000372615 0.00013503 7.84401e-05)
(0.000359428 0.000166992 7.844e-05)
(0.000343506 0.000197682 7.844e-05)
(0.000324969 0.000226869 7.844e-05)
(0.000303961 0.000254328 7.844e-05)
(0.000280638 0.000279852 7.84401e-05)
(0.000255179 0.000303247 7.844e-05)
(0.000227778 0.000324333 7.844e-05)
(0.000198644 0.000342951 7.84399e-05)
(0.000167998 0.000358959 7.84398e-05)
(0.000136073 0.000372235 7.84398e-05)
(0.000103113 0.000382678 7.844e-05)
(6.93688e-05 0.000390209 7.84401e-05)
(3.50959e-05 0.00039477 7.84401e-05)
(5.55057e-07 0.000396326 7.844e-05)
(-3.39885e-05 0.000394867 7.84402e-05)
(-6.82741e-05 0.000390402 7.84402e-05)
(-0.00010204 0.000382966 7.84402e-05)
(-0.00013503 0.000372615 7.84401e-05)
(-0.000166992 0.000359428 7.844e-05)
(-0.000197682 0.000343506 7.844e-05)
(-0.000226869 0.000324969 7.844e-05)
(-0.000254328 0.000303961 7.844e-05)
(-0.000279852 0.000280638 7.84401e-05)
(-0.000303247 0.000255179 7.844e-05)
(-0.000324333 0.000227778 7.844e-05)
(-0.000342951 0.000198644 7.84399e-05)
(-0.000358959 0.000167998 7.84398e-05)
(-0.000372235 0.000136073 7.84398e-05)
(-0.000382678 0.000103113 7.844e-05)
(-0.000390209 6.93688e-05 7.84401e-05)
(-0.00039477 3.50959e-05 7.84401e-05)
(-0.000396326 5.55056e-07 7.844e-05)
(-0.000394867 -3.39885e-05 7.84402e-05)
(-0.000390402 -6.82741e-05 7.84402e-05)
(-0.000382966 -0.00010204 7.84402e-05)
(-0.000372615 -0.00013503 7.84401e-05)
(-0.000359428 -0.000166992 7.844e-05)
(-0.000343506 -0.000197682 7.844e-05)
(-0.000324969 -0.000226869 7.844e-05)
(-0.000303961 -0.000254328 7.844e-05)
(-0.000280638 -0.000279852 7.84401e-05)
(-0.000255179 -0.000303247 7.844e-05)
(-0.000227778 -0.000324333 7.844e-05)
(-0.000198644 -0.000342951 7.84399e-05)
(-0.000167998 -0.000358959 7.84398e-05)
(-0.000136073 -0.000372235 7.84398e-05)
(-0.000103113 -0.000382678 7.844e-05)
(-6.93688e-05 -0.000390209 7.84401e-05)
(-3.50959e-05 -0.00039477 7.84401e-05)
(-5.55056e-07 -0.000396326 7.844e-05)
(0 0 0)
(0 0 0)
(0 0 0)
(0 0 0)
(0 0 0)
(0 0 0)
(0 0 0)
(0 0 0)
(0 0 0)
(0 0 0)
(0 0 0)
(0 0 0)
(0 0 0)
(0 0 0)
(0 0 0)
(0 0 0)
(0 0 0)
(0 0 0)
(0 0 0)
(0 0 0)
(0 0 0)
(0 0 0)
(0 0 0)
(0 0 0)
(0 0 0)
(0 0 0)
(0 0 0)
(0 0 0)
(0 0 0)
(0 0 0)
(0 0 0)
(0 0 0)
(0 0 0)
(0 0 0)
(0 0 0)
(0 0 0)
(0 0 0)
(0 0 0)
(0 0 0)
(0 0 0)
(0 0 0)
(0 0 0)
(0 0 0)
(0 0 0)
(0 0 0)
(0 0 0)
(0 0 0)
(0 0 0)
(0 0 0)
(0 0 0)
(0 0 0)
(0 0 0)
(0 0 0)
(0 0 0)
(0 0 0)
(0 0 0)
(0 0 0)
(0 0 0)
(0 0 0)
(0 0 0)
(0 0 0)
(0 0 0)
(0 0 0)
(0 0 0)
(0 0 0)
(0 0 0)
(0 0 0)
(0 0 0)
(0 0 0)
(0 0 0)
(0 0 0)
(0 0 0)
(-3.14004e-05 -0.000412843 8.78974e-05)
(4.70057e-06 -0.000414009 8.78974e-05)
(4.07662e-05 -0.000412024 8.78974e-05)
(7.65208e-05 -0.000406903 8.78974e-05)
(0.000111694 -0.000398685 8.7897e-05)
(0.000146016 -0.000387433 8.78971e-05)
(0.000179228 -0.000373233 8.78971e-05)
(0.000211075 -0.000356191 8.78971e-05)
(0.000241316 -0.00033644 8.78972e-05)
(0.000269721 -0.000314127 8.78971e-05)
(0.000296072 -0.000289425 8.78972e-05)
(0.000320171 -0.000262519 8.7897e-05)
(0.000341832 -0.000233615 8.78966e-05)
(0.000360892 -0.000202934 8.78969e-05)
(0.000377205 -0.000170708 8.7897e-05)
(0.000390648 -0.000137182 8.78972e-05)
(0.000401118 -0.000102613 8.78973e-05)
(0.000408535 -6.72635e-05 8.78975e-05)
(0.000412843 -3.14004e-05 8.78974e-05)
(0.000414009 4.70057e-06 8.78974e-05)
(0.000412024 4.07662e-05 8.78974e-05)
(0.000406903 7.65208e-05 8.78974e-05)
(0.000398685 0.000111694 8.7897e-05)
(0.000387433 0.000146016 8.78971e-05)
(0.000373233 0.000179228 8.78971e-05)
(0.000356191 0.000211075 8.78971e-05)
(0.00033644 0.000241316 8.78972e-05)
(0.000314127 0.000269721 8.78971e-05)
(0.000289425 0.000296072 8.78972e-05)
(0.000262519 0.000320171 8.7897e-05)
(0.000233615 0.000341832 8.78966e-05)
(0.000202934 0.000360892 8.78969e-05)
(0.000170708 0.000377205 8.7897e-05)
(0.000137182 0.000390648 8.78972e-05)
(0.000102613 0.000401118 8.78973e-05)
(6.72635e-05 0.000408535 8.78975e-05)
(3.14004e-05 0.000412843 8.78974e-05)
(-4.70057e-06 0.000414009 8.78974e-05)
(-4.07662e-05 0.000412024 8.78974e-05)
(-7.65208e-05 0.000406903 8.78974e-05)
(-0.000111694 0.000398685 8.7897e-05)
(-0.000146016 0.000387433 8.78971e-05)
(-0.000179228 0.000373233 8.78971e-05)
(-0.000211075 0.000356191 8.78971e-05)
(-0.000241316 0.00033644 8.78972e-05)
(-0.000269721 0.000314127 8.78971e-05)
(-0.000296072 0.000289425 8.78972e-05)
(-0.000320171 0.000262519 8.7897e-05)
(-0.000341832 0.000233615 8.78966e-05)
(-0.000360892 0.000202934 8.78969e-05)
(-0.000377205 0.000170708 8.7897e-05)
(-0.000390648 0.000137182 8.78972e-05)
(-0.000401118 0.000102613 8.78973e-05)
(-0.000408535 6.72635e-05 8.78975e-05)
(-0.000412843 3.14004e-05 8.78974e-05)
(-0.000414009 -4.70057e-06 8.78974e-05)
(-0.000412024 -4.07662e-05 8.78974e-05)
(-0.000406903 -7.65208e-05 8.78974e-05)
(-0.000398685 -0.000111694 8.7897e-05)
(-0.000387433 -0.000146016 8.78971e-05)
(-0.000373233 -0.000179228 8.78971e-05)
(-0.000356191 -0.000211075 8.78971e-05)
(-0.00033644 -0.000241316 8.78972e-05)
(-0.000314127 -0.000269721 8.78971e-05)
(-0.000289425 -0.000296072 8.78972e-05)
(-0.000262519 -0.000320171 8.7897e-05)
(-0.000233615 -0.000341832 8.78966e-05)
(-0.000202934 -0.000360892 8.78969e-05)
(-0.000170708 -0.000377205 8.7897e-05)
(-0.000137182 -0.000390648 8.78972e-05)
(-0.000102613 -0.000401118 8.78973e-05)
(-6.72635e-05 -0.000408535 8.78975e-05)
(0 0 0)
(0 0 0)
(0 0 0)
(0 0 0)
(0 0 0)
(0 0 0)
(0 0 0)
(0 0 0)
(0 0 0)
(0 0 0)
(0 0 0)
(0 0 0)
(0 0 0)
(0 0 0)
(0 0 0)
(0 0 0)
(0 0 0)
(0 0 0)
(0 0 0)
(0 0 0)
(0 0 0)
(0 0 0)
(0 0 0)
(0 0 0)
(0 0 0)
(0 0 0)
(0 0 0)
(0 0 0)
(0 0 0)
(0 0 0)
(0 0 0)
(0 0 0)
(0 0 0)
(0 0 0)
(0 0 0)
(0 0 0)
(0 0 0)
(0 0 0)
(0 0 0)
(0 0 0)
(0 0 0)
(0 0 0)
(0 0 0)
(0 0 0)
(0 0 0)
(0 0 0)
(0 0 0)
(0 0 0)
(0 0 0)
(0 0 0)
(0 0 0)
(0 0 0)
(0 0 0)
(0 0 0)
(0 0 0)
(0 0 0)
(0 0 0)
(0 0 0)
(0 0 0)
(0 0 0)
(0 0 0)
(0 0 0)
(0 0 0)
(0 0 0)
(0 0 0)
(0 0 0)
(0 0 0)
(0 0 0)
(0 0 0)
(0 0 0)
(0 0 0)
(0 0 0)
(0.000406074 -0.00050988 2.85743e-05)
(0.000448968 -0.000472548 2.85735e-05)
(0.000488444 -0.00043162 2.85744e-05)
(0.000524204 -0.000387407 2.85743e-05)
(0.000555974 -0.000340246 2.85737e-05)
(0.000583513 -0.000290495 2.85738e-05)
(0.00060661 -0.000238533 2.8574e-05)
(0.000625092 -0.000184754 2.8573e-05)
(0.000638816 -0.000129571 2.85732e-05)
(0.000647677 -7.34015e-05 2.85736e-05)
(0.00065161 -1.66746e-05 2.85746e-05)
(0.000650583 4.01805e-05 2.85742e-05)
(0.000644605 9.67304e-05 2.85742e-05)
(0.000633722 0.000152543 2.85747e-05)
(0.000618015 0.000207195 2.85745e-05)
(0.000597605 0.000260271 2.85735e-05)
(0.000572647 0.000311365 2.85743e-05)
(0.000543331 0.00036009 2.85738e-05)
(0.00050988 0.000406074 2.85743e-05)
(0.000472548 0.000448968 2.85735e-05)
(0.00043162 0.000488444 2.85744e-05)
(0.000387407 0.000524204 2.85743e-05)
(0.000340246 0.000555974 2.85737e-05)
(0.000290495 0.000583513 2.85738e-05)
(0.000238533 0.00060661 2.8574e-05)
(0.000184754 0.000625092 2.8573e-05)
(0.000129571 0.000638816 2.85732e-05)
(7.34015e-05 0.000647677 2.85736e-05)
(1.66746e-05 0.00065161 2.85746e-05)
(-4.01805e-05 0.000650583 2.85742e-05)
(-9.67304e-05 0.000644605 2.85742e-05)
(-0.000152543 0.000633722 2.85747e-05)
(-0.000207195 0.000618015 2.85745e-05)
(-0.000260271 0.000597605 2.85735e-05)
(-0.000311365 0.000572647 2.85743e-05)
(-0.00036009 0.000543331 2.85738e-05)
(-0.000406074 0.00050988 2.85743e-05)
(-0.000448968 0.000472548 2.85735e-05)
(-0.000488444 0.00043162 2.85744e-05)
(-0.000524204 0.000387407 2.85743e-05)
(-0.000555974 0.000340246 2.85737e-05)
(-0.000583513 0.000290495 2.85738e-05)
(-0.00060661 0.000238533 2.8574e-05)
(-0.000625092 0.000184754 2.8573e-05)
(-0.000638816 0.000129571 2.85732e-05)
(-0.000647677 7.34015e-05 2.85736e-05)
(-0.00065161 1.66746e-05 2.85746e-05)
(-0.000650583 -4.01805e-05 2.85742e-05)
(-0.000644605 -9.67304e-05 2.85742e-05)
(-0.000633722 -0.000152543 2.85747e-05)
(-0.000618015 -0.000207195 2.85745e-05)
(-0.000597605 -0.000260271 2.85735e-05)
(-0.000572647 -0.000311365 2.85743e-05)
(-0.000543331 -0.00036009 2.85738e-05)
(-0.00050988 -0.000406074 2.85743e-05)
(-0.000472548 -0.000448968 2.85735e-05)
(-0.00043162 -0.000488444 2.85744e-05)
(-0.000387407 -0.000524204 2.85743e-05)
(-0.000340246 -0.000555974 2.85737e-05)
(-0.000290495 -0.000583513 2.85738e-05)
(-0.000238533 -0.00060661 2.8574e-05)
(-0.000184754 -0.000625092 2.8573e-05)
(-0.000129571 -0.000638816 2.85732e-05)
(-7.34015e-05 -0.000647677 2.85736e-05)
(-1.66746e-05 -0.00065161 2.85746e-05)
(4.01805e-05 -0.000650583 2.85742e-05)
(9.67304e-05 -0.000644605 2.85742e-05)
(0.000152543 -0.000633722 2.85747e-05)
(0.000207195 -0.000618015 2.85745e-05)
(0.000260271 -0.000597605 2.85735e-05)
(0.000311365 -0.000572647 2.85743e-05)
(0.00036009 -0.000543331 2.85738e-05)
(0.00036661 -0.000571552 8.53877e-05)
(0.000415029 -0.000537425 8.53877e-05)
(0.00046029 -0.000499207 8.53878e-05)
(0.000502047 -0.000457191 8.53876e-05)
(0.000539983 -0.000411696 8.53881e-05)
(0.00057381 -0.000363066 8.53872e-05)
(0.00060327 -0.000311673 8.53874e-05)
(0.000628138 -0.000257909 8.53871e-05)
(0.000648226 -0.000202183 8.53881e-05)
(0.000663381 -0.000144915 8.53874e-05)
(0.000673486 -8.65465e-05 8.53877e-05)
(0.000678466 -2.75187e-05 8.53875e-05)
(0.000678283 3.1717e-05 8.53885e-05)
(0.000672937 9.07139e-05 8.53879e-05)
(0.00066247 0.000149019 8.5388e-05)
(0.000646962 0.00020619 8.53879e-05)
(0.00062653 0.000261792 8.53878e-05)
(0.000601329 0.000315401 8.53876e-05)
(0.000571552 0.00036661 8.53877e-05)
(0.000537425 0.000415029 8.53877e-05)
(0.000499207 0.00046029 8.53878e-05)
(0.000457191 0.000502047 8.53876e-05)
(0.000411696 0.000539983 8.53881e-05)
(0.000363066 0.00057381 8.53872e-05)
(0.000311673 0.00060327 8.53874e-05)
(0.000257909 0.000628138 8.53871e-05)
(0.000202183 0.000648226 8.53881e-05)
(0.000144915 0.000663381 8.53874e-05)
(8.65465e-05 0.000673486 8.53877e-05)
(2.75187e-05 0.000678466 8.53875e-05)
(-3.1717e-05 0.000678283 8.53885e-05)
(-9.07139e-05 0.000672937 8.53879e-05)
(-0.000149019 0.00066247 8.5388e-05)
(-0.00020619 0.000646962 8.53879e-05)
(-0.000261792 0.00062653 8.53878e-05)
(-0.000315401 0.000601329 8.53876e-05)
(-0.00036661 0.000571552 8.53877e-05)
(-0.000415029 0.000537425 8.53877e-05)
(-0.00046029 0.000499207 8.53878e-05)
(-0.000502047 0.000457191 8.53876e-05)
(-0.000539983 0.000411696 8.53881e-05)
(-0.00057381 0.000363066 8.53872e-05)
(-0.00060327 0.000311673 8.53874e-05)
(-0.000628138 0.000257909 8.53871e-05)
(-0.000648226 0.000202183 8.53881e-05)
(-0.000663381 0.000144915 8.53874e-05)
(-0.000673486 8.65465e-05 8.53877e-05)
(-0.000678466 2.75187e-05 8.53875e-05)
(-0.000678283 -3.1717e-05 8.53885e-05)
(-0.000672937 -9.07139e-05 8.53879e-05)
(-0.00066247 -0.000149019 8.5388e-05)
(-0.000646962 -0.00020619 8.53879e-05)
(-0.00062653 -0.000261792 8.53878e-05)
(-0.000601329 -0.000315401 8.53876e-05)
(-0.000571552 -0.00036661 8.53877e-05)
(-0.000537425 -0.000415029 8.53877e-05)
(-0.000499207 -0.00046029 8.53878e-05)
(-0.000457191 -0.000502047 8.53876e-05)
(-0.000411696 -0.000539983 8.53881e-05)
(-0.000363066 -0.00057381 8.53872e-05)
(-0.000311673 -0.00060327 8.53874e-05)
(-0.000257909 -0.000628138 8.53871e-05)
(-0.000202183 -0.000648226 8.53881e-05)
(-0.000144915 -0.000663381 8.53874e-05)
(-8.65465e-05 -0.000673486 8.53877e-05)
(-2.75187e-05 -0.000678466 8.53875e-05)
(3.1717e-05 -0.000678283 8.53885e-05)
(9.07139e-05 -0.000672937 8.53879e-05)
(0.000149019 -0.00066247 8.5388e-05)
(0.00020619 -0.000646962 8.53879e-05)
(0.000261792 -0.00062653 8.53878e-05)
(0.000315401 -0.000601329 8.53876e-05)