/*--------------------------------*- C++ -*----------------------------------*\
| =========                 |                                                 |
| \\      /  F ield         | OpenFOAM: The Open Source CFD Toolbox           |
|  \\    /   O peration     | Version:  2312                                  |
|   \\  /    A nd           | Website:  www.openfoam.com                      |
|    \\/     M anipulation  |                                                 |
\*---------------------------------------------------------------------------*/
FoamFile
{
    version     2.0;
    format      ascii;
    arch        "LSB;label=32;scalar=64";
    class       volVectorField;
    location    "0.6";
    object      U;
}
// * * * * * * * * * * * * * * * * * * * * * * * * * * * * * * * * * * * * * //

dimensions      [0 1 -1 0 0 0 0];

internalField   nonuniform List<vector> 
12960
(
(6.39541e-05 -8.08912e-05 -2.06198e-05)
(7.07608e-05 -7.50096e-05 -2.06198e-05)
(7.70292e-05 -6.85571e-05 -2.06198e-05)
(8.2711e-05 -6.15822e-05 -2.06198e-05)
(8.77636e-05 -5.41392e-05 -2.06199e-05)
(9.21479e-05 -4.62841e-05 -2.06198e-05)
(9.58312e-05 -3.80767e-05 -2.062e-05)
(9.87854e-05 -2.95797e-05 -2.06201e-05)
(0.000100987 -2.08574e-05 -2.06202e-05)
(0.000102421 -1.19765e-05 -2.062e-05)
(0.000103075 -3.00417e-06 -2.06198e-05)
(0.000102944 5.99099e-06 -2.06195e-05)
(0.000102031 1.49402e-05 -2.06196e-05)
(0.000100341 2.37759e-05 -2.06197e-05)
(9.78861e-05 3.24308e-05 -2.06199e-05)
(9.46872e-05 4.08387e-05 -2.06198e-05)
(9.07675e-05 4.89358e-05 -2.06198e-05)
(8.61571e-05 5.66606e-05 -2.06201e-05)
(8.08912e-05 6.39541e-05 -2.06198e-05)
(7.50096e-05 7.07607e-05 -2.06198e-05)
(6.85571e-05 7.70291e-05 -2.06198e-05)
(6.15822e-05 8.2711e-05 -2.06198e-05)
(5.41392e-05 8.77636e-05 -2.06199e-05)
(4.62841e-05 9.21479e-05 -2.06198e-05)
(3.80767e-05 9.58312e-05 -2.062e-05)
(2.95797e-05 9.87853e-05 -2.06201e-05)
(2.08574e-05 0.000100987 -2.06202e-05)
(1.19765e-05 0.000102421 -2.062e-05)
(3.00417e-06 0.000103075 -2.06198e-05)
(-5.99099e-06 0.000102944 -2.06195e-05)
(-1.49402e-05 0.000102031 -2.06196e-05)
(-2.37759e-05 0.000100341 -2.06197e-05)
(-3.24308e-05 9.78861e-05 -2.06199e-05)
(-4.08387e-05 9.46872e-05 -2.06198e-05)
(-4.89358e-05 9.07675e-05 -2.06198e-05)
(-5.66606e-05 8.61571e-05 -2.06201e-05)
(-6.39541e-05 8.08912e-05 -2.06198e-05)
(-7.07607e-05 7.50096e-05 -2.06198e-05)
(-7.70291e-05 6.85571e-05 -2.06198e-05)
(-8.2711e-05 6.15822e-05 -2.06198e-05)
(-8.77636e-05 5.41392e-05 -2.06199e-05)
(-9.21479e-05 4.6284e-05 -2.06198e-05)
(-9.58312e-05 3.80767e-05 -2.062e-05)
(-9.87854e-05 2.95797e-05 -2.06201e-05)
(-0.000100987 2.08574e-05 -2.06202e-05)
(-0.000102421 1.19765e-05 -2.062e-05)
(-0.000103075 3.00414e-06 -2.06198e-05)
(-0.000102944 -5.99102e-06 -2.06195e-05)
(-0.000102031 -1.49403e-05 -2.06196e-05)
(-0.000100341 -2.3776e-05 -2.06197e-05)
(-9.78861e-05 -3.24308e-05 -2.06199e-05)
(-9.46872e-05 -4.08388e-05 -2.06198e-05)
(-9.07675e-05 -4.89358e-05 -2.06198e-05)
(-8.61571e-05 -5.66607e-05 -2.06201e-05)
(-8.08912e-05 -6.39541e-05 -2.06198e-05)
(-7.50096e-05 -7.07608e-05 -2.06198e-05)
(-6.85571e-05 -7.70292e-05 -2.06198e-05)
(-6.15822e-05 -8.2711e-05 -2.06198e-05)
(-5.41392e-05 -8.77636e-05 -2.06199e-05)
(-4.6284e-05 -9.21479e-05 -2.06198e-05)
(-3.80767e-05 -9.58313e-05 -2.062e-05)
(-2.95797e-05 -9.87854e-05 -2.06201e-05)
(-2.08574e-05 -0.000100987 -2.06202e-05)
(-1.19765e-05 -0.000102421 -2.062e-05)
(-3.00414e-06 -0.000103075 -2.06198e-05)
(5.99103e-06 -0.000102944 -2.06195e-05)
(1.49403e-05 -0.000102031 -2.06196e-05)
(2.3776e-05 -0.000100341 -2.06197e-05)
(3.24308e-05 -9.78861e-05 -2.06199e-05)
(4.08388e-05 -9.46872e-05 -2.06198e-05)
(4.89358e-05 -9.07676e-05 -2.06198e-05)
(5.66607e-05 -8.61571e-05 -2.06201e-05)
(5.62038e-05 -0.000110461 1.45818e-05)
(6.56171e-05 -0.000105142 1.45818e-05)
(7.45313e-05 -9.90231e-05 1.45819e-05)
(8.28782e-05 -9.21504e-05 1.4582e-05)
(9.05942e-05 -8.45762e-05 1.4582e-05)
(9.7621e-05 -7.63588e-05 1.45819e-05)
(0.000103905 -6.75601e-05 1.45818e-05)
(0.000109397 -5.8247e-05 1.45817e-05)
(0.000114058 -4.84908e-05 1.45818e-05)
(0.00011785 -3.83656e-05 1.45818e-05)
(0.000120745 -2.79483e-05 1.4582e-05)
(0.000122722 -1.73181e-05 1.4582e-05)
(0.000123764 -6.55636e-06 1.4582e-05)
(0.000123864 4.2553e-06 1.4582e-05)
(0.000123022 1.50346e-05 1.4582e-05)
(0.000121243 2.56994e-05 1.4582e-05)
(0.000118542 3.61686e-05 1.45819e-05)
(0.000114939 4.63626e-05 1.45818e-05)
(0.000110461 5.62038e-05 1.45818e-05)
(0.000105142 6.56171e-05 1.45818e-05)
(9.90231e-05 7.45313e-05 1.45819e-05)
(9.21504e-05 8.28782e-05 1.4582e-05)
(8.45762e-05 9.05942e-05 1.4582e-05)
(7.63589e-05 9.7621e-05 1.45819e-05)
(6.75601e-05 0.000103905 1.45818e-05)
(5.8247e-05 0.000109397 1.45817e-05)
(4.84908e-05 0.000114058 1.45817e-05)
(3.83656e-05 0.00011785 1.45818e-05)
(2.79483e-05 0.000120745 1.4582e-05)
(1.73181e-05 0.000122722 1.4582e-05)
(6.55636e-06 0.000123764 1.4582e-05)
(-4.2553e-06 0.000123864 1.4582e-05)
(-1.50346e-05 0.000123022 1.4582e-05)
(-2.56994e-05 0.000121243 1.4582e-05)
(-3.61686e-05 0.000118542 1.45819e-05)
(-4.63626e-05 0.000114939 1.45818e-05)
(-5.62038e-05 0.000110461 1.45818e-05)
(-6.56171e-05 0.000105142 1.45818e-05)
(-7.45313e-05 9.90231e-05 1.45819e-05)
(-8.28782e-05 9.21503e-05 1.4582e-05)
(-9.05942e-05 8.45762e-05 1.4582e-05)
(-9.7621e-05 7.63588e-05 1.45819e-05)
(-0.000103905 6.75601e-05 1.45818e-05)
(-0.000109397 5.8247e-05 1.45817e-05)
(-0.000114058 4.84907e-05 1.45818e-05)
(-0.00011785 3.83656e-05 1.45818e-05)
(-0.000120745 2.79483e-05 1.4582e-05)
(-0.000122722 1.73181e-05 1.4582e-05)
(-0.000123764 6.55633e-06 1.4582e-05)
(-0.000123864 -4.25533e-06 1.4582e-05)
(-0.000123022 -1.50346e-05 1.4582e-05)
(-0.000121243 -2.56995e-05 1.4582e-05)
(-0.000118542 -3.61687e-05 1.45819e-05)
(-0.000114939 -4.63627e-05 1.45818e-05)
(-0.000110461 -5.62038e-05 1.45818e-05)
(-0.000105142 -6.56172e-05 1.45818e-05)
(-9.90231e-05 -7.45313e-05 1.45819e-05)
(-9.21503e-05 -8.28783e-05 1.4582e-05)
(-8.45762e-05 -9.05942e-05 1.4582e-05)
(-7.63588e-05 -9.7621e-05 1.45819e-05)
(-6.756e-05 -0.000103905 1.45818e-05)
(-5.8247e-05 -0.000109398 1.45817e-05)
(-4.84907e-05 -0.000114058 1.45818e-05)
(-3.83656e-05 -0.00011785 1.45818e-05)
(-2.79483e-05 -0.000120745 1.4582e-05)
(-1.73181e-05 -0.000122722 1.4582e-05)
(-6.55634e-06 -0.000123764 1.4582e-05)
(4.25533e-06 -0.000123864 1.4582e-05)
(1.50346e-05 -0.000123022 1.4582e-05)
(2.56995e-05 -0.000121243 1.4582e-05)
(3.61687e-05 -0.000118542 1.45819e-05)
(4.63627e-05 -0.000114939 1.45818e-05)
(3.21613e-05 -0.000137215 3.03231e-05)
(4.39981e-05 -0.00013389 3.03231e-05)
(5.54999e-05 -0.000129546 3.03232e-05)
(6.65793e-05 -0.000124216 3.03232e-05)
(7.71523e-05 -0.000117941 3.03233e-05)
(8.71376e-05 -0.000110767 3.0323e-05)
(9.64598e-05 -0.000102751 3.0323e-05)
(0.000105048 -9.39533e-05 3.0323e-05)
(0.000112837 -8.44403e-05 3.0323e-05)
(0.000119767 -7.42846e-05 3.03231e-05)
(0.000125786 -6.35635e-05 3.03232e-05)
(0.000130847 -5.23586e-05 3.03231e-05)
(0.000134912 -4.07553e-05 3.03232e-05)
(0.000137951 -2.88418e-05 3.03232e-05)
(0.00013994 -1.67088e-05 3.03231e-05)
(0.000140864 -4.44854e-06 3.03231e-05)
(0.000140716 7.84548e-06 3.03232e-05)
(0.000139496 2.00798e-05 3.03231e-05)
(0.000137215 3.21613e-05 3.03231e-05)
(0.00013389 4.39981e-05 3.03231e-05)
(0.000129546 5.54999e-05 3.03232e-05)
(0.000124216 6.65793e-05 3.03232e-05)
(0.000117941 7.71523e-05 3.03233e-05)
(0.000110767 8.71376e-05 3.0323e-05)
(0.000102751 9.64598e-05 3.0323e-05)
(9.39533e-05 0.000105048 3.0323e-05)
(8.44403e-05 0.000112837 3.0323e-05)
(7.42846e-05 0.000119767 3.03231e-05)
(6.35635e-05 0.000125786 3.03232e-05)
(5.23586e-05 0.000130847 3.03231e-05)
(4.07553e-05 0.000134912 3.03232e-05)
(2.88418e-05 0.000137951 3.03232e-05)
(1.67088e-05 0.00013994 3.03231e-05)
(4.44853e-06 0.000140864 3.03231e-05)
(-7.84548e-06 0.000140716 3.03232e-05)
(-2.00798e-05 0.000139496 3.03231e-05)
(-3.21613e-05 0.000137215 3.03231e-05)
(-4.39981e-05 0.00013389 3.03231e-05)
(-5.54999e-05 0.000129546 3.03232e-05)
(-6.65793e-05 0.000124216 3.03232e-05)
(-7.71523e-05 0.000117941 3.03233e-05)
(-8.71376e-05 0.000110767 3.0323e-05)
(-9.64598e-05 0.000102751 3.0323e-05)
(-0.000105048 9.39533e-05 3.0323e-05)
(-0.000112837 8.44402e-05 3.0323e-05)
(-0.000119767 7.42846e-05 3.03231e-05)
(-0.000125786 6.35635e-05 3.03232e-05)
(-0.000130847 5.23586e-05 3.03231e-05)
(-0.000134912 4.07553e-05 3.03232e-05)
(-0.000137951 2.88417e-05 3.03232e-05)
(-0.00013994 1.67088e-05 3.03231e-05)
(-0.000140864 4.44851e-06 3.03232e-05)
(-0.000140716 -7.84551e-06 3.03232e-05)
(-0.000139496 -2.00799e-05 3.03231e-05)
(-0.000137215 -3.21614e-05 3.03231e-05)
(-0.00013389 -4.39981e-05 3.03231e-05)
(-0.000129546 -5.54999e-05 3.03232e-05)
(-0.000124216 -6.65794e-05 3.03232e-05)
(-0.000117941 -7.71523e-05 3.03233e-05)
(-0.000110767 -8.71376e-05 3.0323e-05)
(-0.000102751 -9.64598e-05 3.0323e-05)
(-9.39533e-05 -0.000105048 3.0323e-05)
(-8.44402e-05 -0.000112837 3.0323e-05)
(-7.42846e-05 -0.000119767 3.03231e-05)
(-6.35635e-05 -0.000125786 3.03232e-05)
(-5.23586e-05 -0.000130847 3.03231e-05)
(-4.07553e-05 -0.000134913 3.03232e-05)
(-2.88417e-05 -0.000137952 3.03232e-05)
(-1.67088e-05 -0.00013994 3.03231e-05)
(-4.44851e-06 -0.000140864 3.03232e-05)
(7.8455e-06 -0.000140716 3.03232e-05)
(2.00798e-05 -0.000139496 3.03231e-05)
(-7.93617e-07 -0.000156925 3.3288e-05)
(1.28862e-05 -0.000156397 3.3288e-05)
(2.64681e-05 -0.000154679 3.32882e-05)
(3.98483e-05 -0.000151783 3.32879e-05)
(5.29253e-05 -0.000147732 3.3288e-05)
(6.55996e-05 -0.000142557 3.3288e-05)
(7.77746e-05 -0.000136297 3.3288e-05)
(8.93579e-05 -0.000129 3.32881e-05)
(0.000100261 -0.000120722 3.3288e-05)
(0.000110401 -0.000111524 3.32881e-05)
(0.000119701 -0.000101477 3.32881e-05)
(0.000128089 -9.06586e-05 3.3288e-05)
(0.000135503 -7.91498e-05 3.3288e-05)
(0.000141886 -6.70384e-05 3.32878e-05)
(0.000147189 -5.44171e-05 3.3288e-05)
(0.000151372 -4.13819e-05 3.32881e-05)
(0.000154403 -2.80314e-05 3.3288e-05)
(0.000156258 -1.44675e-05 3.3288e-05)
(0.000156925 -7.93639e-07 3.3288e-05)
(0.000156397 1.28862e-05 3.3288e-05)
(0.000154679 2.64681e-05 3.32882e-05)
(0.000151782 3.98483e-05 3.32879e-05)
(0.000147732 5.29253e-05 3.3288e-05)
(0.000142557 6.55995e-05 3.3288e-05)
(0.000136297 7.77745e-05 3.3288e-05)
(0.000129 8.93578e-05 3.32881e-05)
(0.000120722 0.000100261 3.3288e-05)
(0.000111524 0.000110401 3.32881e-05)
(0.000101477 0.000119701 3.32881e-05)
(9.06586e-05 0.000128089 3.3288e-05)
(7.91498e-05 0.000135503 3.3288e-05)
(6.70383e-05 0.000141886 3.32878e-05)
(5.44171e-05 0.000147189 3.3288e-05)
(4.13819e-05 0.000151372 3.32881e-05)
(2.80314e-05 0.000154403 3.3288e-05)
(1.44675e-05 0.000156258 3.3288e-05)
(7.9363e-07 0.000156925 3.3288e-05)
(-1.28862e-05 0.000156397 3.3288e-05)
(-2.64681e-05 0.000154679 3.32882e-05)
(-3.98483e-05 0.000151782 3.32879e-05)
(-5.29253e-05 0.000147732 3.3288e-05)
(-6.55996e-05 0.000142557 3.3288e-05)
(-7.77746e-05 0.000136297 3.3288e-05)
(-8.93579e-05 0.000129 3.32881e-05)
(-0.000100261 0.000120722 3.3288e-05)
(-0.000110401 0.000111524 3.32881e-05)
(-0.000119701 0.000101477 3.32881e-05)
(-0.000128089 9.06585e-05 3.3288e-05)
(-0.000135503 7.91498e-05 3.3288e-05)
(-0.000141886 6.70383e-05 3.32878e-05)
(-0.000147189 5.44171e-05 3.3288e-05)
(-0.000151372 4.13819e-05 3.32881e-05)
(-0.000154403 2.80314e-05 3.3288e-05)
(-0.000156258 1.44675e-05 3.3288e-05)
(-0.000156925 7.93608e-07 3.3288e-05)
(-0.000156397 -1.28863e-05 3.3288e-05)
(-0.000154679 -2.64681e-05 3.32882e-05)
(-0.000151782 -3.98483e-05 3.32879e-05)
(-0.000147732 -5.29253e-05 3.3288e-05)
(-0.000142557 -6.55996e-05 3.3288e-05)
(-0.000136297 -7.77746e-05 3.3288e-05)
(-0.000129 -8.93579e-05 3.32881e-05)
(-0.000120722 -0.000100261 3.3288e-05)
(-0.000111524 -0.000110401 3.32881e-05)
(-0.000101477 -0.000119701 3.32881e-05)
(-9.06585e-05 -0.000128089 3.3288e-05)
(-7.91498e-05 -0.000135503 3.3288e-05)
(-6.70383e-05 -0.000141886 3.32878e-05)
(-5.44171e-05 -0.000147189 3.3288e-05)
(-4.13819e-05 -0.000151372 3.32881e-05)
(-2.80314e-05 -0.000154403 3.3288e-05)
(-1.44675e-05 -0.000156258 3.3288e-05)
(-4.17637e-05 -0.000168504 3.40882e-05)
(-2.69187e-05 -0.000171503 3.40883e-05)
(-1.18689e-05 -0.000173196 3.40883e-05)
(3.27139e-06 -0.000173572 3.40882e-05)
(1.83867e-05 -0.000172626 3.40882e-05)
(3.33621e-05 -0.000170367 3.40882e-05)
(4.80833e-05 -0.00016681 3.40882e-05)
(6.24389e-05 -0.000161985 3.40882e-05)
(7.63195e-05 -0.000155928 3.40882e-05)
(8.96192e-05 -0.000148683 3.40883e-05)
(0.000102236 -0.000140305 3.40881e-05)
(0.000114075 -0.000130861 3.40882e-05)
(0.000125047 -0.000120421 3.40881e-05)
(0.000135066 -0.000109064 3.4088e-05)
(0.000144058 -9.68772e-05 3.40882e-05)
(0.000151953 -8.39529e-05 3.40883e-05)
(0.000158693 -7.03899e-05 3.40884e-05)
(0.000164223 -5.6291e-05 3.40882e-05)
(0.000168504 -4.17637e-05 3.40882e-05)
(0.000171503 -2.69187e-05 3.40883e-05)
(0.000173196 -1.18689e-05 3.40883e-05)
(0.000173572 3.27138e-06 3.40882e-05)
(0.000172626 1.83867e-05 3.40882e-05)
(0.000170367 3.33621e-05 3.40882e-05)
(0.00016681 4.80833e-05 3.40882e-05)
(0.000161985 6.24389e-05 3.40882e-05)
(0.000155928 7.63195e-05 3.40882e-05)
(0.000148683 8.96192e-05 3.40883e-05)
(0.000140305 0.000102236 3.40881e-05)
(0.000130861 0.000114075 3.40882e-05)
(0.000120421 0.000125047 3.40881e-05)
(0.000109064 0.000135066 3.4088e-05)
(9.68771e-05 0.000144058 3.40882e-05)
(8.39529e-05 0.000151953 3.40883e-05)
(7.03899e-05 0.000158692 3.40884e-05)
(5.6291e-05 0.000164223 3.40882e-05)
(4.17637e-05 0.000168504 3.40882e-05)
(2.69187e-05 0.000171503 3.40883e-05)
(1.18689e-05 0.000173196 3.40883e-05)
(-3.27139e-06 0.000173572 3.40882e-05)
(-1.83867e-05 0.000172626 3.40882e-05)
(-3.33621e-05 0.000170367 3.40882e-05)
(-4.80833e-05 0.00016681 3.40882e-05)
(-6.24389e-05 0.000161985 3.40882e-05)
(-7.63195e-05 0.000155928 3.40882e-05)
(-8.96192e-05 0.000148683 3.40883e-05)
(-0.000102236 0.000140305 3.40881e-05)
(-0.000114075 0.000130861 3.40882e-05)
(-0.000125047 0.000120421 3.40881e-05)
(-0.000135066 0.000109064 3.4088e-05)
(-0.000144058 9.68771e-05 3.40882e-05)
(-0.000151953 8.39529e-05 3.40883e-05)
(-0.000158692 7.03899e-05 3.40884e-05)
(-0.000164223 5.62909e-05 3.40882e-05)
(-0.000168504 4.17637e-05 3.40882e-05)
(-0.000171503 2.69187e-05 3.40883e-05)
(-0.000173196 1.18689e-05 3.40883e-05)
(-0.000173572 -3.2714e-06 3.40882e-05)
(-0.000172626 -1.83867e-05 3.40882e-05)
(-0.000170367 -3.33621e-05 3.40882e-05)
(-0.00016681 -4.80833e-05 3.40882e-05)
(-0.000161985 -6.24389e-05 3.40882e-05)
(-0.000155928 -7.63195e-05 3.40883e-05)
(-0.000148683 -8.96193e-05 3.40883e-05)
(-0.000140305 -0.000102236 3.40881e-05)
(-0.000130861 -0.000114075 3.40882e-05)
(-0.000120421 -0.000125047 3.40881e-05)
(-0.000109064 -0.000135066 3.4088e-05)
(-9.68771e-05 -0.000144058 3.40882e-05)
(-8.39529e-05 -0.000151953 3.40883e-05)
(-7.03899e-05 -0.000158693 3.40884e-05)
(-5.62909e-05 -0.000164223 3.40882e-05)
(-9.77545e-05 -0.000175318 3.61178e-05)
(-8.21021e-05 -0.000183171 3.61177e-05)
(-6.58255e-05 -0.00018963 3.61177e-05)
(-4.90478e-05 -0.000194647 3.61178e-05)
(-3.18964e-05 -0.00019818 3.61176e-05)
(-1.45025e-05 -0.000200206 3.61176e-05)
(3.00157e-06 -0.000200708 3.61175e-05)
(2.04827e-05 -0.000199682 3.61175e-05)
(3.78083e-05 -0.000197137 3.61176e-05)
(5.48462e-05 -0.000193092 3.61177e-05)
(7.14666e-05 -0.000187577 3.61176e-05)
(8.75431e-05 -0.000180634 3.61176e-05)
(0.000102953 -0.000172317 3.61174e-05)
(0.00011758 -0.000162689 3.61173e-05)
(0.000131312 -0.000151822 3.61174e-05)
(0.000144044 -0.000139799 3.61176e-05)
(0.00015568 -0.000126713 3.61177e-05)
(0.000166132 -0.000112662 3.61179e-05)
(0.000175318 -9.77545e-05 3.61178e-05)
(0.000183171 -8.21022e-05 3.61177e-05)
(0.00018963 -6.58255e-05 3.61177e-05)
(0.000194647 -4.90478e-05 3.61178e-05)
(0.00019818 -3.18964e-05 3.61176e-05)
(0.000200206 -1.45025e-05 3.61176e-05)
(0.000200708 3.00156e-06 3.61175e-05)
(0.000199682 2.04827e-05 3.61175e-05)
(0.000197137 3.78083e-05 3.61176e-05)
(0.000193092 5.48462e-05 3.61177e-05)
(0.000187577 7.14666e-05 3.61176e-05)
(0.000180634 8.75431e-05 3.61176e-05)
(0.000172317 0.000102953 3.61174e-05)
(0.000162689 0.00011758 3.61173e-05)
(0.000151822 0.000131312 3.61174e-05)
(0.000139799 0.000144044 3.61176e-05)
(0.000126713 0.00015568 3.61177e-05)
(0.000112662 0.000166132 3.61179e-05)
(9.77545e-05 0.000175318 3.61178e-05)
(8.21022e-05 0.000183171 3.61177e-05)
(6.58255e-05 0.00018963 3.61177e-05)
(4.90478e-05 0.000194647 3.61178e-05)
(3.18964e-05 0.00019818 3.61176e-05)
(1.45025e-05 0.000200206 3.61176e-05)
(-3.00157e-06 0.000200708 3.61175e-05)
(-2.04827e-05 0.000199682 3.61175e-05)
(-3.78083e-05 0.000197137 3.61176e-05)
(-5.48462e-05 0.000193092 3.61177e-05)
(-7.14666e-05 0.000187577 3.61176e-05)
(-8.75431e-05 0.000180634 3.61176e-05)
(-0.000102953 0.000172317 3.61174e-05)
(-0.00011758 0.000162689 3.61173e-05)
(-0.000131312 0.000151822 3.61174e-05)
(-0.000144044 0.000139799 3.61176e-05)
(-0.00015568 0.000126713 3.61177e-05)
(-0.000166132 0.000112662 3.61179e-05)
(-0.000175318 9.77545e-05 3.61178e-05)
(-0.000183171 8.21021e-05 3.61177e-05)
(-0.00018963 6.58255e-05 3.61177e-05)
(-0.000194647 4.90478e-05 3.61178e-05)
(-0.00019818 3.18964e-05 3.61176e-05)
(-0.000200206 1.45025e-05 3.61176e-05)
(-0.000200708 -3.00158e-06 3.61175e-05)
(-0.000199682 -2.04827e-05 3.61175e-05)
(-0.000197137 -3.78083e-05 3.61176e-05)
(-0.000193092 -5.48462e-05 3.61177e-05)
(-0.000187577 -7.14666e-05 3.61176e-05)
(-0.000180634 -8.75431e-05 3.61176e-05)
(-0.000172317 -0.000102953 3.61174e-05)
(-0.000162689 -0.00011758 3.61173e-05)
(-0.000151822 -0.000131312 3.61174e-05)
(-0.000139799 -0.000144044 3.61176e-05)
(-0.000126713 -0.00015568 3.61177e-05)
(-0.000112662 -0.000166132 3.61179e-05)
(0.000154812 -0.000265008 -3.02619e-05)
(0.00017732 -0.000250507 -3.02622e-05)
(0.000198478 -0.0002341 -3.02617e-05)
(0.000218126 -0.00021591 -3.02616e-05)
(0.000236114 -0.000196078 -3.02618e-05)
(0.000252304 -0.000174753 -3.02623e-05)
(0.000266575 -0.000152098 -3.02624e-05)
(0.000278817 -0.000128286 -3.02628e-05)
(0.000288937 -0.000103497 -3.02631e-05)
(0.000296858 -7.79206e-05 -3.02628e-05)
(0.000302519 -5.17511e-05 -3.02617e-05)
(0.000305878 -2.51879e-05 -3.02617e-05)
(0.00030691 1.56659e-06 -3.02618e-05)
(0.000305605 2.83096e-05 -3.02616e-05)
(0.000301974 5.48372e-05 -3.02616e-05)
(0.000296046 8.09474e-05 -3.02618e-05)
(0.000287864 0.000106441 -3.0262e-05)
(0.000277492 0.000131126 -3.02621e-05)
(0.000265008 0.000154812 -3.02619e-05)
(0.000250507 0.00017732 -3.02623e-05)
(0.0002341 0.000198478 -3.02617e-05)
(0.00021591 0.000218125 -3.02616e-05)
(0.000196078 0.000236113 -3.02619e-05)
(0.000174753 0.000252304 -3.02623e-05)
(0.000152098 0.000266575 -3.02624e-05)
(0.000128286 0.000278817 -3.02628e-05)
(0.000103497 0.000288937 -3.02632e-05)
(7.79206e-05 0.000296858 -3.02628e-05)
(5.17511e-05 0.000302519 -3.02617e-05)
(2.51879e-05 0.000305878 -3.02617e-05)
(-1.56659e-06 0.000306909 -3.02619e-05)
(-2.83096e-05 0.000305605 -3.02616e-05)
(-5.48372e-05 0.000301974 -3.02616e-05)
(-8.09474e-05 0.000296046 -3.02618e-05)
(-0.000106442 0.000287864 -3.0262e-05)
(-0.000131126 0.000277492 -3.02622e-05)
(-0.000154812 0.000265008 -3.02619e-05)
(-0.00017732 0.000250507 -3.02623e-05)
(-0.000198478 0.0002341 -3.02617e-05)
(-0.000218125 0.00021591 -3.02616e-05)
(-0.000236114 0.000196078 -3.02619e-05)
(-0.000252304 0.000174753 -3.02623e-05)
(-0.000266575 0.000152098 -3.02624e-05)
(-0.000278817 0.000128286 -3.02628e-05)
(-0.000288937 0.000103497 -3.02632e-05)
(-0.000296858 7.79205e-05 -3.02628e-05)
(-0.000302519 5.1751e-05 -3.02617e-05)
(-0.000305878 2.51878e-05 -3.02617e-05)
(-0.00030691 -1.56669e-06 -3.02618e-05)
(-0.000305605 -2.83097e-05 -3.02616e-05)
(-0.000301974 -5.48373e-05 -3.02616e-05)
(-0.000296046 -8.09475e-05 -3.02618e-05)
(-0.000287864 -0.000106442 -3.0262e-05)
(-0.000277492 -0.000131126 -3.02621e-05)
(-0.000265008 -0.000154812 -3.02619e-05)
(-0.000250507 -0.00017732 -3.02622e-05)
(-0.0002341 -0.000198478 -3.02617e-05)
(-0.00021591 -0.000218126 -3.02616e-05)
(-0.000196078 -0.000236114 -3.02618e-05)
(-0.000174753 -0.000252304 -3.02623e-05)
(-0.000152098 -0.000266575 -3.02624e-05)
(-0.000128286 -0.000278817 -3.02628e-05)
(-0.000103497 -0.000288937 -3.02631e-05)
(-7.79205e-05 -0.000296858 -3.02628e-05)
(-5.1751e-05 -0.000302519 -3.02617e-05)
(-2.51878e-05 -0.000305878 -3.02617e-05)
(1.56668e-06 -0.00030691 -3.02618e-05)
(2.83097e-05 -0.000305605 -3.02616e-05)
(5.48373e-05 -0.000301974 -3.02616e-05)
(8.09475e-05 -0.000296046 -3.02618e-05)
(0.000106442 -0.000287864 -3.02619e-05)
(0.000131126 -0.000277492 -3.02621e-05)
(0.000116747 -0.000337931 5.54235e-05)
(0.000145755 -0.00032647 5.54234e-05)
(0.000173654 -0.000312524 5.54238e-05)
(0.000200232 -0.000296199 5.54241e-05)
(0.000225285 -0.000277621 5.54236e-05)
(0.000248624 -0.00025693 5.54235e-05)
(0.000270071 -0.000234283 5.54238e-05)
(0.000289462 -0.000209853 5.54234e-05)
(0.000306651 -0.000183827 5.54235e-05)
(0.000321505 -0.000156401 5.54237e-05)
(0.000333913 -0.000127784 5.54239e-05)
(0.00034378 -9.81955e-05 5.54242e-05)
(0.000351029 -6.78596e-05 5.54239e-05)
(0.000355608 -3.70071e-05 5.54238e-05)
(0.00035748 -5.873e-06 5.54241e-05)
(0.000356632 2.53058e-05 5.54241e-05)
(0.000353069 5.62921e-05 5.54236e-05)
(0.00034682 8.68499e-05 5.54235e-05)
(0.000337931 0.000116747 5.54235e-05)
(0.00032647 0.000145755 5.54233e-05)
(0.000312524 0.000173654 5.54238e-05)
(0.000296199 0.000200232 5.54241e-05)
(0.000277621 0.000225285 5.54236e-05)
(0.00025693 0.000248624 5.54235e-05)
(0.000234283 0.000270071 5.54238e-05)
(0.000209853 0.000289462 5.54234e-05)
(0.000183827 0.000306651 5.54235e-05)
(0.000156401 0.000321505 5.54237e-05)
(0.000127784 0.000333913 5.54239e-05)
(9.81955e-05 0.00034378 5.54242e-05)
(6.78596e-05 0.000351029 5.54239e-05)
(3.70071e-05 0.000355608 5.54237e-05)
(5.87299e-06 0.00035748 5.54241e-05)
(-2.53058e-05 0.000356632 5.54241e-05)
(-5.62922e-05 0.000353069 5.54236e-05)
(-8.68499e-05 0.00034682 5.54235e-05)
(-0.000116747 0.000337931 5.54235e-05)
(-0.000145755 0.00032647 5.54233e-05)
(-0.000173654 0.000312524 5.54238e-05)
(-0.000200232 0.000296199 5.54241e-05)
(-0.000225285 0.000277621 5.54236e-05)
(-0.000248624 0.00025693 5.54235e-05)
(-0.000270071 0.000234283 5.54238e-05)
(-0.000289462 0.000209853 5.54234e-05)
(-0.000306651 0.000183827 5.54235e-05)
(-0.000321505 0.000156401 5.54237e-05)
(-0.000333913 0.000127784 5.54239e-05)
(-0.00034378 9.81954e-05 5.54242e-05)
(-0.000351029 6.78596e-05 5.54239e-05)
(-0.000355608 3.7007e-05 5.54238e-05)
(-0.00035748 5.87291e-06 5.54241e-05)
(-0.000356632 -2.53059e-05 5.54241e-05)
(-0.000353069 -5.62922e-05 5.54236e-05)
(-0.00034682 -8.685e-05 5.54235e-05)
(-0.000337931 -0.000116747 5.54235e-05)
(-0.00032647 -0.000145755 5.54234e-05)
(-0.000312524 -0.000173654 5.54238e-05)
(-0.000296199 -0.000200232 5.54241e-05)
(-0.000277621 -0.000225285 5.54236e-05)
(-0.00025693 -0.000248624 5.54235e-05)
(-0.000234283 -0.000270071 5.54238e-05)
(-0.000209853 -0.000289462 5.54234e-05)
(-0.000183827 -0.000306651 5.54235e-05)
(-0.000156401 -0.000321506 5.54237e-05)
(-0.000127784 -0.000333913 5.5424e-05)
(-9.81954e-05 -0.00034378 5.54242e-05)
(-6.78596e-05 -0.000351029 5.5424e-05)
(-3.7007e-05 -0.000355608 5.54238e-05)
(-5.87292e-06 -0.00035748 5.54241e-05)
(2.53058e-05 -0.000356632 5.54241e-05)
(5.62922e-05 -0.000353069 5.54236e-05)
(8.685e-05 -0.00034682 5.54235e-05)
(5.72538e-05 -0.000406167 0.000111338)
(9.24358e-05 -0.000399632 0.000111339)
(0.000126914 -0.000390055 0.000111339)
(0.000160427 -0.000377509 0.000111339)
(0.000192718 -0.00036209 0.000111339)
(0.000223543 -0.000343917 0.000111339)
(0.000252667 -0.000323125 0.000111339)
(0.000279867 -0.000299874 0.000111339)
(0.000304938 -0.000274341 0.000111339)
(0.000327688 -0.00024672 0.000111339)
(0.000347944 -0.000217221 0.000111339)
(0.000365552 -0.000186069 0.000111339)
(0.000380378 -0.000153501 0.000111339)
(0.000392309 -0.000119764 0.000111339)
(0.000401254 -8.5117e-05 0.000111339)
(0.000407146 -4.9821e-05 0.000111339)
(0.000409939 -1.41463e-05 0.000111339)
(0.000409612 2.1636e-05 0.000111338)
(0.000406167 5.72538e-05 0.000111338)
(0.000399632 9.24358e-05 0.000111339)
(0.000390055 0.000126914 0.000111339)
(0.000377509 0.000160427 0.000111339)
(0.00036209 0.000192718 0.000111339)
(0.000343917 0.000223543 0.000111339)
(0.000323125 0.000252666 0.000111339)
(0.000299874 0.000279867 0.000111339)
(0.000274341 0.000304938 0.000111339)
(0.00024672 0.000327688 0.000111339)
(0.000217221 0.000347944 0.000111339)
(0.000186069 0.000365552 0.000111339)
(0.000153501 0.000380378 0.000111339)
(0.000119764 0.000392309 0.000111339)
(8.5117e-05 0.000401254 0.000111339)
(4.9821e-05 0.000407145 0.000111339)
(1.41463e-05 0.000409939 0.000111339)
(-2.16361e-05 0.000409612 0.000111338)
(-5.72538e-05 0.000406167 0.000111338)
(-9.24358e-05 0.000399632 0.000111339)
(-0.000126914 0.000390055 0.000111339)
(-0.000160427 0.000377509 0.000111339)
(-0.000192718 0.00036209 0.000111339)
(-0.000223543 0.000343917 0.000111339)
(-0.000252667 0.000323125 0.000111339)
(-0.000279867 0.000299874 0.000111339)
(-0.000304938 0.000274341 0.000111339)
(-0.000327688 0.00024672 0.000111339)
(-0.000347944 0.000217221 0.000111339)
(-0.000365552 0.000186069 0.000111339)
(-0.000380378 0.000153501 0.000111339)
(-0.000392309 0.000119764 0.000111339)
(-0.000401254 8.51169e-05 0.000111339)
(-0.000407145 4.98209e-05 0.000111339)
(-0.000409939 1.41462e-05 0.000111339)
(-0.000409612 -2.16361e-05 0.000111338)
(-0.000406167 -5.72539e-05 0.000111338)
(-0.000399632 -9.24359e-05 0.000111339)
(-0.000390055 -0.000126914 0.000111339)
(-0.000377509 -0.000160427 0.000111339)
(-0.00036209 -0.000192718 0.000111339)
(-0.000343917 -0.000223543 0.000111339)
(-0.000323125 -0.000252667 0.000111339)
(-0.000299874 -0.000279867 0.000111339)
(-0.000274341 -0.000304938 0.000111339)
(-0.00024672 -0.000327688 0.000111339)
(-0.000217221 -0.000347944 0.000111339)
(-0.000186069 -0.000365552 0.000111339)
(-0.000153501 -0.000380378 0.000111339)
(-0.000119764 -0.000392309 0.000111339)
(-8.51169e-05 -0.000401254 0.000111339)
(-4.98209e-05 -0.000407146 0.000111339)
(-1.41462e-05 -0.000409939 0.000111339)
(2.16361e-05 -0.000409612 0.000111338)
(-1.69473e-05 -0.000460381 0.000137648)
(2.3242e-05 -0.000460106 0.000137648)
(6.32545e-05 -0.00045633 0.000137649)
(0.000102785 -0.00044908 0.000137648)
(0.000141534 -0.000438413 0.000137649)
(0.000179205 -0.000424409 0.000137649)
(0.000215513 -0.000407176 0.000137649)
(0.000250181 -0.000386843 0.000137649)
(0.000282944 -0.000363566 0.000137649)
(0.000313554 -0.000337522 0.000137648)
(0.000341778 -0.00030891 0.000137649)
(0.000367401 -0.000277947 0.000137649)
(0.000390228 -0.000244868 0.000137649)
(0.000410084 -0.000209925 0.000137649)
(0.00042682 -0.000173385 0.000137649)
(0.000440308 -0.000135526 0.000137649)
(0.000450444 -9.66345e-05 0.000137648)
(0.000457152 -5.70077e-05 0.000137648)
(0.000460381 -1.69473e-05 0.000137648)
(0.000460106 2.32419e-05 0.000137648)
(0.00045633 6.32544e-05 0.000137649)
(0.00044908 0.000102785 0.000137648)
(0.000438413 0.000141534 0.000137649)
(0.000424409 0.000179205 0.000137649)
(0.000407176 0.000215513 0.000137649)
(0.000386843 0.000250181 0.000137649)
(0.000363566 0.000282944 0.000137649)
(0.000337522 0.000313554 0.000137648)
(0.00030891 0.000341778 0.000137649)
(0.000277947 0.000367401 0.000137648)
(0.000244868 0.000390228 0.000137649)
(0.000209925 0.000410084 0.000137649)
(0.000173385 0.00042682 0.000137649)
(0.000135526 0.000440308 0.000137649)
(9.66345e-05 0.000450444 0.000137648)
(5.70077e-05 0.000457152 0.000137648)
(1.69473e-05 0.000460381 0.000137648)
(-2.32419e-05 0.000460106 0.000137648)
(-6.32545e-05 0.00045633 0.000137649)
(-0.000102785 0.00044908 0.000137648)
(-0.000141534 0.000438413 0.000137649)
(-0.000179205 0.000424409 0.000137649)
(-0.000215513 0.000407176 0.000137649)
(-0.000250181 0.000386843 0.000137649)
(-0.000282944 0.000363566 0.000137649)
(-0.000313554 0.000337522 0.000137648)
(-0.000341778 0.00030891 0.000137649)
(-0.000367401 0.000277947 0.000137649)
(-0.000390228 0.000244868 0.000137649)
(-0.000410084 0.000209925 0.000137649)
(-0.00042682 0.000173385 0.000137649)
(-0.000440308 0.000135526 0.000137649)
(-0.000450444 9.66344e-05 0.000137649)
(-0.000457152 5.70076e-05 0.000137648)
(-0.000460381 1.69472e-05 0.000137648)
(-0.000460106 -2.3242e-05 0.000137648)
(-0.00045633 -6.32545e-05 0.000137649)
(-0.00044908 -0.000102785 0.000137648)
(-0.000438413 -0.000141534 0.000137649)
(-0.000424409 -0.000179205 0.000137649)
(-0.000407176 -0.000215513 0.000137649)
(-0.000386843 -0.000250181 0.000137649)
(-0.000363566 -0.000282944 0.000137649)
(-0.000337522 -0.000313555 0.000137648)
(-0.00030891 -0.000341778 0.000137649)
(-0.000277947 -0.000367401 0.000137649)
(-0.000244868 -0.000390228 0.000137649)
(-0.000209925 -0.000410084 0.000137649)
(-0.000173385 -0.00042682 0.000137649)
(-0.000135526 -0.000440308 0.000137649)
(-9.66344e-05 -0.000450444 0.000137649)
(-5.70077e-05 -0.000457152 0.000137648)
(-0.000104224 -0.000494258 0.000148166)
(-6.07508e-05 -0.000501461 0.000148166)
(-1.68145e-05 -0.000504847 0.000148166)
(2.72502e-05 -0.000504391 0.000148166)
(7.1107e-05 -0.000500096 0.000148166)
(0.000114423 -0.000491996 0.000148166)
(0.000156867 -0.000480152 0.000148166)
(0.000198118 -0.000464652 0.000148166)
(0.000237861 -0.000445617 0.000148166)
(0.000275794 -0.00042319 0.000148166)
(0.000311628 -0.000397543 0.000148166)
(0.000345091 -0.000368871 0.000148166)
(0.000375927 -0.00033739 0.000148166)
(0.000403902 -0.000303341 0.000148166)
(0.000428803 -0.000266985 0.000148166)
(0.000450441 -0.000228597 0.000148166)
(0.00046865 -0.000188468 0.000148166)
(0.000483293 -0.000146905 0.000148166)
(0.000494258 -0.000104224 0.000148166)
(0.000501461 -6.07509e-05 0.000148166)
(0.000504847 -1.68146e-05 0.000148166)
(0.000504391 2.72502e-05 0.000148166)
(0.000500096 7.1107e-05 0.000148166)
(0.000491996 0.000114423 0.000148166)
(0.000480152 0.000156867 0.000148166)
(0.000464652 0.000198118 0.000148166)
(0.000445617 0.000237861 0.000148166)
(0.00042319 0.000275794 0.000148166)
(0.000397543 0.000311628 0.000148166)