/*--------------------------------*- C++ -*----------------------------------*\
| =========                 |                                                 |
| \\      /  F ield         | OpenFOAM: The Open Source CFD Toolbox           |
|  \\    /   O peration     | Version:  2412                                  |
|   \\  /    A nd           | Website:  www.openfoam.com                      |
|    \\/     M anipulation  |                                                 |
\*---------------------------------------------------------------------------*/
FoamFile
{
    version     2.0;
    format      ascii;
    arch        "LSB;label=32;scalar=64";
    class       volScalarField;
    location    "0.0149845";
    object      Jsi;
}
// * * * * * * * * * * * * * * * * * * * * * * * * * * * * * * * * * * * * * //

dimensions      [0 0 0 0 0 0 0];

internalField   nonuniform List<scalar> 
8679
(
-0.0125634
0
0
0
0
0
0
0
0
0
0
0
0
0
0
0
0
0
0
0
0
0
0
0
0
0
0
0
0
0
0
0
0
0
0
0
0
0
0
0
0
0
0
0
0
0
0
0
0
0
0
0
0
0
0
0
0
0
0
0
0
0
0
0
0
0
0
0
0
0
0
0
0
0
0
0
0
0
0
0
0
0
0
0
0
0
0
0
0
0
0
0
0
0
0
0
0
0
0
-0.0194813
-0.0192669
-0.0189095
-0.0183391
-0.0176514
-0.0168168
-0.0159109
-0.015087
-0.014453
-0.0140026
-0.0136806
-0.0134398
-0.0132399
-0.0130495
-0.0129452
-0.0127586
-0.0126627
-0.0125764
-0.012501
0
0
0
0
0
0
0
0
0
0
0
0
0
0
-0.0191809
-0.0189537
-0.0186678
-0.0180202
-0.0173504
-0.0165545
-0.0157058
-0.0150257
-0.0143541
-0.0139333
-0.0136302
-0.0133988
-0.0132033
-0.0130149
-0.0129102
-0.0128118
-0.0126328
-0.0125486
-0.0124753
0
0
0
0
0
0
0
0
0
0
0
0
0
0
-0.0187188
-0.0184805
-0.0180401
-0.0175751
-0.0169463
-0.0162014
-0.0154307
-0.0147248
-0.0142439
-0.0137932
-0.0135266
-0.0133139
-0.0132091
-0.0130249
-0.0128398
-0.0127425
-0.0126539
-0.0125749
0
0
0
0
0
0
0
0
0
0
0
0
0
0
0
-0.0178248
-0.0175978
-0.0171796
-0.01675
-0.0161954
-0.0155635
-0.0149359
-0.0143775
-0.0140143
-0.0136488
-0.0134313
-0.0132453
-0.0130702
-0.0129771
-0.0127998
-0.0127114
-0.0126316
-0.0125606
0
0
0
0
0
0
0
0
0
0
0
0
0
0
0
-0.0164782
-0.0162952
-0.0160842
-0.0156171
-0.015195
-0.0147421
-0.0143069
-0.0140184
-0.0136925
-0.0135002
-0.0133343
-0.0131778
-0.0130202
-0.0128576
-0.01278
-0.0126227
-0.0125549
-0.0124954
0
0
0
0
0
0
0
0
0
0
0
0
0
0
0
-0.0535025
-0.053476
-0.053006
-0.0524522
-0.0516508
-0.0505807
-0.0492433
-0.0476644
-0.0460728
-0.0442804
-0.0422467
-0.0399841
-0.0375968
-0.0349706
-0.032216
-0.0291768
-0.0260103
-0.0226763
-0.0193613
-0.0162328
-0.0142646
-0.013393
-0.0130745
-0.0128601
-0.0125979
-0.0124587
-0.0123558
0
0
0
0
0
0
-0.0534846
-0.0532144
-0.0527048
-0.052156
-0.0513605
-0.050306
-0.0490051
-0.0476369
-0.0458499
-0.0440151
-0.0419686
-0.0396933
-0.0373746
-0.0346493
-0.0318757
-0.0289127
-0.0257524
-0.0224314
-0.0190547
-0.0159924
-0.0141425
-0.0133342
-0.0130305
-0.0128191
-0.0126475
-0.0125134
0
0
0
0
0
0
0
-0.0528096
-0.0525593
-0.0522654
-0.0516257
-0.0506716
-0.0495956
-0.0485039
-0.0470023
-0.045432
-0.0435519
-0.041571
-0.0392621
-0.0367337
-0.0341619
-0.0311934
-0.0281889
-0.0250151
-0.0217079
-0.0184817
-0.0156621
-0.0139289
-0.0133157
-0.0130381
-0.0127474
-0.0125805
-0.0124528
0
0
0
0
0
0
0
-0.0519223
-0.0516603
-0.0513244
-0.0505497
-0.0497063
-0.0486596
-0.0474925
-0.0460592
-0.0444774
-0.0425805
-0.0405059
-0.0382593
-0.0357138
-0.0331258
-0.0301426
-0.0271368
-0.0239689
-0.0206876
-0.0175566
-0.0150498
-0.0137031
-0.0132383
-0.0129102
-0.0127174
-0.012562
-0.0124432
0
0
0
0
0
0
0
-0.0504739
-0.0502668
-0.0497352
-0.0491522
-0.0483371
-0.0472599
-0.0459412
-0.0444734
-0.0427376
-0.0408654
-0.0387746
-0.0364654
-0.0341089
-0.0313619
-0.0285716
-0.0256008
-0.0223803
-0.0192501
-0.0162876
-0.0142785
-0.0134935
-0.01309
-0.0128815
-0.0127113
-0.0124882
-0.0123852
0
0
0
0
0
0
0
-0.0481906
-0.0479003
-0.0473625
-0.0467903
-0.0459917
-0.0449266
-0.0436014
-0.0421319
-0.040377
-0.0384914
-0.0364193
-0.0342194
-0.0317566
-0.0289488
-0.0261399
-0.0231892
-0.0201353
-0.0171759
-0.0148567
-0.0136785
-0.0132624
-0.0129544
-0.0127778
-0.012635
-0.0124368
0
0
0
0
0
0
0
0
-0.0448343
-0.0445881
-0.0441791
-0.0434937
-0.0426551
-0.0415691
-0.0402439
-0.0388898
-0.0371964
-0.0352078
-0.0330874
-0.0308686
-0.0283969
-0.0255958
-0.0228199
-0.0199707
-0.0172016
-0.0149876
-0.0137968
-0.0132794
-0.0130638
-0.0128122
-0.0126766
-0.0124807
-0.0124013
0
0
0
0
0
0
0
0
-0.0401
-0.0399849
-0.0395936
-0.0389469
-0.0381363
-0.0370644
-0.0357199
-0.0342117
-0.0325938
-0.0306705
-0.0285908
-0.026289
-0.023856
-0.0212623
-0.0186124
-0.0162229
-0.014517
-0.0136636
-0.0132628
-0.0129998
-0.0127751
-0.0126612
-0.0124857
-0.012422
0
0
0
0
0
0
0
0
0
-0.034064
-0.0338366
-0.0335356
-0.0327901
-0.0319648
-0.0309293
-0.0297389
-0.028289
-0.0265919
-0.024664
-0.0226165
-0.020429
-0.018248
-0.0162022
-0.014579
-0.0137614
-0.013361
-0.0131173
-0.0129154
-0.0127334
-0.0125702
-0.0125165
0
0
0
0
0
0
0
0
0
0
0
-0.0265419
-0.0264144
-0.0260307
-0.0253604
-0.0244343
-0.0233674
-0.0221161
-0.0208364
-0.0192094
-0.0176331
-0.0161054
-0.0148343
-0.0139878
-0.0134871
-0.0132545
-0.0130057
-0.0128583
-0.0127221
-0.0125975
-0.0124869
-0.0123907
0
0
0
0
0
0
0
0
0
0
0
0
-0.0179276
-0.0177185
-0.0173095
-0.0168729
-0.0162864
-0.0156093
-0.014927
-0.0143222
-0.0139109
-0.0135395
-0.013325
-0.0131507
-0.0129902
-0.0128318
-0.0127569
-0.0126001
-0.012535
-0.012478
0
0
0
0
0
0
0
0
0
0
0
0
0
0
0
-0.0133864
-0.0133462
-0.0132738
-0.0132535
-0.0132095
-0.0131428
-0.0130561
-0.0129504
-0.0128285
-0.0127795
-0.0127205
-0.0126508
-0.0125723
-0.0124889
-0.0124067
0
0
0
0
0
0
0
0
0
0
0
0
0
0
0
0
0
0
-0.0125796
-0.0126426
-0.0125956
-0.0126175
-0.0125284
-0.0125097
-0.0124746
-0.0124262
-0.0124497
0
0
0
0
0
0
0
0
0
0
0
0
0
0
0
0
0
0
0
0
0
0
0
0
0
0
0
0
0
0
0
0
0
0
0
0
0
0
0
0
0
0
0
0
0
0
0
0
0
0
0
0
0
0
0
0
0
0
0
0
0
0
0
0
0
0
0
0
0
0
0
0
0
0
0
0
0
0
0
0
0
0
0
0
0
0
0
0
0
0
-0.0843801
-0.0841525
-0.0838612
-0.0831229
-0.0823182
-0.0813133
-0.0802599
-0.0787661
-0.0772264
-0.0754795
-0.0735038
-0.0714852
-0.0690586
-0.0665941
-0.0639395
-0.061064
-0.0579551
-0.05464
-0.051317
-0.0476414
-0.0439698
-0.0401381
-0.0361117
-0.0318896
-0.0274918
-0.0229637
-0.018562
-0.014833
-0.0132149
-0.0128085
-0.0125877
-0.0124362
0
-0.084134
-0.0838952
-0.0836276
-0.0830281
-0.0821329
-0.0812367
-0.0800858
-0.0786962
-0.0770281
-0.0752693
-0.0734232
-0.071312
-0.0689636
-0.0663561
-0.0636386
-0.0607319
-0.0576234
-0.0545055
-0.0510218
-0.0475098
-0.0436481
-0.039771
-0.035726
-0.0314954
-0.0270971
-0.0225803
-0.018211
-0.0146133
-0.0132323
-0.0127672
-0.0125501
-0.0124013
0
-0.0838371
-0.0835696
-0.0830775
-0.082561
-0.0817956
-0.0807609
-0.079487
-0.0782051
-0.0767069
-0.0749541
-0.0729457
-0.070697
-0.0684445
-0.0659895
-0.0632221
-0.0603103
-0.0572571
-0.0539305
-0.0505247
-0.0469312
-0.0432289
-0.0392325
-0.0351335
-0.0308706
-0.0264569
-0.0220422
-0.0176717
-0.0143821
-0.0131163
-0.0127769
-0.012573
-0.0123429
0
-0.0830175
-0.0828199
-0.0823158
-0.0817743
-0.0810068
-0.0799764
-0.0787074
-0.0774155
-0.0758296
-0.0741285
-0.072092
-0.0698341
-0.0675669
-0.0650035
-0.0621734
-0.0593589
-0.0563339
-0.0529934
-0.0494691
-0.0459685
-0.0422961
-0.0382302
-0.0341292
-0.0298609
-0.0255176
-0.0210266
-0.0168334
-0.0139972
-0.0130352
-0.012744
-0.012466
-0.0123358
0
-0.0816662
-0.0814246
-0.0810491
-0.0803738
-0.0795561
-0.0785207
-0.0774277
-0.075906
-0.0743244
-0.0725233
-0.0705028
-0.0684372
-0.0659667
-0.0634567
-0.0607509
-0.0578371
-0.0546944
-0.0513534
-0.0480129
-0.044326
-0.0406351
-0.0367677
-0.0326992
-0.0284393
-0.0240322
-0.0196059
-0.0157145
-0.0135327
-0.0128926
-0.0126477
-0.0124811
-0.0122829
0
-0.0796347
-0.0793941
-0.0790052
-0.0783128
-0.0775171
-0.076622
-0.07544
-0.073999
-0.0722727
-0.0704506
-0.0685463
-0.0663823
-0.0639748
-0.061311
-0.0585473
-0.0556054
-0.0524717
-0.0492594
-0.0458436
-0.042236
-0.0384329
-0.0345263
-0.0304441
-0.0261887
-0.0218293
-0.0175921
-0.0143455
-0.0131901
-0.0127716
-0.0125718
-0.0124365
0
0
-0.076621
-0.0765006
-0.0760845
-0.0754412
-0.0746372
-0.0735845
-0.0723634
-0.0709663
-0.0694047
-0.0675879
-0.0655233
-0.0633066
-0.0608887
-0.0582123
-0.055443
-0.0524893
-0.0493556
-0.0461496
-0.0427195
-0.0389937
-0.0352778
-0.0314006
-0.0273271
-0.0230143
-0.018798
-0.015204
-0.013431
-0.0129719
-0.0126662
-0.0125167
-0.0123272
0
0
-0.072417
-0.0721644
-0.0717552
-0.0710556
-0.0702494
-0.0693431
-0.0680542
-0.0665642
-0.064981
-0.0631851
-0.0611511
-0.0589934
-0.0565954
-0.0539924
-0.0512515
-0.0482034
-0.0451781
-0.0418953
-0.0384548
-0.0347242
-0.0310128
-0.0271465
-0.0229621
-0.0189334
-0.0154114
-0.0135971
-0.0130086
-0.0127071
-0.0124738
-0.0123756
0
0
0
-0.0665856
-0.0663497
-0.0660773
-0.065445
-0.0645253
-0.0636002
-0.0623207
-0.0608496
-0.0592821
-0.0574983
-0.0554673
-0.0532162
-0.0508547
-0.0482619
-0.0455667
-0.0426797
-0.0395931
-0.036295
-0.0327917
-0.0292788
-0.0254435
-0.0216605
-0.0177892
-0.0147617
-0.013363
-0.0129108
-0.012736
-0.0125278
-0.0123631
0
0
0
0
-0.0593777
-0.0591271
-0.0587348
-0.0580644
-0.0572508
-0.0562206
-0.0549591
-0.0536411
-0.0519028
-0.0501169
-0.0481161
-0.0459035
-0.0436742
-0.0410461
-0.0383747
-0.0355148
-0.0324514
-0.0291926
-0.0257494
-0.0221698
-0.0186543
-0.0155311
-0.013731
-0.0131154
-0.0128441
-0.0125556
-0.0124831
-0.0123596
0
0
0
0
0
-0.0503142
-0.0500633
-0.0497447
-0.0490023
-0.048206
-0.0471899
-0.0460302
-0.0446724
-0.0429738
-0.0412187
-0.0392532
-0.0370582
-0.0347261
-0.0321905
-0.029446
-0.0265252
-0.0235396
-0.0204381
-0.0173671
-0.0148116
-0.0135365
-0.0130088
-0.0127944
-0.012637
-0.0124224
-0.0123272
0
0
0
0
0
0
0
-0.0395036
-0.0393293
-0.0388331
-0.038282
-0.0374206
-0.0364089
-0.0352516
-0.0337755
-0.0320688
-0.030346
-0.0284177
-0.0262558
-0.0238719
-0.0214045
-0.0188619
-0.0164863
-0.0144884
-0.0134753
-0.0130274
-0.0127719
-0.0126536
-0.0124809
-0.0124212
0
0
0
0
0
0
0
0
0
0
-0.0264591
-0.0262864
-0.0257939
-0.0252417
-0.0242872
-0.0232761
-0.0220746
-0.0208451
-0.019276
-0.0177365
-0.0161756
-0.014778
-0.0138578
-0.0133035
-0.0129712
-0.0128102
-0.0126819
-0.0124846
-0.0123886
-0.0123057
0
0
0
0
0
0
0
0
0
0
0
0
0
-0.0139362
-0.0138562
-0.0137145
-0.0136013
-0.0134571
-0.0132145
-0.0130584
-0.0129923
-0.0128369
-0.0127662
-0.0126003
-0.0125169
-0.0124329
-0.0123492
-0.0123525
0
0
0
0
0
0
0
0
0
0
0
0
0
0
0
0
0
0
-0.0124401
-0.0124179
-0.0123741
-0.0123997
-0.0123164
-0.0123024
-0.012277
0
0
0
0
0
0
0
0
0
0
0
0
0
0
0
0
0
0
0
0
0
0
0
0
0
0
-0.110303
-0.110304
-0.109889
-0.109416
-0.108724
-0.107794
-0.106748
-0.105418
-0.10402
-0.102567
-0.100816
-0.0987405
-0.0966589
-0.0944027
-0.0919374
-0.0893709
-0.0865419
-0.0835031
-0.0802204
-0.0768392
-0.0732829
-0.0695271
-0.0655593
-0.0614707
-0.0572161
-0.0527559
-0.0480071
-0.043277
-0.03838
-0.0332016
-0.0279198
-0.0225376
-0.0173213
-0.110316
-0.110143
-0.109687
-0.109222
-0.108535
-0.107622
-0.106662
-0.10528
-0.103881
-0.102421
-0.100699
-0.0987418
-0.0965217
-0.0941847
-0.0916726
-0.0891522
-0.0862333
-0.0832612
-0.0798931
-0.0765069
-0.0729451
-0.0691745
-0.065263
-0.0610789
-0.0568251
-0.0523765
-0.047826
-0.0429387
-0.0380234
-0.032817
-0.0275206
-0.0221422
-0.0170586
-0.109874
-0.109667
-0.109446
-0.10894
-0.10825
-0.107377
-0.10621
-0.105029
-0.10364
-0.10203
-0.100308
-0.0983289
-0.0962342
-0.0939334
-0.0914062
-0.0886668
-0.0859069
-0.0827629
-0.0795888
-0.0762257
-0.0726518
-0.0688612
-0.064865
-0.0607389
-0.0563457
-0.0519547
-0.0472126
-0.0424554
-0.0374346
-0.0323133
-0.0270397
-0.0216777
-0.0165692
-0.109318
-0.109097
-0.108766
-0.108158
-0.107454
-0.106669
-0.105611
-0.104435
-0.102959
-0.101368
-0.0994921
-0.0976079
-0.0954621
-0.0931552
-0.0906878
-0.0879383
-0.0850922
-0.0820114
-0.078824
-0.0754481
-0.0718595
-0.0680546
-0.0640446
-0.0598272
-0.0554951
-0.051004
-0.0463347
-0.0415701
-0.0365437
-0.0314078
-0.0261199
-0.0207676
-0.0157647
-0.108187
-0.10798
-0.107754
-0.107225
-0.106504
-0.105591
-0.104379
-0.103157
-0.101733
-0.10009
-0.0983268
-0.0962976
-0.0941533
-0.0918167
-0.0892795
-0.0866466
-0.083774
-0.0806939
-0.0773756
-0.0739544
-0.0703522
-0.0665455
-0.0625187
-0.0583561
-0.0539293
-0.0495263
-0.0447723
-0.0400177
-0.0350775
-0.0298629
-0.0245809
-0.0193199
-0.0147687
-0.106607
-0.10652
-0.106153
-0.105582
-0.104852
-0.103957
-0.102858
-0.10148
-0.100011
-0.0984747
-0.0966764
-0.0946538
-0.0923635
-0.0899652
-0.0873955
-0.0847436
-0.0818404
-0.0787367
-0.0753849
-0.0719395
-0.068318
-0.0644985
-0.0604625
-0.0562909
-0.0518556
-0.047445
-0.0426846
-0.0379093
-0.0328537
-0.0277125
-0.0224857
-0.017421
-0.0137382
-0.104243
-0.103978
-0.103537
-0.103009
-0.102266
-0.101298
-0.10025
-0.0990413
-0.0975798
-0.0958748
-0.0940125
-0.0919902
-0.0898091
-0.08729
-0.0847893
-0.0819943
-0.0790354
-0.0759079
-0.0725428
-0.0690844
-0.0654596
-0.0616383
-0.0576045
-0.0533615
-0.0490127
-0.0445202
-0.0398468
-0.0349618
-0.029921
-0.0248213
-0.0196179
-0.0150895
-0.0130732
-0.100492
-0.100224
-0.0997893
-0.0992679
-0.0985245
-0.0975484
-0.0964572
-0.0950782
-0.0936042
-0.0920423
-0.0901201
-0.088013
-0.0858275
-0.0833797
-0.0808551
-0.0780196
-0.07498
-0.0719489
-0.0686251
-0.0650623
-0.0614053
-0.057582
-0.0535616
-0.0493458
-0.045023
-0.040449
-0.0358852
-0.0309735
-0.02605
-0.0209871
-0.0162962
-0.0134001
-0.0126856
-0.0951826
-0.0950844
-0.0947026
-0.0941209
-0.0933749
-0.0923786
-0.0912333
-0.0899207
-0.0884685
-0.0867747
-0.0849137
-0.0828538
-0.0805538
-0.0781476
-0.075547
-0.0727288
-0.0696991
-0.0665808
-0.0632334
-0.059762
-0.0559179
-0.052072
-0.0480753
-0.0439909
-0.0396399
-0.0351018
-0.030558
-0.0256915
-0.0208166
-0.0163162
-0.0134745
-0.0127574
-0.0124805
-0.0884737
-0.0882741
-0.08776
-0.0872372
-0.0865042
-0.0855445
-0.0844722
-0.0831412
-0.0816745
-0.0799721
-0.0780215
-0.0758519
-0.0736616
-0.0712567
-0.0684334
-0.0655837
-0.0626406
-0.0595503
-0.0561662
-0.052735
-0.0490132
-0.0452194
-0.0411926
-0.0370594
-0.032809
-0.0282952
-0.0236547
-0.0191016
-0.0150255
-0.0131286
-0.0126691
-0.0124482
-0.0123019
-0.0798782
-0.0795997
-0.0791521
-0.0785425
-0.0777922
-0.0768024
-0.0756762
-0.0743707
-0.0729002
-0.0710657
-0.0691197
-0.0670868
-0.064811
-0.0623068
-0.0595494
-0.0567015
-0.0536837
-0.0504913
-0.0473003
-0.0437475
-0.0400574
-0.0362209
-0.0322944
-0.0281793
-0.0238298
-0.0195234
-0.0156813
-0.0133837
-0.0127075
-0.012485
-0.0123501
0
0
-0.0689311
-0.0688053
-0.068326
-0.0677547
-0.0668376
-0.0658275
-0.064746
-0.0634132
-0.0618687
-0.0601622
-0.0582147
-0.0560421
-0.0537107
-0.0510779
-0.0484552
-0.0456657
-0.0426845
-0.0395093
-0.0361478
-0.0325775
-0.0289053
-0.0251227
-0.0213176
-0.0174869
-0.0144192
-0.0130674
-0.0126499
-0.0124135
-0.0123315
0
0
0
0
-0.0554314
-0.0551866
-0.0547699
-0.0541649
-0.0533953
-0.0523828
-0.0511341
-0.0497456
-0.0481889
-0.0464793
-0.044412
-0.0422362
-0.0399926
-0.0375253
-0.034852
-0.0319828
-0.0290193
-0.0258885
-0.0225897
-0.0191934
-0.0159844
-0.0138588
-0.0129299
-0.0126242
-0.0124429
-0.0123222
0
0
0
0
0
0
0
-0.0387661
-0.0386577
-0.0382089
-0.0376644
-0.0366998
-0.035678
-0.0345424
-0.0332166
-0.0315802
-0.029888
-0.0279713
-0.0258383
-0.0235103
-0.0210029
-0.0184745
-0.0160479
-0.0142248
-0.0132425
-0.012817
-0.0125733
-0.0123899
-0.0123426
0
0
0
0
0
0
0
0
0
0
0
-0.0228505
-0.0226136
-0.0222194
-0.0215979
-0.0208079
-0.0197369
-0.0186584
-0.0173733
-0.0160752
-0.0148083
-0.013849
-0.013246
-0.0128816
-0.0126417
-0.0124526
-0.0123764
-0.0123269
0
0
0
0
0
0
0
0
0
0
0
0
0
0
0
0
-0.131792
-0.131598
-0.131311
-0.130789
-0.130294
-0.129528
-0.128456
-0.127385
-0.12616
-0.124919
-0.123271
-0.121591
-0.11976
-0.117841
-0.115667
-0.113285
-0.110642
-0.107901
-0.104975
-0.101838
-0.0985759
-0.0951492
-0.0914868
-0.0876981
-0.0835151
-0.0792853
-0.0749243
-0.0702397
-0.0652145
-0.06017
-0.0549153
-0.0493332
-0.0436006
-0.131641
-0.131457
-0.131268
-0.130816
-0.130211
-0.129462
-0.128569
-0.127547
-0.126301
-0.124911
-0.123342
-0.121545
-0.119775
-0.117705
-0.115464
-0.113121
-0.110386
-0.107635
-0.104695
-0.101641
-0.09843
-0.0949711
-0.0911885
-0.0873749
-0.0832471
-0.0790105
-0.0745767
-0.06992
-0.0650259
-0.0599765
-0.0546073
-0.0490846
-0.0432502
-0.131278
-0.131209
-0.130894
-0.130478
-0.129859
-0.129029
-0.128206
-0.127184
-0.125915
-0.124433
-0.122958
-0.121288
-0.119399
-0.117307
-0.115121
-0.112692
-0.110159
-0.107433
-0.104493
-0.101334
-0.0980244
-0.094436
-0.0908379
-0.0868556
-0.082834
-0.0785918
-0.0740007
-0.0692811
-0.0644331
-0.0592746
-0.0539706
-0.048473
-0.0427638
-0.130829
-0.130645
-0.130453
-0.130062
-0.129442
-0.128617
-0.127789
-0.126684
-0.125468
-0.12397
-0.122471
-0.120715
-0.118874
-0.116762
-0.11456
-0.112114
-0.109567
-0.106825
-0.103869
-0.100694
-0.0972962
-0.093769
-0.0900794
-0.0861515
-0.0820943
-0.0777115
-0.0732
-0.0684852
-0.0636221
-0.0584444
-0.0530275
-0.0474713
-0.0418333
-0.130052
-0.129989
-0.129657
-0.129211
-0.128551
-0.127688
-0.126826
-0.125766
-0.124487
-0.123107
-0.121465
-0.119715
-0.117773
-0.115631
-0.113477
-0.110932
-0.10836
-0.105604
-0.102636
-0.0994463
-0.0961217
-0.0926284
-0.0888877
-0.0849035
-0.0807653
-0.0765051
-0.0719952
-0.0672122
-0.0622132
-0.0570152
-0.0517915
-0.0461847
-0.0404286
-0.128824
-0.128757
-0.128414
-0.127893
-0.127322
-0.126574
-0.125559
-0.12442
-0.123098
-0.121691
-0.120017
-0.11825
-0.116311
-0.114283
-0.112017
-0.109544
-0.106813
-0.103983
-0.100964
-0.0977404
-0.0943873
-0.0908799
-0.0871217
-0.0830399
-0.0789515
-0.07465
-0.0699921
-0.065198
-0.0602761
-0.0550528
-0.0496961
-0.0441631
-0.0384351
-0.126945
-0.126727
-0.126455
-0.125872
-0.125312
-0.124447
-0.123539
-0.122418
-0.121061
-0.119496
-0.117928
-0.116173
-0.114192
-0.111984
-0.109641
-0.107131
-0.10438
-0.101537
-0.0985086
-0.0952702
-0.0919048
-0.0883799
-0.0846067
-0.0805017
-0.0763608
-0.0719015
-0.0673323
-0.0625648
-0.0575749
-0.0524359
-0.0469857
-0.0414024
-0.0355316
-0.12362
-0.123477
-0.123176
-0.122729
-0.12205
-0.121155
-0.120252
-0.119133
-0.117776
-0.116205
-0.114596
-0.11266
-0.110652
-0.108591
-0.106197
-0.103642
-0.101003
-0.0980822
-0.0948849
-0.0916554
-0.0881923
-0.0846572
-0.0808756
-0.0767689
-0.0726183
-0.0681524
-0.0635797
-0.0588119
-0.0538163
-0.0485934
-0.0432395
-0.0376047
-0.0318532
-0.11906
-0.118974
-0.118612
-0.118076
-0.117464
-0.116565
-0.115604
-0.114504
-0.113157
-0.111651
-0.109962
-0.108021
-0.105984
-0.103773
-0.101356
-0.0988423
-0.0960849
-0.0932054
-0.0900049
-0.0867093
-0.08322
-0.0795263
-0.075631
-0.0717141
-0.0674964
-0.0630535
-0.0583879
-0.0535906
-0.0485735
-0.0432397
-0.0378789
-0.032265
-0.0266563
-0.113068
-0.112812
-0.112333
-0.111849
-0.11116
-0.110267
-0.109388
-0.108294
-0.106948
-0.105353
-0.103546
-0.101695
-0.0995222
-0.0971744
-0.0947989
-0.0922752
-0.089435
-0.0864395
-0.083355
-0.0800649
-0.0764271
-0.0726927
-0.0688955
-0.0648084
-0.0605535
-0.0560748
-0.0514072
-0.0465313
-0.0415541
-0.0363962
-0.0310376
-0.0255892
-0.020033
-0.104969
-0.104727
-0.104362
-0.103725
-0.102985
-0.102069
-0.101138
-0.0997938
-0.0984066
-0.0968232
-0.0952113
-0.0931976
-0.0911012
-0.0886779
-0.0861602
-0.0834903
-0.0807293
-0.0777203
-0.0744026
-0.0710815
-0.0675591
-0.0638051
-0.0597247
-0.0555532
-0.051404
-0.0468838
-0.0422329
-0.0374072
-0.0324045
-0.0273096
-0.0221114
-0.0170149
-0.0135038
-0.0943782
-0.0941523
-0.0937984
-0.0931628
-0.092405
-0.0914626
-0.0904254
-0.0891193
-0.0877035
-0.0860739
-0.0842112
-0.0821182
-0.0799857
-0.0774382
-0.0748752
-0.0721365
-0.0692731
-0.0661163
-0.0628723
-0.0594035
-0.0558419
-0.0520695
-0.0478807
-0.0437657
-0.0394295
-0.034932
-0.0303803
-0.0256759
-0.0208685
-0.0162934
-0.0133005
-0.0125178
-0.0122613
-0.0803573
-0.0803482
-0.0799066
-0.0793909
-0.0786469
-0.0776596
-0.0764299
-0.0749659
-0.0735085
-0.0718457
-0.0699352
-0.0677987
-0.0656347
-0.0630665
-0.0604577
-0.0576596
-0.0546586
-0.0514442
-0.0480288
-0.0445068
-0.0408314
-0.0369745
-0.0330401
-0.0289615
-0.0247354
-0.0204264
-0.0163089
-0.0134687
-0.0125715
-0.0123281
-0.0122166
0
0
-0.0624199
-0.0621995
-0.061925
-0.0612101
-0.0604377
-0.0594382
-0.0582099
-0.0569345
-0.0552503
-0.0535268
-0.0515817
-0.0493954
-0.0470703
-0.0445569
-0.0418266
-0.0389232
-0.0359325
-0.0327518
-0.0293873
-0.0258494
-0.022253
-0.0186288
-0.0153519
-0.0133915
-0.0126485
-0.0123835
-0.0122222
0
0
0
0
0
0
-0.0446351
-0.0444827
-0.0440124
-0.0433734
-0.0424865
-0.0414808
-0.0403639
-0.0390163
-0.0373273
-0.0356039
-0.0336679
-0.0315007
-0.0291123
-0.0265189
-0.0238828
-0.0209428
-0.0180634
-0.0153764
-0.0135639
-0.0128348
-0.0125178
-0.0123109
-0.0122559
0
0
0
0
0
0
0
0
0
0
-0.148979
-0.148814
-0.148665
-0.148328
-0.147769
-0.147007
-0.146252
-0.145354
-0.144371
-0.143131
-0.141786
-0.140294
-0.138727
-0.136918
-0.135
-0.132898
-0.13059
-0.128159
-0.125577
-0.12276
-0.119817
-0.116555
-0.113178
-0.109605
-0.105792
-0.101802
-0.0974734
-0.0929672
-0.0883291
-0.0833382
-0.0781768
-0.0727405
-0.0669251
-0.148906
-0.148858
-0.148584
-0.148224
-0.147703
-0.147076
-0.146234
-0.145426
-0.144408
-0.143192
-0.141752
-0.140338
-0.13872
-0.136909
-0.134849
-0.132702
-0.1304
-0.128085
-0.125388
-0.122531
-0.119595
-0.116445
-0.112955
-0.109335
-0.105571
-0.101495
-0.0972496
-0.0927948
-0.0880729
-0.0831603
-0.0778994
-0.0724565
-0.0667273
-0.148837
-0.14869
-0.148284
-0.147929
-0.14753
-0.146901
-0.14609
-0.145212
-0.144069
-0.142929
-0.141598
-0.140047
-0.138295
-0.136564
-0.13467
-0.132564
-0.130242
-0.127706
-0.125035
-0.122281
-0.119149
-0.115984
-0.112618
-0.109092
-0.105252
-0.101238
-0.0968961
-0.0923861
-0.0877261
-0.0827237
-0.0775195
-0.0719586
-0.0662174
-0.148339
-0.148282
-0.14798
-0.147596
-0.147067
-0.146484
-0.145767
-0.144814
-0.143719
-0.14249
-0.141143
-0.139641
-0.137877
-0.136128
-0.134217
-0.13209
-0.129744
-0.127192
-0.124515
-0.121678
-0.118607
-0.115423
-0.112041
-0.108496
-0.104635
-0.100522
-0.0962357
-0.0916928
-0.0868921
-0.0818625
-0.076543
-0.0711334
-0.0653975
-0.147795
-0.147737
-0.147414
-0.146999
-0.146434
-0.145885
-0.145071
-0.144152
-0.142954
-0.141765
-0.140397
-0.138842
-0.1372
-0.135319
-0.133347
-0.131185
-0.12882
-0.126259
-0.12368
-0.120809
-0.1178
-0.114409
-0.111043
-0.1074
-0.103519
-0.0994604
-0.0950654
-0.0904931
-0.085781
-0.080727
-0.0754756
-0.0698577
-0.064067
-0.146867
-0.146734
-0.146464
-0.146063
-0.145535
-0.144882
-0.144099
-0.143092
-0.141939
-0.140656
-0.139256
-0.137737
-0.136065
-0.134156
-0.132152
-0.129963
-0.127558
-0.124939
-0.122198
-0.119374
-0.116168
-0.112932
-0.109495
-0.105895
-0.101977
-0.0978838
-0.0934594
-0.0888458
-0.0839703
-0.0789564
-0.0735687
-0.0680212
-0.0622234
-0.145435
-0.145237
-0.145027
-0.144615
-0.143978
-0.143136
-0.142286
-0.141263
-0.140214
-0.138855
-0.137432
-0.13596
-0.134161
-0.132188
-0.130149
-0.127943
-0.125531
-0.122926
-0.120297
-0.117283
-0.114096
-0.110828
-0.107354
-0.103619
-0.0995883
-0.0953484
-0.0910854
-0.0864002
-0.0815047
-0.076447
-0.0710407
-0.0654433
-0.0594668
-0.14254
-0.142536
-0.142146
-0.14171
-0.141163
-0.140481
-0.139673
-0.138635
-0.137398
-0.136155
-0.134731
-0.133101
-0.131273
-0.129421
-0.12727
-0.125027
-0.122601
-0.11996
-0.1171
-0.114104
-0.111012
-0.107609
-0.10401
-0.100319
-0.0961825
-0.0918979
-0.0874861
-0.082872
-0.0779767
-0.0727896
-0.0674379
-0.0617242
-0.0558406
-0.138758
-0.138525
-0.138145
-0.13773
-0.137254
-0.13647
-0.135646
-0.134611
-0.133367
-0.132086
-0.130502
-0.128832
-0.126998
-0.125096
-0.122948
-0.120676
-0.118079
-0.115385
-0.112522
-0.109648
-0.106376
-0.102916
-0.0993434
-0.0954471
-0.0914197
-0.0871652
-0.0826595
-0.0779785
-0.0729449
-0.067709
-0.062331
-0.0566021
-0.0506938
-0.133049
-0.132904
-0.132621
-0.132216
-0.131592
-0.130829
-0.129925
-0.128896
-0.127629
-0.126223
-0.124673
-0.12301
-0.121141
-0.119059
-0.116823
-0.114388
-0.11182
-0.109155
-0.106273
-0.103243
-0.0999018
-0.0963909
-0.0925884
-0.0887734
-0.084725
-0.0803216
-0.0757713
-0.0710709
-0.0660308
-0.0608018
-0.0552282
-0.0495999
-0.0436384
-0.125542
-0.125329
-0.125017
-0.124442
-0.123783
-0.123122
-0.122078
-0.120992
-0.119692
-0.118182
-0.116656
-0.11482
-0.112881
-0.110745
-0.10841
-0.105981
-0.103333
-0.100556
-0.0974624
-0.0942656
-0.0908721
-0.0872429
-0.0834639
-0.079516
-0.0753255
-0.0709776
-0.0662754
-0.0614477
-0.056404
-0.0511112
-0.0456432
-0.0398574
-0.0340786
-0.115043
-0.114827
-0.114537
-0.114087
-0.113415
-0.112511
-0.111458
-0.11025
-0.108911
-0.107417
-0.105647
-0.103769
-0.101646
-0.0994115
-0.0969773
-0.0943528
-0.0917118
-0.0886794
-0.0855859
-0.0821806
-0.0786805
-0.0749848
-0.0710612
-0.0669311
-0.0627874
-0.0582503
-0.0536264
-0.0486897
-0.0436381
-0.0384023
-0.0329761
-0.0273952
-0.021739
-0.100559
-0.100331
-0.100057
-0.0993715
-0.0986425
-0.097712
-0.0967434
-0.095359
-0.0939406
-0.0923182
-0.0904651
-0.088468
-0.0863202
-0.084022
-0.0813593
-0.078608
-0.0758101
-0.0726883
-0.0694033
-0.0659632
-0.0624003
-0.0585086
-0.0545033
-0.0503075
-0.0459274
-0.0414661
-0.0368169
-0.0319051
-0.0270332
-0.0219608
-0.0171065
-0.0134256
-0.0124751
-0.081126
-0.080899
-0.080631
-0.080004
-0.0791768
-0.0782232
-0.077224
-0.0758075
-0.0743223
-0.0726235
-0.0707
-0.0685546
-0.0661975
-0.0638029
-0.061085
-0.0582662
-0.0552561
-0.0520186
-0.0485782
-0.045072
-0.0413612
-0.0375671
-0.0335272
-0.0293223
-0.0250635
-0.020732
-0.0166346
-0.0136272
-0.0126133
-0.0123522
-0.0121414
0
0
-0.0620613
-0.0618438
-0.0615688
-0.0608724
-0.0601167
-0.0591302
-0.0579097
-0.0566248
-0.0549475
-0.0532166
-0.0512692
-0.0490856
-0.0466814
-0.0442337
-0.0414164
-0.0385529
-0.0354872
-0.0321402
-0.0287836
-0.0252148
-0.0214931
-0.0178238
-0.0146151
-0.0130235
-0.0125681
-0.0123602
-0.012239
0
0
0
0
0
0
-0.163198
-0.163167
-0.162918
-0.162589
-0.16212
-0.161654
-0.160993
-0.160134
-0.159278
-0.158226
-0.156989
-0.155752
-0.154278
-0.152734
-0.150918
-0.14898
-0.146892
-0.144578
-0.142176
-0.139665
-0.136877
-0.133936
-0.13078
-0.127435
-0.123821
-0.120098
-0.115928
-0.11159
-0.106994
-0.102178
-0.0969809
-0.0915519
-0.0859397
-0.163116
-0.163089
-0.162841
-0.162547
-0.162196
-0.161616
-0.160915
-0.160043
-0.159177
-0.15815
-0.157027
-0.155684
-0.154232
-0.152597
-0.150763
-0.148814
-0.146814
-0.144549
-0.142099
-0.139474
-0.136668
-0.133729
-0.130682
-0.127297
-0.123638
-0.119847
-0.115787
-0.111338
-0.106773
-0.101857
-0.0967284
-0.0913524
-0.0856451
-0.163127
-0.163033
-0.16281
-0.162497
-0.162078
-0.161517
-0.160832
-0.159963
-0.159091
-0.15804
-0.156796
-0.155501
-0.153908
-0.152249
-0.150614
-0.148631
-0.146601
-0.144286
-0.141873
-0.139281
-0.136535
-0.133562
-0.130279
-0.126832
-0.123266
-0.119349
-0.115356
-0.111035
-0.106437
-0.101609
-0.0963864
-0.0909341
-0.0852739
-0.162728
-0.162677
-0.162398
-0.162063
-0.161707
-0.161238
-0.160549
-0.159661
-0.158764
-0.157696
-0.156431
-0.155127
-0.153527
-0.151858
-0.150206
-0.148187
-0.146025
-0.143796
-0.14141
-0.138817
-0.136066
-0.133009
-0.129783
-0.126328
-0.122745
-0.118817
-0.114729
-0.11046
-0.105835
-0.100987
-0.0957394
-0.0902541
-0.0843748
-0.162414
-0.16235
-0.16204
-0.161674
-0.161289
-0.160788
-0.160059
-0.159132
-0.158197
-0.157088
-0.155864
-0.154505
-0.153036
-0.151375
-0.149581
-0.147528
-0.145452
-0.14309
-0.14064
-0.138075
-0.135226
-0.132215
-0.128905
-0.125547
-0.121866
-0.117993
-0.113832
-0.109421
-0.104755
-0.0998692
-0.0945948
-0.089078
-0.0833594
-0.161883
-0.161687
-0.161476
-0.161082
-0.160509
-0.15994
-0.159214
-0.158479
-0.157556
-0.156421
-0.155086
-0.153727
-0.152097
-0.150491
-0.148678
-0.146591
-0.144485
-0.142091
-0.139611
-0.136949
-0.134134
-0.131013
-0.12772
-0.124193
-0.120534
-0.116518
-0.112352
-0.108005
-0.103302
-0.0983747
-0.0930519
-0.0874897
-0.0815311
-0.16049
-0.160284
-0.160083
-0.159718
-0.159347
-0.158722
-0.157944
-0.157034
-0.15605
-0.154884
-0.153537
-0.152201
-0.150677
-0.148957
-0.147097
-0.144983
-0.14286
-0.14045
-0.137952
-0.135255
-0.132407
-0.129261
-0.125949
-0.122394
-0.11869
-0.114636
-0.110388
-0.105747
-0.100996
-0.0959076
-0.0906102
-0.0850577
-0.0791786
-0.158124
-0.158159
-0.157927
-0.157538
-0.157011
-0.156414
-0.155629
-0.154647
-0.153664
-0.152504
-0.151161
-0.149801
-0.148146
-0.1464
-0.144479
-0.142376
-0.140254
-0.137834
-0.135288
-0.132436
-0.12947
-0.12636
-0.122937
-0.119349
-0.115627
-0.111548
-0.107278
-0.102611
-0.0978307
-0.0926997
-0.0872664
-0.0816018
-0.0757414
-0.154647
-0.154532
-0.154273
-0.153879
-0.153349
-0.152689
-0.151914
-0.151013
-0.149946
-0.148637
-0.147255
-0.145911
-0.144216
-0.142499
-0.140594
-0.138479
-0.136217
-0.133676
-0.130997
-0.128242
-0.125266
-0.121995
-0.118515
-0.114902
-0.111098
-0.106991
-0.102574
-0.0979976
-0.0931249
-0.0879039
-0.0823941
-0.076611
-0.0707282
-0.149374
-0.149181
-0.148995
-0.148611
-0.148016
-0.147397
-0.146502
-0.145636
-0.14448
-0.143253
-0.141725
-0.140142
-0.13851
-0.136654
-0.13468
-0.132388
-0.130035
-0.127624
-0.124966
-0.122071
-0.119047
-0.115676
-0.11217
-0.108441
-0.104541
-0.100288
-0.0958311
-0.0912181
-0.0861522
-0.0809659
-0.0754887
-0.0697813
-0.0636991
-0.141859
-0.141662
-0.141475
-0.141082
-0.140465
-0.139647
-0.138818
-0.137802
-0.136559
-0.135175
-0.133739
-0.132127
-0.130309
-0.128292
-0.126259
-0.123835
-0.121404
-0.118795
-0.116038
-0.112991
-0.10984
-0.10643
-0.102859
-0.0989401
-0.0948818
-0.0905888
-0.0860187
-0.0812657
-0.0762682
-0.0709897
-0.0654997
-0.0596337
-0.0535892
-0.130935
-0.130712
-0.130456
-0.129834
-0.129323
-0.128567
-0.127502
-0.126417
-0.125127
-0.123707
-0.122176
-0.120526
-0.118641
-0.116522
-0.114181
-0.111712
-0.109088
-0.106219
-0.103253
-0.100094
-0.0967354
-0.0932706
-0.0895349
-0.0854569
-0.0813561
-0.077011
-0.0722825
-0.0673933
-0.0622876
-0.0571306
-0.0515391
-0.0457517
-0.0397252
-0.115365
-0.115182
-0.114719
-0.114257
-0.113596
-0.112709
-0.111779
-0.110421
-0.10904
-0.107503
-0.105965
-0.104028
-0.102038
-0.0998421
-0.097418
-0.0947651
-0.0919779
-0.0890233
-0.0858409
-0.0825719
-0.0791119
-0.0754291
-0.0715076
-0.0673498
-0.0630591
-0.0585794
-0.0538561
-0.0490153
-0.0439578
-0.0385676
-0.0330787
-0.0274674
-0.0218874
-0.0952238
-0.0949985
-0.0947617
-0.0942971
-0.0935191
-0.0926512
-0.0914787
-0.0902351
-0.0885799
-0.0868992
-0.0850538
-0.0831827
-0.0809213
-0.0786099
-0.076075
-0.0733281
-0.0703597
-0.067177
-0.0638715
-0.0604738
-0.0567096
-0.0529255