/*--------------------------------*- C++ -*----------------------------------*\
| =========                 |                                                 |
| \\      /  F ield         | OpenFOAM: The Open Source CFD Toolbox           |
|  \\    /   O peration     | Version:  2312                                  |
|   \\  /    A nd           | Website:  www.openfoam.com                      |
|    \\/     M anipulation  |                                                 |
\*---------------------------------------------------------------------------*/
FoamFile
{
    version     2.0;
    format      ascii;
    arch        "LSB;label=32;scalar=64";
    class       volVectorField;
    location    "0.3";
    object      D;
}
// * * * * * * * * * * * * * * * * * * * * * * * * * * * * * * * * * * * * * //

dimensions      [0 1 0 0 0 0 0];

internalField   nonuniform List<vector> 
1620
(
(0.000116882 -0.000226533 3.97652e-05)
(0.000154444 -0.000202795 3.97653e-05)
(0.000187312 -0.000172895 3.97654e-05)
(0.00021449 -0.000137742 3.97654e-05)
(0.00023515 -9.84036e-05 3.97655e-05)
(0.000248665 -5.60752e-05 3.97654e-05)
(0.000254624 -1.20431e-05 3.97652e-05)
(0.000252847 3.23547e-05 3.97651e-05)
(0.000243388 7.57697e-05 3.97652e-05)
(0.000226533 0.000116882 3.97652e-05)
(0.000202795 0.000154444 3.97653e-05)
(0.000172895 0.000187312 3.97654e-05)
(0.000137742 0.00021449 3.97654e-05)
(9.84036e-05 0.00023515 3.97655e-05)
(5.60752e-05 0.000248665 3.97654e-05)
(1.20431e-05 0.000254624 3.97652e-05)
(-3.23547e-05 0.000252847 3.97651e-05)
(-7.57697e-05 0.000243388 3.97652e-05)
(-0.000116882 0.000226533 3.97652e-05)
(-0.000154444 0.000202795 3.97653e-05)
(-0.000187312 0.000172895 3.97654e-05)
(-0.00021449 0.000137742 3.97654e-05)
(-0.00023515 9.84036e-05 3.97655e-05)
(-0.000248665 5.60752e-05 3.97654e-05)
(-0.000254624 1.20431e-05 3.97652e-05)
(-0.000252847 -3.23547e-05 3.97651e-05)
(-0.000243388 -7.57697e-05 3.97652e-05)
(-0.000226533 -0.000116882 3.97652e-05)
(-0.000202795 -0.000154444 3.97653e-05)
(-0.000172895 -0.000187312 3.97654e-05)
(-0.000137742 -0.00021449 3.97654e-05)
(-9.84036e-05 -0.00023515 3.97655e-05)
(-5.60752e-05 -0.000248665 3.97654e-05)
(-1.20431e-05 -0.000254624 3.97652e-05)
(3.23547e-05 -0.000252847 3.97651e-05)
(7.57697e-05 -0.000243388 3.97652e-05)
(7.69699e-05 -0.000234541 4.49866e-05)
(0.000116528 -0.000217612 4.49867e-05)
(0.000152546 -0.000194071 4.49867e-05)
(0.000183929 -0.000164634 4.49868e-05)
(0.000209723 -0.000130194 4.49869e-05)
(0.000229144 -9.17975e-05 4.49868e-05)
(0.000241604 -5.06125e-05 4.49867e-05)
(0.000246722 -7.88973e-06 4.49867e-05)
(0.000244344 3.5073e-05 4.49867e-05)
(0.000234541 7.69699e-05 4.49866e-05)
(0.000217612 0.000116528 4.49867e-05)
(0.000194071 0.000152546 4.49867e-05)
(0.000164634 0.000183929 4.49868e-05)
(0.000130194 0.000209723 4.49869e-05)
(9.17975e-05 0.000229144 4.49868e-05)
(5.06125e-05 0.000241604 4.49867e-05)
(7.88973e-06 0.000246722 4.49867e-05)
(-3.5073e-05 0.000244344 4.49867e-05)
(-7.69699e-05 0.000234541 4.49866e-05)
(-0.000116528 0.000217612 4.49867e-05)
(-0.000152546 0.000194071 4.49867e-05)
(-0.000183929 0.000164634 4.49868e-05)
(-0.000209723 0.000130194 4.49869e-05)
(-0.000229144 9.17975e-05 4.49868e-05)
(-0.000241604 5.06125e-05 4.49867e-05)
(-0.000246722 7.88973e-06 4.49867e-05)
(-0.000244344 -3.5073e-05 4.49867e-05)
(-0.000234541 -7.69699e-05 4.49866e-05)
(-0.000217612 -0.000116528 4.49867e-05)
(-0.000194071 -0.000152546 4.49867e-05)
(-0.000164634 -0.000183929 4.49868e-05)
(-0.000130194 -0.000209723 4.49869e-05)
(-9.17975e-05 -0.000229144 4.49868e-05)
(-5.06125e-05 -0.000241604 4.49867e-05)
(-7.88973e-06 -0.000246722 4.49867e-05)
(3.5073e-05 -0.000244344 4.49867e-05)
(2.30849e-05 -0.000242264 4.63006e-05)
(6.48028e-05 -0.000234575 4.63006e-05)
(0.000104552 -0.000219758 4.63008e-05)
(0.000141124 -0.000198264 4.63008e-05)
(0.000173409 -0.000170746 4.63008e-05)
(0.000200423 -0.00013804 4.63007e-05)
(0.000221349 -0.00010114 4.63008e-05)
(0.000235549 -6.11663e-05 4.63008e-05)
(0.000242592 -1.93344e-05 4.63007e-05)
(0.000242264 2.30849e-05 4.63006e-05)
(0.000234575 6.48028e-05 4.63006e-05)
(0.000219758 0.000104552 4.63008e-05)
(0.000198264 0.000141124 4.63008e-05)
(0.000170746 0.000173409 4.63008e-05)
(0.00013804 0.000200423 4.63007e-05)
(0.00010114 0.000221349 4.63008e-05)
(6.11663e-05 0.000235549 4.63008e-05)
(1.93344e-05 0.000242592 4.63007e-05)
(-2.30849e-05 0.000242264 4.63006e-05)
(-6.48028e-05 0.000234575 4.63006e-05)
(-0.000104552 0.000219758 4.63008e-05)
(-0.000141124 0.000198264 4.63008e-05)
(-0.000173409 0.000170746 4.63008e-05)
(-0.000200423 0.00013804 4.63007e-05)
(-0.000221349 0.00010114 4.63008e-05)
(-0.000235549 6.11663e-05 4.63008e-05)
(-0.000242592 1.93344e-05 4.63007e-05)
(-0.000242264 -2.30849e-05 4.63006e-05)
(-0.000234575 -6.48028e-05 4.63006e-05)
(-0.000219758 -0.000104552 4.63008e-05)
(-0.000198264 -0.000141124 4.63008e-05)
(-0.000170746 -0.000173409 4.63008e-05)
(-0.00013804 -0.000200423 4.63007e-05)
(-0.00010114 -0.000221349 4.63008e-05)
(-6.11663e-05 -0.000235549 4.63008e-05)
(-1.93344e-05 -0.000242592 4.63007e-05)
(0.000268826 -0.000682732 0.000145867)
(0.000383297 -0.000625679 0.000145868)
(0.000486122 -0.000549615 0.000145868)
(0.000574176 -0.00045685 0.000145868)
(0.000644784 -0.000350205 0.000145868)
(0.000695801 -0.000232919 0.000145868)
(0.000725677 -0.000108556 0.000145868)
(0.000733502 1.91055e-05 0.000145867)
(0.000719041 0.000146186 0.000145867)
(0.000682732 0.000268826 0.000145867)
(0.000625679 0.000383297 0.000145868)
(0.000549615 0.000486122 0.000145868)
(0.00045685 0.000574176 0.000145868)
(0.000350205 0.000644784 0.000145868)
(0.000232919 0.000695801 0.000145868)
(0.000108556 0.000725677 0.000145868)
(-1.91055e-05 0.000733502 0.000145867)
(-0.000146186 0.000719041 0.000145867)
(-0.000268826 0.000682732 0.000145867)
(-0.000383297 0.000625679 0.000145868)
(-0.000486122 0.000549615 0.000145868)
(-0.000574176 0.00045685 0.000145868)
(-0.000644784 0.000350205 0.000145868)
(-0.000695801 0.000232919 0.000145868)
(-0.000725677 0.000108556 0.000145868)
(-0.000733502 -1.91055e-05 0.000145867)
(-0.000719041 -0.000146186 0.000145867)
(-0.000682732 -0.000268826 0.000145867)
(-0.000625679 -0.000383297 0.000145868)
(-0.000549615 -0.000486122 0.000145868)
(-0.00045685 -0.000574176 0.000145868)
(-0.000350205 -0.000644784 0.000145868)
(-0.000232919 -0.000695801 0.000145868)
(-0.000108556 -0.000725677 0.000145868)
(1.91055e-05 -0.000733502 0.000145867)
(0.000146186 -0.000719041 0.000145867)
(0.000209357 -0.000697493 0.000168622)
(0.000327295 -0.000650541 0.000168622)
(0.000435288 -0.000583824 0.000168622)
(0.000530055 -0.000499368 0.000168622)
(0.000608717 -0.000399738 0.000168622)
(0.000668883 -0.000287962 0.000168622)
(0.000708725 -0.000167437 0.000168622)
(0.000727033 -4.18248e-05 0.000168622)
(0.000723251 8.50583e-05 0.000168622)
(0.000697493 0.000209357 0.000168622)
(0.000650541 0.000327295 0.000168622)
(0.000583824 0.000435288 0.000168622)
(0.000499368 0.000530055 0.000168622)
(0.000399738 0.000608717 0.000168622)
(0.000287962 0.000668883 0.000168622)
(0.000167437 0.000708725 0.000168622)
(4.18248e-05 0.000727033 0.000168622)
(-8.50583e-05 0.000723251 0.000168622)
(-0.000209357 0.000697493 0.000168622)
(-0.000327295 0.000650541 0.000168622)
(-0.000435288 0.000583824 0.000168622)
(-0.000530055 0.000499368 0.000168622)
(-0.000608717 0.000399738 0.000168622)
(-0.000668883 0.000287962 0.000168622)
(-0.000708725 0.000167437 0.000168622)
(-0.000727033 4.18248e-05 0.000168622)
(-0.000723251 -8.50583e-05 0.000168622)
(-0.000697493 -0.000209357 0.000168622)
(-0.000650541 -0.000327295 0.000168622)
(-0.000583824 -0.000435288 0.000168622)
(-0.000499368 -0.000530055 0.000168622)
(-0.000399738 -0.000608717 0.000168622)
(-0.000287962 -0.000668883 0.000168622)
(-0.000167437 -0.000708725 0.000168622)
(-4.18248e-05 -0.000727033 0.000168622)
(8.50583e-05 -0.000723251 0.000168622)
(0.000133825 -0.000710478 0.000185763)
(0.000255164 -0.000676445 0.000185763)
(0.000368751 -0.00062186 0.000185763)
(0.000471134 -0.000548379 0.000185763)
(0.000559202 -0.000458236 0.000185763)
(0.000630278 -0.00035417 0.000185763)
(0.000682204 -0.000239343 0.000185763)
(0.000713401 -0.000117244 0.000185763)
(0.000722923 8.41816e-06 0.000185763)
(0.000710478 0.000133825 0.000185763)
(0.000676445 0.000255164 0.000185763)
(0.00062186 0.000368751 0.000185763)
(0.000548379 0.000471134 0.000185763)
(0.000458236 0.000559202 0.000185763)
(0.00035417 0.000630278 0.000185763)
(0.000239343 0.000682204 0.000185763)
(0.000117244 0.000713401 0.000185763)
(-8.41816e-06 0.000722923 0.000185763)
(-0.000133825 0.000710478 0.000185763)
(-0.000255164 0.000676445 0.000185763)
(-0.000368751 0.00062186 0.000185763)
(-0.000471134 0.000548379 0.000185763)
(-0.000559202 0.000458236 0.000185763)
(-0.000630278 0.00035417 0.000185763)
(-0.000682204 0.000239343 0.000185763)
(-0.000713401 0.000117244 0.000185763)
(-0.000722923 -8.41816e-06 0.000185763)
(-0.000710478 -0.000133825 0.000185763)
(-0.000676445 -0.000255164 0.000185763)
(-0.00062186 -0.000368751 0.000185763)
(-0.000548379 -0.000471134 0.000185763)
(-0.000458236 -0.000559202 0.000185763)
(-0.00035417 -0.000630278 0.000185763)
(-0.000239343 -0.000682204 0.000185763)
(-0.000117244 -0.000713401 0.000185763)
(8.41816e-06 -0.000722923 0.000185763)
(0.000398809 -0.00113668 0.000315814)
(0.000590132 -0.00105016 0.000315814)
(0.000763525 -0.000931729 0.000315814)
(0.000913719 -0.000784988 0.000315814)
(0.00103615 -0.000614397 0.000315814)
(0.0011271 -0.000425138 0.000315814)
(0.0011838 -0.000222961 0.000315814)
(0.00120453 -1.40093e-05 0.000315813)
(0.00118866 0.000195368 0.000315813)
(0.00113668 0.000398809 0.000315814)
(0.00105016 0.000590132 0.000315814)
(0.000931729 0.000763525 0.000315814)
(0.000784988 0.000913719 0.000315814)
(0.000614397 0.00103615 0.000315814)
(0.000425138 0.0011271 0.000315814)
(0.000222961 0.0011838 0.000315814)
(1.40093e-05 0.00120453 0.000315813)
(-0.000195368 0.00118866 0.000315813)
(-0.000398809 0.00113668 0.000315814)
(-0.000590132 0.00105016 0.000315814)
(-0.000763525 0.000931729 0.000315814)
(-0.000913719 0.000784988 0.000315814)
(-0.00103615 0.000614397 0.000315814)
(-0.0011271 0.000425138 0.000315814)
(-0.0011838 0.000222961 0.000315814)
(-0.00120453 1.40093e-05 0.000315813)
(-0.00118866 -0.000195368 0.000315813)
(-0.00113668 -0.000398809 0.000315814)
(-0.00105016 -0.000590132 0.000315814)
(-0.000931729 -0.000763525 0.000315814)
(-0.000784988 -0.000913719 0.000315814)
(-0.000614397 -0.00103615 0.000315814)
(-0.000425138 -0.0011271 0.000315814)
(-0.000222961 -0.0011838 0.000315814)
(-1.40093e-05 -0.00120453 0.000315813)
(0.000195368 -0.00118866 0.000315813)
(0.00031695 -0.00114722 0.000348595)
(0.000511348 -0.00107476 0.000348596)
(0.000690209 -0.000969633 0.000348596)
(0.000848098 -0.000835049 0.000348596)
(0.000980218 -0.000675092 0.000348596)
(0.00108256 -0.000494622 0.000348596)
(0.001152 -0.000299124 0.000348595)
(0.00118644 -9.45375e-05 0.000348596)
(0.00118483 0.000112922 0.000348595)
(0.00114722 0.00031695 0.000348595)
(0.00107476 0.000511348 0.000348596)
(0.000969633 0.000690209 0.000348596)
(0.000835049 0.000848098 0.000348596)
(0.000675092 0.000980218 0.000348596)
(0.000494622 0.00108256 0.000348596)
(0.000299124 0.001152 0.000348595)
(9.45375e-05 0.00118644 0.000348596)
(-0.000112922 0.00118483 0.000348595)
(-0.00031695 0.00114722 0.000348595)
(-0.000511348 0.00107476 0.000348596)
(-0.000690209 0.000969633 0.000348596)
(-0.000848098 0.000835049 0.000348596)
(-0.000980218 0.000675092 0.000348596)
(-0.00108256 0.000494622 0.000348596)
(-0.001152 0.000299124 0.000348595)
(-0.00118644 9.45375e-05 0.000348596)
(-0.00118483 -0.000112922 0.000348595)
(-0.00114722 -0.00031695 0.000348595)
(-0.00107476 -0.000511348 0.000348596)
(-0.000969633 -0.000690209 0.000348596)
(-0.000835049 -0.000848098 0.000348596)
(-0.000675092 -0.000980218 0.000348596)
(-0.000494622 -0.00108256 0.000348596)
(-0.000299124 -0.001152 0.000348595)
(-9.45375e-05 -0.00118644 0.000348596)
(0.000112922 -0.00118483 0.000348595)
(0.000220513 -0.00115405 0.000375352)
(0.000417562 -0.00109822 0.000375351)
(0.000601923 -0.00100903 0.000375352)
(0.000767995 -0.00088918 0.000375352)
(0.000910732 -0.00074231 0.000375352)
(0.0010258 -0.000572885 0.000375352)
(0.00110969 -0.000386054 0.000375352)
(0.00115987 -0.000187494 0.000375352)
(0.00117481 1.67642e-05 0.000375352)
(0.00115405 0.000220513 0.000375352)
(0.00109822 0.000417562 0.000375351)
(0.00100903 0.000601923 0.000375352)
(0.00088918 0.000767995 0.000375352)
(0.00074231 0.000910732 0.000375352)
(0.000572885 0.0010258 0.000375352)
(0.000386054 0.00110969 0.000375352)
(0.000187494 0.00115987 0.000375352)
(-1.67642e-05 0.00117481 0.000375352)
(-0.000220513 0.00115405 0.000375352)
(-0.000417562 0.00109822 0.000375351)
(-0.000601923 0.00100903 0.000375352)
(-0.000767995 0.00088918 0.000375352)
(-0.000910732 0.00074231 0.000375352)
(-0.0010258 0.000572885 0.000375352)
(-0.00110969 0.000386054 0.000375352)
(-0.00115987 0.000187494 0.000375352)
(-0.00117481 -1.67642e-05 0.000375352)
(-0.00115405 -0.000220513 0.000375352)
(-0.00109822 -0.000417562 0.000375351)
(-0.00100903 -0.000601923 0.000375352)
(-0.00088918 -0.000767995 0.000375352)
(-0.00074231 -0.000910732 0.000375352)
(-0.000572885 -0.0010258 0.000375352)
(-0.000386054 -0.00110969 0.000375352)
(-0.000187494 -0.00115987 0.000375352)
(1.67642e-05 -0.00117481 0.000375352)
(0.000488673 -0.00158072 0.000529178)
(0.000755739 -0.00147185 0.000529179)
(0.000999842 -0.00131826 0.000529179)
(0.00121357 -0.00112461 0.000529179)
(0.00139042 -0.000896791 0.000529179)
(0.00152502 -0.000641724 0.000529178)
(0.00161328 -0.000367158 0.000529178)
(0.00165253 -8.14363e-05 0.000529178)
(0.00164157 0.00020676 0.000529178)
(0.00158072 0.000488673 0.000529178)
(0.00147185 0.000755739 0.000529179)
(0.00131826 0.000999842 0.000529179)
(0.00112461 0.00121357 0.000529179)
(0.000896791 0.00139042 0.000529179)
(0.000641724 0.00152502 0.000529178)
(0.000367158 0.00161328 0.000529178)
(8.14363e-05 0.00165253 0.000529178)
(-0.00020676 0.00164157 0.000529178)
(-0.000488673 0.00158072 0.000529178)
(-0.000755739 0.00147185 0.000529179)
(-0.000999842 0.00131826 0.000529179)
(-0.00121357 0.00112461 0.000529179)
(-0.00139042 0.000896791 0.000529179)
(-0.00152502 0.000641724 0.000529178)
(-0.00161328 0.000367158 0.000529178)
(-0.00165253 8.14363e-05 0.000529178)
(-0.00164157 -0.00020676 0.000529178)
(-0.00158072 -0.000488673 0.000529178)
(-0.00147185 -0.000755739 0.000529179)
(-0.00131826 -0.000999842 0.000529179)
(-0.00112461 -0.00121357 0.000529179)
(-0.000896791 -0.00139042 0.000529179)
(-0.000641724 -0.00152502 0.000529178)
(-0.000367158 -0.00161328 0.000529178)
(-8.14363e-05 -0.00165253 0.000529178)
(0.00020676 -0.00164157 0.000529178)
(0.000390372 -0.00157281 0.000565016)
(0.000657557 -0.00148112 0.000565016)
(0.000904762 -0.00134444 0.000565016)
(0.00112448 -0.0011669 0.000565016)
(0.00131002 -0.000953913 0.000565016)
(0.00145577 -0.000711938 0.000565016)
(0.00155728 -0.000448331 0.000565016)
(0.00161147 -0.000171102 0.000565016)
(0.0016167 0.000111327 0.000565016)
(0.00157281 0.000390372 0.000565016)
(0.00148112 0.000657557 0.000565016)
(0.00134444 0.000904762 0.000565016)
(0.0011669 0.00112448 0.000565016)
(0.000953913 0.00131002 0.000565016)
(0.000711938 0.00145577 0.000565016)
(0.000448331 0.00155728 0.000565016)
(0.000171102 0.00161147 0.000565016)
(-0.000111327 0.0016167 0.000565016)
(-0.000390372 0.00157281 0.000565016)
(-0.000657557 0.00148112 0.000565016)
(-0.000904762 0.00134444 0.000565016)
(-0.00112448 0.0011669 0.000565016)
(-0.00131002 0.000953913 0.000565016)
(-0.00145577 0.000711938 0.000565016)
(-0.00155728 0.000448331 0.000565016)
(-0.00161147 0.000171102 0.000565016)
(-0.0016167 -0.000111327 0.000565016)
(-0.00157281 -0.000390372 0.000565016)
(-0.00148112 -0.000657557 0.000565016)
(-0.00134444 -0.000904762 0.000565016)
(-0.0011669 -0.00112448 0.000565016)
(-0.000953913 -0.00131002 0.000565016)
(-0.000711938 -0.00145577 0.000565016)
(-0.000448331 -0.00155728 0.000565016)
(-0.000171102 -0.00161147 0.000565016)
(0.000111327 -0.0016167 0.000565016)
(0.000279519 -0.00156053 0.000594522)
(0.000546255 -0.00148828 0.000594522)
(0.000796393 -0.00137081 0.000594522)
(0.00102233 -0.00121169 0.000594522)
(0.00121721 -0.00101576 0.000594521)
(0.0013751 -0.000788963 0.000594522)
(0.00149121 -0.000538192 0.000594522)
(0.00156202 -0.00027107 0.000594522)
(0.00158536 4.2895e-06 0.000594522)
(0.00156053 0.000279519 0.000594522)
(0.00148828 0.000546255 0.000594522)
(0.00137081 0.000796393 0.000594522)
(0.00121169 0.00102233 0.000594522)
(0.00101576 0.00121721 0.000594521)
(0.000788963 0.0013751 0.000594522)
(0.000538192 0.00149121 0.000594522)
(0.00027107 0.00156202 0.000594522)
(-4.2895e-06 0.00158536 0.000594522)
(-0.000279519 0.00156053 0.000594522)
(-0.000546255 0.00148828 0.000594522)
(-0.000796393 0.00137081 0.000594522)
(-0.00102233 0.00121169 0.000594522)
(-0.00121721 0.00101576 0.000594521)
(-0.0013751 0.000788963 0.000594522)
(-0.00149121 0.000538192 0.000594522)
(-0.00156202 0.00027107 0.000594522)
(-0.00158536 -4.2895e-06 0.000594522)
(-0.00156053 -0.000279519 0.000594522)
(-0.00148828 -0.000546255 0.000594522)
(-0.00137081 -0.000796393 0.000594522)
(-0.00121169 -0.00102233 0.000594522)
(-0.00101576 -0.00121721 0.000594521)
(-0.000788963 -0.0013751 0.000594522)
(-0.000538192 -0.00149121 0.000594522)
(-0.00027107 -0.00156202 0.000594522)
(4.2895e-06 -0.00158536 0.000594522)
(0.000536083 -0.00200191 0.000774882)
(0.000875568 -0.00187841 0.000774882)
(0.00118845 -0.00169783 0.000774882)
(0.00146522 -0.00146567 0.000774882)
(0.00169747 -0.00118897 0.000774882)
(0.00187814 -0.000876141 0.000774882)
(0.00200175 -0.000536695 0.000774882)
(0.00206454 -0.000180941 0.000774881)
(0.00206459 0.00018031 0.000774882)
(0.00200191 0.000536083 0.000774882)
(0.00187841 0.000875568 0.000774882)
(0.00169783 0.00118845 0.000774882)
(0.00146567 0.00146522 0.000774882)
(0.00118897 0.00169747 0.000774882)
(0.000876141 0.00187814 0.000774882)
(0.000536695 0.00200175 0.000774882)
(0.000180941 0.00206454 0.000774881)
(-0.00018031 0.00206459 0.000774882)
(-0.000536083 0.00200191 0.000774882)
(-0.000875568 0.00187841 0.000774882)
(-0.00118845 0.00169783 0.000774882)
(-0.00146522 0.00146567 0.000774882)
(-0.00169747 0.00118897 0.000774882)
(-0.00187814 0.000876141 0.000774882)
(-0.00200175 0.000536695 0.000774882)
(-0.00206454 0.000180941 0.000774881)
(-0.00206459 -0.00018031 0.000774882)
(-0.00200191 -0.000536083 0.000774882)
(-0.00187841 -0.000875568 0.000774882)
(-0.00169783 -0.00118845 0.000774882)
(-0.00146567 -0.00146522 0.000774882)
(-0.00118897 -0.00169747 0.000774882)
(-0.000876141 -0.00187814 0.000774882)
(-0.000536695 -0.00200175 0.000774882)
(-0.000180941 -0.00206454 0.000774881)
(0.00018031 -0.00206459 0.000774882)
(0.000426853 -0.00196281 0.000807837)
(0.000761208 -0.00185887 0.000807837)
(0.00107243 -0.00169845 0.000807837)
(0.00135107 -0.00148642 0.000807837)
(0.00158866 -0.00122923 0.000807837)
(0.00177798 -0.000934683 0.000807837)
(0.00191327 -0.000611741 0.000807837)
(0.00199043 -0.000270211 0.000807837)
(0.00200712 7.95295e-05 0.000807837)
(0.00196281 0.000426853 0.000807837)
(0.00185887 0.000761208 0.000807837)
(0.00169845 0.00107243 0.000807837)
(0.00148642 0.00135107 0.000807837)
(0.00122923 0.00158866 0.000807837)
(0.000934683 0.00177798 0.000807837)
(0.000611741 0.00191327 0.000807837)
(0.000270211 0.00199043 0.000807837)
(-7.95295e-05 0.00200712 0.000807837)
(-0.000426853 0.00196281 0.000807837)
(-0.000761208 0.00185887 0.000807837)
(-0.00107243 0.00169845 0.000807837)
(-0.00135107 0.00148642 0.000807837)
(-0.00158866 0.00122923 0.000807837)
(-0.00177798 0.000934683 0.000807837)
(-0.00191327 0.000611741 0.000807837)
(-0.00199043 0.000270211 0.000807837)
(-0.00200712 -7.95295e-05 0.000807837)
(-0.00196281 -0.000426853 0.000807837)
(-0.00185887 -0.000761208 0.000807837)
(-0.00169845 -0.00107243 0.000807837)
(-0.00148642 -0.00135107 0.000807837)
(-0.00122923 -0.00158866 0.000807837)
(-0.000934683 -0.00177798 0.000807837)
(-0.000611741 -0.00191327 0.000807837)
(-0.000270211 -0.00199043 0.000807837)
(7.95295e-05 -0.00200712 0.000807837)
(0.000307129 -0.00191964 0.000834252)
(0.000635806 -0.00183715 0.000834252)
(0.000945164 -0.00169883 0.000834252)
(0.0012258 -0.00150889 0.000834252)
(0.0014692 -0.00127311 0.000834252)
(0.00166795 -0.000998648 0.000834252)
(0.00181602 -0.00069384 0.000834252)
(0.00190892 -0.000367949 0.000834252)
(0.00194381 -3.08794e-05 0.000834252)
(0.00191964 0.000307129 0.000834252)
(0.00183715 0.000635806 0.000834252)
(0.00169883 0.000945164 0.000834252)
(0.00150889 0.0012258 0.000834252)
(0.00127311 0.0014692 0.000834252)
(0.000998648 0.00166795 0.000834252)
(0.00069384 0.00181602 0.000834252)
(0.000367949 0.00190892 0.000834252)
(3.08794e-05 0.00194381 0.000834252)
(-0.000307129 0.00191964 0.000834252)
(-0.000635806 0.00183715 0.000834252)
(-0.000945164 0.00169883 0.000834252)
(-0.0012258 0.00150889 0.000834252)
(-0.0014692 0.00127311 0.000834252)
(-0.00166795 0.000998648 0.000834252)
(-0.00181602 0.00069384 0.000834252)
(-0.00190892 0.000367949 0.000834252)
(-0.00194381 3.08794e-05 0.000834252)
(-0.00191964 -0.000307129 0.000834252)
(-0.00183715 -0.000635806 0.000834252)
(-0.00169883 -0.000945164 0.000834252)
(-0.00150889 -0.0012258 0.000834252)
(-0.00127311 -0.0014692 0.000834252)
(-0.000998648 -0.00166795 0.000834252)
(-0.00069384 -0.00181602 0.000834252)
(-0.000367949 -0.00190892 0.000834252)
(-3.08794e-05 -0.00194381 0.000834252)
(0.000544304 -0.00238517 0.00104587)
(0.000950215 -0.00225442 0.00104587)
(0.00132726 -0.00205517 0.00104587)
(0.00166397 -0.00179347 0.00104587)
(0.00195012 -0.00147728 0.00104587)
(0.00217702 -0.0011162 0.00104587)
(0.00233777 -0.000721206 0.00104587)
(0.00242749 -0.000304299 0.00104587)
(0.00244345 0.000121853 0.00104587)
(0.00238517 0.000544304 0.00104587)
(0.00225442 0.000950215 0.00104587)
(0.00205517 0.00132726 0.00104587)
(0.00179347 0.00166397 0.00104587)
(0.00147728 0.00195012 0.00104587)
(0.0011162 0.00217702 0.00104587)
(0.000721206 0.00233777 0.00104587)
(0.000304299 0.00242749 0.00104587)
(-0.000121853 0.00244345 0.00104587)
(-0.000544304 0.00238517 0.00104587)
(-0.000950215 0.00225442 0.00104587)
(-0.00132726 0.00205517 0.00104587)
(-0.00166397 0.00179347 0.00104587)
(-0.00195012 0.00147728 0.00104587)
(-0.00217702 0.0011162 0.00104587)
(-0.00233777 0.000721206 0.00104587)
(-0.00242749 0.000304299 0.00104587)
(-0.00244345 -0.000121853 0.00104587)
(-0.00238517 -0.000544304 0.00104587)
(-0.00225442 -0.000950215 0.00104587)
(-0.00205517 -0.00132726 0.00104587)
(-0.00179347 -0.00166397 0.00104587)
(-0.00147728 -0.00195012 0.00104587)
(-0.0011162 -0.00217702 0.00104587)
(-0.000721206 -0.00233777 0.00104587)
(-0.000304299 -0.00242749 0.00104587)
(0.000121853 -0.00244345 0.00104587)
(0.000428501 -0.00230501 0.00107081)
(0.000822253 -0.00219559 0.00107081)
(0.00119102 -0.00201945 0.00107081)
(0.0015236 -0.00178195 0.00107081)
(0.00180988 -0.00149031 0.00107081)
(0.00204118 -0.00115338 0.00107081)
(0.00221045 -0.000781414 0.00107081)
(0.00231256 -0.000385702 0.00107081)
(0.0023444 2.173e-05 0.00107081)
(0.00230501 0.000428501 0.00107081)
(0.00219559 0.000822253 0.00107081)
(0.00201945 0.00119102 0.00107081)
(0.00178195 0.0015236 0.00107081)
(0.00149031 0.00180988 0.00107081)
(0.00115338 0.00204118 0.00107081)
(0.000781414 0.00221045 0.00107081)
(0.000385702 0.00231256 0.00107081)
(-2.173e-05 0.0023444 0.00107081)
(-0.000428501 0.00230501 0.00107081)
(-0.000822253 0.00219559 0.00107081)
(-0.00119102 0.00201945 0.00107081)
(-0.0015236 0.00178195 0.00107081)
(-0.00180988 0.00149031 0.00107081)
(-0.00204118 0.00115338 0.00107081)
(-0.00221045 0.000781414 0.00107081)
(-0.00231256 0.000385702 0.00107081)
(-0.0023444 -2.173e-05 0.00107081)
(-0.00230501 -0.000428501 0.00107081)
(-0.00219559 -0.000822253 0.00107081)
(-0.00201945 -0.00119102 0.00107081)
(-0.00178195 -0.0015236 0.00107081)
(-0.00149031 -0.00180988 0.00107081)
(-0.00115338 -0.00204118 0.00107081)
(-0.000781414 -0.00221045 0.00107081)
(-0.000385702 -0.00231256 0.00107081)
(2.173e-05 -0.0023444 0.00107081)
(0.000304404 -0.00222178 0.00108898)
(0.000685587 -0.00213516 0.00108898)
(0.00104594 -0.00198367 0.00108898)
(0.00137451 -0.00177191 0.00108898)
(0.00166132 -0.00150631 0.00108898)
(0.00189765 -0.00119494 0.00108898)
(0.00207632 -0.000847267 0.00108898)
(0.0021919 -0.000473847 0.00108898)
(0.00224088 -8.60282e-05 0.00108898)
(0.00222178 0.000304404 0.00108898)
(0.00213516 0.000685587 0.00108898)
(0.00198367 0.00104594 0.00108898)
(0.00177191 0.00137451 0.00108898)
(0.00150631 0.00166132 0.00108898)
(0.00119494 0.00189765 0.00108898)
(0.000847267 0.00207632 0.00108898)
(0.000473847 0.0021919 0.00108898)
(8.60282e-05 0.00224088 0.00108898)
(-0.000304404 0.00222178 0.00108898)
(-0.000685587 0.00213516 0.00108898)
(-0.00104594 0.00198367 0.00108898)
(-0.00137451 0.00177191 0.00108898)
(-0.00166132 0.00150631 0.00108898)
(-0.00189765 0.00119494 0.00108898)
(-0.00207632 0.000847267 0.00108898)
(-0.0021919 0.000473847 0.00108898)
(-0.00224088 8.60282e-05 0.00108898)
(-0.00222178 -0.000304404 0.00108898)
(-0.00213516 -0.000685587 0.00108898)
(-0.00198367 -0.00104594 0.00108898)
(-0.00177191 -0.00137451 0.00108898)
(-0.00150631 -0.00166132 0.00108898)
(-0.00119494 -0.00189765 0.00108898)
(-0.000847267 -0.00207632 0.00108898)
(-0.000473847 -0.0021919 0.00108898)
(-8.60282e-05 -0.00224088 0.00108898)
(0.00052052 -0.00271496 0.00133985)
(0.000984061 -0.00258333 0.00133985)
(0.0014177 -0.0023732 0.00133985)
(0.00180826 -0.00209096 0.00133985)
(0.00214388 -0.0017452 0.00133985)
(0.00241436 -0.0013464 0.00133985)
(0.00261149 -0.000906696 0.00133985)
(0.00272926 -0.000439441 0.00133985)
(0.0027641 4.11653e-05 0.00133985)
(0.00271496 0.00052052 0.00133985)
(0.00258333 0.000984061 0.00133985)
(0.0023732 0.0014177 0.00133985)
(0.00209096 0.00180826 0.00133985)
(0.0017452 0.00214388 0.00133985)
(0.0013464 0.00241436 0.00133985)
(0.000906696 0.00261149 0.00133985)
(0.000439441 0.00272926 0.00133985)
(-4.11653e-05 0.0027641 0.00133985)
(-0.00052052 0.00271496 0.00133985)
(-0.000984061 0.00258333 0.00133985)
(-0.0014177 0.0023732 0.00133985)
(-0.00180826 0.00209096 0.00133985)
(-0.00214388 0.0017452 0.00133985)
(-0.00241436 0.0013464 0.00133985)
(-0.00261149 0.000906696 0.00133985)
(-0.00272926 0.000439441 0.00133985)
(-0.0027641 -4.11653e-05 0.00133985)
(-0.00271496 -0.00052052 0.00133985)
(-0.00258333 -0.000984061 0.00133985)
(-0.0023732 -0.0014177 0.00133985)
(-0.00209096 -0.00180826 0.00133985)
(-0.0017452 -0.00214388 0.00133985)
(-0.0013464 -0.00241436 0.00133985)
(-0.000906696 -0.00261149 0.00133985)
(-0.000439441 -0.00272926 0.00133985)
(4.11653e-05 -0.0027641 0.00133985)
(0.000401338 -0.00258665 0.00135195)
(0.000844408 -0.00247766 0.00135195)
(0.00126182 -0.00229339 0.00135195)
(0.00164089 -0.00203943 0.00135195)
(0.00197011 -0.00172351 0.00135195)
(0.00223946 -0.00135522 0.00135195)
(0.00244077 -0.000945753 0.00135195)
(0.00256792 -0.00050755 0.00135195)
(0.00261704 -5.39246e-05 0.00135195)
(0.00258665 0.000401338 0.00135195)
(0.00247766 0.000844408 0.00135195)
(0.00229339 0.00126182 0.00135195)
(0.00203943 0.00164089 0.00135195)
(0.00172351 0.00197011 0.00135195)
(0.00135522 0.00223946 0.00135195)
(0.000945753 0.00244077 0.00135195)
(0.00050755 0.00256792 0.00135195)
(5.39246e-05 0.00261704 0.00135195)
(-0.000401338 0.00258665 0.00135195)
(-0.000844408 0.00247766 0.00135195)
(-0.00126182 0.00229339 0.00135195)
(-0.00164089 0.00203943 0.00135195)
(-0.00197011 0.00172351 0.00135195)
(-0.00223946 0.00135522 0.00135195)
(-0.00244077 0.000945753 0.00135195)
(-0.00256792 0.00050755 0.00135195)
(-0.00261704 5.39246e-05 0.00135195)
(-0.00258665 -0.000401338 0.00135195)
(-0.00247766 -0.000844408 0.00135195)
(-0.00229339 -0.00126182 0.00135195)
(-0.00203943 -0.00164089 0.00135195)
(-0.00172351 -0.00197011 0.00135195)
(-0.00135522 -0.00223946 0.00135195)
(-0.000945753 -0.00244077 0.00135195)
(-0.00050755 -0.00256792 0.00135195)
(-5.39246e-05 -0.00261704 0.00135195)
(0.000276338 -0.00245688 0.00135697)
(0.000698773 -0.00237157 0.00135697)
(0.00109998 -0.0022142 0.00135697)
(0.00146776 -0.00198955 0.00135697)
(0.00179094 -0.00170445 0.00135697)
(0.00205971 -0.00136757 0.00135697)
(0.00226589 -0.000989127 0.00135697)
(0.00240323 -0.000580632 0.00135697)
(0.00246754 -0.000154495 0.00135697)
(0.00245688 0.000276338 0.00135697)
(0.00237157 0.000698773 0.00135697)
(0.0022142 0.00109998 0.00135697)
(0.00198955 0.00146776 0.00135697)
(0.00170445 0.00179094 0.00135697)
(0.00136757 0.00205971 0.00135697)
(0.000989127 0.00226589 0.00135697)
(0.000580632 0.00240323 0.00135697)
(0.000154495 0.00246754 0.00135697)
(-0.000276338 0.00245688 0.00135697)
(-0.000698773 0.00237157 0.00135697)
(-0.00109998 0.0022142 0.00135697)
(-0.00146776 0.00198955 0.00135697)
(-0.00179094 0.00170445 0.00135697)
(-0.00205971 0.00136757 0.00135697)
(-0.00226589 0.000989127 0.00135697)
(-0.00240323 0.000580632 0.00135697)
(-0.00246754 0.000154495 0.00135697)
(-0.00245688 -0.000276338 0.00135697)
(-0.00237157 -0.000698773 0.00135697)
(-0.0022142 -0.00109998 0.00135697)
(-0.00198955 -0.00146776 0.00135697)
(-0.00170445 -0.00179094 0.00135697)
(-0.00136757 -0.00205971 0.00135697)
(-0.000989127 -0.00226589 0.00135697)
(-0.000580632 -0.00240323 0.00135697)
(-0.000154495 -0.00246754 0.00135697)
(0.000474414 -0.00297552 0.00165767)
(0.0009839 -0.00284793 0.00165767)
(0.00146349 -0.00263381 0.00165767)
(0.00189861 -0.00233967 0.00165767)
(0.00227605 -0.00197443 0.00165767)
(0.00258433 -0.0015492 0.00165767)
(0.00281408 -0.00107691 0.00165767)
(0.00295833 -0.000571884 0.00165767)
(0.0030127 -4.94861e-05 0.00165767)
(0.00297552 0.000474414 0.00165767)
(0.00284793 0.0009839 0.00165767)
(0.00263381 0.00146349 0.00165767)
(0.00233967 0.00189861 0.00165767)
(0.00197443 0.00227605 0.00165767)
(0.0015492 0.00258433 0.00165767)
(0.00107691 0.00281408 0.00165767)
(0.000571884 0.00295833 0.00165767)
(4.94861e-05 0.0030127 0.00165767)