/*--------------------------------*- C++ -*----------------------------------*\
| =========                 |                                                 |
| \\      /  F ield         | OpenFOAM: The Open Source CFD Toolbox           |
|  \\    /   O peration     | Version:  2312                                  |
|   \\  /    A nd           | Website:  www.openfoam.com                      |
|    \\/     M anipulation  |                                                 |
\*---------------------------------------------------------------------------*/
FoamFile
{
    version     2.0;
    format      ascii;
    arch        "LSB;label=32;scalar=64";
    class       volVectorField;
    location    "0.3";
    object      D_0;
}
// * * * * * * * * * * * * * * * * * * * * * * * * * * * * * * * * * * * * * //

dimensions      [0 1 0 0 0 0 0];

internalField   nonuniform List<vector> 
1620
(
(0.000114982 -0.00022383 3.91545e-05)
(0.000152103 -0.000200463 3.91546e-05)
(0.000184602 -0.000171006 3.91547e-05)
(0.000211493 -0.000136352 3.91547e-05)
(0.000231957 -9.75551e-05 3.91547e-05)
(0.000245373 -5.57941e-05 3.91547e-05)
(0.000251334 -1.23379e-05 3.91545e-05)
(0.000249658 3.1493e-05 3.91544e-05)
(0.000240396 7.43672e-05 3.91545e-05)
(0.00022383 0.000114982 3.91545e-05)
(0.000200463 0.000152103 3.91546e-05)
(0.000171006 0.000184602 3.91547e-05)
(0.000136352 0.000211493 3.91547e-05)
(9.75551e-05 0.000231957 3.91547e-05)
(5.57941e-05 0.000245373 3.91547e-05)
(1.23379e-05 0.000251334 3.91545e-05)
(-3.1493e-05 0.000249658 3.91544e-05)
(-7.43672e-05 0.000240396 3.91545e-05)
(-0.000114982 0.00022383 3.91545e-05)
(-0.000152103 0.000200463 3.91546e-05)
(-0.000184602 0.000171006 3.91547e-05)
(-0.000211493 0.000136352 3.91547e-05)
(-0.000231957 9.75551e-05 3.91547e-05)
(-0.000245373 5.57941e-05 3.91547e-05)
(-0.000251334 1.23379e-05 3.91545e-05)
(-0.000249658 -3.1493e-05 3.91544e-05)
(-0.000240396 -7.43672e-05 3.91545e-05)
(-0.00022383 -0.000114982 3.91545e-05)
(-0.000200463 -0.000152103 3.91546e-05)
(-0.000171006 -0.000184602 3.91547e-05)
(-0.000136352 -0.000211493 3.91547e-05)
(-9.75551e-05 -0.000231957 3.91547e-05)
(-5.57941e-05 -0.000245373 3.91547e-05)
(-1.23379e-05 -0.000251334 3.91545e-05)
(3.1493e-05 -0.000249658 3.91544e-05)
(7.43672e-05 -0.000240396 3.91545e-05)
(7.58431e-05 -0.000230947 4.39908e-05)
(0.000114794 -0.000214268 4.39909e-05)
(0.000150258 -0.000191079 4.3991e-05)
(0.000181155 -0.000162084 4.3991e-05)
(0.000206549 -0.000128164 4.39911e-05)
(0.000225666 -9.03502e-05 4.3991e-05)
(0.000237927 -4.97911e-05 4.39909e-05)
(0.000242959 -7.7192e-06 4.39909e-05)
(0.000240608 3.45875e-05 4.39909e-05)
(0.000230947 7.58431e-05 4.39908e-05)
(0.000214268 0.000114794 4.39909e-05)
(0.000191079 0.000150258 4.3991e-05)
(0.000162084 0.000181155 4.3991e-05)
(0.000128164 0.000206549 4.39911e-05)
(9.03502e-05 0.000225666 4.3991e-05)
(4.97911e-05 0.000237927 4.39909e-05)
(7.7192e-06 0.000242959 4.39909e-05)
(-3.45875e-05 0.000240608 4.39909e-05)
(-7.58431e-05 0.000230947 4.39908e-05)
(-0.000114794 0.000214268 4.39909e-05)
(-0.000150258 0.000191079 4.3991e-05)
(-0.000181155 0.000162084 4.3991e-05)
(-0.000206549 0.000128164 4.39911e-05)
(-0.000225666 9.03502e-05 4.3991e-05)
(-0.000237927 4.97911e-05 4.39909e-05)
(-0.000242959 7.7192e-06 4.39909e-05)
(-0.000240608 -3.45875e-05 4.39909e-05)
(-0.000230947 -7.58431e-05 4.39908e-05)
(-0.000214268 -0.000114794 4.39909e-05)
(-0.000191079 -0.000150258 4.3991e-05)
(-0.000162084 -0.000181155 4.3991e-05)
(-0.000128164 -0.000206549 4.39911e-05)
(-9.03502e-05 -0.000225666 4.3991e-05)
(-4.97911e-05 -0.000237927 4.39909e-05)
(-7.7192e-06 -0.000242959 4.39909e-05)
(3.45875e-05 -0.000240608 4.39909e-05)
(2.32688e-05 -0.000237814 4.50938e-05)
(6.42112e-05 -0.00023016 4.50938e-05)
(0.000103203 -0.000215514 4.50939e-05)
(0.000139058 -0.000194318 4.50939e-05)
(0.000170689 -0.000167219 4.5094e-05)
(0.000197133 -0.000135039 4.50938e-05)
(0.000217587 -9.87554e-05 4.50939e-05)
(0.00023143 -5.94715e-05 4.50939e-05)
(0.000238241 -1.83805e-05 4.50938e-05)
(0.000237814 2.32688e-05 4.50938e-05)
(0.00023016 6.42112e-05 4.50938e-05)
(0.000215514 0.000103203 4.50939e-05)
(0.000194318 0.000139058 4.50939e-05)
(0.000167219 0.000170689 4.5094e-05)
(0.000135039 0.000197133 4.50938e-05)
(9.87554e-05 0.000217587 4.50939e-05)
(5.94715e-05 0.00023143 4.50939e-05)
(1.83805e-05 0.000238241 4.50938e-05)
(-2.32688e-05 0.000237814 4.50938e-05)
(-6.42112e-05 0.00023016 4.50938e-05)
(-0.000103203 0.000215514 4.50939e-05)
(-0.000139058 0.000194318 4.50939e-05)
(-0.000170689 0.000167219 4.5094e-05)
(-0.000197133 0.000135039 4.50938e-05)
(-0.000217587 9.87554e-05 4.50939e-05)
(-0.00023143 5.94715e-05 4.50939e-05)
(-0.000238241 1.83805e-05 4.50938e-05)
(-0.000237814 -2.32688e-05 4.50938e-05)
(-0.00023016 -6.42112e-05 4.50938e-05)
(-0.000215514 -0.000103203 4.50939e-05)
(-0.000194318 -0.000139058 4.50939e-05)
(-0.000167219 -0.000170689 4.5094e-05)
(-0.000135039 -0.000197133 4.50938e-05)
(-9.87554e-05 -0.000217587 4.50939e-05)
(-5.94715e-05 -0.00023143 4.50939e-05)
(-1.83805e-05 -0.000238241 4.50938e-05)
(0.000264711 -0.000674431 0.00014345)
(0.000377804 -0.000618219 0.00014345)
(0.000479417 -0.000543222 0.00014345)
(0.000566463 -0.000451718 0.00014345)
(0.000636297 -0.000346491 0.000143451)
(0.000686798 -0.000230735 0.00014345)
(0.000716431 -0.000107968 0.00014345)
(0.000724295 1.80785e-05 0.00014345)
(0.000710152 0.000143576 0.00014345)
(0.000674431 0.000264711 0.00014345)
(0.000618219 0.000377804 0.00014345)
(0.000543222 0.000479417 0.00014345)
(0.000451718 0.000566463 0.00014345)
(0.000346491 0.000636297 0.000143451)
(0.000230735 0.000686798 0.00014345)
(0.000107968 0.000716431 0.00014345)
(-1.80785e-05 0.000724295 0.00014345)
(-0.000143576 0.000710152 0.00014345)
(-0.000264711 0.000674431 0.00014345)
(-0.000377804 0.000618219 0.00014345)
(-0.000479417 0.000543222 0.00014345)
(-0.000566463 0.000451718 0.00014345)
(-0.000636297 0.000346491 0.000143451)
(-0.000686798 0.000230735 0.00014345)
(-0.000716431 0.000107968 0.00014345)
(-0.000724295 -1.80785e-05 0.00014345)
(-0.000710152 -0.000143576 0.00014345)
(-0.000674431 -0.000264711 0.00014345)
(-0.000618219 -0.000377804 0.00014345)
(-0.000543222 -0.000479417 0.00014345)
(-0.000451718 -0.000566463 0.00014345)
(-0.000346491 -0.000636297 0.000143451)
(-0.000230735 -0.000686798 0.00014345)
(-0.000107968 -0.000716431 0.00014345)
(1.80785e-05 -0.000724295 0.00014345)
(0.000143576 -0.000710152 0.00014345)
(0.000206601 -0.000686811 0.000165038)
(0.000322726 -0.000640501 0.000165038)
(0.000429045 -0.00057473 0.000165038)
(0.000522328 -0.000491496 0.000165039)
(0.00059974 -0.000393327 0.000165039)
(0.000658929 -0.000283208 0.000165039)
(0.000698097 -0.000164484 0.000165038)
(0.000716053 -4.07617e-05 0.000165038)
(0.000712253 8.41987e-05 0.000165038)
(0.000686811 0.000206601 0.000165038)
(0.000640501 0.000322726 0.000165038)
(0.00057473 0.000429045 0.000165038)
(0.000491496 0.000522328 0.000165039)
(0.000393327 0.00059974 0.000165039)
(0.000283208 0.000658929 0.000165039)
(0.000164484 0.000698097 0.000165038)
(4.07617e-05 0.000716053 0.000165038)
(-8.41987e-05 0.000712253 0.000165038)
(-0.000206601 0.000686811 0.000165038)
(-0.000322726 0.000640501 0.000165038)
(-0.000429045 0.00057473 0.000165038)
(-0.000522328 0.000491496 0.000165039)
(-0.00059974 0.000393327 0.000165039)
(-0.000658929 0.000283208 0.000165039)
(-0.000698097 0.000164484 0.000165038)
(-0.000716053 4.07617e-05 0.000165038)
(-0.000712253 -8.41987e-05 0.000165038)
(-0.000686811 -0.000206601 0.000165038)
(-0.000640501 -0.000322726 0.000165038)
(-0.00057473 -0.000429045 0.000165038)
(-0.000491496 -0.000522328 0.000165039)
(-0.000393327 -0.00059974 0.000165039)
(-0.000283208 -0.000658929 0.000165039)
(-0.000164484 -0.000698097 0.000165038)
(-4.07617e-05 -0.000716053 0.000165038)
(8.41987e-05 -0.000712253 0.000165038)
(0.000133059 -0.000697517 0.000181277)
(0.000252159 -0.000663815 0.000181277)
(0.000363599 -0.000609943 0.000181277)
(0.00046399 -0.000537538 0.000181277)
(0.000550284 -0.0004488 0.000181277)
(0.000619857 -0.000346426 0.000181277)
(0.000670597 -0.000233526 0.000181277)
(0.00070096 -0.000113531 0.000181277)
(0.000710026 9.91433e-06 0.000181277)
(0.000697517 0.000133059 0.000181277)
(0.000663815 0.000252159 0.000181277)
(0.000609943 0.000363599 0.000181277)
(0.000537538 0.00046399 0.000181277)
(0.0004488 0.000550284 0.000181277)
(0.000346426 0.000619857 0.000181277)
(0.000233526 0.000670597 0.000181277)
(0.000113531 0.00070096 0.000181277)
(-9.91433e-06 0.000710026 0.000181277)
(-0.000133059 0.000697517 0.000181277)
(-0.000252159 0.000663815 0.000181277)
(-0.000363599 0.000609943 0.000181277)
(-0.00046399 0.000537538 0.000181277)
(-0.000550284 0.0004488 0.000181277)
(-0.000619857 0.000346426 0.000181277)
(-0.000670597 0.000233526 0.000181277)
(-0.00070096 0.000113531 0.000181277)
(-0.000710026 -9.91433e-06 0.000181277)
(-0.000697517 -0.000133059 0.000181277)
(-0.000663815 -0.000252159 0.000181277)
(-0.000609943 -0.000363599 0.000181277)
(-0.000537538 -0.00046399 0.000181277)
(-0.0004488 -0.000550284 0.000181277)
(-0.000346426 -0.000619857 0.000181277)
(-0.000233526 -0.000670597 0.000181277)
(-0.000113531 -0.00070096 0.000181277)
(9.91433e-06 -0.000710026 0.000181277)
(0.000393055 -0.00112247 0.000310294)
(0.000581998 -0.00103716 0.000310295)
(0.000753257 -0.00092034 0.000310295)
(0.000901629 -0.000775556 0.000310295)
(0.0010226 -0.000607208 0.000310295)
(0.00111251 -0.00042041 0.000310295)
(0.00116861 -0.000220837 0.000310294)
(0.00118921 -1.45549e-05 0.000310294)
(0.00117367 0.00019217 0.000310294)
(0.00112247 0.000393055 0.000310294)
(0.00103716 0.000581998 0.000310295)
(0.00092034 0.000753257 0.000310295)
(0.000775556 0.000901629 0.000310295)
(0.000607208 0.0010226 0.000310295)
(0.00042041 0.00111251 0.000310295)
(0.000220837 0.00116861 0.000310294)
(1.45549e-05 0.00118921 0.000310294)
(-0.00019217 0.00117367 0.000310294)
(-0.000393055 0.00112247 0.000310294)
(-0.000581998 0.00103716 0.000310295)
(-0.000753257 0.00092034 0.000310295)
(-0.000901629 0.000775556 0.000310295)
(-0.0010226 0.000607208 0.000310295)
(-0.00111251 0.00042041 0.000310295)
(-0.00116861 0.000220837 0.000310294)
(-0.00118921 1.45549e-05 0.000310294)
(-0.00117367 -0.00019217 0.000310294)
(-0.00112247 -0.000393055 0.000310294)
(-0.00103716 -0.000581998 0.000310295)
(-0.00092034 -0.000753257 0.000310295)
(-0.000775556 -0.000901629 0.000310295)
(-0.000607208 -0.0010226 0.000310295)
(-0.00042041 -0.00111251 0.000310295)
(-0.000220837 -0.00116861 0.000310294)
(-1.45549e-05 -0.00118921 0.000310294)
(0.00019217 -0.00117367 0.000310294)
(0.000313168 -0.00112963 0.000341505)
(0.000504569 -0.00105809 0.000341505)
(0.000680639 -0.000954397 0.000341505)
(0.000836028 -0.000821706 0.000341505)
(0.000966015 -0.000664048 0.000341505)
(0.00106665 -0.000486212 0.000341505)
(0.00113487 -0.000293604 0.000341505)
(0.00116862 -9.20749e-05 0.000341505)
(0.00116685 0.000112252 0.000341505)
(0.00112963 0.000313168 0.000341505)
(0.00105809 0.000504569 0.000341505)
(0.000954397 0.000680639 0.000341505)
(0.000821706 0.000836028 0.000341505)
(0.000664048 0.000966015 0.000341505)
(0.000486212 0.00106665 0.000341505)
(0.000293604 0.00113487 0.000341505)
(9.20749e-05 0.00116862 0.000341505)
(-0.000112252 0.00116685 0.000341505)
(-0.000313168 0.00112963 0.000341505)
(-0.000504569 0.00105809 0.000341505)
(-0.000680639 0.000954397 0.000341505)
(-0.000836028 0.000821706 0.000341505)
(-0.000966015 0.000664048 0.000341505)
(-0.00106665 0.000486212 0.000341505)
(-0.00113487 0.000293604 0.000341505)
(-0.00116862 9.20749e-05 0.000341505)
(-0.00116685 -0.000112252 0.000341505)
(-0.00112963 -0.000313168 0.000341505)
(-0.00105809 -0.000504569 0.000341505)
(-0.000954397 -0.000680639 0.000341505)
(-0.000821706 -0.000836028 0.000341505)
(-0.000664048 -0.000966015 0.000341505)
(-0.000486212 -0.00106665 0.000341505)
(-0.000293604 -0.00113487 0.000341505)
(-9.20749e-05 -0.00116862 0.000341505)
(0.000112252 -0.00116685 0.000341505)
(0.00021926 -0.00113326 0.000366973)
(0.000412717 -0.00107797 0.000366973)
(0.000593635 -0.000989926 0.000366973)
(0.000756515 -0.000871803 0.000366974)
(0.000896409 -0.000727191 0.000366974)
(0.00100907 -0.000560483 0.000366974)
(0.00109106 -0.000376746 0.000366973)
(0.00113991 -0.000181562 0.000366973)
(0.00115412 1.91396e-05 0.000366973)
(0.00113326 0.00021926 0.000366973)
(0.00107797 0.000412717 0.000366973)
(0.000989926 0.000593635 0.000366973)
(0.000871803 0.000756515 0.000366974)
(0.000727191 0.000896409 0.000366974)
(0.000560483 0.00100907 0.000366974)
(0.000376746 0.00109106 0.000366973)
(0.000181562 0.00113991 0.000366973)
(-1.91396e-05 0.00115412 0.000366973)
(-0.00021926 0.00113326 0.000366973)
(-0.000412717 0.00107797 0.000366973)
(-0.000593635 0.000989926 0.000366973)
(-0.000756515 0.000871803 0.000366974)
(-0.000896409 0.000727191 0.000366974)
(-0.00100907 0.000560483 0.000366974)
(-0.00109106 0.000376746 0.000366973)
(-0.00113991 0.000181562 0.000366973)
(-0.00115412 -1.91396e-05 0.000366973)
(-0.00113326 -0.00021926 0.000366973)
(-0.00107797 -0.000412717 0.000366973)
(-0.000989926 -0.000593635 0.000366973)
(-0.000871803 -0.000756515 0.000366974)
(-0.000727191 -0.000896409 0.000366974)
(-0.000560483 -0.00100907 0.000366974)
(-0.000376746 -0.00109106 0.000366973)
(-0.000181562 -0.00113991 0.000366973)
(1.91396e-05 -0.00115412 0.000366973)
(0.000482278 -0.0015604 0.000519931)
(0.000745912 -0.00145295 0.000519931)
(0.000986883 -0.00130135 0.000519931)
(0.00119787 -0.00111021 0.000519931)
(0.00137245 -0.000885336 0.000519931)
(0.00150534 -0.000633562 0.000519931)
(0.00159249 -0.000362537 0.000519931)
(0.00163125 -8.04963e-05 0.00051993)
(0.00162044 0.00020399 0.000519931)
(0.0015604 0.000482278 0.000519931)
(0.00145295 0.000745912 0.000519931)
(0.00130135 0.000986883 0.000519931)
(0.00111021 0.00119787 0.000519931)
(0.000885336 0.00137245 0.000519931)
(0.000633562 0.00150534 0.000519931)
(0.000362537 0.00159249 0.000519931)
(8.04963e-05 0.00163125 0.00051993)
(-0.00020399 0.00162044 0.000519931)
(-0.000482278 0.0015604 0.000519931)
(-0.000745912 0.00145295 0.000519931)
(-0.000986883 0.00130135 0.000519931)
(-0.00119787 0.00111021 0.000519931)
(-0.00137245 0.000885336 0.000519931)
(-0.00150534 0.000633562 0.000519931)
(-0.00159249 0.000362537 0.000519931)
(-0.00163125 8.04963e-05 0.00051993)
(-0.00162044 -0.00020399 0.000519931)
(-0.0015604 -0.000482278 0.000519931)
(-0.00145295 -0.000745912 0.000519931)
(-0.00130135 -0.000986883 0.000519931)
(-0.00111021 -0.00119787 0.000519931)
(-0.000885336 -0.00137245 0.000519931)
(-0.000633562 -0.00150534 0.000519931)
(-0.000362537 -0.00159249 0.000519931)
(-8.04963e-05 -0.00163125 0.00051993)
(0.00020399 -0.00162044 0.000519931)
(0.000386337 -0.00154873 0.000554103)
(0.000649401 -0.00145811 0.000554103)
(0.000892734 -0.00132319 0.000554103)
(0.00110894 -0.00114807 0.000554103)
(0.00129145 -0.000938061 0.000554103)
(0.00143473 -0.000699552 0.000554103)
(0.00153441 -0.000439786 0.000554103)
(0.00158746 -0.000166658 0.000554103)
(0.00159229 0.000111533 0.000554103)
(0.00154873 0.000386337 0.000554103)
(0.00145811 0.000649401 0.000554103)
(0.00132319 0.000892734 0.000554103)
(0.00114807 0.00110894 0.000554103)
(0.000938061 0.00129145 0.000554103)
(0.000699552 0.00143473 0.000554103)
(0.000439786 0.00153441 0.000554103)
(0.000166658 0.00158746 0.000554103)
(-0.000111533 0.00159229 0.000554103)
(-0.000386337 0.00154873 0.000554103)
(-0.000649401 0.00145811 0.000554103)
(-0.000892734 0.00132319 0.000554103)
(-0.00110894 0.00114807 0.000554103)
(-0.00129145 0.000938061 0.000554103)
(-0.00143473 0.000699552 0.000554103)
(-0.00153441 0.000439786 0.000554103)
(-0.00158746 0.000166658 0.000554103)
(-0.00159229 -0.000111533 0.000554103)
(-0.00154873 -0.000386337 0.000554103)
(-0.00145811 -0.000649401 0.000554103)
(-0.00132319 -0.000892734 0.000554103)
(-0.00114807 -0.00110894 0.000554103)
(-0.000938061 -0.00129145 0.000554103)
(-0.000699552 -0.00143473 0.000554103)
(-0.000439786 -0.00153441 0.000554103)
(-0.000166658 -0.00158746 0.000554103)
(0.000111533 -0.00159229 0.000554103)
(0.000278302 -0.00153289 0.000582233)
(0.000540258 -0.00146127 0.000582233)
(0.000785797 -0.00134526 0.000582233)
(0.00100746 -0.00118837 0.000582233)
(0.00119851 -0.00099537 0.000582233)
(0.00135315 -0.000772129 0.000582233)
(0.00146667 -0.000525427 0.000582233)
(0.00153563 -0.00026276 0.000582233)
(0.00155793 7.89096e-06 0.000582233)
(0.00153289 0.000278302 0.000582233)
(0.00146127 0.000540258 0.000582233)
(0.00134526 0.000785797 0.000582233)
(0.00118837 0.00100746 0.000582233)
(0.00099537 0.00119851 0.000582233)
(0.000772129 0.00135315 0.000582233)
(0.000525427 0.00146667 0.000582233)
(0.00026276 0.00153563 0.000582233)
(-7.89096e-06 0.00155793 0.000582233)
(-0.000278302 0.00153289 0.000582233)
(-0.000540258 0.00146127 0.000582233)
(-0.000785797 0.00134526 0.000582233)
(-0.00100746 0.00118837 0.000582233)
(-0.00119851 0.00099537 0.000582233)
(-0.00135315 0.000772129 0.000582233)
(-0.00146667 0.000525427 0.000582233)
(-0.00153563 0.00026276 0.000582233)
(-0.00155793 -7.89096e-06 0.000582233)
(-0.00153289 -0.000278302 0.000582233)
(-0.00146127 -0.000540258 0.000582233)
(-0.00134526 -0.000785797 0.000582233)
(-0.00118837 -0.00100746 0.000582233)
(-0.00099537 -0.00119851 0.000582233)
(-0.000772129 -0.00135315 0.000582233)
(-0.000525427 -0.00146667 0.000582233)
(-0.00026276 -0.00153563 0.000582233)
(7.89096e-06 -0.00155793 0.000582233)
(0.000529987 -0.00197568 0.000761638)
(0.000865008 -0.00185363 0.000761638)
(0.00117375 -0.00167527 0.000761638)
(0.00144682 -0.001446 0.000761638)
(0.00167594 -0.00117279 0.000761638)
(0.00185413 -0.000863949 0.000761637)
(0.00197598 -0.000528858 0.000761637)
(0.0020378 -0.000177698 0.000761637)
(0.0020377 0.000178862 0.000761638)
(0.00197568 0.000529987 0.000761638)
(0.00185363 0.000865008 0.000761638)
(0.00167527 0.00117375 0.000761638)
(0.001446 0.00144682 0.000761638)
(0.00117279 0.00167594 0.000761638)
(0.000863949 0.00185413 0.000761637)
(0.000528858 0.00197598 0.000761637)
(0.000177698 0.0020378 0.000761637)
(-0.000178862 0.0020377 0.000761638)
(-0.000529987 0.00197568 0.000761638)
(-0.000865008 0.00185363 0.000761638)
(-0.00117375 0.00167527 0.000761638)
(-0.00144682 0.001446 0.000761638)
(-0.00167594 0.00117279 0.000761638)
(-0.00185413 0.000863949 0.000761637)
(-0.00197598 0.000528858 0.000761637)
(-0.0020378 0.000177698 0.000761637)
(-0.0020377 -0.000178862 0.000761638)
(-0.00197568 -0.000529987 0.000761638)
(-0.00185363 -0.000865008 0.000761638)
(-0.00167527 -0.00117375 0.000761638)
(-0.001446 -0.00144682 0.000761638)
(-0.00117279 -0.00167594 0.000761638)
(-0.000863949 -0.00185413 0.000761637)
(-0.000528858 -0.00197598 0.000761637)
(-0.000177698 -0.0020378 0.000761637)
(0.000178862 -0.0020377 0.000761638)
(0.000423317 -0.00193293 0.000793053)
(0.000752537 -0.00183006 0.000793053)
(0.00105889 -0.00167158 0.000793053)
(0.00133307 -0.00146231 0.000793053)
(0.00156675 -0.00120861 0.000793053)
(0.00175282 -0.000918187 0.000793053)
(0.00188563 -0.000599864 0.000793053)
(0.00196115 -0.000263315 0.000793053)
(0.00197708 8.12348e-05 0.000793053)
(0.00193293 0.000423317 0.000793053)
(0.00183006 0.000752537 0.000793053)
(0.00167158 0.00105889 0.000793053)
(0.00146231 0.00133307 0.000793053)
(0.00120861 0.00156675 0.000793053)
(0.000918187 0.00175282 0.000793053)
(0.000599864 0.00188563 0.000793053)
(0.000263315 0.00196115 0.000793053)
(-8.12348e-05 0.00197708 0.000793053)
(-0.000423317 0.00193293 0.000793053)
(-0.000752537 0.00183006 0.000793053)
(-0.00105889 0.00167158 0.000793053)
(-0.00133307 0.00146231 0.000793053)
(-0.00156675 0.00120861 0.000793053)
(-0.00175282 0.000918187 0.000793053)
(-0.00188563 0.000599864 0.000793053)
(-0.00196115 0.000263315 0.000793053)
(-0.00197708 -8.12348e-05 0.000793053)
(-0.00193293 -0.000423317 0.000793053)
(-0.00183006 -0.000752537 0.000793053)
(-0.00167158 -0.00105889 0.000793053)
(-0.00146231 -0.00133307 0.000793053)
(-0.00120861 -0.00156675 0.000793053)
(-0.000918187 -0.00175282 0.000793053)
(-0.000599864 -0.00188563 0.000793053)
(-0.000263315 -0.00196115 0.000793053)
(8.12348e-05 -0.00197708 0.000793053)
(0.000306518 -0.00188631 0.000818219)
(0.000629415 -0.00180442 0.000818219)
(0.000933187 -0.00166771 0.000818219)
(0.00120861 -0.00148033 0.000818219)
(0.0014473 -0.00124797 0.000818219)
(0.00164202 -0.000977687 0.000818219)
(0.00178685 -0.0006777 0.000818219)
(0.00187738 -0.000357122 0.000818219)
(0.00191087 -2.56923e-05 0.000818219)
(0.00188631 0.000306518 0.000818219)
(0.00180442 0.000629415 0.000818219)
(0.00166771 0.000933187 0.000818219)
(0.00148033 0.00120861 0.000818219)
(0.00124797 0.0014473 0.000818219)
(0.000977687 0.00164202 0.000818219)
(0.0006777 0.00178685 0.000818219)
(0.000357122 0.00187738 0.000818219)
(2.56923e-05 0.00191087 0.000818219)
(-0.000306518 0.00188631 0.000818219)
(-0.000629415 0.00180442 0.000818219)
(-0.000933187 0.00166771 0.000818219)
(-0.00120861 0.00148033 0.000818219)
(-0.0014473 0.00124797 0.000818219)
(-0.00164202 0.000977687 0.000818219)
(-0.00178685 0.0006777 0.000818219)
(-0.00187738 0.000357122 0.000818219)
(-0.00191087 2.56923e-05 0.000818219)
(-0.00188631 -0.000306518 0.000818219)
(-0.00180442 -0.000629415 0.000818219)
(-0.00166771 -0.000933187 0.000818219)
(-0.00148033 -0.00120861 0.000818219)
(-0.00124797 -0.0014473 0.000818219)
(-0.000977687 -0.00164202 0.000818219)
(-0.0006777 -0.00178685 0.000818219)
(-0.000357122 -0.00187738 0.000818219)
(-2.56923e-05 -0.00191087 0.000818219)
(0.000539215 -0.00235368 0.00102854)
(0.000939735 -0.00222429 0.00102854)
(0.0013117 -0.00202731 0.00102854)
(0.00164381 -0.00176874 0.00102854)
(0.00192598 -0.00145642 0.00102854)
(0.00214962 -0.00109985 0.00102854)
(0.00230795 -0.000709865 0.00102854)
(0.00239616 -0.000298309 0.00102854)
(0.00241155 0.000122311 0.00102854)
(0.00235368 0.000539215 0.00102854)
(0.00222429 0.000939735 0.00102854)
(0.00202731 0.0013117 0.00102854)
(0.00176874 0.00164381 0.00102854)
(0.00145642 0.00192598 0.00102854)
(0.00109985 0.00214962 0.00102854)
(0.000709865 0.00230795 0.00102854)
(0.000298309 0.00239616 0.00102854)
(-0.000122311 0.00241155 0.00102854)
(-0.000539215 0.00235368 0.00102854)
(-0.000939735 0.00222429 0.00102854)
(-0.0013117 0.00202731 0.00102854)
(-0.00164381 0.00176874 0.00102854)
(-0.00192598 0.00145642 0.00102854)
(-0.00214962 0.00109985 0.00102854)
(-0.00230795 0.000709865 0.00102854)
(-0.00239616 0.000298309 0.00102854)
(-0.00241155 -0.000122311 0.00102854)
(-0.00235368 -0.000539215 0.00102854)
(-0.00222429 -0.000939735 0.00102854)
(-0.00202731 -0.0013117 0.00102854)
(-0.00176874 -0.00164381 0.00102854)
(-0.00145642 -0.00192598 0.00102854)
(-0.00109985 -0.00214962 0.00102854)
(-0.000709865 -0.00230795 0.00102854)
(-0.000298309 -0.00239616 0.00102854)
(0.000122311 -0.00241155 0.00102854)
(0.000426069 -0.00227032 0.00105221)
(0.000813835 -0.00216184 0.00105221)
(0.00117687 -0.00198768 0.00105221)
(0.00150415 -0.00175312 0.00105221)
(0.00178572 -0.0014653 0.00105221)
(0.00201304 -0.00113295 0.00105221)
(0.00217919 -0.000766174 0.00105221)
(0.00227913 -0.000376122 0.00105221)
(0.00230982 2.53591e-05 0.00105221)
(0.00227032 0.000426069 0.00105221)
(0.00216184 0.000813835 0.00105221)
(0.00198768 0.00117687 0.00105221)
(0.00175312 0.00150415 0.00105221)
(0.0014653 0.00178572 0.00105221)
(0.00113295 0.00201304 0.00105221)
(0.000766174 0.00217919 0.00105221)
(0.000376122 0.00227913 0.00105221)
(-2.53591e-05 0.00230982 0.00105221)
(-0.000426069 0.00227032 0.00105221)
(-0.000813835 0.00216184 0.00105221)
(-0.00117687 0.00198768 0.00105221)
(-0.00150415 0.00175312 0.00105221)
(-0.00178572 0.0014653 0.00105221)
(-0.00201304 0.00113295 0.00105221)
(-0.00217919 0.000766174 0.00105221)
(-0.00227913 0.000376122 0.00105221)
(-0.00230982 -2.53591e-05 0.00105221)
(-0.00227032 -0.000426069 0.00105221)
(-0.00216184 -0.000813835 0.00105221)
(-0.00198768 -0.00117687 0.00105221)
(-0.00175312 -0.00150415 0.00105221)
(-0.0014653 -0.00178572 0.00105221)
(-0.00113295 -0.00201304 0.00105221)
(-0.000766174 -0.00217919 0.00105221)
(-0.000376122 -0.00227913 0.00105221)
(2.53591e-05 -0.00230982 0.00105221)
(0.000304895 -0.00218403 0.00106941)
(0.000679516 -0.0020979 0.00106941)
(0.00103349 -0.00194804 0.00106941)
(0.00135606 -0.00173898 0.00106941)
(0.00163743 -0.00147708 0.00106941)
(0.00186905 -0.0011703 0.00106941)
(0.00204387 -0.000827968 0.00106941)
(0.0021566 -0.000460475 0.00106941)
(0.00220379 -7.89895e-05 0.00106941)
(0.00218403 0.000304895 0.00106941)
(0.0020979 0.000679516 0.00106941)
(0.00194804 0.00103349 0.00106941)
(0.00173898 0.00135606 0.00106941)
(0.00147708 0.00163743 0.00106941)
(0.0011703 0.00186905 0.00106941)
(0.000827968 0.00204387 0.00106941)
(0.000460475 0.0021566 0.00106941)
(7.89895e-05 0.00220379 0.00106941)
(-0.000304895 0.00218403 0.00106941)
(-0.000679516 0.0020979 0.00106941)
(-0.00103349 0.00194804 0.00106941)
(-0.00135606 0.00173898 0.00106941)
(-0.00163743 0.00147708 0.00106941)
(-0.00186905 0.0011703 0.00106941)
(-0.00204387 0.000827968 0.00106941)
(-0.0021566 0.000460475 0.00106941)
(-0.00220379 7.89895e-05 0.00106941)
(-0.00218403 -0.000304895 0.00106941)
(-0.0020979 -0.000679516 0.00106941)
(-0.00194804 -0.00103349 0.00106941)
(-0.00173898 -0.00135606 0.00106941)
(-0.00147708 -0.00163743 0.00106941)
(-0.0011703 -0.00186905 0.00106941)
(-0.000827968 -0.00204387 0.00106941)
(-0.000460475 -0.0021566 0.00106941)
(-7.89895e-05 -0.00220379 0.00106941)
(0.000516823 -0.00267928 0.00131831)
(0.000974224 -0.00254883 0.00131831)
(0.00140202 -0.00234094 0.00131831)
(0.00178722 -0.00206192 0.00131831)
(0.00211812 -0.00172024 0.00131831)
(0.00238466 -0.0013263 0.00131831)
(0.00257874 -0.00089206 0.00131831)
(0.00269447 -0.000430713 0.00131831)
(0.00272832 4.37193e-05 0.00131831)
(0.00267928 0.000516823 0.00131831)
(0.00254883 0.000974224 0.00131831)
(0.00234094 0.00140202 0.00131831)
(0.00206192 0.00178722 0.00131831)
(0.00172024 0.00211812 0.00131831)
(0.0013263 0.00238466 0.00131831)
(0.00089206 0.00257874 0.00131831)
(0.000430713 0.00269447 0.00131831)
(-4.37193e-05 0.00272832 0.00131831)
(-0.000516823 0.00267928 0.00131831)
(-0.000974224 0.00254883 0.00131831)
(-0.00140202 0.00234094 0.00131831)
(-0.00178722 0.00206192 0.00131831)
(-0.00211812 0.00172024 0.00131831)
(-0.00238466 0.0013263 0.00131831)
(-0.00257874 0.00089206 0.00131831)
(-0.00269447 0.000430713 0.00131831)
(-0.00272832 -4.37193e-05 0.00131831)
(-0.00267928 -0.000516823 0.00131831)
(-0.00254883 -0.000974224 0.00131831)
(-0.00234094 -0.00140202 0.00131831)
(-0.00206192 -0.00178722 0.00131831)
(-0.00172024 -0.00211812 0.00131831)
(-0.0013263 -0.00238466 0.00131831)
(-0.00089206 -0.00257874 0.00131831)
(-0.000430713 -0.00269447 0.00131831)
(4.37193e-05 -0.00272832 0.00131831)
(0.000400371 -0.00254842 0.00132953)
(0.000836817 -0.00244018 0.00132953)
(0.00124784 -0.00225779 0.00132953)
(0.00162094 -0.00200681 0.00132953)
(0.00194479 -0.00169485 0.00132953)
(0.00220955 -0.00133139 0.00132953)
(0.00240718 -0.000927477 0.00132953)
(0.00253166 -0.000495384 0.00132953)
(0.00257923 -4.82389e-05 0.00132953)
(0.00254842 0.000400371 0.00132953)
(0.00244018 0.000836817 0.00132953)
(0.00225779 0.00124784 0.00132953)
(0.00200681 0.00162094 0.00132953)
(0.00169485 0.00194479 0.00132953)
(0.00133139 0.00220955 0.00132953)
(0.000927477 0.00240718 0.00132953)
(0.000495384 0.00253166 0.00132953)
(4.82389e-05 0.00257923 0.00132953)
(-0.000400371 0.00254842 0.00132953)
(-0.000836817 0.00244018 0.00132953)
(-0.00124784 0.00225779 0.00132953)
(-0.00162094 0.00200681 0.00132953)
(-0.00194479 0.00169485 0.00132953)
(-0.00220955 0.00133139 0.00132953)
(-0.00240718 0.000927477 0.00132953)
(-0.00253166 0.000495384 0.00132953)
(-0.00257923 4.82389e-05 0.00132953)
(-0.00254842 -0.000400371 0.00132953)
(-0.00244018 -0.000836817 0.00132953)
(-0.00225779 -0.00124784 0.00132953)
(-0.00200681 -0.00162094 0.00132953)
(-0.00169485 -0.00194479 0.00132953)
(-0.00133139 -0.00220955 0.00132953)
(-0.000927477 -0.00240718 0.00132953)
(-0.000495384 -0.00253166 0.00132953)
(-4.82389e-05 -0.00257923 0.00132953)
(0.000278258 -0.00241617 0.00133397)
(0.000693594 -0.00233115 0.00133397)
(0.00108786 -0.00217529 0.00133397)
(0.00144906 -0.00195334 0.00133397)
(0.00176624 -0.00167203 0.00133397)
(0.00202976 -0.00133993 0.00133397)
(0.0022316 -0.000967108 0.00133397)
(0.00236563 -0.000564903 0.00133397)
(0.00242778 -0.000145534 0.00133397)
(0.00241617 0.000278258 0.00133397)
(0.00233115 0.000693594 0.00133397)
(0.00217529 0.00108786 0.00133397)
(0.00195334 0.00144906 0.00133397)
(0.00167203 0.00176624 0.00133397)
(0.00133993 0.00202976 0.00133397)
(0.000967108 0.0022316 0.00133397)
(0.000564903 0.00236563 0.00133397)
(0.000145534 0.00242778 0.00133397)
(-0.000278258 0.00241617 0.00133397)
(-0.000693594 0.00233115 0.00133397)
(-0.00108786 0.00217529 0.00133397)
(-0.00144906 0.00195334 0.00133397)
(-0.00176624 0.00167203 0.00133397)
(-0.00202976 0.00133993 0.00133397)
(-0.0022316 0.000967108 0.00133397)
(-0.00236563 0.000564903 0.00133397)
(-0.00242778 0.000145534 0.00133397)
(-0.00241617 -0.000278258 0.00133397)
(-0.00233115 -0.000693594 0.00133397)
(-0.00217529 -0.00108786 0.00133397)
(-0.00195334 -0.00144906 0.00133397)
(-0.00167203 -0.00176624 0.00133397)
(-0.00133993 -0.00202976 0.00133397)
(-0.000967108 -0.0022316 0.00133397)
(-0.000564903 -0.00236563 0.00133397)
(-0.000145534 -0.00242778 0.00133397)
(0.000472126 -0.00293709 0.0016317)
(0.000974973 -0.00281048 0.0016317)
(0.0014482 -0.00259848 0.0016317)
(0.00187742 -0.00230753 0.0016317)
(0.00224959 -0.00194646 0.0016317)
(0.00255342 -0.00152625 0.0016317)
(0.00277965 -0.00105967 0.0016317)
(0.00292144 -0.000560888 0.0016317)
(0.00297445 -4.50648e-05 0.0016317)
(0.00293709 0.000472126 0.0016317)
(0.00281048 0.000974973 0.0016317)
(0.00259848 0.0014482 0.0016317)
(0.00230753 0.00187742 0.0016317)
(0.00194646 0.00224959 0.0016317)
(0.00152625 0.00255342 0.0016317)
(0.00105967 0.00277965 0.0016317)
(0.000560888 0.00292144 0.0016317)
(4.50648e-05 0.00297445 0.0016317)
(-0.000472126 0.00293709 0.0016317)