/*--------------------------------*- C++ -*----------------------------------*\
| =========                 |                                                 |
| \\      /  F ield         | OpenFOAM: The Open Source CFD Toolbox           |
|  \\    /   O peration     | Version:  2312                                  |
|   \\  /    A nd           | Website:  www.openfoam.com                      |
|    \\/     M anipulation  |                                                 |
\*---------------------------------------------------------------------------*/
FoamFile
{
    version     2.0;
    format      ascii;
    arch        "LSB;label=32;scalar=64";
    class       volVectorField;
    location    "0.3";
    object      D_0_0;
}
// * * * * * * * * * * * * * * * * * * * * * * * * * * * * * * * * * * * * * //

dimensions      [0 1 0 0 0 0 0];

internalField   nonuniform List<vector> 
1620
(
(0.000112989 -0.000221022 3.8505e-05)
(0.000149652 -0.000198043 3.85051e-05)
(0.000181769 -0.000169048 3.85052e-05)
(0.000208362 -0.000134916 3.85052e-05)
(0.000228625 -9.66846e-05 3.85052e-05)
(0.000241941 -5.55153e-05 3.85052e-05)
(0.000247905 -1.26595e-05 3.8505e-05)
(0.000246337 3.05809e-05 3.85049e-05)
(0.000237284 7.28923e-05 3.85049e-05)
(0.000221022 0.000112989 3.8505e-05)
(0.000198043 0.000149652 3.85051e-05)
(0.000169048 0.000181769 3.85052e-05)
(0.000134916 0.000208362 3.85052e-05)
(9.66846e-05 0.000228625 3.85052e-05)
(5.55153e-05 0.000241941 3.85052e-05)
(1.26595e-05 0.000247905 3.8505e-05)
(-3.05809e-05 0.000246337 3.85049e-05)
(-7.28923e-05 0.000237284 3.85049e-05)
(-0.000112989 0.000221022 3.8505e-05)
(-0.000149652 0.000198043 3.85051e-05)
(-0.000181769 0.000169048 3.85052e-05)
(-0.000208362 0.000134916 3.85052e-05)
(-0.000228625 9.66846e-05 3.85052e-05)
(-0.000241941 5.55153e-05 3.85052e-05)
(-0.000247905 1.26595e-05 3.8505e-05)
(-0.000246337 -3.05809e-05 3.85049e-05)
(-0.000237284 -7.28923e-05 3.85049e-05)
(-0.000221022 -0.000112989 3.8505e-05)
(-0.000198043 -0.000149652 3.85051e-05)
(-0.000169048 -0.000181769 3.85052e-05)
(-0.000134916 -0.000208362 3.85052e-05)
(-9.66846e-05 -0.000228625 3.85052e-05)
(-5.55153e-05 -0.000241941 3.85052e-05)
(-1.26595e-05 -0.000247905 3.8505e-05)
(3.05809e-05 -0.000246337 3.85049e-05)
(7.28923e-05 -0.000237284 3.85049e-05)
(7.46558e-05 -0.000227248 4.29655e-05)
(0.000112983 -0.000210832 4.29656e-05)
(0.000147877 -0.000188009 4.29656e-05)
(0.000178278 -0.000159474 4.29657e-05)
(0.000203262 -0.000126094 4.29658e-05)
(0.00022207 -8.88821e-05 4.29657e-05)
(0.00023413 -4.89699e-05 4.29656e-05)
(0.000239077 -7.56979e-06 4.29656e-05)
(0.000236759 3.40605e-05 4.29656e-05)
(0.000227248 7.46558e-05 4.29655e-05)
(0.000210832 0.000112983 4.29656e-05)
(0.000188009 0.000147877 4.29656e-05)
(0.000159474 0.000178278 4.29657e-05)
(0.000126094 0.000203262 4.29658e-05)
(8.88821e-05 0.00022207 4.29657e-05)
(4.89699e-05 0.00023413 4.29656e-05)
(7.56979e-06 0.000239077 4.29656e-05)
(-3.40605e-05 0.000236759 4.29656e-05)
(-7.46558e-05 0.000227248 4.29655e-05)
(-0.000112983 0.000210832 4.29656e-05)
(-0.000147877 0.000188009 4.29656e-05)
(-0.000178278 0.000159474 4.29657e-05)
(-0.000203262 0.000126094 4.29658e-05)
(-0.00022207 8.88821e-05 4.29657e-05)
(-0.00023413 4.89699e-05 4.29656e-05)
(-0.000239077 7.56979e-06 4.29656e-05)
(-0.000236759 -3.40605e-05 4.29656e-05)
(-0.000227248 -7.46558e-05 4.29655e-05)
(-0.000210832 -0.000112983 4.29656e-05)
(-0.000188009 -0.000147877 4.29656e-05)
(-0.000159474 -0.000178278 4.29657e-05)
(-0.000126094 -0.000203262 4.29658e-05)
(-8.88821e-05 -0.00022207 4.29657e-05)
(-4.89699e-05 -0.00023413 4.29656e-05)
(-7.56979e-06 -0.000239077 4.29656e-05)
(3.40605e-05 -0.000236759 4.29656e-05)
(2.34251e-05 -0.00023326 4.38656e-05)
(6.35744e-05 -0.000225649 4.38656e-05)
(0.000101792 -0.000211181 4.38658e-05)
(0.000136917 -0.000190297 4.38658e-05)
(0.000167882 -0.00016363 4.38658e-05)
(0.000193745 -0.000131992 4.38657e-05)
(0.000213722 -9.63433e-05 4.38658e-05)
(0.000227205 -5.77672e-05 4.38658e-05)
(0.000233784 -1.74359e-05 4.38657e-05)
(0.00023326 2.34251e-05 4.38656e-05)
(0.000225649 6.35744e-05 4.38656e-05)
(0.000211181 0.000101792 4.38658e-05)
(0.000190297 0.000136917 4.38658e-05)
(0.00016363 0.000167882 4.38658e-05)
(0.000131992 0.000193745 4.38657e-05)
(9.63433e-05 0.000213722 4.38658e-05)
(5.77672e-05 0.000227205 4.38658e-05)
(1.74359e-05 0.000233784 4.38657e-05)
(-2.34251e-05 0.00023326 4.38656e-05)
(-6.35744e-05 0.000225649 4.38656e-05)
(-0.000101792 0.000211181 4.38658e-05)
(-0.000136917 0.000190297 4.38658e-05)
(-0.000167882 0.00016363 4.38658e-05)
(-0.000193745 0.000131992 4.38657e-05)
(-0.000213722 9.63433e-05 4.38658e-05)
(-0.000227205 5.77672e-05 4.38658e-05)
(-0.000233784 1.74359e-05 4.38657e-05)
(-0.00023326 -2.34251e-05 4.38656e-05)
(-0.000225649 -6.35744e-05 4.38656e-05)
(-0.000211181 -0.000101792 4.38658e-05)
(-0.000190297 -0.000136917 4.38658e-05)
(-0.00016363 -0.000167882 4.38658e-05)
(-0.000131992 -0.000193745 4.38657e-05)
(-9.63433e-05 -0.000213722 4.38658e-05)
(-5.77672e-05 -0.000227205 4.38658e-05)
(-1.74359e-05 -0.000233784 4.38657e-05)
(0.000260383 -0.000665813 0.000140899)
(0.000372044 -0.000610483 0.000140899)
(0.000472402 -0.000536603 0.000140899)
(0.000558405 -0.000446419 0.000140899)
(0.000627441 -0.000342671 0.000140899)
(0.000677413 -0.000228511 0.000140899)
(0.000706803 -0.000107408 0.000140899)
(0.000714716 1.69587e-05 0.000140898)
(0.000700913 0.00014081 0.000140898)
(0.000665813 0.000260383 0.000140899)
(0.000610483 0.000372044 0.000140899)
(0.000536603 0.000472402 0.000140899)
(0.000446419 0.000558405 0.000140899)
(0.000342671 0.000627441 0.000140899)
(0.000228511 0.000677413 0.000140899)
(0.000107408 0.000706803 0.000140899)
(-1.69587e-05 0.000714716 0.000140898)
(-0.00014081 0.000700913 0.000140898)
(-0.000260383 0.000665813 0.000140899)
(-0.000372044 0.000610483 0.000140899)
(-0.000472402 0.000536603 0.000140899)
(-0.000558405 0.000446419 0.000140899)
(-0.000627441 0.000342671 0.000140899)
(-0.000677413 0.000228511 0.000140899)
(-0.000706803 0.000107408 0.000140899)
(-0.000714716 -1.69587e-05 0.000140898)
(-0.000700913 -0.00014081 0.000140898)
(-0.000665813 -0.000260383 0.000140899)
(-0.000610483 -0.000372044 0.000140899)
(-0.000536603 -0.000472402 0.000140899)
(-0.000446419 -0.000558405 0.000140899)
(-0.000342671 -0.000627441 0.000140899)
(-0.000228511 -0.000677413 0.000140899)
(-0.000107408 -0.000706803 0.000140899)
(1.69587e-05 -0.000714716 0.000140898)
(0.00014081 -0.000700913 0.000140898)
(0.000203671 -0.000675819 0.000161334)
(0.000317931 -0.000630185 0.000161334)
(0.000422532 -0.000565403 0.000161334)
(0.000514294 -0.000483441 0.000161334)
(0.00059043 -0.00038679 0.000161334)
(0.000648625 -0.000278387 0.000161334)
(0.000687112 -0.000161525 0.000161334)
(0.000704722 -3.97554e-05 0.000161334)
(0.000700919 8.3222e-05 0.000161334)
(0.000675819 0.000203671 0.000161334)
(0.000630185 0.000317931 0.000161334)
(0.000565403 0.000422532 0.000161334)
(0.000483441 0.000514294 0.000161334)
(0.00038679 0.00059043 0.000161334)
(0.000278387 0.000648625 0.000161334)
(0.000161525 0.000687112 0.000161334)
(3.97554e-05 0.000704722 0.000161334)
(-8.3222e-05 0.000700919 0.000161334)
(-0.000203671 0.000675819 0.000161334)
(-0.000317931 0.000630185 0.000161334)
(-0.000422532 0.000565403 0.000161334)
(-0.000514294 0.000483441 0.000161334)
(-0.00059043 0.00038679 0.000161334)
(-0.000648625 0.000278387 0.000161334)
(-0.000687112 0.000161525 0.000161334)
(-0.000704722 3.97554e-05 0.000161334)
(-0.000700919 -8.3222e-05 0.000161334)
(-0.000675819 -0.000203671 0.000161334)
(-0.000630185 -0.000317931 0.000161334)
(-0.000565403 -0.000422532 0.000161334)
(-0.000483441 -0.000514294 0.000161334)
(-0.00038679 -0.00059043 0.000161334)
(-0.000278387 -0.000648625 0.000161334)
(-0.000161525 -0.000687112 0.000161334)
(-3.97554e-05 -0.000704722 0.000161334)
(8.3222e-05 -0.000700919 0.000161334)
(0.00013216 -0.000684252 0.000176681)
(0.000248971 -0.000650907 0.000176681)
(0.000358218 -0.000597784 0.000176681)
(0.00045658 -0.000526499 0.000176681)
(0.000541069 -0.000439216 0.000176681)
(0.000609118 -0.000338587 0.000176681)
(0.000658659 -0.000227671 0.000176681)
(0.000688188 -0.000109838 0.000176681)
(0.000696806 1.13333e-05 0.000176681)
(0.000684252 0.00013216 0.000176681)
(0.000650907 0.000248971 0.000176681)
(0.000597784 0.000358218 0.000176681)
(0.000526499 0.00045658 0.000176681)
(0.000439216 0.000541069 0.000176681)
(0.000338587 0.000609118 0.000176681)
(0.000227671 0.000658659 0.000176681)
(0.000109838 0.000688188 0.000176681)
(-1.13333e-05 0.000696806 0.000176681)
(-0.00013216 0.000684252 0.000176681)
(-0.000248971 0.000650907 0.000176681)
(-0.000358218 0.000597784 0.000176681)
(-0.00045658 0.000526499 0.000176681)
(-0.000541069 0.000439216 0.000176681)
(-0.000609118 0.000338587 0.000176681)
(-0.000658659 0.000227671 0.000176681)
(-0.000688188 0.000109838 0.000176681)
(-0.000696806 -1.13333e-05 0.000176681)
(-0.000684252 -0.00013216 0.000176681)
(-0.000650907 -0.000248971 0.000176681)
(-0.000597784 -0.000358218 0.000176681)
(-0.000526499 -0.00045658 0.000176681)
(-0.000439216 -0.000541069 0.000176681)
(-0.000338587 -0.000609118 0.000176681)
(-0.000227671 -0.000658659 0.000176681)
(-0.000109838 -0.000688188 0.000176681)
(1.13333e-05 -0.000696806 0.000176681)
(0.000386968 -0.00110773 0.000304493)
(0.000573445 -0.00102371 0.000304493)
(0.000742498 -0.000908577 0.000304493)
(0.000888991 -0.00076584 0.000304494)
(0.00100847 -0.000599834 0.000304494)
(0.00109731 -0.000415602 0.000304493)
(0.00115281 -0.000218742 0.000304493)
(0.00117328 -1.52356e-05 0.000304493)
(0.0011581 0.000188734 0.000304493)
(0.00110773 0.000386968 0.000304493)
(0.00102371 0.000573445 0.000304493)
(0.000908577 0.000742498 0.000304493)
(0.00076584 0.000888991 0.000304494)
(0.000599834 0.00100847 0.000304494)
(0.000415602 0.00109731 0.000304493)
(0.000218742 0.00115281 0.000304493)
(1.52356e-05 0.00117328 0.000304493)
(-0.000188734 0.0011581 0.000304493)
(-0.000386968 0.00110773 0.000304493)
(-0.000573445 0.00102371 0.000304493)
(-0.000742498 0.000908577 0.000304493)
(-0.000888991 0.00076584 0.000304494)
(-0.00100847 0.000599834 0.000304494)
(-0.00109731 0.000415602 0.000304493)
(-0.00115281 0.000218742 0.000304493)
(-0.00117328 1.52356e-05 0.000304493)
(-0.0011581 -0.000188734 0.000304493)
(-0.00110773 -0.000386968 0.000304493)
(-0.00102371 -0.000573445 0.000304493)
(-0.000908577 -0.000742498 0.000304493)
(-0.00076584 -0.000888991 0.000304494)
(-0.000599834 -0.00100847 0.000304494)
(-0.000415602 -0.00109731 0.000304493)
(-0.000218742 -0.00115281 0.000304493)
(-1.52356e-05 -0.00117328 0.000304493)
(0.000188734 -0.0011581 0.000304493)
(0.000309111 -0.00111153 0.000334146)
(0.00049743 -0.00104097 0.000334146)
(0.000670635 -0.000938776 0.000334146)
(0.000823464 -0.000808059 0.000334146)
(0.000951271 -0.00065279 0.000334146)
(0.00105018 -0.000477686 0.000334146)
(0.00111717 -0.000288068 0.000334146)
(0.00115022 -8.96969e-05 0.000334146)
(0.00114832 0.000111399 0.000334146)
(0.00111153 0.000309111 0.000334146)
(0.00104097 0.00049743 0.000334146)
(0.000938776 0.000670635 0.000334146)
(0.000808059 0.000823464 0.000334146)
(0.00065279 0.000951271 0.000334146)
(0.000477686 0.00105018 0.000334146)
(0.000288068 0.00111717 0.000334146)
(8.96969e-05 0.00115022 0.000334146)
(-0.000111399 0.00114832 0.000334146)
(-0.000309111 0.00111153 0.000334146)
(-0.00049743 0.00104097 0.000334146)
(-0.000670635 0.000938776 0.000334146)
(-0.000823464 0.000808059 0.000334146)
(-0.000951271 0.00065279 0.000334146)
(-0.00105018 0.000477686 0.000334146)
(-0.00111717 0.000288068 0.000334146)
(-0.00115022 8.96969e-05 0.000334146)
(-0.00114832 -0.000111399 0.000334146)
(-0.00111153 -0.000309111 0.000334146)
(-0.00104097 -0.00049743 0.000334146)
(-0.000938776 -0.000670635 0.000334146)
(-0.000808059 -0.000823464 0.000334146)
(-0.00065279 -0.000951271 0.000334146)
(-0.000477686 -0.00105018 0.000334146)
(-0.000288068 -0.00111717 0.000334146)
(-8.96969e-05 -0.00115022 0.000334146)
(0.000111399 -0.00114832 0.000334146)
(0.000217788 -0.00111197 0.000358337)
(0.000407571 -0.00105726 0.000358337)
(0.00058497 -0.000970422 0.000358337)
(0.000744595 -0.0008541 0.000358338)
(0.000881596 -0.000711827 0.000358338)
(0.00099181 -0.000547925 0.000358338)
(0.00107189 -0.000367375 0.000358337)
(0.0011194 -0.000175662 0.000358337)
(0.0011329 2.13875e-05 0.000358337)
(0.00111197 0.000217788 0.000358337)
(0.00105726 0.000407571 0.000358337)
(0.000970422 0.00058497 0.000358337)
(0.0008541 0.000744595 0.000358338)
(0.000711827 0.000881596 0.000358338)
(0.000547925 0.00099181 0.000358338)
(0.000367375 0.00107189 0.000358337)
(0.000175662 0.0011194 0.000358337)
(-2.13875e-05 0.0011329 0.000358337)
(-0.000217788 0.00111197 0.000358337)
(-0.000407571 0.00105726 0.000358337)
(-0.00058497 0.000970422 0.000358337)
(-0.000744595 0.0008541 0.000358338)
(-0.000881596 0.000711827 0.000358338)
(-0.00099181 0.000547925 0.000358338)
(-0.00107189 0.000367375 0.000358337)
(-0.0011194 0.000175662 0.000358337)
(-0.0011329 -2.13875e-05 0.000358337)
(-0.00111197 -0.000217788 0.000358337)
(-0.00105726 -0.000407571 0.000358337)
(-0.000970422 -0.00058497 0.000358337)
(-0.0008541 -0.000744595 0.000358338)
(-0.000711827 -0.000881596 0.000358338)
(-0.000547925 -0.00099181 0.000358338)
(-0.000367375 -0.00107189 0.000358337)
(-0.000175662 -0.0011194 0.000358337)
(2.13875e-05 -0.0011329 0.000358337)
(0.000475445 -0.00153937 0.000510203)
(0.000735531 -0.00143342 0.000510203)
(0.000973268 -0.00128392 0.000510203)
(0.00118143 -0.00109541 0.000510203)
(0.0013537 -0.000873617 0.000510203)
(0.00148484 -0.000625277 0.000510203)
(0.00157086 -0.000357938 0.000510202)
(0.00160915 -7.97237e-05 0.000510202)
(0.00159855 0.000200913 0.000510202)
(0.00153937 0.000475445 0.000510203)
(0.00143342 0.000735531 0.000510203)
(0.00128392 0.000973268 0.000510203)
(0.00109541 0.00118143 0.000510203)
(0.000873617 0.0013537 0.000510203)
(0.000625277 0.00148484 0.000510203)
(0.000357938 0.00157086 0.000510202)
(7.97237e-05 0.00160915 0.000510202)
(-0.000200913 0.00159855 0.000510202)
(-0.000475445 0.00153937 0.000510203)
(-0.000735531 0.00143342 0.000510203)
(-0.000973268 0.00128392 0.000510203)
(-0.00118143 0.00109541 0.000510203)
(-0.0013537 0.000873617 0.000510203)
(-0.00148484 0.000625277 0.000510203)
(-0.00157086 0.000357938 0.000510202)
(-0.00160915 7.97237e-05 0.000510202)
(-0.00159855 -0.000200913 0.000510202)
(-0.00153937 -0.000475445 0.000510203)
(-0.00143342 -0.000735531 0.000510203)
(-0.00128392 -0.000973268 0.000510203)
(-0.00109541 -0.00118143 0.000510203)
(-0.000873617 -0.0013537 0.000510203)
(-0.000625277 -0.00148484 0.000510203)
(-0.000357938 -0.00157086 0.000510202)
(-7.97237e-05 -0.00160915 0.000510202)
(0.000200913 -0.00159855 0.000510202)
(0.000381939 -0.00152395 0.000542723)
(0.000640767 -0.00143447 0.000542723)
(0.000880126 -0.00130141 0.000542723)
(0.00109274 -0.00112881 0.000542723)
(0.00127216 -0.000921906 0.000542723)
(0.00141292 -0.000686992 0.000542723)
(0.00151075 -0.000431205 0.000542723)
(0.00156267 -0.000162316 0.000542723)
(0.00156712 0.000111506 0.000542723)
(0.00152395 0.000381939 0.000542723)
(0.00143447 0.000640767 0.000542723)
(0.00130141 0.000880126 0.000542723)
(0.00112881 0.00109274 0.000542723)
(0.000921906 0.00127216 0.000542723)
(0.000686992 0.00141292 0.000542723)
(0.000431205 0.00151075 0.000542723)
(0.000162316 0.00156267 0.000542723)
(-0.000111506 0.00156712 0.000542723)
(-0.000381939 0.00152395 0.000542723)
(-0.000640767 0.00143447 0.000542723)
(-0.000880126 0.00130141 0.000542723)
(-0.00109274 0.00112881 0.000542723)
(-0.00127216 0.000921906 0.000542723)
(-0.00141292 0.000686992 0.000542723)
(-0.00151075 0.000431205 0.000542723)
(-0.00156267 0.000162316 0.000542723)
(-0.00156712 -0.000111506 0.000542723)
(-0.00152395 -0.000381939 0.000542723)
(-0.00143447 -0.000640767 0.000542723)
(-0.00130141 -0.000880126 0.000542723)
(-0.00112881 -0.00109274 0.000542723)
(-0.000921906 -0.00127216 0.000542723)
(-0.000686992 -0.00141292 0.000542723)
(-0.000431205 -0.00151075 0.000542723)
(-0.000162316 -0.00156267 0.000542723)
(0.000111506 -0.00156712 0.000542723)
(0.0002768 -0.00150456 0.00056949)
(0.00053386 -0.00143364 0.00056949)
(0.000774697 -0.00131915 0.00056949)
(0.000991997 -0.00116459 0.00056949)
(0.00117915 -0.000974636 0.00056949)
(0.00133048 -0.000755071 0.00056949)
(0.00144139 -0.000512564 0.00056949)
(0.0015085 -0.000254483 0.00056949)
(0.00152977 1.13309e-05 0.00056949)
(0.00150456 0.0002768 0.00056949)
(0.00143364 0.00053386 0.00056949)
(0.00131915 0.000774697 0.00056949)
(0.00116459 0.000991997 0.00056949)
(0.000974636 0.00117915 0.00056949)
(0.000755071 0.00133048 0.00056949)
(0.000512564 0.00144139 0.00056949)
(0.000254483 0.0015085 0.00056949)
(-1.13309e-05 0.00152977 0.00056949)
(-0.0002768 0.00150456 0.00056949)
(-0.00053386 0.00143364 0.00056949)
(-0.000774697 0.00131915 0.00056949)
(-0.000991997 0.00116459 0.00056949)
(-0.00117915 0.000974636 0.00056949)
(-0.00133048 0.000755071 0.00056949)
(-0.00144139 0.000512564 0.00056949)
(-0.0015085 0.000254483 0.00056949)
(-0.00152977 -1.13309e-05 0.00056949)
(-0.00150456 -0.0002768 0.00056949)
(-0.00143364 -0.00053386 0.00056949)
(-0.00131915 -0.000774697 0.00056949)
(-0.00116459 -0.000991997 0.00056949)
(-0.000974636 -0.00117915 0.00056949)
(-0.000755071 -0.00133048 0.00056949)
(-0.000512564 -0.00144139 0.00056949)
(-0.000254483 -0.0015085 0.00056949)
(1.13309e-05 -0.00152977 0.00056949)
(0.000523368 -0.00194855 0.000747668)
(0.000853779 -0.00182806 0.000747667)
(0.00115825 -0.00165203 0.000747667)
(0.00142752 -0.00142581 0.000747668)
(0.00165343 -0.00115626 0.000747667)
(0.00182909 -0.000851579 0.000747667)
(0.00194918 -0.000521024 0.000747667)
(0.00201004 -0.000174637 0.000747667)
(0.00200983 0.000177055 0.000747667)
(0.00194855 0.000523368 0.000747668)
(0.00182806 0.000853779 0.000747667)
(0.00165203 0.00115825 0.000747667)
(0.00142581 0.00142752 0.000747668)
(0.00115626 0.00165343 0.000747667)
(0.000851579 0.00182909 0.000747667)
(0.000521024 0.00194918 0.000747667)
(0.000174637 0.00201004 0.000747667)
(-0.000177055 0.00200983 0.000747667)
(-0.000523368 0.00194855 0.000747668)
(-0.000853779 0.00182806 0.000747667)
(-0.00115825 0.00165203 0.000747667)
(-0.00142752 0.00142581 0.000747668)
(-0.00165343 0.00115626 0.000747667)
(-0.00182909 0.000851579 0.000747667)
(-0.00194918 0.000521024 0.000747667)
(-0.00201004 0.000174637 0.000747667)
(-0.00200983 -0.000177055 0.000747667)
(-0.00194855 -0.000523368 0.000747668)
(-0.00182806 -0.000853779 0.000747667)
(-0.00165203 -0.00115825 0.000747667)
(-0.00142581 -0.00142752 0.000747668)
(-0.00115626 -0.00165343 0.000747667)
(-0.000851579 -0.00182909 0.000747667)
(-0.000521024 -0.00194918 0.000747667)
(-0.000174637 -0.00201004 0.000747667)
(0.000177055 -0.00200983 0.000747667)
(0.000419353 -0.00190218 0.000777561)
(0.000743293 -0.00180046 0.000777561)
(0.00104465 -0.00164404 0.000777561)
(0.00131426 -0.00143766 0.000777561)
(0.00154394 -0.0011876 0.000777561)
(0.00172671 -0.000901455 0.000777561)
(0.00185701 -0.00058792 0.000777561)
(0.00193089 -0.000256522 0.000777561)
(0.0019461 8.26714e-05 0.000777561)
(0.00190218 0.000419353 0.000777561)
(0.00180046 0.000743293 0.000777561)
(0.00164404 0.00104465 0.000777561)
(0.00143766 0.00131426 0.000777561)
(0.0011876 0.00154394 0.000777561)
(0.000901455 0.00172671 0.000777561)
(0.00058792 0.00185701 0.000777561)
(0.000256522 0.00193089 0.000777561)
(-8.26714e-05 0.0019461 0.000777561)
(-0.000419353 0.00190218 0.000777561)
(-0.000743293 0.00180046 0.000777561)
(-0.00104465 0.00164404 0.000777561)
(-0.00131426 0.00143766 0.000777561)
(-0.00154394 0.0011876 0.000777561)
(-0.00172671 0.000901455 0.000777561)
(-0.00185701 0.00058792 0.000777561)
(-0.00193089 0.000256522 0.000777561)
(-0.0019461 -8.26714e-05 0.000777561)
(-0.00190218 -0.000419353 0.000777561)
(-0.00180046 -0.000743293 0.000777561)
(-0.00164404 -0.00104465 0.000777561)
(-0.00143766 -0.00131426 0.000777561)
(-0.0011876 -0.00154394 0.000777561)
(-0.000901455 -0.00172671 0.000777561)
(-0.00058792 -0.00185701 0.000777561)
(-0.000256522 -0.00193089 0.000777561)
(8.26714e-05 -0.0019461 0.000777561)
(0.000305574 -0.00185211 0.000801494)
(0.000622548 -0.00177091 0.000801494)
(0.000920606 -0.0016359 0.000801494)
(0.00119069 -0.00145119 0.000801494)
(0.0014246 -0.00122238 0.000801494)
(0.00161522 -0.000956432 0.000801494)
(0.00175676 -0.000661422 0.000801494)
(0.00184493 -0.000346314 0.000801494)
(0.00187704 -2.06846e-05 0.000801494)
(0.00185211 0.000305574 0.000801494)
(0.00177091 0.000622548 0.000801494)
(0.0016359 0.000920606 0.000801494)
(0.00145119 0.00119069 0.000801494)
(0.00122238 0.0014246 0.000801494)
(0.000956432 0.00161522 0.000801494)
(0.000661422 0.00175676 0.000801494)
(0.000346314 0.00184493 0.000801494)
(2.06846e-05 0.00187704 0.000801494)
(-0.000305574 0.00185211 0.000801494)
(-0.000622548 0.00177091 0.000801494)
(-0.000920606 0.0016359 0.000801494)
(-0.00119069 0.00145119 0.000801494)
(-0.0014246 0.00122238 0.000801494)
(-0.00161522 0.000956432 0.000801494)
(-0.00175676 0.000661422 0.000801494)
(-0.00184493 0.000346314 0.000801494)
(-0.00187704 2.06846e-05 0.000801494)
(-0.00185211 -0.000305574 0.000801494)
(-0.00177091 -0.000622548 0.000801494)
(-0.0016359 -0.000920606 0.000801494)
(-0.00145119 -0.00119069 0.000801494)
(-0.00122238 -0.0014246 0.000801494)
(-0.000956432 -0.00161522 0.000801494)
(-0.000661422 -0.00175676 0.000801494)
(-0.000346314 -0.00184493 0.000801494)
(-2.06846e-05 -0.00187704 0.000801494)
(0.000533548 -0.00232111 0.00101019)
(0.000928498 -0.0021932 0.00101019)
(0.00129524 -0.00199865 0.00101019)
(0.00162262 -0.00174337 0.00101019)
(0.0019007 -0.00143512 0.00101019)
(0.00212103 -0.00108326 0.00101019)
(0.00227691 -0.00069849 0.00101019)
(0.00236361 -0.000292496 0.00101019)
(0.0023785 0.000122385 0.00101019)
(0.00232111 0.000533548 0.00101019)
(0.0021932 0.000928498 0.00101019)
(0.00199865 0.00129524 0.00101019)
(0.00174337 0.00162262 0.00101019)
(0.00143512 0.0019007 0.00101019)
(0.00108326 0.00212103 0.00101019)
(0.00069849 0.00227691 0.00101019)
(0.000292496 0.00236361 0.00101019)
(-0.000122385 0.0023785 0.00101019)
(-0.000533548 0.00232111 0.00101019)
(-0.000928498 0.0021932 0.00101019)
(-0.00129524 0.00199865 0.00101019)
(-0.00162262 0.00174337 0.00101019)
(-0.0019007 0.00143512 0.00101019)
(-0.00212103 0.00108326 0.00101019)
(-0.00227691 0.00069849 0.00101019)
(-0.00236361 0.000292496 0.00101019)
(-0.0023785 -0.000122385 0.00101019)
(-0.00232111 -0.000533548 0.00101019)
(-0.0021932 -0.000928498 0.00101019)
(-0.00199865 -0.00129524 0.00101019)
(-0.00174337 -0.00162262 0.00101019)
(-0.00143512 -0.0019007 0.00101019)
(-0.00108326 -0.00212103 0.00101019)
(-0.00069849 -0.00227691 0.00101019)
(-0.000292496 -0.00236361 0.00101019)
(0.000122385 -0.0023785 0.00101019)
(0.000423167 -0.0022346 0.00103262)
(0.000804773 -0.00212717 0.00103262)
(0.00116192 -0.0019551 0.00103262)
(0.00148377 -0.00172363 0.00103262)
(0.00176054 -0.00143979 0.00103262)
(0.00198381 -0.00111221 0.00103262)
(0.0021468 -0.000750826 0.00103262)
(0.00224457 -0.000366631 0.00103262)
(0.00227413 2.87043e-05 0.00103262)
(0.0022346 0.000423167 0.00103262)
(0.00212717 0.000804773 0.00103262)
(0.0019551 0.00116192 0.00103262)
(0.00172363 0.00148377 0.00103262)
(0.00143979 0.00176054 0.00103262)
(0.00111221 0.00198381 0.00103262)
(0.000750826 0.0021468 0.00103262)
(0.000366631 0.00224457 0.00103262)
(-2.87043e-05 0.00227413 0.00103262)
(-0.000423167 0.0022346 0.00103262)
(-0.000804773 0.00212717 0.00103262)
(-0.00116192 0.0019551 0.00103262)
(-0.00148377 0.00172363 0.00103262)
(-0.00176054 0.00143979 0.00103262)
(-0.00198381 0.00111221 0.00103262)
(-0.0021468 0.000750826 0.00103262)
(-0.00224457 0.000366631 0.00103262)
(-0.00227413 -2.87043e-05 0.00103262)
(-0.0022346 -0.000423167 0.00103262)
(-0.00212717 -0.000804773 0.00103262)
(-0.0019551 -0.00116192 0.00103262)
(-0.00172363 -0.00148377 0.00103262)
(-0.00143979 -0.00176054 0.00103262)
(-0.00111221 -0.00198381 0.00103262)
(-0.000750826 -0.0021468 0.00103262)
(-0.000366631 -0.00224457 0.00103262)
(2.87043e-05 -0.00227413 0.00103262)
(0.000305025 -0.00214529 0.00104887)
(0.000672917 -0.00205973 0.00104887)
(0.00102036 -0.00191159 0.00104887)
(0.0013368 -0.00170536 0.00104887)
(0.00161263 -0.00144732 0.00104887)
(0.00183945 -0.0011453 0.00104887)
(0.00201039 -0.000808485 0.00104887)
(0.00212024 -0.000447103 0.00104887)
(0.00216566 -7.21346e-05 0.00104887)
(0.00214529 0.000305025 0.00104887)
(0.00205973 0.000672917 0.00104887)
(0.00191159 0.00102036 0.00104887)
(0.00170536 0.0013368 0.00104887)
(0.00144732 0.00161263 0.00104887)
(0.0011453 0.00183945 0.00104887)
(0.000808485 0.00201039 0.00104887)
(0.000447103 0.00212024 0.00104887)
(7.21346e-05 0.00216566 0.00104887)
(-0.000305025 0.00214529 0.00104887)
(-0.000672917 0.00205973 0.00104887)
(-0.00102036 0.00191159 0.00104887)
(-0.0013368 0.00170536 0.00104887)
(-0.00161263 0.00144732 0.00104887)
(-0.00183945 0.0011453 0.00104887)
(-0.00201039 0.000808485 0.00104887)
(-0.00212024 0.000447103 0.00104887)
(-0.00216566 7.21346e-05 0.00104887)
(-0.00214529 -0.000305025 0.00104887)
(-0.00205973 -0.000672917 0.00104887)
(-0.00191159 -0.00102036 0.00104887)
(-0.00170536 -0.0013368 0.00104887)
(-0.00144732 -0.00161263 0.00104887)
(-0.0011453 -0.00183945 0.00104887)
(-0.000808485 -0.00201039 0.00104887)
(-0.000447103 -0.00212024 0.00104887)
(-7.21346e-05 -0.00216566 0.00104887)
(0.000512517 -0.00264237 0.00129545)
(0.000963573 -0.00251323 0.00129545)
(0.00138535 -0.00230772 0.00129545)
(0.00176504 -0.0020321 0.00129545)
(0.00209109 -0.00169473 0.00129545)
(0.00235361 -0.00130587 0.00129545)
(0.00254462 -0.00087733 0.00129545)
(0.0026583 -0.000422133 0.00129545)
(0.00269122 4.58895e-05 0.00129545)
(0.00264237 0.000512517 0.00129545)
(0.00251323 0.000963573 0.00129545)
(0.00230772 0.00138535 0.00129545)
(0.0020321 0.00176504 0.00129545)
(0.00169473 0.00209109 0.00129545)
(0.00130587 0.00235361 0.00129545)
(0.00087733 0.00254462 0.00129545)
(0.000422133 0.0026583 0.00129545)
(-4.58895e-05 0.00269122 0.00129545)
(-0.000512517 0.00264237 0.00129545)
(-0.000963573 0.00251323 0.00129545)
(-0.00138535 0.00230772 0.00129545)
(-0.00176504 0.0020321 0.00129545)
(-0.00209109 0.00169473 0.00129545)
(-0.00235361 0.00130587 0.00129545)
(-0.00254462 0.00087733 0.00129545)
(-0.0026583 0.000422133 0.00129545)
(-0.00269122 -4.58895e-05 0.00129545)
(-0.00264237 -0.000512517 0.00129545)
(-0.00251323 -0.000963573 0.00129545)
(-0.00230772 -0.00138535 0.00129545)
(-0.0020321 -0.00176504 0.00129545)
(-0.00169473 -0.00209109 0.00129545)
(-0.00130587 -0.00235361 0.00129545)
(-0.00087733 -0.00254462 0.00129545)
(-0.000422133 -0.0026583 0.00129545)
(4.58895e-05 -0.00269122 0.00129545)
(0.000398912 -0.00250902 0.00130582)
(0.00082854 -0.00240163 0.00130582)
(0.00123299 -0.00222127 0.00130582)
(0.00159998 -0.00197342 0.00130582)
(0.00191835 -0.0016656 0.00130582)
(0.00217844 -0.00130718 0.00130582)
(0.00237233 -0.000909042 0.00130582)
(0.00249414 -0.00048328 0.00130582)
(0.00254017 -4.28342e-05 0.00130582)
(0.00250902 0.000398912 0.00130582)
(0.00240163 0.00082854 0.00130582)
(0.00222127 0.00123299 0.00130582)
(0.00197342 0.00159998 0.00130582)
(0.0016656 0.00191835 0.00130582)
(0.00130718 0.00217844 0.00130582)
(0.000909042 0.00237233 0.00130582)
(0.00048328 0.00249414 0.00130582)
(4.28342e-05 0.00254017 0.00130582)
(-0.000398912 0.00250902 0.00130582)
(-0.00082854 0.00240163 0.00130582)
(-0.00123299 0.00222127 0.00130582)
(-0.00159998 0.00197342 0.00130582)
(-0.00191835 0.0016656 0.00130582)
(-0.00217844 0.00130718 0.00130582)
(-0.00237233 0.000909042 0.00130582)
(-0.00249414 0.00048328 0.00130582)
(-0.00254017 4.28342e-05 0.00130582)
(-0.00250902 -0.000398912 0.00130582)
(-0.00240163 -0.00082854 0.00130582)
(-0.00222127 -0.00123299 0.00130582)
(-0.00197342 -0.00159998 0.00130582)
(-0.0016656 -0.00191835 0.00130582)
(-0.00130718 -0.00217844 0.00130582)
(-0.000909042 -0.00237233 0.00130582)
(-0.00048328 -0.00249414 0.00130582)
(-4.28342e-05 -0.00254017 0.00130582)
(0.000279803 -0.00237436 0.00130971)
(0.000687856 -0.0022897 0.00130971)
(0.00107501 -0.00213547 0.00130971)
(0.0014295 -0.00191635 0.00130971)
(0.00174055 -0.00163901 0.00130971)
(0.00199872 -0.00131187 0.00130971)
(0.00219616 -0.000944864 0.00130971)
(0.00232687 -0.00054915 0.00130971)
(0.00238688 -0.000136752 0.00130971)
(0.00237436 0.000279803 0.00130971)
(0.0022897 0.000687856 0.00130971)
(0.00213547 0.00107501 0.00130971)
(0.00191635 0.0014295 0.00130971)
(0.00163901 0.00174055 0.00130971)
(0.00131187 0.00199872 0.00130971)
(0.000944864 0.00219616 0.00130971)
(0.00054915 0.00232687 0.00130971)
(0.000136752 0.00238688 0.00130971)
(-0.000279803 0.00237436 0.00130971)
(-0.000687856 0.0022897 0.00130971)
(-0.00107501 0.00213547 0.00130971)
(-0.0014295 0.00191635 0.00130971)
(-0.00174055 0.00163901 0.00130971)
(-0.00199872 0.00131187 0.00130971)
(-0.00219616 0.000944864 0.00130971)
(-0.00232687 0.00054915 0.00130971)
(-0.00238688 0.000136752 0.00130971)
(-0.00237436 -0.000279803 0.00130971)
(-0.0022897 -0.000687856 0.00130971)
(-0.00213547 -0.00107501 0.00130971)
(-0.00191635 -0.0014295 0.00130971)
(-0.00163901 -0.00174055 0.00130971)
(-0.00131187 -0.00199872 0.00130971)
(-0.000944864 -0.00219616 0.00130971)
(-0.00054915 -0.00232687 0.00130971)
(-0.000136752 -0.00238688 0.00130971)
(0.00046923 -0.00289727 0.00160406)
(0.000965207 -0.00277177 0.00160406)
(0.00143186 -0.00256206 0.00160406)
(0.001855 -0.00227449 0.00160406)
(0.00222178 -0.00191782 0.00160406)
(0.00252105 -0.00150288 0.00160406)
(0.00274373 -0.00104227 0.00160406)
(0.00288303 -0.000549992 0.00160406)
(0.00293474 -4.10031e-05 0.00160406)
(0.00289727 0.00046923 0.00160406)
(0.00277177 0.000965207 0.00160406)
(0.00256206 0.00143186 0.00160406)
(0.00227449 0.001855 0.00160406)
(0.00191782 0.00222178 0.00160406)
(0.00150288 0.00252105 0.00160406)
(0.00104227 0.00274373 0.00160406)
(0.000549992 0.00288303 0.00160406)
(4.10031e-05 0.00293474 0.00160406)
(-0.00046923 0.00289727 0.00160406)