/*--------------------------------*- C++ -*----------------------------------*\
| =========                 |                                                 |
| \\      /  F ield         | OpenFOAM: The Open Source CFD Toolbox           |
|  \\    /   O peration     | Version:  2312                                  |
|   \\  /    A nd           | Website:  www.openfoam.com                      |
|    \\/     M anipulation  |                                                 |
\*---------------------------------------------------------------------------*/
FoamFile
{
    version     2.0;
    format      ascii;
    arch        "LSB;label=32;scalar=64";
    class       volTensorField;
    location    "0.3";
    object      F;
}
// * * * * * * * * * * * * * * * * * * * * * * * * * * * * * * * * * * * * * //

dimensions      [0 0 0 0 0 0 0];

internalField   nonuniform List<tensor> 
1620
(
(1.03774 0.0278687 -0.0753025 0.00621066 1.01322 0.235881 -0.00508909 -0.000445173 0.944878)
(1.03118 0.0310352 -0.115119 0.00937708 1.01979 0.219222 -0.00493438 -0.00132208 0.944878)
(1.02392 0.0317645 -0.151437 0.0101064 1.02704 0.195901 -0.00462981 -0.00215892 0.944878)
(1.01686 0.0299687 -0.183155 0.00831061 1.03411 0.166628 -0.00418466 -0.00293015 0.944878)
(1.01083 0.0258643 -0.209307 0.00420627 1.04013 0.132292 -0.00361226 -0.00361226 0.944878)
(1.00657 0.0199463 -0.229099 -0.00171157 1.04439 0.0939365 -0.00293011 -0.00418473 0.944878)
(1.00459 0.0129288 -0.24193 -0.00872909 1.04637 0.0527266 -0.00215893 -0.00463002 0.944878)
(1.00513 0.00565798 -0.247411 -0.0159999 1.04583 0.00991481 -0.00132219 -0.00493456 0.944878)
(1.00813 -0.000989086 -0.245374 -0.022647 1.04283 -0.0331982 -0.000445263 -0.00508913 0.944878)
(1.01322 -0.00621066 -0.235881 -0.0278687 1.03774 -0.0753025 0.000445173 -0.00508909 0.944878)
(1.01979 -0.00937708 -0.219222 -0.0310352 1.03118 -0.115119 0.00132208 -0.00493438 0.944878)
(1.02704 -0.0101064 -0.195901 -0.0317645 1.02392 -0.151437 0.00215892 -0.00462981 0.944878)
(1.03411 -0.00831061 -0.166628 -0.0299687 1.01686 -0.183155 0.00293015 -0.00418466 0.944878)
(1.04013 -0.00420627 -0.132292 -0.0258643 1.01083 -0.209307 0.00361226 -0.00361226 0.944878)
(1.04439 0.00171157 -0.0939365 -0.0199463 1.00657 -0.229099 0.00418473 -0.00293011 0.944878)
(1.04637 0.00872909 -0.0527266 -0.0129288 1.00459 -0.24193 0.00463002 -0.00215893 0.944878)
(1.04583 0.0159999 -0.00991481 -0.00565798 1.00513 -0.247411 0.00493456 -0.00132219 0.944878)
(1.04283 0.022647 0.0331982 0.000989086 1.00813 -0.245374 0.00508913 -0.000445263 0.944878)
(1.03774 0.0278687 0.0753025 0.00621066 1.01322 -0.235881 0.00508909 0.000445173 0.944878)
(1.03118 0.0310352 0.115119 0.00937708 1.01979 -0.219222 0.00493438 0.00132208 0.944878)
(1.02392 0.0317645 0.151437 0.0101064 1.02704 -0.195901 0.00462981 0.00215892 0.944878)
(1.01686 0.0299687 0.183155 0.00831061 1.03411 -0.166628 0.00418466 0.00293015 0.944878)
(1.01083 0.0258643 0.209307 0.00420627 1.04013 -0.132292 0.00361226 0.00361226 0.944878)
(1.00657 0.0199463 0.229099 -0.00171157 1.04439 -0.0939365 0.00293011 0.00418473 0.944878)
(1.00459 0.0129288 0.24193 -0.00872909 1.04637 -0.0527266 0.00215893 0.00463002 0.944878)
(1.00513 0.00565798 0.247411 -0.0159999 1.04583 -0.00991481 0.00132219 0.00493456 0.944878)
(1.00813 -0.000989086 0.245374 -0.022647 1.04283 0.0331982 0.000445263 0.00508913 0.944878)
(1.01322 -0.00621066 0.235881 -0.0278687 1.03774 0.0753025 -0.000445173 0.00508909 0.944878)
(1.01979 -0.00937708 0.219222 -0.0310352 1.03118 0.115119 -0.00132208 0.00493438 0.944878)
(1.02704 -0.0101064 0.195901 -0.0317645 1.02392 0.151437 -0.00215892 0.00462981 0.944878)
(1.03411 -0.00831061 0.166628 -0.0299687 1.01686 0.183155 -0.00293015 0.00418466 0.944878)
(1.04013 -0.00420627 0.132292 -0.0258643 1.01083 0.209307 -0.00361226 0.00361226 0.944878)
(1.04439 0.00171157 0.0939365 -0.0199463 1.00657 0.229099 -0.00418473 0.00293011 0.944878)
(1.04637 0.00872909 0.0527266 -0.0129288 1.00459 0.24193 -0.00463002 0.00215893 0.944878)
(1.04583 0.0159999 0.00991481 -0.00565798 1.00513 0.247411 -0.00493456 0.00132219 0.944878)
(1.04283 0.022647 -0.0331982 0.000989086 1.00813 0.245374 -0.00508913 0.000445263 0.944878)
(1.04419 0.0323602 -0.064935 0.00662341 1.00993 0.23995 -0.00326264 -0.000285426 0.935818)
(1.03649 0.0370434 -0.105615 0.0113065 1.01763 0.225029 -0.00316339 -0.000847563 0.935818)
(1.02765 0.0388107 -0.143087 0.0130739 1.02647 0.20327 -0.00296816 -0.00138404 0.935818)
(1.01874 0.037449 -0.17621 0.0117122 1.03538 0.175335 -0.00268278 -0.0018785 0.935818)
(1.01084 0.0331224 -0.20398 0.00738563 1.04328 0.142073 -0.0023158 -0.00231578 0.935818)
(1.00489 0.0263529 -0.225552 0.000616127 1.04923 0.104494 -0.00187848 -0.00268277 0.935818)
(1.00161 0.017957 -0.240271 -0.00777967 1.05251 0.0637398 -0.00138406 -0.00296828 0.935818)
(1.00141 0.00894733 -0.247689 -0.0167893 1.05271 0.0210489 -0.000847641 -0.00316359 0.935818)
(1.0043 0.000410657 -0.247581 -0.0253261 1.04982 -0.0222815 -0.000285437 -0.00326268 0.935818)
(1.00993 -0.00662341 -0.23995 -0.0323602 1.04419 -0.064935 0.000285426 -0.00326264 0.935818)
(1.01763 -0.0113065 -0.225029 -0.0370434 1.03649 -0.105615 0.000847563 -0.00316339 0.935818)
(1.02647 -0.0130739 -0.20327 -0.0388107 1.02765 -0.143087 0.00138404 -0.00296816 0.935818)
(1.03538 -0.0117122 -0.175335 -0.037449 1.01874 -0.17621 0.0018785 -0.00268278 0.935818)
(1.04328 -0.00738563 -0.142073 -0.0331224 1.01084 -0.20398 0.00231578 -0.0023158 0.935818)
(1.04923 -0.000616127 -0.104494 -0.0263529 1.00489 -0.225552 0.00268277 -0.00187848 0.935818)
(1.05251 0.00777967 -0.0637398 -0.017957 1.00161 -0.240271 0.00296828 -0.00138406 0.935818)
(1.05271 0.0167893 -0.0210489 -0.00894733 1.00141 -0.247689 0.00316359 -0.000847641 0.935818)
(1.04982 0.0253261 0.0222815 -0.000410657 1.0043 -0.247581 0.00326268 -0.000285437 0.935818)
(1.04419 0.0323602 0.064935 0.00662341 1.00993 -0.23995 0.00326264 0.000285426 0.935818)
(1.03649 0.0370434 0.105615 0.0113065 1.01763 -0.225029 0.00316339 0.000847563 0.935818)
(1.02765 0.0388107 0.143087 0.0130739 1.02647 -0.20327 0.00296816 0.00138404 0.935818)
(1.01874 0.037449 0.17621 0.0117122 1.03538 -0.175335 0.00268278 0.0018785 0.935818)
(1.01084 0.0331224 0.20398 0.00738563 1.04328 -0.142073 0.0023158 0.00231578 0.935818)
(1.00489 0.0263529 0.225552 0.000616127 1.04923 -0.104494 0.00187848 0.00268277 0.935818)
(1.00161 0.017957 0.240271 -0.00777967 1.05251 -0.0637398 0.00138406 0.00296828 0.935818)
(1.00141 0.00894733 0.247689 -0.0167893 1.05271 -0.0210489 0.000847641 0.00316359 0.935818)
(1.0043 0.000410657 0.247581 -0.0253261 1.04982 0.0222815 0.000285437 0.00326268 0.935818)
(1.00993 -0.00662341 0.23995 -0.0323602 1.04419 0.064935 -0.000285426 0.00326264 0.935818)
(1.01763 -0.0113065 0.225029 -0.0370434 1.03649 0.105615 -0.000847563 0.00316339 0.935818)
(1.02647 -0.0130739 0.20327 -0.0388107 1.02765 0.143087 -0.00138404 0.00296816 0.935818)
(1.03538 -0.0117122 0.175335 -0.037449 1.01874 0.17621 -0.0018785 0.00268278 0.935818)
(1.04328 -0.00738563 0.142073 -0.0331224 1.01084 0.20398 -0.00231578 0.0023158 0.935818)
(1.04923 -0.000616127 0.104494 -0.0263529 1.00489 0.225552 -0.00268277 0.00187848 0.935818)
(1.05251 0.00777967 0.0637398 -0.017957 1.00161 0.240271 -0.00296828 0.00138406 0.935818)
(1.05271 0.0167893 0.0210489 -0.00894733 1.00141 0.247689 -0.00316359 0.000847641 0.935818)
(1.04982 0.0253261 -0.0222815 -0.000410657 1.0043 0.247581 -0.00326268 0.000285437 0.935818)
(1.05066 0.0378805 -0.053412 0.00689731 1.00379 0.243578 -0.00126875 -0.000111054 0.927514)
(1.04159 0.0445453 -0.0948975 0.0135621 1.01286 0.230603 -0.00123006 -0.000329579 0.927514)
(1.03079 0.0477058 -0.1335 0.0167226 1.02366 0.210621 -0.00115417 -0.000538122 0.927514)
(1.01955 0.0469809 -0.168045 0.0159975 1.0349 0.184239 -0.00104319 -0.000730455 0.927514)
(1.00925 0.0424577 -0.197485 0.0114744 1.0452 0.152259 -0.000900447 -0.000900474 0.927514)
(1.00111 0.0346819 -0.220924 0.00369882 1.05334 0.115653 -0.000730402 -0.00104313 0.927514)
(0.996118 0.0245918 -0.237651 -0.0063914 1.05833 0.0755329 -0.000538217 -0.00115416 0.927514)
(0.994882 0.0134039 -0.247157 -0.0175793 1.05957 0.0331178 -0.000329664 -0.00123026 0.927514)
(0.997547 0.00246783 -0.249153 -0.0285154 1.0569 -0.0103036 -0.000110963 -0.00126879 0.927514)
(1.00379 -0.00689731 -0.243578 -0.0378805 1.05066 -0.053412 0.000111054 -0.00126875 0.927514)
(1.01286 -0.0135621 -0.230603 -0.0445453 1.04159 -0.0948975 0.000329579 -0.00123006 0.927514)
(1.02366 -0.0167226 -0.210621 -0.0477058 1.03079 -0.1335 0.000538122 -0.00115417 0.927514)
(1.0349 -0.0159975 -0.184239 -0.0469809 1.01955 -0.168045 0.000730455 -0.00104319 0.927514)
(1.0452 -0.0114744 -0.152259 -0.0424577 1.00925 -0.197485 0.000900474 -0.000900447 0.927514)
(1.05334 -0.00369882 -0.115653 -0.0346819 1.00111 -0.220924 0.00104313 -0.000730402 0.927514)
(1.05833 0.0063914 -0.0755329 -0.0245918 0.996118 -0.237651 0.00115416 -0.000538217 0.927514)
(1.05957 0.0175793 -0.0331178 -0.0134039 0.994882 -0.247157 0.00123026 -0.000329664 0.927514)
(1.0569 0.0285154 0.0103036 -0.00246783 0.997547 -0.249153 0.00126879 -0.000110963 0.927514)
(1.05066 0.0378805 0.053412 0.00689731 1.00379 -0.243578 0.00126875 0.000111054 0.927514)
(1.04159 0.0445453 0.0948975 0.0135621 1.01286 -0.230603 0.00123006 0.000329579 0.927514)
(1.03079 0.0477058 0.1335 0.0167226 1.02366 -0.210621 0.00115417 0.000538122 0.927514)
(1.01955 0.0469809 0.168045 0.0159975 1.0349 -0.184239 0.00104319 0.000730455 0.927514)
(1.00925 0.0424577 0.197485 0.0114744 1.0452 -0.152259 0.000900447 0.000900474 0.927514)
(1.00111 0.0346819 0.220924 0.00369882 1.05334 -0.115653 0.000730402 0.00104313 0.927514)
(0.996118 0.0245918 0.237651 -0.0063914 1.05833 -0.0755329 0.000538217 0.00115416 0.927514)
(0.994882 0.0134039 0.247157 -0.0175793 1.05957 -0.0331178 0.000329664 0.00123026 0.927514)
(0.997547 0.00246783 0.249153 -0.0285154 1.0569 0.0103036 0.000110963 0.00126879 0.927514)
(1.00379 -0.00689731 0.243578 -0.0378805 1.05066 0.053412 -0.000111054 0.00126875 0.927514)
(1.01286 -0.0135621 0.230603 -0.0445453 1.04159 0.0948975 -0.000329579 0.00123006 0.927514)
(1.02366 -0.0167226 0.210621 -0.0477058 1.03079 0.1335 -0.000538122 0.00115417 0.927514)
(1.0349 -0.0159975 0.184239 -0.0469809 1.01955 0.168045 -0.000730455 0.00104319 0.927514)
(1.0452 -0.0114744 0.152259 -0.0424577 1.00925 0.197485 -0.000900474 0.000900447 0.927514)
(1.05334 -0.00369882 0.115653 -0.0346819 1.00111 0.220924 -0.00104313 0.000730402 0.927514)
(1.05833 0.0063914 0.0755329 -0.0245918 0.996118 0.237651 -0.00115416 0.000538217 0.927514)
(1.05957 0.0175793 0.0331178 -0.0134039 0.994882 0.247157 -0.00123026 0.000329664 0.927514)
(1.0569 0.0285154 -0.0103036 -0.00246783 0.997547 0.249153 -0.00126879 0.000110963 0.927514)
(1.05273 0.0774813 -0.0696318 0.0121195 1.02975 0.235677 -0.0231574 -0.00202589 0.927389)
(1.03671 0.0787084 -0.109499 0.0133465 1.04577 0.220005 -0.0224537 -0.00601627 0.927389)
(1.02124 0.0743839 -0.146039 0.00902203 1.06124 0.197649 -0.0210678 -0.0098239 0.927388)
(1.00818 0.0650294 -0.178141 -0.000332429 1.07429 0.169286 -0.0190418 -0.0133331 0.927388)
(0.999114 0.051773 -0.204831 -0.0135887 1.08336 0.135781 -0.016437 -0.0164371 0.927389)
(0.995125 0.0362139 -0.225298 -0.0291477 1.08735 0.0981493 -0.013333 -0.0190419 0.927389)
(0.996698 0.0202287 -0.238918 -0.0451328 1.08578 0.0575357 -0.00982398 -0.0210682 0.927389)
(1.00364 0.00574549 -0.24528 -0.059616 1.07884 0.0151738 -0.0060165 -0.022454 0.927389)
(1.01512 -0.00548894 -0.244188 -0.0708505 1.06736 -0.0276491 -0.0020261 -0.0231575 0.927389)
(1.02975 -0.0121195 -0.235677 -0.0774813 1.05273 -0.0696318 0.00202589 -0.0231574 0.927389)
(1.04577 -0.0133465 -0.220005 -0.0787084 1.03671 -0.109499 0.00601627 -0.0224537 0.927389)
(1.06124 -0.00902203 -0.197649 -0.0743839 1.02124 -0.146039 0.0098239 -0.0210678 0.927388)
(1.07429 0.000332429 -0.169286 -0.0650294 1.00818 -0.178141 0.0133331 -0.0190418 0.927388)
(1.08336 0.0135887 -0.135781 -0.051773 0.999114 -0.204831 0.0164371 -0.016437 0.927389)
(1.08735 0.0291477 -0.0981493 -0.0362139 0.995125 -0.225298 0.0190419 -0.013333 0.927389)
(1.08578 0.0451328 -0.0575357 -0.0202287 0.996698 -0.238918 0.0210682 -0.00982398 0.927389)
(1.07884 0.059616 -0.0151738 -0.00574549 1.00364 -0.24528 0.022454 -0.0060165 0.927389)
(1.06736 0.0708505 0.0276491 0.00548894 1.01512 -0.244188 0.0231575 -0.0020261 0.927389)
(1.05273 0.0774813 0.0696318 0.0121195 1.02975 -0.235677 0.0231574 0.00202589 0.927389)
(1.03671 0.0787084 0.109499 0.0133465 1.04577 -0.220005 0.0224537 0.00601627 0.927389)
(1.02124 0.0743839 0.146039 0.00902203 1.06124 -0.197649 0.0210678 0.0098239 0.927388)
(1.00818 0.0650294 0.178141 -0.000332429 1.07429 -0.169286 0.0190418 0.0133331 0.927388)
(0.999114 0.051773 0.204831 -0.0135887 1.08336 -0.135781 0.016437 0.0164371 0.927389)
(0.995125 0.0362139 0.225298 -0.0291477 1.08735 -0.0981493 0.013333 0.0190419 0.927389)
(0.996698 0.0202287 0.238918 -0.0451328 1.08578 -0.0575357 0.00982398 0.0210682 0.927389)
(1.00364 0.00574549 0.24528 -0.059616 1.07884 -0.0151738 0.0060165 0.022454 0.927389)
(1.01512 -0.00548894 0.244188 -0.0708505 1.06736 0.0276491 0.0020261 0.0231575 0.927389)
(1.02975 -0.0121195 0.235677 -0.0774813 1.05273 0.0696318 -0.00202589 0.0231574 0.927389)
(1.04577 -0.0133465 0.220005 -0.0787084 1.03671 0.109499 -0.00601627 0.0224537 0.927389)
(1.06124 -0.00902203 0.197649 -0.0743839 1.02124 0.146039 -0.0098239 0.0210678 0.927388)
(1.07429 0.000332429 0.169286 -0.0650294 1.00818 0.178141 -0.0133331 0.0190418 0.927388)
(1.08336 0.0135887 0.135781 -0.051773 0.999114 0.204831 -0.0164371 0.016437 0.927389)
(1.08735 0.0291477 0.0981493 -0.0362139 0.995125 0.225298 -0.0190419 0.013333 0.927389)
(1.08578 0.0451328 0.0575357 -0.0202287 0.996698 0.238918 -0.0210682 0.00982398 0.927389)
(1.07884 0.059616 0.0151738 -0.00574549 1.00364 0.24528 -0.022454 0.0060165 0.927389)
(1.06736 0.0708505 -0.0276491 0.00548894 1.01512 0.244188 -0.0231575 0.0020261 0.927389)
(1.05963 0.0884833 -0.0588513 0.012386 1.02608 0.237863 -0.0205521 -0.00179802 0.919787)
(1.04137 0.0911803 -0.0992617 0.0150828 1.04434 0.22403 -0.0199275 -0.00533942 0.919787)
(1.02329 0.0874688 -0.136656 0.0113713 1.06242 0.20339 -0.0186975 -0.00871865 0.919787)
(1.00757 0.0777965 -0.169898 0.00169902 1.07814 0.17657 -0.0168994 -0.011833 0.919787)
(0.9961 0.0633299 -0.197978 -0.0127675 1.08961 0.144385 -0.0145878 -0.0145878 0.919787)
(0.990273 0.045814 -0.220043 -0.0302833 1.09544 0.107813 -0.011833 -0.0168995 0.919787)
(0.990788 0.0273615 -0.235421 -0.0487356 1.09492 0.0679648 -0.00871878 -0.0186979 0.919787)
(0.997583 0.0101982 -0.243646 -0.065899 1.08813 0.0260518 -0.00533958 -0.0199278 0.919787)
(1.00984 -0.00360598 -0.244469 -0.0797032 1.07587 -0.0166528 -0.00179808 -0.0205521 0.919787)
(1.02608 -0.012386 -0.237863 -0.0884833 1.05963 -0.0588513 0.00179802 -0.0205521 0.919787)
(1.04434 -0.0150828 -0.22403 -0.0911803 1.04137 -0.0992617 0.00533942 -0.0199275 0.919787)
(1.06242 -0.0113713 -0.20339 -0.0874688 1.02329 -0.136656 0.00871865 -0.0186975 0.919787)
(1.07814 -0.00169902 -0.17657 -0.0777965 1.00757 -0.169898 0.011833 -0.0168994 0.919787)
(1.08961 0.0127675 -0.144385 -0.0633299 0.9961 -0.197978 0.0145878 -0.0145878 0.919787)
(1.09544 0.0302833 -0.107813 -0.045814 0.990273 -0.220043 0.0168995 -0.011833 0.919787)
(1.09492 0.0487356 -0.0679648 -0.0273615 0.990788 -0.235421 0.0186979 -0.00871878 0.919787)
(1.08813 0.065899 -0.0260518 -0.0101982 0.997583 -0.243646 0.0199278 -0.00533958 0.919787)
(1.07587 0.0797032 0.0166528 0.00360598 1.00984 -0.244469 0.0205521 -0.00179808 0.919787)
(1.05963 0.0884833 0.0588513 0.012386 1.02608 -0.237863 0.0205521 0.00179802 0.919787)
(1.04137 0.0911803 0.0992617 0.0150828 1.04434 -0.22403 0.0199275 0.00533942 0.919787)
(1.02329 0.0874688 0.136656 0.0113713 1.06242 -0.20339 0.0186975 0.00871865 0.919787)
(1.00757 0.0777965 0.169898 0.00169902 1.07814 -0.17657 0.0168994 0.011833 0.919787)
(0.9961 0.0633299 0.197978 -0.0127675 1.08961 -0.144385 0.0145878 0.0145878 0.919787)
(0.990273 0.045814 0.220043 -0.0302833 1.09544 -0.107813 0.011833 0.0168995 0.919787)
(0.990788 0.0273615 0.235421 -0.0487356 1.09492 -0.0679648 0.00871878 0.0186979 0.919787)
(0.997583 0.0101982 0.243646 -0.065899 1.08813 -0.0260518 0.00533958 0.0199278 0.919787)
(1.00984 -0.00360598 0.244469 -0.0797032 1.07587 0.0166528 0.00179808 0.0205521 0.919787)
(1.02608 -0.012386 0.237863 -0.0884833 1.05963 0.0588513 -0.00179802 0.0205521 0.919787)
(1.04434 -0.0150828 0.22403 -0.0911803 1.04137 0.0992617 -0.00533942 0.0199275 0.919787)
(1.06242 -0.0113713 0.20339 -0.0874688 1.02329 0.136656 -0.00871865 0.0186975 0.919787)
(1.07814 -0.00169902 0.17657 -0.0777965 1.00757 0.169898 -0.011833 0.0168994 0.919787)
(1.08961 0.0127675 0.144385 -0.0633299 0.9961 0.197978 -0.0145878 0.0145878 0.919787)
(1.09544 0.0302833 0.107813 -0.045814 0.990273 0.220043 -0.0168995 0.011833 0.919787)
(1.09492 0.0487356 0.0679648 -0.0273615 0.990788 0.235421 -0.0186979 0.00871878 0.919787)
(1.08813 0.065899 0.0260518 -0.0101982 0.997583 0.243646 -0.0199278 0.00533958 0.919787)
(1.07587 0.0797032 -0.0166528 0.00360598 1.00984 0.244469 -0.0205521 0.00179808 0.919787)
(1.06661 0.101992 -0.0476925 0.0117933 1.01915 0.239402 -0.0179268 -0.00156842 0.912534)
(1.04572 0.106678 -0.0885396 0.0164788 1.04004 0.227483 -0.0173819 -0.00465743 0.912534)
(1.02449 0.103936 -0.126697 0.013737 1.06127 0.208652 -0.0163091 -0.0076049 0.912534)
(1.00547 0.094098 -0.161004 0.00389875 1.08028 0.183482 -0.0147407 -0.0103214 0.912534)
(0.990969 0.0783496 -0.190419 -0.0118495 1.09478 0.152736 -0.0127243 -0.0127243 0.912534)
(0.982727 0.0585908 -0.214049 -0.0316081 1.10303 0.11735 -0.0103215 -0.0147407 0.912534)
(0.98174 0.0372048 -0.231174 -0.0529941 1.10401 0.0783978 -0.0076051 -0.0163093 0.912534)
(0.988127 0.016771 -0.241276 -0.0734278 1.09763 0.0370638 -0.00465747 -0.0173822 0.912534)
(1.00112 -0.000245767 -0.244046 -0.0904448 1.08464 -0.00539629 -0.00156834 -0.0179268 0.912534)
(1.01915 -0.0117933 -0.239402 -0.101992 1.06661 -0.0476925 0.00156842 -0.0179268 0.912534)
(1.04004 -0.0164788 -0.227483 -0.106678 1.04572 -0.0885396 0.00465743 -0.0173819 0.912534)
(1.06127 -0.013737 -0.208652 -0.103936 1.02449 -0.126697 0.0076049 -0.0163091 0.912534)
(1.08028 -0.00389875 -0.183482 -0.094098 1.00547 -0.161004 0.0103214 -0.0147407 0.912534)
(1.09478 0.0118495 -0.152736 -0.0783496 0.990969 -0.190419 0.0127243 -0.0127243 0.912534)
(1.10303 0.0316081 -0.11735 -0.0585908 0.982727 -0.214049 0.0147407 -0.0103215 0.912534)
(1.10401 0.0529941 -0.0783978 -0.0372048 0.98174 -0.231174 0.0163093 -0.0076051 0.912534)
(1.09763 0.0734278 -0.0370638 -0.016771 0.988127 -0.241276 0.0173822 -0.00465747 0.912534)
(1.08464 0.0904448 0.00539629 0.000245767 1.00112 -0.244046 0.0179268 -0.00156834 0.912534)
(1.06661 0.101992 0.0476925 0.0117933 1.01915 -0.239402 0.0179268 0.00156842 0.912534)
(1.04572 0.106678 0.0885396 0.0164788 1.04004 -0.227483 0.0173819 0.00465743 0.912534)
(1.02449 0.103936 0.126697 0.013737 1.06127 -0.208652 0.0163091 0.0076049 0.912534)
(1.00547 0.094098 0.161004 0.00389875 1.08028 -0.183482 0.0147407 0.0103214 0.912534)
(0.990969 0.0783496 0.190419 -0.0118495 1.09478 -0.152736 0.0127243 0.0127243 0.912534)
(0.982727 0.0585908 0.214049 -0.0316081 1.10303 -0.11735 0.0103215 0.0147407 0.912534)
(0.98174 0.0372048 0.231174 -0.0529941 1.10401 -0.0783978 0.0076051 0.0163093 0.912534)
(0.988127 0.016771 0.241276 -0.0734278 1.09763 -0.0370638 0.00465747 0.0173822 0.912534)
(1.00112 -0.000245767 0.244046 -0.0904448 1.08464 0.00539629 0.00156834 0.0179268 0.912534)
(1.01915 -0.0117933 0.239402 -0.101992 1.06661 0.0476925 -0.00156842 0.0179268 0.912534)
(1.04004 -0.0164788 0.227483 -0.106678 1.04572 0.0885396 -0.00465743 0.0173819 0.912534)
(1.06127 -0.013737 0.208652 -0.103936 1.02449 0.126697 -0.0076049 0.0163091 0.912534)
(1.08028 -0.00389875 0.183482 -0.094098 1.00547 0.161004 -0.0103214 0.0147407 0.912534)
(1.09478 0.0118495 0.152736 -0.0783496 0.990969 0.190419 -0.0127243 0.0127243 0.912534)
(1.10303 0.0316081 0.11735 -0.0585908 0.982727 0.214049 -0.0147407 0.0103215 0.912534)
(1.10401 0.0529941 0.0783978 -0.0372048 0.98174 0.231174 -0.0163093 0.0076051 0.912534)
(1.09763 0.0734278 0.0370638 -0.016771 0.988127 0.241276 -0.0173822 0.00465747 0.912534)
(1.08464 0.0904448 -0.00539629 0.000245767 1.00112 0.244046 -0.0179268 0.00156834 0.912534)
(1.06974 0.126729 -0.0565584 0.0110944 1.04329 0.232434 -0.0350578 -0.00306694 0.900611)
(1.04537 0.127095 -0.0960609 0.0114604 1.06766 0.219082 -0.0339924 -0.00910796 0.900611)
(1.02235 0.119105 -0.132645 0.00347053 1.09068 0.199072 -0.0318942 -0.0148723 0.900611)
(1.00345 0.103723 -0.165198 -0.0119115 1.10958 0.173015 -0.028827 -0.0201848 0.900611)
(0.990946 0.0828041 -0.192732 -0.0328306 1.12208 0.1417 -0.0248839 -0.024884 0.900611)
(0.986354 0.0588712 -0.21441 -0.0567634 1.12668 0.106079 -0.0201848 -0.0288273 0.900611)
(0.990225 0.0348113 -0.229573 -0.0808233 1.1228 0.0672361 -0.0148725 -0.0318947 0.900611)
(1.00209 0.0135264 -0.237761 -0.102108 1.11094 0.0263496 -0.00910825 -0.0339927 0.900611)
(1.02052 -0.00241651 -0.238724 -0.118051 1.09251 -0.0153374 -0.00306719 -0.0350579 0.900611)
(1.04329 -0.0110944 -0.232434 -0.126729 1.06974 -0.0565584 0.00306694 -0.0350578 0.900611)
(1.06766 -0.0114604 -0.219082 -0.127095 1.04537 -0.0960609 0.00910796 -0.0339924 0.900611)
(1.09068 -0.00347053 -0.199072 -0.119105 1.02235 -0.132645 0.0148723 -0.0318942 0.900611)
(1.10958 0.0119115 -0.173015 -0.103723 1.00345 -0.165198 0.0201848 -0.028827 0.900611)
(1.12208 0.0328306 -0.1417 -0.0828041 0.990946 -0.192732 0.024884 -0.0248839 0.900611)
(1.12668 0.0567634 -0.106079 -0.0588712 0.986354 -0.21441 0.0288273 -0.0201848 0.900611)
(1.1228 0.0808233 -0.0672361 -0.0348113 0.990225 -0.229573 0.0318947 -0.0148725 0.900611)
(1.11094 0.102108 -0.0263496 -0.0135264 1.00209 -0.237761 0.0339927 -0.00910825 0.900611)
(1.09251 0.118051 0.0153374 0.00241651 1.02052 -0.238724 0.0350579 -0.00306719 0.900611)
(1.06974 0.126729 0.0565584 0.0110944 1.04329 -0.232434 0.0350578 0.00306694 0.900611)
(1.04537 0.127095 0.0960609 0.0114604 1.06766 -0.219082 0.0339924 0.00910796 0.900611)
(1.02235 0.119105 0.132645 0.00347053 1.09068 -0.199072 0.0318942 0.0148723 0.900611)
(1.00345 0.103723 0.165198 -0.0119115 1.10958 -0.173015 0.028827 0.0201848 0.900611)
(0.990946 0.0828041 0.192732 -0.0328306 1.12208 -0.1417 0.0248839 0.024884 0.900611)
(0.986354 0.0588712 0.21441 -0.0567634 1.12668 -0.106079 0.0201848 0.0288273 0.900611)
(0.990225 0.0348113 0.229573 -0.0808233 1.1228 -0.0672361 0.0148725 0.0318947 0.900611)
(1.00209 0.0135264 0.237761 -0.102108 1.11094 -0.0263496 0.00910825 0.0339927 0.900611)
(1.02052 -0.00241651 0.238724 -0.118051 1.09251 0.0153374 0.00306719 0.0350579 0.900611)
(1.04329 -0.0110944 0.232434 -0.126729 1.06974 0.0565584 -0.00306694 0.0350578 0.900611)
(1.06766 -0.0114604 0.219082 -0.127095 1.04537 0.0960609 -0.00910796 0.0339924 0.900611)
(1.09068 -0.00347053 0.199072 -0.119105 1.02235 0.132645 -0.0148723 0.0318942 0.900611)
(1.10958 0.0119115 0.173015 -0.103723 1.00345 0.165198 -0.0201848 0.028827 0.900611)
(1.12208 0.0328306 0.1417 -0.0828041 0.990946 0.192732 -0.024884 0.0248839 0.900611)
(1.12668 0.0567634 0.106079 -0.0588712 0.986354 0.21441 -0.0288273 0.0201848 0.900611)
(1.1228 0.0808233 0.0672361 -0.0348113 0.990225 0.229573 -0.0318947 0.0148725 0.900611)
(1.11094 0.102108 0.0263496 -0.0135264 1.00209 0.237761 -0.0339927 0.00910825 0.900611)
(1.09251 0.118051 -0.0153374 0.00241651 1.02052 0.238724 -0.0350579 0.00306719 0.900611)
(1.07572 0.14273 -0.0471672 0.0108947 1.03856 0.229966 -0.0326988 -0.00286068 0.895573)
(1.04833 0.144453 -0.0863838 0.0126178 1.06595 0.218282 -0.031705 -0.00849517 0.895573)
(1.022 0.136703 -0.122976 0.00486842 1.09228 0.199965 -0.029748 -0.0138716 0.895573)
(0.999908 0.120416 -0.155831 -0.0114187 1.11437 0.175573 -0.0268872 -0.0188266 0.895573)
(0.984719 0.0975554 -0.183951 -0.0342792 1.12956 0.145846 -0.0232095 -0.0232096 0.895573)
(0.978266 0.0708788 -0.206483 -0.0609558 1.13601 0.111687 -0.0188266 -0.0268875 0.895573)
(0.981325 0.0436038 -0.22274 -0.0882308 1.13295 0.074135 -0.0138718 -0.0297484 0.895573)
(0.993529 0.0190202 -0.23223 -0.112814 1.12075 0.0343303 -0.00849535 -0.0317053 0.895573)
(1.01341 9.31082e-05 -0.234663 -0.131742 1.10087 -0.00651744 -0.00286078 -0.0326989 0.895573)
(1.03856 -0.0108947 -0.229966 -0.14273 1.07572 -0.0471672 0.00286068 -0.0326988 0.895573)
(1.06595 -0.0126178 -0.218282 -0.144453 1.04833 -0.0863838 0.00849517 -0.031705 0.895573)
(1.09228 -0.00486842 -0.199965 -0.136703 1.022 -0.122976 0.0138716 -0.029748 0.895573)
(1.11437 0.0114187 -0.175573 -0.120416 0.999908 -0.155831 0.0188266 -0.0268872 0.895573)
(1.12956 0.0342792 -0.145846 -0.0975554 0.984719 -0.183951 0.0232096 -0.0232095 0.895573)
(1.13601 0.0609558 -0.111687 -0.0708788 0.978266 -0.206483 0.0268875 -0.0188266 0.895573)
(1.13295 0.0882308 -0.074135 -0.0436038 0.981325 -0.22274 0.0297484 -0.0138718 0.895573)
(1.12075 0.112814 -0.0343303 -0.0190202 0.993529 -0.23223 0.0317053 -0.00849535 0.895573)
(1.10087 0.131742 0.00651744 -9.31082e-05 1.01341 -0.234663 0.0326989 -0.00286078 0.895573)
(1.07572 0.14273 0.0471672 0.0108947 1.03856 -0.229966 0.0326988 0.00286068 0.895573)
(1.04833 0.144453 0.0863838 0.0126178 1.06595 -0.218282 0.031705 0.00849517 0.895573)
(1.022 0.136703 0.122976 0.00486842 1.09228 -0.199965 0.029748 0.0138716 0.895573)
(0.999908 0.120416 0.155831 -0.0114187 1.11437 -0.175573 0.0268872 0.0188266 0.895573)
(0.984719 0.0975554 0.183951 -0.0342792 1.12956 -0.145846 0.0232095 0.0232096 0.895573)
(0.978266 0.0708788 0.206483 -0.0609558 1.13601 -0.111687 0.0188266 0.0268875 0.895573)
(0.981325 0.0436038 0.22274 -0.0882308 1.13295 -0.074135 0.0138718 0.0297484 0.895573)
(0.993529 0.0190202 0.23223 -0.112814 1.12075 -0.0343303 0.00849535 0.0317053 0.895573)
(1.01341 9.31082e-05 0.234663 -0.131742 1.10087 0.00651744 0.00286078 0.0326989 0.895573)
(1.03856 -0.0108947 0.229966 -0.14273 1.07572 0.0471672 -0.00286068 0.0326988 0.895573)
(1.06595 -0.0126178 0.218282 -0.144453 1.04833 0.0863838 -0.00849517 0.031705 0.895573)
(1.09228 -0.00486842 0.199965 -0.136703 1.022 0.122976 -0.0138716 0.029748 0.895573)
(1.11437 0.0114187 0.175573 -0.120416 0.999908 0.155831 -0.0188266 0.0268872 0.895573)
(1.12956 0.0342792 0.145846 -0.0975554 0.984719 0.183951 -0.0232096 0.0232095 0.895573)
(1.13601 0.0609558 0.111687 -0.0708788 0.978266 0.206483 -0.0268875 0.0188266 0.895573)
(1.13295 0.0882308 0.074135 -0.0436038 0.981325 0.22274 -0.0297484 0.0138718 0.895573)
(1.12075 0.112814 0.0343303 -0.0190202 0.993529 0.23223 -0.0317053 0.00849535 0.895573)
(1.10087 0.131742 -0.00651744 -9.31082e-05 1.01341 0.234663 -0.0326989 0.00286078 0.895573)
(1.08165 0.162233 -0.0383024 0.0091461 1.03043 0.226911 -0.0300574 -0.00262968 0.890479)
(1.05079 0.165823 -0.0771233 0.0127362 1.06129 0.216813 -0.029144 -0.00780906 0.890479)
(1.02058 0.158645 -0.113601 0.005558 1.09151 0.200127 -0.027345 -0.0127511 0.890479)
(0.994634 0.141564 -0.146627 -0.0115229 1.11745 0.17736 -0.0247154 -0.0173058 0.890479)
(0.976099 0.11664 -0.175197 -0.0364463 1.13598 0.149204 -0.0213347 -0.0213347 0.890479)
(0.967206 0.0868805 -0.198444 -0.0662059 1.14487 0.116515 -0.017306 -0.0247155 0.890479)
(0.969028 0.0558741 -0.215662 -0.0972124 1.14305 0.0802849 -0.0127513 -0.0273454 0.890479)
(0.981345 0.0273606 -0.226327 -0.125726 1.13074 0.0416158 -0.00780912 -0.0291442 0.890479)
(1.00267 0.00477941 -0.230115 -0.148307 1.10941 0.00168232 -0.00262965 -0.0300575 0.890479)
(1.03043 -0.0091461 -0.226911 -0.162233 1.08165 -0.0383024 0.00262968 -0.0300574 0.890479)
(1.06129 -0.0127362 -0.216813 -0.165823 1.05079 -0.0771233 0.00780906 -0.029144 0.890479)
(1.09151 -0.005558 -0.200127 -0.158645 1.02058 -0.113601 0.0127511 -0.027345 0.890479)
(1.11745 0.0115229 -0.17736 -0.141564 0.994634 -0.146627 0.0173058 -0.0247154 0.890479)
(1.13598 0.0364463 -0.149204 -0.11664 0.976099 -0.175197 0.0213347 -0.0213347 0.890479)
(1.14487 0.0662059 -0.116515 -0.0868805 0.967206 -0.198444 0.0247155 -0.017306 0.890479)
(1.14305 0.0972124 -0.0802849 -0.0558741 0.969028 -0.215662 0.0273454 -0.0127513 0.890479)
(1.13074 0.125726 -0.0416158 -0.0273606 0.981345 -0.226327 0.0291442 -0.00780912 0.890479)
(1.10941 0.148307 -0.00168232 -0.00477941 1.00267 -0.230115 0.0300575 -0.00262965 0.890479)
(1.08165 0.162233 0.0383024 0.0091461 1.03043 -0.226911 0.0300574 0.00262968 0.890479)
(1.05079 0.165823 0.0771233 0.0127362 1.06129 -0.216813 0.029144 0.00780906 0.890479)
(1.02058 0.158645 0.113601 0.005558 1.09151 -0.200127 0.027345 0.0127511 0.890479)
(0.994634 0.141564 0.146627 -0.0115229 1.11745 -0.17736 0.0247154 0.0173058 0.890479)
(0.976099 0.11664 0.175197 -0.0364463 1.13598 -0.149204 0.0213347 0.0213347 0.890479)
(0.967206 0.0868805 0.198444 -0.0662059 1.14487 -0.116515 0.017306 0.0247155 0.890479)
(0.969028 0.0558741 0.215662 -0.0972124 1.14305 -0.0802849 0.0127513 0.0273454 0.890479)
(0.981345 0.0273606 0.226327 -0.125726 1.13074 -0.0416158 0.00780912 0.0291442 0.890479)
(1.00267 0.00477941 0.230115 -0.148307 1.10941 -0.00168232 0.00262965 0.0300575 0.890479)
(1.03043 -0.0091461 0.226911 -0.162233 1.08165 0.0383024 -0.00262968 0.0300574 0.890479)
(1.06129 -0.0127362 0.216813 -0.165823 1.05079 0.0771233 -0.00780906 0.029144 0.890479)
(1.09151 -0.005558 0.200127 -0.158645 1.02058 0.113601 -0.0127511 0.027345 0.890479)
(1.11745 0.0115229 0.17736 -0.141564 0.994634 0.146627 -0.0173058 0.0247154 0.890479)
(1.13598 0.0364463 0.149204 -0.11664 0.976099 0.175197 -0.0213347 0.0213347 0.890479)
(1.14487 0.0662059 0.116515 -0.0868805 0.967206 0.198444 -0.0247155 0.017306 0.890479)
(1.14305 0.0972124 0.0802849 -0.0558741 0.969028 0.215662 -0.0273454 0.0127513 0.890479)
(1.13074 0.125726 0.0416158 -0.0273606 0.981345 0.226327 -0.0291442 0.00780912 0.890479)
(1.10941 0.148307 0.00168232 -0.00477941 1.00267 0.230115 -0.0300575 0.00262965 0.890479)
(1.08112 0.175542 -0.0399915 -0.000493853 1.05203 0.224804 -0.0428419 -0.00374802 0.882504)