/*--------------------------------*- C++ -*----------------------------------*\
| =========                 |                                                 |
| \\      /  F ield         | OpenFOAM: The Open Source CFD Toolbox           |
|  \\    /   O peration     | Version:  2312                                  |
|   \\  /    A nd           | Website:  www.openfoam.com                      |
|    \\/     M anipulation  |                                                 |
\*---------------------------------------------------------------------------*/
FoamFile
{
    version     2.0;
    format      ascii;
    arch        "LSB;label=32;scalar=64";
    class       volVectorField;
    location    "0.3";
    object      U;
}
// * * * * * * * * * * * * * * * * * * * * * * * * * * * * * * * * * * * * * //

dimensions      [0 1 -1 0 0 0 0];

internalField   nonuniform List<vector> 
1620
(
(0.000185459 -0.000264942 5.91311e-05)
(0.000228648 -0.000228713 5.91316e-05)
(0.00026489 -0.000185533 5.91317e-05)
(0.000293084 -0.000136717 5.91314e-05)
(0.000312372 -8.37461e-05 5.91315e-05)
(0.000322168 -2.82309e-05 5.91314e-05)
(0.000322176 2.81417e-05 5.91307e-05)
(0.000312395 8.3659e-05 5.91305e-05)
(0.000293122 0.000136635 5.91309e-05)
(0.000264942 0.000185459 5.9131e-05)
(0.000228713 0.000228648 5.91316e-05)
(0.000185533 0.00026489 5.91317e-05)
(0.000136717 0.000293084 5.91314e-05)
(8.37461e-05 0.000312372 5.91315e-05)
(2.82309e-05 0.000322168 5.91314e-05)
(-2.81417e-05 0.000322176 5.91307e-05)
(-8.3659e-05 0.000312395 5.91305e-05)
(-0.000136635 0.000293122 5.91309e-05)
(-0.000185459 0.000264942 5.9131e-05)
(-0.000228648 0.000228713 5.91316e-05)
(-0.00026489 0.000185533 5.91317e-05)
(-0.000293084 0.000136717 5.91314e-05)
(-0.000312372 8.37461e-05 5.91315e-05)
(-0.000322168 2.82309e-05 5.91314e-05)
(-0.000322176 -2.81417e-05 5.91307e-05)
(-0.000312395 -8.3659e-05 5.91305e-05)
(-0.000293122 -0.000136635 5.91309e-05)
(-0.000264942 -0.000185459 5.9131e-05)
(-0.000228712 -0.000228648 5.91316e-05)
(-0.000185533 -0.00026489 5.91317e-05)
(-0.000136717 -0.000293084 5.91314e-05)
(-8.37461e-05 -0.000312372 5.91315e-05)
(-2.82309e-05 -0.000322168 5.91314e-05)
(2.81417e-05 -0.000322176 5.91307e-05)
(8.36591e-05 -0.000312395 5.91305e-05)
(0.000136635 -0.000293122 5.91309e-05)
(0.000109655 -0.000354226 9.81035e-05)
(0.0001695 -0.000329803 9.81038e-05)
(0.000224194 -0.000295358 9.81039e-05)
(0.000272077 -0.00025194 9.81039e-05)
(0.000311693 -0.000200867 9.81041e-05)
(0.000341837 -0.00014369 9.81039e-05)
(0.000361596 -8.21479e-05 9.81036e-05)
(0.000370367 -1.81099e-05 9.81035e-05)
(0.000367886 4.64787e-05 9.81036e-05)
(0.000354226 0.000109655 9.81035e-05)
(0.000329803 0.0001695 9.81038e-05)
(0.000295358 0.000224194 9.81039e-05)
(0.00025194 0.000272077 9.81039e-05)
(0.000200867 0.000311693 9.81041e-05)
(0.00014369 0.000341837 9.81039e-05)
(8.21479e-05 0.000361596 9.81036e-05)
(1.81099e-05 0.000370367 9.81035e-05)
(-4.64787e-05 0.000367886 9.81036e-05)
(-0.000109655 0.000354226 9.81035e-05)
(-0.0001695 0.000329803 9.81038e-05)
(-0.000224194 0.000295358 9.81039e-05)
(-0.000272077 0.00025194 9.81039e-05)
(-0.000311693 0.000200867 9.81041e-05)
(-0.000341837 0.00014369 9.81039e-05)
(-0.000361596 8.21479e-05 9.81036e-05)
(-0.000370367 1.81099e-05 9.81035e-05)
(-0.000367886 -4.64787e-05 9.81036e-05)
(-0.000354226 -0.000109655 9.81035e-05)
(-0.000329803 -0.0001695 9.81038e-05)
(-0.000295358 -0.000224194 9.81039e-05)
(-0.00025194 -0.000272077 9.81039e-05)
(-0.000200867 -0.000311693 9.81041e-05)
(-0.00014369 -0.000341837 9.81039e-05)
(-8.21479e-05 -0.000361596 9.81036e-05)
(-1.81099e-05 -0.000370367 9.81035e-05)
(4.64787e-05 -0.000367886 9.81036e-05)
(-1.97677e-05 -0.000439838 0.000119624)
(5.69096e-05 -0.000436589 0.000119624)
(0.000131858 -0.000420074 0.000119624)
(0.0002028 -0.000390795 0.000119624)
(0.00026758 -0.000349642 0.000119624)
(0.000324229 -0.000297865 0.000119624)
(0.000371028 -0.000237038 0.000119624)
(0.000406552 -0.000169009 0.000119624)
(0.000429723 -9.58444e-05 0.000119624)
(0.000439838 -1.97678e-05 0.000119624)
(0.000436589 5.69095e-05 0.000119624)
(0.000420074 0.000131858 0.000119624)
(0.000390795 0.0002028 0.000119624)
(0.000349642 0.00026758 0.000119624)
(0.000297865 0.000324229 0.000119624)
(0.000237038 0.000371028 0.000119624)
(0.000169009 0.000406552 0.000119624)
(9.58444e-05 0.000429723 0.000119624)
(1.97678e-05 0.000439838 0.000119624)
(-5.69095e-05 0.000436589 0.000119624)
(-0.000131858 0.000420074 0.000119624)
(-0.0002028 0.000390795 0.000119624)
(-0.00026758 0.000349642 0.000119624)
(-0.000324229 0.000297865 0.000119624)
(-0.000371028 0.000237038 0.000119624)
(-0.000406552 0.000169009 0.000119624)
(-0.000429723 9.58444e-05 0.000119624)
(-0.000439838 1.97678e-05 0.000119624)
(-0.000436589 -5.69095e-05 0.000119624)
(-0.000420074 -0.000131858 0.000119624)
(-0.000390795 -0.0002028 0.000119624)
(-0.000349642 -0.00026758 0.000119624)
(-0.000297865 -0.000324229 0.000119624)
(-0.000237038 -0.000371028 0.000119624)
(-0.000169009 -0.000406552 0.000119624)
(-9.58443e-05 -0.000429723 0.000119624)
(0.000400703 -0.000814217 0.000235091)
(0.000536003 -0.000732266 0.000235092)
(0.000655017 -0.000628065 0.000235092)
(0.000754128 -0.00050478 0.000235092)
(0.000830325 -0.000366158 0.000235093)
(0.000881293 -0.000216411 0.000235092)
(0.000905484 -6.00885e-05 0.00023509)
(0.000902162 9.80598e-05 0.00023509)
(0.000871428 0.000253228 0.00023509)
(0.000814217 0.000400703 0.000235091)
(0.000732266 0.000536003 0.000235092)
(0.000628065 0.000655017 0.000235092)
(0.00050478 0.000754128 0.000235092)
(0.000366158 0.000830325 0.000235093)
(0.000216411 0.000881293 0.000235092)
(6.00886e-05 0.000905484 0.00023509)
(-9.80598e-05 0.000902162 0.00023509)
(-0.000253228 0.000871428 0.00023509)
(-0.000400703 0.000814217 0.000235091)
(-0.000536003 0.000732266 0.000235092)
(-0.000655017 0.000628065 0.000235092)
(-0.000754128 0.00050478 0.000235092)
(-0.000830325 0.000366158 0.000235093)
(-0.000881293 0.000216411 0.000235092)
(-0.000905484 6.00885e-05 0.00023509)
(-0.000902162 -9.80598e-05 0.00023509)
(-0.000871428 -0.000253228 0.00023509)
(-0.000814217 -0.000400703 0.000235091)
(-0.000732266 -0.000536003 0.000235092)
(-0.000628065 -0.000655017 0.000235092)
(-0.00050478 -0.000754128 0.000235092)
(-0.000366158 -0.000830325 0.000235093)
(-0.000216411 -0.000881293 0.000235092)
(-6.00885e-05 -0.000905484 0.00023509)
(9.80599e-05 -0.000902162 0.00023509)
(0.000253228 -0.000871428 0.00023509)
(0.000266958 -0.00105261 0.00035233)
(0.000445685 -0.000990257 0.000352331)
(0.000610871 -0.00089782 0.000352332)
(0.000757496 -0.000778104 0.000352332)
(0.000881105 -0.000634745 0.000352332)
(0.000977941 -0.000472098 0.000352332)
(0.00104506 -0.000295109 0.000352331)
(0.00108043 -0.000109153 0.00035233)
(0.00108297 8.01194e-05 0.00035233)
(0.00105261 0.000266958 0.00035233)
(0.000990257 0.000445685 0.000352331)
(0.00089782 0.000610871 0.000352332)
(0.000778104 0.000757496 0.000352332)
(0.000634745 0.000881105 0.000352332)
(0.000472098 0.000977941 0.000352332)
(0.000295109 0.00104506 0.000352331)
(0.000109153 0.00108043 0.00035233)
(-8.01193e-05 0.00108297 0.00035233)
(-0.000266958 0.00105261 0.00035233)
(-0.000445685 0.000990257 0.000352331)
(-0.000610871 0.00089782 0.000352331)
(-0.000757496 0.000778104 0.000352332)
(-0.000881105 0.000634745 0.000352332)
(-0.000977941 0.000472098 0.000352332)
(-0.00104506 0.000295109 0.000352331)
(-0.00108043 0.000109153 0.00035233)
(-0.00108297 -8.01194e-05 0.00035233)
(-0.00105261 -0.000266958 0.00035233)
(-0.000990257 -0.000445685 0.000352331)
(-0.00089782 -0.000610871 0.000352332)
(-0.000778104 -0.000757496 0.000352332)
(-0.000634745 -0.000881105 0.000352332)
(-0.000472098 -0.000977941 0.000352332)
(-0.000295109 -0.00104506 0.000352331)
(-0.000109153 -0.00108043 0.00035233)
(8.01194e-05 -0.00108297 0.00035233)
(7.00005e-05 -0.00128082 0.00044308)
(0.000291349 -0.00124921 0.00044308)
(0.000503845 -0.00117964 0.00044308)
(0.000701033 -0.00107422 0.00044308)
(0.00087692 -0.00093617 0.00044308)
(0.00102616 -0.000769672 0.00044308)
(0.00114423 -0.000579788 0.00044308)
(0.00122752 -0.000372288 0.00044308)
(0.00127352 -0.000153476 0.00044308)
(0.00128082 7.00004e-05 0.00044308)
(0.00124921 0.000291349 0.00044308)
(0.00117964 0.000503845 0.00044308)
(0.00107422 0.000701033 0.00044308)
(0.00093617 0.00087692 0.00044308)
(0.000769672 0.00102616 0.00044308)
(0.000579788 0.00114423 0.00044308)
(0.000372288 0.00122752 0.00044308)
(0.000153476 0.00127352 0.00044308)
(-7.00004e-05 0.00128082 0.00044308)
(-0.000291349 0.00124921 0.00044308)
(-0.000503845 0.00117964 0.00044308)
(-0.000701032 0.00107422 0.00044308)
(-0.00087692 0.00093617 0.00044308)
(-0.00102616 0.000769672 0.00044308)
(-0.00114423 0.000579788 0.00044308)
(-0.00122752 0.000372288 0.00044308)
(-0.00127352 0.000153476 0.00044308)
(-0.00128082 -7.00004e-05 0.00044308)
(-0.00124921 -0.000291349 0.00044308)
(-0.00117964 -0.000503845 0.00044308)
(-0.00107422 -0.000701033 0.00044308)
(-0.000936169 -0.00087692 0.00044308)
(-0.000769672 -0.00102616 0.00044308)
(-0.000579788 -0.00114423 0.00044308)
(-0.000372288 -0.00122752 0.00044308)
(-0.000153476 -0.00127352 0.00044308)
(0.000558741 -0.00139534 0.000537801)
(0.000792551 -0.00127712 0.000537803)
(0.00100228 -0.00112009 0.000537804)
(0.00118155 -0.000929027 0.000537804)
(0.00132493 -0.000709739 0.000537804)
(0.00142804 -0.000468886 0.000537802)
(0.00148777 -0.000213785 0.0005378)
(0.00150229 4.78115e-05 0.0005378)
(0.00147117 0.000307954 0.0005378)
(0.00139534 0.000558741 0.000537801)
(0.00127712 0.00079255 0.000537803)
(0.00112009 0.00100228 0.000537803)
(0.000929027 0.00118155 0.000537804)
(0.000709739 0.00132493 0.000537804)
(0.000468886 0.00142804 0.000537802)
(0.000213785 0.00148777 0.0005378)
(-4.78114e-05 0.00150229 0.0005378)
(-0.000307954 0.00147117 0.0005378)
(-0.000558741 0.00139534 0.000537801)
(-0.00079255 0.00127712 0.000537802)
(-0.00100228 0.00112009 0.000537803)
(-0.00118155 0.000929027 0.000537804)
(-0.00132493 0.000709739 0.000537804)
(-0.00142804 0.000468886 0.000537802)
(-0.00148777 0.000213785 0.0005378)
(-0.00150229 -4.78115e-05 0.0005378)
(-0.00147117 -0.000307954 0.0005378)
(-0.00139534 -0.000558741 0.000537801)
(-0.00127712 -0.00079255 0.000537803)
(-0.00112009 -0.00100228 0.000537803)
(-0.000929027 -0.00118155 0.000537804)
(-0.000709739 -0.00132493 0.000537804)
(-0.000468886 -0.00142804 0.000537802)
(-0.000213785 -0.00148777 0.0005378)
(4.78115e-05 -0.00150229 0.0005378)
(0.000307955 -0.00147117 0.0005378)
(0.000364374 -0.00173349 0.000695596)
(0.000659857 -0.00164388 0.000695597)
(0.00093529 -0.00150433 0.000695597)
(0.0011823 -0.00131906 0.000695597)
(0.0013934 -0.00109372 0.000695597)
(0.00156215 -0.000835139 0.000695596)
(0.00168344 -0.000551188 0.000695596)
(0.00175357 -0.000250489 0.000695596)
(0.00177043 5.78207e-05 0.000695596)
(0.00173349 0.000364374 0.000695596)
(0.00164388 0.000659857 0.000695597)
(0.00150433 0.00093529 0.000695597)
(0.00131906 0.0011823 0.000695597)
(0.00109372 0.0013934 0.000695597)
(0.000835139 0.00156215 0.000695596)
(0.000551188 0.00168344 0.000695596)
(0.000250489 0.00175357 0.000695596)
(-5.78207e-05 0.00177043 0.000695596)
(-0.000364374 0.00173349 0.000695596)
(-0.000659857 0.00164388 0.000695597)
(-0.00093529 0.00150433 0.000695597)
(-0.0011823 0.00131906 0.000695597)
(-0.0013934 0.00109372 0.000695597)
(-0.00156215 0.000835139 0.000695596)
(-0.00168344 0.000551188 0.000695596)
(-0.00175357 0.000250489 0.000695596)
(-0.00177043 -5.78207e-05 0.000695596)
(-0.00173349 -0.000364374 0.000695596)
(-0.00164388 -0.000659857 0.000695597)
(-0.00150433 -0.00093529 0.000695597)
(-0.00131906 -0.0011823 0.000695597)
(-0.00109372 -0.0013934 0.000695597)
(-0.000835139 -0.00156215 0.000695596)
(-0.000551188 -0.00168344 0.000695596)
(-0.000250489 -0.00175357 0.000695596)
(5.78208e-05 -0.00177043 0.000695596)
(0.000114455 -0.00205375 0.000824934)
(0.000469346 -0.00200267 0.000824934)
(0.000809976 -0.00189075 0.000824934)
(0.001126 -0.00172137 0.000824935)
(0.0014078 -0.00149969 0.000824935)
(0.00164684 -0.00123244 0.000824935)
(0.00183583 -0.000927751 0.000824934)
(0.00196904 -0.00059487 0.000824934)
(0.00204242 -0.000243913 0.000824934)
(0.00205375 0.000114455 0.000824934)
(0.00200267 0.000469346 0.000824934)
(0.00189075 0.000809976 0.000824934)
(0.00172137 0.001126 0.000824935)
(0.00149969 0.0014078 0.000824935)
(0.00123244 0.00164683 0.000824935)
(0.000927752 0.00183583 0.000824934)
(0.00059487 0.00196904 0.000824934)
(0.000243913 0.00204242 0.000824934)
(-0.000114455 0.00205375 0.000824934)
(-0.000469346 0.00200267 0.000824934)
(-0.000809976 0.00189075 0.000824934)
(-0.001126 0.00172137 0.000824935)
(-0.0014078 0.00149969 0.000824935)
(-0.00164683 0.00123244 0.000824935)
(-0.00183583 0.000927751 0.000824934)
(-0.00196904 0.00059487 0.000824934)
(-0.00204242 0.000243913 0.000824934)
(-0.00205375 -0.000114455 0.000824934)
(-0.00200267 -0.000469346 0.000824934)
(-0.00189075 -0.000809976 0.000824934)
(-0.00172137 -0.001126 0.000824935)
(-0.00149969 -0.0014078 0.000824935)
(-0.00123244 -0.00164683 0.000824935)
(-0.000927751 -0.00183583 0.000824934)
(-0.00059487 -0.00196904 0.000824934)
(-0.000243913 -0.00204242 0.000824934)
(0.000617669 -0.00199635 0.000900714)
(0.000954949 -0.00185877 0.000900716)
(0.00126321 -0.0016647 0.000900716)
(0.00153309 -0.00142006 0.000900716)
(0.00175639 -0.00113227 0.000900715)
(0.00192633 -0.00081007 0.000900714)
(0.00203773 -0.00046326 0.000900713)
(0.00208722 -0.000102374 0.000900713)
(0.00207328 0.000261622 0.000900714)
(0.00199635 0.000617669 0.000900714)
(0.00185877 0.000954949 0.000900716)
(0.0016647 0.00126321 0.000900716)
(0.00142006 0.00153309 0.000900716)
(0.00113227 0.00175639 0.000900715)
(0.00081007 0.00192633 0.000900714)
(0.00046326 0.00203773 0.000900713)
(0.000102374 0.00208722 0.000900713)
(-0.000261622 0.00207328 0.000900714)
(-0.000617669 0.00199635 0.000900714)
(-0.000954949 0.00185877 0.000900716)
(-0.00126321 0.0016647 0.000900716)
(-0.00153309 0.00142006 0.000900716)
(-0.00175639 0.00113227 0.000900715)
(-0.00192633 0.00081007 0.000900714)
(-0.00203773 0.00046326 0.000900713)
(-0.00208722 0.000102374 0.000900713)
(-0.00207328 -0.000261622 0.000900714)
(-0.00199635 -0.000617669 0.000900714)
(-0.00185877 -0.000954949 0.000900716)
(-0.0016647 -0.00126321 0.000900716)
(-0.00142006 -0.00153309 0.000900716)
(-0.00113227 -0.00175639 0.000900715)
(-0.00081007 -0.00192633 0.000900714)
(-0.00046326 -0.00203773 0.000900713)
(-0.000102374 -0.00208722 0.000900713)
(0.000261622 -0.00207328 0.000900714)
(0.000385498 -0.00237294 0.00106797)
(0.000791699 -0.00226995 0.00106797)
(0.00117384 -0.00209799 0.00106797)
(0.00152032 -0.00186228 0.00106797)
(0.00182061 -0.00156998 0.00106797)
(0.00206557 -0.00122999 0.00106797)
(0.00224778 -0.00085262 0.00106797)
(0.00236168 -0.000449344 0.00106797)
(0.00240383 -3.24159e-05 0.00106797)
(0.00237294 0.000385498 0.00106797)
(0.00226995 0.000791699 0.00106797)
(0.00209799 0.00117384 0.00106797)
(0.00186228 0.00152032 0.00106797)
(0.00156998 0.00182061 0.00106797)
(0.00122999 0.00206557 0.00106797)
(0.00085262 0.00224778 0.00106797)
(0.000449344 0.00236168 0.00106797)
(3.2416e-05 0.00240383 0.00106797)
(-0.000385498 0.00237294 0.00106797)
(-0.000791698 0.00226995 0.00106797)
(-0.00117384 0.00209799 0.00106797)
(-0.00152032 0.00186228 0.00106797)
(-0.00182061 0.00156998 0.00106797)
(-0.00206557 0.00122999 0.00106797)
(-0.00224778 0.00085262 0.00106797)
(-0.00236168 0.000449344 0.00106797)
(-0.00240383 3.24159e-05 0.00106797)
(-0.00237294 -0.000385498 0.00106797)
(-0.00226995 -0.000791699 0.00106797)
(-0.00209799 -0.00117384 0.00106797)
(-0.00186228 -0.00152032 0.00106797)
(-0.00156998 -0.00182061 0.00106797)
(-0.00122999 -0.00206557 0.00106797)
(-0.00085262 -0.00224778 0.00106797)
(-0.000449344 -0.00236168 0.00106797)
(-3.24158e-05 -0.00240383 0.00106797)
(0.000107361 -0.00272936 0.00120616)
(0.00057968 -0.00266926 0.00120616)
(0.00103438 -0.00252804 0.00120616)
(0.00145766 -0.00231002 0.00120616)
(0.00183665 -0.0020218 0.00120615)
(0.00215983 -0.00167216 0.00120616)
(0.00241738 -0.0012717 0.00120616)
(0.00260148 -0.000832611 0.00120616)
(0.00270654 -0.00036822 0.00120616)
(0.00272936 0.000107361 0.00120616)
(0.00266926 0.00057968 0.00120616)
(0.00252804 0.00103438 0.00120616)
(0.00231002 0.00145766 0.00120616)
(0.0020218 0.00183665 0.00120615)
(0.00167216 0.00215983 0.00120616)
(0.0012717 0.00241738 0.00120616)
(0.000832611 0.00260148 0.00120616)
(0.00036822 0.00270654 0.00120616)
(-0.000107361 0.00272936 0.00120616)
(-0.000579679 0.00266926 0.00120616)
(-0.00103438 0.00252804 0.00120616)
(-0.00145766 0.00231002 0.00120616)
(-0.00183665 0.0020218 0.00120615)
(-0.00215983 0.00167216 0.00120616)
(-0.00241738 0.0012717 0.00120616)
(-0.00260148 0.000832611 0.00120616)
(-0.00270654 0.00036822 0.00120616)
(-0.00272936 -0.000107361 0.00120616)
(-0.00266926 -0.00057968 0.00120616)
(-0.00252804 -0.00103438 0.00120616)
(-0.00231002 -0.00145766 0.00120616)
(-0.0020218 -0.00183665 0.00120615)
(-0.00167216 -0.00215983 0.00120616)
(-0.0012717 -0.00241738 0.00120616)
(-0.000832611 -0.00260148 0.00120616)
(-0.00036822 -0.00270654 0.00120616)
(0.000583608 -0.0025785 0.00128815)
(0.00102249 -0.00243798 0.00128815)
(0.00143031 -0.00222339 0.00128815)
(0.00179467 -0.00194124 0.00128815)
(0.0021045 -0.00160011 0.00128815)
(0.00235038 -0.00121036 0.00128815)
(0.00252485 -0.000783832 0.00128815)
(0.00262261 -0.000333487 0.00128815)
(0.00264067 0.000126989 0.00128815)
(0.0025785 0.000583608 0.00128815)
(0.00243798 0.00102249 0.00128815)
(0.00222339 0.00143031 0.00128815)
(0.00194124 0.00179467 0.00128815)
(0.00160011 0.0021045 0.00128815)
(0.00121036 0.00235038 0.00128815)
(0.000783832 0.00252485 0.00128815)
(0.000333487 0.00262261 0.00128815)
(-0.000126989 0.00264067 0.00128815)
(-0.000583608 0.0025785 0.00128815)
(-0.00102249 0.00243798 0.00128815)
(-0.00143031 0.00222339 0.00128815)
(-0.00179467 0.00194124 0.00128815)
(-0.0021045 0.00160011 0.00128815)
(-0.00235038 0.00121036 0.00128815)
(-0.00252485 0.000783832 0.00128815)
(-0.00262261 0.000333487 0.00128815)
(-0.00264067 -0.000126989 0.00128815)
(-0.0025785 -0.000583608 0.00128815)
(-0.00243798 -0.00102249 0.00128815)
(-0.00222339 -0.00143031 0.00128815)
(-0.00194124 -0.00179467 0.00128815)
(-0.00160011 -0.0021045 0.00128815)
(-0.00121036 -0.00235038 0.00128815)
(-0.000783832 -0.00252485 0.00128815)
(-0.000333487 -0.00262261 0.00128815)
(0.000126989 -0.00264067 0.00128815)
(0.000332305 -0.00294401 0.00144297)
(0.000838481 -0.00284158 0.00144297)
(0.00131918 -0.00265281 0.00144297)
(0.00175979 -0.00238344 0.00144297)
(0.00214694 -0.00204164 0.00144297)
(0.00246885 -0.00163782 0.00144297)
(0.00271575 -0.00118422 0.00144297)
(0.00288012 -0.000694648 0.00144297)
(0.00295699 -0.000183966 0.00144297)
(0.00294401 0.000332305 0.00144297)
(0.00284158 0.00083848 0.00144297)
(0.00265281 0.00131918 0.00144297)
(0.00238344 0.00175979 0.00144297)
(0.00204164 0.00214694 0.00144297)
(0.00163782 0.00246885 0.00144297)
(0.00118422 0.00271575 0.00144297)
(0.000694648 0.00288012 0.00144297)
(0.000183966 0.00295699 0.00144297)
(-0.000332305 0.00294401 0.00144297)
(-0.00083848 0.00284158 0.00144297)
(-0.00131918 0.00265281 0.00144297)
(-0.00175979 0.00238344 0.00144297)
(-0.00214694 0.00204164 0.00144297)
(-0.00246885 0.00163782 0.00144297)
(-0.00271574 0.00118422 0.00144297)
(-0.00288012 0.000694648 0.00144297)
(-0.00295699 0.000183966 0.00144297)
(-0.00294401 -0.000332305 0.00144297)
(-0.00284158 -0.00083848 0.00144297)
(-0.00265281 -0.00131918 0.00144297)
(-0.00238344 -0.00175979 0.00144297)
(-0.00204164 -0.00214694 0.00144297)
(-0.00163782 -0.00246885 0.00144297)
(-0.00118422 -0.00271575 0.00144297)
(-0.000694647 -0.00288012 0.00144297)
(-0.000183966 -0.00295699 0.00144297)
(4.44687e-05 -0.00329099 0.00156865)
(0.000615268 -0.00323327 0.00156865)
(0.00116737 -0.00307731 0.00156865)
(0.00168401 -0.00282785 0.00156865)
(0.00214947 -0.00249246 0.00156865)
(0.00254963 -0.00208134 0.00156865)
(0.00287232 -0.00160699 0.00156865)
(0.00310773 -0.0010838 0.00156865)
(0.00324872 -0.000527682 0.00156865)
(0.00329099 4.44686e-05 0.00156865)
(0.00323327 0.000615268 0.00156865)
(0.00307731 0.00116737 0.00156865)
(0.00282785 0.00168401 0.00156865)
(0.00249246 0.00214947 0.00156865)
(0.00208134 0.00254963 0.00156865)
(0.00160699 0.00287232 0.00156865)
(0.0010838 0.00310773 0.00156865)
(0.000527682 0.00324871 0.00156865)
(-4.44685e-05 0.00329099 0.00156865)
(-0.000615267 0.00323327 0.00156865)
(-0.00116737 0.00307731 0.00156865)
(-0.00168401 0.00282785 0.00156865)
(-0.00214947 0.00249246 0.00156865)
(-0.00254963 0.00208134 0.00156865)
(-0.00287232 0.00160699 0.00156865)
(-0.00310773 0.0010838 0.00156865)
(-0.00324871 0.000527682 0.00156865)
(-0.00329099 -4.44686e-05 0.00156865)
(-0.00323327 -0.000615268 0.00156865)
(-0.00307731 -0.00116737 0.00156865)
(-0.00282785 -0.00168401 0.00156865)
(-0.00249246 -0.00214947 0.00156865)
(-0.00208134 -0.00254963 0.00156865)
(-0.00160699 -0.00287232 0.00156865)
(-0.0010838 -0.00310773 0.00156865)
(-0.000527682 -0.00324871 0.00156865)
(0.000479906 -0.00309572 0.00168291)
(0.00101018 -0.00296536 0.0016829)
(0.00150976 -0.00274489 0.0016829)
(0.00196347 -0.00244102 0.0016829)
(0.00235752 -0.00206298 0.0016829)
(0.00267994 -0.00162226 0.0016829)
(0.00292093 -0.00113225 0.0016829)
(0.00307317 -0.000607836 0.0016829)
(0.00313203 -6.4952e-05 0.0016829)
(0.00309572 0.000479906 0.00168291)
(0.00296536 0.00101018 0.0016829)
(0.00274489 0.00150976 0.0016829)
(0.00244102 0.00196347 0.0016829)
(0.00206298 0.00235752 0.0016829)
(0.00162226 0.00267994 0.0016829)
(0.00113225 0.00292093 0.0016829)
(0.000607836 0.00307317 0.0016829)
(6.49522e-05 0.00313203 0.0016829)
(-0.000479906 0.00309572 0.00168291)
(-0.00101018 0.00296536 0.0016829)
(-0.00150976 0.00274489 0.0016829)
(-0.00196347 0.00244102 0.0016829)
(-0.00235752 0.00206298 0.0016829)
(-0.00267994 0.00162226 0.0016829)
(-0.00292093 0.00113225 0.0016829)
(-0.00307317 0.000607836 0.0016829)
(-0.00313203 6.4952e-05 0.0016829)
(-0.00309572 -0.000479906 0.00168291)
(-0.00296536 -0.00101018 0.0016829)
(-0.00274489 -0.00150976 0.0016829)
(-0.00244102 -0.00196347 0.0016829)
(-0.00206298 -0.00235752 0.0016829)
(-0.00162226 -0.00267994 0.0016829)
(-0.00113225 -0.00292093 0.0016829)
(-0.000607836 -0.00307317 0.0016829)
(-6.49519e-05 -0.00313203 0.0016829)
(0.000219656 -0.0034174 0.00181076)
(0.000809745 -0.00332734 0.00181076)
(0.00137523 -0.00313618 0.00181076)
(0.00189893 -0.00284973 0.00181076)
(0.00236493 -0.00247669 0.00181076)
(0.00275907 -0.0020284 0.00181076)
(0.00306938 -0.00151847 0.00181076)
(0.00328643 -0.000962411 0.00181076)
(0.00340363 -0.000377107 0.00181076)
(0.0034174 0.000219656 0.00181076)
(0.00332734 0.000809745 0.00181076)
(0.00313618 0.00137523 0.00181076)
(0.00284973 0.00189893 0.00181076)
(0.00247669 0.00236493 0.00181076)
(0.0020284 0.00275907 0.00181076)
(0.00151847 0.00306938 0.00181076)
(0.000962411 0.00328643 0.00181076)
(0.000377107 0.00340363 0.00181076)
(-0.000219656 0.0034174 0.00181076)
(-0.000809745 0.00332734 0.00181076)
(-0.00137523 0.00313618 0.00181076)
(-0.00189893 0.00284973 0.00181076)
(-0.00236493 0.00247669 0.00181076)
(-0.00275907 0.0020284 0.00181076)
(-0.00306938 0.00151847 0.00181076)
(-0.00328643 0.000962411 0.00181076)
(-0.00340362 0.000377107 0.00181076)
(-0.0034174 -0.000219656 0.00181076)
(-0.00332734 -0.000809745 0.00181076)
(-0.00313618 -0.00137523 0.00181076)
(-0.00284973 -0.00189893 0.00181076)
(-0.00247669 -0.00236493 0.00181076)
(-0.0020284 -0.00275907 0.00181076)
(-0.00151847 -0.00306938 0.00181076)
(-0.000962411 -0.00328643 0.00181076)
(-0.000377106 -0.00340363 0.00181076)
(-6.7231e-05 -0.00372506 0.00190918)
(0.000580641 -0.00368014 0.00190918)
(0.00121087 -0.00352341 0.00190918)
(0.00180431 -0.00325961 0.00190918)
(0.00234292 -0.00289678 0.00190918)
(0.00281035 -0.00244593 0.00190918)
(0.00319238 -0.00192076 0.00190918)
(0.00347742 -0.00133722 0.00190918)
(0.00365679 -0.00071306 0.00190918)
(0.00372506 -6.72311e-05 0.00190918)
(0.00368014 0.000580641 0.00190918)
(0.00352341 0.00121087 0.00190918)
(0.00325961 0.00180431 0.00190918)
(0.00289678 0.00234292 0.00190918)
(0.00244593 0.00281035 0.00190918)
(0.00192076 0.00319238 0.00190918)
(0.00133722 0.00347742 0.00190918)
(0.00071306 0.00365679 0.00190918)
(6.72312e-05 0.00372506 0.00190918)
(-0.000580641 0.00368014 0.00190918)
(-0.00121087 0.00352341 0.00190918)
(-0.00180431 0.00325961 0.00190918)
(-0.00234292 0.00289678 0.00190918)
(-0.00281035 0.00244593 0.00190918)
(-0.00319238 0.00192076 0.00190918)
(-0.00347742 0.00133722 0.00190918)
(-0.00365679 0.00071306 0.00190918)
(-0.00372506 6.72311e-05 0.00190918)
(-0.00368014 -0.000580641 0.00190918)
(-0.00352341 -0.00121087 0.00190918)
(-0.00325961 -0.00180431 0.00190918)
(-0.00289678 -0.00234292 0.00190918)
(-0.00244593 -0.00281035 0.00190918)
(-0.00192076 -0.00319238 0.00190918)
(-0.00133722 -0.00347742 0.00190918)
(-0.00071306 -0.00365679 0.00190918)
(0.000339355 -0.00350591 0.00208673)
(0.000942995 -0.00339372 0.00208673)
(0.00151798 -0.00317841 0.00208673)
(0.00204685 -0.00286653 0.00208673)
(0.00251352 -0.00246755 0.00208673)
(0.00290382 -0.0019936 0.00208673)
(0.00320589 -0.00145907 0.00208673)
(0.00341055 -0.000880202 0.00208673)
(0.00351158 -0.000274595 0.00208673)
(0.00350591 0.000339355 0.00208673)
(0.00339372 0.000942995 0.00208673)
(0.00317841 0.00151798 0.00208673)
(0.00286653 0.00204685 0.00208673)
(0.00246755 0.00251352 0.00208673)
(0.0019936 0.00290382 0.00208673)
(0.00145907 0.00320589 0.00208673)
(0.000880202 0.00341055 0.00208673)
(0.000274595 0.00351158 0.00208673)
(-0.000339355 0.00350591 0.00208673)
(-0.000942994 0.00339372 0.00208673)
(-0.00151798 0.00317841 0.00208673)
(-0.00204685 0.00286653 0.00208673)
(-0.00251352 0.00246755 0.00208673)
(-0.00290382 0.0019936 0.00208673)
(-0.00320589 0.00145907 0.00208673)
(-0.00341055 0.000880202 0.00208673)
(-0.00351158 0.000274594 0.00208673)
(-0.00350591 -0.000339355 0.00208673)
(-0.00339372 -0.000942995 0.00208673)
(-0.00317841 -0.00151798 0.00208673)
(-0.00286653 -0.00204685 0.00208673)
(-0.00246755 -0.00251352 0.00208673)
(-0.0019936 -0.00290382 0.00208673)
(-0.00145907 -0.00320589 0.00208673)
(-0.000880201 -0.00341055 0.00208673)
(-0.000274594 -0.00351158 0.00208673)
(7.21401e-05 -0.00376428 0.00217717)
(0.000724706 -0.00369456 0.00217717)
(0.00135525 -0.00351259 0.00217717)
(0.00194462 -0.00322389 0.00217717)
(0.0024749 -0.00283723 0.00217716)
(0.00292998 -0.00236437 0.00217717)
(0.00329603 -0.00181966 0.00217717)
(0.00356194 -0.00121967 0.00217717)
(0.00371962 -0.000582615 0.00217717)
(0.00376428 7.214e-05 0.00217717)
(0.00369456 0.000724706 0.00217717)
(0.00351259 0.00135525 0.00217717)
(0.00322389 0.00194462 0.00217717)
(0.00283723 0.0024749 0.00217716)
(0.00236437 0.00292998 0.00217717)
(0.00181966 0.00329603 0.00217717)
(0.00121967 0.00356194 0.00217717)
(0.000582615 0.00371962 0.00217717)
(-7.21398e-05 0.00376428 0.00217717)
(-0.000724706 0.00369456 0.00217717)
(-0.00135525 0.00351259 0.00217717)
(-0.00194462 0.00322389 0.00217717)
(-0.0024749 0.00283723 0.00217716)
(-0.00292998 0.00236437 0.00217717)
(-0.00329603 0.00181966 0.00217717)
(-0.00356194 0.00121967 0.00217717)
(-0.00371962 0.000582615 0.00217717)
(-0.00376428 -7.214e-05 0.00217717)
(-0.00369456 -0.000724706 0.00217717)
(-0.00351259 -0.00135525 0.00217717)
(-0.00322389 -0.00194462 0.00217717)
(-0.00283723 -0.0024749 0.00217716)
(-0.00236437 -0.00292998 0.00217717)
(-0.00181966 -0.00329603 0.00217717)
(-0.00121967 -0.00356194 0.00217717)
(-0.000582615 -0.00371962 0.00217717)
(-0.000210741 -0.004016 0.00223719)
(0.000489832 -0.00399158 0.00223719)
(0.00117552 -0.00384588 0.00223719)
(0.00182549 -0.00358333 0.00223719)
(0.00242 -0.0032119 0.00223719)
(0.00294097 -0.00274287 0.00223719)
(0.00337259 -0.00219051 0.00223719)
(0.00370173 -0.00157159 0.00223719)
(0.00391839 -0.000904912 0.00223719)
(0.004016 -0.000210741 0.00223719)
(0.00399158 0.000489831 0.00223719)
(0.00384588 0.00117552 0.00223719)
(0.00358333 0.00182549 0.00223719)
(0.0032119 0.00242 0.00223719)
(0.00274287 0.00294097 0.00223719)
(0.00219051 0.00337259 0.00223719)
(0.00157159 0.00370173 0.00223719)
(0.000904912 0.00391839 0.00223719)
(0.000210741 0.004016 0.00223719)
(-0.000489831 0.00399158 0.00223719)
(-0.00117552 0.00384588 0.00223719)
(-0.00182549 0.00358333 0.00223719)
(-0.00242 0.0032119 0.00223719)
(-0.00294097 0.00274287 0.00223719)
(-0.00337259 0.00219051 0.00223719)
(-0.00370173 0.00157159 0.00223719)
(-0.00391839 0.000904912 0.00223719)
(-0.004016 0.000210741 0.00223719)
(-0.00399158 -0.000489831 0.00223719)
(-0.00384588 -0.00117552 0.00223719)
(-0.00358333 -0.00182549 0.00223719)
(-0.0032119 -0.00242 0.00223719)
(-0.00274287 -0.00294097 0.00223719)
(-0.00219051 -0.00337259 0.00223719)
(-0.00157159 -0.00370173 0.00223719)
(-0.000904912 -0.00391839 0.00223719)
(0.000198292 -0.00377426 0.00251326)
(0.000850672 -0.00368248 0.00251326)
(0.00147721 -0.00347882 0.00251326)
(0.00205885 -0.00316945 0.00251326)
(0.00257795 -0.00276379 0.00251326)
(0.00301871 -0.00227414 0.00251326)
(0.00336775 -0.0017154 0.00251326)
(0.00361446 -0.00110454 0.00251326)
(0.00375135 -0.000460112 0.00251326)
(0.00377426 0.000198292 0.00251326)
(0.00368248 0.000850672 0.00251326)
(0.00347882 0.00147721 0.00251326)
(0.00316945 0.00205885 0.00251326)
(0.00276379 0.00257795 0.00251326)
(0.00227414 0.00301871 0.00251326)
(0.0017154 0.00336775 0.00251326)
(0.00110454 0.00361446 0.00251326)
(0.000460112 0.00375135 0.00251326)
(-0.000198292 0.00377426 0.00251326)
(-0.000850671 0.00368248 0.00251326)
(-0.00147721 0.00347882 0.00251326)
(-0.00205885 0.00316945 0.00251326)
(-0.00257795 0.00276379 0.00251326)
(-0.00301871 0.00227414 0.00251326)
(-0.00336775 0.0017154 0.00251326)
(-0.00361446 0.00110454 0.00251326)
(-0.00375135 0.000460112 0.00251326)
(-0.00377426 -0.000198292 0.00251326)
(-0.00368248 -0.000850672 0.00251326)
(-0.00347882 -0.00147721 0.00251326)
(-0.00316945 -0.00205885 0.00251326)
(-0.00276379 -0.00257795 0.00251326)