/*--------------------------------*- C++ -*----------------------------------*\
| =========                 |                                                 |
| \\      /  F ield         | OpenFOAM: The Open Source CFD Toolbox           |
|  \\    /   O peration     | Version:  2312                                  |
|   \\  /    A nd           | Website:  www.openfoam.com                      |
|    \\/     M anipulation  |                                                 |
\*---------------------------------------------------------------------------*/
FoamFile
{
    version     2.0;
    format      ascii;
    arch        "LSB;label=32;scalar=64";
    class       volVectorField;
    location    "0";
    object      f0;
}
// * * * * * * * * * * * * * * * * * * * * * * * * * * * * * * * * * * * * * //

dimensions      [0 0 0 0 0 0 0];

internalField   nonuniform List<vector> 
1620
(
(0.0747961 -0.745175 -0.662661)
(0.203057 -0.720867 -0.662661)
(0.325151 -0.674654 -0.66266)
(0.437363 -0.607941 -0.662662)
(0.536285 -0.522759 -0.662663)
(0.618913 -0.421693 -0.662662)
(0.682739 -0.307814 -0.66266)
(0.725817 -0.184581 -0.662661)
(0.746843 -0.0557397 -0.662661)
(0.745175 0.0747961 -0.662661)
(0.720867 0.203057 -0.662661)
(0.674654 0.325151 -0.66266)
(0.607941 0.437363 -0.662662)
(0.522759 0.536285 -0.662663)
(0.421693 0.618913 -0.662662)
(0.307814 0.682739 -0.66266)
(0.184581 0.725817 -0.662661)
(0.0557397 0.746843 -0.662661)
(-0.0747961 0.745175 -0.662661)
(-0.203057 0.720867 -0.662661)
(-0.325151 0.674654 -0.66266)
(-0.437363 0.607941 -0.662662)
(-0.536285 0.522759 -0.662663)
(-0.618913 0.421693 -0.662662)
(-0.682739 0.307814 -0.66266)
(-0.725817 0.184581 -0.662661)
(-0.746843 0.0557397 -0.662661)
(-0.745175 -0.0747961 -0.662661)
(-0.720867 -0.203057 -0.662661)
(-0.674654 -0.325151 -0.66266)
(-0.607941 -0.437363 -0.662662)
(-0.522759 -0.536285 -0.662663)
(-0.421693 -0.618913 -0.662662)
(-0.307814 -0.682739 -0.66266)
(-0.184581 -0.725817 -0.662661)
(-0.0557397 -0.746843 -0.662661)
(0.0884156 -0.99176 -0.0927081)
(0.259289 -0.96134 -0.0927081)
(0.422286 -0.901709 -0.0927076)
(0.572451 -0.814681 -0.0927103)
(0.705221 -0.702899 -0.0927125)
(0.816564 -0.569762 -0.0927103)
(0.903097 -0.419311 -0.0927076)
(0.96219 -0.256118 -0.0927081)
(0.992046 -0.0851448 -0.0927081)
(0.99176 0.0884156 -0.0927081)
(0.96134 0.259289 -0.0927081)
(0.901709 0.422286 -0.0927076)
(0.814681 0.572451 -0.0927103)
(0.702899 0.705221 -0.0927125)
(0.569762 0.816564 -0.0927103)
(0.419311 0.903097 -0.0927076)
(0.256118 0.96219 -0.0927081)
(0.0851448 0.992046 -0.0927081)
(-0.0884156 0.99176 -0.0927081)
(-0.259289 0.96134 -0.0927081)
(-0.422286 0.901709 -0.0927076)
(-0.572451 0.814681 -0.0927103)
(-0.705221 0.702899 -0.0927125)
(-0.816564 0.569762 -0.0927103)
(-0.903097 0.419311 -0.0927076)
(-0.96219 0.256118 -0.0927081)
(-0.992046 0.0851448 -0.0927081)
(-0.99176 -0.0884156 -0.0927081)
(-0.96134 -0.259289 -0.0927081)
(-0.901709 -0.422286 -0.0927076)
(-0.814681 -0.572451 -0.0927103)
(-0.702899 -0.705221 -0.0927125)
(-0.569762 -0.816564 -0.0927103)
(-0.419311 -0.903097 -0.0927076)
(-0.256118 -0.96219 -0.0927081)
(-0.0851448 -0.992046 -0.0927081)
(0.0531374 -0.809684 0.584455)
(0.19293 -0.788156 0.584455)
(0.326862 -0.74268 0.584456)
(0.450862 -0.674638 0.584455)
(0.561162 -0.586099 0.584453)
(0.65441 -0.47975 0.584455)
(0.727776 -0.358824 0.584456)
(0.779029 -0.226994 0.584455)
(0.806611 -0.0882694 0.584455)
(0.809684 0.0531374 0.584455)
(0.788156 0.19293 0.584455)
(0.74268 0.326862 0.584456)
(0.674638 0.450862 0.584455)
(0.586099 0.561162 0.584453)
(0.47975 0.65441 0.584455)
(0.358824 0.727776 0.584456)
(0.226994 0.779029 0.584455)
(0.0882694 0.806611 0.584455)
(-0.0531374 0.809684 0.584455)
(-0.19293 0.788156 0.584455)
(-0.326862 0.74268 0.584456)
(-0.450862 0.674638 0.584455)
(-0.561162 0.586099 0.584453)
(-0.65441 0.47975 0.584455)
(-0.727776 0.358824 0.584456)
(-0.779029 0.226994 0.584455)
(-0.806611 0.0882694 0.584455)
(-0.809684 -0.0531374 0.584455)
(-0.788156 -0.19293 0.584455)
(-0.74268 -0.326862 0.584456)
(-0.674638 -0.450862 0.584455)
(-0.586099 -0.561162 0.584453)
(-0.47975 -0.65441 0.584455)
(-0.358824 -0.727776 0.584456)
(-0.226994 -0.779029 0.584455)
(-0.0882694 -0.806611 0.584455)
(0.078172 -0.709027 -0.700835)
(0.200103 -0.68468 -0.700837)
(0.315958 -0.639531 -0.700835)
(0.422211 -0.574947 -0.700838)
(0.515635 -0.492896 -0.700838)
(0.593389 -0.395872 -0.700838)
(0.65312 -0.286816 -0.700835)
(0.693002 -0.169045 -0.700837)
(0.71183 -0.0461398 -0.700835)
(0.709027 0.078172 -0.700835)
(0.68468 0.200103 -0.700837)
(0.639531 0.315958 -0.700835)
(0.574947 0.422211 -0.700838)
(0.492896 0.515635 -0.700838)
(0.395872 0.593389 -0.700838)
(0.286816 0.65312 -0.700835)
(0.169045 0.693002 -0.700837)
(0.0461398 0.71183 -0.700835)
(-0.078172 0.709027 -0.700835)
(-0.200103 0.68468 -0.700837)
(-0.315958 0.639531 -0.700835)
(-0.422211 0.574947 -0.700838)
(-0.515635 0.492896 -0.700838)
(-0.593389 0.395872 -0.700838)
(-0.65312 0.286816 -0.700835)
(-0.693002 0.169045 -0.700837)
(-0.71183 0.0461398 -0.700835)
(-0.709027 -0.078172 -0.700835)
(-0.68468 -0.200103 -0.700837)
(-0.639531 -0.315958 -0.700835)
(-0.574947 -0.422211 -0.700838)
(-0.492896 -0.515635 -0.700838)
(-0.395872 -0.593389 -0.700838)
(-0.286816 -0.65312 -0.700835)
(-0.169045 -0.693002 -0.700837)
(-0.0461398 -0.71183 -0.700835)
(0.091113 -0.988291 -0.122391)
(0.261342 -0.957455 -0.122394)
(0.423633 -0.897527 -0.122393)
(0.573051 -0.810329 -0.122395)
(0.705057 -0.698509 -0.122394)
(0.81564 -0.565465 -0.122395)
(0.901441 -0.41524 -0.122393)
(0.959851 -0.252398 -0.122394)
(0.989098 -0.0818885 -0.122391)
(0.988291 0.091113 -0.122391)
(0.957455 0.261342 -0.122394)
(0.897527 0.423633 -0.122393)
(0.810329 0.573051 -0.122395)
(0.698509 0.705057 -0.122394)
(0.565465 0.81564 -0.122395)
(0.41524 0.901441 -0.122393)
(0.252398 0.959851 -0.122394)
(0.0818885 0.989098 -0.122391)
(-0.091113 0.988291 -0.122391)
(-0.261342 0.957455 -0.122394)
(-0.423633 0.897527 -0.122393)
(-0.573051 0.810329 -0.122395)
(-0.705057 0.698509 -0.122394)
(-0.81564 0.565465 -0.122395)
(-0.901441 0.41524 -0.122393)
(-0.959851 0.252398 -0.122394)
(-0.989098 0.0818885 -0.122391)
(-0.988291 -0.091113 -0.122391)
(-0.957455 -0.261342 -0.122394)
(-0.897527 -0.423633 -0.122393)
(-0.810329 -0.573051 -0.122395)
(-0.698509 -0.705057 -0.122394)
(-0.565465 -0.81564 -0.122395)
(-0.41524 -0.901441 -0.122393)
(-0.252398 -0.959851 -0.122394)
(-0.0818885 -0.989098 -0.122391)
(0.0413747 -0.817055 0.575074)
(0.182626 -0.797458 0.575073)
(0.318327 -0.75363 0.575074)
(0.444358 -0.686903 0.575074)
(0.556887 -0.599306 0.575073)
(0.652494 -0.493499 0.575074)
(0.728278 -0.372695 0.575074)
(0.781932 -0.24057 0.575073)
(0.811826 -0.101136 0.575074)
(0.817055 0.0413747 0.575074)
(0.797458 0.182626 0.575073)
(0.75363 0.318327 0.575074)
(0.686903 0.444358 0.575074)
(0.599306 0.556887 0.575073)
(0.493499 0.652494 0.575074)
(0.372695 0.728278 0.575074)
(0.24057 0.781932 0.575073)
(0.101136 0.811826 0.575074)
(-0.0413747 0.817055 0.575074)
(-0.182626 0.797458 0.575073)
(-0.318327 0.75363 0.575074)
(-0.444358 0.686903 0.575074)
(-0.556887 0.599306 0.575073)
(-0.652494 0.493499 0.575074)
(-0.728278 0.372695 0.575074)
(-0.781932 0.24057 0.575073)
(-0.811826 0.101136 0.575074)
(-0.817055 -0.0413747 0.575074)
(-0.797458 -0.182626 0.575073)
(-0.75363 -0.318327 0.575074)
(-0.686903 -0.444358 0.575074)
(-0.599306 -0.556887 0.575073)
(-0.493499 -0.652494 0.575074)
(-0.372695 -0.728278 0.575074)
(-0.24057 -0.781932 0.575073)
(-0.101136 -0.811826 0.575074)
(0.0639224 -0.710106 -0.701187)
(0.186262 -0.688217 -0.701188)
(0.302939 -0.645418 -0.701187)
(0.410411 -0.583006 -0.701189)
(0.505417 -0.502884 -0.701186)
(0.58506 -0.407478 -0.701189)
(0.646931 -0.299694 -0.701187)
(0.689144 -0.182801 -0.701188)
(0.710418 -0.0603575 -0.701187)
(0.710106 0.0639224 -0.701187)
(0.688217 0.186262 -0.701188)
(0.645418 0.302939 -0.701187)
(0.583006 0.410411 -0.701189)
(0.502884 0.505417 -0.701186)
(0.407478 0.58506 -0.701189)
(0.299694 0.646931 -0.701187)
(0.182801 0.689144 -0.701188)
(0.0603575 0.710418 -0.701187)
(-0.0639224 0.710106 -0.701187)
(-0.186262 0.688217 -0.701188)
(-0.302939 0.645418 -0.701187)
(-0.410411 0.583006 -0.701189)
(-0.505417 0.502884 -0.701186)
(-0.58506 0.407478 -0.701189)
(-0.646931 0.299694 -0.701187)
(-0.689144 0.182801 -0.701188)
(-0.710418 0.0603575 -0.701187)
(-0.710106 -0.0639224 -0.701187)
(-0.688217 -0.186262 -0.701188)
(-0.645418 -0.302939 -0.701187)
(-0.583006 -0.410411 -0.701189)
(-0.502884 -0.505417 -0.701186)
(-0.407478 -0.58506 -0.701189)
(-0.299694 -0.646931 -0.701187)
(-0.182801 -0.689144 -0.701188)
(-0.0603575 -0.710418 -0.701187)
(0.0865067 -0.988019 -0.127806)
(0.256759 -0.957987 -0.127808)
(0.419212 -0.898848 -0.127808)
(0.568925 -0.812397 -0.127808)
(0.701354 -0.701262 -0.127805)
(0.812472 -0.568818 -0.127808)
(0.898903 -0.419094 -0.127808)
(0.958021 -0.256633 -0.127807)
(0.988031 -0.0863771 -0.127806)
(0.988019 0.0865067 -0.127806)
(0.957987 0.256759 -0.127807)
(0.898848 0.419212 -0.127808)
(0.812397 0.568925 -0.127808)
(0.701262 0.701354 -0.127805)
(0.568818 0.812472 -0.127808)
(0.419094 0.898903 -0.127808)
(0.256633 0.958021 -0.127807)
(0.0863771 0.988031 -0.127806)
(-0.0865067 0.988019 -0.127806)
(-0.256759 0.957987 -0.127807)
(-0.419212 0.898848 -0.127808)
(-0.568925 0.812397 -0.127808)
(-0.701354 0.701262 -0.127805)
(-0.812472 0.568818 -0.127808)
(-0.898903 0.419094 -0.127808)
(-0.958021 0.256633 -0.127807)
(-0.988031 0.0863771 -0.127806)
(-0.988019 -0.0865067 -0.127806)
(-0.957987 -0.256759 -0.127807)
(-0.898848 -0.419212 -0.127808)
(-0.812397 -0.568925 -0.127808)
(-0.701262 -0.701354 -0.127805)
(-0.568818 -0.812472 -0.127808)
(-0.419094 -0.898903 -0.127808)
(-0.256633 -0.958021 -0.127808)
(-0.0863771 -0.988031 -0.127806)
(0.0681682 -0.817311 0.57215)
(0.209057 -0.793058 0.572149)
(0.343594 -0.744707 0.572149)
(0.467691 -0.673728 0.57215)
(0.577578 -0.582279 0.572149)
(0.669915 -0.473137 0.57215)
(0.741897 -0.34962 0.572149)
(0.791336 -0.215481 0.572149)
(0.816732 -0.0747928 0.57215)
(0.817311 0.0681682 0.57215)
(0.793058 0.209057 0.572149)
(0.744707 0.343594 0.572149)
(0.673728 0.467691 0.57215)
(0.582279 0.577578 0.572149)
(0.473137 0.669915 0.57215)
(0.34962 0.741897 0.572149)
(0.215481 0.791336 0.572149)
(0.0747928 0.816732 0.57215)
(-0.0681682 0.817311 0.57215)
(-0.209057 0.793058 0.572149)
(-0.343594 0.744707 0.572149)
(-0.467691 0.673728 0.57215)
(-0.577578 0.582279 0.572149)
(-0.669915 0.473137 0.57215)
(-0.741897 0.34962 0.572149)
(-0.791336 0.215481 0.572149)
(-0.816732 0.0747928 0.57215)
(-0.817311 -0.0681682 0.57215)
(-0.793058 -0.209057 0.572149)
(-0.744707 -0.343594 0.572149)
(-0.673728 -0.467691 0.57215)
(-0.582279 -0.577578 0.572149)
(-0.473137 -0.669915 0.57215)
(-0.34962 -0.741897 0.572149)
(-0.215481 -0.791336 0.572149)
(-0.0747928 -0.816732 0.57215)
(0.0329591 -0.715984 -0.697338)
(0.156789 -0.699385 -0.697336)
(0.275856 -0.661533 -0.697336)
(0.386538 -0.60358 -0.697337)
(0.485475 -0.527291 -0.697337)
(0.569663 -0.434977 -0.697337)
(0.636542 -0.32945 -0.697336)
(0.68408 -0.213907 -0.697336)
(0.71083 -0.0918693 -0.697338)
(0.715984 0.0329591 -0.697338)
(0.699385 0.156789 -0.697336)
(0.661533 0.275856 -0.697336)
(0.60358 0.386538 -0.697337)
(0.527291 0.485475 -0.697337)
(0.434977 0.569663 -0.697337)
(0.32945 0.636542 -0.697336)
(0.213907 0.68408 -0.697336)
(0.0918693 0.71083 -0.697338)
(-0.0329591 0.715984 -0.697338)
(-0.156789 0.699385 -0.697336)
(-0.275856 0.661533 -0.697336)
(-0.386538 0.60358 -0.697337)
(-0.485475 0.527291 -0.697337)
(-0.569663 0.434977 -0.697337)
(-0.636542 0.32945 -0.697336)
(-0.68408 0.213907 -0.697336)
(-0.71083 0.0918693 -0.697338)
(-0.715984 -0.0329591 -0.697338)
(-0.699385 -0.156789 -0.697336)
(-0.661533 -0.275856 -0.697336)
(-0.60358 -0.386538 -0.697337)
(-0.527291 -0.485475 -0.697337)
(-0.434977 -0.569663 -0.697337)
(-0.32945 -0.636542 -0.697336)
(-0.213907 -0.68408 -0.697336)
(-0.0918693 -0.71083 -0.697338)
(0.0805311 -0.988298 -0.129545)
(0.250924 -0.959299 -0.129545)
(0.413693 -0.901153 -0.129545)
(0.563892 -0.815625 -0.129546)
(0.696956 -0.705316 -0.129546)
(0.808844 -0.573575 -0.129546)
(0.896157 -0.424407 -0.129545)
(0.95624 -0.262343 -0.129545)
(0.987268 -0.0923079 -0.129545)
(0.988298 0.0805311 -0.129545)
(0.959299 0.250924 -0.129545)
(0.901153 0.413693 -0.129545)
(0.815625 0.563892 -0.129546)
(0.705316 0.696956 -0.129546)
(0.573575 0.808844 -0.129546)
(0.424407 0.896157 -0.129545)
(0.262343 0.95624 -0.129545)
(0.0923079 0.987268 -0.129545)
(-0.0805311 0.988298 -0.129545)
(-0.250924 0.959299 -0.129545)
(-0.413693 0.901153 -0.129545)
(-0.563892 0.815625 -0.129546)
(-0.696956 0.705316 -0.129546)
(-0.808844 0.573575 -0.129546)
(-0.896157 0.424407 -0.129545)
(-0.95624 0.262343 -0.129545)
(-0.987268 0.0923079 -0.129545)
(-0.988298 -0.0805311 -0.129545)
(-0.959299 -0.250924 -0.129545)
(-0.901153 -0.413693 -0.129545)
(-0.815625 -0.563892 -0.129546)
(-0.705316 -0.696956 -0.129546)
(-0.573575 -0.808844 -0.129546)
(-0.424407 -0.896157 -0.129545)
(-0.262343 -0.95624 -0.129545)
(-0.0923079 -0.987268 -0.129545)
(0.094399 -0.816966 0.568907)
(0.23483 -0.788163 0.568906)
(0.368126 -0.735411 0.568907)
(0.490236 -0.660313 0.568907)
(0.59745 -0.565154 0.568906)
(0.686511 -0.452822 0.568907)
(0.754713 -0.326731 0.568907)
(0.799984 -0.190713 0.568906)
(0.820947 -0.0488992 0.568907)
(0.816966 0.094399 0.568907)
(0.788163 0.23483 0.568906)
(0.735411 0.368126 0.568907)
(0.660313 0.490236 0.568907)
(0.565154 0.59745 0.568906)
(0.452822 0.686511 0.568907)
(0.326731 0.754713 0.568907)
(0.190713 0.799984 0.568906)
(0.0488992 0.820947 0.568907)
(-0.094399 0.816966 0.568907)
(-0.23483 0.788163 0.568906)
(-0.368126 0.735411 0.568907)
(-0.490236 0.660313 0.568907)
(-0.59745 0.565154 0.568906)
(-0.686511 0.452822 0.568907)
(-0.754713 0.326731 0.568907)
(-0.799984 0.190713 0.568906)
(-0.820947 0.0488992 0.568907)
(-0.816966 -0.094399 0.568907)
(-0.788163 -0.23483 0.568906)
(-0.735411 -0.368126 0.568907)
(-0.660313 -0.490236 0.568907)
(-0.565154 -0.59745 0.568906)
(-0.452822 -0.686511 0.568907)
(-0.326731 -0.754713 0.568907)
(-0.190713 -0.799984 0.568906)
(-0.0488992 -0.820947 0.568907)
(-0.0011382 -0.721911 -0.691985)
(0.124238 -0.711143 -0.691984)
(0.245839 -0.678764 -0.691984)
(0.359973 -0.625762 -0.691983)
(0.463164 -0.553746 -0.691986)
(0.552286 -0.464908 -0.691983)
(0.624625 -0.361942 -0.691984)
(0.677987 -0.247977 -0.691984)
(0.710746 -0.126478 -0.691985)
(0.721911 -0.0011382 -0.691985)
(0.711143 0.124238 -0.691984)
(0.678764 0.245839 -0.691984)
(0.625762 0.359973 -0.691983)
(0.553746 0.463164 -0.691986)
(0.464908 0.552286 -0.691983)
(0.361942 0.624625 -0.691984)
(0.247977 0.677987 -0.691984)
(0.126478 0.710746 -0.691985)
(0.0011382 0.721911 -0.691985)
(-0.124238 0.711143 -0.691984)
(-0.245839 0.678764 -0.691984)
(-0.359973 0.625762 -0.691983)
(-0.463164 0.553746 -0.691986)
(-0.552286 0.464908 -0.691983)
(-0.624625 0.361942 -0.691984)
(-0.677987 0.247977 -0.691984)
(-0.710746 0.126478 -0.691985)
(-0.721911 0.0011382 -0.691985)
(-0.711143 -0.124238 -0.691984)
(-0.678764 -0.245839 -0.691984)
(-0.625762 -0.359973 -0.691983)
(-0.553746 -0.463164 -0.691986)
(-0.464908 -0.552286 -0.691983)
(-0.361942 -0.624625 -0.691984)
(-0.247977 -0.677987 -0.691984)
(-0.126478 -0.710746 -0.691985)
(0.0739625 -0.98853 -0.131672)
(0.244496 -0.960669 -0.131672)
(0.4076 -0.903618 -0.131671)
(0.55832 -0.81911 -0.13167)
(0.692074 -0.709716 -0.131673)
(0.8048 -0.578757 -0.13167)
(0.893074 -0.430211 -0.131671)
(0.954211 -0.268595 -0.131672)
(0.986356 -0.0988166 -0.131672)
(0.98853 0.0739625 -0.131672)
(0.960669 0.244496 -0.131672)
(0.903618 0.4076 -0.131671)
(0.81911 0.55832 -0.13167)
(0.709716 0.692074 -0.131673)
(0.578757 0.8048 -0.13167)
(0.430211 0.893074 -0.131671)
(0.268595 0.954211 -0.131672)
(0.0988166 0.986356 -0.131672)
(-0.0739625 0.98853 -0.131672)
(-0.244496 0.960669 -0.131672)
(-0.4076 0.903618 -0.131671)
(-0.55832 0.81911 -0.13167)
(-0.692074 0.709716 -0.131673)
(-0.8048 0.578757 -0.13167)
(-0.893074 0.430211 -0.131671)
(-0.954211 0.268595 -0.131672)
(-0.986356 0.0988166 -0.131672)
(-0.98853 -0.0739625 -0.131672)
(-0.960669 -0.244496 -0.131672)
(-0.903618 -0.4076 -0.131671)
(-0.81911 -0.55832 -0.13167)
(-0.709716 -0.692074 -0.131673)
(-0.578757 -0.8048 -0.13167)
(-0.430211 -0.893074 -0.131671)
(-0.268595 -0.954211 -0.131672)
(-0.0988166 -0.986356 -0.131672)
(0.119983 -0.816955 0.564083)
(0.260024 -0.783707 0.564084)
(0.392164 -0.726649 0.564083)
(0.512387 -0.64751 0.564084)
(0.617041 -0.548699 0.564083)
(0.702947 -0.433215 0.564084)
(0.767495 -0.304568 0.564083)
(0.808722 -0.166667 0.564084)
(0.825378 -0.0237007 0.564083)
(0.816955 0.119983 0.564083)
(0.783707 0.260024 0.564084)
(0.726648 0.392164 0.564083)
(0.64751 0.512387 0.564084)
(0.548699 0.617041 0.564083)
(0.433215 0.702947 0.564084)
(0.304568 0.767495 0.564083)
(0.166667 0.808722 0.564084)
(0.0237007 0.825378 0.564083)
(-0.119983 0.816955 0.564083)
(-0.260024 0.783707 0.564084)
(-0.392164 0.726648 0.564083)
(-0.512387 0.64751 0.564084)
(-0.617041 0.548699 0.564083)
(-0.702947 0.433215 0.564084)
(-0.767495 0.304568 0.564083)
(-0.808722 0.166667 0.564084)
(-0.825378 0.0237007 0.564083)
(-0.816955 -0.119983 0.564083)
(-0.783707 -0.260024 0.564084)
(-0.726648 -0.392164 0.564083)
(-0.64751 -0.512387 0.564084)
(-0.548699 -0.617041 0.564083)
(-0.433215 -0.702947 0.564084)
(-0.304568 -0.767495 0.564083)
(-0.166667 -0.808722 0.564084)
(-0.0237007 -0.825378 0.564083)
(-0.037182 -0.72733 -0.68528)
(0.0896817 -0.722737 -0.68528)
(0.21382 -0.696183 -0.685281)
(0.331464 -0.648478 -0.685279)
(0.439036 -0.581067 -0.68528)
(0.533268 -0.496002 -0.685279)
(0.611294 -0.395866 -0.685281)
(0.670749 -0.283702 -0.68528)
(0.709824 -0.162917 -0.68528)
(0.72733 -0.037182 -0.68528)
(0.722737 0.0896817 -0.68528)
(0.696183 0.21382 -0.685281)
(0.648478 0.331464 -0.685279)
(0.581067 0.439036 -0.68528)
(0.496002 0.533268 -0.685279)
(0.395866 0.611294 -0.685281)
(0.283702 0.670749 -0.68528)
(0.162917 0.709824 -0.68528)
(0.037182 0.72733 -0.68528)
(-0.0896817 0.722737 -0.68528)
(-0.21382 0.696183 -0.685281)
(-0.331464 0.648478 -0.685279)
(-0.439036 0.581067 -0.68528)
(-0.533268 0.496002 -0.685279)
(-0.611294 0.395866 -0.685281)
(-0.670749 0.283702 -0.68528)
(-0.709824 0.162917 -0.68528)
(-0.72733 0.037182 -0.68528)
(-0.722737 -0.0896817 -0.68528)
(-0.696183 -0.21382 -0.685281)
(-0.648478 -0.331464 -0.685279)
(-0.581067 -0.439036 -0.68528)
(-0.496002 -0.533268 -0.685279)
(-0.395866 -0.611294 -0.685281)
(-0.283702 -0.670749 -0.68528)
(-0.162917 -0.709824 -0.68528)
(0.0665131 -0.988592 -0.135136)
(0.237171 -0.962023 -0.135136)
(0.400621 -0.906223 -0.135137)
(0.551898 -0.822889 -0.135136)
(0.686407 -0.714551 -0.135136)
(0.80006 -0.584502 -0.135136)
(0.889402 -0.436694 -0.135137)
(0.951721 -0.275617 -0.135136)
(0.985123 -0.106164 -0.135136)
(0.988592 0.0665131 -0.135136)
(0.962023 0.237171 -0.135136)
(0.906223 0.400621 -0.135137)
(0.822889 0.551898 -0.135136)
(0.714551 0.686407 -0.135136)
(0.584502 0.80006 -0.135136)
(0.436694 0.889402 -0.135137)
(0.275617 0.951721 -0.135136)
(0.106164 0.985123 -0.135136)
(-0.0665131 0.988592 -0.135136)
(-0.237171 0.962023 -0.135136)
(-0.400621 0.906223 -0.135137)
(-0.551898 0.822889 -0.135136)
(-0.686407 0.714551 -0.135136)
(-0.80006 0.584502 -0.135136)
(-0.889402 0.436694 -0.135137)
(-0.951721 0.275617 -0.135136)
(-0.985123 0.106164 -0.135136)
(-0.988592 -0.0665131 -0.135136)
(-0.962023 -0.237171 -0.135136)
(-0.906223 -0.400621 -0.135137)
(-0.822889 -0.551898 -0.135136)
(-0.714551 -0.686407 -0.135136)
(-0.584502 -0.80006 -0.135136)
(-0.436694 -0.889402 -0.135137)
(-0.275617 -0.951721 -0.135136)
(-0.106164 -0.985123 -0.135136)
(0.14526 -0.817494 0.557318)
(0.285011 -0.779849 0.557318)
(0.416101 -0.71851 0.557318)
(0.534546 -0.63534 0.557318)
(0.636751 -0.532865 0.557318)
(0.719608 -0.414199 0.557318)
(0.7806 -0.282949 0.557318)
(0.817875 -0.1431 0.557318)
(0.830298 0.00109736 0.557318)
(0.817494 0.14526 0.557318)
(0.779849 0.285011 0.557318)
(0.71851 0.416101 0.557318)
(0.63534 0.534546 0.557318)
(0.532865 0.636751 0.557318)
(0.414199 0.719608 0.557318)
(0.282949 0.7806 0.557318)
(0.1431 0.817875 0.557318)
(-0.00109736 0.830298 0.557318)
(-0.14526 0.817494 0.557318)
(-0.285011 0.779849 0.557318)
(-0.416101 0.71851 0.557318)
(-0.534546 0.63534 0.557318)
(-0.636751 0.532865 0.557318)
(-0.719608 0.414199 0.557318)
(-0.7806 0.282949 0.557318)
(-0.817875 0.1431 0.557318)
(-0.830298 -0.00109736 0.557318)
(-0.817494 -0.14526 0.557318)
(-0.779849 -0.285011 0.557318)
(-0.71851 -0.416101 0.557318)
(-0.63534 -0.534546 0.557318)
(-0.532865 -0.636751 0.557318)
(-0.414199 -0.719608 0.557318)
(-0.282949 -0.7806 0.557318)
(-0.1431 -0.817875 0.557318)
(0.00109736 -0.830298 0.557318)
(-0.0756174 -0.732046 -0.677046)
(0.0526489 -0.734054 -0.677047)
(0.179316 -0.713759 -0.677047)
(0.300535 -0.67178 -0.677045)
(0.412624 -0.609385 -0.677046)
(0.512175 -0.528476 -0.677045)
(0.59616 -0.431509 -0.677047)
(0.662034 -0.321433 -0.677047)
(0.707793 -0.201587 -0.677046)
(0.732046 -0.0756174 -0.677046)
(0.734054 0.0526489 -0.677047)
(0.713759 0.179316 -0.677047)
(0.67178 0.300535 -0.677045)
(0.609385 0.412624 -0.677046)
(0.528476 0.512175 -0.677045)
(0.431509 0.59616 -0.677047)
(0.321433 0.662034 -0.677047)
(0.201587 0.707793 -0.677046)
(0.0756174 0.732046 -0.677046)
(-0.0526489 0.734054 -0.677047)
(-0.179316 0.713759 -0.677047)
(-0.300535 0.67178 -0.677045)
(-0.412624 0.609385 -0.677046)
(-0.512175 0.528476 -0.677045)
(-0.59616 0.431509 -0.677047)
(-0.662034 0.321433 -0.677047)
(-0.707793 0.201587 -0.677046)
(-0.732046 0.0756174 -0.677046)
(-0.734054 -0.0526489 -0.677047)
(-0.713759 -0.179316 -0.677047)
(-0.67178 -0.300535 -0.677045)
(-0.609385 -0.412624 -0.677046)
(-0.528476 -0.512175 -0.677045)
(-0.431509 -0.59616 -0.677047)
(-0.321433 -0.662034 -0.677047)
(-0.201587 -0.707793 -0.677046)
(0.0574415 -0.98837 -0.140802)
(0.228199 -0.963379 -0.140804)
(0.39202 -0.909118 -0.140804)
(0.543931 -0.827233 -0.140803)
(0.679315 -0.720213 -0.140803)
(0.794058 -0.591309 -0.140803)
(0.884674 -0.444439 -0.140804)
(0.948409 -0.284067 -0.140804)
(0.983329 -0.115059 -0.140802)
(0.98837 0.0574415 -0.140802)
(0.963379 0.228199 -0.140804)
(0.909118 0.39202 -0.140804)
(0.827233 0.543931 -0.140803)
(0.720213 0.679315 -0.140803)
(0.591309 0.794058 -0.140803)
(0.444439 0.884674 -0.140804)
(0.284067 0.948409 -0.140804)
(0.115059 0.983329 -0.140802)
(-0.0574415 0.98837 -0.140802)
(-0.228199 0.963379 -0.140804)
(-0.39202 0.909118 -0.140804)
(-0.543931 0.827233 -0.140803)
(-0.679315 0.720213 -0.140803)
(-0.794058 0.591309 -0.140803)
(-0.884674 0.444439 -0.140804)
(-0.948409 0.284067 -0.140804)
(-0.983329 0.115059 -0.140802)
(-0.98837 -0.0574415 -0.140802)
(-0.963379 -0.228199 -0.140804)
(-0.909118 -0.39202 -0.140804)
(-0.827233 -0.543931 -0.140803)
(-0.720213 -0.679315 -0.140803)
(-0.591309 -0.794058 -0.140803)
(-0.444439 -0.884674 -0.140804)
(-0.284067 -0.948409 -0.140804)
(-0.115059 -0.983329 -0.140802)
(0.170849 -0.818689 0.548233)
(0.310417 -0.776584 0.548232)
(0.440553 -0.710883 0.548232)
(0.557303 -0.623582 0.548233)
(0.65712 -0.517334 0.548233)
(0.736971 -0.395367 0.548233)
(0.79443 -0.261387 0.548232)
(0.82775 -0.119464 0.548232)
(0.835919 0.0260875 0.548233)
(0.818689 0.170849 0.548233)
(0.776584 0.310417 0.548232)
(0.710883 0.440553 0.548232)
(0.623582 0.557303 0.548233)
(0.517334 0.65712 0.548233)
(0.395367 0.736971 0.548233)
(0.261387 0.79443 0.548232)
(0.119464 0.82775 0.548232)
(-0.0260875 0.835919 0.548233)
(-0.170849 0.818689 0.548233)
(-0.310417 0.776584 0.548232)
(-0.440553 0.710883 0.548232)
(-0.557303 0.623582 0.548233)
(-0.65712 0.517334 0.548233)
(-0.736971 0.395367 0.548233)
(-0.79443 0.261387 0.548232)
(-0.82775 0.119464 0.548232)
(-0.835919 -0.0260875 0.548233)
(-0.818689 -0.170849 0.548233)
(-0.776584 -0.310417 0.548232)
(-0.710883 -0.440553 0.548232)
(-0.623582 -0.557303 0.548233)
(-0.517334 -0.65712 0.548233)
(-0.395367 -0.736971 0.548233)
(-0.261387 -0.79443 0.548232)
(-0.119464 -0.82775 0.548232)
(0.0260875 -0.835919 0.548233)
(-0.11746 -0.735921 -0.666801)
(0.0121125 -0.745136 -0.666803)
(0.14132 -0.731712 -0.666803)
(0.266234 -0.696057 -0.666802)
(0.383059 -0.639251 -0.666802)
(0.488244 -0.563021 -0.666802)
(0.578594 -0.469684 -0.666803)
(0.651362 -0.362079 -0.666803)
(0.704343 -0.243469 -0.666801)
(0.735921 -0.11746 -0.666801)
(0.745136 0.0121125 -0.666803)
(0.731712 0.14132 -0.666803)
(0.696057 0.266234 -0.666802)
(0.639251 0.383059 -0.666802)
(0.563021 0.488244 -0.666802)
(0.469684 0.578594 -0.666803)
(0.362079 0.651362 -0.666803)
(0.243469 0.704343 -0.666801)
(0.11746 0.735921 -0.666801)
(-0.0121125 0.745136 -0.666803)
(-0.14132 0.731712 -0.666803)
(-0.266234 0.696057 -0.666802)
(-0.383059 0.639251 -0.666802)
(-0.488244 0.563021 -0.666802)
(-0.578594 0.469684 -0.666803)
(-0.651362 0.362079 -0.666803)
(-0.704343 0.243469 -0.666801)
(-0.735921 0.11746 -0.666801)
(-0.745136 -0.0121125 -0.666803)
(-0.731712 -0.14132 -0.666803)
(-0.696057 -0.266234 -0.666802)
(-0.639251 -0.383059 -0.666802)
(-0.563021 -0.488244 -0.666802)
(-0.469684 -0.578594 -0.666803)
(-0.362079 -0.651362 -0.666803)
(-0.243469 -0.704343 -0.666801)
(0.0454975 -0.987669 -0.1498)
(0.216312 -0.964763 -0.149803)
(0.380554 -0.912545 -0.149802)
(0.533235 -0.832598 -0.149802)
(0.669713 -0.727354 -0.149801)
(0.785842 -0.60001 -0.149802)
(0.878095 -0.454433 -0.149802)
(0.943665 -0.295051 -0.149803)
(0.980564 -0.126703 -0.1498)
(0.987669 0.0454975 -0.1498)
(0.964763 0.216312 -0.149803)
(0.912545 0.380554 -0.149802)
(0.832598 0.533235 -0.149802)
(0.727354 0.669713 -0.149801)
(0.60001 0.785842 -0.149802)
(0.454433 0.878095 -0.149802)
(0.295051 0.943665 -0.149803)
(0.126703 0.980564 -0.1498)
(-0.0454975 0.987669 -0.1498)
(-0.216312 0.964763 -0.149803)
(-0.380554 0.912545 -0.149802)
(-0.533235 0.832598 -0.149802)
(-0.669713 0.727354 -0.149801)
(-0.785842 0.60001 -0.149802)
(-0.878095 0.454433 -0.149802)
(-0.943665 0.295051 -0.149803)
(-0.980564 0.126703 -0.1498)
(-0.987669 -0.0454975 -0.1498)
(-0.964763 -0.216312 -0.149803)
(-0.912545 -0.380554 -0.149802)
(-0.832598 -0.533235 -0.149802)
(-0.727354 -0.669713 -0.149801)
(-0.60001 -0.785842 -0.149802)
(-0.454433 -0.878095 -0.149802)
(-0.295051 -0.943665 -0.149803)
(-0.126703 -0.980564 -0.1498)
(0.197512 -0.820759 0.536045)
(0.337035 -0.773992 0.536045)
(0.466316 -0.703708 0.536045)
(0.58143 -0.612042 0.536045)
(0.678877 -0.501779 0.536045)
(0.755696 -0.37627 0.536045)
(0.809554 -0.239328 0.536045)
(0.838814 -0.0951161 0.536045)
(0.842587 0.0519876 0.536045)
(0.820759 0.197512 0.536045)
(0.773992 0.337035 0.536045)
(0.703708 0.466316 0.536045)
(0.612042 0.58143 0.536045)
(0.501779 0.678877 0.536045)
(0.37627 0.755696 0.536045)
(0.239328 0.809554 0.536045)
(0.0951161 0.838814 0.536045)
(-0.0519876 0.842587 0.536045)
(-0.197512 0.820759 0.536045)
(-0.337035 0.773992 0.536045)
(-0.466316 0.703708 0.536045)
(-0.58143 0.612042 0.536045)
(-0.678877 0.501779 0.536045)
(-0.755696 0.37627 0.536045)
(-0.809554 0.239328 0.536045)
(-0.838814 0.0951161 0.536045)
(-0.842587 -0.0519876 0.536045)
(-0.820759 -0.197512 0.536045)
(-0.773992 -0.337035 0.536045)
(-0.703708 -0.466316 0.536045)
(-0.612042 -0.58143 0.536045)
(-0.501779 -0.678877 0.536045)
(-0.37627 -0.755696 0.536045)
(-0.239328 -0.809554 0.536045)
(-0.0951161 -0.838814 0.536045)
(0.0519876 -0.842587 0.536045)
(-0.164801 -0.738553 -0.653743)
(-0.0340524 -0.755948 -0.653745)
(0.0977353 -0.750378 -0.653744)
(0.226551 -0.722006 -0.653745)
(0.348484 -0.671697 -0.653744)
(0.459828 -0.600979 -0.653745)
(0.557204 -0.511999 -0.653744)
(0.637644 -0.407465 -0.653745)
(0.698714 -0.290549 -0.653743)
(0.738553 -0.164801 -0.653743)
(0.755948 -0.0340524 -0.653745)
(0.750378 0.0977353 -0.653744)
(0.722006 0.226551 -0.653745)
(0.671697 0.348484 -0.653744)
(0.600979 0.459828 -0.653745)
(0.511999 0.557204 -0.653744)
(0.407465 0.637644 -0.653745)
(0.290549 0.698714 -0.653743)
(0.164801 0.738553 -0.653743)
(0.0340524 0.755948 -0.653745)
(-0.0977353 0.750378 -0.653744)
(-0.226551 0.722006 -0.653745)
(-0.348484 0.671697 -0.653744)
(-0.459828 0.600979 -0.653745)
(-0.557204 0.511999 -0.653744)
(-0.637644 0.407465 -0.653745)
(-0.698714 0.290549 -0.653743)
(-0.738553 0.164801 -0.653743)
(-0.755948 0.0340524 -0.653745)
(-0.750378 -0.0977353 -0.653744)
(-0.722006 -0.226551 -0.653745)
(-0.671697 -0.348484 -0.653744)
(-0.600979 -0.459828 -0.653745)
(-0.511999 -0.557204 -0.653744)
(-0.407465 -0.637644 -0.653745)
(-0.290549 -0.698714 -0.653743)
(0.0288202 -0.986217 -0.162928)
(0.199636 -0.96623 -0.162928)
(0.364388 -0.916884 -0.162927)
(0.518066 -0.839679 -0.16293)
(0.656004 -0.736961 -0.162929)
(0.77401 -0.611852 -0.16293)
(0.868499 -0.46815 -0.162927)
(0.936598 -0.310225 -0.162928)
(0.976238 -0.142874 -0.162928)
(0.986217 0.0288202 -0.162928)
(0.96623 0.199636 -0.162928)
(0.916884 0.364388 -0.162927)
(0.839679 0.518066 -0.16293)
(0.736961 0.656004 -0.162929)
(0.611852 0.77401 -0.16293)
(0.46815 0.868499 -0.162927)
(0.310225 0.936598 -0.162928)
(0.142874 0.976238 -0.162928)
(-0.0288202 0.986217 -0.162928)
(-0.199636 0.96623 -0.162928)
(-0.364388 0.916884 -0.162927)
(-0.518066 0.839679 -0.16293)
(-0.656004 0.736961 -0.162929)
(-0.77401 0.611852 -0.16293)
(-0.868499 0.46815 -0.162927)
(-0.936598 0.310225 -0.162928)
(-0.976238 0.142874 -0.162928)
(-0.986217 -0.0288202 -0.162928)
(-0.96623 -0.199636 -0.162928)
(-0.916884 -0.364388 -0.162927)
(-0.839679 -0.518066 -0.16293)
(-0.736961 -0.656004 -0.162929)
(-0.611852 -0.77401 -0.16293)
(-0.46815 -0.868499 -0.162927)
(-0.310225 -0.936598 -0.162928)
(-0.142874 -0.976238 -0.162928)
(0.226154 -0.8239 0.519657)
(0.365787 -0.772111 0.519657)
(0.494306 -0.696862 0.519658)
(0.607807 -0.60044 0.519657)
(0.702837 -0.485775 0.519656)
(0.776513 -0.356349 0.519657)
(0.826595 -0.216095 0.519658)
(0.851562 -0.0692758 0.519657)
(0.850654 0.0796511 0.519657)
(0.8239 0.226154 0.519657)
(0.772111 0.365787 0.519657)
(0.696862 0.494306 0.519658)
(0.60044 0.607807 0.519657)
(0.485775 0.702837 0.519656)
(0.356349 0.776513 0.519657)
(0.216095 0.826595 0.519658)