/*--------------------------------*- C++ -*----------------------------------*\
| =========                 |                                                 |
| \\      /  F ield         | OpenFOAM: The Open Source CFD Toolbox           |
|  \\    /   O peration     | Version:  2312                                  |
|   \\  /    A nd           | Website:  www.openfoam.com                      |
|    \\/     M anipulation  |                                                 |
\*---------------------------------------------------------------------------*/
FoamFile
{
    version     2.0;
    format      ascii;
    arch        "LSB;label=32;scalar=64";
    class       volVectorField;
    location    "0.2";
    object      D_0_0_0;
}
// * * * * * * * * * * * * * * * * * * * * * * * * * * * * * * * * * * * * * //

dimensions      [0 1 0 0 0 0 0];

internalField   nonuniform List<vector> 
1620
(
(-0.000139016 0.00025154 -3.90191e-05)
(-0.000180583 0.000223578 -3.90191e-05)
(-0.000216664 0.000188824 -3.90191e-05)
(-0.000246162 0.000148332 -3.90191e-05)
(-0.000268179 0.000103333 -3.90191e-05)
(-0.000282049 5.51944e-05 -3.90192e-05)
(-0.000287348 5.37852e-06 -3.9019e-05)
(-0.000283916 -4.46005e-05 -3.9019e-05)
(-0.000271858 -9.32247e-05 -3.9019e-05)
(-0.00025154 -0.000139016 -3.90191e-05)
(-0.000223578 -0.000180583 -3.90191e-05)
(-0.000188824 -0.000216664 -3.90191e-05)
(-0.000148332 -0.000246162 -3.90191e-05)
(-0.000103333 -0.000268179 -3.90191e-05)
(-5.51944e-05 -0.000282049 -3.90192e-05)
(-5.37851e-06 -0.000287348 -3.9019e-05)
(4.46006e-05 -0.000283916 -3.9019e-05)
(9.32247e-05 -0.000271858 -3.9019e-05)
(0.000139016 -0.00025154 -3.90191e-05)
(0.000180583 -0.000223578 -3.90191e-05)
(0.000216664 -0.000188824 -3.90191e-05)
(0.000246162 -0.000148332 -3.90191e-05)
(0.000268179 -0.000103333 -3.90191e-05)
(0.000282049 -5.51944e-05 -3.90192e-05)
(0.000287348 -5.37852e-06 -3.9019e-05)
(0.000283916 4.46006e-05 -3.9019e-05)
(0.000271858 9.32247e-05 -3.9019e-05)
(0.00025154 0.000139016 -3.90191e-05)
(0.000223578 0.000180583 -3.90191e-05)
(0.000188824 0.000216664 -3.90191e-05)
(0.000148332 0.000246162 -3.90191e-05)
(0.000103333 0.000268179 -3.90191e-05)
(5.51944e-05 0.000282049 -3.90192e-05)
(5.37853e-06 0.000287348 -3.9019e-05)
(-4.46005e-05 0.000283916 -3.9019e-05)
(-9.32246e-05 0.000271858 -3.9019e-05)
(-0.000112126 0.000250847 -2.8132e-05)
(-0.000153982 0.000227566 -2.81321e-05)
(-0.000191159 0.00019737 -2.81321e-05)
(-0.000222527 0.000161177 -2.8132e-05)
(-0.000247135 0.000120087 -2.81321e-05)
(-0.000264233 7.5348e-05 -2.81321e-05)
(-0.000273303 2.83197e-05 -2.8132e-05)
(-0.000274069 -1.95691e-05 -2.8132e-05)
(-0.000266507 -6.68634e-05 -2.8132e-05)
(-0.000250847 -0.000112126 -2.8132e-05)
(-0.000227566 -0.000153982 -2.81321e-05)
(-0.00019737 -0.000191159 -2.81321e-05)
(-0.000161177 -0.000222527 -2.8132e-05)
(-0.000120087 -0.000247135 -2.81321e-05)
(-7.5348e-05 -0.000264233 -2.81321e-05)
(-2.83197e-05 -0.000273303 -2.8132e-05)
(1.95691e-05 -0.000274069 -2.8132e-05)
(6.68634e-05 -0.000266507 -2.8132e-05)
(0.000112126 -0.000250847 -2.8132e-05)
(0.000153982 -0.000227566 -2.81321e-05)
(0.000191159 -0.00019737 -2.81321e-05)
(0.000222527 -0.000161177 -2.8132e-05)
(0.000247135 -0.000120087 -2.81321e-05)
(0.000264233 -7.5348e-05 -2.81321e-05)
(0.000273303 -2.83197e-05 -2.8132e-05)
(0.000274069 1.95691e-05 -2.8132e-05)
(0.000266507 6.68634e-05 -2.8132e-05)
(0.000250847 0.000112126 -2.8132e-05)
(0.000227566 0.000153982 -2.81321e-05)
(0.00019737 0.000191159 -2.81321e-05)
(0.000161177 0.000222527 -2.8132e-05)
(0.000120087 0.000247135 -2.81321e-05)
(7.5348e-05 0.000264233 -2.81321e-05)
(2.83197e-05 0.000273303 -2.8132e-05)
(-1.95691e-05 0.000274069 -2.8132e-05)
(-6.68634e-05 0.000266507 -2.8132e-05)
(-9.21258e-05 0.000248868 -1.75673e-05)
(-0.000133942 0.00022909 -1.75673e-05)
(-0.000171688 0.000202351 -1.75674e-05)
(-0.000204217 0.000169463 -1.75673e-05)
(-0.000230542 0.000131427 -1.75674e-05)
(-0.000249861 8.93967e-05 -1.75673e-05)
(-0.000261589 4.46506e-05 -1.75674e-05)
(-0.000265368 -1.45218e-06 -1.75674e-05)
(-0.000261084 -4.75108e-05 -1.75673e-05)
(-0.000248868 -9.21258e-05 -1.75673e-05)
(-0.000229089 -0.000133942 -1.75673e-05)
(-0.000202351 -0.000171688 -1.75674e-05)
(-0.000169463 -0.000204217 -1.75673e-05)
(-0.000131427 -0.000230542 -1.75674e-05)
(-8.93967e-05 -0.000249861 -1.75673e-05)
(-4.46506e-05 -0.000261589 -1.75674e-05)
(1.45219e-06 -0.000265368 -1.75674e-05)
(4.75108e-05 -0.000261084 -1.75673e-05)
(9.21258e-05 -0.000248868 -1.75673e-05)
(0.000133942 -0.000229089 -1.75673e-05)
(0.000171688 -0.000202351 -1.75674e-05)
(0.000204217 -0.000169463 -1.75673e-05)
(0.000230542 -0.000131427 -1.75674e-05)
(0.000249861 -8.93967e-05 -1.75673e-05)
(0.000261589 -4.46506e-05 -1.75674e-05)
(0.000265368 1.45219e-06 -1.75674e-05)
(0.000261084 4.75108e-05 -1.75673e-05)
(0.000248868 9.21258e-05 -1.75673e-05)
(0.00022909 0.000133942 -1.75673e-05)
(0.000202351 0.000171688 -1.75674e-05)
(0.000169463 0.000204217 -1.75673e-05)
(0.000131427 0.000230542 -1.75674e-05)
(8.93967e-05 0.000249861 -1.75673e-05)
(4.46506e-05 0.000261589 -1.75674e-05)
(-1.45218e-06 0.000265368 -1.75674e-05)
(-4.75108e-05 0.000261084 -1.75673e-05)
(-0.000360063 0.000755618 -0.000133781)
(-0.000485805 0.000681614 -0.000133781)
(-0.000596786 0.0005869 -0.000133781)
(-0.000689633 0.000474353 -0.000133781)
(-0.000761526 0.000347393 -0.000133781)
(-0.000810281 0.000209878 -0.000133781)
(-0.000834416 6.59851e-05 -0.000133781)
(-0.000833198 -7.99122e-05 -0.000133781)
(-0.000806662 -0.000223381 -0.000133781)
(-0.000755618 -0.000360063 -0.000133781)
(-0.000681614 -0.000485805 -0.000133781)
(-0.0005869 -0.000596786 -0.000133781)
(-0.000474353 -0.000689633 -0.000133781)
(-0.000347393 -0.000761526 -0.000133781)
(-0.000209878 -0.000810281 -0.000133781)
(-6.59851e-05 -0.000834416 -0.000133781)
(7.99122e-05 -0.000833198 -0.000133781)
(0.000223381 -0.000806662 -0.000133781)
(0.000360063 -0.000755618 -0.000133781)
(0.000485805 -0.000681614 -0.000133781)
(0.000596786 -0.0005869 -0.000133781)
(0.000689633 -0.000474353 -0.000133781)
(0.000761526 -0.000347393 -0.000133781)
(0.000810281 -0.000209878 -0.000133781)
(0.000834416 -6.59851e-05 -0.000133781)
(0.000833198 7.99122e-05 -0.000133781)
(0.000806662 0.000223381 -0.000133781)
(0.000755618 0.000360063 -0.000133781)
(0.000681614 0.000485805 -0.000133781)
(0.0005869 0.000596786 -0.000133781)
(0.000474353 0.000689633 -0.000133781)
(0.000347393 0.000761526 -0.000133781)
(0.000209878 0.000810281 -0.000133781)
(6.59851e-05 0.000834416 -0.000133781)
(-7.99122e-05 0.000833198 -0.000133781)
(-0.000223381 0.000806663 -0.000133781)
(-0.000334419 0.000745737 -0.000106922)
(-0.000458834 0.000676336 -0.000106922)
(-0.000569308 0.000586385 -0.000106922)
(-0.000662484 0.000478618 -0.000106922)
(-0.00073553 0.000356307 -0.000106922)
(-0.000786228 0.00022317 -0.000106922)
(-0.000813037 8.32531e-05 -0.000106922)
(-0.000815141 -5.91942e-05 -0.000106922)
(-0.000792478 -0.000199843 -0.000106922)
(-0.000745737 -0.000334419 -0.000106922)
(-0.000676336 -0.000458834 -0.000106922)
(-0.000586385 -0.000569308 -0.000106922)
(-0.000478618 -0.000662484 -0.000106922)
(-0.000356307 -0.00073553 -0.000106922)
(-0.00022317 -0.000786228 -0.000106922)
(-8.3253e-05 -0.000813037 -0.000106922)
(5.91942e-05 -0.000815141 -0.000106922)
(0.000199843 -0.000792478 -0.000106922)
(0.000334419 -0.000745737 -0.000106922)
(0.000458834 -0.000676336 -0.000106922)
(0.000569308 -0.000586385 -0.000106922)
(0.000662484 -0.000478618 -0.000106922)
(0.00073553 -0.000356307 -0.000106922)
(0.000786228 -0.00022317 -0.000106922)
(0.000813037 -8.3253e-05 -0.000106922)
(0.000815141 5.91942e-05 -0.000106922)
(0.000792479 0.000199843 -0.000106922)
(0.000745737 0.000334419 -0.000106922)
(0.000676336 0.000458834 -0.000106922)
(0.000586385 0.000569308 -0.000106922)
(0.000478618 0.000662484 -0.000106922)
(0.000356307 0.00073553 -0.000106922)
(0.00022317 0.000786228 -0.000106922)
(8.32531e-05 0.000813037 -0.000106922)
(-5.91942e-05 0.000815141 -0.000106922)
(-0.000199843 0.000792479 -0.000106922)
(-0.000317713 0.000733756 -8.08401e-05)
(-0.000440301 0.000667438 -8.084e-05)
(-0.000549511 0.000580841 -8.08401e-05)
(-0.000642024 0.000476595 -8.08401e-05)
(-0.00071503 0.000357868 -8.08401e-05)
(-0.000766311 0.000228267 -8.08401e-05)
(-0.000794307 9.17308e-05 -8.08401e-05)
(-0.000798169 -4.75926e-05 -8.08401e-05)
(-0.000777779 -0.00018547 -8.08402e-05)
(-0.000733756 -0.000317713 -8.08401e-05)
(-0.000667438 -0.000440301 -8.084e-05)
(-0.000580841 -0.000549511 -8.08401e-05)
(-0.000476595 -0.000642024 -8.08401e-05)
(-0.000357868 -0.00071503 -8.08401e-05)
(-0.000228267 -0.000766311 -8.08401e-05)
(-9.17308e-05 -0.000794307 -8.08401e-05)
(4.75926e-05 -0.000798169 -8.08401e-05)
(0.00018547 -0.000777779 -8.08402e-05)
(0.000317713 -0.000733756 -8.08402e-05)
(0.000440301 -0.000667438 -8.084e-05)
(0.000549511 -0.000580841 -8.08401e-05)
(0.000642024 -0.000476595 -8.08401e-05)
(0.000715031 -0.000357868 -8.08401e-05)
(0.000766311 -0.000228267 -8.08401e-05)
(0.000794307 -9.17308e-05 -8.08401e-05)
(0.000798169 4.75926e-05 -8.08401e-05)
(0.000777779 0.00018547 -8.08402e-05)
(0.000733756 0.000317713 -8.08401e-05)
(0.000667438 0.000440301 -8.084e-05)
(0.000580841 0.000549511 -8.08401e-05)
(0.000476595 0.000642024 -8.08401e-05)
(0.000357868 0.000715031 -8.08401e-05)
(0.000228267 0.000766311 -8.084e-05)
(9.17308e-05 0.000794307 -8.08401e-05)
(-4.75926e-05 0.000798169 -8.08401e-05)
(-0.00018547 0.000777779 -8.08402e-05)
(-0.000580555 0.00124987 -0.000263866)
(-0.000788773 0.00113007 -0.000263866)
(-0.000973025 0.000975935 -0.000263866)
(-0.00112771 0.000792145 -0.000263866)
(-0.00124813 0.000584285 -0.000263866)
(-0.00133063 0.000358673 -0.000263866)
(-0.0013727 0.000122162 -0.000263866)
(-0.00137306 -0.000118061 -0.000263866)
(-0.0013317 -0.000354697 -0.000263866)
(-0.00124987 -0.000580555 -0.000263866)
(-0.00113007 -0.000788773 -0.000263866)
(-0.000975935 -0.000973025 -0.000263866)
(-0.000792145 -0.00112771 -0.000263866)
(-0.000584285 -0.00124813 -0.000263866)
(-0.000358673 -0.00133063 -0.000263866)
(-0.000122162 -0.0013727 -0.000263866)
(0.000118061 -0.00137306 -0.000263866)
(0.000354697 -0.0013317 -0.000263866)
(0.000580555 -0.00124987 -0.000263866)
(0.000788773 -0.00113007 -0.000263866)
(0.000973025 -0.000975935 -0.000263866)
(0.00112771 -0.000792145 -0.000263866)
(0.00124813 -0.000584285 -0.000263866)
(0.00133063 -0.000358673 -0.000263866)
(0.0013727 -0.000122162 -0.000263866)
(0.00137306 0.000118061 -0.000263866)
(0.0013317 0.000354697 -0.000263866)
(0.00124987 0.000580555 -0.000263866)
(0.00113007 0.000788773 -0.000263866)
(0.000975935 0.000973025 -0.000263866)
(0.000792145 0.00112771 -0.000263866)
(0.000584285 0.00124813 -0.000263866)
(0.000358673 0.00133063 -0.000263866)
(0.000122162 0.0013727 -0.000263866)
(-0.000118061 0.00137306 -0.000263866)
(-0.000354697 0.0013317 -0.000263866)
(-0.000552437 0.00122773 -0.000224468)
(-0.000757236 0.00111315 -0.000224468)
(-0.000939028 0.000964742 -0.000224468)
(-0.00109229 0.000787025 -0.000224468)
(-0.00121236 0.000585394 -0.000224468)
(-0.00129559 0.000365977 -0.000224468)
(-0.00133946 0.00013544 -0.000224468)
(-0.00134263 -9.92134e-05 -0.000224468)
(-0.001305 -0.000330851 -0.000224468)
(-0.00122773 -0.000552437 -0.000224468)
(-0.00111315 -0.000757236 -0.000224468)
(-0.000964742 -0.000939028 -0.000224468)
(-0.000787025 -0.00109229 -0.000224468)
(-0.000585394 -0.00121236 -0.000224468)
(-0.000365977 -0.00129559 -0.000224468)
(-0.00013544 -0.00133946 -0.000224468)
(9.92134e-05 -0.00134263 -0.000224468)
(0.000330851 -0.001305 -0.000224468)
(0.000552437 -0.00122773 -0.000224468)
(0.000757236 -0.00111315 -0.000224468)
(0.000939028 -0.000964742 -0.000224468)
(0.00109229 -0.000787025 -0.000224468)
(0.00121236 -0.000585394 -0.000224468)
(0.00129559 -0.000365977 -0.000224468)
(0.00133946 -0.00013544 -0.000224468)
(0.00134263 9.92134e-05 -0.000224468)
(0.001305 0.000330851 -0.000224468)
(0.00122773 0.000552437 -0.000224468)
(0.00111315 0.000757236 -0.000224468)
(0.000964742 0.000939028 -0.000224468)
(0.000787025 0.00109229 -0.000224468)
(0.000585394 0.00121236 -0.000224468)
(0.000365977 0.00129559 -0.000224468)
(0.00013544 0.00133946 -0.000224468)
(-9.92134e-05 0.00134263 -0.000224468)
(-0.000330851 0.001305 -0.000224468)
(-0.000533509 0.00120208 -0.000186255)
(-0.000734143 0.00109118 -0.000186255)
(-0.00091247 0.000947118 -0.000186255)
(-0.00106307 0.000774281 -0.000186255)
(-0.00118138 0.000577917 -0.000186255)
(-0.00126378 0.000363993 -0.000186255)
(-0.00130779 0.000139009 -0.000186255)
(-0.00131206 -9.01972e-05 -0.000186255)
(-0.00127646 -0.000316664 -0.000186255)
(-0.00120208 -0.000533509 -0.000186255)
(-0.00109118 -0.000734143 -0.000186255)
(-0.000947118 -0.00091247 -0.000186255)
(-0.000774281 -0.00106307 -0.000186255)
(-0.000577917 -0.00118138 -0.000186255)
(-0.000363993 -0.00126378 -0.000186255)
(-0.000139009 -0.00130779 -0.000186255)
(9.01972e-05 -0.00131206 -0.000186255)
(0.000316664 -0.00127646 -0.000186255)
(0.000533509 -0.00120208 -0.000186255)
(0.000734143 -0.00109118 -0.000186255)
(0.00091247 -0.000947118 -0.000186255)
(0.00106307 -0.000774281 -0.000186255)
(0.00118138 -0.000577917 -0.000186255)
(0.00126378 -0.000363993 -0.000186255)
(0.00130779 -0.000139009 -0.000186255)
(0.00131206 9.01972e-05 -0.000186255)
(0.00127646 0.000316664 -0.000186255)
(0.00120208 0.000533509 -0.000186255)
(0.00109118 0.000734143 -0.000186255)
(0.000947118 0.00091247 -0.000186255)
(0.000774281 0.00106307 -0.000186255)
(0.000577917 0.00118138 -0.000186255)
(0.000363993 0.00126378 -0.000186255)
(0.000139009 0.00130779 -0.000186255)
(-9.01972e-05 0.00131206 -0.000186255)
(-0.000316664 0.00127646 -0.000186255)
(-0.000795546 0.0017263 -0.000423763)
(-0.00108323 0.00156193 -0.000423763)
(-0.001338 0.0013501 -0.000423763)
(-0.00155211 0.00109725 -0.000423763)
(-0.00171907 0.000811057 -0.000423763)
(-0.00183379 0.000500222 -0.000423763)
(-0.00189279 0.000174188 -0.000423763)
(-0.00189429 -0.000157139 -0.000423763)
(-0.00183822 -0.000483691 -0.000423763)
(-0.0017263 -0.000795546 -0.000423763)
(-0.00156193 -0.00108323 -0.000423763)
(-0.0013501 -0.001338 -0.000423763)
(-0.00109725 -0.00155211 -0.000423763)
(-0.000811057 -0.00171907 -0.000423763)
(-0.000500222 -0.00183379 -0.000423763)
(-0.000174188 -0.00189279 -0.000423763)
(0.000157139 -0.00189429 -0.000423763)
(0.000483691 -0.00183822 -0.000423763)
(0.000795546 -0.0017263 -0.000423763)
(0.00108323 -0.00156193 -0.000423763)
(0.001338 -0.0013501 -0.000423763)
(0.00155211 -0.00109725 -0.000423763)
(0.00171907 -0.000811057 -0.000423763)
(0.00183379 -0.000500222 -0.000423763)
(0.00189279 -0.000174188 -0.000423763)
(0.00189429 0.000157139 -0.000423763)
(0.00183822 0.000483691 -0.000423763)
(0.0017263 0.000795546 -0.000423763)
(0.00156193 0.00108323 -0.000423763)
(0.0013501 0.001338 -0.000423763)
(0.00109725 0.00155211 -0.000423763)
(0.000811057 0.00171907 -0.000423763)
(0.000500222 0.00183379 -0.000423763)
(0.000174188 0.00189279 -0.000423763)
(-0.000157139 0.00189429 -0.000423763)
(-0.000483691 0.00183822 -0.000423763)
(-0.000763907 0.00168654 -0.00037333)
(-0.00104517 0.00152826 -0.00037333)
(-0.00129467 0.00132355 -0.00037333)
(-0.00150483 0.00107863 -0.00037333)
(-0.00166927 0.000800932 -0.00037333)
(-0.00178299 0.000498898 -0.00037333)
(-0.00184254 0.000181706 -0.00037333)
(-0.0018461 -0.000141008 -0.00037333)
(-0.00179357 -0.000459437 -0.00037333)
(-0.00168654 -0.000763907 -0.00037333)
(-0.00152826 -0.00104517 -0.00037333)
(-0.00132355 -0.00129467 -0.00037333)
(-0.00107863 -0.00150483 -0.00037333)
(-0.000800932 -0.00166927 -0.00037333)
(-0.000498898 -0.00178299 -0.00037333)
(-0.000181706 -0.00184254 -0.00037333)
(0.000141008 -0.0018461 -0.00037333)
(0.000459437 -0.00179357 -0.00037333)
(0.000763907 -0.00168654 -0.00037333)
(0.00104517 -0.00152826 -0.00037333)
(0.00129467 -0.00132355 -0.00037333)
(0.00150483 -0.00107863 -0.00037333)
(0.00166927 -0.000800932 -0.00037333)
(0.00178299 -0.000498898 -0.00037333)
(0.00184254 -0.000181706 -0.00037333)
(0.0018461 0.000141008 -0.00037333)
(0.00179357 0.000459437 -0.00037333)
(0.00168654 0.000763907 -0.00037333)
(0.00152826 0.00104517 -0.00037333)
(0.00132355 0.00129467 -0.00037333)
(0.00107863 0.00150483 -0.00037333)
(0.000800932 0.00166927 -0.00037333)
(0.000498898 0.00178299 -0.00037333)
(0.000181706 0.00184254 -0.00037333)
(-0.000141008 0.0018461 -0.00037333)
(-0.000459437 0.00179357 -0.00037333)
(-0.000741737 0.00164173 -0.000324551)
(-0.00101555 0.00148799 -0.000324551)
(-0.00125851 0.00128904 -0.000324551)
(-0.00146323 0.00105092 -0.000324551)
(-0.00162349 0.000780862 -0.000324551)
(-0.00173442 0.000487084 -0.000324551)
(-0.00179265 0.000178504 -0.000324551)
(-0.00179641 -0.000135498 -0.000324551)
(-0.00174559 -0.000445384 -0.000324551)
(-0.00164173 -0.000741737 -0.000324551)
(-0.00148799 -0.00101555 -0.000324551)
(-0.00128904 -0.00125851 -0.000324551)
(-0.00105091 -0.00146323 -0.000324551)
(-0.000780862 -0.00162349 -0.000324551)
(-0.000487084 -0.00173442 -0.000324551)
(-0.000178504 -0.00179265 -0.000324551)
(0.000135498 -0.00179641 -0.000324551)
(0.000445384 -0.00174559 -0.000324551)
(0.000741737 -0.00164173 -0.000324551)
(0.00101555 -0.00148799 -0.000324551)
(0.00125851 -0.00128904 -0.000324551)
(0.00146323 -0.00105091 -0.000324551)
(0.00162349 -0.000780862 -0.000324551)
(0.00173442 -0.000487084 -0.000324551)
(0.00179265 -0.000178504 -0.000324551)
(0.00179641 0.000135498 -0.000324551)
(0.00174559 0.000445384 -0.000324551)
(0.00164173 0.000741737 -0.000324551)
(0.00148799 0.00101555 -0.000324551)
(0.00128904 0.00125851 -0.000324551)
(0.00105092 0.00146323 -0.000324551)
(0.000780862 0.00162349 -0.000324551)
(0.000487084 0.00173442 -0.000324551)
(0.000178504 0.00179265 -0.000324551)
(-0.000135498 0.00179641 -0.000324551)
(-0.000445384 0.00174559 -0.000324551)
(-0.00100457 0.00217624 -0.000608995)
(-0.0013672 0.00196874 -0.000608995)
(-0.0016883 0.00170142 -0.000608995)
(-0.0019581 0.0013824 -0.000608995)
(-0.0021684 0.00102138 -0.000608995)
(-0.00231282 0.00062932 -0.000608995)
(-0.00238696 0.000218142 -0.000608995)
(-0.00238858 -0.000199664 -0.000608994)
(-0.00231762 -0.000611404 -0.000608995)
(-0.00217624 -0.00100457 -0.000608995)
(-0.00196874 -0.0013672 -0.000608995)
(-0.00170142 -0.0016883 -0.000608995)
(-0.0013824 -0.0019581 -0.000608995)
(-0.00102138 -0.0021684 -0.000608995)
(-0.00062932 -0.00231282 -0.000608995)
(-0.000218142 -0.00238696 -0.000608995)
(0.000199664 -0.00238858 -0.000608995)
(0.000611404 -0.00231762 -0.000608995)
(0.00100457 -0.00217624 -0.000608995)
(0.0013672 -0.00196874 -0.000608995)
(0.0016883 -0.00170142 -0.000608995)
(0.0019581 -0.0013824 -0.000608995)
(0.0021684 -0.00102138 -0.000608995)
(0.00231282 -0.00062932 -0.000608995)
(0.00238696 -0.000218142 -0.000608995)
(0.00238858 0.000199664 -0.000608994)
(0.00231762 0.000611404 -0.000608995)
(0.00217624 0.00100457 -0.000608995)
(0.00196874 0.0013672 -0.000608995)
(0.00170142 0.0016883 -0.000608995)
(0.0013824 0.0019581 -0.000608995)
(0.00102138 0.0021684 -0.000608995)
(0.00062932 0.00231282 -0.000608995)
(0.000218142 0.00238696 -0.000608995)
(-0.000199664 0.00238858 -0.000608994)
(-0.000611404 0.00231762 -0.000608995)
(-0.000968208 0.00211174 -0.000548466)
(-0.0013202 0.00191153 -0.000548466)
(-0.00163208 0.00165324 -0.000548466)
(-0.00189436 0.00134472 -0.000548466)
(-0.00209909 0.000995336 -0.000548466)
(-0.00224004 0.000615712 -0.000548466)
(-0.00231293 0.000217379 -0.000548466)
(-0.00231553 -0.000187559 -0.000548466)
(-0.00224779 -0.000586798 -0.000548466)
(-0.00211174 -0.000968208 -0.000548466)
(-0.00191153 -0.0013202 -0.000548466)
(-0.00165324 -0.00163208 -0.000548466)
(-0.00134472 -0.00189436 -0.000548466)
(-0.000995336 -0.00209909 -0.000548466)
(-0.000615712 -0.00224004 -0.000548466)
(-0.000217379 -0.00231293 -0.000548466)
(0.000187559 -0.00231553 -0.000548466)
(0.000586798 -0.00224779 -0.000548466)
(0.000968208 -0.00211174 -0.000548466)
(0.0013202 -0.00191153 -0.000548466)
(0.00163208 -0.00165324 -0.000548466)
(0.00189436 -0.00134472 -0.000548466)
(0.00209909 -0.000995336 -0.000548466)
(0.00224004 -0.000615712 -0.000548466)
(0.00231293 -0.000217379 -0.000548466)
(0.00231553 0.000187559 -0.000548466)
(0.00224779 0.000586798 -0.000548466)
(0.00211174 0.000968208 -0.000548466)
(0.00191153 0.0013202 -0.000548466)
(0.00165324 0.00163208 -0.000548466)
(0.00134472 0.00189436 -0.000548466)
(0.000995336 0.00209909 -0.000548466)
(0.000615712 0.00224004 -0.000548466)
(0.000217379 0.00231293 -0.000548466)
(-0.000187559 0.00231553 -0.000548466)
(-0.000586798 0.00224779 -0.000548466)
(-0.000941427 0.00204097 -0.00049002)
(-0.00128154 0.00184648 -0.00049002)
(-0.0015827 0.0015959 -0.00049002)
(-0.00183578 0.00129682 -0.00049002)
(-0.00203308 0.000958335 -0.00049002)
(-0.00216861 0.000590735 -0.00049002)
(-0.00223824 0.000205185 -0.00049002)
(-0.00223987 -0.000186599 -0.00049002)
(-0.00217344 -0.000572714 -0.00049002)
(-0.00204097 -0.000941427 -0.00049002)
(-0.00184648 -0.00128154 -0.00049002)
(-0.0015959 -0.0015827 -0.00049002)
(-0.00129682 -0.00183578 -0.00049002)
(-0.000958335 -0.00203308 -0.00049002)
(-0.000590735 -0.00216861 -0.00049002)
(-0.000205185 -0.00223824 -0.00049002)
(0.000186599 -0.00223987 -0.00049002)
(0.000572714 -0.00217344 -0.00049002)
(0.000941427 -0.00204097 -0.00049002)
(0.00128154 -0.00184648 -0.00049002)
(0.0015827 -0.0015959 -0.00049002)
(0.00183578 -0.00129682 -0.00049002)
(0.00203308 -0.000958335 -0.00049002)
(0.00216861 -0.000590735 -0.00049002)
(0.00223824 -0.000205185 -0.00049002)
(0.00223987 0.000186599 -0.00049002)
(0.00217344 0.000572714 -0.00049002)
(0.00204097 0.000941427 -0.00049002)
(0.00184648 0.00128154 -0.00049002)
(0.0015959 0.0015827 -0.00049002)
(0.00129682 0.00183578 -0.00049002)
(0.000958335 0.00203308 -0.00049002)
(0.000590735 0.00216861 -0.00049002)
(0.000205185 0.00223824 -0.00049002)
(-0.000186599 0.00223987 -0.00049002)
(-0.000572714 0.00217344 -0.00049002)
(-0.00120734 0.0025901 -0.000813864)
(-0.00163876 0.0023411 -0.000813864)
(-0.00202039 0.00202096 -0.000813864)
(-0.00234064 0.00163942 -0.000813864)
(-0.00258976 0.00120807 -0.000813864)
(-0.00276019 0.000740008 -0.000813864)
(-0.00284676 0.000249463 -0.000813864)
(-0.00284683 -0.000248662 -0.000813864)
(-0.0027604 -0.000739231 -0.000813863)
(-0.0025901 -0.00120734 -0.000813864)
(-0.0023411 -0.00163876 -0.000813864)
(-0.00202096 -0.00202039 -0.000813864)
(-0.00163942 -0.00234064 -0.000813864)
(-0.00120807 -0.00258976 -0.000813864)
(-0.000740008 -0.00276019 -0.000813864)
(-0.000249463 -0.00284676 -0.000813864)
(0.000248662 -0.00284683 -0.000813864)
(0.000739231 -0.0027604 -0.000813864)
(0.00120734 -0.0025901 -0.000813864)
(0.00163876 -0.0023411 -0.000813864)
(0.00202039 -0.00202096 -0.000813864)
(0.00234064 -0.00163942 -0.000813864)
(0.00258976 -0.00120807 -0.000813864)
(0.00276019 -0.000740008 -0.000813864)
(0.00284676 -0.000249463 -0.000813864)
(0.00284683 0.000248662 -0.000813864)
(0.0027604 0.000739231 -0.000813863)
(0.0025901 0.00120734 -0.000813864)
(0.0023411 0.00163876 -0.000813864)
(0.00202096 0.00202039 -0.000813864)
(0.00163942 0.00234064 -0.000813864)
(0.00120807 0.00258976 -0.000813864)
(0.000740008 0.00276019 -0.000813864)
(0.000249463 0.00284676 -0.000813864)
(-0.000248662 0.00284683 -0.000813864)
(-0.000739231 0.0027604 -0.000813863)
(-0.00116422 0.00249243 -0.000743669)
(-0.00157934 0.0022524 -0.000743669)
(-0.00194647 0.00194394 -0.000743669)
(-0.00225446 0.0015764 -0.000743669)
(-0.00249395 0.00116097 -0.000743669)
(-0.00265766 0.000710264 -0.000743669)
(-0.00274062 0.000237976 -0.000743669)
(-0.00274031 -0.000241543 -0.000743669)
(-0.00265673 -0.000713723 -0.000743669)
(-0.00249243 -0.00116422 -0.000743669)
(-0.0022524 -0.00157934 -0.000743669)
(-0.00194394 -0.00194647 -0.000743669)
(-0.0015764 -0.00225446 -0.000743669)
(-0.00116097 -0.00249395 -0.000743669)
(-0.000710264 -0.00265766 -0.000743669)
(-0.000237976 -0.00274062 -0.000743669)
(0.000241543 -0.00274031 -0.000743669)
(0.000713723 -0.00265673 -0.000743669)
(0.00116422 -0.00249243 -0.000743669)
(0.00157934 -0.0022524 -0.000743669)
(0.00194647 -0.00194394 -0.000743669)
(0.00225446 -0.0015764 -0.000743669)
(0.00249395 -0.00116097 -0.000743669)
(0.00265766 -0.000710264 -0.000743669)
(0.00274062 -0.000237976 -0.000743669)
(0.00274031 0.000241543 -0.000743669)
(0.00265673 0.000713723 -0.000743669)
(0.00249243 0.00116422 -0.000743669)
(0.0022524 0.00157934 -0.000743669)
(0.00194394 0.00194647 -0.000743669)
(0.0015764 0.00225446 -0.000743669)
(0.00116097 0.00249395 -0.000743669)
(0.000710264 0.00265766 -0.000743669)
(0.000237976 0.00274062 -0.000743669)
(-0.000241543 0.00274031 -0.000743669)
(-0.000713723 0.00265673 -0.000743669)
(-0.00113042 0.00238783 -0.000675972)
(-0.00152789 0.00215525 -0.000675972)
(-0.00187893 0.00185719 -0.000675972)
(-0.00217289 0.00150271 -0.000675972)
(-0.00240082 0.00110256 -0.000675972)
(-0.0025558 0.00066891 -0.000675972)
(-0.00263313 0.000214938 -0.000675972)
(-0.00263045 -0.000245565 -0.000675972)
(-0.00254784 -0.000698608 -0.000675972)
(-0.00238783 -0.00113042 -0.000675972)
(-0.00215525 -0.00152789 -0.000675972)
(-0.00185719 -0.00187893 -0.000675972)
(-0.00150271 -0.00217289 -0.000675972)
(-0.00110256 -0.00240082 -0.000675972)
(-0.00066891 -0.0025558 -0.000675972)
(-0.000214938 -0.00263313 -0.000675972)
(0.000245566 -0.00263045 -0.000675972)
(0.000698608 -0.00254784 -0.000675972)
(0.00113042 -0.00238783 -0.000675972)
(0.00152789 -0.00215525 -0.000675972)
(0.00187894 -0.00185719 -0.000675972)
(0.00217289 -0.00150271 -0.000675972)
(0.00240082 -0.00110256 -0.000675972)
(0.0025558 -0.00066891 -0.000675972)
(0.00263313 -0.000214938 -0.000675972)
(0.00263045 0.000245565 -0.000675972)
(0.00254785 0.000698608 -0.000675972)
(0.00238783 0.00113042 -0.000675972)
(0.00215525 0.00152789 -0.000675972)
(0.00185719 0.00187894 -0.000675972)
(0.00150271 0.00217289 -0.000675972)
(0.00110256 0.00240082 -0.000675972)
(0.00066891 0.0025558 -0.000675972)
(0.000214938 0.00263313 -0.000675972)
(-0.000245565 0.00263045 -0.000675972)
(-0.000698608 0.00254785 -0.000675972)
(-0.00140218 0.00295638 -0.00103174)
(-0.00189424 0.00266798 -0.00103174)
(-0.00232876 0.00229851 -0.00103174)
(-0.00269251 0.00185921 -0.00103174)
(-0.00297445 0.00136342 -0.00103174)
(-0.00316602 0.000826194 -0.00103174)
(-0.00326139 0.000263869 -0.00103174)
(-0.00325766 -0.000306474 -0.00103174)
(-0.00315495 -0.000867505 -0.00103174)
(-0.00295638 -0.00140218 -0.00103174)
(-0.00266798 -0.00189424 -0.00103174)
(-0.00229851 -0.00232876 -0.00103174)
(-0.00185921 -0.00269251 -0.00103174)
(-0.00136342 -0.00297445 -0.00103174)
(-0.000826194 -0.00316602 -0.00103174)
(-0.000263869 -0.00326139 -0.00103174)
(0.000306474 -0.00325766 -0.00103174)
(0.000867505 -0.00315495 -0.00103174)
(0.00140218 -0.00295638 -0.00103174)
(0.00189424 -0.00266798 -0.00103174)
(0.00232876 -0.00229851 -0.00103174)
(0.00269251 -0.00185921 -0.00103174)
(0.00297445 -0.00136342 -0.00103174)
(0.00316602 -0.000826194 -0.00103174)
(0.00326139 -0.000263869 -0.00103174)
(0.00325766 0.000306474 -0.00103174)
(0.00315495 0.000867505 -0.00103174)
(0.00295638 0.00140218 -0.00103174)
(0.00266798 0.00189424 -0.00103174)
(0.00229851 0.00232876 -0.00103174)
(0.00185921 0.00269251 -0.00103174)
(0.00136342 0.00297445 -0.00103174)
(0.000826194 0.00316602 -0.00103174)
(0.000263869 0.00326139 -0.00103174)
(-0.000306474 0.00325766 -0.00103174)
(-0.000867505 0.00315495 -0.00103174)
(-0.0013489 0.00281654 -0.000951852)
(-0.00181749 0.00253952 -0.000951853)
(-0.00223086 0.00218533 -0.000951853)
(-0.00257645 0.00176475 -0.000951853)
(-0.00284375 0.00129054 -0.000951853)
(-0.00302465 0.000777123 -0.000951853)
(-0.00311364 0.000240091 -0.000951853)
(-0.00310803 -0.000304235 -0.000951852)
(-0.00300798 -0.000839318 -0.000951852)
(-0.00281654 -0.0013489 -0.000951852)
(-0.00253952 -0.00181749 -0.000951853)
(-0.00218533 -0.00223086 -0.000951853)
(-0.00176475 -0.00257645 -0.000951853)
(-0.00129054 -0.00284375 -0.000951853)
(-0.000777123 -0.00302465 -0.000951853)
(-0.000240091 -0.00311364 -0.000951853)
(0.000304235 -0.00310803 -0.000951853)
(0.000839318 -0.00300798 -0.000951852)
(0.0013489 -0.00281654 -0.000951853)
(0.00181749 -0.00253952 -0.000951853)
(0.00223086 -0.00218533 -0.000951853)
(0.00257645 -0.00176475 -0.000951853)
(0.00284375 -0.00129054 -0.000951853)
(0.00302465 -0.000777123 -0.000951853)
(0.00311364 -0.000240091 -0.000951853)
(0.00310803 0.000304235 -0.000951852)
(0.00300799 0.000839318 -0.000951852)
(0.00281654 0.0013489 -0.000951852)
(0.00253952 0.00181749 -0.000951853)
(0.00218533 0.00223086 -0.000951853)
(0.00176475 0.00257645 -0.000951853)
(0.00129054 0.00284375 -0.000951853)
(0.000777123 0.00302465 -0.000951853)
(0.000240091 0.00311364 -0.000951853)
(-0.000304235 0.00310803 -0.000951852)
(-0.000839318 0.00300799 -0.000951852)
(-0.0013042 0.00266994 -0.000874954)
(-0.00174802 0.0024029 -0.000874953)
(-0.00213872 0.00206286 -0.000874954)
(-0.00246444 0.00166013 -0.000874953)
(-0.00271528 0.00120697 -0.000874953)
(-0.00288361 0.000717129 -0.000874953)
(-0.00296433 0.0002055 -0.000874953)
(-0.00295498 -0.000312373 -0.000874953)
(-0.00285585 -0.000820755 -0.000874953)
(-0.00266994 -0.0013042 -0.000874954)
(-0.0024029 -0.00174802 -0.000874953)
(-0.00206286 -0.00213872 -0.000874954)
(-0.00166013 -0.00246444 -0.000874953)
(-0.00120697 -0.00271528 -0.000874953)
(-0.000717129 -0.00288361 -0.000874953)
(-0.000205499 -0.00296433 -0.000874954)
(0.000312374 -0.00295498 -0.000874953)
(0.000820755 -0.00285585 -0.000874954)
(0.0013042 -0.00266994 -0.000874954)
(0.00174802 -0.0024029 -0.000874953)
(0.00213872 -0.00206286 -0.000874954)
(0.00246444 -0.00166013 -0.000874953)
(0.00271528 -0.00120697 -0.000874953)
(0.00288361 -0.000717129 -0.000874953)
(0.00296433 -0.000205499 -0.000874953)
(0.00295498 0.000312374 -0.000874953)
(0.00285585 0.000820755 -0.000874953)
(0.00266994 0.0013042 -0.000874953)
(0.0024029 0.00174802 -0.000874953)
(0.00206286 0.00213872 -0.000874954)
(0.00166013 0.00246444 -0.000874953)
(0.00120697 0.00271528 -0.000874953)
(0.000717129 0.00288361 -0.000874953)