/*--------------------------------*- C++ -*----------------------------------*\
| =========                 |                                                 |
| \\      /  F ield         | OpenFOAM: The Open Source CFD Toolbox           |
|  \\    /   O peration     | Version:  2312                                  |
|   \\  /    A nd           | Website:  www.openfoam.com                      |
|    \\/     M anipulation  |                                                 |
\*---------------------------------------------------------------------------*/
FoamFile
{
    version     2.0;
    format      ascii;
    arch        "LSB;label=32;scalar=64";
    class       pointVectorField;
    location    "0.2";
    object      pointD;
}
// * * * * * * * * * * * * * * * * * * * * * * * * * * * * * * * * * * * * * //

dimensions      [0 1 0 0 0 0 0];

internalField   nonuniform List<vector> 
2164
(
(0 0 0)
(0 0 0)
(0 0 0)
(0 0 0)
(0 0 0)
(0 0 0)
(0 0 0)
(0 0 0)
(0 0 0)
(0 0 0)
(0 0 0)
(0 0 0)
(0 0 0)
(0 0 0)
(0 0 0)
(0 0 0)
(0 0 0)
(0 0 0)
(0 0 0)
(0 0 0)
(0 0 0)
(0 0 0)
(0 0 0)
(0 0 0)
(0 0 0)
(0 0 0)
(0 0 0)
(0 0 0)
(0 0 0)
(0 0 0)
(0 0 0)
(0 0 0)
(0 0 0)
(0 0 0)
(0 0 0)
(0 0 0)
(-0.000334702 0.000496591 -0.0001065)
(-0.000415849 0.000430926 -0.0001065)
(-0.000484361 0.000352168 -0.000106499)
(-0.000538156 0.00026271 -0.000106499)
(-0.000575599 0.000165269 -0.000106499)
(-0.000595553 6.28063e-05 -0.000106499)
(-0.000597412 -4.15647e-05 -0.000106499)
(-0.000581118 -0.000144673 -0.000106499)
(-0.000547167 -0.000243385 -0.000106499)
(-0.000496591 -0.000334702 -0.0001065)
(-0.000430926 -0.000415849 -0.0001065)
(-0.000352168 -0.000484361 -0.000106499)
(-0.00026271 -0.000538156 -0.000106499)
(-0.000165269 -0.000575599 -0.000106499)
(-6.28063e-05 -0.000595553 -0.000106499)
(4.15647e-05 -0.000597412 -0.000106499)
(0.000144673 -0.000581118 -0.000106499)
(0.000243385 -0.000547167 -0.000106499)
(0.000334702 -0.000496591 -0.0001065)
(0.000415849 -0.000430926 -0.0001065)
(0.000484361 -0.000352168 -0.000106499)
(0.000538156 -0.00026271 -0.000106499)
(0.000575599 -0.000165269 -0.000106499)
(0.000595553 -6.28063e-05 -0.000106499)
(0.000597412 4.15647e-05 -0.000106499)
(0.000581118 0.000144673 -0.000106499)
(0.000547167 0.000243385 -0.000106499)
(0.000496591 0.000334702 -0.0001065)
(0.000430926 0.000415849 -0.0001065)
(0.000352168 0.000484361 -0.000106499)
(0.00026271 0.000538156 -0.000106499)
(0.000165269 0.000575599 -0.000106499)
(6.28063e-05 0.000595553 -0.000106499)
(-4.15647e-05 0.000597412 -0.000106499)
(-0.000144673 0.000581118 -0.000106499)
(-0.000243385 0.000547167 -0.000106499)
(-0.000304611 0.000503204 -8.36801e-05)
(-0.000387364 0.000442663 -8.36802e-05)
(-0.000458346 0.000368674 -8.36801e-05)
(-0.000515403 0.000283482 -8.36799e-05)
(-0.000556799 0.000189676 -8.368e-05)
(-0.000581277 9.01071e-05 -8.36801e-05)
(-0.000588093 -1.2199e-05 -8.368e-05)
(-0.00057704 -0.000114135 -8.368e-05)
(-0.000548454 -0.000212603 -8.36801e-05)
(-0.000503204 -0.000304611 -8.36801e-05)
(-0.000442663 -0.000387364 -8.36802e-05)
(-0.000368674 -0.000458346 -8.36801e-05)
(-0.000283482 -0.000515403 -8.36799e-05)
(-0.000189676 -0.000556799 -8.368e-05)
(-9.01071e-05 -0.000581277 -8.36801e-05)
(1.2199e-05 -0.000588093 -8.36801e-05)
(0.000114135 -0.00057704 -8.368e-05)
(0.000212603 -0.000548454 -8.36801e-05)
(0.000304611 -0.000503204 -8.36801e-05)
(0.000387364 -0.000442663 -8.36802e-05)
(0.000458346 -0.000368674 -8.36801e-05)
(0.000515403 -0.000283482 -8.36799e-05)
(0.000556799 -0.000189676 -8.368e-05)
(0.000581277 -9.01071e-05 -8.36801e-05)
(0.000588093 1.2199e-05 -8.368e-05)
(0.00057704 0.000114135 -8.368e-05)
(0.000548454 0.000212603 -8.36801e-05)
(0.000503204 0.000304611 -8.36801e-05)
(0.000442663 0.000387364 -8.36802e-05)
(0.000368674 0.000458346 -8.36801e-05)
(0.000283482 0.000515403 -8.36799e-05)
(0.000189676 0.000556799 -8.368e-05)
(9.01071e-05 0.000581277 -8.36801e-05)
(-1.2199e-05 0.000588093 -8.368e-05)
(-0.000114135 0.00057704 -8.368e-05)
(-0.000212603 0.000548454 -8.36801e-05)
(0 0 0)
(0 0 0)
(0 0 0)
(0 0 0)
(0 0 0)
(0 0 0)
(0 0 0)
(0 0 0)
(0 0 0)
(0 0 0)
(0 0 0)
(0 0 0)
(0 0 0)
(0 0 0)
(0 0 0)
(0 0 0)
(0 0 0)
(0 0 0)
(0 0 0)
(0 0 0)
(0 0 0)
(0 0 0)
(0 0 0)
(0 0 0)
(0 0 0)
(0 0 0)
(0 0 0)
(0 0 0)
(0 0 0)
(0 0 0)
(0 0 0)
(0 0 0)
(0 0 0)
(0 0 0)
(0 0 0)
(0 0 0)
(-0.000280631 0.000508602 -6.03539e-05)
(-0.000364686 0.000452144 -6.03541e-05)
(-0.000437659 0.000381948 -6.0354e-05)
(-0.000497335 0.000300147 -6.03541e-05)
(-0.000541899 0.000209226 -6.03541e-05)
(-0.000569998 0.000111947 -6.0354e-05)
(-0.000580778 1.12674e-05 -6.03542e-05)
(-0.000573911 -8.97549e-05 -6.0354e-05)
(-0.000549607 -0.00018805 -6.03541e-05)
(-0.000508602 -0.000280631 -6.03539e-05)
(-0.000452144 -0.000364686 -6.03541e-05)
(-0.000381948 -0.000437659 -6.0354e-05)
(-0.000300147 -0.000497335 -6.03541e-05)
(-0.000209226 -0.000541899 -6.03541e-05)
(-0.000111947 -0.000569998 -6.0354e-05)
(-1.12674e-05 -0.000580778 -6.03542e-05)
(8.97549e-05 -0.000573911 -6.0354e-05)
(0.00018805 -0.000549607 -6.03541e-05)
(0.000280631 -0.000508602 -6.0354e-05)
(0.000364686 -0.000452144 -6.03541e-05)
(0.000437659 -0.000381948 -6.0354e-05)
(0.000497335 -0.000300147 -6.03541e-05)
(0.000541899 -0.000209226 -6.03541e-05)
(0.000569998 -0.000111947 -6.0354e-05)
(0.000580778 -1.12674e-05 -6.03542e-05)
(0.000573911 8.97549e-05 -6.0354e-05)
(0.000549607 0.00018805 -6.03541e-05)
(0.000508602 0.000280631 -6.03539e-05)
(0.000452144 0.000364686 -6.03541e-05)
(0.000381948 0.000437659 -6.0354e-05)
(0.000300147 0.000497335 -6.03541e-05)
(0.000209226 0.000541899 -6.03541e-05)
(0.000111947 0.000569998 -6.0354e-05)
(1.12675e-05 0.000580778 -6.03542e-05)
(-8.97549e-05 0.000573911 -6.0354e-05)
(-0.00018805 0.000549607 -6.03541e-05)
(0 0 0)
(0 0 0)
(0 0 0)
(0 0 0)
(0 0 0)
(0 0 0)
(0 0 0)
(0 0 0)
(0 0 0)
(0 0 0)
(0 0 0)
(0 0 0)
(0 0 0)
(0 0 0)
(0 0 0)
(0 0 0)
(0 0 0)
(0 0 0)
(0 0 0)
(0 0 0)
(0 0 0)
(0 0 0)
(0 0 0)
(0 0 0)
(0 0 0)
(0 0 0)
(0 0 0)
(0 0 0)
(0 0 0)
(0 0 0)
(0 0 0)
(0 0 0)
(0 0 0)
(0 0 0)
(0 0 0)
(0 0 0)
(-0.000262395 0.000510855 -3.81909e-05)
(-0.000347117 0.00045753 -3.8191e-05)
(-0.000421293 0.000390303 -3.8191e-05)
(-0.000482668 0.000311216 -3.81911e-05)
(-0.000529377 0.000222674 -3.8191e-05)
(-0.000560002 0.000127365 -3.81911e-05)
(-0.000573611 2.81867e-05 -3.81912e-05)
(-0.000569791 -7.18478e-05 -3.8191e-05)
(-0.000548658 -0.000169699 -3.81911e-05)
(-0.000510855 -0.000262395 -3.81909e-05)
(-0.00045753 -0.000347117 -3.8191e-05)
(-0.000390303 -0.000421293 -3.81911e-05)
(-0.000311216 -0.000482668 -3.81911e-05)
(-0.000222674 -0.000529377 -3.81911e-05)
(-0.000127365 -0.000560002 -3.81911e-05)
(-2.81866e-05 -0.000573611 -3.81912e-05)
(7.18478e-05 -0.000569791 -3.81911e-05)
(0.000169699 -0.000548658 -3.81911e-05)
(0.000262395 -0.000510855 -3.81909e-05)
(0.000347117 -0.00045753 -3.8191e-05)
(0.000421293 -0.000390303 -3.81911e-05)
(0.000482668 -0.000311216 -3.81911e-05)
(0.000529377 -0.000222674 -3.8191e-05)
(0.000560002 -0.000127365 -3.81911e-05)
(0.000573611 -2.81866e-05 -3.81912e-05)
(0.000569791 7.18478e-05 -3.8191e-05)
(0.000548658 0.000169699 -3.81911e-05)
(0.000510855 0.000262395 -3.81909e-05)
(0.00045753 0.000347117 -3.8191e-05)
(0.000390303 0.000421293 -3.8191e-05)
(0.000311216 0.000482668 -3.81911e-05)
(0.000222674 0.000529377 -3.8191e-05)
(0.000127365 0.000560002 -3.81911e-05)
(2.81867e-05 0.000573611 -3.81911e-05)
(-7.18478e-05 0.000569791 -3.8191e-05)
(-0.000169699 0.000548658 -3.81911e-05)
(0 0 0)
(0 0 0)
(0 0 0)
(0 0 0)
(0 0 0)
(0 0 0)
(0 0 0)
(0 0 0)
(0 0 0)
(0 0 0)
(0 0 0)
(0 0 0)
(0 0 0)
(0 0 0)
(0 0 0)
(0 0 0)
(0 0 0)
(0 0 0)
(0 0 0)
(0 0 0)
(0 0 0)
(0 0 0)
(0 0 0)
(0 0 0)
(0 0 0)
(0 0 0)
(0 0 0)
(0 0 0)
(0 0 0)
(0 0 0)
(0 0 0)
(0 0 0)
(0 0 0)
(0 0 0)
(0 0 0)
(0 0 0)
(-0.000621757 0.00100005 -0.000241726)
(-0.000785968 0.000876892 -0.000241726)
(-0.000926299 0.000727088 -0.000241725)
(-0.00103848 0.000555192 -0.000241725)
(-0.00111911 0.000366427 -0.000241725)
(-0.00116574 0.000166528 -0.000241725)
(-0.00117695 -3.84309e-05 -0.000241725)
(-0.00115239 -0.000242222 -0.000241725)
(-0.00109283 -0.000438654 -0.000241725)
(-0.00100005 -0.000621757 -0.000241726)
(-0.000876891 -0.000785969 -0.000241726)
(-0.000727088 -0.000926299 -0.000241725)
(-0.000555192 -0.00103848 -0.000241725)
(-0.000366427 -0.00111911 -0.000241725)
(-0.000166528 -0.00116574 -0.000241725)
(3.84309e-05 -0.00117695 -0.000241725)
(0.000242222 -0.00115239 -0.000241725)
(0.000438654 -0.00109283 -0.000241725)
(0.000621757 -0.00100005 -0.000241726)
(0.000785969 -0.000876892 -0.000241726)
(0.000926299 -0.000727088 -0.000241725)
(0.00103848 -0.000555192 -0.000241725)
(0.00111911 -0.000366427 -0.000241725)
(0.00116574 -0.000166528 -0.000241725)
(0.00117695 3.84309e-05 -0.000241725)
(0.00115239 0.000242222 -0.000241725)
(0.00109283 0.000438654 -0.000241725)
(0.00100005 0.000621757 -0.000241726)
(0.000876892 0.000785969 -0.000241726)
(0.000727088 0.000926299 -0.000241725)
(0.000555192 0.00103848 -0.000241725)
(0.000366427 0.00111911 -0.000241725)
(0.000166528 0.00116574 -0.000241725)
(-3.84309e-05 0.00117695 -0.000241725)
(-0.000242222 0.00115239 -0.000241725)
(-0.000438654 0.00109283 -0.000241725)
(-0.000591747 0.00100303 -0.000200761)
(-0.000756932 0.000885039 -0.000200761)
(-0.000899119 0.000740153 -0.000200761)
(-0.00101399 0.000572779 -0.000200761)
(-0.00109804 0.000388001 -0.000200761)
(-0.00114874 0.000191433 -0.000200761)
(-0.00116453 -1.09516e-05 -0.00020076)
(-0.00114493 -0.000213004 -0.000200761)
(-0.00109055 -0.000408583 -0.000200761)
(-0.00100303 -0.000591747 -0.000200761)
(-0.000885039 -0.000756933 -0.000200761)
(-0.000740153 -0.000899119 -0.000200761)
(-0.000572779 -0.00101399 -0.000200761)
(-0.000388001 -0.00109804 -0.000200761)
(-0.000191433 -0.00114874 -0.000200761)
(1.09516e-05 -0.00116453 -0.00020076)
(0.000213004 -0.00114493 -0.000200761)
(0.000408583 -0.00109055 -0.000200761)
(0.000591747 -0.00100303 -0.000200761)
(0.000756933 -0.000885039 -0.000200761)
(0.000899119 -0.000740153 -0.000200761)
(0.00101399 -0.000572779 -0.000200761)
(0.00109804 -0.000388001 -0.000200761)
(0.00114874 -0.000191433 -0.000200761)
(0.00116453 1.09516e-05 -0.00020076)
(0.00114493 0.000213004 -0.000200761)
(0.00109055 0.000408583 -0.000200761)
(0.00100303 0.000591747 -0.000200761)
(0.000885039 0.000756933 -0.000200761)
(0.000740153 0.000899119 -0.000200761)
(0.000572779 0.00101399 -0.000200761)
(0.000388001 0.00109804 -0.000200761)
(0.000191433 0.00114874 -0.000200761)
(-1.09516e-05 0.00116453 -0.00020076)
(-0.000213004 0.00114493 -0.000200761)
(-0.000408583 0.00109055 -0.000200761)
(-0.000568944 0.00100447 -0.000159263)
(-0.000734723 0.000890411 -0.000159263)
(-0.000878179 0.000749301 -0.000159263)
(-0.000994952 0.000585423 -0.000159263)
(-0.00108149 0.000403756 -0.000159263)
(-0.00113518 0.000209823 -0.000159263)
(-0.00115437 9.51338e-06 -0.000159263)
(-0.00113848 -0.000191084 -0.000159263)
(-0.001088 -0.000385876 -0.000159263)
(-0.00100447 -0.000568944 -0.000159263)
(-0.000890411 -0.000734723 -0.000159263)
(-0.000749301 -0.000878179 -0.000159263)
(-0.000585423 -0.000994952 -0.000159263)
(-0.000403756 -0.00108149 -0.000159263)
(-0.000209823 -0.00113518 -0.000159263)
(-9.51335e-06 -0.00115437 -0.000159263)
(0.000191084 -0.00113848 -0.000159263)
(0.000385876 -0.001088 -0.000159263)
(0.000568944 -0.00100447 -0.000159263)
(0.000734723 -0.000890411 -0.000159263)
(0.000878179 -0.000749301 -0.000159263)
(0.000994952 -0.000585423 -0.000159263)
(0.00108149 -0.000403756 -0.000159263)
(0.00113518 -0.000209823 -0.000159263)
(0.00115437 -9.51337e-06 -0.000159263)
(0.00113848 0.000191084 -0.000159263)
(0.001088 0.000385876 -0.000159263)
(0.00100447 0.000568944 -0.000159263)
(0.000890411 0.000734723 -0.000159263)
(0.000749301 0.000878179 -0.000159263)
(0.000585423 0.000994952 -0.000159263)
(0.000403756 0.00108149 -0.000159263)
(0.000209823 0.00113518 -0.000159263)
(9.51339e-06 0.00115437 -0.000159263)
(-0.000191083 0.00113848 -0.000159263)
(-0.000385876 0.001088 -0.000159263)
(-0.000552105 0.00100046 -0.000119594)
(-0.000717446 0.000889387 -0.000119594)
(-0.000860986 0.000751293 -0.000119594)
(-0.000978366 0.000590371 -0.000119594)
(-0.00106602 0.00041151 -0.000119594)
(-0.00112128 0.000220146 -0.000119594)
(-0.00114248 2.20931e-05 -0.000119594)
(-0.00112895 -0.000176632 -0.000119594)
(-0.00108113 -0.00036999 -0.000119594)
(-0.00100046 -0.000552105 -0.000119594)
(-0.000889387 -0.000717446 -0.000119594)
(-0.000751293 -0.000860986 -0.000119594)
(-0.000590371 -0.000978366 -0.000119594)
(-0.00041151 -0.00106602 -0.000119594)
(-0.000220146 -0.00112128 -0.000119594)
(-2.20931e-05 -0.00114248 -0.000119594)
(0.000176632 -0.00112895 -0.000119594)
(0.00036999 -0.00108113 -0.000119594)
(0.000552106 -0.00100046 -0.000119594)
(0.000717446 -0.000889387 -0.000119594)
(0.000860986 -0.000751293 -0.000119594)
(0.000978366 -0.000590371 -0.000119594)
(0.00106602 -0.00041151 -0.000119594)
(0.00112128 -0.000220146 -0.000119594)
(0.00114248 -2.20931e-05 -0.000119594)
(0.00112895 0.000176632 -0.000119594)
(0.00108113 0.00036999 -0.000119594)
(0.00100046 0.000552106 -0.000119594)
(0.000889387 0.000717446 -0.000119594)
(0.000751293 0.000860986 -0.000119594)
(0.000590371 0.000978366 -0.000119594)
(0.00041151 0.00106602 -0.000119594)
(0.000220146 0.00112128 -0.000119594)
(2.20931e-05 0.00114248 -0.000119594)
(-0.000176632 0.00112895 -0.000119594)
(-0.00036999 0.00108113 -0.000119594)
(-0.000905046 0.00149322 -0.000418651)
(-0.00115059 0.00131338 -0.000418651)
(-0.00136118 0.00109362 -0.000418651)
(-0.0015304 0.000840644 -0.000418651)
(-0.00165313 0.00056212 -0.00041865)
(-0.00172562 0.000266519 -0.00041865)
(-0.00174569 -3.71834e-05 -0.00041865)
(-0.00171271 -0.000339755 -0.000418651)
(-0.00162769 -0.000632002 -0.000418651)
(-0.00149322 -0.000905046 -0.000418651)
(-0.00131337 -0.00115059 -0.000418651)
(-0.00109362 -0.00136118 -0.000418651)
(-0.000840644 -0.0015304 -0.000418651)
(-0.00056212 -0.00165313 -0.00041865)
(-0.000266518 -0.00172562 -0.00041865)
(3.71834e-05 -0.00174569 -0.000418651)
(0.000339755 -0.00171271 -0.000418651)
(0.000632002 -0.00162769 -0.000418651)
(0.000905046 -0.00149322 -0.000418651)
(0.00115059 -0.00131337 -0.000418651)
(0.00136118 -0.00109362 -0.000418651)
(0.0015304 -0.000840644 -0.000418651)
(0.00165313 -0.00056212 -0.00041865)
(0.00172562 -0.000266519 -0.00041865)
(0.00174569 3.71834e-05 -0.00041865)
(0.00171271 0.000339755 -0.000418651)
(0.00162769 0.000632002 -0.000418651)
(0.00149322 0.000905046 -0.000418651)
(0.00131337 0.00115059 -0.000418651)
(0.00109362 0.00136118 -0.000418651)
(0.000840644 0.0015304 -0.00041865)
(0.00056212 0.00165313 -0.00041865)
(0.000266519 0.00172562 -0.00041865)
(-3.71833e-05 0.00174569 -0.00041865)
(-0.000339755 0.00171271 -0.000418651)
(-0.000632002 0.00162769 -0.000418651)
(-0.000872777 0.00148729 -0.000362848)
(-0.00111778 0.00131314 -0.000362848)
(-0.00132883 0.00109909 -0.000362848)
(-0.00149949 0.000851646 -0.000362848)
(-0.0016246 0.000578324 -0.000362848)
(-0.00170034 0.000287429 -0.000362848)
(-0.00172442 -1.21992e-05 -0.000362848)
(-0.00169611 -0.000311457 -0.000362848)
(-0.00161625 -0.000601251 -0.000362848)
(-0.00148729 -0.000872777 -0.000362848)
(-0.00131314 -0.00111778 -0.000362848)
(-0.00109909 -0.00132883 -0.000362848)
(-0.000851646 -0.00149949 -0.000362848)
(-0.000578324 -0.0016246 -0.000362848)
(-0.000287429 -0.00170034 -0.000362848)
(1.21993e-05 -0.00172442 -0.000362848)
(0.000311457 -0.00169611 -0.000362848)
(0.000601251 -0.00161625 -0.000362848)
(0.000872777 -0.00148729 -0.000362848)
(0.00111778 -0.00131314 -0.000362848)
(0.00132883 -0.00109909 -0.000362848)
(0.00149949 -0.000851646 -0.000362848)
(0.0016246 -0.000578324 -0.000362848)
(0.00170034 -0.000287429 -0.000362848)
(0.00172442 1.21992e-05 -0.000362848)
(0.00169611 0.000311457 -0.000362848)
(0.00161625 0.000601251 -0.000362848)
(0.00148729 0.000872777 -0.000362848)
(0.00131314 0.00111778 -0.000362848)
(0.00109909 0.00132883 -0.000362848)
(0.000851646 0.00149949 -0.000362848)
(0.000578324 0.0016246 -0.000362848)
(0.000287429 0.00170034 -0.000362848)
(-1.21992e-05 0.00172442 -0.000362848)
(-0.000311457 0.00169611 -0.000362848)
(-0.000601251 0.00161625 -0.000362848)
(-0.000848018 0.00147934 -0.000306843)
(-0.00109202 0.00130961 -0.000306843)
(-0.00130284 0.00110009 -0.000306843)
(-0.00147408 0.00085714 -0.000306843)
(-0.00160052 0.000588146 -0.000306843)
(-0.00167834 0.000301283 -0.000306843)
(-0.00170516 5.2661e-06 -0.000306843)
(-0.00168017 -0.000290912 -0.000306843)
(-0.00160413 -0.00057825 -0.000306843)
(-0.00147934 -0.000848018 -0.000306843)
(-0.00130961 -0.00109202 -0.000306843)
(-0.00110009 -0.00130284 -0.000306843)
(-0.00085714 -0.00147408 -0.000306843)
(-0.000588146 -0.00160052 -0.000306843)
(-0.000301283 -0.00167834 -0.000306843)
(-5.26606e-06 -0.00170516 -0.000306843)
(0.000290912 -0.00168017 -0.000306843)
(0.00057825 -0.00160413 -0.000306843)
(0.000848018 -0.00147934 -0.000306843)
(0.00109202 -0.00130961 -0.000306843)
(0.00130284 -0.00110009 -0.000306843)
(0.00147408 -0.00085714 -0.000306843)
(0.00160052 -0.000588146 -0.000306843)
(0.00167834 -0.000301283 -0.000306843)
(0.00170516 -5.26608e-06 -0.000306843)
(0.00168017 0.000290912 -0.000306843)
(0.00160413 0.00057825 -0.000306843)
(0.00147934 0.000848018 -0.000306843)
(0.00130961 0.00109202 -0.000306843)
(0.00110009 0.00130284 -0.000306843)
(0.00085714 0.00147408 -0.000306843)
(0.000588146 0.00160052 -0.000306843)
(0.000301283 0.00167834 -0.000306843)
(5.26612e-06 0.00170516 -0.000306843)
(-0.000290912 0.00168017 -0.000306843)
(-0.00057825 0.00160413 -0.000306843)
(-0.000828873 0.00146327 -0.000253005)
(-0.00107037 0.00129711 -0.000253005)
(-0.00127935 0.00109153 -0.000253005)
(-0.00144946 0.000852793 -0.000253005)
(-0.00157552 0.000588141 -0.000253005)
(-0.00165372 0.000305619 -0.000253005)
(-0.00168166 1.38106e-05 -0.000253006)
(-0.00165851 -0.000278416 -0.000253005)
(-0.00158497 -0.000562185 -0.000253005)
(-0.00146327 -0.000828873 -0.000253005)
(-0.00129711 -0.00107037 -0.000253005)
(-0.00109153 -0.00127935 -0.000253005)
(-0.000852793 -0.00144946 -0.000253005)
(-0.000588141 -0.00157552 -0.000253005)
(-0.000305619 -0.00165372 -0.000253005)
(-1.38106e-05 -0.00168166 -0.000253006)
(0.000278416 -0.00165851 -0.000253005)
(0.000562185 -0.00158497 -0.000253005)
(0.000828873 -0.00146327 -0.000253005)
(0.00107037 -0.00129711 -0.000253005)
(0.00127935 -0.00109153 -0.000253005)
(0.00144946 -0.000852793 -0.000253005)
(0.00157552 -0.000588141 -0.000253005)
(0.00165372 -0.000305619 -0.000253005)
(0.00168166 -1.38106e-05 -0.000253006)
(0.00165851 0.000278416 -0.000253005)
(0.00158497 0.000562185 -0.000253005)
(0.00146327 0.000828873 -0.000253005)
(0.00129711 0.00107037 -0.000253005)
(0.00109153 0.00127935 -0.000253005)
(0.000852793 0.00144946 -0.000253005)
(0.000588141 0.00157552 -0.000253005)
(0.000305619 0.00165372 -0.000253005)
(1.38106e-05 0.00168166 -0.000253006)
(-0.000278416 0.00165851 -0.000253005)
(-0.000562185 0.00158497 -0.000253005)
(-0.00118016 0.00196978 -0.000626244)
(-0.00150428 0.00173492 -0.000626244)
(-0.00178269 0.00144735 -0.000626244)
(-0.00200694 0.0011158 -0.000626244)
(-0.0021702 0.000750348 -0.000626243)
(-0.00226753 0.000362097 -0.000626243)
(-0.00229596 -3.71562e-05 -0.000626243)
(-0.00225462 -0.000435283 -0.000626243)
(-0.00214479 -0.00082018 -0.000626243)
(-0.00196978 -0.00118016 -0.000626244)
(-0.00173492 -0.00150428 -0.000626244)
(-0.00144735 -0.00178269 -0.000626244)
(-0.0011158 -0.00200694 -0.000626244)
(-0.000750348 -0.0021702 -0.000626243)
(-0.000362097 -0.00226753 -0.000626243)
(3.71562e-05 -0.00229596 -0.000626243)
(0.000435283 -0.00225462 -0.000626243)
(0.000820181 -0.00214479 -0.000626243)
(0.00118016 -0.00196978 -0.000626244)
(0.00150428 -0.00173492 -0.000626244)
(0.00178269 -0.00144735 -0.000626244)
(0.00200694 -0.0011158 -0.000626244)
(0.0021702 -0.000750348 -0.000626243)
(0.00226753 -0.000362097 -0.000626243)
(0.00229596 3.71562e-05 -0.000626243)
(0.00225462 0.000435283 -0.000626243)
(0.00214479 0.000820181 -0.000626243)
(0.00196978 0.00118016 -0.000626244)
(0.00173492 0.00150428 -0.000626244)
(0.00144735 0.00178269 -0.000626244)
(0.0011158 0.00200694 -0.000626244)
(0.000750348 0.0021702 -0.000626243)
(0.000362097 0.00226753 -0.000626243)
(-3.71561e-05 0.00229596 -0.000626243)
(-0.000435283 0.00225462 -0.000626243)
(-0.00082018 0.00214479 -0.000626243)
(-0.00114434 0.00194644 -0.000557387)
(-0.00146495 0.00171816 -0.000557387)
(-0.00174105 0.00143767 -0.000557387)
(-0.00196425 0.0011135 -0.000557387)
(-0.00212776 0.000755495 -0.000557387)
(-0.00222663 0.000374535 -0.000557386)
(-0.00225784 -1.78048e-05 -0.000557387)
(-0.00222045 -0.000409605 -0.000557387)
(-0.00211559 -0.000788958 -0.000557387)
(-0.00194644 -0.00114434 -0.000557387)
(-0.00171816 -0.00146495 -0.000557387)
(-0.00143767 -0.00174105 -0.000557387)
(-0.0011135 -0.00196425 -0.000557387)
(-0.000755495 -0.00212776 -0.000557387)
(-0.000374535 -0.00222663 -0.000557386)
(1.78048e-05 -0.00225784 -0.000557387)
(0.000409605 -0.00222045 -0.000557387)
(0.000788958 -0.00211559 -0.000557387)
(0.00114434 -0.00194644 -0.000557387)
(0.00146495 -0.00171816 -0.000557387)
(0.00174105 -0.00143767 -0.000557387)
(0.00196425 -0.0011135 -0.000557387)
(0.00212776 -0.000755495 -0.000557387)
(0.00222663 -0.000374535 -0.000557386)
(0.00225784 1.78048e-05 -0.000557387)
(0.00222045 0.000409605 -0.000557387)
(0.00211559 0.000788958 -0.000557387)
(0.00194644 0.00114434 -0.000557387)
(0.00171816 0.00146495 -0.000557387)
(0.00143767 0.00174105 -0.000557387)
(0.0011135 0.00196425 -0.000557387)
(0.000755495 0.00212776 -0.000557387)
(0.000374535 0.00222663 -0.000557386)
(-1.78047e-05 0.00225784 -0.000557387)
(-0.000409605 0.00222045 -0.000557387)
(-0.000788958 0.00211559 -0.000557387)
(-0.00111663 0.00192056 -0.000488643)
(-0.00143317 0.00169748 -0.000488643)
(-0.00170616 0.00142282 -0.000488643)
(-0.00192731 0.00110494 -0.000488642)
(-0.0020899 0.000753478 -0.000488642)
(-0.00218899 0.000379125 -0.000488642)
(-0.00222156 -6.7501e-06 -0.000488642)
(-0.00218664 -0.000392418 -0.000488643)
(-0.00208528 -0.000766163 -0.000488642)
(-0.00192056 -0.00111663 -0.000488643)
(-0.00169748 -0.00143317 -0.000488643)
(-0.00142282 -0.00170616 -0.000488643)
(-0.00110494 -0.00192731 -0.000488643)
(-0.000753478 -0.0020899 -0.000488643)
(-0.000379124 -0.00218899 -0.000488643)
(6.75016e-06 -0.00222156 -0.000488642)
(0.000392418 -0.00218664 -0.000488643)
(0.000766163 -0.00208528 -0.000488642)
(0.00111663 -0.00192056 -0.000488643)
(0.00143317 -0.00169748 -0.000488643)
(0.00170616 -0.00142282 -0.000488643)
(0.00192731 -0.00110494 -0.000488643)
(0.0020899 -0.000753478 -0.000488642)
(0.00218899 -0.000379124 -0.000488642)
(0.00222156 6.75012e-06 -0.000488642)
(0.00218664 0.000392418 -0.000488643)
(0.00208528 0.000766163 -0.000488642)
(0.00192056 0.00111663 -0.000488643)
(0.00169748 0.00143317 -0.000488643)
(0.00142282 0.00170616 -0.000488642)
(0.00110494 0.00192731 -0.000488642)
(0.000753478 0.0020899 -0.000488642)
(0.000379125 0.00218899 -0.000488642)
(-6.75007e-06 0.00222156 -0.000488642)
(-0.000392418 0.00218664 -0.000488643)
(-0.000766163 0.00208528 -0.000488642)
(-0.00109384 0.00188418 -0.000422405)
(-0.0014044 0.00166561 -0.000422405)
(-0.0016723 0.00139644 -0.000422405)
(-0.00188938 0.00108483 -0.000422405)
(-0.00204905 0.000740264 -0.000422405)
(-0.00214647 0.000373201 -0.000422405)
(-0.00217867 -5.19847e-06 -0.000422405)
(-0.00214466 -0.000383441 -0.000422405)
(-0.0020455 -0.000750033 -0.000422405)
(-0.00188418 -0.00109384 -0.000422405)
(-0.00166561 -0.0014044 -0.000422405)
(-0.00139644 -0.0016723 -0.000422405)
(-0.00108483 -0.00188938 -0.000422405)
(-0.000740264 -0.00204905 -0.000422405)
(-0.000373201 -0.00214647 -0.000422405)
(5.19853e-06 -0.00217867 -0.000422405)
(0.000383441 -0.00214466 -0.000422405)
(0.000750033 -0.0020455 -0.000422405)
(0.00109384 -0.00188418 -0.000422405)
(0.0014044 -0.00166561 -0.000422405)
(0.0016723 -0.00139644 -0.000422405)
(0.00188938 -0.00108483 -0.000422405)
(0.00204905 -0.000740264 -0.000422405)
(0.00214647 -0.000373201 -0.000422405)
(0.00217867 5.19849e-06 -0.000422405)
(0.00214466 0.000383441 -0.000422405)
(0.0020455 0.000750033 -0.000422405)
(0.00188418 0.00109384 -0.000422405)
(0.00166561 0.0014044 -0.000422405)
(0.00139644 0.0016723 -0.000422405)
(0.00108483 0.00188938 -0.000422405)
(0.000740264 0.00204905 -0.000422405)
(0.000373201 0.00214647 -0.000422405)
(-5.19845e-06 0.00217867 -0.000422405)
(-0.000383441 0.00214466 -0.000422405)
(-0.000750033 0.0020455 -0.000422405)
(-0.00144799 0.00242084 -0.000859045)
(-0.00184637 0.00213262 -0.000859045)
(-0.00218864 0.00177961 -0.000859045)
(-0.00246442 0.00137251 -0.000859045)
(-0.00266531 0.000923721 -0.000859045)
(-0.00278522 0.000446859 -0.000859045)
(-0.0028205 -4.35778e-05 -0.000859044)
(-0.00277009 -0.000532692 -0.000859045)
(-0.0026355 -0.00100562 -0.000859045)
(-0.00242084 -0.00144799 -0.000859045)
(-0.00213262 -0.00184637 -0.000859045)
(-0.0017796 -0.00218864 -0.000859045)
(-0.00137251 -0.00246442 -0.000859045)
(-0.000923721 -0.00266531 -0.000859045)
(-0.000446858 -0.00278522 -0.000859045)
(4.35779e-05 -0.0028205 -0.000859045)
(0.000532692 -0.00277009 -0.000859045)
(0.00100562 -0.0026355 -0.000859045)
(0.00144799 -0.00242084 -0.000859045)
(0.00184637 -0.00213262 -0.000859045)
(0.00218864 -0.00177961 -0.000859045)
(0.00246442 -0.00137251 -0.000859045)
(0.00266531 -0.000923721 -0.000859045)
(0.00278522 -0.000446859 -0.000859045)
(0.0028205 4.35778e-05 -0.000859044)
(0.00277009 0.000532692 -0.000859044)
(0.0026355 0.00100562 -0.000859045)
(0.00242084 0.00144799 -0.000859045)
(0.00213262 0.00184637 -0.000859045)
(0.00177961 0.00218864 -0.000859045)
(0.00137251 0.00246442 -0.000859045)
(0.000923721 0.00266531 -0.000859045)
(0.000446859 0.00278522 -0.000859045)
(-4.35778e-05 0.0028205 -0.000859044)
(-0.000532692 0.00277009 -0.000859044)
(-0.00100562 0.0026355 -0.000859045)
(-0.00140612 0.00236984 -0.000778525)
(-0.00179627 0.00208967 -0.000778525)
(-0.00213185 0.001746 -0.000778525)
(-0.00240265 0.00134928 -0.000778525)
(-0.00260045 0.000911568 -0.000778525)
(-0.00271924 0.000446156 -0.000778525)
(-0.0027554 -3.28128e-05 -0.000778525)
(-0.00270784 -0.000510784 -0.000778525)
(-0.00257801 -0.000973236 -0.000778525)
(-0.00236984 -0.00140612 -0.000778525)
(-0.00208967 -0.00179627 -0.000778525)
(-0.001746 -0.00213185 -0.000778525)
(-0.00134928 -0.00240265 -0.000778525)
(-0.000911568 -0.00260045 -0.000778525)
(-0.000446156 -0.00271924 -0.000778525)
(3.28129e-05 -0.0027554 -0.000778525)
(0.000510784 -0.00270784 -0.000778525)
(0.000973237 -0.00257801 -0.000778525)
(0.00140612 -0.00236984 -0.000778525)
(0.00179627 -0.00208967 -0.000778525)
(0.00213185 -0.001746 -0.000778525)
(0.00240265 -0.00134928 -0.000778525)
(0.00260045 -0.000911568 -0.000778525)
(0.00271924 -0.000446156 -0.000778525)
(0.0027554 3.28129e-05 -0.000778525)
(0.00270784 0.000510784 -0.000778525)
(0.00257801 0.000973236 -0.000778524)
(0.00236984 0.00140612 -0.000778525)
(0.00208967 0.00179627 -0.000778525)
(0.001746 0.00213185 -0.000778525)
(0.00134928 0.00240265 -0.000778525)
(0.000911568 0.00260045 -0.000778525)
(0.000446156 0.00271924 -0.000778525)
(-3.28128e-05 0.0027554 -0.000778525)
(-0.000510784 0.00270784 -0.000778525)
(-0.000973236 0.00257801 -0.000778524)
(-0.0013728 0.00231604 -0.000698453)
(-0.00175412 0.00204247 -0.000698453)
(-0.00208214 0.00170684 -0.000698453)
(-0.00234689 0.00131935 -0.000698453)
(-0.00254034 0.000891767 -0.000698453)
(-0.0026566 0.000437095 -0.000698453)
(-0.00269214 -3.08615e-05 -0.000698453)
(-0.00264589 -0.000497877 -0.000698453)
(-0.00251923 -0.000949767 -0.000698453)
(-0.00231603 -0.0013728 -0.000698453)
(-0.00204247 -0.00175412 -0.000698453)
(-0.00170684 -0.00208214 -0.000698453)
(-0.00131935 -0.00234689 -0.000698453)
(-0.000891767 -0.00254034 -0.000698453)
(-0.000437095 -0.0026566 -0.000698453)
(3.08616e-05 -0.00269214 -0.000698453)
(0.000497877 -0.00264589 -0.000698453)
(0.000949767 -0.00251923 -0.000698453)
(0.0013728 -0.00231603 -0.000698453)
(0.00175412 -0.00204247 -0.000698453)
(0.00208214 -0.00170684 -0.000698453)
(0.00234689 -0.00131935 -0.000698453)
(0.00254034 -0.000891767 -0.000698453)
(0.0026566 -0.000437095 -0.000698453)
(0.00269214 3.08615e-05 -0.000698453)
(0.00264589 0.000497877 -0.000698453)
(0.00251923 0.000949767 -0.000698453)
(0.00231604 0.0013728 -0.000698453)
(0.00204247 0.00175412 -0.000698453)
(0.00170684 0.00208214 -0.000698453)
(0.00131935 0.00234689 -0.000698453)
(0.000891767 0.00254034 -0.000698453)
(0.000437095 0.0026566 -0.000698453)
(-3.08615e-05 0.00269214 -0.000698453)
(-0.000497877 0.00264589 -0.000698453)
(-0.000949767 0.00251923 -0.000698453)
(-0.00134341 0.00225005 -0.000621098)
(-0.00171372 0.00198258 -0.000621098)
(-0.00203195 0.00165488 -0.000621098)
(-0.00228845 0.00127689 -0.000621098)
(-0.00247541 0.000860106 -0.000621098)
(-0.00258716 0.000417191 -0.000621098)
(-0.0026203 -3.84032e-05 -0.000621098)
(-0.00257382 -0.000492832 -0.000621098)
(-0.00244914 -0.000932284 -0.000621098)
(-0.00225005 -0.00134341 -0.000621098)
(-0.00198258 -0.00171372 -0.000621098)
(-0.00165488 -0.00203195 -0.000621098)
(-0.00127689 -0.00228845 -0.000621098)
(-0.000860106 -0.00247541 -0.000621098)
(-0.000417191 -0.00258716 -0.000621098)
(3.84033e-05 -0.0026203 -0.000621098)
(0.000492832 -0.00257382 -0.000621098)
(0.000932284 -0.00244914 -0.000621098)
(0.00134341 -0.00225005 -0.000621098)
(0.00171372 -0.00198258 -0.000621098)
(0.00203195 -0.00165488 -0.000621098)
(0.00228845 -0.00127689 -0.000621098)
(0.00247541 -0.000860106 -0.000621098)
(0.00258716 -0.000417191 -0.000621098)
(0.0026203 3.84033e-05 -0.000621098)
(0.00257382 0.000492832 -0.000621098)
(0.00244914 0.000932284 -0.000621098)
(0.00225005 0.00134341 -0.000621098)
(0.00198258 0.00171372 -0.000621098)
(0.00165488 0.00203195 -0.000621098)
(0.00127689 0.00228845 -0.000621098)
(0.000860107 0.00247541 -0.000621098)
(0.000417191 0.00258716 -0.000621098)
(-3.84032e-05 0.0026203 -0.000621098)
(-0.000492832 0.00257382 -0.000621098)
(-0.000932284 0.00244914 -0.000621098)
(-0.00170842 0.00283538 -0.00111039)