/*--------------------------------*- C++ -*----------------------------------*\
| =========                 |                                                 |
| \\      /  F ield         | OpenFOAM: The Open Source CFD Toolbox           |
|  \\    /   O peration     | Version:  2312                                  |
|   \\  /    A nd           | Website:  www.openfoam.com                      |
|    \\/     M anipulation  |                                                 |
\*---------------------------------------------------------------------------*/
FoamFile
{
    version     2.0;
    format      ascii;
    arch        "LSB;label=32;scalar=64";
    class       volVectorField;
    location    "0.2";
    object      traction;
}
// * * * * * * * * * * * * * * * * * * * * * * * * * * * * * * * * * * * * * //

dimensions      [1 -1 -2 0 0 0 0];

internalField   uniform (0 0 0);

boundaryField
{
    fixed
    {
        type            calculated;
        value           nonuniform List<vector> 
108
(
(32.9083 4533.42 14783.1)
(-754.808 4470.27 14783.1)
(-1519.6 4271.28 14783.1)
(-2238.22 3942.51 14783.1)
(-2888.82 3493.96 14783.1)
(-3451.64 2939.25 14783.1)
(-3909.6 2295.22 14783.1)
(-4248.77 1581.45 14783.1)
(-4458.84 819.637 14783.1)
(-4533.42 32.9083 14783.1)
(-4470.27 -754.808 14783.1)
(-4271.28 -1519.6 14783.1)
(-3942.51 -2238.22 14783.1)
(-3493.96 -2888.82 14783.1)
(-2939.25 -3451.64 14783.1)
(-2295.22 -3909.6 14783.1)
(-1581.45 -4248.77 14783.1)
(-819.637 -4458.84 14783.1)
(-32.9083 -4533.42 14783.1)
(754.808 -4470.27 14783.1)
(1519.6 -4271.28 14783.1)
(2238.22 -3942.51 14783.1)
(2888.82 -3493.96 14783.1)
(3451.64 -2939.25 14783.1)
(3909.6 -2295.22 14783.1)
(4248.77 -1581.45 14783.1)
(4458.84 -819.637 14783.1)
(4533.42 -32.9083 14783.1)
(4470.27 754.808 14783.1)
(4271.28 1519.6 14783.1)
(3942.51 2238.22 14783.1)
(3493.96 2888.82 14783.1)
(2939.25 3451.64 14783.1)
(2295.22 3909.6 14783.1)
(1581.45 4248.77 14783.1)
(819.637 4458.84 14783.1)
(387.534 -320.855 6367.01)
(437.363 -248.687 6367.01)
(473.904 -168.967 6366.96)
(496.026 -84.0814 6367.01)
(503.07 3.35025 6367)
(494.868 90.6423 6366.97)
(471.641 175.184 6366.99)
(434.05 254.423 6367)
(383.275 325.93 6366.98)
(320.855 387.534 6367.01)
(248.686 437.363 6367.01)
(168.967 473.904 6366.96)
(84.0814 496.026 6367.01)
(-3.35028 503.07 6367)
(-90.6424 494.868 6366.97)
(-175.184 471.641 6366.99)
(-254.423 434.05 6367)
(-325.93 383.275 6366.98)
(-387.534 320.855 6367.01)
(-437.363 248.687 6367.01)
(-473.904 168.967 6366.96)
(-496.026 84.0814 6367.01)
(-503.071 -3.35025 6367)
(-494.868 -90.6423 6366.97)
(-471.641 -175.184 6366.99)
(-434.05 -254.423 6367)
(-383.275 -325.93 6366.98)
(-320.855 -387.534 6367.01)
(-248.687 -437.363 6367.01)
(-168.967 -473.904 6366.96)
(-84.0814 -496.026 6367.01)
(3.35022 -503.071 6367)
(90.6423 -494.868 6366.97)
(175.184 -471.641 6366.99)
(254.423 -434.05 6367)
(325.93 -383.275 6366.98)
(1371.06 -8218.37 7432.84)
(2777.33 -7855.43 7432.85)
(4099.23 -7253.81 7432.8)
(5296.56 -6431.78 7432.78)
(6332.95 -5414.33 7432.8)
(7176.93 -4232.38 7432.82)
(7802.85 -2921.82 7432.85)
(8191.67 -1522.47 7432.8)
(8331.6 -76.8726 7432.83)
(8218.37 1371.06 7432.85)
(7855.43 2777.33 7432.85)
(7253.81 4099.23 7432.8)
(6431.78 5296.56 7432.78)
(5414.33 6332.95 7432.8)
(4232.38 7176.93 7432.82)
(2921.82 7802.85 7432.85)
(1522.47 8191.67 7432.8)
(76.8725 8331.6 7432.83)
(-1371.06 8218.37 7432.85)
(-2777.33 7855.43 7432.85)
(-4099.23 7253.81 7432.8)
(-5296.56 6431.78 7432.78)
(-6332.95 5414.33 7432.8)
(-7176.93 4232.38 7432.82)
(-7802.85 2921.82 7432.85)
(-8191.67 1522.47 7432.8)
(-8331.6 76.8726 7432.83)
(-8218.37 -1371.06 7432.84)
(-7855.43 -2777.33 7432.85)
(-7253.81 -4099.23 7432.8)
(-6431.78 -5296.56 7432.78)
(-5414.33 -6332.95 7432.8)
(-4232.38 -7176.93 7432.82)
(-2921.82 -7802.85 7432.85)
(-1522.47 -8191.67 7432.8)
(-76.8726 -8331.6 7432.83)
)
;
    }
    inside
    {
        type            calculated;
        value           nonuniform List<vector> 
540
(
(-1321.14 149.113 -224.266)
(-1326.97 -82.5589 -224.265)
(-1292.4 -311.734 -224.232)
(-1218.64 -531.391 -224.262)
(-1107.87 -734.979 -224.238)
(-963.409 -916.186 -224.242)
(-789.713 -1069.58 -224.265)
(-591.939 -1190.42 -224.233)
(-376.276 -1275.16 -224.284)
(-149.113 -1321.14 -224.266)
(82.5592 -1326.97 -224.265)
(311.735 -1292.4 -224.232)
(531.392 -1218.64 -224.262)
(734.979 -1107.87 -224.238)
(916.186 -963.41 -224.242)
(1069.58 -789.713 -224.265)
(1190.42 -591.939 -224.233)
(1275.16 -376.276 -224.284)
(1321.14 -149.113 -224.266)
(1326.97 82.5592 -224.265)
(1292.4 311.735 -224.232)
(1218.64 531.392 -224.262)
(1107.87 734.979 -224.238)
(963.409 916.186 -224.242)
(789.713 1069.58 -224.265)
(591.939 1190.42 -224.233)
(376.276 1275.16 -224.284)
(149.113 1321.14 -224.266)
(-82.5589 1326.97 -224.265)
(-311.734 1292.4 -224.232)
(-531.391 1218.64 -224.262)
(-734.978 1107.87 -224.238)
(-916.185 963.409 -224.242)
(-1069.58 789.713 -224.265)
(-1190.42 591.939 -224.233)
(-1275.16 376.276 -224.284)
(7267.82 1393.18 550.47)
(6915.52 2634.02 550.42)
(6353.04 3794.87 550.43)
(5597.59 4840.49 550.43)
(4671.97 5738.91 550.436)
(3604.41 6462.95 550.439)
(2427.39 6990.7 550.436)
(1176.59 7305.98 550.451)
(-109.914 7399.3 550.409)
(-1393.18 7267.82 550.47)
(-2634.02 6915.52 550.42)
(-3794.87 6353.04 550.43)
(-4840.49 5597.59 550.43)
(-5738.91 4671.97 550.436)
(-6462.95 3604.41 550.439)
(-6990.7 2427.39 550.436)
(-7305.98 1176.59 550.451)
(-7399.3 -109.914 550.409)
(-7267.82 -1393.18 550.47)
(-6915.52 -2634.02 550.42)
(-6353.04 -3794.87 550.43)
(-5597.59 -4840.49 550.43)
(-4671.97 -5738.91 550.436)
(-3604.41 -6462.95 550.439)
(-2427.39 -6990.7 550.436)
(-1176.59 -7305.98 550.451)
(109.914 -7399.3 550.409)
(1393.18 -7267.82 550.47)
(2634.02 -6915.52 550.42)
(3794.87 -6353.04 550.43)
(4840.49 -5597.59 550.43)
(5738.91 -4671.97 550.436)
(6462.95 -3604.41 550.439)
(6990.7 -2427.39 550.436)
(7305.98 -1176.59 550.451)
(7399.3 109.914 550.409)
(7547.12 2111.59 556.054)
(7065.84 3390.09 556.027)
(6369.73 4565.48 556.049)
(5480.21 5602.21 556.046)
(4424.14 6468.74 556.052)
(3233.63 7138.71 556.058)
(1944.88 7591.83 556.04)
(596.997 7814.15 556.047)
(-768.946 7799.11 556.038)
(-2111.59 7547.12 556.054)
(-3390.09 7065.84 556.027)
(-4565.48 6369.73 556.049)
(-5602.21 5480.21 556.046)
(-6468.74 4424.14 556.052)
(-7138.71 3233.63 556.058)
(-7591.83 1944.88 556.04)
(-7814.15 596.997 556.047)
(-7799.11 -768.946 556.038)
(-7547.12 -2111.59 556.054)
(-7065.84 -3390.09 556.026)
(-6369.73 -4565.48 556.049)
(-5480.21 -5602.21 556.046)
(-4424.14 -6468.74 556.052)
(-3233.63 -7138.71 556.058)
(-1944.88 -7591.83 556.04)
(-596.997 -7814.15 556.047)
(768.946 -7799.11 556.038)
(2111.59 -7547.12 556.054)
(3390.09 -7065.84 556.026)
(4565.48 -6369.73 556.049)
(5602.21 -5480.21 556.046)
(6468.74 -4424.14 556.052)
(7138.71 -3233.63 556.058)
(7591.83 -1944.88 556.04)
(7814.15 -596.997 556.047)
(7799.11 768.946 556.038)
(8411.16 3105.13 510.045)
(7744.19 4518.55 510.093)
(6841.87 5794.65 510.072)
(5731.71 6894.74 510.07)
(4447.4 7785.31 510.066)
(3027.9 8439.23 510.066)
(1516.46 8836.9 510.063)
(-41.0682 8965.91 510.069)
(-1597.42 8822.58 510.087)
(-3105.13 8411.16 510.045)
(-4518.55 7744.19 510.093)
(-5794.65 6841.87 510.072)
(-6894.74 5731.71 510.07)
(-7785.31 4447.4 510.066)
(-8439.23 3027.9 510.066)
(-8836.9 1516.46 510.063)
(-8965.91 -41.0682 510.069)
(-8822.58 -1597.42 510.087)
(-8411.16 -3105.13 510.045)
(-7744.19 -4518.55 510.093)
(-6841.87 -5794.65 510.072)
(-5731.71 -6894.74 510.07)
(-4447.4 -7785.31 510.066)
(-3027.9 -8439.23 510.066)
(-1516.46 -8836.9 510.063)
(41.0682 -8965.91 510.069)
(1597.42 -8822.58 510.087)
(3105.13 -8411.16 510.045)
(4518.55 -7744.19 510.093)
(5794.65 -6841.87 510.072)
(6894.74 -5731.71 510.07)
(7785.31 -4447.4 510.066)
(8439.23 -3027.9 510.066)
(8836.9 -1516.46 510.063)
(8965.91 41.0682 510.069)
(8822.58 1597.42 510.087)
(8959.31 4100.5 459.968)
(8111.07 5593.98 460.009)
(7016.51 6917.48 459.974)
(5708.71 8030.8 459.986)
(4227.42 8900.06 459.988)
(2617.75 9498.99 459.978)
(928.48 9809.2 459.995)
(-788.969 9821.48 459.963)
(-2482.48 9535.19 460.014)
(-4100.5 8959.31 459.968)
(-5593.98 8111.07 460.009)
(-6917.48 7016.51 459.975)
(-8030.8 5708.71 459.986)
(-8900.06 4227.42 459.988)
(-9498.99 2617.75 459.978)
(-9809.2 928.48 459.995)
(-9821.48 -788.969 459.963)
(-9535.19 -2482.48 460.014)
(-8959.31 -4100.5 459.968)
(-8111.07 -5593.98 460.009)
(-7016.51 -6917.48 459.975)
(-5708.71 -8030.8 459.986)
(-4227.42 -8900.06 459.988)
(-2617.75 -9498.99 459.978)
(-928.48 -9809.2 459.995)
(788.969 -9821.48 459.963)
(2482.48 -9535.19 460.014)
(4100.5 -8959.31 459.968)
(5593.98 -8111.07 460.009)
(6917.48 -7016.51 459.975)
(8030.8 -5708.71 459.986)
(8900.06 -4227.42 459.988)
(9498.99 -2617.75 459.978)
(9809.2 -928.48 459.995)
(9821.48 788.969 459.963)
(9535.19 2482.48 460.014)
(9188.95 4988.92 426.138)
(8182.96 6508.75 426.166)
(6928.49 7830.94 426.16)
(5463.38 8914.95 426.154)
(3832.33 9728.29 426.145)
(2084.81 10246 426.144)
(273.965 10452.3 426.125)
(-1545.25 10341.2 426.128)
(-3317.53 9915.68 426.162)
(-4988.92 9188.95 426.138)
(-6508.75 8182.96 426.166)
(-7830.94 6928.49 426.16)
(-8914.95 5463.38 426.154)
(-9728.29 3832.33 426.145)
(-10246 2084.81 426.144)
(-10452.3 273.965 426.125)
(-10341.2 -1545.25 426.128)
(-9915.68 -3317.53 426.162)
(-9188.95 -4988.92 426.138)
(-8182.96 -6508.75 426.166)
(-6928.49 -7830.94 426.16)
(-5463.38 -8914.95 426.154)
(-3832.33 -9728.29 426.145)
(-2084.81 -10246 426.144)
(-273.965 -10452.3 426.125)
(1545.25 -10341.2 426.128)
(3317.53 -9915.68 426.162)
(4988.92 -9188.95 426.138)
(6508.75 -8182.96 426.166)
(7830.94 -6928.49 426.16)
(8914.95 -5463.38 426.154)
(9728.29 -3832.33 426.145)
(10246 -2084.81 426.144)
(10452.3 -273.965 426.125)
(10341.2 1545.25 426.128)
(9915.68 3317.53 426.162)
(8975.75 5562.15 453.491)
(7873.42 7036.17 453.503)
(6532.02 8296.52 453.497)
(4992.07 9304.74 453.51)
(3300.5 10030.3 453.498)
(1508.63 10451 453.478)
(-329.092 10554.2 453.503)
(-2156.8 10336.8 453.469)
(-3918.91 9805.05 453.512)
(-5562.15 8975.75 453.491)
(-7036.17 7873.42 453.503)
(-8296.52 6532.02 453.497)
(-9304.74 4992.07 453.511)
(-10030.3 3300.5 453.498)
(-10451 1508.63 453.478)
(-10554.2 -329.092 453.503)
(-10336.8 -2156.8 453.469)
(-9805.05 -3918.91 453.512)
(-8975.75 -5562.15 453.491)
(-7873.42 -7036.17 453.503)
(-6532.02 -8296.52 453.497)
(-4992.07 -9304.74 453.51)
(-3300.5 -10030.3 453.498)
(-1508.63 -10451 453.478)
(329.092 -10554.2 453.503)
(2156.8 -10336.8 453.469)
(3918.91 -9805.05 453.512)
(5562.15 -8975.75 453.491)
(7036.17 -7873.42 453.503)
(8296.52 -6532.02 453.497)
(9304.74 -4992.07 453.511)
(10030.3 -3300.5 453.498)
(10451 -1508.63 453.478)
(10554.2 329.092 453.503)
(10336.8 2156.8 453.469)
(9805.05 3918.91 453.512)
(8236.32 5570.1 612.53)
(7143.91 6915.7 612.56)
(5834.53 8051.1 612.535)
(4347.8 8941.97 612.559)
(2729 9561.13 612.539)
(1027.29 9889.83 612.52)
(-705.696 9917.94 612.561)
(-2417.18 9644.71 612.52)
(-4055.28 9078.45 612.542)
(-5570.1 8236.32 612.53)
(-6915.7 7143.91 612.56)
(-8051.1 5834.53 612.535)
(-8941.97 4347.8 612.559)
(-9561.13 2729 612.539)
(-9889.83 1027.29 612.52)
(-9917.94 -705.696 612.561)
(-9644.71 -2417.18 612.52)
(-9078.45 -4055.28 612.542)
(-8236.32 -5570.1 612.53)
(-7143.91 -6915.7 612.56)
(-5834.53 -8051.1 612.535)
(-4347.8 -8941.97 612.559)
(-2729 -9561.13 612.539)
(-1027.29 -9889.83 612.52)
(705.696 -9917.94 612.561)
(2417.18 -9644.71 612.52)
(4055.28 -9078.45 612.542)
(5570.1 -8236.32 612.53)
(6915.7 -7143.91 612.56)
(8051.1 -5834.53 612.535)
(8941.97 -4347.8 612.559)
(9561.13 -2729 612.539)
(9889.83 -1027.29 612.52)
(9917.94 705.696 612.561)
(9644.71 2417.18 612.52)
(9078.45 4055.28 612.542)
(6955.17 4774.86 993.42)
(6020.39 5910.22 993.466)
(4902.62 6865.82 993.448)
(3635.93 7612.93 993.422)
(2258.74 8128.61 993.427)
(812.915 8397.31 993.425)
(-657.63 8410.89 993.434)
(-2108.16 8168.92 993.426)
(-3494.75 7678.82 993.445)
(-4774.86 6955.17 993.42)
(-5910.22 6020.39 993.466)
(-6865.82 4902.62 993.448)
(-7612.93 3635.93 993.422)
(-8128.61 2258.74 993.427)
(-8397.31 812.915 993.425)
(-8410.89 -657.63 993.434)
(-8168.92 -2108.16 993.426)
(-7678.82 -3494.75 993.445)
(-6955.17 -4774.86 993.42)
(-6020.39 -5910.22 993.466)
(-4902.62 -6865.82 993.448)
(-3635.93 -7612.93 993.422)
(-2258.74 -8128.61 993.427)
(-812.915 -8397.31 993.424)
(657.63 -8410.89 993.434)
(2108.16 -8168.92 993.426)
(3494.75 -7678.82 993.444)
(4774.86 -6955.17 993.42)
(5910.22 -6020.39 993.466)
(6865.82 -4902.62 993.448)
(7612.93 -3635.93 993.422)
(8128.61 -2258.74 993.427)
(8397.31 -812.915 993.425)
(8410.89 657.63 993.434)
(8168.92 2108.16 993.426)
(7678.82 3494.75 993.445)
(5220.57 3036.54 1695.35)
(4613.99 3897 1695.37)
(3867.16 4639 1695.39)
(3002.87 5240.07 1695.35)
(2047.3 5681.9 1695.35)
(1029.56 5951.06 1695.38)
(-19.4419 6039.43 1695.36)
(-1067.89 5944.31 1695.37)
(-2083.95 5668.6 1695.37)
(-3036.54 5220.57 1695.35)
(-3897 4613.99 1695.37)
(-4639 3867.16 1695.39)
(-5240.07 3002.87 1695.35)
(-5681.9 2047.3 1695.35)
(-5951.06 1029.56 1695.38)
(-6039.43 -19.4419 1695.36)
(-5944.31 -1067.89 1695.37)
(-5668.6 -2083.95 1695.37)
(-5220.57 -3036.54 1695.35)
(-4613.99 -3897 1695.37)
(-3867.16 -4639 1695.39)
(-3002.87 -5240.07 1695.35)
(-2047.3 -5681.9 1695.35)
(-1029.56 -5951.06 1695.37)
(19.4421 -6039.43 1695.36)
(1067.89 -5944.31 1695.37)
(2083.95 -5668.6 1695.37)
(3036.54 -5220.57 1695.34)
(3897 -4613.99 1695.37)
(4639 -3867.16 1695.39)
(5240.07 -3002.87 1695.35)
(5681.9 -2047.3 1695.35)
(5951.06 -1029.56 1695.38)
(6039.43 19.442 1695.36)
(5944.31 1067.89 1695.37)
(5668.6 2083.95 1695.37)
(3242.54 370.216 2844.37)
(3129.03 927.716 2844.36)
(2920.37 1456.9 2844.39)
(2623.04 1941.95 2844.35)
(2245.98 2367.92 2844.37)
(1800.67 2721.96 2844.38)
(1300.62 2993.33 2844.34)
(761.131 3173.6 2844.38)
(198.441 3257.6 2844.37)
(-370.215 3242.54 2844.37)
(-927.716 3129.03 2844.36)
(-1456.91 2920.37 2844.39)
(-1941.95 2623.04 2844.35)
(-2367.93 2245.98 2844.37)
(-2721.96 1800.67 2844.38)
(-2993.33 1300.62 2844.34)
(-3173.6 761.131 2844.38)
(-3257.6 198.441 2844.37)
(-3242.54 -370.216 2844.37)
(-3129.03 -927.716 2844.36)
(-2920.37 -1456.91 2844.39)
(-2623.04 -1941.95 2844.35)
(-2245.98 -2367.93 2844.37)
(-1800.67 -2721.96 2844.38)
(-1300.62 -2993.33 2844.34)
(-761.131 -3173.6 2844.38)
(-198.44 -3257.6 2844.37)
(370.216 -3242.54 2844.37)
(927.716 -3129.03 2844.36)
(1456.91 -2920.37 2844.38)
(1941.95 -2623.04 2844.35)
(2367.93 -2245.98 2844.37)
(2721.96 -1800.67 2844.38)
(2993.33 -1300.62 2844.34)
(3173.6 -761.131 2844.38)
(3257.6 -198.44 2844.37)
(1427.39 -2912.87 4583.43)
(1911.52 -2620.68 4583.37)
(2337.58 -2248.95 4583.4)
(2692.58 -1808.83 4583.37)
(2965.78 -1313.8 4583.38)
(3148.87 -778.806 4583.38)
(3236.26 -220.264 4583.38)
(3225.41 345.037 4583.44)
(3116.47 899.838 4583.41)
(2912.87 1427.39 4583.43)
(2620.68 1911.52 4583.37)
(2248.95 2337.58 4583.4)
(1808.83 2692.58 4583.37)
(1313.8 2965.78 4583.38)
(778.805 3148.87 4583.38)
(220.263 3236.26 4583.38)
(-345.038 3225.41 4583.44)
(-899.839 3116.47 4583.41)
(-1427.39 2912.87 4583.43)
(-1911.52 2620.68 4583.37)
(-2337.58 2248.95 4583.4)
(-2692.58 1808.83 4583.37)
(-2965.78 1313.8 4583.38)
(-3148.87 778.805 4583.38)
(-3236.26 220.263 4583.38)
(-3225.41 -345.038 4583.44)
(-3116.47 -899.839 4583.41)
(-2912.87 -1427.39 4583.43)
(-2620.68 -1911.52 4583.37)
(-2248.95 -2337.58 4583.4)
(-1808.83 -2692.58 4583.37)
(-1313.8 -2965.78 4583.38)
(-778.805 -3148.87 4583.38)
(-220.262 -3236.26 4583.38)
(345.039 -3225.41 4583.44)
(899.84 -3116.47 4583.41)
(170.303 -6306.6 7257.27)
(1262.87 -6181.09 7257.17)
(2317.05 -5867.92 7257.2)
(3300.77 -5376.34 7257.12)
(4184.24 -4721.49 7257.14)
(4940.6 -3923.29 7257.23)
(5546.76 -3005.71 7257.17)
(5984.55 -1996.99 7257.3)
(6240.36 -927.437 7257.27)
(6306.61 170.302 7257.27)
(6181.1 1262.87 7257.17)
(5867.92 2317.05 7257.2)
(5376.34 3300.77 7257.12)
(4721.49 4184.24 7257.14)
(3923.29 4940.6 7257.23)
(3005.71 5546.76 7257.17)
(1996.99 5984.55 7257.3)
(927.437 6240.36 7257.27)
(-170.302 6306.61 7257.27)
(-1262.87 6181.1 7257.17)
(-2317.05 5867.92 7257.2)
(-3300.77 5376.34 7257.12)
(-4184.24 4721.49 7257.14)
(-4940.6 3923.29 7257.23)
(-5546.75 3005.71 7257.17)
(-5984.55 1996.99 7257.3)
(-6240.36 927.438 7257.27)
(-6306.61 -170.301 7257.27)
(-6181.1 -1262.87 7257.17)
(-5867.92 -2317.05 7257.2)
(-5376.34 -3300.77 7257.12)
(-4721.49 -4184.24 7257.14)
(-3923.29 -4940.6 7257.23)
(-3005.71 -5546.75 7257.17)
(-1996.99 -5984.55 7257.3)
(-927.435 -6240.36 7257.27)
(1276.45 -6101.43 8110.2)
(2316.82 -5787.13 8110.24)
(3286.35 -5296.85 8110.15)
(4156.31 -4645.65 8110.14)
(4899.89 -3853.47 8110.29)
(5494.55 -2943.94 8110.11)
(5922.4 -1945.15 8110.26)
(6170.11 -887.356 8110.29)
(6230.59 197.773 8110.32)
(6101.44 1276.45 8110.21)
(5787.13 2316.82 8110.24)
(5296.85 3286.35 8110.15)
(4645.65 4156.31 8110.14)
(3853.47 4899.89 8110.29)
(2943.94 5494.55 8110.11)
(1945.14 5922.4 8110.26)
(887.354 6170.11 8110.29)
(-197.774 6230.58 8110.32)
(-1276.45 6101.43 8110.2)
(-2316.82 5787.13 8110.24)
(-3286.35 5296.85 8110.15)
(-4156.31 4645.65 8110.14)
(-4899.89 3853.47 8110.29)
(-5494.55 2943.94 8110.11)
(-5922.4 1945.15 8110.26)
(-6170.11 887.356 8110.29)
(-6230.59 -197.773 8110.32)
(-6101.44 -1276.45 8110.21)
(-5787.13 -2316.82 8110.24)
(-5296.85 -3286.35 8110.16)
(-4645.65 -4156.31 8110.14)
(-3853.47 -4899.89 8110.29)
(-2943.94 -5494.55 8110.11)
(-1945.15 -5922.4 8110.26)
(-887.354 -6170.1 8110.29)
(197.775 -6230.58 8110.32)
(3740.41 -1247.37 -351.514)
(3900.31 -578.793 -351.748)
(3941.57 107.704 -353.238)
(3863.01 789.038 -348.629)
(3666.78 1450.4 -356.33)
(3360.49 2062.34 -347.627)
(2949.86 2616.47 -354.389)
(2451.65 3088.12 -350.839)
(1877.88 3467.14 -351.825)
(1247.36 3740.41 -351.516)
(578.793 3900.31 -351.749)
(-107.705 3941.57 -353.242)
(-789.04 3863.01 -348.635)
(-1450.4 3666.79 -356.335)
(-2062.34 3360.49 -347.632)
(-2616.47 2949.86 -354.393)
(-3088.12 2451.65 -350.84)
(-3467.14 1877.88 -351.825)
(-3740.41 1247.36 -351.515)
(-3900.32 578.797 -351.748)
(-3941.57 -107.704 -353.239)
(-3863.01 -789.039 -348.633)
(-3666.79 -1450.4 -356.333)
(-3360.49 -2062.34 -347.629)
(-2949.87 -2616.47 -354.389)
(-2451.65 -3088.12 -350.838)
(-1877.88 -3467.14 -351.823)
(-1247.37 -3740.4 -351.513)
(-578.799 -3900.32 -351.745)
(107.703 -3941.57 -353.237)
(789.038 -3863.01 -348.632)
(1450.4 -3666.79 -356.332)
(2062.34 -3360.49 -347.629)
(2616.47 -2949.87 -354.389)
(3088.12 -2451.65 -350.839)
(3467.14 -1877.88 -351.824)
)
;
    }
    outside
    {
        type            calculated;
        value           nonuniform List<vector> 
540
(
(9083.63 911.17 554.698)
(8787.41 2474.74 554.745)
(8224.19 3963.01 554.686)
(7411.03 5330.87 554.716)
(6372.72 6536.81 554.782)
(5140.8 7544.15 554.768)
(3752.71 8322.21 554.69)
(2250.59 8847.45 554.694)
(680.021 9103.86 554.709)
(-911.17 9083.63 554.698)
(-2474.74 8787.41 554.745)
(-3963.01 8224.19 554.686)
(-5330.87 7411.03 554.716)
(-6536.81 6372.72 554.781)
(-7544.15 5140.8 554.767)
(-8322.21 3752.71 554.69)
(-8847.45 2250.59 554.694)
(-9103.86 680.021 554.708)
(-9083.63 -911.17 554.698)
(-8787.41 -2474.74 554.745)
(-8224.19 -3963.01 554.686)
(-7411.03 -5330.87 554.716)
(-6372.72 -6536.81 554.781)
(-5140.8 -7544.15 554.767)
(-3752.71 -8322.21 554.69)
(-2250.59 -8847.45 554.694)
(-680.021 -9103.86 554.709)
(911.17 -9083.63 554.698)
(2474.73 -8787.41 554.745)
(3963.01 -8224.19 554.686)
(5330.87 -7411.03 554.716)
(6536.81 -6372.71 554.781)
(7544.15 -5140.8 554.767)
(8322.21 -3752.71 554.69)
(8847.45 -2250.59 554.694)
(9103.86 -680.021 554.709)
(1696.22 72.9938 262.012)
(1657.78 366.478 262.088)
(1569 648.799 262.082)
(1432.44 911.307 262.031)
(1252.44 1146.22 262.021)
(1034.36 1346.34 262.084)
(784.861 1505.46 262.077)
(511.537 1618.93 262.059)
(222.622 1683.14 262.067)
(-72.9937 1696.22 262.012)
(-366.478 1657.78 262.088)
(-648.799 1569 262.082)
(-911.307 1432.44 262.031)
(-1146.22 1252.44 262.02)
(-1346.34 1034.36 262.084)
(-1505.46 784.861 262.077)
(-1618.93 511.537 262.059)
(-1683.14 222.622 262.067)
(-1696.22 -72.9937 262.012)
(-1657.78 -366.478 262.088)
(-1569 -648.799 262.082)
(-1432.44 -911.307 262.031)
(-1252.44 -1146.22 262.02)
(-1034.36 -1346.34 262.084)
(-784.861 -1505.46 262.077)
(-511.537 -1618.93 262.059)
(-222.622 -1683.14 262.067)
(72.9937 -1696.22 262.012)
(366.478 -1657.78 262.088)
(648.799 -1569 262.082)
(911.307 -1432.44 262.031)
(1146.22 -1252.44 262.02)
(1346.34 -1034.36 262.084)
(1505.46 -784.861 262.077)
(1618.93 -511.537 262.059)
(1683.14 -222.622 262.068)
(1702.64 230.243 279.362)
(1636.69 522.351 279.33)
(1521.19 798.692 279.349)
(1359.35 1050.65 279.326)
(1156.29 1270.77 279.307)
(918.067 1452.28 279.314)
(651.908 1589.55 279.33)
(365.978 1678.64 279.337)
(68.8989 1716.66 279.394)
(-230.243 1702.64 279.362)
(-522.351 1636.69 279.33)
(-798.692 1521.19 279.349)
(-1050.65 1359.35 279.326)
(-1270.77 1156.29 279.306)
(-1452.28 918.068 279.314)
(-1589.55 651.909 279.33)
(-1678.64 365.978 279.337)
(-1716.66 68.8989 279.394)
(-1702.64 -230.243 279.362)
(-1636.69 -522.351 279.33)
(-1521.19 -798.692 279.349)
(-1359.35 -1050.65 279.326)
(-1156.29 -1270.77 279.306)
(-918.068 -1452.28 279.314)
(-651.908 -1589.55 279.33)
(-365.978 -1678.64 279.337)
(-68.8989 -1716.66 279.394)
(230.243 -1702.64 279.362)
(522.351 -1636.69 279.33)
(798.692 -1521.19 279.349)
(1050.65 -1359.35 279.326)
(1270.77 -1156.29 279.307)
(1452.28 -918.067 279.314)
(1589.55 -651.908 279.33)
(1678.64 -365.978 279.337)
(1716.66 -68.8989 279.394)
(1399.86 410.193 539.827)
(1307.39 647.074 539.843)
(1175.12 864.233 539.84)
(1007.23 1055.19 539.836)
(808.685 1214.08 539.887)
(585.596 1336.06 539.848)
(344.699 1417.44 539.827)
(93.337 1455.7 539.801)
(-160.894 1449.83 539.843)
(-410.193 1399.86 539.827)
(-647.074 1307.39 539.843)
(-864.233 1175.12 539.84)
(-1055.19 1007.23 539.835)
(-1214.08 808.685 539.887)
(-1336.06 585.596 539.848)
(-1417.44 344.699 539.827)
(-1455.7 93.337 539.801)
(-1449.83 -160.894 539.843)
(-1399.86 -410.193 539.827)
(-1307.39 -647.074 539.842)
(-1175.12 -864.233 539.84)
(-1007.23 -1055.19 539.835)
(-808.685 -1214.08 539.887)
(-585.596 -1336.06 539.848)
(-344.699 -1417.44 539.827)
(-93.337 -1455.7 539.801)
(160.894 -1449.83 539.843)
(410.193 -1399.86 539.827)
(647.074 -1307.39 539.843)
(864.233 -1175.12 539.84)
(1055.19 -1007.23 539.836)
(1214.08 -808.685 539.887)
(1336.06 -585.596 539.848)
(1417.44 -344.699 539.828)
(1455.7 -93.337 539.801)
(1449.83 160.894 539.843)
(1188.39 578.248 820.572)
(1069.97 775.887 820.602)
(918.909 949.817 820.605)
(740.077 1095.01 820.564)
(538.661 1206.86 820.592)
(320.897 1282.04 820.597)
(93.4147 1318.39 820.595)
(-136.921 1314.42 820.575)
(-363.126 1270.78 820.586)
(-578.248 1188.39 820.572)
(-775.887 1069.97 820.602)
(-949.817 918.909 820.605)
(-1095.01 740.077 820.564)
(-1206.86 538.661 820.592)
(-1282.04 320.897 820.597)
(-1318.39 93.4147 820.595)
(-1314.42 -136.921 820.574)
(-1270.78 -363.126 820.586)
(-1188.39 -578.248 820.571)
(-1069.97 -775.887 820.602)
(-918.909 -949.817 820.605)
(-740.077 -1095.01 820.564)
(-538.661 -1206.86 820.592)
(-320.897 -1282.04 820.597)
(-93.4147 -1318.39 820.595)
(136.921 -1314.42 820.575)
(363.126 -1270.78 820.586)
(578.248 -1188.39 820.572)
(775.887 -1069.97 820.602)
(949.817 -918.909 820.605)
(1095.01 -740.077 820.564)
(1206.86 -538.661 820.592)
(1282.04 -320.897 820.597)
(1318.39 -93.4147 820.595)
(1314.42 136.921 820.575)
(1270.78 363.126 820.586)
(940.423 669.997 1102.95)
(809.873 823.198 1102.98)
(654.555 951.258 1102.99)
(479.465 1050.5 1102.95)
(289.745 1117.76 1102.94)
(91.2339 1151.08 1102.97)
(-110.026 1149.48 1102.97)
(-307.959 1112.83 1102.99)
(-496.544 1042.54 1102.96)
(-669.997 940.423 1102.95)
(-823.198 809.873 1102.98)
(-951.258 654.555 1102.99)
(-1050.5 479.465 1102.95)
(-1117.76 289.745 1102.94)
(-1151.08 91.2339 1102.97)
(-1149.48 -110.026 1102.97)
(-1112.83 -307.959 1102.99)
(-1042.54 -496.544 1102.96)
(-940.423 -669.997 1102.95)
(-809.873 -823.198 1102.98)
(-654.555 -951.258 1102.99)
(-479.465 -1050.5 1102.95)
(-289.745 -1117.76 1102.94)
(-91.2339 -1151.08 1102.97)
(110.026 -1149.48 1102.97)
(307.959 -1112.83 1102.99)
(496.544 -1042.54 1102.96)
(669.997 -940.423 1102.95)
(823.198 -809.873 1102.98)
(951.258 -654.555 1102.99)
(1050.5 -479.465 1102.95)
(1117.76 -289.745 1102.94)
(1151.08 -91.2339 1102.97)
(1149.48 110.026 1102.97)
(1112.83 307.959 1102.99)
(1042.54 496.544 1102.96)
(624.169 647.36 1395.26)
(502.346 745.968 1395.24)
(365.063 821.744 1395.28)
(216.931 872.831 1395.25)
(62.0192 897.089 1395.24)
(-94.7121 894.177 1395.26)
(-248.539 864.302 1395.23)
(-394.837 807.86 1395.29)
(-529.155 727.139 1395.26)
(-647.36 624.169 1395.26)
(-745.968 502.346 1395.24)
(-821.744 365.063 1395.28)
(-872.831 216.931 1395.25)
(-897.089 62.0191 1395.24)
(-894.177 -94.7121 1395.26)
(-864.302 -248.539 1395.23)
(-807.86 -394.837 1395.29)
(-727.139 -529.155 1395.26)
(-624.169 -647.36 1395.26)
(-502.346 -745.968 1395.24)
(-365.063 -821.744 1395.28)
(-216.931 -872.831 1395.25)
(-62.0191 -897.089 1395.24)
(94.7121 -894.177 1395.26)
(248.539 -864.302 1395.23)
(394.837 -807.86 1395.29)
(529.155 -727.139 1395.26)
(647.36 -624.169 1395.26)
(745.968 -502.346 1395.24)
(821.744 -365.063 1395.28)
(872.831 -216.931 1395.25)
(897.089 -62.0191 1395.24)
(894.177 94.7121 1395.26)
(864.302 248.539 1395.23)
(807.861 394.837 1395.29)
(727.139 529.155 1395.26)
(208.032 457.516 1721.94)
(125.409 486.685 1721.99)
(38.9534 501.01 1721.99)
(-48.603 500.251 1722.01)
(-134.75 484.142 1722.01)
(-216.777 453.364 1722.01)
(-292.208 408.879 1721.98)
(-358.766 351.887 1722.02)
(-414.396 284.208 1721.98)
(-457.516 208.032 1721.94)
(-486.685 125.409 1721.99)
(-501.01 38.9533 1721.99)
(-500.251 -48.603 1722.01)
(-484.142 -134.75 1722.01)
(-453.364 -216.777 1722.01)
(-408.879 -292.208 1721.98)
(-351.887 -358.766 1722.02)
(-284.208 -414.396 1721.98)
(-208.032 -457.516 1721.94)
(-125.409 -486.685 1721.99)
(-38.9533 -501.01 1721.99)
(48.603 -500.251 1722.01)
(134.75 -484.142 1722.01)
(216.777 -453.364 1722.01)
(292.208 -408.879 1721.98)
(358.766 -351.887 1722.02)
(414.397 -284.208 1721.98)
(457.516 -208.032 1721.94)
(486.685 -125.409 1721.99)
(501.01 -38.9533 1721.99)
(500.251 48.603 1722.01)
(484.142 134.75 1722.01)
(453.364 216.777 1722.01)
(408.879 292.208 1721.98)
(351.887 358.766 1722.02)
(284.208 414.397 1721.98)
(-327.107 24.2003 2130.71)
(-326.311 -32.9459 2130.7)
(-315.638 -89.1192 2130.7)
(-295.371 -142.585 2130.7)
(-266.124 -191.712 2130.7)
(-228.79 -235.018 2130.7)
(-184.504 -271.203 2130.7)
(-134.616 -299.088 2130.72)
(-80.6556 -317.881 2130.72)
(-24.2 -327.108 2130.71)
(32.9462 -326.311 2130.7)
(89.1195 -315.638 2130.7)
(142.585 -295.371 2130.7)
(191.713 -266.124 2130.7)
(235.018 -228.79 2130.7)
(271.203 -184.504 2130.7)
(299.088 -134.616 2130.72)
(317.881 -80.6555 2130.72)
(327.108 -24.2001 2130.71)
(326.311 32.9461 2130.7)
(315.638 89.1194 2130.7)
(295.371 142.585 2130.7)
(266.124 191.712 2130.7)
(228.79 235.018 2130.7)
(184.504 271.203 2130.7)
(134.616 299.088 2130.72)
(80.6557 317.881 2130.72)
(24.2002 327.108 2130.71)
(-32.946 326.311 2130.7)
(-89.1194 315.638 2130.7)
(-142.585 295.371 2130.7)
(-191.713 266.124 2130.7)
(-235.018 228.79 2130.7)
(-271.203 184.504 2130.7)
(-299.088 134.616 2130.72)
(-317.881 80.6557 2130.72)
(-936.276 -725.608 2699.42)
(-796.099 -877.222 2699.42)
(-631.654 -1002.1 2699.41)
(-448.02 -1096.5 2699.41)
(-250.819 -1157.68 2699.41)
(-45.9808 -1183.68 2699.43)
(160.261 -1173.68 2699.42)
(361.615 -1127.96 2699.38)
(552.005 -1048.06 2699.42)
(725.608 -936.276 2699.42)
(877.223 -796.099 2699.42)
(1002.1 -631.654 2699.41)
(1096.5 -448.02 2699.41)
(1157.68 -250.819 2699.41)
(1183.68 -45.9807 2699.43)
(1173.68 160.261 2699.42)
(1127.96 361.615 2699.38)
(1048.06 552.005 2699.42)
(936.276 725.608 2699.42)
(796.099 877.223 2699.42)
(631.654 1002.1 2699.41)
(448.02 1096.5 2699.41)
(250.819 1157.68 2699.41)
(45.9808 1183.68 2699.43)
(-160.261 1173.68 2699.42)
(-361.615 1127.96 2699.38)
(-552.005 1048.06 2699.42)
(-725.608 936.276 2699.42)
(-877.223 796.099 2699.42)
(-1002.1 631.654 2699.41)
(-1096.5 448.02 2699.41)
(-1157.68 250.819 2699.41)
(-1183.68 45.9806 2699.43)
(-1173.68 -160.261 2699.42)
(-1127.96 -361.615 2699.38)
(-1048.06 -552.005 2699.42)
(-1407.51 -1725.9 3507.06)
(-1086.48 -1944.16 3507.06)
(-732.366 -2103.24 3507.05)
(-355.987 -2198.41 3507.03)
(31.1628 -2226.83 3507.04)
(417.376 -2187.62 3507.05)
(790.912 -2081.86 3507.03)
(1140.41 -1912.95 3507.03)
(1455.28 -1685.86 3507.07)
(1725.91 -1407.51 3507.06)
(1944.16 -1086.48 3507.06)
(2103.24 -732.366 3507.05)
(2198.41 -355.986 3507.03)
(2226.83 31.1631 3507.04)
(2187.62 417.376 3507.05)
(2081.86 790.912 3507.03)
(1912.95 1140.41 3507.03)
(1685.86 1455.28 3507.06)
(1407.51 1725.9 3507.06)
(1086.48 1944.16 3507.06)
(732.366 2103.24 3507.05)
(355.986 2198.41 3507.03)
(-31.1629 2226.83 3507.04)
(-417.376 2187.62 3507.05)
(-790.912 2081.86 3507.03)
(-1140.41 1912.95 3507.03)
(-1455.28 1685.86 3507.07)
(-1725.9 1407.51 3507.06)
(-1944.16 1086.48 3507.06)
(-2103.24 732.366 3507.05)
(-2198.41 355.986 3507.03)
(-2226.83 -31.1632 3507.04)
(-2187.62 -417.376 3507.05)
(-2081.86 -790.912 3507.03)
(-1912.95 -1140.41 3507.03)
(-1685.86 -1455.28 3507.06)
(-1292.4 -2497.7 4474.43)
(-839.082 -2684.17 4474.44)
(-360.171 -2788.99 4474.42)
(129.574 -2809.26 4474.43)
(615.422 -2744 4474.41)
(1082.55 -2595.45 4474.4)
(1516.81 -2368 4474.42)
(1904.99 -2068.68 4474.39)
(2235.32 -1706.55 4474.47)
(2497.7 -1292.4 4474.43)
(2684.17 -839.082 4474.44)
(2788.99 -360.171 4474.42)
(2809.26 129.574 4474.43)
(2744 615.422 4474.41)
(2595.45 1082.55 4474.4)
(2368 1516.81 4474.42)
(2068.68 1904.99 4474.39)
(1706.55 2235.32 4474.47)
(1292.4 2497.7 4474.43)
(839.082 2684.17 4474.44)
(360.171 2788.99 4474.42)
(-129.574 2809.26 4474.43)
(-615.422 2744 4474.41)
(-1082.55 2595.45 4474.4)
(-1516.81 2368 4474.42)
(-1904.99 2068.68 4474.39)
(-2235.32 1706.55 4474.47)
(-2497.7 1292.4 4474.43)
(-2684.17 839.082 4474.44)
(-2788.99 360.171 4474.42)
(-2809.26 -129.574 4474.43)
(-2744 -615.422 4474.41)
(-2595.45 -1082.55 4474.4)
(-2368 -1516.81 4474.42)