/*--------------------------------*- C++ -*----------------------------------*\
| =========                 |                                                 |
| \\      /  F ield         | OpenFOAM: The Open Source CFD Toolbox           |
|  \\    /   O peration     | Version:  2312                                  |
|   \\  /    A nd           | Website:  www.openfoam.com                      |
|    \\/     M anipulation  |                                                 |
\*---------------------------------------------------------------------------*/
FoamFile
{
    version     2.0;
    format      ascii;
    arch        "LSB;label=32;scalar=64";
    class       volVectorField;
    location    "0.2";
    object      U;
}
// * * * * * * * * * * * * * * * * * * * * * * * * * * * * * * * * * * * * * //

dimensions      [0 1 -1 0 0 0 0];

internalField   nonuniform List<vector> 
1620
(
(-0.000463725 0.000271451 -0.000213304)
(-0.000503817 0.000186801 -0.000213304)
(-0.000528601 9.64766e-05 -0.000213304)
(-0.000537324 3.22135e-06 -0.000213304)
(-0.00052972 -9.01321e-05 -0.000213304)
(-0.000506021 -0.000180748 -0.000213304)
(-0.000466947 -0.000265872 -0.000213303)
(-0.000413685 -0.000342917 -0.000213303)
(-0.000347853 -0.000409543 -0.000213304)
(-0.000271451 -0.000463726 -0.000213304)
(-0.000186801 -0.000503817 -0.000213304)
(-9.64764e-05 -0.000528601 -0.000213304)
(-3.22122e-06 -0.000537324 -0.000213304)
(9.01322e-05 -0.00052972 -0.000213304)
(0.000180748 -0.000506021 -0.000213304)
(0.000265872 -0.000466947 -0.000213303)
(0.000342917 -0.000413685 -0.000213303)
(0.000409544 -0.000347853 -0.000213304)
(0.000463726 -0.000271451 -0.000213304)
(0.000503817 -0.000186801 -0.000213304)
(0.000528601 -9.64765e-05 -0.000213304)
(0.000537324 -3.22133e-06 -0.000213304)
(0.00052972 9.01321e-05 -0.000213304)
(0.000506021 0.000180748 -0.000213304)
(0.000466947 0.000265872 -0.000213303)
(0.000413685 0.000342917 -0.000213303)
(0.000347853 0.000409543 -0.000213304)
(0.000271451 0.000463726 -0.000213304)
(0.000186802 0.000503817 -0.000213304)
(9.64767e-05 0.000528601 -0.000213304)
(3.22148e-06 0.000537324 -0.000213304)
(-9.01319e-05 0.00052972 -0.000213304)
(-0.000180748 0.000506021 -0.000213304)
(-0.000265872 0.000466947 -0.000213303)
(-0.000342917 0.000413685 -0.000213303)
(-0.000409543 0.000347853 -0.000213304)
(-0.000320738 0.000422937 -0.000142341)
(-0.000389307 0.000360816 -0.000142341)
(-0.000446047 0.000287731 -0.000142341)
(-0.000489235 0.000205905 -0.000142341)
(-0.000517559 0.000117822 -0.000142341)
(-0.000530155 2.61592e-05 -0.000142341)
(-0.000526643 -6.62985e-05 -0.000142341)
(-0.00050713 -0.000156742 -0.000142341)
(-0.000472207 -0.000242423 -0.000142341)
(-0.000422937 -0.000320738 -0.000142341)
(-0.000360816 -0.000389307 -0.000142341)
(-0.000287731 -0.000446048 -0.000142341)
(-0.000205905 -0.000489235 -0.000142341)
(-0.000117822 -0.000517559 -0.000142341)
(-2.61591e-05 -0.000530155 -0.000142341)
(6.62986e-05 -0.000526643 -0.000142341)
(0.000156742 -0.00050713 -0.000142341)
(0.000242423 -0.000472207 -0.000142341)
(0.000320738 -0.000422937 -0.000142341)
(0.000389307 -0.000360816 -0.000142341)
(0.000446048 -0.000287731 -0.000142341)
(0.000489235 -0.000205905 -0.000142341)
(0.000517559 -0.000117822 -0.000142341)
(0.000530155 -2.61592e-05 -0.000142341)
(0.000526643 6.62985e-05 -0.000142341)
(0.00050713 0.000156742 -0.000142341)
(0.000472207 0.000242423 -0.000142341)
(0.000422937 0.000320738 -0.000142341)
(0.000360816 0.000389307 -0.000142341)
(0.000287731 0.000446048 -0.000142341)
(0.000205905 0.000489235 -0.000142341)
(0.000117823 0.000517559 -0.000142341)
(2.61593e-05 0.000530155 -0.000142341)
(-6.62984e-05 0.000526643 -0.000142341)
(-0.000156742 0.00050713 -0.000142341)
(-0.000242423 0.000472207 -0.000142341)
(-0.000238667 0.000569866 -7.10433e-05)
(-0.000333997 0.000519765 -7.10434e-05)
(-0.00041918 0.000453871 -7.10437e-05)
(-0.000491625 0.000374185 -7.10434e-05)
(-0.000549134 0.000283131 -7.10437e-05)
(-0.000589955 0.000183474 -7.10434e-05)
(-0.000612853 7.82412e-05 -7.10437e-05)
(-0.000617129 -2.93683e-05 -7.10438e-05)
(-0.000602652 -0.000136085 -7.10435e-05)
(-0.000569866 -0.000238667 -7.10434e-05)
(-0.000519764 -0.000333998 -7.10434e-05)
(-0.000453871 -0.00041918 -7.10438e-05)
(-0.000374185 -0.000491625 -7.10435e-05)
(-0.000283131 -0.000549134 -7.10438e-05)
(-0.000183474 -0.000589955 -7.10435e-05)
(-7.82411e-05 -0.000612853 -7.10437e-05)
(2.93684e-05 -0.000617129 -7.10438e-05)
(0.000136085 -0.000602653 -7.10435e-05)
(0.000238667 -0.000569866 -7.10434e-05)
(0.000333998 -0.000519764 -7.10434e-05)
(0.00041918 -0.000453871 -7.10438e-05)
(0.000491625 -0.000374185 -7.10435e-05)
(0.000549134 -0.000283131 -7.10437e-05)
(0.000589955 -0.000183474 -7.10434e-05)
(0.000612853 -7.82411e-05 -7.10437e-05)
(0.000617129 2.93683e-05 -7.10438e-05)
(0.000602653 0.000136085 -7.10435e-05)
(0.000569866 0.000238667 -7.10434e-05)
(0.000519765 0.000333998 -7.10434e-05)
(0.000453871 0.00041918 -7.10437e-05)
(0.000374185 0.000491625 -7.10434e-05)
(0.000283131 0.000549134 -7.10437e-05)
(0.000183474 0.000589955 -7.10434e-05)
(7.82412e-05 0.000612853 -7.10437e-05)
(-2.93682e-05 0.000617129 -7.10438e-05)
(-0.000136085 0.000602653 -7.10434e-05)
(-0.00107696 0.000848754 -0.000737004)
(-0.00120798 0.000648847 -0.000737006)
(-0.0013023 0.000429225 -0.000737006)
(-0.00135705 0.000196562 -0.000737003)
(-0.00137057 -4.20723e-05 -0.000737002)
(-0.00134244 -0.00027943 -0.000737003)
(-0.00127352 -0.000508298 -0.000737004)
(-0.00116591 -0.000721721 -0.000737004)
(-0.00102287 -0.000913215 -0.000737004)
(-0.000848753 -0.00107696 -0.000737005)
(-0.000648846 -0.00120798 -0.000737006)
(-0.000429224 -0.0013023 -0.000737006)
(-0.000196562 -0.00135705 -0.000737003)
(4.20727e-05 -0.00137057 -0.000737003)
(0.00027943 -0.00134244 -0.000737004)
(0.000508298 -0.00127353 -0.000737004)
(0.000721721 -0.00116591 -0.000737004)
(0.000913216 -0.00102287 -0.000737004)
(0.00107696 -0.000848754 -0.000737005)
(0.00120799 -0.000648847 -0.000737006)
(0.0013023 -0.000429225 -0.000737006)
(0.00135705 -0.000196562 -0.000737003)
(0.00137057 4.20723e-05 -0.000737002)
(0.00134244 0.00027943 -0.000737003)
(0.00127353 0.000508298 -0.000737004)
(0.00116591 0.000721721 -0.000737004)
(0.00102287 0.000913215 -0.000737004)
(0.000848754 0.00107696 -0.000737004)
(0.000648847 0.00120798 -0.000737006)
(0.000429225 0.0013023 -0.000737006)
(0.000196562 0.00135705 -0.000737003)
(-4.20719e-05 0.00137057 -0.000737002)
(-0.00027943 0.00134244 -0.000737003)
(-0.000508298 0.00127353 -0.000737004)
(-0.000721721 0.00116591 -0.000737004)
(-0.000913215 0.00102287 -0.000737004)
(-0.000973627 0.00125817 -0.000527559)
(-0.00117731 0.00106999 -0.00052756)
(-0.00134523 0.000849292 -0.00052756)
(-0.00147227 0.000602794 -0.00052756)
(-0.00155458 0.00033798 -0.000527559)
(-0.00158965 6.28944e-05 -0.00052756)
(-0.00157642 -0.000214101 -0.00052756)
(-0.00151529 -0.000484591 -0.000527559)
(-0.00140812 -0.000740357 -0.000527559)
(-0.00125817 -0.000973627 -0.00052756)
(-0.00106998 -0.00117731 -0.00052756)
(-0.000849291 -0.00134523 -0.00052756)
(-0.000602794 -0.00147227 -0.00052756)
(-0.000337979 -0.00155458 -0.000527559)
(-6.28941e-05 -0.00158965 -0.00052756)
(0.000214101 -0.00157642 -0.00052756)
(0.000484591 -0.00151529 -0.000527559)
(0.000740357 -0.00140812 -0.000527559)
(0.000973627 -0.00125817 -0.00052756)
(0.00117731 -0.00106999 -0.00052756)
(0.00134523 -0.000849292 -0.00052756)
(0.00147227 -0.000602794 -0.00052756)
(0.00155458 -0.00033798 -0.000527559)
(0.00158965 -6.28944e-05 -0.00052756)
(0.00157642 0.000214101 -0.000527559)
(0.00151529 0.000484591 -0.000527559)
(0.00140812 0.000740357 -0.000527559)
(0.00125817 0.000973627 -0.000527559)
(0.00106999 0.00117731 -0.00052756)
(0.000849292 0.00134523 -0.00052756)
(0.000602794 0.00147227 -0.00052756)
(0.00033798 0.00155458 -0.000527559)
(6.28948e-05 0.00158965 -0.000527559)
(-0.0002141 0.00157642 -0.000527559)
(-0.00048459 0.00151529 -0.000527559)
(-0.000740356 0.00140812 -0.000527559)
(-0.000944751 0.00165536 -0.000321421)
(-0.00121785 0.00146616 -0.00032142)
(-0.00145394 0.00123241 -0.000321421)
(-0.00164586 0.000961209 -0.000321421)
(-0.00178776 0.000660806 -0.000321421)
(-0.00187535 0.000340325 -0.000321421)
(-0.00190596 9.50216e-06 -0.000321421)
(-0.00187865 -0.000321608 -0.000321421)
(-0.00179427 -0.000642947 -0.000321421)
(-0.00165536 -0.000944751 -0.000321421)
(-0.00146616 -0.00121785 -0.000321421)
(-0.00123241 -0.00145394 -0.000321421)
(-0.000961209 -0.00164586 -0.000321421)
(-0.000660806 -0.00178776 -0.000321421)
(-0.000340324 -0.00187535 -0.000321421)
(-9.5019e-06 -0.00190596 -0.000321421)
(0.000321608 -0.00187865 -0.000321421)
(0.000642948 -0.00179427 -0.000321421)
(0.000944751 -0.00165536 -0.000321421)
(0.00121785 -0.00146616 -0.000321421)
(0.00145394 -0.00123241 -0.000321421)
(0.00164586 -0.000961209 -0.000321421)
(0.00178776 -0.000660806 -0.000321421)
(0.00187535 -0.000340325 -0.000321421)
(0.00190596 -9.50213e-06 -0.000321421)
(0.00187865 0.000321608 -0.000321421)
(0.00179427 0.000642947 -0.000321421)
(0.00165536 0.000944751 -0.000321421)
(0.00146616 0.00121785 -0.00032142)
(0.00123241 0.00145394 -0.000321421)
(0.00096121 0.00164586 -0.000321421)
(0.000660807 0.00178776 -0.000321421)
(0.000340325 0.00187535 -0.000321421)
(9.50244e-06 0.00190596 -0.000321421)
(-0.000321608 0.00187865 -0.000321421)
(-0.000642947 0.00179427 -0.000321421)
(-0.00166057 0.00145127 -0.00142808)
(-0.00188735 0.00114087 -0.00142808)
(-0.00205679 0.000795799 -0.00142808)
(-0.00216373 0.000426552 -0.00142808)
(-0.00220493 4.43455e-05 -0.00142808)
(-0.00217913 -0.00033921 -0.00142808)
(-0.00208712 -0.00071246 -0.00142808)
(-0.0019317 -0.00106406 -0.00142808)
(-0.00171758 -0.00138333 -0.00142808)
(-0.00145127 -0.00166057 -0.00142808)
(-0.00114087 -0.00188735 -0.00142808)
(-0.000795798 -0.00205679 -0.00142808)
(-0.000426551 -0.00216373 -0.00142808)
(-4.43449e-05 -0.00220493 -0.00142808)
(0.00033921 -0.00217913 -0.00142808)
(0.000712461 -0.00208712 -0.00142808)
(0.00106406 -0.0019317 -0.00142808)
(0.00138333 -0.00171758 -0.00142808)
(0.00166057 -0.00145127 -0.00142808)
(0.00188735 -0.00114087 -0.00142808)
(0.00205679 -0.000795799 -0.00142808)
(0.00216373 -0.000426552 -0.00142808)
(0.00220493 -4.43454e-05 -0.00142808)
(0.00217913 0.00033921 -0.00142808)
(0.00208712 0.00071246 -0.00142808)
(0.0019317 0.00106406 -0.00142808)
(0.00171758 0.00138333 -0.00142808)
(0.00145127 0.00166057 -0.00142808)
(0.00114087 0.00188735 -0.00142808)
(0.000795799 0.00205679 -0.00142808)
(0.000426553 0.00216373 -0.00142808)
(4.43461e-05 0.00220493 -0.00142808)
(-0.000339209 0.00217913 -0.00142808)
(-0.000712459 0.00208712 -0.00142808)
(-0.00106406 0.0019317 -0.00142808)
(-0.00138333 0.00171758 -0.00142808)
(-0.00161466 0.00208498 -0.00109813)
(-0.00195219 0.00177293 -0.00109813)
(-0.00223039 0.001407 -0.00109813)
(-0.00244083 0.000998319 -0.00109813)
(-0.0025771 0.000559308 -0.00109813)
(-0.00263507 0.0001033 -0.00109813)
(-0.00261298 -0.000355846 -0.00109813)
(-0.00251149 -0.00080418 -0.00109813)
(-0.00233369 -0.00122808 -0.00109813)
(-0.00208498 -0.00161466 -0.00109813)
(-0.00177293 -0.00195219 -0.00109813)
(-0.001407 -0.00223039 -0.00109813)
(-0.000998319 -0.00244083 -0.00109813)
(-0.000559308 -0.0025771 -0.00109813)
(-0.0001033 -0.00263507 -0.00109813)
(0.000355846 -0.00261298 -0.00109813)
(0.00080418 -0.00251149 -0.00109813)
(0.00122808 -0.00233369 -0.00109813)
(0.00161466 -0.00208498 -0.00109813)
(0.00195219 -0.00177293 -0.00109813)
(0.00223039 -0.001407 -0.00109813)
(0.00244083 -0.000998319 -0.00109813)
(0.0025771 -0.000559308 -0.00109813)
(0.00263507 -0.0001033 -0.00109813)
(0.00261298 0.000355846 -0.00109813)
(0.00251149 0.00080418 -0.00109813)
(0.00233369 0.00122808 -0.00109813)
(0.00208498 0.00161466 -0.00109813)
(0.00177293 0.00195219 -0.00109813)
(0.001407 0.00223039 -0.00109813)
(0.00099832 0.00244083 -0.00109813)
(0.000559309 0.0025771 -0.00109813)
(0.000103301 0.00263507 -0.00109813)
(-0.000355845 0.00261298 -0.00109813)
(-0.000804179 0.00251149 -0.00109813)
(-0.00122808 0.00233369 -0.00109813)
(-0.00165148 0.00268958 -0.000776134)
(-0.00209343 0.00236194 -0.000776134)
(-0.00247178 0.00196254 -0.000776134)
(-0.00277501 0.0015035 -0.000776135)
(-0.00299394 0.000998785 -0.000776135)
(-0.00312189 0.000463718 -0.000776135)
(-0.00315498 -8.54378e-05 -0.000776135)
(-0.00309222 -0.000631997 -0.000776134)
(-0.00293549 -0.00115935 -0.000776134)
(-0.00268958 -0.00165148 -0.000776134)
(-0.00236194 -0.00209343 -0.000776134)
(-0.00196254 -0.00247178 -0.000776135)
(-0.0015035 -0.00277501 -0.000776135)
(-0.000998784 -0.00299394 -0.000776135)
(-0.000463717 -0.00312189 -0.000776135)
(8.54383e-05 -0.00315498 -0.000776135)
(0.000631997 -0.00309222 -0.000776135)
(0.00115935 -0.00293549 -0.000776135)
(0.00165148 -0.00268958 -0.000776134)
(0.00209343 -0.00236194 -0.000776134)
(0.00247178 -0.00196254 -0.000776134)
(0.00277502 -0.0015035 -0.000776135)
(0.00299394 -0.000998785 -0.000776135)
(0.00312189 -0.000463718 -0.000776135)
(0.00315498 8.54378e-05 -0.000776135)
(0.00309222 0.000631997 -0.000776134)
(0.00293549 0.00115935 -0.000776134)
(0.00268958 0.00165148 -0.000776134)
(0.00236194 0.00209343 -0.000776134)
(0.00196254 0.00247178 -0.000776134)
(0.0015035 0.00277501 -0.000776135)
(0.000998785 0.00299394 -0.000776135)
(0.000463718 0.00312189 -0.000776135)
(-8.54373e-05 0.00315498 -0.000776134)
(-0.000631996 0.00309222 -0.000776134)
(-0.00115935 0.00293549 -0.000776134)
(-0.0022095 0.00208676 -0.00225477)
(-0.0025383 0.00167138 -0.00225478)
(-0.00278997 0.00120522 -0.00225478)
(-0.00295687 0.000702434 -0.00225478)
(-0.00303392 0.000178309 -0.00225477)
(-0.00301879 -0.000351235 -0.00225477)
(-0.00291194 -0.000870108 -0.00225477)
(-0.0027166 -0.00136254 -0.00225477)
(-0.00243873 -0.00181358 -0.00225477)
(-0.00208676 -0.00220951 -0.00225477)
(-0.00167138 -0.0025383 -0.00225478)
(-0.00120521 -0.00278997 -0.00225478)
(-0.000702433 -0.00295687 -0.00225478)
(-0.000178308 -0.00303392 -0.00225477)
(0.000351236 -0.00301879 -0.00225477)
(0.000870108 -0.00291194 -0.00225477)
(0.00136254 -0.00271661 -0.00225477)
(0.00181358 -0.00243873 -0.00225477)
(0.00220951 -0.00208676 -0.00225477)
(0.0025383 -0.00167138 -0.00225478)
(0.00278997 -0.00120522 -0.00225478)
(0.00295687 -0.000702434 -0.00225478)
(0.00303392 -0.000178309 -0.00225477)
(0.00301879 0.000351235 -0.00225477)
(0.00291194 0.000870108 -0.00225477)
(0.00271661 0.00136254 -0.00225477)
(0.00243873 0.00181358 -0.00225477)
(0.00208676 0.0022095 -0.00225477)
(0.00167138 0.0025383 -0.00225478)
(0.00120522 0.00278997 -0.00225477)
(0.000702435 0.00295687 -0.00225477)
(0.000178309 0.00303392 -0.00225477)
(-0.000351234 0.00301879 -0.00225477)
(-0.000870107 0.00291194 -0.00225477)
(-0.00136254 0.00271661 -0.00225477)
(-0.00181357 0.00243873 -0.00225477)
(-0.00223981 0.00287768 -0.00182634)
(-0.00270548 0.00244502 -0.00182634)
(-0.00308895 0.00193807 -0.00182634)
(-0.00337857 0.00137224 -0.00182634)
(-0.00356552 0.000764708 -0.00182634)
(-0.00364415 0.000133944 -0.00182634)
(-0.00361204 -0.000500891 -0.00182634)
(-0.00347019 -0.00112051 -0.00182634)
(-0.0032229 -0.00170608 -0.00182634)
(-0.00287768 -0.00223981 -0.00182634)
(-0.00244502 -0.00270548 -0.00182634)
(-0.00193807 -0.00308895 -0.00182634)
(-0.00137224 -0.00337857 -0.00182634)
(-0.000764707 -0.00356553 -0.00182634)
(-0.000133943 -0.00364415 -0.00182634)
(0.000500892 -0.00361204 -0.00182634)
(0.00112051 -0.00347019 -0.00182634)
(0.00170608 -0.0032229 -0.00182634)
(0.00223981 -0.00287768 -0.00182634)
(0.00270548 -0.00244502 -0.00182634)
(0.00308896 -0.00193807 -0.00182634)
(0.00337857 -0.00137224 -0.00182634)
(0.00356553 -0.000764708 -0.00182634)
(0.00364415 -0.000133944 -0.00182634)
(0.00361204 0.000500891 -0.00182633)
(0.00347019 0.00112051 -0.00182633)
(0.0032229 0.00170608 -0.00182634)
(0.00287768 0.00223981 -0.00182634)
(0.00244502 0.00270548 -0.00182634)
(0.00193807 0.00308895 -0.00182634)
(0.00137224 0.00337857 -0.00182634)
(0.000764709 0.00356553 -0.00182634)
(0.000133944 0.00364415 -0.00182633)
(-0.00050089 0.00361204 -0.00182633)
(-0.00112051 0.00347019 -0.00182633)
(-0.00170608 0.0032229 -0.00182634)
(-0.00235944 0.00361884 -0.00141139)
(-0.002952 0.00315415 -0.00141139)
(-0.00345486 0.00259362 -0.00141139)
(-0.00385275 0.00195429 -0.00141139)
(-0.00413358 0.00125558 -0.00141139)
(-0.00428881 0.000518714 -0.00141139)
(-0.00431373 -0.000233912 -0.00141139)
(-0.00420757 -0.00097943 -0.00141139)
(-0.00397358 -0.00169519 -0.00141139)
(-0.00361884 -0.00235944 -0.00141139)
(-0.00315415 -0.002952 -0.00141139)
(-0.00259362 -0.00345486 -0.00141139)
(-0.00195429 -0.00385275 -0.00141139)
(-0.00125558 -0.00413358 -0.00141139)
(-0.000518714 -0.00428881 -0.00141139)
(0.000233913 -0.00431373 -0.00141139)
(0.00097943 -0.00420757 -0.00141139)
(0.00169519 -0.00397358 -0.00141139)
(0.00235944 -0.00361884 -0.00141139)
(0.002952 -0.00315415 -0.00141139)
(0.00345486 -0.00259362 -0.00141139)
(0.00385276 -0.00195429 -0.00141139)
(0.00413358 -0.00125558 -0.00141139)
(0.00428881 -0.000518714 -0.00141139)
(0.00431373 0.000233912 -0.00141139)
(0.00420757 0.000979429 -0.00141139)
(0.00397358 0.00169519 -0.00141139)
(0.00361884 0.00235944 -0.00141139)
(0.00315415 0.002952 -0.00141139)
(0.00259363 0.00345486 -0.00141139)
(0.00195429 0.00385275 -0.00141139)
(0.00125558 0.00413358 -0.00141139)
(0.000518715 0.00428881 -0.00141139)
(-0.000233911 0.00431373 -0.00141139)
(-0.000979429 0.00420757 -0.00141139)
(-0.00169519 0.00397358 -0.00141139)
(-0.00275002 0.0027453 -0.00318809)
(-0.00318496 0.00222606 -0.00318809)
(-0.00352313 0.00163918 -0.00318809)
(-0.00375424 0.00100249 -0.00318809)
(-0.00387129 0.000335343 -0.00318809)
(-0.0038707 -0.000341994 -0.00318809)
(-0.00375251 -0.00100894 -0.00318809)
(-0.0035203 -0.00164523 -0.00318809)
(-0.00318113 -0.00223153 -0.00318809)
(-0.0027453 -0.00275003 -0.00318809)
(-0.00222606 -0.00318496 -0.00318809)
(-0.00163918 -0.00352313 -0.00318809)
(-0.00100249 -0.00375424 -0.00318809)
(-0.000335342 -0.00387129 -0.00318809)
(0.000341995 -0.0038707 -0.00318809)
(0.00100894 -0.00375251 -0.00318809)
(0.00164523 -0.0035203 -0.00318809)
(0.00223153 -0.00318113 -0.00318809)
(0.00275003 -0.0027453 -0.00318809)
(0.00318496 -0.00222606 -0.00318809)
(0.00352313 -0.00163918 -0.00318809)
(0.00375424 -0.00100249 -0.00318809)
(0.00387129 -0.000335343 -0.00318809)
(0.0038707 0.000341994 -0.00318809)
(0.00375251 0.00100894 -0.00318809)
(0.0035203 0.00164523 -0.00318809)
(0.00318113 0.00223153 -0.00318809)
(0.0027453 0.00275003 -0.00318809)
(0.00222606 0.00318496 -0.00318809)
(0.00163918 0.00352313 -0.00318809)
(0.00100249 0.00375424 -0.00318809)
(0.000335344 0.00387129 -0.00318809)
(-0.000341993 0.0038707 -0.00318809)
(-0.00100894 0.00375251 -0.00318809)
(-0.00164523 0.0035203 -0.00318809)
(-0.00223153 0.00318113 -0.00318809)
(-0.00286003 0.00361137 -0.00268796)
(-0.00344369 0.00305987 -0.00268797)
(-0.00392271 0.00241539 -0.00268796)
(-0.00428255 0.00169752 -0.00268796)
(-0.00451226 0.000928079 -0.00268796)
(-0.00460486 0.000130435 -0.00268796)
(-0.00455756 -0.000671174 -0.00268796)
(-0.00437177 -0.00145239 -0.00268796)
(-0.00405315 -0.00218947 -0.00268796)
(-0.00361137 -0.00286003 -0.00268796)
(-0.00305987 -0.00344369 -0.00268797)
(-0.00241539 -0.00392271 -0.00268797)
(-0.00169752 -0.00428255 -0.00268796)
(-0.000928078 -0.00451226 -0.00268796)
(-0.000130434 -0.00460486 -0.00268796)
(0.000671175 -0.00455756 -0.00268796)
(0.00145239 -0.00437177 -0.00268796)
(0.00218948 -0.00405315 -0.00268796)
(0.00286003 -0.00361137 -0.00268796)
(0.00344369 -0.00305987 -0.00268797)
(0.00392272 -0.00241539 -0.00268797)
(0.00428255 -0.00169752 -0.00268796)
(0.00451226 -0.000928079 -0.00268796)
(0.00460487 -0.000130435 -0.00268796)
(0.00455756 0.000671174 -0.00268796)
(0.00437177 0.00145239 -0.00268796)
(0.00405315 0.00218947 -0.00268796)
(0.00361137 0.00286003 -0.00268796)
(0.00305987 0.00344369 -0.00268796)
(0.00241539 0.00392271 -0.00268796)
(0.00169753 0.00428255 -0.00268796)
(0.00092808 0.00451226 -0.00268796)
(0.000130436 0.00460486 -0.00268796)
(-0.000671173 0.00455756 -0.00268796)
(-0.00145239 0.00437177 -0.00268796)
(-0.00218947 0.00405315 -0.00268796)
(-0.00306168 0.00440839 -0.0022063)
(-0.00378068 0.00380976 -0.0022063)
(-0.0043848 0.00309538 -0.0022063)
(-0.00485569 0.00228694 -0.0022063)
(-0.00517904 0.00140901 -0.0022063)
(-0.00534503 0.000488277 -0.0022063)
(-0.00534862 -0.000447297 -0.0022063)
(-0.00518969 -0.00136928 -0.0022063)
(-0.00487307 -0.00224966 -0.0022063)
(-0.00440839 -0.00306168 -0.0022063)
(-0.00380976 -0.00378068 -0.0022063)
(-0.00309538 -0.0043848 -0.0022063)
(-0.00228694 -0.00485569 -0.0022063)
(-0.00140901 -0.00517905 -0.0022063)
(-0.000488276 -0.00534503 -0.0022063)
(0.000447298 -0.00534862 -0.0022063)
(0.00136928 -0.00518969 -0.0022063)
(0.00224966 -0.00487307 -0.0022063)
(0.00306168 -0.00440839 -0.0022063)
(0.00378068 -0.00380976 -0.0022063)
(0.0043848 -0.00309538 -0.0022063)
(0.00485569 -0.00228694 -0.0022063)
(0.00517905 -0.00140901 -0.0022063)
(0.00534504 -0.000488277 -0.0022063)
(0.00534862 0.000447297 -0.0022063)
(0.00518969 0.00136928 -0.0022063)
(0.00487308 0.00224966 -0.0022063)
(0.00440839 0.00306168 -0.0022063)
(0.00380976 0.00378068 -0.0022063)
(0.00309538 0.0043848 -0.0022063)
(0.00228694 0.00485569 -0.0022063)
(0.00140902 0.00517905 -0.0022063)
(0.000488278 0.00534503 -0.0022063)
(-0.000447296 0.00534862 -0.0022063)
(-0.00136928 0.00518969 -0.0022063)
(-0.00224966 0.00487308 -0.0022063)
(-0.00330939 0.00339802 -0.00420113)
(-0.00384917 0.00277173 -0.00420113)
(-0.00427199 0.00206122 -0.00420113)
(-0.00456502 0.00128808 -0.00420113)
(-0.00471934 0.0004758 -0.00420113)
(-0.00473026 -0.000350933 -0.00420113)
(-0.00459746 -0.001167 -0.00420113)
(-0.00432497 -0.00194762 -0.00420113)
(-0.00392106 -0.00266905 -0.00420113)
(-0.00339802 -0.00330939 -0.00420113)
(-0.00277172 -0.00384917 -0.00420113)
(-0.00206121 -0.004272 -0.00420114)
(-0.00128808 -0.00456502 -0.00420113)
(-0.000475799 -0.00471934 -0.00420113)
(0.000350934 -0.00473026 -0.00420113)
(0.001167 -0.00459746 -0.00420113)
(0.00194762 -0.00432497 -0.00420113)
(0.00266905 -0.00392106 -0.00420113)
(0.00330939 -0.00339802 -0.00420113)
(0.00384917 -0.00277173 -0.00420113)
(0.004272 -0.00206122 -0.00420113)
(0.00456502 -0.00128808 -0.00420113)
(0.00471934 -0.0004758 -0.00420113)
(0.00473026 0.000350933 -0.00420113)
(0.00459746 0.001167 -0.00420113)
(0.00432497 0.00194762 -0.00420113)
(0.00392107 0.00266905 -0.00420113)
(0.00339802 0.00330939 -0.00420113)
(0.00277173 0.00384917 -0.00420113)
(0.00206122 0.004272 -0.00420113)
(0.00128808 0.00456502 -0.00420113)
(0.000475801 0.00471934 -0.00420113)
(-0.000350932 0.00473026 -0.00420113)
(-0.001167 0.00459746 -0.00420113)
(-0.00194761 0.00432497 -0.00420113)
(-0.00266905 0.00392107 -0.00420113)
(-0.00348764 0.00425992 -0.00365396)
(-0.00417438 0.00358957 -0.00365396)
(-0.00473429 0.00281017 -0.00365396)
(-0.00515034 0.00194537 -0.00365396)
(-0.00540991 0.00102147 -0.00365396)
(-0.0055051 6.65318e-05 -0.00365396)
(-0.00543301 -0.000890429 -0.00365396)
(-0.00519585 -0.00182034 -0.00365396)
(-0.00480082 -0.00269493 -0.00365396)
(-0.00425991 -0.00348764 -0.00365396)
(-0.00358957 -0.00417439 -0.00365396)
(-0.00281016 -0.00473429 -0.00365396)
(-0.00194537 -0.00515035 -0.00365396)
(-0.00102147 -0.00540991 -0.00365396)
(-6.65306e-05 -0.0055051 -0.00365396)
(0.00089043 -0.00543301 -0.00365396)
(0.00182034 -0.00519586 -0.00365396)
(0.00269493 -0.00480082 -0.00365396)
(0.00348764 -0.00425992 -0.00365396)
(0.00417439 -0.00358957 -0.00365396)
(0.00473429 -0.00281017 -0.00365396)
(0.00515035 -0.00194537 -0.00365396)
(0.00540991 -0.00102147 -0.00365396)
(0.0055051 -6.65318e-05 -0.00365396)
(0.00543302 0.000890429 -0.00365396)
(0.00519586 0.00182033 -0.00365396)
(0.00480082 0.00269493 -0.00365396)
(0.00425992 0.00348764 -0.00365396)
(0.00358957 0.00417439 -0.00365396)
(0.00281017 0.00473429 -0.00365396)
(0.00194537 0.00515035 -0.00365396)
(0.00102147 0.00540991 -0.00365396)
(6.6533e-05 0.0055051 -0.00365396)
(-0.000890428 0.00543301 -0.00365396)
(-0.00182033 0.00519586 -0.00365396)
(-0.00269493 0.00480082 -0.00365396)
(-0.00375384 0.00503848 -0.00312947)
(-0.00457173 0.00431008 -0.00312947)
(-0.00525071 0.00345073 -0.00312947)
(-0.00577016 0.00248653 -0.00312947)
(-0.00611428 0.00144678 -0.00312947)
(-0.00627262 0.000363066 -0.00312947)
(-0.00624037 -0.000731676 -0.00312947)
(-0.00601851 -0.00180419 -0.00312948)
(-0.00561378 -0.00282188 -0.00312947)
(-0.00503848 -0.00375384 -0.00312947)
(-0.00431008 -0.00457173 -0.00312948)
(-0.00345073 -0.00525072 -0.00312947)
(-0.00248653 -0.00577016 -0.00312947)
(-0.00144678 -0.00611428 -0.00312947)
(-0.000363065 -0.00627262 -0.00312947)
(0.000731677 -0.00624037 -0.00312947)
(0.00180419 -0.00601851 -0.00312948)
(0.00282189 -0.00561378 -0.00312947)
(0.00375384 -0.00503848 -0.00312947)
(0.00457173 -0.00431008 -0.00312948)
(0.00525072 -0.00345073 -0.00312947)
(0.00577016 -0.00248653 -0.00312947)
(0.00611428 -0.00144678 -0.00312947)
(0.00627262 -0.000363066 -0.00312947)
(0.00624037 0.000731676 -0.00312947)
(0.00601851 0.00180419 -0.00312947)
(0.00561378 0.00282188 -0.00312947)
(0.00503848 0.00375384 -0.00312947)
(0.00431009 0.00457173 -0.00312947)
(0.00345073 0.00525071 -0.00312947)
(0.00248653 0.00577016 -0.00312947)
(0.00144678 0.00611428 -0.00312947)
(0.000363067 0.00627262 -0.00312947)
(-0.000731675 0.00624037 -0.00312947)
(-0.00180419 0.00601851 -0.00312947)
(-0.00282188 0.00561378 -0.00312947)
(-0.00389891 0.00399869 -0.00526735)
(-0.00453404 0.0032609 -0.00526735)
(-0.00503141 0.00242403 -0.00526735)
(-0.0053759 0.00151351 -0.00526735)
(-0.00555705 0.000557 -0.00526735)
(-0.00556935 -0.000416434 -0.00526735)
(-0.00541242 -0.00137721 -0.00526735)
(-0.00509105 -0.00229615 -0.00526735)
(-0.00461498 -0.00314532 -0.00526735)
(-0.00399869 -0.00389891 -0.00526735)
(-0.0032609 -0.00453404 -0.00526735)
(-0.00242403 -0.00503141 -0.00526735)
(-0.00151351 -0.0053759 -0.00526735)
(-0.000556999 -0.00555705 -0.00526735)
(0.000416435 -0.00556935 -0.00526735)
(0.00137722 -0.00541243 -0.00526735)
(0.00229615 -0.00509105 -0.00526735)
(0.00314532 -0.00461498 -0.00526735)
(0.00389891 -0.00399869 -0.00526735)
(0.00453405 -0.0032609 -0.00526735)
(0.00503141 -0.00242403 -0.00526735)
(0.00537591 -0.00151351 -0.00526735)
(0.00555705 -0.000557 -0.00526735)
(0.00556935 0.000416433 -0.00526735)
(0.00541243 0.00137721 -0.00526735)
(0.00509105 0.00229615 -0.00526735)
(0.00461498 0.00314532 -0.00526735)
(0.00399869 0.00389891 -0.00526735)
(0.0032609 0.00453404 -0.00526735)
(0.00242403 0.00503141 -0.00526735)
(0.00151351 0.0053759 -0.00526735)
(0.000557001 0.00555705 -0.00526735)
(-0.000416432 0.00556935 -0.00526735)
(-0.00137721 0.00541242 -0.00526735)
(-0.00229615 0.00509105 -0.00526735)
(-0.00314532 0.00461498 -0.00526735)
(-0.00412406 0.00479252 -0.00469136)
(-0.00489362 0.00400357 -0.00469136)
(-0.00551449 0.00309298 -0.00469136)
(-0.0059678 0.00208841 -0.00469136)
(-0.00623978 0.00102039 -0.00469136)
(-0.00632218 -7.86418e-05 -0.00469136)
(-0.00621247 -0.00117528 -0.00469136)
(-0.00591401 -0.00223621 -0.00469136)
(-0.00543585 -0.0032292 -0.00469136)
(-0.00479252 -0.00412406 -0.00469136)
(-0.00400357 -0.00489362 -0.00469136)
(-0.00309298 -0.00551449 -0.00469136)
(-0.00208841 -0.0059678 -0.00469136)
(-0.00102038 -0.00623979 -0.00469136)
(7.86432e-05 -0.00632218 -0.00469136)
(0.00117528 -0.00621248 -0.00469136)
(0.00223621 -0.00591401 -0.00469136)
(0.0032292 -0.00543585 -0.00469136)
(0.00412406 -0.00479252 -0.00469136)
(0.00489362 -0.00400357 -0.00469136)
(0.00551449 -0.00309298 -0.00469136)
(0.0059678 -0.00208841 -0.00469136)
(0.00623979 -0.00102039 -0.00469136)
(0.00632218 7.86417e-05 -0.00469136)
(0.00621248 0.00117528 -0.00469136)
(0.00591401 0.00223621 -0.00469136)
(0.00543585 0.0032292 -0.00469136)
(0.00479252 0.00412406 -0.00469136)
(0.00400357 0.00489362 -0.00469136)
(0.00309298 0.00551449 -0.00469136)
(0.00208841 0.0059678 -0.00469136)
(0.00102039 0.00623979 -0.00469136)
(-7.86404e-05 0.00632218 -0.00469136)
(-0.00117528 0.00621248 -0.00469136)
(-0.00223621 0.00591401 -0.00469136)
(-0.0032292 0.00543585 -0.00469136)
(-0.00442666 0.00549782 -0.00414221)
(-0.0053141 0.00464561 -0.0041422)
(-0.00604007 0.00365225 -0.00414221)
(-0.00658251 0.00254792 -0.0041422)
(-0.00692495 0.00136617 -0.0041422)
(-0.00705697 0.00014291 -0.0041422)
(-0.00697458 -0.00108469 -0.00414221)
(-0.00668026 -0.00227934 -0.0041422)
(-0.00618297 -0.00340472 -0.00414221)
(-0.00549782 -0.00442666 -0.00414221)
(-0.00464561 -0.0053141 -0.00414221)
(-0.00365225 -0.00604007 -0.00414221)
(-0.00254792 -0.00658251 -0.00414221)
(-0.00136617 -0.00692495 -0.0041422)
(-0.000142909 -0.00705698 -0.0041422)
(0.00108469 -0.00697458 -0.00414221)
(0.00227934 -0.00668027 -0.0041422)
(0.00340473 -0.00618298 -0.00414221)
(0.00442666 -0.00549782 -0.00414221)
(0.0053141 -0.00464561 -0.0041422)
(0.00604007 -0.00365225 -0.00414221)
(0.00658251 -0.00254792 -0.0041422)
(0.00692495 -0.00136617 -0.0041422)
(0.00705698 -0.00014291 -0.0041422)
(0.00697458 0.00108469 -0.0041422)
(0.00668027 0.00227934 -0.0041422)
(0.00618298 0.00340472 -0.0041422)
(0.00549782 0.00442666 -0.0041422)
(0.00464561 0.0053141 -0.0041422)
(0.00365225 0.00604007 -0.0041422)
(0.00254792 0.00658251 -0.0041422)
(0.00136617 0.00692495 -0.0041422)
(0.000142911 0.00705698 -0.0041422)
(-0.00108469 0.00697458 -0.0041422)
(-0.00227934 0.00668027 -0.0041422)
(-0.00340472 0.00618298 -0.0041422)
(-0.00449959 0.00448967 -0.00635333)
(-0.00521085 0.00364012 -0.00635333)
(-0.00576379 0.00267996 -0.00635333)
(-0.00614159 0.00163837 -0.00635333)
(-0.00633279 0.000547001 -0.00635334)
(-0.00633156 -0.000560985 -0.00635333)
(-0.00613796 -0.00165193 -0.00635333)
(-0.00575786 -0.00269268 -0.00635333)
(-0.00520281 -0.00365161 -0.00635333)
(-0.00448967 -0.00449959 -0.00635333)
(-0.00364011 -0.00521085 -0.00635333)
(-0.00267995 -0.00576379 -0.00635333)
(-0.00163837 -0.00614159 -0.00635333)
(-0.000547 -0.00633279 -0.00635334)
(0.000560987 -0.00633157 -0.00635333)
(0.00165193 -0.00613796 -0.00635333)