/*--------------------------------*- C++ -*----------------------------------*\
| =========                 |                                                 |
| \\      /  F ield         | OpenFOAM: The Open Source CFD Toolbox           |
|  \\    /   O peration     | Version:  2312                                  |
|   \\  /    A nd           | Website:  www.openfoam.com                      |
|    \\/     M anipulation  |                                                 |
\*---------------------------------------------------------------------------*/
FoamFile
{
    version     2.0;
    format      ascii;
    arch        "LSB;label=32;scalar=64";
    class       volVectorField;
    location    "0.8";
    object      D_0_0_0;
}
// * * * * * * * * * * * * * * * * * * * * * * * * * * * * * * * * * * * * * //

dimensions      [0 1 0 0 0 0 0];

internalField   nonuniform List<vector> 
1620
(
(-0.000253026 0.000225443 -0.000129073)
(-0.000288329 0.00017808 -0.000129073)
(-0.000314872 0.000125307 -0.000129073)
(-0.000331849 6.87272e-05 -0.000129072)
(-0.000338741 1.00588e-05 -0.000129073)
(-0.000335342 -4.89161e-05 -0.000129073)
(-0.000321753 -0.000106405 -0.000129072)
(-0.000298388 -0.000160659 -0.000129072)
(-0.000265956 -0.000210034 -0.000129073)
(-0.000225443 -0.000253026 -0.000129073)
(-0.00017808 -0.000288329 -0.000129073)
(-0.000125307 -0.000314872 -0.000129073)
(-6.87272e-05 -0.000331849 -0.000129072)
(-1.00588e-05 -0.000338741 -0.000129073)
(4.89161e-05 -0.000335342 -0.000129073)
(0.000106405 -0.000321753 -0.000129072)
(0.000160659 -0.000298388 -0.000129072)
(0.000210034 -0.000265956 -0.000129073)
(0.000253026 -0.000225443 -0.000129073)
(0.000288329 -0.00017808 -0.000129073)
(0.000314872 -0.000125307 -0.000129073)
(0.000331849 -6.87272e-05 -0.000129072)
(0.000338741 -1.00588e-05 -0.000129073)
(0.000335342 4.89161e-05 -0.000129073)
(0.000321753 0.000106405 -0.000129072)
(0.000298388 0.000160659 -0.000129072)
(0.000265956 0.000210034 -0.000129073)
(0.000225443 0.000253026 -0.000129073)
(0.00017808 0.000288329 -0.000129073)
(0.000125307 0.000314872 -0.000129073)
(6.87272e-05 0.000331849 -0.000129072)
(1.00588e-05 0.000338741 -0.000129073)
(-4.8916e-05 0.000335342 -0.000129073)
(-0.000106404 0.000321753 -0.000129072)
(-0.000160659 0.000298388 -0.000129072)
(-0.000210034 0.000265956 -0.000129073)
(-0.000168372 0.000301866 -8.72648e-05)
(-0.000218232 0.000268042 -8.7265e-05)
(-0.000261462 0.000226074 -8.72649e-05)
(-0.000296747 0.000177238 -8.72647e-05)
(-0.000323016 0.000123016 -8.72648e-05)
(-0.00033947 6.50554e-05 -8.72648e-05)
(-0.000345609 5.11878e-06 -8.72647e-05)
(-0.000341248 -5.49733e-05 -8.72647e-05)
(-0.000326517 -0.000113395 -8.72648e-05)
(-0.000301866 -0.000168372 -8.72648e-05)
(-0.000268042 -0.000218232 -8.7265e-05)
(-0.000226074 -0.000261462 -8.72649e-05)
(-0.000177238 -0.000296747 -8.72647e-05)
(-0.000123016 -0.000323016 -8.72648e-05)
(-6.50554e-05 -0.00033947 -8.72648e-05)
(-5.11876e-06 -0.000345609 -8.72647e-05)
(5.49734e-05 -0.000341248 -8.72647e-05)
(0.000113395 -0.000326517 -8.72648e-05)
(0.000168372 -0.000301866 -8.72649e-05)
(0.000218232 -0.000268042 -8.7265e-05)
(0.000261462 -0.000226074 -8.72649e-05)
(0.000296747 -0.000177238 -8.72647e-05)
(0.000323016 -0.000123016 -8.72648e-05)
(0.00033947 -6.50554e-05 -8.72648e-05)
(0.000345609 -5.11875e-06 -8.72647e-05)
(0.000341248 5.49734e-05 -8.72647e-05)
(0.000326517 0.000113395 -8.72648e-05)
(0.000301866 0.000168372 -8.72648e-05)
(0.000268042 0.000218232 -8.7265e-05)
(0.000226074 0.000261462 -8.72649e-05)
(0.000177238 0.000296747 -8.72647e-05)
(0.000123016 0.000323016 -8.72648e-05)
(6.50554e-05 0.00033947 -8.72648e-05)
(5.11877e-06 0.000345609 -8.72647e-05)
(-5.49733e-05 0.000341248 -8.72647e-05)
(-0.000113395 0.000326517 -8.72648e-05)
(-0.000113639 0.000377935 -4.53634e-05)
(-0.00017754 0.000352461 -4.53634e-05)
(-0.000236047 0.000316277 -4.53636e-05)
(-0.000287382 0.000270483 -4.53634e-05)
(-0.000329985 0.000216471 -4.53636e-05)
(-0.000362561 0.00015588 -4.53634e-05)
(-0.000384122 9.05539e-05 -4.53636e-05)
(-0.000394011 2.24761e-05 -4.53637e-05)
(-0.000391927 -4.62844e-05 -4.53634e-05)
(-0.000377935 -0.000113639 -4.53634e-05)
(-0.000352461 -0.00017754 -4.53634e-05)
(-0.000316277 -0.000236047 -4.53636e-05)
(-0.000270483 -0.000287382 -4.53634e-05)
(-0.000216471 -0.000329985 -4.53636e-05)
(-0.00015588 -0.000362561 -4.53634e-05)
(-9.05539e-05 -0.000384122 -4.53636e-05)
(-2.24761e-05 -0.000394011 -4.53637e-05)
(4.62844e-05 -0.000391927 -4.53634e-05)
(0.000113639 -0.000377935 -4.53634e-05)
(0.00017754 -0.000352461 -4.53634e-05)
(0.000236047 -0.000316277 -4.53636e-05)
(0.000287382 -0.000270483 -4.53634e-05)
(0.000329985 -0.000216471 -4.53636e-05)
(0.000362561 -0.00015588 -4.53634e-05)
(0.000384122 -9.05539e-05 -4.53636e-05)
(0.000394011 -2.24761e-05 -4.53637e-05)
(0.000391927 4.62845e-05 -4.53634e-05)
(0.000377935 0.000113639 -4.53634e-05)
(0.000352461 0.00017754 -4.53634e-05)
(0.000316277 0.000236047 -4.53636e-05)
(0.000270483 0.000287382 -4.53634e-05)
(0.000216471 0.000329985 -4.53636e-05)
(0.00015588 0.000362561 -4.53634e-05)
(9.05539e-05 0.000384122 -4.53635e-05)
(2.24761e-05 0.000394011 -4.53636e-05)
(-4.62845e-05 0.000391927 -4.53634e-05)
(-0.000574048 0.000703192 -0.000432094)
(-0.000687435 0.000592826 -0.000432095)
(-0.000779935 0.000464448 -0.000432095)
(-0.000848737 0.000321959 -0.000432093)
(-0.00089175 0.000169687 -0.000432092)
(-0.000907668 1.22586e-05 -0.000432093)
(-0.000896008 -0.000145543 -0.000432093)
(-0.000857122 -0.000298922 -0.000432094)
(-0.000792191 -0.000443218 -0.000432094)
(-0.000703192 -0.000574048 -0.000432094)
(-0.000592826 -0.000687435 -0.000432095)
(-0.000464448 -0.000779935 -0.000432095)
(-0.000321959 -0.000848737 -0.000432093)
(-0.000169687 -0.00089175 -0.000432092)
(-1.22585e-05 -0.000907668 -0.000432093)
(0.000145543 -0.000896008 -0.000432093)
(0.000298922 -0.000857122 -0.000432094)
(0.000443218 -0.000792191 -0.000432094)
(0.000574048 -0.000703192 -0.000432094)
(0.000687435 -0.000592826 -0.000432095)
(0.000779935 -0.000464448 -0.000432095)
(0.000848737 -0.000321959 -0.000432093)
(0.00089175 -0.000169687 -0.000432092)
(0.000907668 -1.22585e-05 -0.000432093)
(0.000896008 0.000145543 -0.000432093)
(0.000857122 0.000298922 -0.000432094)
(0.000792192 0.000443218 -0.000432094)
(0.000703192 0.000574048 -0.000432094)
(0.000592826 0.000687435 -0.000432095)
(0.000464448 0.000779935 -0.000432095)
(0.000321959 0.000848737 -0.000432093)
(0.000169687 0.00089175 -0.000432092)
(1.22586e-05 0.000907668 -0.000432093)
(-0.000145543 0.000896008 -0.000432093)
(-0.000298922 0.000857122 -0.000432094)
(-0.000443218 0.000792192 -0.000432094)
(-0.000508096 0.000900174 -0.000314012)
(-0.00065669 0.000798268 -0.000314012)
(-0.000785331 0.000672108 -0.000314013)
(-0.000890111 0.000525527 -0.000314012)
(-0.000967845 0.000362977 -0.000314012)
(-0.00101617 0.000189397 -0.000314012)
(-0.00103362 1.00637e-05 -0.000314012)
(-0.00101967 -0.000169576 -0.000314012)
(-0.000974729 -0.000344063 -0.000314012)
(-0.000900174 -0.000508096 -0.000314012)
(-0.000798268 -0.00065669 -0.000314013)
(-0.000672108 -0.000785331 -0.000314013)
(-0.000525527 -0.000890111 -0.000314012)
(-0.000362977 -0.000967845 -0.000314012)
(-0.000189397 -0.00101617 -0.000314012)
(-1.00637e-05 -0.00103362 -0.000314012)
(0.000169576 -0.00101967 -0.000314012)
(0.000344063 -0.000974729 -0.000314012)
(0.000508096 -0.000900174 -0.000314012)
(0.00065669 -0.000798268 -0.000314013)
(0.000785331 -0.000672108 -0.000314013)
(0.000890111 -0.000525527 -0.000314012)
(0.000967845 -0.000362977 -0.000314012)
(0.00101617 -0.000189397 -0.000314012)
(0.00103362 -1.00637e-05 -0.000314012)
(0.00101967 0.000169576 -0.000314012)
(0.000974729 0.000344063 -0.000314012)
(0.000900174 0.000508096 -0.000314012)
(0.000798268 0.00065669 -0.000314012)
(0.000672108 0.000785331 -0.000314013)
(0.000525527 0.000890111 -0.000314012)
(0.000362977 0.000967845 -0.000314012)
(0.000189397 0.00101617 -0.000314012)
(1.00637e-05 0.00103362 -0.000314012)
(-0.000169576 0.00101967 -0.000314012)
(-0.000344063 0.000974729 -0.000314012)
(-0.000482037 0.00109367 -0.000198098)
(-0.000664627 0.000993352 -0.000198097)
(-0.000827023 0.000862849 -0.000198097)
(-0.00096429 0.00070613 -0.000198097)
(-0.00107226 0.000527955 -0.000198097)
(-0.00114765 0.000333738 -0.000198097)
(-0.00118817 0.00012938 -0.000198098)
(-0.00119258 -7.89079e-05 -0.000198097)
(-0.00116076 -0.000284799 -0.000198098)
(-0.00109367 -0.000482037 -0.000198098)
(-0.000993352 -0.000664627 -0.000198097)
(-0.000862849 -0.000827023 -0.000198097)
(-0.00070613 -0.00096429 -0.000198097)
(-0.000527955 -0.00107226 -0.000198097)
(-0.000333738 -0.00114765 -0.000198097)
(-0.00012938 -0.00118817 -0.000198098)
(7.8908e-05 -0.00119258 -0.000198098)
(0.000284799 -0.00116076 -0.000198098)
(0.000482037 -0.00109367 -0.000198098)
(0.000664627 -0.000993352 -0.000198097)
(0.000827023 -0.000862849 -0.000198097)
(0.00096429 -0.00070613 -0.000198097)
(0.00107226 -0.000527955 -0.000198097)
(0.00114765 -0.000333738 -0.000198097)
(0.00118817 -0.00012938 -0.000198098)
(0.00119258 7.8908e-05 -0.000198097)
(0.00116076 0.000284799 -0.000198098)
(0.00109367 0.000482037 -0.000198098)
(0.000993352 0.000664627 -0.000198097)
(0.000862849 0.000827023 -0.000198097)
(0.00070613 0.00096429 -0.000198097)
(0.000527955 0.00107226 -0.000198097)
(0.000333738 0.00114765 -0.000198097)
(0.00012938 0.00118817 -0.000198097)
(-7.8908e-05 0.00119258 -0.000198097)
(-0.000284799 0.00116076 -0.000198098)
(-0.000876853 0.00121953 -0.000806165)
(-0.0010753 0.00104874 -0.000806165)
(-0.00124108 0.000846082 -0.000806165)
(-0.00136914 0.000617718 -0.000806163)
(-0.00145561 0.000370586 -0.000806162)
(-0.00149785 0.000112192 -0.000806162)
(-0.00149457 -0.000149611 -0.000806162)
(-0.00144589 -0.000406868 -0.000806163)
(-0.00135327 -0.000651762 -0.000806164)
(-0.00121953 -0.000876853 -0.000806165)
(-0.00104874 -0.0010753 -0.000806165)
(-0.000846082 -0.00124108 -0.000806165)
(-0.000617718 -0.00136914 -0.000806163)
(-0.000370585 -0.00145561 -0.000806162)
(-0.000112192 -0.00149785 -0.000806162)
(0.000149611 -0.00149457 -0.000806162)
(0.000406868 -0.00144589 -0.000806163)
(0.000651762 -0.00135327 -0.000806164)
(0.000876853 -0.00121953 -0.000806165)
(0.0010753 -0.00104874 -0.000806165)
(0.00124108 -0.000846082 -0.000806165)
(0.00136914 -0.000617718 -0.000806163)
(0.00145561 -0.000370585 -0.000806162)
(0.00149785 -0.000112192 -0.000806162)
(0.00149457 0.000149611 -0.000806162)
(0.00144589 0.000406868 -0.000806163)
(0.00135327 0.000651762 -0.000806164)
(0.00121953 0.000876853 -0.000806165)
(0.00104874 0.0010753 -0.000806165)
(0.000846082 0.00124108 -0.000806164)
(0.000617718 0.00136914 -0.000806163)
(0.000370586 0.00145561 -0.000806162)
(0.000112192 0.00149785 -0.000806162)
(-0.000149611 0.00149457 -0.000806162)
(-0.000406868 0.00144589 -0.000806163)
(-0.000651762 0.00135327 -0.000806164)
(-0.000840775 0.00149853 -0.000628983)
(-0.00108822 0.00132976 -0.000628983)
(-0.0013026 0.00112059 -0.000628983)
(-0.0014774 0.000877376 -0.000628983)
(-0.00160731 0.0006075 -0.000628982)
(-0.00168838 0.000319165 -0.000628982)
(-0.00171815 2.11321e-05 -0.000628982)
(-0.00169572 -0.000277543 -0.000628983)
(-0.00162176 -0.000567785 -0.000628983)
(-0.00149853 -0.000840775 -0.000628983)
(-0.00132976 -0.00108822 -0.000628983)
(-0.00112059 -0.0013026 -0.000628983)
(-0.000877376 -0.0014774 -0.000628983)
(-0.0006075 -0.00160731 -0.000628982)
(-0.000319165 -0.00168838 -0.000628982)
(-2.1132e-05 -0.00171815 -0.000628982)
(0.000277543 -0.00169572 -0.000628983)
(0.000567785 -0.00162176 -0.000628983)
(0.000840775 -0.00149853 -0.000628983)
(0.00108822 -0.00132976 -0.000628983)
(0.0013026 -0.00112059 -0.000628983)
(0.0014774 -0.000877376 -0.000628983)
(0.00160731 -0.0006075 -0.000628982)
(0.00168838 -0.000319165 -0.000628982)
(0.00171815 -2.1132e-05 -0.000628982)
(0.00169572 0.000277543 -0.000628983)
(0.00162176 0.000567785 -0.000628983)
(0.00149853 0.000840775 -0.000628983)
(0.00132976 0.00108822 -0.000628983)
(0.00112059 0.0013026 -0.000628983)
(0.000877376 0.0014774 -0.000628983)
(0.0006075 0.00160731 -0.000628982)
(0.000319165 0.00168838 -0.000628982)
(2.11321e-05 0.00171815 -0.000628982)
(-0.000277543 0.00169572 -0.000628982)
(-0.000567785 0.00162176 -0.000628983)
(-0.000852154 0.00176265 -0.000457211)
(-0.00114529 0.00158789 -0.00045721)
(-0.00140362 0.00136489 -0.000457211)
(-0.00161931 0.00110042 -0.000457211)
(-0.0017858 0.000802514 -0.000457211)
(-0.00189802 0.000480221 -0.000457211)
(-0.00195257 0.000143338 -0.000457211)
(-0.0019478 -0.000197901 -0.000457211)
(-0.00188384 -0.000533127 -0.000457211)
(-0.00176265 -0.000852154 -0.000457211)
(-0.00158789 -0.00114529 -0.000457211)
(-0.00136489 -0.00140362 -0.000457211)
(-0.00110042 -0.00161931 -0.000457211)
(-0.000802514 -0.0017858 -0.000457211)
(-0.000480221 -0.00189802 -0.000457211)
(-0.000143338 -0.00195257 -0.000457211)
(0.000197901 -0.0019478 -0.000457211)
(0.000533127 -0.00188384 -0.000457211)
(0.000852154 -0.00176265 -0.000457211)
(0.00114529 -0.00158789 -0.000457211)
(0.00140362 -0.00136489 -0.000457211)
(0.00161931 -0.00110042 -0.000457211)
(0.0017858 -0.000802514 -0.000457211)
(0.00189802 -0.000480221 -0.000457211)
(0.00195257 -0.000143338 -0.000457211)
(0.0019478 0.000197901 -0.000457211)
(0.00188384 0.000533127 -0.000457211)
(0.00176265 0.000852154 -0.000457211)
(0.00158789 0.00114529 -0.00045721)
(0.00136489 0.00140362 -0.000457211)
(0.00110042 0.00161931 -0.000457211)
(0.000802514 0.0017858 -0.000457211)
(0.000480221 0.00189802 -0.000457211)
(0.000143338 0.00195257 -0.000457211)
(-0.000197901 0.0019478 -0.000457211)
(-0.000533127 0.00188384 -0.000457211)
(-0.00116069 0.00178525 -0.00122148)
(-0.00145307 0.00155658 -0.00122148)
(-0.00170129 0.00128061 -0.00122148)
(-0.00189782 0.000965728 -0.00122148)
(-0.00203668 0.000621504 -0.00122148)
(-0.00211366 0.000258396 -0.00122148)
(-0.00212642 -0.000112564 -0.00122148)
(-0.00207457 -0.000480104 -0.00122148)
(-0.00195968 -0.000833055 -0.00122148)
(-0.00178525 -0.00116069 -0.00122148)
(-0.00155658 -0.00145307 -0.00122148)
(-0.00128061 -0.00170129 -0.00122148)
(-0.000965728 -0.00189782 -0.00122148)
(-0.000621504 -0.00203668 -0.00122148)
(-0.000258396 -0.00211366 -0.00122148)
(0.000112564 -0.00212642 -0.00122148)
(0.000480104 -0.00207457 -0.00122148)
(0.000833055 -0.00195968 -0.00122148)
(0.00116069 -0.00178525 -0.00122148)
(0.00145307 -0.00155658 -0.00122148)
(0.00170129 -0.00128061 -0.00122148)
(0.00189782 -0.000965728 -0.00122148)
(0.00203668 -0.000621504 -0.00122148)
(0.00211366 -0.000258396 -0.00122148)
(0.00212642 0.000112564 -0.00122148)
(0.00207457 0.000480104 -0.00122148)
(0.00195968 0.000833055 -0.00122148)
(0.00178525 0.00116069 -0.00122148)
(0.00155658 0.00145307 -0.00122148)
(0.00128061 0.00170129 -0.00122148)
(0.000965728 0.00189782 -0.00122148)
(0.000621504 0.00203668 -0.00122148)
(0.000258396 0.00211366 -0.00122148)
(-0.000112564 0.00212642 -0.00122148)
(-0.000480104 0.00207457 -0.00122148)
(-0.000833055 0.00195968 -0.00122148)
(-0.00116069 0.00208912 -0.00100364)
(-0.00150583 0.00185583 -0.00100364)
(-0.00180521 0.00156615 -0.00100364)
(-0.00204975 0.00122889 -0.00100364)
(-0.002232 0.000854283 -0.00100364)
(-0.00234644 0.000453722 -0.00100364)
(-0.00238958 3.9374e-05 -0.00100364)
(-0.00236011 -0.00037617 -0.00100364)
(-0.00225893 -0.000780285 -0.00100364)
(-0.00208912 -0.00116069 -0.00100364)
(-0.00185583 -0.00150583 -0.00100364)
(-0.00156615 -0.00180521 -0.00100364)
(-0.00122889 -0.00204975 -0.00100364)
(-0.000854283 -0.002232 -0.00100364)
(-0.000453721 -0.00234644 -0.00100364)
(-3.93739e-05 -0.00238958 -0.00100364)
(0.00037617 -0.00236011 -0.00100364)
(0.000780285 -0.00225893 -0.00100364)
(0.00116069 -0.00208912 -0.00100364)
(0.00150583 -0.00185583 -0.00100364)
(0.00180521 -0.00156615 -0.00100364)
(0.00204975 -0.00122889 -0.00100364)
(0.002232 -0.000854283 -0.00100364)
(0.00234644 -0.000453721 -0.00100364)
(0.00238958 -3.93739e-05 -0.00100364)
(0.00236011 0.00037617 -0.00100364)
(0.00225893 0.000780285 -0.00100364)
(0.00208912 0.00116069 -0.00100364)
(0.00185583 0.00150583 -0.00100364)
(0.00156615 0.00180521 -0.00100364)
(0.00122889 0.00204975 -0.00100364)
(0.000854283 0.002232 -0.00100364)
(0.000453722 0.00234644 -0.00100364)
(3.9374e-05 0.00238958 -0.00100364)
(-0.00037617 0.00236011 -0.00100364)
(-0.000780285 0.00225893 -0.00100364)
(-0.00121284 0.00236373 -0.00079585)
(-0.00160487 0.00211721 -0.000795851)
(-0.00194814 0.00180637 -0.000795851)
(-0.00223221 0.00144063 -0.000795851)
(-0.00244846 0.00103113 -0.000795851)
(-0.00259032 0.000590291 -0.000795851)
(-0.00265347 0.000131518 -0.000795851)
(-0.00263599 -0.00033125 -0.000795851)
(-0.00253843 -0.000783953 -0.000795851)
(-0.00236373 -0.00121284 -0.000795851)
(-0.00211721 -0.00160487 -0.000795851)
(-0.00180637 -0.00194814 -0.000795851)
(-0.00144063 -0.00223221 -0.000795851)
(-0.00103113 -0.00244846 -0.000795851)
(-0.000590291 -0.00259032 -0.000795851)
(-0.000131518 -0.00265347 -0.000795851)
(0.00033125 -0.00263599 -0.000795851)
(0.000783953 -0.00253843 -0.000795851)
(0.00121284 -0.00236373 -0.000795851)
(0.00160487 -0.00211721 -0.000795851)
(0.00194814 -0.00180637 -0.000795851)
(0.00223221 -0.00144063 -0.000795851)
(0.00244846 -0.00103113 -0.000795851)
(0.00259032 -0.000590291 -0.000795851)
(0.00265347 -0.000131518 -0.000795851)
(0.00263599 0.00033125 -0.000795851)
(0.00253843 0.000783954 -0.000795851)
(0.00236373 0.00121284 -0.000795851)
(0.00211721 0.00160487 -0.000795851)
(0.00180637 0.00194814 -0.000795851)
(0.00144063 0.00223221 -0.000795851)
(0.00103113 0.00244846 -0.00079585)
(0.000590291 0.00259032 -0.000795851)
(0.000131518 0.00265347 -0.000795851)
(-0.00033125 0.00263599 -0.000795851)
(-0.000783953 0.00253843 -0.000795851)
(-0.00143992 0.002387 -0.00166132)
(-0.00183254 0.0021007 -0.00166132)
(-0.00216948 0.00175057 -0.00166132)
(-0.00244051 0.00134724 -0.00166132)
(-0.00263738 0.000902987 -0.00166132)
(-0.00275411 0.000431292 -0.00166132)
(-0.00278716 -5.35063e-05 -0.00166132)
(-0.00273553 -0.00053668 -0.00166132)
(-0.00260078 -0.00100355 -0.00166132)
(-0.002387 -0.00143992 -0.00166132)
(-0.0021007 -0.00183254 -0.00166132)
(-0.00175056 -0.00216948 -0.00166132)
(-0.00134724 -0.00244051 -0.00166132)
(-0.000902986 -0.00263738 -0.00166132)
(-0.000431292 -0.00275411 -0.00166132)
(5.35065e-05 -0.00278716 -0.00166132)
(0.00053668 -0.00273553 -0.00166132)
(0.00100355 -0.00260078 -0.00166132)
(0.00143992 -0.002387 -0.00166132)
(0.00183254 -0.0021007 -0.00166132)
(0.00216949 -0.00175056 -0.00166132)
(0.00244051 -0.00134724 -0.00166132)
(0.00263738 -0.000902986 -0.00166132)
(0.00275411 -0.000431292 -0.00166132)
(0.00278716 5.35065e-05 -0.00166132)
(0.00273553 0.00053668 -0.00166132)
(0.00260078 0.00100355 -0.00166132)
(0.002387 0.00143992 -0.00166132)
(0.0021007 0.00183254 -0.00166132)
(0.00175057 0.00216949 -0.00166132)
(0.00134724 0.00244051 -0.00166132)
(0.000902987 0.00263738 -0.00166132)
(0.000431292 0.00275411 -0.00166132)
(-5.35063e-05 0.00278716 -0.00166132)
(-0.00053668 0.00273553 -0.00166132)
(-0.00100355 0.00260078 -0.00166132)
(-0.00147053 0.0026636 -0.00141812)
(-0.00191071 0.00236778 -0.00141812)
(-0.00229285 0.00200002 -0.00141812)
(-0.00260531 0.00157148 -0.00141812)
(-0.00283862 0.0010952 -0.00141812)
(-0.00298567 0.000585643 -0.00141812)
(-0.00304201 5.82889e-05 -0.00141812)
(-0.00300591 -0.000470836 -0.00141812)
(-0.00287849 -0.000985655 -0.00141812)
(-0.0026636 -0.00147053 -0.00141812)
(-0.00236778 -0.00191071 -0.00141812)
(-0.00200002 -0.00229285 -0.00141812)
(-0.00157148 -0.00260531 -0.00141812)
(-0.0010952 -0.00283862 -0.00141812)
(-0.000585643 -0.00298567 -0.00141812)
(-5.82888e-05 -0.00304201 -0.00141812)
(0.000470836 -0.00300591 -0.00141812)
(0.000985655 -0.00287849 -0.00141812)
(0.00147053 -0.0026636 -0.00141812)
(0.00191071 -0.00236778 -0.00141812)
(0.00229285 -0.00200002 -0.00141812)
(0.00260531 -0.00157148 -0.00141812)
(0.00283862 -0.0010952 -0.00141812)
(0.00298567 -0.000585643 -0.00141812)
(0.00304201 -5.82887e-05 -0.00141812)
(0.00300591 0.000470836 -0.00141812)
(0.00287849 0.000985655 -0.00141812)
(0.0026636 0.00147053 -0.00141812)
(0.00236778 0.00191071 -0.00141812)
(0.00200002 0.00229285 -0.00141812)
(0.00157148 0.00260531 -0.00141812)
(0.0010952 0.00283862 -0.00141812)
(0.000585643 0.00298567 -0.00141812)
(5.82889e-05 0.00304201 -0.00141812)
(-0.000470836 0.00300591 -0.00141812)
(-0.000985655 0.00287849 -0.00141812)
(-0.00155387 0.00289772 -0.00118974)
(-0.00203345 0.00258387 -0.00118974)
(-0.00245124 0.00219151 -0.00118974)
(-0.00279455 0.00173257 -0.00118974)
(-0.00305295 0.00122098 -0.00118974)
(-0.00321859 0.000672289 -0.00118974)
(-0.00328644 0.000103173 -0.00118974)
(-0.00325442 -0.000469079 -0.00118974)
(-0.00312353 -0.00102708 -0.00118974)
(-0.00289772 -0.00155387 -0.00118974)
(-0.00258387 -0.00203345 -0.00118974)
(-0.00219151 -0.00245124 -0.00118974)
(-0.00173257 -0.00279455 -0.00118974)
(-0.00122098 -0.00305295 -0.00118974)
(-0.000672289 -0.00321859 -0.00118974)
(-0.000103173 -0.00328644 -0.00118974)
(0.000469079 -0.00325442 -0.00118974)
(0.00102708 -0.00312353 -0.00118974)
(0.00155387 -0.00289772 -0.00118974)
(0.00203345 -0.00258387 -0.00118974)
(0.00245124 -0.00219151 -0.00118974)
(0.00279455 -0.00173257 -0.00118974)
(0.00305295 -0.00122098 -0.00118974)
(0.00321859 -0.000672289 -0.00118974)
(0.00328644 -0.000103173 -0.00118974)
(0.00325442 0.000469079 -0.00118974)
(0.00312353 0.00102708 -0.00118974)
(0.00289772 0.00155387 -0.00118974)
(0.00258387 0.00203345 -0.00118974)
(0.00219151 0.00245124 -0.00118974)
(0.00173257 0.00279455 -0.00118974)
(0.00122098 0.00305295 -0.00118974)
(0.000672289 0.00321859 -0.00118974)
(0.000103173 0.00328644 -0.00118974)
(-0.000469079 0.00325442 -0.00118974)
(-0.00102708 0.00312353 -0.00118974)
(-0.00172888 0.00299541 -0.00212086)
(-0.00222276 0.00264969 -0.00212086)
(-0.00264911 0.00222345 -0.00212086)
(-0.00299496 0.00172966 -0.00212086)
(-0.00324981 0.00118331 -0.00212086)
(-0.00340592 0.000601014 -0.00212086)
(-0.00345854 4.50906e-07 -0.00212086)
(-0.00340608 -0.000600126 -0.00212086)
(-0.00325012 -0.00118247 -0.00212086)
(-0.00299541 -0.00172888 -0.00212086)
(-0.00264969 -0.00222276 -0.00212086)
(-0.00222345 -0.00264911 -0.00212086)
(-0.00172966 -0.00299496 -0.00212086)
(-0.00118331 -0.00324981 -0.00212086)
(-0.000601013 -0.00340592 -0.00212086)
(-4.50674e-07 -0.00345854 -0.00212086)
(0.000600126 -0.00340608 -0.00212086)
(0.00118247 -0.00325012 -0.00212086)
(0.00172888 -0.00299541 -0.00212086)
(0.00222276 -0.00264969 -0.00212086)
(0.00264911 -0.00222345 -0.00212086)
(0.00299496 -0.00172966 -0.00212086)
(0.00324981 -0.00118331 -0.00212086)
(0.00340592 -0.000601013 -0.00212086)
(0.00345854 -4.50686e-07 -0.00212086)
(0.00340608 0.000600126 -0.00212086)
(0.00325012 0.00118247 -0.00212086)
(0.00299541 0.00172888 -0.00212086)
(0.00264969 0.00222276 -0.00212086)
(0.00222345 0.00264911 -0.00212086)
(0.00172966 0.00299496 -0.00212086)
(0.00118331 0.00324981 -0.00212086)
(0.000601013 0.00340592 -0.00212086)
(4.50899e-07 0.00345854 -0.00212086)
(-0.000600126 0.00340608 -0.00212086)
(-0.00118247 0.00325012 -0.00212086)
(-0.00177655 0.00320806 -0.00185955)
(-0.00230663 0.00285083 -0.00185955)
(-0.00276663 0.00240697 -0.00185955)
(-0.00314256 0.00188999 -0.00185955)
(-0.00342301 0.00131557 -0.00185955)
(-0.00359946 0.000701186 -0.00185955)
(-0.00366653 6.54947e-05 -0.00185955)
(-0.0036222 -0.000572187 -0.00185955)
(-0.00346781 -0.00119248 -0.00185955)
(-0.00320806 -0.00177655 -0.00185955)
(-0.00285082 -0.00230663 -0.00185955)
(-0.00240697 -0.00276663 -0.00185955)
(-0.00188999 -0.00314256 -0.00185955)
(-0.00131557 -0.00342301 -0.00185955)
(-0.000701186 -0.00359946 -0.00185955)
(-6.54945e-05 -0.00366653 -0.00185955)
(0.000572187 -0.0036222 -0.00185955)
(0.00119248 -0.00346781 -0.00185955)
(0.00177655 -0.00320806 -0.00185955)
(0.00230663 -0.00285082 -0.00185955)
(0.00276663 -0.00240697 -0.00185955)
(0.00314256 -0.00188999 -0.00185955)
(0.00342301 -0.00131557 -0.00185955)
(0.00359946 -0.000701186 -0.00185955)
(0.00366653 -6.54945e-05 -0.00185955)
(0.0036222 0.000572187 -0.00185955)
(0.00346781 0.00119248 -0.00185955)
(0.00320806 0.00177655 -0.00185955)
(0.00285082 0.00230663 -0.00185955)
(0.00240697 0.00276663 -0.00185955)
(0.00188999 0.00314256 -0.00185955)
(0.00131557 0.00342301 -0.00185955)
(0.000701186 0.00359946 -0.00185955)
(6.54947e-05 0.00366653 -0.00185955)
(-0.000572187 0.0036222 -0.00185955)
(-0.00119248 0.00346781 -0.00185955)
(-0.00187417 0.00336809 -0.00161741)
(-0.00243056 0.00299147 -0.00161741)
(-0.0029131 0.00252396 -0.0016174)
(-0.00330713 0.00197977 -0.00161741)
(-0.00360067 0.00137541 -0.00161741)
(-0.0037848 0.000729267 -0.00161741)
(-0.00385394 6.09651e-05 -0.0016174)
(-0.00380597 -0.000609191 -0.00161741)
(-0.00364237 -0.00126084 -0.00161741)
(-0.00336809 -0.00187417 -0.00161741)
(-0.00299147 -0.00243056 -0.00161741)
(-0.00252396 -0.0029131 -0.0016174)
(-0.00197976 -0.00330713 -0.00161741)
(-0.00137541 -0.00360067 -0.00161741)
(-0.000729267 -0.0037848 -0.00161741)
(-6.09649e-05 -0.00385394 -0.0016174)
(0.000609191 -0.00380597 -0.00161741)
(0.00126084 -0.00364237 -0.00161741)
(0.00187417 -0.00336809 -0.00161741)
(0.00243056 -0.00299147 -0.00161741)
(0.0029131 -0.00252396 -0.0016174)
(0.00330713 -0.00197976 -0.00161741)
(0.00360067 -0.00137541 -0.00161741)
(0.0037848 -0.000729267 -0.00161741)
(0.00385394 -6.09649e-05 -0.0016174)
(0.00380597 0.000609191 -0.00161741)
(0.00364237 0.00126084 -0.00161741)
(0.00336809 0.00187417 -0.00161741)
(0.00299147 0.00243056 -0.00161741)
(0.00252396 0.0029131 -0.0016174)
(0.00197977 0.00330713 -0.00161741)
(0.00137541 0.00360067 -0.0016174)
(0.000729267 0.0037848 -0.00161741)
(6.09651e-05 0.00385394 -0.0016174)
(-0.000609191 0.00380597 -0.00161741)
(-0.00126084 0.00364237 -0.00161741)
(-0.00203686 0.00357191 -0.00260019)
(-0.00262617 0.00316394 -0.00260019)
(-0.00313568 0.00265985 -0.00260019)
(-0.00354992 0.00207493 -0.00260019)
(-0.0038563 0.00142697 -0.00260019)
(-0.00404551 0.000735653 -0.00260019)
(-0.00411179 2.19822e-05 -0.00260019)
(-0.00405314 -0.000692357 -0.00260019)
(-0.00387134 -0.00138566 -0.00260019)
(-0.00357191 -0.00203686 -0.00260019)
(-0.00316394 -0.00262617 -0.00260019)
(-0.00265985 -0.00313568 -0.00260019)
(-0.00207493 -0.00354992 -0.00260019)
(-0.00142697 -0.0038563 -0.00260019)
(-0.000735652 -0.00404551 -0.00260019)
(-2.19819e-05 -0.00411179 -0.00260019)
(0.000692358 -0.00405314 -0.00260019)
(0.00138566 -0.00387134 -0.00260019)
(0.00203686 -0.00357191 -0.00260019)
(0.00262617 -0.00316394 -0.00260019)
(0.00313568 -0.00265985 -0.00260019)
(0.00354992 -0.00207493 -0.00260019)
(0.0038563 -0.00142697 -0.00260019)
(0.00404551 -0.000735652 -0.00260019)
(0.00411179 -2.19819e-05 -0.00260019)
(0.00405314 0.000692358 -0.00260019)
(0.00387134 0.00138566 -0.00260019)
(0.00357191 0.00203686 -0.00260019)
(0.00316394 0.00262617 -0.00260019)
(0.00265985 0.00313568 -0.00260019)
(0.00207493 0.00354992 -0.00260019)
(0.00142697 0.0038563 -0.00260019)
(0.000735653 0.00404551 -0.00260019)
(2.19822e-05 0.00411179 -0.00260019)
(-0.000692357 0.00405314 -0.00260019)
(-0.00138566 0.00387134 -0.00260019)
(-0.00208425 0.00369912 -0.00232094)
(-0.00269493 0.00328099 -0.00232095)
(-0.00322372 0.00276318 -0.00232095)
(-0.00365457 0.0021614 -0.00232095)
(-0.00397437 0.00149396 -0.00232095)
(-0.00417342 0.000781121 -0.00232095)
(-0.00424565 4.45466e-05 -0.00232095)
(-0.00418889 -0.00069338 -0.00232094)
(-0.00400484 -0.00141024 -0.00232094)
(-0.00369912 -0.00208425 -0.00232094)
(-0.00328099 -0.00269493 -0.00232095)
(-0.00276318 -0.00322372 -0.00232095)
(-0.0021614 -0.00365457 -0.00232095)
(-0.00149396 -0.00397437 -0.00232095)
(-0.00078112 -0.00417342 -0.00232095)
(-4.45463e-05 -0.00424565 -0.00232095)
(0.00069338 -0.00418889 -0.00232095)
(0.00141024 -0.00400484 -0.00232094)
(0.00208425 -0.00369912 -0.00232094)
(0.00269493 -0.00328099 -0.00232095)
(0.00322373 -0.00276318 -0.00232095)
(0.00365457 -0.0021614 -0.00232095)
(0.00397437 -0.00149396 -0.00232095)
(0.00417342 -0.00078112 -0.00232095)
(0.00424565 -4.45464e-05 -0.00232095)
(0.00418889 0.00069338 -0.00232094)
(0.00400484 0.00141024 -0.00232094)
(0.00369912 0.00208425 -0.00232094)
(0.00328099 0.00269493 -0.00232095)
(0.00276318 0.00322373 -0.00232095)
(0.0021614 0.00365457 -0.00232095)
(0.00149396 0.00397437 -0.00232095)
(0.000781121 0.00417342 -0.00232094)
(4.45466e-05 0.00424565 -0.00232094)
(-0.00069338 0.00418889 -0.00232094)
(-0.00141024 0.00400484 -0.00232094)
(-0.00217617 0.00376823 -0.00206441)
(-0.00279746 0.0033331 -0.00206441)
(-0.00333374 0.00279669 -0.00206441)
(-0.00376873 0.0021753 -0.00206441)
(-0.00408922 0.00148782 -0.00206441)
(-0.00428545 0.000755133 -0.00206441)
(-0.00435147 -4.99507e-07 -0.00206441)
(-0.00428528 -0.000756117 -0.00206441)
(-0.00408887 -0.00148876 -0.00206441)
(-0.00376823 -0.00217617 -0.00206441)
(-0.0033331 -0.00279746 -0.00206441)
(-0.00279669 -0.00333374 -0.00206441)
(-0.0021753 -0.00376873 -0.00206441)
(-0.00148782 -0.00408922 -0.00206441)
(-0.000755133 -0.00428545 -0.00206441)
(4.99754e-07 -0.00435147 -0.00206441)
(0.000756117 -0.00428528 -0.00206441)
(0.00148876 -0.00408887 -0.00206441)
(0.00217617 -0.00376823 -0.00206441)
(0.00279746 -0.0033331 -0.00206441)
(0.00333374 -0.00279669 -0.00206441)
(0.00376873 -0.0021753 -0.00206441)
(0.00408922 -0.00148782 -0.00206441)
(0.00428545 -0.000755133 -0.00206441)
(0.00435147 4.9972e-07 -0.00206441)
(0.00428528 0.000756117 -0.00206441)
(0.00408887 0.00148876 -0.00206441)
(0.00376823 0.00217617 -0.00206441)
(0.0033331 0.00279746 -0.00206441)
(0.00279669 0.00333374 -0.00206441)
(0.0021753 0.00376873 -0.00206441)
(0.00148782 0.00408922 -0.00206441)
(0.000755133 0.00428545 -0.00206441)
(-4.99482e-07 0.00435147 -0.00206441)
(-0.000756117 0.00428528 -0.00206441)
(-0.00148876 0.00408887 -0.00206441)
(-0.00236175 0.00407045 -0.00309698)
(-0.0030327 0.0035985 -0.00309698)
(-0.0036115 0.0030172 -0.00309699)
(-0.00408056 0.00234424 -0.00309699)
(-0.00442564 0.00160004 -0.00309699)
(-0.00463625 0.000807227 -0.00309698)
(-0.00470599 -1.01137e-05 -0.00309698)