/*--------------------------------*- C++ -*----------------------------------*\
| =========                 |                                                 |
| \\      /  F ield         | OpenFOAM: The Open Source CFD Toolbox           |
|  \\    /   O peration     | Version:  2312                                  |
|   \\  /    A nd           | Website:  www.openfoam.com                      |
|    \\/     M anipulation  |                                                 |
\*---------------------------------------------------------------------------*/
FoamFile
{
    version     2.0;
    format      ascii;
    arch        "LSB;label=32;scalar=64";
    class       pointVectorField;
    location    "0.8";
    object      pointD;
}
// * * * * * * * * * * * * * * * * * * * * * * * * * * * * * * * * * * * * * //

dimensions      [0 1 0 0 0 0 0];

internalField   nonuniform List<vector> 
2164
(
(0 0 0)
(0 0 0)
(0 0 0)
(0 0 0)
(0 0 0)
(0 0 0)
(0 0 0)
(0 0 0)
(0 0 0)
(0 0 0)
(0 0 0)
(0 0 0)
(0 0 0)
(0 0 0)
(0 0 0)
(0 0 0)
(0 0 0)
(0 0 0)
(0 0 0)
(0 0 0)
(0 0 0)
(0 0 0)
(0 0 0)
(0 0 0)
(0 0 0)
(0 0 0)
(0 0 0)
(0 0 0)
(0 0 0)
(0 0 0)
(0 0 0)
(0 0 0)
(0 0 0)
(0 0 0)
(0 0 0)
(0 0 0)
(-0.00049055 0.000339638 -0.000318044)
(-0.000542075 0.000249296 -0.000318044)
(-0.00057713 0.000151379 -0.000318043)
(-0.000594649 4.88616e-05 -0.000318043)
(-0.000594099 -5.51396e-05 -0.000318043)
(-0.000575499 -0.000157465 -0.000318043)
(-0.000539413 -0.000255008 -0.000318042)
(-0.000486935 -0.000344802 -0.000318043)
(-0.000419662 -0.00042412 -0.000318044)
(-0.000339638 -0.00049055 -0.000318045)
(-0.000249296 -0.000542075 -0.000318044)
(-0.000151379 -0.00057713 -0.000318043)
(-4.88616e-05 -0.000594649 -0.000318043)
(5.51397e-05 -0.000594099 -0.000318043)
(0.000157466 -0.000575499 -0.000318043)
(0.000255008 -0.000539413 -0.000318042)
(0.000344802 -0.000486935 -0.000318043)
(0.00042412 -0.000419662 -0.000318044)
(0.00049055 -0.000339638 -0.000318045)
(0.000542075 -0.000249296 -0.000318044)
(0.00057713 -0.000151379 -0.000318043)
(0.000594649 -4.88616e-05 -0.000318043)
(0.000594099 5.51397e-05 -0.000318043)
(0.000575499 0.000157466 -0.000318043)
(0.000539413 0.000255008 -0.000318042)
(0.000486935 0.000344802 -0.000318043)
(0.000419662 0.00042412 -0.000318044)
(0.000339638 0.00049055 -0.000318044)
(0.000249296 0.000542075 -0.000318044)
(0.000151379 0.00057713 -0.000318043)
(4.88616e-05 0.000594649 -0.000318042)
(-5.51396e-05 0.000594099 -0.000318043)
(-0.000157465 0.000575499 -0.000318043)
(-0.000255008 0.000539413 -0.000318042)
(-0.000344802 0.000486935 -0.000318043)
(-0.00042412 0.000419662 -0.000318044)
(-0.000421777 0.000490674 -0.000236469)
(-0.000500575 0.000409977 -0.00023647)
(-0.000564162 0.000316826 -0.000236469)
(-0.000610607 0.000214048 -0.000236468)
(-0.0006385 0.000104765 -0.000236468)
(-0.000646992 -7.70164e-06 -0.000236469)
(-0.000635825 -0.000119933 -0.000236469)
(-0.000605339 -0.000228521 -0.000236469)
(-0.00055646 -0.000330166 -0.000236469)
(-0.000490674 -0.000421777 -0.000236469)
(-0.000409977 -0.000500575 -0.00023647)
(-0.000316826 -0.000564162 -0.000236469)
(-0.000214048 -0.000610607 -0.000236468)
(-0.000104765 -0.0006385 -0.000236469)
(7.70169e-06 -0.000646992 -0.000236469)
(0.000119933 -0.000635825 -0.000236469)
(0.000228521 -0.000605339 -0.000236469)
(0.000330166 -0.00055646 -0.000236469)
(0.000421777 -0.000490674 -0.000236469)
(0.000500575 -0.000409977 -0.00023647)
(0.000564162 -0.000316826 -0.000236469)
(0.000610607 -0.000214048 -0.000236468)
(0.0006385 -0.000104765 -0.000236469)
(0.000646992 7.7017e-06 -0.000236469)
(0.000635825 0.000119933 -0.000236469)
(0.000605339 0.000228521 -0.000236469)
(0.00055646 0.000330166 -0.000236469)
(0.000490674 0.000421777 -0.000236469)
(0.000409977 0.000500575 -0.00023647)
(0.000316826 0.000564162 -0.000236469)
(0.000214048 0.000610607 -0.000236468)
(0.000104765 0.0006385 -0.000236468)
(-7.70165e-06 0.000646992 -0.000236469)
(-0.000119933 0.000635825 -0.000236469)
(-0.000228521 0.00060534 -0.000236469)
(-0.000330166 0.00055646 -0.000236469)
(0 0 0)
(0 0 0)
(0 0 0)
(0 0 0)
(0 0 0)
(0 0 0)
(0 0 0)
(0 0 0)
(0 0 0)
(0 0 0)
(0 0 0)
(0 0 0)
(0 0 0)
(0 0 0)
(0 0 0)
(0 0 0)
(0 0 0)
(0 0 0)
(0 0 0)
(0 0 0)
(0 0 0)
(0 0 0)
(0 0 0)
(0 0 0)
(0 0 0)
(0 0 0)
(0 0 0)
(0 0 0)
(0 0 0)
(0 0 0)
(0 0 0)
(0 0 0)
(0 0 0)
(0 0 0)
(0 0 0)
(0 0 0)
(-0.000373955 0.000643854 -0.000152636)
(-0.000480078 0.000569135 -0.000152637)
(-0.000571614 0.000477125 -0.000152636)
(-0.000645781 0.000370617 -0.000152637)
(-0.000700328 0.000252847 -0.000152637)
(-0.000733595 0.000127396 -0.000152636)
(-0.000744572 -1.92747e-06 -0.000152637)
(-0.000732926 -0.000131191 -0.000152636)
(-0.000699009 -0.00025647 -0.000152637)
(-0.000643854 -0.000373955 -0.000152636)
(-0.000569135 -0.000480078 -0.000152637)
(-0.000477125 -0.000571614 -0.000152636)
(-0.000370617 -0.000645781 -0.000152637)
(-0.000252847 -0.000700327 -0.000152637)
(-0.000127396 -0.000733595 -0.000152636)
(1.9275e-06 -0.000744571 -0.000152637)
(0.000131191 -0.000732926 -0.000152636)
(0.00025647 -0.000699009 -0.000152637)
(0.000373955 -0.000643854 -0.000152636)
(0.000480078 -0.000569135 -0.000152637)
(0.000571614 -0.000477125 -0.000152636)
(0.000645781 -0.000370617 -0.000152637)
(0.000700328 -0.000252847 -0.000152637)
(0.000733595 -0.000127396 -0.000152636)
(0.000744572 1.92752e-06 -0.000152637)
(0.000732926 0.000131191 -0.000152636)
(0.000699009 0.00025647 -0.000152637)
(0.000643854 0.000373955 -0.000152636)
(0.000569135 0.000480078 -0.000152637)
(0.000477125 0.000571614 -0.000152636)
(0.000370617 0.000645781 -0.000152637)
(0.000252847 0.000700328 -0.000152637)
(0.000127396 0.000733595 -0.000152636)
(-1.9275e-06 0.000744572 -0.000152637)
(-0.000131191 0.000732926 -0.000152636)
(-0.00025647 0.000699009 -0.000152637)
(0 0 0)
(0 0 0)
(0 0 0)
(0 0 0)
(0 0 0)
(0 0 0)
(0 0 0)
(0 0 0)
(0 0 0)
(0 0 0)
(0 0 0)
(0 0 0)
(0 0 0)
(0 0 0)
(0 0 0)
(0 0 0)
(0 0 0)
(0 0 0)
(0 0 0)
(0 0 0)
(0 0 0)
(0 0 0)
(0 0 0)
(0 0 0)
(0 0 0)
(0 0 0)
(0 0 0)
(0 0 0)
(0 0 0)
(0 0 0)
(0 0 0)
(0 0 0)
(0 0 0)
(0 0 0)
(0 0 0)
(0 0 0)
(-0.000349199 0.000787901 -7.2005e-05)
(-0.000480711 0.000715292 -7.20053e-05)
(-0.000597617 0.000620952 -7.20055e-05)
(-0.000696365 0.000507742 -7.20055e-05)
(-0.000773955 0.000379107 -7.20055e-05)
(-0.000828028 0.00023895 -7.20056e-05)
(-0.000856941 9.15338e-05 -7.20059e-05)
(-0.000859818 -5.86625e-05 -7.20055e-05)
(-0.000836568 -0.000207077 -7.20058e-05)
(-0.000787901 -0.000349199 -7.20051e-05)
(-0.000715292 -0.000480711 -7.20054e-05)
(-0.000620952 -0.000597617 -7.20055e-05)
(-0.000507742 -0.000696365 -7.20056e-05)
(-0.000379107 -0.000773955 -7.20055e-05)
(-0.00023895 -0.000828028 -7.20056e-05)
(-9.15338e-05 -0.000856941 -7.2006e-05)
(5.86625e-05 -0.000859818 -7.20055e-05)
(0.000207077 -0.000836568 -7.20058e-05)
(0.000349199 -0.000787901 -7.20051e-05)
(0.000480711 -0.000715292 -7.20054e-05)
(0.000597617 -0.000620952 -7.20055e-05)
(0.000696365 -0.000507742 -7.20056e-05)
(0.000773955 -0.000379107 -7.20055e-05)
(0.000828028 -0.00023895 -7.20056e-05)
(0.000856941 -9.15338e-05 -7.20059e-05)
(0.000859818 5.86626e-05 -7.20055e-05)
(0.000836568 0.000207077 -7.20058e-05)
(0.000787901 0.000349199 -7.20051e-05)
(0.000715292 0.000480711 -7.20053e-05)
(0.000620952 0.000597617 -7.20055e-05)
(0.000507742 0.000696365 -7.20055e-05)
(0.000379107 0.000773955 -7.20054e-05)
(0.00023895 0.000828028 -7.20056e-05)
(9.15338e-05 0.000856941 -7.20059e-05)
(-5.86625e-05 0.000859818 -7.20055e-05)
(-0.000207077 0.000836568 -7.20058e-05)
(0 0 0)
(0 0 0)
(0 0 0)
(0 0 0)
(0 0 0)
(0 0 0)
(0 0 0)
(0 0 0)
(0 0 0)
(0 0 0)
(0 0 0)
(0 0 0)
(0 0 0)
(0 0 0)
(0 0 0)
(0 0 0)
(0 0 0)
(0 0 0)
(0 0 0)
(0 0 0)
(0 0 0)
(0 0 0)
(0 0 0)
(0 0 0)
(0 0 0)
(0 0 0)
(0 0 0)
(0 0 0)
(0 0 0)
(0 0 0)
(0 0 0)
(0 0 0)
(0 0 0)
(0 0 0)
(0 0 0)
(0 0 0)
(-0.00083138 0.000748777 -0.000692382)
(-0.000948774 0.000593034 -0.000692382)
(-0.00103734 0.000419273 -0.00069238)
(-0.00109439 0.000232773 -0.000692379)
(-0.00111818 3.9199e-05 -0.000692378)
(-0.001108 -0.000155566 -0.000692378)
(-0.00106415 -0.000345606 -0.000692379)
(-0.00098797 -0.000525144 -0.000692381)
(-0.000881771 -0.000688725 -0.000692381)
(-0.000748777 -0.00083138 -0.000692382)
(-0.000593034 -0.000948774 -0.000692382)
(-0.000419273 -0.00103734 -0.00069238)
(-0.000232773 -0.00109439 -0.000692379)
(-3.91989e-05 -0.00111818 -0.000692378)
(0.000155566 -0.001108 -0.000692378)
(0.000345606 -0.00106415 -0.000692379)
(0.000525144 -0.00098797 -0.000692381)
(0.000688725 -0.000881771 -0.000692381)
(0.00083138 -0.000748777 -0.000692382)
(0.000948774 -0.000593033 -0.000692382)
(0.00103734 -0.000419273 -0.00069238)
(0.00109439 -0.000232772 -0.000692379)
(0.00111818 -3.91988e-05 -0.000692378)
(0.001108 0.000155566 -0.000692378)
(0.00106415 0.000345606 -0.000692379)
(0.00098797 0.000525144 -0.000692381)
(0.000881771 0.000688725 -0.000692381)
(0.000748777 0.00083138 -0.000692382)
(0.000593034 0.000948774 -0.000692382)
(0.000419273 0.00103734 -0.00069238)
(0.000232773 0.00109439 -0.000692378)
(3.91989e-05 0.00111818 -0.000692378)
(-0.000155566 0.001108 -0.000692378)
(-0.000345606 0.00106415 -0.000692379)
(-0.000525144 0.00098797 -0.00069238)
(-0.000688725 0.000881771 -0.000692381)
(-0.000795323 0.00100648 -0.000540263)
(-0.000958015 0.000853085 -0.000540263)
(-0.0010916 0.000673765 -0.000540264)
(-0.00119201 0.000473978 -0.000540262)
(-0.00125621 0.000259787 -0.000540262)
(-0.00128223 3.77009e-05 -0.000540263)
(-0.0012693 -0.000185528 -0.000540261)
(-0.0012178 -0.000403123 -0.000540263)
(-0.0011293 -0.000608467 -0.000540263)
(-0.00100648 -0.000795323 -0.000540264)
(-0.000853085 -0.000958015 -0.000540263)
(-0.000673765 -0.0010916 -0.000540264)
(-0.000473978 -0.00119201 -0.000540262)
(-0.000259787 -0.00125621 -0.000540262)
(-3.77008e-05 -0.00128223 -0.000540263)
(0.000185528 -0.0012693 -0.000540261)
(0.000403123 -0.0012178 -0.000540263)
(0.000608467 -0.0011293 -0.000540263)
(0.000795323 -0.00100648 -0.000540264)
(0.000958015 -0.000853085 -0.000540263)
(0.0010916 -0.000673765 -0.000540264)
(0.00119201 -0.000473978 -0.000540262)
(0.00125621 -0.000259787 -0.000540262)
(0.00128223 -3.77008e-05 -0.000540263)
(0.0012693 0.000185528 -0.000540261)
(0.0012178 0.000403123 -0.000540263)
(0.0011293 0.000608467 -0.000540263)
(0.00100648 0.000795323 -0.000540263)
(0.000853085 0.000958015 -0.000540263)
(0.000673765 0.0010916 -0.000540264)
(0.000473978 0.00119201 -0.000540262)
(0.000259787 0.00125621 -0.000540262)
(3.77008e-05 0.00128223 -0.000540263)
(-0.000185528 0.0012693 -0.000540261)
(-0.000403123 0.0012178 -0.000540263)
(-0.000608467 0.0011293 -0.000540263)
(-0.000786343 0.00126579 -0.000385815)
(-0.000994198 0.00111002 -0.000385815)
(-0.00117185 0.000920515 -0.000385814)
(-0.00131389 0.000703042 -0.000385814)
(-0.00141601 0.000464205 -0.000385813)
(-0.00147511 0.000211264 -0.000385814)
(-0.00148938 -4.8096e-05 -0.000385814)
(-0.0014584 -0.000305993 -0.000385814)
(-0.00138311 -0.000554594 -0.000385815)
(-0.00126579 -0.000786343 -0.000385815)
(-0.00111002 -0.000994198 -0.000385815)
(-0.000920515 -0.00117185 -0.000385814)
(-0.000703042 -0.00131389 -0.000385814)
(-0.000464205 -0.00141601 -0.000385814)
(-0.000211264 -0.00147511 -0.000385814)
(4.8096e-05 -0.00148938 -0.000385814)
(0.000305993 -0.0014584 -0.000385815)
(0.000554594 -0.00138311 -0.000385815)
(0.000786343 -0.00126579 -0.000385815)
(0.000994198 -0.00111002 -0.000385815)
(0.00117185 -0.000920515 -0.000385815)
(0.00131389 -0.000703042 -0.000385814)
(0.00141601 -0.000464205 -0.000385814)
(0.00147511 -0.000211264 -0.000385814)
(0.00148938 4.80961e-05 -0.000385814)
(0.0014584 0.000305993 -0.000385814)
(0.00138311 0.000554594 -0.000385815)
(0.00126579 0.000786343 -0.000385815)
(0.00111002 0.000994198 -0.000385815)
(0.000920515 0.00117185 -0.000385814)
(0.000703042 0.00131389 -0.000385814)
(0.000464205 0.00141601 -0.000385813)
(0.000211264 0.00147511 -0.000385814)
(-4.8096e-05 0.00148938 -0.000385814)
(-0.000305993 0.0014584 -0.000385814)
(-0.000554594 0.00138311 -0.000385815)
(-0.00080426 0.00150406 -0.000238314)
(-0.00105322 0.00134155 -0.000238314)
(-0.00127017 0.00113828 -0.000238315)
(-0.00144854 0.000900425 -0.000238316)
(-0.00158289 0.000635209 -0.000238316)
(-0.00166914 0.000350692 -0.000238316)
(-0.00170469 5.55219e-05 -0.000238315)
(-0.00168843 -0.000241337 -0.000238315)
(-0.00162087 -0.000530864 -0.000238315)
(-0.00150406 -0.00080426 -0.000238314)
(-0.00134155 -0.00105322 -0.000238314)
(-0.00113828 -0.00127017 -0.000238315)
(-0.000900425 -0.00144854 -0.000238316)
(-0.000635209 -0.00158289 -0.000238316)
(-0.000350692 -0.00166914 -0.000238316)
(-5.55219e-05 -0.00170469 -0.000238315)
(0.000241337 -0.00168843 -0.000238315)
(0.000530865 -0.00162087 -0.000238315)
(0.00080426 -0.00150406 -0.000238314)
(0.00105322 -0.00134155 -0.000238314)
(0.00127017 -0.00113828 -0.000238315)
(0.00144854 -0.000900425 -0.000238316)
(0.00158289 -0.000635209 -0.000238316)
(0.00166914 -0.000350692 -0.000238316)
(0.00170469 -5.55218e-05 -0.000238315)
(0.00168843 0.000241338 -0.000238315)
(0.00162087 0.000530865 -0.000238315)
(0.00150406 0.000804261 -0.000238314)
(0.00134155 0.00105322 -0.000238314)
(0.00113828 0.00127017 -0.000238315)
(0.000900425 0.00144854 -0.000238316)
(0.000635209 0.00158289 -0.000238316)
(0.000350692 0.00166914 -0.000238316)
(5.55219e-05 0.00170469 -0.000238315)
(-0.000241337 0.00168843 -0.000238314)
(-0.000530865 0.00162087 -0.000238315)
(-0.00115207 0.00123776 -0.00112474)
(-0.0013495 0.0010189 -0.00112474)
(-0.00150593 0.000769081 -0.00112474)
(-0.0016166 0.000495898 -0.00112473)
(-0.00167815 0.000207645 -0.00112473)
(-0.00168871 -8.69172e-05 -0.00112473)
(-0.00164796 -0.00037884 -0.00112473)
(-0.00155714 -0.000659251 -0.00112474)
(-0.00141901 -0.00091963 -0.00112474)
(-0.00123776 -0.00115207 -0.00112474)
(-0.0010189 -0.0013495 -0.00112474)
(-0.000769081 -0.00150593 -0.00112474)
(-0.000495898 -0.0016166 -0.00112473)
(-0.000207644 -0.00167815 -0.00112473)
(8.69173e-05 -0.00168871 -0.00112473)
(0.000378841 -0.00164796 -0.00112473)
(0.000659251 -0.00155714 -0.00112474)
(0.00091963 -0.00141901 -0.00112474)
(0.00115207 -0.00123776 -0.00112474)
(0.0013495 -0.0010189 -0.00112474)
(0.00150593 -0.000769081 -0.00112474)
(0.0016166 -0.000495898 -0.00112473)
(0.00167815 -0.000207644 -0.00112473)
(0.00168871 8.69173e-05 -0.00112473)
(0.00164796 0.000378841 -0.00112473)
(0.00155714 0.000659251 -0.00112474)
(0.00141901 0.00091963 -0.00112474)
(0.00123776 0.00115207 -0.00112474)
(0.0010189 0.0013495 -0.00112474)
(0.000769081 0.00150593 -0.00112474)
(0.000495898 0.0016166 -0.00112473)
(0.000207645 0.00167815 -0.00112473)
(-8.69172e-05 0.00168871 -0.00112473)
(-0.00037884 0.00164796 -0.00112473)
(-0.000659251 0.00155714 -0.00112474)
(-0.00091963 0.00141901 -0.00112474)
(-0.00115527 0.00154961 -0.000921667)
(-0.00140681 0.00132546 -0.000921666)
(-0.0016156 0.00106103 -0.000921667)
(-0.0017753 0.000764367 -0.000921665)
(-0.00188106 0.000444478 -0.000921665)
(-0.00192967 0.000111081 -0.000921665)
(-0.00191964 -0.00022569 -0.000921664)
(-0.00185129 -0.000555603 -0.000921666)
(-0.00172668 -0.000868635 -0.000921665)
(-0.00154961 -0.00115527 -0.000921667)
(-0.00132546 -0.00140681 -0.000921666)
(-0.00106103 -0.0016156 -0.000921667)
(-0.000764367 -0.0017753 -0.000921665)
(-0.000444478 -0.00188106 -0.000921665)
(-0.000111081 -0.00192967 -0.000921665)
(0.00022569 -0.00191964 -0.000921664)
(0.000555604 -0.00185129 -0.000921666)
(0.000868635 -0.00172668 -0.000921665)
(0.00115527 -0.00154961 -0.000921667)
(0.00140681 -0.00132546 -0.000921666)
(0.0016156 -0.00106103 -0.000921667)
(0.0017753 -0.000764367 -0.000921665)
(0.00188106 -0.000444478 -0.000921665)
(0.00192967 -0.000111081 -0.000921665)
(0.00191964 0.00022569 -0.000921664)
(0.00185129 0.000555604 -0.000921666)
(0.00172668 0.000868636 -0.000921665)
(0.00154961 0.00115527 -0.000921667)
(0.00132546 0.00140681 -0.000921666)
(0.00106103 0.0016156 -0.000921667)
(0.000764367 0.0017753 -0.000921665)
(0.000444478 0.00188106 -0.000921665)
(0.000111081 0.00192967 -0.000921665)
(-0.00022569 0.00191964 -0.000921664)
(-0.000555604 0.00185129 -0.000921665)
(-0.000868635 0.00172668 -0.000921665)
(-0.00119082 0.00185516 -0.000718744)
(-0.00149487 0.00162019 -0.000718744)
(-0.0017535 0.00133599 -0.000718744)
(-0.00195886 0.0010112 -0.000718744)
(-0.00210469 0.000655688 -0.000718744)
(-0.00218658 0.00028025 -0.000718743)
(-0.00220202 -0.000103702 -0.000718744)
(-0.00215056 -0.000484505 -0.000718743)
(-0.00203375 -0.000850585 -0.000718744)
(-0.00185516 -0.00119082 -0.000718744)
(-0.00162019 -0.00149487 -0.000718744)
(-0.00133599 -0.0017535 -0.000718744)
(-0.0010112 -0.00195886 -0.000718744)
(-0.000655688 -0.00210469 -0.000718744)
(-0.00028025 -0.00218658 -0.000718743)
(0.000103702 -0.00220202 -0.000718744)
(0.000484505 -0.00215056 -0.000718744)
(0.000850585 -0.00203375 -0.000718744)
(0.00119082 -0.00185516 -0.000718744)
(0.00149487 -0.00162019 -0.000718744)
(0.0017535 -0.00133599 -0.000718744)
(0.00195886 -0.0010112 -0.000718744)
(0.00210469 -0.000655687 -0.000718744)
(0.00218658 -0.00028025 -0.000718743)
(0.00220202 0.000103702 -0.000718744)
(0.00215056 0.000484505 -0.000718743)
(0.00203375 0.000850585 -0.000718744)
(0.00185516 0.00119082 -0.000718744)
(0.00162019 0.00149487 -0.000718744)
(0.00133599 0.0017535 -0.000718744)
(0.0010112 0.00195886 -0.000718744)
(0.000655688 0.00210469 -0.000718744)
(0.00028025 0.00218658 -0.000718743)
(-0.000103702 0.00220202 -0.000718744)
(-0.000484505 0.00215056 -0.000718743)
(-0.000850585 0.00203375 -0.000718744)
(-0.00125359 0.00212774 -0.000525672)
(-0.00160402 0.00187773 -0.000525672)
(-0.00190571 0.00157067 -0.000525671)
(-0.0021495 0.00121588 -0.000525672)
(-0.00232798 0.000824153 -0.000525672)
(-0.00243573 0.000407382 -0.000525672)
(-0.00246947 -2.17689e-05 -0.000525673)
(-0.00242817 -0.000450255 -0.000525672)
(-0.0023131 -0.000865064 -0.000525671)
(-0.00212774 -0.00125359 -0.000525672)
(-0.00187773 -0.00160402 -0.000525672)
(-0.00157067 -0.00190571 -0.000525671)
(-0.00121588 -0.0021495 -0.000525672)
(-0.000824153 -0.00232798 -0.000525672)
(-0.000407381 -0.00243573 -0.000525672)
(2.1769e-05 -0.00246947 -0.000525673)
(0.000450255 -0.00242817 -0.000525672)
(0.000865064 -0.0023131 -0.000525671)
(0.00125359 -0.00212774 -0.000525672)
(0.00160402 -0.00187773 -0.000525672)
(0.00190571 -0.00157067 -0.000525671)
(0.0021495 -0.00121588 -0.000525672)
(0.00232798 -0.000824153 -0.000525672)
(0.00243573 -0.000407381 -0.000525672)
(0.00246947 2.1769e-05 -0.000525673)
(0.00242817 0.000450256 -0.000525672)
(0.0023131 0.000865064 -0.000525671)
(0.00212774 0.00125359 -0.000525672)
(0.00187773 0.00160402 -0.000525672)
(0.00157067 0.00190571 -0.000525671)
(0.00121588 0.0021495 -0.000525672)
(0.000824153 0.00232798 -0.000525672)
(0.000407382 0.00243573 -0.000525672)
(-2.17689e-05 0.00246947 -0.000525673)
(-0.000450255 0.00242817 -0.000525672)
(-0.000865064 0.0023131 -0.000525671)
(-0.00146519 0.00180743 -0.00157696)
(-0.00175679 0.00152555 -0.00157696)
(-0.00199501 0.00119731 -0.00157696)
(-0.00217261 0.000832687 -0.00157696)
(-0.0022842 0.000442766 -0.00157696)
(-0.00232638 3.93934e-05 -0.00157695)
(-0.00229788 -0.000365177 -0.00157695)
(-0.00219956 -0.000758655 -0.00157696)
(-0.0020344 -0.00112908 -0.00157696)
(-0.00180743 -0.00146519 -0.00157696)
(-0.00152555 -0.00175679 -0.00157696)
(-0.00119731 -0.00199501 -0.00157696)
(-0.000832686 -0.00217261 -0.00157696)
(-0.000442766 -0.0022842 -0.00157696)
(-3.93932e-05 -0.00232638 -0.00157695)
(0.000365177 -0.00229788 -0.00157695)
(0.000758655 -0.00219956 -0.00157696)
(0.00112908 -0.0020344 -0.00157696)
(0.00146519 -0.00180743 -0.00157696)
(0.00175679 -0.00152555 -0.00157696)
(0.00199501 -0.00119731 -0.00157696)
(0.00217261 -0.000832686 -0.00157696)
(0.0022842 -0.000442766 -0.00157696)
(0.00232638 -3.93932e-05 -0.00157695)
(0.00229788 0.000365178 -0.00157695)
(0.00219956 0.000758655 -0.00157696)
(0.0020344 0.00112908 -0.00157695)
(0.00180743 0.00146519 -0.00157696)
(0.00152555 0.00175679 -0.00157696)
(0.00119731 0.00199501 -0.00157696)
(0.000832686 0.00217261 -0.00157696)
(0.000442766 0.0022842 -0.00157696)
(3.93933e-05 0.00232638 -0.00157695)
(-0.000365177 0.00229788 -0.00157695)
(-0.000758655 0.00219956 -0.00157696)
(-0.00112908 0.0020344 -0.00157695)
(-0.00150365 0.00211464 -0.00134087)
(-0.00184801 0.0018214 -0.00134087)
(-0.00213622 0.00147283 -0.00134087)
(-0.00235952 0.0010795 -0.00134087)
(-0.00251112 0.000653376 -0.00134087)
(-0.00258643 0.000207398 -0.00134086)
(-0.00258315 -0.000244882 -0.00134087)
(-0.00250139 -0.000689722 -0.00134086)
(-0.00234361 -0.0011136 -0.00134087)
(-0.00211463 -0.00150365 -0.00134087)
(-0.0018214 -0.00184801 -0.00134087)
(-0.00147283 -0.00213622 -0.00134087)
(-0.0010795 -0.00235952 -0.00134087)
(-0.000653376 -0.00251112 -0.00134087)
(-0.000207398 -0.00258643 -0.00134086)
(0.000244882 -0.00258315 -0.00134087)
(0.000689722 -0.00250139 -0.00134086)
(0.0011136 -0.00234361 -0.00134087)
(0.00150365 -0.00211463 -0.00134087)
(0.00184801 -0.0018214 -0.00134087)
(0.00213622 -0.00147283 -0.00134087)
(0.00235952 -0.0010795 -0.00134087)
(0.00251112 -0.000653376 -0.00134087)
(0.00258643 -0.000207398 -0.00134086)
(0.00258315 0.000244882 -0.00134087)
(0.00250139 0.000689722 -0.00134086)
(0.00234361 0.0011136 -0.00134087)
(0.00211463 0.00150365 -0.00134087)
(0.0018214 0.00184801 -0.00134087)
(0.00147283 0.00213622 -0.00134087)
(0.0010795 0.00235952 -0.00134087)
(0.000653376 0.00251112 -0.00134087)
(0.000207398 0.00258643 -0.00134086)
(-0.000244882 0.00258315 -0.00134087)
(-0.000689722 0.00250139 -0.00134086)
(-0.0011136 0.00234361 -0.00134087)
(-0.0015771 0.00240509 -0.00110872)
(-0.00197078 0.00209469 -0.00110871)
(-0.00230458 0.00172064 -0.00110871)
(-0.00256836 0.00129432 -0.00110871)
(-0.00275409 0.000828667 -0.00110871)
(-0.00285615 0.000337834 -0.00110871)
(-0.00287142 -0.000163265 -0.00110871)
(-0.00279945 -0.000659402 -0.00110872)
(-0.00264241 -0.0011355 -0.00110871)
(-0.00240509 -0.0015771 -0.00110872)
(-0.00209469 -0.00197078 -0.00110872)
(-0.00172064 -0.00230458 -0.00110872)
(-0.00129432 -0.00256836 -0.00110871)
(-0.000828667 -0.00275409 -0.00110871)
(-0.000337834 -0.00285615 -0.00110871)
(0.000163266 -0.00287142 -0.00110871)
(0.000659402 -0.00279945 -0.00110872)
(0.0011355 -0.00264241 -0.00110871)
(0.0015771 -0.00240509 -0.00110872)
(0.00197078 -0.00209469 -0.00110872)
(0.00230458 -0.00172064 -0.00110872)
(0.00256836 -0.00129432 -0.00110871)
(0.00275409 -0.000828667 -0.00110871)
(0.00285615 -0.000337834 -0.00110871)
(0.00287142 0.000163266 -0.00110871)
(0.00279945 0.000659402 -0.00110872)
(0.00264241 0.0011355 -0.00110871)
(0.00240509 0.0015771 -0.00110872)
(0.00209469 0.00197078 -0.00110871)
(0.00172064 0.00230458 -0.00110871)
(0.00129432 0.00256836 -0.00110871)
(0.000828667 0.00275409 -0.00110871)
(0.000337834 0.00285615 -0.00110871)
(-0.000163265 0.00287142 -0.00110871)
(-0.000659402 0.00279945 -0.00110872)
(-0.0011355 0.00264241 -0.00110871)
(-0.00167581 0.00265358 -0.000888888)
(-0.00211114 0.00232226 -0.000888887)
(-0.00248232 0.00192039 -0.000888888)
(-0.00277808 0.00146016 -0.000888888)
(-0.00298943 0.000955571 -0.000888888)
(-0.00310995 0.00042194 -0.000888889)
(-0.00313597 -0.000124506 -0.000888888)
(-0.00306671 -0.00066717 -0.000888889)
(-0.00290427 -0.00118956 -0.000888888)
(-0.00265358 -0.00167581 -0.000888888)
(-0.00232226 -0.00211114 -0.000888887)
(-0.00192039 -0.00248232 -0.000888888)
(-0.00146016 -0.00277808 -0.000888888)
(-0.000955571 -0.00298943 -0.000888888)
(-0.00042194 -0.00310995 -0.000888889)
(0.000124506 -0.00313597 -0.000888888)
(0.00066717 -0.00306671 -0.000888889)
(0.00118956 -0.00290427 -0.000888888)
(0.00167581 -0.00265358 -0.000888888)
(0.00211114 -0.00232226 -0.000888887)
(0.00248232 -0.00192039 -0.000888888)
(0.00277808 -0.00146016 -0.000888888)
(0.00298943 -0.000955571 -0.000888888)
(0.00310995 -0.00042194 -0.000888889)
(0.00313597 0.000124506 -0.000888888)
(0.00306671 0.00066717 -0.000888889)
(0.00290427 0.00118956 -0.000888888)
(0.00265358 0.00167581 -0.000888888)
(0.00232226 0.00211114 -0.000888887)
(0.00192039 0.00248232 -0.000888888)
(0.00146016 0.00277808 -0.000888888)
(0.000955571 0.00298943 -0.000888888)
(0.00042194 0.00310995 -0.000888889)
(-0.000124506 0.00313597 -0.000888888)
(-0.00066717 0.00306671 -0.000888889)
(-0.00118956 0.00290427 -0.000888887)
(-0.00179041 0.00242652 -0.00204233)
(-0.00218457 0.00207875 -0.00204233)
(-0.00251235 0.00166783 -0.00204233)
(-0.0027638 0.00120622 -0.00204233)
(-0.00293127 0.000707969 -0.00204233)
(-0.00300968 0.000188201 -0.00204233)
(-0.00299663 -0.000337282 -0.00204233)
(-0.00289254 -0.000852519 -0.00204233)
(-0.00270056 -0.00134185 -0.00204233)
(-0.00242652 -0.00179041 -0.00204233)
(-0.00207875 -0.00218457 -0.00204233)
(-0.00166783 -0.00251235 -0.00204233)
(-0.00120622 -0.0027638 -0.00204233)
(-0.000707968 -0.00293127 -0.00204233)
(-0.0001882 -0.00300968 -0.00204233)
(0.000337283 -0.00299663 -0.00204233)
(0.000852519 -0.00289254 -0.00204233)
(0.00134185 -0.00270056 -0.00204233)
(0.00179041 -0.00242652 -0.00204233)
(0.00218457 -0.00207875 -0.00204233)
(0.00251235 -0.00166783 -0.00204233)
(0.0027638 -0.00120622 -0.00204233)
(0.00293127 -0.000707968 -0.00204233)
(0.00300968 -0.0001882 -0.00204233)
(0.00299663 0.000337283 -0.00204233)
(0.00289254 0.000852519 -0.00204233)
(0.00270056 0.00134185 -0.00204233)
(0.00242652 0.00179041 -0.00204233)
(0.00207875 0.00218457 -0.00204233)
(0.00166783 0.00251235 -0.00204233)
(0.00120622 0.0027638 -0.00204233)
(0.000707968 0.00293127 -0.00204233)
(0.0001882 0.00300968 -0.00204233)
(-0.000337282 0.00299663 -0.00204233)
(-0.000852519 0.00289254 -0.00204233)
(-0.00134185 0.00270056 -0.00204233)
(-0.00185023 0.00268336 -0.00178509)
(-0.00228808 0.0023213 -0.00178509)
(-0.00265641 0.00188872 -0.00178509)
(-0.00294402 0.00139874 -0.00178509)
(-0.00314218 0.000866269 -0.00178509)
(-0.00324487 0.000307474 -0.00178509)
(-0.00324897 -0.000260664 -0.00178509)
(-0.00315434 -0.000820881 -0.00178509)
(-0.00296388 -0.00135616 -0.00178509)
(-0.00268336 -0.00185023 -0.00178509)
(-0.0023213 -0.00228808 -0.00178509)
(-0.00188871 -0.00265641 -0.00178509)
(-0.00139874 -0.00294402 -0.00178509)
(-0.000866268 -0.00314218 -0.00178509)
(-0.000307474 -0.00324487 -0.00178509)
(0.000260664 -0.00324897 -0.00178509)
(0.000820881 -0.00315434 -0.00178509)
(0.00135616 -0.00296388 -0.00178509)
(0.00185023 -0.00268336 -0.00178509)
(0.00228808 -0.0023213 -0.00178509)
(0.00265641 -0.00188871 -0.00178509)
(0.00294402 -0.00139874 -0.00178509)
(0.00314218 -0.000866268 -0.00178509)
(0.00324487 -0.000307474 -0.00178509)
(0.00324897 0.000260664 -0.00178509)
(0.00315434 0.000820881 -0.00178509)
(0.00296388 0.00135616 -0.00178509)
(0.00268336 0.00185023 -0.00178509)
(0.0023213 0.00228808 -0.00178509)
(0.00188872 0.00265641 -0.00178509)
(0.00139874 0.00294402 -0.00178509)
(0.000866269 0.00314218 -0.00178509)
(0.000307474 0.00324487 -0.00178509)
(-0.000260664 0.00324897 -0.00178509)
(-0.000820881 0.00315435 -0.00178509)
(-0.00135616 0.00296388 -0.00178509)
(-0.00194463 0.00291434 -0.00153566)
(-0.00242116 0.00253238 -0.00153566)
(-0.00282412 0.00207348 -0.00153566)
(-0.00314127 0.00155158 -0.00153566)
(-0.00336297 0.000982528 -0.00153566)
(-0.0034825 0.000383628 -0.00153566)
(-0.0034962 -0.000226931 -0.00153566)
(-0.00340368 -0.000830591 -0.00153566)
(-0.00320774 -0.00140902 -0.00153566)
(-0.00291434 -0.00194463 -0.00153566)
(-0.00253238 -0.00242116 -0.00153566)
(-0.00207348 -0.00282412 -0.00153566)
(-0.00155158 -0.00314127 -0.00153566)
(-0.000982528 -0.00336297 -0.00153566)
(-0.000383628 -0.0034825 -0.00153566)
(0.000226931 -0.0034962 -0.00153566)
(0.000830591 -0.00340368 -0.00153566)
(0.00140902 -0.00320774 -0.00153566)
(0.00194463 -0.00291434 -0.00153566)
(0.00242116 -0.00253238 -0.00153566)
(0.00282412 -0.00207348 -0.00153566)
(0.00314127 -0.00155158 -0.00153566)
(0.00336297 -0.000982528 -0.00153566)
(0.0034825 -0.000383628 -0.00153566)
(0.0034962 0.000226931 -0.00153566)
(0.00340368 0.000830591 -0.00153566)
(0.00320774 0.00140902 -0.00153566)
(0.00291434 0.00194463 -0.00153566)
(0.00253238 0.00242116 -0.00153566)
(0.00207348 0.00282412 -0.00153566)
(0.00155158 0.00314127 -0.00153566)
(0.000982528 0.00336297 -0.00153566)
(0.000383628 0.0034825 -0.00153566)
(-0.000226931 0.00349621 -0.00153566)
(-0.000830591 0.00340368 -0.00153566)
(-0.00140902 0.00320774 -0.00153566)
(-0.00206086 0.00309729 -0.00130048)
(-0.00256739 0.00269237 -0.00130047)
(-0.00299591 0.00220564 -0.00130047)
(-0.0033334 0.0016519 -0.00130048)
(-0.00356961 0.00104797 -0.00130048)
(-0.00369735 0.000412194 -0.00130047)
(-0.00371276 -0.000236108 -0.00130048)
(-0.00361535 -0.000877237 -0.00130048)
(-0.0034081 -0.00149171 -0.00130047)
(-0.00309729 -0.00206086 -0.00130048)
(-0.00269237 -0.00256739 -0.00130048)
(-0.00220564 -0.00299591 -0.00130047)
(-0.0016519 -0.0033334 -0.00130048)
(-0.00104797 -0.00356961 -0.00130048)
(-0.000412194 -0.00369735 -0.00130047)
(0.000236108 -0.00371276 -0.00130048)
(0.000877237 -0.00361535 -0.00130048)
(0.00149171 -0.0034081 -0.00130047)
(0.00206086 -0.00309729 -0.00130048)
(0.00256739 -0.00269237 -0.00130048)
(0.00299591 -0.00220564 -0.00130047)
(0.0033334 -0.0016519 -0.00130048)
(0.00356961 -0.00104797 -0.00130048)
(0.00369735 -0.000412194 -0.00130047)
(0.00371276 0.000236108 -0.00130048)
(0.00361535 0.000877237 -0.00130048)
(0.0034081 0.00149171 -0.00130047)
(0.00309729 0.00206086 -0.00130048)
(0.00269237 0.00256739 -0.00130047)
(0.00220564 0.00299591 -0.00130047)
(0.0016519 0.0033334 -0.00130047)
(0.00104797 0.00356961 -0.00130048)
(0.000412194 0.00369735 -0.00130047)
(-0.000236108 0.00371276 -0.00130048)
(-0.000877237 0.00361535 -0.00130048)
(-0.00149171 0.0034081 -0.00130047)
(-0.00214086 0.00304971 -0.002525)
(-0.00263792 0.00263162 -0.002525)
(-0.00305482 0.00213357 -0.002525)
(-0.0033789 0.0015707 -0.002525)
(-0.00360031 0.000960093 -0.002525)
(-0.00371233 0.00032032 -0.002525)
(-0.00371156 -0.000329185 -0.002525)
(-0.00359801 -0.000968691 -0.002525)
(-0.00337514 -0.00157876 -0.002525)
(-0.00304971 -0.00214086 -0.002525)
(-0.00263162 -0.00263792 -0.002525)