/*--------------------------------*- C++ -*----------------------------------*\
| =========                 |                                                 |
| \\      /  F ield         | OpenFOAM: The Open Source CFD Toolbox           |
|  \\    /   O peration     | Version:  2312                                  |
|   \\  /    A nd           | Website:  www.openfoam.com                      |
|    \\/     M anipulation  |                                                 |
\*---------------------------------------------------------------------------*/
FoamFile
{
    version     2.0;
    format      ascii;
    arch        "LSB;label=32;scalar=64";
    class       volVectorField;
    location    "0.8";
    object      U;
}
// * * * * * * * * * * * * * * * * * * * * * * * * * * * * * * * * * * * * * //

dimensions      [0 1 -1 0 0 0 0];

internalField   nonuniform List<vector> 
1620
(
(-0.000100599 -0.000149273 -0.000111938)
(-7.31494e-05 -0.000164474 -0.000111938)
(-4.3478e-05 -0.000174677 -0.000111937)
(-1.24851e-05 -0.000179573 -0.000111937)
(1.88872e-05 -0.000179012 -0.000111937)
(4.96854e-05 -0.000173013 -0.000111937)
(7.89735e-05 -0.000161756 -0.000111937)
(0.000105862 -0.000145585 -0.000111937)
(0.000129536 -0.000124991 -0.000111937)
(0.000149272 -0.000100598 -0.000111937)
(0.000164474 -7.31491e-05 -0.000111938)
(0.000174677 -4.34777e-05 -0.000111937)
(0.000179572 -1.24848e-05 -0.000111937)
(0.000179012 1.88875e-05 -0.000111937)
(0.000173012 4.96856e-05 -0.000111937)
(0.000161756 7.89737e-05 -0.000111937)
(0.000145585 0.000105863 -0.000111937)
(0.000124991 0.000129536 -0.000111937)
(0.000100598 0.000149273 -0.000111937)
(7.31489e-05 0.000164474 -0.000111938)
(4.34775e-05 0.000174677 -0.000111937)
(1.24847e-05 0.000179573 -0.000111937)
(-1.88876e-05 0.000179012 -0.000111937)
(-4.96857e-05 0.000173013 -0.000111937)
(-7.89738e-05 0.000161757 -0.000111937)
(-0.000105863 0.000145585 -0.000111937)
(-0.000129536 0.000124991 -0.000111937)
(-0.000149273 0.000100598 -0.000111938)
(-0.000164474 7.31492e-05 -0.000111938)
(-0.000174677 4.34778e-05 -0.000111937)
(-0.000179573 1.2485e-05 -0.000111937)
(-0.000179012 -1.88874e-05 -0.000111937)
(-0.000173013 -4.96855e-05 -0.000111937)
(-0.000161757 -7.89736e-05 -0.000111937)
(-0.000145585 -0.000105863 -0.000111937)
(-0.000124991 -0.000129536 -0.000111937)
(-3.2316e-05 -5.9893e-05 -8.21821e-05)
(-2.14246e-05 -6.45948e-05 -8.21822e-05)
(-9.88243e-06 -6.73337e-05 -8.2182e-05)
(1.95986e-06 -6.80266e-05 -8.21817e-05)
(1.37425e-05 -6.66526e-05 -8.21817e-05)
(2.51076e-05 -6.32534e-05 -8.21817e-05)
(3.57099e-05 -5.79326e-05 -8.21816e-05)
(4.52274e-05 -5.08514e-05 -8.21817e-05)
(5.3371e-05 -4.22252e-05 -8.21819e-05)
(5.98928e-05 -3.23159e-05 -8.21819e-05)
(6.45947e-05 -2.14244e-05 -8.2182e-05)
(6.73335e-05 -9.88227e-06 -8.21818e-05)
(6.80265e-05 1.96002e-06 -8.21815e-05)
(6.66524e-05 1.37427e-05 -8.21816e-05)
(6.32533e-05 2.51078e-05 -8.21816e-05)
(5.79325e-05 3.57101e-05 -8.21815e-05)
(5.08512e-05 4.52275e-05 -8.21816e-05)
(4.2225e-05 5.33711e-05 -8.21818e-05)
(3.23157e-05 5.98929e-05 -8.21819e-05)
(2.14243e-05 6.45948e-05 -8.2182e-05)
(9.88212e-06 6.73337e-05 -8.21819e-05)
(-1.96017e-06 6.80266e-05 -8.21816e-05)
(-1.37428e-05 6.66526e-05 -8.21816e-05)
(-2.51079e-05 6.32534e-05 -8.21817e-05)
(-3.57102e-05 5.79326e-05 -8.21816e-05)
(-4.52276e-05 5.08514e-05 -8.21817e-05)
(-5.33712e-05 4.22252e-05 -8.2182e-05)
(-5.98931e-05 3.23159e-05 -8.21821e-05)
(-6.4595e-05 2.14244e-05 -8.21822e-05)
(-6.73338e-05 9.88228e-06 -8.2182e-05)
(-6.80268e-05 -1.96e-06 -8.21817e-05)
(-6.66527e-05 -1.37426e-05 -8.21818e-05)
(-6.32536e-05 -2.51077e-05 -8.21818e-05)
(-5.79328e-05 -3.57101e-05 -8.21817e-05)
(-5.08515e-05 -4.52275e-05 -8.21818e-05)
(-4.22254e-05 -5.33711e-05 -8.2182e-05)
(2.01858e-05 3.82123e-05 -5.11343e-05)
(1.32438e-05 4.11368e-05 -5.11343e-05)
(5.89918e-06 4.28119e-05 -5.11345e-05)
(-1.62468e-06 4.31861e-05 -5.11343e-05)
(-9.0995e-06 4.22478e-05 -5.11344e-05)
(-1.62979e-05 4.0026e-05 -5.11342e-05)
(-2.30006e-05 3.65875e-05 -5.11343e-05)
(-2.90047e-05 3.20377e-05 -5.11344e-05)
(-3.41269e-05 2.65145e-05 -5.11341e-05)
(-3.82125e-05 2.01858e-05 -5.11341e-05)
(-4.11369e-05 1.32439e-05 -5.11341e-05)
(-4.2812e-05 5.89922e-06 -5.11343e-05)
(-4.31862e-05 -1.62462e-06 -5.11341e-05)
(-4.22479e-05 -9.09943e-06 -5.11342e-05)
(-4.00261e-05 -1.62978e-05 -5.1134e-05)
(-3.65876e-05 -2.30005e-05 -5.11342e-05)
(-3.20379e-05 -2.90046e-05 -5.11343e-05)
(-2.65146e-05 -3.41268e-05 -5.11341e-05)
(-2.01859e-05 -3.82124e-05 -5.11341e-05)
(-1.3244e-05 -4.11368e-05 -5.11341e-05)
(-5.89937e-06 -4.2812e-05 -5.11344e-05)
(1.62447e-06 -4.31861e-05 -5.11342e-05)
(9.09928e-06 -4.22478e-05 -5.11343e-05)
(1.62977e-05 -4.0026e-05 -5.11341e-05)
(2.30004e-05 -3.65876e-05 -5.11343e-05)
(2.90044e-05 -3.20378e-05 -5.11344e-05)
(3.41267e-05 -2.65146e-05 -5.11342e-05)
(3.82123e-05 -2.01859e-05 -5.11342e-05)
(4.11367e-05 -1.3244e-05 -5.11343e-05)
(4.28119e-05 -5.89932e-06 -5.11345e-05)
(4.3186e-05 1.62453e-06 -5.11343e-05)
(4.22477e-05 9.09935e-06 -5.11344e-05)
(4.00259e-05 1.62977e-05 -5.11343e-05)
(3.65874e-05 2.30004e-05 -5.11344e-05)
(3.20377e-05 2.90045e-05 -5.11345e-05)
(2.65145e-05 3.41268e-05 -5.11343e-05)
(-0.000146642 -0.000404566 -0.00035685)
(-7.41622e-05 -0.000423885 -0.000356851)
(5.70504e-07 -0.000430323 -0.00035685)
(7.52857e-05 -0.000423685 -0.000356847)
(0.000147714 -0.000404173 -0.000356846)
(0.000215654 -0.000372383 -0.000356847)
(0.000277041 -0.000329277 -0.000356848)
(0.000330011 -0.000276167 -0.000356848)
(0.000372955 -0.000214666 -0.000356849)
(0.000404566 -0.000146642 -0.000356849)
(0.000423884 -7.41615e-05 -0.00035685)
(0.000430322 5.71123e-07 -0.000356849)
(0.000423684 7.52863e-05 -0.000356847)
(0.000404173 0.000147714 -0.000356846)
(0.000372382 0.000215654 -0.000356847)
(0.000329277 0.000277042 -0.000356847)
(0.000276166 0.000330012 -0.000356848)
(0.000214665 0.000372955 -0.000356849)
(0.000146641 0.000404566 -0.000356849)
(7.4161e-05 0.000423885 -0.00035685)
(-5.71611e-07 0.000430323 -0.00035685)
(-7.52867e-05 0.000423685 -0.000356847)
(-0.000147715 0.000404173 -0.000356846)
(-0.000215655 0.000372383 -0.000356847)
(-0.000277042 0.000329277 -0.000356848)
(-0.000330012 0.000276167 -0.000356848)
(-0.000372956 0.000214666 -0.000356849)
(-0.000404567 0.000146642 -0.00035685)
(-0.000423885 7.41616e-05 -0.000356851)
(-0.000430323 -5.70991e-07 -0.00035685)
(-0.000423685 -7.52861e-05 -0.000356848)
(-0.000404174 -0.000147714 -0.000356847)
(-0.000372383 -0.000215654 -0.000356847)
(-0.000329278 -0.000277042 -0.000356848)
(-0.000276168 -0.000330012 -0.000356849)
(-0.000214667 -0.000372955 -0.00035685)
(-9.62721e-05 -0.00016842 -0.000267212)
(-6.55634e-05 -0.000182579 -0.000267212)
(-3.28628e-05 -0.00019119 -0.000267212)
(8.35806e-07 -0.000193992 -0.000267211)
(3.45087e-05 -0.000190898 -0.000267211)
(6.71334e-05 -0.000182006 -0.000267211)
(9.77185e-05 -0.000167583 -0.000267211)
(0.000125334 -0.000148069 -0.000267211)
(0.000149143 -0.000124055 -0.000267211)
(0.000168419 -9.62717e-05 -0.000267211)
(0.000182579 -6.55629e-05 -0.000267212)
(0.00019119 -3.28623e-05 -0.000267212)
(0.000193991 8.36268e-07 -0.000267211)
(0.000190898 3.45091e-05 -0.00026721)
(0.000182005 6.71338e-05 -0.00026721)
(0.000167583 9.77189e-05 -0.00026721)
(0.000148068 0.000125335 -0.000267211)
(0.000124055 0.000149143 -0.000267211)
(9.62712e-05 0.00016842 -0.000267211)
(6.55624e-05 0.000182579 -0.000267212)
(3.28618e-05 0.00019119 -0.000267212)
(-8.36715e-07 0.000193991 -0.000267211)
(-3.45095e-05 0.000190898 -0.00026721)
(-6.71343e-05 0.000182006 -0.000267211)
(-9.77193e-05 0.000167583 -0.000267211)
(-0.000125335 0.000148069 -0.000267211)
(-0.000149144 0.000124055 -0.000267212)
(-0.00016842 9.62717e-05 -0.000267212)
(-0.00018258 6.55629e-05 -0.000267212)
(-0.000191191 3.28623e-05 -0.000267212)
(-0.000193992 -8.36242e-07 -0.000267211)
(-0.000190899 -3.45091e-05 -0.000267211)
(-0.000182006 -6.71338e-05 -0.000267211)
(-0.000167584 -9.77189e-05 -0.000267211)
(-0.000148069 -0.000125335 -0.000267211)
(-0.000124055 -0.000149143 -0.000267212)
(-7.52892e-05 7.75773e-05 -0.000177327)
(-8.76158e-05 6.33248e-05 -0.000177327)
(-9.72804e-05 4.71484e-05 -0.000177327)
(-0.00010399 2.954e-05 -0.000177327)
(-0.00010754 1.10336e-05 -0.000177327)
(-0.000107823 -7.80834e-06 -0.000177327)
(-0.000104829 -2.64134e-05 -0.000177327)
(-9.86505e-05 -4.42154e-05 -0.000177327)
(-8.94732e-05 -6.06741e-05 -0.000177327)
(-7.75777e-05 -7.52888e-05 -0.000177327)
(-6.33252e-05 -8.76154e-05 -0.000177326)
(-4.71488e-05 -9.72801e-05 -0.000177327)
(-2.95404e-05 -0.00010399 -0.000177326)
(-1.1034e-05 -0.00010754 -0.000177326)
(7.80794e-06 -0.000107823 -0.000177326)
(2.6413e-05 -0.000104829 -0.000177327)
(4.4215e-05 -9.86501e-05 -0.000177327)
(6.06737e-05 -8.94728e-05 -0.000177327)
(7.52884e-05 -7.75774e-05 -0.000177327)
(8.7615e-05 -6.33249e-05 -0.000177326)
(9.72797e-05 -4.71484e-05 -0.000177327)
(0.000103989 -2.954e-05 -0.000177327)
(0.000107539 -1.10336e-05 -0.000177327)
(0.000107822 7.80827e-06 -0.000177327)
(0.000104828 2.64134e-05 -0.000177327)
(9.86497e-05 4.42153e-05 -0.000177327)
(8.94724e-05 6.0674e-05 -0.000177327)
(7.7577e-05 7.52887e-05 -0.000177327)
(6.33245e-05 8.76153e-05 -0.000177327)
(4.71481e-05 9.728e-05 -0.000177327)
(2.95396e-05 0.000103989 -0.000177327)
(1.10332e-05 0.00010754 -0.000177327)
(-7.80869e-06 0.000107823 -0.000177327)
(-2.64138e-05 0.000104829 -0.000177327)
(-4.42157e-05 9.865e-05 -0.000177327)
(-6.06744e-05 8.94728e-05 -0.000177327)
(-0.00016749 -0.000562052 -0.000601272)
(-6.73461e-05 -0.000582598 -0.000601272)
(3.48436e-05 -0.000585441 -0.000601272)
(0.000135974 -0.000570495 -0.00060127)
(0.000232973 -0.000538215 -0.000601268)
(0.000322893 -0.000489582 -0.000601268)
(0.000403004 -0.000426074 -0.000601268)
(0.000470869 -0.00034962 -0.000601269)
(0.000524428 -0.000262543 -0.000601271)
(0.000562051 -0.000167489 -0.000601272)
(0.000582597 -6.73452e-05 -0.000601271)
(0.00058544 3.48445e-05 -0.000601271)
(0.000570494 0.000135975 -0.000601269)
(0.000538214 0.000232974 -0.000601267)
(0.000489582 0.000322894 -0.000601267)
(0.000426074 0.000403004 -0.000601268)
(0.000349619 0.00047087 -0.000601269)
(0.000262542 0.000524429 -0.000601271)
(0.000167488 0.000562052 -0.000601271)
(6.73444e-05 0.000582598 -0.000601271)
(-3.48453e-05 0.000585441 -0.000601271)
(-0.000135976 0.000570495 -0.000601269)
(-0.000232974 0.000538215 -0.000601268)
(-0.000322895 0.000489582 -0.000601268)
(-0.000403005 0.000426074 -0.000601268)
(-0.000470871 0.00034962 -0.00060127)
(-0.000524429 0.000262543 -0.000601271)
(-0.000562053 0.000167489 -0.000601272)
(-0.000582599 6.73453e-05 -0.000601272)
(-0.000585442 -3.48444e-05 -0.000601272)
(-0.000570496 -0.000135975 -0.00060127)
(-0.000538216 -0.000232973 -0.000601269)
(-0.000489583 -0.000322894 -0.000601268)
(-0.000426075 -0.000403004 -0.000601269)
(-0.000349621 -0.00047087 -0.00060127)
(-0.000262544 -0.000524429 -0.000601272)
(-0.00015669 -0.000238616 -0.000473989)
(-0.000112874 -0.0002622 -0.000473989)
(-6.5628e-05 -0.000277816 -0.000473989)
(-1.63891e-05 -0.000284991 -0.000473988)
(3.33472e-05 -0.000283506 -0.000473987)
(8.20711e-05 -0.000273409 -0.000473987)
(0.000128301 -0.000255004 -0.000473987)
(0.000170633 -0.000228851 -0.000473988)
(0.000207781 -0.000195744 -0.000473988)
(0.000238615 -0.000156689 -0.000473988)
(0.000262199 -0.000112873 -0.000473989)
(0.000277816 -6.56273e-05 -0.000473988)
(0.00028499 -1.63883e-05 -0.000473987)
(0.000283505 3.33479e-05 -0.000473986)
(0.000273408 8.20718e-05 -0.000473987)
(0.000255003 0.000128302 -0.000473987)
(0.00022885 0.000170634 -0.000473987)
(0.000195743 0.000207782 -0.000473988)
(0.000156688 0.000238616 -0.000473988)
(0.000112872 0.0002622 -0.000473989)
(6.56265e-05 0.000277816 -0.000473988)
(1.63876e-05 0.000284991 -0.000473988)
(-3.33487e-05 0.000283506 -0.000473987)
(-8.20726e-05 0.000273409 -0.000473987)
(-0.000128303 0.000255004 -0.000473987)
(-0.000170634 0.00022885 -0.000473988)
(-0.000207782 0.000195744 -0.000473989)
(-0.000238617 0.000156689 -0.000473989)
(-0.000262201 0.000112873 -0.000473989)
(-0.000277817 6.56273e-05 -0.000473989)
(-0.000284992 1.63883e-05 -0.000473989)
(-0.000283507 -3.33479e-05 -0.000473988)
(-0.00027341 -8.20718e-05 -0.000473988)
(-0.000255005 -0.000128302 -0.000473988)
(-0.000228851 -0.000170634 -0.000473988)
(-0.000195744 -0.000207782 -0.000473989)
(-0.000189064 8.0339e-05 -0.000350373)
(-0.000200142 4.62878e-05 -0.000350373)
(-0.000205138 1.08307e-05 -0.000350373)
(-0.000203903 -2.49553e-05 -0.000350373)
(-0.000196472 -5.99834e-05 -0.000350373)
(-0.000183072 -9.31895e-05 -0.000350373)
(-0.000164109 -0.000123564 -0.000350373)
(-0.000140159 -0.000150184 -0.000350373)
(-0.00011195 -0.000172241 -0.000350373)
(-8.03397e-05 -0.000189064 -0.000350372)
(-4.62885e-05 -0.000200141 -0.000350372)
(-1.08314e-05 -0.000205138 -0.000350373)
(2.49545e-05 -0.000203902 -0.000350373)
(5.99827e-05 -0.000196471 -0.000350373)
(9.31888e-05 -0.000183071 -0.000350373)
(0.000123563 -0.000164108 -0.000350372)
(0.000150184 -0.000140158 -0.000350372)
(0.00017224 -0.00011195 -0.000350372)
(0.000189063 -8.03391e-05 -0.000350372)
(0.00020014 -4.62879e-05 -0.000350372)
(0.000205137 -1.08308e-05 -0.000350373)
(0.000203901 2.49552e-05 -0.000350373)
(0.000196471 5.99833e-05 -0.000350373)
(0.000183071 9.31894e-05 -0.000350373)
(0.000164107 0.000123564 -0.000350373)
(0.000140158 0.000150184 -0.000350373)
(0.000111949 0.000172241 -0.000350373)
(8.03384e-05 0.000189064 -0.000350373)
(4.62872e-05 0.000200141 -0.000350373)
(1.08301e-05 0.000205138 -0.000350373)
(-2.49559e-05 0.000203902 -0.000350374)
(-5.9984e-05 0.000196471 -0.000350374)
(-9.31902e-05 0.000183071 -0.000350374)
(-0.000123565 0.000164108 -0.000350373)
(-0.000150185 0.000140158 -0.000350373)
(-0.000172242 0.000111949 -0.000350373)
(-0.000163498 -0.000586641 -0.000804613)
(-5.91447e-05 -0.00060612 -0.000804613)
(4.70053e-05 -0.000607181 -0.000804613)
(0.000151727 -0.000589794 -0.000804612)
(0.000251838 -0.000554486 -0.000804611)
(0.000344297 -0.00050233 -0.00080461)
(0.000426295 -0.000434913 -0.00080461)
(0.000495342 -0.000354279 -0.00080461)
(0.000549337 -0.000262881 -0.000804611)
(0.00058664 -0.000163496 -0.000804612)
(0.000606119 -5.91435e-05 -0.000804612)
(0.00060718 4.70065e-05 -0.000804611)
(0.000589792 0.000151728 -0.00080461)
(0.000554485 0.000251839 -0.00080461)
(0.000502329 0.000344298 -0.000804609)
(0.000434911 0.000426296 -0.000804609)
(0.000354278 0.000495343 -0.000804609)
(0.00026288 0.000549338 -0.00080461)
(0.000163495 0.000586641 -0.000804611)
(5.91424e-05 0.00060612 -0.000804612)
(-4.70076e-05 0.000607181 -0.000804612)
(-0.000151729 0.000589793 -0.000804611)
(-0.00025184 0.000554486 -0.00080461)
(-0.000344299 0.00050233 -0.00080461)
(-0.000426297 0.000434912 -0.00080461)
(-0.000495344 0.000354279 -0.00080461)
(-0.000549339 0.000262881 -0.000804612)
(-0.000586643 0.000163496 -0.000804613)
(-0.000606121 5.91436e-05 -0.000804614)
(-0.000607182 -4.70063e-05 -0.000804613)
(-0.000589795 -0.000151728 -0.000804612)
(-0.000554487 -0.000251839 -0.000804611)
(-0.000502332 -0.000344298 -0.000804611)
(-0.000434914 -0.000426296 -0.00080461)
(-0.000354281 -0.000495343 -0.000804611)
(-0.000262883 -0.000549338 -0.000804612)
(-0.000200744 -0.000249297 -0.000663085)
(-0.000154404 -0.000280368 -0.000663085)
(-0.000103372 -0.00030292 -0.000663085)
(-4.92001e-05 -0.000316268 -0.000663085)
(6.4667e-06 -0.000320007 -0.000663084)
(6.19365e-05 -0.000314022 -0.000663084)
(0.000115525 -0.000298496 -0.000663083)
(0.000165603 -0.000273901 -0.000663083)
(0.00021065 -0.000240983 -0.000663084)
(0.000249296 -0.000200742 -0.000663084)
(0.000280367 -0.000154402 -0.000663084)
(0.000302919 -0.000103371 -0.000663084)
(0.000316267 -4.91991e-05 -0.000663084)
(0.000320005 6.46773e-06 -0.000663083)
(0.000314021 6.19375e-05 -0.000663083)
(0.000298495 0.000115526 -0.000663083)
(0.0002739 0.000165604 -0.000663083)
(0.000240982 0.000210651 -0.000663083)
(0.000200741 0.000249297 -0.000663084)
(0.000154401 0.000280368 -0.000663084)
(0.00010337 0.00030292 -0.000663084)
(4.91981e-05 0.000316268 -0.000663084)
(-6.46872e-06 0.000320007 -0.000663084)
(-6.19385e-05 0.000314022 -0.000663084)
(-0.000115527 0.000298496 -0.000663084)
(-0.000165605 0.000273901 -0.000663084)
(-0.000210652 0.000240983 -0.000663085)
(-0.000249298 0.000200742 -0.000663085)
(-0.000280369 0.000154403 -0.000663085)
(-0.000302921 0.000103371 -0.000663085)
(-0.000316269 4.91991e-05 -0.000663085)
(-0.000320008 -6.46767e-06 -0.000663085)
(-0.000314023 -6.19374e-05 -0.000663084)
(-0.000298497 -0.000115526 -0.000663084)
(-0.000273902 -0.000165604 -0.000663084)
(-0.000240984 -0.000210651 -0.000663085)
(-0.000287086 6.37696e-05 -0.000533187)
(-0.000293797 1.29489e-05 -0.000533187)
(-0.000291582 -3.82645e-05 -0.000533187)
(-0.000280508 -8.83155e-05 -0.000533187)
(-0.00026091 -0.000135683 -0.000533187)
(-0.000233386 -0.000178929 -0.000533187)
(-0.00019877 -0.000216738 -0.000533187)
(-0.000158114 -0.000247961 -0.000533187)
(-0.000112654 -0.00027165 -0.000533186)
(-6.37706e-05 -0.000287085 -0.000533186)
(-1.29499e-05 -0.000293796 -0.000533186)
(3.82635e-05 -0.000291581 -0.000533186)
(8.83145e-05 -0.000280507 -0.000533186)
(0.000135682 -0.000260909 -0.000533186)
(0.000178928 -0.000233385 -0.000533186)
(0.000216737 -0.000198769 -0.000533186)
(0.00024796 -0.000158113 -0.000533186)
(0.000271649 -0.000112653 -0.000533186)
(0.000287084 -6.37697e-05 -0.000533186)
(0.000293795 -1.2949e-05 -0.000533186)
(0.00029158 3.82644e-05 -0.000533186)
(0.000280506 8.83154e-05 -0.000533186)
(0.000260908 0.000135683 -0.000533186)
(0.000233384 0.000178929 -0.000533187)
(0.000198768 0.000216738 -0.000533187)
(0.000158112 0.000247961 -0.000533187)
(0.000112652 0.00027165 -0.000533187)
(6.37687e-05 0.000287085 -0.000533187)
(1.2948e-05 0.000293796 -0.000533187)
(-3.82654e-05 0.000291581 -0.000533187)
(-8.83164e-05 0.000280507 -0.000533187)
(-0.000135684 0.000260909 -0.000533187)
(-0.00017893 0.000233385 -0.000533187)
(-0.000216739 0.000198769 -0.000533187)
(-0.000247962 0.000158113 -0.000533188)
(-0.000271651 0.000112653 -0.000533187)
(-0.000143045 -0.000489191 -0.000960562)
(-5.59248e-05 -0.000506599 -0.000960563)
(3.28946e-05 -0.000508613 -0.000960563)
(0.000120715 -0.000495173 -0.000960562)
(0.000204867 -0.000466688 -0.000960561)
(0.000282794 -0.000424023 -0.000960561)
(0.000352129 -0.000368475 -0.00096056)
(0.000410765 -0.00030173 -0.00096056)
(0.000456919 -0.000225818 -0.00096056)
(0.00048919 -0.000143044 -0.000960561)
(0.000506598 -5.59233e-05 -0.000960562)
(0.000508612 3.28961e-05 -0.000960561)
(0.000495172 0.000120716 -0.00096056)
(0.000466687 0.000204868 -0.00096056)
(0.000424022 0.000282796 -0.00096056)
(0.000368474 0.00035213 -0.00096056)
(0.000301729 0.000410766 -0.000960559)
(0.000225816 0.00045692 -0.00096056)
(0.000143042 0.000489191 -0.000960561)
(5.5922e-05 0.000506599 -0.000960562)
(-3.28974e-05 0.000508613 -0.000960561)
(-0.000120717 0.000495173 -0.000960561)
(-0.00020487 0.000466688 -0.000960561)
(-0.000282797 0.000424023 -0.000960561)
(-0.000352132 0.000368475 -0.000960561)
(-0.000410767 0.00030173 -0.000960561)
(-0.000456922 0.000225818 -0.000960561)
(-0.000489193 0.000143044 -0.000960562)
(-0.0005066 5.59235e-05 -0.000960563)
(-0.000508614 -3.28959e-05 -0.000960563)
(-0.000495175 -0.000120716 -0.000960562)
(-0.00046669 -0.000204868 -0.000960562)
(-0.000424025 -0.000282796 -0.000960562)
(-0.000368477 -0.00035213 -0.000960562)
(-0.000301732 -0.000410766 -0.000960561)
(-0.000225819 -0.00045692 -0.000960562)
(-0.000222281 -0.00018458 -0.000819414)
(-0.000186852 -0.000220375 -0.000819414)
(-0.000145745 -0.000249472 -0.000819414)
(-0.000100211 -0.00027099 -0.000819413)
(-5.16314e-05 -0.000284274 -0.000819413)
(-1.48328e-06 -0.000288921 -0.000819413)
(4.87101e-05 -0.000284789 -0.000819412)
(9.74238e-05 -0.000272004 -0.000819412)
(0.000143176 -0.000250954 -0.000819412)
(0.000184579 -0.000222279 -0.000819412)
(0.000220373 -0.00018685 -0.000819413)
(0.00024947 -0.000145744 -0.000819412)
(0.000270988 -0.000100209 -0.000819412)
(0.000284272 -5.16301e-05 -0.000819412)
(0.00028892 -1.48199e-06 -0.000819412)
(0.000284788 4.87114e-05 -0.000819412)
(0.000272003 9.7425e-05 -0.000819412)
(0.000250953 0.000143177 -0.000819412)
(0.000222278 0.00018458 -0.000819412)
(0.000186849 0.000220374 -0.000819413)
(0.000145743 0.000249472 -0.000819413)
(0.000100208 0.00027099 -0.000819412)
(5.16288e-05 0.000284274 -0.000819413)
(1.48076e-06 0.000288921 -0.000819413)
(-4.87126e-05 0.000284789 -0.000819413)
(-9.74263e-05 0.000272004 -0.000819413)
(-0.000143179 0.000250954 -0.000819413)
(-0.000184581 0.000222279 -0.000819414)
(-0.000220376 0.00018685 -0.000819414)
(-0.000249473 0.000145744 -0.000819414)
(-0.000270991 0.00010021 -0.000819414)
(-0.000284275 5.16302e-05 -0.000819414)
(-0.000288922 1.48206e-06 -0.000819413)
(-0.000284791 -4.87113e-05 -0.000819413)
(-0.000272006 -9.7425e-05 -0.000819413)
(-0.000250956 -0.000143177 -0.000819413)
(-0.000349307 7.70044e-05 -0.000699967)
(-0.000357372 1.51784e-05 -0.000699967)
(-0.000354578 -4.71086e-05 -0.000699966)
(-0.000341011 -0.000107965 -0.000699966)
(-0.000317083 -0.00016554 -0.000699966)
(-0.000283519 -0.000218086 -0.000699966)
(-0.000241342 -0.000264006 -0.000699966)
(-0.000191831 -0.000301903 -0.000699966)
(-0.000136492 -0.000330628 -0.000699966)
(-7.70057e-05 -0.000349306 -0.000699965)
(-1.51797e-05 -0.000357371 -0.000699965)
(4.71073e-05 -0.000354577 -0.000699965)
(0.000107963 -0.00034101 -0.000699965)
(0.000165539 -0.000317081 -0.000699965)
(0.000218085 -0.000283518 -0.000699965)
(0.000264004 -0.000241341 -0.000699965)
(0.000301902 -0.00019183 -0.000699965)
(0.000330626 -0.000136491 -0.000699965)
(0.000349305 -7.70045e-05 -0.000699965)
(0.00035737 -1.51784e-05 -0.000699965)
(0.000354576 4.71086e-05 -0.000699966)
(0.000341009 0.000107964 -0.000699966)
(0.00031708 0.00016554 -0.000699966)
(0.000283517 0.000218086 -0.000699966)
(0.000241339 0.000264006 -0.000699966)
(0.000191829 0.000301903 -0.000699966)
(0.00013649 0.000330628 -0.000699966)
(7.70032e-05 0.000349306 -0.000699967)
(1.51771e-05 0.000357371 -0.000699967)
(-4.71099e-05 0.000354577 -0.000699967)
(-0.000107966 0.00034101 -0.000699967)
(-0.000165541 0.000317081 -0.000699967)
(-0.000218087 0.000283518 -0.000699967)
(-0.000264007 0.000241341 -0.000699967)
(-0.000301905 0.00019183 -0.000699967)
(-0.000330629 0.000136491 -0.000699967)
(-0.000120596 -0.00030001 -0.00108879)
(-6.66671e-05 -0.000316393 -0.00108879)
(-1.07133e-05 -0.000323162 -0.00108879)
(4.55657e-05 -0.000320112 -0.00108879)
(0.000100461 -0.000307336 -0.00108879)
(0.000152304 -0.000285222 -0.00108879)
(0.000199518 -0.000254441 -0.00108879)
(0.00024067 -0.00021593 -0.00108879)
(0.00027451 -0.000170858 -0.00108879)
(0.000300008 -0.000120594 -0.00108879)
(0.000316391 -6.66653e-05 -0.00108879)
(0.00032316 -1.07115e-05 -0.00108879)
(0.000320111 4.55675e-05 -0.00108879)
(0.000307335 0.000100463 -0.00108879)
(0.00028522 0.000152305 -0.00108879)
(0.00025444 0.00019952 -0.00108879)
(0.000215928 0.000240672 -0.00108879)
(0.000170856 0.000274511 -0.00108879)
(0.000120592 0.00030001 -0.00108879)
(6.66637e-05 0.000316393 -0.00108879)
(1.071e-05 0.000323162 -0.00108879)
(-4.5569e-05 0.000320112 -0.00108879)
(-0.000100464 0.000307336 -0.00108879)
(-0.000152307 0.000285222 -0.00108879)
(-0.000199521 0.000254441 -0.00108879)
(-0.000240674 0.00021593 -0.00108879)
(-0.000274513 0.000170858 -0.00108879)
(-0.000300011 0.000120594 -0.00108879)
(-0.000316394 6.66655e-05 -0.00108879)
(-0.000323164 1.07118e-05 -0.00108879)
(-0.000320114 -4.55672e-05 -0.00108879)
(-0.000307338 -0.000100463 -0.00108879)
(-0.000285224 -0.000152305 -0.00108879)
(-0.000254443 -0.00019952 -0.00108879)
(-0.000215932 -0.000240672 -0.00108879)
(-0.000170859 -0.000274511 -0.00108879)
(-0.000227575 -4.52155e-05 -0.000950319)
(-0.000216266 -8.40461e-05 -0.00095032)
(-0.000198385 -0.000120323 -0.00095032)
(-0.000174478 -0.000152943 -0.000950319)
(-0.000145269 -0.000180917 -0.000950319)
(-0.000111645 -0.000203394 -0.000950318)
(-7.46296e-05 -0.000219691 -0.000950318)
(-3.53468e-05 -0.000229313 -0.000950318)
(5.00951e-06 -0.000231967 -0.000950318)
(4.5214e-05 -0.000227573 -0.000950318)
(8.40444e-05 -0.000216264 -0.000950318)
(0.000120321 -0.000198384 -0.000950318)
(0.000152942 -0.000174476 -0.000950318)
(0.000180916 -0.000145267 -0.000950317)
(0.000203392 -0.000111644 -0.000950317)
(0.000219689 -7.4628e-05 -0.000950317)
(0.000229311 -3.53453e-05 -0.000950318)
(0.000231965 5.011e-06 -0.000950317)
(0.000227571 4.52155e-05 -0.000950318)
(0.000216262 8.4046e-05 -0.000950318)
(0.000198382 0.000120323 -0.000950318)
(0.000174475 0.000152943 -0.000950319)
(0.000145266 0.000180917 -0.000950318)
(0.000111642 0.000203394 -0.000950318)
(7.46265e-05 0.000219691 -0.000950319)
(3.53438e-05 0.000229313 -0.000950319)
(-5.01258e-06 0.000231967 -0.000950319)
(-4.52171e-05 0.000227573 -0.000950319)
(-8.40476e-05 0.000216264 -0.00095032)
(-0.000120324 0.000198384 -0.00095032)
(-0.000152945 0.000174476 -0.00095032)
(-0.000180919 0.000145267 -0.00095032)
(-0.000203396 0.000111644 -0.00095032)
(-0.000219693 7.46281e-05 -0.000950319)
(-0.000229315 3.53453e-05 -0.00095032)
(-0.000231969 -5.01105e-06 -0.000950319)
(-0.000377859 0.000150776 -0.000843671)
(-0.0003983 8.28719e-05 -0.000843671)
(-0.00040664 1.24493e-05 -0.000843671)
(-0.000402624 -5.83513e-05 -0.000843671)
(-0.000386375 -0.00012738 -0.000843671)
(-0.000358385 -0.000192538 -0.00084367)
(-0.000319506 -0.000251845 -0.00084367)
(-0.00027092 -0.000303501 -0.00084367)
(-0.000214102 -0.000345935 -0.00084367)
(-0.000150778 -0.000377857 -0.00084367)
(-8.28735e-05 -0.000398299 -0.00084367)
(-1.24509e-05 -0.000406638 -0.000843669)
(5.83497e-05 -0.000402623 -0.00084367)
(0.000127378 -0.000386373 -0.000843669)
(0.000192536 -0.000358384 -0.000843669)
(0.000251844 -0.000319505 -0.000843669)
(0.000303499 -0.000270918 -0.000843669)
(0.000345933 -0.0002141 -0.000843669)
(0.000377856 -0.000150777 -0.00084367)
(0.000398297 -8.28719e-05 -0.00084367)
(0.000406637 -1.24494e-05 -0.00084367)
(0.000402621 5.83513e-05 -0.00084367)
(0.000386372 0.00012738 -0.00084367)
(0.000358382 0.000192538 -0.00084367)
(0.000319503 0.000251845 -0.00084367)
(0.000270917 0.000303501 -0.000843671)
(0.000214099 0.000345935 -0.000843671)
(0.000150775 0.000377857 -0.000843671)
(8.28704e-05 0.000398299 -0.000843671)
(1.24478e-05 0.000406639 -0.000843671)
(-5.83529e-05 0.000402623 -0.000843671)
(-0.000127381 0.000386373 -0.000843671)
(-0.000192539 0.000358384 -0.000843671)
(-0.000251847 0.000319505 -0.000843671)
(-0.000303503 0.000270918 -0.000843671)
(-0.000345936 0.0002141 -0.000843671)
(-0.000119489 -5.47291e-05 -0.00121412)
(-0.00010817 -7.46465e-05 -0.00121412)
(-9.35647e-05 -9.22951e-05 -0.00121412)
(-7.61169e-05 -0.00010714 -0.00121412)
(-5.63552e-05 -0.000118729 -0.00121412)
(-3.4882e-05 -0.000126711 -0.00121412)
(-1.23483e-05 -0.000130843 -0.00121412)
(1.05603e-05 -0.000130999 -0.00121412)
(3.31471e-05 -0.000127175 -0.00121412)
(5.47273e-05 -0.000119487 -0.00121412)
(7.46446e-05 -0.000108168 -0.00121412)
(9.22931e-05 -9.35626e-05 -0.00121412)
(0.000107138 -7.61149e-05 -0.00121412)
(0.000118727 -5.63532e-05 -0.00121412)
(0.000126709 -3.48801e-05 -0.00121412)
(0.000130841 -1.23464e-05 -0.00121412)
(0.000130997 1.05621e-05 -0.00121412)
(0.000127173 3.31489e-05 -0.00121412)
(0.000119485 5.47291e-05 -0.00121412)
(0.000108166 7.46464e-05 -0.00121412)
(9.35609e-05 9.22949e-05 -0.00121412)
(7.61132e-05 0.00010714 -0.00121412)
(5.63515e-05 0.000118729 -0.00121412)
(3.48784e-05 0.000126711 -0.00121412)
(1.23447e-05 0.000130843 -0.00121412)
(-1.05639e-05 0.000130999 -0.00121412)
(-3.31507e-05 0.000127175 -0.00121412)
(-5.4731e-05 0.000119487 -0.00121412)
(-7.46484e-05 0.000108168 -0.00121412)
(-9.22969e-05 9.3563e-05 -0.00121412)
(-0.000107142 7.61152e-05 -0.00121412)
(-0.000118731 5.63535e-05 -0.00121412)
(-0.000126713 3.48803e-05 -0.00121412)
(-0.000130845 1.23466e-05 -0.00121412)
(-0.000131001 -1.0562e-05 -0.00121412)
(-0.000127177 -3.31489e-05 -0.00121412)
(-0.000235809 0.000148285 -0.00107236)
(-0.000257975 0.000105084 -0.00107236)
(-0.000272304 5.86918e-05 -0.00107236)
(-0.000278359 1.05154e-05 -0.00107236)
(-0.000275955 -3.79806e-05 -0.00107236)
(-0.000265168 -8.5322e-05 -0.00107236)
(-0.000246323 -0.000130071 -0.00107236)
(-0.000219994 -0.000170869 -0.00107236)
(-0.000186981 -0.000206474 -0.00107236)
(-0.000148287 -0.000235806 -0.00107236)
(-0.000105086 -0.000257973 -0.00107236)
(-5.86937e-05 -0.000272302 -0.00107236)
(-1.05173e-05 -0.000278357 -0.00107236)
(3.79786e-05 -0.000275953 -0.00107236)
(8.532e-05 -0.000265166 -0.00107236)
(0.000130069 -0.000246321 -0.00107236)
(0.000170867 -0.000219992 -0.00107236)
(0.000206473 -0.000186979 -0.00107236)
(0.000235805 -0.000148285 -0.00107236)
(0.000257971 -0.000105084 -0.00107236)
(0.0002723 -5.86919e-05 -0.00107236)
(0.000278355 -1.05154e-05 -0.00107236)
(0.000275951 3.79806e-05 -0.00107236)
(0.000265164 8.53221e-05 -0.00107236)
(0.000246319 0.000130071 -0.00107236)
(0.00021999 0.000170869 -0.00107236)
(0.000186978 0.000206475 -0.00107236)
(0.000148283 0.000235807 -0.00107236)
(0.000105083 0.000257973 -0.00107236)
(5.86899e-05 0.000272302 -0.00107237)
(1.05135e-05 0.000278357 -0.00107237)
(-3.79825e-05 0.000275953 -0.00107237)
(-8.5324e-05 0.000265166 -0.00107236)
(-0.000130073 0.000246321 -0.00107236)
(-0.000170871 0.000219992 -0.00107236)
(-0.000206477 0.000186979 -0.00107236)
(-0.00038979 0.000281396 -0.000970389)
(-0.000432732 0.000209435 -0.000970389)
(-0.000462526 0.000131111 -0.000970389)
(-0.000478266 4.88021e-05 -0.000970389)
(-0.000479475 -3.4989e-05 -0.000970388)
(-0.000466114 -0.000117717 -0.000970388)
(-0.000438592 -0.000196868 -0.000970388)
(-0.000397742 -0.000270038 -0.000970388)
(-0.000344809 -0.000335002 -0.000970387)
(-0.000281397 -0.000389788 -0.000970388)
(-0.000209437 -0.00043273 -0.000970387)
(-0.000131112 -0.000462524 -0.000970387)
(-4.8804e-05 -0.000478264 -0.000970387)
(3.49872e-05 -0.000479473 -0.000970387)
(0.000117715 -0.000466113 -0.000970387)