/*--------------------------------*- C++ -*----------------------------------*\
| =========                 |                                                 |
| \\      /  F ield         | OpenFOAM: The Open Source CFD Toolbox           |
|  \\    /   O peration     | Version:  2312                                  |
|   \\  /    A nd           | Website:  www.openfoam.com                      |
|    \\/     M anipulation  |                                                 |
\*---------------------------------------------------------------------------*/
FoamFile
{
    version     2.0;
    format      ascii;
    arch        "LSB;label=32;scalar=64";
    class       volVectorField;
    location    "0";
    object      dx_dv;
}
// * * * * * * * * * * * * * * * * * * * * * * * * * * * * * * * * * * * * * //

dimensions      [0 0 0 0 0 0 0];

internalField   nonuniform List<vector> 
1620
(
(0.999964 -0.00846796 0)
(0.999684 -0.0251449 0)
(0.999157 -0.0410532 0)
(0.998447 -0.0557079 0)
(0.99764 -0.0686637 0)
(0.996833 -0.0795286 0)
(0.996123 -0.0879754 0)
(0.995596 -0.0937508 0)
(0.995315 -0.0966822 0)
(0.995315 -0.0966822 0)
(0.995596 -0.0937508 0)
(0.996123 -0.0879754 0)
(0.996833 -0.0795286 0)
(0.99764 -0.0686637 0)
(0.998447 -0.0557079 0)
(0.999157 -0.0410532 0)
(0.999684 -0.0251449 0)
(0.999964 -0.00846796 0)
(0.999964 0.00846796 0)
(0.999684 0.0251449 0)
(0.999157 0.0410532 0)
(0.998447 0.0557079 0)
(0.99764 0.0686637 0)
(0.996833 0.0795286 0)
(0.996123 0.0879754 0)
(0.995596 0.0937508 0)
(0.995315 0.0966822 0)
(0.995315 0.0966822 0)
(0.995596 0.0937508 0)
(0.996123 0.0879754 0)
(0.996833 0.0795286 0)
(0.99764 0.0686637 0)
(0.998447 0.0557079 0)
(0.999157 0.0410532 0)
(0.999684 0.0251449 0)
(0.999964 0.00846796 0)
(0.999965 -0.0083498 0)
(0.999693 -0.0247943 0)
(0.99918 -0.0404815 0)
(0.99849 -0.0549331 0)
(0.997705 -0.0677104 0)
(0.99692 -0.0784263 0)
(0.996229 -0.0867578 0)
(0.995717 -0.0924547 0)
(0.995444 -0.0953464 0)
(0.995444 -0.0953464 0)
(0.995717 -0.0924547 0)
(0.996229 -0.0867578 0)
(0.99692 -0.0784263 0)
(0.997705 -0.0677104 0)
(0.99849 -0.0549331 0)
(0.99918 -0.0404815 0)
(0.999693 -0.0247943 0)
(0.999965 -0.0083498 0)
(0.999965 0.0083498 0)
(0.999693 0.0247943 0)
(0.99918 0.0404815 0)
(0.99849 0.0549331 0)
(0.997705 0.0677104 0)
(0.99692 0.0784263 0)
(0.996229 0.0867578 0)
(0.995717 0.0924547 0)
(0.995444 0.0953464 0)
(0.995444 0.0953464 0)
(0.995717 0.0924547 0)
(0.996229 0.0867578 0)
(0.99692 0.0784263 0)
(0.997705 0.0677104 0)
(0.99849 0.0549331 0)
(0.99918 0.0404815 0)
(0.999693 0.0247943 0)
(0.999965 0.0083498 0)
(0.999965 -0.00833888 0)
(0.999693 -0.024762 0)
(0.999182 -0.0404294 0)
(0.998494 -0.0548637 0)
(0.997711 -0.0676262 0)
(0.996927 -0.0783305 0)
(0.996238 -0.0866536 0)
(0.995727 -0.092345 0)
(0.995455 -0.095234 0)
(0.995455 -0.095234 0)
(0.995727 -0.092345 0)
(0.996238 -0.0866536 0)
(0.996927 -0.0783305 0)
(0.997711 -0.0676262 0)
(0.998494 -0.0548637 0)
(0.999182 -0.0404294 0)
(0.999693 -0.024762 0)
(0.999965 -0.00833888 0)
(0.999965 0.00833888 0)
(0.999693 0.024762 0)
(0.999182 0.0404294 0)
(0.998494 0.0548637 0)
(0.997711 0.0676262 0)
(0.996927 0.0783305 0)
(0.996238 0.0866536 0)
(0.995727 0.092345 0)
(0.995455 0.095234 0)
(0.995455 0.095234 0)
(0.995727 0.092345 0)
(0.996238 0.0866536 0)
(0.996927 0.0783305 0)
(0.997711 0.0676262 0)
(0.998494 0.0548637 0)
(0.999182 0.0404294 0)
(0.999693 0.024762 0)
(0.999965 0.00833888 0)
(0.999964 -0.00853717 0)
(0.999679 -0.0253503 0)
(0.999143 -0.0413885 0)
(0.998422 -0.0561627 0)
(0.997601 -0.0692239 0)
(0.996781 -0.080177 0)
(0.996059 -0.0886924 0)
(0.995523 -0.0945145 0)
(0.995238 -0.0974696 0)
(0.995238 -0.0974696 0)
(0.995523 -0.0945145 0)
(0.996059 -0.0886924 0)
(0.996781 -0.080177 0)
(0.997601 -0.0692239 0)
(0.998422 -0.0561627 0)
(0.999143 -0.0413885 0)
(0.999679 -0.0253503 0)
(0.999964 -0.00853717 0)
(0.999964 0.00853717 0)
(0.999679 0.0253503 0)
(0.999143 0.0413885 0)
(0.998422 0.0561627 0)
(0.997601 0.0692239 0)
(0.996781 0.080177 0)
(0.996059 0.0886924 0)
(0.995523 0.0945145 0)
(0.995238 0.0974696 0)
(0.995238 0.0974696 0)
(0.995523 0.0945145 0)
(0.996059 0.0886924 0)
(0.996781 0.080177 0)
(0.997601 0.0692239 0)
(0.998422 0.0561627 0)
(0.999143 0.0413885 0)
(0.999679 0.0253503 0)
(0.999964 0.00853717 0)
(0.999964 -0.00845564 0)
(0.999685 -0.0251085 0)
(0.999159 -0.0409943 0)
(0.998452 -0.0556288 0)
(0.997646 -0.0685675 0)
(0.996841 -0.0794187 0)
(0.996133 -0.0878553 0)
(0.995608 -0.0936239 0)
(0.995328 -0.0965519 0)
(0.995328 -0.0965519 0)
(0.995608 -0.0936239 0)
(0.996133 -0.0878553 0)
(0.996841 -0.0794187 0)
(0.997646 -0.0685675 0)
(0.998452 -0.0556288 0)
(0.999159 -0.0409943 0)
(0.999685 -0.0251085 0)
(0.999964 -0.00845564 0)
(0.999964 0.00845564 0)
(0.999685 0.0251085 0)
(0.999159 0.0409943 0)
(0.998452 0.0556288 0)
(0.997646 0.0685675 0)
(0.996841 0.0794187 0)
(0.996133 0.0878553 0)
(0.995608 0.0936239 0)
(0.995328 0.0965519 0)
(0.995328 0.0965519 0)
(0.995608 0.0936239 0)
(0.996133 0.0878553 0)
(0.996841 0.0794187 0)
(0.997646 0.0685675 0)
(0.998452 0.0556288 0)
(0.999159 0.0409943 0)
(0.999685 0.0251085 0)
(0.999964 0.00845564 0)
(0.999964 -0.00848897 0)
(0.999682 -0.0252076 0)
(0.999153 -0.0411567 0)
(0.998439 -0.0558504 0)
(0.997628 -0.0688421 0)
(0.996816 -0.0797385 0)
(0.996102 -0.0882107 0)
(0.995572 -0.0940039 0)
(0.99529 -0.0969446 0)
(0.99529 -0.0969446 0)
(0.995572 -0.0940039 0)
(0.996102 -0.0882107 0)
(0.996816 -0.0797385 0)
(0.997628 -0.0688421 0)
(0.998439 -0.0558504 0)
(0.999153 -0.0411567 0)
(0.999682 -0.0252076 0)
(0.999964 -0.00848897 0)
(0.999964 0.00848897 0)
(0.999682 0.0252076 0)
(0.999153 0.0411567 0)
(0.998439 0.0558504 0)
(0.997628 0.0688421 0)
(0.996816 0.0797385 0)
(0.996102 0.0882107 0)
(0.995572 0.0940039 0)
(0.99529 0.0969446 0)
(0.99529 0.0969446 0)
(0.995572 0.0940039 0)
(0.996102 0.0882107 0)
(0.996816 0.0797385 0)
(0.997628 0.0688421 0)
(0.998439 0.0558504 0)
(0.999153 0.0411567 0)
(0.999682 0.0252076 0)
(0.999964 0.00848897 0)
(0.999963 -0.0085858 0)
(0.999675 -0.0254948 0)
(0.999133 -0.0416243 0)
(0.998404 -0.0564825 0)
(0.997574 -0.0696179 0)
(0.996744 -0.0806332 0)
(0.996014 -0.0891968 0)
(0.995472 -0.0950519 0)
(0.995184 -0.0980238 0)
(0.995184 -0.0980238 0)
(0.995472 -0.0950519 0)
(0.996014 -0.0891968 0)
(0.996744 -0.0806332 0)
(0.997574 -0.0696179 0)
(0.998404 -0.0564825 0)
(0.999133 -0.0416243 0)
(0.999675 -0.0254948 0)
(0.999963 -0.0085858 0)
(0.999963 0.0085858 0)
(0.999675 0.0254948 0)
(0.999133 0.0416243 0)
(0.998404 0.0564825 0)
(0.997574 0.0696179 0)
(0.996744 0.0806332 0)
(0.996014 0.0891968 0)
(0.995472 0.0950519 0)
(0.995184 0.0980238 0)
(0.995184 0.0980238 0)
(0.995472 0.0950519 0)
(0.996014 0.0891968 0)
(0.996744 0.0806332 0)
(0.997574 0.0696179 0)
(0.998404 0.0564825 0)
(0.999133 0.0416243 0)
(0.999675 0.0254948 0)
(0.999963 0.0085858 0)
(0.999964 -0.008501 0)
(0.999681 -0.0252431 0)
(0.99915 -0.0412141 0)
(0.998435 -0.055927 0)
(0.997621 -0.0689349 0)
(0.996807 -0.079844 0)
(0.996092 -0.0883256 0)
(0.99556 -0.094125 0)
(0.995278 -0.0970687 0)
(0.995278 -0.0970687 0)
(0.99556 -0.094125 0)
(0.996092 -0.0883256 0)
(0.996807 -0.079844 0)
(0.997621 -0.0689349 0)
(0.998435 -0.055927 0)
(0.99915 -0.0412141 0)
(0.999681 -0.0252431 0)
(0.999964 -0.008501 0)
(0.999964 0.008501 0)
(0.999681 0.0252431 0)
(0.99915 0.0412141 0)
(0.998435 0.055927 0)
(0.997621 0.0689349 0)
(0.996807 0.079844 0)
(0.996092 0.0883256 0)
(0.99556 0.094125 0)
(0.995278 0.0970687 0)
(0.995278 0.0970687 0)
(0.99556 0.094125 0)
(0.996092 0.0883256 0)
(0.996807 0.079844 0)
(0.997621 0.0689349 0)
(0.998435 0.055927 0)
(0.99915 0.0412141 0)
(0.999681 0.0252431 0)
(0.999964 0.008501 0)
(0.999964 -0.00854281 0)
(0.999678 -0.0253675 0)
(0.999142 -0.0414176 0)
(0.998419 -0.0562043 0)
(0.997597 -0.0692782 0)
(0.996775 -0.0802435 0)
(0.996052 -0.0887692 0)
(0.995515 -0.094599 0)
(0.99523 -0.0975582 0)
(0.99523 -0.0975582 0)
(0.995515 -0.094599 0)
(0.996052 -0.0887692 0)
(0.996775 -0.0802435 0)
(0.997597 -0.0692782 0)
(0.998419 -0.0562043 0)
(0.999142 -0.0414176 0)
(0.999678 -0.0253675 0)
(0.999964 -0.00854281 0)
(0.999964 0.00854281 0)
(0.999678 0.0253675 0)
(0.999142 0.0414176 0)
(0.998419 0.0562043 0)
(0.997597 0.0692782 0)
(0.996775 0.0802435 0)
(0.996052 0.0887692 0)
(0.995515 0.094599 0)
(0.99523 0.0975582 0)
(0.99523 0.0975582 0)
(0.995515 0.094599 0)
(0.996052 0.0887692 0)
(0.996775 0.0802435 0)
(0.997597 0.0692782 0)
(0.998419 0.0562043 0)
(0.999142 0.0414176 0)
(0.999678 0.0253675 0)
(0.999964 0.00854281 0)
(0.999963 -0.00855611 0)
(0.999677 -0.0254066 0)
(0.999139 -0.0414804 0)
(0.998415 -0.0562873 0)
(0.99759 -0.0693774 0)
(0.996766 -0.0803548 0)
(0.996042 -0.088889 0)
(0.995504 -0.094724 0)
(0.995217 -0.0976856 0)
(0.995217 -0.0976856 0)
(0.995504 -0.094724 0)
(0.996042 -0.088889 0)
(0.996766 -0.0803548 0)
(0.99759 -0.0693774 0)
(0.998415 -0.0562873 0)
(0.999139 -0.0414804 0)
(0.999677 -0.0254066 0)
(0.999963 -0.00855611 0)
(0.999963 0.00855611 0)
(0.999677 0.0254066 0)
(0.999139 0.0414804 0)
(0.998415 0.0562873 0)
(0.99759 0.0693774 0)
(0.996766 0.0803548 0)
(0.996042 0.088889 0)
(0.995504 0.094724 0)
(0.995217 0.0976856 0)
(0.995217 0.0976856 0)
(0.995504 0.094724 0)
(0.996042 0.088889 0)
(0.996766 0.0803548 0)
(0.99759 0.0693774 0)
(0.998415 0.0562873 0)
(0.999139 0.0414804 0)
(0.999677 0.0254066 0)
(0.999963 0.00855611 0)
(0.999964 -0.00846167 0)
(0.999684 -0.0251264 0)
(0.999158 -0.0410235 0)
(0.998449 -0.0556685 0)
(0.997643 -0.0686163 0)
(0.996837 -0.0794751 0)
(0.996128 -0.0879177 0)
(0.995601 -0.0936904 0)
(0.995321 -0.0966205 0)
(0.995321 -0.0966205 0)
(0.995601 -0.0936904 0)
(0.996128 -0.0879177 0)
(0.996837 -0.0794751 0)
(0.997643 -0.0686163 0)
(0.998449 -0.0556685 0)
(0.999158 -0.0410235 0)
(0.999684 -0.0251264 0)
(0.999964 -0.00846167 0)
(0.999964 0.00846167 0)
(0.999684 0.0251264 0)
(0.999158 0.0410235 0)
(0.998449 0.0556685 0)
(0.997643 0.0686163 0)
(0.996837 0.0794751 0)
(0.996128 0.0879177 0)
(0.995601 0.0936904 0)
(0.995321 0.0966205 0)
(0.995321 0.0966205 0)
(0.995601 0.0936904 0)
(0.996128 0.0879177 0)
(0.996837 0.0794751 0)
(0.997643 0.0686163 0)
(0.998449 0.0556685 0)
(0.999158 0.0410235 0)
(0.999684 0.0251264 0)
(0.999964 0.00846167 0)
(0.999964 -0.00850044 0)
(0.999681 -0.0252417 0)
(0.99915 -0.0412123 0)
(0.998435 -0.0559258 0)
(0.997621 -0.0689349 0)
(0.996807 -0.0798459 0)
(0.996091 -0.0883295 0)
(0.99556 -0.0941306 0)
(0.995277 -0.0970752 0)
(0.995277 -0.0970752 0)
(0.99556 -0.0941306 0)
(0.996091 -0.0883295 0)
(0.996807 -0.0798459 0)
(0.997621 -0.0689349 0)
(0.998435 -0.0559258 0)
(0.99915 -0.0412123 0)
(0.999681 -0.0252417 0)
(0.999964 -0.00850044 0)
(0.999964 0.00850044 0)
(0.999681 0.0252417 0)
(0.99915 0.0412123 0)
(0.998435 0.0559258 0)
(0.997621 0.0689349 0)
(0.996807 0.0798459 0)
(0.996091 0.0883295 0)
(0.99556 0.0941306 0)
(0.995277 0.0970752 0)
(0.995277 0.0970752 0)
(0.99556 0.0941306 0)
(0.996091 0.0883295 0)
(0.996807 0.0798459 0)
(0.997621 0.0689349 0)
(0.998435 0.0559258 0)
(0.99915 0.0412123 0)
(0.999681 0.0252417 0)
(0.999964 0.00850044 0)
(0.999964 -0.00844169 0)
(0.999686 -0.0250669 0)
(0.999162 -0.0409259 0)
(0.998457 -0.0555351 0)
(0.997655 -0.0684506 0)
(0.996852 -0.0792818 0)
(0.996147 -0.0877024 0)
(0.995623 -0.0934599 0)
(0.995344 -0.0963821 0)
(0.995344 -0.0963821 0)
(0.995623 -0.0934599 0)
(0.996147 -0.0877024 0)
(0.996852 -0.0792818 0)
(0.997655 -0.0684506 0)
(0.998457 -0.0555351 0)
(0.999162 -0.0409259 0)
(0.999686 -0.0250669 0)
(0.999964 -0.00844169 0)
(0.999964 0.00844169 0)
(0.999686 0.0250669 0)
(0.999162 0.0409259 0)
(0.998457 0.0555351 0)
(0.997655 0.0684506 0)
(0.996852 0.0792818 0)
(0.996147 0.0877024 0)
(0.995623 0.0934599 0)
(0.995344 0.0963821 0)
(0.995344 0.0963821 0)
(0.995623 0.0934599 0)
(0.996147 0.0877024 0)
(0.996852 0.0792818 0)
(0.997655 0.0684506 0)
(0.998457 0.0555351 0)
(0.999162 0.0409259 0)
(0.999686 0.0250669 0)
(0.999964 0.00844169 0)
(0.999965 -0.00833421 0)
(0.999694 -0.024748 0)
(0.999183 -0.0404057 0)
(0.998496 -0.0548304 0)
(0.997714 -0.0675837 0)
(0.996931 -0.0782795 0)
(0.996244 -0.0865954 0)
(0.995733 -0.0922816 0)
(0.995461 -0.0951678 0)
(0.995461 -0.0951678 0)
(0.995733 -0.0922816 0)
(0.996244 -0.0865954 0)
(0.996931 -0.0782795 0)
(0.997714 -0.0675837 0)
(0.998496 -0.0548304 0)
(0.999183 -0.0404057 0)
(0.999694 -0.024748 0)
(0.999965 -0.00833421 0)
(0.999965 0.00833421 0)
(0.999694 0.024748 0)
(0.999183 0.0404057 0)
(0.998496 0.0548304 0)
(0.997714 0.0675837 0)
(0.996931 0.0782795 0)
(0.996244 0.0865954 0)
(0.995733 0.0922816 0)
(0.995461 0.0951678 0)
(0.995461 0.0951678 0)
(0.995733 0.0922816 0)
(0.996244 0.0865954 0)
(0.996931 0.0782795 0)
(0.997714 0.0675837 0)
(0.998496 0.0548304 0)
(0.999183 0.0404057 0)
(0.999694 0.024748 0)
(0.999965 0.00833421 0)
(0.999965 -0.00836448 0)
(0.999691 -0.024838 0)
(0.999177 -0.0405533 0)
(0.998485 -0.0550318 0)
(0.997697 -0.0678333 0)
(0.996909 -0.0785703 0)
(0.996215 -0.0869187 0)
(0.995701 -0.0926274 0)
(0.995427 -0.0955251 0)
(0.995427 -0.0955251 0)
(0.995701 -0.0926274 0)
(0.996215 -0.0869187 0)
(0.996909 -0.0785703 0)
(0.997697 -0.0678333 0)
(0.998485 -0.0550318 0)
(0.999177 -0.0405533 0)
(0.999691 -0.024838 0)
(0.999965 -0.00836448 0)
(0.999965 0.00836448 0)
(0.999691 0.024838 0)
(0.999177 0.0405533 0)
(0.998485 0.0550318 0)
(0.997697 0.0678333 0)
(0.996909 0.0785703 0)
(0.996215 0.0869187 0)
(0.995701 0.0926274 0)
(0.995427 0.0955251 0)
(0.995427 0.0955251 0)
(0.995701 0.0926274 0)
(0.996215 0.0869187 0)
(0.996909 0.0785703 0)
(0.997697 0.0678333 0)
(0.998485 0.0550318 0)
(0.999177 0.0405533 0)
(0.999691 0.024838 0)
(0.999965 0.00836448 0)
(0.999966 -0.00824002 0)
(0.999701 -0.0244681 0)
(0.999202 -0.0399485 0)
(0.99853 -0.0542093 0)
(0.997765 -0.0668172 0)
(0.997001 -0.0773906 0)
(0.996329 -0.0856109 0)
(0.99583 -0.0912316 0)
(0.995564 -0.0940846 0)
(0.995564 -0.0940846 0)
(0.99583 -0.0912316 0)
(0.996329 -0.0856109 0)
(0.997001 -0.0773906 0)
(0.997765 -0.0668172 0)
(0.99853 -0.0542093 0)
(0.999202 -0.0399485 0)
(0.999701 -0.0244681 0)
(0.999966 -0.00824002 0)
(0.999966 0.00824002 0)
(0.999701 0.0244681 0)
(0.999202 0.0399485 0)
(0.99853 0.0542093 0)
(0.997765 0.0668172 0)
(0.997001 0.0773906 0)
(0.996329 0.0856109 0)
(0.99583 0.0912316 0)
(0.995564 0.0940846 0)
(0.995564 0.0940846 0)
(0.99583 0.0912316 0)
(0.996329 0.0856109 0)
(0.997001 0.0773906 0)
(0.997765 0.0668172 0)
(0.99853 0.0542093 0)
(0.999202 0.0399485 0)
(0.999701 0.0244681 0)
(0.999966 0.00824002 0)
(0.999967 -0.00811757 0)
(0.999709 -0.0241047 0)
(0.999225 -0.0393558 0)
(0.998573 -0.053406 0)
(0.997831 -0.0658286 0)
(0.997089 -0.0762473 0)
(0.996436 -0.0843479 0)
(0.995952 -0.089887 0)
(0.995694 -0.0926986 0)
(0.995694 -0.0926986 0)
(0.995952 -0.089887 0)
(0.996436 -0.0843479 0)
(0.997089 -0.0762473 0)
(0.997831 -0.0658286 0)
(0.998573 -0.053406 0)
(0.999225 -0.0393558 0)
(0.999709 -0.0241047 0)
(0.999967 -0.00811757 0)
(0.999967 0.00811757 0)
(0.999709 0.0241047 0)
(0.999225 0.0393558 0)
(0.998573 0.053406 0)
(0.997831 0.0658286 0)
(0.997089 0.0762473 0)
(0.996436 0.0843479 0)
(0.995952 0.089887 0)
(0.995694 0.0926986 0)
(0.995694 0.0926986 0)
(0.995952 0.089887 0)
(0.996436 0.0843479 0)
(0.997089 0.0762473 0)
(0.997831 0.0658286 0)
(0.998573 0.053406 0)
(0.999225 0.0393558 0)
(0.999709 0.0241047 0)
(0.999967 0.00811757 0)
(0.999967 -0.00813693 0)
(0.999708 -0.0241624 0)
(0.999222 -0.0394504 0)
(0.998566 -0.0535354 0)
(0.99782 -0.0659894 0)
(0.997075 -0.0764351 0)
(0.996419 -0.0845572 0)
(0.995932 -0.0901113 0)
(0.995673 -0.0929306 0)
(0.995673 -0.0929306 0)
(0.995932 -0.0901113 0)
(0.996419 -0.0845572 0)
(0.997075 -0.0764351 0)
(0.99782 -0.0659894 0)
(0.998566 -0.0535354 0)
(0.999222 -0.0394504 0)
(0.999708 -0.0241624 0)
(0.999967 -0.00813693 0)
(0.999967 0.00813693 0)
(0.999708 0.0241624 0)
(0.999222 0.0394504 0)
(0.998566 0.0535354 0)
(0.99782 0.0659894 0)
(0.997075 0.0764351 0)
(0.996419 0.0845572 0)
(0.995932 0.0901113 0)
(0.995673 0.0929306 0)
(0.995673 0.0929306 0)
(0.995932 0.0901113 0)
(0.996419 0.0845572 0)
(0.997075 0.0764351 0)
(0.99782 0.0659894 0)
(0.998566 0.0535354 0)
(0.999222 0.0394504 0)
(0.999708 0.0241624 0)
(0.999967 0.00813693 0)
(0.999968 -0.00794717 0)
(0.999722 -0.0235987 0)
(0.999257 -0.0385293 0)
(0.998632 -0.0522841 0)
(0.997921 -0.064445 0)
(0.99721 -0.074644 0)
(0.996585 -0.0825735 0)
(0.996121 -0.0879955 0)
(0.995874 -0.0907477 0)
(0.995874 -0.0907477 0)
(0.996121 -0.0879955 0)
(0.996585 -0.0825735 0)
(0.99721 -0.074644 0)
(0.997921 -0.064445 0)
(0.998632 -0.0522841 0)
(0.999257 -0.0385293 0)
(0.999722 -0.0235987 0)
(0.999968 -0.00794717 0)
(0.999968 0.00794717 0)
(0.999722 0.0235987 0)
(0.999257 0.0385293 0)
(0.998632 0.0522841 0)
(0.997921 0.064445 0)
(0.99721 0.074644 0)
(0.996585 0.0825735 0)
(0.996121 0.0879955 0)
(0.995874 0.0907477 0)
(0.995874 0.0907477 0)
(0.996121 0.0879955 0)
(0.996585 0.0825735 0)
(0.99721 0.074644 0)
(0.997921 0.064445 0)
(0.998632 0.0522841 0)
(0.999257 0.0385293 0)
(0.999722 0.0235987 0)
(0.999968 0.00794717 0)
(0.99997 -0.00780883 0)
(0.999731 -0.0231881 0)
(0.999283 -0.0378594 0)
(0.998679 -0.051376 0)
(0.997993 -0.0633271 0)
(0.997306 -0.0733507 0)
(0.996702 -0.0811445 0)
(0.996254 -0.0864739 0)
(0.996016 -0.0891791 0)
(0.996016 -0.0891791 0)
(0.996254 -0.0864739 0)
(0.996702 -0.0811445 0)
(0.997306 -0.0733507 0)
(0.997993 -0.0633271 0)
(0.998679 -0.051376 0)
(0.999283 -0.0378594 0)
(0.999731 -0.0231881 0)
(0.99997 -0.00780883 0)
(0.99997 0.00780883 0)
(0.999731 0.0231881 0)
(0.999283 0.0378594 0)
(0.998679 0.051376 0)
(0.997993 0.0633271 0)
(0.997306 0.0733507 0)
(0.996702 0.0811445 0)
(0.996254 0.0864739 0)
(0.996016 0.0891791 0)
(0.996016 0.0891791 0)
(0.996254 0.0864739 0)
(0.996702 0.0811445 0)
(0.997306 0.0733507 0)
(0.997993 0.0633271 0)
(0.998679 0.051376 0)
(0.999283 0.0378594 0)
(0.999731 0.0231881 0)
(0.99997 0.00780883 0)
(0.999969 -0.00781773 0)
(0.999731 -0.0232146 0)
(0.999281 -0.0379032 0)
(0.998676 -0.0514363 0)
(0.997988 -0.0634026 0)
(0.9973 -0.0734397 0)
(0.996694 -0.0812442 0)
(0.996245 -0.0865813 0)
(0.996006 -0.0892905 0)
(0.996006 -0.0892905 0)
(0.996245 -0.0865813 0)
(0.996694 -0.0812442 0)
(0.9973 -0.0734397 0)
(0.997988 -0.0634026 0)
(0.998676 -0.0514363 0)
(0.999281 -0.0379032 0)
(0.999731 -0.0232146 0)
(0.999969 -0.00781773 0)
(0.999969 0.00781773 0)
(0.999731 0.0232146 0)
(0.999281 0.0379032 0)
(0.998676 0.0514363 0)
(0.997988 0.0634026 0)
(0.9973 0.0734397 0)
(0.996694 0.0812442 0)
(0.996245 0.0865813 0)
(0.996006 0.0892905 0)
(0.996006 0.0892905 0)
(0.996245 0.0865813 0)
(0.996694 0.0812442 0)
(0.9973 0.0734397 0)
(0.997988 0.0634026 0)
(0.998676 0.0514363 0)
(0.999281 0.0379032 0)
(0.999731 0.0232146 0)
(0.999969 0.00781773 0)
(0.999971 -0.00755717 0)
(0.999748 -0.0224407 0)
(0.999329 -0.0366392 0)
(0.998763 -0.0497199 0)
(0.99812 -0.0612853 0)
(0.997477 -0.0709854 0)
(0.996912 -0.0785275 0)
(0.996492 -0.0836847 0)
(0.996269 -0.0863025 0)
(0.996269 -0.0863025 0)
(0.996492 -0.0836847 0)
(0.996912 -0.0785275 0)
(0.997477 -0.0709854 0)
(0.99812 -0.0612853 0)
(0.998763 -0.0497199 0)
(0.999329 -0.0366392 0)
(0.999748 -0.0224407 0)
(0.999971 -0.00755717 0)
(0.999971 0.00755717 0)
(0.999748 0.0224407 0)
(0.999329 0.0366392 0)
(0.998763 0.0497199 0)
(0.99812 0.0612853 0)
(0.997477 0.0709854 0)
(0.996912 0.0785275 0)
(0.996492 0.0836847 0)
(0.996269 0.0863025 0)
(0.996269 0.0863025 0)
(0.996492 0.0836847 0)
(0.996912 0.0785275 0)
(0.997477 0.0709854 0)
(0.99812 0.0612853 0)
(0.998763 0.0497199 0)
(0.999329 0.0366392 0)
(0.999748 0.0224407 0)
(0.999971 0.00755717 0)
(0.999973 -0.00740259 0)
(0.999758 -0.0219818 0)
(0.999356 -0.0358904 0)
(0.998813 -0.0487046 0)
(0.998196 -0.0600352 0)
(0.997579 -0.0695388 0)
(0.997037 -0.0769285 0)
(0.996634 -0.0819818 0)
(0.996419 -0.0845469 0)
(0.996419 -0.0845469 0)
(0.996634 -0.0819818 0)
(0.997037 -0.0769285 0)
(0.997579 -0.0695388 0)
(0.998196 -0.0600352 0)
(0.998813 -0.0487046 0)
(0.999356 -0.0358904 0)
(0.999758 -0.0219818 0)
(0.999973 -0.00740259 0)
(0.999973 0.00740259 0)
(0.999758 0.0219818 0)
(0.999356 0.0358904 0)
(0.998813 0.0487046 0)
(0.998196 0.0600352 0)
(0.997579 0.0695388 0)
(0.997037 0.0769285 0)
(0.996634 0.0819818 0)
(0.996419 0.0845469 0)
(0.996419 0.0845469 0)
(0.996634 0.0819818 0)
(0.997037 0.0769285 0)
(0.997579 0.0695388 0)
(0.998196 0.0600352 0)
(0.998813 0.0487046 0)
(0.999356 0.0358904 0)
(0.999758 0.0219818 0)
(0.999973 0.00740259 0)
(0.999973 -0.00740406 0)
(0.999758 -0.0219863 0)
(0.999355 -0.0358981 0)
(0.998813 -0.0487159 0)
(0.998195 -0.0600501 0)
(0.997578 -0.0695574 0)
(0.997035 -0.0769502 0)
(0.996632 -0.0820059 0)
(0.996417 -0.0845723 0)
(0.996417 -0.0845723 0)
(0.996632 -0.0820059 0)
(0.997035 -0.0769502 0)
(0.997578 -0.0695574 0)
(0.998195 -0.0600501 0)
(0.998813 -0.0487159 0)
(0.999355 -0.0358981 0)
(0.999758 -0.0219863 0)
(0.999973 -0.00740406 0)
(0.999973 0.00740406 0)
(0.999758 0.0219863 0)
(0.999355 0.0358981 0)
(0.998813 0.0487159 0)
(0.998195 0.0600501 0)
(0.997578 0.0695574 0)
(0.997035 0.0769502 0)
(0.996632 0.0820059 0)
(0.996417 0.0845723 0)
(0.996417 0.0845723 0)
(0.996632 0.0820059 0)
(0.997035 0.0769502 0)
(0.997578 0.0695574 0)
(0.998195 0.0600501 0)
(0.998813 0.0487159 0)
(0.999355 0.0358981 0)
(0.999758 0.0219863 0)
(0.999973 0.00740406 0)
(0.999975 -0.00706086 0)
(0.99978 -0.020967 0)
(0.999414 -0.0342335 0)
(0.99892 -0.0464561 0)
(0.998359 -0.0572635 0)
(0.997798 -0.0663283 0)
(0.997304 -0.0733768 0)
(0.996938 -0.0781968 0)
(0.996743 -0.0806435 0)
(0.996743 -0.0806435 0)
(0.996938 -0.0781968 0)
(0.997304 -0.0733768 0)
(0.997798 -0.0663283 0)
(0.998359 -0.0572635 0)
(0.99892 -0.0464561 0)
(0.999414 -0.0342335 0)
(0.99978 -0.020967 0)
(0.999975 -0.00706086 0)
(0.999975 0.00706086 0)
(0.99978 0.020967 0)
(0.999414 0.0342335 0)
(0.99892 0.0464561 0)
(0.998359 0.0572635 0)
(0.997798 0.0663283 0)
(0.997304 0.0733768 0)
(0.996938 0.0781968 0)
(0.996743 0.0806435 0)
(0.996743 0.0806435 0)
(0.996938 0.0781968 0)
(0.997304 0.0733768 0)
(0.997798 0.0663283 0)
(0.998359 0.0572635 0)
(0.99892 0.0464561 0)
(0.999414 0.0342335 0)
(0.99978 0.020967 0)
(0.999975 0.00706086 0)
(0.999976 -0.00689128 0)
(0.999791 -0.0204636 0)
(0.999442 -0.033412 0)
(0.998972 -0.045342 0)
(0.998437 -0.0558913 0)
(0.997902 -0.06474 0)
(0.997432 -0.0716209 0)
(0.997083 -0.0763264 0)
(0.996897 -0.0787151 0)
(0.996897 -0.0787151 0)
(0.997083 -0.0763264 0)
(0.997432 -0.0716209 0)
(0.997902 -0.06474 0)
(0.998437 -0.0558913 0)
(0.998972 -0.045342 0)
(0.999442 -0.033412 0)
(0.999791 -0.0204636 0)
(0.999976 -0.00689128 0)
(0.999976 0.00689128 0)
(0.999791 0.0204636 0)
(0.999442 0.033412 0)
(0.998972 0.045342 0)
(0.998437 0.0558913 0)
(0.997902 0.06474 0)
(0.997432 0.0716209 0)
(0.997083 0.0763264 0)
(0.996897 0.0787151 0)
(0.996897 0.0787151 0)
(0.997083 0.0763264 0)
(0.997432 0.0716209 0)
(0.997902 0.06474 0)
(0.998437 0.0558913 0)
(0.998972 0.045342 0)
(0.999442 0.033412 0)
(0.999791 0.0204636 0)
(0.999976 0.00689128 0)
(0.999976 -0.00689047 0)
(0.999791 -0.0204614 0)
(0.999442 -0.0334087 0)
(0.998972 -0.0453382 0)
(0.998437 -0.0558874 0)
(0.997902 -0.0647365 0)
(0.997432 -0.071618 0)
(0.997083 -0.0763241 0)
(0.996897 -0.0787131 0)
(0.996897 -0.0787131 0)
(0.997083 -0.0763241 0)
(0.997432 -0.071618 0)
(0.997902 -0.0647365 0)
(0.998437 -0.0558874 0)
(0.998972 -0.0453382 0)
(0.999442 -0.0334087 0)
(0.999791 -0.0204614 0)
(0.999976 -0.00689047 0)
(0.999976 0.00689047 0)
(0.999791 0.0204614 0)
(0.999442 0.0334087 0)
(0.998972 0.0453382 0)
(0.998437 0.0558874 0)
(0.997902 0.0647365 0)
(0.997432 0.071618 0)
(0.997083 0.0763241 0)
(0.996897 0.0787131 0)
(0.996897 0.0787131 0)
(0.997083 0.0763241 0)
(0.997432 0.071618 0)
(0.997902 0.0647365 0)
(0.998437 0.0558874 0)
(0.998972 0.0453382 0)
(0.999442 0.0334087 0)
(0.999791 0.0204614 0)
(0.999976 0.00689047 0)
(0.999979 -0.00644473 0)
(0.999817 -0.0191376 0)
(0.999512 -0.031247 0)
(0.999101 -0.0424041 0)
(0.998633 -0.0522701 0)
(0.998165 -0.0605458 0)
(0.997754 -0.0669811 0)
(0.997449 -0.071382 0)
(0.997287 -0.073616 0)
(0.997287 -0.073616 0)
(0.997449 -0.071382 0)
(0.997754 -0.0669811 0)
(0.998165 -0.0605458 0)
(0.998633 -0.0522701 0)
(0.999101 -0.0424041 0)
(0.999512 -0.031247 0)
(0.999817 -0.0191376 0)
(0.999979 -0.00644473 0)
(0.999979 0.00644473 0)
(0.999817 0.0191376 0)
(0.999512 0.031247 0)
(0.999101 0.0424041 0)
(0.998633 0.0522701 0)
(0.998165 0.0605458 0)
(0.997754 0.0669811 0)
(0.997449 0.071382 0)
(0.997287 0.073616 0)
(0.997287 0.073616 0)
(0.997449 0.071382 0)
(0.997754 0.0669811 0)
(0.998165 0.0605458 0)
(0.998633 0.0522701 0)
(0.999101 0.0424041 0)
(0.999512 0.031247 0)
(0.999817 0.0191376 0)
(0.999979 0.00644473 0)
(0.99998 -0.00626546 0)
(0.999827 -0.0186054 0)
(0.999538 -0.0303783 0)
(0.99915 -0.0412259 0)
(0.998708 -0.0508185 0)
(0.998266 -0.0588653 0)
(0.997877 -0.0651229 0)
(0.997589 -0.0694024 0)
(0.997435 -0.0715748 0)
(0.997435 -0.0715748 0)
(0.997589 -0.0694024 0)
(0.997877 -0.0651229 0)
(0.998266 -0.0588653 0)
(0.998708 -0.0508185 0)
(0.99915 -0.0412259 0)
(0.999538 -0.0303783 0)
(0.999827 -0.0186054 0)
(0.99998 -0.00626546 0)
(0.99998 0.00626546 0)
(0.999827 0.0186054 0)
(0.999538 0.0303783 0)
(0.99915 0.0412259 0)
(0.998708 0.0508185 0)
(0.998266 0.0588653 0)
(0.997877 0.0651229 0)
(0.997589 0.0694024 0)
(0.997435 0.0715748 0)
(0.997435 0.0715748 0)
(0.997589 0.0694024 0)
(0.997877 0.0651229 0)
(0.998266 0.0588653 0)
(0.998708 0.0508185 0)
(0.99915 0.0412259 0)
(0.999538 0.0303783 0)
(0.999827 0.0186054 0)
(0.99998 0.00626546 0)
(0.99998 -0.00626867 0)
(0.999827 -0.018615 0)
(0.999538 -0.0303943 0)
(0.999149 -0.041248 0)
(0.998706 -0.0508464 0)
(0.998264 -0.0588984 0)
(0.997875 -0.0651603 0)
(0.997586 -0.0694428 0)
(0.997432 -0.0716169 0)
(0.997432 -0.0716169 0)
(0.997586 -0.0694428 0)
(0.997875 -0.0651603 0)
(0.998264 -0.0588984 0)
(0.998706 -0.0508464 0)
(0.999149 -0.041248 0)
(0.999538 -0.0303943 0)
(0.999827 -0.018615 0)
(0.99998 -0.00626867 0)
(0.99998 0.00626867 0)
(0.999827 0.018615 0)
(0.999538 0.0303943 0)
(0.999149 0.041248 0)
(0.998706 0.0508464 0)
(0.998264 0.0588984 0)
(0.997875 0.0651603 0)
(0.997586 0.0694428 0)
(0.997432 0.0716169 0)
(0.997432 0.0716169 0)
(0.997586 0.0694428 0)
(0.997875 0.0651603 0)
(0.998264 0.0588984 0)
(0.998706 0.0508464 0)
(0.999149 0.041248 0)
(0.999538 0.0303943 0)
(0.999827 0.018615 0)
(0.99998 0.00626867 0)
(0.999984 -0.00569031 0)
(0.999857 -0.0168975 0)
(0.999619 -0.0275899 0)
(0.999299 -0.0374421 0)
(0.998934 -0.0461547 0)
(0.99857 -0.0534634 0)
(0.998249 -0.0591473 0)
(0.998011 -0.0630345 0)
(0.997885 -0.0650077 0)
(0.997885 -0.0650077 0)
(0.998011 -0.0630345 0)
(0.998249 -0.0591473 0)
(0.99857 -0.0534634 0)
(0.998934 -0.0461547 0)
(0.999299 -0.0374421 0)
(0.999619 -0.0275899 0)
(0.999857 -0.0168975 0)
(0.999984 -0.00569031 0)
(0.999984 0.00569031 0)
(0.999857 0.0168975 0)
(0.999619 0.0275899 0)
(0.999299 0.0374421 0)
(0.998934 0.0461547 0)
(0.99857 0.0534634 0)
(0.998249 0.0591473 0)
(0.998011 0.0630345 0)
(0.997885 0.0650077 0)
(0.997885 0.0650077 0)
(0.998011 0.0630345 0)
(0.998249 0.0591473 0)
(0.99857 0.0534634 0)
(0.998934 0.0461547 0)
(0.999299 0.0374421 0)
(0.999619 0.0275899 0)
(0.999857 0.0168975 0)
(0.999984 0.00569031 0)
(0.999985 -0.00551352 0)
(0.999866 -0.0163726 0)
(0.999643 -0.0267331 0)
(0.999342 -0.0362796 0)
(0.998999 -0.0447223 0)
(0.998657 -0.0518049 0)
(0.998356 -0.057313 0)
(0.998133 -0.0610801 0)
(0.998014 -0.0629925 0)
(0.998014 -0.0629925 0)
(0.998133 -0.0610801 0)
(0.998356 -0.057313 0)
(0.998657 -0.0518049 0)
(0.998999 -0.0447223 0)
(0.999342 -0.0362796 0)
(0.999643 -0.0267331 0)
(0.999866 -0.0163726 0)
(0.999985 -0.00551352 0)
(0.999985 0.00551352 0)
(0.999866 0.0163726 0)
(0.999643 0.0267331 0)
(0.999342 0.0362796 0)
(0.998999 0.0447223 0)
(0.998657 0.0518049 0)
(0.998356 0.057313 0)
(0.998133 0.0610801 0)
(0.998014 0.0629925 0)
(0.998014 0.0629925 0)
(0.998133 0.0610801 0)
(0.998356 0.057313 0)
(0.998657 0.0518049 0)
(0.998999 0.0447223 0)
(0.999342 0.0362796 0)
(0.999643 0.0267331 0)
(0.999866 0.0163726 0)
(0.999985 0.00551352 0)
(0.999985 -0.00552584 0)
(0.999865 -0.0164093 0)
(0.999641 -0.0267931 0)
(0.999339 -0.0363614 0)
(0.998995 -0.0448235 0)
(0.998651 -0.0519227 0)
(0.998349 -0.0574438 0)
(0.998124 -0.06122 0)
(0.998005 -0.0631369 0)
(0.998005 -0.0631369 0)
(0.998124 -0.06122 0)
(0.998349 -0.0574438 0)
(0.998651 -0.0519227 0)
(0.998995 -0.0448235 0)
(0.999339 -0.0363614 0)
(0.999641 -0.0267931 0)
(0.999865 -0.0164093 0)
(0.999985 -0.00552584 0)
(0.999985 0.00552584 0)
(0.999865 0.0164093 0)
(0.999641 0.0267931 0)
(0.999339 0.0363614 0)
(0.998995 0.0448235 0)
(0.998651 0.0519227 0)
(0.998349 0.0574438 0)
(0.998124 0.06122 0)
(0.998005 0.0631369 0)
(0.998005 0.0631369 0)
(0.998124 0.06122 0)
(0.998349 0.0574438 0)
(0.998651 0.0519227 0)
(0.998995 0.0448235 0)
(0.999339 0.0363614 0)
(0.999641 0.0267931 0)
(0.999865 0.0164093 0)
(0.999985 0.00552584 0)
(0.999989 -0.00477368 0)
(0.9999 -0.0141757 0)
(0.999732 -0.0231462 0)
(0.999507 -0.0314122 0)
(0.99925 -0.0387227 0)
(0.998993 -0.0448557 0)
(0.998768 -0.0496255 0)
(0.9986 -0.0528879 0)
(0.998511 -0.054544 0)
(0.998511 -0.054544 0)
(0.9986 -0.0528879 0)
(0.998768 -0.0496255 0)
(0.998993 -0.0448557 0)
(0.99925 -0.0387227 0)
(0.999507 -0.0314122 0)
(0.999732 -0.0231462 0)
(0.9999 -0.0141757 0)
(0.999989 -0.00477368 0)
(0.999989 0.00477368 0)
(0.9999 0.0141757 0)
(0.999732 0.0231462 0)
(0.999507 0.0314122 0)
(0.99925 0.0387227 0)
(0.998993 0.0448557 0)
(0.998768 0.0496255 0)
(0.9986 0.0528879 0)
(0.998511 0.054544 0)
(0.998511 0.054544 0)
(0.9986 0.0528879 0)
(0.998768 0.0496255 0)
(0.998993 0.0448557 0)
(0.99925 0.0387227 0)
(0.999507 0.0314122 0)
(0.999732 0.0231462 0)
(0.9999 0.0141757 0)
(0.999989 0.00477368 0)
(0.999989 -0.00461923 0)
(0.999906 -0.0137171 0)
(0.999749 -0.0223975 0)
(0.999538 -0.0303963 0)
(0.999298 -0.0374707 0)
(0.999058 -0.0434059 0)
(0.998846 -0.0480219 0)
(0.998689 -0.0511791 0)
(0.998606 -0.0527819 0)
(0.998606 -0.0527819 0)
(0.998689 -0.0511791 0)
(0.998846 -0.0480219 0)
(0.999058 -0.0434059 0)
(0.999298 -0.0374707 0)
(0.999538 -0.0303963 0)
(0.999749 -0.0223975 0)
(0.999906 -0.0137171 0)
(0.999989 -0.00461923 0)
(0.999989 0.00461923 0)