/*--------------------------------*- C++ -*----------------------------------*\
| =========                 |                                                 |
| \\      /  F ield         | OpenFOAM: The Open Source CFD Toolbox           |
|  \\    /   O peration     | Version:  2312                                  |
|   \\  /    A nd           | Website:  www.openfoam.com                      |
|    \\/     M anipulation  |                                                 |
\*---------------------------------------------------------------------------*/
FoamFile
{
    version     2.0;
    format      ascii;
    arch        "LSB;label=32;scalar=64";
    class       pointVectorField;
    location    "0.9";
    object      pointD;
}
// * * * * * * * * * * * * * * * * * * * * * * * * * * * * * * * * * * * * * //

dimensions      [0 1 0 0 0 0 0];

internalField   nonuniform List<vector> 
112333
(
(0 0 0)
(0 0 0)
(0 0 0)
(0 0 0)
(0 0 0)
(0 0 0)
(0 0 0)
(0 0 0)
(0 0 0)
(0 0 0)
(0 0 0)
(0 0 0)
(0 0 0)
(0 0 0)
(0 0 0)
(0 0 0)
(0 0 0)
(0 0 0)
(0 0 0)
(0 0 0)
(0 0 0)
(0 0 0)
(0 0 0)
(0 0 0)
(0 0 0)
(0 0 0)
(0 0 0)
(0 0 0)
(0 0 0)
(0 0 0)
(0 0 0)
(0 0 0)
(0 0 0)
(0 0 0)
(0 0 0)
(0 0 0)
(0 0 0)
(0 0 0)
(0 0 0)
(0 0 0)
(0 0 0)
(0 0 0)
(0 0 0)
(0 0 0)
(0 0 0)
(0 0 0)
(0 0 0)
(0 0 0)
(0 0 0)
(0 0 0)
(0 0 0)
(0 0 0)
(0 0 0)
(0 0 0)
(0 0 0)
(0 0 0)
(0 0 0)
(0 0 0)
(0 0 0)
(0 0 0)
(0 0 0)
(0 0 0)
(0 0 0)
(0 0 0)
(0 0 0)
(0 0 0)
(0 0 0)
(0 0 0)
(0 0 0)
(0 0 0)
(0 0 0)
(0 0 0)
(0 0 0)
(0 0 0)
(0 0 0)
(0 0 0)
(0 0 0)
(0 0 0)
(0 0 0)
(0 0 0)
(0 0 0)
(0 0 0)
(0 0 0)
(0 0 0)
(0 0 0)
(0 0 0)
(0 0 0)
(0 0 0)
(0 0 0)
(0 0 0)
(0 0 0)
(0 0 0)
(0 0 0)
(0 0 0)
(0 0 0)
(0 0 0)
(0 0 0)
(0 0 0)
(0 0 0)
(0 0 0)
(0 0 0)
(0 0 0)
(0 0 0)
(0 0 0)
(0 0 0)
(0 0 0)
(0 0 0)
(0 0 0)
(0 0 0)
(0 0 0)
(0 0 0)
(0 0 0)
(0 0 0)
(0 0 0)
(0 0 0)
(0 0 0)
(0 0 0)
(0 0 0)
(0 0 0)
(0 0 0)
(0 0 0)
(0 0 0)
(0 0 0)
(0 0 0)
(0 0 0)
(0 0 0)
(0 0 0)
(0 0 0)
(0 0 0)
(0 0 0)
(0 0 0)
(0 0 0)
(0 0 0)
(0 0 0)
(0 0 0)
(0 0 0)
(0 0 0)
(0 0 0)
(0 0 0)
(0 0 0)
(0 0 0)
(0 0 0)
(0 0 0)
(0 0 0)
(0.000178504 -0.000155391 -4.78659e-05)
(0.000185113 -0.000147456 -4.78662e-05)
(0.000191369 -0.000139242 -4.78669e-05)
(0.00019726 -0.000130763 -4.7866e-05)
(0.000202776 -0.000122034 -4.78654e-05)
(0.000207906 -0.000113072 -4.78661e-05)
(0.000212641 -0.000103896 -4.78663e-05)
(0.00021697 -9.45215e-05 -4.78658e-05)
(0.000220886 -8.49671e-05 -4.78653e-05)
(0.000224382 -7.52523e-05 -4.78646e-05)
(0.000227451 -6.53939e-05 -4.7865e-05)
(0.000230087 -5.54102e-05 -4.78662e-05)
(0.000232285 -4.53207e-05 -4.78666e-05)
(0.000234041 -3.51452e-05 -4.78662e-05)
(0.000235351 -2.49036e-05 -4.78653e-05)
(0.000236213 -1.46131e-05 -4.78668e-05)
(0.000236626 -4.29545e-06 -4.78669e-05)
(0.000236588 6.03026e-06 -4.7867e-05)
(0.0002361 1.63433e-05 -4.78657e-05)
(0.000235162 2.66264e-05 -4.7866e-05)
(0.000233777 3.68586e-05 -4.78658e-05)
(0.000231946 4.70215e-05 -4.78665e-05)
(0.000229675 5.70938e-05 -4.78661e-05)
(0.000226966 6.70574e-05 -4.7866e-05)
(0.000223825 7.68931e-05 -4.78654e-05)
(0.000220257 8.65835e-05 -4.78654e-05)
(0.000216271 9.61091e-05 -4.78659e-05)
(0.000211874 0.000105451 -4.78658e-05)
(0.000207073 0.000114592 -4.78662e-05)
(0.000201876 0.000123516 -4.7866e-05)
(0.000196297 0.000132204 -4.78655e-05)
(0.000190343 0.00014064 -4.7866e-05)
(0.000184027 0.000148809 -4.78662e-05)
(0.000177361 0.000156695 -4.78656e-05)
(0.000170357 0.000164282 -4.7866e-05)
(0.000163029 0.000171556 -4.78657e-05)
(0.000155391 0.000178504 -4.78659e-05)
(0.000147456 0.000185113 -4.78662e-05)
(0.000139242 0.000191369 -4.78669e-05)
(0.000130763 0.00019726 -4.7866e-05)
(0.000122034 0.000202776 -4.78654e-05)
(0.000113072 0.000207906 -4.78661e-05)
(0.000103896 0.000212641 -4.78663e-05)
(9.45215e-05 0.00021697 -4.78658e-05)
(8.49671e-05 0.000220886 -4.78653e-05)
(7.52523e-05 0.000224382 -4.78646e-05)
(6.53939e-05 0.000227451 -4.7865e-05)
(5.54102e-05 0.000230087 -4.78662e-05)
(4.53207e-05 0.000232285 -4.78666e-05)
(3.51452e-05 0.000234041 -4.78662e-05)
(2.49036e-05 0.000235351 -4.78653e-05)
(1.46131e-05 0.000236213 -4.78668e-05)
(4.29545e-06 0.000236626 -4.78669e-05)
(-6.03026e-06 0.000236588 -4.7867e-05)
(-1.63433e-05 0.0002361 -4.78657e-05)
(-2.66264e-05 0.000235162 -4.7866e-05)
(-3.68586e-05 0.000233777 -4.78658e-05)
(-4.70215e-05 0.000231946 -4.78665e-05)
(-5.70938e-05 0.000229675 -4.78661e-05)
(-6.70574e-05 0.000226966 -4.7866e-05)
(-7.68931e-05 0.000223825 -4.78654e-05)
(-8.65835e-05 0.000220257 -4.78654e-05)
(-9.61091e-05 0.000216271 -4.78659e-05)
(-0.000105451 0.000211874 -4.78658e-05)
(-0.000114592 0.000207073 -4.78662e-05)
(-0.000123516 0.000201876 -4.7866e-05)
(-0.000132204 0.000196297 -4.78655e-05)
(-0.00014064 0.000190343 -4.7866e-05)
(-0.000148809 0.000184027 -4.78662e-05)
(-0.000156695 0.000177361 -4.78656e-05)
(-0.000164282 0.000170357 -4.7866e-05)
(-0.000171556 0.000163029 -4.78657e-05)
(-0.000178504 0.000155391 -4.78659e-05)
(-0.000185113 0.000147456 -4.78662e-05)
(-0.000191369 0.000139242 -4.78669e-05)
(-0.00019726 0.000130763 -4.7866e-05)
(-0.000202776 0.000122034 -4.78654e-05)
(-0.000207906 0.000113072 -4.78661e-05)
(-0.000212641 0.000103896 -4.78663e-05)
(-0.00021697 9.45215e-05 -4.78658e-05)
(-0.000220886 8.49671e-05 -4.78653e-05)
(-0.000224382 7.52523e-05 -4.78646e-05)
(-0.000227451 6.53939e-05 -4.7865e-05)
(-0.000230087 5.54102e-05 -4.78662e-05)
(-0.000232285 4.53207e-05 -4.78666e-05)
(-0.000234041 3.51452e-05 -4.78662e-05)
(-0.000235351 2.49036e-05 -4.78653e-05)
(-0.000236213 1.46131e-05 -4.78668e-05)
(-0.000236626 4.29545e-06 -4.78669e-05)
(-0.000236588 -6.03026e-06 -4.7867e-05)
(-0.0002361 -1.63433e-05 -4.78657e-05)
(-0.000235162 -2.66264e-05 -4.7866e-05)
(-0.000233777 -3.68586e-05 -4.78658e-05)
(-0.000231946 -4.70215e-05 -4.78665e-05)
(-0.000229675 -5.70938e-05 -4.78661e-05)
(-0.000226966 -6.70574e-05 -4.7866e-05)
(-0.000223825 -7.68931e-05 -4.78654e-05)
(-0.000220257 -8.65835e-05 -4.78654e-05)
(-0.000216271 -9.61091e-05 -4.78659e-05)
(-0.000211874 -0.000105451 -4.78658e-05)
(-0.000207073 -0.000114592 -4.78662e-05)
(-0.000201876 -0.000123516 -4.7866e-05)
(-0.000196297 -0.000132204 -4.78655e-05)
(-0.000190343 -0.00014064 -4.7866e-05)
(-0.000184027 -0.000148809 -4.78662e-05)
(-0.000177361 -0.000156695 -4.78656e-05)
(-0.000170357 -0.000164282 -4.7866e-05)
(-0.000163029 -0.000171556 -4.78657e-05)
(-0.000155391 -0.000178504 -4.78659e-05)
(-0.000147456 -0.000185113 -4.78662e-05)
(-0.000139242 -0.000191369 -4.78669e-05)
(-0.000130763 -0.00019726 -4.7866e-05)
(-0.000122034 -0.000202776 -4.78654e-05)
(-0.000113072 -0.000207906 -4.78661e-05)
(-0.000103896 -0.000212641 -4.78663e-05)
(-9.45215e-05 -0.00021697 -4.78658e-05)
(-8.49671e-05 -0.000220886 -4.78653e-05)
(-7.52523e-05 -0.000224382 -4.78646e-05)
(-6.53939e-05 -0.000227451 -4.7865e-05)
(-5.54102e-05 -0.000230087 -4.78662e-05)
(-4.53207e-05 -0.000232285 -4.78666e-05)
(-3.51452e-05 -0.000234041 -4.78662e-05)
(-2.49036e-05 -0.000235351 -4.78653e-05)
(-1.46131e-05 -0.000236213 -4.78668e-05)
(-4.29545e-06 -0.000236626 -4.78669e-05)
(6.03026e-06 -0.000236588 -4.7867e-05)
(1.63433e-05 -0.0002361 -4.78657e-05)
(2.66264e-05 -0.000235162 -4.7866e-05)
(3.68586e-05 -0.000233777 -4.78658e-05)
(4.70215e-05 -0.000231946 -4.78665e-05)
(5.70938e-05 -0.000229675 -4.78661e-05)
(6.70574e-05 -0.000226966 -4.7866e-05)
(7.68931e-05 -0.000223825 -4.78654e-05)
(8.65835e-05 -0.000220257 -4.78654e-05)
(9.61091e-05 -0.000216271 -4.78659e-05)
(0.000105451 -0.000211874 -4.78658e-05)
(0.000114592 -0.000207073 -4.78662e-05)
(0.000123516 -0.000201876 -4.7866e-05)
(0.000132204 -0.000196297 -4.78655e-05)
(0.00014064 -0.000190343 -4.7866e-05)
(0.000148809 -0.000184027 -4.78662e-05)
(0.000156695 -0.000177361 -4.78656e-05)
(0.000164282 -0.000170357 -4.7866e-05)
(0.000171556 -0.000163029 -4.78657e-05)
(0.000168621 -0.000179158 -1.23299e-05)
(0.000176275 -0.000171633 -1.23297e-05)
(0.000183594 -0.000163781 -1.23296e-05)
(0.000190563 -0.000155617 -1.23304e-05)
(0.000197169 -0.000147157 -1.23293e-05)
(0.000203401 -0.000138415 -1.23301e-05)
(0.000209245 -0.000129412 -1.23301e-05)
(0.00021469 -0.000120162 -1.23294e-05)
(0.000219727 -0.000110683 -1.23287e-05)
(0.000224346 -0.000100993 -1.23286e-05)
(0.000228538 -9.11116e-05 -1.2329e-05)
(0.000232295 -8.10559e-05 -1.23298e-05)
(0.000235609 -7.08458e-05 -1.23302e-05)
(0.000238475 -6.05013e-05 -1.23297e-05)
(0.000240887 -5.00409e-05 -1.233e-05)
(0.000242841 -3.94863e-05 -1.23297e-05)
(0.000244332 -2.88555e-05 -1.23305e-05)
(0.000245358 -1.81714e-05 -1.23297e-05)
(0.000245917 -7.45174e-06 -1.23299e-05)
(0.000246008 3.28206e-06 -1.23293e-05)
(0.00024563 1.40105e-05 -1.23301e-05)
(0.000244786 2.47111e-05 -1.23299e-05)
(0.000243475 3.53648e-05 -1.23299e-05)
(0.000241701 4.59511e-05 -1.23297e-05)
(0.000239466 5.64499e-05 -1.23293e-05)
(0.000236776 6.68418e-05 -1.2329e-05)
(0.000233635 7.71063e-05 -1.2329e-05)
(0.00023005 8.72241e-05 -1.23295e-05)
(0.000226026 9.71757e-05 -1.23301e-05)
(0.000221572 0.000106942 -1.23301e-05)
(0.000216696 0.000116505 -1.23293e-05)
(0.000211408 0.000125847 -1.23303e-05)
(0.000205718 0.000134948 -1.23291e-05)
(0.000199635 0.000143793 -1.23294e-05)
(0.000193173 0.000152364 -1.23299e-05)
(0.000186343 0.000160645 -1.23293e-05)
(0.000179158 0.000168621 -1.23299e-05)
(0.000171633 0.000176275 -1.23297e-05)
(0.000163781 0.000183594 -1.23296e-05)
(0.000155617 0.000190563 -1.23304e-05)
(0.000147157 0.000197169 -1.23293e-05)
(0.000138415 0.000203401 -1.23301e-05)
(0.000129412 0.000209245 -1.23301e-05)
(0.000120162 0.00021469 -1.23294e-05)
(0.000110683 0.000219727 -1.23287e-05)
(0.000100993 0.000224346 -1.23286e-05)
(9.11116e-05 0.000228538 -1.2329e-05)
(8.10559e-05 0.000232295 -1.23298e-05)
(7.08458e-05 0.000235609 -1.23302e-05)
(6.05013e-05 0.000238475 -1.23297e-05)
(5.00409e-05 0.000240887 -1.233e-05)
(3.94863e-05 0.000242841 -1.23297e-05)
(2.88555e-05 0.000244332 -1.23305e-05)
(1.81714e-05 0.000245358 -1.23297e-05)
(7.45174e-06 0.000245917 -1.23299e-05)
(-3.28206e-06 0.000246008 -1.23293e-05)
(-1.40105e-05 0.00024563 -1.23301e-05)
(-2.47111e-05 0.000244786 -1.23299e-05)
(-3.53648e-05 0.000243475 -1.23299e-05)
(-4.59511e-05 0.000241701 -1.23297e-05)
(-5.64499e-05 0.000239466 -1.23293e-05)
(-6.68418e-05 0.000236776 -1.2329e-05)
(-7.71063e-05 0.000233635 -1.2329e-05)
(-8.72241e-05 0.00023005 -1.23295e-05)
(-9.71757e-05 0.000226026 -1.23301e-05)
(-0.000106942 0.000221572 -1.23301e-05)
(-0.000116505 0.000216696 -1.23293e-05)
(-0.000125847 0.000211408 -1.23303e-05)
(-0.000134948 0.000205718 -1.23291e-05)
(-0.000143793 0.000199635 -1.23294e-05)
(-0.000152364 0.000193173 -1.23299e-05)
(-0.000160645 0.000186343 -1.23293e-05)
(-0.000168621 0.000179158 -1.23299e-05)
(-0.000176275 0.000171633 -1.23297e-05)
(-0.000183594 0.000163781 -1.23296e-05)
(-0.000190563 0.000155617 -1.23304e-05)
(-0.000197169 0.000147157 -1.23293e-05)
(-0.000203401 0.000138415 -1.23301e-05)
(-0.000209245 0.000129412 -1.23301e-05)
(-0.00021469 0.000120162 -1.23294e-05)
(-0.000219727 0.000110683 -1.23287e-05)
(-0.000224346 0.000100993 -1.23286e-05)
(-0.000228538 9.11116e-05 -1.2329e-05)
(-0.000232295 8.10559e-05 -1.23298e-05)
(-0.000235609 7.08458e-05 -1.23302e-05)
(-0.000238475 6.05013e-05 -1.23297e-05)
(-0.000240887 5.00409e-05 -1.233e-05)
(-0.000242841 3.94863e-05 -1.23297e-05)
(-0.000244332 2.88555e-05 -1.23305e-05)
(-0.000245358 1.81714e-05 -1.23297e-05)
(-0.000245917 7.45174e-06 -1.23299e-05)
(-0.000246008 -3.28206e-06 -1.23293e-05)
(-0.00024563 -1.40105e-05 -1.23301e-05)
(-0.000244786 -2.47111e-05 -1.23299e-05)
(-0.000243475 -3.53648e-05 -1.23299e-05)
(-0.000241701 -4.59511e-05 -1.23297e-05)
(-0.000239466 -5.64499e-05 -1.23293e-05)
(-0.000236776 -6.68418e-05 -1.2329e-05)
(-0.000233635 -7.71063e-05 -1.2329e-05)
(-0.00023005 -8.72241e-05 -1.23295e-05)
(-0.000226026 -9.71757e-05 -1.23301e-05)
(-0.000221572 -0.000106942 -1.23301e-05)
(-0.000216696 -0.000116505 -1.23293e-05)
(-0.000211408 -0.000125847 -1.23303e-05)
(-0.000205718 -0.000134948 -1.23291e-05)
(-0.000199635 -0.000143793 -1.23294e-05)
(-0.000193173 -0.000152364 -1.23299e-05)
(-0.000186343 -0.000160645 -1.23293e-05)
(-0.000179158 -0.000168621 -1.23299e-05)
(-0.000171633 -0.000176275 -1.23297e-05)
(-0.000163781 -0.000183594 -1.23296e-05)
(-0.000155617 -0.000190563 -1.23304e-05)
(-0.000147157 -0.000197169 -1.23293e-05)
(-0.000138415 -0.000203401 -1.23301e-05)
(-0.000129412 -0.000209245 -1.23301e-05)
(-0.000120162 -0.00021469 -1.23294e-05)
(-0.000110683 -0.000219727 -1.23287e-05)
(-0.000100993 -0.000224346 -1.23286e-05)
(-9.11116e-05 -0.000228538 -1.2329e-05)
(-8.10559e-05 -0.000232295 -1.23298e-05)
(-7.08458e-05 -0.000235609 -1.23302e-05)
(-6.05013e-05 -0.000238475 -1.23297e-05)
(-5.00409e-05 -0.000240887 -1.233e-05)
(-3.94863e-05 -0.000242841 -1.23297e-05)
(-2.88555e-05 -0.000244332 -1.23305e-05)
(-1.81714e-05 -0.000245358 -1.23297e-05)
(-7.45174e-06 -0.000245917 -1.23299e-05)
(3.28206e-06 -0.000246008 -1.23293e-05)
(1.40105e-05 -0.00024563 -1.23301e-05)
(2.47111e-05 -0.000244786 -1.23299e-05)
(3.53648e-05 -0.000243475 -1.23299e-05)
(4.59511e-05 -0.000241701 -1.23297e-05)
(5.64499e-05 -0.000239466 -1.23293e-05)
(6.68418e-05 -0.000236776 -1.2329e-05)
(7.71063e-05 -0.000233635 -1.2329e-05)
(8.72241e-05 -0.00023005 -1.23295e-05)
(9.71757e-05 -0.000226026 -1.23301e-05)
(0.000106942 -0.000221572 -1.23301e-05)
(0.000116505 -0.000216696 -1.23293e-05)
(0.000125847 -0.000211408 -1.23303e-05)
(0.000134948 -0.000205718 -1.23291e-05)
(0.000143793 -0.000199635 -1.23294e-05)
(0.000152364 -0.000193173 -1.23299e-05)
(0.000160645 -0.000186343 -1.23293e-05)
(0 0 0)
(0 0 0)
(0 0 0)
(0 0 0)
(0 0 0)
(0 0 0)
(0 0 0)
(0 0 0)
(0 0 0)
(0 0 0)
(0 0 0)
(0 0 0)
(0 0 0)
(0 0 0)
(0 0 0)
(0 0 0)
(0 0 0)
(0 0 0)
(0 0 0)
(0 0 0)
(0 0 0)
(0 0 0)
(0 0 0)
(0 0 0)
(0 0 0)
(0 0 0)
(0 0 0)
(0 0 0)
(0 0 0)
(0 0 0)
(0 0 0)
(0 0 0)
(0 0 0)
(0 0 0)
(0 0 0)
(0 0 0)
(0 0 0)
(0 0 0)
(0 0 0)
(0 0 0)
(0 0 0)
(0 0 0)
(0 0 0)
(0 0 0)
(0 0 0)
(0 0 0)
(0 0 0)
(0 0 0)
(0 0 0)
(0 0 0)
(0 0 0)
(0 0 0)
(0 0 0)
(0 0 0)
(0 0 0)
(0 0 0)
(0 0 0)
(0 0 0)
(0 0 0)
(0 0 0)
(0 0 0)
(0 0 0)
(0 0 0)
(0 0 0)
(0 0 0)
(0 0 0)
(0 0 0)
(0 0 0)
(0 0 0)
(0 0 0)
(0 0 0)
(0 0 0)
(0 0 0)
(0 0 0)
(0 0 0)
(0 0 0)
(0 0 0)
(0 0 0)
(0 0 0)
(0 0 0)
(0 0 0)
(0 0 0)
(0 0 0)
(0 0 0)
(0 0 0)
(0 0 0)
(0 0 0)
(0 0 0)
(0 0 0)
(0 0 0)
(0 0 0)
(0 0 0)
(0 0 0)
(0 0 0)
(0 0 0)
(0 0 0)
(0 0 0)
(0 0 0)
(0 0 0)
(0 0 0)
(0 0 0)
(0 0 0)
(0 0 0)
(0 0 0)
(0 0 0)
(0 0 0)
(0 0 0)
(0 0 0)
(0 0 0)
(0 0 0)
(0 0 0)
(0 0 0)
(0 0 0)
(0 0 0)
(0 0 0)
(0 0 0)
(0 0 0)
(0 0 0)
(0 0 0)
(0 0 0)
(0 0 0)
(0 0 0)
(0 0 0)
(0 0 0)
(0 0 0)
(0 0 0)
(0 0 0)
(0 0 0)
(0 0 0)
(0 0 0)
(0 0 0)
(0 0 0)
(0 0 0)
(0 0 0)
(0 0 0)
(0 0 0)
(0 0 0)
(0 0 0)
(0 0 0)
(0 0 0)
(0 0 0)
(0 0 0)
(0 0 0)
(0 0 0)
(0.000154469 -0.000203128 1.76095e-05)
(0.000163183 -0.000196196 1.7609e-05)
(0.000171585 -0.000188892 1.76089e-05)
(0.000179661 -0.000181228 1.76098e-05)
(0.000187395 -0.000173219 1.76101e-05)
(0.000194773 -0.000164879 1.76096e-05)
(0.000201779 -0.000156227 1.76095e-05)
(0.000208401 -0.000147277 1.76098e-05)
(0.000214627 -0.000138046 1.76096e-05)
(0.000220444 -0.000128553 1.761e-05)
(0.000225842 -0.000118815 1.76098e-05)
(0.00023081 -0.000108851 1.76094e-05)
(0.000235338 -9.86792e-05 1.76092e-05)
(0.000239419 -8.83195e-05 1.76091e-05)
(0.000243043 -7.77929e-05 1.76101e-05)
(0.000246205 -6.71176e-05 1.76102e-05)
(0.000248898 -5.63135e-05 1.76091e-05)
(0.000251118 -4.54034e-05 1.7609e-05)
(0.000252859 -3.44066e-05 1.76093e-05)
(0.000254119 -2.33452e-05 1.76103e-05)
(0.000254896 -1.22381e-05 1.76101e-05)
(0.000255186 -1.10712e-06 1.76091e-05)
(0.000254992 1.00247e-05 1.76092e-05)
(0.000254312 2.11375e-05 1.76094e-05)
(0.000253148 3.22099e-05 1.76097e-05)
(0.000251502 4.32214e-05 1.76099e-05)
(0.000249377 5.41512e-05 1.76095e-05)
(0.000246778 6.49771e-05 1.76097e-05)
(0.000243709 7.56796e-05 1.76094e-05)
(0.000240176 8.62382e-05 1.76096e-05)
(0.000236186 9.6632e-05 1.76101e-05)
(0.000231746 0.000106842 1.76098e-05)
(0.000226865 0.00011685 1.76091e-05)
(0.000221552 0.000126634 1.76092e-05)
(0.000215817 0.000136177 1.76096e-05)
(0.000209672 0.000145462 1.76093e-05)
(0.000203128 0.000154469 1.76095e-05)
(0.000196196 0.000163183 1.7609e-05)
(0.000188892 0.000171585 1.76089e-05)
(0.000181228 0.000179661 1.76098e-05)
(0.000173219 0.000187395 1.76101e-05)
(0.000164879 0.000194773 1.76096e-05)
(0.000156227 0.000201779 1.76095e-05)
(0.000147277 0.000208401 1.76098e-05)
(0.000138046 0.000214627 1.76096e-05)
(0.000128553 0.000220444 1.761e-05)
(0.000118815 0.000225842 1.76098e-05)
(0.000108851 0.00023081 1.76094e-05)
(9.86792e-05 0.000235338 1.76092e-05)
(8.83195e-05 0.000239419 1.76091e-05)
(7.77929e-05 0.000243043 1.76101e-05)
(6.71176e-05 0.000246205 1.76102e-05)
(5.63135e-05 0.000248898 1.76091e-05)
(4.54034e-05 0.000251118 1.7609e-05)
(3.44066e-05 0.000252859 1.76093e-05)
(2.33452e-05 0.000254119 1.76103e-05)
(1.22381e-05 0.000254896 1.76101e-05)
(1.10712e-06 0.000255186 1.76091e-05)
(-1.00247e-05 0.000254992 1.76092e-05)
(-2.11375e-05 0.000254312 1.76094e-05)
(-3.22099e-05 0.000253148 1.76097e-05)
(-4.32214e-05 0.000251502 1.76099e-05)
(-5.41512e-05 0.000249377 1.76095e-05)
(-6.49771e-05 0.000246778 1.76097e-05)
(-7.56796e-05 0.000243709 1.76094e-05)
(-8.62382e-05 0.000240176 1.76096e-05)
(-9.6632e-05 0.000236186 1.76101e-05)
(-0.000106842 0.000231746 1.76098e-05)
(-0.00011685 0.000226865 1.76091e-05)
(-0.000126634 0.000221552 1.76092e-05)
(-0.000136177 0.000215817 1.76096e-05)
(-0.000145462 0.000209672 1.76093e-05)
(-0.000154469 0.000203128 1.76095e-05)
(-0.000163183 0.000196196 1.7609e-05)
(-0.000171585 0.000188892 1.76089e-05)
(-0.000179661 0.000181228 1.76098e-05)
(-0.000187395 0.000173219 1.76101e-05)
(-0.000194773 0.000164879 1.76096e-05)
(-0.000201779 0.000156227 1.76095e-05)
(-0.000208401 0.000147277 1.76098e-05)
(-0.000214627 0.000138046 1.76096e-05)
(-0.000220444 0.000128553 1.761e-05)
(-0.000225842 0.000118815 1.76098e-05)
(-0.00023081 0.000108851 1.76094e-05)
(-0.000235338 9.86792e-05 1.76092e-05)
(-0.000239419 8.83195e-05 1.76091e-05)
(-0.000243043 7.77929e-05 1.76101e-05)
(-0.000246205 6.71176e-05 1.76102e-05)
(-0.000248898 5.63135e-05 1.76091e-05)
(-0.000251118 4.54034e-05 1.7609e-05)
(-0.000252859 3.44066e-05 1.76093e-05)
(-0.000254119 2.33452e-05 1.76103e-05)
(-0.000254896 1.22381e-05 1.76101e-05)
(-0.000255186 1.10712e-06 1.76091e-05)
(-0.000254992 -1.00247e-05 1.76092e-05)
(-0.000254312 -2.11375e-05 1.76094e-05)
(-0.000253148 -3.22099e-05 1.76097e-05)
(-0.000251502 -4.32214e-05 1.76099e-05)
(-0.000249377 -5.41512e-05 1.76095e-05)
(-0.000246778 -6.49771e-05 1.76097e-05)
(-0.000243709 -7.56796e-05 1.76094e-05)
(-0.000240176 -8.62382e-05 1.76096e-05)
(-0.000236186 -9.6632e-05 1.76101e-05)
(-0.000231746 -0.000106842 1.76098e-05)
(-0.000226865 -0.00011685 1.76091e-05)
(-0.000221552 -0.000126634 1.76092e-05)
(-0.000215817 -0.000136177 1.76096e-05)
(-0.000209672 -0.000145462 1.76093e-05)
(-0.000203128 -0.000154469 1.76095e-05)
(-0.000196196 -0.000163183 1.7609e-05)
(-0.000188892 -0.000171585 1.76089e-05)
(-0.000181228 -0.000179661 1.76098e-05)
(-0.000173219 -0.000187395 1.76101e-05)
(-0.000164879 -0.000194773 1.76096e-05)
(-0.000156227 -0.000201779 1.76095e-05)
(-0.000147277 -0.000208401 1.76098e-05)
(-0.000138046 -0.000214627 1.76096e-05)
(-0.000128553 -0.000220444 1.761e-05)
(-0.000118815 -0.000225842 1.76098e-05)
(-0.000108851 -0.00023081 1.76094e-05)
(-9.86792e-05 -0.000235338 1.76092e-05)
(-8.83195e-05 -0.000239419 1.76091e-05)
(-7.77929e-05 -0.000243043 1.76101e-05)
(-6.71176e-05 -0.000246205 1.76102e-05)
(-5.63135e-05 -0.000248898 1.76091e-05)
(-4.54034e-05 -0.000251118 1.7609e-05)
(-3.44066e-05 -0.000252859 1.76093e-05)
(-2.33452e-05 -0.000254119 1.76103e-05)
(-1.22381e-05 -0.000254896 1.76101e-05)
(-1.10712e-06 -0.000255186 1.76091e-05)
(1.00247e-05 -0.000254992 1.76092e-05)
(2.11375e-05 -0.000254312 1.76094e-05)
(3.22099e-05 -0.000253148 1.76097e-05)
(4.32214e-05 -0.000251502 1.76099e-05)
(5.41512e-05 -0.000249377 1.76095e-05)
(6.49771e-05 -0.000246778 1.76097e-05)
(7.56796e-05 -0.000243709 1.76094e-05)
(8.62382e-05 -0.000240176 1.76096e-05)
(9.6632e-05 -0.000236186 1.76101e-05)
(0.000106842 -0.000231746 1.76098e-05)
(0.00011685 -0.000226865 1.76091e-05)
(0.000126634 -0.000221552 1.76092e-05)
(0.000136177 -0.000215817 1.76096e-05)
(0.000145462 -0.000209672 1.76093e-05)
(0 0 0)
(0 0 0)
(0 0 0)
(0 0 0)
(0 0 0)
(0 0 0)
(0 0 0)
(0 0 0)
(0 0 0)
(0 0 0)
(0 0 0)
(0 0 0)
(0 0 0)
(0 0 0)
(0 0 0)
(0 0 0)
(0 0 0)
(0 0 0)
(0 0 0)
(0 0 0)
(0 0 0)
(0 0 0)
(0 0 0)
(0 0 0)
(0 0 0)
(0 0 0)
(0 0 0)
(0 0 0)
(0 0 0)
(0 0 0)
(0 0 0)
(0 0 0)
(0 0 0)
(0 0 0)
(0 0 0)
(0 0 0)
(0 0 0)
(0 0 0)
(0 0 0)
(0 0 0)
(0 0 0)
(0 0 0)
(0 0 0)
(0 0 0)
(0 0 0)
(0 0 0)
(0 0 0)
(0 0 0)
(0 0 0)
(0 0 0)
(0 0 0)
(0 0 0)
(0 0 0)
(0 0 0)
(0 0 0)
(0 0 0)
(0 0 0)
(0 0 0)
(0 0 0)
(0 0 0)
(0 0 0)
(0 0 0)
(0 0 0)
(0 0 0)
(0 0 0)
(0 0 0)
(0 0 0)
(0 0 0)
(0 0 0)
(0 0 0)
(0 0 0)
(0 0 0)
(0 0 0)
(0 0 0)
(0 0 0)
(0 0 0)
(0 0 0)
(0 0 0)
(0 0 0)
(0 0 0)
(0 0 0)
(0 0 0)
(0 0 0)
(0 0 0)
(0 0 0)
(0 0 0)
(0 0 0)
(0 0 0)
(0 0 0)
(0 0 0)
(0 0 0)
(0 0 0)
(0 0 0)
(0 0 0)
(0 0 0)
(0 0 0)
(0 0 0)
(0 0 0)
(0 0 0)
(0 0 0)
(0 0 0)
(0 0 0)
(0 0 0)
(0 0 0)
(0 0 0)
(0 0 0)
(0 0 0)
(0 0 0)
(0 0 0)
(0 0 0)
(0 0 0)
(0 0 0)
(0 0 0)
(0 0 0)
(0 0 0)
(0 0 0)
(0 0 0)
(0 0 0)
(0 0 0)
(0 0 0)
(0 0 0)
(0 0 0)
(0 0 0)
(0 0 0)
(0 0 0)
(0 0 0)
(0 0 0)
(0 0 0)
(0 0 0)
(0 0 0)
(0 0 0)
(0 0 0)
(0 0 0)
(0 0 0)
(0 0 0)
(0 0 0)
(0 0 0)
(0 0 0)
(0 0 0)
(0 0 0)
(0 0 0)
(0 0 0)
(0 0 0)
(0 0 0)
(0.000132867 -0.000226302 3.41132e-05)
(0.000142612 -0.000220291 3.41132e-05)
(0.000152085 -0.000213862 3.41134e-05)
(0.000161268 -0.000207024 3.41137e-05)
(0.000170145 -0.000199792 3.41136e-05)
(0.000178698 -0.000192181 3.41138e-05)
(0.000186911 -0.000184203 3.41137e-05)
(0.000194767 -0.000175875 3.41137e-05)
(0.000202254 -0.000167212 3.41134e-05)
(0.000209355 -0.00015823 3.41132e-05)
(0.000216058 -0.000148948 3.41135e-05)
(0.000222349 -0.000139382 3.41135e-05)
(0.000228217 -0.00012955 3.41133e-05)
(0.000233651 -0.000119472 3.41134e-05)
(0.00023864 -0.000109167 3.41134e-05)
(0.000243174 -9.86542e-05 3.41139e-05)
(0.000247246 -8.79532e-05 3.41139e-05)
(0.000250847 -7.70835e-05 3.41132e-05)
(0.000253971 -6.60698e-05 3.41137e-05)
(0.000256611 -5.49287e-05 3.41138e-05)
(0.000258763 -4.36823e-05 3.41135e-05)
(0.000260422 -3.23539e-05 3.41134e-05)
(0.000261585 -2.09638e-05 3.41133e-05)
(0.000262251 -9.534e-06 3.41135e-05)
(0.000262417 1.91453e-06 3.41135e-05)
(0.000262084 1.33599e-05 3.41132e-05)
(0.000261251 2.47789e-05 3.41134e-05)
(0.000259922 3.61502e-05 3.41138e-05)
(0.000258098 4.74537e-05 3.41137e-05)
(0.000255782 5.86664e-05 3.41137e-05)
(0.00025298 6.9768e-05 3.41135e-05)
(0.000249696 8.07358e-05 3.41137e-05)
(0.000245937 9.1551e-05 3.41135e-05)
(0.000241709 0.000102192 3.41132e-05)
(0.000237021 0.000112638 3.41133e-05)
(0.000231882 0.000122869 3.41132e-05)
(0.000226302 0.000132867 3.41132e-05)
(0.000220291 0.000142612 3.41132e-05)
(0.000213862 0.000152085 3.41134e-05)
(0.000207024 0.000161268 3.41137e-05)
(0.000199792 0.000170145 3.41136e-05)
(0.000192181 0.000178698 3.41138e-05)
(0.000184203 0.000186911 3.41137e-05)
(0.000175875 0.000194767 3.41137e-05)
(0.000167212 0.000202254 3.41134e-05)
(0.00015823 0.000209355 3.41132e-05)
(0.000148948 0.000216058 3.41135e-05)
(0.000139382 0.000222349 3.41135e-05)
(0.00012955 0.000228217 3.41133e-05)
(0.000119472 0.000233651 3.41134e-05)
(0.000109167 0.00023864 3.41134e-05)
(9.86542e-05 0.000243174 3.41139e-05)
(8.79532e-05 0.000247246 3.41139e-05)
(7.70835e-05 0.000250847 3.41132e-05)
(6.60698e-05 0.000253971 3.41137e-05)
(5.49287e-05 0.000256611 3.41138e-05)
(4.36823e-05 0.000258763 3.41135e-05)
(3.23539e-05 0.000260422 3.41134e-05)
(2.09638e-05 0.000261585 3.41133e-05)
(9.534e-06 0.000262251 3.41135e-05)
(-1.91453e-06 0.000262417 3.41135e-05)
(-1.33599e-05 0.000262084 3.41132e-05)
(-2.47789e-05 0.000261251 3.41134e-05)
(-3.61502e-05 0.000259922 3.41138e-05)
(-4.74537e-05 0.000258098 3.41137e-05)
(-5.86664e-05 0.000255782 3.41137e-05)
(-6.9768e-05 0.00025298 3.41135e-05)
(-8.07358e-05 0.000249696 3.41137e-05)
(-9.1551e-05 0.000245937 3.41135e-05)
(-0.000102192 0.000241709 3.41132e-05)
(-0.000112638 0.000237021 3.41133e-05)
(-0.000122869 0.000231882 3.41132e-05)
(-0.000132867 0.000226302 3.41132e-05)
(-0.000142612 0.000220291 3.41132e-05)
(-0.000152085 0.000213862 3.41134e-05)
(-0.000161268 0.000207024 3.41137e-05)
(-0.000170145 0.000199792 3.41136e-05)
(-0.000178698 0.000192181 3.41138e-05)
(-0.000186911 0.000184203 3.41137e-05)
(-0.000194767 0.000175875 3.41137e-05)
(-0.000202254 0.000167212 3.41134e-05)
(-0.000209355 0.00015823 3.41132e-05)
(-0.000216058 0.000148948 3.41135e-05)
(-0.000222349 0.000139382 3.41135e-05)
(-0.000228217 0.00012955 3.41133e-05)
(-0.000233651 0.000119472 3.41134e-05)
(-0.00023864 0.000109167 3.41134e-05)
(-0.000243174 9.86542e-05 3.41139e-05)
(-0.000247246 8.79532e-05 3.41139e-05)
(-0.000250847 7.70835e-05 3.41132e-05)
(-0.000253971 6.60698e-05 3.41137e-05)
(-0.000256611 5.49287e-05 3.41138e-05)
(-0.000258763 4.36823e-05 3.41135e-05)
(-0.000260422 3.23539e-05 3.41134e-05)
(-0.000261585 2.09638e-05 3.41133e-05)
(-0.000262251 9.534e-06 3.41135e-05)
(-0.000262417 -1.91453e-06 3.41135e-05)
(-0.000262084 -1.33599e-05 3.41132e-05)
(-0.000261251 -2.47789e-05 3.41134e-05)
(-0.000259922 -3.61502e-05 3.41138e-05)
(-0.000258098 -4.74537e-05 3.41137e-05)
(-0.000255782 -5.86664e-05 3.41137e-05)
(-0.00025298 -6.9768e-05 3.41135e-05)
(-0.000249696 -8.07358e-05 3.41137e-05)
(-0.000245937 -9.1551e-05 3.41135e-05)
(-0.000241709 -0.000102192 3.41132e-05)
(-0.000237021 -0.000112638 3.41133e-05)
(-0.000231882 -0.000122869 3.41132e-05)
(-0.000226302 -0.000132867 3.41132e-05)
(-0.000220291 -0.000142612 3.41132e-05)
(-0.000213862 -0.000152085 3.41134e-05)
(-0.000207024 -0.000161268 3.41137e-05)
(-0.000199792 -0.000170145 3.41136e-05)
(-0.000192181 -0.000178698 3.41138e-05)
(-0.000184203 -0.000186911 3.41137e-05)
(-0.000175875 -0.000194767 3.41137e-05)
(-0.000167212 -0.000202254 3.41134e-05)
(-0.00015823 -0.000209355 3.41132e-05)
(-0.000148948 -0.000216058 3.41135e-05)
(-0.000139382 -0.000222349 3.41135e-05)
(-0.00012955 -0.000228217 3.41133e-05)
(-0.000119472 -0.000233651 3.41134e-05)
(-0.000109167 -0.00023864 3.41134e-05)
(-9.86542e-05 -0.000243174 3.41139e-05)
(-8.79532e-05 -0.000247246 3.41139e-05)
(-7.70835e-05 -0.000250847 3.41132e-05)
(-6.60698e-05 -0.000253971 3.41137e-05)
(-5.49287e-05 -0.000256611 3.41138e-05)
(-4.36823e-05 -0.000258763 3.41135e-05)
(-3.23539e-05 -0.000260422 3.41134e-05)
(-2.09638e-05 -0.000261585 3.41133e-05)
(-9.534e-06 -0.000262251 3.41135e-05)
(1.91453e-06 -0.000262417 3.41135e-05)
(1.33599e-05 -0.000262084 3.41132e-05)
(2.47789e-05 -0.000261251 3.41134e-05)
(3.61502e-05 -0.000259922 3.41138e-05)
(4.74537e-05 -0.000258098 3.41137e-05)
(5.86664e-05 -0.000255782 3.41137e-05)
(6.9768e-05 -0.00025298 3.41135e-05)
(8.07358e-05 -0.000249696 3.41137e-05)
(9.1551e-05 -0.000245937 3.41135e-05)
(0.000102192 -0.000241709 3.41132e-05)
(0.000112638 -0.000237021 3.41133e-05)
(0.000122869 -0.000231882 3.41132e-05)
(0 0 0)
(0 0 0)
(0 0 0)
(0 0 0)
(0 0 0)
(0 0 0)
(0 0 0)
(0 0 0)
(0 0 0)
(0 0 0)
(0 0 0)
(0 0 0)
(0 0 0)
(0 0 0)
(0 0 0)
(0 0 0)
(0 0 0)
(0 0 0)
(0 0 0)
(0 0 0)
(0 0 0)
(0 0 0)
(0 0 0)
(0 0 0)
(0 0 0)
(0 0 0)
(0 0 0)
(0 0 0)
(0 0 0)
(0 0 0)
(0 0 0)
(0 0 0)
(0 0 0)
(0 0 0)
(0 0 0)
(0 0 0)
(0 0 0)
(0 0 0)
(0 0 0)
(0 0 0)
(0 0 0)
(0 0 0)
(0 0 0)
(0 0 0)
(0 0 0)
(0 0 0)
(0 0 0)
(0 0 0)
(0 0 0)
(0 0 0)
(0 0 0)
(0 0 0)
(0 0 0)
(0 0 0)
(0 0 0)
(0 0 0)
(0 0 0)
(0 0 0)
(0 0 0)
(0 0 0)
(0 0 0)
(0 0 0)
(0 0 0)
(0 0 0)
(0 0 0)
(0 0 0)
(0 0 0)
(0 0 0)
(0 0 0)
(0 0 0)
(0 0 0)
(0 0 0)
(0 0 0)
(0 0 0)
(0 0 0)
(0 0 0)
(0 0 0)
(0 0 0)
(0 0 0)
(0 0 0)
(0 0 0)
(0 0 0)
(0 0 0)
(0 0 0)
(0 0 0)
(0 0 0)
(0 0 0)
(0 0 0)
(0 0 0)
(0 0 0)
(0 0 0)
(0 0 0)
(0 0 0)
(0 0 0)
(0 0 0)
(0 0 0)
(0 0 0)
(0 0 0)
(0 0 0)
(0 0 0)
(0 0 0)
(0 0 0)
(0 0 0)
(0 0 0)
(0 0 0)
(0 0 0)
(0 0 0)
(0 0 0)
(0 0 0)
(0 0 0)
(0 0 0)
(0 0 0)
(0 0 0)
(0 0 0)
(0 0 0)
(0 0 0)
(0 0 0)
(0 0 0)
(0 0 0)
(0 0 0)
(0 0 0)
(0 0 0)
(0 0 0)
(0 0 0)
(0 0 0)
(0 0 0)
(0 0 0)
(0 0 0)
(0 0 0)
(0 0 0)
(0 0 0)
(0 0 0)
(0 0 0)
(0 0 0)
(0 0 0)
(0 0 0)
(0 0 0)
(0 0 0)
(0 0 0)
(0 0 0)
(0 0 0)
(0 0 0)
(0 0 0)
(0 0 0)
(0.0001075 -0.000247483 4.01269e-05)
(0.000118193 -0.000242558 4.0127e-05)
(0.000128661 -0.000237172 4.0127e-05)
(0.000138883 -0.000231334 4.01271e-05)
(0.000148842 -0.000225056 4.01272e-05)
(0.000158517 -0.000218349 4.01273e-05)
(0.00016789 -0.000211227 4.01272e-05)
(0.000176944 -0.000203703 4.01271e-05)
(0.000185661 -0.000195791 4.01272e-05)
(0.000194025 -0.000187506 4.01271e-05)
(0.000202019 -0.000178864 4.01271e-05)
(0.000209628 -0.000169882 4.0127e-05)
(0.000216839 -0.000160576 4.0127e-05)
(0.000223637 -0.000150965 4.0127e-05)
(0.000230009 -0.000141067 4.01271e-05)
(0.000235943 -0.0001309 4.01273e-05)
(0.000241428 -0.000120484 4.01274e-05)
(0.000246454 -0.000109838 4.01273e-05)
(0.00025101 -9.89835e-05 4.01272e-05)
(0.000255089 -8.79401e-05 4.01272e-05)
(0.000258682 -7.67294e-05 4.01272e-05)
(0.000261783 -6.53722e-05 4.01271e-05)
(0.000264385 -5.38915e-05 4.0127e-05)
(0.000266485 -4.23076e-05 4.0127e-05)
(0.000268076 -3.06434e-05 4.01271e-05)
(0.000269158 -1.8921e-05 4.01271e-05)
(0.000269727 -7.16329e-06 4.01272e-05)
(0.000269783 4.60893e-06 4.01271e-05)
(0.000269325 1.63724e-05 4.01272e-05)
(0.000268354 2.81052e-05 4.01272e-05)
(0.000266873 3.97841e-05 4.01272e-05)
(0.000264884 5.13869e-05 4.0127e-05)
(0.00026239 6.2892e-05 4.0127e-05)
(0.000259397 7.42775e-05 4.0127e-05)
(0.00025591 8.55217e-05 4.0127e-05)
(0.000251936 9.66028e-05 4.0127e-05)
(0.000247483 0.0001075 4.01269e-05)
(0.000242558 0.000118193 4.0127e-05)
(0.000237172 0.000128661 4.0127e-05)
(0.000231334 0.000138883 4.01271e-05)
(0.000225056 0.000148842 4.01272e-05)
(0.000218349 0.000158517 4.01273e-05)
(0.000211227 0.00016789 4.01272e-05)
(0.000203703 0.000176944 4.01271e-05)
(0.000195791 0.000185661 4.01272e-05)
(0.000187506 0.000194025 4.01271e-05)
(0.000178864 0.000202019 4.01271e-05)
(0.000169882 0.000209628 4.0127e-05)
(0.000160576 0.000216839 4.0127e-05)