/*--------------------------------*- C++ -*----------------------------------*\
| =========                 |                                                 |
| \\      /  F ield         | OpenFOAM: The Open Source CFD Toolbox           |
|  \\    /   O peration     | Version:  2312                                  |
|   \\  /    A nd           | Website:  www.openfoam.com                      |
|    \\/     M anipulation  |                                                 |
\*---------------------------------------------------------------------------*/
FoamFile
{
    version     2.0;
    format      ascii;
    arch        "LSB;label=32;scalar=64";
    class       volVectorField;
    location    "0.6";
    object      D;
}
// * * * * * * * * * * * * * * * * * * * * * * * * * * * * * * * * * * * * * //

dimensions      [0 1 0 0 0 0 0];

internalField   nonuniform List<vector> 
1620
(
(-0.00023293 0.000217524 -0.000134454)
(-0.000267164 0.000173771 -0.000134455)
(-0.00029328 0.000124738 -0.000134454)
(-0.000310486 7.19165e-05 -0.000134454)
(-0.000318257 1.69091e-05 -0.000134455)
(-0.000316358 -3.86128e-05 -0.000134455)
(-0.000304847 -9.29612e-05 -0.000134454)
(-0.000284073 -0.000144485 -0.000134454)
(-0.000254667 -0.000191619 -0.000134454)
(-0.000217524 -0.00023293 -0.000134454)
(-0.000173771 -0.000267164 -0.000134455)
(-0.000124738 -0.00029328 -0.000134454)
(-7.19165e-05 -0.000310486 -0.000134454)
(-1.69091e-05 -0.000318257 -0.000134455)
(3.86128e-05 -0.000316358 -0.000134455)
(9.29613e-05 -0.000304847 -0.000134454)
(0.000144485 -0.000284073 -0.000134454)
(0.000191619 -0.000254667 -0.000134454)
(0.00023293 -0.000217524 -0.000134454)
(0.000267164 -0.000173771 -0.000134455)
(0.00029328 -0.000124738 -0.000134454)
(0.000310486 -7.19165e-05 -0.000134454)
(0.000318257 -1.69091e-05 -0.000134455)
(0.000316358 3.86128e-05 -0.000134455)
(0.000304847 9.29613e-05 -0.000134454)
(0.000284073 0.000144485 -0.000134454)
(0.000254667 0.000191619 -0.000134454)
(0.000217524 0.00023293 -0.000134454)
(0.000173771 0.000267164 -0.000134455)
(0.000124738 0.00029328 -0.000134454)
(7.19165e-05 0.000310486 -0.000134454)
(1.69091e-05 0.000318257 -0.000134455)
(-3.86127e-05 0.000316358 -0.000134455)
(-9.29612e-05 0.000304847 -0.000134454)
(-0.000144485 0.000284073 -0.000134454)
(-0.000191619 0.000254667 -0.000134454)
(-0.000161693 0.000302496 -9.08259e-05)
(-0.000211764 0.000269823 -9.0826e-05)
(-0.000255401 0.000228951 -9.08259e-05)
(-0.000291278 0.000181123 -9.08258e-05)
(-0.000318305 0.000127791 -9.0826e-05)
(-0.00033566 7.05766e-05 -9.08259e-05)
(-0.000342816 1.12178e-05 -9.08257e-05)
(-0.000339556 -4.84818e-05 -9.08258e-05)
(-0.000325978 -0.000106709 -9.08259e-05)
(-0.000302496 -0.000161693 -9.08259e-05)
(-0.000269823 -0.000211764 -9.0826e-05)
(-0.000228951 -0.000255401 -9.08259e-05)
(-0.000181123 -0.000291278 -9.08258e-05)
(-0.000127791 -0.000318305 -9.0826e-05)
(-7.05766e-05 -0.00033566 -9.08259e-05)
(-1.12178e-05 -0.000342816 -9.08258e-05)
(4.84818e-05 -0.000339556 -9.08258e-05)
(0.000106709 -0.000325978 -9.08259e-05)
(0.000161693 -0.000302496 -9.08259e-05)
(0.000211764 -0.000269822 -9.0826e-05)
(0.000255401 -0.000228951 -9.08259e-05)
(0.000291278 -0.000181123 -9.08258e-05)
(0.000318305 -0.000127791 -9.0826e-05)
(0.00033566 -7.05766e-05 -9.08259e-05)
(0.000342816 -1.12178e-05 -9.08258e-05)
(0.000339556 4.84818e-05 -9.08258e-05)
(0.000325978 0.000106709 -9.08259e-05)
(0.000302496 0.000161693 -9.08259e-05)
(0.000269823 0.000211764 -9.0826e-05)
(0.000228951 0.000255401 -9.08259e-05)
(0.000181123 0.000291278 -9.08258e-05)
(0.000127791 0.000318305 -9.0826e-05)
(7.05766e-05 0.00033566 -9.08259e-05)
(1.12178e-05 0.000342816 -9.08257e-05)
(-4.84818e-05 0.000339556 -9.08257e-05)
(-0.000106709 0.000325978 -9.08259e-05)
(-0.000116932 0.000389516 -5.82369e-05)
(-0.000182794 0.000363293 -5.82369e-05)
(-0.000243102 0.000326032 -5.82371e-05)
(-0.000296024 0.000278865 -5.82369e-05)
(-0.000339951 0.000223224 -5.8237e-05)
(-0.000373549 0.000160801 -5.82369e-05)
(-0.000395797 9.3492e-05 -5.82371e-05)
(-0.000406018 2.33422e-05 -5.82371e-05)
(-0.000403903 -4.75167e-05 -5.8237e-05)
(-0.000389516 -0.000116932 -5.82369e-05)
(-0.000363293 -0.000182794 -5.82369e-05)
(-0.000326032 -0.000243102 -5.82371e-05)
(-0.000278865 -0.000296024 -5.82369e-05)
(-0.000223224 -0.000339951 -5.82371e-05)
(-0.000160801 -0.000373549 -5.82369e-05)
(-9.3492e-05 -0.000395797 -5.82371e-05)
(-2.33422e-05 -0.000406018 -5.82372e-05)
(4.75167e-05 -0.000403903 -5.8237e-05)
(0.000116932 -0.000389516 -5.82369e-05)
(0.000182794 -0.000363293 -5.82369e-05)
(0.000243102 -0.000326032 -5.82371e-05)
(0.000296024 -0.000278865 -5.82369e-05)
(0.000339951 -0.000223224 -5.82371e-05)
(0.000373549 -0.000160801 -5.82369e-05)
(0.000395797 -9.3492e-05 -5.82371e-05)
(0.000406018 -2.33422e-05 -5.82372e-05)
(0.000403903 4.75167e-05 -5.8237e-05)
(0.000389516 0.000116932 -5.82369e-05)
(0.000363293 0.000182794 -5.82369e-05)
(0.000326032 0.000243102 -5.82371e-05)
(0.000278865 0.000296024 -5.82369e-05)
(0.000223224 0.000339951 -5.8237e-05)
(0.000160801 0.000373549 -5.82369e-05)
(9.3492e-05 0.000395797 -5.82371e-05)
(2.33422e-05 0.000406018 -5.82371e-05)
(-4.75167e-05 0.000403903 -5.8237e-05)
(-0.000544963 0.000743102 -0.000394833)
(-0.000665722 0.00063718 -0.000394834)
(-0.000766254 0.000511899 -0.000394834)
(-0.000843503 0.000371064 -0.000394832)
(-0.000895123 0.000218954 -0.000394832)
(-0.000919545 6.01916e-05 -0.000394832)
(-0.000916028 -0.0001004 -0.000394833)
(-0.000884677 -0.000257942 -0.000394833)
(-0.000826444 -0.000407646 -0.000394833)
(-0.000743101 -0.000544963 -0.000394833)
(-0.00063718 -0.000665722 -0.000394834)
(-0.000511899 -0.000766254 -0.000394834)
(-0.000371063 -0.000843503 -0.000394832)
(-0.000218954 -0.000895123 -0.000394832)
(-6.01916e-05 -0.000919545 -0.000394833)
(0.0001004 -0.000916028 -0.000394833)
(0.000257942 -0.000884677 -0.000394833)
(0.000407646 -0.000826444 -0.000394833)
(0.000544963 -0.000743101 -0.000394833)
(0.000665722 -0.00063718 -0.000394834)
(0.000766254 -0.000511899 -0.000394834)
(0.000843503 -0.000371063 -0.000394832)
(0.000895123 -0.000218954 -0.000394832)
(0.000919545 -6.01916e-05 -0.000394832)
(0.000916028 0.0001004 -0.000394833)
(0.000884677 0.000257942 -0.000394833)
(0.000826444 0.000407646 -0.000394833)
(0.000743101 0.000544963 -0.000394833)
(0.00063718 0.000665722 -0.000394834)
(0.000511899 0.000766254 -0.000394834)
(0.000371064 0.000843503 -0.000394832)
(0.000218954 0.000895123 -0.000394832)
(6.01917e-05 0.000919545 -0.000394832)
(-0.0001004 0.000916028 -0.000394833)
(-0.000257942 0.000884677 -0.000394833)
(-0.000407646 0.000826444 -0.000394833)
(-0.000487927 0.000907459 -0.00029329)
(-0.000638093 0.000808944 -0.00029329)
(-0.000768871 0.000685851 -0.000293291)
(-0.000876287 0.00054192 -0.00029329)
(-0.000957078 0.000381521 -0.00029329)
(-0.00100879 0.000209529 -0.00029329)
(-0.00102985 3.11721e-05 -0.00029329)
(-0.00101961 -0.000148133 -0.00029329)
(-0.0009784 -0.000322936 -0.00029329)
(-0.000907459 -0.000487927 -0.00029329)
(-0.000808944 -0.000638093 -0.00029329)
(-0.000685851 -0.000768871 -0.000293291)
(-0.000541919 -0.000876287 -0.00029329)
(-0.000381521 -0.000957078 -0.00029329)
(-0.000209529 -0.00100879 -0.00029329)
(-3.11721e-05 -0.00102985 -0.00029329)
(0.000148133 -0.00101961 -0.00029329)
(0.000322936 -0.0009784 -0.00029329)
(0.000487928 -0.000907459 -0.00029329)
(0.000638093 -0.000808944 -0.00029329)
(0.000768871 -0.000685851 -0.000293291)
(0.000876287 -0.000541919 -0.00029329)
(0.000957078 -0.000381521 -0.00029329)
(0.00100879 -0.000209529 -0.00029329)
(0.00102985 -3.11721e-05 -0.00029329)
(0.00101961 0.000148133 -0.00029329)
(0.0009784 0.000322936 -0.00029329)
(0.000907459 0.000487928 -0.00029329)
(0.000808944 0.000638093 -0.00029329)
(0.000685851 0.000768871 -0.000293291)
(0.000541919 0.000876287 -0.00029329)
(0.000381521 0.000957078 -0.00029329)
(0.000209529 0.00100879 -0.00029329)
(3.11721e-05 0.00102985 -0.00029329)
(-0.000148133 0.00101961 -0.00029329)
(-0.000322936 0.0009784 -0.00029329)
(-0.000464501 0.00106765 -0.000195323)
(-0.000642839 0.000970768 -0.000195323)
(-0.000801644 0.000844392 -0.000195323)
(-0.000936092 0.00069236 -0.000195323)
(-0.0010421 0.00051929 -0.000195323)
(-0.00111644 0.000330442 -0.000195323)
(-0.00115686 0.000131554 -0.000195323)
(-0.00116213 -7.1331e-05 -0.000195323)
(-0.00113209 -0.000272049 -0.000195323)
(-0.00106765 -0.000464501 -0.000195323)
(-0.000970768 -0.000642839 -0.000195323)
(-0.000844392 -0.000801644 -0.000195323)
(-0.00069236 -0.000936092 -0.000195323)
(-0.00051929 -0.0010421 -0.000195323)
(-0.000330442 -0.00111644 -0.000195323)
(-0.000131554 -0.00115686 -0.000195323)
(7.13311e-05 -0.00116213 -0.000195323)
(0.000272049 -0.00113209 -0.000195323)
(0.000464501 -0.00106765 -0.000195323)
(0.000642839 -0.000970768 -0.000195323)
(0.000801644 -0.000844392 -0.000195323)
(0.000936092 -0.00069236 -0.000195323)
(0.0010421 -0.00051929 -0.000195323)
(0.00111644 -0.000330442 -0.000195323)
(0.00115686 -0.000131554 -0.000195323)
(0.00116213 7.13311e-05 -0.000195323)
(0.00113209 0.000272049 -0.000195323)
(0.00106765 0.000464501 -0.000195323)
(0.000970768 0.000642839 -0.000195323)
(0.000844392 0.000801644 -0.000195323)
(0.00069236 0.000936092 -0.000195323)
(0.00051929 0.0010421 -0.000195323)
(0.000330442 0.00111644 -0.000195323)
(0.000131554 0.00115686 -0.000195323)
(-7.13311e-05 0.00116213 -0.000195323)
(-0.000272049 0.00113209 -0.000195323)
(-0.000844434 0.00128819 -0.000725543)
(-0.0010553 0.00112198 -0.000725543)
(-0.00123409 0.000921686 -0.000725543)
(-0.0013754 0.000693386 -0.000725542)
(-0.00147491 0.000444018 -0.000725541)
(-0.0015296 0.000181158 -0.000725541)
(-0.00153782 -8.72071e-05 -0.000725541)
(-0.00149931 -0.000352922 -0.000725541)
(-0.00141525 -0.000607914 -0.000725542)
(-0.00128819 -0.000844434 -0.000725543)
(-0.00112198 -0.0010553 -0.000725543)
(-0.000921686 -0.00123409 -0.000725543)
(-0.000693386 -0.0013754 -0.000725542)
(-0.000444018 -0.00147491 -0.000725541)
(-0.000181158 -0.0015296 -0.000725541)
(8.72072e-05 -0.00153782 -0.000725541)
(0.000352922 -0.00149931 -0.000725541)
(0.000607914 -0.00141525 -0.000725542)
(0.000844434 -0.00128819 -0.000725543)
(0.0010553 -0.00112198 -0.000725543)
(0.00123409 -0.000921686 -0.000725543)
(0.0013754 -0.000693386 -0.000725542)
(0.00147491 -0.000444018 -0.000725541)
(0.0015296 -0.000181158 -0.000725541)
(0.00153782 8.72072e-05 -0.000725541)
(0.00149931 0.000352922 -0.000725541)
(0.00141525 0.000607914 -0.000725542)
(0.00128819 0.000844434 -0.000725543)
(0.00112198 0.0010553 -0.000725543)
(0.000921686 0.00123409 -0.000725543)
(0.000693386 0.0013754 -0.000725542)
(0.000444018 0.00147491 -0.000725541)
(0.000181158 0.0015296 -0.000725541)
(-8.72071e-05 0.00153782 -0.000725541)
(-0.000352922 0.00149931 -0.000725541)
(-0.000607914 0.00141525 -0.000725542)
(-0.000808894 0.00150826 -0.00057448)
(-0.00105851 0.00134488 -0.00057448)
(-0.00127597 0.00114064 -0.00057448)
(-0.00145465 0.000901743 -0.000574479)
(-0.00158914 0.000635446 -0.000574479)
(-0.00167534 0.000349841 -0.000574479)
(-0.00171064 5.36064e-05 -0.000574479)
(-0.00169396 -0.000244257 -0.000574479)
(-0.00162581 -0.000534699 -0.00057448)
(-0.00150826 -0.000808894 -0.00057448)
(-0.00134488 -0.00105851 -0.00057448)
(-0.00114064 -0.00127597 -0.00057448)
(-0.000901742 -0.00145465 -0.00057448)
(-0.000635446 -0.00158914 -0.000574479)
(-0.000349841 -0.00167534 -0.000574479)
(-5.36063e-05 -0.00171064 -0.000574479)
(0.000244257 -0.00169396 -0.000574479)
(0.000534699 -0.00162581 -0.00057448)
(0.000808894 -0.00150826 -0.00057448)
(0.00105851 -0.00134488 -0.00057448)
(0.00127597 -0.00114064 -0.00057448)
(0.00145465 -0.000901742 -0.00057448)
(0.00158914 -0.000635446 -0.000574479)
(0.00167534 -0.000349841 -0.000574479)
(0.00171064 -5.36063e-05 -0.000574479)
(0.00169396 0.000244257 -0.000574479)
(0.00162581 0.000534699 -0.000574479)
(0.00150826 0.000808894 -0.00057448)
(0.00134488 0.00105851 -0.00057448)
(0.00114064 0.00127597 -0.00057448)
(0.000901743 0.00145465 -0.000574479)
(0.000635446 0.00158914 -0.000574479)
(0.000349841 0.00167534 -0.000574479)
(5.36064e-05 0.00171064 -0.000574479)
(-0.000244257 0.00169396 -0.000574479)
(-0.000534699 0.00162581 -0.000574479)
(-0.000812215 0.00171531 -0.000428186)
(-0.00109774 0.00154822 -0.000428186)
(-0.0013499 0.00133408 -0.000428186)
(-0.00156106 0.0010794 -0.000428186)
(-0.00172478 0.000791927 -0.000428187)
(-0.00183609 0.000480391 -0.000428187)
(-0.00189161 0.000154259 -0.000428186)
(-0.00188966 -0.000176559 -0.000428186)
(-0.0018303 -0.000502014 -0.000428186)
(-0.00171531 -0.000812215 -0.000428186)
(-0.00154822 -0.00109774 -0.000428186)
(-0.00133408 -0.0013499 -0.000428186)
(-0.0010794 -0.00156106 -0.000428187)
(-0.000791927 -0.00172478 -0.000428187)
(-0.000480391 -0.00183609 -0.000428187)
(-0.000154259 -0.00189161 -0.000428186)
(0.00017656 -0.00188966 -0.000428186)
(0.000502014 -0.0018303 -0.000428186)
(0.000812215 -0.00171531 -0.000428186)
(0.00109774 -0.00154822 -0.000428186)
(0.0013499 -0.00133408 -0.000428186)
(0.00156106 -0.0010794 -0.000428187)
(0.00172478 -0.000791927 -0.000428187)
(0.00183609 -0.000480391 -0.000428187)
(0.00189161 -0.000154259 -0.000428186)
(0.00188966 0.00017656 -0.000428186)
(0.0018303 0.000502014 -0.000428186)
(0.00171531 0.000812215 -0.000428186)
(0.00154822 0.00109774 -0.000428186)
(0.00133408 0.0013499 -0.000428186)
(0.0010794 0.00156106 -0.000428186)
(0.000791927 0.00172478 -0.000428187)
(0.000480391 0.00183609 -0.000428187)
(0.000154259 0.00189161 -0.000428186)
(-0.000176559 0.00188966 -0.000428186)
(-0.000502014 0.0018303 -0.000428186)
(-0.00112896 0.00185676 -0.00110178)
(-0.00143423 0.00163251 -0.00110178)
(-0.00169593 0.00135866 -0.00110178)
(-0.00190609 0.00104352 -0.00110178)
(-0.00205834 0.00069668 -0.00110178)
(-0.00214805 0.000328669 -0.00110178)
(-0.00217248 -4.93285e-05 -0.00110178)
(-0.00213091 -0.000425828 -0.00110178)
(-0.0020246 -0.000789388 -0.00110178)
(-0.00185676 -0.00112896 -0.00110178)
(-0.00163251 -0.00143423 -0.00110178)
(-0.00135866 -0.00169593 -0.00110178)
(-0.00104352 -0.00190609 -0.00110178)
(-0.00069668 -0.00205834 -0.00110178)
(-0.000328669 -0.00214805 -0.00110178)
(4.93287e-05 -0.00217248 -0.00110178)
(0.000425828 -0.00213091 -0.00110178)
(0.000789388 -0.0020246 -0.00110178)
(0.00112896 -0.00185676 -0.00110178)
(0.00143423 -0.00163251 -0.00110178)
(0.00169593 -0.00135866 -0.00110178)
(0.00190609 -0.00104352 -0.00110178)
(0.00205834 -0.00069668 -0.00110178)
(0.00214805 -0.000328669 -0.00110178)
(0.00217248 4.93287e-05 -0.00110178)
(0.00213091 0.000425828 -0.00110178)
(0.0020246 0.000789388 -0.00110178)
(0.00185676 0.00112896 -0.00110178)
(0.00163251 0.00143423 -0.00110178)
(0.00135866 0.00169593 -0.00110178)
(0.00104352 0.00190609 -0.00110178)
(0.00069668 0.00205834 -0.00110178)
(0.000328669 0.00214805 -0.00110178)
(-4.93286e-05 0.00217248 -0.00110178)
(-0.000425828 0.00213091 -0.00110178)
(-0.000789388 0.0020246 -0.00110178)
(-0.0011202 0.00209426 -0.000913748)
(-0.00146684 0.00186793 -0.000913748)
(-0.00176892 0.00158484 -0.000913748)
(-0.00201725 0.00125359 -0.000913748)
(-0.00220428 0.000884252 -0.000913748)
(-0.00232435 0.000488049 -0.000913748)
(-0.00237378 7.70155e-05 -0.000913748)
(-0.00235109 -0.000336358 -0.000913748)
(-0.00225697 -0.000739511 -0.000913748)
(-0.00209426 -0.00112019 -0.000913748)
(-0.00186793 -0.00146684 -0.000913749)
(-0.00158483 -0.00176892 -0.000913749)
(-0.00125359 -0.00201725 -0.000913748)
(-0.000884252 -0.00220428 -0.000913748)
(-0.000488048 -0.00232435 -0.000913748)
(-7.70154e-05 -0.00237378 -0.000913748)
(0.000336358 -0.00235109 -0.000913748)
(0.000739512 -0.00225697 -0.000913748)
(0.0011202 -0.00209426 -0.000913749)
(0.00146684 -0.00186793 -0.000913749)
(0.00176892 -0.00158483 -0.000913749)
(0.00201725 -0.00125359 -0.000913748)
(0.00220429 -0.000884252 -0.000913748)
(0.00232435 -0.000488048 -0.000913748)
(0.00237378 -7.70154e-05 -0.000913748)
(0.00235109 0.000336358 -0.000913748)
(0.00225697 0.000739512 -0.000913748)
(0.00209426 0.0011202 -0.000913748)
(0.00186793 0.00146684 -0.000913748)
(0.00158483 0.00176892 -0.000913748)
(0.00125359 0.00201725 -0.000913748)
(0.000884252 0.00220429 -0.000913748)
(0.000488049 0.00232435 -0.000913748)
(7.70155e-05 0.00237378 -0.000913748)
(-0.000336358 0.00235109 -0.000913748)
(-0.000739511 0.00225697 -0.000913748)
(-0.00115396 0.00230798 -0.000733468)
(-0.00153721 0.00207254 -0.000733469)
(-0.00187375 0.00177412 -0.000733468)
(-0.00215335 0.00142179 -0.000733468)
(-0.00236753 0.00102627 -0.000733468)
(-0.00250977 0.000599558 -0.000733468)
(-0.00257576 0.000154631 -0.000733469)
(-0.00256348 -0.000294994 -0.000733469)
(-0.00247331 -0.000735655 -0.000733468)
(-0.00230798 -0.00115396 -0.000733468)
(-0.00207254 -0.00153721 -0.000733469)
(-0.00177412 -0.00187375 -0.000733468)
(-0.00142179 -0.00215335 -0.000733468)
(-0.00102627 -0.00236753 -0.000733468)
(-0.000599558 -0.00250977 -0.000733468)
(-0.000154631 -0.00257576 -0.000733469)
(0.000294994 -0.00256348 -0.000733469)
(0.000735655 -0.00247331 -0.000733469)
(0.00115396 -0.00230798 -0.000733468)
(0.00153721 -0.00207254 -0.000733469)
(0.00187375 -0.00177412 -0.000733469)
(0.00215335 -0.00142179 -0.000733468)
(0.00236753 -0.00102627 -0.000733468)
(0.00250977 -0.000599558 -0.000733468)
(0.00257576 -0.000154631 -0.000733469)
(0.00256348 0.000294994 -0.000733469)
(0.00247331 0.000735655 -0.000733468)
(0.00230798 0.00115396 -0.000733468)
(0.00207254 0.00153721 -0.000733469)
(0.00177412 0.00187375 -0.000733468)
(0.00142179 0.00215335 -0.000733468)
(0.00102627 0.00236753 -0.000733468)
(0.000599558 0.00250977 -0.000733468)
(0.000154631 0.00257576 -0.000733469)
(-0.000294994 0.00256348 -0.000733469)
(-0.000735655 0.00247331 -0.000733468)
(-0.00141006 0.0024388 -0.00150876)
(-0.00181213 0.0021569 -0.00150876)
(-0.00215914 0.00180946 -0.00150876)
(-0.00244055 0.00140704 -0.00150876)
(-0.0026478 0.000961862 -0.00150876)
(-0.0027746 0.000487463 -0.00150876)
(-0.00281709 -1.74678e-06 -0.00150876)
(-0.00277399 -0.000490905 -0.00150876)
(-0.00264661 -0.000965145 -0.00150876)
(-0.0024388 -0.00141006 -0.00150876)
(-0.0021569 -0.00181213 -0.00150876)
(-0.00180946 -0.00215914 -0.00150876)
(-0.00140703 -0.00244055 -0.00150876)
(-0.000961862 -0.0026478 -0.00150876)
(-0.000487463 -0.0027746 -0.00150876)
(1.74695e-06 -0.00281709 -0.00150876)
(0.000490905 -0.00277399 -0.00150876)
(0.000965146 -0.00264661 -0.00150876)
(0.00141006 -0.0024388 -0.00150876)
(0.00181213 -0.0021569 -0.00150876)
(0.00215914 -0.00180946 -0.00150876)
(0.00244055 -0.00140703 -0.00150876)
(0.0026478 -0.000961862 -0.00150876)
(0.0027746 -0.000487463 -0.00150876)
(0.00281709 1.74696e-06 -0.00150876)
(0.00277399 0.000490905 -0.00150876)
(0.00264661 0.000965146 -0.00150876)
(0.0024388 0.00141006 -0.00150876)
(0.0021569 0.00181213 -0.00150876)
(0.00180946 0.00215914 -0.00150876)
(0.00140704 0.00244055 -0.00150876)
(0.000961862 0.0026478 -0.00150876)
(0.000487463 0.0027746 -0.00150876)
(-1.74679e-06 0.00281709 -0.00150876)
(-0.000490905 0.00277399 -0.00150876)
(-0.000965145 0.00264661 -0.00150876)
(-0.00142447 0.00265401 -0.00129559)
(-0.00186369 0.00236633 -0.00129559)
(-0.00224628 0.00200675 -0.00129559)
(-0.00256063 0.0015862 -0.00129559)
(-0.00279717 0.00111746 -0.00129559)
(-0.00294871 0.000614759 -0.00129559)
(-0.00301067 9.33801e-05 -0.00129559)
(-0.00298114 -0.000430836 -0.00129559)
(-0.00286104 -0.000941961 -0.00129559)
(-0.00265401 -0.00142447 -0.00129559)
(-0.00236633 -0.00186369 -0.00129559)
(-0.00200675 -0.00224628 -0.00129559)
(-0.0015862 -0.00256063 -0.00129559)
(-0.00111746 -0.00279717 -0.00129559)
(-0.000614759 -0.00294871 -0.00129559)
(-9.338e-05 -0.00301067 -0.00129559)
(0.000430836 -0.00298114 -0.00129559)
(0.000941962 -0.00286104 -0.00129559)
(0.00142447 -0.00265401 -0.00129559)
(0.00186369 -0.00236633 -0.00129559)
(0.00224628 -0.00200675 -0.00129559)
(0.00256063 -0.0015862 -0.00129559)
(0.00279717 -0.00111746 -0.00129559)
(0.00294871 -0.000614759 -0.00129559)
(0.00301067 -9.33799e-05 -0.00129559)
(0.00298115 0.000430836 -0.00129559)
(0.00286104 0.000941962 -0.00129559)
(0.00265401 0.00142447 -0.00129559)
(0.00236633 0.00186369 -0.00129559)
(0.00200675 0.00224628 -0.00129559)
(0.0015862 0.00256063 -0.00129559)
(0.00111746 0.00279717 -0.00129559)
(0.000614759 0.00294872 -0.00129559)
(9.33801e-05 0.00301067 -0.00129559)
(-0.000430836 0.00298115 -0.00129559)
(-0.000941961 0.00286104 -0.00129558)
(-0.00148229 0.00283539 -0.00109334)
(-0.00195213 0.00253492 -0.00109334)
(-0.00236266 0.00215743 -0.00109334)
(-0.0027014 0.00171438 -0.00109334)
(-0.00295806 0.00121924 -0.00109334)
(-0.00312483 0.000687057 -0.00109334)
(-0.00319667 0.000133997 -0.00109334)
(-0.00317137 -0.000423135 -0.00109334)
(-0.00304972 -0.000967409 -0.00109334)
(-0.00283539 -0.00148229 -0.00109334)
(-0.00253492 -0.00195213 -0.00109334)
(-0.00215743 -0.00236266 -0.00109334)
(-0.00171438 -0.0027014 -0.00109334)
(-0.00121924 -0.00295806 -0.00109334)
(-0.000687057 -0.00312483 -0.00109334)
(-0.000133997 -0.00319667 -0.00109334)
(0.000423135 -0.00317137 -0.00109334)
(0.000967409 -0.00304972 -0.00109334)
(0.00148229 -0.00283539 -0.00109334)
(0.00195213 -0.00253492 -0.00109334)
(0.00236266 -0.00215743 -0.00109334)
(0.0027014 -0.00171438 -0.00109334)
(0.00295806 -0.00121924 -0.00109334)
(0.00312483 -0.000687057 -0.00109334)
(0.00319667 -0.000133997 -0.00109334)
(0.00317137 0.000423135 -0.00109334)
(0.00304972 0.000967409 -0.00109334)
(0.00283539 0.00148229 -0.00109334)
(0.00253492 0.00195213 -0.00109334)
(0.00215743 0.00236266 -0.00109334)
(0.00171438 0.0027014 -0.00109334)
(0.00121924 0.00295806 -0.00109334)
(0.000687057 0.00312483 -0.00109334)
(0.000133997 0.00319667 -0.00109334)
(-0.000423135 0.00317137 -0.00109334)
(-0.000967409 0.00304972 -0.00109334)
(-0.0016992 0.00301183 -0.00193922)
(-0.00219638 0.00267101 -0.00193922)
(-0.00262683 0.00224904 -0.00193922)
(-0.00297747 0.00175873 -0.00193922)
(-0.00323763 0.00121497 -0.00193922)
(-0.00339942 0.000634308 -0.00193922)
(-0.00345792 3.43681e-05 -0.00193922)
(-0.00341136 -0.000566617 -0.00193922)
(-0.00326114 -0.00115038 -0.00193922)
(-0.00301183 -0.0016992 -0.00193922)
(-0.00267101 -0.00219638 -0.00193922)
(-0.00224904 -0.00262683 -0.00193922)
(-0.00175873 -0.00297747 -0.00193922)
(-0.00121497 -0.00323763 -0.00193922)
(-0.000634308 -0.00339942 -0.00193922)
(-3.43679e-05 -0.00345792 -0.00193922)
(0.000566617 -0.00341136 -0.00193922)
(0.00115038 -0.00326114 -0.00193922)
(0.0016992 -0.00301183 -0.00193922)
(0.00219638 -0.00267101 -0.00193922)
(0.00262683 -0.00224904 -0.00193922)
(0.00297747 -0.00175873 -0.00193922)
(0.00323763 -0.00121497 -0.00193922)
(0.00339942 -0.000634308 -0.00193922)
(0.00345792 -3.43679e-05 -0.00193922)
(0.00341136 0.000566617 -0.00193922)
(0.00326114 0.00115038 -0.00193922)
(0.00301183 0.0016992 -0.00193922)
(0.00267101 0.00219638 -0.00193922)
(0.00224904 0.00262683 -0.00193922)
(0.00175873 0.00297747 -0.00193922)
(0.00121497 0.00323763 -0.00193922)
(0.000634308 0.00339942 -0.00193922)
(3.43681e-05 0.00345792 -0.00193922)
(-0.000566617 0.00341136 -0.00193922)
(-0.00115038 0.00326114 -0.00193922)
(-0.00172633 0.00317291 -0.00170767)
(-0.00225107 0.00282493 -0.00170767)
(-0.00270742 0.00239112 -0.00170767)
(-0.0030815 0.00188466 -0.00170767)
(-0.00336195 0.00132093 -0.00170767)
(-0.00354025 0.000717063 -0.00170767)
(-0.00361098 9.14111e-05 -0.00170767)
(-0.003572 -0.000537019 -0.00170767)
(-0.00342448 -0.00114913 -0.00170767)
(-0.00317291 -0.00172633 -0.00170767)
(-0.00282493 -0.00225107 -0.00170767)
(-0.00239112 -0.00270742 -0.00170767)
(-0.00188466 -0.0030815 -0.00170767)
(-0.00132093 -0.00336195 -0.00170767)
(-0.000717063 -0.00354025 -0.00170767)
(-9.14109e-05 -0.00361098 -0.00170767)
(0.000537019 -0.003572 -0.00170767)
(0.00114913 -0.00342448 -0.00170767)
(0.00172633 -0.00317291 -0.00170767)
(0.00225107 -0.00282493 -0.00170767)
(0.00270742 -0.00239112 -0.00170767)
(0.0030815 -0.00188466 -0.00170767)
(0.00336195 -0.00132093 -0.00170767)
(0.00354025 -0.000717063 -0.00170767)
(0.00361098 -9.14109e-05 -0.00170767)
(0.003572 0.000537019 -0.00170767)
(0.00342448 0.00114913 -0.00170767)
(0.00317291 0.00172633 -0.00170767)
(0.00282493 0.00225107 -0.00170767)
(0.00239112 0.00270742 -0.00170767)
(0.00188466 0.0030815 -0.00170767)
(0.00132093 0.00336195 -0.00170767)
(0.000717063 0.00354025 -0.00170767)
(9.14111e-05 0.00361098 -0.00170767)
(-0.000537019 0.003572 -0.00170767)
(-0.00114913 0.00342448 -0.00170767)
(-0.001795 0.00329255 -0.00148987)
(-0.00233948 0.00293083 -0.00148987)
(-0.00281287 0.00248006 -0.00148987)
(-0.00320079 0.00195394 -0.00148987)
(-0.00349146 0.00136844 -0.00148987)
(-0.00367605 0.000741363 -0.00148987)
(-0.00374894 9.17626e-05 -0.00148987)
(-0.00370792 -0.000560628 -0.00148987)
(-0.00355423 -0.00119598 -0.00148987)
(-0.00329255 -0.001795 -0.00148987)
(-0.00293083 -0.00233948 -0.00148987)
(-0.00248006 -0.00281287 -0.00148987)
(-0.00195394 -0.00320079 -0.00148987)
(-0.00136844 -0.00349146 -0.00148987)
(-0.000741363 -0.00367605 -0.00148987)
(-9.17624e-05 -0.00374894 -0.00148987)
(0.000560628 -0.00370792 -0.00148987)
(0.00119598 -0.00355423 -0.00148987)
(0.001795 -0.00329255 -0.00148987)
(0.00233948 -0.00293083 -0.00148987)
(0.00281287 -0.00248006 -0.00148987)
(0.00320079 -0.00195394 -0.00148987)
(0.00349146 -0.00136844 -0.00148987)
(0.00367605 -0.000741363 -0.00148987)
(0.00374894 -9.17624e-05 -0.00148987)
(0.00370792 0.000560628 -0.00148987)
(0.00355423 0.00119598 -0.00148987)
(0.00329255 0.001795 -0.00148987)
(0.00293083 0.00233948 -0.00148987)
(0.00248006 0.00281287 -0.00148987)
(0.00195394 0.00320079 -0.00148987)
(0.00136844 0.00349146 -0.00148987)
(0.000741363 0.00367605 -0.00148987)
(9.17626e-05 0.00374894 -0.00148987)
(-0.000560628 0.00370792 -0.00148987)
(-0.00119598 0.00355423 -0.00148987)
(-0.00200207 0.0035444 -0.00238958)
(-0.00258713 0.00314289 -0.00238958)
(-0.00309359 0.00264589 -0.00238958)
(-0.00350604 0.0020685 -0.00238959)
(-0.00381197 0.00142826 -0.00238958)
(-0.00400207 0.000744617 -0.00238958)
(-0.00407057 3.83523e-05 -0.00238958)
(-0.00401539 -0.000669079 -0.00238958)
(-0.0038382 -0.00135618 -0.00238958)
(-0.0035444 -0.00200207 -0.00238958)
(-0.00314289 -0.00258713 -0.00238958)
(-0.00264589 -0.00309359 -0.00238959)
(-0.0020685 -0.00350604 -0.00238959)
(-0.00142826 -0.00381197 -0.00238958)
(-0.000744617 -0.00400207 -0.00238958)
(-3.8352e-05 -0.00407057 -0.00238958)
(0.000669079 -0.00401539 -0.00238958)
(0.00135618 -0.0038382 -0.00238958)
(0.00200207 -0.0035444 -0.00238958)
(0.00258713 -0.00314289 -0.00238958)
(0.00309359 -0.00264589 -0.00238959)
(0.00350604 -0.0020685 -0.00238959)
(0.00381197 -0.00142826 -0.00238958)
(0.00400207 -0.000744617 -0.00238958)
(0.00407057 -3.83521e-05 -0.00238958)
(0.00401539 0.000669079 -0.00238958)
(0.00383821 0.00135618 -0.00238958)
(0.0035444 0.00200207 -0.00238958)
(0.00314289 0.00258713 -0.00238958)
(0.00264589 0.00309359 -0.00238958)
(0.0020685 0.00350604 -0.00238959)
(0.00142826 0.00381197 -0.00238958)
(0.000744617 0.00400207 -0.00238958)
(3.83523e-05 0.00407057 -0.00238958)
(-0.000669079 0.00401539 -0.00238958)
(-0.00135618 0.00383821 -0.00238958)
(-0.00202805 0.00363043 -0.00214111)
(-0.00262765 0.00322311 -0.00214111)
(-0.00314742 0.00271786 -0.00214111)
(-0.00357156 0.00213002 -0.00214111)
(-0.00388717 0.00147747 -0.00214111)
(-0.00408468 0.000780024 -0.00214111)
(-0.00415807 5.88765e-05 -0.00214111)
(-0.00410512 -0.000664059 -0.00214111)
(-0.00392745 -0.00136682 -0.00214111)
(-0.00363043 -0.00202805 -0.00214111)
(-0.00322311 -0.00262765 -0.00214111)
(-0.00271786 -0.00314742 -0.00214111)
(-0.00213002 -0.00357156 -0.00214111)
(-0.00147747 -0.00388717 -0.00214111)
(-0.000780024 -0.00408468 -0.00214111)
(-5.88763e-05 -0.00415807 -0.00214111)
(0.000664059 -0.00410512 -0.00214111)
(0.00136682 -0.00392745 -0.00214111)
(0.00202805 -0.00363043 -0.00214111)
(0.00262766 -0.00322311 -0.00214111)
(0.00314742 -0.00271786 -0.00214111)
(0.00357156 -0.00213002 -0.00214111)
(0.00388717 -0.00147747 -0.00214111)
(0.00408468 -0.000780024 -0.00214111)
(0.00415807 -5.88763e-05 -0.00214111)
(0.00410512 0.000664059 -0.00214111)
(0.00392745 0.00136682 -0.00214111)
(0.00363043 0.00202805 -0.00214111)
(0.00322311 0.00262765 -0.00214111)
(0.00271786 0.00314742 -0.00214111)
(0.00213002 0.00357156 -0.00214111)
(0.00147747 0.00388717 -0.00214111)
(0.000780024 0.00408468 -0.00214111)
(5.88765e-05 0.00415807 -0.00214111)
(-0.000664059 0.00410512 -0.00214111)
(-0.00136682 0.00392745 -0.00214111)
(-0.00209125 0.00367125 -0.00190876)
(-0.00269698 0.00325234 -0.00190876)
(-0.00322077 0.0027346 -0.00190876)
(-0.0036467 0.00213378 -0.00190876)
(-0.00396182 0.00146812 -0.00190876)
(-0.00415657 0.000757851 -0.00190876)
(-0.00422502 2.45564e-05 -0.00190876)
(-0.0041651 -0.000709484 -0.00190876)
(-0.00397862 -0.00142197 -0.00190876)
(-0.00367125 -0.00209125 -0.00190876)
(-0.00325234 -0.00269698 -0.00190876)
(-0.0027346 -0.00322077 -0.00190876)
(-0.00213378 -0.0036467 -0.00190876)
(-0.00146812 -0.00396182 -0.00190876)
(-0.000757851 -0.00415657 -0.00190876)
(-2.45562e-05 -0.00422502 -0.00190876)
(0.000709484 -0.0041651 -0.00190876)
(0.00142197 -0.00397862 -0.00190876)
(0.00209125 -0.00367125 -0.00190876)
(0.00269698 -0.00325234 -0.00190876)
(0.00322077 -0.0027346 -0.00190876)
(0.0036467 -0.00213378 -0.00190876)
(0.00396182 -0.00146812 -0.00190876)
(0.00415657 -0.000757851 -0.00190876)
(0.00422502 -2.45562e-05 -0.00190876)
(0.0041651 0.000709484 -0.00190876)
(0.00397862 0.00142197 -0.00190876)
(0.00367125 0.00209125 -0.00190876)
(0.00325234 0.00269698 -0.00190876)
(0.0027346 0.00322077 -0.00190876)
(0.00213378 0.0036467 -0.00190876)
(0.00146812 0.00396182 -0.00190876)
(0.000757851 0.00415657 -0.00190876)
(2.45565e-05 0.00422502 -0.00190876)
(-0.000709484 0.0041651 -0.00190876)
(-0.00142197 0.00397862 -0.00190876)
(-0.00231295 0.00399817 -0.00285435)
(-0.00297209 0.00353579 -0.00285435)
(-0.00354092 0.00296597 -0.00285435)
(-0.00400216 0.00230604 -0.00285435)
(-0.0043418 0.00157604 -0.00285435)
(-0.00454951 0.00079815 -0.00285435)
(-0.00461899 -3.98999e-06 -0.00285435)
(-0.00454813 -0.00080601 -0.00285435)