/*--------------------------------*- C++ -*----------------------------------*\
| =========                 |                                                 |
| \\      /  F ield         | OpenFOAM: The Open Source CFD Toolbox           |
|  \\    /   O peration     | Version:  2312                                  |
|   \\  /    A nd           | Website:  www.openfoam.com                      |
|    \\/     M anipulation  |                                                 |
\*---------------------------------------------------------------------------*/
FoamFile
{
    version     2.0;
    format      ascii;
    arch        "LSB;label=32;scalar=64";
    class       volVectorField;
    location    "0.6";
    object      D_0;
}
// * * * * * * * * * * * * * * * * * * * * * * * * * * * * * * * * * * * * * //

dimensions      [0 1 0 0 0 0 0];

internalField   nonuniform List<vector> 
1620
(
(-0.000231811 0.000219306 -0.000132745)
(-0.000266371 0.000175721 -0.000132746)
(-0.000292838 0.000126796 -0.000132745)
(-0.000310407 7.40199e-05 -0.000132745)
(-0.000318545 1.89942e-05 -0.000132746)
(-0.000317004 -3.66094e-05 -0.000132746)
(-0.000305831 -9.11005e-05 -0.000132745)
(-0.000285365 -0.000142823 -0.000132745)
(-0.000256228 -0.000190207 -0.000132745)
(-0.000219306 -0.000231811 -0.000132745)
(-0.000175721 -0.000266371 -0.000132746)
(-0.000126796 -0.000292838 -0.000132745)
(-7.40199e-05 -0.000310407 -0.000132745)
(-1.89941e-05 -0.000318545 -0.000132746)
(3.66094e-05 -0.000317004 -0.000132746)
(9.11005e-05 -0.000305831 -0.000132745)
(0.000142823 -0.000285365 -0.000132745)
(0.000190207 -0.000256228 -0.000132745)
(0.000231811 -0.000219306 -0.000132745)
(0.000266371 -0.000175721 -0.000132746)
(0.000292838 -0.000126796 -0.000132745)
(0.000310407 -7.40199e-05 -0.000132745)
(0.000318545 -1.89941e-05 -0.000132746)
(0.000317004 3.66094e-05 -0.000132746)
(0.000305831 9.11005e-05 -0.000132745)
(0.000285365 0.000142823 -0.000132745)
(0.000256228 0.000190207 -0.000132745)
(0.000219306 0.000231811 -0.000132745)
(0.000175721 0.000266371 -0.000132746)
(0.000126796 0.000292838 -0.000132745)
(7.40199e-05 0.000310407 -0.000132745)
(1.89942e-05 0.000318545 -0.000132746)
(-3.66094e-05 0.000317004 -0.000132746)
(-9.11005e-05 0.000305831 -0.000132745)
(-0.000142823 0.000285365 -0.000132745)
(-0.000190207 0.000256228 -0.000132745)
(-0.000161358 0.000302747 -8.96629e-05)
(-0.000211478 0.000270128 -8.9663e-05)
(-0.000255172 0.000229302 -8.9663e-05)
(-0.000291113 0.000181508 -8.96629e-05)
(-0.00031821 0.000128199 -8.96631e-05)
(-0.000335637 7.09951e-05 -8.9663e-05)
(-0.000342866 1.16339e-05 -8.96628e-05)
(-0.000339677 -4.80807e-05 -8.96628e-05)
(-0.000326168 -0.000106335 -8.96629e-05)
(-0.000302747 -0.000161358 -8.96629e-05)
(-0.000270128 -0.000211478 -8.9663e-05)
(-0.000229302 -0.000255172 -8.9663e-05)
(-0.000181508 -0.000291113 -8.96629e-05)
(-0.000128199 -0.00031821 -8.96631e-05)
(-7.09951e-05 -0.000335637 -8.9663e-05)
(-1.16339e-05 -0.000342866 -8.96628e-05)
(4.80808e-05 -0.000339677 -8.96628e-05)
(0.000106335 -0.000326168 -8.96629e-05)
(0.000161358 -0.000302747 -8.96629e-05)
(0.000211478 -0.000270128 -8.9663e-05)
(0.000255172 -0.000229302 -8.9663e-05)
(0.000291113 -0.000181508 -8.96629e-05)
(0.00031821 -0.000128199 -8.96631e-05)
(0.000335637 -7.09951e-05 -8.9663e-05)
(0.000342866 -1.16339e-05 -8.96628e-05)
(0.000339677 4.80808e-05 -8.96628e-05)
(0.000326168 0.000106335 -8.96629e-05)
(0.000302747 0.000161358 -8.96629e-05)
(0.000270128 0.000211478 -8.9663e-05)
(0.000229302 0.000255172 -8.96629e-05)
(0.000181508 0.000291113 -8.96629e-05)
(0.000128199 0.00031821 -8.9663e-05)
(7.09951e-05 0.000335637 -8.96629e-05)
(1.16339e-05 0.000342866 -8.96628e-05)
(-4.80807e-05 0.000339677 -8.96628e-05)
(-0.000106335 0.000326168 -8.96629e-05)
(-0.000117097 0.00038814 -5.74622e-05)
(-0.000182718 0.00036191 -5.74622e-05)
(-0.000242787 0.000324683 -5.74624e-05)
(-0.000295479 0.000277591 -5.74623e-05)
(-0.000339194 0.000222065 -5.74624e-05)
(-0.000372601 0.000159791 -5.74623e-05)
(-0.000394688 9.26613e-05 -5.74624e-05)
(-0.000404782 2.27167e-05 -5.74625e-05)
(-0.000402577 -4.79181e-05 -5.74623e-05)
(-0.00038814 -0.000117097 -5.74623e-05)
(-0.00036191 -0.000182718 -5.74622e-05)
(-0.000324683 -0.000242787 -5.74624e-05)
(-0.000277591 -0.000295479 -5.74623e-05)
(-0.000222065 -0.000339194 -5.74624e-05)
(-0.000159791 -0.000372601 -5.74623e-05)
(-9.26613e-05 -0.000394688 -5.74624e-05)
(-2.27166e-05 -0.000404782 -5.74625e-05)
(4.79181e-05 -0.000402577 -5.74623e-05)
(0.000117097 -0.00038814 -5.74623e-05)
(0.000182718 -0.00036191 -5.74623e-05)
(0.000242787 -0.000324683 -5.74625e-05)
(0.000295479 -0.000277591 -5.74623e-05)
(0.000339194 -0.000222065 -5.74624e-05)
(0.000372601 -0.000159791 -5.74623e-05)
(0.000394688 -9.26613e-05 -5.74624e-05)
(0.000404782 -2.27166e-05 -5.74625e-05)
(0.000402577 4.79181e-05 -5.74623e-05)
(0.00038814 0.000117097 -5.74623e-05)
(0.00036191 0.000182718 -5.74622e-05)
(0.000324683 0.000242787 -5.74624e-05)
(0.000277591 0.000295479 -5.74623e-05)
(0.000222065 0.000339194 -5.74624e-05)
(0.000159791 0.000372601 -5.74623e-05)
(9.26613e-05 0.000394688 -5.74624e-05)
(2.27166e-05 0.000404782 -5.74625e-05)
(-4.79181e-05 0.000402577 -5.74623e-05)
(-0.000543342 0.000746841 -0.000390245)
(-0.000664775 0.000641145 -0.000390245)
(-0.00076601 0.000515967 -0.000390245)
(-0.000843969 0.000375113 -0.000390244)
(-0.000896284 0.000222861 -0.000390243)
(-0.000921367 6.38376e-05 -0.000390244)
(-0.000918456 -9.71263e-05 -0.000390244)
(-0.000887636 -0.000255139 -0.000390244)
(-0.000829845 -0.000405399 -0.000390244)
(-0.000746841 -0.000543342 -0.000390245)
(-0.000641145 -0.000664775 -0.000390245)
(-0.000515967 -0.00076601 -0.000390245)
(-0.000375113 -0.000843969 -0.000390244)
(-0.000222861 -0.000896284 -0.000390243)
(-6.38376e-05 -0.000921367 -0.000390244)
(9.71264e-05 -0.000918456 -0.000390244)
(0.000255139 -0.000887636 -0.000390244)
(0.000405399 -0.000829845 -0.000390244)
(0.000543342 -0.000746841 -0.000390245)
(0.000664775 -0.000641145 -0.000390245)
(0.00076601 -0.000515967 -0.000390245)
(0.000843969 -0.000375113 -0.000390244)
(0.000896285 -0.000222861 -0.000390243)
(0.000921367 -6.38376e-05 -0.000390244)
(0.000918456 9.71264e-05 -0.000390244)
(0.000887636 0.000255139 -0.000390244)
(0.000829845 0.000405399 -0.000390244)
(0.000746841 0.000543342 -0.000390245)
(0.000641145 0.000664775 -0.000390245)
(0.000515967 0.00076601 -0.000390245)
(0.000375113 0.000843969 -0.000390244)
(0.000222861 0.000896285 -0.000390243)
(6.38376e-05 0.000921367 -0.000390244)
(-9.71263e-05 0.000918456 -0.000390244)
(-0.000255139 0.000887636 -0.000390244)
(-0.000405399 0.000829846 -0.000390244)
(-0.000486863 0.000908031 -0.000289951)
(-0.000637144 0.000809692 -0.000289951)
(-0.000768067 0.000686753 -0.000289951)
(-0.000875652 0.000542947 -0.000289951)
(-0.000956631 0.000382643 -0.000289951)
(-0.00100854 0.000210712 -0.000289951)
(-0.00102981 3.23796e-05 -0.000289951)
(-0.00101979 -0.000146937 -0.00028995)
(-0.000978779 -0.000321789 -0.000289951)
(-0.000908031 -0.000486863 -0.000289951)
(-0.000809692 -0.000637144 -0.000289951)
(-0.000686753 -0.000768067 -0.000289951)
(-0.000542947 -0.000875652 -0.000289951)
(-0.000382643 -0.000956631 -0.000289951)
(-0.000210712 -0.00100854 -0.000289951)
(-3.23796e-05 -0.00102981 -0.000289951)
(0.000146937 -0.00101979 -0.000289951)
(0.000321789 -0.000978779 -0.000289951)
(0.000486864 -0.000908031 -0.000289951)
(0.000637144 -0.000809692 -0.000289951)
(0.000768067 -0.000686753 -0.000289951)
(0.000875652 -0.000542947 -0.000289951)
(0.000956631 -0.000382643 -0.000289951)
(0.00100854 -0.000210712 -0.000289951)
(0.00102981 -3.23796e-05 -0.000289951)
(0.00101979 0.000146937 -0.00028995)
(0.000978779 0.000321789 -0.000289951)
(0.000908031 0.000486864 -0.000289951)
(0.000809692 0.000637144 -0.000289951)
(0.000686753 0.000768067 -0.000289951)
(0.000542947 0.000875652 -0.000289951)
(0.000382643 0.000956631 -0.00028995)
(0.000210712 0.00100854 -0.000289951)
(3.23796e-05 0.00102981 -0.000289951)
(-0.000146937 0.00101979 -0.00028995)
(-0.000321789 0.000978779 -0.000289951)
(-0.000463585 0.00106502 -0.000193195)
(-0.000641481 0.000968342 -0.000193195)
(-0.000799885 0.000842239 -0.000193195)
(-0.000933986 0.000690545 -0.000193195)
(-0.00103971 0.000517869 -0.000193195)
(-0.00111384 0.000329457 -0.000193195)
(-0.00115413 0.000131035 -0.000193195)
(-0.00115935 -7.13674e-05 -0.000193195)
(-0.00112934 -0.000271602 -0.000193195)
(-0.00106502 -0.000463585 -0.000193195)
(-0.000968342 -0.000641481 -0.000193195)
(-0.000842239 -0.000799885 -0.000193195)
(-0.000690545 -0.000933986 -0.000193195)
(-0.000517869 -0.00103971 -0.000193195)
(-0.000329457 -0.00111384 -0.000193195)
(-0.000131035 -0.00115413 -0.000193195)
(7.13675e-05 -0.00115935 -0.000193195)
(0.000271602 -0.00112934 -0.000193195)
(0.000463585 -0.00106502 -0.000193195)
(0.000641481 -0.000968342 -0.000193195)
(0.000799885 -0.000842239 -0.000193195)
(0.000933986 -0.000690545 -0.000193195)
(0.00103971 -0.000517869 -0.000193195)
(0.00111384 -0.000329457 -0.000193195)
(0.00115413 -0.000131035 -0.000193195)
(0.00115935 7.13675e-05 -0.000193195)
(0.00112934 0.000271602 -0.000193195)
(0.00106502 0.000463585 -0.000193195)
(0.000968342 0.000641481 -0.000193195)
(0.000842239 0.000799885 -0.000193195)
(0.000690545 0.000933986 -0.000193195)
(0.000517869 0.00103971 -0.000193195)
(0.000329457 0.00111384 -0.000193195)
(0.000131035 0.00115413 -0.000193195)
(-7.13674e-05 0.00115935 -0.000193195)
(-0.000271602 0.00112934 -0.000193195)
(-0.000842574 0.00129297 -0.000717861)
(-0.0010543 0.00112702 -0.000717861)
(-0.00123398 0.000926819 -0.000717861)
(-0.00137618 0.00069846 -0.00071786)
(-0.00147656 0.000448879 -0.000717859)
(-0.00153207 0.000185659 -0.000717859)
(-0.00154103 -8.32033e-05 -0.000717859)
(-0.00150317 -0.000349537 -0.00071786)
(-0.00141964 -0.000605251 -0.000717861)
(-0.00129297 -0.000842574 -0.000717861)
(-0.00112702 -0.0010543 -0.000717861)
(-0.000926819 -0.00123398 -0.000717861)
(-0.00069846 -0.00137618 -0.00071786)
(-0.000448879 -0.00147656 -0.000717859)
(-0.000185659 -0.00153207 -0.000717859)
(8.32034e-05 -0.00154103 -0.000717859)
(0.000349537 -0.00150317 -0.00071786)
(0.000605251 -0.00141964 -0.000717861)
(0.000842574 -0.00129297 -0.000717861)
(0.0010543 -0.00112702 -0.000717861)
(0.00123398 -0.000926819 -0.000717861)
(0.00137618 -0.00069846 -0.00071786)
(0.00147656 -0.000448879 -0.000717859)
(0.00153207 -0.000185659 -0.000717859)
(0.00154103 8.32034e-05 -0.000717859)
(0.00150317 0.000349537 -0.00071786)
(0.00141964 0.000605251 -0.000717861)
(0.00129297 0.000842574 -0.000717861)
(0.00112702 0.0010543 -0.000717861)
(0.000926819 0.00123398 -0.000717861)
(0.00069846 0.00137618 -0.00071786)
(0.000448879 0.00147656 -0.000717859)
(0.000185659 0.00153207 -0.000717859)
(-8.32033e-05 0.00154103 -0.000717859)
(-0.000349537 0.00150317 -0.00071786)
(-0.000605251 0.00141964 -0.000717861)
(-0.00080711 0.00150881 -0.00056858)
(-0.00105685 0.00134573 -0.00056858)
(-0.00127448 0.00114177 -0.00056858)
(-0.00145338 0.00090311 -0.000568579)
(-0.00158812 0.000637013 -0.000568579)
(-0.00167461 0.00035156 -0.000568579)
(-0.00171022 5.5426e-05 -0.000568579)
(-0.00169386 -0.000242393 -0.000568579)
(-0.00162604 -0.000532846 -0.000568579)
(-0.00150881 -0.00080711 -0.00056858)
(-0.00134573 -0.00105685 -0.00056858)
(-0.00114177 -0.00127448 -0.00056858)
(-0.00090311 -0.00145338 -0.000568579)
(-0.000637013 -0.00158812 -0.000568579)
(-0.00035156 -0.00167461 -0.000568579)
(-5.5426e-05 -0.00171022 -0.000568579)
(0.000242393 -0.00169386 -0.000568579)
(0.000532846 -0.00162604 -0.00056858)
(0.00080711 -0.00150881 -0.00056858)
(0.00105685 -0.00134573 -0.00056858)
(0.00127448 -0.00114177 -0.00056858)
(0.00145338 -0.00090311 -0.000568579)
(0.00158812 -0.000637013 -0.000568579)
(0.00167461 -0.00035156 -0.000568579)
(0.00171022 -5.54259e-05 -0.000568579)
(0.00169386 0.000242393 -0.000568579)
(0.00162604 0.000532846 -0.000568579)
(0.00150881 0.00080711 -0.00056858)
(0.00134573 0.00105685 -0.00056858)
(0.00114177 0.00127448 -0.00056858)
(0.00090311 0.00145338 -0.000568579)
(0.000637013 0.00158812 -0.000568579)
(0.00035156 0.00167461 -0.000568579)
(5.5426e-05 0.00171022 -0.000568579)
(-0.000242393 0.00169386 -0.000568579)
(-0.000532846 0.00162604 -0.000568579)
(-0.000809968 0.00171176 -0.000424002)
(-0.00109491 0.0015451 -0.000424002)
(-0.00134658 0.0013315 -0.000424002)
(-0.00155733 0.00107744 -0.000424002)
(-0.00172077 0.000790646 -0.000424002)
(-0.00183192 0.000479825 -0.000424002)
(-0.00188741 0.000154426 -0.000424002)
(-0.00188555 -0.000175665 -0.000424002)
(-0.0018264 -0.000500419 -0.000424002)
(-0.00171176 -0.000809968 -0.000424002)
(-0.0015451 -0.00109491 -0.000424002)
(-0.0013315 -0.00134658 -0.000424002)
(-0.00107744 -0.00155733 -0.000424002)
(-0.000790646 -0.00172077 -0.000424002)
(-0.000479825 -0.00183192 -0.000424002)
(-0.000154426 -0.00188741 -0.000424002)
(0.000175665 -0.00188555 -0.000424002)
(0.000500419 -0.0018264 -0.000424002)
(0.000809968 -0.00171176 -0.000424002)
(0.00109491 -0.0015451 -0.000424002)
(0.00134658 -0.0013315 -0.000424002)
(0.00155733 -0.00107744 -0.000424002)
(0.00172077 -0.000790646 -0.000424002)
(0.00183192 -0.000479825 -0.000424002)
(0.00188741 -0.000154426 -0.000424002)
(0.00188555 0.000175665 -0.000424002)
(0.0018264 0.000500419 -0.000424002)
(0.00171176 0.000809968 -0.000424002)
(0.0015451 0.00109491 -0.000424002)
(0.0013315 0.00134658 -0.000424002)
(0.00107744 0.00155733 -0.000424002)
(0.000790646 0.00172077 -0.000424002)
(0.000479825 0.00183192 -0.000424002)
(0.000154426 0.00188741 -0.000424002)
(-0.000175665 0.00188555 -0.000424002)
(-0.000500419 0.0018264 -0.000424002)
(-0.00112707 0.00186132 -0.00109126)
(-0.00143316 0.00163733 -0.00109126)
(-0.0016957 0.00136359 -0.00109126)
(-0.00190673 0.00104842 -0.00109126)
(-0.00205981 0.000701388 -0.00109126)
(-0.00215032 0.000333049 -0.00109126)
(-0.00217548 -4.54091e-05 -0.00109126)
(-0.00213455 -0.000422488 -0.00109126)
(-0.00202875 -0.000786729 -0.00109126)
(-0.00186132 -0.00112707 -0.00109126)
(-0.00163733 -0.00143316 -0.00109126)
(-0.00136359 -0.0016957 -0.00109126)
(-0.00104842 -0.00190673 -0.00109126)
(-0.000701388 -0.00205981 -0.00109126)
(-0.000333049 -0.00215032 -0.00109126)
(4.54092e-05 -0.00217548 -0.00109126)
(0.000422488 -0.00213455 -0.00109126)
(0.00078673 -0.00202875 -0.00109126)
(0.00112707 -0.00186132 -0.00109126)
(0.00143316 -0.00163733 -0.00109126)
(0.0016957 -0.00136359 -0.00109126)
(0.00190673 -0.00104842 -0.00109126)
(0.00205981 -0.000701388 -0.00109126)
(0.00215032 -0.000333049 -0.00109126)
(0.00217548 4.54092e-05 -0.00109126)
(0.00213455 0.000422488 -0.00109126)
(0.00202875 0.00078673 -0.00109126)
(0.00186132 0.00112707 -0.00109126)
(0.00163733 0.00143316 -0.00109126)
(0.00136359 0.0016957 -0.00109126)
(0.00104842 0.00190673 -0.00109126)
(0.000701388 0.00205981 -0.00109126)
(0.000333049 0.00215032 -0.00109126)
(-4.54091e-05 0.00217548 -0.00109126)
(-0.000422488 0.00213455 -0.00109126)
(-0.000786729 0.00202875 -0.00109126)
(-0.0011178 0.0020943 -0.000905277)
(-0.00146448 0.00186838 -0.000905277)
(-0.00176668 0.00158569 -0.000905277)
(-0.00201519 0.00125482 -0.000905276)
(-0.00220247 0.000885819 -0.000905276)
(-0.00232283 0.000489907 -0.000905276)
(-0.00237261 7.9109e-05 -0.000905276)
(-0.0023503 -0.000334093 -0.000905276)
(-0.00225658 -0.000737143 -0.000905276)
(-0.0020943 -0.0011178 -0.000905277)
(-0.00186837 -0.00146448 -0.000905277)
(-0.00158569 -0.00176668 -0.000905277)
(-0.00125482 -0.00201519 -0.000905276)
(-0.000885819 -0.00220247 -0.000905277)
(-0.000489907 -0.00232283 -0.000905276)
(-7.91089e-05 -0.00237261 -0.000905276)
(0.000334093 -0.0023503 -0.000905276)
(0.000737144 -0.00225658 -0.000905276)
(0.0011178 -0.0020943 -0.000905277)
(0.00146448 -0.00186837 -0.000905277)
(0.00176668 -0.00158569 -0.000905277)
(0.00201519 -0.00125482 -0.000905276)
(0.00220247 -0.000885819 -0.000905276)
(0.00232283 -0.000489907 -0.000905276)
(0.00237261 -7.91088e-05 -0.000905276)
(0.0023503 0.000334093 -0.000905276)
(0.00225658 0.000737144 -0.000905276)
(0.0020943 0.0011178 -0.000905277)
(0.00186838 0.00146448 -0.000905277)
(0.00158569 0.00176668 -0.000905277)
(0.00125482 0.00201519 -0.000905276)
(0.000885819 0.00220247 -0.000905276)
(0.000489907 0.00232283 -0.000905276)
(7.9109e-05 0.00237261 -0.000905276)
(-0.000334093 0.0023503 -0.000905276)
(-0.000737143 0.00225658 -0.000905276)
(-0.00115046 0.00230383 -0.00072691)
(-0.00153304 0.00206906 -0.00072691)
(-0.00186903 0.00177141 -0.00072691)
(-0.00214824 0.00141995 -0.00072691)
(-0.00236217 0.00102534 -0.00072691)
(-0.00250434 0.000599575 -0.00072691)
(-0.0025704 0.000155592 -0.00072691)
(-0.00255837 -0.000293118 -0.00072691)
(-0.00246861 -0.000732922 -0.00072691)
(-0.00230383 -0.00115046 -0.00072691)
(-0.00206906 -0.00153304 -0.00072691)
(-0.00177141 -0.00186903 -0.00072691)
(-0.00141995 -0.00214824 -0.00072691)
(-0.00102534 -0.00236217 -0.00072691)
(-0.000599575 -0.00250434 -0.00072691)
(-0.000155591 -0.0025704 -0.00072691)
(0.000293118 -0.00255837 -0.00072691)
(0.000732922 -0.00246861 -0.00072691)
(0.00115046 -0.00230383 -0.00072691)
(0.00153304 -0.00206906 -0.00072691)
(0.00186903 -0.00177141 -0.00072691)
(0.00214824 -0.00141995 -0.00072691)
(0.00236217 -0.00102534 -0.00072691)
(0.00250434 -0.000599575 -0.00072691)
(0.0025704 -0.000155591 -0.00072691)
(0.00255837 0.000293118 -0.00072691)
(0.00246861 0.000732922 -0.00072691)
(0.00230383 0.00115046 -0.00072691)
(0.00206906 0.00153304 -0.00072691)
(0.00177141 0.00186903 -0.00072691)
(0.00141995 0.00214824 -0.00072691)
(0.00102534 0.00236217 -0.00072691)
(0.000599575 0.00250434 -0.00072691)
(0.000155592 0.0025704 -0.00072691)
(-0.000293118 0.00255837 -0.00072691)
(-0.000732922 0.00246861 -0.00072691)
(-0.00140815 0.00244191 -0.0014958)
(-0.00181079 0.00216028 -0.0014958)
(-0.00215841 0.00181303 -0.0014958)
(-0.00244044 0.00141068 -0.0014958)
(-0.00264833 0.000965469 -0.0014958)
(-0.00277575 0.000490923 -0.0014958)
(-0.00281882 1.4616e-06 -0.0014958)
(-0.00277625 -0.000488045 -0.0014958)
(-0.00264933 -0.000962722 -0.0014958)
(-0.0024419 -0.00140815 -0.0014958)
(-0.00216028 -0.00181079 -0.0014958)
(-0.00181302 -0.00215841 -0.0014958)
(-0.00141068 -0.00244044 -0.0014958)
(-0.000965468 -0.00264833 -0.0014958)
(-0.000490923 -0.00277575 -0.0014958)
(-1.46143e-06 -0.00281882 -0.0014958)
(0.000488045 -0.00277625 -0.0014958)
(0.000962722 -0.00264933 -0.0014958)
(0.00140815 -0.0024419 -0.0014958)
(0.00181079 -0.00216028 -0.0014958)
(0.00215841 -0.00181302 -0.0014958)
(0.00244044 -0.00141068 -0.0014958)
(0.00264833 -0.000965468 -0.0014958)
(0.00277575 -0.000490923 -0.0014958)
(0.00281882 -1.46144e-06 -0.0014958)
(0.00277625 0.000488045 -0.0014958)
(0.00264933 0.000962722 -0.0014958)
(0.0024419 0.00140815 -0.0014958)
(0.00216028 0.00181079 -0.0014958)
(0.00181302 0.00215841 -0.0014958)
(0.00141068 0.00244044 -0.0014958)
(0.000965469 0.00264833 -0.0014958)
(0.000490923 0.00277575 -0.0014958)
(1.4616e-06 0.00281882 -0.0014958)
(-0.000488045 0.00277625 -0.0014958)
(-0.000962722 0.00264933 -0.0014958)
(-0.00142156 0.00265291 -0.00128475)
(-0.00186064 0.00236575 -0.00128475)
(-0.00224318 0.00200672 -0.00128475)
(-0.00255756 0.00158671 -0.00128475)
(-0.00279423 0.00111849 -0.00128475)
(-0.00294601 0.00061628 -0.00128475)
(-0.00300826 9.53486e-05 -0.00128475)
(-0.00297912 -0.00042848 -0.00128475)
(-0.00285946 -0.000939289 -0.00128475)
(-0.00265291 -0.00142156 -0.00128475)
(-0.00236575 -0.00186064 -0.00128475)
(-0.00200672 -0.00224318 -0.00128475)
(-0.00158671 -0.00255756 -0.00128475)
(-0.00111849 -0.00279423 -0.00128475)
(-0.00061628 -0.00294601 -0.00128475)
(-9.53485e-05 -0.00300826 -0.00128475)
(0.00042848 -0.00297912 -0.00128475)
(0.000939289 -0.00285946 -0.00128475)
(0.00142156 -0.00265291 -0.00128475)
(0.00186064 -0.00236575 -0.00128475)
(0.00224318 -0.00200672 -0.00128475)
(0.00255756 -0.00158671 -0.00128475)
(0.00279423 -0.00111849 -0.00128475)
(0.00294601 -0.00061628 -0.00128475)
(0.00300826 -9.53485e-05 -0.00128475)
(0.00297912 0.00042848 -0.00128475)
(0.00285946 0.000939289 -0.00128475)
(0.00265291 0.00142156 -0.00128475)
(0.00236575 0.00186064 -0.00128475)
(0.00200672 0.00224318 -0.00128475)
(0.00158671 0.00255756 -0.00128475)
(0.00111849 0.00279423 -0.00128475)
(0.00061628 0.00294601 -0.00128475)
(9.53486e-05 0.00300826 -0.00128475)
(-0.00042848 0.00297912 -0.00128475)
(-0.000939289 0.00285946 -0.00128475)
(-0.00147779 0.00283063 -0.00108441)
(-0.00194687 0.00253101 -0.00108441)
(-0.0023568 0.00215449 -0.00108441)
(-0.00269512 0.0017125 -0.00108441)
(-0.00295154 0.00121848 -0.00108441)
(-0.00311829 0.000687442 -0.00108441)
(-0.00319029 0.000135512 -0.00108441)
(-0.00316535 -0.000420535 -0.00108441)
(-0.00304424 -0.000963804 -0.00108441)
(-0.00283063 -0.00147779 -0.00108441)
(-0.00253101 -0.00194687 -0.00108441)
(-0.00215449 -0.0023568 -0.00108441)
(-0.0017125 -0.00269512 -0.00108441)
(-0.00121848 -0.00295154 -0.00108441)
(-0.000687442 -0.00311829 -0.00108441)
(-0.000135512 -0.00319029 -0.00108441)
(0.000420535 -0.00316535 -0.00108441)
(0.000963804 -0.00304424 -0.00108441)
(0.00147779 -0.00283063 -0.00108441)
(0.00194687 -0.00253101 -0.00108441)
(0.0023568 -0.00215449 -0.00108441)
(0.00269512 -0.0017125 -0.00108441)
(0.00295154 -0.00121848 -0.00108441)
(0.00311829 -0.000687442 -0.00108441)
(0.00319029 -0.000135512 -0.00108441)
(0.00316535 0.000420535 -0.00108441)
(0.00304424 0.000963804 -0.00108441)
(0.00283063 0.00147779 -0.00108441)
(0.00253101 0.00194687 -0.00108441)
(0.00215449 0.0023568 -0.00108441)
(0.0017125 0.00269512 -0.00108441)
(0.00121848 0.00295154 -0.00108441)
(0.000687442 0.00311829 -0.00108441)
(0.000135512 0.00319029 -0.00108441)
(-0.000420535 0.00316535 -0.00108441)
(-0.000963804 0.00304424 -0.00108441)
(-0.00169709 0.00301257 -0.0019241)
(-0.00219443 0.00267211 -0.0019241)
(-0.0026251 0.00225045 -0.0019241)
(-0.002976 0.00176042 -0.0019241)
(-0.00323649 0.0012169 -0.0019241)
(-0.00339863 0.000636399 -0.0019241)
(-0.0034575 3.65655e-05 -0.0019241)
(-0.00341133 -0.00056438 -0.0019241)
(-0.0032615 -0.00114818 -0.0019241)
(-0.00301257 -0.00169709 -0.0019241)
(-0.00267211 -0.00219443 -0.0019241)
(-0.00225045 -0.0026251 -0.0019241)
(-0.00176042 -0.002976 -0.0019241)
(-0.0012169 -0.00323649 -0.0019241)
(-0.000636399 -0.00339863 -0.0019241)
(-3.65653e-05 -0.0034575 -0.0019241)
(0.00056438 -0.00341133 -0.0019241)
(0.00114818 -0.0032615 -0.0019241)
(0.00169709 -0.00301257 -0.0019241)
(0.00219443 -0.00267211 -0.0019241)
(0.0026251 -0.00225045 -0.0019241)
(0.00297601 -0.00176042 -0.0019241)
(0.00323649 -0.0012169 -0.0019241)
(0.00339863 -0.000636399 -0.0019241)
(0.0034575 -3.65653e-05 -0.0019241)
(0.00341133 0.00056438 -0.0019241)
(0.0032615 0.00114818 -0.0019241)
(0.00301257 0.00169709 -0.0019241)
(0.00267211 0.00219443 -0.0019241)
(0.00225045 0.0026251 -0.0019241)
(0.00176042 0.00297601 -0.0019241)
(0.0012169 0.00323649 -0.0019241)
(0.000636399 0.00339863 -0.0019241)
(3.65655e-05 0.00345751 -0.0019241)
(-0.00056438 0.00341133 -0.0019241)
(-0.00114818 0.0032615 -0.0019241)
(-0.00172293 0.00317007 -0.00169469)
(-0.00224723 0.00282272 -0.00169469)
(-0.00270325 0.00238961 -0.00169469)
(-0.00307713 0.0018839 -0.00169469)
(-0.00335752 0.00132094 -0.00169469)
(-0.00353589 0.000717844 -0.00169469)
(-0.00360682 9.29379e-05 -0.00169469)
(-0.00356816 -0.000534792 -0.00169469)
(-0.00342109 -0.00114627 -0.00169469)
(-0.00317007 -0.00172293 -0.00169469)
(-0.00282272 -0.00224723 -0.00169469)
(-0.00238961 -0.00270325 -0.00169469)
(-0.0018839 -0.00307713 -0.00169469)
(-0.00132094 -0.00335752 -0.00169469)
(-0.000717843 -0.00353589 -0.00169469)
(-9.29377e-05 -0.00360682 -0.00169469)
(0.000534792 -0.00356816 -0.00169469)
(0.00114627 -0.00342109 -0.00169469)
(0.00172293 -0.00317007 -0.00169469)
(0.00224723 -0.00282272 -0.00169469)
(0.00270325 -0.00238961 -0.00169469)
(0.00307713 -0.0018839 -0.00169469)
(0.00335752 -0.00132094 -0.00169469)
(0.00353589 -0.000717843 -0.00169469)
(0.00360682 -9.29377e-05 -0.00169469)
(0.00356816 0.000534792 -0.00169469)
(0.00342109 0.00114627 -0.00169469)
(0.00317007 0.00172293 -0.00169469)
(0.00282272 0.00224723 -0.00169469)
(0.00238961 0.00270325 -0.00169469)
(0.0018839 0.00307713 -0.00169469)
(0.00132094 0.00335752 -0.00169469)
(0.000717844 0.00353589 -0.00169469)
(9.29379e-05 0.00360682 -0.00169469)
(-0.000534792 0.00356816 -0.00169469)
(-0.00114627 0.00342109 -0.00169469)
(-0.00178975 0.00328682 -0.00147873)
(-0.00233331 0.0029261 -0.00147873)
(-0.00280597 0.00247647 -0.00147873)
(-0.00319338 0.0019516 -0.00147873)
(-0.00348376 0.00136742 -0.00147873)
(-0.00366828 0.0007417 -0.00147873)
(-0.00374134 9.34433e-05 -0.00147873)
(-0.00370073 -0.000557655 -0.00147873)
(-0.00354767 -0.00119181 -0.00147873)
(-0.00328682 -0.00178975 -0.00147873)
(-0.0029261 -0.00233331 -0.00147873)
(-0.00247647 -0.00280597 -0.00147873)
(-0.0019516 -0.00319338 -0.00147873)
(-0.00136742 -0.00348376 -0.00147873)
(-0.0007417 -0.00366828 -0.00147873)
(-9.34431e-05 -0.00374134 -0.00147873)
(0.000557655 -0.00370073 -0.00147873)
(0.00119181 -0.00354767 -0.00147873)
(0.00178975 -0.00328682 -0.00147873)
(0.00233331 -0.0029261 -0.00147873)
(0.00280597 -0.00247647 -0.00147873)
(0.00319338 -0.0019516 -0.00147873)
(0.00348376 -0.00136742 -0.00147873)
(0.00366828 -0.0007417 -0.00147873)
(0.00374134 -9.34432e-05 -0.00147873)
(0.00370073 0.000557655 -0.00147873)
(0.00354767 0.00119181 -0.00147873)
(0.00328682 0.00178975 -0.00147873)
(0.0029261 0.00233331 -0.00147873)
(0.00247647 0.00280597 -0.00147873)
(0.0019516 0.00319338 -0.00147873)
(0.00136742 0.00348376 -0.00147873)
(0.0007417 0.00366828 -0.00147873)
(9.34433e-05 0.00374134 -0.00147873)
(-0.000557655 0.00370073 -0.00147873)
(-0.00119181 0.00354767 -0.00147873)
(-0.00199937 0.00354226 -0.00237234)
(-0.0025841 0.00314126 -0.00237234)
(-0.00309032 0.00264481 -0.00237234)
(-0.00350264 0.00206801 -0.00237234)
(-0.00380853 0.00142836 -0.00237234)
(-0.0039987 0.000745315 -0.00237234)
(-0.00406738 3.96252e-05 -0.00237234)
(-0.00401246 -0.00066727 -0.00237234)
(-0.00383564 -0.00135389 -0.00237234)
(-0.00354226 -0.00199937 -0.00237234)
(-0.00314126 -0.0025841 -0.00237234)
(-0.00264481 -0.00309032 -0.00237234)
(-0.00206801 -0.00350264 -0.00237234)
(-0.00142836 -0.00380853 -0.00237234)
(-0.000745315 -0.0039987 -0.00237234)
(-3.96249e-05 -0.00406738 -0.00237234)
(0.000667271 -0.00401246 -0.00237234)
(0.00135389 -0.00383564 -0.00237234)
(0.00199937 -0.00354226 -0.00237234)
(0.0025841 -0.00314126 -0.00237234)
(0.00309032 -0.00264481 -0.00237234)
(0.00350264 -0.00206801 -0.00237234)
(0.00380853 -0.00142836 -0.00237234)
(0.0039987 -0.000745315 -0.00237234)
(0.00406738 -3.9625e-05 -0.00237234)
(0.00401247 0.00066727 -0.00237234)
(0.00383564 0.00135389 -0.00237234)
(0.00354226 0.00199937 -0.00237234)
(0.00314126 0.0025841 -0.00237234)
(0.00264481 0.00309032 -0.00237234)
(0.00206801 0.00350264 -0.00237234)
(0.00142836 0.00380853 -0.00237234)
(0.000745315 0.0039987 -0.00237234)
(3.96252e-05 0.00406738 -0.00237234)
(-0.00066727 0.00401247 -0.00237234)
(-0.00135389 0.00383564 -0.00237234)
(-0.00202398 0.0036254 -0.00212608)
(-0.00262278 0.00321886 -0.00212608)
(-0.00314188 0.00271452 -0.00212608)
(-0.00356552 0.0021277 -0.00212608)
(-0.00388082 0.00147623 -0.00212608)
(-0.00407821 0.000779906 -0.00212608)
(-0.00415168 5.98834e-05 -0.00212608)
(-0.00409901 -0.000661958 -0.00212608)
(-0.00392179 -0.00136369 -0.00212608)
(-0.0036254 -0.00202398 -0.00212608)
(-0.00321886 -0.00262278 -0.00212608)
(-0.00271452 -0.00314188 -0.00212608)
(-0.0021277 -0.00356552 -0.00212608)
(-0.00147623 -0.00388082 -0.00212608)
(-0.000779906 -0.00407821 -0.00212608)
(-5.98832e-05 -0.00415168 -0.00212608)
(0.000661958 -0.00409901 -0.00212608)
(0.00136369 -0.00392179 -0.00212608)
(0.00202398 -0.0036254 -0.00212608)
(0.00262278 -0.00321886 -0.00212608)
(0.00314188 -0.00271452 -0.00212608)
(0.00356552 -0.0021277 -0.00212608)
(0.00388082 -0.00147623 -0.00212608)
(0.00407821 -0.000779906 -0.00212608)
(0.00415168 -5.98832e-05 -0.00212608)
(0.00409901 0.000661958 -0.00212608)
(0.00392179 0.00136369 -0.00212608)
(0.0036254 0.00202398 -0.00212608)
(0.00321886 0.00262278 -0.00212608)
(0.00271452 0.00314188 -0.00212608)
(0.0021277 0.00356552 -0.00212608)
(0.00147623 0.00388082 -0.00212608)
(0.000779906 0.00407821 -0.00212608)
(5.98834e-05 0.00415168 -0.00212608)
(-0.000661958 0.00409901 -0.00212608)
(-0.00136369 0.00392179 -0.00212608)
(-0.00208533 0.00366412 -0.00189558)
(-0.00268991 0.00324634 -0.00189558)
(-0.00321277 0.00272992 -0.00189558)
(-0.003638 0.00213056 -0.00189558)
(-0.0039527 0.00146646 -0.00189558)
(-0.0041473 0.000757801 -0.00189558)
(-0.00421588 2.61175e-05 -0.00189558)
(-0.00415637 -0.00070636 -0.00189558)
(-0.00397057 -0.00141737 -0.00189558)
(-0.00366412 -0.00208533 -0.00189558)
(-0.00324634 -0.00268991 -0.00189558)
(-0.00272992 -0.00321277 -0.00189558)
(-0.00213056 -0.003638 -0.00189558)
(-0.00146646 -0.0039527 -0.00189558)
(-0.000757801 -0.0041473 -0.00189558)
(-2.61172e-05 -0.00421588 -0.00189558)
(0.00070636 -0.00415637 -0.00189558)
(0.00141738 -0.00397057 -0.00189558)
(0.00208533 -0.00366412 -0.00189558)
(0.00268991 -0.00324634 -0.00189558)
(0.00321277 -0.00272992 -0.00189558)
(0.003638 -0.00213056 -0.00189558)
(0.0039527 -0.00146646 -0.00189558)
(0.0041473 -0.000757801 -0.00189558)
(0.00421588 -2.61173e-05 -0.00189558)
(0.00415637 0.00070636 -0.00189558)
(0.00397057 0.00141738 -0.00189558)
(0.00366412 0.00208533 -0.00189558)
(0.00324634 0.00268991 -0.00189558)
(0.00272992 0.00321277 -0.00189558)
(0.00213056 0.003638 -0.00189558)
(0.00146646 0.0039527 -0.00189558)
(0.000757801 0.0041473 -0.00189558)
(2.61175e-05 0.00421588 -0.00189558)
(-0.00070636 0.00415637 -0.00189558)
(-0.00141737 0.00397057 -0.00189558)
(-0.0023091 0.00399315 -0.00283479)
(-0.00296742 0.00353151 -0.00283479)
(-0.00353558 0.00296257 -0.00283479)
(-0.00399631 0.00230362 -0.00283479)
(-0.00433562 0.00157467 -0.00283479)
(-0.00454319 0.000797874 -0.00283479)
(-0.00461272 -3.16461e-06 -0.00283479)
(-0.00454209 -0.000804108 -0.00283479)
(-0.00433346 -0.00158062 -0.00283479)
(-0.00399315 -0.0023091 -0.00283479)