/*--------------------------------*- C++ -*----------------------------------*\
| =========                 |                                                 |
| \\      /  F ield         | OpenFOAM: The Open Source CFD Toolbox           |
|  \\    /   O peration     | Version:  2312                                  |
|   \\  /    A nd           | Website:  www.openfoam.com                      |
|    \\/     M anipulation  |                                                 |
\*---------------------------------------------------------------------------*/
FoamFile
{
    version     2.0;
    format      ascii;
    arch        "LSB;label=32;scalar=64";
    class       volVectorField;
    location    "0.6";
    object      D_0_0_0;
}
// * * * * * * * * * * * * * * * * * * * * * * * * * * * * * * * * * * * * * //

dimensions      [0 1 0 0 0 0 0];

internalField   nonuniform List<vector> 
1620
(
(-0.000229533 0.00022282 -0.000129298)
(-0.000264738 0.000179577 -0.000129298)
(-0.0002919 0.000130877 -0.000129298)
(-0.000310192 7.82019e-05 -0.000129297)
(-0.000319059 2.315e-05 -0.000129298)
(-0.000318232 -3.26059e-05 -0.000129298)
(-0.000307735 -8.7371e-05 -0.000129297)
(-0.000287888 -0.000139481 -0.000129297)
(-0.000259293 -0.000187354 -0.000129297)
(-0.00022282 -0.000229533 -0.000129298)
(-0.000179577 -0.000264738 -0.000129298)
(-0.000130877 -0.0002919 -0.000129298)
(-7.82019e-05 -0.000310192 -0.000129297)
(-2.315e-05 -0.000319059 -0.000129298)
(3.26059e-05 -0.000318232 -0.000129298)
(8.7371e-05 -0.000307735 -0.000129297)
(0.000139481 -0.000287888 -0.000129297)
(0.000187354 -0.000259293 -0.000129297)
(0.000229533 -0.00022282 -0.000129298)
(0.000264738 -0.000179577 -0.000129298)
(0.0002919 -0.000130877 -0.000129298)
(0.000310192 -7.82019e-05 -0.000129297)
(0.000319059 -2.315e-05 -0.000129298)
(0.000318232 3.26059e-05 -0.000129298)
(0.000307735 8.7371e-05 -0.000129297)
(0.000287888 0.000139481 -0.000129297)
(0.000259293 0.000187354 -0.000129297)
(0.00022282 0.000229533 -0.000129298)
(0.000179577 0.000264738 -0.000129298)
(0.000130877 0.0002919 -0.000129298)
(7.82019e-05 0.000310192 -0.000129297)
(2.31501e-05 0.000319059 -0.000129298)
(-3.26059e-05 0.000318232 -0.000129298)
(-8.7371e-05 0.000307735 -0.000129297)
(-0.000139481 0.000287888 -0.000129297)
(-0.000187353 0.000259293 -0.000129297)
(-0.000160669 0.000303158 -8.73287e-05)
(-0.000210871 0.000270652 -8.73288e-05)
(-0.000254666 0.000229923 -8.73287e-05)
(-0.000290722 0.000182208 -8.73286e-05)
(-0.000317946 0.000128956 -8.73288e-05)
(-0.000335509 7.17864e-05 -8.73287e-05)
(-0.000342877 1.24354e-05 -8.73286e-05)
(-0.000339828 -4.72934e-05 -8.73286e-05)
(-0.000326452 -0.000105586 -8.73287e-05)
(-0.000303158 -0.000160669 -8.73287e-05)
(-0.000270652 -0.000210871 -8.73288e-05)
(-0.000229923 -0.000254666 -8.73287e-05)
(-0.000182208 -0.000290722 -8.73286e-05)
(-0.000128956 -0.000317946 -8.73288e-05)
(-7.17864e-05 -0.000335509 -8.73287e-05)
(-1.24354e-05 -0.000342877 -8.73286e-05)
(4.72935e-05 -0.000339828 -8.73286e-05)
(0.000105586 -0.000326452 -8.73287e-05)
(0.000160669 -0.000303158 -8.73287e-05)
(0.000210871 -0.000270652 -8.73288e-05)
(0.000254666 -0.000229923 -8.73287e-05)
(0.000290722 -0.000182208 -8.73286e-05)
(0.000317946 -0.000128956 -8.73288e-05)
(0.000335509 -7.17864e-05 -8.73287e-05)
(0.000342877 -1.24354e-05 -8.73286e-05)
(0.000339828 4.72935e-05 -8.73286e-05)
(0.000326452 0.000105586 -8.73287e-05)
(0.000303158 0.000160669 -8.73287e-05)
(0.000270652 0.000210871 -8.73288e-05)
(0.000229923 0.000254666 -8.73287e-05)
(0.000182208 0.000290722 -8.73286e-05)
(0.000128956 0.000317946 -8.73288e-05)
(7.17864e-05 0.000335509 -8.73287e-05)
(1.24354e-05 0.000342877 -8.73285e-05)
(-4.72934e-05 0.000339828 -8.73286e-05)
(-0.000105586 0.000326452 -8.73287e-05)
(-0.00011741 0.000385261 -5.59242e-05)
(-0.000182526 0.00035902 -5.59242e-05)
(-0.000242096 0.000321871 -5.59244e-05)
(-0.00029431 0.000274941 -5.59242e-05)
(-0.000337583 0.000219658 -5.59243e-05)
(-0.000370597 0.0001577 -5.59242e-05)
(-0.000392351 9.09508e-05 -5.59244e-05)
(-0.000402184 2.1438e-05 -5.59244e-05)
(-0.000399796 -4.87261e-05 -5.59243e-05)
(-0.000385261 -0.00011741 -5.59242e-05)
(-0.00035902 -0.000182526 -5.59242e-05)
(-0.000321871 -0.000242096 -5.59244e-05)
(-0.000274941 -0.00029431 -5.59242e-05)
(-0.000219658 -0.000337583 -5.59243e-05)
(-0.0001577 -0.000370597 -5.59242e-05)
(-9.09508e-05 -0.000392351 -5.59244e-05)
(-2.1438e-05 -0.000402184 -5.59244e-05)
(4.87261e-05 -0.000399796 -5.59243e-05)
(0.00011741 -0.000385261 -5.59242e-05)
(0.000182526 -0.00035902 -5.59242e-05)
(0.000242096 -0.000321871 -5.59244e-05)
(0.00029431 -0.000274941 -5.59242e-05)
(0.000337583 -0.000219658 -5.59243e-05)
(0.000370597 -0.0001577 -5.59242e-05)
(0.000392351 -9.09508e-05 -5.59244e-05)
(0.000402184 -2.1438e-05 -5.59244e-05)
(0.000399796 4.87262e-05 -5.59242e-05)
(0.000385261 0.00011741 -5.59242e-05)
(0.00035902 0.000182526 -5.59242e-05)
(0.000321871 0.000242096 -5.59244e-05)
(0.000274941 0.00029431 -5.59242e-05)
(0.000219658 0.000337583 -5.59243e-05)
(0.0001577 0.000370597 -5.59242e-05)
(9.09508e-05 0.000392351 -5.59243e-05)
(2.1438e-05 0.000402184 -5.59244e-05)
(-4.87261e-05 0.000399796 -5.59242e-05)
(-0.000540026 0.000754164 -0.00038096)
(-0.000662781 0.000648932 -0.000380961)
(-0.000765398 0.000523982 -0.000380961)
(-0.000844759 0.000383112 -0.000380959)
(-0.000898451 0.000230602 -0.000380959)
(-0.000924845 7.10839e-05 -0.000380959)
(-0.000923139 -9.05941e-05 -0.000380959)
(-0.000893383 -0.000249519 -0.00038096)
(-0.000836481 -0.000400863 -0.00038096)
(-0.000754163 -0.000540026 -0.00038096)
(-0.000648931 -0.000662781 -0.000380961)
(-0.000523982 -0.000765399 -0.000380961)
(-0.000383112 -0.000844759 -0.000380959)
(-0.000230602 -0.000898451 -0.000380959)
(-7.10839e-05 -0.000924845 -0.000380959)
(9.05941e-05 -0.000923139 -0.000380959)
(0.000249519 -0.000893383 -0.00038096)
(0.000400863 -0.000836481 -0.00038096)
(0.000540026 -0.000754163 -0.00038096)
(0.000662781 -0.000648931 -0.000380961)
(0.000765399 -0.000523982 -0.000380961)
(0.000844759 -0.000383112 -0.000380959)
(0.000898451 -0.000230602 -0.000380959)
(0.000924845 -7.10839e-05 -0.000380959)
(0.000923139 9.05941e-05 -0.000380959)
(0.000893383 0.000249519 -0.00038096)
(0.000836481 0.000400863 -0.00038096)
(0.000754163 0.000540026 -0.00038096)
(0.000648931 0.000662781 -0.000380961)
(0.000523982 0.000765399 -0.000380961)
(0.000383112 0.000844759 -0.000380959)
(0.000230602 0.000898451 -0.000380959)
(7.10839e-05 0.000924845 -0.000380959)
(-9.05941e-05 0.000923139 -0.000380959)
(-0.000249519 0.000893383 -0.000380959)
(-0.000400863 0.000836481 -0.00038096)
(-0.000484673 0.000908906 -0.000283224)
(-0.00063514 0.000810935 -0.000283224)
(-0.000766308 0.000688324 -0.000283224)
(-0.000874193 0.0005448 -0.000283224)
(-0.000955515 0.000384721 -0.000283224)
(-0.00100781 0.000212952 -0.000283224)
(-0.00102947 3.47138e-05 -0.000283224)
(-0.00101986 -0.00014458 -0.000283224)
(-0.000979261 -0.00031948 -0.000283224)
(-0.000908906 -0.000484673 -0.000283224)
(-0.000810935 -0.00063514 -0.000283224)
(-0.000688324 -0.000766308 -0.000283224)
(-0.0005448 -0.000874193 -0.000283224)
(-0.000384721 -0.000955515 -0.000283224)
(-0.000212952 -0.00100781 -0.000283224)
(-3.47138e-05 -0.00102947 -0.000283224)
(0.00014458 -0.00101986 -0.000283224)
(0.00031948 -0.000979261 -0.000283224)
(0.000484674 -0.000908906 -0.000283224)
(0.00063514 -0.000810935 -0.000283224)
(0.000766308 -0.000688324 -0.000283224)
(0.000874193 -0.0005448 -0.000283224)
(0.000955515 -0.000384721 -0.000283224)
(0.00100781 -0.000212952 -0.000283224)
(0.00102947 -3.47138e-05 -0.000283224)
(0.00101986 0.00014458 -0.000283224)
(0.000979261 0.00031948 -0.000283224)
(0.000908906 0.000484674 -0.000283224)
(0.000810935 0.00063514 -0.000283224)
(0.000688324 0.000766308 -0.000283224)
(0.0005448 0.000874193 -0.000283224)
(0.000384721 0.000955515 -0.000283224)
(0.000212952 0.00100781 -0.000283224)
(3.47138e-05 0.00102947 -0.000283224)
(-0.00014458 0.00101986 -0.000283223)
(-0.00031948 0.000979261 -0.000283224)
(-0.00046168 0.0010594 -0.000188948)
(-0.000638629 0.00096314 -0.000188948)
(-0.000796174 0.000837611 -0.000188948)
(-0.000929527 0.000686631 -0.000188948)
(-0.00103464 0.000514789 -0.000188948)
(-0.00110831 0.000327305 -0.000188948)
(-0.00114831 0.000129875 -0.000188948)
(-0.00115342 -7.14995e-05 -0.000188948)
(-0.00112348 -0.000270702 -0.000188948)
(-0.0010594 -0.00046168 -0.000188948)
(-0.00096314 -0.000638629 -0.000188948)
(-0.000837611 -0.000796174 -0.000188948)
(-0.000686631 -0.000929527 -0.000188948)
(-0.000514789 -0.00103464 -0.000188948)
(-0.000327305 -0.00110831 -0.000188948)
(-0.000129875 -0.00114831 -0.000188948)
(7.14995e-05 -0.00115342 -0.000188948)
(0.000270702 -0.00112348 -0.000188948)
(0.00046168 -0.0010594 -0.000188948)
(0.000638629 -0.000963139 -0.000188948)
(0.000796174 -0.000837611 -0.000188948)
(0.000929527 -0.000686631 -0.000188948)
(0.00103464 -0.000514789 -0.000188948)
(0.00110831 -0.000327305 -0.000188948)
(0.00114831 -0.000129875 -0.000188948)
(0.00115342 7.14995e-05 -0.000188948)
(0.00112348 0.000270702 -0.000188948)
(0.0010594 0.00046168 -0.000188948)
(0.00096314 0.000638629 -0.000188948)
(0.000837611 0.000796174 -0.000188948)
(0.000686631 0.000929528 -0.000188948)
(0.000514789 0.00103464 -0.000188948)
(0.000327305 0.00110831 -0.000188948)
(0.000129875 0.00114831 -0.000188948)
(-7.14995e-05 0.00115342 -0.000188948)
(-0.000270702 0.00112348 -0.000188948)
(-0.000838752 0.00130229 -0.000702269)
(-0.00105215 0.00113685 -0.000702269)
(-0.00123358 0.000936878 -0.000702269)
(-0.00137752 0.000708436 -0.000702268)
(-0.00147961 0.00045847 -0.000702268)
(-0.00153675 0.000194573 -0.000702268)
(-0.00154719 -7.52369e-05 -0.000702268)
(-0.00151062 -0.00034276 -0.000702268)
(-0.00142815 -0.00059987 -0.000702269)
(-0.00130229 -0.000838752 -0.000702269)
(-0.00113685 -0.00105215 -0.000702269)
(-0.000936878 -0.00123358 -0.000702269)
(-0.000708436 -0.00137752 -0.000702268)
(-0.00045847 -0.00147961 -0.000702268)
(-0.000194573 -0.00153675 -0.000702268)
(7.52369e-05 -0.00154719 -0.000702268)
(0.000342761 -0.00151062 -0.000702268)
(0.00059987 -0.00142815 -0.000702269)
(0.000838752 -0.00130229 -0.000702269)
(0.00105215 -0.00113685 -0.000702269)
(0.00123358 -0.000936878 -0.000702269)
(0.00137752 -0.000708436 -0.000702268)
(0.00147961 -0.00045847 -0.000702268)
(0.00153675 -0.000194573 -0.000702268)
(0.00154719 7.52369e-05 -0.000702268)
(0.00151062 0.000342761 -0.000702268)
(0.00142815 0.00059987 -0.000702269)
(0.00130229 0.000838752 -0.000702269)
(0.00113685 0.00105215 -0.000702269)
(0.000936878 0.00123358 -0.000702269)
(0.000708436 0.00137752 -0.000702268)
(0.00045847 0.00147961 -0.000702267)
(0.000194573 0.00153675 -0.000702267)
(-7.52368e-05 0.00154719 -0.000702268)
(-0.00034276 0.00151062 -0.000702268)
(-0.00059987 0.00142815 -0.000702269)
(-0.000803435 0.00150947 -0.000556646)
(-0.00105335 0.00134702 -0.000556646)
(-0.00127125 0.00114365 -0.000556646)
(-0.00145053 0.000905524 -0.000556646)
(-0.00158574 0.000639885 -0.000556645)
(-0.00167276 0.000354803 -0.000556646)
(-0.00170896 5.89412e-05 -0.000556646)
(-0.00169323 -0.000238712 -0.000556646)
(-0.00162605 -0.000529112 -0.000556646)
(-0.00150947 -0.000803435 -0.000556646)
(-0.00134702 -0.00105335 -0.000556647)
(-0.00114365 -0.00127125 -0.000556646)
(-0.000905524 -0.00145053 -0.000556646)
(-0.000639885 -0.00158574 -0.000556645)
(-0.000354803 -0.00167276 -0.000556646)
(-5.89411e-05 -0.00170896 -0.000556646)
(0.000238712 -0.00169323 -0.000556646)
(0.000529112 -0.00162605 -0.000556646)
(0.000803435 -0.00150947 -0.000556646)
(0.00105335 -0.00134702 -0.000556647)
(0.00127125 -0.00114365 -0.000556646)
(0.00145053 -0.000905524 -0.000556646)
(0.00158574 -0.000639885 -0.000556645)
(0.00167276 -0.000354803 -0.000556646)
(0.00170896 -5.89411e-05 -0.000556646)
(0.00169323 0.000238712 -0.000556646)
(0.00162605 0.000529112 -0.000556646)
(0.00150947 0.000803435 -0.000556646)
(0.00134702 0.00105335 -0.000556646)
(0.00114365 0.00127125 -0.000556646)
(0.000905524 0.00145053 -0.000556646)
(0.000639885 0.00158574 -0.000556645)
(0.000354803 0.00167276 -0.000556646)
(5.89412e-05 0.00170896 -0.000556646)
(-0.000238712 0.00169323 -0.000556646)
(-0.000529112 0.00162605 -0.000556646)
(-0.000805343 0.00170405 -0.000415591)
(-0.00108901 0.00153831 -0.000415591)
(-0.00133959 0.00132584 -0.000415591)
(-0.00154947 0.00107308 -0.000415592)
(-0.00171227 0.000787714 -0.000415592)
(-0.00182304 0.000478413 -0.000415592)
(-0.00187842 0.000154577 -0.000415592)
(-0.00187672 -0.000173956 -0.000415591)
(-0.00181801 -0.000497203 -0.000415591)
(-0.00170405 -0.000805343 -0.000415591)
(-0.00153831 -0.00108901 -0.000415591)
(-0.00132584 -0.00133959 -0.000415591)
(-0.00107308 -0.00154947 -0.000415592)
(-0.000787713 -0.00171227 -0.000415592)
(-0.000478413 -0.00182304 -0.000415592)
(-0.000154577 -0.00187842 -0.000415592)
(0.000173956 -0.00187672 -0.000415592)
(0.000497203 -0.00181801 -0.000415592)
(0.000805343 -0.00170405 -0.000415591)
(0.00108901 -0.00153831 -0.000415591)
(0.00133959 -0.00132584 -0.000415591)
(0.00154947 -0.00107308 -0.000415592)
(0.00171227 -0.000787713 -0.000415592)
(0.00182304 -0.000478413 -0.000415592)
(0.00187842 -0.000154577 -0.000415592)
(0.00187672 0.000173956 -0.000415591)
(0.00181801 0.000497203 -0.000415591)
(0.00170405 0.000805343 -0.000415591)
(0.00153831 0.00108901 -0.000415591)
(0.00132584 0.00133959 -0.000415591)
(0.00107308 0.00154947 -0.000415592)
(0.000787714 0.00171227 -0.000415592)
(0.000478413 0.00182304 -0.000415592)
(0.000154577 0.00187842 -0.000415592)
(-0.000173956 0.00187672 -0.000415591)
(-0.000497203 0.00181801 -0.000415591)
(-0.00112314 0.00187007 -0.00106983)
(-0.00143081 0.00164663 -0.00106983)
(-0.00169501 0.00137316 -0.00106983)
(-0.0019077 0.00105796 -0.00106983)
(-0.00206243 0.000710621 -0.00106983)
(-0.0021545 0.000341687 -0.00106983)
(-0.0021811 -3.7629e-05 -0.00106983)
(-0.00214143 -0.000415802 -0.00106983)
(-0.00203669 -0.00078134 -0.00106983)
(-0.00187007 -0.00112314 -0.00106983)
(-0.00164663 -0.00143081 -0.00106983)
(-0.00137316 -0.00169501 -0.00106983)
(-0.00105796 -0.0019077 -0.00106983)
(-0.000710621 -0.00206243 -0.00106983)
(-0.000341687 -0.0021545 -0.00106983)
(3.76291e-05 -0.0021811 -0.00106983)
(0.000415802 -0.00214143 -0.00106983)
(0.000781341 -0.00203669 -0.00106983)
(0.00112314 -0.00187007 -0.00106983)
(0.00143081 -0.00164663 -0.00106983)
(0.00169501 -0.00137316 -0.00106983)
(0.0019077 -0.00105796 -0.00106983)
(0.00206243 -0.000710621 -0.00106983)
(0.0021545 -0.000341687 -0.00106983)
(0.0021811 3.76291e-05 -0.00106983)
(0.00214143 0.000415802 -0.00106983)
(0.00203669 0.000781341 -0.00106983)
(0.00187007 0.00112314 -0.00106983)
(0.00164663 0.00143081 -0.00106983)
(0.00137316 0.00169501 -0.00106983)
(0.00105796 0.0019077 -0.00106983)
(0.000710621 0.00206243 -0.00106983)
(0.000341687 0.0021545 -0.00106983)
(-3.7629e-05 0.0021811 -0.00106983)
(-0.000415802 0.00214143 -0.00106983)
(-0.00078134 0.00203669 -0.00106983)
(-0.00111284 0.00209379 -0.000888066)
(-0.00145951 0.00186874 -0.000888066)
(-0.00176184 0.0015869 -0.000888066)
(-0.00201064 0.00125686 -0.000888066)
(-0.00219834 0.000888617 -0.000888066)
(-0.00231925 0.000493378 -0.000888066)
(-0.00236969 8.31485e-05 -0.000888066)
(-0.00234813 -0.000329608 -0.000888066)
(-0.00225522 -0.00073235 -0.000888066)
(-0.00209379 -0.00111284 -0.000888066)
(-0.00186874 -0.00145951 -0.000888066)
(-0.0015869 -0.00176184 -0.000888066)
(-0.00125686 -0.00201064 -0.000888066)
(-0.000888617 -0.00219834 -0.000888066)
(-0.000493378 -0.00231925 -0.000888066)
(-8.31484e-05 -0.00236969 -0.000888066)
(0.000329608 -0.00234813 -0.000888066)
(0.00073235 -0.00225522 -0.000888066)
(0.00111284 -0.00209379 -0.000888066)
(0.00145952 -0.00186874 -0.000888066)
(0.00176184 -0.0015869 -0.000888066)
(0.00201064 -0.00125686 -0.000888066)
(0.00219834 -0.000888617 -0.000888066)
(0.00231925 -0.000493378 -0.000888066)
(0.00236969 -8.31484e-05 -0.000888066)
(0.00234813 0.000329608 -0.000888066)
(0.00225522 0.00073235 -0.000888066)
(0.00209379 0.00111284 -0.000888066)
(0.00186874 0.00145952 -0.000888066)
(0.0015869 0.00176184 -0.000888066)
(0.00125686 0.00201064 -0.000888066)
(0.000888617 0.00219834 -0.000888066)
(0.000493378 0.00231925 -0.000888065)
(8.31485e-05 0.00236969 -0.000888065)
(-0.000329608 0.00234813 -0.000888065)
(-0.00073235 0.00225522 -0.000888066)
(-0.00114324 0.00229475 -0.000713646)
(-0.00152435 0.00206137 -0.000713647)
(-0.00185914 0.00176535 -0.000713647)
(-0.00213745 0.00141569 -0.000713646)
(-0.00235081 0.00102302 -0.000713646)
(-0.00249274 0.000599268 -0.000713647)
(-0.00255893 0.000157303 -0.000713647)
(-0.00254737 -0.00028944 -0.000713647)
(-0.00245841 -0.00072739 -0.000713647)
(-0.00229475 -0.00114324 -0.000713646)
(-0.00206137 -0.00152435 -0.000713647)
(-0.00176535 -0.00185914 -0.000713647)
(-0.00141569 -0.00213745 -0.000713647)
(-0.00102302 -0.00235081 -0.000713646)
(-0.000599268 -0.00249274 -0.000713647)
(-0.000157303 -0.00255893 -0.000713647)
(0.00028944 -0.00254737 -0.000713647)
(0.00072739 -0.00245841 -0.000713647)
(0.00114324 -0.00229475 -0.000713646)
(0.00152435 -0.00206137 -0.000713647)
(0.00185914 -0.00176535 -0.000713647)
(0.00213745 -0.00141569 -0.000713647)
(0.00235081 -0.00102302 -0.000713646)
(0.00249274 -0.000599268 -0.000713647)
(0.00255893 -0.000157303 -0.000713647)
(0.00254737 0.00028944 -0.000713647)
(0.00245841 0.00072739 -0.000713647)
(0.00229475 0.00114324 -0.000713646)
(0.00206137 0.00152435 -0.000713647)
(0.00176535 0.00185914 -0.000713647)
(0.00141569 0.00213745 -0.000713646)
(0.00102302 0.00235081 -0.000713646)
(0.000599268 0.00249274 -0.000713646)
(0.000157303 0.00255893 -0.000713647)
(-0.00028944 0.00254737 -0.000713647)
(-0.00072739 0.00245841 -0.000713647)
(-0.00140412 0.00244766 -0.00146931)
(-0.00180782 0.00216665 -0.00146931)
(-0.0021566 0.00181981 -0.00146931)
(-0.00243984 0.00141768 -0.00146931)
(-0.00264895 0.000972465 -0.00146931)
(-0.00277757 0.000497706 -0.00146931)
(-0.0028218 7.82441e-06 -0.00146931)
(-0.00278029 -0.000482296 -0.00146931)
(-0.0026543 -0.00095776 -0.00146931)
(-0.00244766 -0.00140412 -0.00146931)
(-0.00216665 -0.00180782 -0.00146931)
(-0.00181981 -0.0021566 -0.00146931)
(-0.00141768 -0.00243984 -0.00146931)
(-0.000972465 -0.00264895 -0.00146931)
(-0.000497706 -0.00277757 -0.00146931)
(-7.82426e-06 -0.0028218 -0.00146931)
(0.000482296 -0.00278029 -0.00146931)
(0.000957761 -0.0026543 -0.00146931)
(0.00140412 -0.00244766 -0.00146931)
(0.00180782 -0.00216665 -0.00146931)
(0.0021566 -0.00181981 -0.00146931)
(0.00243984 -0.00141768 -0.00146931)
(0.00264895 -0.000972465 -0.00146931)
(0.00277757 -0.000497706 -0.00146931)
(0.0028218 -7.82428e-06 -0.00146931)
(0.00278029 0.000482296 -0.00146931)
(0.0026543 0.000957761 -0.00146931)
(0.00244766 0.00140412 -0.00146931)
(0.00216665 0.00180782 -0.00146931)
(0.00181981 0.0021566 -0.00146931)
(0.00141768 0.00243984 -0.00146931)
(0.000972465 0.00264895 -0.00146931)
(0.000497706 0.00277757 -0.00146931)
(7.82442e-06 0.0028218 -0.00146931)
(-0.000482296 0.00278029 -0.00146931)
(-0.00095776 0.0026543 -0.00146931)
(-0.00141551 0.00265004 -0.00126264)
(-0.00185418 0.00236397 -0.00126264)
(-0.00223651 0.00200609 -0.00126264)
(-0.00255089 0.00158724 -0.00126264)
(-0.00278776 0.00112017 -0.00126264)
(-0.00293992 0.000619067 -0.00126264)
(-0.00300275 9.91496e-05 -0.00126264)
(-0.00297435 -0.00042378 -0.00126264)
(-0.00285558 -0.000933833 -0.00126264)
(-0.00265004 -0.00141551 -0.00126264)
(-0.00236397 -0.00185418 -0.00126264)
(-0.00200609 -0.00223651 -0.00126264)
(-0.00158724 -0.00255089 -0.00126264)
(-0.00112017 -0.00278776 -0.00126264)
(-0.000619066 -0.00293992 -0.00126264)
(-9.91495e-05 -0.00300275 -0.00126264)
(0.00042378 -0.00297435 -0.00126264)
(0.000933833 -0.00285558 -0.00126264)
(0.00141551 -0.00265004 -0.00126264)
(0.00185418 -0.00236397 -0.00126264)
(0.00223651 -0.00200609 -0.00126264)
(0.00255089 -0.00158724 -0.00126264)
(0.00278776 -0.00112017 -0.00126264)
(0.00293992 -0.000619066 -0.00126264)
(0.00300275 -9.91495e-05 -0.00126264)
(0.00297435 0.00042378 -0.00126264)
(0.00285558 0.000933833 -0.00126264)
(0.00265004 0.00141551 -0.00126264)
(0.00236397 0.00185418 -0.00126264)
(0.00200609 0.00223651 -0.00126264)
(0.00158724 0.00255089 -0.00126264)
(0.00112017 0.00278776 -0.00126264)
(0.000619067 0.00293992 -0.00126264)
(9.91496e-05 0.00300275 -0.00126264)
(-0.000423779 0.00297435 -0.00126264)
(-0.000933833 0.00285558 -0.00126264)
(-0.00146849 0.00282021 -0.00106624)
(-0.00193591 0.00252236 -0.00106624)
(-0.0023445 0.00214788 -0.00106624)
(-0.00268186 0.00170813 -0.00106624)
(-0.00293773 0.00121648 -0.00106624)
(-0.00310433 0.000687866 -0.00106624)
(-0.00317662 0.000138354 -0.00106624)
(-0.00315238 -0.000415363 -0.00106624)
(-0.00303237 -0.000956459 -0.00106624)
(-0.00282021 -0.00146849 -0.00106624)
(-0.00252236 -0.00193591 -0.00106624)
(-0.00214788 -0.0023445 -0.00106624)
(-0.00170813 -0.00268186 -0.00106624)
(-0.00121648 -0.00293773 -0.00106624)
(-0.000687866 -0.00310433 -0.00106624)
(-0.000138353 -0.00317662 -0.00106624)
(0.000415363 -0.00315238 -0.00106624)
(0.000956459 -0.00303237 -0.00106624)
(0.00146849 -0.00282021 -0.00106624)
(0.00193591 -0.00252236 -0.00106624)
(0.0023445 -0.00214788 -0.00106624)
(0.00268186 -0.00170813 -0.00106624)
(0.00293773 -0.00121648 -0.00106624)
(0.00310433 -0.000687866 -0.00106624)
(0.00317662 -0.000138353 -0.00106624)
(0.00315238 0.000415363 -0.00106624)
(0.00303237 0.000956459 -0.00106624)
(0.00282021 0.00146849 -0.00106624)
(0.00252236 0.00193591 -0.00106624)
(0.00214788 0.0023445 -0.00106624)
(0.00170813 0.00268186 -0.00106624)
(0.00121648 0.00293773 -0.00106624)
(0.000687866 0.00310433 -0.00106624)
(0.000138354 0.00317662 -0.00106624)
(-0.000415363 0.00315238 -0.00106624)
(-0.000956459 0.00303237 -0.00106624)
(-0.00169257 0.00301351 -0.00189309)
(-0.00219015 0.00267382 -0.00189309)
(-0.00262118 0.00225288 -0.00189309)
(-0.00297256 0.00176349 -0.00189309)
(-0.00323363 0.00122052 -0.00189309)
(-0.00339645 0.000640463 -0.00189309)
(-0.00345606 4.09461e-05 -0.00189309)
(-0.00341067 -0.000559815 -0.00189309)
(-0.00326164 -0.00114357 -0.00189309)
(-0.00301351 -0.00169257 -0.00189309)
(-0.00267382 -0.00219015 -0.00189309)
(-0.00225288 -0.00262118 -0.00189309)
(-0.00176349 -0.00297256 -0.00189309)
(-0.00122052 -0.00323363 -0.00189309)
(-0.000640463 -0.00339645 -0.00189309)
(-4.09459e-05 -0.00345606 -0.00189309)
(0.000559816 -0.00341067 -0.00189309)
(0.00114357 -0.00326164 -0.00189309)
(0.00169257 -0.00301351 -0.00189309)
(0.00219015 -0.00267382 -0.00189309)
(0.00262118 -0.00225288 -0.00189309)
(0.00297256 -0.00176349 -0.00189309)
(0.00323363 -0.00122052 -0.00189309)
(0.00339645 -0.000640463 -0.00189309)
(0.00345606 -4.09459e-05 -0.00189309)
(0.00341067 0.000559816 -0.00189309)
(0.00326164 0.00114357 -0.00189309)
(0.00301351 0.00169257 -0.00189309)
(0.00267382 0.00219015 -0.00189309)
(0.00225288 0.00262118 -0.00189309)
(0.00176349 0.00297256 -0.00189309)
(0.00122052 0.00323363 -0.00189309)
(0.000640463 0.00339645 -0.00189309)
(4.09461e-05 0.00345606 -0.00189309)
(-0.000559815 0.00341067 -0.00189309)
(-0.00114357 0.00326164 -0.00189309)
(-0.00171578 0.00316364 -0.0016681)
(-0.00223908 0.00281763 -0.0016681)
(-0.00269433 0.00238601 -0.0016681)
(-0.00306773 0.0018819 -0.0016681)
(-0.00334791 0.0013206 -0.0016681)
(-0.00352637 0.000719181 -0.0016681)
(-0.00359768 9.59077e-05 -0.0016681)
(-0.00355968 -0.00053028 -0.0016681)
(-0.00341351 -0.00114036 -0.0016681)
(-0.00316363 -0.00171578 -0.0016681)
(-0.00281763 -0.00223908 -0.0016681)
(-0.00238601 -0.00269433 -0.0016681)
(-0.0018819 -0.00306773 -0.0016681)
(-0.0013206 -0.00334791 -0.0016681)
(-0.000719181 -0.00352637 -0.0016681)
(-9.59075e-05 -0.00359768 -0.0016681)
(0.00053028 -0.00355968 -0.0016681)
(0.00114036 -0.00341351 -0.0016681)
(0.00171578 -0.00316363 -0.0016681)
(0.00223908 -0.00281763 -0.0016681)
(0.00269433 -0.00238601 -0.0016681)
(0.00306773 -0.0018819 -0.0016681)
(0.00334791 -0.0013206 -0.0016681)
(0.00352637 -0.000719181 -0.0016681)
(0.00359768 -9.59075e-05 -0.0016681)
(0.00355968 0.00053028 -0.0016681)
(0.00341351 0.00114036 -0.0016681)
(0.00316364 0.00171578 -0.0016681)
(0.00281763 0.00223908 -0.0016681)
(0.00238601 0.00269433 -0.0016681)
(0.0018819 0.00306773 -0.0016681)
(0.0013206 0.00334791 -0.0016681)
(0.000719181 0.00352637 -0.0016681)
(9.59077e-05 0.00359768 -0.0016681)
(-0.00053028 0.00355968 -0.0016681)
(-0.00114036 0.00341351 -0.0016681)
(-0.00177885 0.00327441 -0.00145598)
(-0.00232042 0.00291577 -0.00145598)
(-0.00279149 0.00246854 -0.00145598)
(-0.00317774 0.0019463 -0.00145598)
(-0.00346743 0.00136493 -0.00145598)
(-0.00365177 0.000742077 -0.00145598)
(-0.00372515 9.66811e-05 -0.00145598)
(-0.00368534 -0.000551654 -0.00145598)
(-0.00353356 -0.00118323 -0.00145598)
(-0.00327441 -0.00177885 -0.00145598)
(-0.00291577 -0.00232042 -0.00145598)
(-0.00246854 -0.00279149 -0.00145598)
(-0.0019463 -0.00317774 -0.00145598)
(-0.00136493 -0.00346743 -0.00145598)
(-0.000742076 -0.00365177 -0.00145598)
(-9.6681e-05 -0.00372515 -0.00145598)
(0.000551654 -0.00368534 -0.00145598)
(0.00118323 -0.00353356 -0.00145598)
(0.00177885 -0.00327441 -0.00145598)
(0.00232042 -0.00291577 -0.00145598)
(0.00279149 -0.00246854 -0.00145598)
(0.00317774 -0.0019463 -0.00145598)
(0.00346743 -0.00136493 -0.00145598)
(0.00365177 -0.000742076 -0.00145598)
(0.00372515 -9.6681e-05 -0.00145598)
(0.00368534 0.000551654 -0.00145598)
(0.00353356 0.00118323 -0.00145598)
(0.00327441 0.00177885 -0.00145598)
(0.00291577 0.00232042 -0.00145598)
(0.00246854 0.00279149 -0.00145598)
(0.0019463 0.00317774 -0.00145598)
(0.00136493 0.00346743 -0.00145598)
(0.000742077 0.00365177 -0.00145598)
(9.66812e-05 0.00372515 -0.00145598)
(-0.000551654 0.00368534 -0.00145598)
(-0.00118323 0.00353356 -0.00145598)
(-0.00199355 0.0035374 -0.00233686)
(-0.00257753 0.00313748 -0.00233686)
(-0.00308319 0.00264223 -0.00233686)
(-0.00349517 0.0020667 -0.00233686)
(-0.00380095 0.00142838 -0.00233686)
(-0.00399124 0.000746647 -0.00233686)
(-0.00406025 4.22336e-05 -0.00233686)
(-0.0040059 -0.000663465 -0.00233686)
(-0.00382984 -0.001349 -0.00233686)
(-0.0035374 -0.00199355 -0.00233686)
(-0.00313748 -0.00257753 -0.00233686)
(-0.00264223 -0.00308319 -0.00233686)
(-0.0020667 -0.00349517 -0.00233686)
(-0.00142837 -0.00380095 -0.00233686)
(-0.000746647 -0.00399124 -0.00233686)
(-4.22333e-05 -0.00406025 -0.00233686)
(0.000663465 -0.0040059 -0.00233686)
(0.001349 -0.00382984 -0.00233686)
(0.00199355 -0.0035374 -0.00233686)
(0.00257753 -0.00313748 -0.00233686)
(0.00308319 -0.00264223 -0.00233686)
(0.00349517 -0.0020667 -0.00233686)
(0.00380095 -0.00142837 -0.00233686)
(0.00399124 -0.000746647 -0.00233686)
(0.00406025 -4.22334e-05 -0.00233686)
(0.0040059 0.000663465 -0.00233686)
(0.00382984 0.001349 -0.00233686)
(0.0035374 0.00199355 -0.00233686)
(0.00313748 0.00257753 -0.00233686)
(0.00264223 0.00308319 -0.00233686)
(0.0020667 0.00349517 -0.00233686)
(0.00142838 0.00380095 -0.00233686)
(0.000746647 0.00399124 -0.00233686)
(4.22336e-05 0.00406025 -0.00233686)
(-0.000663465 0.0040059 -0.00233686)
(-0.001349 0.00382984 -0.00233686)
(-0.00201539 0.00361456 -0.0020952)
(-0.00261243 0.00320967 -0.0020952)
(-0.00313009 0.00270727 -0.0020952)
(-0.00355265 0.0021226 -0.0020952)
(-0.00386727 0.00147344 -0.0020952)
(-0.00406437 0.000779517 -0.0020952)
(-0.00413799 6.19023e-05 -0.0020952)
(-0.00408587 -0.000657592 -0.0020952)
(-0.00390961 -0.00135711 -0.0020952)
(-0.00361456 -0.00201539 -0.0020952)
(-0.00320967 -0.00261243 -0.0020952)
(-0.00270727 -0.00313009 -0.0020952)
(-0.0021226 -0.00355265 -0.0020952)
(-0.00147344 -0.00386727 -0.0020952)
(-0.000779517 -0.00406437 -0.0020952)
(-6.19021e-05 -0.00413799 -0.0020952)
(0.000657593 -0.00408587 -0.0020952)
(0.00135711 -0.00390961 -0.0020952)
(0.00201539 -0.00361456 -0.0020952)
(0.00261243 -0.00320967 -0.0020952)
(0.00313009 -0.00270727 -0.0020952)
(0.00355265 -0.0021226 -0.0020952)
(0.00386727 -0.00147344 -0.0020952)
(0.00406438 -0.000779517 -0.0020952)
(0.00413799 -6.19022e-05 -0.0020952)
(0.00408587 0.000657592 -0.0020952)
(0.00390961 0.00135711 -0.0020952)
(0.00361456 0.00201539 -0.0020952)
(0.00320967 0.00261243 -0.0020952)
(0.00270727 0.00313009 -0.0020952)
(0.0021226 0.00355265 -0.0020952)
(0.00147344 0.00386727 -0.0020952)
(0.000779517 0.00406438 -0.0020952)
(6.19024e-05 0.00413799 -0.0020952)
(-0.000657592 0.00408587 -0.0020952)
(-0.00135711 0.00390961 -0.0020952)
(-0.00207296 0.0036489 -0.00186858)
(-0.00267509 0.0032335 -0.00186858)
(-0.00319594 0.00271985 -0.00186858)
(-0.00361969 0.00212356 -0.00186858)
(-0.00393345 0.00146275 -0.00186858)
(-0.00412769 0.000757489 -0.00186858)
(-0.00419652 2.92145e-05 -0.00186858)
(-0.00413784 -0.000699947 -0.00186858)
(-0.00395343 -0.00140784 -0.00186858)
(-0.0036489 -0.00207296 -0.00186858)
(-0.0032335 -0.00267509 -0.00186858)
(-0.00271985 -0.00319594 -0.00186858)
(-0.00212356 -0.00361969 -0.00186858)
(-0.00146275 -0.00393345 -0.00186858)
(-0.000757489 -0.00412769 -0.00186858)
(-2.92143e-05 -0.00419652 -0.00186858)
(0.000699948 -0.00413784 -0.00186858)
(0.00140784 -0.00395343 -0.00186858)
(0.00207296 -0.0036489 -0.00186858)
(0.00267509 -0.0032335 -0.00186858)
(0.00319594 -0.00271985 -0.00186858)
(0.00361969 -0.00212356 -0.00186858)
(0.00393345 -0.00146275 -0.00186858)
(0.00412769 -0.000757489 -0.00186858)
(0.00419652 -2.92143e-05 -0.00186858)
(0.00413784 0.000699948 -0.00186858)
(0.00395343 0.00140784 -0.00186858)
(0.0036489 0.00207296 -0.00186858)
(0.0032335 0.00267509 -0.00186858)
(0.00271985 0.00319594 -0.00186858)
(0.00212356 0.00361969 -0.00186858)
(0.00146275 0.00393345 -0.00186858)
(0.000757489 0.00412769 -0.00186858)
(2.92145e-05 0.00419652 -0.00186858)
(-0.000699947 0.00413784 -0.00186858)
(-0.00140784 0.00395343 -0.00186858)
(-0.00230084 0.00398247 -0.00279448)
(-0.00295743 0.00352243 -0.00279448)
(-0.00352417 0.00295537 -0.00279448)
(-0.00398382 0.0022985 -0.00279448)
(-0.00432243 0.0015718 -0.00279449)
(-0.0045297 0.000797339 -0.00279448)
(-0.00459934 -1.34946e-06 -0.00279448)
(-0.00452923 -0.000799997 -0.00279448)
(-0.00432151 -0.00157434 -0.00279448)