/*--------------------------------*- C++ -*----------------------------------*\
| =========                 |                                                 |
| \\      /  F ield         | OpenFOAM: The Open Source CFD Toolbox           |
|  \\    /   O peration     | Version:  2312                                  |
|   \\  /    A nd           | Website:  www.openfoam.com                      |
|    \\/     M anipulation  |                                                 |
\*---------------------------------------------------------------------------*/
FoamFile
{
    version     2.0;
    format      ascii;
    arch        "LSB;label=32;scalar=64";
    class       volVectorField;
    location    "0.6";
    object      D_0_0;
}
// * * * * * * * * * * * * * * * * * * * * * * * * * * * * * * * * * * * * * //

dimensions      [0 1 0 0 0 0 0];

internalField   nonuniform List<vector> 
1620
(
(-0.000230679 0.000221072 -0.000131027)
(-0.000265563 0.000177656 -0.000131027)
(-0.000292378 0.000128843 -0.000131027)
(-0.00031031 7.61152e-05 -0.000131026)
(-0.000318813 2.10745e-05 -0.000131027)
(-0.000317629 -3.46072e-05 -0.000131027)
(-0.000306794 -8.92372e-05 -0.000131026)
(-0.000286637 -0.000141155 -0.000131026)
(-0.000257771 -0.000188785 -0.000131026)
(-0.000221072 -0.000230679 -0.000131027)
(-0.000177656 -0.000265563 -0.000131027)
(-0.000128843 -0.000292378 -0.000131027)
(-7.61152e-05 -0.00031031 -0.000131026)
(-2.10745e-05 -0.000318813 -0.000131027)
(3.46072e-05 -0.000317629 -0.000131027)
(8.92372e-05 -0.000306794 -0.000131026)
(0.000141155 -0.000286637 -0.000131026)
(0.000188785 -0.000257771 -0.000131026)
(0.000230679 -0.000221072 -0.000131027)
(0.000265563 -0.000177656 -0.000131027)
(0.000292378 -0.000128843 -0.000131027)
(0.00031031 -7.61152e-05 -0.000131026)
(0.000318813 -2.10745e-05 -0.000131027)
(0.000317629 3.46072e-05 -0.000131027)
(0.000306794 8.92372e-05 -0.000131026)
(0.000286637 0.000141155 -0.000131026)
(0.000257771 0.000188785 -0.000131026)
(0.000221072 0.000230679 -0.000131027)
(0.000177656 0.000265563 -0.000131027)
(0.000128843 0.000292378 -0.000131027)
(7.61152e-05 0.00031031 -0.000131026)
(2.10745e-05 0.000318813 -0.000131027)
(-3.46071e-05 0.000317629 -0.000131027)
(-8.92372e-05 0.000306794 -0.000131026)
(-0.000141155 0.000286637 -0.000131026)
(-0.000188785 0.000257771 -0.000131026)
(-0.000161017 0.000302968 -8.84973e-05)
(-0.00021118 0.000270405 -8.84973e-05)
(-0.000254927 0.000229626 -8.84973e-05)
(-0.000290928 0.00018187 -8.84972e-05)
(-0.000318091 0.000128588 -8.84974e-05)
(-0.000335587 7.13984e-05 -8.84973e-05)
(-0.000342887 1.20398e-05 -8.84971e-05)
(-0.000339769 -4.76847e-05 -8.84971e-05)
(-0.000326326 -0.000105961 -8.84973e-05)
(-0.000302968 -0.000161017 -8.84973e-05)
(-0.000270405 -0.00021118 -8.84974e-05)
(-0.000229626 -0.000254927 -8.84973e-05)
(-0.00018187 -0.000290928 -8.84972e-05)
(-0.000128588 -0.000318091 -8.84974e-05)
(-7.13984e-05 -0.000335587 -8.84973e-05)
(-1.20398e-05 -0.000342887 -8.84971e-05)
(4.76847e-05 -0.000339769 -8.84972e-05)
(0.000105961 -0.000326326 -8.84973e-05)
(0.000161017 -0.000302968 -8.84973e-05)
(0.00021118 -0.000270405 -8.84974e-05)
(0.000254927 -0.000229626 -8.84973e-05)
(0.000290928 -0.00018187 -8.84972e-05)
(0.000318091 -0.000128588 -8.84974e-05)
(0.000335587 -7.13984e-05 -8.84973e-05)
(0.000342887 -1.20398e-05 -8.84971e-05)
(0.000339769 4.76847e-05 -8.84971e-05)
(0.000326326 0.000105961 -8.84973e-05)
(0.000302968 0.000161017 -8.84973e-05)
(0.000270405 0.00021118 -8.84973e-05)
(0.000229626 0.000254927 -8.84973e-05)
(0.00018187 0.000290929 -8.84972e-05)
(0.000128588 0.000318091 -8.84974e-05)
(7.13984e-05 0.000335587 -8.84973e-05)
(1.20398e-05 0.000342887 -8.84971e-05)
(-4.76847e-05 0.000339769 -8.84971e-05)
(-0.000105961 0.000326326 -8.84973e-05)
(-0.000117256 0.000386722 -5.66914e-05)
(-0.000182628 0.000360486 -5.66914e-05)
(-0.000242452 0.000323296 -5.66916e-05)
(-0.000294908 0.000276283 -5.66914e-05)
(-0.000338404 0.000220876 -5.66915e-05)
(-0.000371617 0.000158757 -5.66914e-05)
(-0.00039354 9.18143e-05 -5.66916e-05)
(-0.000403504 2.20819e-05 -5.66916e-05)
(-0.000401208 -4.83213e-05 -5.66915e-05)
(-0.000386722 -0.000117256 -5.66914e-05)
(-0.000360486 -0.000182628 -5.66914e-05)
(-0.000323296 -0.000242452 -5.66916e-05)
(-0.000276283 -0.000294908 -5.66914e-05)
(-0.000220876 -0.000338404 -5.66916e-05)
(-0.000158757 -0.000371617 -5.66914e-05)
(-9.18143e-05 -0.00039354 -5.66916e-05)
(-2.20819e-05 -0.000403504 -5.66916e-05)
(4.83213e-05 -0.000401208 -5.66915e-05)
(0.000117256 -0.000386722 -5.66914e-05)
(0.000182628 -0.000360486 -5.66914e-05)
(0.000242452 -0.000323296 -5.66916e-05)
(0.000294908 -0.000276283 -5.66914e-05)
(0.000338404 -0.000220876 -5.66915e-05)
(0.000371617 -0.000158757 -5.66914e-05)
(0.00039354 -9.18142e-05 -5.66916e-05)
(0.000403504 -2.20819e-05 -5.66916e-05)
(0.000401208 4.83214e-05 -5.66915e-05)
(0.000386722 0.000117256 -5.66914e-05)
(0.000360486 0.000182628 -5.66914e-05)
(0.000323296 0.000242452 -5.66916e-05)
(0.000276283 0.000294908 -5.66914e-05)
(0.000220876 0.000338404 -5.66915e-05)
(0.000158757 0.000371617 -5.66914e-05)
(9.18142e-05 0.00039354 -5.66916e-05)
(2.20819e-05 0.000403504 -5.66916e-05)
(-4.83213e-05 0.000401208 -5.66915e-05)
(-0.000541697 0.00075053 -0.00038562)
(-0.000663795 0.000645063 -0.000385621)
(-0.000765725 0.000519996 -0.000385621)
(-0.000844388 0.00037913 -0.00038562)
(-0.000897395 0.000226744 -0.000385619)
(-0.000923135 6.74684e-05 -0.00038562)
(-0.000920827 -9.38577e-05 -0.00038562)
(-0.000890539 -0.000252332 -0.00038562)
(-0.000833192 -0.000403139 -0.00038562)
(-0.000750529 -0.000541697 -0.00038562)
(-0.000645063 -0.000663795 -0.000385621)
(-0.000519996 -0.000765725 -0.000385621)
(-0.000379129 -0.000844388 -0.00038562)
(-0.000226744 -0.000897395 -0.000385619)
(-6.74683e-05 -0.000923135 -0.00038562)
(9.38578e-05 -0.000920827 -0.00038562)
(0.000252332 -0.000890539 -0.00038562)
(0.000403139 -0.000833192 -0.00038562)
(0.000541697 -0.000750529 -0.000385621)
(0.000663796 -0.000645063 -0.000385621)
(0.000765725 -0.000519996 -0.000385621)
(0.000844388 -0.000379129 -0.00038562)
(0.000897395 -0.000226744 -0.000385619)
(0.000923135 -6.74683e-05 -0.00038562)
(0.000920827 9.38578e-05 -0.00038562)
(0.000890539 0.000252332 -0.00038562)
(0.000833192 0.000403139 -0.00038562)
(0.000750529 0.000541697 -0.00038562)
(0.000645063 0.000663796 -0.000385621)
(0.000519996 0.000765725 -0.000385621)
(0.00037913 0.000844388 -0.00038562)
(0.000226744 0.000897395 -0.000385619)
(6.74684e-05 0.000923135 -0.00038562)
(-9.38577e-05 0.000920827 -0.00038562)
(-0.000252332 0.000890539 -0.00038562)
(-0.000403139 0.000833192 -0.00038562)
(-0.00048578 0.000908514 -0.000286595)
(-0.000636161 0.000810357 -0.000286596)
(-0.000767214 0.000687578 -0.000286596)
(-0.000874955 0.000543908 -0.000286596)
(-0.000956111 0.00038371 -0.000286595)
(-0.00100822 0.000211853 -0.000286595)
(-0.00102969 3.35601e-05 -0.000286595)
(-0.00101987 -0.000145753 -0.000286595)
(-0.000979067 -0.000320638 -0.000286595)
(-0.000908514 -0.00048578 -0.000286595)
(-0.000810357 -0.000636161 -0.000286596)
(-0.000687578 -0.000767214 -0.000286596)
(-0.000543908 -0.000874955 -0.000286596)
(-0.00038371 -0.000956111 -0.000286595)
(-0.000211853 -0.00100822 -0.000286595)
(-3.35601e-05 -0.00102969 -0.000286595)
(0.000145753 -0.00101987 -0.000286595)
(0.000320638 -0.000979067 -0.000286595)
(0.00048578 -0.000908514 -0.000286596)
(0.000636161 -0.000810357 -0.000286596)
(0.000767214 -0.000687578 -0.000286596)
(0.000874955 -0.000543908 -0.000286596)
(0.000956111 -0.00038371 -0.000286595)
(0.00100822 -0.000211853 -0.000286595)
(0.00102969 -3.35601e-05 -0.000286595)
(0.00101987 0.000145753 -0.000286595)
(0.000979067 0.000320638 -0.000286595)
(0.000908514 0.00048578 -0.000286595)
(0.000810357 0.000636161 -0.000286596)
(0.000687578 0.000767214 -0.000286596)
(0.000543908 0.000874955 -0.000286596)
(0.00038371 0.000956111 -0.000286595)
(0.000211853 0.00100822 -0.000286595)
(3.35601e-05 0.00102969 -0.000286595)
(-0.000145753 0.00101987 -0.000286595)
(-0.000320638 0.000979067 -0.000286595)
(-0.000462645 0.00106228 -0.00019107)
(-0.000640078 0.000965801 -0.00019107)
(-0.000798063 0.00083998 -0.00019107)
(-0.000931799 0.000688636 -0.00019107)
(-0.00103722 0.000516369 -0.00019107)
(-0.00111113 0.000328412 -0.00019107)
(-0.00115128 0.000130476 -0.00019107)
(-0.00115645 -7.14238e-05 -0.00019107)
(-0.00112648 -0.000271154 -0.00019107)
(-0.00106228 -0.000462645 -0.00019107)
(-0.000965801 -0.000640078 -0.00019107)
(-0.00083998 -0.000798063 -0.00019107)
(-0.000688636 -0.000931799 -0.00019107)
(-0.000516369 -0.00103722 -0.00019107)
(-0.000328412 -0.00111113 -0.00019107)
(-0.000130476 -0.00115128 -0.00019107)
(7.14238e-05 -0.00115645 -0.00019107)
(0.000271154 -0.00112648 -0.00019107)
(0.000462645 -0.00106228 -0.00019107)
(0.000640078 -0.000965801 -0.00019107)
(0.000798063 -0.00083998 -0.00019107)
(0.000931799 -0.000688636 -0.00019107)
(0.00103722 -0.000516369 -0.00019107)
(0.00111113 -0.000328412 -0.00019107)
(0.00115128 -0.000130476 -0.00019107)
(0.00115645 7.14238e-05 -0.00019107)
(0.00112648 0.000271154 -0.00019107)
(0.00106228 0.000462645 -0.00019107)
(0.000965801 0.000640078 -0.00019107)
(0.00083998 0.000798063 -0.00019107)
(0.000688636 0.000931799 -0.00019107)
(0.000516369 0.00103722 -0.00019107)
(0.000328412 0.00111113 -0.00019107)
(0.000130476 0.00115128 -0.00019107)
(-7.14238e-05 0.00115645 -0.00019107)
(-0.000271154 0.00112648 -0.00019107)
(-0.000840681 0.00129767 -0.000710104)
(-0.00105325 0.00113198 -0.000710104)
(-0.00123381 0.000931884 -0.000710104)
(-0.00137689 0.000703478 -0.000710103)
(-0.00147813 0.000453697 -0.000710102)
(-0.00153445 0.000190131 -0.000710102)
(-0.00154416 -7.92135e-05 -0.000710102)
(-0.00150694 -0.000346151 -0.000710103)
(-0.00142394 -0.00060257 -0.000710104)
(-0.00129767 -0.000840681 -0.000710104)
(-0.00113198 -0.00105325 -0.000710104)
(-0.000931884 -0.00123381 -0.000710104)
(-0.000703478 -0.00137689 -0.000710103)
(-0.000453697 -0.00147813 -0.000710102)
(-0.000190131 -0.00153445 -0.000710102)
(7.92136e-05 -0.00154416 -0.000710102)
(0.000346151 -0.00150694 -0.000710103)
(0.00060257 -0.00142394 -0.000710104)
(0.000840681 -0.00129767 -0.000710104)
(0.00105325 -0.00113198 -0.000710104)
(0.00123381 -0.000931884 -0.000710104)
(0.00137689 -0.000703478 -0.000710103)
(0.00147813 -0.000453697 -0.000710102)
(0.00153445 -0.000190131 -0.000710102)
(0.00154416 7.92136e-05 -0.000710102)
(0.00150694 0.000346151 -0.000710103)
(0.00142394 0.00060257 -0.000710104)
(0.00129767 0.000840681 -0.000710104)
(0.00113198 0.00105325 -0.000710104)
(0.000931884 0.00123381 -0.000710104)
(0.000703478 0.00137689 -0.000710103)
(0.000453697 0.00147813 -0.000710102)
(0.000190131 0.00153445 -0.000710102)
(-7.92135e-05 0.00154416 -0.000710102)
(-0.000346151 0.00150694 -0.000710103)
(-0.00060257 0.00142394 -0.000710104)
(-0.000805291 0.00150921 -0.000562636)
(-0.00105513 0.00134645 -0.000562636)
(-0.00127291 0.00114277 -0.000562636)
(-0.00145201 0.000904371 -0.000562636)
(-0.00158699 0.000638494 -0.000562635)
(-0.00167375 0.000353215 -0.000562635)
(-0.00170966 5.72042e-05 -0.000562635)
(-0.00169362 -0.000240545 -0.000562635)
(-0.00162612 -0.000530985 -0.000562636)
(-0.00150921 -0.000805291 -0.000562636)
(-0.00134645 -0.00105513 -0.000562636)
(-0.00114277 -0.00127291 -0.000562636)
(-0.000904371 -0.00145201 -0.000562636)
(-0.000638494 -0.00158699 -0.000562635)
(-0.000353215 -0.00167375 -0.000562635)
(-5.72041e-05 -0.00170966 -0.000562635)
(0.000240545 -0.00169362 -0.000562636)
(0.000530985 -0.00162612 -0.000562636)
(0.000805291 -0.00150921 -0.000562636)
(0.00105513 -0.00134645 -0.000562636)
(0.00127291 -0.00114277 -0.000562636)
(0.00145201 -0.000904371 -0.000562636)
(0.00158699 -0.000638494 -0.000562635)
(0.00167375 -0.000353215 -0.000562635)
(0.00170966 -5.72041e-05 -0.000562635)
(0.00169362 0.000240545 -0.000562635)
(0.00162612 0.000530985 -0.000562636)
(0.00150921 0.000805291 -0.000562636)
(0.00134645 0.00105513 -0.000562636)
(0.00114277 0.00127291 -0.000562636)
(0.000904371 0.00145201 -0.000562635)
(0.000638494 0.00158699 -0.000562635)
(0.000353215 0.00167375 -0.000562635)
(5.72042e-05 0.00170966 -0.000562635)
(-0.000240545 0.00169362 -0.000562635)
(-0.000530985 0.00162612 -0.000562636)
(-0.000807679 0.001708 -0.000419804)
(-0.001092 0.0015418 -0.000419804)
(-0.00134314 0.00132876 -0.000419804)
(-0.00155347 0.00107534 -0.000419804)
(-0.0017166 0.000789243 -0.000419804)
(-0.00182757 0.000479167 -0.000419804)
(-0.00188301 0.000154532 -0.000419804)
(-0.00188124 -0.000174797 -0.000419804)
(-0.00182231 -0.000498816 -0.000419804)
(-0.001708 -0.000807679 -0.000419804)
(-0.0015418 -0.001092 -0.000419804)
(-0.00132876 -0.00134314 -0.000419804)
(-0.00107534 -0.00155347 -0.000419804)
(-0.000789242 -0.0017166 -0.000419804)
(-0.000479167 -0.00182757 -0.000419804)
(-0.000154532 -0.00188301 -0.000419804)
(0.000174797 -0.00188124 -0.000419804)
(0.000498816 -0.00182231 -0.000419804)
(0.000807679 -0.001708 -0.000419804)
(0.001092 -0.0015418 -0.000419804)
(0.00134314 -0.00132876 -0.000419804)
(0.00155347 -0.00107534 -0.000419804)
(0.0017166 -0.000789242 -0.000419804)
(0.00182757 -0.000479167 -0.000419804)
(0.00188301 -0.000154532 -0.000419804)
(0.00188124 0.000174797 -0.000419804)
(0.00182231 0.000498816 -0.000419804)
(0.001708 0.000807679 -0.000419804)
(0.0015418 0.001092 -0.000419804)
(0.00132876 0.00134314 -0.000419804)
(0.00107534 0.00155347 -0.000419804)
(0.000789243 0.0017166 -0.000419804)
(0.000479167 0.00182757 -0.000419804)
(0.000154532 0.00188301 -0.000419804)
(-0.000174797 0.00188124 -0.000419804)
(-0.000498816 0.00182231 -0.000419804)
(-0.00112513 0.00186576 -0.00108061)
(-0.00143202 0.00164203 -0.00108061)
(-0.0016954 0.00136842 -0.00108061)
(-0.00190727 0.00105323 -0.00108061)
(-0.00206118 0.000706035 -0.00108061)
(-0.00215247 0.000337389 -0.00108061)
(-0.00217836 -4.15097e-05 -0.00108061)
(-0.00213805 -0.000419147 -0.00108061)
(-0.00203279 -0.000784048 -0.00108061)
(-0.00186576 -0.00112513 -0.00108061)
(-0.00164203 -0.00143202 -0.00108061)
(-0.00136842 -0.0016954 -0.00108061)
(-0.00105323 -0.00190727 -0.00108061)
(-0.000706035 -0.00206118 -0.00108061)
(-0.000337389 -0.00215247 -0.00108061)
(4.15098e-05 -0.00217836 -0.00108061)
(0.000419147 -0.00213805 -0.00108061)
(0.000784048 -0.00203279 -0.00108061)
(0.00112513 -0.00186576 -0.00108061)
(0.00143202 -0.00164203 -0.00108061)
(0.0016954 -0.00136842 -0.00108061)
(0.00190727 -0.00105323 -0.00108061)
(0.00206118 -0.000706035 -0.00108061)
(0.00215247 -0.000337389 -0.00108061)
(0.00217836 4.15098e-05 -0.00108061)
(0.00213805 0.000419147 -0.00108061)
(0.00203279 0.000784048 -0.00108061)
(0.00186576 0.00112513 -0.00108061)
(0.00164203 0.00143202 -0.00108061)
(0.00136842 0.0016954 -0.00108061)
(0.00105323 0.00190727 -0.00108061)
(0.000706035 0.00206118 -0.00108061)
(0.000337389 0.00215247 -0.00108061)
(-4.15097e-05 0.00217836 -0.00108061)
(-0.000419147 0.00213805 -0.00108061)
(-0.000784048 0.00203279 -0.00108061)
(-0.00111535 0.00209414 -0.000896717)
(-0.00146204 0.00186865 -0.000896717)
(-0.00176432 0.00158638 -0.000896717)
(-0.00201299 0.00125591 -0.000896717)
(-0.00220049 0.000887275 -0.000896717)
(-0.00232113 0.000491684 -0.000896716)
(-0.00237125 8.11531e-05 -0.000896716)
(-0.00234932 -0.000331844 -0.000896716)
(-0.002256 -0.000734757 -0.000896717)
(-0.00209414 -0.00111535 -0.000896717)
(-0.00186865 -0.00146204 -0.000896717)
(-0.00158638 -0.00176432 -0.000896717)
(-0.00125591 -0.00201299 -0.000896717)
(-0.000887274 -0.00220049 -0.000896717)
(-0.000491684 -0.00232113 -0.000896716)
(-8.1153e-05 -0.00237125 -0.000896716)
(0.000331844 -0.00234932 -0.000896716)
(0.000734757 -0.002256 -0.000896717)
(0.00111535 -0.00209414 -0.000896717)
(0.00146204 -0.00186865 -0.000896717)
(0.00176432 -0.00158638 -0.000896717)
(0.00201299 -0.00125591 -0.000896717)
(0.00220049 -0.000887274 -0.000896717)
(0.00232113 -0.000491684 -0.000896716)
(0.00237125 -8.1153e-05 -0.000896716)
(0.00234932 0.000331844 -0.000896716)
(0.002256 0.000734757 -0.000896717)
(0.00209414 0.00111535 -0.000896717)
(0.00186865 0.00146204 -0.000896717)
(0.00158638 0.00176432 -0.000896717)
(0.00125591 0.00201299 -0.000896717)
(0.000887275 0.00220049 -0.000896717)
(0.000491684 0.00232113 -0.000896716)
(8.11531e-05 0.00237125 -0.000896716)
(-0.000331844 0.00234932 -0.000896716)
(-0.000734757 0.002256 -0.000896717)
(-0.00114688 0.00229942 -0.000720303)
(-0.00152875 0.00206534 -0.000720304)
(-0.00186417 0.00176849 -0.000720303)
(-0.00214294 0.00141792 -0.000720303)
(-0.0023566 0.00102426 -0.000720303)
(-0.00249866 0.000599479 -0.000720303)
(-0.0025648 0.000156483 -0.000720304)
(-0.00255301 -0.000291268 -0.000720304)
(-0.00246364 -0.000730168 -0.000720304)
(-0.00229942 -0.00114688 -0.000720303)
(-0.00206534 -0.00152875 -0.000720304)
(-0.00176849 -0.00186417 -0.000720304)
(-0.00141792 -0.00214294 -0.000720303)
(-0.00102426 -0.0023566 -0.000720303)
(-0.000599479 -0.00249866 -0.000720304)
(-0.000156482 -0.0025648 -0.000720304)
(0.000291268 -0.00255301 -0.000720304)
(0.000730168 -0.00246364 -0.000720304)
(0.00114688 -0.00229942 -0.000720303)
(0.00152875 -0.00206534 -0.000720304)
(0.00186417 -0.00176849 -0.000720304)
(0.00214294 -0.00141792 -0.000720303)
(0.0023566 -0.00102426 -0.000720303)
(0.00249866 -0.000599479 -0.000720303)
(0.0025648 -0.000156482 -0.000720304)
(0.00255301 0.000291268 -0.000720304)
(0.00246364 0.000730168 -0.000720303)
(0.00229942 0.00114688 -0.000720303)
(0.00206534 0.00152875 -0.000720304)
(0.00176849 0.00186417 -0.000720303)
(0.00141792 0.00214294 -0.000720303)
(0.00102426 0.0023566 -0.000720303)
(0.000599479 0.00249866 -0.000720303)
(0.000156483 0.0025648 -0.000720304)
(-0.000291268 0.00255301 -0.000720304)
(-0.000730168 0.00246364 -0.000720303)
(-0.00140617 0.00244486 -0.00148265)
(-0.00180935 0.00216354 -0.00148265)
(-0.00215756 0.00181648 -0.00148265)
(-0.00244021 0.00141423 -0.00148265)
(-0.00264871 0.000969003 -0.00148265)
(-0.00277674 0.000494337 -0.00148265)
(-0.0028204 4.65126e-06 -0.00148265)
(-0.00277835 -0.000485177 -0.00148265)
(-0.0026519 -0.000960262 -0.00148265)
(-0.00244486 -0.00140617 -0.00148265)
(-0.00216354 -0.00180935 -0.00148265)
(-0.00181648 -0.00215756 -0.00148265)
(-0.00141423 -0.00244021 -0.00148265)
(-0.000969003 -0.00264871 -0.00148265)
(-0.000494337 -0.00277674 -0.00148265)
(-4.6511e-06 -0.0028204 -0.00148265)
(0.000485177 -0.00277835 -0.00148265)
(0.000960262 -0.0026519 -0.00148265)
(0.00140617 -0.00244486 -0.00148265)
(0.00180935 -0.00216354 -0.00148265)
(0.00215756 -0.00181648 -0.00148265)
(0.00244021 -0.00141423 -0.00148265)
(0.00264871 -0.000969003 -0.00148265)
(0.00277674 -0.000494337 -0.00148265)
(0.0028204 -4.65112e-06 -0.00148265)
(0.00277835 0.000485177 -0.00148265)
(0.0026519 0.000960262 -0.00148265)
(0.00244486 0.00140617 -0.00148265)
(0.00216354 0.00180935 -0.00148265)
(0.00181648 0.00215756 -0.00148265)
(0.00141423 0.00244021 -0.00148265)
(0.000969003 0.00264871 -0.00148265)
(0.000494337 0.00277674 -0.00148265)
(4.65127e-06 0.0028204 -0.00148265)
(-0.000485177 0.00277835 -0.00148265)
(-0.000960262 0.0026519 -0.00148265)
(-0.00141858 0.00265159 -0.00127377)
(-0.00185747 0.00236497 -0.00127377)
(-0.00223992 0.0020065 -0.00127377)
(-0.00255432 0.00158705 -0.00127377)
(-0.0027911 0.00111939 -0.00127377)
(-0.00294308 0.000617716 -0.00127377)
(-0.00300563 9.72714e-05 -0.00127377)
(-0.00297686 -0.000426129 -0.00127377)
(-0.00285764 -0.000936581 -0.00127377)
(-0.00265159 -0.00141858 -0.00127377)
(-0.00236497 -0.00185747 -0.00127377)
(-0.0020065 -0.00223992 -0.00127377)
(-0.00158705 -0.00255432 -0.00127377)
(-0.00111939 -0.0027911 -0.00127377)
(-0.000617716 -0.00294308 -0.00127377)
(-9.72713e-05 -0.00300563 -0.00127377)
(0.000426129 -0.00297686 -0.00127377)
(0.000936581 -0.00285764 -0.00127377)
(0.00141858 -0.00265159 -0.00127377)
(0.00185747 -0.00236497 -0.00127377)
(0.00223992 -0.0020065 -0.00127377)
(0.00255432 -0.00158705 -0.00127377)
(0.0027911 -0.00111939 -0.00127377)
(0.00294308 -0.000617716 -0.00127377)
(0.00300563 -9.72713e-05 -0.00127377)
(0.00297686 0.000426129 -0.00127377)
(0.00285764 0.000936581 -0.00127377)
(0.00265159 0.00141858 -0.00127377)
(0.00236497 0.00185747 -0.00127377)
(0.0020065 0.00223992 -0.00127377)
(0.00158705 0.00255432 -0.00127377)
(0.00111939 0.0027911 -0.00127377)
(0.000617716 0.00294308 -0.00127377)
(9.72714e-05 0.00300563 -0.00127377)
(-0.000426128 0.00297686 -0.00127377)
(-0.000936581 0.00285764 -0.00127377)
(-0.00147319 0.00282557 -0.00107537)
(-0.00194147 0.00252683 -0.00107537)
(-0.00235075 0.00215131 -0.00107537)
(-0.00268861 0.00171042 -0.00107537)
(-0.00294477 0.00121756 -0.00107537)
(-0.00311146 0.000687712 -0.00107537)
(-0.00318361 0.000136964 -0.00107537)
(-0.00315903 -0.000417945 -0.00107537)
(-0.00303846 -0.000960156 -0.00107537)
(-0.00282557 -0.00147319 -0.00107537)
(-0.00252683 -0.00194147 -0.00107537)
(-0.00215131 -0.00235075 -0.00107537)
(-0.00171042 -0.00268861 -0.00107537)
(-0.00121756 -0.00294477 -0.00107537)
(-0.000687712 -0.00311146 -0.00107537)
(-0.000136964 -0.00318361 -0.00107537)
(0.000417945 -0.00315903 -0.00107537)
(0.000960156 -0.00303846 -0.00107537)
(0.00147319 -0.00282557 -0.00107537)
(0.00194147 -0.00252683 -0.00107537)
(0.00235075 -0.00215131 -0.00107537)
(0.00268861 -0.00171042 -0.00107537)
(0.00294477 -0.00121756 -0.00107537)
(0.00311146 -0.000687712 -0.00107537)
(0.00318361 -0.000136964 -0.00107537)
(0.00315903 0.000417945 -0.00107537)
(0.00303846 0.000960156 -0.00107537)
(0.00282557 0.00147319 -0.00107537)
(0.00252683 0.00194147 -0.00107537)
(0.00215131 0.00235075 -0.00107537)
(0.00171042 0.00268861 -0.00107537)
(0.00121756 0.00294477 -0.00107537)
(0.000687712 0.00311146 -0.00107537)
(0.000136964 0.00318361 -0.00107537)
(-0.000417945 0.00315903 -0.00107537)
(-0.000960156 0.00303846 -0.00107537)
(-0.00169488 0.00301313 -0.00190873)
(-0.00219236 0.00267304 -0.00190873)
(-0.00262322 0.00225173 -0.00190873)
(-0.00297437 0.00176201 -0.00190873)
(-0.00323516 0.00121875 -0.00190873)
(-0.00339764 0.000638451 -0.00190873)
(-0.00345689 3.87571e-05 -0.00190873)
(-0.0034111 -0.000562115 -0.00190873)
(-0.00326167 -0.00114591 -0.00190873)
(-0.00301313 -0.00169488 -0.00190873)
(-0.00267304 -0.00219236 -0.00190873)
(-0.00225173 -0.00262322 -0.00190873)
(-0.00176201 -0.00297437 -0.00190873)
(-0.00121874 -0.00323516 -0.00190873)
(-0.00063845 -0.00339764 -0.00190873)
(-3.87569e-05 -0.00345689 -0.00190873)
(0.000562115 -0.0034111 -0.00190873)
(0.00114591 -0.00326167 -0.00190873)
(0.00169488 -0.00301313 -0.00190873)
(0.00219236 -0.00267304 -0.00190873)
(0.00262322 -0.00225173 -0.00190873)
(0.00297437 -0.00176201 -0.00190873)
(0.00323516 -0.00121874 -0.00190873)
(0.00339764 -0.00063845 -0.00190873)
(0.00345689 -3.8757e-05 -0.00190873)
(0.0034111 0.000562115 -0.00190873)
(0.00326167 0.00114591 -0.00190873)
(0.00301313 0.00169488 -0.00190873)
(0.00267304 0.00219236 -0.00190873)
(0.00225173 0.00262322 -0.00190873)
(0.00176201 0.00297437 -0.00190873)
(0.00121875 0.00323516 -0.00190873)
(0.000638451 0.00339764 -0.00190873)
(3.87571e-05 0.00345689 -0.00190873)
(-0.000562115 0.0034111 -0.00190873)
(-0.00114591 0.00326167 -0.00190873)
(-0.00171941 0.00316698 -0.0016815)
(-0.00224323 0.00282029 -0.0016815)
(-0.00269889 0.00238791 -0.0016815)
(-0.00307254 0.00188298 -0.0016815)
(-0.00335284 0.00132083 -0.0016815)
(-0.00353126 0.000718549 -0.0016815)
(-0.00360239 9.4436e-05 -0.0016815)
(-0.00356406 -0.000532547 -0.0016815)
(-0.00341744 -0.00114335 -0.0016815)
(-0.00316698 -0.00171941 -0.0016815)
(-0.00282029 -0.00224323 -0.0016815)
(-0.00238791 -0.00269889 -0.0016815)
(-0.00188298 -0.00307254 -0.0016815)
(-0.00132083 -0.00335284 -0.0016815)
(-0.000718549 -0.00353126 -0.0016815)
(-9.44358e-05 -0.00360239 -0.0016815)
(0.000532547 -0.00356406 -0.0016815)
(0.00114335 -0.00341744 -0.0016815)
(0.00171941 -0.00316698 -0.0016815)
(0.00224323 -0.00282029 -0.0016815)
(0.00269889 -0.00238791 -0.0016815)
(0.00307254 -0.00188298 -0.0016815)
(0.00335284 -0.00132083 -0.0016815)
(0.00353126 -0.000718549 -0.0016815)
(0.00360239 -9.44359e-05 -0.0016815)
(0.00356406 0.000532547 -0.0016815)
(0.00341744 0.00114335 -0.0016815)
(0.00316698 0.00171941 -0.0016815)
(0.00282029 0.00224323 -0.0016815)
(0.00238791 0.00269889 -0.0016815)
(0.00188298 0.00307254 -0.0016815)
(0.00132083 0.00335284 -0.0016815)
(0.000718549 0.00353126 -0.0016815)
(9.4436e-05 0.00360239 -0.0016815)
(-0.000532547 0.00356406 -0.0016815)
(-0.00114335 0.00341744 -0.0016815)
(-0.00178437 0.00328078 -0.00146743)
(-0.00232696 0.00292108 -0.00146744)
(-0.00279885 0.00247263 -0.00146743)
(-0.0031857 0.00194905 -0.00146743)
(-0.00347575 0.00136625 -0.00146743)
(-0.00366019 0.000741939 -0.00146743)
(-0.00373342 9.50824e-05 -0.00146743)
(-0.00369321 -0.000554665 -0.00146744)
(-0.00354079 -0.00118756 -0.00146743)
(-0.00328078 -0.00178437 -0.00146743)
(-0.00292108 -0.00232696 -0.00146744)
(-0.00247263 -0.00279885 -0.00146743)
(-0.00194905 -0.0031857 -0.00146744)
(-0.00136625 -0.00347575 -0.00146743)
(-0.000741938 -0.00366019 -0.00146744)
(-9.50822e-05 -0.00373342 -0.00146743)
(0.000554665 -0.00369321 -0.00146744)
(0.00118756 -0.00354079 -0.00146743)
(0.00178437 -0.00328078 -0.00146744)
(0.00232696 -0.00292108 -0.00146744)
(0.00279885 -0.00247263 -0.00146743)
(0.0031857 -0.00194905 -0.00146743)
(0.00347575 -0.00136625 -0.00146743)
(0.00366019 -0.000741938 -0.00146743)
(0.00373342 -9.50823e-05 -0.00146743)
(0.00369321 0.000554665 -0.00146744)
(0.00354079 0.00118756 -0.00146743)
(0.00328078 0.00178437 -0.00146743)
(0.00292108 0.00232696 -0.00146744)
(0.00247263 0.00279885 -0.00146743)
(0.00194905 0.0031857 -0.00146743)
(0.00136625 0.00347575 -0.00146743)
(0.000741939 0.00366019 -0.00146743)
(9.50824e-05 0.00373342 -0.00146743)
(-0.000554665 0.00369321 -0.00146744)
(-0.00118756 0.00354079 -0.00146743)
(-0.00199653 0.00353994 -0.00235477)
(-0.00258091 0.00313946 -0.00235477)
(-0.00308686 0.0026436 -0.00235477)
(-0.00349902 0.00206741 -0.00235477)
(-0.00380486 0.0014284 -0.00235477)
(-0.0039951 0.000745991 -0.00235477)
(-0.00406394 4.09175e-05 -0.00235477)
(-0.00400931 -0.000665401 -0.00235477)
(-0.00383285 -0.0013515 -0.00235477)
(-0.00353994 -0.00199653 -0.00235477)
(-0.00313946 -0.00258091 -0.00235477)
(-0.0026436 -0.00308686 -0.00235477)
(-0.00206741 -0.00349902 -0.00235477)
(-0.0014284 -0.00380486 -0.00235477)
(-0.000745991 -0.0039951 -0.00235477)
(-4.09172e-05 -0.00406394 -0.00235477)
(0.000665401 -0.00400931 -0.00235477)
(0.0013515 -0.00383285 -0.00235477)
(0.00199654 -0.00353994 -0.00235477)
(0.00258091 -0.00313946 -0.00235477)
(0.00308686 -0.0026436 -0.00235477)
(0.00349902 -0.00206741 -0.00235477)
(0.00380486 -0.0014284 -0.00235477)
(0.0039951 -0.000745991 -0.00235477)
(0.00406394 -4.09173e-05 -0.00235477)
(0.00400931 0.000665401 -0.00235477)
(0.00383285 0.0013515 -0.00235477)
(0.00353994 0.00199654 -0.00235477)
(0.00313946 0.00258091 -0.00235477)
(0.0026436 0.00308686 -0.00235477)
(0.00206741 0.00349902 -0.00235477)
(0.0014284 0.00380486 -0.00235477)
(0.000745992 0.0039951 -0.00235477)
(4.09175e-05 0.00406394 -0.00235477)
(-0.000665401 0.00400931 -0.00235477)
(-0.0013515 0.00383285 -0.00235477)
(-0.00201976 0.00362011 -0.00211078)
(-0.0026177 0.00321439 -0.00211078)
(-0.00313611 0.00271099 -0.00211078)
(-0.00355922 0.00212523 -0.00211078)
(-0.00387419 0.00147489 -0.00211078)
(-0.00407145 0.000779737 -0.00211078)
(-0.00414499 6.08908e-05 -0.00211078)
(-0.00409259 -0.000659804 -0.00211078)
(-0.00391584 -0.00136045 -0.00211078)
(-0.00362011 -0.00201976 -0.00211078)
(-0.00321439 -0.0026177 -0.00211078)
(-0.00271099 -0.00313611 -0.00211078)
(-0.00212523 -0.00355922 -0.00211078)
(-0.00147489 -0.00387419 -0.00211078)
(-0.000779737 -0.00407145 -0.00211078)
(-6.08906e-05 -0.00414499 -0.00211078)
(0.000659805 -0.00409259 -0.00211078)
(0.00136045 -0.00391584 -0.00211078)
(0.00201976 -0.00362011 -0.00211078)
(0.00261771 -0.00321439 -0.00211078)
(0.00313611 -0.00271099 -0.00211078)
(0.00355922 -0.00212523 -0.00211078)
(0.00387419 -0.00147489 -0.00211078)
(0.00407145 -0.000779737 -0.00211078)
(0.00414499 -6.08907e-05 -0.00211078)
(0.00409259 0.000659804 -0.00211078)
(0.00391584 0.00136045 -0.00211078)
(0.00362011 0.00201976 -0.00211078)
(0.00321439 0.00261771 -0.00211078)
(0.00271099 0.00313611 -0.00211078)
(0.00212523 0.00355922 -0.00211078)
(0.00147489 0.00387419 -0.00211078)
(0.000779737 0.00407145 -0.00211078)
(6.08909e-05 0.00414499 -0.00211078)
(-0.000659804 0.00409259 -0.00211078)
(-0.00136045 0.00391584 -0.00211078)
(-0.00207923 0.00365667 -0.00188219)
(-0.00268262 0.00324007 -0.00188219)
(-0.0032045 0.00272501 -0.00188219)
(-0.00362901 0.00212716 -0.00188219)
(-0.00394325 0.00146467 -0.00188219)
(-0.00413768 0.000757681 -0.00188219)
(-0.00420639 2.76692e-05 -0.00188219)
(-0.00414729 -0.000703183 -0.00188219)
(-0.00396218 -0.00141267 -0.00188219)
(-0.00365667 -0.00207923 -0.00188219)
(-0.00324007 -0.00268262 -0.00188219)
(-0.00272501 -0.0032045 -0.00188219)
(-0.00212716 -0.00362901 -0.00188219)
(-0.00146467 -0.00394325 -0.00188219)
(-0.000757681 -0.00413768 -0.00188219)
(-2.7669e-05 -0.00420639 -0.00188219)
(0.000703183 -0.00414729 -0.00188219)
(0.00141267 -0.00396218 -0.00188219)
(0.00207923 -0.00365667 -0.00188219)
(0.00268262 -0.00324007 -0.00188219)
(0.0032045 -0.00272501 -0.00188219)
(0.00362901 -0.00212716 -0.00188219)
(0.00394325 -0.00146467 -0.00188219)
(0.00413768 -0.000757681 -0.00188219)
(0.00420639 -2.7669e-05 -0.00188219)
(0.00414729 0.000703183 -0.00188219)
(0.00396218 0.00141267 -0.00188219)
(0.00365667 0.00207923 -0.00188219)
(0.00324007 0.00268262 -0.00188219)
(0.00272501 0.0032045 -0.00188219)
(0.00212716 0.00362901 -0.00188219)
(0.00146467 0.00394325 -0.00188219)
(0.000757681 0.00413768 -0.00188219)
(2.76692e-05 0.00420639 -0.00188219)
(-0.000703183 0.00414729 -0.00188219)
(-0.00141267 0.00396218 -0.00188219)
(-0.00230507 0.00398792 -0.00281484)
(-0.00296254 0.00352706 -0.00281484)
(-0.00353 0.00295904 -0.00281484)
(-0.00399021 0.00230111 -0.00281484)
(-0.00432917 0.00157326 -0.00281484)
(-0.00453659 0.000797602 -0.00281484)
(-0.00460617 -2.28634e-06 -0.00281484)
(-0.0045358 -0.000802106 -0.00281484)