/*--------------------------------*- C++ -*----------------------------------*\
| =========                 |                                                 |
| \\      /  F ield         | OpenFOAM: The Open Source CFD Toolbox           |
|  \\    /   O peration     | Version:  2312                                  |
|   \\  /    A nd           | Website:  www.openfoam.com                      |
|    \\/     M anipulation  |                                                 |
\*---------------------------------------------------------------------------*/
FoamFile
{
    version     2.0;
    format      ascii;
    arch        "LSB;label=32;scalar=64";
    class       volTensorField;
    location    "0.6";
    object      F;
}
// * * * * * * * * * * * * * * * * * * * * * * * * * * * * * * * * * * * * * //

dimensions      [0 0 0 0 0 0 0];

internalField   nonuniform List<tensor> 
1620
(
(0.930813 -0.0296427 0.155464 -0.0814679 0.967612 -0.277552 -0.0435417 -0.00380958 1.13095)
(0.950924 -0.0325853 0.201298 -0.0844109 0.947501 -0.24634 -0.0422191 -0.0113126 1.13095)
(0.970828 -0.0284723 0.241017 -0.0802979 0.927597 -0.207642 -0.0396131 -0.0184717 1.13095)
(0.988125 -0.0177995 0.273412 -0.0696249 0.9103 -0.162636 -0.0358034 -0.0250698 1.13095)
(1.00073 -0.00185428 0.2975 -0.0536797 0.897696 -0.112688 -0.0309063 -0.0309065 1.13095)
(1.00712 0.0174398 0.312548 -0.0343855 0.891306 -0.0593156 -0.0250701 -0.0358036 1.13095)
(1.00652 0.0377557 0.318099 -0.0140695 0.891901 -0.00414096 -0.0184719 -0.0396127 1.13095)
(0.999018 0.0566434 0.313986 0.00481826 0.899408 0.0511595 -0.0113124 -0.0422186 1.13095)
(0.985503 0.0718246 0.300332 0.0199993 0.912922 0.104905 -0.00380932 -0.0435416 1.13095)
(0.967612 0.081468 0.277552 0.0296427 0.930813 0.155464 0.00380958 -0.0435417 1.13095)
(0.947501 0.0844109 0.24634 0.0325853 0.950924 0.201298 0.0113126 -0.0422191 1.13095)
(0.927597 0.0802979 0.207642 0.0284723 0.970828 0.241017 0.0184717 -0.0396131 1.13095)
(0.9103 0.0696249 0.162636 0.0177995 0.988125 0.273412 0.0250698 -0.0358034 1.13095)
(0.897696 0.0536797 0.112688 0.00185429 1.00073 0.2975 0.0309065 -0.0309063 1.13095)
(0.891306 0.0343855 0.0593156 -0.0174398 1.00712 0.312548 0.0358036 -0.0250701 1.13095)
(0.891901 0.0140695 0.00414094 -0.0377556 1.00652 0.318099 0.0396127 -0.0184719 1.13095)
(0.899408 -0.00481826 -0.0511595 -0.0566434 0.999018 0.313986 0.0422186 -0.0113124 1.13095)
(0.912922 -0.0199993 -0.104905 -0.0718246 0.985503 0.300332 0.0435416 -0.00380932 1.13095)
(0.930813 -0.0296427 -0.155464 -0.081468 0.967612 0.277552 0.0435417 0.00380958 1.13095)
(0.950924 -0.0325853 -0.201298 -0.0844109 0.947501 0.24634 0.042219 0.0113126 1.13095)
(0.970828 -0.0284723 -0.241017 -0.0802979 0.927597 0.207642 0.0396131 0.0184717 1.13095)
(0.988125 -0.0177995 -0.273412 -0.0696249 0.9103 0.162636 0.0358034 0.0250698 1.13095)
(1.00073 -0.00185429 -0.2975 -0.0536797 0.897696 0.112688 0.0309063 0.0309065 1.13095)
(1.00712 0.0174398 -0.312548 -0.0343855 0.891306 0.0593156 0.0250701 0.0358036 1.13095)
(1.00652 0.0377556 -0.318099 -0.0140695 0.891901 0.00414094 0.0184719 0.0396127 1.13095)
(0.999018 0.0566434 -0.313986 0.00481826 0.899408 -0.0511595 0.0113124 0.0422186 1.13095)
(0.985503 0.0718246 -0.300332 0.0199993 0.912922 -0.104905 0.00380933 0.0435416 1.13095)
(0.967612 0.0814679 -0.277552 0.0296427 0.930813 -0.155464 -0.00380958 0.0435417 1.13095)
(0.947501 0.0844109 -0.24634 0.0325853 0.950924 -0.201298 -0.0113126 0.042219 1.13095)
(0.927597 0.0802979 -0.207642 0.0284723 0.970828 -0.241017 -0.0184717 0.0396131 1.13095)
(0.9103 0.0696249 -0.162636 0.0177995 0.988125 -0.273412 -0.0250698 0.0358034 1.13095)
(0.897696 0.0536797 -0.112688 0.00185428 1.00073 -0.2975 -0.0309065 0.0309063 1.13095)
(0.891306 0.0343855 -0.0593156 -0.0174398 1.00712 -0.312548 -0.0358036 0.0250701 1.13095)
(0.891901 0.0140694 -0.00414096 -0.0377556 1.00652 -0.318099 -0.0396127 0.0184719 1.13095)
(0.899408 -0.00481827 0.0511595 -0.0566434 0.999018 -0.313986 -0.0422186 0.0113124 1.13095)
(0.912922 -0.0199993 0.104905 -0.0718246 0.985503 -0.300332 -0.0435416 0.00380932 1.13095)
(0.944513 -0.0416044 0.164211 -0.0835303 0.973048 -0.319278 -0.0383602 -0.00335613 1.10177)
(0.966772 -0.0427109 0.217158 -0.0846371 0.950788 -0.285913 -0.0371949 -0.00996638 1.10177)
(0.988068 -0.0361376 0.263507 -0.0780637 0.929493 -0.24386 -0.0348991 -0.0162737 1.10177)
(1.00583 -0.0226771 0.30185 -0.064603 0.911729 -0.194398 -0.0315429 -0.0220865 1.10177)
(1.01792 -0.00395273 0.331021 -0.0458787 0.899641 -0.139029 -0.0272285 -0.0272285 1.10177)
(1.02287 0.0177768 0.350134 -0.0241491 0.894686 -0.0794356 -0.0220867 -0.031543 1.10177)
(1.0201 0.0398903 0.358608 -0.00203541 0.897462 -0.0174287 -0.0162737 -0.0348989 1.10177)
(1.00993 0.0597212 0.356187 0.0177954 0.907633 0.0451078 -0.0099662 -0.0371945 1.10177)
(0.993587 0.0748772 0.342943 0.0329514 0.923974 0.106274 -0.00335605 -0.0383602 1.10177)
(0.973048 0.0835303 0.319278 0.0416044 0.944513 0.164211 0.00335613 -0.0383602 1.10177)
(0.950788 0.0846371 0.285913 0.0427109 0.966772 0.217158 0.00996638 -0.0371949 1.10177)
(0.929493 0.0780637 0.24386 0.0361376 0.988068 0.263507 0.0162737 -0.0348991 1.10177)
(0.911729 0.064603 0.194398 0.0226771 1.00583 0.30185 0.0220865 -0.0315429 1.10177)
(0.899641 0.0458787 0.139029 0.00395273 1.01792 0.331021 0.0272285 -0.0272285 1.10177)
(0.894686 0.0241491 0.0794356 -0.0177768 1.02287 0.350134 0.031543 -0.0220867 1.10177)
(0.897462 0.00203542 0.0174287 -0.0398903 1.0201 0.358608 0.0348989 -0.0162737 1.10177)
(0.907633 -0.0177954 -0.0451079 -0.0597212 1.00993 0.356187 0.0371945 -0.0099662 1.10177)
(0.923974 -0.0329514 -0.106274 -0.0748772 0.993587 0.342943 0.0383602 -0.00335605 1.10177)
(0.944513 -0.0416044 -0.164211 -0.0835303 0.973048 0.319278 0.0383602 0.00335612 1.10177)
(0.966772 -0.0427109 -0.217158 -0.0846371 0.950788 0.285913 0.0371949 0.00996638 1.10177)
(0.988068 -0.0361376 -0.263507 -0.0780637 0.929493 0.24386 0.0348991 0.0162737 1.10177)
(1.00583 -0.0226771 -0.30185 -0.064603 0.911729 0.194398 0.0315429 0.0220865 1.10177)
(1.01792 -0.00395273 -0.331021 -0.0458787 0.899641 0.139029 0.0272285 0.0272285 1.10177)
(1.02287 0.0177768 -0.350134 -0.0241491 0.894686 0.0794356 0.0220867 0.031543 1.10177)
(1.0201 0.0398903 -0.358608 -0.00203541 0.897462 0.0174287 0.0162737 0.0348989 1.10177)
(1.00993 0.0597212 -0.356187 0.0177954 0.907633 -0.0451079 0.0099662 0.0371945 1.10177)
(0.993587 0.0748772 -0.342943 0.0329514 0.923974 -0.106274 0.00335605 0.0383602 1.10177)
(0.973048 0.0835303 -0.319278 0.0416044 0.944513 -0.164211 -0.00335612 0.0383602 1.10177)
(0.950788 0.0846371 -0.285913 0.0427109 0.966772 -0.217158 -0.00996638 0.0371949 1.10177)
(0.929493 0.0780637 -0.24386 0.0361376 0.988068 -0.263507 -0.0162737 0.0348991 1.10177)
(0.911729 0.064603 -0.194398 0.0226771 1.00583 -0.30185 -0.0220865 0.0315429 1.10177)
(0.899641 0.0458787 -0.139029 0.00395273 1.01792 -0.331021 -0.0272285 0.0272285 1.10177)
(0.894686 0.0241491 -0.0794356 -0.0177768 1.02287 -0.350134 -0.031543 0.0220867 1.10177)
(0.897462 0.00203541 -0.0174287 -0.0398903 1.0201 -0.358608 -0.0348989 0.0162737 1.10177)
(0.907633 -0.0177954 0.0451079 -0.0597212 1.00993 -0.356187 -0.0371945 0.0099662 1.10177)
(0.923974 -0.0329514 0.106274 -0.0748772 0.993587 -0.342943 -0.0383602 0.00335604 1.10177)
(0.959959 -0.057282 0.177014 -0.0842215 0.976487 -0.358499 -0.0323909 -0.00283376 1.0687)
(0.984656 -0.0558416 0.236578 -0.0827812 0.95179 -0.322314 -0.0314069 -0.00841546 1.0687)
(1.00737 -0.0460413 0.288953 -0.0729809 0.929075 -0.276336 -0.0294682 -0.0137413 1.0687)
(1.02536 -0.0290631 0.332548 -0.0560025 0.911082 -0.221962 -0.0266344 -0.0186496 1.0687)
(1.03647 -0.00695479 0.366039 -0.0338941 0.899981 -0.160844 -0.0229914 -0.0229914 1.0687)
(1.03934 0.0176172 0.388409 -0.00932203 0.897111 -0.0948377 -0.0186496 -0.0266345 1.0687)
(1.03363 0.0416886 0.398976 0.0147495 0.902818 -0.0259504 -0.0137412 -0.0294682 1.0687)
(1.02003 0.0623567 0.397421 0.0354175 0.916414 0.0437253 -0.00841531 -0.0314065 1.0687)
(1.00019 0.0771282 0.383791 0.0501889 0.936259 0.112072 -0.00283388 -0.0323908 1.0687)
(0.976487 0.0842215 0.358499 0.057282 0.959959 0.177014 0.00283376 -0.0323909 1.0687)
(0.95179 0.0827812 0.322314 0.0558416 0.984656 0.236578 0.00841546 -0.0314069 1.0687)
(0.929075 0.0729809 0.276336 0.0460413 1.00737 0.288953 0.0137413 -0.0294682 1.0687)
(0.911082 0.0560025 0.221962 0.0290631 1.02536 0.332548 0.0186495 -0.0266344 1.0687)
(0.899981 0.0338941 0.160844 0.0069548 1.03647 0.366039 0.0229914 -0.0229914 1.0687)
(0.897111 0.00932204 0.0948377 -0.0176172 1.03934 0.388409 0.0266345 -0.0186496 1.0687)
(0.902818 -0.0147495 0.0259504 -0.0416886 1.03363 0.398976 0.0294682 -0.0137412 1.0687)
(0.916414 -0.0354175 -0.0437253 -0.0623567 1.02003 0.397421 0.0314065 -0.00841531 1.0687)
(0.936259 -0.0501889 -0.112073 -0.0771282 1.00019 0.383791 0.0323908 -0.00283389 1.0687)
(0.959959 -0.057282 -0.177015 -0.0842215 0.976487 0.358499 0.0323909 0.00283376 1.0687)
(0.984656 -0.0558416 -0.236578 -0.0827812 0.95179 0.322314 0.0314069 0.00841546 1.0687)
(1.00737 -0.0460413 -0.288953 -0.0729809 0.929075 0.276336 0.0294682 0.0137413 1.0687)
(1.02536 -0.0290631 -0.332548 -0.0560025 0.911082 0.221962 0.0266344 0.0186495 1.0687)
(1.03647 -0.0069548 -0.366039 -0.0338941 0.899981 0.160844 0.0229914 0.0229914 1.0687)
(1.03934 0.0176172 -0.388409 -0.00932203 0.897111 0.0948377 0.0186496 0.0266345 1.0687)
(1.03363 0.0416886 -0.398976 0.0147495 0.902818 0.0259504 0.0137412 0.0294681 1.0687)
(1.02003 0.0623567 -0.397421 0.0354175 0.916414 -0.0437253 0.00841531 0.0314065 1.0687)
(1.00019 0.0771282 -0.383791 0.0501889 0.936259 -0.112073 0.00283389 0.0323908 1.0687)
(0.976487 0.0842215 -0.358499 0.057282 0.959959 -0.177015 -0.00283376 0.0323909 1.0687)
(0.95179 0.0827812 -0.322314 0.0558416 0.984656 -0.236578 -0.00841546 0.0314069 1.0687)
(0.929075 0.0729809 -0.276336 0.0460413 1.00737 -0.288953 -0.0137413 0.0294682 1.0687)
(0.911082 0.0560025 -0.221962 0.0290631 1.02536 -0.332548 -0.0186495 0.0266344 1.0687)
(0.899981 0.0338941 -0.160844 0.00695479 1.03647 -0.366039 -0.0229914 0.0229914 1.0687)
(0.897111 0.00932202 -0.0948377 -0.0176172 1.03934 -0.388409 -0.0266345 0.0186496 1.0687)
(0.902818 -0.0147495 -0.0259504 -0.0416886 1.03363 -0.398976 -0.0294681 0.0137412 1.0687)
(0.916414 -0.0354175 0.0437253 -0.0623567 1.02003 -0.397421 -0.0314065 0.00841531 1.0687)
(0.936259 -0.0501889 0.112072 -0.0771282 1.00019 -0.383791 -0.0323908 0.00283388 1.0687)
(0.95028 -0.0836615 0.154849 -0.157822 0.928028 -0.284905 -0.0995709 -0.00871157 1.14753)
(0.990905 -0.0725746 0.20197 -0.146736 0.887403 -0.253687 -0.0965458 -0.0258695 1.14753)
(1.02529 -0.048262 0.242954 -0.122423 0.85302 -0.214761 -0.0905871 -0.042241 1.14753)
(1.04928 -0.0136557 0.276556 -0.0878165 0.829026 -0.16931 -0.0818751 -0.057329 1.14753)
(1.05999 0.0270704 0.301755 -0.0470901 0.818315 -0.118715 -0.0706757 -0.0706757 1.14753)
(1.05613 0.0690038 0.317785 -0.00515662 0.822179 -0.0645119 -0.0573295 -0.0818751 1.14753)
(1.03816 0.107086 0.324159 0.0329261 0.840152 -0.00834909 -0.042241 -0.0905862 1.14753)
(1.00824 0.136726 0.320684 0.0625652 0.870066 0.0480675 -0.025869 -0.0965452 1.14753)
(0.969995 0.154346 0.307465 0.0801853 0.908313 0.103024 -0.00871112 -0.0995708 1.14753)
(0.928028 0.157822 0.284904 0.0836615 0.95028 0.154849 0.00871156 -0.0995709 1.14753)
(0.887403 0.146736 0.253687 0.0725746 0.990905 0.20197 0.0258695 -0.0965458 1.14753)
(0.85302 0.122423 0.214761 0.048262 1.02529 0.242954 0.042241 -0.0905871 1.14753)
(0.829026 0.0878165 0.16931 0.0136557 1.04928 0.276556 0.057329 -0.0818751 1.14753)
(0.818315 0.0470901 0.118715 -0.0270704 1.05999 0.301755 0.0706757 -0.0706757 1.14753)
(0.822179 0.00515662 0.0645119 -0.0690038 1.05613 0.317785 0.0818751 -0.0573295 1.14753)
(0.840152 -0.0329261 0.00834907 -0.107086 1.03816 0.324159 0.0905862 -0.042241 1.14753)
(0.870066 -0.0625652 -0.0480676 -0.136726 1.00824 0.320684 0.0965452 -0.025869 1.14753)
(0.908313 -0.0801853 -0.103024 -0.154346 0.969995 0.307465 0.0995708 -0.00871113 1.14753)
(0.95028 -0.0836615 -0.154849 -0.157822 0.928028 0.284904 0.0995709 0.00871156 1.14753)
(0.990905 -0.0725746 -0.20197 -0.146736 0.887403 0.253687 0.0965458 0.0258695 1.14753)
(1.02529 -0.048262 -0.242954 -0.122423 0.85302 0.214761 0.0905871 0.042241 1.14753)
(1.04928 -0.0136557 -0.276556 -0.0878165 0.829026 0.16931 0.0818751 0.057329 1.14753)
(1.05999 0.0270704 -0.301755 -0.0470901 0.818315 0.118715 0.0706757 0.0706757 1.14753)
(1.05613 0.0690038 -0.317785 -0.00515662 0.822179 0.0645119 0.0573295 0.0818751 1.14753)
(1.03816 0.107086 -0.324159 0.0329261 0.840152 0.00834907 0.042241 0.0905862 1.14753)
(1.00824 0.136726 -0.320684 0.0625652 0.870066 -0.0480676 0.025869 0.0965451 1.14753)
(0.969995 0.154346 -0.307465 0.0801853 0.908313 -0.103024 0.00871113 0.0995708 1.14753)
(0.928028 0.157822 -0.284905 0.0836615 0.95028 -0.154849 -0.00871155 0.0995709 1.14753)
(0.887403 0.146736 -0.253687 0.0725746 0.990905 -0.20197 -0.0258695 0.0965458 1.14753)
(0.85302 0.122423 -0.214761 0.048262 1.02529 -0.242954 -0.042241 0.0905871 1.14753)
(0.829026 0.0878165 -0.16931 0.0136557 1.04928 -0.276556 -0.057329 0.0818751 1.14753)
(0.818315 0.04709 -0.118715 -0.0270704 1.05999 -0.301755 -0.0706757 0.0706757 1.14753)
(0.822179 0.00515661 -0.0645119 -0.0690038 1.05613 -0.317785 -0.0818751 0.0573295 1.14753)
(0.840152 -0.0329262 -0.00834908 -0.107086 1.03816 -0.324159 -0.0905862 0.042241 1.14753)
(0.870066 -0.0625652 0.0480675 -0.136726 1.00824 -0.320684 -0.0965452 0.025869 1.14753)
(0.908313 -0.0801853 0.103024 -0.154346 0.969995 -0.307465 -0.0995708 0.00871112 1.14753)
(0.969194 -0.111027 0.166032 -0.157701 0.927954 -0.321673 -0.0986038 -0.00862682 1.12097)
(1.01391 -0.0958714 0.219368 -0.142546 0.883243 -0.287954 -0.0956082 -0.0256182 1.12097)
(1.05074 -0.0663377 0.266038 -0.113012 0.846411 -0.245487 -0.0897071 -0.0418309 1.12097)
(1.07525 -0.0259884 0.304624 -0.0726619 0.821902 -0.195561 -0.0810798 -0.0567724 1.12097)
(1.08448 0.0203109 0.333955 -0.0263623 0.812671 -0.139692 -0.0699894 -0.0699893 1.12097)
(1.07732 0.0669751 0.353139 0.0203019 0.819832 -0.0795791 -0.0567726 -0.0810798 1.12097)
(1.05463 0.108376 0.361593 0.0617025 0.842522 -0.0170481 -0.0418307 -0.0897064 1.12097)
(1.01915 0.13952 0.35906 0.0928461 0.878003 0.046001 -0.0256178 -0.0956075 1.12097)
(0.975153 0.15665 0.345617 0.109976 0.921995 0.107652 -0.00862663 -0.0986037 1.12097)
(0.927954 0.157701 0.321673 0.111027 0.969194 0.166032 0.00862681 -0.0986038 1.12097)
(0.883243 0.142546 0.287954 0.0958714 1.01391 0.219368 0.0256181 -0.0956082 1.12097)
(0.846411 0.113012 0.245487 0.0663377 1.05074 0.266038 0.0418309 -0.0897071 1.12097)
(0.821902 0.0726619 0.195561 0.0259884 1.07525 0.304624 0.0567724 -0.0810798 1.12097)
(0.812671 0.0263624 0.139692 -0.0203109 1.08448 0.333955 0.0699893 -0.0699893 1.12097)
(0.819832 -0.0203019 0.0795791 -0.0669751 1.07732 0.353139 0.0810798 -0.0567726 1.12097)
(0.842522 -0.0617025 0.0170481 -0.108376 1.05463 0.361593 0.0897064 -0.0418307 1.12097)
(0.878003 -0.0928461 -0.046001 -0.13952 1.01915 0.35906 0.0956075 -0.0256178 1.12097)
(0.921995 -0.109976 -0.107652 -0.15665 0.975153 0.345617 0.0986037 -0.00862663 1.12097)
(0.969194 -0.111027 -0.166032 -0.157701 0.927954 0.321673 0.0986038 0.00862681 1.12097)
(1.01391 -0.0958714 -0.219368 -0.142546 0.883243 0.287954 0.0956082 0.0256181 1.12097)
(1.05074 -0.0663377 -0.266038 -0.113012 0.846411 0.245487 0.0897071 0.0418309 1.12097)
(1.07525 -0.0259884 -0.304624 -0.0726619 0.821902 0.195561 0.0810798 0.0567724 1.12097)
(1.08448 0.0203109 -0.333955 -0.0263623 0.812671 0.139692 0.0699893 0.0699893 1.12097)
(1.07732 0.0669751 -0.353139 0.0203019 0.819832 0.0795791 0.0567726 0.0810798 1.12097)
(1.05463 0.108376 -0.361593 0.0617025 0.842522 0.0170481 0.0418307 0.0897064 1.12097)
(1.01915 0.13952 -0.35906 0.0928461 0.878003 -0.046001 0.0256178 0.0956074 1.12097)
(0.975153 0.15665 -0.345617 0.109976 0.921995 -0.107652 0.00862664 0.0986037 1.12097)
(0.927954 0.157701 -0.321673 0.111027 0.969194 -0.166032 -0.0086268 0.0986038 1.12097)
(0.883243 0.142546 -0.287954 0.0958714 1.01391 -0.219368 -0.0256181 0.0956082 1.12097)
(0.846411 0.113012 -0.245487 0.0663377 1.05074 -0.266038 -0.0418309 0.0897071 1.12097)
(0.821902 0.0726618 -0.195561 0.0259884 1.07525 -0.304624 -0.0567724 0.0810798 1.12097)
(0.812671 0.0263623 -0.139692 -0.0203109 1.08448 -0.333955 -0.0699893 0.0699893 1.12097)
(0.819832 -0.0203019 -0.0795791 -0.0669751 1.07732 -0.353139 -0.0810798 0.0567726 1.12097)
(0.842522 -0.0617025 -0.0170481 -0.108376 1.05463 -0.361593 -0.0897064 0.0418307 1.12097)
(0.878003 -0.0928461 0.046001 -0.13952 1.01915 -0.35906 -0.0956075 0.0256178 1.12097)
(0.921995 -0.109976 0.107652 -0.15665 0.975153 -0.345617 -0.0986037 0.00862663 1.12097)
(0.989887 -0.145394 0.180985 -0.154223 0.923636 -0.355386 -0.0959779 -0.00839689 1.0926)
(1.03913 -0.125029 0.239947 -0.13386 0.874396 -0.318559 -0.093062 -0.0249358 1.0926)
(1.07843 -0.0890524 0.291619 -0.0978824 0.835091 -0.272053 -0.087318 -0.0407171 1.0926)
(1.10306 -0.041802 0.33443 -0.0506317 0.810461 -0.217281 -0.0789206 -0.0552608 1.0926)
(1.11005 0.0110229 0.36708 0.00219355 0.803477 -0.155907 -0.0681256 -0.0681255 1.0926)
(1.09854 0.0630509 0.388576 0.0542218 0.814981 -0.0897956 -0.0552607 -0.0789205 1.0926)
(1.06994 0.108006 0.398266 0.0991772 0.843586 -0.0209558 -0.0407167 -0.0873174 1.0926)
(1.02768 0.140467 0.395854 0.131638 0.885842 0.0485208 -0.0249357 -0.0930613 1.0926)
(0.976871 0.156518 0.381415 0.147689 0.936652 0.116523 -0.00839701 -0.0959778 1.0926)
(0.923636 0.154223 0.355386 0.145394 0.989887 0.180985 0.00839689 -0.0959779 1.0926)
(0.874396 0.13386 0.318559 0.125029 1.03913 0.239947 0.0249358 -0.093062 1.0926)
(0.835091 0.0978824 0.272053 0.0890524 1.07843 0.291619 0.0407171 -0.0873179 1.0926)
(0.810461 0.0506317 0.217281 0.041802 1.10306 0.33443 0.0552608 -0.0789205 1.0926)
(0.803477 -0.00219354 0.155907 -0.0110229 1.11005 0.36708 0.0681255 -0.0681256 1.0926)
(0.814981 -0.0542218 0.0897956 -0.0630509 1.09854 0.388576 0.0789205 -0.0552607 1.0926)
(0.843586 -0.0991772 0.0209557 -0.108006 1.06994 0.398266 0.0873174 -0.0407167 1.0926)
(0.885842 -0.131638 -0.0485208 -0.140467 1.02768 0.395854 0.0930613 -0.0249357 1.0926)
(0.936652 -0.147689 -0.116523 -0.156518 0.976871 0.381415 0.0959778 -0.00839701 1.0926)
(0.989887 -0.145394 -0.180985 -0.154223 0.923636 0.355386 0.0959779 0.00839688 1.0926)
(1.03913 -0.125029 -0.239947 -0.13386 0.874396 0.318559 0.093062 0.0249358 1.0926)
(1.07843 -0.0890524 -0.291619 -0.0978824 0.835091 0.272053 0.0873179 0.0407171 1.0926)
(1.10306 -0.041802 -0.33443 -0.0506317 0.810461 0.217281 0.0789205 0.0552608 1.0926)
(1.11005 0.0110228 -0.36708 0.00219355 0.803477 0.155907 0.0681256 0.0681255 1.0926)
(1.09854 0.0630509 -0.388576 0.0542218 0.814981 0.0897956 0.0552607 0.0789205 1.0926)
(1.06994 0.108006 -0.398266 0.0991772 0.843586 0.0209557 0.0407167 0.0873174 1.0926)
(1.02768 0.140467 -0.395854 0.131638 0.885842 -0.0485208 0.0249357 0.0930613 1.0926)
(0.976871 0.156518 -0.381415 0.147689 0.936652 -0.116523 0.00839702 0.0959778 1.0926)
(0.923636 0.154223 -0.355386 0.145394 0.989887 -0.180985 -0.00839688 0.0959779 1.0926)
(0.874396 0.13386 -0.318559 0.125029 1.03913 -0.239947 -0.0249358 0.093062 1.0926)
(0.835091 0.0978824 -0.272053 0.0890524 1.07843 -0.291619 -0.0407171 0.0873179 1.0926)
(0.810461 0.0506317 -0.217281 0.041802 1.10306 -0.33443 -0.0552608 0.0789205 1.0926)
(0.803477 -0.00219356 -0.155907 -0.0110229 1.11005 -0.36708 -0.0681255 0.0681256 1.0926)
(0.814981 -0.0542218 -0.0897956 -0.0630509 1.09854 -0.388576 -0.0789205 0.0552607 1.0926)
(0.843586 -0.0991772 -0.0209558 -0.108006 1.06994 -0.398266 -0.0873174 0.0407167 1.0926)
(0.885842 -0.131638 0.0485208 -0.140467 1.02768 -0.395854 -0.0930613 0.0249357 1.0926)
(0.936652 -0.147689 0.116523 -0.156518 0.976871 -0.381415 -0.0959778 0.00839701 1.0926)
(0.97941 -0.138508 0.151 -0.215473 0.891534 -0.289027 -0.144626 -0.0126533 1.18253)
(1.03729 -0.112806 0.198895 -0.189772 0.83365 -0.258415 -0.140232 -0.037575 1.18253)
(1.0829 -0.0688575 0.240746 -0.145823 0.788047 -0.219952 -0.131576 -0.0613547 1.18253)
(1.11072 -0.0119616 0.275283 -0.0889271 0.760225 -0.174805 -0.118923 -0.0832702 1.18253)
(1.1174 0.0510186 0.301455 -0.0259465 0.753541 -0.124347 -0.102656 -0.102656 1.18253)
(1.10214 0.112487 0.318468 0.0355219 0.768801 -0.0701104 -0.0832704 -0.118922 1.18253)
(1.06678 0.165029 0.325804 0.0880643 0.804163 -0.0137439 -0.0613544 -0.131575 1.18253)
(1.01558 0.202308 0.323241 0.125343 0.855364 0.0430403 -0.0375743 -0.140231 1.18253)
(0.954718 0.219827 0.310857 0.142862 0.916227 0.0985166 -0.0126527 -0.144626 1.18253)
(0.891534 0.215474 0.289027 0.138508 0.97941 0.151 0.0126533 -0.144626 1.18253)
(0.83365 0.189772 0.258415 0.112807 1.03729 0.198895 0.037575 -0.140232 1.18253)
(0.788047 0.145823 0.219952 0.0688575 1.0829 0.240746 0.0613547 -0.131576 1.18253)
(0.760225 0.0889271 0.174805 0.0119616 1.11072 0.275283 0.0832702 -0.118923 1.18253)
(0.753541 0.0259465 0.124347 -0.0510186 1.1174 0.301455 0.102656 -0.102656 1.18253)
(0.768801 -0.0355219 0.0701104 -0.112487 1.10214 0.318468 0.118922 -0.0832704 1.18253)
(0.804163 -0.0880643 0.0137439 -0.165029 1.06678 0.325804 0.131575 -0.0613544 1.18253)
(0.855364 -0.125343 -0.0430403 -0.202308 1.01558 0.323241 0.140231 -0.0375743 1.18253)
(0.916227 -0.142862 -0.0985166 -0.219827 0.954718 0.310857 0.144626 -0.0126527 1.18253)
(0.97941 -0.138508 -0.151 -0.215473 0.891534 0.289027 0.144626 0.0126533 1.18253)
(1.03729 -0.112807 -0.198895 -0.189772 0.83365 0.258415 0.140232 0.0375749 1.18253)
(1.0829 -0.0688575 -0.240746 -0.145823 0.788047 0.219952 0.131576 0.0613547 1.18253)
(1.11072 -0.0119616 -0.275283 -0.0889271 0.760225 0.174805 0.118923 0.0832702 1.18253)
(1.1174 0.0510186 -0.301455 -0.0259465 0.753541 0.124347 0.102656 0.102656 1.18253)
(1.10214 0.112487 -0.318468 0.0355219 0.768801 0.0701104 0.0832704 0.118922 1.18253)
(1.06678 0.165029 -0.325804 0.0880643 0.804163 0.0137439 0.0613544 0.131575 1.18253)
(1.01558 0.202308 -0.323241 0.125343 0.855364 -0.0430403 0.0375743 0.140231 1.18253)
(0.954718 0.219827 -0.310857 0.142862 0.916227 -0.0985166 0.0126527 0.144626 1.18253)
(0.891534 0.215473 -0.289027 0.138508 0.97941 -0.151 -0.0126533 0.144626 1.18253)
(0.83365 0.189772 -0.258415 0.112807 1.03729 -0.198895 -0.0375749 0.140232 1.18253)
(0.788047 0.145823 -0.219952 0.0688575 1.0829 -0.240746 -0.0613547 0.131576 1.18253)
(0.760225 0.0889271 -0.174805 0.0119616 1.11072 -0.275283 -0.0832702 0.118923 1.18253)
(0.753541 0.0259465 -0.124347 -0.0510185 1.1174 -0.301455 -0.102656 0.102656 1.18253)
(0.768801 -0.0355219 -0.0701104 -0.112487 1.10214 -0.318468 -0.118922 0.0832704 1.18253)
(0.804163 -0.0880643 -0.0137439 -0.165029 1.06678 -0.325804 -0.131575 0.0613544 1.18253)
(0.855364 -0.125343 0.0430403 -0.202308 1.01558 -0.323241 -0.140231 0.0375743 1.18253)
(0.916227 -0.142862 0.0985166 -0.219827 0.954718 -0.310857 -0.144626 0.0126526 1.18253)
(1.00271 -0.178701 0.165931 -0.212104 0.885477 -0.312622 -0.143597 -0.0125632 1.16271)
(1.066 -0.146869 0.217696 -0.180273 0.822181 -0.279059 -0.139234 -0.0373076 1.16271)
(1.1146 -0.0953084 0.262847 -0.128712 0.773588 -0.237017 -0.13064 -0.0609183 1.16271)
(1.14262 -0.030238 0.300011 -0.0636414 0.745561 -0.187773 -0.118077 -0.0826778 1.16271)
(1.1467 0.0404944 0.328059 0.00709118 0.74148 -0.132824 -0.101926 -0.101925 1.16271)
(1.12635 0.108357 0.34614 0.074954 0.761837 -0.073839 -0.0826777 -0.118076 1.16271)
(1.08401 0.165164 0.353703 0.131762 0.804176 -0.0126107 -0.0609179 -0.130639 1.16271)
(1.02479 0.204065 0.35052 0.170662 0.863392 0.0490008 -0.0373071 -0.139233 1.16271)
(0.955844 0.220367 0.336686 0.186964 0.932341 0.109124 -0.0125629 -0.143596 1.16271)
(0.885477 0.212104 0.312622 0.178701 1.00271 0.165931 0.0125632 -0.143597 1.16271)
(0.822181 0.180273 0.279059 0.146869 1.066 0.217696 0.0373075 -0.139234 1.16271)
(0.773588 0.128712 0.237017 0.0953084 1.1146 0.262847 0.0609183 -0.13064 1.16271)
(0.745561 0.0636415 0.187773 0.030238 1.14262 0.300011 0.0826778 -0.118077 1.16271)
(0.74148 -0.00709116 0.132824 -0.0404943 1.1467 0.328059 0.101925 -0.101926 1.16271)
(0.761837 -0.074954 0.0738389 -0.108357 1.12635 0.34614 0.118076 -0.0826777 1.16271)
(0.804176 -0.131762 0.0126107 -0.165164 1.08401 0.353703 0.130639 -0.0609179 1.16271)
(0.863392 -0.170662 -0.0490008 -0.204065 1.02479 0.35052 0.139233 -0.0373071 1.16271)
(0.932341 -0.186964 -0.109124 -0.220367 0.955844 0.336686 0.143596 -0.0125629 1.16271)
(1.00271 -0.178701 -0.165931 -0.212104 0.885477 0.312622 0.143597 0.0125632 1.16271)
(1.066 -0.146869 -0.217696 -0.180273 0.822181 0.279059 0.139234 0.0373075 1.16271)
(1.1146 -0.0953084 -0.262847 -0.128712 0.773588 0.237017 0.13064 0.0609183 1.16271)
(1.14262 -0.030238 -0.300011 -0.0636415 0.745561 0.187773 0.118077 0.0826778 1.16271)
(1.1467 0.0404943 -0.328059 0.00709117 0.74148 0.132824 0.101926 0.101925 1.16271)
(1.12635 0.108357 -0.34614 0.074954 0.761837 0.0738389 0.0826777 0.118076 1.16271)
(1.08401 0.165164 -0.353703 0.131762 0.804176 0.0126107 0.0609179 0.130639 1.16271)
(1.02479 0.204065 -0.35052 0.170662 0.863392 -0.0490008 0.0373071 0.139233 1.16271)
(0.955844 0.220367 -0.336686 0.186964 0.932341 -0.109124 0.0125629 0.143596 1.16271)
(0.885477 0.212104 -0.312622 0.178701 1.00271 -0.165931 -0.0125632 0.143597 1.16271)
(0.822181 0.180273 -0.279059 0.146869 1.066 -0.217696 -0.0373075 0.139234 1.16271)
(0.773588 0.128712 -0.237017 0.0953084 1.1146 -0.262847 -0.0609183 0.13064 1.16271)
(0.745561 0.0636414 -0.187773 0.030238 1.14262 -0.300011 -0.0826778 0.118077 1.16271)
(0.74148 -0.00709117 -0.132824 -0.0404943 1.1467 -0.328059 -0.101925 0.101926 1.16271)
(0.761837 -0.074954 -0.073839 -0.108357 1.12635 -0.34614 -0.118076 0.0826777 1.16271)
(0.804176 -0.131762 -0.0126107 -0.165164 1.08401 -0.353703 -0.130639 0.0609179 1.16271)
(0.863392 -0.170662 0.0490008 -0.204065 1.02479 -0.35052 -0.139233 0.0373071 1.16271)
(0.932341 -0.186964 0.109124 -0.220367 0.955844 -0.336686 -0.143596 0.0125629 1.16271)
(1.02765 -0.228097 0.184176 -0.203352 0.873058 -0.332034 -0.140526 -0.0122944 1.14351)
(1.09677 -0.188651 0.239035 -0.163905 0.803937 -0.295008 -0.136256 -0.0365098 1.14351)
(1.14823 -0.127943 0.286631 -0.103197 0.752477 -0.249018 -0.127846 -0.0596158 1.14351)
(1.17582 -0.0532955 0.325518 -0.0285495 0.724883 -0.195462 -0.115551 -0.08091 1.14351)
(1.17622 0.0262879 0.354514 0.0510343 0.724484 -0.135967 -0.0997458 -0.0997459 1.14351)
(1.14938 0.101208 0.372739 0.125955 0.751329 -0.0723405 -0.0809097 -0.115551 1.14351)
(1.09853 0.162429 0.379638 0.187176 0.802178 -0.00651597 -0.0596152 -0.127845 1.14351)
(1.02981 0.202566 0.375002 0.227313 0.870901 0.0595065 -0.0365096 -0.136255 1.14351)
(0.951501 0.216778 0.358972 0.241524 0.949206 0.123721 -0.0122945 -0.140526 1.14351)
(0.873058 0.203352 0.332034 0.228097 1.02765 0.184176 0.0122944 -0.140526 1.14351)
(0.803937 0.163905 0.295008 0.188651 1.09677 0.239035 0.0365097 -0.136256 1.14351)
(0.752477 0.103197 0.249018 0.127943 1.14823 0.286631 0.0596157 -0.127846 1.14351)
(0.724883 0.0285495 0.195462 0.0532955 1.17582 0.325518 0.08091 -0.115551 1.14351)
(0.724484 -0.0510343 0.135967 -0.0262879 1.17622 0.354514 0.0997459 -0.0997458 1.14351)
(0.751329 -0.125955 0.0723405 -0.101208 1.14938 0.372739 0.115551 -0.0809097 1.14351)
(0.802178 -0.187176 0.00651595 -0.162429 1.09853 0.379638 0.127845 -0.0596152 1.14351)
(0.870901 -0.227313 -0.0595065 -0.202566 1.02981 0.375002 0.136255 -0.0365096 1.14351)
(0.949206 -0.241524 -0.123721 -0.216778 0.951501 0.358972 0.140526 -0.0122945 1.14351)
(1.02765 -0.228097 -0.184176 -0.203352 0.873058 0.332034 0.140526 0.0122944 1.14351)
(1.09677 -0.188651 -0.239035 -0.163905 0.803937 0.295008 0.136256 0.0365097 1.14351)
(1.14823 -0.127943 -0.286631 -0.103197 0.752477 0.249018 0.127846 0.0596157 1.14351)
(1.17582 -0.0532955 -0.325518 -0.0285495 0.724883 0.195462 0.115551 0.08091 1.14351)
(1.17622 0.0262879 -0.354514 0.0510343 0.724484 0.135967 0.0997458 0.0997459 1.14351)
(1.14938 0.101208 -0.372739 0.125955 0.751329 0.0723405 0.0809097 0.115551 1.14351)
(1.09853 0.162429 -0.379638 0.187176 0.802178 0.00651595 0.0596153 0.127845 1.14351)
(1.02981 0.202566 -0.375002 0.227313 0.870901 -0.0595065 0.0365096 0.136255 1.14351)
(0.951501 0.216778 -0.358972 0.241525 0.949206 -0.123721 0.0122945 0.140526 1.14351)
(0.873058 0.203352 -0.332034 0.228097 1.02765 -0.184176 -0.0122944 0.140526 1.14351)
(0.803937 0.163905 -0.295008 0.188651 1.09677 -0.239035 -0.0365097 0.136256 1.14351)
(0.752477 0.103197 -0.249018 0.127943 1.14823 -0.286631 -0.0596157 0.127846 1.14351)
(0.724883 0.0285495 -0.195462 0.0532955 1.17582 -0.325518 -0.08091 0.115551 1.14351)
(0.724484 -0.0510343 -0.135967 -0.0262879 1.17622 -0.354515 -0.0997458 0.0997458 1.14351)
(0.751329 -0.125955 -0.0723405 -0.101208 1.14938 -0.372739 -0.115551 0.0809097 1.14351)
(0.802178 -0.187176 -0.00651597 -0.162429 1.09853 -0.379638 -0.127845 0.0596152 1.14351)
(0.870901 -0.227313 0.0595065 -0.202566 1.02981 -0.375002 -0.136255 0.0365096 1.14351)
(0.949206 -0.241524 0.123721 -0.216778 0.951501 -0.358972 -0.140526 0.0122945 1.14351)
(1.01624 -0.19644 0.147118 -0.240503 0.858654 -0.2879 -0.173256 -0.0151583 1.21156)
(1.08621 -0.156315 0.194876 -0.200378 0.788684 -0.25798 -0.167992 -0.0450133 1.21156)
(1.13824 -0.0946788 0.236713 -0.138742 0.736658 -0.22022 -0.157623 -0.0735007 1.21156)
(1.16605 -0.0189658 0.271358 -0.0630294 0.708849 -0.17577 -0.142465 -0.0997548 1.21156)
(1.16628 0.0616919 0.297757 0.0176287 0.708613 -0.125979 -0.122978 -0.122978 1.21156)
(1.13892 0.137566 0.315109 0.0935031 0.735979 -0.0723596 -0.0997548 -0.142464 1.21156)
(1.08725 0.199505 0.322887 0.155442 0.787644 -0.016542 -0.0735005 -0.157622 1.21156)
(1.01752 0.240038 0.320855 0.195975 0.857378 0.0397782 -0.0450127 -0.16799 1.21156)
(0.938127 0.254277 0.309073 0.210214 0.93677 0.0948896 -0.0151574 -0.173255 1.21156)
(0.858654 0.240503 0.2879 0.19644 1.01624 0.147118 0.0151583 -0.173256 1.21156)