/*--------------------------------*- C++ -*----------------------------------*\
| =========                 |                                                 |
| \\      /  F ield         | OpenFOAM: The Open Source CFD Toolbox           |
|  \\    /   O peration     | Version:  2312                                  |
|   \\  /    A nd           | Website:  www.openfoam.com                      |
|    \\/     M anipulation  |                                                 |
\*---------------------------------------------------------------------------*/
FoamFile
{
    version     2.0;
    format      ascii;
    arch        "LSB;label=32;scalar=64";
    class       volVectorField;
    location    "0.6";
    object      traction;
}
// * * * * * * * * * * * * * * * * * * * * * * * * * * * * * * * * * * * * * //

dimensions      [1 -1 -2 0 0 0 0];

internalField   uniform (0 0 0);

boundaryField
{
    fixed
    {
        type            calculated;
        value           nonuniform List<vector> 
108
(
(1597.91 -1876.08 21644.9)
(1899.42 -1570.11 21645)
(2143.22 -1216.44 21645)
(2321.87 -825.795 21644.8)
(2429.99 -410.05 21644.8)
(2464.29 18.1421 21644.9)
(2423.7 445.778 21644.9)
(2309.46 859.883 21644.9)
(2125.06 1247.86 21645)
(1876.08 1597.91 21644.9)
(1570.11 1899.42 21645)
(1216.44 2143.22 21645)
(825.795 2321.87 21644.8)
(410.05 2429.99 21644.8)
(-18.1422 2464.29 21644.9)
(-445.778 2423.7 21644.9)
(-859.883 2309.46 21644.9)
(-1247.86 2125.06 21645)
(-1597.91 1876.08 21644.9)
(-1899.42 1570.11 21645)
(-2143.22 1216.44 21645)
(-2321.87 825.795 21644.8)
(-2429.99 410.05 21644.8)
(-2464.29 -18.1421 21644.9)
(-2423.7 -445.778 21644.9)
(-2309.46 -859.883 21644.9)
(-2125.06 -1247.86 21645)
(-1876.08 -1597.91 21644.9)
(-1570.11 -1899.42 21645)
(-1216.44 -2143.22 21645)
(-825.795 -2321.87 21644.8)
(-410.05 -2429.99 21644.8)
(18.1419 -2464.29 21644.9)
(445.778 -2423.7 21644.9)
(859.883 -2309.46 21644.9)
(1247.86 -2125.06 21645)
(1266.72 -2233.16 13768.6)
(1635.26 -1979.27 13768.6)
(1954.11 -1665.25 13768.6)
(2213.6 -1300.62 13768.7)
(2405.81 -896.473 13768.6)
(2524.93 -465.089 13768.5)
(2567.33 -19.5735 13768.6)
(2531.73 426.538 13768.6)
(2419.2 859.686 13768.6)
(2233.16 1266.72 13768.6)
(1979.27 1635.26 13768.6)
(1665.25 1954.11 13768.6)
(1300.62 2213.6 13768.7)
(896.472 2405.81 13768.6)
(465.089 2524.93 13768.5)
(19.5734 2567.33 13768.6)
(-426.538 2531.73 13768.6)
(-859.687 2419.2 13768.6)
(-1266.72 2233.16 13768.6)
(-1635.26 1979.27 13768.6)
(-1954.11 1665.25 13768.6)
(-2213.6 1300.62 13768.7)
(-2405.81 896.473 13768.6)
(-2524.93 465.089 13768.5)
(-2567.33 19.5735 13768.6)
(-2531.73 -426.538 13768.6)
(-2419.2 -859.686 13768.6)
(-2233.16 -1266.72 13768.6)
(-1979.27 -1635.26 13768.6)
(-1665.25 -1954.11 13768.5)
(-1300.62 -2213.6 13768.7)
(-896.473 -2405.81 13768.6)
(-465.089 -2524.93 13768.5)
(-19.5736 -2567.33 13768.6)
(426.538 -2531.73 13768.6)
(859.686 -2419.2 13768.6)
(889.138 -2605.1 746.084)
(1328 -2411.12 746.086)
(1726.51 -2143.89 745.936)
(2072.56 -1811.52 745.91)
(2355.64 -1424.09 746.031)
(2567.14 -993.403 746.023)
(2700.64 -532.531 746.053)
(2752.1 -55.4804 745.951)
(2719.92 423.26 746.044)
(2605.1 889.138 746.087)
(2411.12 1328 746.089)
(2143.89 1726.51 745.939)
(1811.52 2072.56 745.913)
(1424.09 2355.64 746.034)
(993.403 2567.14 746.025)
(532.531 2700.64 746.055)
(55.4803 2752.1 745.953)
(-423.26 2719.92 746.045)
(-889.138 2605.1 746.089)
(-1328 2411.12 746.09)
(-1726.51 2143.89 745.939)
(-2072.56 1811.52 745.913)
(-2355.64 1424.09 746.033)
(-2567.14 993.403 746.024)
(-2700.64 532.531 746.053)
(-2752.1 55.4804 745.951)
(-2719.92 -423.26 746.043)
(-2605.1 -889.138 746.086)
(-2411.12 -1328 746.087)
(-2143.89 -1726.51 745.936)
(-1811.52 -2072.56 745.91)
(-1424.09 -2355.64 746.03)
(-993.403 -2567.14 746.02)
(-532.532 -2700.64 746.05)
(-55.4805 -2752.1 745.948)
(423.26 -2719.92 746.04)
)
;
    }
    inside
    {
        type            calculated;
        value           nonuniform List<vector> 
540
(
(430.229 -855.581 -499.657)
(572.2 -767.68 -499.671)
(697.079 -656.836 -499.652)
(800.431 -525.611 -499.668)
(879.53 -378.788 -499.659)
(932.02 -220.351 -499.656)
(955.899 -55.0927 -499.672)
(951.241 111.773 -499.651)
(917.162 275.172 -499.666)
(855.582 430.226 -499.657)
(767.681 572.198 -499.671)
(656.837 697.076 -499.652)
(525.613 800.429 -499.668)
(378.789 879.528 -499.659)
(220.353 932.019 -499.656)
(55.0946 955.899 -499.672)
(-111.771 951.241 -499.651)
(-275.17 917.162 -499.666)
(-430.225 855.582 -499.657)
(-572.197 767.682 -499.671)
(-697.076 656.837 -499.652)
(-800.429 525.613 -499.668)
(-879.529 378.789 -499.659)
(-932.02 220.352 -499.656)
(-955.899 55.0932 -499.672)
(-951.241 -111.773 -499.652)
(-917.163 -275.172 -499.667)
(-855.582 -430.227 -499.657)
(-767.681 -572.199 -499.671)
(-656.836 -697.079 -499.652)
(-525.611 -800.432 -499.668)
(-378.787 -879.531 -499.659)
(-220.349 -932.021 -499.656)
(-55.0903 -955.9 -499.672)
(111.776 -951.242 -499.652)
(275.175 -917.162 -499.667)
(18052 845.708 -1124.17)
(17630.9 3967.69 -1124.26)
(16674.1 6968.89 -1124.22)
(15210.7 9758.59 -1124.17)
(13285 12251.5 -1124.16)
(10955.6 14372.1 -1124.15)
(8293.52 16056.4 -1124.19)
(5379.43 17252.5 -1124.21)
(2301.73 17924.5 -1124.26)
(-845.708 18052 -1124.17)
(-3967.69 17630.9 -1124.26)
(-6968.89 16674.1 -1124.22)
(-9758.59 15210.7 -1124.17)
(-12251.5 13285 -1124.16)
(-14372.1 10955.6 -1124.15)
(-16056.4 8293.52 -1124.19)
(-17252.5 5379.43 -1124.21)
(-17924.5 2301.73 -1124.26)
(-18052 -845.708 -1124.17)
(-17630.9 -3967.69 -1124.26)
(-16674.1 -6968.89 -1124.22)
(-15210.7 -9758.59 -1124.17)
(-13285 -12251.5 -1124.16)
(-10955.6 -14372.1 -1124.15)
(-8293.52 -16056.4 -1124.19)
(-5379.43 -17252.5 -1124.21)
(-2301.73 -17924.5 -1124.26)
(845.708 -18052 -1124.17)
(3967.69 -17630.9 -1124.26)
(6968.89 -16674.1 -1124.22)
(9758.59 -15210.7 -1124.17)
(12251.5 -13285 -1124.16)
(14372.1 -10955.6 -1124.15)
(16056.4 -8293.52 -1124.19)
(17252.5 -5379.43 -1124.21)
(17924.6 -2301.73 -1124.26)
(19488.3 1071.94 -1325.37)
(19006.2 4439.87 -1325.36)
(17946.3 7672.62 -1325.39)
(16341.4 10672.4 -1325.45)
(14239.9 13348 -1325.43)
(11705.7 15617.9 -1325.42)
(8815.82 17413.4 -1325.4)
(5658.09 18679.5 -1325.32)
(2328.44 19378.3 -1325.4)
(-1071.94 19488.3 -1325.37)
(-4439.87 19006.2 -1325.36)
(-7672.62 17946.3 -1325.39)
(-10672.4 16341.4 -1325.45)
(-13348 14239.9 -1325.43)
(-15617.9 11705.7 -1325.42)
(-17413.4 8815.82 -1325.4)
(-18679.5 5658.09 -1325.32)
(-19378.3 2328.44 -1325.4)
(-19488.3 -1071.94 -1325.37)
(-19006.2 -4439.87 -1325.36)
(-17946.3 -7672.62 -1325.39)
(-16341.4 -10672.4 -1325.45)
(-14239.9 -13348 -1325.43)
(-11705.7 -15617.9 -1325.42)
(-8815.82 -17413.4 -1325.4)
(-5658.09 -18679.5 -1325.32)
(-2328.44 -19378.3 -1325.4)
(1071.94 -19488.3 -1325.37)
(4439.87 -19006.2 -1325.36)
(7672.62 -17946.3 -1325.39)
(10672.4 -16341.4 -1325.45)
(13348 -14239.9 -1325.43)
(15617.9 -11705.7 -1325.42)
(17413.4 -8815.82 -1325.4)
(18679.5 -5658.09 -1325.32)
(19378.3 -2328.44 -1325.4)
(21404.5 2481.54 -1491.97)
(20648.5 6160.74 -1491.97)
(19265 9652.62 -1491.95)
(17296.2 12851.4 -1491.93)
(14801.8 15659.7 -1491.96)
(11857.6 17991.9 -1491.94)
(8553.22 19777.8 -1491.97)
(4988.93 20962.4 -1491.99)
(1273.05 21510.3 -1491.9)
(-2481.54 21404.5 -1491.97)
(-6160.74 20648.5 -1491.97)
(-9652.63 19265 -1491.96)
(-12851.4 17296.2 -1491.93)
(-15659.7 14801.8 -1491.96)
(-17991.9 11857.6 -1491.94)
(-19777.8 8553.22 -1491.97)
(-20962.4 4988.93 -1491.99)
(-21510.3 1273.05 -1491.91)
(-21404.5 -2481.54 -1491.97)
(-20648.5 -6160.74 -1491.97)
(-19265 -9652.63 -1491.96)
(-17296.2 -12851.4 -1491.93)
(-14801.8 -15659.7 -1491.96)
(-11857.6 -17991.9 -1491.94)
(-8553.22 -19777.8 -1491.97)
(-4988.93 -20962.4 -1491.99)
(-1273.05 -21510.3 -1491.9)
(2481.54 -21404.5 -1491.97)
(6160.74 -20648.5 -1491.97)
(9652.63 -19265 -1491.96)
(12851.4 -17296.2 -1491.93)
(15659.7 -14801.8 -1491.96)
(17991.9 -11857.6 -1491.94)
(19777.8 -8553.22 -1491.97)
(20962.4 -4988.93 -1491.99)
(21510.3 -1273.05 -1491.9)
(21925.7 4076.53 -1574.23)
(20884.6 7821.8 -1574.12)
(19209.1 11329.7 -1574.18)
(16950 14493.2 -1574.18)
(14175.7 17216.2 -1574.17)
(10970.8 19416.3 -1574.2)
(7432.52 21026.3 -1574.17)
(3668.34 21997.7 -1574.19)
(-207.165 22300.3 -1574.14)
(-4076.53 21925.7 -1574.23)
(-7821.8 20884.6 -1574.12)
(-11329.7 19209.1 -1574.18)
(-14493.2 16950 -1574.19)
(-17216.2 14175.7 -1574.17)
(-19416.3 10970.8 -1574.2)
(-21026.3 7432.52 -1574.17)
(-21997.7 3668.34 -1574.19)
(-22300.3 -207.164 -1574.14)
(-21925.7 -4076.53 -1574.23)
(-20884.6 -7821.8 -1574.12)
(-19209.1 -11329.7 -1574.18)
(-16950 -14493.2 -1574.19)
(-14175.7 -17216.2 -1574.17)
(-10970.8 -19416.3 -1574.2)
(-7432.52 -21026.3 -1574.17)
(-3668.34 -21997.7 -1574.19)
(207.165 -22300.3 -1574.14)
(4076.53 -21925.7 -1574.23)
(7821.8 -20884.6 -1574.12)
(11329.7 -19209.1 -1574.18)
(14493.2 -16950 -1574.19)
(17216.2 -14175.7 -1574.17)
(19416.3 -10970.8 -1574.2)
(21026.3 -7432.52 -1574.17)
(21997.7 -3668.34 -1574.19)
(22300.3 207.164 -1574.14)
(21313.2 5349.76 -1701.5)
(20060.4 8969.36 -1701.47)
(18198.2 12316.8 -1701.49)
(15782.9 15289.6 -1701.54)
(12888.1 17798.1 -1701.55)
(9601.76 19765.8 -1701.54)
(6023.62 21132.6 -1701.55)
(2262.42 21857.7 -1701.53)
(-1567.48 21918.4 -1701.45)
(-5349.76 21313.2 -1701.5)
(-8969.36 20060.4 -1701.47)
(-12316.8 18198.2 -1701.49)
(-15289.6 15782.9 -1701.54)
(-17798.1 12888.1 -1701.55)
(-19765.8 9601.76 -1701.54)
(-21132.6 6023.62 -1701.55)
(-21857.7 2262.42 -1701.53)
(-21918.4 -1567.48 -1701.45)
(-21313.2 -5349.76 -1701.5)
(-20060.4 -8969.36 -1701.47)
(-18198.2 -12316.8 -1701.49)
(-15782.9 -15289.6 -1701.54)
(-12888.1 -17798.1 -1701.55)
(-9601.76 -19765.8 -1701.54)
(-6023.62 -21132.6 -1701.55)
(-2262.42 -21857.7 -1701.53)
(1567.48 -21918.4 -1701.45)
(5349.76 -21313.2 -1701.5)
(8969.36 -20060.4 -1701.47)
(12316.8 -18198.2 -1701.49)
(15289.6 -15782.9 -1701.54)
(17798.1 -12888.1 -1701.55)
(19765.8 -9601.76 -1701.54)
(21132.6 -6023.62 -1701.55)
(21857.7 -2262.42 -1701.53)
(21918.4 1567.48 -1701.45)
(19770.2 5886.96 -1972.63)
(18447.4 9230.33 -1972.6)
(16564.4 12293.6 -1972.58)
(14177.9 14983.2 -1972.52)
(11360.8 17217.5 -1972.55)
(8198.39 18928.8 -1972.56)
(4786.91 20064.7 -1972.56)
(1229.91 20591.4 -1972.66)
(-2364.19 20491.7 -1972.61)
(-5886.96 19770.2 -1972.64)
(-9230.33 18447.4 -1972.6)
(-12293.6 16564.4 -1972.58)
(-14983.2 14177.9 -1972.52)
(-17217.5 11360.8 -1972.55)
(-18928.8 8198.39 -1972.56)
(-20064.7 4786.91 -1972.56)
(-20591.4 1229.91 -1972.66)
(-20491.7 -2364.19 -1972.61)
(-19770.2 -5886.96 -1972.64)
(-18447.4 -9230.33 -1972.6)
(-16564.4 -12293.6 -1972.58)
(-14177.9 -14983.2 -1972.52)
(-11360.8 -17217.5 -1972.55)
(-8198.39 -18928.8 -1972.56)
(-4786.91 -20064.7 -1972.56)
(-1229.91 -20591.4 -1972.66)
(2364.19 -20491.7 -1972.61)
(5886.96 -19770.2 -1972.63)
(9230.33 -18447.4 -1972.6)
(12293.6 -16564.4 -1972.58)
(14983.2 -14177.9 -1972.52)
(17217.5 -11360.8 -1972.55)
(18928.8 -8198.39 -1972.56)
(20064.7 -4786.91 -1972.56)
(20591.4 -1229.91 -1972.66)
(20491.7 2364.19 -1972.61)
(17424 5295.96 -2411.37)
(16239.6 8241 -2411.32)
(14561.9 10935.8 -2411.43)
(12441.7 13298.3 -2411.39)
(9943.42 15256.8 -2411.39)
(7143.04 16751.8 -2411.44)
(4125.59 17737.6 -2411.4)
(982.848 18184.5 -2411.39)
(-2189.81 18078.9 -2411.36)
(-5295.96 17424 -2411.37)
(-8241 16239.6 -2411.32)
(-10935.8 14561.9 -2411.43)
(-13298.3 12441.7 -2411.39)
(-15256.8 9943.42 -2411.39)
(-16751.8 7143.04 -2411.44)
(-17737.6 4125.59 -2411.4)
(-18184.5 982.848 -2411.39)
(-18078.9 -2189.81 -2411.36)
(-17424 -5295.96 -2411.37)
(-16239.6 -8241 -2411.32)
(-14561.9 -10935.8 -2411.43)
(-12441.7 -13298.3 -2411.39)
(-9943.42 -15256.8 -2411.39)
(-7143.04 -16751.8 -2411.44)
(-4125.59 -17737.6 -2411.4)
(-982.848 -18184.5 -2411.39)
(2189.81 -18078.9 -2411.36)
(5295.96 -17424 -2411.37)
(8241 -16239.6 -2411.32)
(10935.8 -14561.9 -2411.43)
(13298.3 -12441.7 -2411.38)
(15256.8 -9943.42 -2411.39)
(16751.8 -7143.04 -2411.44)
(17737.6 -4125.59 -2411.4)
(18184.5 -982.849 -2411.39)
(18078.9 2189.81 -2411.36)
(14294.7 3005.56 -2965.04)
(13555.7 5442.37 -2964.97)
(12404.6 7713.5 -2964.96)
(10876.8 9750.58 -2965.02)
(9018.4 11491.1 -2965.05)
(6886 12882.5 -2965.03)
(4544.38 13882.5 -2964.98)
(2064.63 14460.8 -2965.02)
(-477.967 14599.7 -2965.04)
(-3005.56 14294.7 -2965.04)
(-5442.37 13555.7 -2964.97)
(-7713.5 12404.6 -2964.96)
(-9750.58 10876.8 -2965.02)
(-11491.1 9018.4 -2965.05)
(-12882.5 6886.01 -2965.03)
(-13882.5 4544.38 -2964.98)
(-14460.8 2064.63 -2965.02)
(-14599.7 -477.967 -2965.04)
(-14294.7 -3005.56 -2965.04)
(-13555.7 -5442.37 -2964.97)
(-12404.6 -7713.5 -2964.96)
(-10876.8 -9750.58 -2965.02)
(-9018.4 -11491.1 -2965.05)
(-6886 -12882.5 -2965.03)
(-4544.38 -13882.5 -2964.98)
(-2064.63 -14460.8 -2965.02)
(477.968 -14599.7 -2965.04)
(3005.56 -14294.7 -2965.04)
(5442.37 -13555.7 -2964.97)
(7713.5 -12404.6 -2964.96)
(9750.58 -10876.8 -2965.02)
(11491.1 -9018.4 -2965.05)
(12882.5 -6886.01 -2965.03)
(13882.5 -4544.38 -2964.98)
(14460.8 -2064.63 -2965.02)
(14599.7 477.967 -2965.04)
(10329.1 -1828.65 -3460.81)
(10489.7 -7.12914 -3460.84)
(10331.6 1814.51 -3460.79)
(9859.57 3581.05 -3460.79)
(9087.95 5238.69 -3460.75)
(8040.21 6737.11 -3460.76)
(6748.15 8030.95 -3460.81)
(5251.07 9080.75 -3460.82)
(3594.3 9854.75 -3460.82)
(1828.65 10329.1 -3460.81)
(7.12912 10489.7 -3460.84)
(-1814.51 10331.6 -3460.79)
(-3581.05 9859.57 -3460.79)
(-5238.69 9087.95 -3460.75)
(-6737.11 8040.21 -3460.76)
(-8030.95 6748.15 -3460.81)
(-9080.75 5251.07 -3460.82)
(-9854.75 3594.3 -3460.82)
(-10329.1 1828.65 -3460.81)
(-10489.7 7.12859 -3460.84)
(-10331.6 -1814.51 -3460.79)
(-9859.57 -3581.06 -3460.79)
(-9087.95 -5238.69 -3460.75)
(-8040.21 -6737.11 -3460.76)
(-6748.15 -8030.95 -3460.81)
(-5251.07 -9080.75 -3460.82)
(-3594.3 -9854.75 -3460.82)
(-1828.65 -10329.1 -3460.81)
(-7.12872 -10489.7 -3460.84)
(1814.51 -10331.6 -3460.79)
(3581.05 -9859.57 -3460.79)
(5238.69 -9087.95 -3460.75)
(6737.11 -8040.21 -3460.76)
(8030.95 -6748.15 -3460.81)
(9080.75 -5251.07 -3460.82)
(9854.75 -3594.3 -3460.82)
(5583.09 -10093.7 -3359.9)
(7251.1 -8970.6 -3359.97)
(8698.65 -7575.38 -3359.91)
(9881.93 -5949.64 -3359.96)
(10765 -4143.31 -3359.96)
(11320.9 -2211.01 -3359.96)
(11532.7 -211.464 -3360)
(11394.5 1794.14 -3359.89)
(10909.7 3745.66 -3359.95)
(10093.7 5583.09 -3359.9)
(8970.6 7251.1 -3359.98)
(7575.38 8698.65 -3359.91)
(5949.64 9881.93 -3359.96)
(4143.31 10765 -3359.96)
(2211.01 11320.9 -3359.96)
(211.463 11532.7 -3360)
(-1794.14 11394.5 -3359.89)
(-3745.66 10909.7 -3359.95)
(-5583.09 10093.7 -3359.9)
(-7251.1 8970.6 -3359.98)
(-8698.65 7575.38 -3359.91)
(-9881.93 5949.64 -3359.96)
(-10765 4143.31 -3359.96)
(-11320.9 2211.01 -3359.96)
(-11532.7 211.463 -3360)
(-11394.5 -1794.14 -3359.89)
(-10909.7 -3745.66 -3359.95)
(-10093.7 -5583.09 -3359.89)
(-8970.6 -7251.1 -3359.97)
(-7575.38 -8698.65 -3359.91)
(-5949.64 -9881.93 -3359.96)
(-4143.31 -10765 -3359.96)
(-2211.01 -11320.9 -3359.96)
(-211.463 -11532.7 -3360)
(1794.14 -11394.5 -3359.89)
(3745.66 -10909.7 -3359.95)
(498.82 -22001.9 -1139.28)
(4311.8 -21580.7 -1139.36)
(7993.85 -20504.3 -1139.32)
(11432.9 -18804.5 -1139.36)
(14524.6 -16533.6 -1139.36)
(17174.9 -13760.2 -1139.4)
(19303.5 -10568.9 -1139.31)
(20845.7 -7056.37 -1139.25)
(21754.2 -3329.42 -1139.23)
(22001.9 498.818 -1139.28)
(21580.7 4311.8 -1139.36)
(20504.3 7993.85 -1139.32)
(18804.5 11432.9 -1139.36)
(16533.6 14524.6 -1139.36)
(13760.2 17174.9 -1139.4)
(10568.9 19303.5 -1139.31)
(7056.37 20845.7 -1139.25)
(3329.42 21754.2 -1139.23)
(-498.819 22001.9 -1139.28)
(-4311.8 21580.7 -1139.36)
(-7993.85 20504.3 -1139.32)
(-11432.9 18804.5 -1139.36)
(-14524.6 16533.6 -1139.36)
(-17174.9 13760.2 -1139.4)
(-19303.5 10568.9 -1139.31)
(-20845.7 7056.37 -1139.25)
(-21754.2 3329.42 -1139.23)
(-22001.9 -498.818 -1139.28)
(-21580.7 -4311.8 -1139.36)
(-20504.3 -7993.85 -1139.32)
(-18804.5 -11432.9 -1139.36)
(-16533.6 -14524.6 -1139.36)
(-13760.2 -17174.9 -1139.4)
(-10568.9 -19303.5 -1139.31)
(-7056.37 -20845.7 -1139.25)
(-3329.42 -21754.2 -1139.23)
(-4012.15 -35950 6753.66)
(2291.44 -36100.2 6753.46)
(8525.49 -35154 6753.53)
(14500.4 -33139.4 6753.47)
(20034.7 -30117.9 6753.43)
(24960.5 -26181.8 6753.68)
(29127.5 -21449.4 6753.55)
(32410.2 -16065.9 6753.9)
(34707.2 -10193.8 6753.67)
(35950 -4012.15 6753.66)
(36100.2 2291.44 6753.46)
(35154 8525.49 6753.53)
(33139.4 14500.4 6753.47)
(30117.9 20034.7 6753.43)
(26181.8 24960.5 6753.68)
(21449.4 29127.5 6753.55)
(16065.9 32410.2 6753.89)
(10193.8 34707.2 6753.67)
(4012.15 35950 6753.66)
(-2291.44 36100.2 6753.46)
(-8525.49 35154 6753.53)
(-14500.4 33139.4 6753.47)
(-20034.7 30117.9 6753.43)
(-24960.5 26181.8 6753.68)
(-29127.5 21449.4 6753.55)
(-32410.2 16065.9 6753.9)
(-34707.2 10193.8 6753.67)
(-35950 4012.15 6753.66)
(-36100.2 -2291.44 6753.46)
(-35154 -8525.49 6753.53)
(-33139.4 -14500.4 6753.47)
(-30117.9 -20034.7 6753.43)
(-26181.8 -24960.5 6753.68)
(-21449.4 -29127.5 6753.54)
(-16065.9 -32410.2 6753.89)
(-10193.8 -34707.2 6753.67)
(-5751.37 -43166.9 23780.7)
(1832.48 -43509.7 23780.4)
(9359.53 -42530.5 23780.5)
(16603.1 -40259.2 23780.8)
(23341.7 -36764.5 23780.7)
(29371.2 -32152.8 23780.8)
(34508.8 -26564 23781.2)
(38596.9 -20168.4 23781)
(41512.9 -13159.1 23780.8)
(43166.9 -5751.37 23780.7)
(43509.7 1832.47 23780.4)
(42530.4 9359.53 23780.5)
(40259.2 16603.1 23780.7)
(36764.5 23341.7 23780.7)
(32152.8 29371.2 23780.8)
(26564 34508.8 23781.2)
(20168.4 38596.9 23781)
(13159.1 41512.9 23780.8)
(5751.37 43166.9 23780.7)
(-1832.48 43509.7 23780.4)
(-9359.53 42530.4 23780.5)
(-16603.1 40259.2 23780.7)
(-23341.7 36764.5 23780.7)
(-29371.2 32152.8 23780.8)
(-34508.8 26564 23781.2)
(-38596.9 20168.4 23781)
(-41513 13159.1 23780.8)
(-43166.9 5751.37 23780.7)
(-43509.7 -1832.48 23780.4)
(-42530.5 -9359.53 23780.5)
(-40259.2 -16603.1 23780.8)
(-36764.5 -23341.7 23780.7)
(-32152.8 -29371.2 23780.8)
(-26564 -34508.8 23781.2)
(-20168.4 -38596.9 23781)
(-13159.1 -41512.9 23780.8)
(-5117.48 -25927.2 28787)
(-537.309 -26421.8 28786.2)
(4058.49 -26112.5 28783.8)
(8533.48 -25014.7 28794.1)
(12742.4 -23147 28774.9)
(16575.9 -20588.6 28799.3)
(19892.3 -17393.4 28778.5)
(22614.6 -13676.9 28790.5)
(24644.4 -9541.38 28786)
(25927.2 -5117.48 28787)
(26421.8 -537.311 28786.2)
(26112.5 4058.48 28783.9)
(25014.7 8533.47 28794.1)
(23147 12742.4 28774.9)
(20588.6 16575.9 28799.3)
(17393.4 19892.3 28778.5)
(13676.9 22614.6 28790.5)
(9541.38 24644.5 28786)
(5117.48 25927.2 28787)
(537.308 26421.8 28786.2)
(-4058.49 26112.5 28783.9)
(-8533.48 25014.7 28794.1)
(-12742.4 23147 28774.9)
(-16575.9 20588.6 28799.3)
(-19892.3 17393.4 28778.6)
(-22614.6 13676.9 28790.5)
(-24644.5 9541.38 28786)
(-25927.2 5117.48 28787)
(-26421.8 537.308 28786.3)
(-26112.5 -4058.49 28783.9)
(-25014.7 -8533.47 28794.1)
(-23147 -12742.4 28774.9)
(-20588.6 -16575.9 28799.3)
(-17393.4 -19892.3 28778.5)
(-13676.9 -22614.6 28790.5)
(-9541.38 -24644.4 28786)
)
;
    }
    outside
    {
        type            calculated;
        value           nonuniform List<vector> 
540
(
(19957.4 2530.77 -128.18)
(19214.8 5958.1 -128.164)
(17888.3 9204.03 -128.19)
(16018.2 12170.2 -128.148)
(13661.4 14767 -128.101)
(10889.5 16915.1 -128.138)
(7786.95 18549 -128.187)
(4447.84 19619.4 -128.179)
(973.192 20093.8 -128.18)
(-2530.77 19957.5 -128.18)
(-5958.1 19214.8 -128.165)
(-9204.03 17888.3 -128.19)
(-12170.2 16018.2 -128.148)
(-14767 13661.4 -128.102)
(-16915.1 10889.6 -128.138)
(-18549 7786.95 -128.187)
(-19619.4 4447.84 -128.179)
(-20093.8 973.192 -128.181)
(-19957.5 -2530.77 -128.181)
(-19214.8 -5958.1 -128.165)
(-17888.3 -9204.03 -128.19)
(-16018.2 -12170.2 -128.148)
(-13661.4 -14767 -128.102)
(-10889.5 -16915.1 -128.138)
(-7786.95 -18549 -128.188)
(-4447.84 -19619.4 -128.179)
(-973.192 -20093.8 -128.181)
(2530.77 -19957.4 -128.181)
(5958.1 -19214.8 -128.165)
(9204.03 -17888.3 -128.19)
(12170.2 -16018.2 -128.148)
(14767 -13661.4 -128.102)
(16915.1 -10889.5 -128.138)
(18549 -7786.95 -128.187)
(19619.4 -4447.84 -128.179)
(20093.8 -973.192 -128.18)
(5510.9 2895.83 -20.9275)
(4924.26 3809.05 -20.9184)
(4188.16 4606.27 -20.9198)
(3324.62 5263.23 -20.9184)
(2360.05 5760.76 -20.932)
(1323.72 6083.25 -20.9295)
(247.417 6220.48 -20.9055)
(-836.422 6169.06 -20.9162)
(-1895.24 5930.09 -20.9329)
(-2895.83 5510.9 -20.9275)
(-3809.05 4924.26 -20.9184)
(-4606.27 4188.16 -20.9199)
(-5263.23 3324.61 -20.9184)
(-5760.76 2360.05 -20.932)
(-6083.25 1323.72 -20.9295)
(-6220.48 247.417 -20.9056)
(-6169.06 -836.422 -20.9162)
(-5930.09 -1895.24 -20.9329)
(-5510.9 -2895.83 -20.9276)
(-4924.26 -3809.05 -20.9184)
(-4188.16 -4606.27 -20.9199)
(-3324.61 -5263.23 -20.9185)
(-2360.05 -5760.76 -20.932)
(-1323.72 -6083.25 -20.9295)
(-247.417 -6220.48 -20.9056)
(836.422 -6169.06 -20.9162)
(1895.24 -5930.08 -20.9329)
(2895.83 -5510.9 -20.9275)
(3809.05 -4924.26 -20.9184)
(4606.27 -4188.16 -20.9199)
(5263.23 -3324.61 -20.9184)
(5760.76 -2360.05 -20.932)
(6083.25 -1323.72 -20.9295)
(6220.48 -247.418 -20.9056)
(6169.06 836.422 -20.9162)
(5930.08 1895.24 -20.9328)
(6167.81 5039.99 -331.446)
(5198.66 6034.43 -331.444)
(4071.96 6845.67 -331.462)
(2821.27 7448.58 -331.458)
(1485.07 7825.45 -331.473)
(103.668 7964.52 -331.47)
(-1280.94 7861.24 -331.443)
(-2626.62 7519.52 -331.448)
(-3892.54 6949.05 -331.43)
(-5039.99 6167.81 -331.446)
(-6034.43 5198.67 -331.444)
(-6845.67 4071.96 -331.463)
(-7448.58 2821.27 -331.458)
(-7825.45 1485.07 -331.473)
(-7964.52 103.668 -331.47)
(-7861.24 -1280.94 -331.443)
(-7519.52 -2626.62 -331.448)
(-6949.05 -3892.54 -331.43)
(-6167.81 -5039.99 -331.446)
(-5198.67 -6034.43 -331.445)
(-4071.96 -6845.67 -331.463)
(-2821.27 -7448.58 -331.458)
(-1485.07 -7825.45 -331.473)
(-103.668 -7964.52 -331.47)
(1280.94 -7861.24 -331.443)
(2626.62 -7519.52 -331.448)
(3892.54 -6949.05 -331.43)
(5039.99 -6167.81 -331.446)
(6034.43 -5198.66 -331.444)
(6845.67 -4071.96 -331.462)
(7448.58 -2821.27 -331.458)
(7825.45 -1485.07 -331.473)
(7964.52 -103.668 -331.47)
(7861.24 1280.94 -331.443)
(7519.52 2626.62 -331.448)
(6949.05 3892.54 -331.43)
(6037.99 7076.52 -686.573)
(4717.4 8017.69 -686.579)
(3253.45 8714.86 -686.567)
(1690.8 9147.49 -686.561)
(76.6596 9302.14 -686.553)
(-1539.8 9174.18 -686.56)
(-3109.48 8767.42 -686.576)
(-4584.55 8094.06 -686.56)
(-5920.62 7175.08 -686.572)
(-7076.52 6038 -686.573)
(-8017.69 4717.4 -686.579)
(-8714.86 3253.45 -686.567)
(-9147.49 1690.8 -686.561)
(-9302.14 76.66 -686.553)
(-9174.18 -1539.8 -686.561)
(-8767.42 -3109.48 -686.576)
(-8094.06 -4584.55 -686.56)
(-7175.08 -5920.62 -686.572)
(-6038 -7076.52 -686.573)
(-4717.4 -8017.69 -686.579)
(-3253.46 -8714.86 -686.567)
(-1690.8 -9147.49 -686.561)
(-76.66 -9302.14 -686.553)
(1539.8 -9174.18 -686.561)
(3109.48 -8767.42 -686.576)
(4584.55 -8094.06 -686.56)
(5920.62 -7175.08 -686.572)
(7076.52 -6037.99 -686.573)
(8017.69 -4717.4 -686.579)
(8714.86 -3253.45 -686.567)
(9147.49 -1690.8 -686.56)
(9302.14 -76.6597 -686.553)
(9174.18 1539.8 -686.56)
(8767.42 3109.48 -686.576)
(8094.06 4584.55 -686.56)
(7175.08 5920.62 -686.572)
(5611.13 9149.3 -1098.65)
(3937.15 9984.92 -1098.68)
(2143.41 10516.6 -1098.65)
(284.819 10729.2 -1098.67)
(-1582.72 10615.6 -1098.65)
(-3402.16 10179.5 -1098.65)
(-5118.04 9434.27 -1098.67)
(-6678.35 8401.83 -1098.64)
(-8036.08 7114.69 -1098.66)
(-9149.3 5611.13 -1098.65)
(-9984.92 3937.15 -1098.68)
(-10516.6 2143.41 -1098.65)
(-10729.2 284.82 -1098.67)
(-10615.6 -1582.72 -1098.65)
(-10179.5 -3402.16 -1098.65)
(-9434.27 -5118.04 -1098.67)
(-8401.83 -6678.35 -1098.64)
(-7114.69 -8036.08 -1098.66)
(-5611.13 -9149.3 -1098.65)
(-3937.15 -9984.92 -1098.68)
(-2143.41 -10516.6 -1098.65)
(-284.82 -10729.2 -1098.67)
(1582.72 -10615.6 -1098.65)
(3402.16 -10179.5 -1098.65)
(5118.04 -9434.27 -1098.67)
(6678.35 -8401.83 -1098.64)
(8036.08 -7114.69 -1098.66)
(9149.3 -5611.13 -1098.65)
(9984.92 -3937.15 -1098.68)
(10516.6 -2143.41 -1098.65)
(10729.2 -284.819 -1098.67)
(10615.6 1582.72 -1098.65)
(10179.5 3402.16 -1098.65)
(9434.27 5118.04 -1098.67)
(8401.83 6678.35 -1098.64)
(7114.69 8036.08 -1098.66)
(4729.28 11229.1 -1502.55)
(2707.61 11879.9 -1502.57)
(603.415 12169.6 -1502.56)
(-1518.85 12089.5 -1502.58)
(-3595.16 11642 -1502.57)
(-5562.19 10840.8 -1502.56)
(-7360.09 9710.31 -1502.55)
(-8934.48 8284.61 -1502.53)
(-10237.5 6607.49 -1502.57)
(-11229.1 4729.28 -1502.55)
(-11879.9 2707.61 -1502.57)
(-12169.6 603.415 -1502.56)
(-12089.5 -1518.85 -1502.58)
(-11642 -3595.16 -1502.57)
(-10840.8 -5562.19 -1502.56)
(-9710.32 -7360.09 -1502.55)
(-8284.61 -8934.48 -1502.53)
(-6607.49 -10237.5 -1502.57)
(-4729.28 -11229.1 -1502.55)
(-2707.61 -11880 -1502.57)
(-603.415 -12169.6 -1502.56)
(1518.85 -12089.5 -1502.58)
(3595.16 -11642 -1502.57)
(5562.19 -10840.8 -1502.56)
(7360.09 -9710.32 -1502.55)
(8934.48 -8284.61 -1502.53)
(10237.5 -6607.49 -1502.57)
(11229.1 -4729.28 -1502.55)
(11879.9 -2707.61 -1502.57)
(12169.6 -603.414 -1502.56)
(12089.5 1518.85 -1502.58)
(11642 3595.16 -1502.57)
(10840.8 5562.19 -1502.56)
(9710.31 7360.09 -1502.55)
(8284.61 8934.48 -1502.53)
(6607.49 10237.5 -1502.57)
(3333.03 13194.3 -1820.13)
(991.344 13572.7 -1820.17)
(-1380.85 13538.4 -1820.12)
(-3710.59 13093.4 -1820.19)
(-5927.92 12249.8 -1820.14)
(-7964.95 11034.2 -1820.12)
(-9760.03 9483.75 -1820.16)
(-11258.6 7644.58 -1820.12)
(-12415.1 5573.62 -1820.14)
(-13194.3 3333.03 -1820.13)
(-13572.7 991.344 -1820.17)
(-13538.4 -1380.85 -1820.12)
(-13093.4 -3710.59 -1820.19)
(-12249.8 -5927.92 -1820.14)
(-11034.2 -7964.95 -1820.12)
(-9483.75 -9760.03 -1820.16)
(-7644.58 -11258.6 -1820.12)
(-5573.62 -12415.1 -1820.14)
(-3333.03 -13194.3 -1820.13)
(-991.344 -13572.7 -1820.17)
(1380.85 -13538.4 -1820.12)
(3710.59 -13093.4 -1820.19)
(5927.92 -12249.8 -1820.14)
(7964.95 -11034.2 -1820.12)
(9760.03 -9483.75 -1820.16)
(11258.6 -7644.58 -1820.12)
(12415.1 -5573.62 -1820.14)
(13194.3 -3333.03 -1820.13)
(13572.7 -991.344 -1820.17)
(13538.4 1380.85 -1820.12)
(13093.4 3710.59 -1820.19)
(12249.8 5927.92 -1820.14)
(11034.2 7964.95 -1820.12)
(9483.75 9760.03 -1820.16)
(7644.58 11258.6 -1820.12)
(5573.62 12415.1 -1820.14)
(1337.27 14780.6 -1918.29)
(-1249.71 14788.2 -1918.27)
(-3798.74 14346.5 -1918.26)
(-6232.26 13469.1 -1918.28)
(-8476.44 12182 -1918.25)
(-10463 10525 -1918.25)
(-12131.8 8548.34 -1918.28)
(-13431.9 6311.76 -1918.26)
(-14323.8 3883.43 -1918.26)
(-14780.6 1337.27 -1918.29)
(-14788.2 -1249.71 -1918.27)
(-14346.5 -3798.74 -1918.26)
(-13469.1 -6232.26 -1918.28)
(-12182 -8476.44 -1918.25)
(-10525 -10463 -1918.25)
(-8548.34 -12131.8 -1918.28)
(-6311.76 -13431.9 -1918.26)
(-3883.43 -14323.8 -1918.26)
(-1337.27 -14780.6 -1918.29)
(1249.71 -14788.2 -1918.27)
(3798.74 -14346.5 -1918.26)
(6232.26 -13469.1 -1918.28)
(8476.44 -12182 -1918.25)
(10463 -10525 -1918.25)
(12131.8 -8548.34 -1918.28)
(13431.9 -6311.76 -1918.26)
(14323.8 -3883.43 -1918.26)
(14780.6 -1337.27 -1918.29)
(14788.2 1249.71 -1918.27)
(14346.5 3798.74 -1918.26)
(13469.1 6232.26 -1918.28)
(12182 8476.44 -1918.25)
(10525 10463 -1918.25)
(8548.34 12131.8 -1918.28)
(6311.76 13431.9 -1918.26)
(3883.43 14323.8 -1918.26)
(-1309.96 15558.4 -1520.81)
(-3991.67 15094.7 -1520.83)
(-6552.25 14172.3 -1520.83)
(-8913.69 12819.1 -1520.83)
(-11004.3 11076.5 -1520.83)
(-12760.5 8997.41 -1520.83)
(-14129 6644.79 -1520.81)
(-15068.3 4090.44 -1520.83)
(-15549.8 1411.82 -1520.84)
(-15558.4 -1309.96 -1520.81)
(-15094.7 -3991.67 -1520.83)
(-14172.3 -6552.25 -1520.83)
(-12819.1 -8913.69 -1520.83)
(-11076.5 -11004.3 -1520.83)
(-8997.41 -12760.5 -1520.83)
(-6644.79 -14129 -1520.81)
(-4090.44 -15068.3 -1520.83)
(-1411.82 -15549.8 -1520.84)
(1309.96 -15558.4 -1520.81)
(3991.67 -15094.7 -1520.83)
(6552.25 -14172.3 -1520.83)
(8913.69 -12819.1 -1520.83)
(11004.3 -11076.5 -1520.83)
(12760.5 -8997.41 -1520.83)
(14129 -6644.79 -1520.81)
(15068.3 -4090.44 -1520.83)
(15549.8 -1411.82 -1520.84)
(15558.4 1309.96 -1520.81)
(15094.7 3991.67 -1520.83)
(14172.3 6552.26 -1520.83)
(12819.1 8913.69 -1520.83)
(11076.5 11004.3 -1520.83)
(8997.41 12760.5 -1520.83)
(6644.79 14129 -1520.81)
(4090.44 15068.3 -1520.83)
(1411.82 15549.8 -1520.84)
(-4430.79 14915.1 -111.234)
(-6953.48 13919.1 -111.206)
(-9264.87 12500.2 -111.224)
(-11294.8 10701.5 -111.259)
(-12981.5 8577.64 -111.247)
(-14273.7 6193.07 -111.222)
(-15132.3 3620.38 -111.228)
(-15531.1 937.782 -111.272)
(-15457.9 -1773.48 -111.239)
(-14915.2 -4430.79 -111.234)
(-13919.1 -6953.48 -111.206)
(-12500.2 -9264.87 -111.223)
(-10701.5 -11294.8 -111.259)
(-8577.64 -12981.5 -111.247)
(-6193.08 -14273.7 -111.222)
(-3620.38 -15132.3 -111.228)
(-937.782 -15531.1 -111.272)
(1773.48 -15457.9 -111.239)
(4430.79 -14915.1 -111.234)
(6953.48 -13919.1 -111.206)
(9264.87 -12500.2 -111.224)
(11294.8 -10701.5 -111.259)
(12981.5 -8577.64 -111.247)
(14273.7 -6193.08 -111.222)
(15132.3 -3620.38 -111.228)
(15531.1 -937.782 -111.272)
(15457.9 1773.48 -111.239)
(14915.1 4430.8 -111.234)
(13919.1 6953.48 -111.206)
(12500.2 9264.87 -111.223)
(10701.5 11294.8 -111.259)
(8577.64 12981.5 -111.247)
(6193.07 14273.7 -111.222)
(3620.38 15132.3 -111.228)
(937.782 15531.1 -111.272)
(-1773.48 15457.9 -111.239)
(-7228.76 12566.5 2932.55)
(-9301.15 11120.2 2932.62)
(-11090.9 9336.06 2932.6)
(-12543.6 7268.48 2932.57)
(-13615.2 4979.93 2932.55)
(-14273.1 2539.96 2932.58)
(-14497.4 23.0395 2932.53)
(-14281 -2495.02 2932.56)
(-13630.7 -4937.04 2932.6)
(-12566.5 -7228.76 2932.55)
(-11120.2 -9301.15 2932.62)
(-9336.06 -11090.9 2932.6)
(-7268.48 -12543.6 2932.57)
(-4979.93 -13615.2 2932.55)
(-2539.96 -14273.1 2932.58)
(-23.0405 -14497.4 2932.53)
(2495.02 -14281 2932.56)
(4937.04 -13630.7 2932.6)
(7228.76 -12566.5 2932.55)
(9301.15 -11120.2 2932.62)
(11090.9 -9336.06 2932.6)
(12543.6 -7268.48 2932.56)
(13615.2 -4979.93 2932.55)
(14273.1 -2539.96 2932.58)
(14497.4 -23.0402 2932.53)
(14281 2495.02 2932.56)
(13630.7 4937.04 2932.6)
(12566.5 7228.76 2932.55)
(11120.2 9301.15 2932.62)
(9336.06 11090.9 2932.6)
(7268.48 12543.6 2932.57)
(4979.93 13615.2 2932.55)
(2539.96 14273.1 2932.58)
(23.0402 14497.4 2932.53)
(-2495.02 14281 2932.56)
(-4937.04 13630.7 2932.6)
(-8380.91 9566.74 7773.31)
(-9914.96 7965.9 7773.35)
(-11147.6 6123.32 7773.27)
(-12041.5 4094.5 7773.34)
(-12569.6 1941.38 7773.26)
(-12715.8 -270.892 7773.27)
(-12475.6 -2474.68 7773.2)