/*--------------------------------*- C++ -*----------------------------------*\
| =========                 |                                                 |
| \\      /  F ield         | OpenFOAM: The Open Source CFD Toolbox           |
|  \\    /   O peration     | Version:  2312                                  |
|   \\  /    A nd           | Website:  www.openfoam.com                      |
|    \\/     M anipulation  |                                                 |
\*---------------------------------------------------------------------------*/
FoamFile
{
    version     2.0;
    format      ascii;
    arch        "LSB;label=32;scalar=64";
    class       volVectorField;
    location    "0.6";
    object      U;
}
// * * * * * * * * * * * * * * * * * * * * * * * * * * * * * * * * * * * * * //

dimensions      [0 1 -1 0 0 0 0];

internalField   nonuniform List<vector> 
1620
(
(-0.000111319 -0.000179084 -0.000170404)
(-7.85303e-05 -0.000195694 -0.000170404)
(-4.33558e-05 -0.000206358 -0.000170404)
(-6.86347e-06 -0.000210751 -0.000170403)
(2.98375e-05 -0.00020874 -0.000170404)
(6.56314e-05 -0.000200388 -0.000170404)
(9.94308e-05 -0.000185947 -0.000170403)
(0.000130209 -0.000165855 -0.000170403)
(0.000157033 -0.000140725 -0.000170404)
(0.000179084 -0.000111319 -0.000170404)
(0.000195694 -7.85301e-05 -0.000170404)
(0.000206358 -4.33556e-05 -0.000170404)
(0.000210751 -6.86326e-06 -0.000170403)
(0.00020874 2.98377e-05 -0.000170404)
(0.000200388 6.56316e-05 -0.000170404)
(0.000185947 9.9431e-05 -0.000170403)
(0.000165855 0.00013021 -0.000170403)
(0.000140725 0.000157033 -0.000170404)
(0.000111319 0.000179084 -0.000170404)
(7.85301e-05 0.000195694 -0.000170404)
(4.33556e-05 0.000206358 -0.000170404)
(6.86328e-06 0.000210751 -0.000170403)
(-2.98377e-05 0.00020874 -0.000170404)
(-6.56316e-05 0.000200388 -0.000170404)
(-9.9431e-05 0.000185947 -0.000170403)
(-0.00013021 0.000165856 -0.000170403)
(-0.000157033 0.000140726 -0.000170404)
(-0.000179084 0.000111319 -0.000170404)
(-0.000195694 7.85303e-05 -0.000170404)
(-0.000206358 4.33558e-05 -0.000170404)
(-0.000210751 6.86349e-06 -0.000170404)
(-0.00020874 -2.98375e-05 -0.000170404)
(-0.000200388 -6.56314e-05 -0.000170404)
(-0.000185947 -9.94308e-05 -0.000170403)
(-0.000165856 -0.000130209 -0.000170403)
(-0.000140726 -0.000157033 -0.000170404)
(-3.32436e-05 -2.66689e-05 -0.000116158)
(-2.81073e-05 -3.20365e-05 -0.000116159)
(-2.21173e-05 -3.64306e-05 -0.000116158)
(-1.54553e-05 -3.97177e-05 -0.000116158)
(-8.32383e-06 -4.17979e-05 -0.000116158)
(-9.39456e-07 -4.2608e-05 -0.000116158)
(6.47351e-06 -4.21238e-05 -0.000116158)
(1.36898e-05 -4.03596e-05 -0.000116158)
(2.04907e-05 -3.73693e-05 -0.000116158)
(2.66688e-05 -3.32434e-05 -0.000116158)
(3.20365e-05 -2.81072e-05 -0.000116158)
(3.64305e-05 -2.21171e-05 -0.000116158)
(3.97176e-05 -1.54551e-05 -0.000116158)
(4.17978e-05 -8.32368e-06 -0.000116158)
(4.2608e-05 -9.39306e-07 -0.000116158)
(4.21238e-05 6.47365e-06 -0.000116158)
(4.03596e-05 1.369e-05 -0.000116158)
(3.73693e-05 2.04908e-05 -0.000116158)
(3.32434e-05 2.6669e-05 -0.000116158)
(2.81071e-05 3.20366e-05 -0.000116159)
(2.21171e-05 3.64307e-05 -0.000116158)
(1.54551e-05 3.97178e-05 -0.000116158)
(8.32365e-06 4.1798e-05 -0.000116158)
(9.39282e-07 4.26081e-05 -0.000116158)
(-6.47368e-06 4.2124e-05 -0.000116158)
(-1.369e-05 4.03597e-05 -0.000116158)
(-2.04909e-05 3.73695e-05 -0.000116158)
(-2.6669e-05 3.32435e-05 -0.000116158)
(-3.20367e-05 2.81073e-05 -0.000116159)
(-3.64307e-05 2.21172e-05 -0.000116158)
(-3.97178e-05 1.54552e-05 -0.000116158)
(-4.1798e-05 8.32381e-06 -0.000116158)
(-4.26082e-05 9.39438e-07 -0.000116158)
(-4.2124e-05 -6.47353e-06 -0.000116158)
(-4.03598e-05 -1.36898e-05 -0.000116158)
(-3.73695e-05 -2.04907e-05 -0.000116158)
(1.67776e-05 0.000135461 -7.76539e-05)
(-6.99969e-06 0.000136317 -7.76539e-05)
(-3.05646e-05 0.000133031 -7.76541e-05)
(-5.32008e-05 0.000125702 -7.76539e-05)
(-7.42207e-05 0.000114554 -7.7654e-05)
(-9.29856e-05 9.99258e-05 -7.76538e-05)
(-0.000108925 8.22606e-05 -7.7654e-05)
(-0.000121554 6.20963e-05 -7.76541e-05)
(-0.00013049 4.00453e-05 -7.76539e-05)
(-0.000135462 1.67777e-05 -7.76538e-05)
(-0.000136317 -6.99958e-06 -7.76538e-05)
(-0.000133031 -3.05645e-05 -7.7654e-05)
(-0.000125702 -5.32007e-05 -7.76538e-05)
(-0.000114554 -7.42206e-05 -7.76539e-05)
(-9.99258e-05 -9.29855e-05 -7.76538e-05)
(-8.22607e-05 -0.000108925 -7.7654e-05)
(-6.20964e-05 -0.000121554 -7.76541e-05)
(-4.00454e-05 -0.00013049 -7.76539e-05)
(-1.67778e-05 -0.000135461 -7.76538e-05)
(6.99951e-06 -0.000136317 -7.76538e-05)
(3.05645e-05 -0.00013303 -7.76541e-05)
(5.32006e-05 -0.000125702 -7.76539e-05)
(7.42205e-05 -0.000114554 -7.7654e-05)
(9.29854e-05 -9.99257e-05 -7.76539e-05)
(0.000108925 -8.22606e-05 -7.76541e-05)
(0.000121554 -6.20963e-05 -7.76542e-05)
(0.00013049 -4.00453e-05 -7.7654e-05)
(0.000135461 -1.67777e-05 -7.76539e-05)
(0.000136317 6.99962e-06 -7.76539e-05)
(0.00013303 3.05646e-05 -7.76542e-05)
(0.000125702 5.32007e-05 -7.7654e-05)
(0.000114554 7.42206e-05 -7.7654e-05)
(9.99257e-05 9.29856e-05 -7.76539e-05)
(8.22605e-05 0.000108925 -7.76541e-05)
(6.20962e-05 0.000121554 -7.76542e-05)
(4.00452e-05 0.00013049 -7.7654e-05)
(-0.000160979 -0.000376554 -0.000457094)
(-9.31452e-05 -0.000398787 -0.000457094)
(-2.24822e-05 -0.000408903 -0.000457094)
(4.88638e-05 -0.000406593 -0.000457092)
(0.000118725 -0.00039193 -0.000457091)
(0.00018498 -0.000365359 -0.000457091)
(0.000245614 -0.000327687 -0.000457092)
(0.000298785 -0.000280058 -0.000457092)
(0.000342879 -0.00022392 -0.000457093)
(0.000376553 -0.000160978 -0.000457093)
(0.000398787 -9.31446e-05 -0.000457094)
(0.000408903 -2.24816e-05 -0.000457094)
(0.000406593 4.88644e-05 -0.000457091)
(0.00039193 0.000118726 -0.00045709)
(0.000365359 0.000184981 -0.000457091)
(0.000327687 0.000245614 -0.000457092)
(0.000280058 0.000298786 -0.000457092)
(0.00022392 0.000342879 -0.000457093)
(0.000160978 0.000376554 -0.000457093)
(9.31445e-05 0.000398788 -0.000457094)
(2.24816e-05 0.000408904 -0.000457094)
(-4.88644e-05 0.000406594 -0.000457092)
(-0.000118726 0.00039193 -0.000457091)
(-0.000184981 0.000365359 -0.000457092)
(-0.000245614 0.000327687 -0.000457092)
(-0.000298786 0.000280058 -0.000457092)
(-0.000342879 0.000223921 -0.000457093)
(-0.000376554 0.000160979 -0.000457094)
(-0.000398788 9.31451e-05 -0.000457095)
(-0.000408904 2.24822e-05 -0.000457094)
(-0.000406594 -4.88638e-05 -0.000457092)
(-0.00039193 -0.000118725 -0.000457091)
(-0.000365359 -0.00018498 -0.000457092)
(-0.000327687 -0.000245614 -0.000457092)
(-0.000280059 -0.000298785 -0.000457092)
(-0.000223921 -0.000342879 -0.000457093)
(-0.0001054 -6.16437e-05 -0.000333168)
(-9.30936e-05 -7.90103e-05 -0.000333168)
(-7.79592e-05 -9.39754e-05 -0.000333168)
(-6.04566e-05 -0.000106084 -0.000333167)
(-4.11174e-05 -0.00011497 -0.000333166)
(-2.05284e-05 -0.000120364 -0.000333167)
(6.84448e-07 -0.0001221 -0.000333167)
(2.18764e-05 -0.000120126 -0.000333167)
(4.24042e-05 -0.000114502 -0.000333167)
(6.16436e-05 -0.000105399 -0.000333167)
(7.90102e-05 -9.30931e-05 -0.000333168)
(9.39752e-05 -7.79587e-05 -0.000333168)
(0.000106084 -6.04561e-05 -0.000333167)
(0.00011497 -4.1117e-05 -0.000333166)
(0.000120363 -2.05279e-05 -0.000333167)
(0.0001221 6.84896e-07 -0.000333167)
(0.000120126 2.18769e-05 -0.000333167)
(0.000114502 4.24047e-05 -0.000333167)
(0.000105399 6.1644e-05 -0.000333168)
(9.3093e-05 7.90107e-05 -0.000333168)
(7.79586e-05 9.39757e-05 -0.000333168)
(6.0456e-05 0.000106085 -0.000333167)
(4.11169e-05 0.00011497 -0.000333167)
(2.05279e-05 0.000120364 -0.000333167)
(-6.8498e-07 0.0001221 -0.000333167)
(-2.1877e-05 0.000120126 -0.000333167)
(-4.24048e-05 0.000114503 -0.000333168)
(-6.16441e-05 0.000105399 -0.000333168)
(-7.90108e-05 9.30935e-05 -0.000333168)
(-9.39758e-05 7.79591e-05 -0.000333168)
(-0.000106085 6.04565e-05 -0.000333167)
(-0.00011497 4.11174e-05 -0.000333167)
(-0.000120364 2.05283e-05 -0.000333167)
(-0.0001221 -6.84516e-07 -0.000333167)
(-0.000120126 -2.18765e-05 -0.000333167)
(-0.000114503 -4.24043e-05 -0.000333167)
(-9.05017e-05 0.000256378 -0.000212934)
(-0.000133646 0.000236768 -0.000212933)
(-0.000172729 0.000209963 -0.000212933)
(-0.000206565 0.00017678 -0.000212933)
(-0.000234124 0.000138225 -0.000212933)
(-0.00025457 9.54693e-05 -0.000212933)
(-0.000267281 4.98127e-05 -0.000212933)
(-0.000271871 2.6433e-06 -0.000212933)
(-0.000268199 -4.46068e-05 -0.000212933)
(-0.000256378 -9.05013e-05 -0.000212933)
(-0.000236768 -0.000133645 -0.000212933)
(-0.000209963 -0.000172728 -0.000212933)
(-0.00017678 -0.000206564 -0.000212933)
(-0.000138225 -0.000234124 -0.000212933)
(-9.54695e-05 -0.00025457 -0.000212933)
(-4.98129e-05 -0.000267281 -0.000212933)
(-2.64344e-06 -0.000271871 -0.000212933)
(4.46067e-05 -0.000268199 -0.000212934)
(9.05011e-05 -0.000256378 -0.000212934)
(0.000133645 -0.000236768 -0.000212933)
(0.000172728 -0.000209963 -0.000212933)
(0.000206564 -0.00017678 -0.000212933)
(0.000234124 -0.000138224 -0.000212933)
(0.00025457 -9.54691e-05 -0.000212933)
(0.000267281 -4.98125e-05 -0.000212934)
(0.00027187 -2.64304e-06 -0.000212934)
(0.000268199 4.46071e-05 -0.000212934)
(0.000256378 9.05015e-05 -0.000212934)
(0.000236767 0.000133646 -0.000212933)
(0.000209963 0.000172729 -0.000212934)
(0.00017678 0.000206564 -0.000212934)
(0.000138224 0.000234124 -0.000212934)
(9.54689e-05 0.00025457 -0.000212933)
(4.98123e-05 0.000267281 -0.000212934)
(2.64288e-06 0.000271871 -0.000212934)
(-4.46072e-05 0.000268199 -0.000212934)
(-0.000184407 -0.000482772 -0.000764397)
(-9.77734e-05 -0.000507461 -0.000764397)
(-8.16888e-06 -0.000516729 -0.000764397)
(8.16834e-05 -0.000510295 -0.000764395)
(0.000169053 -0.000488357 -0.000764393)
(0.000251288 -0.000451582 -0.000764393)
(0.000325887 -0.000401085 -0.000764393)
(0.000390585 -0.000338402 -0.000764394)
(0.000443416 -0.000265437 -0.000764396)
(0.000482772 -0.000184406 -0.000764397)
(0.00050746 -9.77725e-05 -0.000764397)
(0.000516729 -8.16798e-06 -0.000764396)
(0.000510295 8.16843e-05 -0.000764395)
(0.000488357 0.000169054 -0.000764393)
(0.000451582 0.000251289 -0.000764393)
(0.000401085 0.000325888 -0.000764393)
(0.000338402 0.000390586 -0.000764394)
(0.000265437 0.000443416 -0.000764396)
(0.000184406 0.000482773 -0.000764397)
(9.77723e-05 0.000507461 -0.000764397)
(8.16785e-06 0.000516729 -0.000764397)
(-8.16844e-05 0.000510296 -0.000764395)
(-0.000169054 0.000488358 -0.000764394)
(-0.000251289 0.000451583 -0.000764393)
(-0.000325888 0.000401086 -0.000764394)
(-0.000390586 0.000338403 -0.000764395)
(-0.000443417 0.000265438 -0.000764397)
(-0.000482773 0.000184407 -0.000764397)
(-0.000507461 9.77732e-05 -0.000764397)
(-0.00051673 8.16876e-06 -0.000764397)
(-0.000510296 -8.16835e-05 -0.000764395)
(-0.000488358 -0.000169054 -0.000764394)
(-0.000451583 -0.000251288 -0.000764393)
(-0.000401086 -0.000325887 -0.000764394)
(-0.000338403 -0.000390585 -0.000764395)
(-0.000265438 -0.000443416 -0.000764396)
(-0.000176696 -6.20372e-05 -0.000587812)
(-0.000163239 -9.17779e-05 -0.000587812)
(-0.000144822 -0.000118729 -0.000587812)
(-0.000122005 -0.000142073 -0.000587811)
(-9.54812e-05 -0.000161099 -0.00058781)
(-6.60556e-05 -0.000175232 -0.00058781)
(-3.46233e-05 -0.000184041 -0.00058781)
(-2.13887e-06 -0.000187257 -0.00058781)
(3.04112e-05 -0.000184784 -0.000587811)
(6.20371e-05 -0.000176696 -0.000587811)
(9.17778e-05 -0.000163238 -0.000587811)
(0.000118729 -0.000144821 -0.000587811)
(0.000142072 -0.000122004 -0.000587811)
(0.000161099 -9.54805e-05 -0.00058781)
(0.000175232 -6.60548e-05 -0.00058781)
(0.000184041 -3.46225e-05 -0.00058781)
(0.000187257 -2.13813e-06 -0.00058781)
(0.000184784 3.0412e-05 -0.000587811)
(0.000176695 6.20378e-05 -0.000587811)
(0.000163238 9.17785e-05 -0.000587812)
(0.000144821 0.00011873 -0.000587812)
(0.000122004 0.000142073 -0.000587811)
(9.54803e-05 0.0001611 -0.00058781)
(6.60547e-05 0.000175233 -0.00058781)
(3.46224e-05 0.000184041 -0.00058781)
(2.13798e-06 0.000187258 -0.000587811)
(-3.04121e-05 0.000184785 -0.000587811)
(-6.2038e-05 0.000176696 -0.000587812)
(-9.17787e-05 0.000163239 -0.000587812)
(-0.00011873 0.000144822 -0.000587812)
(-0.000142073 0.000122004 -0.000587811)
(-0.0001611 9.54811e-05 -0.00058781)
(-0.000175233 6.60555e-05 -0.00058781)
(-0.000184042 3.46231e-05 -0.00058781)
(-0.000187258 2.13875e-06 -0.000587811)
(-0.000184785 -3.04114e-05 -0.000587811)
(-0.000222564 0.000345968 -0.000417746)
(-0.000279259 0.000302064 -0.000417746)
(-0.000327468 0.000248982 -0.000417746)
(-0.000365729 0.000188336 -0.000417746)
(-0.000392877 0.000121967 -0.000417746)
(-0.000408088 5.1891e-05 -0.000417746)
(-0.000410899 -1.97614e-05 -0.000417746)
(-0.000401225 -9.08132e-05 -0.000417746)
(-0.00037936 -0.000159106 -0.000417746)
(-0.000345968 -0.000222563 -0.000417746)
(-0.000302064 -0.000279258 -0.000417745)
(-0.000248983 -0.000327467 -0.000417746)
(-0.000188336 -0.000365728 -0.000417746)
(-0.000121967 -0.000392876 -0.000417746)
(-5.18912e-05 -0.000408087 -0.000417746)
(1.97612e-05 -0.000410898 -0.000417746)
(9.0813e-05 -0.000401224 -0.000417746)
(0.000159106 -0.000379359 -0.000417746)
(0.000222563 -0.000345967 -0.000417746)
(0.000279258 -0.000302063 -0.000417746)
(0.000327467 -0.000248982 -0.000417746)
(0.000365728 -0.000188336 -0.000417746)
(0.000392876 -0.000121966 -0.000417746)
(0.000408087 -5.18905e-05 -0.000417746)
(0.000410898 1.97619e-05 -0.000417746)
(0.000401224 9.08138e-05 -0.000417746)
(0.000379359 0.000159106 -0.000417746)
(0.000345967 0.000222564 -0.000417746)
(0.000302063 0.000279258 -0.000417746)
(0.000248982 0.000327468 -0.000417746)
(0.000188335 0.000365728 -0.000417747)
(0.000121966 0.000392877 -0.000417747)
(5.18903e-05 0.000408088 -0.000417746)
(-1.97621e-05 0.000410899 -0.000417746)
(-9.0814e-05 0.000401225 -0.000417746)
(-0.000159107 0.00037936 -0.000417746)
(-0.000187416 -0.000461298 -0.00104576)
(-0.000104465 -0.000486835 -0.00104576)
(-1.83404e-05 -0.000497577 -0.00104576)
(6.83413e-05 -0.000493202 -0.00104576)
(0.000152947 -0.000473841 -0.00104576)
(0.000232904 -0.000440083 -0.00104576)
(0.000305786 -0.000392954 -0.00104575)
(0.000369378 -0.000333885 -0.00104576)
(0.000421745 -0.00026467 -0.00104576)
(0.000461298 -0.000187414 -0.00104576)
(0.000486834 -0.000104464 -0.00104576)
(0.000497577 -1.83392e-05 -0.00104576)
(0.000493201 6.83424e-05 -0.00104576)
(0.000473841 0.000152948 -0.00104576)
(0.000440083 0.000232905 -0.00104576)
(0.000392954 0.000305787 -0.00104575)
(0.000333884 0.000369379 -0.00104576)
(0.00026467 0.000421746 -0.00104576)
(0.000187414 0.000461299 -0.00104576)
(0.000104464 0.000486835 -0.00104576)
(1.83391e-05 0.000497578 -0.00104576)
(-6.83426e-05 0.000493203 -0.00104576)
(-0.000152948 0.000473842 -0.00104576)
(-0.000232906 0.000440084 -0.00104576)
(-0.000305787 0.000392955 -0.00104576)
(-0.000369379 0.000333886 -0.00104576)
(-0.000421747 0.000264671 -0.00104576)
(-0.000461299 0.000187415 -0.00104576)
(-0.000486836 0.000104465 -0.00104576)
(-0.000497579 1.83403e-05 -0.00104576)
(-0.000493203 -6.83414e-05 -0.00104576)
(-0.000473842 -0.000152947 -0.00104576)
(-0.000440084 -0.000232905 -0.00104576)
(-0.000392955 -0.000305786 -0.00104576)
(-0.000333886 -0.000369378 -0.00104576)
(-0.000264672 -0.000421745 -0.00104576)
(-0.000237304 -1.2613e-05 -0.000842781)
(-0.000231508 -5.36286e-05 -0.000842781)
(-0.000218678 -9.3014e-05 -0.000842781)
(-0.000199204 -0.000129573 -0.00084278)
(-0.000173677 -0.000162196 -0.00084278)
(-0.000142874 -0.000189891 -0.000842779)
(-0.000107729 -0.000211816 -0.000842779)
(-6.93107e-05 -0.000227305 -0.000842779)
(-2.87864e-05 -0.000235887 -0.00084278)
(1.26128e-05 -0.000237302 -0.00084278)
(5.36284e-05 -0.000231507 -0.00084278)
(9.30137e-05 -0.000218677 -0.00084278)
(0.000129573 -0.000199203 -0.00084278)
(0.000162196 -0.000173676 -0.00084278)
(0.00018989 -0.000142873 -0.000842779)
(0.000211815 -0.000107728 -0.000842779)
(0.000227305 -6.93097e-05 -0.000842779)
(0.000235887 -2.87853e-05 -0.00084278)
(0.000237302 1.26138e-05 -0.000842781)
(0.000231507 5.36294e-05 -0.000842781)
(0.000218677 9.30147e-05 -0.000842781)
(0.000199203 0.000129574 -0.00084278)
(0.000173676 0.000162197 -0.00084278)
(0.000142873 0.000189891 -0.00084278)
(0.000107728 0.000211817 -0.00084278)
(6.93095e-05 0.000227306 -0.00084278)
(2.87851e-05 0.000235888 -0.000842781)
(-1.2614e-05 0.000237303 -0.000842781)
(-5.36297e-05 0.000231508 -0.000842781)
(-9.3015e-05 0.000218678 -0.000842781)
(-0.000129574 0.000199204 -0.000842781)
(-0.000162197 0.000173677 -0.00084278)
(-0.000189892 0.000142874 -0.00084278)
(-0.000211817 0.000107729 -0.00084278)
(-0.000227306 6.93106e-05 -0.00084278)
(-0.000235889 2.87862e-05 -0.00084278)
(-0.000347415 0.000402621 -0.000653435)
(-0.000412051 0.000336177 -0.000653435)
(-0.000464167 0.000259518 -0.000653435)
(-0.00050218 0.000174974 -0.000653434)
(-0.000524934 8.51132e-05 -0.000653434)
(-0.00053174 -7.3338e-06 -0.000653434)
(-0.000522388 -9.95586e-05 -0.000653435)
(-0.000497163 -0.000188758 -0.000653435)
(-0.000456833 -0.000272222 -0.000653434)
(-0.000402622 -0.000347414 -0.000653434)
(-0.000336177 -0.00041205 -0.000653434)
(-0.000259518 -0.000464166 -0.000653434)
(-0.000174974 -0.000502179 -0.000653434)
(-8.51135e-05 -0.000524933 -0.000653434)
(7.33352e-06 -0.000531739 -0.000653434)
(9.95583e-05 -0.000522387 -0.000653435)
(0.000188758 -0.000497162 -0.000653435)
(0.000272222 -0.000456832 -0.000653435)
(0.000347414 -0.000402621 -0.000653434)
(0.00041205 -0.000336176 -0.000653435)
(0.000464166 -0.000259517 -0.000653435)
(0.000502179 -0.000174973 -0.000653435)
(0.000524933 -8.51125e-05 -0.000653435)
(0.000531739 7.33454e-06 -0.000653435)
(0.000522387 9.95594e-05 -0.000653435)
(0.000497162 0.000188759 -0.000653435)
(0.000456832 0.000272223 -0.000653435)
(0.00040262 0.000347415 -0.000653435)
(0.000336176 0.000412051 -0.000653435)
(0.000259517 0.000464167 -0.000653435)
(0.000174973 0.00050218 -0.000653435)
(8.51123e-05 0.000524934 -0.000653435)
(-7.33479e-06 0.00053174 -0.000653435)
(-9.95596e-05 0.000522388 -0.000653435)
(-0.000188759 0.000497163 -0.000653435)
(-0.000272223 0.000456833 -0.000653435)
(-0.000188207 -0.000317567 -0.00128621)
(-0.000130203 -0.000345424 -0.00128621)
(-6.82433e-05 -0.000362785 -0.00128621)
(-4.20941e-06 -0.000369123 -0.00128621)
(5.99527e-05 -0.000364246 -0.00128621)
(0.000122293 -0.000348301 -0.00128621)
(0.000180917 -0.000321774 -0.00128621)
(0.000234045 -0.00028547 -0.00128621)
(0.00028006 -0.000240491 -0.00128621)
(0.000317566 -0.000188206 -0.00128621)
(0.000345424 -0.000130202 -0.00128621)
(0.000362784 -6.82419e-05 -0.00128621)
(0.000369122 -4.20798e-06 -0.00128621)
(0.000364245 5.99541e-05 -0.00128621)
(0.000348301 0.000122294 -0.00128621)
(0.000321774 0.000180918 -0.00128621)
(0.000285469 0.000234046 -0.00128621)
(0.000240491 0.000280062 -0.00128621)
(0.000188205 0.000317568 -0.00128621)
(0.000130202 0.000345425 -0.00128621)
(6.82416e-05 0.000362786 -0.00128621)
(4.20774e-06 0.000369124 -0.00128621)
(-5.99543e-05 0.000364247 -0.00128621)
(-0.000122295 0.000348302 -0.00128621)
(-0.000180919 0.000321775 -0.00128621)
(-0.000234046 0.000285471 -0.00128621)
(-0.000280062 0.000240493 -0.00128621)
(-0.000317568 0.000188207 -0.00128621)
(-0.000345426 0.000130203 -0.00128621)
(-0.000362786 6.82431e-05 -0.00128621)
(-0.000369124 4.20918e-06 -0.00128621)
(-0.000364247 -5.99529e-05 -0.00128621)
(-0.000348303 -0.000122293 -0.00128621)
(-0.000321776 -0.000180917 -0.00128621)
(-0.000285471 -0.000234045 -0.00128621)
(-0.000240493 -0.000280061 -0.00128621)
(-0.000286918 9.86754e-05 -0.00107646)
(-0.000299694 4.73534e-05 -0.00107646)
(-0.000303364 -5.40583e-06 -0.00107646)
(-0.000297816 -5.80015e-05 -0.00107646)
(-0.00028322 -0.000108835 -0.00107646)
(-0.000260017 -0.000156363 -0.00107646)
(-0.000228915 -0.000199139 -0.00107646)
(-0.000190856 -0.000235864 -0.00107646)
(-0.000146999 -0.000265423 -0.00107646)
(-9.86757e-05 -0.000286917 -0.00107646)
(-4.73537e-05 -0.000299692 -0.00107646)
(5.40549e-06 -0.000303362 -0.00107646)
(5.80012e-05 -0.000297815 -0.00107646)
(0.000108835 -0.000283218 -0.00107646)
(0.000156362 -0.000260016 -0.00107646)
(0.000199138 -0.000228913 -0.00107646)
(0.000235864 -0.000190854 -0.00107646)
(0.000265423 -0.000146998 -0.00107646)
(0.000286916 -9.86744e-05 -0.00107646)
(0.000299692 -4.73524e-05 -0.00107646)
(0.000303362 5.40684e-06 -0.00107646)
(0.000297815 5.80026e-05 -0.00107646)
(0.000283218 0.000108836 -0.00107646)
(0.000260016 0.000156364 -0.00107646)
(0.000228913 0.00019914 -0.00107646)
(0.000190854 0.000235865 -0.00107646)
(0.000146998 0.000265424 -0.00107646)
(9.86741e-05 0.000286918 -0.00107646)
(4.73521e-05 0.000299693 -0.00107646)
(-5.40719e-06 0.000303364 -0.00107646)
(-5.80029e-05 0.000297816 -0.00107646)
(-0.000108837 0.000283219 -0.00107646)
(-0.000156364 0.000260017 -0.00107646)
(-0.00019914 0.000228914 -0.00107646)
(-0.000235866 0.000190855 -0.00107646)
(-0.000265424 0.000146999 -0.00107646)
(-0.000445325 0.000461989 -0.000888762)
(-0.000518783 0.000377641 -0.000888762)
(-0.000576478 0.000281819 -0.000888762)
(-0.000616657 0.000177433 -0.000888761)
(-0.0006381 6.76566e-05 -0.000888762)
(-0.000640154 -4.41762e-05 -0.000888761)
(-0.000622757 -0.000154667 -0.000888762)
(-0.000586438 -0.000260458 -0.000888762)
(-0.000532301 -0.000358335 -0.000888761)
(-0.00046199 -0.000445324 -0.000888761)
(-0.000377641 -0.000518782 -0.000888761)
(-0.000281819 -0.000576477 -0.000888761)
(-0.000177434 -0.000616656 -0.000888761)
(-6.76569e-05 -0.000638098 -0.000888761)
(4.41759e-05 -0.000640152 -0.000888761)
(0.000154667 -0.000622756 -0.000888762)
(0.000260458 -0.000586436 -0.000888762)
(0.000358335 -0.0005323 -0.000888762)
(0.000445324 -0.000461988 -0.000888762)
(0.000518782 -0.00037764 -0.000888762)
(0.000576477 -0.000281818 -0.000888762)
(0.000616656 -0.000177432 -0.000888762)
(0.000638098 -6.76556e-05 -0.000888762)
(0.000640152 4.41772e-05 -0.000888762)
(0.000622755 0.000154668 -0.000888762)
(0.000586436 0.000260459 -0.000888762)
(0.000532299 0.000358336 -0.000888762)
(0.000461988 0.000445325 -0.000888762)
(0.00037764 0.000518783 -0.000888762)
(0.000281818 0.000576478 -0.000888762)
(0.000177432 0.000616657 -0.000888762)
(6.76553e-05 0.000638099 -0.000888762)
(-4.41775e-05 0.000640153 -0.000888762)
(-0.000154668 0.000622757 -0.000888762)
(-0.000260459 0.000586437 -0.000888762)
(-0.000358336 0.000532301 -0.000888762)
(-0.000206452 -8.24763e-05 -0.00149916)
(-0.000188994 -0.000117073 -0.00149916)
(-0.000165793 -0.000148112 -0.00149916)
(-0.000137555 -0.000174651 -0.00149916)
(-0.000105136 -0.000195884 -0.00149916)
(-6.95234e-05 -0.000211164 -0.00149916)
(-3.17986e-05 -0.000220029 -0.00149916)
(6.89225e-06 -0.000222208 -0.00149916)
(4.53732e-05 -0.000217636 -0.00149916)
(8.24759e-05 -0.00020645 -0.00149916)
(0.000117073 -0.000188992 -0.00149916)
(0.000148112 -0.000165791 -0.00149916)
(0.000174651 -0.000137553 -0.00149916)
(0.000195883 -0.000105135 -0.00149916)
(0.000211164 -6.95218e-05 -0.00149916)
(0.000220028 -3.1797e-05 -0.00149916)
(0.000222207 6.89384e-06 -0.00149916)
(0.000217635 4.53748e-05 -0.00149916)
(0.00020645 8.24775e-05 -0.00149916)
(0.000188992 0.000117075 -0.00149916)
(0.000165791 0.000148114 -0.00149916)
(0.000137553 0.000174653 -0.00149916)
(0.000105134 0.000195885 -0.00149916)
(6.95215e-05 0.000211165 -0.00149916)
(3.17967e-05 0.00022003 -0.00149916)
(-6.8942e-06 0.000222209 -0.00149916)
(-4.53752e-05 0.000217637 -0.00149916)
(-8.2478e-05 0.000206452 -0.00149916)
(-0.000117075 0.000188993 -0.00149916)
(-0.000148114 0.000165793 -0.00149916)
(-0.000174653 0.000137555 -0.00149916)
(-0.000195886 0.000105136 -0.00149916)
(-0.000211166 6.95231e-05 -0.00149916)
(-0.00022003 3.17983e-05 -0.00149916)
(-0.00022221 -6.89258e-06 -0.00149916)
(-0.000217637 -4.53736e-05 -0.00149916)
(-0.000335003 0.00027203 -0.00128773)
(-0.000377151 0.000209725 -0.00128773)
(-0.00040784 0.000141048 -0.00128773)
(-0.000426136 6.80849e-05 -0.00128773)
(-0.000431485 -6.94683e-06 -0.00128773)
(-0.000423723 -8.17677e-05 -0.00128773)
(-0.000403086 -0.000154104 -0.00128773)
(-0.000370202 -0.000221758 -0.00128773)
(-0.00032607 -0.000282675 -0.00128773)
(-0.00027203 -0.000335002 -0.00128773)
(-0.000209725 -0.00037715 -0.00128773)
(-0.000141048 -0.000407838 -0.00128773)
(-6.80853e-05 -0.000426135 -0.00128773)
(6.94642e-06 -0.000431483 -0.00128773)
(8.17673e-05 -0.000423721 -0.00128773)
(0.000154104 -0.000403084 -0.00128773)
(0.000221758 -0.0003702 -0.00128773)
(0.000282674 -0.000326068 -0.00128773)
(0.000335001 -0.000272029 -0.00128773)
(0.000377149 -0.000209723 -0.00128773)
(0.000407838 -0.000141046 -0.00128773)
(0.000426134 -6.80836e-05 -0.00128773)
(0.000431483 6.94813e-06 -0.00128773)
(0.000423721 8.17691e-05 -0.00128773)
(0.000403084 0.000154105 -0.00128773)
(0.0003702 0.00022176 -0.00128773)
(0.000326068 0.000282676 -0.00128773)
(0.000272028 0.000335003 -0.00128773)
(0.000209723 0.000377151 -0.00128773)
(0.000141046 0.000407839 -0.00128773)
(6.80832e-05 0.000426136 -0.00128773)
(-6.94852e-06 0.000431485 -0.00128773)
(-8.17694e-05 0.000423722 -0.00128773)
(-0.000154106 0.000403085 -0.00128773)
(-0.00022176 0.000370201 -0.00128773)
(-0.000282676 0.00032607 -0.00128773)
(-0.000518566 0.000557859 -0.00110647)
(-0.000607559 0.000459336 -0.00110647)
(-0.000678091 0.000346857 -0.00110647)
(-0.000728021 0.000223839 -0.00110647)
(-0.00075583 9.4019e-05 -0.00110647)
(-0.000760673 -3.86578e-05 -0.00110647)
(-0.000742403 -0.00017016 -0.00110647)
(-0.000701575 -0.000296492 -0.00110647)
(-0.000639432 -0.000413815 -0.00110647)
(-0.000557859 -0.000518564 -0.00110647)
(-0.000459336 -0.000607557 -0.00110647)
(-0.000346857 -0.00067809 -0.00110647)
(-0.000223839 -0.000728019 -0.00110647)
(-9.40193e-05 -0.000755828 -0.00110647)
(3.86575e-05 -0.000760671 -0.00110647)
(0.000170159 -0.000742401 -0.00110647)
(0.000296491 -0.000701574 -0.00110647)
(0.000413814 -0.00063943 -0.00110647)
(0.000518564 -0.000557857 -0.00110647)
(0.000607557 -0.000459335 -0.00110647)
(0.00067809 -0.000346856 -0.00110647)
(0.000728019 -0.000223838 -0.00110647)
(0.000755828 -9.40177e-05 -0.00110647)
(0.000760671 3.86591e-05 -0.00110647)
(0.000742401 0.000170161 -0.00110647)
(0.000701573 0.000296493 -0.00110647)
(0.00063943 0.000413816 -0.00110647)
(0.000557857 0.000518565 -0.00110647)
(0.000459334 0.000607558 -0.00110647)
(0.000346855 0.000678091 -0.00110647)
(0.000223837 0.000728021 -0.00110647)
(9.40173e-05 0.000755829 -0.00110647)
(-3.86595e-05 0.000760672 -0.00110647)
(-0.000170161 0.000742402 -0.00110647)
(-0.000296493 0.000701575 -0.00110647)
(-0.000413816 0.000639431 -0.00110647)
(-0.000263206 0.000203249 -0.00170854)
(-0.000294501 0.000154456 -0.00170854)
(-0.000316848 0.00010097 -0.00170854)
(-0.000329569 4.44169e-05 -0.00170854)
(-0.000332274 -1.34868e-05 -0.00170854)
(-0.000324884 -7.09796e-05 -0.00170854)
(-0.000307622 -0.000126316 -0.00170854)
(-0.000281013 -0.000177815 -0.00170854)
(-0.000245867 -0.000223912 -0.00170854)
(-0.000203249 -0.000263204 -0.00170854)
(-0.000154456 -0.000294499 -0.00170854)
(-0.000100971 -0.000316847 -0.00170854)
(-4.44174e-05 -0.000329567 -0.00170854)
(1.34863e-05 -0.000332272 -0.00170854)
(7.09791e-05 -0.000324882 -0.00170854)
(0.000126316 -0.00030762 -0.00170854)
(0.000177815 -0.000281011 -0.00170854)
(0.000223911 -0.000245865 -0.00170854)
(0.000263204 -0.000203247 -0.00170854)
(0.000294499 -0.000154454 -0.00170854)
(0.000316846 -0.000100969 -0.00170854)
(0.000329567 -4.44154e-05 -0.00170854)
(0.000332272 1.34883e-05 -0.00170854)
(0.000324882 7.09812e-05 -0.00170854)
(0.00030762 0.000126318 -0.00170854)
(0.000281011 0.000177817 -0.00170854)
(0.000245864 0.000223913 -0.00170854)
(0.000203247 0.000263206 -0.00170854)
(0.000154454 0.000294501 -0.00170854)
(0.000100969 0.000316848 -0.00170855)
(4.44149e-05 0.000329568 -0.00170855)
(-1.34888e-05 0.000332273 -0.00170854)
(-7.09816e-05 0.000324884 -0.00170854)
(-0.000126319 0.000307621 -0.00170854)
(-0.000177818 0.000281013 -0.00170854)
(-0.000223914 0.000245866 -0.00170854)
(-0.00039918 0.000490074 -0.00148942)
(-0.000478215 0.000413312 -0.00148942)
(-0.000542721 0.000323993 -0.00148942)
(-0.000590737 0.000224828 -0.00148942)
(-0.000620802 0.000118832 -0.00148942)
(-0.000632006 9.22662e-06 -0.00148942)
(-0.000624006 -0.00010066 -0.00148942)
(-0.000597046 -0.000207488 -0.00148942)
(-0.000551946 -0.000308013 -0.00148942)
(-0.000490075 -0.000399178 -0.00148942)
(-0.000413312 -0.000478213 -0.00148942)
(-0.000323993 -0.000542719 -0.00148942)
(-0.000224828 -0.000590735 -0.00148942)
(-0.000118833 -0.0006208 -0.00148942)
(-9.22706e-06 -0.000632004 -0.00148942)
(0.00010066 -0.000624004 -0.00148942)
(0.000207488 -0.000597044 -0.00148942)
(0.000308012 -0.000551944 -0.00148942)
(0.000399177 -0.000490073 -0.00148942)
(0.000478213 -0.000413311 -0.00148942)
(0.000542719 -0.000323991 -0.00148942)
(0.000590735 -0.000224826 -0.00148942)
(0.0006208 -0.000118831 -0.00148942)
(0.000632004 -9.22503e-06 -0.00148942)
(0.000624004 0.000100662 -0.00148942)
(0.000597044 0.00020749 -0.00148942)
(0.000551944 0.000308014 -0.00148942)
(0.000490072 0.000399179 -0.00148942)
(0.00041331 0.000478215 -0.00148942)
(0.000323991 0.000542721 -0.00148942)
(0.000224826 0.000590736 -0.00148942)
(0.00011883 0.000620802 -0.00148942)
(9.22463e-06 0.000632006 -0.00148942)
(-0.000100662 0.000624006 -0.00148942)
(-0.00020749 0.000597045 -0.00148942)
(-0.000308015 0.000551946 -0.00148942)
(-0.000583562 0.000697613 -0.00130681)
(-0.000695835 0.000585681 -0.0013068)
(-0.000786966 0.000455954 -0.0013068)
(-0.000854186 0.000312372 -0.0013068)
(-0.000895451 0.000159299 -0.0013068)
(-0.000909509 1.38559e-06 -0.0013068)
(-0.000895931 -0.00015657 -0.0013068)
(-0.000855132 -0.000309768 -0.0013068)
(-0.00078835 -0.000453554 -0.0013068)
(-0.000697614 -0.00058356 -0.0013068)
(-0.000585682 -0.000695833 -0.0013068)
(-0.000455954 -0.000786964 -0.0013068)
(-0.000312372 -0.000854184 -0.0013068)
(-0.000159299 -0.000895449 -0.0013068)
(-1.386e-06 -0.000909507 -0.0013068)
(0.000156569 -0.00089593 -0.0013068)
(0.000309768 -0.00085513 -0.0013068)
(0.000453554 -0.000788348 -0.0013068)
(0.000583559 -0.000697612 -0.0013068)
(0.000695833 -0.00058568 -0.0013068)