/*--------------------------------*- C++ -*----------------------------------*\
| =========                 |                                                 |
| \\      /  F ield         | OpenFOAM: The Open Source CFD Toolbox           |
|  \\    /   O peration     | Version:  2312                                  |
|   \\  /    A nd           | Website:  www.openfoam.com                      |
|    \\/     M anipulation  |                                                 |
\*---------------------------------------------------------------------------*/
FoamFile
{
    version     2.0;
    format      ascii;
    arch        "LSB;label=32;scalar=64";
    class       volVectorField;
    location    "0.5";
    object      D;
}
// * * * * * * * * * * * * * * * * * * * * * * * * * * * * * * * * * * * * * //

dimensions      [0 1 0 0 0 0 0];

internalField   nonuniform List<vector> 
1620
(
(-0.000222668 0.00026113 -9.53172e-05)
(-0.000264629 0.000218497 -9.53174e-05)
(-0.000298551 0.000169225 -9.53173e-05)
(-0.000323401 0.000114812 -9.5317e-05)
(-0.000338425 5.691e-05 -9.53172e-05)
(-0.000343166 -2.72163e-06 -9.53174e-05)
(-0.000337479 -6.22705e-05 -9.5317e-05)
(-0.000321539 -0.000119927 -9.53168e-05)
(-0.000295829 -0.00017394 -9.53171e-05)
(-0.00026113 -0.000222668 -9.53172e-05)
(-0.000218497 -0.000264629 -9.53174e-05)
(-0.000169225 -0.000298551 -9.53173e-05)
(-0.000114812 -0.000323401 -9.5317e-05)
(-5.691e-05 -0.000338425 -9.53172e-05)
(2.72165e-06 -0.000343166 -9.53174e-05)
(6.22705e-05 -0.000337479 -9.5317e-05)
(0.000119927 -0.000321539 -9.53168e-05)
(0.00017394 -0.000295829 -9.53171e-05)
(0.000222668 -0.00026113 -9.53172e-05)
(0.000264629 -0.000218497 -9.53174e-05)
(0.000298551 -0.000169225 -9.53173e-05)
(0.000323401 -0.000114812 -9.5317e-05)
(0.000338425 -5.691e-05 -9.53172e-05)
(0.000343166 2.72164e-06 -9.53173e-05)
(0.000337479 6.22705e-05 -9.5317e-05)
(0.000321539 0.000119927 -9.53168e-05)
(0.000295829 0.00017394 -9.53171e-05)
(0.00026113 0.000222668 -9.53172e-05)
(0.000218497 0.000264629 -9.53174e-05)
(0.000169225 0.000298551 -9.53173e-05)
(0.000114812 0.000323401 -9.5317e-05)
(5.691e-05 0.000338425 -9.53172e-05)
(-2.72162e-06 0.000343166 -9.53173e-05)
(-6.22705e-05 0.000337479 -9.53169e-05)
(-0.000119927 0.000321539 -9.53168e-05)
(-0.00017394 0.000295829 -9.53171e-05)
(-0.00015888 0.00030834 -6.43102e-05)
(-0.000210009 0.000276066 -6.43103e-05)
(-0.000254756 0.000235404 -6.43103e-05)
(-0.000291764 0.00018759 -6.43102e-05)
(-0.000319906 0.000134076 -6.43103e-05)
(-0.000338328 7.64881e-05 -6.43102e-05)
(-0.00034647 1.65761e-05 -6.43101e-05)
(-0.000344085 -4.38395e-05 -6.43101e-05)
(-0.000331245 -0.000102923 -6.43102e-05)
(-0.00030834 -0.00015888 -6.43102e-05)
(-0.000276066 -0.000210009 -6.43103e-05)
(-0.000235404 -0.000254756 -6.43103e-05)
(-0.00018759 -0.000291764 -6.43102e-05)
(-0.000134076 -0.000319906 -6.43103e-05)
(-7.64881e-05 -0.000338328 -6.43102e-05)
(-1.65761e-05 -0.00034647 -6.43102e-05)
(4.38396e-05 -0.000344085 -6.43101e-05)
(0.000102923 -0.000331245 -6.43102e-05)
(0.00015888 -0.00030834 -6.43102e-05)
(0.000210009 -0.000276066 -6.43103e-05)
(0.000254756 -0.000235404 -6.43103e-05)
(0.000291764 -0.00018759 -6.43102e-05)
(0.000319906 -0.000134076 -6.43103e-05)
(0.000338328 -7.64881e-05 -6.43102e-05)
(0.00034647 -1.65761e-05 -6.43101e-05)
(0.000344085 4.38396e-05 -6.43101e-05)
(0.000331245 0.000102923 -6.43102e-05)
(0.00030834 0.00015888 -6.43102e-05)
(0.000276066 0.000210009 -6.43103e-05)
(0.000235404 0.000254756 -6.43103e-05)
(0.00018759 0.000291764 -6.43102e-05)
(0.000134076 0.000319906 -6.43102e-05)
(7.64881e-05 0.000338328 -6.43102e-05)
(1.65761e-05 0.00034647 -6.43101e-05)
(-4.38395e-05 0.000344085 -6.43101e-05)
(-0.000102923 0.000331245 -6.43102e-05)
(-0.000118179 0.000353782 -3.34452e-05)
(-0.000177817 0.000327886 -3.34452e-05)
(-0.000232053 0.000292028 -3.34454e-05)
(-0.000279237 0.000247295 -3.34452e-05)
(-0.000317938 0.00019505 -3.34454e-05)
(-0.000346977 0.000136877 -3.34452e-05)
(-0.000365475 7.45452e-05 -3.34453e-05)
(-0.000372867 9.94868e-06 -3.34454e-05)
(-0.000368929 -5.495e-05 -3.34453e-05)
(-0.000353782 -0.000118179 -3.34452e-05)
(-0.000327886 -0.000177817 -3.34452e-05)
(-0.000292028 -0.000232053 -3.34454e-05)
(-0.000247295 -0.000279237 -3.34452e-05)
(-0.00019505 -0.000317938 -3.34454e-05)
(-0.000136877 -0.000346977 -3.34452e-05)
(-7.45452e-05 -0.000365475 -3.34454e-05)
(-9.94867e-06 -0.000372867 -3.34454e-05)
(5.49501e-05 -0.000368929 -3.34453e-05)
(0.000118179 -0.000353782 -3.34452e-05)
(0.000177817 -0.000327886 -3.34452e-05)
(0.000232053 -0.000292028 -3.34454e-05)
(0.000279237 -0.000247295 -3.34452e-05)
(0.000317938 -0.00019505 -3.34454e-05)
(0.000346977 -0.000136877 -3.34452e-05)
(0.000365475 -7.45452e-05 -3.34453e-05)
(0.000372867 -9.94866e-06 -3.34454e-05)
(0.000368929 5.49501e-05 -3.34452e-05)
(0.000353782 0.000118179 -3.34452e-05)
(0.000327886 0.000177817 -3.34452e-05)
(0.000292028 0.000232053 -3.34454e-05)
(0.000247295 0.000279237 -3.34452e-05)
(0.00019505 0.000317938 -3.34453e-05)
(0.000136877 0.000346977 -3.34452e-05)
(7.45452e-05 0.000365475 -3.34453e-05)
(9.94867e-06 0.000372867 -3.34454e-05)
(-5.49501e-05 0.000368929 -3.34452e-05)
(-0.000530008 0.00079808 -0.000323456)
(-0.000660541 0.000693921 -0.000323457)
(-0.000771005 0.000568677 -0.000323457)
(-0.000858041 0.000426154 -0.000323455)
(-0.000919006 0.000270683 -0.000323455)
(-0.000952048 0.000106987 -0.000323455)
(-0.000956163 -5.99596e-05 -0.000323456)
(-0.000931224 -0.000225084 -0.000323456)
(-0.00087799 -0.000383371 -0.000323456)
(-0.00079808 -0.000530008 -0.000323456)
(-0.000693921 -0.000660541 -0.000323457)
(-0.000568677 -0.000771005 -0.000323457)
(-0.000426154 -0.000858041 -0.000323455)
(-0.000270683 -0.000919006 -0.000323455)
(-0.000106987 -0.000952048 -0.000323456)
(5.99596e-05 -0.000956163 -0.000323456)
(0.000225085 -0.000931224 -0.000323456)
(0.000383371 -0.00087799 -0.000323456)
(0.000530008 -0.00079808 -0.000323456)
(0.000660541 -0.000693921 -0.000323457)
(0.000771005 -0.000568677 -0.000323457)
(0.000858041 -0.000426154 -0.000323455)
(0.000919006 -0.000270683 -0.000323455)
(0.000952048 -0.000106987 -0.000323455)
(0.000956163 5.99596e-05 -0.000323456)
(0.000931224 0.000225085 -0.000323456)
(0.000877991 0.000383371 -0.000323456)
(0.00079808 0.000530008 -0.000323456)
(0.000693921 0.000660541 -0.000323457)
(0.000568677 0.000771005 -0.000323457)
(0.000426154 0.000858041 -0.000323455)
(0.000270683 0.000919006 -0.000323455)
(0.000106987 0.000952048 -0.000323455)
(-5.99595e-05 0.000956163 -0.000323456)
(-0.000225084 0.000931224 -0.000323456)
(-0.000383371 0.000877991 -0.000323456)
(-0.000478654 0.00091752 -0.000237079)
(-0.000630708 0.000820463 -0.000237079)
(-0.000763598 0.000698478 -0.000237079)
(-0.000873287 0.00055527 -0.000237079)
(-0.000956441 0.000395189 -0.000237079)
(-0.00101053 0.000223101 -0.000237079)
(-0.00103392 4.42338e-05 -0.000237079)
(-0.0010259 -0.000135977 -0.000237079)
(-0.000986699 -0.000312057 -0.000237079)
(-0.00091752 -0.000478654 -0.000237079)
(-0.000820463 -0.000630708 -0.000237079)
(-0.000698478 -0.000763598 -0.000237079)
(-0.00055527 -0.000873287 -0.000237079)
(-0.000395189 -0.000956441 -0.000237079)
(-0.000223101 -0.00101053 -0.000237079)
(-4.42338e-05 -0.00103392 -0.000237079)
(0.000135977 -0.0010259 -0.000237079)
(0.000312057 -0.000986699 -0.000237079)
(0.000478654 -0.00091752 -0.000237079)
(0.000630708 -0.000820463 -0.000237079)
(0.000763598 -0.000698478 -0.000237079)
(0.000873287 -0.00055527 -0.000237079)
(0.000956441 -0.000395189 -0.000237079)
(0.00101053 -0.000223101 -0.000237079)
(0.00103392 -4.42338e-05 -0.000237079)
(0.0010259 0.000135977 -0.000237079)
(0.000986699 0.000312057 -0.000237079)
(0.00091752 0.000478654 -0.000237079)
(0.000820463 0.000630708 -0.000237079)
(0.000698478 0.000763598 -0.000237079)
(0.00055527 0.000873287 -0.000237079)
(0.000395189 0.000956441 -0.000237079)
(0.000223101 0.00101053 -0.000237079)
(4.42338e-05 0.00103392 -0.000237079)
(-0.000135977 0.0010259 -0.000237079)
(-0.000312057 0.000986699 -0.000237079)
(-0.000456744 0.00103244 -0.000152488)
(-0.000629086 0.000937441 -0.000152488)
(-0.000782313 0.00081396 -0.000152488)
(-0.00091177 0.000665747 -0.000152488)
(-0.00101352 0.000497305 -0.000152488)
(-0.00108448 0.000313753 -0.000152488)
(-0.00112249 0.000120668 -0.000152488)
(-0.00112639 -7.60837e-05 -0.000152488)
(-0.00109607 -0.000270524 -0.000152488)
(-0.00103244 -0.000456744 -0.000152488)
(-0.000937441 -0.000629086 -0.000152488)
(-0.00081396 -0.000782313 -0.000152488)
(-0.000665747 -0.00091177 -0.000152488)
(-0.000497305 -0.00101352 -0.000152488)
(-0.000313753 -0.00108448 -0.000152488)
(-0.000120668 -0.00112249 -0.000152488)
(7.60837e-05 -0.00112639 -0.000152488)
(0.000270524 -0.00109607 -0.000152488)
(0.000456744 -0.00103244 -0.000152488)
(0.000629086 -0.000937441 -0.000152488)
(0.000782313 -0.00081396 -0.000152488)
(0.00091177 -0.000665747 -0.000152488)
(0.00101352 -0.000497305 -0.000152488)
(0.00108448 -0.000313753 -0.000152488)
(0.00112249 -0.000120668 -0.000152488)
(0.00112639 7.60837e-05 -0.000152488)
(0.00109607 0.000270524 -0.000152488)
(0.00103244 0.000456744 -0.000152488)
(0.000937441 0.000629086 -0.000152488)
(0.00081396 0.000782313 -0.000152488)
(0.000665747 0.00091177 -0.000152488)
(0.000497305 0.00101352 -0.000152488)
(0.000313753 0.00108448 -0.000152488)
(0.000120668 0.00112249 -0.000152488)
(-7.60837e-05 0.00112639 -0.000152488)
(-0.000270524 0.00109607 -0.000152488)
(-0.000826585 0.0013473 -0.000618314)
(-0.00104798 0.0011833 -0.000618314)
(-0.00123754 0.000983343 -0.000618314)
(-0.0013895 0.000753507 -0.000618313)
(-0.00149923 0.000500777 -0.000618313)
(-0.00156341 0.000232831 -0.000618313)
(-0.00158009 -4.21907e-05 -0.000618313)
(-0.00154876 -0.00031593 -0.000618313)
(-0.00147037 -0.00058007 -0.000618314)
(-0.0013473 -0.000826585 -0.000618314)
(-0.0011833 -0.00104798 -0.000618314)
(-0.000983343 -0.00123754 -0.000618314)
(-0.000753507 -0.0013895 -0.000618314)
(-0.000500777 -0.00149923 -0.000618313)
(-0.000232831 -0.00156341 -0.000618313)
(4.21907e-05 -0.00158009 -0.000618313)
(0.00031593 -0.00154876 -0.000618313)
(0.00058007 -0.00147037 -0.000618314)
(0.000826585 -0.0013473 -0.000618314)
(0.00104798 -0.0011833 -0.000618314)
(0.00123754 -0.000983343 -0.000618314)
(0.0013895 -0.000753507 -0.000618313)
(0.00149923 -0.000500777 -0.000618313)
(0.00156341 -0.000232831 -0.000618313)
(0.00158009 4.21907e-05 -0.000618313)
(0.00154876 0.00031593 -0.000618313)
(0.00147037 0.00058007 -0.000618314)
(0.0013473 0.000826585 -0.000618314)
(0.0011833 0.00104798 -0.000618314)
(0.000983343 0.00123754 -0.000618314)
(0.000753507 0.0013895 -0.000618313)
(0.000500777 0.00149923 -0.000618313)
(0.000232831 0.00156341 -0.000618313)
(-4.21907e-05 0.00158009 -0.000618313)
(-0.00031593 0.00154876 -0.000618313)
(-0.00058007 0.00147037 -0.000618314)
(-0.000792277 0.00151795 -0.000487002)
(-0.00104383 0.00135732 -0.000487002)
(-0.00126367 0.00115544 -0.000487002)
(-0.00144511 0.00091845 -0.000487002)
(-0.00158264 0.000653556 -0.000487001)
(-0.00167209 0.000368804 -0.000487002)
(-0.00171073 7.28461e-05 -0.000487002)
(-0.00169739 -0.000225326 -0.000487002)
(-0.00163247 -0.00051665 -0.000487002)
(-0.00151795 -0.000792277 -0.000487002)
(-0.00135732 -0.00104383 -0.000487002)
(-0.00115544 -0.00126367 -0.000487002)
(-0.00091845 -0.00144511 -0.000487002)
(-0.000653556 -0.00158264 -0.000487001)
(-0.000368804 -0.00167209 -0.000487002)
(-7.2846e-05 -0.00171073 -0.000487002)
(0.000225326 -0.00169739 -0.000487002)
(0.00051665 -0.00163247 -0.000487002)
(0.000792277 -0.00151795 -0.000487002)
(0.00104383 -0.00135732 -0.000487002)
(0.00126367 -0.00115544 -0.000487002)
(0.00144511 -0.00091845 -0.000487002)
(0.00158264 -0.000653556 -0.000487001)
(0.00167209 -0.000368804 -0.000487002)
(0.00171073 -7.2846e-05 -0.000487002)
(0.00169739 0.000225326 -0.000487002)
(0.00163247 0.00051665 -0.000487002)
(0.00151795 0.000792277 -0.000487002)
(0.00135732 0.00104383 -0.000487002)
(0.00115544 0.00126367 -0.000487002)
(0.00091845 0.00144511 -0.000487002)
(0.000653556 0.00158264 -0.000487001)
(0.000368804 0.00167209 -0.000487002)
(7.28461e-05 0.00171073 -0.000487002)
(-0.000225326 0.00169739 -0.000487002)
(-0.00051665 0.00163247 -0.000487002)
(-0.000791394 0.00167694 -0.000359486)
(-0.00107057 0.00151404 -0.000359486)
(-0.00131722 0.00130514 -0.000359487)
(-0.00152384 0.00105658 -0.000359487)
(-0.00168416 0.000775916 -0.000359487)
(-0.00179331 0.000471676 -0.000359487)
(-0.00184797 0.000153105 -0.000359487)
(-0.00184648 -0.000170118 -0.000359487)
(-0.00178889 -0.000488173 -0.000359487)
(-0.00167694 -0.000791394 -0.000359487)
(-0.00151404 -0.00107057 -0.000359486)
(-0.00130514 -0.00131722 -0.000359487)
(-0.00105658 -0.00152384 -0.000359487)
(-0.000775916 -0.00168416 -0.000359487)
(-0.000471676 -0.00179331 -0.000359487)
(-0.000153105 -0.00184797 -0.000359487)
(0.000170118 -0.00184648 -0.000359487)
(0.000488173 -0.00178889 -0.000359487)
(0.000791394 -0.00167694 -0.000359487)
(0.00107057 -0.00151404 -0.000359486)
(0.00131722 -0.00130514 -0.000359487)
(0.00152384 -0.00105658 -0.000359487)
(0.00168416 -0.000775916 -0.000359487)
(0.00179331 -0.000471676 -0.000359487)
(0.00184797 -0.000153105 -0.000359487)
(0.00184648 0.000170118 -0.000359487)
(0.00178889 0.000488173 -0.000359487)
(0.00167694 0.000791394 -0.000359486)
(0.00151404 0.00107057 -0.000359486)
(0.00130514 0.00131722 -0.000359487)
(0.00105658 0.00152384 -0.000359487)
(0.000775916 0.00168416 -0.000359487)
(0.000471676 0.00179331 -0.000359487)
(0.000153105 0.00184797 -0.000359487)
(-0.000170118 0.00184648 -0.000359487)
(-0.000488173 0.00178889 -0.000359487)
(-0.0011099 0.00190981 -0.000961669)
(-0.00142467 0.00168806 -0.00096167)
(-0.00169616 0.00141503 -0.000961669)
(-0.00191611 0.00109899 -0.000961669)
(-0.00207783 0.00074957 -0.000961669)
(-0.00217643 0.000377371 -0.000961668)
(-0.00220889 -6.29517e-06 -0.000961668)
(-0.00217424 -0.00038977 -0.000961668)
(-0.00207353 -0.000761402 -0.000961668)
(-0.00190981 -0.0011099 -0.000961669)
(-0.00168806 -0.00142467 -0.00096167)
(-0.00141503 -0.00169616 -0.000961669)
(-0.00109899 -0.00191611 -0.000961669)
(-0.00074957 -0.00207783 -0.000961669)
(-0.000377371 -0.00217643 -0.000961668)
(6.29527e-06 -0.00220889 -0.000961668)
(0.000389771 -0.00217424 -0.000961668)
(0.000761402 -0.00207353 -0.000961669)
(0.0011099 -0.00190981 -0.000961669)
(0.00142467 -0.00168806 -0.00096167)
(0.00169616 -0.00141503 -0.000961669)
(0.00191611 -0.00109899 -0.000961669)
(0.00207783 -0.00074957 -0.000961669)
(0.00217643 -0.000377371 -0.000961668)
(0.00220889 6.29526e-06 -0.000961668)
(0.00217424 0.000389771 -0.000961668)
(0.00207353 0.000761402 -0.000961668)
(0.00190981 0.0011099 -0.000961669)
(0.00168806 0.00142467 -0.00096167)
(0.00141503 0.00169616 -0.000961669)
(0.00109899 0.00191611 -0.000961669)
(0.00074957 0.00207783 -0.000961669)
(0.000377371 0.00217643 -0.000961668)
(-6.29516e-06 0.00220889 -0.000961668)
(-0.00038977 0.00217424 -0.000961668)
(-0.000761402 0.00207353 -0.000961668)
(-0.00109652 0.00209753 -0.000796232)
(-0.00144409 0.00187525 -0.000796232)
(-0.00174779 0.001596 -0.000796232)
(-0.00199838 0.00126825 -0.000796231)
(-0.00218825 0.000901968 -0.000796231)
(-0.00231163 0.00050828 -0.000796231)
(-0.00236477 9.91478e-05 -0.000796231)
(-0.00234606 -0.000312997 -0.000796231)
(-0.00225607 -0.000715631 -0.000796231)
(-0.00209752 -0.00109652 -0.000796232)
(-0.00187525 -0.00144409 -0.000796232)
(-0.001596 -0.00174779 -0.000796232)
(-0.00126825 -0.00199838 -0.000796231)
(-0.000901968 -0.00218825 -0.000796231)
(-0.00050828 -0.00231163 -0.000796231)
(-9.91477e-05 -0.00236477 -0.000796231)
(0.000312997 -0.00234606 -0.000796231)
(0.000715632 -0.00225607 -0.000796231)
(0.00109652 -0.00209752 -0.000796232)
(0.00144409 -0.00187525 -0.000796232)
(0.00174779 -0.001596 -0.000796232)
(0.00199838 -0.00126825 -0.000796231)
(0.00218825 -0.000901968 -0.000796231)
(0.00231163 -0.00050828 -0.000796231)
(0.00236477 -9.91478e-05 -0.000796231)
(0.00234606 0.000312997 -0.000796231)
(0.00225607 0.000715632 -0.000796231)
(0.00209753 0.00109652 -0.000796232)
(0.00187525 0.00144409 -0.000796232)
(0.001596 0.00174779 -0.000796232)
(0.00126825 0.00199838 -0.000796231)
(0.000901968 0.00218825 -0.000796231)
(0.00050828 0.00231163 -0.000796231)
(9.91479e-05 0.00236477 -0.000796231)
(-0.000312997 0.00234606 -0.000796231)
(-0.000715631 0.00225607 -0.000796231)
(-0.00111951 0.0022648 -0.000637177)
(-0.00149578 0.00203599 -0.000637177)
(-0.0018266 0.00174532 -0.000637177)
(-0.00210192 0.00140162 -0.000637177)
(-0.00231338 0.00101533 -0.000637177)
(-0.00245454 0.000598193 -0.000637177)
(-0.00252113 0.000162878 -0.000637177)
(-0.00251111 -0.000277386 -0.000637177)
(-0.00242479 -0.000709222 -0.000637177)
(-0.0022648 -0.00111951 -0.000637177)
(-0.00203599 -0.00149578 -0.000637177)
(-0.00174532 -0.0018266 -0.000637177)
(-0.00140162 -0.00210192 -0.000637177)
(-0.00101533 -0.00231338 -0.000637177)
(-0.000598193 -0.00245454 -0.000637177)
(-0.000162878 -0.00252113 -0.000637177)
(0.000277386 -0.00251111 -0.000637177)
(0.000709222 -0.00242479 -0.000637177)
(0.00111951 -0.0022648 -0.000637177)
(0.00149578 -0.00203599 -0.000637177)
(0.0018266 -0.00174532 -0.000637177)
(0.00210192 -0.00140162 -0.000637177)
(0.00231338 -0.00101533 -0.000637177)
(0.00245454 -0.000598193 -0.000637177)
(0.00252113 -0.000162878 -0.000637177)
(0.00251111 0.000277386 -0.000637177)
(0.00242479 0.000709222 -0.000637177)
(0.0022648 0.00111951 -0.000637177)
(0.00203599 0.00149578 -0.000637177)
(0.00174532 0.0018266 -0.000637177)
(0.00140162 0.00210192 -0.000637177)
(0.00101533 0.00231338 -0.000637176)
(0.000598194 0.00245454 -0.000637177)
(0.000162878 0.00252113 -0.000637177)
(-0.000277386 0.00251111 -0.000637177)
(-0.000709222 0.00242479 -0.000637177)
(-0.0013897 0.00247493 -0.0013404)
(-0.00179836 0.00219601 -0.0013404)
(-0.00215237 0.00185037 -0.0013404)
(-0.00244098 0.0014485 -0.0013404)
(-0.00265543 0.00100262 -0.0013404)
(-0.00278919 0.000526281 -0.0013404)
(-0.0028382 3.39485e-05 -0.0013404)
(-0.00280098 -0.000459417 -0.0013404)
(-0.00267865 -0.000938822 -0.0013404)
(-0.00247493 -0.0013897 -0.0013404)
(-0.00219601 -0.00179836 -0.0013404)
(-0.00185037 -0.00215237 -0.0013404)
(-0.0014485 -0.00244098 -0.0013404)
(-0.00100262 -0.00265543 -0.0013404)
(-0.000526281 -0.00278919 -0.0013404)
(-3.39484e-05 -0.0028382 -0.0013404)
(0.000459417 -0.00280098 -0.0013404)
(0.000938822 -0.00267865 -0.0013404)
(0.0013897 -0.00247493 -0.0013404)
(0.00179836 -0.00219601 -0.0013404)
(0.00215237 -0.00185037 -0.0013404)
(0.00244098 -0.0014485 -0.0013404)
(0.00265543 -0.00100262 -0.0013404)
(0.00278919 -0.000526281 -0.0013404)
(0.0028382 -3.39484e-05 -0.0013404)
(0.00280098 0.000459417 -0.0013404)
(0.00267865 0.000938822 -0.0013404)
(0.00247493 0.0013897 -0.0013404)
(0.00219601 0.00179836 -0.0013404)
(0.00185037 0.00215237 -0.0013404)
(0.0014485 0.00244098 -0.0013404)
(0.00100262 0.00265543 -0.0013404)
(0.000526281 0.00278919 -0.0013404)
(3.39485e-05 0.0028382 -0.0013404)
(-0.000459417 0.00280098 -0.0013404)
(-0.000938822 0.00267865 -0.0013404)
(-0.00139423 0.00264417 -0.00115091)
(-0.00183221 0.00236189 -0.00115091)
(-0.00221451 0.00200785 -0.00115091)
(-0.00252953 0.0015928 -0.00115091)
(-0.00276768 0.00112936 -0.00115091)
(-0.00292175 0.000631595 -0.00115091)
(-0.00298703 0.000114643 -0.00115091)
(-0.00296156 -0.000405791 -0.00115091)
(-0.0028461 -0.000913896 -0.00115091)
(-0.00264417 -0.00139423 -0.00115091)
(-0.00236189 -0.00183221 -0.00115091)
(-0.00200785 -0.00221451 -0.00115091)
(-0.0015928 -0.00252953 -0.00115091)
(-0.00112936 -0.00276768 -0.00115091)
(-0.000631595 -0.00292175 -0.00115091)
(-0.000114643 -0.00298703 -0.00115091)
(0.000405791 -0.00296156 -0.00115091)
(0.000913897 -0.0028461 -0.00115091)
(0.00139423 -0.00264417 -0.00115091)
(0.00183221 -0.00236189 -0.00115091)
(0.00221451 -0.00200785 -0.00115091)
(0.00252953 -0.0015928 -0.00115091)
(0.00276768 -0.00112936 -0.00115091)
(0.00292175 -0.000631595 -0.00115091)
(0.00298703 -0.000114643 -0.00115091)
(0.00296156 0.000405791 -0.00115091)
(0.0028461 0.000913896 -0.00115091)
(0.00264417 0.00139423 -0.00115091)
(0.00236189 0.00183221 -0.00115091)
(0.00200785 0.00221451 -0.00115091)
(0.0015928 0.00252953 -0.00115091)
(0.00112936 0.00276768 -0.00115091)
(0.000631595 0.00292175 -0.00115091)
(0.000114643 0.00298703 -0.00115091)
(-0.000405791 0.00296156 -0.00115091)
(-0.000913896 0.0028461 -0.00115091)
(-0.00143594 0.00278492 -0.000970232)
(-0.00189773 0.00249327 -0.000970232)
(-0.00230185 0.00212585 -0.000970232)
(-0.00263603 0.00169384 -0.000970232)
(-0.00289011 0.00121037 -0.000970232)
(-0.00305638 0.000690119 -0.000970232)
(-0.00312979 0.000148899 -0.000970232)
(-0.00310809 -0.000396845 -0.000970232)
(-0.00299196 -0.000930532 -0.000970232)
(-0.00278492 -0.00143594 -0.000970232)
(-0.00249327 -0.00189773 -0.000970232)
(-0.00212585 -0.00230185 -0.000970232)
(-0.00169384 -0.00263603 -0.000970232)
(-0.00121037 -0.00289011 -0.000970232)
(-0.000690119 -0.00305638 -0.000970232)
(-0.000148899 -0.00312979 -0.000970233)
(0.000396846 -0.00310809 -0.000970233)
(0.000930532 -0.00299196 -0.000970232)
(0.00143594 -0.00278492 -0.000970232)
(0.00189773 -0.00249327 -0.000970232)
(0.00230185 -0.00212585 -0.000970232)
(0.00263603 -0.00169384 -0.000970232)
(0.00289011 -0.00121037 -0.000970232)
(0.00305638 -0.000690119 -0.000970232)
(0.00312979 -0.000148899 -0.000970232)
(0.00310809 0.000396846 -0.000970232)
(0.00299196 0.000930532 -0.000970232)
(0.00278492 0.00143594 -0.000970232)
(0.00249327 0.00189773 -0.000970232)
(0.00212585 0.00230185 -0.000970232)
(0.00169384 0.00263603 -0.000970232)
(0.00121037 0.00289011 -0.000970232)
(0.000690119 0.00305638 -0.000970232)
(0.000148899 0.00312979 -0.000970232)
(-0.000396845 0.00310809 -0.000970232)
(-0.000930532 0.00299196 -0.000970232)
(-0.00167536 0.00302225 -0.00174585)
(-0.00217471 0.00268541 -0.00174585)
(-0.00260799 0.00226698 -0.00174585)
(-0.00296203 0.00177967 -0.00174585)
(-0.00322606 0.00123828 -0.00174585)
(-0.00339208 0.000659268 -0.00174585)
(-0.00345502 6.02244e-05 -0.00174585)
(-0.00341299 -0.00054065 -0.00174585)
(-0.00326726 -0.0011251 -0.00174585)
(-0.00302225 -0.00167536 -0.00174585)
(-0.00268541 -0.00217471 -0.00174585)
(-0.00226698 -0.00260799 -0.00174585)
(-0.00177967 -0.00296203 -0.00174585)
(-0.00123828 -0.00322606 -0.00174585)
(-0.000659268 -0.00339208 -0.00174585)
(-6.02242e-05 -0.00345502 -0.00174585)
(0.00054065 -0.00341299 -0.00174585)
(0.0011251 -0.00326726 -0.00174585)
(0.00167536 -0.00302225 -0.00174585)
(0.00217471 -0.00268541 -0.00174585)
(0.00260799 -0.00226698 -0.00174585)
(0.00296203 -0.00177967 -0.00174585)
(0.00322606 -0.00123828 -0.00174585)
(0.00339208 -0.000659268 -0.00174585)
(0.00345502 -6.02243e-05 -0.00174585)
(0.00341299 0.00054065 -0.00174585)
(0.00326726 0.0011251 -0.00174585)
(0.00302225 0.00167536 -0.00174585)
(0.00268541 0.00217471 -0.00174585)
(0.00226698 0.00260799 -0.00174585)
(0.00177967 0.00296203 -0.00174585)
(0.00123828 0.00322606 -0.00174585)
(0.000659268 0.00339208 -0.00174585)
(6.02244e-05 0.00345502 -0.00174585)
(-0.00054065 0.00341299 -0.00174585)
(-0.0011251 0.00326726 -0.00174585)
(-0.00168919 0.00314374 -0.00153843)
(-0.00220943 0.00280265 -0.00153843)
(-0.00266254 0.00237641 -0.00153843)
(-0.00303475 0.00187796 -0.00153843)
(-0.00331475 0.00132245 -0.00153843)
(-0.00349404 0.000726762 -0.00153843)
(-0.00356715 0.000108988 -0.00153843)
(-0.00353189 -0.000512098 -0.00153843)
(-0.00338931 -0.00111762 -0.00153843)
(-0.00314374 -0.00168919 -0.00153843)
(-0.00280265 -0.00220944 -0.00153843)
(-0.00237641 -0.00266254 -0.00153843)
(-0.00187796 -0.00303475 -0.00153843)
(-0.00132245 -0.00331475 -0.00153843)
(-0.000726762 -0.00349404 -0.00153843)
(-0.000108988 -0.00356715 -0.00153843)
(0.000512098 -0.00353189 -0.00153843)
(0.00111762 -0.00338931 -0.00153843)
(0.00168919 -0.00314374 -0.00153843)
(0.00220944 -0.00280265 -0.00153843)
(0.00266254 -0.00237641 -0.00153843)
(0.00303475 -0.00187796 -0.00153843)
(0.00331475 -0.00132245 -0.00153843)
(0.00349404 -0.000726762 -0.00153843)
(0.00356715 -0.000108988 -0.00153843)
(0.00353189 0.000512098 -0.00153843)
(0.00338931 0.00111762 -0.00153843)
(0.00314374 0.00168919 -0.00153843)
(0.00280265 0.00220944 -0.00153843)
(0.00237641 0.00266254 -0.00153843)
(0.00187796 0.00303475 -0.00153843)
(0.00132245 0.00331475 -0.00153843)
(0.000726762 0.00349404 -0.00153843)
(0.000108988 0.00356715 -0.00153843)
(-0.000512098 0.00353189 -0.00153843)
(-0.00111762 0.00338931 -0.00153843)
(-0.00173871 0.00323079 -0.00134189)
(-0.00227332 0.00287979 -0.00134189)
(-0.00273885 0.00244128 -0.00134189)
(-0.00312117 0.0019286 -0.00134189)
(-0.00340864 0.00135731 -0.00134189)
(-0.00359255 0.000744786 -0.00134189)
(-0.00366731 0.000109631 -0.00134189)
(-0.00363063 -0.000528856 -0.00134189)
(-0.00348364 -0.00115127 -0.00134189)
(-0.00323079 -0.00173871 -0.00134189)
(-0.00287979 -0.00227332 -0.00134189)
(-0.00244128 -0.00273885 -0.00134189)
(-0.0019286 -0.00312117 -0.00134189)
(-0.00135731 -0.00340864 -0.00134189)
(-0.000744785 -0.00359255 -0.00134189)
(-0.000109631 -0.00366731 -0.00134189)
(0.000528856 -0.00363063 -0.00134189)
(0.00115127 -0.00348364 -0.00134189)
(0.00173871 -0.00323079 -0.00134189)
(0.00227332 -0.00287979 -0.00134189)
(0.00273885 -0.00244128 -0.00134189)
(0.00312117 -0.0019286 -0.00134189)
(0.00340864 -0.00135731 -0.00134189)
(0.00359255 -0.000744786 -0.00134189)
(0.00366731 -0.000109631 -0.00134189)
(0.00363063 0.000528856 -0.00134189)
(0.00348364 0.00115127 -0.00134189)
(0.00323079 0.00173871 -0.00134189)
(0.00287979 0.00227332 -0.00134189)
(0.00244128 0.00273885 -0.00134189)
(0.0019286 0.00312117 -0.00134189)
(0.00135731 0.00340864 -0.00134189)
(0.000744786 0.00359255 -0.00134189)
(0.000109631 0.00366731 -0.00134189)
(-0.000528856 0.00363063 -0.00134189)
(-0.00115127 0.00348364 -0.00134189)
(-0.00197043 0.00352406 -0.00217183)
(-0.00255244 0.00312836 -0.00217183)
(-0.0030569 0.00263761 -0.00217183)
(-0.00346847 0.00206671 -0.00217183)
(-0.00377466 0.00143302 -0.00217183)
(-0.00396615 0.000755786 -0.00217183)
(-0.00403714 5.55888e-05 -0.00217183)
(-0.00398546 -0.000646298 -0.00217183)
(-0.00381268 -0.00132855 -0.00217183)
(-0.00352406 -0.00197043 -0.00217183)
(-0.00312836 -0.00255244 -0.00217183)
(-0.00263761 -0.0030569 -0.00217183)
(-0.00206671 -0.00346847 -0.00217183)
(-0.00143302 -0.00377466 -0.00217183)
(-0.000755786 -0.00396615 -0.00217183)
(-5.55886e-05 -0.00403714 -0.00217183)
(0.000646299 -0.00398546 -0.00217183)
(0.00132855 -0.00381268 -0.00217183)
(0.00197043 -0.00352406 -0.00217183)
(0.00255244 -0.00312836 -0.00217183)
(0.0030569 -0.00263761 -0.00217183)
(0.00346847 -0.00206671 -0.00217183)
(0.00377466 -0.00143302 -0.00217183)
(0.00396615 -0.000755786 -0.00217183)
(0.00403714 -5.55886e-05 -0.00217183)
(0.00398546 0.000646299 -0.00217183)
(0.00381268 0.00132855 -0.00217183)
(0.00352406 0.00197043 -0.00217183)
(0.00312836 0.00255244 -0.00217183)
(0.00263761 0.0030569 -0.00217183)
(0.00206671 0.00346847 -0.00217183)
(0.00143302 0.00377466 -0.00217183)
(0.000755786 0.00396615 -0.00217183)
(5.55888e-05 0.00403714 -0.00217183)
(-0.000646298 0.00398546 -0.00217183)
(-0.00132855 0.00381268 -0.00217183)
(-0.00198203 0.00357762 -0.00194837)
(-0.00257317 0.00317909 -0.00194837)
(-0.00308612 0.00268396 -0.00194837)
(-0.0035053 0.00210729 -0.00194837)
(-0.00381797 0.00146659 -0.00194837)
(-0.00401464 0.000781325 -0.00194837)
(-0.00408932 7.23198e-05 -0.00194837)
(-0.00403975 -0.000638882 -0.00194837)
(-0.00386744 -0.00133067 -0.00194837)
(-0.00357762 -0.00198203 -0.00194837)
(-0.00317909 -0.00257317 -0.00194837)
(-0.00268396 -0.00308612 -0.00194837)
(-0.00210729 -0.0035053 -0.00194837)
(-0.00146659 -0.00381797 -0.00194837)
(-0.000781325 -0.00401464 -0.00194837)
(-7.23196e-05 -0.00408932 -0.00194837)
(0.000638882 -0.00403975 -0.00194837)
(0.00133067 -0.00386744 -0.00194837)
(0.00198203 -0.00357762 -0.00194837)
(0.00257317 -0.00317909 -0.00194837)
(0.00308612 -0.00268396 -0.00194837)
(0.0035053 -0.00210729 -0.00194837)
(0.00381797 -0.00146659 -0.00194837)
(0.00401464 -0.000781325 -0.00194837)
(0.00408932 -7.23197e-05 -0.00194837)
(0.00403975 0.000638882 -0.00194837)
(0.00386744 0.00133067 -0.00194837)
(0.00357762 0.00198203 -0.00194837)
(0.00317909 0.00257317 -0.00194837)
(0.00268396 0.00308612 -0.00194837)
(0.00210729 0.0035053 -0.00194837)
(0.00146659 0.00381797 -0.00194837)
(0.000781325 0.00401464 -0.00194837)
(7.23199e-05 0.00408932 -0.00194837)
(-0.000638882 0.00403975 -0.00194837)
(-0.00133067 0.00386744 -0.00194837)
(-0.00202563 0.00359409 -0.00173757)
(-0.00261897 0.00318774 -0.00173757)
(-0.00313272 0.00268453 -0.00173757)
(-0.00355129 0.00209975 -0.00173757)
(-0.00386196 0.00145118 -0.00173757)
(-0.00405528 0.00075851 -0.00173757)
(-0.00412539 4.27944e-05 -0.00173757)
(-0.00407014 -0.000674221 -0.00173757)
(-0.00389123 -0.00137075 -0.00173757)
(-0.00359409 -0.00202563 -0.00173757)
(-0.00318774 -0.00261897 -0.00173757)
(-0.00268453 -0.00313272 -0.00173757)
(-0.00209975 -0.00355129 -0.00173757)
(-0.00145118 -0.00386196 -0.00173757)
(-0.00075851 -0.00405528 -0.00173757)
(-4.27942e-05 -0.00412539 -0.00173757)
(0.000674222 -0.00407014 -0.00173757)
(0.00137075 -0.00389123 -0.00173757)
(0.00202563 -0.00359409 -0.00173757)
(0.00261897 -0.00318774 -0.00173757)
(0.00313272 -0.00268453 -0.00173757)
(0.00355129 -0.00209975 -0.00173757)
(0.00386196 -0.00145118 -0.00173757)
(0.00405528 -0.00075851 -0.00173757)
(0.00412539 -4.27943e-05 -0.00173757)
(0.00407014 0.000674222 -0.00173757)
(0.00389123 0.00137075 -0.00173757)
(0.00359409 0.00202563 -0.00173757)
(0.00318774 0.00261897 -0.00173757)
(0.00268453 0.00313272 -0.00173757)
(0.00209975 0.00355129 -0.00173757)
(0.00145118 0.00386196 -0.00173757)
(0.00075851 0.00405528 -0.00173757)
(4.27945e-05 0.00412539 -0.00173757)
(-0.000674221 0.00407014 -0.00173757)
(-0.00137075 0.00389123 -0.00173757)
(-0.00226771 0.00394697 -0.00261037)
(-0.00291864 0.00349322 -0.00261037)
(-0.00348089 0.00293334 -0.00261037)
(-0.00393738 0.00228432 -0.00261037)
(-0.00427423 0.0015659 -0.00261037)
(-0.00448121 0.000799899 -0.00261037)