/*--------------------------------*- C++ -*----------------------------------*\
| =========                 |                                                 |
| \\      /  F ield         | OpenFOAM: The Open Source CFD Toolbox           |
|  \\    /   O peration     | Version:  2312                                  |
|   \\  /    A nd           | Website:  www.openfoam.com                      |
|    \\/     M anipulation  |                                                 |
\*---------------------------------------------------------------------------*/
FoamFile
{
    version     2.0;
    format      ascii;
    arch        "LSB;label=32;scalar=64";
    class       volTensorField;
    location    "0.5";
    object      F;
}
// * * * * * * * * * * * * * * * * * * * * * * * * * * * * * * * * * * * * * //

dimensions      [0 0 0 0 0 0 0];

internalField   nonuniform List<tensor> 
1620
(
(0.938634 -0.0336874 0.153614 -0.0440226 0.972001 -0.280525 -0.0309835 -0.00271086 1.11529)
(0.952929 -0.0370504 0.199993 -0.0473858 0.957706 -0.249589 -0.0300424 -0.0080499 1.11529)
(0.967512 -0.0353213 0.240295 -0.0456568 0.943122 -0.211068 -0.028188 -0.0131441 1.11529)
(0.980625 -0.0287086 0.273297 -0.0390439 0.93001 -0.166135 -0.0254771 -0.0178392 1.11529)
(0.990685 -0.0180097 0.297994 -0.028345 0.91995 -0.116154 -0.0219924 -0.0219925 1.11529)
(0.996479 -0.00451558 0.313636 -0.0148508 0.914155 -0.0626433 -0.0178394 -0.0254773 1.11529)
(0.997309 0.0101464 0.319749 -0.000188719 0.913326 -0.00722909 -0.0131443 -0.0281877 1.11529)
(0.993073 0.0242081 0.316147 0.0138729 0.917561 0.0484047 -0.00804972 -0.030042 1.11529)
(0.984284 0.0359732 0.302938 0.025638 0.926351 0.102568 -0.00271065 -0.0309835 1.11529)
(0.972001 0.0440226 0.280525 0.0336874 0.938634 0.153614 0.00271086 -0.0309835 1.11529)
(0.957706 0.0473858 0.249589 0.0370504 0.952929 0.199993 0.0080499 -0.0300424 1.11529)
(0.943122 0.0456568 0.211068 0.0353213 0.967512 0.240295 0.0131441 -0.028188 1.11529)
(0.93001 0.0390439 0.166135 0.0287086 0.980625 0.273297 0.0178392 -0.0254771 1.11529)
(0.91995 0.028345 0.116154 0.0180097 0.990685 0.297994 0.0219925 -0.0219924 1.11529)
(0.914155 0.0148508 0.0626432 0.00451558 0.996479 0.313636 0.0254773 -0.0178394 1.11529)
(0.913326 0.000188721 0.00722907 -0.0101464 0.997309 0.319749 0.0281877 -0.0131443 1.11529)
(0.917561 -0.0138729 -0.0484047 -0.0242081 0.993073 0.316147 0.030042 -0.00804972 1.11529)
(0.926351 -0.025638 -0.102568 -0.0359732 0.984284 0.302938 0.0309835 -0.00271065 1.11529)
(0.938634 -0.0336874 -0.153614 -0.0440226 0.972001 0.280525 0.0309835 0.00271086 1.11529)
(0.952929 -0.0370504 -0.199993 -0.0473858 0.957706 0.249589 0.0300424 0.0080499 1.11529)
(0.967512 -0.0353213 -0.240295 -0.0456568 0.943122 0.211068 0.028188 0.0131441 1.11529)
(0.980625 -0.0287086 -0.273297 -0.0390439 0.93001 0.166135 0.0254771 0.0178392 1.11529)
(0.990685 -0.0180097 -0.297994 -0.028345 0.91995 0.116154 0.0219924 0.0219925 1.11529)
(0.996479 -0.00451558 -0.313636 -0.0148508 0.914155 0.0626432 0.0178394 0.0254773 1.11529)
(0.997309 0.0101464 -0.319749 -0.000188719 0.913326 0.00722907 0.0131443 0.0281877 1.11529)
(0.993073 0.0242081 -0.316147 0.0138729 0.917561 -0.0484047 0.00804972 0.030042 1.11529)
(0.984284 0.0359732 -0.302938 0.025638 0.926351 -0.102568 0.00271065 0.0309835 1.11529)
(0.972001 0.0440226 -0.280525 0.0336874 0.938634 -0.153614 -0.00271086 0.0309835 1.11529)
(0.957706 0.0473858 -0.249589 0.0370504 0.952929 -0.199993 -0.0080499 0.0300424 1.11529)
(0.943122 0.0456568 -0.211068 0.0353213 0.967512 -0.240295 -0.0131441 0.028188 1.11529)
(0.93001 0.0390439 -0.166135 0.0287085 0.980625 -0.273297 -0.0178392 0.0254771 1.11529)
(0.91995 0.028345 -0.116154 0.0180097 0.990685 -0.297994 -0.0219925 0.0219924 1.11529)
(0.914155 0.0148508 -0.0626433 0.00451558 0.996479 -0.313636 -0.0254773 0.0178394 1.11529)
(0.913326 0.000188714 -0.00722909 -0.0101464 0.997309 -0.319749 -0.0281877 0.0131443 1.11529)
(0.917561 -0.0138729 0.0484047 -0.0242081 0.993073 -0.316147 -0.030042 0.00804972 1.11529)
(0.926351 -0.025638 0.102568 -0.0359732 0.984284 -0.302938 -0.0309835 0.00271065 1.11529)
(0.950388 -0.0418004 0.161315 -0.0440376 0.976845 -0.318467 -0.0309773 -0.00271019 1.08699)
(0.965865 -0.0437365 0.214165 -0.0459739 0.961368 -0.285617 -0.0300363 -0.00804824 1.08699)
(0.98107 -0.0402626 0.260509 -0.0425 0.946162 -0.244088 -0.0281823 -0.0131416 1.08699)
(0.994171 -0.0317974 0.298936 -0.0340347 0.933062 -0.195144 -0.025472 -0.0178356 1.08699)
(1.00359 -0.0193619 0.328281 -0.0215992 0.923647 -0.140269 -0.021988 -0.021988 1.08699)
(1.00818 -0.00445624 0.347651 -0.00669348 0.919052 -0.0811325 -0.0178357 -0.0254721 1.08699)
(1.0074 0.0111216 0.356458 0.00888455 0.919833 -0.0195309 -0.0131416 -0.0281821 1.08699)
(1.00134 0.0254932 0.354434 0.0232561 0.925895 0.0426643 -0.00804809 -0.0300359 1.08699)
(0.990726 0.0369248 0.341641 0.0346877 0.936506 0.103563 -0.00271013 -0.0309772 1.08699)
(0.976845 0.0440377 0.318467 0.0418004 0.950388 0.161315 0.00271019 -0.0309773 1.08699)
(0.961368 0.045974 0.285617 0.0437365 0.965865 0.214165 0.00804824 -0.0300363 1.08699)
(0.946162 0.0425 0.244088 0.0402626 0.98107 0.260509 0.0131416 -0.0281823 1.08699)
(0.933062 0.0340347 0.195144 0.0317974 0.994171 0.298936 0.0178356 -0.025472 1.08699)
(0.923647 0.0215992 0.140269 0.0193619 1.00359 0.328281 0.021988 -0.021988 1.08699)
(0.919052 0.00669349 0.0811324 0.00445625 1.00818 0.347651 0.0254721 -0.0178357 1.08699)
(0.919833 -0.00888455 0.0195309 -0.0111216 1.0074 0.356458 0.0281821 -0.0131416 1.08699)
(0.925895 -0.0232561 -0.0426643 -0.0254932 1.00134 0.354434 0.0300359 -0.00804809 1.08699)
(0.936506 -0.0346877 -0.103563 -0.0369248 0.990726 0.341641 0.0309772 -0.00271013 1.08699)
(0.950388 -0.0418004 -0.161315 -0.0440376 0.976845 0.318467 0.0309773 0.00271019 1.08699)
(0.965865 -0.0437365 -0.214165 -0.0459739 0.961368 0.285617 0.0300363 0.00804824 1.08699)
(0.98107 -0.0402626 -0.260509 -0.0425 0.946162 0.244088 0.0281823 0.0131416 1.08699)
(0.994171 -0.0317974 -0.298936 -0.0340347 0.933062 0.195144 0.025472 0.0178356 1.08699)
(1.00359 -0.0193619 -0.328281 -0.0215992 0.923647 0.140269 0.021988 0.021988 1.08699)
(1.00818 -0.00445625 -0.347651 -0.00669348 0.919052 0.0811324 0.0178357 0.0254721 1.08699)
(1.0074 0.0111216 -0.356458 0.00888455 0.919833 0.0195309 0.0131416 0.0281821 1.08699)
(1.00134 0.0254932 -0.354434 0.0232561 0.925895 -0.0426643 0.0080481 0.0300359 1.08699)
(0.990726 0.0369248 -0.341641 0.0346877 0.936506 -0.103563 0.00271013 0.0309772 1.08699)
(0.976845 0.0440376 -0.318467 0.0418004 0.950388 -0.161315 -0.00271019 0.0309773 1.08699)
(0.961368 0.0459739 -0.285617 0.0437365 0.965865 -0.214165 -0.00804824 0.0300363 1.08699)
(0.946162 0.0425 -0.244088 0.0402626 0.98107 -0.260509 -0.0131416 0.0281823 1.08699)
(0.933062 0.0340346 -0.195144 0.0317974 0.994171 -0.298936 -0.0178356 0.025472 1.08699)
(0.923647 0.0215992 -0.140269 0.0193619 1.00359 -0.328281 -0.021988 0.021988 1.08699)
(0.919052 0.00669348 -0.0811325 0.00445624 1.00818 -0.347651 -0.0254721 0.0178357 1.08699)
(0.919833 -0.00888455 -0.0195309 -0.0111216 1.0074 -0.356458 -0.0281821 0.0131416 1.08699)
(0.925895 -0.0232561 0.0426643 -0.0254932 1.00134 -0.354434 -0.0300359 0.00804809 1.08699)
(0.936506 -0.0346877 0.103563 -0.0369248 0.990726 -0.341641 -0.0309772 0.00271013 1.08699)
(0.963563 -0.0520332 0.172647 -0.042982 0.979923 -0.355639 -0.0306746 -0.00268363 1.05946)
(0.980305 -0.0519659 0.23178 -0.0429148 0.963181 -0.320257 -0.0297428 -0.00796956 1.05946)
(0.996014 -0.0461767 0.28387 -0.0371255 0.947472 -0.275143 -0.0279069 -0.0130132 1.05946)
(1.0088 -0.0353638 0.327336 -0.0263124 0.93469 -0.22167 -0.0252232 -0.0176614 1.05946)
(1.01711 -0.0208312 0.360855 -0.0117798 0.926377 -0.161461 -0.0217731 -0.0217731 1.05946)
(1.01995 -0.00433187 0.383411 0.00471964 0.923537 -0.0963455 -0.0176614 -0.0252232 1.05946)
(1.01698 0.0121438 0.394316 0.0211954 0.92651 -0.0283032 -0.0130131 -0.0279068 1.05946)
(1.00855 0.0266092 0.39324 0.0356607 0.934939 0.040599 -0.00796943 -0.0297424 1.05946)
(0.995678 0.0373192 0.380216 0.0463706 0.947808 0.108268 -0.00268372 -0.0306746 1.05946)
(0.979923 0.042982 0.355639 0.0520332 0.963563 0.172647 0.00268362 -0.0306746 1.05946)
(0.963181 0.0429148 0.320257 0.0519659 0.980305 0.23178 0.00796955 -0.0297428 1.05946)
(0.947472 0.0371255 0.275143 0.0461767 0.996014 0.28387 0.0130132 -0.0279069 1.05946)
(0.93469 0.0263124 0.221669 0.0353638 1.0088 0.327336 0.0176614 -0.0252232 1.05946)
(0.926377 0.0117798 0.161461 0.0208312 1.01711 0.360855 0.0217731 -0.0217731 1.05946)
(0.923537 -0.00471963 0.0963455 0.00433188 1.01995 0.383411 0.0252232 -0.0176614 1.05946)
(0.92651 -0.0211954 0.0283032 -0.0121438 1.01698 0.394316 0.0279068 -0.0130131 1.05946)
(0.934939 -0.0356607 -0.040599 -0.0266092 1.00855 0.39324 0.0297424 -0.00796943 1.05946)
(0.947808 -0.0463706 -0.108268 -0.0373192 0.995678 0.380216 0.0306746 -0.00268372 1.05946)
(0.963563 -0.0520332 -0.172647 -0.042982 0.979923 0.355639 0.0306746 0.00268362 1.05946)
(0.980305 -0.0519659 -0.23178 -0.0429148 0.963181 0.320257 0.0297428 0.00796955 1.05946)
(0.996014 -0.0461767 -0.283871 -0.0371255 0.947472 0.275143 0.0279069 0.0130132 1.05946)
(1.0088 -0.0353638 -0.327336 -0.0263124 0.93469 0.221669 0.0252232 0.0176614 1.05946)
(1.01711 -0.0208312 -0.360855 -0.0117798 0.926377 0.161461 0.0217731 0.0217731 1.05946)
(1.01995 -0.00433188 -0.383411 0.00471964 0.923537 0.0963455 0.0176614 0.0252232 1.05946)
(1.01698 0.0121438 -0.394316 0.0211954 0.92651 0.0283032 0.0130131 0.0279068 1.05946)
(1.00855 0.0266092 -0.39324 0.0356607 0.934939 -0.040599 0.00796943 0.0297424 1.05946)
(0.995678 0.0373192 -0.380216 0.0463706 0.947808 -0.108268 0.00268372 0.0306746 1.05946)
(0.979923 0.042982 -0.355639 0.0520332 0.963563 -0.172647 -0.00268362 0.0306746 1.05946)
(0.963181 0.0429148 -0.320257 0.0519659 0.980305 -0.23178 -0.00796955 0.0297428 1.05946)
(0.947472 0.0371255 -0.275143 0.0461767 0.996014 -0.283871 -0.0130132 0.0279069 1.05946)
(0.93469 0.0263124 -0.221669 0.0353638 1.0088 -0.327336 -0.0176614 0.0252231 1.05946)
(0.926377 0.0117798 -0.161461 0.0208312 1.01711 -0.360855 -0.0217731 0.0217731 1.05946)
(0.923537 -0.00471964 -0.0963455 0.00433187 1.01995 -0.383411 -0.0252232 0.0176614 1.05946)
(0.92651 -0.0211954 -0.0283032 -0.0121438 1.01698 -0.394316 -0.0279068 0.0130131 1.05946)
(0.934939 -0.0356607 0.040599 -0.0266092 1.00855 -0.39324 -0.0297424 0.00796943 1.05946)
(0.947808 -0.0463706 0.108268 -0.0373192 0.995678 -0.380216 -0.0306746 0.00268372 1.05946)
(0.956434 -0.088991 0.15319 -0.113416 0.933509 -0.286564 -0.0846382 -0.00740508 1.13073)
(0.990356 -0.0789674 0.200624 -0.103392 0.899587 -0.255609 -0.0820667 -0.0219898 1.13073)
(1.0188 -0.0579464 0.241962 -0.0823714 0.871139 -0.216888 -0.0770017 -0.0359061 1.13073)
(1.03835 -0.0284631 0.275949 -0.0528878 0.851596 -0.171577 -0.0695962 -0.0487313 1.13073)
(1.04663 0.00592642 0.30155 -0.0184979 0.843316 -0.121052 -0.0600764 -0.0600764 1.13073)
(1.04265 0.0410741 0.31799 0.0166498 0.847297 -0.0668495 -0.0487317 -0.0695962 1.13073)
(1.02689 0.0727403 0.324767 0.0483161 0.863058 -0.0106156 -0.0359061 -0.0770009 1.13073)
(1.00124 0.0971062 0.321676 0.072682 0.8887 0.0459409 -0.0219894 -0.0820662 1.13073)
(0.968814 0.111233 0.308812 0.0868082 0.921129 0.101102 -0.00740472 -0.0846381 1.13073)
(0.933509 0.113416 0.286564 0.088991 0.956434 0.15319 0.00740507 -0.0846381 1.13073)
(0.899587 0.103392 0.255609 0.0789674 0.990356 0.200624 0.0219898 -0.0820667 1.13073)
(0.871139 0.0823714 0.216888 0.0579464 1.0188 0.241962 0.0359061 -0.0770016 1.13073)
(0.851596 0.0528878 0.171577 0.0284631 1.03835 0.275949 0.0487313 -0.0695962 1.13073)
(0.843316 0.0184979 0.121052 -0.00592642 1.04663 0.30155 0.0600764 -0.0600764 1.13073)
(0.847297 -0.0166498 0.0668495 -0.0410741 1.04265 0.31799 0.0695962 -0.0487317 1.13073)
(0.863058 -0.0483161 0.0106156 -0.0727403 1.02689 0.324767 0.0770009 -0.0359061 1.13073)
(0.8887 -0.072682 -0.045941 -0.0971062 1.00124 0.321676 0.0820662 -0.0219894 1.13073)
(0.921129 -0.0868082 -0.101102 -0.111233 0.968814 0.308812 0.0846381 -0.00740472 1.13073)
(0.956434 -0.088991 -0.15319 -0.113416 0.933509 0.286564 0.0846381 0.00740507 1.13073)
(0.990356 -0.0789674 -0.200624 -0.103392 0.899587 0.255609 0.0820667 0.0219898 1.13073)
(1.0188 -0.0579464 -0.241962 -0.0823714 0.871139 0.216888 0.0770016 0.035906 1.13073)
(1.03835 -0.0284631 -0.275949 -0.0528878 0.851596 0.171577 0.0695962 0.0487313 1.13073)
(1.04663 0.00592642 -0.30155 -0.0184979 0.843316 0.121052 0.0600764 0.0600764 1.13073)
(1.04265 0.0410741 -0.31799 0.0166498 0.847297 0.0668495 0.0487317 0.0695962 1.13073)
(1.02689 0.0727403 -0.324767 0.0483161 0.863058 0.0106156 0.0359061 0.0770009 1.13073)
(1.00124 0.0971062 -0.321676 0.072682 0.8887 -0.045941 0.0219894 0.0820662 1.13073)
(0.968814 0.111233 -0.308812 0.0868082 0.921129 -0.101102 0.00740472 0.0846381 1.13073)
(0.933509 0.113416 -0.286564 0.088991 0.956434 -0.15319 -0.00740507 0.0846381 1.13073)
(0.899587 0.103392 -0.255609 0.0789674 0.990356 -0.200624 -0.0219898 0.0820667 1.13073)
(0.871139 0.0823714 -0.216888 0.0579464 1.0188 -0.241962 -0.035906 0.0770016 1.13073)
(0.851596 0.0528878 -0.171577 0.0284631 1.03835 -0.275949 -0.0487313 0.0695962 1.13073)
(0.843316 0.0184979 -0.121052 -0.00592642 1.04663 -0.30155 -0.0600764 0.0600764 1.13073)
(0.847297 -0.0166498 -0.0668495 -0.0410741 1.04265 -0.31799 -0.0695962 0.0487317 1.13073)
(0.863058 -0.0483162 -0.0106156 -0.0727403 1.02689 -0.324767 -0.0770009 0.0359061 1.13073)
(0.8887 -0.072682 0.0459409 -0.0971062 1.00124 -0.321676 -0.0820662 0.0219894 1.13073)
(0.921129 -0.0868082 0.101102 -0.111233 0.968814 -0.308812 -0.0846381 0.00740471 1.13073)
(0.972948 -0.1119 0.162637 -0.112852 0.932985 -0.320348 -0.0844316 -0.00738689 1.10585)
(1.01018 -0.0982884 0.215794 -0.0992407 0.895756 -0.28724 -0.0818665 -0.0219361 1.10585)
(1.04051 -0.0727649 0.262394 -0.0737172 0.865427 -0.245404 -0.0768136 -0.0358186 1.10585)
(1.06028 -0.0384078 0.301021 -0.0393595 0.845656 -0.196112 -0.0694263 -0.0486126 1.10585)
(1.0671 0.000639726 0.330503 -0.00031172 0.838829 -0.14086 -0.0599299 -0.0599298 1.10585)
(1.06017 0.0396675 0.349942 0.038716 0.845768 -0.0813291 -0.0486127 -0.0694263 1.10585)
(1.0403 0.0739679 0.358748 0.0730165 0.865638 -0.0193268 -0.0358185 -0.076813 1.10585)
(1.00989 0.0994044 0.356654 0.0984527 0.89604 0.043263 -0.0219358 -0.0818659 1.10585)
(0.972625 0.112909 0.343723 0.111957 0.933309 0.104538 -0.00738674 -0.0844315 1.10585)
(0.932985 0.112852 0.320348 0.1119 0.972948 0.162637 0.00738689 -0.0844316 1.10585)
(0.895756 0.0992407 0.28724 0.0982884 1.01018 0.215794 0.0219361 -0.0818665 1.10585)
(0.865427 0.0737172 0.245404 0.0727649 1.04051 0.262394 0.0358186 -0.0768136 1.10585)
(0.845656 0.0393595 0.196112 0.0384078 1.06028 0.301021 0.0486126 -0.0694263 1.10585)
(0.838829 0.000311725 0.14086 -0.000639723 1.0671 0.330503 0.0599298 -0.0599299 1.10585)
(0.845768 -0.038716 0.0813291 -0.0396675 1.06017 0.349942 0.0694263 -0.0486127 1.10585)
(0.865638 -0.0730165 0.0193268 -0.0739679 1.0403 0.358748 0.076813 -0.0358185 1.10585)
(0.89604 -0.0984527 -0.043263 -0.0994044 1.00989 0.356654 0.0818659 -0.0219358 1.10585)
(0.933309 -0.111957 -0.104538 -0.112909 0.972625 0.343723 0.0844315 -0.00738675 1.10585)
(0.972948 -0.1119 -0.162637 -0.112852 0.932985 0.320348 0.0844316 0.00738688 1.10585)
(1.01018 -0.0982884 -0.215794 -0.0992407 0.895756 0.28724 0.0818665 0.0219361 1.10585)
(1.04051 -0.0727649 -0.262394 -0.0737172 0.865427 0.245404 0.0768136 0.0358186 1.10585)
(1.06028 -0.0384078 -0.301021 -0.0393595 0.845656 0.196112 0.0694263 0.0486126 1.10585)
(1.0671 0.000639722 -0.330503 -0.000311721 0.838829 0.14086 0.0599299 0.0599298 1.10585)
(1.06017 0.0396675 -0.349942 0.038716 0.845768 0.0813291 0.0486127 0.0694263 1.10585)
(1.0403 0.0739679 -0.358748 0.0730165 0.865638 0.0193268 0.0358185 0.076813 1.10585)
(1.00989 0.0994044 -0.356654 0.0984527 0.89604 -0.043263 0.0219358 0.0818659 1.10585)
(0.972625 0.112909 -0.343723 0.111957 0.933309 -0.104538 0.00738675 0.0844315 1.10585)
(0.932985 0.112852 -0.320348 0.1119 0.972948 -0.162637 -0.00738688 0.0844316 1.10585)
(0.895756 0.0992407 -0.28724 0.0982884 1.01018 -0.215794 -0.0219361 0.0818665 1.10585)
(0.865427 0.0737172 -0.245404 0.0727649 1.04051 -0.262394 -0.0358186 0.0768136 1.10585)
(0.845656 0.0393595 -0.196112 0.0384078 1.06028 -0.301021 -0.0486126 0.0694263 1.10585)
(0.838829 0.000311713 -0.14086 -0.000639723 1.0671 -0.330503 -0.0599298 0.0599299 1.10585)
(0.845768 -0.038716 -0.0813291 -0.0396675 1.06017 -0.349942 -0.0694263 0.0486127 1.10585)
(0.865638 -0.0730165 -0.0193268 -0.0739679 1.0403 -0.358748 -0.076813 0.0358185 1.10585)
(0.89604 -0.0984527 0.043263 -0.0994044 1.00989 -0.356654 -0.0818659 0.0219358 1.10585)
(0.933309 -0.111957 0.104538 -0.112909 0.972625 -0.343723 -0.0844315 0.00738674 1.10585)
(0.990924 -0.140537 0.175251 -0.109403 0.928607 -0.352351 -0.0828287 -0.00724651 1.08172)
(1.03179 -0.122344 0.233774 -0.0912098 0.887744 -0.316566 -0.0803124 -0.0215196 1.08172)
(1.06396 -0.0912715 0.285193 -0.0601375 0.855568 -0.271162 -0.0753552 -0.0351388 1.08172)
(1.08357 -0.0510683 0.327947 -0.019934 0.835959 -0.217519 -0.0681083 -0.04769 1.08172)
(1.08825 -0.0065831 0.360737 0.0245515 0.831283 -0.157267 -0.0587923 -0.0587922 1.08172)
(1.07743 0.0368187 0.382566 0.0679534 0.842105 -0.0922367 -0.0476899 -0.0681083 1.08172)
(1.05241 0.0739018 0.39277 0.105037 0.867118 -0.0244035 -0.0351385 -0.0753548 1.08172)
(1.01623 0.100194 0.391041 0.131328 0.903305 0.0441712 -0.0215195 -0.0803118 1.08172)
(0.973228 0.112523 0.37743 0.143658 0.946303 0.111404 -0.0072466 -0.0828287 1.08172)
(0.928607 0.109403 0.352351 0.140537 0.990924 0.175251 0.0072465 -0.0828287 1.08172)
(0.887744 0.0912098 0.316566 0.122344 1.03179 0.233774 0.0215196 -0.0803124 1.08172)
(0.855568 0.0601375 0.271162 0.0912715 1.06396 0.285193 0.0351388 -0.0753552 1.08172)
(0.835959 0.019934 0.217519 0.0510683 1.08357 0.327947 0.04769 -0.0681083 1.08172)
(0.831283 -0.0245515 0.157267 0.0065831 1.08825 0.360737 0.0587922 -0.0587923 1.08172)
(0.842105 -0.0679534 0.0922367 -0.0368187 1.07743 0.382566 0.0681083 -0.0476899 1.08172)
(0.867118 -0.105037 0.0244035 -0.0739018 1.05241 0.39277 0.0753548 -0.0351385 1.08172)
(0.903305 -0.131328 -0.0441712 -0.100194 1.01623 0.391041 0.0803118 -0.0215195 1.08172)
(0.946303 -0.143658 -0.111404 -0.112523 0.973228 0.37743 0.0828287 -0.00724661 1.08172)
(0.990924 -0.140537 -0.175251 -0.109403 0.928607 0.352351 0.0828287 0.0072465 1.08172)
(1.03179 -0.122344 -0.233774 -0.0912098 0.887744 0.316566 0.0803124 0.0215196 1.08172)
(1.06396 -0.0912715 -0.285193 -0.0601375 0.855568 0.271162 0.0753552 0.0351388 1.08172)
(1.08357 -0.0510683 -0.327947 -0.019934 0.835959 0.217519 0.0681083 0.04769 1.08172)
(1.08825 -0.0065831 -0.360737 0.0245515 0.831283 0.157267 0.0587923 0.0587922 1.08172)
(1.07743 0.0368187 -0.382566 0.0679534 0.842105 0.0922367 0.0476899 0.0681083 1.08172)
(1.05241 0.0739018 -0.39277 0.105037 0.867118 0.0244035 0.0351385 0.0753548 1.08172)
(1.01623 0.100194 -0.391041 0.131328 0.903305 -0.0441712 0.0215195 0.0803118 1.08172)
(0.973228 0.112523 -0.37743 0.143658 0.946303 -0.111404 0.00724661 0.0828287 1.08172)
(0.928607 0.109403 -0.352351 0.140537 0.990924 -0.175251 -0.0072465 0.0828287 1.08172)
(0.887744 0.0912098 -0.316566 0.122344 1.03179 -0.233774 -0.0215196 0.0803124 1.08172)
(0.855568 0.0601375 -0.271162 0.0912715 1.06396 -0.285193 -0.0351388 0.0753552 1.08172)
(0.835959 0.019934 -0.217519 0.0510683 1.08357 -0.327947 -0.04769 0.0681083 1.08172)
(0.831283 -0.0245515 -0.157267 0.0065831 1.08825 -0.360737 -0.0587922 0.0587922 1.08172)
(0.842105 -0.0679534 -0.0922367 -0.0368187 1.07743 -0.382566 -0.0681083 0.0476899 1.08172)
(0.867118 -0.105037 -0.0244035 -0.0739018 1.05241 -0.39277 -0.0753548 0.0351385 1.08172)
(0.903305 -0.131328 0.0441712 -0.100194 1.01623 -0.391041 -0.0803118 0.0215195 1.08172)
(0.946303 -0.143658 0.111404 -0.112523 0.973228 -0.37743 -0.0828287 0.0072466 1.08172)
(0.981177 -0.144627 0.149943 -0.166657 0.8977 -0.28834 -0.125511 -0.0109809 1.16481)
(1.03189 -0.120965 0.197735 -0.142995 0.846984 -0.257923 -0.121698 -0.0326088 1.16481)
(1.07146 -0.0813849 0.239519 -0.103415 0.80742 -0.219668 -0.114186 -0.0532456 1.16481)
(1.0951 -0.0306597 0.274025 -0.0526896 0.783779 -0.174738 -0.103205 -0.0722646 1.16481)
(1.09996 0.0250921 0.300204 0.00306255 0.778913 -0.1245 -0.0890883 -0.089088 1.16481)
(1.08547 0.0791461 0.317263 0.0571166 0.793409 -0.0704784 -0.0722647 -0.103205 1.16481)
(1.05336 0.124982 0.324681 0.102953 0.825518 -0.0143155 -0.0532454 -0.114185 1.16481)
(1.00751 0.157073 0.322235 0.135043 0.871368 0.0422823 -0.0326082 -0.121697 1.16481)
(0.953449 0.171546 0.309997 0.149516 0.925427 0.0975953 -0.0109804 -0.125511 1.16481)
(0.8977 0.166657 0.28834 0.144627 0.981177 0.149943 0.0109809 -0.125511 1.16481)
(0.846984 0.142995 0.257923 0.120965 1.03189 0.197735 0.0326087 -0.121697 1.16481)
(0.80742 0.103415 0.219668 0.0813849 1.07146 0.239519 0.0532456 -0.114186 1.16481)
(0.783779 0.0526896 0.174738 0.0306597 1.0951 0.274025 0.0722646 -0.103205 1.16481)
(0.778913 -0.00306254 0.1245 -0.0250921 1.09996 0.300204 0.089088 -0.0890883 1.16481)
(0.793409 -0.0571166 0.0704784 -0.0791461 1.08547 0.317263 0.103205 -0.0722647 1.16481)
(0.825518 -0.102953 0.0143155 -0.124982 1.05336 0.324681 0.114185 -0.0532454 1.16481)
(0.871368 -0.135043 -0.0422823 -0.157073 1.00751 0.322235 0.121697 -0.0326082 1.16481)
(0.925427 -0.149516 -0.0975954 -0.171546 0.953449 0.309997 0.125511 -0.0109804 1.16481)
(0.981177 -0.144627 -0.149943 -0.166657 0.8977 0.28834 0.125511 0.0109809 1.16481)
(1.03189 -0.120965 -0.197735 -0.142995 0.846984 0.257923 0.121698 0.0326087 1.16481)
(1.07146 -0.0813849 -0.239519 -0.103415 0.80742 0.219668 0.114186 0.0532456 1.16481)
(1.0951 -0.0306597 -0.274025 -0.0526896 0.783779 0.174738 0.103205 0.0722646 1.16481)
(1.09996 0.0250921 -0.300204 0.00306254 0.778913 0.1245 0.0890883 0.089088 1.16481)
(1.08547 0.0791461 -0.317263 0.0571166 0.793409 0.0704784 0.0722648 0.103205 1.16481)
(1.05336 0.124982 -0.324681 0.102953 0.825518 0.0143155 0.0532454 0.114185 1.16481)
(1.00751 0.157073 -0.322235 0.135043 0.871368 -0.0422823 0.0326082 0.121697 1.16481)
(0.953449 0.171546 -0.309997 0.149516 0.925427 -0.0975954 0.0109804 0.125511 1.16481)
(0.8977 0.166657 -0.28834 0.144627 0.981177 -0.149943 -0.0109809 0.125511 1.16481)
(0.846984 0.142995 -0.257923 0.120965 1.03189 -0.197735 -0.0326087 0.121697 1.16481)
(0.80742 0.103415 -0.219668 0.0813849 1.07146 -0.239519 -0.0532456 0.114186 1.16481)
(0.783779 0.0526896 -0.174738 0.0306597 1.0951 -0.274025 -0.0722646 0.103205 1.16481)
(0.778913 -0.00306255 -0.1245 -0.0250921 1.09996 -0.300204 -0.089088 0.0890883 1.16481)
(0.793409 -0.0571166 -0.0704784 -0.079146 1.08547 -0.317263 -0.103205 0.0722647 1.16481)
(0.825518 -0.102953 -0.0143155 -0.124982 1.05336 -0.324681 -0.114185 0.0532454 1.16481)
(0.871368 -0.135043 0.0422823 -0.157073 1.00751 -0.322235 -0.121697 0.0326082 1.16481)
(0.925427 -0.149516 0.0975953 -0.171546 0.953449 -0.309997 -0.125511 0.0109804 1.16481)
(1.00134 -0.179971 0.162159 -0.163622 0.89169 -0.310632 -0.12482 -0.0109204 1.14667)
(1.05679 -0.150859 0.213636 -0.134511 0.836239 -0.277755 -0.121027 -0.0324292 1.14667)
(1.09894 -0.104537 0.258622 -0.0881891 0.794088 -0.236437 -0.113557 -0.0529526 1.14667)
(1.12271 -0.046593 0.29575 -0.0302446 0.770323 -0.187936 -0.102637 -0.0718668 1.14667)
(1.12522 0.0159854 0.323891 0.032334 0.767809 -0.133724 -0.0885977 -0.0885975 1.14667)
(1.10618 0.0756498 0.342192 0.0919986 0.786849 -0.0754497 -0.0718667 -0.102636 1.14667)
(1.06788 0.125204 0.350095 0.141553 0.825148 -0.0148826 -0.0529523 -0.113557 1.14667)
(1.01495 0.15867 0.34736 0.175019 0.878085 0.0461369 -0.0324288 -0.121027 1.14667)
(0.953755 0.172013 0.334072 0.188362 0.939276 0.105755 -0.0109202 -0.12482 1.14667)
(0.89169 0.163622 0.310632 0.179971 1.00134 0.162159 0.0109204 -0.12482 1.14667)
(0.836239 0.134511 0.277755 0.150859 1.05679 0.213636 0.0324292 -0.121027 1.14667)
(0.794088 0.0881891 0.236437 0.104537 1.09894 0.258622 0.0529526 -0.113557 1.14667)
(0.770323 0.0302446 0.187936 0.046593 1.12271 0.29575 0.0718668 -0.102637 1.14667)
(0.767809 -0.032334 0.133724 -0.0159854 1.12522 0.323891 0.0885975 -0.0885977 1.14667)
(0.786849 -0.0919986 0.0754497 -0.0756498 1.10618 0.342192 0.102636 -0.0718667 1.14667)
(0.825148 -0.141553 0.0148825 -0.125204 1.06788 0.350095 0.113557 -0.0529523 1.14667)
(0.878085 -0.175019 -0.0461369 -0.15867 1.01495 0.34736 0.121027 -0.0324288 1.14667)
(0.939276 -0.188362 -0.105755 -0.172013 0.953755 0.334072 0.12482 -0.0109202 1.14667)
(1.00134 -0.179971 -0.162159 -0.163622 0.89169 0.310632 0.12482 0.0109204 1.14667)
(1.05679 -0.150859 -0.213636 -0.134511 0.836239 0.277755 0.121027 0.0324292 1.14667)
(1.09894 -0.104537 -0.258622 -0.0881891 0.794088 0.236437 0.113557 0.0529526 1.14667)
(1.12271 -0.046593 -0.29575 -0.0302446 0.770323 0.187936 0.102637 0.0718668 1.14667)
(1.12522 0.0159854 -0.323891 0.032334 0.767809 0.133724 0.0885977 0.0885975 1.14667)
(1.10618 0.0756498 -0.342192 0.0919986 0.786849 0.0754497 0.0718667 0.102636 1.14667)
(1.06788 0.125204 -0.350095 0.141553 0.825148 0.0148825 0.0529523 0.113557 1.14667)
(1.01495 0.15867 -0.34736 0.175019 0.878085 -0.0461369 0.0324288 0.121027 1.14667)
(0.953755 0.172013 -0.334072 0.188362 0.939276 -0.105755 0.0109202 0.12482 1.14667)
(0.89169 0.163622 -0.310632 0.179971 1.00134 -0.162159 -0.0109204 0.12482 1.14667)
(0.836239 0.134511 -0.277755 0.150859 1.05679 -0.213636 -0.0324292 0.121027 1.14667)
(0.794088 0.0881891 -0.236437 0.104537 1.09894 -0.258622 -0.0529526 0.113557 1.14667)
(0.770323 0.0302446 -0.187936 0.046593 1.12271 -0.29575 -0.0718668 0.102637 1.14667)
(0.767809 -0.032334 -0.133724 -0.0159854 1.12522 -0.323891 -0.0885975 0.0885977 1.14667)
(0.786849 -0.0919986 -0.0754497 -0.0756498 1.10618 -0.342192 -0.102636 0.0718667 1.14667)
(0.825148 -0.141553 -0.0148826 -0.125204 1.06788 -0.350095 -0.113557 0.0529523 1.14667)
(0.878085 -0.175019 0.0461369 -0.15867 1.01495 -0.34736 -0.121027 0.0324288 1.14667)
(0.939276 -0.188362 0.105755 -0.172013 0.953755 -0.334072 -0.12482 0.0109202 1.14667)
(1.02284 -0.223362 0.17702 -0.155828 0.880014 -0.329665 -0.122315 -0.0107011 1.1293)
(1.08338 -0.187503 0.231576 -0.11997 0.819475 -0.293918 -0.118599 -0.0317785 1.1293)
(1.128 -0.133102 0.279096 -0.0655685 0.774852 -0.24924 -0.111279 -0.0518902 1.1293)
(1.15132 -0.0667202 0.318136 0.000813986 0.751526 -0.196989 -0.100577 -0.0704249 1.1293)
(1.15054 0.0036368 0.347509 0.0711714 0.752311 -0.138752 -0.0868198 -0.0868198 1.1293)
(1.12574 0.0694825 0.366324 0.137017 0.777112 -0.0762998 -0.0704246 -0.100577 1.1293)
(1.07991 0.122875 0.374008 0.190409 0.822938 -0.0115291 -0.0518897 -0.111278 1.1293)
(1.01859 0.157373 0.370328 0.224908 0.884261 0.0535919 -0.0317783 -0.118598 1.1293)
(0.949166 0.168818 0.355396 0.236352 0.953685 0.117085 -0.0107012 -0.122315 1.1293)
(0.880014 0.155828 0.329665 0.223362 1.02284 0.17702 0.0107011 -0.122315 1.1293)
(0.819475 0.11997 0.293918 0.187503 1.08338 0.231576 0.0317785 -0.118599 1.1293)
(0.774852 0.0655685 0.24924 0.133102 1.128 0.279096 0.0518901 -0.111279 1.1293)
(0.751526 -0.000813975 0.196989 0.0667202 1.15132 0.318136 0.0704249 -0.100577 1.1293)
(0.752311 -0.0711714 0.138752 -0.00363679 1.15054 0.347509 0.0868198 -0.0868198 1.1293)
(0.777112 -0.137017 0.0762998 -0.0694824 1.12574 0.366324 0.100577 -0.0704246 1.1293)
(0.822938 -0.190409 0.011529 -0.122875 1.07991 0.374008 0.111278 -0.0518897 1.1293)
(0.884261 -0.224908 -0.0535919 -0.157373 1.01859 0.370328 0.118598 -0.0317783 1.1293)
(0.953685 -0.236352 -0.117085 -0.168818 0.949166 0.355396 0.122315 -0.0107012 1.1293)
(1.02284 -0.223362 -0.17702 -0.155828 0.880014 0.329665 0.122315 0.0107011 1.1293)
(1.08338 -0.187503 -0.231576 -0.11997 0.819475 0.293918 0.118599 0.0317784 1.1293)
(1.128 -0.133102 -0.279096 -0.0655685 0.774852 0.24924 0.111279 0.0518901 1.1293)
(1.15132 -0.0667202 -0.318136 0.000813978 0.751526 0.196989 0.100577 0.0704249 1.1293)
(1.15054 0.00363679 -0.347509 0.0711714 0.752311 0.138752 0.0868198 0.0868198 1.1293)
(1.12574 0.0694824 -0.366324 0.137017 0.777112 0.0762998 0.0704246 0.100577 1.1293)
(1.07991 0.122875 -0.374008 0.190409 0.822938 0.011529 0.0518897 0.111278 1.1293)
(1.01859 0.157373 -0.370328 0.224908 0.884261 -0.0535919 0.0317783 0.118598 1.1293)
(0.949166 0.168818 -0.355396 0.236352 0.953685 -0.117085 0.0107012 0.122315 1.1293)
(0.880014 0.155828 -0.329665 0.223362 1.02284 -0.17702 -0.0107011 0.122315 1.1293)
(0.819475 0.11997 -0.293918 0.187503 1.08338 -0.231576 -0.0317784 0.118599 1.1293)
(0.774852 0.0655685 -0.24924 0.133102 1.128 -0.279096 -0.0518901 0.111279 1.1293)
(0.751526 -0.000813985 -0.196989 0.0667202 1.15132 -0.318136 -0.0704249 0.100577 1.1293)
(0.752311 -0.0711714 -0.138752 -0.00363679 1.15054 -0.347509 -0.0868198 0.0868198 1.1293)
(0.777112 -0.137017 -0.0762998 -0.0694824 1.12574 -0.366324 -0.100577 0.0704246 1.1293)
(0.822938 -0.190409 -0.0115291 -0.122875 1.07991 -0.374008 -0.111278 0.0518897 1.1293)
(0.884261 -0.224908 0.0535919 -0.157373 1.01859 -0.370328 -0.118598 0.0317783 1.1293)
(0.953685 -0.236352 0.117085 -0.168818 0.949165 -0.355396 -0.122315 0.0107012 1.1293)
(1.01216 -0.20245 0.146672 -0.191004 0.865016 -0.284155 -0.151859 -0.0132863 1.1947)
(1.07501 -0.165423 0.193787 -0.153977 0.802168 -0.254368 -0.147245 -0.0394543 1.1947)
(1.1214 -0.109133 0.235014 -0.0976878 0.755775 -0.216853 -0.138157 -0.0644235 1.1947)
(1.14574 -0.0403714 0.269099 -0.0289257 0.731431 -0.172749 -0.124871 -0.0874353 1.1947)
(1.1451 0.0325697 0.295008 0.0440156 0.732074 -0.123396 -0.107791 -0.10779 1.1947)
(1.11955 0.100892 0.311954 0.112338 0.757625 -0.0702933 -0.0874353 -0.12487 1.1947)
(1.07217 0.156355 0.319421 0.167801 0.805003 -0.015055 -0.0644234 -0.138156 1.1947)
(1.00868 0.192269 0.317183 0.203716 0.868493 0.0406406 -0.0394537 -0.147244 1.1947)
(0.936737 0.204303 0.305307 0.215749 0.940438 0.0951013 -0.0132855 -0.151859 1.1947)