/*--------------------------------*- C++ -*----------------------------------*\
| =========                 |                                                 |
| \\      /  F ield         | OpenFOAM: The Open Source CFD Toolbox           |
|  \\    /   O peration     | Version:  2312                                  |
|   \\  /    A nd           | Website:  www.openfoam.com                      |
|    \\/     M anipulation  |                                                 |
\*---------------------------------------------------------------------------*/
FoamFile
{
    version     2.0;
    format      ascii;
    arch        "LSB;label=32;scalar=64";
    class       volSymmTensorField;
    location    "0.5";
    object      sigma;
}
// * * * * * * * * * * * * * * * * * * * * * * * * * * * * * * * * * * * * * //

dimensions      [1 -1 -2 0 0 0 0];

internalField   nonuniform List<symmTensor> 
1620
(
(19238.8 -2014.76 -895.724 35485.3 13182.7 33283.2)
(20417.8 -4671.56 -3171.25 34306.4 12826.9 33283.2)
(22434.4 -6764.96 -5350.48 32289.8 12081.4 33283.2)
(25045.2 -8042.33 -7367.11 29678.7 10968.7 33283.1)
(27935.5 -8349.68 -9159.86 26788.4 9522.82 33283.1)
(30756.7 -7649.99 -10674.3 23967.3 7787.57 33283.2)
(33168.5 -6027.61 -11864.4 21555.6 5815.67 33283.1)
(34879.9 -3678.17 -12694.1 19844.2 3667.08 33283.2)
(35684.6 -885.087 -13138 19039.6 1407.06 33283.2)
(35485.3 2014.76 -13182.7 19238.8 -895.724 33283.2)
(34306.4 4671.56 -12826.9 20417.8 -3171.25 33283.2)
(32289.8 6764.96 -12081.4 22434.4 -5350.48 33283.2)
(29678.7 8042.33 -10968.7 25045.2 -7367.11 33283.1)
(26788.4 8349.68 -9522.82 27935.5 -9159.86 33283.1)
(23967.3 7649.99 -7787.57 30756.7 -10674.3 33283.2)
(21555.6 6027.61 -5815.67 33168.5 -11864.4 33283.1)
(19844.2 3678.17 -3667.08 34879.9 -12694.1 33283.2)
(19039.6 885.087 -1407.06 35684.6 -13138 33283.2)
(19238.8 -2014.76 895.723 35485.3 -13182.7 33283.2)
(20417.8 -4671.56 3171.25 34306.4 -12826.9 33283.2)
(22434.4 -6764.96 5350.48 32289.8 -12081.4 33283.2)
(25045.2 -8042.33 7367.11 29678.7 -10968.7 33283.1)
(27935.5 -8349.68 9159.86 26788.4 -9522.82 33283.1)
(30756.7 -7649.99 10674.3 23967.3 -7787.57 33283.2)
(33168.5 -6027.61 11864.4 21555.6 -5815.67 33283.1)
(34879.9 -3678.17 12694.1 19844.2 -3667.08 33283.2)
(35684.6 -885.087 13138 19039.6 -1407.06 33283.2)
(35485.3 2014.76 13182.7 19238.8 895.723 33283.2)
(34306.4 4671.56 12826.9 20417.8 3171.25 33283.2)
(32289.8 6764.96 12081.4 22434.4 5350.48 33283.2)
(29678.7 8042.33 10968.7 25045.2 7367.11 33283.1)
(26788.4 8349.68 9522.82 27935.5 9159.86 33283.1)
(23967.3 7649.99 7787.57 30756.7 10674.3 33283.2)
(21555.6 6027.61 5815.67 33168.5 11864.4 33283.1)
(19844.2 3678.17 3667.08 34879.9 12694.1 33283.2)
(19039.6 885.087 1407.06 35684.6 13138 33283.2)
(10550.8 -3371.54 386.588 40330.1 712.043 11364.2)
(12601.9 -8260.76 257.07 38279.1 768.357 11364.2)
(16201.4 -12153.7 119.745 34679.3 801.309 11364.1)
(20915.5 -14580.6 -21.2678 29965.4 809.994 11364.2)
(26175.2 -15248.9 -161.648 24705.6 794.044 11364.2)
(31346.2 -14078 -297.018 19534.5 753.876 11364.1)
(35805.1 -11209.1 -423.339 15075.8 690.812 11364.2)
(39013.8 -6988.14 -536.88 11867.1 606.806 11364.2)
(40585.2 -1924.35 -634.096 10295.5 504.36 11364.1)
(40330.1 3371.54 -712.043 10550.8 386.588 11364.2)
(38279.1 8260.76 -768.357 12601.9 257.07 11364.2)
(34679.3 12153.7 -801.309 16201.4 119.745 11364.1)
(29965.4 14580.6 -809.994 20915.5 -21.2678 11364.2)
(24705.6 15248.9 -794.044 26175.2 -161.648 11364.2)
(19534.5 14078 -753.876 31346.2 -297.018 11364.1)
(15075.8 11209.1 -690.812 35805.1 -423.339 11364.2)
(11867.1 6988.14 -606.806 39013.8 -536.88 11364.2)
(10295.5 1924.35 -504.36 40585.3 -634.096 11364.1)
(10550.8 -3371.54 -386.588 40330.1 -712.043 11364.2)
(12601.9 -8260.76 -257.07 38279.1 -768.357 11364.2)
(16201.4 -12153.7 -119.745 34679.3 -801.309 11364.1)
(20915.5 -14580.6 21.2678 29965.4 -809.994 11364.2)
(26175.2 -15248.9 161.648 24705.6 -794.044 11364.2)
(31346.2 -14078 297.018 19534.5 -753.876 11364.1)
(35805.1 -11209.1 423.339 15075.8 -690.812 11364.2)
(39013.8 -6988.14 536.88 11867.1 -606.806 11364.2)
(40585.2 -1924.35 634.096 10295.5 -504.36 11364.1)
(40330.1 3371.54 712.043 10550.8 -386.588 11364.2)
(38279.1 8260.76 768.357 12601.9 -257.07 11364.2)
(34679.3 12153.7 801.309 16201.4 -119.745 11364.1)
(29965.4 14580.6 809.994 20915.5 21.2677 11364.2)
(24705.6 15248.9 794.044 26175.2 161.647 11364.2)
(19534.5 14078 753.876 31346.2 297.018 11364.1)
(15075.8 11209.1 690.812 35805.1 423.339 11364.2)
(11867.1 6988.14 606.806 39013.8 536.88 11364.2)
(10295.5 1924.35 504.36 40585.2 634.096 11364.1)
(-837.683 -3462.8 2771.74 23284 -19340.2 12691.1)
(1074.02 -7379.02 6088.01 21372.3 -18565.1 12691.1)
(4209.76 -10405.2 9219.33 18236.3 -17225.8 12691)
(8191.52 -12176.4 12070.5 14254.6 -15363.2 12691)
(12539 -12479 14554.9 9907.32 -13033.8 12691)
(16727.7 -11276.3 16597.1 5718.6 -10308.4 12691.1)
(20252.5 -8713.61 18135 2193.85 -7269.7 12691.1)
(22688.1 -5099.87 19121.8 -241.95 -4010.12 12691)
(23741 -871.068 19527.7 -1294.71 -628.745 12691.1)
(23284 3462.8 19340.2 -837.681 2771.74 12691.1)
(21372.3 7379.02 18565.1 1074.02 6088.01 12691.1)
(18236.3 10405.2 17225.8 4209.76 9219.33 12691)
(14254.6 12176.4 15363.2 8191.52 12070.5 12691)
(9907.32 12479 13033.8 12539 14554.9 12691)
(5718.61 11276.3 10308.4 16727.7 16597.1 12691.1)
(2193.85 8713.61 7269.7 20252.5 18135 12691.1)
(-241.949 5099.87 4010.12 22688.1 19121.8 12691)
(-1294.71 871.068 628.745 23741 19527.7 12691.1)
(-837.68 -3462.8 -2771.74 23284 19340.2 12691.1)
(1074.02 -7379.02 -6088.01 21372.3 18565.1 12691.1)
(4209.76 -10405.2 -9219.33 18236.3 17225.8 12691)
(8191.52 -12176.4 -12070.5 14254.6 15363.2 12691)
(12539 -12479 -14554.9 9907.32 13033.8 12691)
(16727.7 -11276.3 -16597.1 5718.6 10308.4 12691.1)
(20252.5 -8713.61 -18135 2193.85 7269.7 12691.1)
(22688.1 -5099.87 -19121.8 -241.95 4010.12 12691)
(23741 -871.068 -19527.7 -1294.71 628.745 12691.1)
(23284 3462.8 -19340.2 -837.682 -2771.74 12691.1)
(21372.3 7379.02 -18565.1 1074.02 -6088.01 12691.1)
(18236.3 10405.2 -17225.8 4209.76 -9219.33 12691)
(14254.6 12176.4 -15363.2 8191.52 -12070.5 12691)
(9907.32 12479 -13033.8 12539 -14554.9 12691)
(5718.6 11276.3 -10308.4 16727.7 -16597.1 12691.1)
(2193.85 8713.61 -7269.7 20252.4 -18135 12691.1)
(-241.952 5099.87 -4010.12 22688.1 -19121.8 12691)
(-1294.71 871.068 -628.745 23741 -19527.7 12691.1)
(6066.48 -2347.9 -1197.43 20502.5 13121.6 21946.3)
(7304.79 -4674.95 -3457.74 19264.2 12714.4 21946.4)
(9264.48 -6438.24 -5613.06 17304.8 11920.8 21946.4)
(11708.7 -7424.89 -7597.82 14860 10765 21946.4)
(14343.2 -7516.02 -9351.7 12225.6 9282.06 21946.4)
(16850 -6700.63 -10821.4 9718.95 7517.21 21946.5)
(18926.7 -5077.07 -11962.4 7642.1 5523.85 21946.2)
(20323 -2841.08 -12739.8 6246.04 3362.68 21946.4)
(20870.3 -262.467 -13130.2 5698.78 1099.37 21946.3)
(20502.5 2347.9 -13121.6 6066.48 -1197.43 21946.3)
(19264.2 4674.95 -12714.4 7304.79 -3457.74 21946.4)
(17304.8 6438.24 -11920.8 9264.48 -5613.06 21946.4)
(14860 7424.89 -10765 11708.7 -7597.82 21946.4)
(12225.6 7516.02 -9282.06 14343.2 -9351.7 21946.4)
(9718.95 6700.63 -7517.21 16850 -10821.4 21946.5)
(7642.1 5077.07 -5523.85 18926.7 -11962.4 21946.2)
(6246.04 2841.08 -3362.68 20323 -12739.8 21946.4)
(5698.78 262.467 -1099.37 20870.3 -13130.2 21946.3)
(6066.48 -2347.9 1197.43 20502.5 -13121.6 21946.3)
(7304.79 -4674.95 3457.74 19264.2 -12714.4 21946.4)
(9264.48 -6438.24 5613.06 17304.8 -11920.8 21946.4)
(11708.7 -7424.89 7597.82 14860 -10765 21946.4)
(14343.2 -7516.02 9351.7 12225.6 -9282.06 21946.4)
(16850 -6700.63 10821.4 9718.95 -7517.21 21946.5)
(18926.7 -5077.07 11962.4 7642.1 -5523.85 21946.2)
(20323 -2841.08 12739.8 6246.04 -3362.68 21946.4)
(20870.3 -262.467 13130.2 5698.78 -1099.37 21946.3)
(20502.5 2347.9 13121.6 6066.48 1197.43 21946.3)
(19264.2 4674.95 12714.4 7304.79 3457.74 21946.4)
(17304.8 6438.24 11920.8 9264.48 5613.06 21946.4)
(14860 7424.89 10765 11708.7 7597.82 21946.4)
(12225.6 7516.02 9282.06 14343.2 9351.7 21946.4)
(9718.95 6700.63 7517.21 16850 10821.4 21946.5)
(7642.1 5077.07 5523.85 18926.7 11962.4 21946.2)
(6246.04 2841.08 3362.68 20323 12739.8 21946.4)
(5698.78 262.467 1099.37 20870.3 13130.2 21946.3)
(-2353.81 -4060.28 369.485 26394.3 1459.32 -1595.61)
(-98.2795 -8731.57 110.439 24138.7 1501.4 -1595.59)
(3618.89 -12349.8 -151.944 20421.4 1497.74 -1595.66)
(8349.61 -14478.4 -409.749 15691.1 1448.65 -1595.45)
(13522.8 -14860.7 -655.056 10517.8 1355.47 -1595.5)
(18514.7 -13450.6 -880.506 5525.6 1221.14 -1595.62)
(22723.6 -10418.2 -1079.12 1317.04 1049.67 -1595.49)
(25641.2 -6129.12 -1245.03 -1600.87 846.344 -1595.67)
(26916.1 -1100.87 -1372.99 -2875.63 617.287 -1595.61)
(26394.3 4060.28 -1459.32 -2353.81 369.485 -1595.61)
(24138.7 8731.57 -1501.4 -98.2794 110.439 -1595.59)
(20421.4 12349.8 -1497.74 3618.89 -151.944 -1595.67)
(15691.1 14478.4 -1448.65 8349.61 -409.749 -1595.45)
(10517.8 14860.7 -1355.47 13522.8 -655.056 -1595.5)
(5525.6 13450.6 -1221.14 18514.7 -880.506 -1595.62)
(1317.04 10418.2 -1049.67 22723.6 -1079.12 -1595.49)
(-1600.87 6129.12 -846.344 25641.2 -1245.03 -1595.67)
(-2875.63 1100.87 -617.287 26916.1 -1372.99 -1595.61)
(-2353.81 -4060.28 -369.485 26394.3 -1459.32 -1595.61)
(-98.2793 -8731.57 -110.439 24138.7 -1501.4 -1595.59)
(3618.89 -12349.8 151.944 20421.4 -1497.74 -1595.67)
(8349.61 -14478.4 409.749 15691.1 -1448.65 -1595.45)
(13522.8 -14860.7 655.056 10517.8 -1355.47 -1595.5)
(18514.7 -13450.6 880.506 5525.6 -1221.14 -1595.62)
(22723.6 -10418.2 1079.12 1317.04 -1049.67 -1595.49)
(25641.2 -6129.12 1245.03 -1600.87 -846.344 -1595.67)
(26916.1 -1100.87 1372.99 -2875.63 -617.287 -1595.61)
(26394.3 4060.28 1459.32 -2353.81 -369.485 -1595.61)
(24138.7 8731.57 1501.4 -98.2794 -110.439 -1595.59)
(20421.4 12349.8 1497.74 3618.89 151.944 -1595.67)
(15691.1 14478.4 1448.65 8349.61 409.748 -1595.45)
(10517.8 14860.7 1355.47 13522.8 655.056 -1595.5)
(5525.6 13450.6 1221.14 18514.7 880.506 -1595.63)
(1317.04 10418.2 1049.67 22723.6 1079.12 -1595.49)
(-1600.87 6129.12 846.344 25641.2 1245.03 -1595.67)
(-2875.63 1100.87 617.287 26916.1 1372.99 -1595.6)
(-16408 -4373.99 3251.29 6803.67 -19411.3 -3504.28)
(-14212.1 -8079.62 6572.62 4607.72 -18551.8 -3504.38)
(-10881.2 -10810.7 9694.24 1276.89 -17128.7 -3504.29)
(-6817.26 -12237.9 12521.3 -2787.37 -15185.1 -3504.43)
(-2509.99 -12189 14968 -7094.35 -12780.1 -3504.34)
(1520.77 -10670 16959.8 -11124.9 -9986.75 -3504.16)
(4788.78 -7863.92 18436.4 -14393.1 -6889.95 -3504.27)
(6900.07 -4109.41 19352.7 -16504.2 -3583.85 -3504.24)
(7599.76 140.73 19681 -17204 -168.886 -3504.22)
(6803.67 4373.99 19411.3 -16407.9 3251.29 -3504.28)
(4607.72 8079.62 18551.8 -14212.1 6572.62 -3504.38)
(1276.9 10810.7 17128.7 -10881.2 9694.24 -3504.29)
(-2787.37 12237.9 15185.1 -6817.26 12521.3 -3504.43)
(-7094.35 12189 12780.1 -2509.99 14968 -3504.34)
(-11124.9 10670 9986.75 1520.77 16959.8 -3504.16)
(-14393 7863.92 6889.95 4788.78 18436.4 -3504.27)
(-16504.2 4109.41 3583.85 6900.07 19352.7 -3504.24)
(-17204 -140.73 168.886 7599.76 19681 -3504.22)
(-16407.9 -4373.99 -3251.29 6803.67 19411.3 -3504.27)
(-14212.1 -8079.62 -6572.62 4607.72 18551.8 -3504.38)
(-10881.2 -10810.7 -9694.24 1276.9 17128.7 -3504.29)
(-6817.26 -12237.9 -12521.3 -2787.37 15185.1 -3504.43)
(-2509.99 -12189 -14968 -7094.35 12780.1 -3504.34)
(1520.77 -10670 -16959.8 -11124.9 9986.75 -3504.16)
(4788.78 -7863.92 -18436.4 -14393 6889.95 -3504.27)
(6900.07 -4109.41 -19352.7 -16504.2 3583.85 -3504.24)
(7599.76 140.73 -19681 -17204 168.886 -3504.22)
(6803.67 4373.99 -19411.3 -16407.9 -3251.29 -3504.28)
(4607.72 8079.62 -18551.8 -14212.1 -6572.62 -3504.38)
(1276.9 10810.7 -17128.7 -10881.2 -9694.24 -3504.29)
(-2787.37 12237.9 -15185.1 -6817.26 -12521.3 -3504.43)
(-7094.35 12189 -12780.1 -2509.99 -14968 -3504.34)
(-11124.9 10670 -9986.75 1520.77 -16959.8 -3504.16)
(-14393.1 7863.92 -6889.95 4788.78 -18436.4 -3504.27)
(-16504.2 4109.41 -3583.85 6900.06 -19352.7 -3504.25)
(-17204 -140.73 -168.887 7599.76 -19681 -3504.23)
(6415.11 -2473.57 -1056.56 20575.6 12918.6 23089.6)
(7687.9 -4746.01 -3283.86 19302.3 12538.9 23089.4)
(9661.54 -6445.97 -5411.3 17329.1 11778.2 23089.5)
(12097.2 -7368.41 -7374.35 14893 10659.6 23089.5)
(14701.9 -7402.23 -9113.35 12288.8 9217.09 23089.4)
(17160.8 -6543.1 -10575.4 9829.85 7494.57 23089.7)
(19177.4 -4894.88 -11716.2 7812.82 5544.31 23089.3)
(20509 -2656.18 -12500.9 6481.46 3425.56 23089.5)
(20994.4 -97.1951 -12905.8 5995.87 1202.79 23089.3)
(20575.6 2473.57 -12918.6 6415.11 -1056.56 23089.6)
(19302.3 4746.01 -12538.9 7687.9 -3283.85 23089.4)
(17329.1 6445.97 -11778.2 9661.54 -5411.3 23089.5)
(14893 7368.41 -10659.6 12097.2 -7374.35 23089.5)
(12288.8 7402.23 -9217.09 14701.9 -9113.35 23089.4)
(9829.85 6543.1 -7494.57 17160.8 -10575.4 23089.7)
(7812.82 4894.88 -5544.31 19177.4 -11716.2 23089.3)
(6481.46 2656.18 -3425.56 20509 -12500.9 23089.5)
(5995.87 97.1951 -1202.8 20994.4 -12905.8 23089.3)
(6415.11 -2473.57 1056.56 20575.6 -12918.6 23089.6)
(7687.9 -4746.01 3283.85 19302.3 -12538.9 23089.4)
(9661.54 -6445.97 5411.3 17329.1 -11778.2 23089.5)
(12097.2 -7368.41 7374.35 14893 -10659.6 23089.5)
(14701.9 -7402.23 9113.35 12288.8 -9217.09 23089.4)
(17160.8 -6543.1 10575.4 9829.85 -7494.57 23089.7)
(19177.4 -4894.88 11716.2 7812.82 -5544.31 23089.3)
(20509 -2656.18 12500.9 6481.46 -3425.56 23089.5)
(20994.4 -97.1951 12905.8 5995.87 -1202.8 23089.3)
(20575.6 2473.57 12918.6 6415.11 1056.56 23089.6)
(19302.3 4746.01 12538.9 7687.9 3283.85 23089.4)
(17329.1 6445.97 11778.2 9661.54 5411.3 23089.5)
(14893 7368.41 10659.6 12097.2 7374.35 23089.5)
(12288.8 7402.23 9217.09 14701.9 9113.35 23089.4)
(9829.85 6543.1 7494.57 17160.8 10575.4 23089.7)
(7812.82 4894.88 5544.31 19177.4 11716.2 23089.3)
(6481.46 2656.18 3425.56 20509 12500.9 23089.5)
(5995.87 97.1951 1202.79 20994.4 12905.8 23089.3)
(-1464.86 -4703.65 493.712 26359 1354.25 -769.872)
(983.054 -9178.11 251.032 23911.5 1419.47 -769.656)
(4813.34 -12545.6 0.728839 20080.8 1441.49 -769.863)
(9564.71 -14399.9 -249.594 15329.8 1419.73 -769.674)
(14663.6 -14517.4 -492.267 10230.8 1354.75 -769.747)
(19495 -12883.8 -720.119 5399.06 1248.74 -769.888)
(23476.6 -9696.28 -926.012 1417.79 1104.72 -769.716)
(26127.6 -5339.22 -1103.75 -1233.54 927.129 -769.875)
(27128.9 -338.224 -1247.94 -2234.42 721.382 -769.689)
(26359 4703.65 -1354.25 -1464.86 493.712 -769.872)
(23911.5 9178.12 -1419.44 983.056 251.041 -769.662)
(20080.8 12545.6 -1441.49 4813.34 0.728898 -769.862)
(15329.8 14399.9 -1419.73 9564.71 -249.594 -769.674)
(10230.8 14517.4 -1354.75 14663.6 -492.267 -769.747)
(5399.06 12883.8 -1248.74 19495 -720.119 -769.887)
(1417.79 9696.28 -1104.72 23476.6 -926.012 -769.716)
(-1233.54 5339.22 -927.129 26127.6 -1103.75 -769.874)
(-2234.42 338.224 -721.382 27128.9 -1247.94 -769.689)
(-1464.86 -4703.65 -493.712 26359 -1354.25 -769.872)
(983.056 -9178.12 -251.041 23911.5 -1419.44 -769.662)
(4813.34 -12545.6 -0.728917 20080.8 -1441.49 -769.862)
(9564.71 -14399.9 249.594 15329.8 -1419.73 -769.674)
(14663.6 -14517.4 492.267 10230.8 -1354.75 -769.747)
(19495 -12883.8 720.119 5399.06 -1248.74 -769.888)
(23476.6 -9696.28 926.012 1417.79 -1104.72 -769.716)
(26127.6 -5339.22 1103.75 -1233.54 -927.129 -769.875)
(27128.9 -338.224 1247.94 -2234.42 -721.382 -769.69)
(26359 4703.65 1354.25 -1464.86 -493.712 -769.872)
(23911.5 9178.12 1419.44 983.056 -251.041 -769.662)
(20080.8 12545.6 1441.49 4813.34 -0.728946 -769.863)
(15329.8 14399.9 1419.73 9564.71 249.594 -769.674)
(10230.8 14517.4 1354.75 14663.6 492.267 -769.747)
(5399.06 12883.8 1248.74 19495 720.119 -769.887)
(1417.79 9696.28 1104.72 23476.6 926.012 -769.717)
(-1233.54 5339.22 927.136 26127.6 1103.78 -769.869)
(-2234.42 338.224 721.382 27128.9 1247.94 -769.689)
(-17687.5 -6824.38 5064.95 3969.47 -20406.5 -4902.55)
(-14700.5 -10116.4 8531.53 982.265 -19217 -4902.73)
(-10767.4 -12188.2 11738.9 -2950.42 -17443.5 -4902.5)
(-6363.1 -12789.9 14589.6 -7354.82 -15140.1 -4902.51)
(-2018.62 -11849 16997 -11699.4 -12376.6 -4902.6)
(1742.11 -9478.91 18888 -15460 -9237.07 -4902.52)
(4465.28 -5965.53 20205 -18183.4 -5816.87 -4902.68)
(5822.82 -1732.66 20908.1 -19540.6 -2219.97 -4902.49)
(5650.57 2709.25 20976 -19368.5 1444.43 -4902.51)
(3969.47 6824.38 20406.5 -17687.5 5064.95 -4902.55)
(982.265 10116.4 19217 -14700.5 8531.53 -4902.73)
(-2950.42 12188.2 17443.5 -10767.4 11738.9 -4902.5)
(-7354.82 12789.9 15140.1 -6363.1 14589.6 -4902.51)
(-11699.4 11849 12376.6 -2018.62 16997 -4902.6)
(-15460 9478.91 9237.07 1742.11 18888 -4902.52)
(-18183.4 5965.53 5816.87 4465.28 20205 -4902.68)
(-19540.6 1732.66 2219.97 5822.82 20908.1 -4902.49)
(-19368.5 -2709.25 -1444.43 5650.57 20976 -4902.51)
(-17687.5 -6824.38 -5064.95 3969.47 20406.5 -4902.55)
(-14700.5 -10116.4 -8531.53 982.265 19217 -4902.73)
(-10767.4 -12188.2 -11738.9 -2950.42 17443.5 -4902.5)
(-6363.1 -12789.9 -14589.6 -7354.82 15140.1 -4902.51)
(-2018.62 -11849 -16997 -11699.4 12376.6 -4902.6)
(1742.11 -9478.91 -18888 -15460 9237.07 -4902.52)
(4465.28 -5965.53 -20205 -18183.4 5816.87 -4902.68)
(5822.82 -1732.66 -20908.1 -19540.6 2219.97 -4902.49)
(5650.57 2709.25 -20976 -19368.5 -1444.43 -4902.51)
(3969.47 6824.39 -20406.5 -17687.5 -5064.95 -4902.55)
(982.265 10116.4 -19217 -14700.5 -8531.53 -4902.73)
(-2950.42 12188.2 -17443.5 -10767.4 -11738.9 -4902.5)
(-7354.82 12789.9 -15140.1 -6363.1 -14589.6 -4902.51)
(-11699.4 11849 -12376.6 -2018.62 -16997 -4902.6)
(-15460 9478.91 -9237.07 1742.11 -18888 -4902.52)
(-18183.4 5965.53 -5816.87 4465.28 -20205 -4902.68)
(-19540.6 1732.66 -2219.97 5822.82 -20908.1 -4902.49)
(-19368.5 -2709.25 1444.43 5650.57 -20976 -4902.51)
(6440.91 -2327.5 -596.878 20300.2 12700.1 23831.3)
(7654.92 -4557.25 -2793.18 19086.3 12403.5 23831.2)
(9558.24 -6237.33 -4904.63 17182.9 11730 23831.1)
(11921.5 -7165.04 -6867 14819.7 10700.1 23831.3)
(14459.4 -7228.56 -8620.69 12281.8 9345.16 23831.3)
(16866.1 -6420.21 -10112.5 9875.15 7706.2 23831.3)
(18851.2 -4837.54 -11297 7890.15 5833.13 23831.2)
(20175.1 -2671.29 -12138.3 6565.97 3782.74 23831.1)
(20678.4 -182.909 -12610.8 6062.77 1617.5 23831.3)
(20300.2 2327.5 -12700.1 6440.91 -596.878 23831.3)
(19086.3 4557.25 -12403.5 7654.92 -2793.18 23831.2)
(17182.9 6237.33 -11730 9558.24 -4904.63 23831.1)
(14819.7 7165.04 -10700.1 11921.5 -6867 23831.3)
(12281.8 7228.56 -9345.16 14459.4 -8620.69 23831.3)
(9875.15 6420.21 -7706.2 16866.1 -10112.5 23831.3)
(7890.15 4837.54 -5833.13 18851.2 -11297 23831.2)
(6565.97 2671.29 -3782.74 20175.1 -12138.3 23831.1)
(6062.77 182.909 -1617.5 20678.4 -12610.8 23831.3)
(6440.91 -2327.5 596.878 20300.2 -12700.1 23831.3)
(7654.92 -4557.25 2793.18 19086.3 -12403.5 23831.2)
(9558.24 -6237.33 4904.63 17182.9 -11730 23831.1)
(11921.5 -7165.04 6867 14819.7 -10700.1 23831.3)
(14459.4 -7228.56 8620.69 12281.8 -9345.16 23831.3)
(16866.1 -6420.21 10112.5 9875.15 -7706.2 23831.3)
(18851.2 -4837.54 11297 7890.15 -5833.13 23831.2)
(20175.1 -2671.29 12138.3 6565.97 -3782.74 23831.1)
(20678.4 -182.909 12610.8 6062.77 -1617.5 23831.3)
(20300.2 2327.5 12700.1 6440.91 596.878 23831.3)
(19086.3 4557.25 12403.5 7654.92 2793.18 23831.2)
(17182.9 6237.33 11730 9558.24 4904.63 23831.1)
(14819.7 7165.04 10700.1 11921.5 6867 23831.3)
(12281.8 7228.56 9345.16 14459.4 8620.69 23831.3)
(9875.15 6420.21 7706.2 16866.1 10112.5 23831.3)
(7890.15 4837.54 5833.13 18851.2 11297 23831.2)
(6565.97 2671.29 3782.74 20175.1 12138.3 23831.1)
(6062.77 182.909 1617.5 20678.4 12610.8 23831.3)
(-1098.12 -5384.51 577.644 25382.2 1216.6 -692.338)
(1541.9 -9588.2 357.605 22742.1 1298.42 -692.411)
(5460.56 -12635.4 126.702 18823.5 1340.8 -692.38)
(10185.2 -14158.6 -108.073 14099 1342.45 -692.293)
(15145.6 -13974 -339.54 9138.43 1303.29 -692.385)
(19743.9 -12104 -560.698 4540.2 1224.54 -692.346)
(23425.2 -8774.07 -764.785 858.797 1108.56 -692.383)
(25745.7 -4385.83 -945.663 -1461.65 958.912 -692.38)
(26425.4 531.401 -1097.81 -2141.26 780.128 -692.342)
(25382.2 5384.51 -1216.6 -1098.12 577.644 -692.34)
(22742.1 9588.2 -1298.42 1541.9 357.605 -692.41)
(18823.5 12635.4 -1340.8 5460.56 126.702 -692.376)
(14099 14158.6 -1342.45 10185.2 -108.073 -692.292)
(9138.43 13974 -1303.29 15145.6 -339.54 -692.385)
(4540.2 12104 -1224.54 19743.9 -560.698 -692.346)
(858.797 8774.07 -1108.56 23425.2 -764.785 -692.382)
(-1461.65 4385.83 -958.912 25745.7 -945.663 -692.38)
(-2141.26 -531.401 -780.128 26425.4 -1097.81 -692.342)
(-1098.12 -5384.51 -577.644 25382.2 -1216.6 -692.34)
(1541.9 -9588.2 -357.605 22742.1 -1298.42 -692.41)
(5460.56 -12635.4 -126.702 18823.5 -1340.8 -692.376)
(10185.2 -14158.6 108.073 14099 -1342.45 -692.292)
(15145.6 -13974 339.54 9138.43 -1303.29 -692.385)
(19743.9 -12104 560.698 4540.2 -1224.54 -692.346)
(23425.2 -8774.07 764.785 858.797 -1108.56 -692.383)
(25745.7 -4385.83 945.663 -1461.65 -958.912 -692.38)
(26425.4 531.401 1097.81 -2141.26 -780.128 -692.343)
(25382.2 5384.51 1216.6 -1098.12 -577.644 -692.34)
(22742.1 9588.2 1298.42 1541.9 -357.605 -692.41)
(18823.5 12635.4 1340.8 5460.56 -126.702 -692.377)
(14099 14158.6 1342.45 10185.2 108.073 -692.293)
(9138.43 13974 1303.29 15145.6 339.54 -692.385)
(4540.2 12104 1224.54 19743.9 560.698 -692.346)
(858.799 8774.07 1108.56 23425.2 764.784 -692.381)
(-1461.65 4385.83 958.912 25745.7 945.662 -692.38)
(-2141.26 -531.401 780.128 26425.4 1097.81 -692.345)
(-18990.6 -9325.39 7025.64 -146.968 -21193 -6885.42)
(-15233 -11985.5 10599 -3904.68 -19651.1 -6885.53)
(-10792 -13199.9 13850.4 -8345.48 -17512 -6885.42)
(-6203.68 -12822.2 16680.9 -12934 -14840.9 -6885.49)
(-2021.24 -10898 19004.6 -17116.5 -11718.8 -6885.59)
(1251.07 -7659.32 20750.8 -20388.5 -8240.67 -6885.39)
(3218.03 -3496.82 21866.5 -22355.8 -4512.13 -6885.55)
(3643.03 1087.44 22317.8 -22780.5 -646.5 -6885.47)
(2474.31 5540.58 22091.1 -21611.8 3238.79 -6885.43)
(-146.969 9325.39 21193 -18990.6 7025.64 -6885.42)
(-3904.68 11985.5 19651.1 -15233 10599 -6885.53)
(-8345.48 13199.9 17512 -10792 13850.4 -6885.42)
(-12934 12822.2 14840.9 -6203.69 16680.9 -6885.49)
(-17116.5 10898 11718.8 -2021.25 19004.6 -6885.59)
(-20388.5 7659.32 8240.67 1251.07 20750.8 -6885.39)
(-22355.8 3496.82 4512.13 3218.03 21866.5 -6885.55)
(-22780.5 -1087.44 646.5 3643.03 22317.8 -6885.47)
(-21611.8 -5540.58 -3238.79 2474.31 22091.1 -6885.43)
(-18990.6 -9325.39 -7025.64 -146.969 21193 -6885.42)
(-15233 -11985.5 -10599 -3904.68 19651.1 -6885.53)
(-10792 -13199.9 -13850.4 -8345.48 17512 -6885.42)
(-6203.69 -12822.2 -16680.9 -12934 14840.9 -6885.49)
(-2021.25 -10898 -19004.6 -17116.5 11718.8 -6885.59)
(1251.07 -7659.32 -20750.8 -20388.5 8240.67 -6885.39)
(3218.03 -3496.82 -21866.5 -22355.8 4512.13 -6885.55)
(3643.03 1087.44 -22317.8 -22780.5 646.5 -6885.47)
(2474.31 5540.58 -22091.1 -21611.8 -3238.79 -6885.43)
(-146.969 9325.39 -21193 -18990.6 -7025.64 -6885.42)
(-3904.68 11985.5 -19651.1 -15233 -10599 -6885.53)
(-8345.48 13199.9 -17512 -10792 -13850.4 -6885.42)
(-12934 12822.2 -14840.9 -6203.69 -16680.9 -6885.5)
(-17116.5 10898 -11718.8 -2021.24 -19004.6 -6885.59)
(-20388.5 7659.32 -8240.67 1251.07 -20750.8 -6885.39)
(-22355.8 3496.82 -4512.13 3218.03 -21866.5 -6885.55)
(-22780.5 -1087.44 -646.5 3643.03 -22317.8 -6885.47)
(-21611.8 -5540.58 3238.79 2474.31 -22091.1 -6885.43)
(6453.08 -2085.15 -50.2585 19638.7 12460.8 24454.9)
(7563.97 -4214.29 -2213.3 18528.1 12262.8 24455)
(9335.75 -5835.11 -4309.08 16755.9 11692.1 24454.8)
(11555.5 -6752.18 -6273.99 14536.6 10766.2 24455)
(13954.6 -6854.72 -8048.17 12137.2 9513.2 24455)
(16244.2 -6130.6 -9577.84 9847.57 7971.13 24454.8)
(18148.3 -4666.98 -10816.5 7943.89 6186.87 24455.1)
(19436.5 -2640.46 -11726.5 6655.07 4214.59 24454.7)
(19954.4 -295.44 -12280.2 6137.58 2114.27 24455)
(19638.7 2085.15 -12460.8 6453.08 -50.2585 24454.9)
(18528.1 4214.29 -12262.8 7563.97 -2213.3 24455)
(16755.9 5835.11 -11692.1 9335.75 -4309.08 24454.8)
(14536.6 6752.18 -10766.2 11555.5 -6273.99 24455)
(12137.2 6854.72 -9513.2 13954.6 -8048.17 24455)
(9847.57 6130.6 -7971.13 16244.2 -9577.84 24454.8)
(7943.89 4666.98 -6186.87 18148.3 -10816.5 24455.1)
(6655.07 2640.46 -4214.59 19436.5 -11726.5 24454.7)
(6137.58 295.44 -2114.27 19954.4 -12280.2 24455)
(6453.08 -2085.15 50.2584 19638.7 -12460.8 24454.9)
(7563.97 -4214.29 2213.3 18528.1 -12262.8 24455)
(9335.75 -5835.11 4309.08 16755.9 -11692.1 24454.8)
(11555.5 -6752.18 6273.99 14536.6 -10766.2 24455)
(13954.6 -6854.72 8048.17 12137.2 -9513.2 24455)
(16244.2 -6130.6 9577.84 9847.57 -7971.13 24454.8)
(18148.3 -4666.98 10816.5 7943.89 -6186.87 24455)
(19436.5 -2640.46 11726.5 6655.07 -4214.59 24454.7)
(19954.4 -295.44 12280.2 6137.58 -2114.27 24455)
(19638.7 2085.15 12460.8 6453.08 50.2584 24454.9)
(18528.1 4214.29 12262.8 7563.97 2213.3 24455)
(16755.9 5835.11 11692.1 9335.75 4309.08 24454.8)
(14536.6 6752.18 10766.2 11555.5 6273.99 24455)
(12137.2 6854.72 9513.2 13954.6 8048.17 24455)
(9847.57 6130.6 7971.13 16244.2 9577.84 24454.8)
(7943.89 4666.98 6186.87 18148.3 10816.5 24455)
(6655.07 2640.46 4214.59 19436.5 11726.5 24454.7)
(6137.58 295.441 2114.27 19954.4 12280.2 24455)
(-556.164 -5935.51 599.732 24045.1 1200.65 -623.662)
(2215.45 -9784.63 382.123 21272.9 1286.56 -623.931)
(6136.94 -12453.6 152.923 17352 1333.34 -623.645)
(10734.3 -13620.4 -80.9175 12754.3 1339.62 -623.854)
(15453.7 -13144.4 -312.372 8034.99 1305.27 -623.766)
(19725.8 -11083.1 -534.203 3763.18 1231.16 -623.661)
(23034.9 -7684.89 -739.907 453.636 1119.7 -623.865)
(24982.6 -3359.82 -923.126 -1493.65 974.213 -623.679)
(25333.2 1370.52 -1078.27 -1844.53 799.11 -623.781)
(24045.1 5935.51 -1200.65 -556.164 599.732 -623.662)
(21272.9 9784.63 -1286.56 2215.45 382.123 -623.929)
(17352 12453.6 -1333.34 6136.95 152.923 -623.643)
(12754.3 13620.4 -1339.62 10734.3 -80.9176 -623.857)
(8034.99 13144.4 -1305.27 15453.7 -312.371 -623.766)
(3763.18 11083.1 -1231.16 19725.8 -534.203 -623.661)
(453.636 7684.89 -1119.7 23034.9 -739.907 -623.865)
(-1493.65 3359.82 -974.214 24982.6 -923.126 -623.678)
(-1844.53 -1370.52 -799.11 25333.2 -1078.27 -623.78)
(-556.164 -5935.51 -599.732 24045.1 -1200.65 -623.661)
(2215.45 -9784.63 -382.123 21272.9 -1286.56 -623.929)
(6136.95 -12453.6 -152.923 17352 -1333.34 -623.643)
(10734.3 -13620.4 80.9176 12754.3 -1339.62 -623.857)
(15453.7 -13144.4 312.372 8034.99 -1305.27 -623.766)
(19725.8 -11083.1 534.203 3763.18 -1231.16 -623.661)
(23034.9 -7684.89 739.907 453.636 -1119.7 -623.865)
(24982.6 -3359.82 923.126 -1493.65 -974.213 -623.679)
(25333.2 1370.52 1078.27 -1844.53 -799.11 -623.781)
(24045.1 5935.51 1200.65 -556.164 -599.732 -623.662)
(21272.9 9784.63 1286.56 2215.45 -382.123 -623.929)
(17352 12453.6 1333.34 6136.95 -152.923 -623.643)
(12754.3 13620.4 1339.62 10734.3 80.9175 -623.857)
(8034.99 13144.4 1305.27 15453.7 312.371 -623.766)
(3763.18 11083.1 1231.16 19725.8 534.203 -623.661)
(453.636 7684.89 1119.7 23034.9 739.907 -623.865)
(-1493.65 3359.82 974.213 24982.6 923.126 -623.679)
(-1844.53 -1370.52 799.11 25333.2 1078.27 -623.781)
(-18910.8 -11492.5 8967.63 -4118.84 -21571.4 -8077.44)
(-14533.9 -13329 12577.3 -8495.43 -19686.5 -8077.2)
(-9793.1 -13557.8 15804.7 -13236.4 -17203.3 -8077.36)
(-5259.91 -12151.4 18551.9 -17769.7 -14197.5 -8077.34)
(-1481 -9279.26 20735.4 -21548.3 -10760.3 -8077.24)
(1087.45 -5287.94 22288.9 -24117 -6996.19 -8077.34)
(2136.14 -658.824 23165.2 -25165.5 -3019.46 -8077.29)
(1538.05 4049.76 23337.6 -24567.7 1049 -8077.38)
(-634.026 8269.92 22800.9 -22395.3 5085.62 -8077.27)
(-4118.85 11492.5 21571.4 -18910.8 8967.63 -8077.45)
(-8495.43 13329 19686.5 -14533.9 12577.3 -8077.2)
(-13236.4 13557.8 17203.3 -9793.08 15804.7 -8077.33)
(-17769.7 12151.4 14197.5 -5259.91 18551.9 -8077.34)
(-21548.3 9279.26 10760.3 -1481 20735.4 -8077.24)
(-24117 5287.94 6996.19 1087.45 22288.9 -8077.33)
(-25165.5 658.824 3019.46 2136.14 23165.2 -8077.29)
(-24567.7 -4049.76 -1049 1538.05 23337.6 -8077.38)
(-22395.3 -8269.92 -5085.62 -634.026 22800.9 -8077.27)
(-18910.8 -11492.5 -8967.63 -4118.85 21571.4 -8077.45)
(-14533.9 -13329 -12577.3 -8495.43 19686.5 -8077.2)
(-9793.08 -13557.8 -15804.7 -13236.4 17203.3 -8077.33)
(-5259.91 -12151.4 -18551.9 -17769.7 14197.5 -8077.34)
(-1481 -9279.26 -20735.4 -21548.3 10760.3 -8077.24)
(1087.45 -5287.94 -22288.9 -24117 6996.19 -8077.34)
(2136.14 -658.824 -23165.2 -25165.5 3019.46 -8077.29)
(1538.05 4049.76 -23337.6 -24567.7 -1049 -8077.38)
(-634.026 8269.92 -22800.9 -22395.3 -5085.62 -8077.27)
(-4118.85 11492.5 -21571.4 -18910.8 -8967.63 -8077.45)
(-8495.43 13329 -19686.5 -14533.9 -12577.3 -8077.2)
(-13236.4 13557.8 -17203.3 -9793.08 -15804.7 -8077.33)
(-17769.7 12151.4 -14197.5 -5259.91 -18551.9 -8077.34)
(-21548.3 9279.26 -10760.3 -1481 -20735.4 -8077.24)
(-24117 5287.94 -6996.19 1087.45 -22288.9 -8077.33)
(-25165.5 658.824 -3019.46 2136.14 -23165.2 -8077.29)
(-24567.7 -4049.76 1049 1538.06 -23337.6 -8077.38)
(-22395.3 -8269.92 5085.62 -634.025 -22800.9 -8077.27)
(6178.38 -1642.6 596.199 18315.8 12250.3 24635.1)
(7106.33 -3619.15 -1540.09 17388.2 12167.7 24635.3)
(8654 -5159.16 -3629.58 15840.1 11715.5 24635.2)
(10635.4 -6076.96 -5608.83 13859.1 10907.2 24635.2)
(12811 -6261.75 -7417.65 11683.3 9767.51 24635.1)
(14918.6 -5691.3 -9001.07 9575.64 8331.06 24635)
(16704 -4434.35 -10311 7790.28 6641.5 24635.2)
(17951.8 -2642.61 -11307.6 6542.3 4750.12 24635)
(18511.8 -532.088 -11960.7 5982.72 2714.39 24635.2)
(18315.8 1642.6 -12250.3 6178.38 596.199 24635.1)
(17388.2 3619.15 -12167.7 7106.33 -1540.09 24635.3)
(15840.1 5159.16 -11715.5 8654 -3629.58 24635.2)
(13859.1 6076.96 -10907.2 10635.4 -5608.83 24635.2)
(11683.3 6261.75 -9767.51 12811 -7417.65 24635.1)
(9575.64 5691.3 -8331.06 14918.6 -9001.07 24635)
(7790.28 4434.35 -6641.5 16704 -10311 24635.2)
(6542.3 2642.61 -4750.12 17951.8 -11307.6 24635.1)
(5982.72 532.088 -2714.39 18511.8 -11960.7 24635.2)
(6178.38 -1642.6 -596.199 18315.8 -12250.3 24635.1)
(7106.33 -3619.15 1540.09 17388.2 -12167.7 24635.3)
(8654 -5159.16 3629.58 15840.1 -11715.5 24635.2)
(10635.4 -6076.96 5608.83 13859.1 -10907.2 24635.2)
(12811 -6261.75 7417.65 11683.3 -9767.51 24635.1)
(14918.6 -5691.3 9001.07 9575.64 -8331.06 24635)
(16704 -4434.35 10311 7790.28 -6641.5 24635.2)
(17951.8 -2642.61 11307.6 6542.3 -4750.12 24635)