/*--------------------------------*- C++ -*----------------------------------*\
| =========                 |                                                 |
| \\      /  F ield         | OpenFOAM: The Open Source CFD Toolbox           |
|  \\    /   O peration     | Version:  2312                                  |
|   \\  /    A nd           | Website:  www.openfoam.com                      |
|    \\/     M anipulation  |                                                 |
\*---------------------------------------------------------------------------*/
FoamFile
{
    version     2.0;
    format      ascii;
    arch        "LSB;label=32;scalar=64";
    class       volScalarField;
    location    "0.5";
    object      sigmaHyd;
}
// * * * * * * * * * * * * * * * * * * * * * * * * * * * * * * * * * * * * * //

dimensions      [1 -1 -2 0 0 0 0];

internalField   nonuniform List<scalar> 
1620
(
19335.8
19335.8
19335.8
19335.6
19335.6
19335.7
19335.7
19335.8
19335.8
19335.8
19335.8
19335.8
19335.6
19335.6
19335.7
19335.7
19335.8
19335.8
19335.8
19335.8
19335.8
19335.6
19335.6
19335.7
19335.7
19335.8
19335.8
19335.8
19335.8
19335.8
19335.6
19335.6
19335.7
19335.7
19335.8
19335.8
10748.4
10748.4
10748.3
10748.4
10748.3
10748.3
10748.3
10748.4
10748.3
10748.4
10748.4
10748.3
10748.4
10748.3
10748.3
10748.3
10748.4
10748.3
10748.4
10748.4
10748.3
10748.4
10748.3
10748.3
10748.3
10748.4
10748.3
10748.4
10748.4
10748.3
10748.4
10748.3
10748.3
10748.3
10748.4
10748.3
1712.49
1712.49
1712.37
1712.35
1712.45
1712.44
1712.48
1712.39
1712.46
1712.5
1712.49
1712.37
1712.35
1712.45
1712.45
1712.48
1712.39
1712.46
1712.5
1712.49
1712.37
1712.35
1712.45
1712.44
1712.48
1712.39
1712.46
1712.49
1712.49
1712.37
1712.35
1712.45
1712.44
1712.48
1712.39
1712.46
6171.77
6171.79
6171.89
6171.7
6171.73
6171.8
6171.69
6171.82
6171.79
6171.77
6171.78
6171.89
6171.7
6171.73
6171.8
6171.69
6171.82
6171.79
6171.77
6171.78
6171.89
6171.7
6171.73
6171.8
6171.69
6171.82
6171.79
6171.77
6171.78
6171.89
6171.7
6171.73
6171.8
6171.69
6171.82
6171.79
-2518.38
-2518.39
-2518.45
-2518.25
-2518.29
-2518.43
-2518.27
-2518.46
-2518.38
-2518.38
-2518.39
-2518.45
-2518.25
-2518.29
-2518.43
-2518.27
-2518.46
-2518.38
-2518.38
-2518.39
-2518.45
-2518.25
-2518.29
-2518.43
-2518.27
-2518.46
-2518.38
-2518.38
-2518.39
-2518.45
-2518.25
-2518.29
-2518.43
-2518.28
-2518.46
-2518.38
-14369.5
-14369.6
-14369.5
-14369.7
-14369.6
-14369.4
-14369.5
-14369.5
-14369.5
-14369.5
-14369.6
-14369.5
-14369.7
-14369.6
-14369.4
-14369.5
-14369.5
-14369.5
-14369.5
-14369.6
-14369.5
-14369.7
-14369.6
-14369.4
-14369.5
-14369.5
-14369.5
-14369.5
-14369.6
-14369.5
-14369.7
-14369.6
-14369.4
-14369.5
-14369.5
-14369.5
6693.41
6693.19
6693.39
6693.22
6693.35
6693.42
6693.18
6693.3
6693.19
6693.41
6693.19
6693.39
6693.22
6693.35
6693.42
6693.18
6693.3
6693.19
6693.42
6693.19
6693.39
6693.22
6693.35
6693.42
6693.18
6693.3
6693.19
6693.41
6693.19
6693.39
6693.22
6693.35
6693.42
6693.18
6693.3
6693.19
-1958.58
-1958.38
-1958.58
-1958.4
-1958.45
-1958.61
-1958.44
-1958.59
-1958.4
-1958.58
-1958.38
-1958.58
-1958.4
-1958.45
-1958.61
-1958.44
-1958.59
-1958.4
-1958.58
-1958.38
-1958.58
-1958.4
-1958.45
-1958.61
-1958.44
-1958.59
-1958.4
-1958.58
-1958.38
-1958.58
-1958.4
-1958.45
-1958.61
-1958.44
-1958.59
-1958.4
-16206.8
-16207
-16206.8
-16206.8
-16206.9
-16206.8
-16206.9
-16206.8
-16206.8
-16206.8
-16207
-16206.8
-16206.8
-16206.9
-16206.8
-16206.9
-16206.8
-16206.8
-16206.8
-16207
-16206.8
-16206.8
-16206.9
-16206.8
-16206.9
-16206.8
-16206.8
-16206.8
-16207
-16206.8
-16206.8
-16206.9
-16206.8
-16206.9
-16206.8
-16206.8
6857.46
6857.49
6857.41
6857.51
6857.51
6857.54
6857.53
6857.4
6857.47
6857.46
6857.49
6857.41
6857.52
6857.51
6857.54
6857.53
6857.4
6857.47
6857.46
6857.49
6857.41
6857.52
6857.51
6857.54
6857.53
6857.4
6857.47
6857.46
6857.49
6857.41
6857.52
6857.51
6857.54
6857.53
6857.4
6857.47
-2136.08
-2136.15
-2136.12
-2136.04
-2136.13
-2136.09
-2136.12
-2136.11
-2136.08
-2136.08
-2136.15
-2136.11
-2136.04
-2136.13
-2136.09
-2136.12
-2136.11
-2136.08
-2136.08
-2136.15
-2136.11
-2136.04
-2136.13
-2136.09
-2136.12
-2136.11
-2136.08
-2136.08
-2136.15
-2136.11
-2136.04
-2136.13
-2136.09
-2136.12
-2136.11
-2136.08
-18674.3
-18674.4
-18674.3
-18674.4
-18674.4
-18674.3
-18674.4
-18674.3
-18674.3
-18674.3
-18674.4
-18674.3
-18674.4
-18674.4
-18674.3
-18674.4
-18674.3
-18674.3
-18674.3
-18674.4
-18674.3
-18674.4
-18674.4
-18674.3
-18674.4
-18674.3
-18674.3
-18674.3
-18674.4
-18674.3
-18674.4
-18674.4
-18674.3
-18674.4
-18674.3
-18674.3
6848.89
6849.02
6848.82
6849.03
6848.92
6848.86
6849.09
6848.78
6848.98
6848.89
6849.02
6848.82
6849.03
6848.92
6848.86
6849.09
6848.78
6848.98
6848.89
6849.02
6848.82
6849.03
6848.92
6848.86
6849.09
6848.78
6848.98
6848.89
6849.02
6848.82
6849.03
6848.92
6848.86
6849.08
6848.78
6848.98
-2378.25
-2378.52
-2378.22
-2378.42
-2378.36
-2378.23
-2378.44
-2378.26
-2378.36
-2378.25
-2378.51
-2378.22
-2378.42
-2378.36
-2378.23
-2378.44
-2378.26
-2378.36
-2378.25
-2378.51
-2378.22
-2378.42
-2378.36
-2378.23
-2378.44
-2378.26
-2378.36
-2378.25
-2378.51
-2378.22
-2378.42
-2378.36
-2378.23
-2378.44
-2378.26
-2378.36
-20369
-20368.8
-20368.9
-20369
-20368.8
-20369
-20368.9
-20369
-20368.9
-20369
-20368.8
-20368.9
-20369
-20368.8
-20369
-20368.9
-20369
-20368.9
-20369
-20368.8
-20368.9
-20369
-20368.8
-20369
-20368.9
-20369
-20368.9
-20369
-20368.8
-20368.9
-20369
-20368.8
-20369
-20368.9
-20369
-20368.9
6376.43
6376.59
6376.43
6376.55
6376.47
6376.43
6376.5
6376.37
6376.58
6376.43
6376.59
6376.43
6376.55
6376.47
6376.43
6376.5
6376.37
6376.58
6376.43
6376.59
6376.43
6376.55
6376.47
6376.43
6376.5
6376.37
6376.58
6376.43
6376.59
6376.43
6376.55
6376.47
6376.43
6376.5
6376.37
6376.58
-2995.37
-2995.56
-2995.44
-2995.48
-2995.45
-2995.44
-2995.55
-2995.26
-2995.56
-2995.37
-2995.56
-2995.44
-2995.48
-2995.45
-2995.44
-2995.55
-2995.26
-2995.56
-2995.37
-2995.56
-2995.44
-2995.48
-2995.45
-2995.44
-2995.55
-2995.26
-2995.56
-2995.37
-2995.56
-2995.44
-2995.48
-2995.45
-2995.44
-2995.55
-2995.26
-2995.56
-21444.7
-21444.5
-21444.8
-21444.6
-21444.7
-21444.8
-21444.6
-21444.8
-21444.7
-21444.7
-21444.5
-21444.8
-21444.6
-21444.7
-21444.8
-21444.6
-21444.8
-21444.7
-21444.7
-21444.5
-21444.8
-21444.6
-21444.7
-21444.8
-21444.6
-21444.8
-21444.7
-21444.7
-21444.5
-21444.8
-21444.6
-21444.7
-21444.8
-21444.6
-21444.8
-21444.7
5244.78
5244.94
5244.6
5245
5244.7
5244.66
5244.92
5244.62
5244.85
5244.78
5244.94
5244.6
5245
5244.7
5244.66
5244.93
5244.62
5244.85
5244.78
5244.94
5244.6
5245
5244.7
5244.66
5244.92
5244.62
5244.85
5244.78
5244.94
5244.6
5245
5244.7
5244.66
5244.92
5244.62
5244.85
-3987.06
-3987.58
-3987.12
-3987.43
-3987.39
-3987.07
-3987.38
-3987.2
-3987.43
-3987.06
-3987.58
-3987.12
-3987.43
-3987.39
-3987.07
-3987.38
-3987.2
-3987.43
-3987.06
-3987.58
-3987.12
-3987.43
-3987.39
-3987.07
-3987.38
-3987.2
-3987.43
-3987.06
-3987.58
-3987.12
-3987.43
-3987.39
-3987.07
-3987.38
-3987.2
-3987.43
-21925.1
-21924.8
-21925
-21924.9
-21924.9
-21925
-21924.9
-21925.1
-21924.7
-21925.1
-21924.8
-21925
-21924.9
-21924.9
-21925
-21924.9
-21925.1
-21924.7
-21925.1
-21924.8
-21925
-21924.9
-21924.9
-21925
-21924.9
-21925.1
-21924.7
-21925.1
-21924.8
-21925
-21924.9
-21924.9
-21925
-21924.9
-21925.1
-21924.7
3156.95
3156.87
3156.76
3156.9
3156.77
3156.78
3156.88
3156.76
3156.73
3156.95
3156.87
3156.76
3156.9
3156.77
3156.78
3156.88
3156.76
3156.73
3156.95
3156.87
3156.76
3156.9
3156.77
3156.78
3156.88
3156.76
3156.73
3156.95
3156.87
3156.76
3156.9
3156.77
3156.78
3156.88
3156.76
3156.73
-5279.9
-5279.93
-5279.72
-5280
-5279.78
-5279.67
-5279.84
-5279.85
-5279.68
-5279.9
-5279.93
-5279.72
-5280
-5279.78
-5279.67
-5279.84
-5279.85
-5279.68
-5279.9
-5279.93
-5279.72
-5280
-5279.78
-5279.67
-5279.84
-5279.85
-5279.68
-5279.91
-5279.93
-5279.72
-5280
-5279.78
-5279.67
-5279.84
-5279.85
-5279.68
-21684.7
-21684.5
-21684.6
-21684.6
-21684.6
-21684.7
-21684.7
-21684.7
-21684.7
-21684.7
-21684.5
-21684.6
-21684.6
-21684.6
-21684.7
-21684.7
-21684.7
-21684.7
-21684.7
-21684.5
-21684.6
-21684.6
-21684.6
-21684.7
-21684.7
-21684.7
-21684.7
-21684.7
-21684.5
-21684.6
-21684.6
-21684.6
-21684.7
-21684.7
-21684.7
-21684.7
-262.727
-262.663
-262.698
-262.714
-262.716
-262.717
-262.763
-262.704
-262.643
-262.728
-262.663
-262.698
-262.714
-262.716
-262.717
-262.763
-262.704
-262.643
-262.727
-262.663
-262.698
-262.714
-262.716
-262.716
-262.763
-262.704
-262.643
-262.728
-262.664
-262.698
-262.715
-262.716
-262.717
-262.763
-262.704
-262.643
-6721.6
-6721.46
-6721.56
-6721.4
-6721.42
-6721.6
-6721.32
-6721.52
-6721.51
-6721.6
-6721.46
-6721.56
-6721.4
-6721.42
-6721.6
-6721.32
-6721.52
-6721.51
-6721.6
-6721.46
-6721.56
-6721.4
-6721.42
-6721.6
-6721.32
-6721.52
-6721.51
-6721.6
-6721.46
-6721.56
-6721.4
-6721.42
-6721.6
-6721.32
-6721.52
-6721.51
-20278.7
-20278.9
-20278.8
-20279
-20279
-20278.9
-20278.8
-20278.9
-20279.1
-20278.7
-20278.9
-20278.8
-20279
-20279
-20278.9
-20278.8
-20278.9
-20279.1
-20278.7
-20278.9
-20278.8
-20279
-20279
-20278.9
-20278.8
-20278.9
-20279.1
-20278.7
-20278.9
-20278.8
-20279
-20279
-20278.9
-20278.8
-20278.9
-20279.1
-5203.64
-5203.72
-5203.66
-5203.55
-5203.61
-5203.71
-5203.68
-5203.52
-5203.64
-5203.64
-5203.72
-5203.66
-5203.55
-5203.61
-5203.7
-5203.67
-5203.52
-5203.64
-5203.64
-5203.72
-5203.66
-5203.55
-5203.61
-5203.7
-5203.67
-5203.52
-5203.64
-5203.64
-5203.72
-5203.66
-5203.55
-5203.61
-5203.71
-5203.67
-5203.52
-5203.64
-8005.62
-8005.54
-8005.69
-8005.65
-8005.69
-8005.73
-8005.56
-8005.66
-8005.75
-8005.62
-8005.54
-8005.69
-8005.65
-8005.69
-8005.72
-8005.56
-8005.65
-8005.75
-8005.62
-8005.54
-8005.69
-8005.65
-8005.69
-8005.73
-8005.56
-8005.66
-8005.75
-8005.62
-8005.54
-8005.7
-8005.65
-8005.69
-8005.73
-8005.56
-8005.65
-8005.75
-16808
-16808.1
-16808.1
-16808.1
-16808.1
-16808
-16808.1
-16808
-16808.2
-16808
-16808.1
-16808.1
-16808.1
-16808.1
-16808
-16808.1
-16808
-16808.2
-16808
-16808.1
-16808.1
-16808.1
-16808.1
-16808
-16808.1
-16808
-16808.2
-16808
-16808.1
-16808.1
-16808.1
-16808.1
-16808
-16808.1
-16808
-16808.2
-11036.1
-11036.2
-11036.2
-11036.1
-11036
-11036.1
-11036
-11036.1
-11036.2
-11036.1
-11036.2
-11036.2
-11036.1
-11036
-11036.1
-11036
-11036.1
-11036.2
-11036.1
-11036.2
-11036.2
-11036.1
-11036
-11036.1
-11036
-11036.1
-11036.2
-11036.1
-11036.3
-11036.2
-11036.1
-11036
-11036.1
-11036
-11036.1
-11036.2
-8685.82
-8685.46
-8685.75
-8685.68
-8685.7
-8685.72
-8685.69
-8685.91
-8685.61
-8685.82
-8685.46
-8685.75
-8685.68
-8685.7
-8685.72
-8685.69
-8685.91
-8685.61
-8685.82
-8685.46
-8685.75
-8685.68
-8685.7
-8685.72
-8685.69
-8685.91
-8685.61
-8685.82
-8685.47
-8685.75
-8685.68
-8685.7
-8685.72
-8685.69
-8685.91
-8685.61
-10138.8
-10139
-10138.8
-10139
-10138.9
-10139
-10139.1
-10138.8
-10139
-10138.8
-10139
-10138.8
-10139
-10138.9
-10139
-10139.1
-10138.8
-10139
-10138.8
-10139
-10138.8
-10139
-10138.9
-10139
-10139.1
-10138.8
-10139
-10138.8
-10139
-10138.8
-10139
-10138.9
-10139
-10139.1
-10138.8
-10139
-15873.8
-15873.9
-15873.7
-15873.8
-15873.7
-15873.7
-15873.6
-15873.7
-15874.1
-15873.8
-15873.9
-15873.7
-15873.8
-15873.7
-15873.7
-15873.6
-15873.7
-15874.1
-15873.8
-15873.9
-15873.7
-15873.8
-15873.7
-15873.7
-15873.6
-15873.7
-15874.1
-15873.8
-15873.9
-15873.7
-15873.8
-15873.7
-15873.7
-15873.6
-15873.7
-15874.1
-8553.61
-8553.47
-8553.58
-8553.68
-8553.6
-8553.67
-8553.69
-8553.85
-8553.64
-8553.61
-8553.46
-8553.57
-8553.67
-8553.6
-8553.67
-8553.69
-8553.84
-8553.64
-8553.61
-8553.46
-8553.58
-8553.67
-8553.6
-8553.67
-8553.7
-8553.85
-8553.64
-8553.61
-8553.47
-8553.58
-8553.68
-8553.6
-8553.67
-8553.69
-8553.84
-8553.64
461.293
461.104
461.223
461.145
461.157
461.046
461.231
461.37
461.391
461.293
461.103
461.221
461.143
461.154
461.043
461.229
461.369
461.39
461.293
461.103
461.221
461.142
461.153
461.043
461.229
461.369
461.39
461.294
461.104
461.222
461.144
461.155
461.044
461.229
461.369
461.39
-16863.7
-16863.7
-16863.5
-16863.4
-16863.5
-16863.2
-16863.5
-16863.5
-16863.9
-16863.7
-16863.7
-16863.5
-16863.4
-16863.5
-16863.2
-16863.5
-16863.5
-16863.9
-16863.7
-16863.7
-16863.5
-16863.4
-16863.5
-16863.2
-16863.5
-16863.5
-16863.9
-16863.7
-16863.7
-16863.5
-16863.4
-16863.5
-16863.2
-16863.5
-16863.5
-16863.9
-7397.42
-7397.34
-7397.44
-7397.62
-7397.17
-7397.58
-7397.41
-7397.62
-7397.26
-7397.42
-7397.33
-7397.44
-7397.61
-7397.16
-7397.58
-7397.41
-7397.62
-7397.26
-7397.42
-7397.34
-7397.44
-7397.62
-7397.16
-7397.58
-7397.41
-7397.62
-7397.26
-7397.42
-7397.34
-7397.44
-7397.62
-7397.16
-7397.58
-7397.41
-7397.62
-7397.26
15575
15574.7
15574.8
15574.7
15574.7
15575
15574.8
15575.4
15575
15575
15574.7
15574.8
15574.7
15574.7
15575
15574.8
15575.4
15575
15575
15574.7
15574.8
15574.7
15574.7
15575
15574.8
15575.4
15575
15575
15574.7
15574.8
15574.7
15574.7
15575
15574.8
15575.3
15575
-14223.5
-14222.8
-14221.3
-14221.9
-14224
-14222.3
-14221.2
-14222.9
-14224
-14223.5
-14222.8
-14221.3
-14221.9
-14224.1
-14222.3
-14221.2
-14222.9
-14224.1
-14223.5
-14222.8
-14221.3
-14221.9
-14224.1
-14222.3
-14221.2
-14222.9
-14224.1
-14223.5
-14222.8
-14221.3
-14221.9
-14224.1
-14222.4
-14221.2
-14222.9
-14224
-8552.45
-8552.7
-8552.56
-8552.89
-8552.31
-8553.19
-8552.73
-8552.67
-8552.57
-8552.44
-8552.7
-8552.55
-8552.89
-8552.31
-8553.19
-8552.73
-8552.68
-8552.57
-8552.44
-8552.7
-8552.56
-8552.89
-8552.32
-8553.19
-8552.73
-8552.68
-8552.57
-8552.44
-8552.69
-8552.56
-8552.89
-8552.31
-8553.19
-8552.73
-8552.67
-8552.57
31668
31667.8
31667.8
31668
31668.1
31667.9
31668.5
31668.2
31668.2
31668
31667.8
31667.7
31668
31668.1
31667.9
31668.5
31668.2
31668.2
31668
31667.8
31667.7
31668
31668.1
31667.9
31668.5
31668.2
31668.2
31668
31667.8
31667.8
31668
31668.1
31667.9
31668.5
31668.2
31668.2
8306.8
8309.56
8294.1
8298.51
8312.14
8301.28
8293.67
8304.27
8301.66
8306.85
8309.66
8294.17
8298.55
8312.18
8301.31
8293.69
8304.3
8301.69
8306.87
8309.69
8294.18
8298.55
8312.18
8301.31
8293.68
8304.29
8301.67
8306.85
8309.67
8294.17
8298.55
8312.17
8301.31
8293.69
8304.28
8301.65
5320.68
5319.51
5320.68
5317.34
5325.2
5316.08
5322.68
5320.33
5321.67
5320.68
5319.5
5320.66
5317.32
5325.19
5316.07
5322.68
5320.34
5321.69
5320.69
5319.52
5320.67
5317.32
5325.2
5316.08
5322.69
5320.34
5321.69
5320.7
5319.53
5320.68
5317.32
5325.19
5316.08
5322.68
5320.33
5321.67
38485.1
38484.7
38481.2
38492.3
38473.4
38495.7
38477.2
38488.1
38483.9
38485.1
38484.7
38481.2
38492.3
38473.4
38495.7
38477.2
38488.1
38483.9
38485.1
38484.7
38481.2
38492.3
38473.4
38495.7
38477.2
38488.1
38483.9
38485.1
38484.7
38481.2
38492.3
38473.4
38495.7
38477.2
38488.1
38483.9
)
;

boundaryField
{
    fixed
    {
        type            zeroGradient;
    }
    inside
    {
        type            zeroGradient;
    }
    outside
    {
        type            zeroGradient;
    }
}


// ************************************************************************* //
