/*--------------------------------*- C++ -*----------------------------------*\
| =========                 |                                                 |
| \\      /  F ield         | OpenFOAM: The Open Source CFD Toolbox           |
|  \\    /   O peration     | Version:  2412                                  |
|   \\  /    A nd           | Website:  www.openfoam.com                      |
|    \\/     M anipulation  |                                                 |
\*---------------------------------------------------------------------------*/
FoamFile
{
    version     2.0;
    format      ascii;
    arch        "LSB;label=32;scalar=64";
    class       volScalarField;
    location    "0.0250162";
    object      ionicCurrent;
}
// * * * * * * * * * * * * * * * * * * * * * * * * * * * * * * * * * * * * * //

dimensions      [1 2 -4 0 0 -1 0];

internalField   nonuniform List<scalar> 
8670
(
2.28083
1.1948
0.429314
0.150546
0.000787377
0.00026827
8.99142e-05
2.97324e-05
9.71925e-06
3.1463e-06
1.01006e-06
3.21938e-07
1.01972e-07
3.2122e-08
1.00695e-08
3.14285e-09
9.77098e-10
3.02703e-10
9.34761e-11
2.87818e-11
8.8383e-12
2.7073e-12
8.27207e-13
2.52112e-13
7.6627e-14
2.31976e-14
6.82177e-15
1.96454e-15
6.4615e-16
9.10383e-17
2.16493e-17
9.10383e-17
2.27002
1.15055
0.413218
0.144886
0.000757942
0.000258313
8.65762e-05
2.86284e-05
9.35995e-06
3.03082e-06
9.73283e-07
3.10307e-07
9.83137e-08
3.09768e-08
9.71251e-09
3.03197e-09
9.42778e-10
2.92114e-10
9.02184e-11
2.77822e-11
8.53257e-12
2.61397e-12
7.98723e-13
2.43507e-13
7.41637e-14
2.21914e-14
6.5789e-15
1.92985e-15
5.07372e-16
9.10383e-17
9.10383e-17
-4.77396e-17
2.24992
1.07068
0.383678
0.134337
0.000702439
0.000239411
8.0257e-05
2.65425e-05
8.67862e-06
2.81042e-06
9.02631e-07
2.87839e-07
9.12171e-08
2.87482e-08
9.01607e-09
2.81529e-09
8.75624e-10
2.71373e-10
8.38327e-11
2.58213e-11
7.93194e-12
2.43054e-12
7.43142e-13
2.26785e-13
6.90289e-14
2.09771e-14
6.30135e-15
1.92985e-15
6.80844e-16
1.95122e-16
-1.30451e-17
-4.77396e-17
2.21393
0.948086
0.340222
0.1196
0.000624928
0.000212748
7.12668e-05
2.35561e-05
7.70011e-06
2.49356e-06
8.01027e-07
2.55524e-07
8.10098e-08
2.55426e-08
8.01436e-09
2.50361e-09
7.79014e-10
2.41529e-10
7.46422e-11
2.29991e-11
7.06729e-12
2.16634e-12
6.62478e-13
2.02256e-13
6.13962e-14
1.86873e-14
5.39929e-15
1.54821e-15
5.07372e-16
1.25733e-16
9.10383e-17
-1.30451e-17
2.17969
0.807555
0.288543
0.101693
0.000529497
0.000180065
6.02898e-05
1.99242e-05
6.51297e-06
2.10933e-06
6.77697e-07
2.16222e-07
6.85651e-08
2.16247e-08
6.78726e-09
2.12106e-09
6.60249e-10
2.04796e-10
6.33185e-11
1.95192e-11
6.00081e-12
1.84018e-12
5.62766e-13
1.71343e-13
5.19593e-14
1.57035e-14
4.7054e-15
1.20126e-15
3.68594e-16
2.16493e-17
-1.30451e-17
9.10383e-17
1.7679
0.649986
0.231216
0.00122653
0.000423928
0.000144041
4.82031e-05
1.59289e-05
5.20786e-06
1.6871e-06
5.42208e-07
1.73049e-07
5.48934e-08
1.73191e-08
5.43803e-09
1.70016e-09
5.29486e-10
1.64322e-10
5.0833e-11
1.56794e-11
4.82318e-12
1.47988e-12
4.52923e-13
1.38244e-13
4.2106e-14
1.27198e-14
3.73396e-15
1.16657e-15
1.95122e-16
-1.30451e-17
-1.30451e-17
-4.77396e-17
1.34005
0.490513
0.174541
0.000926208
0.000319836
0.000108489
3.62693e-05
1.19782e-05
3.91483e-06
1.26804e-06
4.07531e-07
1.30083e-07
4.12735e-08
1.30261e-08
4.09173e-09
1.27986e-09
3.98809e-10
1.23843e-10
3.83365e-11
1.18332e-11
3.64291e-12
1.11885e-12
3.42768e-13
1.05146e-13
3.24263e-14
1.00137e-14
3.07476e-15
1.02779e-15
3.68594e-16
9.10383e-17
9.10383e-17
2.16493e-17
0.947447
0.34581
0.123439
0.000653545
0.000225075
7.6201e-05
2.54327e-05
8.38804e-06
2.73894e-06
8.86697e-07
2.84921e-07
9.09545e-08
2.88674e-08
9.11493e-09
2.86485e-09
8.96725e-10
2.7964e-10
8.69106e-11
2.69284e-11
8.32014e-12
2.56394e-12
7.88107e-13
2.41634e-13
7.39209e-14
2.28159e-14
7.02993e-15
2.17271e-15
8.19622e-16
1.95122e-16
9.10383e-17
9.10383e-17
2.16493e-17
0.621365
0.224846
0.00121031
0.000423499
0.000145424
4.91223e-05
1.63711e-05
5.39502e-06
1.76097e-06
5.70071e-07
1.83224e-07
5.8518e-08
1.85852e-08
5.87334e-09
1.84786e-09
5.79048e-10
1.80796e-10
5.62644e-11
1.74574e-11
5.40185e-12
1.66751e-12
5.13708e-13
1.57812e-13
4.8698e-14
1.51137e-14
4.56662e-15
1.61759e-15
4.03289e-16
2.16493e-17
2.29816e-16
9.10383e-17
2.64511e-16
0.367049
0.132738
0.000713664
0.000249072
8.52646e-05
2.8748e-05
9.57186e-06
3.15352e-06
1.02955e-06
3.33481e-07
1.07273e-07
3.4298e-08
1.09071e-08
3.45196e-09
1.08783e-09
3.41485e-10
1.06822e-10
3.33092e-11
1.03563e-11
3.21145e-12
9.93359e-13
3.06582e-13
9.45294e-14
2.90956e-14
8.93813e-15
2.8319e-15
1.02779e-15
1.95122e-16
9.10383e-17
5.63438e-17
-1.30451e-17
-1.30451e-17
0.192357
0.00105301
0.000374236
0.000130294
4.45843e-05
1.50389e-05
5.01196e-06
1.65328e-06
5.40577e-07
1.75407e-07
5.65365e-08
1.81158e-08
5.7747e-09
1.83227e-09
5.78955e-10
1.82251e-10
5.7176e-11
1.78818e-11
5.57695e-12
1.73471e-12
5.38237e-13
1.66798e-13
5.15776e-14
1.58076e-14
4.98296e-15
1.37473e-15
4.03289e-16
1.25733e-16
-1.30451e-17
-1.30451e-17
9.10383e-17
2.16493e-17
0.090213
0.00048878
0.000173007
6.01231e-05
2.05736e-05
6.94849e-06
2.32057e-06
7.67544e-07
2.51753e-07
8.19737e-08
2.6521e-08
8.53185e-09
2.73092e-09
8.70186e-10
2.76151e-10
8.73121e-11
2.75131e-11
8.64311e-12
2.70765e-12
8.45977e-13
2.63665e-13
8.20047e-14
2.5418e-14
8.00138e-15
2.72782e-15
8.54317e-16
1.25733e-16
-1.30451e-17
-1.30451e-17
-4.77396e-17
-1.30451e-17
-1.30451e-17
0.000543432
0.000195744
6.91978e-05
2.40694e-05
8.25788e-06
2.7998e-06
9.39533e-07
3.12453e-07
1.03091e-07
3.37773e-08
1.09985e-08
3.56155e-09
1.14758e-09
3.68107e-10
1.17596e-10
3.74279e-11
1.18721e-11
3.75421e-12
1.18387e-12
3.72189e-13
1.16526e-13
3.63468e-14
1.11586e-14
3.52579e-15
1.27065e-15
1.95122e-16
2.16493e-17
-1.30451e-17
-1.30451e-17
9.10383e-17
9.10383e-17
2.16493e-17
0.000189355
6.81602e-05
2.41481e-05
8.43839e-06
2.91351e-06
9.95364e-07
3.36881e-07
1.13069e-07
3.76674e-08
1.24643e-08
4.09953e-09
1.34096e-09
4.36439e-10
1.414e-10
4.56206e-11
1.46625e-11
4.69606e-12
1.49934e-12
4.77418e-13
1.51602e-13
4.79694e-14
1.52525e-14
4.77479e-15
1.34004e-15
5.07372e-16
9.10383e-17
-1.30451e-17
-1.30451e-17
-1.30451e-17
9.10383e-17
9.10383e-17
-1.30451e-17
7.08745e-05
2.54437e-05
9.02719e-06
3.16961e-06
1.10257e-06
3.80285e-07
1.30139e-07
4.42127e-08
1.49196e-08
5.00314e-09
1.668e-09
5.53083e-10
1.8247e-10
5.99177e-11
1.95892e-11
6.37829e-12
2.06889e-12
6.69e-13
2.15717e-13
6.93065e-14
2.23302e-14
7.09932e-15
2.34618e-15
8.19622e-16
1.95122e-16
-4.77396e-17
-1.30451e-17
-1.30451e-17
-1.30451e-17
-1.30451e-17
-1.30451e-17
2.16493e-17
-152.931
-209.643
2.26136
0.953436
0.304306
0.0979811
0.000469816
0.000149141
4.69686e-05
1.46919e-05
4.56947e-06
1.41426e-06
4.35861e-07
1.33831e-07
4.09589e-08
1.24989e-08
3.80414e-09
1.15507e-09
3.49957e-10
1.05818e-10
3.19384e-11
9.6235e-12
2.89507e-12
8.69743e-13
2.60785e-13
7.82577e-14
2.33016e-14
6.89115e-15
1.89515e-15
4.37983e-16
9.10383e-17
-1.30451e-17
-157.064
-198.307
2.24915
0.916842
0.292693
0.0942895
0.00045221
0.000143544
4.52143e-05
1.41491e-05
4.40271e-06
1.36322e-06
4.20281e-07
1.29087e-07
3.95168e-08
1.20614e-08
3.67162e-09
1.11499e-09
3.37857e-10
1.0217e-10
3.08406e-11
9.29363e-12
2.79636e-12
8.40322e-13
2.5232e-13
7.57597e-14
2.25384e-14
6.64829e-15
1.96454e-15
6.4615e-16
1.95122e-16
-1.30451e-17
-166.54
-182.832
2.22827
0.846194
0.270265
0.0871697
0.000418598
0.000132946
4.18952e-05
1.31148e-05
4.08208e-06
1.26438e-06
3.89961e-07
1.19821e-07
3.66937e-08
1.12034e-08
3.4114e-09
1.03623e-09
3.14063e-10
9.49942e-11
2.86797e-11
8.64398e-12
2.60117e-12
7.81723e-13
2.34522e-13
7.03126e-14
2.10118e-14
6.33604e-15
2.13801e-15
7.50233e-16
1.25733e-16
-4.77396e-17
-181.126
-137.224
2.1936
0.747781
0.239223
0.0011594
0.000371393
0.000117909
3.71479e-05
1.16284e-05
3.62016e-06
1.12173e-06
3.46137e-07
1.06413e-07
3.26057e-08
9.96048e-09
3.03446e-09
9.22163e-10
2.79612e-10
8.46082e-11
2.55538e-11
7.70487e-12
2.31949e-12
6.97485e-13
2.09507e-13
6.27146e-14
1.84791e-14
5.39929e-15
1.5829e-15
4.37983e-16
9.10383e-17
-1.30451e-17
-202.877
-84.3554
2.16001
0.62713
0.200908
0.000975753
0.000312843
9.93759e-05
3.13274e-05
9.81219e-06
3.05646e-06
9.47555e-07
2.92531e-07
8.99748e-08
2.75818e-08
8.42991e-09
2.56948e-09
7.81266e-10
2.37017e-10
7.17581e-11
2.16842e-11
6.54142e-12
1.97036e-12
5.92603e-13
1.77866e-13
5.32083e-14
1.60505e-14
5.15643e-15
1.65229e-15
3.339e-16
2.16493e-17
-4.77396e-17
-230.697
-18.7861
1.53521
0.495773
0.159118
0.000774665
0.000248668
7.90523e-05
2.49408e-05
7.81866e-06
2.4375e-06
7.56217e-07
2.33611e-07
7.18955e-08
2.20526e-08
6.74403e-09
2.0569e-09
6.25827e-10
1.89991e-10
5.75613e-11
1.74067e-11
5.25498e-12
1.58389e-12
4.7662e-13
1.4331e-13
4.31122e-14
1.2928e-14
4.04621e-15
1.34004e-15
4.37983e-16
5.63438e-17
9.10383e-17
-231.326
2.32713
1.13747
0.368646
0.119078
0.000580228
0.000186033
5.91286e-05
1.86584e-05
5.85108e-06
1.82482e-06
5.66397e-07
1.75062e-07
5.39074e-08
1.65454e-08
5.0633e-09
1.54542e-09
4.70573e-10
1.42976e-10
4.33546e-11
1.31224e-11
3.96536e-12
1.19663e-12
3.60844e-13
1.08824e-13
3.28426e-14
9.80549e-15
2.97068e-15
8.19622e-16
2.99205e-16
-1.30451e-17
2.16493e-17
-145.073
2.1999
0.786519
0.254984
0.00124922
0.000404147
0.000129515
4.11455e-05
1.29793e-05
4.06996e-06
1.26963e-06
3.94257e-07
1.21935e-07
3.7577e-08
1.15432e-08
3.53582e-09
1.08028e-09
3.29281e-10
1.00155e-10
3.04045e-11
9.21338e-12
2.78731e-12
8.42056e-13
2.5395e-13
7.64189e-14
2.29547e-14
6.68299e-15
1.86046e-15
6.4615e-16
1.25733e-16
-4.77396e-17
-1.30451e-17
-10.5465
1.51823
0.498531
0.16209
0.000797118
0.000258018
8.26349e-05
2.62522e-05
8.28452e-06
2.5994e-06
8.11525e-07
2.52241e-07
7.80973e-08
2.40964e-08
7.4119e-09
2.27354e-09
6.9565e-10
2.12369e-10
6.46981e-11
1.96728e-11
5.97167e-12
1.80982e-12
5.47674e-13
1.65653e-13
5.02245e-14
1.52178e-14
4.56662e-15
1.44412e-15
4.37983e-16
9.10383e-17
-1.30451e-17
-1.30451e-17
2.22611
0.871209
0.286088
0.0943379
0.000461711
0.000149232
4.77961e-05
1.5195e-05
4.80024e-06
1.50809e-06
4.71512e-07
1.46794e-07
4.55301e-08
1.40748e-08
4.33808e-09
1.33349e-09
4.08913e-10
1.25115e-10
3.82039e-11
1.1644e-11
3.54281e-12
1.07642e-12
3.26427e-13
9.87274e-14
2.98242e-14
9.04221e-15
2.97068e-15
1.02779e-15
3.339e-16
5.63438e-17
-1.30451e-17
-1.30451e-17
1.30513
0.437077
0.144734
0.00072259
0.000236861
7.67727e-05
2.46598e-05
7.86157e-06
2.49041e-06
7.84615e-07
2.46021e-07
7.68207e-08
2.38997e-08
7.41129e-09
2.29158e-09
7.06706e-10
2.17424e-10
6.67465e-11
2.04496e-11
6.25387e-12
1.90929e-12
5.82299e-13
1.77553e-13
5.39715e-14
1.64668e-14
4.80949e-15
1.51351e-15
5.07372e-16
1.25733e-16
-1.30451e-17
-1.30451e-17
2.16493e-17
0.578812
0.193743
0.000978581
0.000325336
0.000106878
3.47633e-05
1.12118e-05
3.59007e-06
1.14248e-06
3.61642e-07
1.13943e-07
3.57536e-08
1.11785e-08
3.48373e-09
1.08254e-09
3.35505e-10
1.03731e-10
3.20007e-11
9.85197e-12
3.02757e-12
9.28862e-13
2.84586e-13
8.72089e-14
2.67711e-14
8.14016e-15
2.55435e-15
6.11455e-16
1.60427e-16
-1.30451e-17
9.10383e-17
-1.30451e-17
-1.30451e-17
0.217813
0.0011189
0.000378303
0.000126341
4.17375e-05
1.3663e-05
4.43759e-06
1.43145e-06
4.59004e-07
1.46414e-07
4.6488e-08
1.47e-08
4.63121e-09
1.45423e-09
4.55263e-10
1.42134e-10
4.42626e-11
1.3752e-11
4.26345e-12
1.31897e-12
4.07369e-13
1.25581e-13
3.86019e-14
1.18525e-14
3.90743e-15
1.23596e-15
3.68594e-16
9.10383e-17
-1.30451e-17
-1.30451e-17
-4.77396e-17
-1.86517e-16
0.00108414
0.000373343
0.000127001
4.27386e-05
1.42493e-05
4.71211e-06
1.54706e-06
5.04674e-07
1.63691e-07
5.28203e-08
1.69652e-08
5.42611e-09
1.72883e-09
5.48902e-10
1.73716e-10
5.48149e-11
1.72491e-11
5.41416e-12
1.69537e-12
5.29702e-13
1.65063e-13
5.12654e-14
1.59811e-14
5.19113e-15
1.61759e-15
6.80844e-16
2.99205e-16
2.16493e-17
-1.30451e-17
5.63438e-17
-1.30451e-17
-1.30451e-17
0.000390241
0.000134134
4.57321e-05
1.54807e-05
5.20643e-06
1.74062e-06
5.78687e-07
1.91379e-07
6.29761e-08
2.06256e-08
6.72511e-09
2.18356e-09
7.06169e-10
2.27528e-10
7.30536e-11
2.3379e-11
7.45878e-12
2.37253e-12
7.52441e-13
2.37956e-13
7.51352e-14
2.35445e-14
7.2034e-15
2.03393e-15
4.72677e-16
5.63438e-17
-8.24341e-17
5.63438e-17
-1.30451e-17
-1.30451e-17
-1.30451e-17
-1.86517e-16
-29.1604
-89.2074
-210.279
-60.3088
1.61002
0.479738
0.143756
0.000659261
0.000200445
6.0706e-05
1.83346e-05
5.52386e-06
1.66055e-06
4.98199e-07
1.49208e-07
4.46171e-08
1.33227e-08
3.973e-09
1.18336e-09
3.52066e-10
1.04633e-10
3.1066e-11
9.21494e-12
2.731e-12
8.08819e-13
2.39518e-13
7.09025e-14
2.09771e-14
6.37074e-15
1.92985e-15
6.4615e-16
2.64511e-16
-29.6014
-93.3609
-213.41
-48.735
1.55089
0.461082
0.138099
0.000633751
0.000192842
5.84545e-05
1.76684e-05
5.32634e-06
1.6019e-06
4.80775e-07
1.44031e-07
4.30788e-08
1.28656e-08
3.83718e-09
1.14301e-09
3.40086e-10
1.01078e-10
3.00121e-11
8.90304e-12
2.63892e-12
7.81757e-13
2.31711e-13
6.85779e-14
2.02832e-14
6.02379e-15
1.75637e-15
6.4615e-16
2.29816e-16
-32.719
-100.279
-220.524
-24.6396
1.42424
0.424467
0.12783
0.000586864
0.000178576
5.4172e-05
1.63846e-05
4.94204e-06
1.48715e-06
4.46577e-07
1.33851e-07
4.00497e-08
1.19646e-08
3.56928e-09
1.0634e-09
3.1644e-10
9.40613e-11
2.79312e-11
8.28648e-12
2.45625e-12
7.27357e-13
2.15301e-13
6.39636e-14
1.91036e-14
5.71154e-15
1.65229e-15
6.11455e-16
1.60427e-16
-36.7368
-110.877
-231.823
2.4547
1.26159
0.375697
0.113691
0.000520932
0.000158452
4.80678e-05
1.45389e-05
4.38644e-06
1.32053e-06
3.96753e-07
1.18984e-07
3.56207e-08
1.06469e-08
3.17768e-09
9.47131e-10
2.81952e-10
8.38398e-11
2.49041e-11
7.3905e-12
2.19125e-12
6.49225e-13
1.9209e-13
5.66083e-14
1.67791e-14
5.12174e-15
1.61759e-15
5.42066e-16
1.60427e-16
-43.5694
-127.108
-233.458
2.33864
1.04966
0.31369
0.0956198
0.000437661
0.000133344
4.04947e-05
1.2259e-05
3.70149e-06
1.1151e-06
3.35243e-07
1.00596e-07
3.01332e-08
9.01191e-09
2.69124e-09
8.02612e-10
2.3907e-10
7.11295e-11
2.11406e-11
6.27705e-12
1.86194e-12
5.51733e-13
1.6312e-13
4.81082e-14
1.42117e-14
4.1156e-15
1.27065e-15
4.37983e-16
2.16493e-17
-54.1299
-151.092
-209.341
2.24362
0.822404
0.246961
0.00113422
0.000347095
0.000105867
3.21792e-05
9.7525e-06
2.9478e-06
8.88841e-07
2.67426e-07
8.03041e-08
2.4072e-08
7.2045e-09
2.15314e-09
6.42645e-10
1.91577e-10
5.70462e-11
1.6969e-11
5.04262e-12
1.49719e-12
4.44215e-13
1.31306e-13
3.84284e-14
1.11239e-14
3.21354e-15
8.89011e-16
2.29816e-16
2.16493e-17
-74.8423
-182.648
-126.074
2.16692
0.607541
0.183108
0.000844301
0.000258617
7.89009e-05
2.39985e-05
7.27845e-06
2.20154e-06
6.64302e-07
2.00021e-07
6.01114e-08
1.80344e-08
5.40232e-09
1.61605e-09
4.82805e-10
1.44071e-10
4.29441e-11
1.27872e-11
3.80389e-12
1.13047e-12
3.35725e-13
9.95254e-14
2.92691e-14
8.52179e-15
2.58904e-15
9.23706e-16
2.29816e-16
2.16493e-17
-105.82
-229.688
-13.9328
1.38095
0.415654
0.126292
0.000584229
0.000178935
5.4616e-05
1.66217e-05
5.04455e-06
1.52712e-06
4.6124e-07
1.39023e-07
4.18257e-08
1.25625e-08
3.76756e-09
1.12837e-09
3.37517e-10
1.00842e-10
3.00966e-11
8.97323e-12
2.67288e-12
7.95392e-13
2.36499e-13
7.01739e-14
2.06302e-14
5.91971e-15
1.68698e-15
5.76761e-16
9.10383e-17
-1.30451e-17
-149.836
-212.771
2.25185
0.857623
0.259808
0.00120107
0.000369609
0.000113362
3.46512e-05
1.05596e-05
3.20908e-06
9.72814e-07
2.94244e-07
8.88215e-08
2.67641e-08
8.0518e-09
2.41881e-09
7.25664e-10
2.17439e-10
6.50801e-11
1.9458e-11
5.812e-12
1.73457e-12
5.17247e-13
1.54343e-13
4.5749e-14
1.30321e-14
3.52579e-15
7.50233e-16
1.95122e-16
-1.30451e-17
2.16493e-17
-215.515
-50.5991
1.59458
0.48371
0.147366
0.000686325
0.000211802
6.50787e-05
1.99312e-05
6.08585e-06
1.8532e-06
5.62951e-07
1.70642e-07
5.16271e-08
1.5593e-08
4.70234e-09
1.41608e-09
4.25889e-10
1.27933e-10
3.83868e-11
1.1506e-11
3.44525e-12
1.03062e-12
3.0797e-13
9.20661e-14
2.76038e-14
8.20954e-15
2.13801e-15
4.37983e-16
5.63438e-17
-1.30451e-17
2.16493e-17
-184.771
2.21423
0.776366
0.238486
0.00111706
0.000348039
0.000107898
3.32966e-05
1.02371e-05
3.13744e-06
9.58885e-07
2.92347e-07
8.89404e-08
2.70068e-08
8.18673e-09
2.47786e-09
7.48904e-10
2.26051e-10
6.81482e-11
2.05215e-11
6.173e-12
1.855e-12
5.56868e-13
1.66937e-13
4.99123e-14
1.48362e-14
4.21968e-15
1.06248e-15
5.63438e-17
5.63438e-17
-1.30451e-17
-4.77396e-17
2.33429
1.07727
0.333413
0.10443
0.000494175
0.000154838
4.82822e-05
1.49893e-05
4.63592e-06
1.42914e-06
4.39316e-07
1.34709e-07
4.12156e-08
1.25855e-08
3.83626e-09
1.16745e-09
3.54744e-10
1.07643e-10
3.26208e-11
9.87362e-12
2.98527e-12
9.01592e-13
2.72061e-13
8.20047e-14
2.46894e-14
7.65443e-15
2.27679e-15
7.84928e-16
2.16493e-17
5.63438e-17
-1.51823e-16
-1.86517e-16
1.22794
0.387192
0.122752
0.000590986
0.000188016
5.94823e-05
1.87245e-05
5.86787e-06
1.83166e-06
5.698e-07
1.76722e-07
5.46637e-08
1.68682e-08
5.19394e-09
1.59612e-09
4.89602e-10
1.4993e-10
4.58406e-11
1.39953e-11
4.26675e-12
1.29898e-12
3.94741e-13
1.19579e-13
3.61733e-14
1.10892e-14
3.4911e-15
1.23596e-15
1.60427e-16
1.25733e-16
-1.30451e-17
-1.30451e-17
2.16493e-17
0.37682
0.12174
0.000597026
0.000193444
6.23088e-05
1.99651e-05
6.36667e-06
2.02151e-06
6.39355e-07
2.01501e-07
6.33031e-08
1.98292e-08
6.19477e-09
1.93052e-09
6.00248e-10
1.86236e-10
5.76688e-11
1.78244e-11
5.49986e-12
1.69412e-12
5.21028e-13
1.60206e-13
4.92531e-14
1.52525e-14
4.87888e-15
1.5829e-15
2.29816e-16
-1.30451e-17
2.16493e-17
9.10383e-17
-1.30451e-17
-1.30451e-17
0.129311
0.00063739
0.000208474
6.79906e-05
2.21082e-05
7.16721e-06
2.31654e-06
7.46458e-07
2.39795e-07
7.67976e-08
2.45217e-08
7.80694e-09
2.47843e-09
7.84659e-10
2.47768e-10
7.80405e-11
2.45222e-11
7.68787e-12
2.40518e-12
7.50845e-13
2.33862e-13
7.25331e-14
2.23996e-14
6.92585e-15
2.27679e-15
7.50233e-16
1.95122e-16
-1.30451e-17
-1.30451e-17
9.10383e-17
9.10383e-17
-1.30451e-17
0.923737
-4.18205
-20.3101
-63.4612
-174.192
-137.526
2.16464
0.567728
0.163746
0.000726879
0.000214942
6.34393e-05
1.87088e-05
5.5134e-06
1.62363e-06
4.77832e-07
1.40545e-07
4.13168e-08
1.21402e-08
3.56549e-09
1.04665e-09
3.07099e-10
9.00636e-11
2.64007e-11
7.73547e-12
2.26547e-12
6.63415e-13
1.94311e-13
5.70594e-14
1.67444e-14
4.94826e-15
1.65229e-15
7.84928e-16
0.876136
-4.29751
-20.6114
-67.098
-177.682
-125.101
2.15989
0.545691
0.157694
0.000700694
0.000207175
6.11868e-05
1.80565e-05
5.32361e-06
1.56826e-06
4.61652e-07
1.35812e-07
3.9931e-08
1.1734e-08
3.44629e-09
1.01166e-09
2.96827e-10
8.70487e-11
2.55166e-11
7.47637e-12
2.18987e-12
6.41314e-13
1.87788e-13
5.51165e-14
1.62587e-14
4.94826e-15
1.5829e-15
8.19622e-16
0.946999
-5.42465
-22.2798
-72.7097
-189.638
-97.8101
1.75237
0.503633
0.145845
0.000649357
0.000192189
5.68038e-05
1.67741e-05
4.94871e-06
1.45874e-06
4.29657e-07
1.26454e-07
3.71904e-08
1.09304e-08
3.21047e-09
9.42438e-10
2.76507e-10
8.10863e-11
2.37679e-11
6.96393e-12
2.0394e-12
5.97009e-13
1.74604e-13
5.10919e-14
1.49056e-14
4.18499e-15
1.13187e-15
1.60427e-16
0.503174
-6.39479
-25.1093
-83.2046
-202.072
-60.7736
1.55251
0.445736
0.129683
0.000577507
0.000170822
5.04938e-05
1.49128e-05
4.40082e-06
1.29777e-06
3.82419e-07
1.12603e-07
3.31311e-08
9.74111e-09
2.86214e-09
8.4044e-10
2.46649e-10
7.2349e-11
2.1212e-11
6.21623e-12
1.82075e-12
5.33102e-13
1.55835e-13
4.54367e-14
1.31709e-14
3.56049e-15
8.19622e-16
2.29816e-16
-0.170378
-8.12052
-29.6519
-98.2347
-227.271
-11.9323
1.29696
0.372186
0.109094
0.000485717
0.000143847
4.25701e-05
1.25837e-05
3.71635e-06
1.09667e-06
3.23363e-07
9.52711e-08
2.8048e-08
8.25146e-09
2.42589e-09
7.1276e-10
2.09301e-10
6.14289e-11
1.80203e-11
5.28378e-12
1.54833e-12
4.53444e-13
1.32589e-13
3.86019e-14
1.11933e-14
3.17885e-15
8.54317e-16
9.10383e-17
-1.64585
-10.5822
-37.7442
-119.315
-236.645
2.34267
1.0154
0.293078
0.0865926
0.000385098
0.000114202
3.38286e-05
1.00102e-05
2.9592e-06
8.73964e-07
2.57891e-07
7.6039e-08
2.24038e-08
6.59652e-09
1.94105e-09
5.70827e-10
1.67777e-10
4.92869e-11
1.44714e-11
4.24704e-12
1.24552e-12
3.64834e-13
1.06534e-13
3.09344e-14
8.83404e-15
2.45026e-15
6.80844e-16
1.60427e-16
-3.27897
-15.3509
-50.5188
-147.575
-205.522
2.22949
0.747962
0.216767
0.000964182
0.00028645
8.49989e-05
2.51969e-05
7.46222e-06
2.20776e-06
6.52584e-07
1.92739e-07
5.6883e-08
1.67766e-08
4.94486e-09
1.45662e-09
4.2884e-10
1.26185e-10
3.71102e-11
1.09083e-11
3.20451e-12
9.40589e-13
2.756e-13
8.04434e-14
2.31629e-14
6.5789e-15
1.72168e-15
2.29816e-16
-4.77396e-17
-5.53775
-23.9285
-74.0609
-191.216
-98.5568
1.76687
0.510713
0.148588
0.000664647
0.000197663
5.87127e-05
1.7425e-05
5.1662e-06
1.53023e-06
4.52859e-07
1.33914e-07
3.95706e-08
1.16851e-08
3.44846e-09
1.01712e-09
2.99833e-10
8.83408e-11
2.60151e-11
7.65726e-12
2.25249e-12
6.61923e-13
1.93998e-13
5.66777e-14
1.61893e-14
4.60132e-15
1.06248e-15
9.10383e-17
-4.77396e-17
-10.4163
-37.2021
-115.872
-238.99
2.38631
1.09429
0.316782
0.0938972
0.000419264
0.000124929
3.71846e-05
1.10542e-05
3.2828e-06
9.73978e-07
2.88722e-07
8.55219e-08
2.53149e-08
7.48863e-09
2.21398e-09
6.54192e-10
1.932e-10
5.70282e-11
1.68253e-11
4.96178e-12
1.4625e-12
4.30545e-13
1.26518e-13
3.69713e-14
1.06382e-14
3.07476e-15
7.84928e-16
1.95122e-16
-1.30451e-17
-21.1749
-64.5072
-174.73
-147.314
2.17302
0.609449
0.178146
0.00080028
0.000239532
7.15452e-05
2.13427e-05
6.35947e-06
1.89298e-06
5.62968e-07
1.67294e-07
4.96793e-08
1.47432e-08
4.37269e-09
1.29615e-09
3.83989e-10
1.13697e-10
3.36478e-11
9.95265e-12
2.94242e-12
8.69153e-13
2.56518e-13
7.55862e-14
2.20179e-14
6.23196e-15
1.75637e-15
3.68594e-16
-1.30451e-17
-4.77396e-17
-41.5027
-127.959
-234.636
2.33843
1.02151
0.299549
0.0897838
0.00040493
0.000121687
3.65068e-05
1.09364e-05
3.27219e-06
9.77973e-07
2.92017e-07
8.7123e-08
2.5974e-08
7.73833e-09
2.30396e-09
6.85535e-10
2.03856e-10
6.05849e-11
1.79953e-11
5.34196e-12
1.58487e-12
4.6975e-13
1.39008e-13
4.09958e-14
1.18525e-14
3.4564e-15
9.23706e-16
2.29816e-16
-1.30451e-17
-1.30451e-17
-98.9034
-218.432
-36.6135
1.46881
0.433195
0.12949
0.00059162
0.000179341
5.42582e-05
1.63868e-05
4.9412e-06
1.48786e-06
4.47471e-07
1.34434e-07
4.035e-08
1.21005e-08
3.62588e-09
1.08564e-09
3.24816e-10
9.71135e-11
2.90151e-11
8.66333e-12
2.585e-12
7.70621e-13
2.29491e-13
6.81963e-14
2.01444e-14
5.81563e-15
1.82576e-15
6.4615e-16
9.10383e-17
-1.30451e-17
5.63438e-17
-208.227
-82.0188
1.73282
0.520254
0.157091
0.000727167
0.000223518
6.85201e-05
2.09577e-05
6.39565e-06
1.94789e-06
5.92248e-07
1.79802e-07
5.45142e-08
1.65081e-08
4.9934e-09
1.50881e-09
4.55446e-10
1.37349e-10
4.13827e-11
1.24576e-11
3.74682e-12
1.12579e-12
3.37807e-13
1.01052e-13
2.99283e-14
8.59118e-15
2.31148e-15
4.37983e-16
5.63438e-17
-1.30451e-17
9.10383e-17
-4.77396e-17
-72.4337
1.71023
0.522197
0.160409
0.000755024
0.000235973
7.35465e-05
2.28719e-05
7.09567e-06
2.19621e-06
6.78308e-07
2.09088e-07
6.43349e-08
1.97622e-08
6.0609e-09
1.85606e-09
5.67582e-10
1.73333e-10
5.28664e-11
1.61046e-11
4.90013e-12
1.48904e-12
4.51848e-13
1.36787e-13
4.1204e-14
1.22341e-14
3.66457e-15
8.54317e-16
9.10383e-17
-1.30451e-17
-4.77396e-17
-1.30451e-17
-1.30451e-17
2.16255
0.572518
0.17502
0.000825993
0.000260483
8.21308e-05
2.58956e-05
8.16067e-06
2.56935e-06
8.07952e-07
2.53694e-07
7.95293e-08
2.48878e-08
7.77428e-09
2.42401e-09
7.54411e-10
2.34364e-10
7.26772e-11
2.24985e-11
6.95307e-12
2.14525e-12
6.60535e-13
2.02707e-13
6.18125e-14
1.86873e-14
5.60746e-15
1.68698e-15
4.03289e-16
-8.24341e-17
-1.30451e-17
-1.30451e-17
-1.30451e-17
-4.77396e-17
3.93139
1.58308
-3.78492
-19.4016
-62.8051
-176.882
-119.117
1.82768
0.514935
0.146163
0.00063862
0.00018573
5.40079e-05
1.57059e-05
4.56671e-06
1.32764e-06
3.85939e-07
1.12185e-07
3.26083e-08
9.47742e-09
2.75425e-09
8.00302e-10
2.32502e-10
6.75326e-11
1.96115e-11
5.69404e-12
1.65287e-12
4.79465e-13
1.38938e-13
4.01978e-14
1.15055e-14
3.14415e-15
9.23706e-16
3.41637
1.66527
-3.82789
-19.657
-66.2509
-180.156
-106.601
1.76182
0.496179
0.140961
0.000616696
0.000179523
5.22242e-05
1.51897e-05
4.41714e-06
1.28429e-06
3.73362e-07
1.08531e-07
3.15455e-08
9.16783e-09
2.66399e-09
7.73978e-10
2.24826e-10
6.52959e-11
1.89603e-11
5.50461e-12
1.5977e-12
4.63505e-13
1.34255e-13
3.88795e-14
1.11239e-14
3.17885e-15
1.23596e-15
3.5794
1.12157
-4.7851
-21.051
-70.9259
-191.087
-84.966
1.63805
0.460936
0.131415
0.00057462
0.000167132
4.86323e-05
1.41522e-05
4.1178e-06
1.19788e-06
3.48375e-07
1.01287e-07
2.944e-08
8.55483e-09
2.48534e-09
7.21897e-10
2.09647e-10
6.08747e-11
1.76735e-11
5.13047e-12
1.48911e-12
4.31864e-13
1.24991e-13
3.63121e-14
1.06035e-14
3.14415e-15
1.13187e-15
3.3071
0.590182
-5.06856
-23.9731
-80.9792
-207.684
-47.9645
1.45353
0.408333
0.1172
0.000511966
0.000148939
4.33498e-05
1.26167e-05
3.67177e-06
1.0684e-06
3.10798e-07
9.03838e-08
2.62765e-08
7.63693e-09
2.219e-09
6.44616e-10
1.87226e-10
5.43708e-11
1.57873e-11
4.58358e-12
1.33055e-12
3.85859e-13
1.11807e-13
3.21834e-14
9.25038e-15
2.34618e-15
5.76761e-16
3.07386
-0.0393983
-6.5849
-28.3543
-96.5787
-228.238
-0.118745
1.21371
0.341683
0.0988267
0.000431183
0.000125634
3.66005e-05
1.06604e-05
3.10447e-06
9.03876e-07
2.63094e-07
7.65566e-08
2.22699e-08
6.47632e-09
1.88288e-09
5.47289e-10
1.59047e-10
4.62123e-11
1.3425e-11
3.89933e-12
1.13224e-12
3.28717e-13
9.54314e-14
2.76038e-14
7.93199e-15
2.27679e-15
7.15539e-16
2.95553
-0.693017
-9.45992
-35.8619
-117.635
-235.839
2.32489
0.9538
0.269728
0.00117324
0.000341966
9.97712e-05
2.90976e-05
8.48335e-06
2.47256e-06
7.20446e-07
2.09867e-07
6.11196e-08
1.77956e-08
5.1802e-09
1.50758e-09
4.3865e-10
1.27604e-10
3.71125e-11
1.07914e-11
3.13692e-12
9.1148e-13
2.64394e-13
7.63148e-14
2.20179e-14
6.19726e-15
1.79107e-15
5.42066e-16
2.35977
-2.17657
-13.8483
-47.5915
-146.057
-201.67
2.21234
0.70242
0.199339
0.000870773
0.000254343
7.42543e-05
2.16719e-05
6.32348e-06
1.84458e-06
5.37963e-07
1.56867e-07
4.57339e-08
1.33312e-08
3.88521e-09
1.13207e-09
3.29792e-10
9.60533e-11
2.79695e-11
8.14222e-12
2.36958e-12
6.89019e-13
2.0007e-13
5.76839e-14
1.66056e-14
4.87888e-15
1.34004e-15
2.29816e-16
1.09451
-4.92549
-21.1894
-70.2661
-189.856
-91.9207
1.69465
0.479271
0.13716
0.000601984
0.000175775
5.13527e-05
1.50033e-05
4.38266e-06
1.28e-06
3.73765e-07
1.09121e-07
3.18522e-08
9.29599e-09
2.71254e-09
7.91371e-10
2.30836e-10
6.73201e-11
1.96289e-11
5.72201e-12
1.66751e-12
4.85432e-13
1.40916e-13
4.06142e-14
1.1679e-14
3.38701e-15
9.93094e-16
1.95122e-16
-0.638727
-9.25456
-33.6295
-112.168
-239.15
2.37674
1.05018
0.29779
0.0866321
0.000379951
0.000111234
3.25596e-05
9.52903e-06
2.78832e-06
8.1573e-07
2.38599e-07
6.97786e-08
2.04038e-08
5.96535e-09
1.74379e-09
5.09661e-10
1.48934e-10
4.35142e-11
1.2711e-11
3.71212e-12
1.08353e-12
3.16158e-13
9.19273e-14
2.63201e-14
7.51565e-15
2.03393e-15
5.76761e-16
1.60427e-16
-4.14595
-18.2264
-59.5809
-170.9
-150.147
2.17044
0.584776
0.167414
0.000738428
0.00021709
6.37322e-05
1.87029e-05
5.48727e-06
1.60959e-06
4.72068e-07
1.38433e-07
4.05905e-08
1.19003e-08
3.48844e-09
1.02243e-09
2.99612e-10
8.77812e-11
2.57133e-11
7.53042e-12
2.20486e-12
6.45408e-13
1.88829e-13
5.52899e-14
1.60505e-14
4.98296e-15
1.61759e-15
6.11455e-16
1.25733e-16
-10.3704
-38.3041
-120.043
-236.932
2.34261
1.00613
0.28838
0.00126992
0.000374559
0.00011051
3.25824e-05
9.60213e-06
2.82883e-06
8.33166e-07
2.45342e-07
7.22345e-08
2.12642e-08
6.25858e-09
1.84169e-09
5.41826e-10
1.59368e-10
4.68644e-11
1.37779e-11
4.04973e-12
1.18997e-12
3.49603e-13
1.02717e-13
3.02058e-14
9.00752e-15
2.38087e-15
5.07372e-16
9.10383e-17
-4.77396e-17
-28.8537
-88.7269
-213.251
-46.9659
1.48684
0.428117
0.12514
0.00055999
0.000166432
4.94245e-05
1.4668e-05
4.35073e-06
1.28989e-06
3.82279e-07
1.13259e-07
3.35456e-08
9.93282e-09
2.94018e-09
8.70029e-10
2.57364e-10
7.61061e-11
2.24983e-11
6.64859e-12
1.96432e-12
5.80113e-13
1.71274e-13
5.05715e-14
1.48362e-14
4.28907e-15
9.93094e-16
3.339e-16
-1.30451e-17
-1.30451e-17
-77.402
-193.288
-105.024
1.81718
0.530418
0.156079
0.000706126
0.000212472
6.38441e-05
1.91642e-05
5.74638e-06
1.72147e-06
5.15317e-07
1.54156e-07
4.60881e-08
1.3771e-08
4.11246e-09
1.22742e-09
3.66142e-10
1.09162e-10
3.25287e-11
9.68828e-12
2.88407e-12
8.58155e-13
2.55095e-13
7.58985e-14
2.25037e-14
6.68299e-15
1.72168e-15
2.64511e-16
-1.30451e-17
-1.30451e-17
-1.30451e-17
-194.471
-104.5
1.8472
0.548272
0.163836
0.000752351
0.000229911
7.0182e-05
2.14005e-05
6.51677e-06
1.98196e-06
6.02095e-07
1.82717e-07
5.5394e-08
1.67775e-08
5.07669e-09
1.53473e-09
4.63542e-10
1.39882e-10
4.2176e-11
1.27061e-11
3.82484e-12
1.15056e-12
3.45995e-13
1.04105e-13
3.14201e-14
9.38916e-15
2.8319e-15
7.15539e-16
1.95122e-16
9.10383e-17
-4.77396e-17
-4.77396e-17
-154.703
2.17768
0.619898
0.184113
0.000846381
0.000260552
8.03439e-05
2.48118e-05
7.66795e-06
2.37019e-06
7.32488e-07
2.2625e-07
6.98293e-08
2.15309e-08
6.63131e-09
2.03988e-09
6.26686e-10
1.92275e-10
5.89147e-11
1.80285e-11
5.50985e-12
1.68156e-12
5.12285e-13
1.55661e-13
4.72061e-14
1.45933e-14
4.53193e-15
1.44412e-15
2.29816e-16
2.16493e-17
9.10383e-17
-1.30451e-17
-1.30451e-17
4.49568
3.72564
1.14588
-4.95349
-23.6526
-82.0868
-211.523
-31.9642
1.35522
0.376148
0.106807
0.000461953
0.000133138
3.84007e-05
1.10772e-05
3.19571e-06
9.22057e-07
2.66071e-07
7.67853e-08
2.21606e-08
6.39574e-09
1.84579e-09
5.32645e-10
1.5369e-10
4.43405e-11
1.27909e-11
3.68947e-12
1.06403e-12
3.0679e-13
8.84925e-14
2.54874e-14
7.51565e-15
2.79721e-15
4.59617
3.18848
1.17174
-5.18332
-24.5301
-85.5002
-215.491
-20.8613
1.30205
0.362165
0.10306
0.000446467
0.000128823
3.71834e-05
1.07301e-05
3.0959e-06
8.93197e-07
2.57698e-07
7.43515e-08
2.14525e-08
6.18963e-09
1.78582e-09
5.15211e-10
1.48629e-10
4.28735e-11
1.23666e-11
3.56682e-12
1.02871e-12
2.96694e-13
8.56129e-14
2.48629e-14
7.55035e-15
2.90129e-15
4.70613
3.36873
0.697187
-5.85291
-26.3033
-92.4684
-220.775
-1.25477
1.20957
0.336995
0.0964736
0.0004169
0.00012036
3.475e-05
1.0031e-05
2.89504e-06
8.35367e-07
2.41001e-07
6.95171e-08
2.00498e-08
5.78213e-09
1.66741e-09
4.80826e-10
1.38653e-10
3.99829e-11
1.15299e-11
3.32479e-12
9.5863e-13
2.76294e-13
7.97148e-14
2.31976e-14
6.99524e-15
2.45026e-15
4.52976
3.11085
0.146863
-7.3165
-29.2078
-102.194
-231.994
2.39472
1.07583
0.30062
0.0862679
0.000373174
0.000107715
3.10861e-05
8.97081e-06
2.58861e-06
7.4687e-07
2.15456e-07
6.21448e-08
1.79224e-08
5.16829e-09
1.49031e-09
4.29738e-10
1.23919e-10
3.57344e-11
1.03049e-11