/*--------------------------------*- C++ -*----------------------------------*\
| =========                 |                                                 |
| \\      /  F ield         | OpenFOAM: The Open Source CFD Toolbox           |
|  \\    /   O peration     | Version:  2412                                  |
|   \\  /    A nd           | Website:  www.openfoam.com                      |
|    \\/     M anipulation  |                                                 |
\*---------------------------------------------------------------------------*/
FoamFile
{
    version     2.0;
    format      ascii;
    arch        "LSB;label=32;scalar=64";
    class       volScalarField;
    location    "0.0250162";
    object      Vm_0;
}
// * * * * * * * * * * * * * * * * * * * * * * * * * * * * * * * * * * * * * //

dimensions      [1 2 -3 0 0 -1 0];

internalField   nonuniform List<scalar> 
8670
(
-0.0651622
-0.0768312
-0.0814241
-0.0830967
-0.083685
-0.0838927
-0.083964
-0.0839881
-0.0839961
-0.0839987
-0.0839996
-0.0839999
-0.084
-0.084
-0.084
-0.084
-0.084
-0.084
-0.084
-0.084
-0.084
-0.084
-0.084
-0.084
-0.084
-0.084
-0.084
-0.084
-0.084
-0.084
-0.084
-0.084
-0.0657874
-0.0770967
-0.0815207
-0.0831307
-0.0836968
-0.0838967
-0.0839654
-0.0839885
-0.0839963
-0.0839988
-0.0839996
-0.0839999
-0.084
-0.084
-0.084
-0.084
-0.084
-0.084
-0.084
-0.084
-0.084
-0.084
-0.084
-0.084
-0.084
-0.084
-0.084
-0.084
-0.084
-0.084
-0.084
-0.084
-0.0669909
-0.0775759
-0.0816979
-0.083194
-0.083719
-0.0839042
-0.0839679
-0.0839894
-0.0839965
-0.0839989
-0.0839996
-0.0839999
-0.084
-0.084
-0.084
-0.084
-0.084
-0.084
-0.084
-0.084
-0.084
-0.084
-0.084
-0.084
-0.084
-0.084
-0.084
-0.084
-0.084
-0.084
-0.084
-0.084
-0.0688708
-0.0783115
-0.0819587
-0.0832824
-0.08375
-0.0839149
-0.0839715
-0.0839906
-0.0839969
-0.083999
-0.0839997
-0.0839999
-0.084
-0.084
-0.084
-0.084
-0.084
-0.084
-0.084
-0.084
-0.084
-0.084
-0.084
-0.084
-0.084
-0.084
-0.084
-0.084
-0.084
-0.084
-0.084
-0.084
-0.0709643
-0.0791547
-0.0822687
-0.0833898
-0.0837882
-0.083928
-0.0839759
-0.083992
-0.0839974
-0.0839992
-0.0839997
-0.0839999
-0.084
-0.084
-0.084
-0.084
-0.084
-0.084
-0.084
-0.084
-0.084
-0.084
-0.084
-0.084
-0.084
-0.084
-0.084
-0.084
-0.084
-0.084
-0.084
-0.084
-0.0733926
-0.0801001
-0.0826127
-0.0835094
-0.0838304
-0.0839424
-0.0839807
-0.0839936
-0.0839979
-0.0839993
-0.0839998
-0.0839999
-0.084
-0.084
-0.084
-0.084
-0.084
-0.084
-0.084
-0.084
-0.084
-0.084
-0.084
-0.084
-0.084
-0.084
-0.084
-0.084
-0.084
-0.084
-0.084
-0.084
-0.0759597
-0.0810569
-0.0829528
-0.0836295
-0.0838721
-0.0839566
-0.0839855
-0.0839952
-0.0839984
-0.0839995
-0.0839998
-0.0839999
-0.084
-0.084
-0.084
-0.084
-0.084
-0.084
-0.084
-0.084
-0.084
-0.084
-0.084
-0.084
-0.084
-0.084
-0.084
-0.084
-0.084
-0.084
-0.084
-0.084
-0.0783153
-0.0819251
-0.0832594
-0.0837386
-0.08391
-0.0839695
-0.0839898
-0.0839966
-0.0839989
-0.0839996
-0.0839999
-0.084
-0.084
-0.084
-0.084
-0.084
-0.084
-0.084
-0.084
-0.084
-0.084
-0.084
-0.084
-0.084
-0.084
-0.084
-0.084
-0.084
-0.084
-0.084
-0.084
-0.084
-0.0802718
-0.0826509
-0.0835159
-0.0838306
-0.0839418
-0.0839804
-0.0839935
-0.0839978
-0.0839993
-0.0839998
-0.0839999
-0.084
-0.084
-0.084
-0.084
-0.084
-0.084
-0.084
-0.084
-0.084
-0.084
-0.084
-0.084
-0.084
-0.084
-0.084
-0.084
-0.084
-0.084
-0.084
-0.084
-0.084
-0.0817977
-0.0832036
-0.0837145
-0.0839004
-0.0839659
-0.0839885
-0.0839962
-0.0839987
-0.0839996
-0.0839999
-0.084
-0.084
-0.084
-0.084
-0.084
-0.084
-0.084
-0.084
-0.084
-0.084
-0.084
-0.084
-0.084
-0.084
-0.084
-0.084
-0.084
-0.084
-0.084
-0.084
-0.084
-0.084
-0.0828459
-0.0835788
-0.0838503
-0.0839479
-0.0839822
-0.083994
-0.083998
-0.0839993
-0.0839998
-0.0839999
-0.084
-0.084
-0.084
-0.084
-0.084
-0.084
-0.084
-0.084
-0.084
-0.084
-0.084
-0.084
-0.084
-0.084
-0.084
-0.084
-0.084
-0.084
-0.084
-0.084
-0.084
-0.084
-0.0834587
-0.0838045
-0.0839308
-0.083976
-0.0839918
-0.0839972
-0.0839991
-0.0839997
-0.0839999
-0.084
-0.084
-0.084
-0.084
-0.084
-0.084
-0.084
-0.084
-0.084
-0.084
-0.084
-0.084
-0.084
-0.084
-0.084
-0.084
-0.084
-0.084
-0.084
-0.084
-0.084
-0.084
-0.084
-0.0837826
-0.0839217
-0.0839723
-0.0839904
-0.0839967
-0.0839989
-0.0839996
-0.0839999
-0.084
-0.084
-0.084
-0.084
-0.084
-0.084
-0.084
-0.084
-0.084
-0.084
-0.084
-0.084
-0.084
-0.084
-0.084
-0.084
-0.084
-0.084
-0.084
-0.084
-0.084
-0.084
-0.084
-0.084
-0.0839243
-0.0839727
-0.0839903
-0.0839966
-0.0839988
-0.0839996
-0.0839999
-0.084
-0.084
-0.084
-0.084
-0.084
-0.084
-0.084
-0.084
-0.084
-0.084
-0.084
-0.084
-0.084
-0.084
-0.084
-0.084
-0.084
-0.084
-0.084
-0.084
-0.084
-0.084
-0.084
-0.084
-0.084
-0.0839717
-0.0839898
-0.0839964
-0.0839987
-0.0839996
-0.0839998
-0.0839999
-0.084
-0.084
-0.084
-0.084
-0.084
-0.084
-0.084
-0.084
-0.084
-0.084
-0.084
-0.084
-0.084
-0.084
-0.084
-0.084
-0.084
-0.084
-0.084
-0.084
-0.084
-0.084
-0.084
-0.084
-0.084
0.0186375
-0.0278407
-0.0662758
-0.0782794
-0.0821742
-0.0834121
-0.0838121
-0.0839403
-0.0839812
-0.0839941
-0.0839982
-0.0839994
-0.0839998
-0.0839999
-0.084
-0.084
-0.084
-0.084
-0.084
-0.084
-0.084
-0.084
-0.084
-0.084
-0.084
-0.084
-0.084
-0.084
-0.084
-0.084
-0.084
-0.084
0.0176347
-0.030441
-0.0670022
-0.0784989
-0.0822438
-0.0834343
-0.0838191
-0.0839426
-0.0839819
-0.0839943
-0.0839982
-0.0839995
-0.0839998
-0.0839999
-0.084
-0.084
-0.084
-0.084
-0.084
-0.084
-0.084
-0.084
-0.084
-0.084
-0.084
-0.084
-0.084
-0.084
-0.084
-0.084
-0.084
-0.084
0.0165712
-0.0345995
-0.0683237
-0.0789228
-0.0823784
-0.083477
-0.0838326
-0.0839468
-0.0839832
-0.0839948
-0.0839984
-0.0839995
-0.0839998
-0.084
-0.084
-0.084
-0.084
-0.084
-0.084
-0.084
-0.084
-0.084
-0.084
-0.084
-0.084
-0.084
-0.084
-0.084
-0.084
-0.084
-0.084
-0.084
0.0125189
-0.0418958
-0.0702251
-0.0795133
-0.0825647
-0.0835362
-0.0838514
-0.0839528
-0.0839851
-0.0839953
-0.0839986
-0.0839996
-0.0839999
-0.084
-0.084
-0.084
-0.084
-0.084
-0.084
-0.084
-0.084
-0.084
-0.084
-0.084
-0.084
-0.084
-0.084
-0.084
-0.084
-0.084
-0.084
-0.084
0.00689623
-0.0494233
-0.0724149
-0.0802372
-0.0827946
-0.0836097
-0.0838749
-0.0839602
-0.0839875
-0.0839961
-0.0839988
-0.0839996
-0.0839999
-0.084
-0.084
-0.084
-0.084
-0.084
-0.084
-0.084
-0.084
-0.084
-0.084
-0.084
-0.084
-0.084
-0.084
-0.084
-0.084
-0.084
-0.084
-0.084
-0.00246087
-0.0563224
-0.0747888
-0.0810254
-0.0830453
-0.0836901
-0.0839005
-0.0839684
-0.08399
-0.0839969
-0.083999
-0.0839997
-0.0839999
-0.084
-0.084
-0.084
-0.084
-0.084
-0.084
-0.084
-0.084
-0.084
-0.084
-0.084
-0.084
-0.084
-0.084
-0.084
-0.084
-0.084
-0.084
-0.084
-0.0191357
-0.0631979
-0.0771752
-0.0817881
-0.0832855
-0.0837679
-0.0839256
-0.0839763
-0.0839925
-0.0839977
-0.0839993
-0.0839998
-0.0839999
-0.084
-0.084
-0.084
-0.084
-0.084
-0.084
-0.084
-0.084
-0.084
-0.084
-0.084
-0.084
-0.084
-0.084
-0.084
-0.084
-0.084
-0.084
-0.084
-0.0407489
-0.0697247
-0.0792809
-0.0824701
-0.0835003
-0.0838383
-0.0839482
-0.0839835
-0.0839948
-0.0839984
-0.0839995
-0.0839998
-0.084
-0.084
-0.084
-0.084
-0.084
-0.084
-0.084
-0.084
-0.084
-0.084
-0.084
-0.084
-0.084
-0.084
-0.084
-0.084
-0.084
-0.084
-0.084
-0.084
-0.0570944
-0.0748906
-0.0810088
-0.0830275
-0.0836812
-0.0838968
-0.0839669
-0.0839895
-0.0839967
-0.083999
-0.0839997
-0.0839999
-0.084
-0.084
-0.084
-0.084
-0.084
-0.084
-0.084
-0.084
-0.084
-0.084
-0.084
-0.084
-0.084
-0.084
-0.084
-0.084
-0.084
-0.084
-0.084
-0.084
-0.0684338
-0.0787727
-0.0822835
-0.083434
-0.0838153
-0.0839403
-0.0839809
-0.0839939
-0.0839981
-0.0839994
-0.0839998
-0.0839999
-0.084
-0.084
-0.084
-0.084
-0.084
-0.084
-0.084
-0.084
-0.084
-0.084
-0.084
-0.084
-0.084
-0.084
-0.084
-0.084
-0.084
-0.084
-0.084
-0.084
-0.0761692
-0.0813775
-0.0831316
-0.083711
-0.0839053
-0.0839693
-0.0839901
-0.0839969
-0.083999
-0.0839997
-0.0839999
-0.084
-0.084
-0.084
-0.084
-0.084
-0.084
-0.084
-0.084
-0.084
-0.084
-0.084
-0.084
-0.084
-0.084
-0.084
-0.084
-0.084
-0.084
-0.084
-0.084
-0.084
-0.0805271
-0.0828375
-0.0836086
-0.0838699
-0.0839572
-0.0839861
-0.0839955
-0.0839986
-0.0839995
-0.0839999
-0.084
-0.084
-0.084
-0.084
-0.084
-0.084
-0.084
-0.084
-0.084
-0.084
-0.084
-0.084
-0.084
-0.084
-0.084
-0.084
-0.084
-0.084
-0.084
-0.084
-0.084
-0.084
-0.0826931
-0.0835524
-0.0838487
-0.0839495
-0.0839833
-0.0839945
-0.0839982
-0.0839994
-0.0839998
-0.0839999
-0.084
-0.084
-0.084
-0.084
-0.084
-0.084
-0.084
-0.084
-0.084
-0.084
-0.084
-0.084
-0.084
-0.084
-0.084
-0.084
-0.084
-0.084
-0.084
-0.084
-0.084
-0.084
-0.0835663
-0.0838507
-0.0839492
-0.0839829
-0.0839943
-0.0839981
-0.0839994
-0.0839998
-0.0839999
-0.084
-0.084
-0.084
-0.084
-0.084
-0.084
-0.084
-0.084
-0.084
-0.084
-0.084
-0.084
-0.084
-0.084
-0.084
-0.084
-0.084
-0.084
-0.084
-0.084
-0.084
-0.084
-0.084
-0.0838439
-0.0839463
-0.0839817
-0.0839938
-0.0839979
-0.0839993
-0.0839998
-0.0839999
-0.084
-0.084
-0.084
-0.084
-0.084
-0.084
-0.084
-0.084
-0.084
-0.084
-0.084
-0.084
-0.084
-0.084
-0.084
-0.084
-0.084
-0.084
-0.084
-0.084
-0.084
-0.084
-0.084
-0.084
0.0360133
0.0278383
0.0064558
-0.0520484
-0.0743399
-0.0811216
-0.0831375
-0.0837363
-0.0839198
-0.0839757
-0.0839927
-0.0839978
-0.0839993
-0.0839998
-0.0839999
-0.084
-0.084
-0.084
-0.084
-0.084
-0.084
-0.084
-0.084
-0.084
-0.084
-0.084
-0.084
-0.084
-0.084
-0.084
-0.084
-0.084
0.0359248
0.0276968
0.00502829
-0.0532602
-0.0746947
-0.0812335
-0.0831714
-0.0837465
-0.0839229
-0.0839766
-0.0839929
-0.0839979
-0.0839994
-0.0839998
-0.0839999
-0.084
-0.084
-0.084
-0.084
-0.084
-0.084
-0.084
-0.084
-0.084
-0.084
-0.084
-0.084
-0.084
-0.084
-0.084
-0.084
-0.084
0.0356881
0.0263306
0.000798519
-0.0557665
-0.0754546
-0.0814532
-0.083233
-0.0837653
-0.0839286
-0.0839783
-0.0839934
-0.083998
-0.0839994
-0.0839998
-0.0839999
-0.084
-0.084
-0.084
-0.084
-0.084
-0.084
-0.084
-0.084
-0.084
-0.084
-0.084
-0.084
-0.084
-0.084
-0.084
-0.084
-0.084
0.0353004
0.0249452
-0.00448685
-0.05866
-0.0764304
-0.0817458
-0.0833179
-0.0837916
-0.0839366
-0.0839808
-0.0839942
-0.0839982
-0.0839995
-0.0839998
-0.084
-0.084
-0.084
-0.084
-0.084
-0.084
-0.084
-0.084
-0.084
-0.084
-0.084
-0.084
-0.084
-0.084
-0.084
-0.084
-0.084
-0.084
0.0344209
0.0223892
-0.0144333
-0.0628264
-0.0777021
-0.0821179
-0.0834263
-0.0838249
-0.0839467
-0.0839838
-0.0839951
-0.0839985
-0.0839996
-0.0839999
-0.084
-0.084
-0.084
-0.084
-0.084
-0.084
-0.084
-0.084
-0.084
-0.084
-0.084
-0.084
-0.084
-0.084
-0.084
-0.084
-0.084
-0.084
0.0328878
0.0190759
-0.0279147
-0.067494
-0.0790656
-0.0825182
-0.0835463
-0.0838612
-0.0839577
-0.0839871
-0.0839961
-0.0839988
-0.0839996
-0.0839999
-0.084
-0.084
-0.084
-0.084
-0.084
-0.084
-0.084
-0.084
-0.084
-0.084
-0.084
-0.084
-0.084
-0.084
-0.084
-0.084
-0.084
-0.084
0.0300121
0.0120472
-0.0439698
-0.0719278
-0.0803548
-0.0829013
-0.0836623
-0.0838966
-0.0839684
-0.0839904
-0.0839971
-0.0839991
-0.0839997
-0.0839999
-0.084
-0.084
-0.084
-0.084
-0.084
-0.084
-0.084
-0.084
-0.084
-0.084
-0.084
-0.084
-0.084
-0.084
-0.084
-0.084
-0.084
-0.084
0.0251923
-0.00126906
-0.0567781
-0.0757143
-0.0815061
-0.0832422
-0.0837663
-0.0839284
-0.0839782
-0.0839934
-0.083998
-0.0839994
-0.0839998
-0.0839999
-0.084
-0.084
-0.084
-0.084
-0.084
-0.084
-0.084
-0.084
-0.084
-0.084
-0.084
-0.084
-0.084
-0.084
-0.084
-0.084
-0.084
-0.084
0.0181879
-0.0270682
-0.0669867
-0.0788543
-0.0824411
-0.0835196
-0.0838522
-0.0839547
-0.0839861
-0.0839958
-0.0839987
-0.0839996
-0.0839999
-0.084
-0.084
-0.084
-0.084
-0.084
-0.084
-0.084
-0.084
-0.084
-0.084
-0.084
-0.084
-0.084
-0.084
-0.084
-0.084
-0.084
-0.084
-0.084
0.00395796
-0.0530671
-0.0744325
-0.0810977
-0.0831158
-0.0837255
-0.0839153
-0.083974
-0.083992
-0.0839976
-0.0839993
-0.0839998
-0.0839999
-0.084
-0.084
-0.084
-0.084
-0.084
-0.084
-0.084
-0.084
-0.084
-0.084
-0.084
-0.084
-0.084
-0.084
-0.084
-0.084
-0.084
-0.084
-0.084
-0.0342484
-0.0688906
-0.0793418
-0.0825691
-0.0835532
-0.0838608
-0.0839568
-0.0839867
-0.0839959
-0.0839987
-0.0839996
-0.0839999
-0.084
-0.084
-0.084
-0.084
-0.084
-0.084
-0.084
-0.084
-0.084
-0.084
-0.084
-0.084
-0.084
-0.084
-0.084
-0.084
-0.084
-0.084
-0.084
-0.084
-0.0630737
-0.0775364
-0.0819995
-0.0833734
-0.0838023
-0.0839381
-0.0839807
-0.083994
-0.0839981
-0.0839994
-0.0839998
-0.0839999
-0.084
-0.084
-0.084
-0.084
-0.084
-0.084
-0.084
-0.084
-0.084
-0.084
-0.084
-0.084
-0.084
-0.084
-0.084
-0.084
-0.084
-0.084
-0.084
-0.084
-0.0766324
-0.0816768
-0.0832635
-0.0837636
-0.0839248
-0.0839762
-0.0839925
-0.0839977
-0.0839993
-0.0839998
-0.0839999
-0.084
-0.084
-0.084
-0.084
-0.084
-0.084
-0.084
-0.084
-0.084
-0.084
-0.084
-0.084
-0.084
-0.084
-0.084
-0.084
-0.084
-0.084
-0.084
-0.084
-0.084
-0.0817391
-0.0832696
-0.0837612
-0.0839226
-0.0839751
-0.083992
-0.0839975
-0.0839992
-0.0839997
-0.0839999
-0.084
-0.084
-0.084
-0.084
-0.084
-0.084
-0.084
-0.084
-0.084
-0.084
-0.084
-0.084
-0.084
-0.084
-0.084
-0.084
-0.084
-0.084
-0.084
-0.084
-0.084
-0.084
-0.0832241
-0.083745
-0.0839166
-0.0839728
-0.0839912
-0.0839971
-0.0839991
-0.0839997
-0.0839999
-0.084
-0.084
-0.084
-0.084
-0.084
-0.084
-0.084
-0.084
-0.084
-0.084
-0.084
-0.084
-0.084
-0.084
-0.084
-0.084
-0.084
-0.084
-0.084
-0.084
-0.084
-0.084
-0.084
0.0378904
0.0383078
0.0370893
0.0316221
0.0145468
-0.0424245
-0.0721633
-0.0805936
-0.0830175
-0.0837092
-0.083914
-0.0839746
-0.0839925
-0.0839978
-0.0839994
-0.0839998
-0.0839999
-0.084
-0.084
-0.084
-0.084
-0.084
-0.084
-0.084
-0.084
-0.084
-0.084
-0.084
-0.084
-0.084
-0.084
-0.084
-0.084
0.0378698
0.038274
0.0370244
0.0314624
0.0135521
-0.0440985
-0.0726079
-0.0807259
-0.0830538
-0.0837197
-0.0839171
-0.0839755
-0.0839928
-0.0839979
-0.0839994
-0.0839998
-0.0839999
-0.084
-0.084
-0.084
-0.084
-0.084
-0.084
-0.084
-0.084
-0.084
-0.084
-0.084
-0.084
-0.084
-0.084
-0.084
-0.084
0.0378744
0.0382784
0.0366878
0.0304141
0.01169
-0.0475385
-0.0734858
-0.0809782
-0.0831249
-0.0837403
-0.0839231
-0.0839773
-0.0839933
-0.083998
-0.0839994
-0.0839998
-0.0839999
-0.084
-0.084
-0.084
-0.084
-0.084
-0.084
-0.084
-0.084
-0.084
-0.084
-0.084
-0.084
-0.084
-0.084
-0.084
-0.084
0.0380026
0.0383178
0.0364568
0.0290079
0.00723752
-0.051999
-0.0746849
-0.0813256
-0.0832219
-0.083769
-0.0839317
-0.0839798
-0.083994
-0.0839982
-0.0839995
-0.0839998
-0.084
-0.084
-0.084
-0.084
-0.084
-0.084
-0.084
-0.084
-0.084
-0.084
-0.084
-0.084
-0.084
-0.084
-0.084
-0.084
-0.084
0.038063
0.0381935
0.035912
0.0267397
0.000832671
-0.0569649
-0.0762182
-0.0817669
-0.0833454
-0.0838057
-0.0839425
-0.083983
-0.083995
-0.0839985
-0.0839996
-0.0839999
-0.084
-0.084
-0.084
-0.084
-0.084
-0.084
-0.084
-0.084
-0.084
-0.084
-0.084
-0.084
-0.084
-0.084
-0.084
-0.084
-0.084
0.0381873
0.0379191
0.0351095
0.0231616
-0.0118264
-0.0626631
-0.0779076
-0.0822415
-0.0834804
-0.083846
-0.0839543
-0.0839865
-0.083996
-0.0839988
-0.0839997
-0.0839999
-0.084
-0.084
-0.084
-0.084
-0.084
-0.084
-0.084
-0.084
-0.084
-0.084
-0.084
-0.084
-0.084
-0.084
-0.084
-0.084
-0.084
0.0382826
0.0374833
0.0335585
0.0187432
-0.0288221
-0.0684152
-0.0795122
-0.0826994
-0.0836143
-0.0838854
-0.083966
-0.0839899
-0.083997
-0.0839991
-0.0839997
-0.0839999
-0.084
-0.084
-0.084
-0.084
-0.084
-0.084
-0.084
-0.084
-0.084
-0.084
-0.084
-0.084
-0.084
-0.084
-0.084
-0.084
-0.084
0.0382464
0.0366949
0.0301577
0.0111906
-0.0474481
-0.0733988
-0.0809357
-0.0831085
-0.0837341
-0.0839209
-0.0839765
-0.083993
-0.0839979
-0.0839994
-0.0839998
-0.0839999
-0.084
-0.084
-0.084
-0.084
-0.084
-0.084
-0.084
-0.084
-0.084
-0.084
-0.084
-0.084
-0.084
-0.084
-0.084
-0.084
-0.084
0.0379558
0.0352129
0.0239026
-0.00824889
-0.0611166
-0.0774343
-0.0820993
-0.0834366
-0.0838323
-0.08395
-0.0839851
-0.0839956
-0.0839987
-0.0839996
-0.0839999
-0.084
-0.084
-0.084
-0.084
-0.084
-0.084
-0.084
-0.084
-0.084
-0.084
-0.084
-0.084
-0.084
-0.084
-0.084
-0.084
-0.084
-0.084
0.0369159
0.0314249
0.0143996
-0.0404143
-0.0714602
-0.0803433
-0.0829311
-0.0836799
-0.0839042
-0.0839714
-0.0839915
-0.0839975
-0.0839992
-0.0839998
-0.0839999
-0.084
-0.084
-0.084
-0.084
-0.084
-0.084
-0.084
-0.084
-0.084
-0.084
-0.084
-0.084
-0.084
-0.084
-0.084
-0.084
-0.084
-0.084
0.0343984
0.0222057
-0.0135801
-0.0629028
-0.077871
-0.0822027
-0.0834613
-0.083838
-0.0839513
-0.0839854
-0.0839956
-0.0839987
-0.0839996
-0.0839999
-0.084
-0.084
-0.084
-0.084
-0.084
-0.084
-0.084
-0.084
-0.084
-0.084
-0.084
-0.084
-0.084
-0.084
-0.084
-0.084
-0.084
-0.084
-0.084
0.0266067
0.00225803
-0.0546104
-0.0751872
-0.0814008
-0.0832231
-0.0837634
-0.0839283
-0.0839783
-0.0839934
-0.083998
-0.0839994
-0.0839998
-0.0839999
-0.084
-0.084
-0.084
-0.084
-0.084
-0.084
-0.084
-0.084
-0.084
-0.084
-0.084
-0.084
-0.084
-0.084
-0.084
-0.084
-0.084
-0.084
-0.084
0.00731827
-0.0496856
-0.0736031
-0.0808785
-0.0830575
-0.0837091
-0.0839106
-0.0839726
-0.0839916
-0.0839974
-0.0839992
-0.0839998
-0.0839999
-0.084
-0.084
-0.084
-0.084
-0.084
-0.084
-0.084
-0.084
-0.084
-0.084
-0.084
-0.084
-0.084
-0.084
-0.084
-0.084
-0.084
-0.084
-0.084
-0.084
-0.0507437
-0.0737386
-0.0808668
-0.0830375
-0.083698
-0.0839056
-0.0839706
-0.0839909
-0.0839972
-0.0839991
-0.0839997
-0.0839999
-0.084
-0.084
-0.084
-0.084
-0.084
-0.084
-0.084
-0.084
-0.084
-0.084
-0.084
-0.084
-0.084
-0.084
-0.084
-0.084
-0.084
-0.084
-0.084
-0.084
-0.084
-0.0726581
-0.0805649
-0.0829499
-0.0836696
-0.0838958
-0.0839671
-0.0839896
-0.0839967
-0.083999
-0.0839997
-0.0839999
-0.084
-0.084
-0.084
-0.084
-0.084
-0.084
-0.084
-0.084
-0.084
-0.084
-0.084
-0.084
-0.084
-0.084
-0.084
-0.084
-0.084
-0.084
-0.084
-0.084
-0.084
-0.084
0.0365693
0.037818
0.0384075
0.0372675
0.0317441
0.0137845
-0.0448786
-0.0730339
-0.0809104
-0.083123
-0.0837446
-0.0839257
-0.0839784
-0.0839937
-0.0839982
-0.0839995
-0.0839998
-0.084
-0.084
-0.084
-0.084
-0.084
-0.084
-0.084
-0.084
-0.084
-0.084
-0.084
-0.084
-0.084
-0.084
-0.084
-0.084
0.0366733
0.0378344
0.038392
0.037215
0.0316162
0.0128162
-0.0464621
-0.0734291
-0.0810229
-0.0831542
-0.0837533
-0.0839282
-0.0839791
-0.0839939
-0.0839982
-0.0839995
-0.0839999
-0.084
-0.084
-0.084
-0.084
-0.084
-0.084
-0.084
-0.084
-0.084
-0.084
-0.084
-0.084
-0.084
-0.084
-0.084
-0.084
0.0367113
0.03794
0.0384301
0.0369341
0.0307492
0.0112306
-0.0493542
-0.0741717
-0.0812344
-0.0832115
-0.0837702
-0.0839331
-0.0839805
-0.0839943
-0.0839984
-0.0839995
-0.0839999
-0.084
-0.084
-0.084
-0.084
-0.084
-0.084
-0.084
-0.084
-0.084
-0.084
-0.084
-0.084
-0.084
-0.084
-0.084
-0.084
0.0368781
0.0380412
0.0383501
0.0366799
0.0294299
0.0075278
-0.0533398
-0.0752788
-0.08155
-0.0832968
-0.0837952
-0.0839404
-0.0839827
-0.083995
-0.0839985
-0.0839996
-0.0839999
-0.084
-0.084
-0.084
-0.084
-0.084
-0.084
-0.084
-0.084
-0.084
-0.084
-0.084
-0.084
-0.084
-0.084
-0.084
-0.084
0.0370476
0.0381153
0.0382604
0.0361635
0.0270677
7.68621e-05
-0.0580546
-0.0767178
-0.0819499
-0.083407
-0.0838275
-0.0839497
-0.0839854
-0.0839957
-0.0839988
-0.0839996
-0.0839999
-0.084
-0.084
-0.084
-0.084
-0.084
-0.084
-0.084
-0.084
-0.084
-0.084
-0.084
-0.084
-0.084
-0.084
-0.084
-0.084
0.0372373
0.0381735
0.0381645
0.0354605
0.0235247
-0.0125916
-0.0635046
-0.0782772
-0.0823816
-0.0835307
-0.0838632
-0.0839601
-0.0839884
-0.0839966
-0.083999
-0.0839997
-0.0839999
-0.084
-0.084
-0.084
-0.084
-0.084
-0.084
-0.084
-0.084
-0.084
-0.084
-0.084
-0.084
-0.084
-0.084
-0.084
-0.084
0.0375462
0.0382918
0.0377956
0.0340915
0.0191096
-0.0297003
-0.0690397
-0.0797855
-0.082804
-0.0836517
-0.0838983
-0.0839703
-0.0839913
-0.0839975
-0.0839993
-0.0839998
-0.0839999
-0.084
-0.084
-0.084
-0.084
-0.084
-0.084
-0.084
-0.084
-0.084
-0.084
-0.084
-0.084
-0.084
-0.084
-0.084
-0.084
0.037929
0.0383972
0.0369069
0.0308727
0.0116244
-0.0482445
-0.0738321
-0.0811244
-0.083177
-0.0837592
-0.0839297
-0.0839795
-0.083994
-0.0839982
-0.0839995
-0.0839999
-0.084
-0.084
-0.084
-0.084
-0.084
-0.084
-0.084
-0.084
-0.084
-0.084
-0.084
-0.084
-0.084
-0.084
-0.084
-0.084
-0.084
0.0381928
0.0382138
0.0355079
0.0246791
-0.0076601
-0.0615153
-0.0776989
-0.0822133
-0.0834802
-0.083848
-0.0839555
-0.083987
-0.0839962
-0.0839989
-0.0839997
-0.0839999
-0.084
-0.084
-0.084
-0.084
-0.084
-0.084
-0.084
-0.084
-0.084
-0.084
-0.084
-0.084
-0.084
-0.084
-0.084
-0.084
-0.084
0.0383267
0.0371914
0.032345
0.0154459
-0.0399869
-0.0716785
-0.0804913
-0.0829955
-0.0837046
-0.0839132
-0.0839745
-0.0839925
-0.0839978
-0.0839994
-0.0839998
-0.0839999
-0.084
-0.084
-0.084
-0.084
-0.084
-0.084
-0.084
-0.084
-0.084
-0.084
-0.084
-0.084
-0.084
-0.084
-0.084
-0.084
-0.084
0.0379631
0.0350058
0.0230047
-0.0115257
-0.0627008
-0.0779632
-0.0822697
-0.083492
-0.0838502
-0.0839558
-0.083987
-0.0839962
-0.0839989
-0.0839997
-0.0839999
-0.084
-0.084
-0.084
-0.084
-0.084
-0.084
-0.084
-0.084
-0.084
-0.084
-0.084
-0.084
-0.084
-0.084
-0.084
-0.084
-0.084
-0.084
0.0360732
0.0279319
0.00510729
-0.0534427
-0.075079
-0.0814313
-0.0832492
-0.083776
-0.0839334
-0.0839802
-0.0839941
-0.0839983
-0.0839995
-0.0839998
-0.084
-0.084
-0.084
-0.084
-0.084
-0.084
-0.084
-0.084
-0.084
-0.084
-0.084
-0.084
-0.084
-0.084
-0.084
-0.084
-0.084
-0.084
-0.084
0.0301007
0.0105084
-0.0466573
-0.0730969
-0.0808175
-0.0830635
-0.0837175
-0.083915
-0.0839745
-0.0839923
-0.0839977
-0.0839993
-0.0839998
-0.0839999
-0.084
-0.084
-0.084
-0.084
-0.084
-0.084
-0.084
-0.084
-0.084
-0.084
-0.084
-0.084
-0.084
-0.084
-0.084
-0.084
-0.084
-0.084
-0.084
0.0101053
-0.0467217
-0.0729168
-0.0807104
-0.083017
-0.0836991
-0.083908
-0.0839719
-0.0839914
-0.0839974
-0.0839992
-0.0839998
-0.0839999
-0.084
-0.084
-0.084
-0.084
-0.084
-0.084
-0.084
-0.084
-0.084
-0.084
-0.084
-0.084
-0.084
-0.084
-0.084
-0.084
-0.084
-0.084
-0.084
-0.084
-0.0399797
-0.071349
-0.0802806
-0.0828953
-0.0836614
-0.0838958
-0.0839679
-0.0839901
-0.0839969
-0.0839991
-0.0839997
-0.0839999
-0.084
-0.084
-0.084
-0.084
-0.084
-0.084
-0.084
-0.084
-0.084
-0.084
-0.084
-0.084
-0.084
-0.084
-0.084
-0.084
-0.084
-0.084
-0.084
-0.084
-0.084
0.035277
0.0367477
0.0379318
0.0383786
0.036741
0.0292185
0.00590624
-0.0550625
-0.0758687
-0.0817431
-0.0833592
-0.0838152
-0.0839467
-0.0839846
-0.0839956
-0.0839987
-0.0839996
-0.0839999
-0.084
-0.084
-0.084
-0.084
-0.084
-0.084
-0.084
-0.084
-0.084
-0.084
-0.084
-0.084
-0.084
-0.084
-0.084
0.0353086
0.0368487
0.0379324
0.0383213
0.0365675
0.0285621
0.00396909
-0.0561258
-0.0761877
-0.081827
-0.0833816
-0.0838214
-0.0839485
-0.0839851
-0.0839957
-0.0839988
-0.0839996
-0.0839999
-0.084
-0.084
-0.084
-0.084
-0.084
-0.084
-0.084
-0.084
-0.084
-0.084
-0.084
-0.084
-0.084
-0.084
-0.084
0.035332
0.0368902
0.0380606
0.0384337
0.0365587
0.0278683
0.000603616
-0.0579509
-0.0767426
-0.081978
-0.0834212
-0.0838332
-0.0839519
-0.0839861
-0.083996
-0.0839988
-0.0839997
-0.0839999
-0.084
-0.084
-0.084
-0.084
-0.084
-0.084
-0.084
-0.084
-0.084
-0.084
-0.084
-0.084
-0.084
-0.084
-0.084
0.0355332
0.0370637
0.0381632
0.038371
0.0359963
0.0259397
-0.00501581
-0.0606943
-0.077545
-0.0821963
-0.0834824
-0.0838507
-0.0839569
-0.0839876
-0.0839964
-0.083999
-0.0839997
-0.0839999
-0.084
-0.084
-0.084
-0.084
-0.084
-0.084
-0.084
-0.084
-0.084
-0.084
-0.084
-0.084
-0.084
-0.084
-0.084
0.0357455
0.0372214
0.0382155
0.0382066
0.0353421
0.0233476
-0.0149148
-0.0645822
-0.0786159
-0.0824874
-0.0835642
-0.0838741
-0.0839636
-0.0839895
-0.083997
-0.0839991
-0.0839997
-0.0839999
-0.084
-0.084
-0.084
-0.084
-0.084
-0.084
-0.084
-0.084
-0.084
-0.084
-0.084
-0.084
-0.084
-0.084
-0.084
0.0361012
0.0374041
0.0382378
0.0379208
0.0345471
0.0204705
-0.0273769
-0.0686233
-0.0797268
-0.0828002
-0.0836541
-0.0839
-0.0839711
-0.0839916
-0.0839976
-0.0839993
-0.0839998
-0.0839999
-0.084
-0.084
-0.084
-0.084
-0.084
-0.084
-0.084
-0.084
-0.084
-0.084
-0.084
-0.084
-0.084
-0.084
-0.084
0.0364897
0.0376984
0.0383281
0.0374032
0.0324957
0.0151065
-0.0432564
-0.0727277
-0.0808461
-0.083111
-0.0837427
-0.0839256
-0.0839785
-0.0839938
-0.0839982
-0.0839995
-0.0839998
-0.084
-0.084
-0.084
-0.084
-0.084
-0.084
-0.084
-0.084
-0.084
-0.084
-0.084
-0.084
-0.084
-0.084
-0.084
-0.084
0.0368921
0.0380615
0.0384189
0.0365339
0.0280494
0.00268516
-0.0565878
-0.0762956
-0.0818492
-0.0833861
-0.0838222
-0.0839485
-0.0839851
-0.0839957
-0.0839987
-0.0839996
-0.0839999
-0.084
-0.084
-0.084
-0.084
-0.084
-0.084
-0.084
-0.084
-0.084
-0.084
-0.084
-0.084
-0.084
-0.084
-0.084
-0.084
0.0373901
0.0382873
0.0380947
0.03491
0.0213096
-0.0218694
-0.0668554
-0.0792272
-0.0826561
-0.0836118
-0.0838873
-0.0839673
-0.0839905
-0.0839972
-0.0839992
-0.0839998
-0.0839999
-0.084
-0.084
-0.084
-0.084
-0.084
-0.084
-0.084
-0.084
-0.084
-0.084
-0.084
-0.084
-0.084
-0.084
-0.084
-0.084
0.0379263
0.038348
0.0367614
0.0302786
0.00959187
-0.0505219
-0.0745
-0.081328
-0.0832383
-0.083778
-0.0839354
-0.0839812
-0.0839945
-0.0839984
-0.0839995
-0.0839999
-0.084
-0.084
-0.084
-0.084
-0.084
-0.084
-0.084
-0.084
-0.084
-0.084
-0.084
-0.084
-0.084
-0.084
-0.084
-0.084
-0.084
0.0383204
0.0378784
0.0344628
0.0206875
-0.0237295
-0.0672864
-0.0793052
-0.0826673
-0.083612
-0.0838867
-0.0839669
-0.0839904
-0.0839972
-0.0839992
-0.0839998
-0.0839999
-0.084
-0.084
-0.084
-0.084
-0.084
-0.084
-0.084
-0.084
-0.084
-0.084
-0.084
-0.084
-0.084
-0.084
-0.084
-0.084
-0.084
0.0381838
0.0356896
0.025659
-0.0029144
-0.0589672
-0.0769114
-0.0819843
-0.0834124
-0.0838277
-0.0839494
-0.0839851
-0.0839956
-0.0839987
-0.0839996
-0.0839999
-0.084
-0.084
-0.084
-0.084
-0.084
-0.084
-0.084
-0.084
-0.084
-0.084
-0.084
-0.084
-0.084
-0.084
-0.084
-0.084
-0.084
-0.084
0.0361747
0.0280386
0.00504216
-0.0535772
-0.075125
-0.0814478
-0.0832548
-0.0837778
-0.083934
-0.0839804
-0.0839942
-0.0839983
-0.0839995
-0.0839998
-0.084
-0.084
-0.084
-0.084
-0.084
-0.084
-0.084
-0.084
-0.084
-0.084
-0.084
-0.084
-0.084
-0.084
-0.084
-0.084
-0.084
-0.084
-0.084
0.0289159
0.00584962
-0.0525765
-0.0747303
-0.0812957
-0.083199
-0.0837577
-0.0839269
-0.083978
-0.0839934
-0.083998
-0.0839994
-0.0839998
-0.0839999
-0.084
-0.084
-0.084
-0.084
-0.084
-0.084
-0.084
-0.084
-0.084
-0.084
-0.084
-0.084
-0.084
-0.084
-0.084
-0.084
-0.084
-0.084
-0.084
0.0130988
-0.0461374
-0.073126
-0.080855
-0.0830766
-0.0837203
-0.0839151
-0.0839742
-0.0839921
-0.0839976
-0.0839993
-0.0839998
-0.0839999
-0.084
-0.084
-0.084
-0.084
-0.084
-0.084
-0.084
-0.084
-0.084
-0.084
-0.084
-0.084
-0.084
-0.084
-0.084
-0.084
-0.084
-0.084
-0.084
-0.084
0.0320719
0.0339848
0.0357412
0.0372409
0.0382683
0.0383301
0.0357389
0.0236897
-0.0169042
-0.0656544
-0.078982
-0.0826065
-0.0836024
-0.083886
-0.0839673
-0.0839906
-0.0839973
-0.0839992
-0.0839998
-0.0839999
-0.084
-0.084
-0.084
-0.084
-0.084
-0.084
-0.084
-0.084
-0.084
-0.084
-0.084
-0.084
-0.084
-0.084
0.0320871
0.0339951
0.0357463
0.037231
0.038229
0.0382206
0.0354791
0.0230321
-0.0189951
-0.0662614
-0.0791374
-0.0826481
-0.083614
-0.0838893
-0.0839682
-0.0839909
-0.0839974
-0.0839992
-0.0839998
-0.0839999
-0.084
-0.084
-0.084
-0.084
-0.084
-0.084
-0.084
-0.084
-0.084
-0.084
-0.084
-0.084
-0.084
-0.084
0.0322486
0.0340457
0.035752
0.0372062
0.0381411
0.0379661
0.0348557
0.0213547
-0.0248042
-0.0678854
-0.0795339
-0.0827495
-0.0836409
-0.0838967
-0.0839703
-0.0839915
-0.0839976
-0.0839993
-0.0839998
-0.0839999
-0.084
-0.084
-0.084
-0.084
-0.084
-0.084
-0.084
-0.084
-0.084
-0.084
-0.084
-0.084
-0.084
-0.084
0.0323451
0.0342268
0.0359448
0.0373776
0.0382505
0.0379109
0.0344525
0.0200597
-0.0301844
-0.0694642
-0.0799759
-0.0828763
-0.0836778
-0.0839074
-0.0839734
-0.0839924
-0.0839978
-0.0839994
-0.0839998
-0.0839999
-0.084
-0.084
-0.084
-0.084
-0.084
-0.084
-0.084
-0.084
-0.084
-0.084
-0.084
-0.084
-0.084
-0.084
0.0325933
0.0344573
0.0361443
0.0375239
0.0382785
0.0375872
0.0332392
0.0169221
-0.0396512
-0.0718775
-0.0806251
-0.0830534
-0.0837277
-0.0839218
-0.0839775
-0.0839935
-0.0839981
-0.0839995
-0.0839998
-0.084
-0.084
-0.084
-0.084
-0.084
-0.084
-0.084
-0.084
-0.084
-0.084
-0.084
-0.084
-0.084
-0.084
-0.084
0.0330443
0.0348843
0.0365239
0.0378312
0.038446
0.0372984
0.031484
0.0120408
-0.0496383
-0.0743988
-0.0813373
-0.0832509
-0.0837843
-0.083938
-0.0839822
-0.0839949
-0.0839985
-0.0839996
-0.0839999
-0.084
-0.084
-0.084
-0.084
-0.084
-0.084
-0.084
-0.084
-0.084
-0.084
-0.084
-0.084
-0.084
-0.084
-0.084
0.0335223
0.0353189
0.036888
0.038071
0.0384504
0.0365897
0.0279189
0.000764947
-0.0583607
-0.0769248
-0.0820406
-0.0834414
-0.0838397
-0.0839539
-0.0839867
-0.0839962
-0.0839989
-0.0839997
-0.0839999
-0.084
-0.084
-0.084
-0.084
-0.084
-0.084
-0.084
-0.084
-0.084
-0.084
-0.084
-0.084
-0.084
-0.084
-0.084
0.0340603
0.0357638
0.0372192
0.0381833
0.0381002
0.0351696
0.0224084
-0.0199688
-0.0664773
-0.0791742
-0.0826523
-0.0836135
-0.0838887
-0.0839679
-0.0839908
-0.0839973
-0.0839992
-0.0839998
-0.0839999
-0.084
-0.084
-0.084
-0.084
-0.084
-0.084
-0.084
-0.084
-0.084
-0.084
-0.084
-0.084
-0.084
-0.084
-0.084
0.0348755
0.0364846
0.0376881
0.0383018
0.0373181
0.0321375
0.0140523
-0.0450334
-0.0731922
-0.0809825
-0.0831509
-0.0837546
-0.0839292
-0.0839796
-0.0839941
-0.0839983
-0.0839995
-0.0839999
-0.084
-0.084
-0.084
-0.084
-0.084
-0.084
-0.084
-0.084
-0.084
-0.084
-0.084
-0.084
-0.084
-0.084
-0.084
-0.084
0.035702
0.0370918
0.0381207
0.0382536
0.0358376
0.0252911
-0.00763524
-0.0619896
-0.0779271
-0.0823026
-0.0835125
-0.0838592
-0.0839593
-0.0839882
-0.0839966
-0.083999
-0.0839997
-0.0839999
-0.084
-0.084
-0.084
-0.084
-0.084
-0.084
-0.084
-0.084
-0.084
-0.084
-0.084
-0.084
-0.084
-0.084
-0.084
-0.084
0.0365738
0.0378154
0.0383699
0.0372374
0.0315812
0.0128346
-0.0457263
-0.0732786
-0.0809848
-0.0831456
-0.0837516
-0.0839279
-0.0839791
-0.0839939
-0.0839982
-0.0839995
-0.0839999
-0.084
-0.084
-0.084
-0.084
-0.084
-0.084
-0.084
-0.084
-0.084
-0.084
-0.084
-0.084
-0.084
-0.084
-0.084
-0.084
-0.084
0.0375269
0.0383118
0.0378361
0.0343471
0.020328
-0.024655
-0.0676417
-0.0793997
-0.0826926
-0.0836191
-0.0838887
-0.0839675
-0.0839905
-0.0839972
-0.0839992
-0.0839998
-0.0839999
-0.084
-0.084
-0.084
-0.084
-0.084
-0.084
-0.084
-0.084
-0.084
-0.084
-0.084
-0.084
-0.084
-0.084
-0.084
-0.084
-0.084
0.0383146
0.0382179
0.0352484
0.0235233
-0.012023
-0.0630195
-0.0780797
-0.0823083
-0.0835042
-0.0838539
-0.0839569
-0.0839873
-0.0839963
-0.0839989
-0.0839997
-0.0839999
-0.084
-0.084
-0.084
-0.084
-0.084
-0.084
-0.084
-0.084
-0.084
-0.084
-0.084
-0.084
-0.084
-0.084
-0.084
-0.084
-0.084
-0.084
0.038437