/*--------------------------------*- C++ -*----------------------------------*\
| =========                 |                                                 |
| \\      /  F ield         | OpenFOAM: The Open Source CFD Toolbox           |
|  \\    /   O peration     | Version:  2312                                  |
|   \\  /    A nd           | Website:  www.openfoam.com                      |
|    \\/     M anipulation  |                                                 |
\*---------------------------------------------------------------------------*/
FoamFile
{
    version     2.0;
    format      ascii;
    arch        "LSB;label=32;scalar=64";
    class       volVectorField;
    location    "0.8";
    object      D_0;
}
// * * * * * * * * * * * * * * * * * * * * * * * * * * * * * * * * * * * * * //

dimensions      [0 1 0 0 0 0 0];

internalField   nonuniform List<vector> 
1620
(
(0.000364757 3.19121e-05 -0.000220051)
(0.000353674 9.47666e-05 -0.000220051)
(0.000331845 0.000154741 -0.000220052)
(0.000299933 0.000210015 -0.000220052)
(0.000258908 0.000258908 -0.000220052)
(0.000210015 0.000299933 -0.000220052)
(0.000154741 0.000331845 -0.000220052)
(9.47666e-05 0.000353674 -0.000220051)
(3.19121e-05 0.000364757 -0.000220051)
(-3.19121e-05 0.000364757 -0.000220051)
(-9.47666e-05 0.000353674 -0.000220051)
(-0.000154741 0.000331845 -0.000220052)
(-0.000210015 0.000299933 -0.000220052)
(-0.000258908 0.000258908 -0.000220052)
(-0.000299933 0.000210015 -0.000220052)
(-0.000331845 0.000154741 -0.000220052)
(-0.000353674 9.47666e-05 -0.000220051)
(-0.000364757 3.19121e-05 -0.000220051)
(-0.000364757 -3.19121e-05 -0.000220051)
(-0.000353674 -9.47666e-05 -0.000220051)
(-0.000331845 -0.000154741 -0.000220052)
(-0.000299933 -0.000210015 -0.000220052)
(-0.000258908 -0.000258908 -0.000220052)
(-0.000210015 -0.000299933 -0.000220052)
(-0.000154741 -0.000331845 -0.000220052)
(-9.47666e-05 -0.000353674 -0.000220051)
(-3.19121e-05 -0.000364757 -0.000220051)
(3.19121e-05 -0.000364757 -0.000220051)
(9.47666e-05 -0.000353674 -0.000220051)
(0.000154741 -0.000331845 -0.000220052)
(0.000210015 -0.000299933 -0.000220052)
(0.000258908 -0.000258908 -0.000220052)
(0.000299933 -0.000210015 -0.000220052)
(0.000331845 -0.000154741 -0.000220052)
(0.000353674 -9.47666e-05 -0.000220051)
(0.000364757 -3.19121e-05 -0.000220051)
(0.000547918 4.79364e-05 -0.000188733)
(0.00053127 0.000142353 -0.000188733)
(0.000498479 0.000232444 -0.000188733)
(0.000450542 0.000315473 -0.000188733)
(0.000388916 0.000388916 -0.000188733)
(0.000315473 0.000450542 -0.000188733)
(0.000232444 0.000498479 -0.000188733)
(0.000142353 0.00053127 -0.000188733)
(4.79364e-05 0.000547918 -0.000188733)
(-4.79364e-05 0.000547918 -0.000188733)
(-0.000142353 0.00053127 -0.000188733)
(-0.000232444 0.000498479 -0.000188733)
(-0.000315473 0.000450542 -0.000188733)
(-0.000388916 0.000388916 -0.000188733)
(-0.000450542 0.000315473 -0.000188733)
(-0.000498479 0.000232444 -0.000188733)
(-0.00053127 0.000142353 -0.000188733)
(-0.000547918 4.79364e-05 -0.000188733)
(-0.000547918 -4.79364e-05 -0.000188733)
(-0.00053127 -0.000142353 -0.000188733)
(-0.000498479 -0.000232444 -0.000188733)
(-0.000450542 -0.000315473 -0.000188733)
(-0.000388916 -0.000388916 -0.000188733)
(-0.000315473 -0.000450542 -0.000188733)
(-0.000232444 -0.000498479 -0.000188733)
(-0.000142353 -0.00053127 -0.000188733)
(-4.79364e-05 -0.000547918 -0.000188733)
(4.79364e-05 -0.000547918 -0.000188733)
(0.000142353 -0.00053127 -0.000188733)
(0.000232444 -0.000498479 -0.000188733)
(0.000315473 -0.000450542 -0.000188733)
(0.000388916 -0.000388916 -0.000188733)
(0.000450542 -0.000315473 -0.000188733)
(0.000498479 -0.000232444 -0.000188733)
(0.00053127 -0.000142353 -0.000188733)
(0.000547918 -4.79364e-05 -0.000188733)
(0.000766608 6.70692e-05 -0.000137685)
(0.000743315 0.00019917 -0.000137685)
(0.000697437 0.00032522 -0.000137686)
(0.000630367 0.000441387 -0.000137685)
(0.000544144 0.000544144 -0.000137686)
(0.000441387 0.000630367 -0.000137685)
(0.00032522 0.000697437 -0.000137686)
(0.00019917 0.000743315 -0.000137685)
(6.70692e-05 0.000766608 -0.000137685)
(-6.70692e-05 0.000766608 -0.000137685)
(-0.00019917 0.000743315 -0.000137685)
(-0.00032522 0.000697437 -0.000137686)
(-0.000441387 0.000630367 -0.000137685)
(-0.000544144 0.000544144 -0.000137686)
(-0.000630367 0.000441387 -0.000137685)
(-0.000697437 0.00032522 -0.000137686)
(-0.000743315 0.00019917 -0.000137685)
(-0.000766608 6.70692e-05 -0.000137685)
(-0.000766608 -6.70692e-05 -0.000137685)
(-0.000743315 -0.00019917 -0.000137685)
(-0.000697437 -0.00032522 -0.000137686)
(-0.000630367 -0.000441387 -0.000137685)
(-0.000544144 -0.000544144 -0.000137686)
(-0.000441387 -0.000630367 -0.000137685)
(-0.00032522 -0.000697437 -0.000137686)
(-0.00019917 -0.000743315 -0.000137685)
(-6.70692e-05 -0.000766608 -0.000137685)
(6.70692e-05 -0.000766608 -0.000137685)
(0.00019917 -0.000743315 -0.000137685)
(0.00032522 -0.000697437 -0.000137686)
(0.000441387 -0.000630367 -0.000137685)
(0.000544144 -0.000544144 -0.000137686)
(0.000630367 -0.000441387 -0.000137685)
(0.000697437 -0.00032522 -0.000137686)
(0.000743315 -0.00019917 -0.000137685)
(0.000766608 -6.70692e-05 -0.000137685)
(0.00129208 0.000113043 -0.000640083)
(0.00125282 0.000335693 -0.000640084)
(0.0011755 0.000548143 -0.000640084)
(0.00106245 0.000743938 -0.000640084)
(0.000917129 0.000917129 -0.000640084)
(0.000743938 0.00106245 -0.000640084)
(0.000548143 0.0011755 -0.000640084)
(0.000335693 0.00125282 -0.000640084)
(0.000113043 0.00129208 -0.000640083)
(-0.000113043 0.00129208 -0.000640083)
(-0.000335693 0.00125282 -0.000640084)
(-0.000548143 0.0011755 -0.000640084)
(-0.000743938 0.00106245 -0.000640084)
(-0.000917129 0.000917129 -0.000640084)
(-0.00106245 0.000743938 -0.000640084)
(-0.0011755 0.000548143 -0.000640084)
(-0.00125282 0.000335693 -0.000640084)
(-0.00129208 0.000113043 -0.000640083)
(-0.00129208 -0.000113043 -0.000640083)
(-0.00125282 -0.000335693 -0.000640084)
(-0.0011755 -0.000548143 -0.000640084)
(-0.00106245 -0.000743938 -0.000640084)
(-0.000917129 -0.000917129 -0.000640084)
(-0.000743938 -0.00106245 -0.000640084)
(-0.000548143 -0.0011755 -0.000640084)
(-0.000335693 -0.00125282 -0.000640084)
(-0.000113043 -0.00129208 -0.000640083)
(0.000113043 -0.00129208 -0.000640083)
(0.000335693 -0.00125282 -0.000640084)
(0.000548143 -0.0011755 -0.000640084)
(0.000743938 -0.00106245 -0.000640084)
(0.000917129 -0.000917129 -0.000640084)
(0.00106245 -0.000743938 -0.000640084)
(0.0011755 -0.000548143 -0.000640084)
(0.00125282 -0.000335693 -0.000640084)
(0.00129208 -0.000113043 -0.000640083)
(0.00159477 0.000139524 -0.000638636)
(0.00154632 0.000414333 -0.000638636)
(0.00145088 0.000676553 -0.000638637)
(0.00131135 0.000918216 -0.000638637)
(0.00113198 0.00113198 -0.000638637)
(0.000918216 0.00131135 -0.000638637)
(0.000676553 0.00145088 -0.000638637)
(0.000414333 0.00154632 -0.000638636)
(0.000139524 0.00159477 -0.000638636)
(-0.000139524 0.00159477 -0.000638636)
(-0.000414333 0.00154632 -0.000638636)
(-0.000676553 0.00145088 -0.000638637)
(-0.000918216 0.00131135 -0.000638637)
(-0.00113198 0.00113198 -0.000638637)
(-0.00131135 0.000918216 -0.000638637)
(-0.00145088 0.000676553 -0.000638637)
(-0.00154632 0.000414333 -0.000638636)
(-0.00159477 0.000139524 -0.000638636)
(-0.00159477 -0.000139524 -0.000638636)
(-0.00154632 -0.000414333 -0.000638636)
(-0.00145088 -0.000676553 -0.000638637)
(-0.00131135 -0.000918216 -0.000638637)
(-0.00113198 -0.00113198 -0.000638637)
(-0.000918216 -0.00131135 -0.000638637)
(-0.000676553 -0.00145088 -0.000638637)
(-0.000414333 -0.00154632 -0.000638636)
(-0.000139524 -0.00159477 -0.000638636)
(0.000139524 -0.00159477 -0.000638636)
(0.000414333 -0.00154632 -0.000638636)
(0.000676553 -0.00145088 -0.000638637)
(0.000918216 -0.00131135 -0.000638637)
(0.00113198 -0.00113198 -0.000638637)
(0.00131135 -0.000918216 -0.000638637)
(0.00145088 -0.000676553 -0.000638637)
(0.00154632 -0.000414333 -0.000638636)
(0.00159477 -0.000139524 -0.000638636)
(0.00194823 0.000170448 -0.000613497)
(0.00188903 0.000506164 -0.000613497)
(0.00177244 0.000826501 -0.000613497)
(0.00160199 0.00112173 -0.000613496)
(0.00138287 0.00138287 -0.000613496)
(0.00112173 0.00160199 -0.000613496)
(0.000826501 0.00177244 -0.000613497)
(0.000506164 0.00188903 -0.000613497)
(0.000170448 0.00194823 -0.000613497)
(-0.000170448 0.00194823 -0.000613497)
(-0.000506164 0.00188903 -0.000613497)
(-0.000826501 0.00177244 -0.000613497)
(-0.00112173 0.00160199 -0.000613496)
(-0.00138287 0.00138287 -0.000613496)
(-0.00160199 0.00112173 -0.000613496)
(-0.00177244 0.000826501 -0.000613497)
(-0.00188903 0.000506164 -0.000613497)
(-0.00194823 0.000170448 -0.000613497)
(-0.00194823 -0.000170448 -0.000613497)
(-0.00188903 -0.000506164 -0.000613497)
(-0.00177244 -0.000826501 -0.000613497)
(-0.00160199 -0.00112173 -0.000613496)
(-0.00138287 -0.00138287 -0.000613496)
(-0.00112173 -0.00160199 -0.000613496)
(-0.000826501 -0.00177244 -0.000613497)
(-0.000506164 -0.00188903 -0.000613497)
(-0.000170448 -0.00194823 -0.000613497)
(0.000170448 -0.00194823 -0.000613497)
(0.000506164 -0.00188903 -0.000613497)
(0.000826501 -0.00177244 -0.000613497)
(0.00112173 -0.00160199 -0.000613496)
(0.00138287 -0.00138287 -0.000613496)
(0.00160199 -0.00112173 -0.000613496)
(0.00177244 -0.000826501 -0.000613497)
(0.00188903 -0.000506164 -0.000613497)
(0.00194823 -0.000170448 -0.000613497)
(0.00211188 0.000184765 -0.00119776)
(0.00204771 0.000548681 -0.00119776)
(0.00192132 0.000895925 -0.00119776)
(0.00173655 0.00121595 -0.00119776)
(0.00149902 0.00149902 -0.00119776)
(0.00121595 0.00173655 -0.00119776)
(0.000895925 0.00192132 -0.00119776)
(0.000548681 0.00204771 -0.00119776)
(0.000184765 0.00211188 -0.00119776)
(-0.000184765 0.00211188 -0.00119776)
(-0.000548681 0.00204771 -0.00119776)
(-0.000895925 0.00192132 -0.00119776)
(-0.00121595 0.00173655 -0.00119776)
(-0.00149902 0.00149902 -0.00119776)
(-0.00173655 0.00121595 -0.00119776)
(-0.00192132 0.000895925 -0.00119776)
(-0.00204771 0.000548681 -0.00119776)
(-0.00211188 0.000184765 -0.00119776)
(-0.00211188 -0.000184765 -0.00119776)
(-0.00204771 -0.000548681 -0.00119776)
(-0.00192132 -0.000895925 -0.00119776)
(-0.00173655 -0.00121595 -0.00119776)
(-0.00149902 -0.00149902 -0.00119776)
(-0.00121595 -0.00173655 -0.00119776)
(-0.000895925 -0.00192132 -0.00119776)
(-0.000548681 -0.00204771 -0.00119776)
(-0.000184765 -0.00211188 -0.00119776)
(0.000184765 -0.00211188 -0.00119776)
(0.000548681 -0.00204771 -0.00119776)
(0.000895925 -0.00192132 -0.00119776)
(0.00121595 -0.00173655 -0.00119776)
(0.00149902 -0.00149902 -0.00119776)
(0.00173655 -0.00121595 -0.00119776)
(0.00192132 -0.000895925 -0.00119776)
(0.00204771 -0.000548681 -0.00119776)
(0.00211188 -0.000184765 -0.00119776)
(0.00249245 0.000218061 -0.00121206)
(0.00241672 0.000647558 -0.00121206)
(0.00226756 0.00105738 -0.00121206)
(0.0020495 0.00143507 -0.00121206)
(0.00176916 0.00176916 -0.00121206)
(0.00143507 0.0020495 -0.00121206)
(0.00105738 0.00226756 -0.00121206)
(0.000647558 0.00241672 -0.00121206)
(0.000218061 0.00249245 -0.00121206)
(-0.000218061 0.00249245 -0.00121206)
(-0.000647558 0.00241672 -0.00121206)
(-0.00105738 0.00226756 -0.00121206)
(-0.00143507 0.0020495 -0.00121206)
(-0.00176916 0.00176916 -0.00121206)
(-0.0020495 0.00143507 -0.00121206)
(-0.00226756 0.00105738 -0.00121206)
(-0.00241672 0.000647558 -0.00121206)
(-0.00249245 0.000218061 -0.00121206)
(-0.00249245 -0.000218061 -0.00121206)
(-0.00241672 -0.000647558 -0.00121206)
(-0.00226756 -0.00105738 -0.00121206)
(-0.0020495 -0.00143507 -0.00121206)
(-0.00176916 -0.00176916 -0.00121206)
(-0.00143507 -0.0020495 -0.00121206)
(-0.00105738 -0.00226756 -0.00121206)
(-0.000647558 -0.00241672 -0.00121206)
(-0.000218061 -0.00249245 -0.00121206)
(0.000218061 -0.00249245 -0.00121206)
(0.000647558 -0.00241672 -0.00121206)
(0.00105738 -0.00226756 -0.00121206)
(0.00143507 -0.0020495 -0.00121206)
(0.00176916 -0.00176916 -0.00121206)
(0.0020495 -0.00143507 -0.00121206)
(0.00226756 -0.00105738 -0.00121206)
(0.00241672 -0.000647558 -0.00121206)
(0.00249245 -0.000218061 -0.00121206)
(0.00293043 0.00025638 -0.00120486)
(0.00284139 0.000761349 -0.00120486)
(0.00266602 0.00124318 -0.00120486)
(0.00240964 0.00168725 -0.00120486)
(0.00208004 0.00208004 -0.00120486)
(0.00168725 0.00240964 -0.00120486)
(0.00124318 0.00266602 -0.00120486)
(0.000761349 0.00284139 -0.00120486)
(0.00025638 0.00293043 -0.00120486)
(-0.00025638 0.00293043 -0.00120486)
(-0.000761349 0.00284139 -0.00120486)
(-0.00124318 0.00266602 -0.00120486)
(-0.00168725 0.00240964 -0.00120486)
(-0.00208004 0.00208004 -0.00120486)
(-0.00240964 0.00168725 -0.00120486)
(-0.00266602 0.00124318 -0.00120486)
(-0.00284139 0.000761349 -0.00120486)
(-0.00293043 0.00025638 -0.00120486)
(-0.00293043 -0.00025638 -0.00120486)
(-0.00284139 -0.000761349 -0.00120486)
(-0.00266602 -0.00124318 -0.00120486)
(-0.00240964 -0.00168725 -0.00120486)
(-0.00208004 -0.00208004 -0.00120486)
(-0.00168725 -0.00240964 -0.00120486)
(-0.00124318 -0.00266602 -0.00120486)
(-0.000761349 -0.00284139 -0.00120486)
(-0.00025638 -0.00293043 -0.00120486)
(0.00025638 -0.00293043 -0.00120486)
(0.000761349 -0.00284139 -0.00120486)
(0.00124318 -0.00266602 -0.00120486)
(0.00168725 -0.00240964 -0.00120486)
(0.00208004 -0.00208004 -0.00120486)
(0.00240964 -0.00168725 -0.00120486)
(0.00266602 -0.00124318 -0.00120486)
(0.00284139 -0.000761349 -0.00120486)
(0.00293043 -0.00025638 -0.00120486)
(0.00273094 0.000238926 -0.0018418)
(0.00264796 0.000709518 -0.0018418)
(0.00248453 0.00115855 -0.0018418)
(0.0022456 0.00157239 -0.0018418)
(0.00193844 0.00193844 -0.0018418)
(0.00157239 0.0022456 -0.0018418)
(0.00115855 0.00248453 -0.0018418)
(0.000709518 0.00264796 -0.0018418)
(0.000238926 0.00273094 -0.0018418)
(-0.000238926 0.00273094 -0.0018418)
(-0.000709518 0.00264796 -0.0018418)
(-0.00115855 0.00248453 -0.0018418)
(-0.00157239 0.0022456 -0.0018418)
(-0.00193844 0.00193844 -0.0018418)
(-0.0022456 0.00157239 -0.0018418)
(-0.00248453 0.00115855 -0.0018418)
(-0.00264796 0.000709518 -0.0018418)
(-0.00273094 0.000238926 -0.0018418)
(-0.00273094 -0.000238926 -0.0018418)
(-0.00264796 -0.000709518 -0.0018418)
(-0.00248453 -0.00115855 -0.0018418)
(-0.0022456 -0.00157239 -0.0018418)
(-0.00193844 -0.00193844 -0.0018418)
(-0.00157239 -0.0022456 -0.0018418)
(-0.00115855 -0.00248453 -0.0018418)
(-0.000709518 -0.00264796 -0.0018418)
(-0.000238926 -0.00273094 -0.0018418)
(0.000238926 -0.00273094 -0.0018418)
(0.000709518 -0.00264796 -0.0018418)
(0.00115855 -0.00248453 -0.0018418)
(0.00157239 -0.0022456 -0.0018418)
(0.00193844 -0.00193844 -0.0018418)
(0.0022456 -0.00157239 -0.0018418)
(0.00248453 -0.00115855 -0.0018418)
(0.00264796 -0.000709518 -0.0018418)
(0.00273094 -0.000238926 -0.0018418)
(0.00315378 0.00027592 -0.00187035)
(0.00305795 0.000819376 -0.00187035)
(0.00286921 0.00133794 -0.00187035)
(0.00259329 0.00181584 -0.00187035)
(0.00223858 0.00223858 -0.00187035)
(0.00181584 0.00259329 -0.00187035)
(0.00133794 0.00286921 -0.00187035)
(0.000819376 0.00305795 -0.00187035)
(0.00027592 0.00315378 -0.00187035)
(-0.00027592 0.00315378 -0.00187035)
(-0.000819376 0.00305795 -0.00187035)
(-0.00133794 0.00286921 -0.00187035)
(-0.00181584 0.00259329 -0.00187035)
(-0.00223858 0.00223858 -0.00187035)
(-0.00259329 0.00181584 -0.00187035)
(-0.00286921 0.00133794 -0.00187035)
(-0.00305795 0.000819376 -0.00187035)
(-0.00315378 0.00027592 -0.00187035)
(-0.00315378 -0.00027592 -0.00187035)
(-0.00305795 -0.000819376 -0.00187035)
(-0.00286921 -0.00133794 -0.00187035)
(-0.00259329 -0.00181584 -0.00187035)
(-0.00223858 -0.00223858 -0.00187035)
(-0.00181584 -0.00259329 -0.00187035)
(-0.00133794 -0.00286921 -0.00187035)
(-0.000819376 -0.00305795 -0.00187035)
(-0.00027592 -0.00315378 -0.00187035)
(0.00027592 -0.00315378 -0.00187035)
(0.000819376 -0.00305795 -0.00187035)
(0.00133794 -0.00286921 -0.00187035)
(0.00181584 -0.00259329 -0.00187035)
(0.00223858 -0.00223858 -0.00187035)
(0.00259329 -0.00181584 -0.00187035)
(0.00286921 -0.00133794 -0.00187035)
(0.00305795 -0.000819376 -0.00187035)
(0.00315378 -0.00027592 -0.00187035)
(0.00363978 0.00031844 -0.00188328)
(0.00352919 0.000945643 -0.00188328)
(0.00331136 0.00154411 -0.00188328)
(0.00299292 0.00209567 -0.00188328)
(0.00258354 0.00258354 -0.00188328)
(0.00209567 0.00299292 -0.00188328)
(0.00154411 0.00331136 -0.00188328)
(0.000945643 0.00352919 -0.00188328)
(0.00031844 0.00363978 -0.00188328)
(-0.00031844 0.00363978 -0.00188328)
(-0.000945643 0.00352919 -0.00188328)
(-0.00154411 0.00331136 -0.00188328)
(-0.00209567 0.00299292 -0.00188328)
(-0.00258354 0.00258354 -0.00188328)
(-0.00299292 0.00209567 -0.00188328)
(-0.00331136 0.00154411 -0.00188328)
(-0.00352919 0.000945643 -0.00188328)
(-0.00363978 0.00031844 -0.00188328)
(-0.00363978 -0.00031844 -0.00188328)
(-0.00352919 -0.000945643 -0.00188328)
(-0.00331136 -0.00154411 -0.00188328)
(-0.00299292 -0.00209567 -0.00188328)
(-0.00258354 -0.00258354 -0.00188328)
(-0.00209567 -0.00299292 -0.00188328)
(-0.00154411 -0.00331136 -0.00188328)
(-0.000945643 -0.00352919 -0.00188328)
(-0.00031844 -0.00363978 -0.00188328)
(0.00031844 -0.00363978 -0.00188328)
(0.000945643 -0.00352919 -0.00188328)
(0.00154411 -0.00331136 -0.00188328)
(0.00209567 -0.00299292 -0.00188328)
(0.00258354 -0.00258354 -0.00188328)
(0.00299292 -0.00209567 -0.00188328)
(0.00331136 -0.00154411 -0.00188328)
(0.00352919 -0.000945643 -0.00188328)
(0.00363978 -0.00031844 -0.00188328)
(0.00311371 0.000272414 -0.00252418)
(0.0030191 0.000808965 -0.00252418)
(0.00283276 0.00132094 -0.00252418)
(0.00256034 0.00179277 -0.00252418)
(0.00221013 0.00221013 -0.00252418)
(0.00179277 0.00256034 -0.00252418)
(0.00132094 0.00283276 -0.00252418)
(0.000808965 0.0030191 -0.00252418)
(0.000272414 0.00311371 -0.00252418)
(-0.000272414 0.00311371 -0.00252418)
(-0.000808965 0.0030191 -0.00252418)
(-0.00132094 0.00283276 -0.00252418)
(-0.00179277 0.00256034 -0.00252418)
(-0.00221013 0.00221013 -0.00252418)
(-0.00256034 0.00179277 -0.00252418)
(-0.00283276 0.00132094 -0.00252418)
(-0.0030191 0.000808965 -0.00252418)
(-0.00311371 0.000272414 -0.00252418)
(-0.00311371 -0.000272414 -0.00252418)
(-0.0030191 -0.000808965 -0.00252418)
(-0.00283276 -0.00132094 -0.00252418)
(-0.00256034 -0.00179277 -0.00252418)
(-0.00221013 -0.00221013 -0.00252418)
(-0.00179277 -0.00256034 -0.00252418)
(-0.00132094 -0.00283276 -0.00252418)
(-0.000808965 -0.0030191 -0.00252418)
(-0.000272414 -0.00311371 -0.00252418)
(0.000272414 -0.00311371 -0.00252418)
(0.000808965 -0.0030191 -0.00252418)
(0.00132094 -0.00283276 -0.00252418)
(0.00179277 -0.00256034 -0.00252418)
(0.00221013 -0.00221013 -0.00252418)
(0.00256034 -0.00179277 -0.00252418)
(0.00283276 -0.00132094 -0.00252418)
(0.0030191 -0.000808965 -0.00252418)
(0.00311371 -0.000272414 -0.00252418)
(0.00355629 0.000311135 -0.00257088)
(0.00344823 0.000923951 -0.00257088)
(0.0032354 0.00150869 -0.00257088)
(0.00292427 0.00204759 -0.00257088)
(0.00252428 0.00252428 -0.00257088)
(0.00204759 0.00292427 -0.00257088)
(0.00150869 0.0032354 -0.00257088)
(0.000923951 0.00344823 -0.00257088)
(0.000311135 0.00355629 -0.00257088)
(-0.000311135 0.00355629 -0.00257088)
(-0.000923951 0.00344823 -0.00257088)
(-0.00150869 0.0032354 -0.00257088)
(-0.00204759 0.00292427 -0.00257088)
(-0.00252428 0.00252428 -0.00257088)
(-0.00292427 0.00204759 -0.00257088)
(-0.0032354 0.00150869 -0.00257088)
(-0.00344823 0.000923951 -0.00257088)
(-0.00355629 0.000311135 -0.00257088)
(-0.00355629 -0.000311135 -0.00257088)
(-0.00344823 -0.000923951 -0.00257088)
(-0.0032354 -0.00150869 -0.00257088)
(-0.00292427 -0.00204759 -0.00257088)
(-0.00252428 -0.00252428 -0.00257088)
(-0.00204759 -0.00292427 -0.00257088)
(-0.00150869 -0.0032354 -0.00257088)
(-0.000923951 -0.00344823 -0.00257088)
(-0.000311135 -0.00355629 -0.00257088)
(0.000311135 -0.00355629 -0.00257088)
(0.000923951 -0.00344823 -0.00257088)
(0.00150869 -0.0032354 -0.00257088)
(0.00204759 -0.00292427 -0.00257088)
(0.00252428 -0.00252428 -0.00257088)
(0.00292427 -0.00204759 -0.00257088)
(0.0032354 -0.00150869 -0.00257088)
(0.00344823 -0.000923951 -0.00257088)
(0.00355629 -0.000311135 -0.00257088)
(0.00406653 0.000355776 -0.00260974)
(0.00394297 0.00105652 -0.00260974)
(0.00369961 0.00172516 -0.00260974)
(0.00334383 0.00234138 -0.00260974)
(0.00288646 0.00288646 -0.00260974)
(0.00234138 0.00334383 -0.00260974)
(0.00172516 0.00369961 -0.00260974)
(0.00105652 0.00394297 -0.00260974)
(0.000355776 0.00406653 -0.00260974)
(-0.000355776 0.00406653 -0.00260974)
(-0.00105652 0.00394297 -0.00260974)
(-0.00172516 0.00369961 -0.00260974)
(-0.00234138 0.00334383 -0.00260974)
(-0.00288646 0.00288646 -0.00260974)
(-0.00334383 0.00234138 -0.00260974)
(-0.00369961 0.00172516 -0.00260974)
(-0.00394297 0.00105652 -0.00260974)
(-0.00406653 0.000355776 -0.00260974)
(-0.00406653 -0.000355776 -0.00260974)
(-0.00394297 -0.00105652 -0.00260974)
(-0.00369961 -0.00172516 -0.00260974)
(-0.00334383 -0.00234138 -0.00260974)
(-0.00288646 -0.00288646 -0.00260974)
(-0.00234138 -0.00334383 -0.00260974)
(-0.00172516 -0.00369961 -0.00260974)
(-0.00105652 -0.00394297 -0.00260974)
(-0.000355776 -0.00406653 -0.00260974)
(0.000355776 -0.00406653 -0.00260974)
(0.00105652 -0.00394297 -0.00260974)
(0.00172516 -0.00369961 -0.00260974)
(0.00234138 -0.00334383 -0.00260974)
(0.00288646 -0.00288646 -0.00260974)
(0.00334383 -0.00234138 -0.00260974)
(0.00369961 -0.00172516 -0.00260974)
(0.00394297 -0.00105652 -0.00260974)
(0.00406653 -0.000355776 -0.00260974)
(0.00327027 0.000286112 -0.00320618)
(0.0031709 0.00084964 -0.00320618)
(0.00297519 0.00138735 -0.00320618)
(0.00268908 0.00188291 -0.00320618)
(0.00232126 0.00232126 -0.00320618)
(0.00188291 0.00268908 -0.00320618)
(0.00138735 0.00297519 -0.00320618)
(0.00084964 0.0031709 -0.00320618)
(0.000286112 0.00327027 -0.00320618)
(-0.000286112 0.00327027 -0.00320618)
(-0.00084964 0.0031709 -0.00320618)
(-0.00138735 0.00297519 -0.00320618)
(-0.00188291 0.00268908 -0.00320618)
(-0.00232126 0.00232126 -0.00320618)
(-0.00268908 0.00188291 -0.00320618)
(-0.00297519 0.00138735 -0.00320618)
(-0.0031709 0.00084964 -0.00320618)
(-0.00327027 0.000286112 -0.00320618)
(-0.00327027 -0.000286112 -0.00320618)
(-0.0031709 -0.00084964 -0.00320618)
(-0.00297519 -0.00138735 -0.00320618)
(-0.00268908 -0.00188291 -0.00320618)
(-0.00232126 -0.00232126 -0.00320618)
(-0.00188291 -0.00268908 -0.00320618)
(-0.00138735 -0.00297519 -0.00320618)
(-0.00084964 -0.0031709 -0.00320618)
(-0.000286112 -0.00327027 -0.00320618)
(0.000286112 -0.00327027 -0.00320618)
(0.00084964 -0.0031709 -0.00320618)
(0.00138735 -0.00297519 -0.00320618)
(0.00188291 -0.00268908 -0.00320618)
(0.00232126 -0.00232126 -0.00320618)
(0.00268908 -0.00188291 -0.00320618)
(0.00297519 -0.00138735 -0.00320618)
(0.0031709 -0.00084964 -0.00320618)
(0.00327027 -0.000286112 -0.00320618)
(0.00371779 0.000325265 -0.00327415)
(0.00360482 0.000965911 -0.00327415)
(0.00338233 0.00157721 -0.00327415)
(0.00305707 0.00214058 -0.00327415)
(0.00263892 0.00263892 -0.00327415)
(0.00214058 0.00305707 -0.00327415)
(0.00157721 0.00338233 -0.00327415)
(0.000965911 0.00360482 -0.00327415)
(0.000325265 0.00371779 -0.00327415)
(-0.000325265 0.00371779 -0.00327415)
(-0.000965911 0.00360482 -0.00327415)
(-0.00157721 0.00338233 -0.00327415)
(-0.00214058 0.00305707 -0.00327415)
(-0.00263892 0.00263892 -0.00327415)
(-0.00305707 0.00214058 -0.00327415)
(-0.00338233 0.00157721 -0.00327415)
(-0.00360482 0.000965911 -0.00327415)
(-0.00371779 0.000325265 -0.00327415)
(-0.00371779 -0.000325265 -0.00327415)
(-0.00360482 -0.000965911 -0.00327415)
(-0.00338233 -0.00157721 -0.00327415)
(-0.00305707 -0.00214058 -0.00327415)
(-0.00263892 -0.00263892 -0.00327415)
(-0.00214058 -0.00305707 -0.00327415)
(-0.00157721 -0.00338233 -0.00327415)
(-0.000965911 -0.00360482 -0.00327415)
(-0.000325265 -0.00371779 -0.00327415)
(0.000325265 -0.00371779 -0.00327415)
(0.000965911 -0.00360482 -0.00327415)
(0.00157721 -0.00338233 -0.00327415)
(0.00214058 -0.00305707 -0.00327415)
(0.00263892 -0.00263892 -0.00327415)
(0.00305707 -0.00214058 -0.00327415)
(0.00338233 -0.00157721 -0.00327415)
(0.00360482 -0.000965911 -0.00327415)
(0.00371779 -0.000325265 -0.00327415)
(0.00423607 0.000370608 -0.00334271)
(0.00410736 0.00110056 -0.00334271)
(0.00385385 0.00179708 -0.00334271)
(0.00348324 0.00243899 -0.00334271)
(0.0030068 0.0030068 -0.00334271)
(0.00243899 0.00348324 -0.00334271)
(0.00179708 0.00385385 -0.00334271)
(0.00110056 0.00410736 -0.00334271)
(0.000370608 0.00423607 -0.00334271)
(-0.000370608 0.00423607 -0.00334271)
(-0.00110056 0.00410736 -0.00334271)
(-0.00179708 0.00385385 -0.00334271)
(-0.00243899 0.00348324 -0.00334271)
(-0.0030068 0.0030068 -0.00334271)
(-0.00348324 0.00243899 -0.00334271)
(-0.00385385 0.00179708 -0.00334271)
(-0.00410736 0.00110056 -0.00334271)
(-0.00423607 0.000370608 -0.00334271)
(-0.00423607 -0.000370608 -0.00334271)
(-0.00410736 -0.00110056 -0.00334271)
(-0.00385385 -0.00179708 -0.00334271)
(-0.00348324 -0.00243899 -0.00334271)
(-0.0030068 -0.0030068 -0.00334271)
(-0.00243899 -0.00348324 -0.00334271)
(-0.00179708 -0.00385385 -0.00334271)
(-0.00110056 -0.00410736 -0.00334271)
(-0.000370608 -0.00423607 -0.00334271)
(0.000370608 -0.00423607 -0.00334271)
(0.00110056 -0.00410736 -0.00334271)
(0.00179708 -0.00385385 -0.00334271)
(0.00243899 -0.00348324 -0.00334271)
(0.0030068 -0.0030068 -0.00334271)
(0.00348324 -0.00243899 -0.00334271)
(0.00385385 -0.00179708 -0.00334271)
(0.00410736 -0.00110056 -0.00334271)
(0.00423607 -0.000370608 -0.00334271)
(0.00323236 0.000282794 -0.00385826)
(0.00313414 0.000839791 -0.00385826)
(0.0029407 0.00137127 -0.00385826)
(0.00265791 0.00186109 -0.00385827)
(0.00229435 0.00229435 -0.00385826)
(0.00186109 0.00265791 -0.00385827)
(0.00137127 0.0029407 -0.00385826)
(0.000839791 0.00313414 -0.00385826)
(0.000282794 0.00323236 -0.00385826)
(-0.000282794 0.00323236 -0.00385826)
(-0.000839791 0.00313414 -0.00385826)
(-0.00137127 0.0029407 -0.00385826)
(-0.00186109 0.00265791 -0.00385827)
(-0.00229435 0.00229435 -0.00385826)
(-0.00265791 0.00186109 -0.00385827)
(-0.0029407 0.00137127 -0.00385826)
(-0.00313414 0.000839791 -0.00385826)
(-0.00323236 0.000282794 -0.00385826)
(-0.00323236 -0.000282794 -0.00385826)
(-0.00313414 -0.000839791 -0.00385826)
(-0.0029407 -0.00137127 -0.00385826)
(-0.00265791 -0.00186109 -0.00385827)
(-0.00229435 -0.00229435 -0.00385826)
(-0.00186109 -0.00265791 -0.00385827)
(-0.00137127 -0.0029407 -0.00385826)
(-0.000839791 -0.00313414 -0.00385826)
(-0.000282794 -0.00323236 -0.00385826)
(0.000282794 -0.00323236 -0.00385826)
(0.000839791 -0.00313414 -0.00385826)
(0.00137127 -0.0029407 -0.00385826)
(0.00186109 -0.00265791 -0.00385827)
(0.00229435 -0.00229435 -0.00385826)
(0.00265791 -0.00186109 -0.00385827)
(0.0029407 -0.00137127 -0.00385826)
(0.00313414 -0.000839791 -0.00385826)
(0.00323236 -0.000282794 -0.00385826)
(0.00367508 0.000321528 -0.00394832)
(0.00356341 0.000954814 -0.00394832)
(0.00334347 0.00155909 -0.00394832)
(0.00302195 0.00211599 -0.00394832)
(0.0026086 0.0026086 -0.00394832)
(0.00211599 0.00302195 -0.00394832)
(0.00155909 0.00334347 -0.00394832)
(0.000954814 0.00356341 -0.00394832)
(0.000321528 0.00367508 -0.00394832)
(-0.000321528 0.00367508 -0.00394832)
(-0.000954814 0.00356341 -0.00394832)
(-0.00155909 0.00334347 -0.00394832)
(-0.00211599 0.00302195 -0.00394832)
(-0.0026086 0.0026086 -0.00394832)
(-0.00302195 0.00211599 -0.00394832)
(-0.00334347 0.00155909 -0.00394832)
(-0.00356341 0.000954814 -0.00394832)
(-0.00367508 0.000321528 -0.00394832)
(-0.00367508 -0.000321528 -0.00394832)
(-0.00356341 -0.000954814 -0.00394832)
(-0.00334347 -0.00155909 -0.00394832)
(-0.00302195 -0.00211599 -0.00394832)
(-0.0026086 -0.0026086 -0.00394832)
(-0.00211599 -0.00302195 -0.00394832)
(-0.00155909 -0.00334347 -0.00394832)
(-0.000954814 -0.00356341 -0.00394832)
(-0.000321528 -0.00367508 -0.00394832)
(0.000321528 -0.00367508 -0.00394832)
(0.000954814 -0.00356341 -0.00394832)
(0.00155909 -0.00334347 -0.00394832)
(0.00211599 -0.00302195 -0.00394832)
(0.0026086 -0.0026086 -0.00394832)
(0.00302195 -0.00211599 -0.00394832)
(0.00334347 -0.00155909 -0.00394832)
(0.00356341 -0.000954814 -0.00394832)
(0.00367508 -0.000321528 -0.00394832)
(0.00419108 0.000366673 -0.00404755)
(0.00406373 0.00108888 -0.00404755)
(0.00381292 0.00177799 -0.00404755)
(0.00344624 0.00241309 -0.00404755)
(0.00297486 0.00297486 -0.00404755)
(0.00241309 0.00344624 -0.00404755)
(0.00177799 0.00381292 -0.00404755)
(0.00108888 0.00406373 -0.00404755)
(0.000366673 0.00419108 -0.00404755)
(-0.000366673 0.00419108 -0.00404755)
(-0.00108888 0.00406373 -0.00404755)
(-0.00177799 0.00381292 -0.00404755)
(-0.00241309 0.00344624 -0.00404755)
(-0.00297486 0.00297486 -0.00404755)
(-0.00344624 0.00241309 -0.00404755)
(-0.00381292 0.00177799 -0.00404755)
(-0.00406373 0.00108888 -0.00404755)
(-0.00419108 0.000366673 -0.00404755)
(-0.00419108 -0.000366673 -0.00404755)
(-0.00406373 -0.00108888 -0.00404755)
(-0.00381292 -0.00177799 -0.00404755)
(-0.00344624 -0.00241309 -0.00404755)
(-0.00297486 -0.00297486 -0.00404755)
(-0.00241309 -0.00344624 -0.00404755)
(-0.00177799 -0.00381292 -0.00404755)
(-0.00108888 -0.00406373 -0.00404755)
(-0.000366673 -0.00419108 -0.00404755)
(0.000366673 -0.00419108 -0.00404755)
(0.00108888 -0.00406373 -0.00404755)
(0.00177799 -0.00381292 -0.00404755)
(0.00241309 -0.00344624 -0.00404755)
(0.00297486 -0.00297486 -0.00404755)
(0.00344624 -0.00241309 -0.00404755)
(0.00381292 -0.00177799 -0.00404755)
(0.00406373 -0.00108888 -0.00404755)
(0.00419108 -0.000366673 -0.00404755)
(0.00303721 0.000265721 -0.00445732)
(0.00294493 0.000789091 -0.00445732)
(0.00276316 0.00128849 -0.00445732)
(0.00249744 0.00174873 -0.00445732)
(0.00215584 0.00215584 -0.00445732)
(0.00174873 0.00249744 -0.00445732)
(0.00128849 0.00276316 -0.00445732)
(0.000789091 0.00294493 -0.00445732)
(0.000265721 0.00303721 -0.00445732)
(-0.000265721 0.00303721 -0.00445732)
(-0.000789091 0.00294493 -0.00445732)
(-0.00128849 0.00276316 -0.00445732)
(-0.00174873 0.00249744 -0.00445732)
(-0.00215584 0.00215584 -0.00445732)