/*--------------------------------*- C++ -*----------------------------------*\
| =========                 |                                                 |
| \\      /  F ield         | OpenFOAM: The Open Source CFD Toolbox           |
|  \\    /   O peration     | Version:  2312                                  |
|   \\  /    A nd           | Website:  www.openfoam.com                      |
|    \\/     M anipulation  |                                                 |
\*---------------------------------------------------------------------------*/
FoamFile
{
    version     2.0;
    format      ascii;
    arch        "LSB;label=32;scalar=64";
    class       volVectorField;
    location    "0.8";
    object      D_0_0;
}
// * * * * * * * * * * * * * * * * * * * * * * * * * * * * * * * * * * * * * //

dimensions      [0 1 0 0 0 0 0];

internalField   nonuniform List<vector> 
1620
(
(0.000360678 3.15553e-05 -0.000217248)
(0.000349719 9.37068e-05 -0.000217248)
(0.000328134 0.000153011 -0.000217248)
(0.000296579 0.000207666 -0.000217249)
(0.000256012 0.000256012 -0.000217249)
(0.000207666 0.000296579 -0.000217249)
(0.000153011 0.000328134 -0.000217248)
(9.37068e-05 0.000349719 -0.000217248)
(3.15553e-05 0.000360678 -0.000217248)
(-3.15553e-05 0.000360678 -0.000217248)
(-9.37068e-05 0.000349719 -0.000217248)
(-0.000153011 0.000328134 -0.000217248)
(-0.000207666 0.000296579 -0.000217249)
(-0.000256012 0.000256012 -0.000217249)
(-0.000296579 0.000207666 -0.000217249)
(-0.000328134 0.000153011 -0.000217248)
(-0.000349719 9.37068e-05 -0.000217248)
(-0.000360678 3.15553e-05 -0.000217248)
(-0.000360678 -3.15553e-05 -0.000217248)
(-0.000349719 -9.37068e-05 -0.000217248)
(-0.000328134 -0.000153011 -0.000217248)
(-0.000296579 -0.000207666 -0.000217249)
(-0.000256012 -0.000256012 -0.000217249)
(-0.000207666 -0.000296579 -0.000217249)
(-0.000153011 -0.000328134 -0.000217248)
(-9.37068e-05 -0.000349719 -0.000217248)
(-3.15553e-05 -0.000360678 -0.000217248)
(3.15553e-05 -0.000360678 -0.000217248)
(9.37068e-05 -0.000349719 -0.000217248)
(0.000153011 -0.000328134 -0.000217248)
(0.000207666 -0.000296579 -0.000217249)
(0.000256012 -0.000256012 -0.000217249)
(0.000296579 -0.000207666 -0.000217249)
(0.000328134 -0.000153011 -0.000217248)
(0.000349719 -9.37068e-05 -0.000217248)
(0.000360678 -3.15553e-05 -0.000217248)
(0.000542306 4.74454e-05 -0.000186489)
(0.000525828 0.000140895 -0.000186489)
(0.000493373 0.000230063 -0.000186489)
(0.000445927 0.000312241 -0.000186489)
(0.000384932 0.000384932 -0.000186489)
(0.000312241 0.000445927 -0.000186489)
(0.000230063 0.000493373 -0.000186489)
(0.000140895 0.000525828 -0.000186489)
(4.74454e-05 0.000542306 -0.000186489)
(-4.74454e-05 0.000542306 -0.000186489)
(-0.000140895 0.000525828 -0.000186489)
(-0.000230063 0.000493373 -0.000186489)
(-0.000312241 0.000445927 -0.000186489)
(-0.000384932 0.000384932 -0.000186489)
(-0.000445927 0.000312241 -0.000186489)
(-0.000493373 0.000230063 -0.000186489)
(-0.000525828 0.000140895 -0.000186489)
(-0.000542306 4.74454e-05 -0.000186489)
(-0.000542306 -4.74454e-05 -0.000186489)
(-0.000525828 -0.000140895 -0.000186489)
(-0.000493373 -0.000230063 -0.000186489)
(-0.000445927 -0.000312241 -0.000186489)
(-0.000384932 -0.000384932 -0.000186489)
(-0.000312241 -0.000445927 -0.000186489)
(-0.000230063 -0.000493373 -0.000186489)
(-0.000140895 -0.000525828 -0.000186489)
(-4.74454e-05 -0.000542306 -0.000186489)
(4.74454e-05 -0.000542306 -0.000186489)
(0.000140895 -0.000525828 -0.000186489)
(0.000230063 -0.000493373 -0.000186489)
(0.000312241 -0.000445927 -0.000186489)
(0.000384932 -0.000384932 -0.000186489)
(0.000445927 -0.000312241 -0.000186489)
(0.000493373 -0.000230063 -0.000186489)
(0.000525828 -0.000140895 -0.000186489)
(0.000542306 -4.74454e-05 -0.000186489)
(0.000759379 6.64368e-05 -0.000136147)
(0.000736306 0.000197292 -0.000136148)
(0.000690861 0.000322153 -0.000136148)
(0.000624423 0.000437226 -0.000136148)
(0.000539014 0.000539014 -0.000136148)
(0.000437226 0.000624423 -0.000136148)
(0.000322153 0.000690861 -0.000136148)
(0.000197292 0.000736306 -0.000136148)
(6.64368e-05 0.000759379 -0.000136147)
(-6.64368e-05 0.000759379 -0.000136147)
(-0.000197292 0.000736306 -0.000136148)
(-0.000322153 0.000690861 -0.000136148)
(-0.000437226 0.000624423 -0.000136148)
(-0.000539014 0.000539014 -0.000136148)
(-0.000624423 0.000437226 -0.000136148)
(-0.000690861 0.000322153 -0.000136148)
(-0.000736306 0.000197292 -0.000136148)
(-0.000759379 6.64368e-05 -0.000136147)
(-0.000759379 -6.64368e-05 -0.000136147)
(-0.000736306 -0.000197292 -0.000136148)
(-0.000690861 -0.000322153 -0.000136148)
(-0.000624423 -0.000437226 -0.000136148)
(-0.000539014 -0.000539014 -0.000136148)
(-0.000437226 -0.000624423 -0.000136148)
(-0.000322153 -0.000690861 -0.000136148)
(-0.000197292 -0.000736306 -0.000136148)
(-6.64368e-05 -0.000759379 -0.000136147)
(6.64368e-05 -0.000759379 -0.000136147)
(0.000197292 -0.000736306 -0.000136148)
(0.000322153 -0.000690861 -0.000136148)
(0.000437226 -0.000624423 -0.000136148)
(0.000539014 -0.000539014 -0.000136148)
(0.000624423 -0.000437226 -0.000136148)
(0.000690861 -0.000322153 -0.000136148)
(0.000736306 -0.000197292 -0.000136148)
(0.000759379 -6.64368e-05 -0.000136147)
(0.00127859 0.000111862 -0.000632434)
(0.00123974 0.000332187 -0.000632434)
(0.00116322 0.000542418 -0.000632435)
(0.00105136 0.000736167 -0.000632435)
(0.000907549 0.000907549 -0.000632435)
(0.000736167 0.00105136 -0.000632435)
(0.000542418 0.00116322 -0.000632435)
(0.000332187 0.00123974 -0.000632434)
(0.000111862 0.00127859 -0.000632434)
(-0.000111862 0.00127859 -0.000632434)
(-0.000332187 0.00123974 -0.000632434)
(-0.000542418 0.00116322 -0.000632435)
(-0.000736167 0.00105136 -0.000632435)
(-0.000907549 0.000907549 -0.000632435)
(-0.00105136 0.000736167 -0.000632435)
(-0.00116322 0.000542418 -0.000632435)
(-0.00123974 0.000332187 -0.000632434)
(-0.00127859 0.000111862 -0.000632434)
(-0.00127859 -0.000111862 -0.000632434)
(-0.00123974 -0.000332187 -0.000632434)
(-0.00116322 -0.000542418 -0.000632435)
(-0.00105136 -0.000736167 -0.000632435)
(-0.000907549 -0.000907549 -0.000632435)
(-0.000736167 -0.00105136 -0.000632435)
(-0.000542418 -0.00116322 -0.000632435)
(-0.000332187 -0.00123974 -0.000632434)
(-0.000111862 -0.00127859 -0.000632434)
(0.000111862 -0.00127859 -0.000632434)
(0.000332187 -0.00123974 -0.000632434)
(0.000542418 -0.00116322 -0.000632435)
(0.000736167 -0.00105136 -0.000632435)
(0.000907549 -0.000907549 -0.000632435)
(0.00105136 -0.000736167 -0.000632435)
(0.00116322 -0.000542418 -0.000632435)
(0.00123974 -0.000332187 -0.000632434)
(0.00127859 -0.000111862 -0.000632434)
(0.00157901 0.000138145 -0.000631289)
(0.00153103 0.000410237 -0.000631289)
(0.00143653 0.000669865 -0.00063129)
(0.00129839 0.000909139 -0.00063129)
(0.00112079 0.00112079 -0.00063129)
(0.000909139 0.00129839 -0.00063129)
(0.000669865 0.00143653 -0.00063129)
(0.000410237 0.00153103 -0.000631289)
(0.000138145 0.00157901 -0.000631289)
(-0.000138145 0.00157901 -0.000631289)
(-0.000410237 0.00153103 -0.000631289)
(-0.000669865 0.00143653 -0.00063129)
(-0.000909139 0.00129839 -0.00063129)
(-0.00112079 0.00112079 -0.00063129)
(-0.00129839 0.000909139 -0.00063129)
(-0.00143653 0.000669865 -0.00063129)
(-0.00153103 0.000410237 -0.000631289)
(-0.00157901 0.000138145 -0.000631289)
(-0.00157901 -0.000138145 -0.000631289)
(-0.00153103 -0.000410237 -0.000631289)
(-0.00143653 -0.000669865 -0.00063129)
(-0.00129839 -0.000909139 -0.00063129)
(-0.00112079 -0.00112079 -0.00063129)
(-0.000909139 -0.00129839 -0.00063129)
(-0.000669865 -0.00143653 -0.00063129)
(-0.000410237 -0.00153103 -0.000631289)
(-0.000138145 -0.00157901 -0.000631289)
(0.000138145 -0.00157901 -0.000631289)
(0.000410237 -0.00153103 -0.000631289)
(0.000669865 -0.00143653 -0.00063129)
(0.000909139 -0.00129839 -0.00063129)
(0.00112079 -0.00112079 -0.00063129)
(0.00129839 -0.000909139 -0.00063129)
(0.00143653 -0.000669865 -0.00063129)
(0.00153103 -0.000410237 -0.000631289)
(0.00157901 -0.000138145 -0.000631289)
(0.00193015 0.000168866 -0.000606629)
(0.0018715 0.000501466 -0.000606629)
(0.00175599 0.000818829 -0.000606629)
(0.00158712 0.00111131 -0.000606628)
(0.00137003 0.00137003 -0.000606628)
(0.00111131 0.00158712 -0.000606628)
(0.000818829 0.00175599 -0.000606629)
(0.000501466 0.0018715 -0.000606629)
(0.000168866 0.00193015 -0.000606629)
(-0.000168866 0.00193015 -0.000606629)
(-0.000501466 0.0018715 -0.000606629)
(-0.000818829 0.00175599 -0.000606629)
(-0.00111131 0.00158712 -0.000606628)
(-0.00137003 0.00137003 -0.000606628)
(-0.00158712 0.00111131 -0.000606628)
(-0.00175599 0.000818829 -0.000606629)
(-0.0018715 0.000501466 -0.000606629)
(-0.00193015 0.000168866 -0.000606629)
(-0.00193015 -0.000168866 -0.000606629)
(-0.0018715 -0.000501466 -0.000606629)
(-0.00175599 -0.000818829 -0.000606629)
(-0.00158712 -0.00111131 -0.000606628)
(-0.00137003 -0.00137003 -0.000606628)
(-0.00111131 -0.00158712 -0.000606628)
(-0.000818829 -0.00175599 -0.000606629)
(-0.000501466 -0.0018715 -0.000606629)
(-0.000168866 -0.00193015 -0.000606629)
(0.000168866 -0.00193015 -0.000606629)
(0.000501466 -0.0018715 -0.000606629)
(0.000818829 -0.00175599 -0.000606629)
(0.00111131 -0.00158712 -0.000606628)
(0.00137003 -0.00137003 -0.000606628)
(0.00158712 -0.00111131 -0.000606628)
(0.00175599 -0.000818829 -0.000606629)
(0.0018715 -0.000501466 -0.000606629)
(0.00193015 -0.000168866 -0.000606629)
(0.00209089 0.000182929 -0.00118427)
(0.00202736 0.000543229 -0.00118427)
(0.00190223 0.000887024 -0.00118428)
(0.0017193 0.00120387 -0.00118428)
(0.00148413 0.00148413 -0.00118428)
(0.00120387 0.0017193 -0.00118428)
(0.000887024 0.00190223 -0.00118428)
(0.000543229 0.00202736 -0.00118427)
(0.000182929 0.00209089 -0.00118427)
(-0.000182929 0.00209089 -0.00118427)
(-0.000543229 0.00202736 -0.00118427)
(-0.000887024 0.00190223 -0.00118428)
(-0.00120387 0.0017193 -0.00118428)
(-0.00148413 0.00148413 -0.00118428)
(-0.0017193 0.00120387 -0.00118428)
(-0.00190223 0.000887024 -0.00118428)
(-0.00202736 0.000543229 -0.00118427)
(-0.00209089 0.000182929 -0.00118427)
(-0.00209089 -0.000182929 -0.00118427)
(-0.00202736 -0.000543229 -0.00118427)
(-0.00190223 -0.000887024 -0.00118428)
(-0.0017193 -0.00120387 -0.00118428)
(-0.00148413 -0.00148413 -0.00118428)
(-0.00120387 -0.0017193 -0.00118428)
(-0.000887024 -0.00190223 -0.00118428)
(-0.000543229 -0.00202736 -0.00118427)
(-0.000182929 -0.00209089 -0.00118427)
(0.000182929 -0.00209089 -0.00118427)
(0.000543229 -0.00202736 -0.00118427)
(0.000887024 -0.00190223 -0.00118428)
(0.00120387 -0.0017193 -0.00118428)
(0.00148413 -0.00148413 -0.00118428)
(0.0017193 -0.00120387 -0.00118428)
(0.00190223 -0.000887024 -0.00118428)
(0.00202736 -0.000543229 -0.00118427)
(0.00209089 -0.000182929 -0.00118427)
(0.00246891 0.000216002 -0.0011987)
(0.0023939 0.000641441 -0.0011987)
(0.00224614 0.00104739 -0.0011987)
(0.00203014 0.00142152 -0.0011987)
(0.00175245 0.00175245 -0.0011987)
(0.00142152 0.00203014 -0.0011987)
(0.00104739 0.00224614 -0.0011987)
(0.000641441 0.0023939 -0.0011987)
(0.000216002 0.00246891 -0.0011987)
(-0.000216002 0.00246891 -0.0011987)
(-0.000641441 0.0023939 -0.0011987)
(-0.00104739 0.00224614 -0.0011987)
(-0.00142152 0.00203014 -0.0011987)
(-0.00175245 0.00175245 -0.0011987)
(-0.00203014 0.00142152 -0.0011987)
(-0.00224614 0.00104739 -0.0011987)
(-0.0023939 0.000641441 -0.0011987)
(-0.00246891 0.000216002 -0.0011987)
(-0.00246891 -0.000216002 -0.0011987)
(-0.0023939 -0.000641441 -0.0011987)
(-0.00224614 -0.00104739 -0.0011987)
(-0.00203014 -0.00142152 -0.0011987)
(-0.00175245 -0.00175245 -0.0011987)
(-0.00142152 -0.00203014 -0.0011987)
(-0.00104739 -0.00224614 -0.0011987)
(-0.000641441 -0.0023939 -0.0011987)
(-0.000216002 -0.00246891 -0.0011987)
(0.000216002 -0.00246891 -0.0011987)
(0.000641441 -0.0023939 -0.0011987)
(0.00104739 -0.00224614 -0.0011987)
(0.00142152 -0.00203014 -0.0011987)
(0.00175245 -0.00175245 -0.0011987)
(0.00203014 -0.00142152 -0.0011987)
(0.00224614 -0.00104739 -0.0011987)
(0.0023939 -0.000641441 -0.0011987)
(0.00246891 -0.000216002 -0.0011987)
(0.00290432 0.000254095 -0.00119176)
(0.00281607 0.000754565 -0.00119176)
(0.00264226 0.00123211 -0.00119176)
(0.00238817 0.00167221 -0.00119176)
(0.00206151 0.00206151 -0.00119176)
(0.00167221 0.00238817 -0.00119176)
(0.00123211 0.00264226 -0.00119176)
(0.000754565 0.00281607 -0.00119176)
(0.000254095 0.00290432 -0.00119176)
(-0.000254095 0.00290432 -0.00119176)
(-0.000754565 0.00281607 -0.00119176)
(-0.00123211 0.00264226 -0.00119176)
(-0.00167221 0.00238817 -0.00119176)
(-0.00206151 0.00206151 -0.00119176)
(-0.00238817 0.00167221 -0.00119176)
(-0.00264226 0.00123211 -0.00119176)
(-0.00281607 0.000754565 -0.00119176)
(-0.00290432 0.000254095 -0.00119176)
(-0.00290432 -0.000254095 -0.00119176)
(-0.00281607 -0.000754565 -0.00119176)
(-0.00264226 -0.00123211 -0.00119176)
(-0.00238817 -0.00167221 -0.00119176)
(-0.00206151 -0.00206151 -0.00119176)
(-0.00167221 -0.00238817 -0.00119176)
(-0.00123211 -0.00264226 -0.00119176)
(-0.000754565 -0.00281607 -0.00119176)
(-0.000254095 -0.00290432 -0.00119176)
(0.000254095 -0.00290432 -0.00119176)
(0.000754565 -0.00281607 -0.00119176)
(0.00123211 -0.00264226 -0.00119176)
(0.00167221 -0.00238817 -0.00119176)
(0.00206151 -0.00206151 -0.00119176)
(0.00238817 -0.00167221 -0.00119176)
(0.00264226 -0.00123211 -0.00119176)
(0.00281607 -0.000754565 -0.00119176)
(0.00290432 -0.000254095 -0.00119176)
(0.0027055 0.0002367 -0.00182186)
(0.00262329 0.000702909 -0.00182186)
(0.00246138 0.00114776 -0.00182186)
(0.00222468 0.00155774 -0.00182186)
(0.00192038 0.00192038 -0.00182186)
(0.00155774 0.00222468 -0.00182186)
(0.00114776 0.00246138 -0.00182186)
(0.000702909 0.00262329 -0.00182186)
(0.0002367 0.0027055 -0.00182186)
(-0.0002367 0.0027055 -0.00182186)
(-0.000702909 0.00262329 -0.00182186)
(-0.00114776 0.00246138 -0.00182186)
(-0.00155774 0.00222468 -0.00182186)
(-0.00192038 0.00192038 -0.00182186)
(-0.00222468 0.00155774 -0.00182186)
(-0.00246138 0.00114776 -0.00182186)
(-0.00262329 0.000702909 -0.00182186)
(-0.0027055 0.0002367 -0.00182186)
(-0.0027055 -0.0002367 -0.00182186)
(-0.00262329 -0.000702909 -0.00182186)
(-0.00246138 -0.00114776 -0.00182186)
(-0.00222468 -0.00155774 -0.00182186)
(-0.00192038 -0.00192038 -0.00182186)
(-0.00155774 -0.00222468 -0.00182186)
(-0.00114776 -0.00246138 -0.00182186)
(-0.000702909 -0.00262329 -0.00182186)
(-0.0002367 -0.0027055 -0.00182186)
(0.0002367 -0.0027055 -0.00182186)
(0.000702909 -0.00262329 -0.00182186)
(0.00114776 -0.00246138 -0.00182186)
(0.00155774 -0.00222468 -0.00182186)
(0.00192038 -0.00192038 -0.00182186)
(0.00222468 -0.00155774 -0.00182186)
(0.00246138 -0.00114776 -0.00182186)
(0.00262329 -0.000702909 -0.00182186)
(0.0027055 -0.0002367 -0.00182186)
(0.00312573 0.000273466 -0.00185034)
(0.00303076 0.000812089 -0.00185034)
(0.0028437 0.00132604 -0.00185034)
(0.00257023 0.00179969 -0.00185034)
(0.00221867 0.00221867 -0.00185034)
(0.00179969 0.00257023 -0.00185034)
(0.00132604 0.0028437 -0.00185034)
(0.000812089 0.00303076 -0.00185034)
(0.000273466 0.00312573 -0.00185034)
(-0.000273466 0.00312573 -0.00185034)
(-0.000812089 0.00303076 -0.00185034)
(-0.00132604 0.0028437 -0.00185034)
(-0.00179969 0.00257023 -0.00185034)
(-0.00221867 0.00221867 -0.00185034)
(-0.00257023 0.00179969 -0.00185034)
(-0.0028437 0.00132604 -0.00185034)
(-0.00303076 0.000812089 -0.00185034)
(-0.00312573 0.000273466 -0.00185034)
(-0.00312573 -0.000273466 -0.00185034)
(-0.00303076 -0.000812089 -0.00185034)
(-0.0028437 -0.00132604 -0.00185034)
(-0.00257023 -0.00179969 -0.00185034)
(-0.00221867 -0.00221867 -0.00185034)
(-0.00179969 -0.00257023 -0.00185034)
(-0.00132604 -0.0028437 -0.00185034)
(-0.000812089 -0.00303076 -0.00185034)
(-0.000273466 -0.00312573 -0.00185034)
(0.000273466 -0.00312573 -0.00185034)
(0.000812089 -0.00303076 -0.00185034)
(0.00132604 -0.0028437 -0.00185034)
(0.00179969 -0.00257023 -0.00185034)
(0.00221867 -0.00221867 -0.00185034)
(0.00257023 -0.00179969 -0.00185034)
(0.0028437 -0.00132604 -0.00185034)
(0.00303076 -0.000812089 -0.00185034)
(0.00312573 -0.000273466 -0.00185034)
(0.00360917 0.000315762 -0.00186328)
(0.00349951 0.000937691 -0.00186328)
(0.00328352 0.00153113 -0.00186328)
(0.00296775 0.00207804 -0.00186328)
(0.00256182 0.00256182 -0.00186328)
(0.00207804 0.00296775 -0.00186328)
(0.00153113 0.00328352 -0.00186328)
(0.000937691 0.00349951 -0.00186328)
(0.000315762 0.00360917 -0.00186328)
(-0.000315762 0.00360917 -0.00186328)
(-0.000937691 0.00349951 -0.00186328)
(-0.00153113 0.00328352 -0.00186328)
(-0.00207804 0.00296775 -0.00186328)
(-0.00256182 0.00256182 -0.00186328)
(-0.00296775 0.00207804 -0.00186328)
(-0.00328352 0.00153113 -0.00186328)
(-0.00349951 0.000937691 -0.00186328)
(-0.00360917 0.000315762 -0.00186328)
(-0.00360917 -0.000315762 -0.00186328)
(-0.00349951 -0.000937691 -0.00186328)
(-0.00328352 -0.00153113 -0.00186328)
(-0.00296775 -0.00207804 -0.00186328)
(-0.00256182 -0.00256182 -0.00186328)
(-0.00207804 -0.00296775 -0.00186328)
(-0.00153113 -0.00328352 -0.00186328)
(-0.000937691 -0.00349951 -0.00186328)
(-0.000315762 -0.00360917 -0.00186328)
(0.000315762 -0.00360917 -0.00186328)
(0.000937691 -0.00349951 -0.00186328)
(0.00153113 -0.00328352 -0.00186328)
(0.00207804 -0.00296775 -0.00186328)
(0.00256182 -0.00256182 -0.00186328)
(0.00296775 -0.00207804 -0.00186328)
(0.00328352 -0.00153113 -0.00186328)
(0.00349951 -0.000937691 -0.00186328)
(0.00360917 -0.000315762 -0.00186328)
(0.00308665 0.000270047 -0.00249761)
(0.00299286 0.000801934 -0.00249761)
(0.00280814 0.00130946 -0.00249761)
(0.00253809 0.00177719 -0.00249761)
(0.00219092 0.00219092 -0.00249761)
(0.00177719 0.00253809 -0.00249761)
(0.00130946 0.00280814 -0.00249761)
(0.000801934 0.00299286 -0.00249761)
(0.000270047 0.00308665 -0.00249761)
(-0.000270047 0.00308665 -0.00249761)
(-0.000801934 0.00299286 -0.00249761)
(-0.00130946 0.00280814 -0.00249761)
(-0.00177719 0.00253809 -0.00249761)
(-0.00219092 0.00219092 -0.00249761)
(-0.00253809 0.00177719 -0.00249761)
(-0.00280814 0.00130946 -0.00249761)
(-0.00299286 0.000801934 -0.00249761)
(-0.00308665 0.000270047 -0.00249761)
(-0.00308665 -0.000270047 -0.00249761)
(-0.00299286 -0.000801934 -0.00249761)
(-0.00280814 -0.00130946 -0.00249761)
(-0.00253809 -0.00177719 -0.00249761)
(-0.00219092 -0.00219092 -0.00249761)
(-0.00177719 -0.00253809 -0.00249761)
(-0.00130946 -0.00280814 -0.00249761)
(-0.000801934 -0.00299286 -0.00249761)
(-0.000270047 -0.00308665 -0.00249761)
(0.000270047 -0.00308665 -0.00249761)
(0.000801934 -0.00299286 -0.00249761)
(0.00130946 -0.00280814 -0.00249761)
(0.00177719 -0.00253809 -0.00249761)
(0.00219092 -0.00219092 -0.00249761)
(0.00253809 -0.00177719 -0.00249761)
(0.00280814 -0.00130946 -0.00249761)
(0.00299286 -0.000801934 -0.00249761)
(0.00308665 -0.000270047 -0.00249761)
(0.00352668 0.000308545 -0.00254407)
(0.00341952 0.000916258 -0.00254407)
(0.00320846 0.00149613 -0.00254407)
(0.00289992 0.00203055 -0.00254407)
(0.00250326 0.00250326 -0.00254407)
(0.00203055 0.00289992 -0.00254407)
(0.00149613 0.00320846 -0.00254407)
(0.000916258 0.00341952 -0.00254407)
(0.000308545 0.00352668 -0.00254407)
(-0.000308545 0.00352668 -0.00254407)
(-0.000916258 0.00341952 -0.00254407)
(-0.00149613 0.00320846 -0.00254407)
(-0.00203055 0.00289992 -0.00254407)
(-0.00250326 0.00250326 -0.00254407)
(-0.00289992 0.00203055 -0.00254407)
(-0.00320846 0.00149613 -0.00254407)
(-0.00341952 0.000916258 -0.00254407)
(-0.00352668 0.000308545 -0.00254407)
(-0.00352668 -0.000308545 -0.00254407)
(-0.00341952 -0.000916258 -0.00254407)
(-0.00320846 -0.00149613 -0.00254407)
(-0.00289992 -0.00203055 -0.00254407)
(-0.00250326 -0.00250326 -0.00254407)
(-0.00203055 -0.00289992 -0.00254407)
(-0.00149613 -0.00320846 -0.00254407)
(-0.000916258 -0.00341952 -0.00254407)
(-0.000308545 -0.00352668 -0.00254407)
(0.000308545 -0.00352668 -0.00254407)
(0.000916258 -0.00341952 -0.00254407)
(0.00149613 -0.00320846 -0.00254407)
(0.00203055 -0.00289992 -0.00254407)
(0.00250326 -0.00250326 -0.00254407)
(0.00289992 -0.00203055 -0.00254407)
(0.00320846 -0.00149613 -0.00254407)
(0.00341952 -0.000916258 -0.00254407)
(0.00352668 -0.000308545 -0.00254407)
(0.00403452 0.000352975 -0.00258274)
(0.00391194 0.0010482 -0.00258274)
(0.00367049 0.00171158 -0.00258274)
(0.00331751 0.00232295 -0.00258274)
(0.00286374 0.00286374 -0.00258274)
(0.00232295 0.00331751 -0.00258274)
(0.00171158 0.00367049 -0.00258274)
(0.0010482 0.00391194 -0.00258274)
(0.000352975 0.00403452 -0.00258274)
(-0.000352975 0.00403452 -0.00258274)
(-0.0010482 0.00391194 -0.00258274)
(-0.00171158 0.00367049 -0.00258274)
(-0.00232295 0.00331751 -0.00258274)
(-0.00286374 0.00286374 -0.00258274)
(-0.00331751 0.00232295 -0.00258274)
(-0.00367049 0.00171158 -0.00258274)
(-0.00391194 0.0010482 -0.00258274)
(-0.00403452 0.000352975 -0.00258274)
(-0.00403452 -0.000352975 -0.00258274)
(-0.00391194 -0.0010482 -0.00258274)
(-0.00367049 -0.00171158 -0.00258274)
(-0.00331751 -0.00232295 -0.00258274)
(-0.00286374 -0.00286374 -0.00258274)
(-0.00232295 -0.00331751 -0.00258274)
(-0.00171158 -0.00367049 -0.00258274)
(-0.0010482 -0.00391194 -0.00258274)
(-0.000352975 -0.00403452 -0.00258274)
(0.000352975 -0.00403452 -0.00258274)
(0.0010482 -0.00391194 -0.00258274)
(0.00171158 -0.00367049 -0.00258274)
(0.00232295 -0.00331751 -0.00258274)
(0.00286374 -0.00286374 -0.00258274)
(0.00331751 -0.00232295 -0.00258274)
(0.00367049 -0.00171158 -0.00258274)
(0.00391194 -0.0010482 -0.00258274)
(0.00403452 -0.000352975 -0.00258274)
(0.00324355 0.000283774 -0.00317306)
(0.003145 0.0008427 -0.00317306)
(0.00295089 0.00137602 -0.00317306)
(0.00266711 0.00186753 -0.00317306)
(0.0023023 0.0023023 -0.00317306)
(0.00186753 0.00266711 -0.00317306)
(0.00137602 0.00295089 -0.00317306)
(0.0008427 0.003145 -0.00317306)
(0.000283774 0.00324355 -0.00317306)
(-0.000283774 0.00324355 -0.00317306)
(-0.0008427 0.003145 -0.00317306)
(-0.00137602 0.00295089 -0.00317306)
(-0.00186753 0.00266711 -0.00317306)
(-0.0023023 0.0023023 -0.00317306)
(-0.00266711 0.00186753 -0.00317306)
(-0.00295089 0.00137602 -0.00317306)
(-0.003145 0.0008427 -0.00317306)
(-0.00324355 0.000283774 -0.00317306)
(-0.00324355 -0.000283774 -0.00317306)
(-0.003145 -0.0008427 -0.00317306)
(-0.00295089 -0.00137602 -0.00317306)
(-0.00266711 -0.00186753 -0.00317306)
(-0.0023023 -0.0023023 -0.00317306)
(-0.00186753 -0.00266711 -0.00317306)
(-0.00137602 -0.00295089 -0.00317306)
(-0.0008427 -0.003145 -0.00317306)
(-0.000283774 -0.00324355 -0.00317306)
(0.000283774 -0.00324355 -0.00317306)
(0.0008427 -0.003145 -0.00317306)
(0.00137602 -0.00295089 -0.00317306)
(0.00186753 -0.00266711 -0.00317306)
(0.0023023 -0.0023023 -0.00317306)
(0.00266711 -0.00186753 -0.00317306)
(0.00295089 -0.00137602 -0.00317306)
(0.003145 -0.0008427 -0.00317306)
(0.00324355 -0.000283774 -0.00317306)
(0.00368861 0.000322712 -0.00324076)
(0.00357653 0.00095833 -0.00324076)
(0.00335578 0.00156483 -0.00324076)
(0.00303307 0.00212378 -0.00324076)
(0.0026182 0.0026182 -0.00324076)
(0.00212378 0.00303307 -0.00324076)
(0.00156483 0.00335578 -0.00324076)
(0.00095833 0.00357653 -0.00324076)
(0.000322712 0.00368861 -0.00324076)
(-0.000322712 0.00368861 -0.00324076)
(-0.00095833 0.00357653 -0.00324076)
(-0.00156483 0.00335578 -0.00324076)
(-0.00212378 0.00303307 -0.00324076)
(-0.0026182 0.0026182 -0.00324076)
(-0.00303307 0.00212378 -0.00324076)
(-0.00335578 0.00156483 -0.00324076)
(-0.00357653 0.00095833 -0.00324076)
(-0.00368861 0.000322712 -0.00324076)
(-0.00368861 -0.000322712 -0.00324076)
(-0.00357653 -0.00095833 -0.00324076)
(-0.00335578 -0.00156483 -0.00324076)
(-0.00303307 -0.00212378 -0.00324076)
(-0.0026182 -0.0026182 -0.00324076)
(-0.00212378 -0.00303307 -0.00324076)
(-0.00156483 -0.00335578 -0.00324076)
(-0.00095833 -0.00357653 -0.00324076)
(-0.000322712 -0.00368861 -0.00324076)
(0.000322712 -0.00368861 -0.00324076)
(0.00095833 -0.00357653 -0.00324076)
(0.00156483 -0.00335578 -0.00324076)
(0.00212378 -0.00303307 -0.00324076)
(0.0026182 -0.0026182 -0.00324076)
(0.00303307 -0.00212378 -0.00324076)
(0.00335578 -0.00156483 -0.00324076)
(0.00357653 -0.00095833 -0.00324076)
(0.00368861 -0.000322712 -0.00324076)
(0.00420467 0.000367861 -0.00330909)
(0.00407691 0.00109241 -0.00330909)
(0.00382528 0.00178376 -0.00330909)
(0.00345742 0.00242091 -0.00330909)
(0.00298451 0.00298451 -0.00330909)
(0.00242091 0.00345742 -0.00330909)
(0.00178376 0.00382528 -0.00330909)
(0.00109241 0.00407691 -0.00330909)
(0.000367861 0.00420467 -0.00330909)
(-0.000367861 0.00420467 -0.00330909)
(-0.00109241 0.00407691 -0.00330909)
(-0.00178376 0.00382528 -0.00330909)
(-0.00242091 0.00345742 -0.00330909)
(-0.00298451 0.00298451 -0.00330909)
(-0.00345742 0.00242091 -0.00330909)
(-0.00382528 0.00178376 -0.00330909)
(-0.00407691 0.00109241 -0.00330909)
(-0.00420467 0.000367861 -0.00330909)
(-0.00420467 -0.000367861 -0.00330909)
(-0.00407691 -0.00109241 -0.00330909)
(-0.00382528 -0.00178376 -0.00330909)
(-0.00345742 -0.00242091 -0.00330909)
(-0.00298451 -0.00298451 -0.00330909)
(-0.00242091 -0.00345742 -0.00330909)
(-0.00178376 -0.00382528 -0.00330909)
(-0.00109241 -0.00407691 -0.00330909)
(-0.000367861 -0.00420467 -0.00330909)
(0.000367861 -0.00420467 -0.00330909)
(0.00109241 -0.00407691 -0.00330909)
(0.00178376 -0.00382528 -0.00330909)
(0.00242091 -0.00345742 -0.00330909)
(0.00298451 -0.00298451 -0.00330909)
(0.00345742 -0.00242091 -0.00330909)
(0.00382528 -0.00178376 -0.00330909)
(0.00407691 -0.00109241 -0.00330909)
(0.00420467 -0.000367861 -0.00330909)
(0.00320705 0.00028058 -0.0038188)
(0.0031096 0.000833216 -0.0038188)
(0.00291768 0.00136054 -0.0038188)
(0.0026371 0.00184652 -0.0038188)
(0.00227639 0.00227639 -0.0038188)
(0.00184652 0.0026371 -0.0038188)
(0.00136054 0.00291768 -0.0038188)
(0.000833216 0.0031096 -0.0038188)
(0.00028058 0.00320705 -0.0038188)
(-0.00028058 0.00320705 -0.0038188)
(-0.000833216 0.0031096 -0.0038188)
(-0.00136054 0.00291768 -0.0038188)
(-0.00184652 0.0026371 -0.0038188)
(-0.00227639 0.00227639 -0.0038188)
(-0.0026371 0.00184652 -0.0038188)
(-0.00291768 0.00136054 -0.0038188)
(-0.0031096 0.000833216 -0.0038188)
(-0.00320705 0.00028058 -0.0038188)
(-0.00320705 -0.00028058 -0.0038188)
(-0.0031096 -0.000833216 -0.0038188)
(-0.00291768 -0.00136054 -0.0038188)
(-0.0026371 -0.00184652 -0.0038188)
(-0.00227639 -0.00227639 -0.0038188)
(-0.00184652 -0.0026371 -0.0038188)
(-0.00136054 -0.00291768 -0.0038188)
(-0.000833216 -0.0031096 -0.0038188)
(-0.00028058 -0.00320705 -0.0038188)
(0.00028058 -0.00320705 -0.0038188)
(0.000833216 -0.0031096 -0.0038188)
(0.00136054 -0.00291768 -0.0038188)
(0.00184652 -0.0026371 -0.0038188)
(0.00227639 -0.00227639 -0.0038188)
(0.0026371 -0.00184652 -0.0038188)
(0.00291768 -0.00136054 -0.0038188)
(0.0031096 -0.000833216 -0.0038188)
(0.00320705 -0.00028058 -0.0038188)
(0.00364732 0.0003191 -0.00390865)
(0.0035365 0.000947604 -0.00390865)
(0.00331823 0.00154731 -0.00390865)
(0.00299913 0.00210001 -0.00390865)
(0.0025889 0.0025889 -0.00390865)
(0.00210001 0.00299913 -0.00390865)
(0.00154731 0.00331823 -0.00390865)
(0.000947604 0.0035365 -0.00390865)
(0.0003191 0.00364732 -0.00390865)
(-0.0003191 0.00364732 -0.00390865)
(-0.000947604 0.0035365 -0.00390865)
(-0.00154731 0.00331823 -0.00390865)
(-0.00210001 0.00299913 -0.00390865)
(-0.0025889 0.0025889 -0.00390865)
(-0.00299913 0.00210001 -0.00390865)
(-0.00331823 0.00154731 -0.00390865)
(-0.0035365 0.000947604 -0.00390865)
(-0.00364732 0.0003191 -0.00390865)
(-0.00364732 -0.0003191 -0.00390865)
(-0.0035365 -0.000947604 -0.00390865)
(-0.00331823 -0.00154731 -0.00390865)
(-0.00299913 -0.00210001 -0.00390865)
(-0.0025889 -0.0025889 -0.00390865)
(-0.00210001 -0.00299913 -0.00390865)
(-0.00154731 -0.00331823 -0.00390865)
(-0.000947604 -0.0035365 -0.00390865)
(-0.0003191 -0.00364732 -0.00390865)
(0.0003191 -0.00364732 -0.00390865)
(0.000947604 -0.0035365 -0.00390865)
(0.00154731 -0.00331823 -0.00390865)
(0.00210001 -0.00299913 -0.00390865)
(0.0025889 -0.0025889 -0.00390865)
(0.00299913 -0.00210001 -0.00390865)
(0.00331823 -0.00154731 -0.00390865)
(0.0035365 -0.000947604 -0.00390865)
(0.00364732 -0.0003191 -0.00390865)
(0.00416118 0.000364057 -0.00400776)
(0.00403475 0.00108111 -0.00400776)
(0.00378572 0.00176531 -0.00400776)
(0.00342166 0.00239587 -0.00400776)
(0.00295364 0.00295364 -0.00400776)
(0.00239587 0.00342166 -0.00400776)
(0.00176531 0.00378572 -0.00400776)
(0.00108111 0.00403475 -0.00400776)
(0.000364057 0.00416118 -0.00400776)
(-0.000364057 0.00416118 -0.00400776)
(-0.00108111 0.00403475 -0.00400776)
(-0.00176531 0.00378572 -0.00400776)
(-0.00239587 0.00342166 -0.00400776)
(-0.00295364 0.00295364 -0.00400776)
(-0.00342166 0.00239587 -0.00400776)
(-0.00378572 0.00176531 -0.00400776)
(-0.00403475 0.00108111 -0.00400776)
(-0.00416118 0.000364057 -0.00400776)
(-0.00416118 -0.000364057 -0.00400776)
(-0.00403475 -0.00108111 -0.00400776)
(-0.00378572 -0.00176531 -0.00400776)
(-0.00342166 -0.00239587 -0.00400776)
(-0.00295364 -0.00295364 -0.00400776)
(-0.00239587 -0.00342166 -0.00400776)
(-0.00176531 -0.00378572 -0.00400776)
(-0.00108111 -0.00403475 -0.00400776)
(-0.000364057 -0.00416118 -0.00400776)
(0.000364057 -0.00416118 -0.00400776)
(0.00108111 -0.00403475 -0.00400776)
(0.00176531 -0.00378572 -0.00400776)
(0.00239587 -0.00342166 -0.00400776)
(0.00295364 -0.00295364 -0.00400776)
(0.00342166 -0.00239587 -0.00400776)
(0.00378572 -0.00176531 -0.00400776)
(0.00403475 -0.00108111 -0.00400776)
(0.00416118 -0.000364057 -0.00400776)
(0.00301375 0.000263669 -0.00441167)
(0.00292218 0.000782996 -0.00441167)
(0.00274182 0.00127853 -0.00441167)
(0.00247815 0.00173522 -0.00441167)
(0.00213919 0.00213919 -0.00441167)
(0.00173522 0.00247815 -0.00441167)
(0.00127853 0.00274182 -0.00441167)
(0.000782996 0.00292218 -0.00441167)
(0.000263669 0.00301375 -0.00441167)
(-0.000263669 0.00301375 -0.00441167)
(-0.000782996 0.00292218 -0.00441167)
(-0.00127853 0.00274182 -0.00441167)
(-0.00173522 0.00247815 -0.00441167)
(-0.00213919 0.00213919 -0.00441167)
(-0.00247815 0.00173522 -0.00441167)
(-0.00274182 0.00127853 -0.00441167)
(-0.00292218 0.000782996 -0.00441167)