/*--------------------------------*- C++ -*----------------------------------*\
| =========                 |                                                 |
| \\      /  F ield         | OpenFOAM: The Open Source CFD Toolbox           |
|  \\    /   O peration     | Version:  2312                                  |
|   \\  /    A nd           | Website:  www.openfoam.com                      |
|    \\/     M anipulation  |                                                 |
\*---------------------------------------------------------------------------*/
FoamFile
{
    version     2.0;
    format      ascii;
    arch        "LSB;label=32;scalar=64";
    class       volTensorField;
    location    "0.8";
    object      F;
}
// * * * * * * * * * * * * * * * * * * * * * * * * * * * * * * * * * * * * * //

dimensions      [0 0 0 0 0 0 0];

internalField   nonuniform List<tensor> 
1620
(
(0.818206 -0.0194038 -0.497135 -0.0194036 1.03829 -0.0434937 -0.0320026 -0.00279992 1.21664)
(0.831479 -0.055871 -0.482029 -0.0558707 1.02502 -0.129159 -0.0310302 -0.00831462 1.21664)
(0.856424 -0.0855994 -0.452278 -0.0855991 1.00008 -0.210901 -0.029115 -0.0135766 1.21664)
(0.890032 -0.105003 -0.408784 -0.105003 0.966468 -0.286234 -0.0263152 -0.0184262 1.21664)
(0.92825 -0.111742 -0.35287 -0.111742 0.92825 -0.35287 -0.0227158 -0.0227158 1.21664)
(0.966468 -0.105003 -0.286234 -0.105003 0.890032 -0.408784 -0.0184262 -0.0263152 1.21664)
(1.00008 -0.0855991 -0.210901 -0.0855994 0.856424 -0.452278 -0.0135766 -0.029115 1.21664)
(1.02502 -0.0558707 -0.129159 -0.055871 0.831479 -0.482029 -0.00831462 -0.0310302 1.21664)
(1.03829 -0.0194036 -0.0434937 -0.0194038 0.818206 -0.497135 -0.00279992 -0.0320026 1.21664)
(1.03829 0.0194036 0.0434937 0.0194038 0.818206 -0.497135 0.00279992 -0.0320026 1.21664)
(1.02502 0.0558707 0.129159 0.055871 0.831479 -0.482029 0.00831462 -0.0310302 1.21664)
(1.00008 0.0855991 0.210901 0.0855994 0.856424 -0.452278 0.0135766 -0.029115 1.21664)
(0.966468 0.105003 0.286234 0.105003 0.890032 -0.408784 0.0184262 -0.0263152 1.21664)
(0.92825 0.111742 0.35287 0.111742 0.92825 -0.35287 0.0227158 -0.0227158 1.21664)
(0.890032 0.105003 0.408784 0.105003 0.966468 -0.286234 0.0263152 -0.0184262 1.21664)
(0.856424 0.0855994 0.452278 0.0855991 1.00008 -0.210901 0.029115 -0.0135766 1.21664)
(0.831479 0.055871 0.482029 0.0558707 1.02502 -0.129159 0.0310302 -0.00831462 1.21664)
(0.818206 0.0194038 0.497135 0.0194036 1.03829 -0.0434937 0.0320026 -0.00279992 1.21664)
(0.818206 -0.0194038 0.497135 -0.0194036 1.03829 0.0434937 0.0320026 0.00279992 1.21664)
(0.831479 -0.055871 0.482029 -0.0558707 1.02502 0.129159 0.0310302 0.00831462 1.21664)
(0.856424 -0.0855994 0.452278 -0.0855991 1.00008 0.210901 0.029115 0.0135766 1.21664)
(0.890032 -0.105003 0.408784 -0.105003 0.966468 0.286234 0.0263152 0.0184262 1.21664)
(0.92825 -0.111742 0.35287 -0.111742 0.92825 0.35287 0.0227158 0.0227158 1.21664)
(0.966468 -0.105003 0.286234 -0.105003 0.890032 0.408784 0.0184262 0.0263152 1.21664)
(1.00008 -0.0855991 0.210901 -0.0855994 0.856424 0.452278 0.0135766 0.029115 1.21664)
(1.02502 -0.0558707 0.129159 -0.055871 0.831479 0.482029 0.00831462 0.0310302 1.21664)
(1.03829 -0.0194036 0.0434937 -0.0194038 0.818206 0.497135 0.00279992 0.0320026 1.21664)
(1.03829 0.0194036 -0.0434937 0.0194038 0.818206 0.497135 -0.00279992 0.0320026 1.21664)
(1.02502 0.0558707 -0.129159 0.055871 0.831479 0.482029 -0.00831462 0.0310302 1.21664)
(1.00008 0.0855991 -0.210901 0.0855994 0.856424 0.452278 -0.0135766 0.029115 1.21664)
(0.966468 0.105003 -0.286234 0.105003 0.890032 0.408784 -0.0184262 0.0263152 1.21664)
(0.92825 0.111742 -0.35287 0.111742 0.92825 0.35287 -0.0227158 0.0227158 1.21664)
(0.890032 0.105003 -0.408784 0.105003 0.966468 0.286234 -0.0263152 0.0184262 1.21664)
(0.856424 0.0855994 -0.452278 0.0855991 1.00008 0.210901 -0.029115 0.0135766 1.21664)
(0.831479 0.055871 -0.482029 0.0558707 1.02502 0.129159 -0.0310302 0.00831462 1.21664)
(0.818206 0.0194038 -0.497135 0.0194036 1.03829 0.0434937 -0.0320026 0.00279992 1.21664)
(0.800109 -0.0233705 -0.561615 -0.0233705 1.06519 -0.0491349 -0.0415977 -0.00363937 1.23209)
(0.816095 -0.0672931 -0.54455 -0.0672928 1.0492 -0.145912 -0.0403338 -0.0108076 1.23209)
(0.846139 -0.103099 -0.51094 -0.103099 1.01916 -0.238255 -0.0378445 -0.0176472 1.23209)
(0.886618 -0.126469 -0.461805 -0.12647 0.978681 -0.323359 -0.0342052 -0.0239507 1.23209)
(0.93265 -0.134586 -0.398638 -0.134586 0.93265 -0.398638 -0.0295265 -0.0295265 1.23209)
(0.978681 -0.12647 -0.323359 -0.126469 0.886618 -0.461805 -0.0239507 -0.0342052 1.23209)
(1.01916 -0.103099 -0.238255 -0.103099 0.846139 -0.51094 -0.0176472 -0.0378445 1.23209)
(1.0492 -0.0672928 -0.145912 -0.0672931 0.816095 -0.54455 -0.0108076 -0.0403338 1.23209)
(1.06519 -0.0233705 -0.0491349 -0.0233705 0.800109 -0.561615 -0.00363937 -0.0415977 1.23209)
(1.06519 0.0233705 0.0491349 0.0233705 0.800109 -0.561615 0.00363937 -0.0415977 1.23209)
(1.0492 0.0672928 0.145912 0.0672931 0.816095 -0.54455 0.0108076 -0.0403338 1.23209)
(1.01916 0.103099 0.238255 0.103099 0.846139 -0.51094 0.0176472 -0.0378445 1.23209)
(0.978681 0.12647 0.323359 0.126469 0.886618 -0.461805 0.0239507 -0.0342052 1.23209)
(0.93265 0.134586 0.398638 0.134586 0.93265 -0.398638 0.0295265 -0.0295265 1.23209)
(0.886618 0.126469 0.461805 0.12647 0.978681 -0.323359 0.0342052 -0.0239507 1.23209)
(0.846139 0.103099 0.51094 0.103099 1.01916 -0.238255 0.0378445 -0.0176472 1.23209)
(0.816095 0.0672931 0.54455 0.0672928 1.0492 -0.145912 0.0403338 -0.0108076 1.23209)
(0.800109 0.0233705 0.561615 0.0233705 1.06519 -0.0491349 0.0415977 -0.00363937 1.23209)
(0.800109 -0.0233705 0.561615 -0.0233705 1.06519 0.0491349 0.0415977 0.00363937 1.23209)
(0.816095 -0.0672931 0.54455 -0.0672928 1.0492 0.145912 0.0403338 0.0108076 1.23209)
(0.846139 -0.103099 0.51094 -0.103099 1.01916 0.238255 0.0378445 0.0176472 1.23209)
(0.886618 -0.126469 0.461805 -0.12647 0.978681 0.323359 0.0342052 0.0239507 1.23209)
(0.93265 -0.134586 0.398638 -0.134586 0.93265 0.398638 0.0295265 0.0295265 1.23209)
(0.978681 -0.12647 0.323359 -0.126469 0.886618 0.461805 0.0239507 0.0342052 1.23209)
(1.01916 -0.103099 0.238255 -0.103099 0.846139 0.51094 0.0176472 0.0378445 1.23209)
(1.0492 -0.0672928 0.145912 -0.0672931 0.816095 0.54455 0.0108076 0.0403338 1.23209)
(1.06519 -0.0233705 0.0491349 -0.0233705 0.800109 0.561615 0.00363937 0.0415977 1.23209)
(1.06519 0.0233705 -0.0491349 0.0233705 0.800109 0.561615 -0.00363937 0.0415977 1.23209)
(1.0492 0.0672928 -0.145912 0.0672931 0.816095 0.54455 -0.0108076 0.0403338 1.23209)
(1.01916 0.103099 -0.238255 0.103099 0.846139 0.51094 -0.0176472 0.0378445 1.23209)
(0.978681 0.12647 -0.323359 0.126469 0.886618 0.461805 -0.0239507 0.0342052 1.23209)
(0.93265 0.134586 -0.398638 0.134586 0.93265 0.398638 -0.0295265 0.0295265 1.23209)
(0.886618 0.126469 -0.461805 0.12647 0.978681 0.323359 -0.0342052 0.0239507 1.23209)
(0.846139 0.103099 -0.51094 0.103099 1.01916 0.238255 -0.0378445 0.0176472 1.23209)
(0.816095 0.0672931 -0.54455 0.0672928 1.0492 0.145912 -0.0403338 0.0108076 1.23209)
(0.800109 0.0233705 -0.561615 0.0233705 1.06519 0.0491349 -0.0415977 0.00363937 1.23209)
(0.783618 -0.0282765 -0.635363 -0.0282765 1.10435 -0.0555871 -0.0514824 -0.00450416 1.24578)
(0.802961 -0.0814191 -0.616058 -0.0814192 1.08501 -0.165072 -0.0499183 -0.0133756 1.24578)
(0.839312 -0.124742 -0.578034 -0.124742 1.04865 -0.269541 -0.0468374 -0.0218406 1.24578)
(0.888289 -0.153019 -0.522446 -0.153018 0.999677 -0.365821 -0.0423333 -0.0296421 1.24578)
(0.943983 -0.162839 -0.450985 -0.162839 0.943983 -0.450985 -0.0365428 -0.0365428 1.24578)
(0.999677 -0.153018 -0.365821 -0.153019 0.888289 -0.522446 -0.0296421 -0.0423333 1.24578)
(1.04865 -0.124742 -0.269541 -0.124742 0.839312 -0.578034 -0.0218406 -0.0468374 1.24578)
(1.08501 -0.0814192 -0.165072 -0.0814191 0.802961 -0.616058 -0.0133756 -0.0499183 1.24578)
(1.10435 -0.0282765 -0.0555871 -0.0282765 0.783618 -0.635363 -0.00450416 -0.0514824 1.24578)
(1.10435 0.0282765 0.0555871 0.0282765 0.783618 -0.635363 0.00450416 -0.0514824 1.24578)
(1.08501 0.0814192 0.165072 0.0814191 0.802961 -0.616058 0.0133756 -0.0499183 1.24578)
(1.04865 0.124742 0.269541 0.124742 0.839312 -0.578034 0.0218406 -0.0468374 1.24578)
(0.999677 0.153018 0.365821 0.153019 0.888289 -0.522446 0.0296421 -0.0423333 1.24578)
(0.943983 0.162839 0.450985 0.162839 0.943983 -0.450985 0.0365428 -0.0365428 1.24578)
(0.888289 0.153019 0.522446 0.153018 0.999677 -0.365821 0.0423333 -0.0296421 1.24578)
(0.839312 0.124742 0.578034 0.124742 1.04865 -0.269541 0.0468374 -0.0218406 1.24578)
(0.802961 0.0814191 0.616058 0.0814192 1.08501 -0.165072 0.0499183 -0.0133756 1.24578)
(0.783618 0.0282765 0.635363 0.0282765 1.10435 -0.0555871 0.0514824 -0.00450416 1.24578)
(0.783618 -0.0282765 0.635363 -0.0282765 1.10435 0.0555871 0.0514824 0.00450416 1.24578)
(0.802961 -0.0814191 0.616058 -0.0814192 1.08501 0.165072 0.0499183 0.0133756 1.24578)
(0.839312 -0.124742 0.578034 -0.124742 1.04865 0.269541 0.0468374 0.0218406 1.24578)
(0.888289 -0.153019 0.522446 -0.153018 0.999677 0.365821 0.0423333 0.0296421 1.24578)
(0.943983 -0.162839 0.450985 -0.162839 0.943983 0.450985 0.0365428 0.0365428 1.24578)
(0.999677 -0.153018 0.365821 -0.153019 0.888289 0.522446 0.0296421 0.0423333 1.24578)
(1.04865 -0.124742 0.269541 -0.124742 0.839312 0.578034 0.0218406 0.0468374 1.24578)
(1.08501 -0.0814192 0.165072 -0.0814191 0.802961 0.616058 0.0133756 0.0499183 1.24578)
(1.10435 -0.0282765 0.0555871 -0.0282765 0.783618 0.635363 0.00450416 0.0514824 1.24578)
(1.10435 0.0282765 -0.0555871 0.0282765 0.783618 0.635363 -0.00450416 0.0514824 1.24578)
(1.08501 0.0814192 -0.165072 0.0814191 0.802961 0.616058 -0.0133756 0.0499183 1.24578)
(1.04865 0.124742 -0.269541 0.124742 0.839312 0.578034 -0.0218406 0.0468374 1.24578)
(0.999677 0.153018 -0.365821 0.153019 0.888289 0.522446 -0.0296421 0.0423333 1.24578)
(0.943983 0.162839 -0.450985 0.162839 0.943983 0.450985 -0.0365428 0.0365428 1.24578)
(0.888289 0.153019 -0.522446 0.153018 0.999677 0.365821 -0.0423333 0.0296421 1.24578)
(0.839312 0.124742 -0.578034 0.124742 1.04865 0.269541 -0.0468374 0.0218406 1.24578)
(0.802961 0.0814191 -0.616058 0.0814192 1.08501 0.165072 -0.0499183 0.0133756 1.24578)
(0.783618 0.0282765 -0.635363 0.0282765 1.10435 0.0555871 -0.0514824 0.00450416 1.24578)
(0.699974 -0.0384379 -0.470695 -0.0384377 1.13596 -0.0411805 -1.99404e-05 -1.86704e-06 1.25538)
(0.726267 -0.110677 -0.456393 -0.110677 1.10966 -0.12229 -1.94713e-05 -5.5234e-06 1.25538)
(0.775681 -0.169567 -0.428224 -0.169567 1.06025 -0.199684 -1.83421e-05 -8.88843e-06 1.25538)
(0.842258 -0.208005 -0.387044 -0.208005 0.993673 -0.271011 -1.67543e-05 -1.19899e-05 1.25538)
(0.917965 -0.221354 -0.334103 -0.221354 0.917965 -0.334103 -1.466e-05 -1.466e-05 1.25538)
(0.993673 -0.208005 -0.271011 -0.208005 0.842258 -0.387044 -1.199e-05 -1.67543e-05 1.25538)
(1.06025 -0.169567 -0.199684 -0.169567 0.775681 -0.428224 -8.88843e-06 -1.83421e-05 1.25538)
(1.10966 -0.110677 -0.12229 -0.110677 0.726267 -0.456393 -5.5234e-06 -1.94713e-05 1.25538)
(1.13596 -0.0384377 -0.0411805 -0.0384379 0.699974 -0.470695 -1.86705e-06 -1.99404e-05 1.25538)
(1.13596 0.0384377 0.0411805 0.0384379 0.699974 -0.470695 1.86705e-06 -1.99404e-05 1.25538)
(1.10966 0.110677 0.12229 0.110677 0.726267 -0.456393 5.5234e-06 -1.94713e-05 1.25538)
(1.06025 0.169567 0.199684 0.169567 0.775681 -0.428224 8.88844e-06 -1.83421e-05 1.25538)
(0.993673 0.208005 0.271011 0.208005 0.842258 -0.387044 1.199e-05 -1.67543e-05 1.25538)
(0.917965 0.221354 0.334103 0.221354 0.917965 -0.334103 1.466e-05 -1.466e-05 1.25538)
(0.842258 0.208005 0.387044 0.208005 0.993673 -0.271011 1.67543e-05 -1.19899e-05 1.25538)
(0.775681 0.169567 0.428224 0.169567 1.06025 -0.199684 1.83421e-05 -8.88843e-06 1.25538)
(0.726267 0.110677 0.456393 0.110677 1.10966 -0.12229 1.94713e-05 -5.5234e-06 1.25538)
(0.699974 0.0384379 0.470695 0.0384377 1.13596 -0.0411805 1.99404e-05 -1.86704e-06 1.25538)
(0.699974 -0.0384379 0.470695 -0.0384377 1.13596 0.0411805 1.99404e-05 1.86705e-06 1.25538)
(0.726267 -0.110677 0.456393 -0.110677 1.10966 0.12229 1.94713e-05 5.52341e-06 1.25538)
(0.775681 -0.169567 0.428224 -0.169567 1.06025 0.199684 1.83421e-05 8.88844e-06 1.25538)
(0.842258 -0.208005 0.387044 -0.208005 0.993673 0.271011 1.67543e-05 1.199e-05 1.25538)
(0.917965 -0.221354 0.334103 -0.221354 0.917965 0.334103 1.466e-05 1.46601e-05 1.25538)
(0.993673 -0.208005 0.271011 -0.208005 0.842258 0.387044 1.199e-05 1.67543e-05 1.25538)
(1.06025 -0.169567 0.199684 -0.169567 0.775681 0.428224 8.88843e-06 1.83421e-05 1.25538)
(1.10966 -0.110677 0.12229 -0.110677 0.726267 0.456393 5.5234e-06 1.94713e-05 1.25538)
(1.13596 -0.0384377 0.0411805 -0.0384379 0.699974 0.470695 1.86705e-06 1.99404e-05 1.25538)
(1.13596 0.0384377 -0.0411805 0.0384379 0.699974 0.470695 -1.86705e-06 1.99404e-05 1.25538)
(1.10966 0.110677 -0.12229 0.110677 0.726267 0.456393 -5.5234e-06 1.94713e-05 1.25538)
(1.06025 0.169567 -0.199684 0.169567 0.775681 0.428224 -8.88843e-06 1.83421e-05 1.25538)
(0.993673 0.208005 -0.271011 0.208005 0.842258 0.387044 -1.199e-05 1.67543e-05 1.25538)
(0.917965 0.221354 -0.334103 0.221354 0.917965 0.334103 -1.466e-05 1.46601e-05 1.25538)
(0.842258 0.208005 -0.387044 0.208005 0.993673 0.271011 -1.67543e-05 1.199e-05 1.25538)
(0.775681 0.169567 -0.428224 0.169567 1.06025 0.199684 -1.83421e-05 8.88844e-06 1.25538)
(0.726267 0.110677 -0.456393 0.110677 1.10966 0.12229 -1.94713e-05 5.52341e-06 1.25538)
(0.699974 0.0384379 -0.470695 0.0384377 1.13596 0.0411805 -1.99404e-05 1.86705e-06 1.25538)
(0.672222 -0.0454948 -0.525997 -0.0454947 1.18825 -0.0460188 -0.0114383 -0.00100079 1.26877)
(0.703342 -0.130997 -0.510015 -0.130997 1.15713 -0.136658 -0.0110908 -0.00297196 1.26877)
(0.761829 -0.2007 -0.478536 -0.200699 1.09864 -0.223145 -0.0104064 -0.00485283 1.26877)
(0.840628 -0.246194 -0.432517 -0.246194 1.01984 -0.302851 -0.00940592 -0.00658618 1.26877)
(0.930236 -0.261994 -0.373356 -0.261994 0.930236 -0.373356 -0.0081195 -0.0081195 1.26877)
(1.01984 -0.246194 -0.302851 -0.246194 0.840628 -0.432517 -0.00658618 -0.00940592 1.26877)
(1.09864 -0.200699 -0.223145 -0.2007 0.761829 -0.478536 -0.00485283 -0.0104064 1.26877)
(1.15713 -0.130997 -0.136658 -0.130997 0.703342 -0.510015 -0.00297196 -0.0110908 1.26877)
(1.18825 -0.0454947 -0.0460188 -0.0454948 0.672222 -0.525997 -0.00100079 -0.0114383 1.26877)
(1.18825 0.0454947 0.0460188 0.0454948 0.672222 -0.525997 0.00100079 -0.0114383 1.26877)
(1.15713 0.130997 0.136658 0.130997 0.703342 -0.510015 0.00297196 -0.0110908 1.26877)
(1.09864 0.200699 0.223145 0.2007 0.761829 -0.478536 0.00485283 -0.0104064 1.26877)
(1.01984 0.246194 0.302851 0.246194 0.840628 -0.432517 0.00658618 -0.00940592 1.26877)
(0.930236 0.261994 0.373356 0.261994 0.930236 -0.373356 0.0081195 -0.0081195 1.26877)
(0.840628 0.246194 0.432517 0.246194 1.01984 -0.302851 0.00940592 -0.00658618 1.26877)
(0.761829 0.2007 0.478536 0.200699 1.09864 -0.223145 0.0104064 -0.00485283 1.26877)
(0.703342 0.130997 0.510015 0.130997 1.15713 -0.136658 0.0110908 -0.00297196 1.26877)
(0.672222 0.0454948 0.525997 0.0454947 1.18825 -0.0460188 0.0114383 -0.00100079 1.26877)
(0.672222 -0.0454948 0.525997 -0.0454947 1.18825 0.0460188 0.0114383 0.00100079 1.26877)
(0.703342 -0.130997 0.510015 -0.130997 1.15713 0.136658 0.0110908 0.00297196 1.26877)
(0.761829 -0.2007 0.478536 -0.200699 1.09864 0.223145 0.0104064 0.00485283 1.26877)
(0.840628 -0.246194 0.432517 -0.246194 1.01984 0.302851 0.00940592 0.00658618 1.26877)
(0.930236 -0.261994 0.373356 -0.261994 0.930236 0.373356 0.0081195 0.0081195 1.26877)
(1.01984 -0.246194 0.302851 -0.246194 0.840628 0.432517 0.00658618 0.00940592 1.26877)
(1.09864 -0.200699 0.223145 -0.2007 0.761829 0.478536 0.00485283 0.0104064 1.26877)
(1.15713 -0.130997 0.136658 -0.130997 0.703342 0.510015 0.00297196 0.0110908 1.26877)
(1.18825 -0.0454947 0.0460188 -0.0454948 0.672222 0.525997 0.00100079 0.0114383 1.26877)
(1.18825 0.0454947 -0.0460188 0.0454948 0.672222 0.525997 -0.00100079 0.0114383 1.26877)
(1.15713 0.130997 -0.136658 0.130997 0.703342 0.510015 -0.00297196 0.0110908 1.26877)
(1.09864 0.200699 -0.223145 0.2007 0.761829 0.478536 -0.00485283 0.0104064 1.26877)
(1.01984 0.246194 -0.302851 0.246194 0.840628 0.432517 -0.00658618 0.00940592 1.26877)
(0.930236 0.261994 -0.373356 0.261994 0.930236 0.373356 -0.0081195 0.0081195 1.26877)
(0.840628 0.246194 -0.432517 0.246194 1.01984 0.302851 -0.00940592 0.00658618 1.26877)
(0.761829 0.2007 -0.478536 0.200699 1.09864 0.223145 -0.0104064 0.00485283 1.26877)
(0.703342 0.130997 -0.510015 0.130997 1.15713 0.136658 -0.0110908 0.00297196 1.26877)
(0.672222 0.0454948 -0.525997 0.0454947 1.18825 0.0460188 -0.0114383 0.00100079 1.26877)
(0.649052 -0.0539847 -0.588626 -0.0539844 1.26137 -0.051498 -0.0227004 -0.00198609 1.28216)
(0.68598 -0.155442 -0.570741 -0.155442 1.22445 -0.152929 -0.0220108 -0.00589785 1.28216)
(0.755381 -0.238151 -0.535514 -0.238151 1.15505 -0.249714 -0.0206525 -0.00963041 1.28216)
(0.848885 -0.292136 -0.484016 -0.292136 1.06154 -0.338911 -0.0186666 -0.0130705 1.28216)
(0.955214 -0.310885 -0.417811 -0.310885 0.955214 -0.417811 -0.0161134 -0.0161134 1.28216)
(1.06154 -0.292136 -0.338911 -0.292136 0.848885 -0.484016 -0.0130705 -0.0186666 1.28216)
(1.15505 -0.238151 -0.249714 -0.238151 0.755381 -0.535514 -0.00963041 -0.0206525 1.28216)
(1.22445 -0.155442 -0.152929 -0.155442 0.68598 -0.570741 -0.00589785 -0.0220108 1.28216)
(1.26137 -0.0539844 -0.051498 -0.0539847 0.649052 -0.588626 -0.00198609 -0.0227004 1.28216)
(1.26137 0.0539844 0.051498 0.0539847 0.649052 -0.588626 0.00198609 -0.0227004 1.28216)
(1.22445 0.155442 0.152929 0.155442 0.68598 -0.570741 0.00589785 -0.0220108 1.28216)
(1.15505 0.238151 0.249714 0.238151 0.755381 -0.535514 0.00963041 -0.0206525 1.28216)
(1.06154 0.292136 0.338911 0.292136 0.848885 -0.484016 0.0130705 -0.0186666 1.28216)
(0.955214 0.310885 0.417811 0.310885 0.955214 -0.417811 0.0161134 -0.0161134 1.28216)
(0.848885 0.292136 0.484016 0.292136 1.06154 -0.338911 0.0186666 -0.0130705 1.28216)
(0.755381 0.238151 0.535514 0.238151 1.15505 -0.249714 0.0206525 -0.00963041 1.28216)
(0.68598 0.155442 0.570741 0.155442 1.22445 -0.152929 0.0220108 -0.00589785 1.28216)
(0.649052 0.0539847 0.588626 0.0539844 1.26137 -0.051498 0.0227004 -0.00198609 1.28216)
(0.649052 -0.0539847 0.588626 -0.0539844 1.26137 0.051498 0.0227004 0.00198609 1.28216)
(0.68598 -0.155442 0.570741 -0.155442 1.22445 0.152929 0.0220108 0.00589785 1.28216)
(0.755381 -0.238151 0.535514 -0.238151 1.15505 0.249714 0.0206525 0.00963041 1.28216)
(0.848885 -0.292136 0.484016 -0.292136 1.06154 0.338911 0.0186666 0.0130705 1.28216)
(0.955214 -0.310885 0.417811 -0.310885 0.955214 0.417811 0.0161134 0.0161134 1.28216)
(1.06154 -0.292136 0.338911 -0.292136 0.848885 0.484016 0.0130705 0.0186666 1.28216)
(1.15505 -0.238151 0.249714 -0.238151 0.755381 0.535514 0.00963041 0.0206525 1.28216)
(1.22445 -0.155442 0.152929 -0.155442 0.68598 0.570741 0.00589785 0.0220108 1.28216)
(1.26137 -0.0539844 0.051498 -0.0539847 0.649052 0.588626 0.00198609 0.0227004 1.28216)
(1.26137 0.0539844 -0.051498 0.0539847 0.649052 0.588626 -0.00198609 0.0227004 1.28216)
(1.22445 0.155442 -0.152929 0.155442 0.68598 0.570741 -0.00589785 0.0220108 1.28216)
(1.15505 0.238151 -0.249714 0.238151 0.755381 0.535514 -0.00963041 0.0206525 1.28216)
(1.06154 0.292136 -0.338911 0.292136 0.848885 0.484016 -0.0130705 0.0186666 1.28216)
(0.955214 0.310885 -0.417811 0.310885 0.955214 0.417811 -0.0161134 0.0161134 1.28216)
(0.848885 0.292136 -0.484016 0.292136 1.06154 0.338911 -0.0186666 0.0130705 1.28216)
(0.755381 0.238151 -0.535514 0.238151 1.15505 0.249714 -0.0206525 0.00963041 1.28216)
(0.68598 0.155442 -0.570741 0.155442 1.22445 0.152929 -0.0220108 0.00589785 1.28216)
(0.649052 0.0539847 -0.588626 0.0539844 1.26137 0.051498 -0.0227004 0.00198609 1.28216)
(0.617634 -0.0532517 -0.376457 -0.0532516 1.22164 -0.0329357 0.0221281 0.00193578 1.31433)
(0.65406 -0.153332 -0.365018 -0.153332 1.18522 -0.0978063 0.0214555 0.00574867 1.31433)
(0.722519 -0.234918 -0.342489 -0.234918 1.11676 -0.159705 0.0201313 0.00938705 1.31433)
(0.814753 -0.28817 -0.309553 -0.288169 1.02452 -0.216752 0.0181953 0.0127403 1.31433)
(0.919639 -0.306664 -0.267212 -0.306664 0.919639 -0.267212 0.0157065 0.0157065 1.31433)
(1.02452 -0.288169 -0.216752 -0.28817 0.814753 -0.309553 0.0127403 0.0181953 1.31433)
(1.11676 -0.234918 -0.159705 -0.234918 0.722519 -0.342489 0.00938705 0.0201313 1.31433)
(1.18522 -0.153332 -0.0978063 -0.153332 0.65406 -0.365018 0.00574867 0.0214555 1.31433)
(1.22164 -0.0532516 -0.0329357 -0.0532517 0.617634 -0.376457 0.00193578 0.0221281 1.31433)
(1.22164 0.0532516 0.0329357 0.0532517 0.617634 -0.376457 -0.00193578 0.0221281 1.31433)
(1.18522 0.153332 0.0978063 0.153332 0.65406 -0.365018 -0.00574867 0.0214555 1.31433)
(1.11676 0.234918 0.159705 0.234918 0.722519 -0.342489 -0.00938705 0.0201313 1.31433)
(1.02452 0.288169 0.216752 0.28817 0.814753 -0.309553 -0.0127403 0.0181953 1.31433)
(0.919639 0.306664 0.267212 0.306664 0.919639 -0.267212 -0.0157065 0.0157065 1.31433)
(0.814753 0.28817 0.309553 0.288169 1.02452 -0.216752 -0.0181953 0.0127403 1.31433)
(0.722519 0.234918 0.342489 0.234918 1.11676 -0.159705 -0.0201313 0.00938705 1.31433)
(0.65406 0.153332 0.365018 0.153332 1.18522 -0.0978063 -0.0214555 0.00574867 1.31433)
(0.617634 0.0532517 0.376457 0.0532516 1.22164 -0.0329357 -0.0221281 0.00193578 1.31433)
(0.617634 -0.0532517 0.376457 -0.0532516 1.22164 0.0329357 -0.0221281 -0.00193578 1.31433)
(0.65406 -0.153332 0.365018 -0.153332 1.18522 0.0978063 -0.0214555 -0.00574867 1.31433)
(0.722519 -0.234918 0.342489 -0.234918 1.11676 0.159705 -0.0201313 -0.00938705 1.31433)
(0.814753 -0.28817 0.309553 -0.288169 1.02452 0.216752 -0.0181953 -0.0127403 1.31433)
(0.919639 -0.306664 0.267212 -0.306664 0.919639 0.267212 -0.0157065 -0.0157065 1.31433)
(1.02452 -0.288169 0.216752 -0.28817 0.814753 0.309553 -0.0127403 -0.0181953 1.31433)
(1.11676 -0.234918 0.159705 -0.234918 0.722519 0.342489 -0.00938705 -0.0201313 1.31433)
(1.18522 -0.153332 0.0978063 -0.153332 0.65406 0.365018 -0.00574867 -0.0214555 1.31433)
(1.22164 -0.0532516 0.0329357 -0.0532517 0.617634 0.376457 -0.00193578 -0.0221281 1.31433)
(1.22164 0.0532516 -0.0329357 0.0532517 0.617634 0.376457 0.00193578 -0.0221281 1.31433)
(1.18522 0.153332 -0.0978063 0.153332 0.65406 0.365018 0.00574867 -0.0214555 1.31433)
(1.11676 0.234918 -0.159705 0.234918 0.722519 0.342489 0.00938705 -0.0201313 1.31433)
(1.02452 0.288169 -0.216752 0.28817 0.814753 0.309553 0.0127403 -0.0181953 1.31433)
(0.919639 0.306664 -0.267212 0.306664 0.919639 0.267212 0.0157065 -0.0157065 1.31433)
(0.814753 0.28817 -0.309553 0.288169 1.02452 0.216752 0.0181953 -0.0127403 1.31433)
(0.722519 0.234918 -0.342489 0.234918 1.11676 0.159705 0.0201313 -0.00938705 1.31433)
(0.65406 0.153332 -0.365018 0.153332 1.18522 0.0978063 0.0214555 -0.00574867 1.31433)
(0.617634 0.0532517 -0.376457 0.0532516 1.22164 0.0329357 0.0221281 -0.00193578 1.31433)
(0.584365 -0.0624736 -0.413291 -0.0624732 1.29297 -0.0361583 0.012902 0.00112868 1.32734)
(0.6271 -0.179885 -0.400733 -0.179884 1.25024 -0.107376 0.0125098 0.00335174 1.32734)
(0.707414 -0.2756 -0.376 -0.275599 1.16992 -0.175332 0.0117377 0.00547303 1.32734)
(0.81562 -0.338072 -0.339842 -0.338072 1.06172 -0.23796 0.010609 0.00742821 1.32734)
(0.938669 -0.359769 -0.293358 -0.359769 0.938669 -0.293358 0.00915777 0.00915777 1.32734)
(1.06172 -0.338072 -0.23796 -0.338072 0.81562 -0.339842 0.00742821 0.010609 1.32734)
(1.16992 -0.275599 -0.175332 -0.2756 0.707414 -0.376 0.00547303 0.0117377 1.32734)
(1.25024 -0.179884 -0.107376 -0.179885 0.6271 -0.400733 0.00335174 0.0125098 1.32734)
(1.29297 -0.0624732 -0.0361583 -0.0624736 0.584365 -0.413291 0.00112868 0.012902 1.32734)
(1.29297 0.0624732 0.0361583 0.0624736 0.584365 -0.413291 -0.00112868 0.012902 1.32734)
(1.25024 0.179884 0.107376 0.179885 0.6271 -0.400733 -0.00335174 0.0125098 1.32734)
(1.16992 0.275599 0.175332 0.2756 0.707414 -0.376 -0.00547303 0.0117377 1.32734)
(1.06172 0.338072 0.23796 0.338072 0.81562 -0.339842 -0.00742821 0.010609 1.32734)
(0.938669 0.359769 0.293358 0.359769 0.938669 -0.293358 -0.00915777 0.00915777 1.32734)
(0.81562 0.338072 0.339842 0.338072 1.06172 -0.23796 -0.010609 0.00742821 1.32734)
(0.707414 0.2756 0.376 0.275599 1.16992 -0.175332 -0.0117377 0.00547303 1.32734)
(0.6271 0.179885 0.400733 0.179884 1.25024 -0.107376 -0.0125098 0.00335174 1.32734)
(0.584365 0.0624736 0.413291 0.0624732 1.29297 -0.0361583 -0.012902 0.00112868 1.32734)
(0.584365 -0.0624736 0.413291 -0.0624732 1.29297 0.0361583 -0.012902 -0.00112868 1.32734)
(0.6271 -0.179885 0.400733 -0.179884 1.25024 0.107376 -0.0125098 -0.00335174 1.32734)
(0.707414 -0.2756 0.376 -0.275599 1.16992 0.175332 -0.0117377 -0.00547303 1.32734)
(0.81562 -0.338072 0.339842 -0.338072 1.06172 0.23796 -0.010609 -0.00742821 1.32734)
(0.938669 -0.359769 0.293358 -0.359769 0.938669 0.293358 -0.00915777 -0.00915777 1.32734)
(1.06172 -0.338072 0.23796 -0.338072 0.81562 0.339842 -0.00742821 -0.010609 1.32734)
(1.16992 -0.275599 0.175332 -0.2756 0.707414 0.376 -0.00547303 -0.0117377 1.32734)
(1.25024 -0.179884 0.107376 -0.179885 0.6271 0.400733 -0.00335174 -0.0125098 1.32734)
(1.29297 -0.0624732 0.0361583 -0.0624736 0.584365 0.413291 -0.00112868 -0.012902 1.32734)
(1.29297 0.0624732 -0.0361583 0.0624736 0.584365 0.413291 0.00112868 -0.012902 1.32734)
(1.25024 0.179884 -0.107376 0.179885 0.6271 0.400733 0.00335174 -0.0125098 1.32734)
(1.16992 0.275599 -0.175332 0.2756 0.707414 0.376 0.00547303 -0.0117377 1.32734)
(1.06172 0.338072 -0.23796 0.338072 0.81562 0.339842 0.00742821 -0.010609 1.32734)
(0.938669 0.359769 -0.293358 0.359769 0.938669 0.293358 0.00915777 -0.00915777 1.32734)
(0.81562 0.338072 -0.339842 0.338072 1.06172 0.23796 0.010609 -0.00742821 1.32734)
(0.707414 0.2756 -0.376 0.275599 1.16992 0.175332 0.0117377 -0.00547303 1.32734)
(0.6271 0.179885 -0.400733 0.179884 1.25024 0.107376 0.0125098 -0.00335174 1.32734)
(0.584365 0.0624736 -0.413291 0.0624732 1.29297 0.0361583 0.012902 -0.00112868 1.32734)
(0.557775 -0.0734448 -0.455673 -0.0734444 1.39082 -0.0398662 0.00351904 0.00030784 1.3432)
(0.608014 -0.211476 -0.441827 -0.211475 1.34058 -0.118387 0.00341201 0.000914059 1.3432)
(0.702432 -0.323999 -0.414557 -0.323999 1.24617 -0.193311 0.00320147 0.00149246 1.3432)
(0.829642 -0.397443 -0.374691 -0.397443 1.11896 -0.262361 0.00289373 0.00202575 1.3432)
(0.974299 -0.42295 -0.32344 -0.42295 0.974299 -0.32344 0.00249771 0.00249771 1.3432)
(1.11896 -0.397443 -0.262361 -0.397443 0.829642 -0.374691 0.00202575 0.00289373 1.3432)
(1.24617 -0.323999 -0.193311 -0.323999 0.702432 -0.414557 0.00149246 0.00320147 1.3432)
(1.34058 -0.211475 -0.118387 -0.211476 0.608014 -0.441827 0.000914059 0.00341201 1.3432)
(1.39082 -0.0734444 -0.0398662 -0.0734448 0.557775 -0.455673 0.00030784 0.00351904 1.3432)
(1.39082 0.0734444 0.0398662 0.0734448 0.557775 -0.455673 -0.00030784 0.00351904 1.3432)
(1.34058 0.211475 0.118387 0.211476 0.608014 -0.441827 -0.000914059 0.00341201 1.3432)
(1.24617 0.323999 0.193311 0.323999 0.702432 -0.414557 -0.00149246 0.00320147 1.3432)
(1.11896 0.397443 0.262361 0.397443 0.829642 -0.374691 -0.00202575 0.00289373 1.3432)
(0.974299 0.42295 0.32344 0.42295 0.974299 -0.32344 -0.00249771 0.00249771 1.3432)
(0.829642 0.397443 0.374691 0.397443 1.11896 -0.262361 -0.00289373 0.00202575 1.3432)
(0.702432 0.323999 0.414557 0.323999 1.24617 -0.193311 -0.00320147 0.00149246 1.3432)
(0.608014 0.211476 0.441827 0.211475 1.34058 -0.118387 -0.00341201 0.000914059 1.3432)
(0.557775 0.0734448 0.455673 0.0734444 1.39082 -0.0398662 -0.00351904 0.00030784 1.3432)
(0.557775 -0.0734448 0.455673 -0.0734444 1.39082 0.0398662 -0.00351904 -0.00030784 1.3432)
(0.608014 -0.211476 0.441827 -0.211475 1.34058 0.118387 -0.00341201 -0.000914059 1.3432)
(0.702432 -0.323999 0.414557 -0.323999 1.24617 0.193311 -0.00320147 -0.00149246 1.3432)
(0.829642 -0.397443 0.374691 -0.397443 1.11896 0.262361 -0.00289373 -0.00202575 1.3432)
(0.974299 -0.42295 0.32344 -0.42295 0.974299 0.32344 -0.00249771 -0.00249771 1.3432)
(1.11896 -0.397443 0.262361 -0.397443 0.829642 0.374691 -0.00202575 -0.00289373 1.3432)
(1.24617 -0.323999 0.193311 -0.323999 0.702432 0.414557 -0.00149246 -0.00320147 1.3432)
(1.34058 -0.211475 0.118387 -0.211476 0.608014 0.441827 -0.000914059 -0.00341201 1.3432)
(1.39082 -0.0734444 0.0398662 -0.0734448 0.557775 0.455673 -0.00030784 -0.00351904 1.3432)
(1.39082 0.0734444 -0.0398662 0.0734448 0.557775 0.455673 0.00030784 -0.00351904 1.3432)
(1.34058 0.211475 -0.118387 0.211476 0.608014 0.441827 0.000914059 -0.00341201 1.3432)
(1.24617 0.323999 -0.193311 0.323999 0.702432 0.414557 0.00149246 -0.00320147 1.3432)
(1.11896 0.397443 -0.262361 0.397443 0.829642 0.374691 0.00202575 -0.00289373 1.3432)
(0.974299 0.42295 -0.32344 0.42295 0.974299 0.32344 0.00249771 -0.00249771 1.3432)
(0.829642 0.397443 -0.374691 0.397443 1.11896 0.262361 0.00289373 -0.00202575 1.3432)
(0.702432 0.323999 -0.414557 0.323999 1.24617 0.193311 0.00320147 -0.00149246 1.3432)
(0.608014 0.211476 -0.441827 0.211475 1.34058 0.118387 0.00341201 -0.000914059 1.3432)
(0.557775 0.0734448 -0.455673 0.0734444 1.39082 0.0398662 0.00351904 -0.00030784 1.3432)
(0.570516 -0.0632676 -0.242467 -0.0632674 1.28813 -0.0212132 0.0496228 0.00434131 1.34615)
(0.613794 -0.182172 -0.2351 -0.182171 1.24485 -0.0629948 0.0481149 0.0128921 1.34615)
(0.695129 -0.279103 -0.220589 -0.279103 1.16352 -0.102863 0.0451452 0.0210513 1.34615)
(0.804712 -0.342371 -0.199376 -0.342371 1.05394 -0.139605 0.0408036 0.0285708 1.34615)
(0.929324 -0.364343 -0.172105 -0.364343 0.929324 -0.172105 0.0352223 0.0352223 1.34615)
(1.05394 -0.342371 -0.139605 -0.342371 0.804712 -0.199376 0.0285708 0.0408036 1.34615)
(1.16352 -0.279103 -0.102863 -0.279103 0.695129 -0.220589 0.0210513 0.0451452 1.34615)
(1.24485 -0.182171 -0.0629948 -0.182172 0.613794 -0.2351 0.0128921 0.0481149 1.34615)
(1.28813 -0.0632674 -0.0212132 -0.0632676 0.570516 -0.242467 0.00434131 0.0496228 1.34615)