/*--------------------------------*- C++ -*----------------------------------*\
| =========                 |                                                 |
| \\      /  F ield         | OpenFOAM: The Open Source CFD Toolbox           |
|  \\    /   O peration     | Version:  2312                                  |
|   \\  /    A nd           | Website:  www.openfoam.com                      |
|    \\/     M anipulation  |                                                 |
\*---------------------------------------------------------------------------*/
FoamFile
{
    version     2.0;
    format      ascii;
    arch        "LSB;label=32;scalar=64";
    class       volSymmTensorField;
    location    "0.8";
    object      sigma;
}
// * * * * * * * * * * * * * * * * * * * * * * * * * * * * * * * * * * * * * //

dimensions      [1 -1 -2 0 0 0 0];

internalField   nonuniform List<symmTensor> 
1620
(
(15086.1 135.174 -5820.97 13552.8 -509.27 20315.1)
(14993.6 389.218 -5644.1 13645.3 -1512.33 20315.1)
(14819.9 596.314 -5295.74 13819.1 -2469.44 20315.2)
(14585.7 731.485 -4786.47 14053.2 -3351.52 20315.1)
(14319.3 778.429 -4131.77 14319.3 -4131.77 20315)
(14053.2 731.485 -3351.52 14585.7 -4786.47 20315.1)
(13819.1 596.314 -2469.44 14819.9 -5295.74 20315.2)
(13645.3 389.218 -1512.33 14993.6 -5644.1 20315.1)
(13552.8 135.174 -509.27 15086.1 -5820.97 20315.1)
(13552.8 -135.174 509.27 15086.1 -5820.97 20315.1)
(13645.3 -389.218 1512.33 14993.6 -5644.1 20315.1)
(13819.1 -596.314 2469.44 14819.9 -5295.74 20315.2)
(14053.2 -731.485 3351.52 14585.7 -4786.47 20315.1)
(14319.3 -778.429 4131.77 14319.3 -4131.77 20315)
(14585.7 -731.485 4786.47 14053.2 -3351.52 20315.1)
(14819.9 -596.314 5295.74 13819.1 -2469.44 20315.2)
(14993.6 -389.218 5644.1 13645.3 -1512.33 20315.1)
(15086.1 -135.174 5820.97 13552.8 -509.27 20315.1)
(15086.1 135.174 5820.97 13552.8 509.27 20315.1)
(14993.6 389.218 5644.1 13645.3 1512.33 20315.1)
(14819.9 596.314 5295.74 13819.1 2469.44 20315.2)
(14585.7 731.485 4786.47 14053.2 3351.52 20315.1)
(14319.3 778.429 4131.77 14319.3 4131.77 20315)
(14053.2 731.485 3351.52 14585.7 4786.47 20315.1)
(13819.1 596.314 2469.44 14819.9 5295.74 20315.2)
(13645.3 389.218 1512.33 14993.6 5644.1 20315.1)
(13552.8 135.174 509.27 15086.1 5820.97 20315.1)
(13552.8 -135.174 -509.27 15086.1 5820.97 20315.1)
(13645.3 -389.218 -1512.33 14993.6 5644.1 20315.1)
(13819.1 -596.314 -2469.44 14819.9 5295.74 20315.2)
(14053.2 -731.485 -3351.52 14585.7 4786.47 20315.1)
(14319.3 -778.429 -4131.77 14319.3 4131.77 20315)
(14585.7 -731.485 -4786.47 14053.2 3351.52 20315.1)
(14819.9 -596.314 -5295.74 13819.1 2469.44 20315.2)
(14993.6 -389.218 -5644.1 13645.3 1512.33 20315.1)
(15086.1 -135.174 -5820.97 13552.8 509.27 20315.1)
(22764.9 204.687 -7677.05 20443.2 -671.656 28765)
(22624.7 589.367 -7443.78 20583.1 -1994.56 28764.8)
(22361.4 902.957 -6984.34 20846.1 -3256.85 28764.7)
(22007 1107.64 -6312.69 21200.7 -4420.18 28764.8)
(21603.8 1178.73 -5449.22 21603.8 -5449.22 28764.8)
(21200.7 1107.64 -4420.18 22007 -6312.69 28764.8)
(20846.1 902.957 -3256.85 22361.4 -6984.34 28764.7)
(20583.1 589.367 -1994.56 22624.7 -7443.78 28764.8)
(20443.2 204.687 -671.656 22764.9 -7677.05 28765)
(20443.2 -204.687 671.656 22764.9 -7677.05 28765)
(20583.1 -589.367 1994.56 22624.7 -7443.78 28764.8)
(20846.1 -902.957 3256.85 22361.4 -6984.34 28764.7)
(21200.7 -1107.64 4420.18 22007 -6312.69 28764.8)
(21603.8 -1178.73 5449.22 21603.8 -5449.22 28764.8)
(22007 -1107.64 6312.69 21200.7 -4420.18 28764.8)
(22361.4 -902.957 6984.34 20846.1 -3256.85 28764.7)
(22624.7 -589.367 7443.78 20583.1 -1994.56 28764.8)
(22764.9 -204.687 7677.05 20443.2 -671.656 28765)
(22764.9 204.687 7677.05 20443.2 671.656 28765)
(22624.7 589.367 7443.78 20583.1 1994.56 28764.8)
(22361.4 902.957 6984.34 20846.1 3256.85 28764.7)
(22007 1107.64 6312.69 21200.7 4420.18 28764.8)
(21603.8 1178.73 5449.22 21603.8 5449.22 28764.8)
(21200.7 1107.64 4420.18 22007 6312.69 28764.8)
(20846.1 902.957 3256.85 22361.4 6984.34 28764.7)
(20583.1 589.367 1994.56 22624.7 7443.78 28764.8)
(20443.2 204.687 671.656 22764.9 7677.05 28765)
(20443.2 -204.687 -671.656 22764.9 7677.05 28765)
(20583.1 -589.367 -1994.56 22624.7 7443.78 28764.8)
(20846.1 -902.957 -3256.85 22361.4 6984.34 28764.7)
(21200.7 -1107.64 -4420.18 22007 6312.69 28764.8)
(21603.8 -1178.73 -5449.22 21603.8 5449.22 28764.8)
(22007 -1107.64 -6312.69 21200.7 4420.18 28764.8)
(22361.4 -902.957 -6984.34 20846.1 3256.85 28764.7)
(22624.7 -589.367 -7443.78 20583.1 1994.56 28764.8)
(22764.9 -204.687 -7677.05 20443.2 671.656 28765)
(38694.9 307.115 -10541.2 35211.5 -922.234 45536.2)
(38484.8 884.296 -10220.9 35421.5 -2738.67 45536.1)
(38090 1354.81 -9590.02 35816.3 -4471.89 45536.1)
(37558 1661.92 -8667.78 36348.2 -6069.24 45536.1)
(36953.2 1768.58 -7482.18 36953.2 -7482.18 45536.2)
(36348.2 1661.92 -6069.24 37558 -8667.78 45536.1)
(35816.3 1354.81 -4471.89 38090 -9590.02 45536.1)
(35421.5 884.296 -2738.67 38484.8 -10220.9 45536.1)
(35211.5 307.115 -922.234 38694.9 -10541.2 45536.2)
(35211.5 -307.115 922.234 38694.9 -10541.2 45536.2)
(35421.5 -884.296 2738.67 38484.8 -10220.9 45536.1)
(35816.3 -1354.81 4471.89 38090 -9590.02 45536.1)
(36348.2 -1661.92 6069.24 37558 -8667.78 45536.1)
(36953.2 -1768.58 7482.18 36953.2 -7482.18 45536.2)
(37558 -1661.92 8667.78 36348.2 -6069.24 45536.1)
(38090 -1354.81 9590.02 35816.3 -4471.89 45536.1)
(38484.8 -884.296 10220.9 35421.5 -2738.67 45536.1)
(38694.9 -307.115 10541.2 35211.5 -922.234 45536.2)
(38694.9 307.115 10541.2 35211.5 922.234 45536.2)
(38484.8 884.296 10220.9 35421.5 2738.67 45536.1)
(38090 1354.81 9590.02 35816.3 4471.89 45536.1)
(37558 1661.92 8667.78 36348.2 6069.24 45536.1)
(36953.2 1768.58 7482.18 36953.2 7482.18 45536.2)
(36348.2 1661.92 6069.24 37558 8667.78 45536.1)
(35816.3 1354.81 4471.89 38090 9590.02 45536.1)
(35421.5 884.296 2738.67 38484.8 10220.9 45536.1)
(35211.5 307.115 922.234 38694.9 10541.2 45536.2)
(35211.5 -307.115 -922.234 38694.9 10541.2 45536.2)
(35421.5 -884.296 -2738.67 38484.8 10220.9 45536.1)
(35816.3 -1354.81 -4471.89 38090 9590.02 45536.1)
(36348.2 -1661.92 -6069.24 37558 8667.78 45536.1)
(36953.2 -1768.58 -7482.18 36953.2 7482.18 45536.2)
(37558 -1661.92 -8667.78 36348.2 6069.24 45536.1)
(38090 -1354.81 -9590.02 35816.3 4471.89 45536.1)
(38484.8 -884.296 -10220.9 35421.5 2738.67 45536.1)
(38694.9 -307.115 -10541.2 35211.5 922.234 45536.2)
(-6704.45 -141.356 -5115.94 -5101.11 -447.587 793.342)
(-6607.8 -407.016 -4960.49 -5197.85 -1329.16 793.315)
(-6426.02 -623.586 -4654.33 -5379.52 -2170.35 793.372)
(-6181.5 -764.944 -4206.74 -5624.67 -2945.59 793.043)
(-5903.13 -814.036 -3631.33 -5903.13 -3631.33 792.997)
(-5624.67 -764.944 -2945.59 -6181.5 -4206.74 793.043)
(-5379.52 -623.586 -2170.35 -6426.02 -4654.33 793.372)
(-5197.85 -407.016 -1329.16 -6607.8 -4960.49 793.315)
(-5101.11 -141.356 -447.587 -6704.45 -5115.94 793.342)
(-5101.11 141.356 447.587 -6704.45 -5115.94 793.342)
(-5197.85 407.016 1329.16 -6607.8 -4960.49 793.315)
(-5379.52 623.586 2170.35 -6426.02 -4654.33 793.372)
(-5624.67 764.944 2945.59 -6181.5 -4206.74 793.043)
(-5903.13 814.036 3631.33 -5903.13 -3631.33 792.997)
(-6181.5 764.944 4206.74 -5624.67 -2945.59 793.043)
(-6426.02 623.586 4654.33 -5379.52 -2170.35 793.372)
(-6607.8 407.016 4960.49 -5197.85 -1329.16 793.315)
(-6704.45 141.356 5115.94 -5101.11 -447.587 793.342)
(-6704.45 -141.356 5115.94 -5101.11 447.587 793.342)
(-6607.8 -407.016 4960.49 -5197.85 1329.16 793.315)
(-6426.02 -623.586 4654.33 -5379.52 2170.35 793.372)
(-6181.5 -764.944 4206.74 -5624.67 2945.59 793.043)
(-5903.13 -814.036 3631.33 -5903.13 3631.33 792.997)
(-5624.67 -764.944 2945.59 -6181.5 4206.74 793.043)
(-5379.52 -623.586 2170.35 -6426.02 4654.33 793.372)
(-5197.85 -407.016 1329.16 -6607.8 4960.49 793.315)
(-5101.11 -141.356 447.587 -6704.45 5115.94 793.342)
(-5101.11 141.356 -447.587 -6704.45 5115.94 793.342)
(-5197.85 407.016 -1329.16 -6607.8 4960.49 793.315)
(-5379.52 623.586 -2170.35 -6426.02 4654.33 793.372)
(-5624.67 764.944 -2945.59 -6181.5 4206.74 793.043)
(-5903.13 814.036 -3631.33 -5903.13 3631.33 792.997)
(-6181.5 764.944 -4206.74 -5624.67 2945.59 793.043)
(-6426.02 623.586 -4654.33 -5379.52 2170.35 793.372)
(-6607.8 407.016 -4960.49 -5197.85 1329.16 793.315)
(-6704.45 141.356 -5115.94 -5101.11 447.587 793.342)
(-130.758 -217.293 -6652.12 2333.9 -581.985 8567.48)
(17.931 -625.667 -6450 2185.31 -1728.27 8567.53)
(297.342 -958.585 -6051.89 1906.03 -2822.04 8567.6)
(673.973 -1175.88 -5469.91 1529.94 -3830.07 8567.88)
(1101.88 -1251.35 -4721.73 1101.88 -4721.73 8567.8)
(1529.94 -1175.88 -3830.07 673.973 -5469.91 8567.88)
(1906.03 -958.585 -2822.04 297.342 -6051.89 8567.6)
(2185.31 -625.667 -1728.27 17.931 -6450 8567.53)
(2333.9 -217.293 -581.985 -130.758 -6652.12 8567.48)
(2333.9 217.293 581.985 -130.758 -6652.12 8567.48)
(2185.31 625.667 1728.27 17.931 -6450 8567.53)
(1906.03 958.585 2822.04 297.342 -6051.89 8567.6)
(1529.94 1175.88 3830.07 673.973 -5469.91 8567.88)
(1101.88 1251.35 4721.73 1101.88 -4721.73 8567.8)
(673.973 1175.88 5469.91 1529.94 -3830.07 8567.88)
(297.342 958.585 6051.89 1906.03 -2822.04 8567.6)
(17.931 625.667 6450 2185.31 -1728.27 8567.53)
(-130.758 217.293 6652.12 2333.9 -581.985 8567.48)
(-130.758 -217.293 6652.12 2333.9 581.985 8567.48)
(17.931 -625.667 6450 2185.31 1728.27 8567.53)
(297.342 -958.585 6051.89 1906.03 2822.04 8567.6)
(673.973 -1175.88 5469.91 1529.94 3830.07 8567.88)
(1101.88 -1251.35 4721.73 1101.88 4721.73 8567.8)
(1529.94 -1175.88 3830.07 673.973 5469.91 8567.88)
(1906.03 -958.585 2822.04 297.342 6051.89 8567.6)
(2185.31 -625.667 1728.27 17.931 6450 8567.53)
(2333.9 -217.293 581.985 -130.758 6652.12 8567.48)
(2333.9 217.293 -581.985 -130.758 6652.12 8567.48)
(2185.31 625.667 -1728.27 17.931 6450 8567.53)
(1906.03 958.585 -2822.04 297.342 6051.89 8567.6)
(1529.94 1175.88 -3830.07 673.973 5469.91 8567.88)
(1101.88 1251.35 -4721.73 1101.88 4721.73 8567.8)
(673.973 1175.88 -5469.91 1529.94 3830.07 8567.88)
(297.342 958.585 -6051.89 1906.03 2822.04 8567.6)
(17.931 625.667 -6450 2185.31 1728.27 8567.53)
(-130.758 217.293 -6652.12 2333.9 581.985 8567.48)
(23453.6 -408.084 -9255.95 28082.3 -809.79 34007.2)
(23732.6 -1175.02 -8974.71 27803 -2404.77 34007.1)
(24257.3 -1800.25 -8420.78 27278.4 -3926.67 34007.1)
(24963.7 -2208.34 -7610.99 26571.2 -5329.27 34006.7)
(25767.7 -2350.06 -6569.95 25767.7 -6569.95 34006.9)
(26571.2 -2208.34 -5329.27 24963.7 -7610.99 34006.7)
(27278.4 -1800.25 -3926.67 24257.3 -8420.78 34007.1)
(27803 -1175.02 -2404.77 23732.6 -8974.71 34007.1)
(28082.3 -408.084 -809.79 23453.6 -9255.95 34007.2)
(28082.3 408.084 809.79 23453.6 -9255.95 34007.2)
(27803 1175.02 2404.77 23732.6 -8974.71 34007.1)
(27278.4 1800.25 3926.67 24257.3 -8420.78 34007.1)
(26571.2 2208.34 5329.27 24963.7 -7610.99 34006.7)
(25767.7 2350.06 6569.95 25767.7 -6569.95 34006.9)
(24963.7 2208.34 7610.99 26571.2 -5329.27 34006.7)
(24257.3 1800.25 8420.78 27278.4 -3926.67 34007.1)
(23732.6 1175.02 8974.71 27803 -2404.77 34007.1)
(23453.6 408.084 9255.95 28082.3 -809.79 34007.2)
(23453.6 -408.084 9255.95 28082.3 809.79 34007.2)
(23732.6 -1175.02 8974.71 27803 2404.77 34007.1)
(24257.3 -1800.25 8420.78 27278.4 3926.67 34007.1)
(24963.7 -2208.34 7610.99 26571.2 5329.27 34006.7)
(25767.7 -2350.06 6569.95 25767.7 6569.95 34006.9)
(26571.2 -2208.34 5329.27 24963.7 7610.99 34006.7)
(27278.4 -1800.25 3926.67 24257.3 8420.78 34007.1)
(27803 -1175.02 2404.77 23732.6 8974.71 34007.1)
(28082.3 -408.084 809.79 23453.6 9255.95 34007.2)
(28082.3 408.084 -809.79 23453.6 9255.95 34007.2)
(27803 1175.02 -2404.77 23732.6 8974.71 34007.1)
(27278.4 1800.25 -3926.67 24257.3 8420.78 34007.1)
(26571.2 2208.34 -5329.27 24963.7 7610.99 34006.7)
(25767.7 2350.06 -6569.95 25767.7 6569.95 34006.9)
(24963.7 2208.34 -7610.99 26571.2 5329.27 34006.7)
(24257.3 1800.25 -8420.78 27278.4 3926.67 34007.1)
(23732.6 1175.02 -8974.71 27803 2404.77 34007.1)
(23453.6 408.084 -9255.95 28082.3 809.79 34007.2)
(-7190.36 -485.855 -4337.06 -1679.52 -379.447 3667.08)
(-6858.07 -1398.97 -4205.28 -2011.92 -1126.8 3667.02)
(-6233.28 -2143.34 -3945.72 -2636.34 -1839.93 3667.21)
(-5391.8 -2629.19 -3566.28 -3477.91 -2497.14 3667.16)
(-4434.69 -2797.93 -3078.48 -4434.69 -3078.48 3667.32)
(-3477.91 -2629.19 -2497.14 -5391.8 -3566.28 3667.16)
(-2636.34 -2143.34 -1839.93 -6233.28 -3945.72 3667.21)
(-2011.92 -1398.97 -1126.8 -6858.07 -4205.28 3667.02)
(-1679.52 -485.855 -379.447 -7190.36 -4337.06 3667.08)
(-1679.52 485.855 379.447 -7190.36 -4337.06 3667.08)
(-2011.92 1398.97 1126.8 -6858.07 -4205.28 3667.02)
(-2636.34 2143.34 1839.93 -6233.28 -3945.72 3667.21)
(-3477.91 2629.19 2497.14 -5391.8 -3566.28 3667.16)
(-4434.69 2797.93 3078.48 -4434.69 -3078.48 3667.32)
(-5391.8 2629.19 3566.28 -3477.91 -2497.14 3667.16)
(-6233.28 2143.34 3945.72 -2636.34 -1839.93 3667.21)
(-6858.07 1398.97 4205.28 -2011.92 -1126.8 3667.02)
(-7190.36 485.855 4337.06 -1679.52 -379.447 3667.08)
(-7190.36 -485.855 4337.06 -1679.52 379.447 3667.08)
(-6858.07 -1398.97 4205.28 -2011.92 1126.8 3667.02)
(-6233.28 -2143.34 3945.72 -2636.34 1839.93 3667.21)
(-5391.8 -2629.19 3566.28 -3477.91 2497.14 3667.16)
(-4434.69 -2797.93 3078.48 -4434.69 3078.48 3667.32)
(-3477.91 -2629.19 2497.14 -5391.8 3566.28 3667.16)
(-2636.34 -2143.34 1839.93 -6233.28 3945.72 3667.21)
(-2011.92 -1398.97 1126.8 -6858.07 4205.28 3667.02)
(-1679.52 -485.855 379.447 -7190.36 4337.06 3667.08)
(-1679.52 485.855 -379.447 -7190.36 4337.06 3667.08)
(-2011.92 1398.97 -1126.8 -6858.07 4205.28 3667.02)
(-2636.34 2143.34 -1839.93 -6233.28 3945.72 3667.21)
(-3477.91 2629.19 -2497.14 -5391.8 3566.28 3667.16)
(-4434.69 2797.93 -3078.48 -4434.69 3078.48 3667.32)
(-5391.8 2629.19 -3566.28 -3477.91 2497.14 3667.16)
(-6233.28 2143.34 -3945.72 -2636.34 1839.93 3667.21)
(-6858.07 1398.97 -4205.28 -2011.92 1126.8 3667.02)
(-7190.36 485.855 -4337.06 -1679.52 379.447 3667.08)
(-2506.08 -776.346 -5525.62 6299.63 -483.43 10239.1)
(-1974.9 -2235.39 -5357.72 5768.71 -1435.6 10239.2)
(-976.937 -3424.81 -5027.04 4770.57 -2344.15 10239.1)
(367.739 -4201.16 -4543.61 3425.93 -3181.48 10239.1)
(1896.53 -4470.78 -3922.13 1896.53 -3922.13 10238.8)
(3425.93 -4201.16 -3181.48 367.739 -4543.61 10239.1)
(4770.57 -3424.81 -2344.15 -976.937 -5027.04 10239.1)
(5768.71 -2235.39 -1435.6 -1974.9 -5357.72 10239.2)
(6299.63 -776.346 -483.43 -2506.08 -5525.62 10239.1)
(6299.63 776.346 483.43 -2506.08 -5525.62 10239.1)
(5768.71 2235.39 1435.6 -1974.9 -5357.72 10239.2)
(4770.57 3424.81 2344.15 -976.937 -5027.04 10239.1)
(3425.93 4201.16 3181.48 367.739 -4543.61 10239.1)
(1896.53 4470.78 3922.13 1896.53 -3922.13 10238.8)
(367.739 4201.16 4543.61 3425.93 -3181.48 10239.1)
(-976.937 3424.81 5027.04 4770.57 -2344.15 10239.1)
(-1974.9 2235.39 5357.72 5768.71 -1435.6 10239.2)
(-2506.08 776.346 5525.62 6299.63 -483.43 10239.1)
(-2506.08 -776.346 5525.62 6299.63 483.43 10239.1)
(-1974.9 -2235.39 5357.72 5768.71 1435.6 10239.2)
(-976.937 -3424.81 5027.04 4770.57 2344.15 10239.1)
(367.739 -4201.16 4543.61 3425.93 3181.48 10239.1)
(1896.53 -4470.78 3922.13 1896.53 3922.13 10238.8)
(3425.93 -4201.16 3181.48 367.739 4543.61 10239.1)
(4770.57 -3424.81 2344.15 -976.937 5027.04 10239.1)
(5768.71 -2235.39 1435.6 -1974.9 5357.72 10239.2)
(6299.63 -776.346 483.43 -2506.08 5525.62 10239.1)
(6299.63 776.346 -483.43 -2506.08 5525.62 10239.1)
(5768.71 2235.39 -1435.6 -1974.9 5357.72 10239.2)
(4770.57 3424.81 -2344.15 -976.937 5027.04 10239.1)
(3425.93 4201.16 -3181.48 367.739 4543.61 10239.1)
(1896.53 4470.78 -3922.13 1896.53 3922.13 10238.8)
(367.739 4201.16 -4543.61 3425.93 3181.48 10239.1)
(-976.937 3424.81 -5027.04 4770.57 2344.15 10239.1)
(-1974.9 2235.39 -5357.72 5768.71 1435.6 10239.2)
(-2506.08 776.346 -5525.62 6299.63 483.43 10239.1)
(25286.2 -1473.3 -7866.07 41997.1 -688.192 41801.6)
(26293.9 -4242.18 -7627.06 40989.3 -2043.68 41801.5)
(28188.1 -6499.41 -7156.3 39095.4 -3337.06 41801.7)
(30739.9 -7972.71 -6468.11 36543.5 -4529.04 41801.6)
(33641.9 -8484.39 -5583.4 33641.9 -5583.4 41801.8)
(36543.5 -7972.71 -4529.04 30739.9 -6468.11 41801.6)
(39095.4 -6499.41 -3337.06 28188.1 -7156.3 41801.7)
(40989.3 -4242.18 -2043.68 26293.9 -7627.06 41801.5)
(41997.1 -1473.3 -688.192 25286.2 -7866.07 41801.6)
(41997.1 1473.3 688.192 25286.2 -7866.07 41801.6)
(40989.3 4242.18 2043.68 26293.9 -7627.06 41801.5)
(39095.4 6499.41 3337.06 28188.1 -7156.3 41801.7)
(36543.5 7972.71 4529.04 30739.9 -6468.11 41801.6)
(33641.9 8484.39 5583.4 33641.9 -5583.4 41801.8)
(30739.9 7972.71 6468.11 36543.5 -4529.04 41801.6)
(28188.1 6499.41 7156.3 39095.4 -3337.06 41801.7)
(26293.9 4242.18 7627.06 40989.3 -2043.68 41801.5)
(25286.2 1473.3 7866.07 41997.1 -688.192 41801.6)
(25286.2 -1473.3 7866.07 41997.1 688.192 41801.6)
(26293.9 -4242.18 7627.06 40989.3 2043.68 41801.5)
(28188.1 -6499.41 7156.3 39095.4 3337.06 41801.7)
(30739.9 -7972.71 6468.11 36543.5 4529.04 41801.6)
(33641.9 -8484.39 5583.4 33641.9 5583.4 41801.8)
(36543.5 -7972.71 4529.04 30739.9 6468.11 41801.6)
(39095.4 -6499.41 3337.06 28188.1 7156.3 41801.7)
(40989.3 -4242.18 2043.68 26293.9 7627.06 41801.5)
(41997.1 -1473.3 688.192 25286.2 7866.07 41801.6)
(41997.1 1473.3 -688.192 25286.2 7866.07 41801.6)
(40989.3 4242.18 -2043.68 26293.9 7627.06 41801.5)
(39095.4 6499.41 -3337.06 28188.1 7156.3 41801.7)
(36543.5 7972.71 -4529.04 30739.9 6468.11 41801.6)
(33641.9 8484.39 -5583.4 33641.9 5583.4 41801.8)
(30739.9 7972.71 -6468.11 36543.5 4529.04 41801.6)
(28188.1 6499.41 -7156.3 39095.4 3337.06 41801.7)
(26293.9 4242.18 -7627.06 40989.3 2043.68 41801.5)
(25286.2 1473.3 -7866.07 41997.1 688.192 41801.6)
(-7919.72 -841.244 -2709.73 1622.14 -237.074 5049.98)
(-7344.03 -2422.27 -2627.4 1046.94 -704.013 5050.23)
(-6262.67 -3711.13 -2465.23 -34.6657 -1149.56 5050.1)
(-4805.69 -4552.38 -2228.16 -1491.84 -1560.18 5050)
(-3148.66 -4844.54 -1923.39 -3148.66 -1923.39 5050.1)
(-1491.84 -4552.38 -1560.18 -4805.69 -2228.16 5050)
(-34.6657 -3711.13 -1149.56 -6262.67 -2465.23 5050.1)
(1046.94 -2422.27 -704.013 -7344.03 -2627.4 5050.23)
(1622.14 -841.244 -237.074 -7919.72 -2709.73 5049.98)
(1622.14 841.244 237.074 -7919.72 -2709.73 5049.98)
(1046.94 2422.27 704.013 -7344.03 -2627.4 5050.23)
(-34.6657 3711.13 1149.56 -6262.67 -2465.23 5050.1)
(-1491.84 4552.38 1560.18 -4805.69 -2228.16 5050)
(-3148.66 4844.54 1923.39 -3148.66 -1923.39 5050.1)
(-4805.69 4552.38 2228.16 -1491.84 -1560.18 5050)
(-6262.67 3711.13 2465.23 -34.6657 -1149.56 5050.1)
(-7344.03 2422.27 2627.4 1046.94 -704.013 5050.23)
(-7919.72 841.244 2709.73 1622.14 -237.074 5049.98)
(-7919.72 -841.244 2709.73 1622.14 237.074 5049.98)
(-7344.03 -2422.27 2627.4 1046.94 704.013 5050.23)
(-6262.67 -3711.13 2465.23 -34.6657 1149.56 5050.1)
(-4805.69 -4552.38 2228.16 -1491.84 1560.18 5050)
(-3148.66 -4844.54 1923.39 -3148.66 1923.39 5050.1)
(-1491.84 -4552.38 1560.18 -4805.69 2228.16 5050)
(-34.6657 -3711.13 1149.56 -6262.67 2465.23 5050.1)
(1046.94 -2422.27 704.013 -7344.03 2627.4 5050.23)
(1622.14 -841.244 237.074 -7919.72 2709.73 5049.98)
(1622.14 841.244 -237.074 -7919.72 2709.73 5049.98)
(1046.94 2422.27 -704.013 -7344.03 2627.4 5050.23)
(-34.6657 3711.13 -1149.56 -6262.67 2465.23 5050.1)
(-1491.84 4552.38 -1560.18 -4805.69 2228.16 5050)
(-3148.66 4844.54 -1923.39 -3148.66 1923.39 5050.1)
(-4805.69 4552.38 -2228.16 -1491.84 1560.18 5050)
(-6262.67 3711.13 -2465.23 -34.6657 1149.56 5050.1)
(-7344.03 2422.27 -2627.4 1046.94 704.013 5050.23)
(-7919.72 841.244 -2709.73 1622.14 237.074 5049.98)
(-3633.83 -1387.92 -3545.53 12108.7 -310.199 12245.6)
(-2684.51 -3996.35 -3437.81 11159.2 -921.164 12245.6)
(-900.196 -6122.77 -3225.62 9375.01 -1504.14 12245.6)
(1503.7 -7510.69 -2915.43 6971.02 -2041.41 12245.5)
(4237.59 -7992.71 -2516.66 4237.59 -2516.66 12245.8)
(6971.02 -7510.69 -2041.41 1503.7 -2915.43 12245.5)
(9375.01 -6122.77 -1504.14 -900.196 -3225.62 12245.6)
(11159.2 -3996.35 -921.164 -2684.51 -3437.81 12245.6)
(12108.7 -1387.92 -310.199 -3633.83 -3545.53 12245.6)
(12108.7 1387.92 310.199 -3633.83 -3545.53 12245.6)
(11159.2 3996.35 921.164 -2684.51 -3437.81 12245.6)
(9375.01 6122.77 1504.14 -900.196 -3225.62 12245.6)
(6971.02 7510.69 2041.41 1503.7 -2915.43 12245.5)
(4237.59 7992.71 2516.66 4237.59 -2516.66 12245.8)
(1503.7 7510.69 2915.43 6971.02 -2041.41 12245.5)
(-900.196 6122.77 3225.62 9375.01 -1504.14 12245.6)
(-2684.51 3996.35 3437.81 11159.2 -921.164 12245.6)
(-3633.83 1387.92 3545.53 12108.7 -310.199 12245.6)
(-3633.83 -1387.92 3545.53 12108.7 310.199 12245.6)
(-2684.51 -3996.35 3437.81 11159.2 921.164 12245.6)
(-900.196 -6122.77 3225.62 9375.01 1504.14 12245.6)
(1503.7 -7510.69 2915.43 6971.02 2041.41 12245.5)
(4237.59 -7992.71 2516.66 4237.59 2516.66 12245.8)
(6971.02 -7510.69 2041.41 1503.7 2915.43 12245.5)
(9375.01 -6122.77 1504.14 -900.196 3225.62 12245.6)
(11159.2 -3996.35 921.164 -2684.51 3437.81 12245.6)
(12108.7 -1387.92 310.199 -3633.83 3545.53 12245.6)
(12108.7 1387.92 -310.199 -3633.83 3545.53 12245.6)
(11159.2 3996.35 -921.164 -2684.51 3437.81 12245.6)
(9375.01 6122.77 -1504.14 -900.196 3225.62 12245.6)
(6971.02 7510.69 -2041.41 1503.7 2915.43 12245.5)
(4237.59 7992.71 -2516.66 4237.59 2516.66 12245.8)
(1503.7 7510.69 -2915.43 6971.02 2041.41 12245.5)
(-900.196 6122.77 -3225.62 9375.01 1504.14 12245.6)
(-2684.51 3996.35 -3437.81 11159.2 921.164 12245.6)
(-3633.83 1387.92 -3545.53 12108.7 310.199 12245.6)
(26447.6 -2809.73 -5451.03 58317.1 -476.91 48940.5)
(28369.9 -8090.31 -5285.41 56395.5 -1416.23 48940.8)
(31981.8 -12395.1 -4959.18 52783.1 -2312.51 48940.6)
(36848.2 -15204.8 -4482.29 47916.4 -3138.53 48940.4)
(42382.5 -16180.6 -3869.2 42382.5 -3869.2 48940.6)
(47916.4 -15204.8 -3138.53 36848.2 -4482.29 48940.4)
(52783.1 -12395.1 -2312.51 31981.8 -4959.18 48940.6)
(56395.5 -8090.31 -1416.23 28369.9 -5285.41 48940.8)
(58317.1 -2809.73 -476.91 26447.6 -5451.03 48940.5)
(58317.1 2809.73 476.91 26447.6 -5451.03 48940.5)
(56395.5 8090.31 1416.23 28369.9 -5285.41 48940.8)
(52783.1 12395.1 2312.51 31981.8 -4959.18 48940.6)
(47916.4 15204.8 3138.53 36848.2 -4482.29 48940.4)
(42382.5 16180.6 3869.2 42382.5 -3869.2 48940.6)
(36848.2 15204.8 4482.29 47916.4 -3138.53 48940.4)
(31981.8 12395.1 4959.18 52783.1 -2312.51 48940.6)
(28369.9 8090.31 5285.41 56395.5 -1416.23 48940.8)
(26447.6 2809.73 5451.03 58317.1 -476.91 48940.5)
(26447.6 -2809.73 5451.03 58317.1 476.91 48940.5)
(28369.9 -8090.31 5285.41 56395.5 1416.23 48940.8)
(31981.8 -12395.1 4959.18 52783.1 2312.51 48940.6)
(36848.2 -15204.8 4482.29 47916.4 3138.53 48940.4)
(42382.5 -16180.6 3869.2 42382.5 3869.2 48940.6)
(47916.4 -15204.8 3138.53 36848.2 4482.29 48940.4)
(52783.1 -12395.1 2312.51 31981.8 4959.18 48940.6)
(56395.5 -8090.31 1416.23 28369.9 5285.41 48940.8)
(58317.1 -2809.73 476.91 26447.6 5451.03 48940.5)
(58317.1 2809.73 -476.91 26447.6 5451.03 48940.5)
(56395.5 8090.31 -1416.23 28369.9 5285.41 48940.8)
(52783.1 12395.1 -2312.51 31981.8 4959.18 48940.6)
(47916.4 15204.8 -3138.53 36848.2 4482.29 48940.4)
(42382.5 16180.6 -3869.2 42382.5 3869.2 48940.6)
(36848.2 15204.8 -4482.29 47916.4 3138.53 48940.4)
(31981.8 12395.1 -4959.18 52783.1 2312.51 48940.6)
(28369.9 8090.31 -5285.41 56395.5 1416.23 48940.8)
(26447.6 2809.73 -5451.03 58317.1 476.91 48940.5)
(-8621.58 -1116.91 -778.721 4047.05 -68.1324 5108.45)
(-7857.54 -3216.02 -755.063 3283.06 -202.327 5108.47)
(-6421.71 -4927.23 -708.458 1847.14 -330.368 5108.42)
(-4487.07 -6044.14 -640.329 -87.3076 -448.372 5108.51)
(-2287.36 -6432.04 -552.748 -2287.36 -552.748 5108.34)
(-87.3076 -6044.14 -448.372 -4487.07 -640.329 5108.51)
(1847.14 -4927.23 -330.368 -6421.71 -708.458 5108.42)
(3283.06 -3216.02 -202.327 -7857.54 -755.063 5108.47)
(4047.05 -1116.91 -68.1324 -8621.58 -778.721 5108.45)
(4047.05 1116.91 68.1324 -8621.58 -778.721 5108.45)
(3283.06 3216.02 202.327 -7857.54 -755.063 5108.47)
(1847.14 4927.23 330.368 -6421.71 -708.458 5108.42)
(-87.3076 6044.14 448.372 -4487.07 -640.329 5108.51)
(-2287.36 6432.04 552.748 -2287.36 -552.748 5108.34)
(-4487.07 6044.14 640.329 -87.3076 -448.372 5108.51)
(-6421.71 4927.23 708.458 1847.14 -330.368 5108.42)
(-7857.54 3216.02 755.063 3283.06 -202.327 5108.47)
(-8621.58 1116.91 778.721 4047.05 -68.1324 5108.45)
(-8621.58 -1116.91 778.721 4047.05 68.1324 5108.45)
(-7857.54 -3216.02 755.063 3283.06 202.327 5108.47)
(-6421.71 -4927.23 708.458 1847.14 330.368 5108.42)
(-4487.07 -6044.14 640.329 -87.3076 448.372 5108.51)
(-2287.36 -6432.04 552.748 -2287.36 552.748 5108.34)
(-87.3076 -6044.14 448.372 -4487.07 640.329 5108.51)
(1847.14 -4927.23 330.368 -6421.71 708.458 5108.42)
(3283.06 -3216.02 202.327 -7857.54 755.063 5108.47)
(4047.05 -1116.91 68.1324 -8621.58 778.721 5108.45)
(4047.05 1116.91 -68.1324 -8621.58 778.721 5108.45)
(3283.06 3216.02 -202.327 -7857.54 755.063 5108.47)
(1847.14 4927.23 -330.368 -6421.71 708.458 5108.42)
(-87.3076 6044.14 -448.372 -4487.07 640.329 5108.51)
(-2287.36 6432.04 -552.748 -2287.36 552.748 5108.34)
(-4487.07 6044.14 -640.329 -87.3076 448.372 5108.51)
(-6421.71 4927.23 -708.458 1847.14 330.368 5108.42)
(-7857.54 3216.02 -755.063 3283.06 202.327 5108.47)
(-8621.58 1116.91 -778.721 4047.05 68.1324 5108.45)
(-3561.78 -1917 -1118.83 18181.9 -97.8896 14124.2)
(-2250.26 -5519.78 -1084.84 16870.8 -290.691 14124.4)
(214.01 -8456.79 -1017.87 14406.2 -474.658 14124.2)
(3534.32 -10373.8 -919.993 11085.8 -644.193 14124.2)
(7310.2 -11039.6 -794.159 7310.2 -794.159 14124.3)
(11085.8 -10373.8 -644.193 3534.32 -919.993 14124.2)
(14406.2 -8456.79 -474.658 214.01 -1017.87 14124.2)
(16870.8 -5519.78 -290.691 -2250.26 -1084.84 14124.4)
(18181.9 -1917 -97.8896 -3561.78 -1118.83 14124.2)
(18181.9 1917 97.8896 -3561.78 -1118.83 14124.2)
(16870.8 5519.78 290.691 -2250.26 -1084.84 14124.4)
(14406.2 8456.79 474.658 214.01 -1017.87 14124.2)
(11085.8 10373.8 644.193 3534.32 -919.993 14124.2)
(7310.2 11039.6 794.159 7310.2 -794.159 14124.3)
(3534.32 10373.8 919.993 11085.8 -644.193 14124.2)
(214.01 8456.79 1017.87 14406.2 -474.658 14124.2)
(-2250.26 5519.78 1084.84 16870.8 -290.691 14124.4)
(-3561.78 1917 1118.83 18181.9 -97.8896 14124.2)
(-3561.78 -1917 1118.83 18181.9 97.8896 14124.2)
(-2250.26 -5519.78 1084.84 16870.8 290.691 14124.4)
(214.01 -8456.79 1017.87 14406.2 474.658 14124.2)
(3534.32 -10373.8 919.993 11085.8 644.193 14124.2)
(7310.2 -11039.6 794.159 7310.2 794.159 14124.3)
(11085.8 -10373.8 644.193 3534.32 919.993 14124.2)
(14406.2 -8456.79 474.658 214.01 1017.87 14124.2)
(16870.8 -5519.78 290.691 -2250.26 1084.84 14124.4)
(18181.9 -1917 97.8896 -3561.78 1118.83 14124.2)
(18181.9 1917 -97.8896 -3561.78 1118.83 14124.2)
(16870.8 5519.78 -290.691 -2250.26 1084.84 14124.4)
(14406.2 8456.79 -474.658 214.01 1017.87 14124.2)
(11085.8 10373.8 -644.193 3534.32 919.993 14124.2)
(7310.2 11039.6 -794.159 7310.2 794.159 14124.3)
(3534.32 10373.8 -919.993 11085.8 644.193 14124.2)
(214.01 8456.79 -1017.87 14406.2 474.658 14124.2)
(-2250.26 5519.78 -1084.84 16870.8 290.691 14124.4)
(-3561.78 1917 -1118.83 18181.9 97.8896 14124.2)
(27333.7 -4176.04 -2001.67 74700.7 -175.128 54716)
(30190.2 -12024.5 -1940.85 71844.1 -520.066 54716)
(35558.8 -18422.5 -1821.06 66475.4 -849.2 54716)
(42791.9 -22598.6 -1645.94 59242.3 -1152.51 54716)
(51017 -24048.9 -1420.81 51017 -1420.81 54715.8)
(59242.3 -22598.6 -1152.51 42791.9 -1645.94 54716)
(66475.4 -18422.5 -849.2 35558.8 -1821.06 54716)
(71844.1 -12024.5 -520.066 30190.2 -1940.85 54716)
(74700.7 -4176.04 -175.128 27333.7 -2001.67 54716)
(74700.7 4176.04 175.128 27333.7 -2001.67 54716)
(71844.1 12024.5 520.066 30190.2 -1940.85 54716)
(66475.4 18422.5 849.2 35558.8 -1821.06 54716)
(59242.3 22598.6 1152.51 42791.9 -1645.94 54716)
(51017 24048.9 1420.81 51017 -1420.81 54715.8)
(42791.9 22598.6 1645.94 59242.3 -1152.51 54716)
(35558.8 18422.5 1821.06 66475.4 -849.2 54716)
(30190.2 12024.5 1940.85 71844.1 -520.066 54716)
(27333.7 4176.04 2001.67 74700.7 -175.128 54716)
(27333.7 -4176.04 2001.67 74700.7 175.128 54716)
(30190.2 -12024.5 1940.85 71844.1 520.066 54716)
(35558.8 -18422.5 1821.06 66475.4 849.2 54716)
(42791.9 -22598.6 1645.94 59242.3 1152.51 54716)
(51017 -24048.9 1420.81 51017 1420.81 54715.8)
(59242.3 -22598.6 1152.51 42791.9 1645.94 54716)
(66475.4 -18422.5 849.2 35558.8 1821.06 54716)
(71844.1 -12024.5 520.066 30190.2 1940.85 54716)
(74700.7 -4176.04 175.128 27333.7 2001.67 54716)
(74700.7 4176.04 -175.128 27333.7 2001.67 54716)
(71844.1 12024.5 -520.066 30190.2 1940.85 54716)
(66475.4 18422.5 -849.2 35558.8 1821.06 54716)
(59242.3 22598.6 -1152.51 42791.9 1645.94 54716)
(51017 24048.9 -1420.81 51017 1420.81 54715.8)
(42791.9 22598.6 -1645.94 59242.3 1152.51 54716)
(35558.8 18422.5 -1821.06 66475.4 849.2 54716)
(30190.2 12024.5 -1940.85 71844.1 520.066 54716)
(27333.7 4176.04 -2001.67 74700.7 175.128 54716)
(-9169.65 -1263.38 1062.56 5160.36 92.9592 4141.91)
(-8305.23 -3637.77 1030.28 4296.36 276.054 4142.12)
(-6681.13 -5573.39 966.688 2672.1 450.765 4142.03)
(-4492.81 -6836.77 873.724 483.944 611.777 4142.11)
(-2004.35 -7275.54 754.208 -2004.35 754.208 4142.19)
(483.944 -6836.77 611.777 -4492.81 873.724 4142.11)
(2672.1 -5573.39 450.765 -6681.13 966.688 4142.03)
(4296.36 -3637.77 276.054 -8305.23 1030.28 4142.12)
(5160.36 -1263.38 92.9592 -9169.65 1062.56 4141.91)
(5160.36 1263.38 -92.9592 -9169.65 1062.56 4141.91)
(4296.36 3637.77 -276.054 -8305.23 1030.28 4142.12)
(2672.1 5573.39 -450.765 -6681.13 966.688 4142.03)
(483.944 6836.77 -611.777 -4492.81 873.724 4142.11)
(-2004.35 7275.54 -754.208 -2004.35 754.208 4142.19)
(-4492.81 6836.77 -873.724 483.944 611.777 4142.11)
(-6681.13 5573.39 -966.688 2672.1 450.765 4142.03)
(-8305.23 3637.77 -1030.28 4296.36 276.054 4142.12)
(-9169.65 1263.38 -1062.56 5160.36 92.9592 4141.91)
(-9169.65 -1263.38 -1062.56 5160.36 -92.9592 4141.91)
(-8305.23 -3637.77 -1030.28 4296.36 -276.054 4142.12)
(-6681.13 -5573.39 -966.688 2672.1 -450.765 4142.03)
(-4492.81 -6836.77 -873.724 483.944 -611.777 4142.11)
(-2004.35 -7275.54 -754.208 -2004.35 -754.208 4142.19)
(483.944 -6836.77 -611.777 -4492.81 -873.724 4142.11)
(2672.1 -5573.39 -450.765 -6681.13 -966.688 4142.03)
(4296.36 -3637.77 -276.054 -8305.23 -1030.28 4142.12)