/*--------------------------------*- C++ -*----------------------------------*\
| =========                 |                                                 |
| \\      /  F ield         | OpenFOAM: The Open Source CFD Toolbox           |
|  \\    /   O peration     | Version:  2412                                  |
|   \\  /    A nd           | Website:  www.openfoam.com                      |
|    \\/     M anipulation  |                                                 |
\*---------------------------------------------------------------------------*/
FoamFile
{
    version     2.0;
    format      ascii;
    arch        "LSB;label=32;scalar=64";
    class       volScalarField;
    location    "0.030011";
    object      activationTime;
}
// * * * * * * * * * * * * * * * * * * * * * * * * * * * * * * * * * * * * * //

dimensions      [0 0 1 0 0 0 0];

internalField   nonuniform List<scalar> 
8670
(
0.0253939
0.0256787
0.0259626
0.026247
0.0265332
0.0268215
0.0271121
0.0274047
0.0276993
0.0279954
0.0282938
0.0285948
0.0288976
0.0292029
0.0295043
0.0298097
0
0
0
0
0
0
0
0
0
0
0
0
0
0
0
0
0.0254055
0.0256849
0.0259723
0.0262591
0.0265465
0.0268349
0.0271254
0.0274181
0.0277132
0.02801
0.0283089
0.0286102
0.0289135
0.0292132
0.0295171
0.0298238
0
0
0
0
0
0
0
0
0
0
0
0
0
0
0
0
0.025428
0.0257097
0.0259916
0.0262751
0.0265623
0.0268562
0.0271502
0.0274448
0.0277413
0.0280342
0.02833
0.028629
0.0289311
0.029235
0.0295412
0.0298435
0
0
0
0
0
0
0
0
0
0
0
0
0
0
0
0
0.0254616
0.0257426
0.0260236
0.0263133
0.0266023
0.0268921
0.0271837
0.0274774
0.0277728
0.0280703
0.0283701
0.0286656
0.0289647
0.0292669
0.0295719
0.0298791
0
0
0
0
0
0
0
0
0
0
0
0
0
0
0
0
0.0255076
0.0257889
0.0260704
0.0263545
0.0266461
0.0269374
0.0272297
0.0275236
0.0278191
0.0281168
0.0284113
0.0287085
0.0290088
0.0293115
0.0296165
0.0299238
0
0
0
0
0
0
0
0
0
0
0
0
0
0
0
0
0.0255664
0.0258516
0.0261361
0.0264208
0.0267068
0.0269949
0.0272846
0.0275767
0.027871
0.0281672
0.0284654
0.0287656
0.0290674
0.0293715
0.0296719
0.0299764
0
0
0
0
0
0
0
0
0
0
0
0
0
0
0
0
0.0256475
0.0259316
0.0262148
0.0264983
0.0267833
0.0270708
0.0273605
0.0276521
0.0279458
0.0282413
0.0285381
0.0288369
0.0291387
0.0294422
0.0297479
0
0
0
0
0
0
0
0
0
0
0
0
0
0
0
0
0
0.0257507
0.0260284
0.0263093
0.0265965
0.0268828
0.0271697
0.0274581
0.0277486
0.0280414
0.028336
0.0286327
0.0289316
0.0292322
0.0295351
0.0298409
0
0
0
0
0
0
0
0
0
0
0
0
0
0
0
0
0
0.0258692
0.026146
0.0264307
0.0267145
0.0269987
0.0272838
0.0275718
0.0278619
0.0281592
0.0284513
0.0287455
0.029042
0.0293406
0.0296418
0.0299454
0
0
0
0
0
0
0
0
0
0
0
0
0
0
0
0
0
0.0260164
0.0262938
0.0265708
0.0268568
0.0271416
0.0274265
0.0277127
0.0280009
0.0282916
0.028584
0.0288783
0.0291747
0.0294728
0.0297729
0
0
0
0
0
0
0
0
0
0
0
0
0
0
0
0
0
0
0.0261886
0.0264675
0.026744
0.0270228
0.027308
0.0275922
0.0278769
0.0281634
0.028453
0.0287439
0.0290366
0.0293311
0.0296274
0.0299249
0
0
0
0
0
0
0
0
0
0
0
0
0
0
0
0
0
0
0.0263972
0.0266732
0.0269467
0.0272283
0.027508
0.0277874
0.0280706
0.0283597
0.0286484
0.0289379
0.0292288
0.029521
0.029815
0
0
0
0
0
0
0
0
0
0
0
0
0
0
0
0
0
0
0
0.0266443
0.0269133
0.0271888
0.0274626
0.0277376
0.0280195
0.0282998
0.0285813
0.0288714
0.0291596
0.0294478
0.0297369
0
0
0
0
0
0
0
0
0
0
0
0
0
0
0
0
0
0
0
0
0.0269028
0.0271715
0.0274388
0.0277102
0.0279821
0.0282584
0.0285347
0.0288177
0.029099
0.0293804
0.0296648
0.0299556
0
0
0
0
0
0
0
0
0
0
0
0
0
0
0
0
0
0
0
0
0.0271012
0.0273641
0.0276327
0.0278978
0.0281669
0.0284373
0.0287105
0.0289855
0.0292647
0.0295433
0.029824
0
0
0
0
0
0
0
0
0
0
0
0
0
0
0
0
0
0
0
0
0
0.0248108
0.0251057
0.0254026
0.0257021
0.0260042
0.0263086
0.0266095
0.0269144
0.0272226
0.027528
0.0278363
0.0281487
0.0284572
0.0287713
0.0290824
0.0293976
0.029711
0
0
0
0
0
0
0
0
0
0
0
0
0
0
0
0.0248245
0.0251193
0.0254165
0.0257162
0.0260183
0.0263169
0.0266198
0.0269258
0.0272342
0.0275394
0.0278489
0.0281618
0.0284716
0.0287851
0.0290961
0.0294118
0.0297244
0
0
0
0
0
0
0
0
0
0
0
0
0
0
0
0.0248413
0.0251363
0.0254333
0.0257321
0.0260337
0.026337
0.0266425
0.0269446
0.0272512
0.0275605
0.0278669
0.0281778
0.028492
0.0288028
0.0291177
0.0294299
0.029747
0
0
0
0
0
0
0
0
0
0
0
0
0
0
0
0.0248823
0.0251785
0.0254717
0.0257678
0.0260667
0.0263692
0.0266739
0.0269814
0.0272849
0.0275927
0.0279037
0.0282109
0.0285233
0.0288326
0.0291472
0.0294593
0.0297752
0
0
0
0
0
0
0
0
0
0
0
0
0
0
0
0.0249295
0.0252214
0.0255164
0.0258134
0.0261135
0.0264158
0.0267206
0.0270278
0.0273317
0.0276393
0.0279503
0.0282578
0.0285698
0.0288783
0.0291924
0.0295035
0.0298194
0
0
0
0
0
0
0
0
0
0
0
0
0
0
0
0.0249887
0.025283
0.0255795
0.0258783
0.0261791
0.0264827
0.026783
0.0270872
0.0273945
0.0276985
0.0280066
0.028318
0.0286256
0.0289387
0.029249
0.029563
0.0298808
0
0
0
0
0
0
0
0
0
0
0
0
0
0
0
0.0250679
0.0253619
0.0256577
0.0259561
0.026257
0.02656
0.0268597
0.0271627
0.0274694
0.0277782
0.0280835
0.0283933
0.0287058
0.0290152
0.0293286
0.0296392
0.0299551
0
0
0
0
0
0
0
0
0
0
0
0
0
0
0
0.0251723
0.0254662
0.0257622
0.0260608
0.0263556
0.0266541
0.0269558
0.0272599
0.0275662
0.0278691
0.0281765
0.0284869
0.0287936
0.0291058
0.0294205
0.0297318
0
0
0
0
0
0
0
0
0
0
0
0
0
0
0
0
0.0252932
0.0255861
0.025881
0.0261782
0.0264772
0.026773
0.0270719
0.0273743
0.0276795
0.0279868
0.0282902
0.0285985
0.0289097
0.0292169
0.0295289
0.0298381
0
0
0
0
0
0
0
0
0
0
0
0
0
0
0
0
0.0254377
0.0257283
0.0260208
0.0263153
0.0266119
0.0269105
0.0272111
0.027514
0.0278188
0.0281201
0.0284252
0.0287334
0.0290386
0.0293473
0.0296594
0.0299676
0
0
0
0
0
0
0
0
0
0
0
0
0
0
0
0
0.0256247
0.0259121
0.0262014
0.026493
0.0267871
0.0270829
0.027381
0.0276817
0.0279843
0.0282837
0.0285856
0.0288918
0.0292004
0.0295047
0.0298134
0
0
0
0
0
0
0
0
0
0
0
0
0
0
0
0
0
0.02584
0.0261254
0.0264121
0.0267007
0.0269917
0.0272843
0.0275793
0.0278767
0.0281767
0.0284781
0.0287814
0.0290809
0.0293834
0.02969
0.0299984
0
0
0
0
0
0
0
0
0
0
0
0
0
0
0
0
0
0.0260911
0.0263735
0.0266561
0.0269416
0.0272351
0.027528
0.027821
0.0281153
0.0284116
0.0287039
0.0289993
0.029297
0.0295979
0.0299008
0
0
0
0
0
0
0
0
0
0
0
0
0
0
0
0
0
0
0.0263691
0.0266443
0.0269261
0.0272063
0.0274883
0.0277732
0.0280645
0.0283552
0.0286465
0.0289389
0.0292328
0.0295281
0.0298252
0
0
0
0
0
0
0
0
0
0
0
0
0
0
0
0
0
0
0
0.026581
0.0268518
0.0271295
0.0274045
0.0276816
0.027964
0.0282456
0.0285292
0.0288142
0.0291063
0.0293979
0.0296901
0.0299836
0
0
0
0
0
0
0
0
0
0
0
0
0
0
0
0
0
0
0
0.0243187
0.0246279
0.0249339
0.025245
0.0255592
0.0258707
0.0261862
0.0264991
0.026817
0.0271325
0.0274464
0.0277661
0.0280829
0.0284056
0.0287252
0.0290438
0.0293688
0.0296907
0.030011
0
0
0
0
0
0
0
0
0
0
0
0
0
0.0243302
0.024635
0.0249441
0.0252566
0.0255657
0.0258803
0.0261912
0.0265078
0.0268212
0.0271404
0.0274559
0.0277769
0.0280953
0.0284125
0.0287352
0.0290549
0.0293751
0.0297002
0
0
0
0
0
0
0
0
0
0
0
0
0
0
0.0243505
0.0246587
0.0249698
0.0252779
0.0255903
0.0258997
0.0262146
0.0265264
0.0268441
0.027158
0.0274782
0.027795
0.028117
0.0284364
0.028754
0.0290783
0.0293995
0.0297189
0
0
0
0
0
0
0
0
0
0
0
0
0
0
0.0243819
0.024689
0.0249998
0.0253076
0.0256199
0.0259352
0.0262477
0.0265643
0.0268782
0.0271917
0.0275097
0.0278254
0.0281465
0.0284648
0.0287887
0.0291098
0.0294287
0.0297545
0
0
0
0
0
0
0
0
0
0
0
0
0
0
0.0244302
0.024738
0.0250484
0.0253554
0.0256676
0.0259771
0.0262917
0.0266044
0.0269209
0.0272353
0.0275541
0.0278698
0.0281913
0.0285098
0.0288285
0.0291513
0.0294712
0.0297971
0
0
0
0
0
0
0
0
0
0
0
0
0
0
0.0244964
0.0248002
0.0251081
0.0254195
0.0257273
0.0260403
0.0263563
0.0266694
0.0269867
0.0273017
0.0276147
0.0279337
0.0282496
0.0285715
0.0288901
0.0292084
0.029532
0.0298528
0
0
0
0
0
0
0
0
0
0
0
0
0
0
0.0245757
0.0248841
0.0251893
0.025499
0.0258116
0.0261215
0.0264354
0.026747
0.0270634
0.0273768
0.0276956
0.0280115
0.0283263
0.0286462
0.0289635
0.029287
0.029607
0.0299254
0
0
0
0
0
0
0
0
0
0
0
0
0
0
0.0246782
0.0249821
0.0252894
0.0256002
0.025908
0.0262202
0.0265291
0.0268434
0.0271547
0.0274713
0.0277846
0.0281038
0.0284192
0.0287403
0.0290578
0.0293752
0.0296973
0
0
0
0
0
0
0
0
0
0
0
0
0
0
0
0.0248027
0.0251048
0.0254109
0.0257204
0.0260261
0.0263372
0.0266511
0.0269616
0.0272763
0.0275882
0.0279051
0.0282193
0.0285381
0.0288543
0.0291688
0.0294891
0.0298062
0
0
0
0
0
0
0
0
0
0
0
0
0
0
0
0.0249503
0.0252557
0.0255578
0.0258636
0.0261728
0.0264789
0.0267891
0.0271026
0.027412
0.0277266
0.0280375
0.0283545
0.0286676
0.0289864
0.0293009
0.0296213
0.0299381
0
0
0
0
0
0
0
0
0
0
0
0
0
0
0
0.0251377
0.0254366
0.025739
0.0260439
0.0263511
0.0266543
0.0269623
0.0272734
0.0275803
0.0278926
0.0282016
0.0285156
0.0288327
0.0291465
0.0294587
0.0297756
0
0
0
0
0
0
0
0
0
0
0
0
0
0
0
0
0.025355
0.0256531
0.0259533
0.0262559
0.0265606
0.026861
0.0271654
0.0274733
0.0277837
0.0280901
0.0284001
0.028707
0.029019
0.0293344
0.0296458
0.0299618
0
0
0
0
0
0
0
0
0
0
0
0
0
0
0
0
0.0256208
0.0259135
0.0262085
0.026506
0.0268055
0.0271071
0.0274047
0.0277055
0.0280105
0.0283172
0.0286202
0.0289269
0.029237
0.0295437
0.0298538
0
0
0
0
0
0
0
0
0
0
0
0
0
0
0
0
0
0.0259097
0.0261957
0.0264836
0.0267741
0.0270666
0.0273611
0.0276565
0.0279534
0.0282528
0.0285548
0.0288581
0.0291579
0.0294599
0.0297647
0
0
0
0
0
0
0
0
0
0
0
0
0
0
0
0
0
0
0.0261316
0.0264115
0.0266959
0.0269813
0.0272676
0.0275555
0.0278452
0.0281366
0.02843
0.0287252
0.0290223
0.029321
0.0296207
0.0299218
0
0
0
0
0
0
0
0
0
0
0
0
0
0
0
0
0
0
0.0235877
0.0239064
0.0242217
0.0245427
0.024861
0.0251788
0.0255016
0.0258217
0.0261425
0.0264681
0.0267912
0.0271133
0.0274417
0.0277673
0.0280913
0.0284151
0.028746
0.0290745
0.0294015
0.0297276
0
0
0
0
0
0
0
0
0
0
0
0
0
0.023601
0.0239197
0.0242361
0.0245511
0.0248718
0.0251901
0.0255141
0.0258355
0.0261549
0.0264807
0.0268047
0.0271268
0.0274487
0.0277772
0.0281031
0.0284274
0.0287514
0.029083
0.0294121
0.0297395
0
0
0
0
0
0
0
0
0
0
0
0
0
0.0236236
0.0239386
0.0242583
0.024576
0.0248915
0.0252137
0.025533
0.0258521
0.026177
0.0264992
0.0268202
0.0271478
0.0274725
0.027796
0.0281195
0.0284493
0.0287764
0.029102
0.0294271
0.0297535
0
0
0
0
0
0
0
0
0
0
0
0
0
0.0236552
0.0239686
0.0242885
0.0246051
0.0249269
0.0252461
0.0255637
0.025888
0.0262097
0.0265297
0.0268563
0.0271807
0.0275035
0.027826
0.0281547
0.028481
0.0288059
0.0291301
0.0294614
0.0297906
0
0
0
0
0
0
0
0
0
0
0
0
0
0.0237039
0.0240176
0.024337
0.0246538
0.0249698
0.0252911
0.0256099
0.0259348
0.026257
0.0265771
0.026898
0.0272237
0.0275473
0.0278698
0.0281992
0.0285257
0.0288505
0.0291747
0.0295004
0.0298315
0
0
0
0
0
0
0
0
0
0
0
0
0
0.0237656
0.0240834
0.0243984
0.0247184
0.0250364
0.025352
0.0256744
0.0259938
0.0263132
0.0266382
0.0269604
0.0272814
0.0276088
0.0279334
0.0282569
0.0285807
0.0289105
0.0292377
0.029563
0.0298877
0
0
0
0
0
0
0
0
0
0
0
0
0
0.0238462
0.0241636
0.0244777
0.0247972
0.0251142
0.0254303
0.0257514
0.0260697
0.0263943
0.0267162
0.0270362
0.0273626
0.0276867
0.0280093
0.0283314
0.0286603
0.0289864
0.029311
0.0296347
0.0299654
0
0
0
0
0
0
0
0
0
0
0
0
0
0.0239511
0.0242625
0.02458
0.0248941
0.0252138
0.0255307
0.0258528
0.0261724
0.0264896
0.0268137
0.0271352
0.027455
0.0277814
0.0281051
0.0284268
0.0287489
0.0290774
0.0294031
0.029727
0
0
0
0
0
0
0
0
0
0
0
0
0
0
0.0240794
0.0243895
0.0247056
0.0250181
0.0253365
0.0256517
0.0259727
0.0262906
0.026607
0.0269295
0.0272489
0.0275739
0.0278966
0.0282175
0.0285382
0.0288646
0.0291882
0.0295101
0.0298388
0
0
0
0
0
0
0
0
0
0
0
0
0
0
0.0242317
0.0245463
0.0248574
0.025173
0.0254857
0.0258034
0.0261181
0.0264381
0.0267551
0.0270703
0.0273919
0.0277107
0.028035
0.0283566
0.0286757
0.0289959
0.0293207
0.0296428
0.0299645
0
0
0
0
0
0
0
0
0
0
0
0
0
0
0.0244265
0.0247343
0.0250462
0.0253547
0.0256683
0.0259789
0.0262945
0.0266072
0.026925
0.0272391
0.0275592
0.0278756
0.028198
0.0285171
0.0288343
0.029158
0.0294782
0.0297972
0
0
0
0
0
0
0
0
0
0
0
0
0
0
0
0.0246533
0.0249609
0.0252648
0.0255733
0.0258848
0.0261923
0.0265052
0.0268146
0.0271284
0.0274457
0.0277599
0.0280725
0.0283896
0.0287046
0.0290243
0.0293405
0.0296631
0.0299818
0
0
0
0
0
0
0
0
0
0
0
0
0
0
0
0.0249256
0.0252243
0.0255266
0.0258314
0.0261387
0.0264419
0.0267498
0.0270607
0.0273668
0.0276789
0.0279877
0.0282994
0.0286154
0.0289268
0.0292436
0.0295563
0.0298749
0
0
0
0
0
0
0
0
0
0
0
0
0
0
0
0
0.0252299
0.0255233
0.025819
0.0261165
0.0264162
0.026718
0.0270217
0.0273206
0.0276232
0.0279294
0.028238
0.0285416
0.0288506
0.0291571
0.0294654
0.029779
0
0
0
0
0
0
0
0
0
0
0
0
0
0
0
0
0
0.0254715
0.0257577
0.0260458
0.0263353
0.0266266
0.0269198
0.027215
0.0275117
0.0278099
0.0281099
0.0284115
0.0287157
0.0290231
0.029325
0.0296292
0.0299381
0
0
0
0
0
0
0
0
0
0
0
0
0
0
0
0
0
0.0232428
0.0235671
0.0238902
0.0242138
0.0245429
0.0248697
0.0251952
0.02552
0.025852
0.026182
0.0265107
0.0268387
0.0271664
0.0274941
0.0278231
0.0281575
0.0284899
0.0288211
0.0291518
0.0294821
0.0298122
0
0
0
0
0
0
0
0
0
0
0
0
0.0232487
0.0235758
0.0239008
0.0242247
0.0245493
0.0248791
0.0252066
0.0255326
0.0258583
0.0261855
0.0265176
0.0268476
0.0271767
0.0275054
0.0278341
0.0281633
0.0284937
0.0288288
0.029162
0.0294938
0.029825
0
0
0
0
0
0
0
0
0
0
0
0
0.0232729
0.0235949
0.0239179
0.0242458
0.0245715
0.0248961
0.0252219
0.0255535
0.0258829
0.0262108
0.0265381
0.0268651
0.0271935
0.027527
0.0278584
0.0281885
0.0285179
0.0288472
0.0291767
0.0295066
0.0298378
0
0
0
0
0
0
0
0
0
0
0
0
0.0233049
0.0236262
0.0239532
0.0242778
0.0246018
0.0249268
0.0252571
0.0255855
0.0259127
0.0262392
0.0265662
0.0268991
0.0272298
0.0275592
0.0278879
0.0282167
0.0285458
0.0288755
0.0292063
0.0295419
0.0298761
0
0
0
0
0
0
0
0
0
0
0
0
0.0233508
0.0236722
0.0240002
0.0243254
0.0246497
0.0249738
0.0253049
0.0256335
0.0259606
0.0262869
0.0266129
0.0269404
0.0272728
0.0276031
0.0279322
0.0282609
0.0285899
0.0289193
0.0292501
0.0295861
0.0299205
0
0
0
0
0
0
0
0
0
0
0
0
0.0234166
0.0237406
0.024063
0.0243851
0.0247138
0.0250399
0.0253647
0.025689
0.0260203
0.0263497
0.0266776
0.0270048
0.0273317
0.0276591
0.0279932
0.028325
0.0286553
0.0289847
0.0293138
0.0296428
0.0299722
0
0
0
0
0
0
0
0
0
0
0
0
0.0234988
0.0238221
0.0241437
0.0244657
0.0247932
0.0251183
0.0254421
0.0257665
0.0260968
0.0264251
0.0267523
0.0270789
0.0274059
0.027739
0.0280701
0.0283997
0.0287287
0.0290572
0.0293854
0.0297141
0
0
0
0
0
0
0
0
0
0
0
0
0
0.0236005
0.0239206
0.024246
0.0245687
0.0248904
0.0252191
0.0255448
0.0258687
0.026192
0.0265224
0.0268508
0.0271777
0.0275039
0.0278301
0.0281579
0.0284905
0.0288209
0.0291497
0.0294778
0.0298056
0
0
0
0
0
0
0
0
0
0
0
0
0
0.0237306
0.0240487
0.0243732
0.0246945
0.0250149
0.0253421
0.0256663
0.0259886
0.0263115
0.0266402
0.0269667
0.0272918
0.0276168
0.0279482
0.028277
0.0286042
0.0289307
0.0292569
0.0295848
0.0299177
0
0
0
0
0
0
0
0
0
0
0
0
0
0.0238859
0.0242082
0.0245278
0.024846
0.0251701
0.0254911
0.025811
0.0261373
0.0264606
0.0267823
0.0271107
0.0274364
0.0277605
0.0280842
0.0284092
0.0287388
0.029066
0.0293915
0.0297165
0
0
0
0
0
0
0
0
0
0
0
0
0
0
0.0240833
0.0243985
0.0247186
0.025036
0.0253515
0.0256738
0.0259924
0.0263107
0.0266343
0.0269549
0.0272759
0.0276014
0.0279246
0.0282466
0.028575
0.0289004
0.0292238
0.0295467
0.0298764
0
0
0
0
0
0
0
0
0
0
0
0
0
0
0.0243149
0.0246296
0.0249418
0.0252587
0.0255722
0.0258912
0.0262071
0.0265213
0.0268412
0.0271578
0.0274807
0.0278005
0.0281189
0.028443
0.0287641
0.0290844
0.0294106
0.0297334
0
0
0
0
0
0
0
0
0
0
0
0
0
0
0
0.0245899
0.0248976
0.0252088
0.0255165
0.0258284
0.0261441
0.0264558
0.0267713
0.0270836
0.0274007
0.0277149
0.0280286
0.0283459
0.0286618
0.0289824
0.0292992
0.0296227
0.0299424
0
0
0
0
0
0
0
0
0
0
0
0
0
0
0
0.0249039
0.0252058
0.0255103
0.0258098
0.0261132
0.0264209
0.0267249
0.0270313
0.0273424
0.0276499
0.0279604
0.0282753
0.0285845
0.0288998
0.0292105
0.0295269
0.0298395
0
0
0
0
0
0
0
0
0
0
0
0
0
0
0
0
0.0251498
0.0254466
0.0257443
0.0260372
0.0263325
0.0266303
0.0269299
0.0272315
0.0275348
0.0278423
0.0281453
0.0284507
0.0287598
0.0290669
0.0293754
0.0296885
0.0299977
0
0
0
0
0
0
0
0
0
0
0
0
0
0
0
0
0.0229534
0.0232868
0.0236184
0.023949
0.0242791
0.0246088
0.0249384
0.025268
0.0255988
0.025935
0.0262696
0.0266031
0.0269365
0.02727
0.0276032
0.0279362
0.0282689
0.0286016
0.0289347
0.0292678
0.0296008
0.0299338
0
0
0
0
0
0
0
0
0
0
0
0.0229646
0.0232928
0.0236273
0.0239598
0.0242909
0.0246212
0.0249513
0.0252814
0.0256116
0.025942
0.0262734
0.0266055
0.0269428
0.0272785
0.0276131
0.0279472
0.0282809
0.0286144
0.0289478
0.0292812
0.0296146
0.0299481
0
0
0
0
0
0
0
0
0
0
0
0.0229866
0.0233158
0.023645
0.0239743
0.0243039
0.0246346
0.0249709
0.0253053
0.0256384
0.0259709
0.0263028
0.0266344
0.0269661
0.0272979
0.0276301
0.0279626
0.0282956
0.0286288
0.0289623
0.0292962
0.0296305
0.0299649
0
0
0
0
0
0
0
0
0
0
0
0.0230163
0.0233445
0.0236728
0.0240026
0.0243372
0.0246703
0.0250024
0.0253342
0.0256657
0.0259971
0.0263284
0.0266597
0.0269911
0.027323
0.0276556
0.0279936
0.02833
0.0286658
0.0290012
0.0293364
0.0296716
0.0300068
0
0
0
0
0
0
0
0
0
0
0
0.0230632
0.0233918
0.0237203
0.0240492
0.0243847
0.0247182
0.0250504
0.0253819
0.025713
0.0260438
0.0263746
0.0267055
0.0270366
0.027368
0.0277002
0.028033
0.0283714
0.0287083
0.0290444
0.0293801
0.0297156
0
0
0
0
0
0
0
0
0
0
0
0
0.0231226
0.0234557
0.0237869
0.0241168
0.0244463
0.0247758
0.0251052
0.0254349
0.0257658
0.0261018
0.026436
0.0267695
0.0271026
0.0274351
0.0277671
0.0280994
0.0284317
0.0287642
0.0290973
0.0294305
0.0297636
0
0
0
0
0
0
0
0
0
0
0
0
0.023206
0.0235384
0.0238688
0.024198
0.0245265
0.0248548
0.0251834
0.0255133
0.0258483
0.0261819
0.0265147
0.0268472
0.0271795
0.0275116
0.0278435
0.0281755
0.0285074
0.0288392
0.0291712
0.029504
0.029837
0
0
0
0
0
0
0
0
0
0
0
0
0.0233157
0.0236421
0.0239683
0.0242961
0.0246285
0.0249588
0.0252878
0.0256161
0.0259444
0.0262733
0.026609
0.0269427
0.0272752
0.027607
0.0279383
0.0282697
0.0286008
0.0289319
0.0292633
0.0295951
0.029927
0
0
0
0
0
0
0
0
0
0
0
0
0.0234466
0.0237719
0.0240966
0.0244227
0.024754
0.0250831
0.0254106
0.0257374
0.0260642
0.0263979
0.0267295
0.0270602
0.0273904
0.0277204
0.0280502
0.02838
0.0287098
0.0290408
0.0293769
0.029711
0
0
0
0
0
0
0
0
0
0
0
0
0
0.0236046
0.0239271
0.0242564
0.024583
0.0249078
0.0252318
0.0255571
0.025888
0.0262164
0.0265437
0.0268702
0.0271969
0.0275302
0.0278611
0.0281904
0.0285188
0.028847
0.0291753
0.0295046
0.0298404
0
0
0
0
0
0
0
0
0
0
0
0
0
0.0237967
0.0241216
0.0244436
0.0247645
0.0250923
0.0254168
0.0257392
0.0260619
0.026391
0.0267176
0.0270425
0.0273665
0.027698
0.0280268
0.0283536
0.0286797
0.0290054
0.0293327
0.0296647
0.029995
0
0
0
0
0
0
0
0
0
0
0
0
0
0.0240336
0.0243504
0.0246728
0.024992
0.0253092
0.0256334
0.025954
0.026273
0.0265989
0.0269218
0.0272427
0.0275704
0.0278955
0.0282187
0.0285411
0.0288705
0.0291967
0.029521
0.029845
0
0
0
0
0
0
0
0
0
0
0
0
0
0
0.0243161
0.0246308
0.0249425
0.0252592
0.0255725
0.0258914
0.0262071
0.0265212
0.026841
0.0271574
0.0274801
0.0277997
0.028118
0.0284417
0.0287623
0.0290826
0.0294082
0.0297305
0
0
0
0
0
0
0
0
0
0
0
0
0
0
0
0.0246332
0.0249378
0.025246
0.0255514
0.025859
0.0261717
0.0264796
0.0267918
0.0271021
0.027415
0.027733
0.0280463
0.0283595
0.0286754
0.0289909
0.0293092
0.0296261
0.0299474
0
0
0
0
0
0
0
0
0
0
0
0
0
0
0
0.024889
0.0251862
0.0254863
0.0257838
0.0260835
0.0263855
0.0266894
0.0269966
0.0273011
0.0276075
0.0279174
0.0282258
0.0285355
0.0288499
0.0291604
0.0294748
0.0297872
0
0
0
0
0
0
0
0
0
0
0
0
0
0
0
0
0.0223898
0.0227225
0.0230555
0.0233886
0.023722
0.0240556
0.024389
0.0247223
0.0250564
0.0253905
0.0257247
0.026059
0.0263936
0.0267336
0.0270726
0.0274053
0.027739
0.0280735
0.0284084
0.028749
0.0290831
0.0294177
0.029753
0
0
0
0
0
0
0
0
0
0
0
0.0224011
0.0227338
0.0230666
0.0233994
0.0237325
0.0240659
0.0243995
0.0247332
0.0250672
0.0254013
0.0257356
0.0260701
0.0264048
0.0267398
0.0270754
0.0274112
0.0277472
0.0280832
0.0284193
0.0287557
0.0290922
0.0294288
0.0297655
0
0
0
0
0
0
0
0
0
0
0
0.0224081
0.0227466
0.0230835
0.0234194
0.0237549
0.02409
0.024425
0.0247598
0.0250947
0.0254296
0.0257646
0.0260997
0.026435
0.0267704
0.0271059
0.0274417
0.0277779
0.0281139
0.02845
0.0287862
0.0291226
0.0294591
0.0297959
0
0
0
0
0
0
0
0
0
0
0
0.0224466
0.0227803
0.0231142
0.0234481
0.0237821
0.0241162
0.0244505
0.0247849
0.0251196
0.0254544
0.0257893
0.0261244
0.0264596
0.0267948
0.0271303
0.0274659
0.0278018
0.0281381
0.0284747
0.0288116
0.0291489
0.0294861
0.0298234
0
0
0
0
0
0
0
0
0
0
0
0.0224944
0.0228288
0.0231629
0.0234968
0.0238306
0.0241645
0.0244984
0.0248325
0.0251668
0.0255012
0.0258357
0.0261704
0.0265052
0.0268403
0.0271757
0.0275111
0.0278467
0.0281826
0.0285189
0.0288555
0.0291927
0.0295298
0.0298668
0
0
0
0
0
0
0
0
0
0
0
0.0225576
0.0228902
0.023223
0.023556
0.0238892
0.0242226
0.0245562
0.0248897
0.0252235
0.0255577
0.0258921
0.0262267
0.0265666
0.0269052
0.0272374
0.0275707
0.0279102
0.0282433
0.0285771
0.0289169
0.0292504
0.0295847
0.0299249
0
0
0
0
0
0
0
0
0
0
0
0.022643
0.0229747
0.0233067
0.0236388
0.0239711
0.0243036
0.0246368
0.0249702
0.0253037
0.0256424
0.0259797
0.0263158
0.0266515
0.0269872
0.027323
0.0276583
0.0279936
0.0283289
0.0286638
0.0289989
0.029334
0.0296691
0.0300043
0
0
0
0
0
0
0
0
0
0
0
0.0227464
0.0230806
0.0234134
0.0237457
0.0240777
0.0244094
0.0247411
0.0250728
0.0254045
0.0257367
0.0260693
0.0264023
0.0267359
0.0270701
0.0274046
0.0277393
0.0280793
0.0284123
0.0287457
0.0290848
0.0294225
0.0297541
0
0
0
0
0
0
0
0
0
0
0
0
0.0228761
0.0232058
0.0235405
0.0238734
0.0242049
0.0245356
0.0248659
0.025196
0.0255263
0.0258568
0.0261882
0.0265206
0.0268579
0.0271934
0.0275282
0.0278627
0.0281968
0.0285305
0.0288642
0.0291982
0.0295322
0.0298658
0
0
0
0
0
0
0
0
0
0
0
0
0.0230399
0.023372
0.0237019
0.0240305
0.0243583
0.0246862
0.0250146
0.0253494
0.0256819
0.0260128
0.026343
0.0266726
0.0270023
0.0273322
0.0276622
0.0279933
0.028325
0.0286615
0.0289963
0.0293299
0.029663
0.0299958
0
0
0
0
0
0
0
0
0
0
0
0
0.0232421
0.0235678
0.0238922
0.0242166
0.0245473
0.0248753
0.0252017
0.0255276
0.0258539
0.0261869
0.0265177
0.0268468
0.0271748
0.0275022
0.0278293
0.028158
0.0284917
0.0288236
0.0291547
0.0294853
0.0298158
0
0
0
0
0
0
0
0
0
0
0
0
0
0.0234839
0.0238026
0.0241279
0.0244502
0.0247712
0.0250932
0.0254197
0.0257435
0.0260657
0.0263957
0.026723
0.0270484
0.0273726
0.0276974
0.0280278
0.0283559
0.0286827
0.029009
0.0293358
0.0296686
0.0299989
0
0
0
0
0
0
0
0
0
0
0
0
0
0.023772
0.024085
0.0244025
0.0247179
0.0250381
0.0253546
0.0256776
0.025997
0.0263146
0.0266389
0.02696
0.0272797
0.0276058
0.0279287
0.0282499
0.028578
0.0289033
0.0292265
0.0295487
0.0298783
0
0
0
0
0
0
0
0
0
0
0
0
0
0
0.0241013
0.0244109
0.0247168
0.0250265
0.0253404
0.0256493
0.0259641
0.0262744
0.0265906
0.0269028
0.0272211
0.0275347
0.0278554
0.0281716
0.0284878
0.0288082
0.0291262
0.02945
0.02977
0
0
0
0
0
0
0
0
0
0
0
0
0
0
0
0.0243679
0.0246661
0.0249661
0.0252681
0.0255747
0.0258766
0.026181
0.0264884
0.0267949
0.0271028
0.0274143
0.027724
0.0280356
0.0283477
0.0286609
0.0289791
0.0292926
0.0296122
0.0299269
0
0
0
0
0
0
0
0
0
0
0
0
0
0
0
0.0221938
0.0225313
0.0228686
0.0232059
0.0235432
0.0238807
0.0242129
0.0245465
0.0248864
0.0252205
0.0255554
0.0258912
0.0262276
0.0265646
0.026902
0.0272395
0.0275769
0.0279145
0.0282521
0.0285899
0.0289281
0.0292664
0.029605
0.0299439
0
0
0
0
0
0
0
0
0
0
0.0222029
0.0225357
0.0228698
0.023205
0.0235408
0.0238771
0.0242137
0.0245503
0.0248872
0.0252243
0.0255616
0.0258992
0.0262368
0.0265744
0.0269121
0.02725
0.0275882
0.0279265
0.0282648
0.0286032
0.0289418
0.0292805
0.0296196
0.029959
0
0
0
0
0
0
0
0
0
0
0.0222113
0.022548
0.0228847
0.0232218
0.0235591
0.0238967
0.0242343
0.0245718
0.0249094
0.0252471
0.025585
0.0259231
0.0262614
0.0265999
0.0269387
0.0272777
0.0276172
0.0279514
0.0282872
0.0286239
0.0289611
0.0292989
0.029637
0.0299753
0
0
0
0
0
0
0
0
0
0
0.0222398
0.022576
0.0229124
0.0232491
0.023586
0.0239231
0.0242605
0.0245985
0.0249368
0.0252749
0.0256128
0.0259506
0.0262885
0.0266265
0.0269648
0.0273033
0.0276421
0.0279811
0.0283203
0.0286599
0.0289998
0.029335
0.0296709
0.0300075
0
0
0
0
0
0
0
0
0
0
0.0222869
0.0226234
0.0229602
0.0232972
0.0236345
0.0239719
0.0243097
0.0246476
0.0249853
0.0253228
0.0256604
0.0259979
0.0263354
0.026673
0.0270108
0.0273489
0.0276874
0.0280261
0.0283652
0.0287047
0.0290447
0.0293791
0.0297146
0
0
0
0
0
0
0
0
0
0
0
0.022363
0.0226999
0.0230367
0.0233735
0.0237104
0.0240474
0.0243846
0.0247168
0.0250507
0.0253908
0.025725
0.02606
0.0263958
0.0267321
0.0270691
0.0274065
0.0277437
0.0280809
0.0284184
0.028756
0.0290939
0.0294318
0.0297696
0
0
0
0
0
0
0
0
0
0
0
0.0224502
0.0227863
0.0231224
0.0234584
0.0237945
0.0241306
0.0244668
0.024803
0.0251391
0.0254756
0.0258123
0.0261439
0.0264772
0.0268169
0.0271561
0.0274894
0.027824
0.0281597
0.0284957
0.0288317
0.0291679
0.0295043
0.0298408
0
0
0
0
0
0
0
0
0
0
0
0.022546
0.0228806
0.0232154
0.0235504
0.0238855
0.0242207
0.024556
0.0248914
0.025227
0.0255627
0.0258987
0.0262345
0.0265705
0.0269064
0.0272424
0.0275784
0.0279144
0.0282505
0.0285866
0.0289228
0.0292592
0.0295956
0.0299319
0
0
0
0
0
0
0
0
0
0
0
0.0226847
0.023017
0.0233493
0.0236818
0.0240146
0.0243476
0.024681
0.0250149
0.0253491
0.0256835
0.026018
0.0263579
0.026691
0.0270247
0.0273642
0.0277025
0.0280345
0.0283677
0.0287069
0.029045
0.0293768
0.0297098
0
0
0
0
0
0
0
0
0
0
0
0
0.0228515
0.0231811
0.0235106
0.0238403
0.0241713
0.0245073
0.0248415
0.0251745
0.025507
0.0258391
0.0261712
0.0265036
0.0268359
0.0271681
0.0275007
0.0278336
0.0281665
0.0284995
0.0288333
0.0291677
0.0295024
0.0298369
0
0
0
0
0
0
0
0
0
0
0
0
0.0230473
0.0233742
0.0237064
0.0240363
0.024365
0.0246936
0.0250221
0.0253509
0.0256809
0.0260153
0.0263478
0.026679
0.0270094
0.0273393
0.027669
0.0279987
0.0283294
0.0286611
0.0289979
0.029333
0.029667
0.0300004
0
0
0
0
0
0
0
0
0
0
0
0
0.0232925
0.0236175
0.0239408
0.0242632
0.0245927
0.0249196
0.0252446
0.025569
0.025894
0.0262254
0.0265545
0.0268821
0.0272089
0.0275355
0.0278637
0.0281965
0.0285271
0.0288563
0.0291852
0.0295139
0.0298429
0
0
0
0
0
0
0
0
0
0
0
0
0
0.023583
0.0239011
0.024217
0.0245391
0.0248585
0.0251776
0.0255014
0.0258224
0.0261433
0.0264694
0.0267928
0.0271148
0.0274438
0.0277696
0.0280933
0.0284163
0.028747
0.0290748
0.0294006
0.0297253
0
0
0
0
0
0
0
0
0
0
0
0
0
0
0.0239186
0.0242268
0.0245392
0.0248478
0.0251623
0.0254731
0.0257892
0.0261022
0.0264202
0.0267352
0.0270561
0.0273727
0.0276904
0.0280115
0.0283298
0.0286543
0.0289754
0.0292948
0.0296209
0.0299435
0
0
0
0
0
0
0
0
0
0
0
0
0
0
0.0241872
0.0244859
0.0247873
0.0250907
0.0253967
0.0257017
0.0260087
0.0263178
0.0266271
0.0269374
0.0272519
0.0275632
0.027878
0.0281911
0.0285072
0.0288221
0.0291407
0.0294566
0.0297783
0
0
0
0
0
0
0
0
0
0
0
0
0
0
0
0.0216912
0.0220319
0.0223678
0.0227045
0.0230419
0.0233797
0.0237182
0.0240571
0.0243961
0.0247354
0.0250752
0.0254155
0.0257559
0.0260965
0.0264371
0.0267781
0.0271133
0.0274497
0.0277872
0.0281256
0.0284646
0.0288042
0.029144
0.0294839
0.0298241
0
0
0
0
0
0
0
0
0
0
0.0216971
0.0220346
0.0223728
0.0227115
0.0230503
0.0233893
0.0237286
0.0240681
0.0244077
0.0247477
0.0250877
0.025428
0.0257686
0.0261041
0.026441
0.026779
0.027118
0.0274573
0.0277969
0.0281368
0.0284767
0.0288165
0.0291566
0.0294969
0.0298377
0
0
0
0
0
0
0
0
0
0
0.0217159
0.0220549
0.0223942
0.0227337
0.0230736
0.0234138
0.0237542
0.0240896
0.0244263
0.0247641
0.025103
0.0254423
0.0257818
0.0261216
0.0264615
0.0268015
0.0271415
0.0274818
0.0278224
0.0281634
0.028499
0.028836
0.0291745
0.0295139
0.0298537
0
0
0
0
0
0
0
0
0
0
0.0217459
0.0220842
0.0224229
0.0227618
0.0231012
0.023441
0.0237813
0.024122
0.0244628
0.0248036
0.025139
0.0254754
0.0258127
0.0261508
0.0264896
0.0268289
0.0271688
0.027509
0.0278493
0.0281899
0.0285307
0.0288716
0.029213
0.0295485
0.0298853
0
0
0
0
0
0
0
0
0
0
0.0217928
0.0221317
0.0224707
0.0228099
0.0231493
0.0234889
0.0238291
0.0241694
0.0245101
0.0248457
0.0251823
0.0255197
0.0258578
0.0261964
0.0265354
0.0268749
0.0272148
0.0275549
0.0278949
0.028235
0.0285754
0.0289163
0.0292523
0.0295893
0.029927
0
0
0
0
0
0
0
0
0
0
0.0218643
0.0222051
0.0225398
0.0228758
0.0232127
0.0235503
0.0238884
0.024227
0.024566
0.024905
0.025244
0.0255834
0.0259227
0.026262
0.0266015
0.0269413
0.0272815
0.0276165
0.0279528
0.0282903
0.0286287
0.0289675
0.0293066
0.0296457
0.0299846
0
0
0
0
0
0
0
0
0
0
0.021949
0.0222895
0.0226236
0.0229589
0.023295
0.0236318
0.023969
0.0243065
0.0246444
0.0249826
0.0253211
0.02566
0.0259993
0.0263388
0.0266782
0.0270176
0.0273571
0.0276965
0.0280358
0.0283697
0.0287049
0.0290412
0.0293782
0.0297156
0
0
0
0
0
0
0
0
0
0
0
0.0220491
0.0223867
0.0227243
0.0230617
0.0233991
0.0237365
0.024074
0.0244117
0.0247497
0.0250879
0.0254262
0.0257645
0.026103
0.0264417
0.0267752
0.0271102
0.0274462
0.0277829
0.02812
0.0284571
0.0287943
0.0291316
0.0294691
0.0298068
0
0
0
0
0
0
0
0
0
0
0
0.0221926
0.0225278
0.0228631
0.0231985
0.023534
0.0238696
0.0242053
0.0245413
0.0248774
0.0252139
0.0255504
0.0258868
0.0262234
0.0265602
0.0268969
0.0272334
0.02757
0.0279066
0.0282433
0.02858
0.028917
0.0292489
0.0295876
0.0299206
0
0
0
0
0
0
0
0
0
0
0
0.0223644
0.0226973
0.0230299
0.0233623
0.0236945
0.0240268
0.0243593
0.0246921
0.0250252
0.0253587
0.0256924
0.0260262
0.0263603
0.0266946
0.0270292
0.0273639
0.0276987
0.0280336
0.0283686
0.0287039
0.0290393
0.0293797
0.0297134
0
0
0
0
0
0
0
0
0
0
0
0
0.0225639
0.0228935
0.0232225
0.0235511
0.0238804
0.0242158
0.0245494
0.0248818
0.0252136
0.0255449
0.025876
0.026207
0.0265381
0.0268691
0.0272003
0.0275322
0.0278645
0.0282021
0.0285379
0.0288726
0.0292068
0.0295411
0.029875
0
0
0
0
0
0
0
0
0
0
0
0
0.0228099
0.0231332
0.0234575
0.0237872
0.0241145
0.0244409
0.0247669
0.0250942
0.0254264
0.0257566
0.0260856
0.0264139
0.0267418
0.0270701
0.0274045
0.0277366
0.0280671
0.0283971
0.0287271
0.0290572
0.0293874
0.0297176
0
0
0
0
0
0
0
0
0
0
0
0
0
0.0231058
0.0234231
0.0237469
0.0240677
0.0243864
0.024712
0.0250343
0.0253548
0.0256824
0.0260077
0.026331
0.0266535
0.0269831
0.0273098
0.0276352
0.02796
0.0282853
0.0286162
0.0289446
0.0292717
0.0295981
0.0299248
0
0
0
0
0
0
0
0
0
0
0
0
0
0.0234555
0.0237635
0.024077
0.0243863
0.0247019
0.0250137
0.0253312
0.0256446
0.0259645