/*--------------------------------*- C++ -*----------------------------------*\
| =========                 |                                                 |
| \\      /  F ield         | OpenFOAM: The Open Source CFD Toolbox           |
|  \\    /   O peration     | Version:  2412                                  |
|   \\  /    A nd           | Website:  www.openfoam.com                      |
|    \\/     M anipulation  |                                                 |
\*---------------------------------------------------------------------------*/
FoamFile
{
    version     2.0;
    format      ascii;
    arch        "LSB;label=32;scalar=64";
    class       volScalarField;
    location    "0.030011";
    object      Jsi;
}
// * * * * * * * * * * * * * * * * * * * * * * * * * * * * * * * * * * * * * //

dimensions      [0 0 0 0 0 0 0];

internalField   nonuniform List<scalar> 
8670
(
-0.119939
-0.114929
-0.109681
-0.104265
-0.0985691
-0.0925872
-0.0863217
-0.0797622
-0.0729137
-0.0657867
-0.0584602
-0.0507659
-0.042809
-0.0346233
-0.0264386
-0.0185871
-0.0129401
-0.0120314
0
0
0
0
0
0
0
0
0
0
0
0
0
0
-0.119736
-0.114827
-0.109532
-0.103988
-0.0982674
-0.0922741
-0.0859961
-0.079425
-0.07264
-0.0654975
-0.0580646
-0.0503441
-0.0423702
-0.0343065
-0.0261631
-0.0182351
-0.0128123
-0.0120888
0
0
0
0
0
0
0
0
0
0
0
0
0
0
-0.119275
-0.11435
-0.109183
-0.103736
-0.0979792
-0.0918083
-0.0854347
-0.0788072
-0.0719136
-0.0648723
-0.057486
-0.0498934
-0.0419424
-0.033768
-0.02548
-0.017689
-0.0127269
-0.0120272
0
0
0
0
0
0
0
0
0
0
0
0
0
0
-0.118726
-0.113773
-0.108559
-0.102935
-0.0971328
-0.0910729
-0.0847278
-0.0780947
-0.0711773
-0.0639696
-0.0564915
-0.0488892
-0.0410612
-0.0329196
-0.0246768
-0.0169141
-0.0125852
-0.0120322
0
0
0
0
0
0
0
0
0
0
0
0
0
0
-0.117909
-0.11292
-0.107688
-0.102157
-0.096219
-0.090088
-0.0836925
-0.0770149
-0.0700598
-0.0628289
-0.0554493
-0.0477515
-0.0398743
-0.0317086
-0.0234892
-0.0159154
-0.0124208
0
0
0
0
0
0
0
0
0
0
0
0
0
0
0
-0.116915
-0.111747
-0.106358
-0.100803
-0.0949705
-0.0888557
-0.0824603
-0.0757725
-0.0687987
-0.0615494
-0.0541098
-0.0463167
-0.03828
-0.0300623
-0.0219908
-0.0148712
-0.0122497
0
0
0
0
0
0
0
0
0
0
0
0
0
0
0
-0.115482
-0.110292
-0.104865
-0.0992641
-0.0933855
-0.0872216
-0.0807758
-0.0740441
-0.0670264
-0.0597288
-0.052168
-0.0444325
-0.0363737
-0.0281613
-0.0200947
-0.0136035
-0.0121596
0
0
0
0
0
0
0
0
0
0
0
0
0
0
0
-0.113603
-0.108488
-0.103081
-0.0972874
-0.0913205
-0.0850167
-0.0785135
-0.0717245
-0.0646519
-0.0573142
-0.0497896
-0.0419225
-0.0338406
-0.0256418
-0.0178025
-0.0128002
-0.0120604
0
0
0
0
0
0
0
0
0
0
0
0
0
0
0
-0.111448
-0.10624
-0.100643
-0.0947892
-0.0887636
-0.0824738
-0.0758981
-0.0690245
-0.0617561
-0.0544221
-0.0467883
-0.038903
-0.0309148
-0.0228316
-0.0154852
-0.0123084
0
0
0
0
0
0
0
0
0
0
0
0
0
0
0
0
-0.108697
-0.103328
-0.0977681
-0.0918034
-0.0856717
-0.0792959
-0.0725674
-0.0656388
-0.0584306
-0.0509664
-0.0432503
-0.0354008
-0.0273391
-0.0194775
-0.0133539
-0.012086
0
0
0
0
0
0
0
0
0
0
0
0
0
0
0
0
-0.105413
-0.0998473
-0.0941924
-0.0882584
-0.0819516
-0.0754657
-0.0686456
-0.0616321
-0.0543514
-0.0468202
-0.0390543
-0.0311034
-0.0231289
-0.0159053
-0.0124063
0
0
0
0
0
0
0
0
0
0
0
0
0
0
0
0
0
-0.101309
-0.0956398
-0.0898619
-0.0837212
-0.0774181
-0.0707842
-0.0639451
-0.0567337
-0.0493443
-0.0417379
-0.0339327
-0.0260375
-0.0184411
-0.0129985
-0.0120709
0
0
0
0
0
0
0
0
0
0
0
0
0
0
0
0
0
-0.0962831
-0.0905879
-0.0846098
-0.0784024
-0.0720026
-0.0652368
-0.0583003
-0.0510183
-0.0434493
-0.0357765
-0.0280025
-0.0203676
-0.0139813
-0.0121781
0
0
0
0
0
0
0
0
0
0
0
0
0
0
0
0
0
0
-0.0908871
-0.0850888
-0.0790396
-0.0727491
-0.066185
-0.0593711
-0.0522804
-0.0449341
-0.0374592
-0.0298435
-0.0222308
-0.0151896
-0.0122846
0
0
0
0
0
0
0
0
0
0
0
0
0
0
0
0
0
0
0
-0.0866181
-0.0807596
-0.0745531
-0.0683099
-0.0616561
-0.0549089
-0.047758
-0.0405297
-0.0329301
-0.0253881
-0.0181139
-0.0128343
-0.0120251
0
0
0
0
0
0
0
0
0
0
0
0
0
0
0
0
0
0
0
-0.129518
-0.124775
-0.11984
-0.114544
-0.108946
-0.103063
-0.0970092
-0.0906558
-0.0838929
-0.0769398
-0.0697037
-0.0620609
-0.0543295
-0.046167
-0.0378424
-0.029376
-0.0209729
-0.0139606
-0.0121845
0
0
0
0
0
0
0
0
0
0
0
0
0
-0.129327
-0.12458
-0.119553
-0.114238
-0.108645
-0.102896
-0.0968437
-0.090373
-0.0835886
-0.0767126
-0.06937
-0.0616895
-0.0539476
-0.0457705
-0.0375357
-0.0289709
-0.0207046
-0.0137473
-0.0121438
0
0
0
0
0
0
0
0
0
0
0
0
0
-0.12909
-0.124324
-0.119286
-0.113973
-0.108435
-0.102527
-0.0963198
-0.0899419
-0.0832636
-0.0761868
-0.0689095
-0.0613473
-0.0533787
-0.0453493
-0.0369197
-0.0285123
-0.0201074
-0.0135291
-0.012076
0
0
0
0
0
0
0
0
0
0
0
0
0
-0.128339
-0.123559
-0.118637
-0.113351
-0.107748
-0.101906
-0.0956778
-0.0891395
-0.0825205
-0.0754389
-0.0680302
-0.0605427
-0.0526064
-0.0445764
-0.0361494
-0.0276511
-0.0194156
-0.0131257
-0.0120706
0
0
0
0
0
0
0
0
0
0
0
0
0
-0.127591
-0.122892
-0.117846
-0.112496
-0.106917
-0.100962
-0.0946894
-0.0881134
-0.0814587
-0.074339
-0.0668885
-0.0593686
-0.0514033
-0.0433566
-0.0349267
-0.0265336
-0.0183299
-0.0128493
-0.0120346
0
0
0
0
0
0
0
0
0
0
0
0
0
-0.126722
-0.121864
-0.116726
-0.111296
-0.105572
-0.0995509
-0.0933759
-0.0868926
-0.0800034
-0.0729303
-0.065575
-0.0578217
-0.0499837
-0.0417349
-0.0333467
-0.0249063
-0.0168582
-0.0124998
-0.0119679
0
0
0
0
0
0
0
0
0
0
0
0
0
-0.125376
-0.120531
-0.115345
-0.109865
-0.104085
-0.0980156
-0.0917755
-0.0852426
-0.078293
-0.0710426
-0.0637045
-0.0559182
-0.0478286
-0.0397011
-0.0312173
-0.0229029
-0.0152705
-0.0123008
0
0
0
0
0
0
0
0
0
0
0
0
0
0
-0.123634
-0.118647
-0.113379
-0.107835
-0.102142
-0.0960726
-0.0897579
-0.0830455
-0.0760331
-0.0688453
-0.0613807
-0.0535191
-0.0455822
-0.0372418
-0.0287012
-0.0205156
-0.013684
-0.0121381
0
0
0
0
0
0
0
0
0
0
0
0
0
0
-0.121641
-0.116579
-0.111233
-0.105599
-0.0996943
-0.0936203
-0.0872499
-0.0804794
-0.0733889
-0.0660115
-0.0585514
-0.0506567
-0.0424704
-0.0342715
-0.0258134
-0.0178995
-0.0126998
-0.0119908
0
0
0
0
0
0
0
0
0
0
0
0
0
0
-0.119177
-0.114045
-0.108634
-0.10293
-0.0970097
-0.0907256
-0.0841368
-0.0772436
-0.0700625
-0.0627194
-0.0551165
-0.0471361
-0.0390051
-0.0307224
-0.022339
-0.0150336
-0.0122389
0
0
0
0
0
0
0
0
0
0
0
0
0
0
0
-0.115914
-0.110702
-0.105211
-0.099427
-0.0933447
-0.0869732
-0.080303
-0.0733291
-0.0660726
-0.0586531
-0.0509882
-0.0429517
-0.0346732
-0.0264812
-0.0184676
-0.0128591
-0.0120771
0
0
0
0
0
0
0
0
0
0
0
0
0
0
0
-0.111991
-0.106655
-0.101051
-0.0951572
-0.0889718
-0.082505
-0.0757456
-0.0686912
-0.0613456
-0.0537303
-0.045853
-0.0378615
-0.0297312
-0.021545
-0.014449
-0.0122295
0
0
0
0
0
0
0
0
0
0
0
0
0
0
0
0
-0.107291
-0.101818
-0.0960871
-0.089979
-0.083523
-0.0768758
-0.069985
-0.0628286
-0.0554132
-0.0478746
-0.0401196
-0.0320666
-0.0239469
-0.0164068
-0.0124069
0
0
0
0
0
0
0
0
0
0
0
0
0
0
0
0
0
-0.101955
-0.0963334
-0.090406
-0.084305
-0.0779382
-0.0712734
-0.0641375
-0.0569007
-0.0494304
-0.0417273
-0.0338187
-0.0258091
-0.018118
-0.012806
-0.0120757
0
0
0
0
0
0
0
0
0
0
0
0
0
0
0
0
0
-0.0976604
-0.0920492
-0.0860643
-0.0798546
-0.0734678
-0.0666265
-0.0596875
-0.0525109
-0.0450673
-0.0372674
-0.0293738
-0.0215305
-0.0146129
-0.0122338
0
0
0
0
0
0
0
0
0
0
0
0
0
0
0
0
0
0
-0.136953
-0.132326
-0.127624
-0.122477
-0.117013
-0.111461
-0.105441
-0.0992995
-0.0926631
-0.0859246
-0.0788173
-0.0713799
-0.0637262
-0.0556069
-0.0473994
-0.0389521
-0.0301411
-0.0215659
-0.0142415
-0.0121253
0
0
0
0
0
0
0
0
0
0
0
0
-0.136764
-0.132239
-0.127439
-0.122268
-0.117004
-0.111289
-0.105438
-0.0991239
-0.0926524
-0.0857173
-0.078641
-0.0710883
-0.0634244
-0.0554908
-0.0471112
-0.0386526
-0.0299321
-0.0213011
-0.0140643
-0.0121853
0
0
0
0
0
0
0
0
0
0
0
0
-0.136516
-0.131875
-0.126951
-0.121963
-0.116525
-0.110967
-0.104949
-0.0987811
-0.0921449
-0.0853605
-0.0780966
-0.0706973
-0.0628206
-0.0548586
-0.0466341
-0.0379781
-0.0293416
-0.0208396
-0.013706
-0.0121128
0
0
0
0
0
0
0
0
0
0
0
0
-0.136028
-0.131455
-0.126525
-0.121425
-0.116017
-0.110211
-0.104301
-0.097922
-0.0914396
-0.084578
-0.0773993
-0.0699956
-0.0621247
-0.0541254
-0.0456691
-0.0371684
-0.0285436
-0.0199005
-0.0133237
-0.0121037
0
0
0
0
0
0
0
0
0
0
0
0
-0.135288
-0.130679
-0.125714
-0.12067
-0.115179
-0.109474
-0.103457
-0.0971378
-0.0905206
-0.083595
-0.076364
-0.0689154
-0.0610078
-0.0529879
-0.044624
-0.0360388
-0.027389
-0.0188446
-0.01292
-0.012068
0
0
0
0
0
0
0
0
0
0
0
0
-0.134329
-0.129705
-0.124798
-0.119519
-0.114132
-0.10828
-0.102088
-0.095799
-0.0890185
-0.0821476
-0.0749899
-0.0673534
-0.0595818
-0.0513569
-0.0430517
-0.0344397
-0.0257322
-0.0175457
-0.0125296
-0.011998
0
0
0
0
0
0
0
0
0
0
0
0
-0.133123
-0.128322
-0.123445
-0.118118
-0.112475
-0.106738
-0.100534
-0.0941969
-0.0873783
-0.0804347
-0.0730077
-0.0654788
-0.0575976
-0.0494343
-0.041079
-0.0323451
-0.0237498
-0.0158946
-0.0122939
0
0
0
0
0
0
0
0
0
0
0
0
0
-0.131496
-0.126822
-0.121712
-0.116287
-0.110782
-0.104812
-0.0987131
-0.0921515
-0.0854379
-0.0782686
-0.0709541
-0.063181
-0.0552882
-0.0469563
-0.0385676
-0.029924
-0.021372
-0.0141621
-0.0121138
0
0
0
0
0
0
0
0
0
0
0
0
0
-0.129584
-0.124842
-0.119663
-0.114167
-0.108578
-0.102515
-0.0961114
-0.0896174
-0.0826462
-0.0755607
-0.0679954
-0.0603207
-0.0521841
-0.0439886
-0.035584
-0.0268828
-0.0186526
-0.0128245
-0.0120416
0
0
0
0
0
0
0
0
0
0
0
0
0
-0.127329
-0.122298
-0.117107
-0.111622
-0.10575
-0.0996839
-0.0933017
-0.0865194
-0.0796346
-0.0722944
-0.0648276
-0.0569092
-0.0488805
-0.0404475
-0.0319892
-0.0233309
-0.015633
-0.012253
0
0
0
0
0
0
0
0
0
0
0
0
0
0
-0.124271
-0.11927
-0.113891
-0.108199
-0.102211
-0.0961334
-0.0895922
-0.0827136
-0.0757458
-0.0683256
-0.0607819
-0.0527856
-0.0444773
-0.0361661
-0.0277411
-0.0193873
-0.0132013
-0.0120545
0
0
0
0
0
0
0
0
0
0
0
0
0
0
-0.120667
-0.11544
-0.109921
-0.1041
-0.0979916
-0.0917999
-0.085159
-0.0781757
-0.0708769
-0.0635238
-0.0557379
-0.0478547
-0.0395563
-0.0310234
-0.0227056
-0.0151226
-0.0122588
0
0
0
0
0
0
0
0
0
0
0
0
0
0
0
-0.115997
-0.11067
-0.105052
-0.0991314
-0.0929101
-0.0864074
-0.0798267
-0.0728049
-0.0654615
-0.0578353
-0.0501342
-0.042032
-0.0336905
-0.0254313
-0.0174779
-0.0125645
-0.0120275
0
0
0
0
0
0
0
0
0
0
0
0
0
0
0
-0.110794
-0.105378
-0.0996834
-0.093703
-0.0874299
-0.0808646
-0.0740255
-0.066906
-0.0595014
-0.0518153
-0.043881
-0.0359153
-0.0276749
-0.0195944
-0.0132851
-0.0121025
0
0
0
0
0
0
0
0
0
0
0
0
0
0
0
0
-0.106681
-0.101216
-0.0953047
-0.089283
-0.0830022
-0.0764414
-0.0696017
-0.062485
-0.055095
-0.0474382
-0.0395345
-0.0314329
-0.0232824
-0.0157563
-0.0122564
0
0
0
0
0
0
0
0
0
0
0
0
0
0
0
0
0
-0.146999
-0.142726
-0.138378
-0.133627
-0.128783
-0.123607
-0.118113
-0.11242
-0.106345
-0.0999277
-0.0932977
-0.0863657
-0.0789279
-0.0713668
-0.0635403
-0.0554132
-0.0467971
-0.0381088
-0.0292969
-0.0206338
-0.0136209
-0.0120636
0
0
0
0
0
0
0
0
0
0
0
-0.146768
-0.142479
-0.138148
-0.133583
-0.128579
-0.123439
-0.117836
-0.11213
-0.106132
-0.0996219
-0.0929826
-0.0860655
-0.0788294
-0.0710907
-0.0632327
-0.0551121
-0.0467078
-0.0378392
-0.0289853
-0.0203269
-0.0134648
-0.0121241
0
0
0
0
0
0
0
0
0
0
0
-0.146413
-0.142275
-0.137736
-0.13314
-0.128301
-0.123004
-0.117589
-0.111875
-0.105674
-0.0993317
-0.0926866
-0.0855386
-0.0782637
-0.0707045
-0.0628412
-0.0544925
-0.0460493
-0.0373988
-0.0286025
-0.0198963
-0.0132246
-0.0120656
0
0
0
0
0
0
0
0
0
0
0
-0.146064
-0.141916
-0.137362
-0.132722
-0.127653
-0.122489
-0.117047
-0.111118
-0.105062
-0.0987117
-0.0918495
-0.084847
-0.0775736
-0.0699909
-0.0619112
-0.05372
-0.0452931
-0.0366258
-0.027607
-0.0190326
-0.0129414
-0.0120641
0
0
0
0
0
0
0
0
0
0
0
-0.14539
-0.141215
-0.136634
-0.131985
-0.127015
-0.121729
-0.11622
-0.110231
-0.104135
-0.0977635
-0.0909929
-0.0838848
-0.0765506
-0.0689212
-0.0607973
-0.0525716
-0.0441148
-0.0354399
-0.0265428
-0.01803
-0.0126593
-0.012037
0
0
0
0
0
0
0
0
0
0
0
-0.144621
-0.140241
-0.135786
-0.130908
-0.12595
-0.120731
-0.115033
-0.109206
-0.102997
-0.0964479
-0.0896873
-0.0826221
-0.075061
-0.0673792
-0.0594203
-0.0511714
-0.0424656
-0.0337217
-0.0249366
-0.0167301
-0.0123732
0
0
0
0
0
0
0
0
0
0
0
0
-0.143564
-0.139141
-0.134636
-0.129714
-0.124698
-0.119342
-0.113662
-0.107759
-0.101364
-0.0948408
-0.0880282
-0.0807021
-0.0732564
-0.0655437
-0.0575347
-0.0490442
-0.0404745
-0.0317486
-0.0230196
-0.015045
-0.0122127
0
0
0
0
0
0
0
0
0
0
0
0
-0.142108
-0.137794
-0.133077
-0.128252
-0.122988
-0.117598
-0.111731
-0.105767
-0.0995119
-0.0927433
-0.0858503
-0.0786601
-0.070967
-0.06317
-0.0551193
-0.046781
-0.0380042
-0.0292412
-0.0206385
-0.0136585
-0.0120729
0
0
0
0
0
0
0
0
0
0
0
0
-0.14033
-0.135951
-0.131165
-0.126271
-0.120936
-0.115469
-0.109531
-0.103483
-0.097145
-0.0903083
-0.0833184
-0.0758336
-0.0682437
-0.0603965
-0.0522696
-0.0436917
-0.0350587
-0.0263363
-0.017832
-0.0126226
-0.0120276
0
0
0
0
0
0
0
0
0
0
0
0
-0.138218
-0.133551
-0.128821
-0.123671
-0.1184
-0.112674
-0.10682
-0.10048
-0.094035
-0.0873006
-0.0800692
-0.0726902
-0.0648248
-0.0568787
-0.0486963
-0.0401645
-0.0314438
-0.0227999
-0.015095
-0.0122023
0
0
0
0
0
0
0
0
0
0
0
0
0
-0.135292
-0.130734
-0.125757
-0.120677
-0.115158
-0.109501
-0.103396
-0.0971379
-0.0904155
-0.0835516
-0.0762212
-0.0687549
-0.0608115
-0.0527853
-0.044512
-0.0358298
-0.0271968
-0.018873
-0.0128815
-0.0120496
0
0
0
0
0
0
0
0
0
0
0
0
0
-0.131986
-0.127147
-0.122222
-0.116858
-0.111181
-0.105406
-0.0991809
-0.0928136
-0.0859744
-0.078792
-0.0715343
-0.0639243
-0.056031
-0.0479315
-0.0394291
-0.0309026
-0.0222249
-0.0147651
-0.0122439
0
0
0
0
0
0
0
0
0
0
0
0
0
0
-0.127809
-0.122905
-0.117697
-0.112189
-0.106381
-0.100483
-0.0941295
-0.0874514
-0.0806775
-0.073446
-0.0660915
-0.0583062
-0.0502018
-0.0420495
-0.0335101
-0.0250751
-0.0169791
-0.0124994
0
0
0
0
0
0
0
0
0
0
0
0
0
0
0
-0.122815
-0.117792
-0.112486
-0.106898
-0.101009
-0.0948199
-0.0884211
-0.0817936
-0.0747975
-0.0674793
-0.0599435
-0.0521866
-0.0440998
-0.035946
-0.0275065
-0.019244
-0.01315
-0.0120342
0
0
0
0
0
0
0
0
0
0
0
0
0
0
0
-0.118701
-0.113659
-0.108343
-0.102747
-0.0968645
-0.09069
-0.084224
-0.0774746
-0.0704374
-0.0631108
-0.0555015
-0.0476134
-0.0395513
-0.031349
-0.0230408
-0.0154995
-0.0122634
0
0
0
0
0
0
0
0
0
0
0
0
0
0
0
0
-0.151244
-0.147208
-0.142988
-0.138453
-0.133619
-0.128622
-0.123376
-0.117828
-0.11176
-0.105553
-0.099072
-0.0922951
-0.0852078
-0.0778077
-0.0699969
-0.0618393
-0.0534754
-0.0448734
-0.0360566
-0.0271237
-0.0185294
-0.012784
-0.0120743
0
0
0
0
0
0
0
0
0
0
-0.151206
-0.147071
-0.142816
-0.138349
-0.133547
-0.128437
-0.12315
-0.117606
-0.111762
-0.105514
-0.0989062
-0.092078
-0.0849599
-0.0775359
-0.0698104
-0.0617785
-0.0533562
-0.0446302
-0.0357518
-0.0267878
-0.0182144
-0.012693
-0.0120433
0
0
0
0
0
0
0
0
0
0
-0.150913
-0.146896
-0.142578
-0.137989
-0.133244
-0.128247
-0.122875
-0.117158
-0.111241
-0.105053
-0.0985624
-0.0917545
-0.0845352
-0.076962
-0.0691744
-0.0611224
-0.0528004
-0.0442142
-0.0353978
-0.0264583
-0.017826
-0.0125637
-0.0119945
0
0
0
0
0
0
0
0
0
0
-0.150551
-0.146448
-0.142072
-0.137558
-0.132809
-0.127705
-0.122267
-0.116632
-0.110732
-0.104531
-0.0979956
-0.0909367
-0.0837372
-0.0762631
-0.0684995
-0.0604402
-0.0520945
-0.0434744
-0.0345217
-0.0254543
-0.0169958
-0.0124457
0
0
0
0
0
0
0
0
0
0
0
-0.149968
-0.145887
-0.141398
-0.136846
-0.13206
-0.126988
-0.121428
-0.115752
-0.109815
-0.103587
-0.0970443
-0.0900802
-0.0827652
-0.0752311
-0.0674214
-0.0593296
-0.0509497
-0.0423005
-0.0333293
-0.02427
-0.0160007
-0.0123121
0
0
0
0
0
0
0
0
0
0
0
-0.149047
-0.144917
-0.140597
-0.136025
-0.131003
-0.125885
-0.120508
-0.114822
-0.108613
-0.102269
-0.0956524
-0.0887359
-0.0815022
-0.073941
-0.0658596
-0.0576586
-0.049216
-0.0405414
-0.0316831
-0.0228246
-0.0149427
-0.0122561
0
0
0
0
0
0
0
0
0
0
0
-0.148025
-0.143855
-0.139489
-0.134798
-0.129801
-0.124631
-0.119199
-0.113381
-0.107195
-0.100796
-0.0941164
-0.087128
-0.079814
-0.0719815
-0.0640169
-0.0557958
-0.0473215
-0.0386137
-0.029742
-0.0209747
-0.0136483
-0.0120848
0
0
0
0
0
0
0
0
0
0
0
-0.146818
-0.142541
-0.13799
-0.133289
-0.12832
-0.122886
-0.117345
-0.111544
-0.105421
-0.0987721
-0.0919858
-0.0849242
-0.0775628
-0.0698924
-0.0618241
-0.0534409
-0.0448735
-0.0361103
-0.0272355
-0.0186793
-0.0128422
-0.0120005
0
0
0
0
0
0
0
0
0
0
0
-0.145107
-0.140833
-0.136147
-0.131377
-0.126336
-0.120829
-0.11521
-0.109323
-0.103042
-0.096396
-0.0895333
-0.0823878
-0.0749296
-0.0669641
-0.0588833
-0.0505546
-0.0419861
-0.0332121
-0.0242739
-0.0160443
-0.0123187
0
0
0
0
0
0
0
0
0
0
0
0
-0.143045
-0.138506
-0.133893
-0.129039
-0.12374
-0.118322
-0.112621
-0.106426
-0.100098
-0.0934709
-0.0863281
-0.0790658
-0.0715337
-0.0637109
-0.0555028
-0.0470056
-0.0383523
-0.0295651
-0.0208924
-0.0136507
-0.0120883
0
0
0
0
0
0
0
0
0
0
0
0
-0.140246
-0.135783
-0.130901
-0.125954
-0.120734
-0.115049
-0.109243
-0.103061
-0.0965414
-0.0898077
-0.082686
-0.0752476
-0.067593
-0.0596586
-0.0512529
-0.0427668
-0.0341015
-0.0253556
-0.0169615
-0.0124535
0
0
0
0
0
0
0
0
0
0
0
0
0
-0.137011
-0.132289
-0.127476
-0.122227
-0.116872
-0.111042
-0.10512
-0.0989089
-0.0922079
-0.0853535
-0.0780261
-0.0705763
-0.0628491
-0.0546598
-0.0463708
-0.0378532
-0.0289941
-0.0204548
-0.013599
-0.0120602
0
0
0
0
0
0
0
0
0
0
0
0
0
-0.133019
-0.128205
-0.123104
-0.117901
-0.112251
-0.10626
-0.100189
-0.0936471
-0.0869912
-0.0798595
-0.0726248
-0.0650298
-0.057155
-0.0490645
-0.0405654
-0.032028
-0.0232794
-0.0155254
-0.0123072
0
0
0
0
0
0
0
0
0
0
0
0
0
0
-0.128096
-0.123156
-0.118023
-0.112689
-0.106974
-0.100935
-0.0947864
-0.0881866
-0.0812676
-0.0742291
-0.0667455
-0.0589481
-0.0510793
-0.0427936
-0.0344615
-0.0258545
-0.0177862
-0.0125931
-0.0120201
0
0
0
0
0
0
0
0
0
0
0
0
0
0
-0.124216
-0.119145
-0.1139
-0.108541
-0.102821
-0.0967851
-0.0904459
-0.0837996
-0.0768479
-0.0696833
-0.0622771
-0.0545257
-0.0465664
-0.0383686
-0.029933
-0.021568
-0.0142766
-0.0120988
0
0
0
0
0
0
0
0
0
0
0
0
0
0
0
-0.154744
-0.15067
-0.146485
-0.142118
-0.137529
-0.132695
-0.127595
-0.122199
-0.116399
-0.110226
-0.103832
-0.0971506
-0.0901555
-0.0828496
-0.0752402
-0.0673289
-0.0591272
-0.050645
-0.0418973
-0.0329442
-0.0239474
-0.0157188
-0.0123152
0
0
0
0
0
0
0
0
0
0
-0.15465
-0.150688
-0.146328
-0.141913
-0.137299
-0.132445
-0.127329
-0.121933
-0.116239
-0.110226
-0.103887
-0.0971278
-0.0899923
-0.0826226
-0.0749693
-0.0670246
-0.0587933
-0.0502848
-0.0415229
-0.03256
-0.023569
-0.0154219
-0.0122646
0
0
0
0
0
0
0
0
0
0
-0.154306
-0.15036
-0.14621
-0.141836
-0.137211
-0.132232
-0.126914
-0.121404
-0.115636
-0.109582
-0.103225
-0.0965574
-0.0895702
-0.0822642
-0.0746436
-0.0667112
-0.0584761
-0.0499532
-0.0411675
-0.0321774
-0.0230803
-0.0150055
-0.0121843
0
0
0
0
0
0
0
0
0
0
-0.154014
-0.150067
-0.145898
-0.141408
-0.136616
-0.131658
-0.126454
-0.120983
-0.115222
-0.109159
-0.102783
-0.0960851
-0.0890686
-0.0817302
-0.0739756
-0.0658578
-0.0575132
-0.0489091
-0.0400584
-0.0310255
-0.0220457
-0.0143122
-0.0121454
0
0
0
0
0
0
0
0
0
0
-0.153441
-0.14945
-0.145249
-0.140795
-0.135887
-0.130886
-0.125648
-0.120144
-0.114352
-0.108255
-0.101848
-0.0951222
-0.088072
-0.0807028
-0.073014
-0.0649108
-0.0564581
-0.047792
-0.0388958
-0.0298374
-0.0209104
-0.0136454
-0.0120897
0
0
0
0
0
0
0
0
0
0
-0.152729
-0.148562
-0.144283
-0.13981
-0.135099
-0.130135
-0.124895
-0.11935
-0.113396
-0.107078
-0.100535
-0.093701
-0.0865633
-0.079126
-0.0713855
-0.0633434
-0.0550122
-0.0464052
-0.0375459
-0.0285346
-0.0197358
-0.0131462
-0.0121099
0
0
0
0
0
0
0
0
0
0
-0.151726
-0.147524
-0.143204
-0.138687
-0.13393
-0.128917
-0.123615
-0.117915
-0.111844
-0.105548
-0.0989661
-0.0920808
-0.0848858
-0.0773806
-0.069574
-0.0614735
-0.0530873
-0.0444337
-0.0355487
-0.0264555
-0.01785
-0.0125602
-0.0119911
0
0
0
0
0
0
0
0
0
0
-0.150379
-0.146273
-0.141945
-0.137284
-0.132318
-0.127181
-0.121802
-0.116139
-0.110165
-0.103844
-0.0969901
-0.0899889
-0.0827077
-0.0751336
-0.0672655
-0.0591013
-0.0506635
-0.0419677
-0.0330549
-0.0240878
-0.0158658
-0.0122534
0
0
0
0
0
0
0
0
0
0
0
-0.148727
-0.144557
-0.14016
-0.135433
-0.130393
-0.12518
-0.119718
-0.113966
-0.107889
-0.101278
-0.0945218
-0.0874806
-0.0801386
-0.0724956
-0.0645577
-0.0563314
-0.0478258
-0.0389698
-0.0299059
-0.0210224
-0.0137469
-0.0121074
0
0
0
0
0
0
0
0
0
0
0
-0.146746
-0.14247
-0.137779
-0.133019
-0.128028
-0.122771
-0.117125
-0.111122
-0.104913
-0.098425
-0.0916311
-0.0845104
-0.0768643
-0.0690921
-0.0610635
-0.0527679
-0.0442103
-0.0354229
-0.0265024
-0.0178017
-0.0125784
-0.0120033
0
0
0
0
0
0
0
0
0
0
0
-0.144255
-0.139738
-0.135138
-0.130292
-0.12499
-0.119585
-0.113924
-0.107942
-0.101445
-0.0948182
-0.0879122
-0.0806847
-0.0729401
-0.0650799
-0.0569712
-0.0486007
-0.0399853
-0.0310832
-0.0221987
-0.0145282
-0.0121829
0
0
0
0
0
0
0
0
0
0
0
0
-0.140979
-0.136507
-0.131627
-0.126674
-0.121454
-0.11576
-0.109954
-0.103855
-0.0972455
-0.0905069
-0.0834729
-0.075937
-0.068284
-0.0603698
-0.052176
-0.0435179
-0.0348171
-0.0260517
-0.0177137
-0.0125398
-0.0119914
0
0
0
0
0
0
0
0
0
0
0
0
-0.136988
-0.132269
-0.127467
-0.122224
-0.116875
-0.111046
-0.105131
-0.0989243
-0.0922294
-0.0853807
-0.0780558
-0.0706126
-0.0628933
-0.0547129
-0.0464326
-0.037921
-0.0290708
-0.0205261
-0.0136282
-0.0120639
0
0
0
0
0
0
0
0
0
0
0
0
0
-0.132348
-0.127576
-0.122518
-0.117359
-0.111763
-0.105835
-0.0998084
-0.093329
-0.0867047
-0.0796197
-0.0722718
-0.0646868
-0.0569227
-0.0487275
-0.0404259
-0.0317738
-0.023233
-0.0153505
-0.0122583
0
0
0
0
0
0
0
0
0
0
0
0
0
0
-0.128302
-0.123558
-0.118483
-0.113248
-0.10765
-0.101726
-0.0954889
-0.0890265
-0.0823037
-0.0752146
-0.0678066
-0.0602889
-0.0523497
-0.0441916
-0.0358189
-0.0272259
-0.0190059
-0.0128902
-0.012035
0
0
0
0
0
0
0
0
0
0
0
0
0
0
-0.161083
-0.157406
-0.153546
-0.149495
-0.145235
-0.140747
-0.136017
-0.131021
-0.125738
-0.12009
-0.114201
-0.107994
-0.101444
-0.0944365
-0.0872022
-0.0798171
-0.072055
-0.0639652
-0.0555585
-0.0467499
-0.037885
-0.0288204
-0.0199287
-0.0131376
-0.0120327
0
0
0
0
0
0
0
0
0
-0.1609
-0.157215
-0.153357
-0.149303
-0.145041
-0.140549
-0.13581
-0.130803
-0.125514
-0.119929
-0.114035
-0.107825
-0.10129
-0.0944247
-0.0872365
-0.0797301
-0.0719081
-0.0637795
-0.055355
-0.0466484
-0.0376967
-0.0285898
-0.0197022
-0.0131026
-0.0120946
0
0
0
0
0
0
0
0
0
-0.160892
-0.157024
-0.153063
-0.148937
-0.144614
-0.140069
-0.135281
-0.13023
-0.124903
-0.119285
-0.113362
-0.107125
-0.100566
-0.0936836
-0.0864764
-0.0789469
-0.0711005
-0.0629511
-0.0545074
-0.0457862
-0.0368217
-0.0277151
-0.0189047
-0.0128211
-0.0120201
0
0
0
0
0
0
0
0
0
-0.160399
-0.156667
-0.152761
-0.148661
-0.144347
-0.139798
-0.135002
-0.12994
-0.124595
-0.118954
-0.113006
-0.106741
-0.100154
-0.0932445
-0.0860112
-0.0784564
-0.070583
-0.0624014
-0.0539214
-0.0451607
-0.0361573
-0.0270289
-0.018275
-0.0126794
-0.0120321
0
0
0
0
0
0
0
0
0
-0.159838
-0.156072
-0.152137
-0.148009
-0.143667
-0.139091
-0.134267
-0.129175
-0.123799
-0.118124
-0.112141
-0.10584
-0.0992146
-0.092267
-0.0849991
-0.0774101
-0.0695037
-0.0612909
-0.0527815
-0.0439919
-0.0349694
-0.0258483
-0.0172373
-0.0124817
0
0
0
0
0
0
0
0
0
0
-0.159251
-0.155487
-0.151534
-0.147381
-0.143009
-0.138399
-0.133534
-0.1284
-0.122902
-0.117162
-0.111109
-0.104719
-0.097878
-0.0908135
-0.0835925
-0.0759753
-0.0679108
-0.059742
-0.0512253
-0.0423123
-0.0333642
-0.0243099
-0.0158837
-0.0122764
0
0
0
0
0
0
0
0
0
0
-0.158291
-0.154496
-0.150508
-0.146318
-0.141904
-0.137246
-0.132254
-0.127046
-0.121522
-0.115557
-0.10937
-0.1029
-0.09612
-0.0890216
-0.0816116
-0.0738956
-0.0658725
-0.0575632
-0.0489747
-0.0401282
-0.0310987
-0.0221148
-0.0143487
-0.012148
0
0
0
0
0
0
0
0
0
0
-0.157056
-0.153145
-0.149075
-0.144816
-0.140339
-0.135622
-0.130648
-0.125399
-0.119858
-0.114002
-0.107829
-0.10133
-0.094504
-0.0872757
-0.0798022
-0.0720006
-0.0637777
-0.0554667
-0.0468248
-0.0378013
-0.0286932
-0.0199151
-0.0131593
-0.0120451
0
0
0
0
0
0
0
0
0
0
-0.155716
-0.151721
-0.147476
-0.14311
-0.138548
-0.133752
-0.1287
-0.123369
-0.117747
-0.111811
-0.105474
-0.098864
-0.0918097
-0.0845199
-0.0769392
-0.0690617
-0.0608935
-0.0524476
-0.0437361
-0.0347962
-0.0257667
-0.0172501
-0.0124935
0
0
0
0
0
0
0
0
0
0
0
-0.153723
-0.149624
-0.145415
-0.141019
-0.136397
-0.131515
-0.126339
-0.120662
-0.114858
-0.108789
-0.102433
-0.0957722
-0.0887946
-0.0815003
-0.0738913
-0.0658879
-0.0576489
-0.0490118
-0.0401933
-0.0312143
-0.0222823
-0.0145171
-0.0121788
0
0
0
0
0
0
0
0
0
0
0
-0.151263
-0.147204
-0.142951
-0.13846
-0.13353
-0.128509
-0.123248
-0.1177
-0.111828
-0.105425
-0.0988941
-0.0920948
-0.085004
-0.0776112
-0.0699147
-0.0618205
-0.0534016
-0.0447887
-0.0359657
-0.0270274
-0.0184423
-0.012762
-0.0120674
0
0
0
0
0
0
0
0
0
0
0
-0.14827
-0.144147
-0.13962
-0.135029
-0.130204
-0.125028
-0.119529
-0.113837
-0.107846
-0.101329
-0.0946887
-0.0877804
-0.0805736
-0.0730551
-0.06504
-0.0569029
-0.0485172
-0.0398927
-0.0310742
-0.0220918
-0.0144533
-0.0121702
0
0
0
0
0
0
0
0
0
0
0
0
-0.144549
-0.140286
-0.135762
-0.131055
-0.125929
-0.120682
-0.114968
-0.109154
-0.10305
-0.0964441
-0.0897075
-0.0826769
-0.0751518
-0.0675093
-0.0595864
-0.0511807
-0.0426993
-0.0340394
-0.0252993
-0.0169014
-0.0124374
0
0
0
0
0
0
0
0
0
0
0
0
0
-0.140051
-0.135599
-0.131076
-0.126137
-0.120888
-0.115564
-0.109776
-0.103871
-0.0974983
-0.0909855
-0.0839969
-0.0768814
-0.0692905
-0.0616016
-0.0536444
-0.0452432
-0.0367561
-0.0279442
-0.0195068
-0.0131521
-0.0120221
0
0
0
0
0
0
0
0
0
0
0
0
0
-0.136284
-0.131832
-0.127119
-0.122129
-0.116932
-0.111517
-0.105723
-0.0996086
-0.0933659
-0.0866798
-0.0796581
-0.0725222
-0.0649485
-0.0572373
-0.0491048
-0.0407533
-0.0322113
-0.0236023
-0.0156668
-0.0122908
0
0
0
0
0
0
0
0
0
0
0
0
0
0
-0.163093
-0.15944
-0.155616
-0.151608
-0.147403
-0.143003
-0.138496
-0.133627
-0.128341
-0.122973
-0.11724
-0.111167
-0.10476
-0.0980183
-0.0909474
-0.0835582
-0.075931
-0.0679131
-0.0595923
-0.0509786
-0.0420973
-0.0329985
-0.0238538
-0.015525
-0.0122751
0
0
0
0
0
0
0
0
0
-0.163022
-0.159505
-0.155747
-0.151776
-0.147589
-0.143172
-0.138513
-0.13359
-0.128385
-0.122892
-0.117093
-0.111053
-0.104622
-0.0978667
-0.0907847
-0.0833773
-0.0756483
-0.0676071
-0.0592605
-0.050622
-0.0417146
-0.0325955
-0.0234474
-0.0152034
-0.0122233
0
0
0
0
0
0
0
0
0
-0.163093
-0.159428
-0.155594
-0.151571
-0.147341
-0.142887
-0.138194
-0.133241
-0.128011
-0.122487
-0.116658
-0.110512
-0.104041
-0.0972415
-0.0901113
-0.0826545
-0.0748901
-0.0669496
-0.0586387
-0.05002
-0.0412151
-0.0321171
-0.0230083
-0.014897
-0.0122363
0
0
0
0
0
0
0
0
0
-0.162801
-0.159127
-0.155282
-0.151246
-0.147001
-0.142528
-0.137809
-0.132896
-0.127635
-0.122085
-0.116231
-0.110063
-0.103574
-0.096759
-0.0896158
-0.0821447
-0.0743478
-0.0662367
-0.0578166
-0.0491025
-0.0401321
-0.0310916
-0.0220473
-0.0142221
-0.0121127
0
0
0
0
0
0
0
0
0
-0.162249
-0.158549
-0.154675
-0.150674
-0.146399
-0.141894
-0.137143
-0.13213
-0.12684
-0.121253
-0.115365
-0.109162
-0.102636
-0.0957858
-0.0886066
-0.0811017
-0.0732728
-0.065126
-0.0566704
-0.0479215
-0.038922
-0.0298844
-0.020911
-0.0135714
-0.0121528
0
0
0
0
0
0
0
0
0
-0.161287
-0.157554
-0.153643
-0.149539
-0.145225
-0.140686
-0.135923
-0.131022
-0.125735
-0.120009
-0.114182
-0.107979
-0.101426
-0.0945372
-0.0873207
-0.0797794
-0.0719226
-0.0638447
-0.0553873
-0.0466464
-0.0376577
-0.028516
-0.0196042
-0.013056
-0.0120806
0
0
0
0
0
0
0
0
0
-0.160312
-0.156549
-0.152606
-0.148465
-0.144109
-0.13952
-0.134679
-0.129573
-0.12418
-0.118487
-0.112511
-0.10635
-0.0997602
-0.0926852
-0.0853665
-0.0778831
-0.0700185
-0.0618269
-0.0533388
-0.0445756
-0.035577
-0.0264586
-0.0177571
-0.0125228
0
0
0
0
0
0
0
0
0
0
-0.159448
-0.155651
-0.15167
-0.147485
-0.14308
-0.138436
-0.133535
-0.128361
-0.122897
-0.117131
-0.111053
-0.104659
-0.0979454
-0.0909087
-0.0835494
-0.0758789
-0.0679004
-0.0596239
-0.0510572
-0.042225
-0.0331833
-0.024095
-0.0157735
-0.0123219
0
0
0
0
0
0
0
0
0
0
-0.157839
-0.154015
-0.149994
-0.145766
-0.141309
-0.136604
-0.131636
-0.126318
-0.120775
-0.114922
-0.108736
-0.102114
-0.0953839
-0.0882641
-0.0806792
-0.0728687
-0.0649119
-0.0565845
-0.0478287
-0.0388931
-0.0299371
-0.0210289
-0.0136553
-0.0120814
0
0
0
0
0
0
0
0
0
0
-0.155935
-0.152058
-0.147979
-0.143681
-0.139053
-0.134113
-0.128999
-0.123635
-0.117993
-0.112055
-0.105811
-0.0992485
-0.0923722
-0.0851788
-0.0776633
-0.0698358
-0.0617094
-0.0532901
-0.0445047
-0.0355655
-0.0265064
-0.0178593
-0.0125583
-0.0119891
0
0
0
0
0
0
0
0
0
0
-0.153691
-0.149648
-0.145347
-0.140918
-0.136273
-0.131385
-0.12623
-0.120784
-0.114938
-0.108732
-0.102314
-0.09562
-0.0886292
-0.0813349
-0.0737351
-0.0658296
-0.0576171
-0.049018
-0.0401261
-0.031115
-0.0221703
-0.0144342
-0.0121654
0
0
0
0
0
0
0
0
0
0
0
-0.150583
-0.146519
-0.142264
-0.137768
-0.132828
-0.127801
-0.122531
-0.116978
-0.111102
-0.104703
-0.098172
-0.0913664
-0.0842606
-0.0768445
-0.0690234
-0.0608765
-0.0525309
-0.0439538
-0.0351591
-0.0262565
-0.0177762
-0.0125357
-0.0119849
0
0
0
0
0
0
0
0
0
0
0
-0.14693
-0.1428
-0.138456
-0.133699
-0.128835
-0.123639
-0.11813
-0.112421
-0.106414
-0.0999131
-0.0932735
-0.0863321
-0.078884
-0.0713212
-0.0635015
-0.0553818
-0.0467754
-0.0381095
-0.0293215
-0.0206734
-0.0136494
-0.0120646
0
0
0
0
0
0
0
0
0
0
0
0
-0.142466
-0.138271
-0.133687
-0.129014
-0.123919
-0.118705
-0.113039
-0.107231
-0.100959
-0.0945348
-0.0876357
-0.080623
-0.0733072
-0.0655351
-0.0576271
-0.0492605
-0.0408208
-0.0321974
-0.023341
-0.0154508
-0.0122744
0
0
0
0
0
0
0
0
0
0
0
0
0
-0.138904
-0.134592
-0.129997
-0.125129
-0.120056
-0.114731
-0.109036
-0.103024
-0.0968725
-0.0902725
-0.083409
-0.0762807
-0.0687793
-0.0611538
-0.0530887
-0.0449124
-0.036334
-0.0277628
-0.0192967
-0.0129804
-0.0120582
0
0
0
0
0
0
0
0
0
0
0
0
0
-0.168284
-0.164827
-0.16135
-0.157637
-0.153719
-0.149658
-0.145311
-0.140726
-0.135882
-0.130759
-0.125348
-0.119629
-0.113592
-0.107233
-0.100545
-0.0935457
-0.0863688
-0.078801
-0.0709746
-0.0627472
-0.054211
-0.0453845
-0.0363115
-0.027102
-0.0182592
-0.0126552
-0.0120196
0
0
0
0
0
0
0
0
-0.168332
-0.164896
-0.16137
-0.157609
-0.15366
-0.149508
-0.145137
-0.14053
-0.135664
-0.130519
-0.125091
-0.119361
-0.113336
-0.107126
-0.100514
-0.093625