/*--------------------------------*- C++ -*----------------------------------*\
| =========                 |                                                 |
| \\      /  F ield         | OpenFOAM: The Open Source CFD Toolbox           |
|  \\    /   O peration     | Version:  2412                                  |
|   \\  /    A nd           | Website:  www.openfoam.com                      |
|    \\/     M anipulation  |                                                 |
\*---------------------------------------------------------------------------*/
FoamFile
{
    version     2.0;
    format      ascii;
    arch        "LSB;label=32;scalar=64";
    class       volScalarField;
    location    "0.030011";
    object      Vm;
}
// * * * * * * * * * * * * * * * * * * * * * * * * * * * * * * * * * * * * * //

dimensions      [0 0 0 0 0 0 0];

internalField   nonuniform List<scalar> 
8670
(
1.21879
1.23634
1.25518
1.27501
1.29545
1.31622
1.33694
1.35714
1.37646
1.39435
1.40988
1.42152
1.42581
1.41329
1.36137
1.19257
0.619174
0.183835
0.055401
0.0167109
0.00514011
0.00158005
0.000483831
0.000147588
4.48798e-05
1.361e-05
4.11704e-06
1.24262e-06
3.7435e-07
1.12786e-07
3.46699e-08
1.31428e-08
1.21943
1.23734
1.2558
1.27542
1.29575
1.31639
1.33701
1.35718
1.37647
1.39436
1.40987
1.42151
1.42581
1.41346
1.356
1.17944
0.58439
0.174641
0.052906
0.0159948
0.00492689
0.00151641
0.000464919
0.000141974
4.32094e-05
1.31114e-05
3.96781e-06
1.1979e-06
3.60938e-07
1.08758e-07
3.34351e-08
1.2676e-08
1.22057
1.23863
1.2577
1.27749
1.29757
1.31725
1.33747
1.35759
1.37714
1.39607
1.41168
1.42292
1.42594
1.40959
1.34545
1.1637
0.538495
0.161013
0.0488117
0.0147829
0.00456342
0.00140523
0.00043089
0.000131622
4.00698e-05
1.21616e-05
3.6812e-06
1.1116e-06
3.34997e-07
1.00959e-07
3.10437e-08
1.17722e-08
1.22281
1.24093
1.25988
1.27901
1.29908
1.31954
1.33996
1.35998
1.37911
1.39672
1.41206
1.424
1.42622
1.40675
1.33087
1.12252
0.467912
0.142369
0.0433018
0.0131365
0.00406014
0.00124989
0.000383166
0.00011705
3.56407e-05
1.08202e-05
3.27617e-06
9.89597e-07
2.98323e-07
8.99365e-08
2.76648e-08
1.04954e-08
1.22567
1.24394
1.26315
1.28286
1.30245
1.32275
1.34307
1.36295
1.3819
1.39939
1.41512
1.42509
1.42511
1.40086
1.30819
1.0612
0.389292
0.120454
0.0366096
0.0111377
0.00344778
0.00106123
0.000325343
9.94048e-05
3.02767e-05
9.19531e-06
2.7854e-06
8.41739e-07
2.53868e-07
7.65698e-08
2.35645e-08
8.9445e-09
1.22964
1.24758
1.2668
1.28687
1.30739
1.32808
1.34853
1.36826
1.38684
1.40359
1.41728
1.42532
1.42218
1.39188
1.28079
0.965985
0.316985
0.0969513
0.029351
0.00896956
0.0027807
0.000855777
0.000262365
8.01793e-05
2.44296e-05
7.42285e-06
2.24971e-06
6.80276e-07
2.05309e-07
6.19674e-08
1.90846e-08
7.24955e-09
1.23484
1.25308
1.2725
1.29271
1.3133
1.33396
1.35425
1.37374
1.39188
1.40792
1.42046
1.42642
1.41831
1.37608
1.23057
0.789394
0.240836
0.0729355
0.0221514
0.00684343
0.00211321
0.000651082
0.000199823
6.11105e-05
1.86321e-05
5.66538e-06
1.71841e-06
5.20057e-07
1.57089e-07
4.74539e-08
1.46275e-08
5.56141e-09
1.24124
1.26028
1.2799
1.29945
1.31979
1.34019
1.36016
1.37919
1.39673
1.41192
1.42291
1.42567
1.40938
1.34544
1.15931
0.556868
0.168
0.0514489
0.0157019
0.00487525
0.00151068
0.000465998
0.000143125
4.38063e-05
1.33676e-05
4.06819e-06
1.23505e-06
3.74105e-07
1.13104e-07
3.41973e-08
1.05511e-08
4.01559e-09
1.24934
1.26846
1.28768
1.30778
1.32824
1.34857
1.36818
1.38648
1.40235
1.41718
1.42613
1.42461
1.39734
1.29675
1.02676
0.359152
0.111796
0.0340726
0.0104301
0.00325189
0.00100785
0.000310975
9.56115e-05
2.93018e-05
8.95334e-06
2.72825e-06
8.2926e-07
2.51477e-07
7.61135e-08
2.30383e-08
7.11624e-09
2.71168e-09
1.25902
1.2783
1.2981
1.31757
1.3376
1.35747
1.37659
1.39433
1.4099
1.42188
1.42678
1.41659
1.36942
1.21496
0.730184
0.222437
0.0679302
0.0207832
0.00646828
0.00201148
0.000623615
0.000192621
5.92865e-05
1.81886e-05
5.56365e-06
1.69725e-06
5.16486e-07
1.56818e-07
4.75235e-08
1.44036e-08
4.45554e-09
1.70054e-09
1.27168
1.29067
1.31058
1.3305
1.34955
1.3687
1.38698
1.40354
1.41734
1.42614
1.42499
1.39925
1.30682
1.06029
0.390994
0.122249
0.0376298
0.0115864
0.00363764
0.00113659
0.000353225
0.000109315
3.37067e-05
1.03589e-05
3.17411e-06
9.69972e-07
2.95687e-07
8.99381e-08
2.73056e-08
8.29173e-09
2.57026e-09
9.83248e-10
1.28626
1.30526
1.32487
1.3439
1.36315
1.38167
1.39853
1.41207
1.42245
1.4253
1.41069
1.35374
1.1821
0.637639
0.195109
0.0605928
0.0187735
0.00591
0.00185842
0.000581992
0.000181383
5.62892e-05
1.74035e-05
5.36304e-06
1.64777e-06
5.04914e-07
1.54343e-07
4.70771e-08
1.43333e-08
4.36514e-09
1.3573e-09
5.20984e-10
1.30274
1.3221
1.34099
1.36015
1.37858
1.39485
1.40988
1.42144
1.42557
1.4173
1.37585
1.23969
0.851243
0.274794
0.086483
0.0270775
0.00851671
0.0027119
0.000856706
0.000269226
8.42106e-05
2.62306e-05
8.14053e-06
2.51812e-06
7.76653e-07
2.38909e-07
7.33171e-08
2.24518e-08
6.86329e-09
2.09873e-09
6.5542e-10
2.52761e-10
1.32181
1.34037
1.35926
1.37694
1.39409
1.40871
1.42115
1.42763
1.42463
1.39551
1.29309
1.00827
0.358581
0.115752
0.036518
0.0115073
0.00368648
0.00117359
0.000371294
0.000116904
3.66531e-05
1.14487e-05
3.56422e-06
1.10638e-06
3.42551e-07
1.05814e-07
3.26179e-08
1.00359e-08
3.08307e-09
9.47668e-10
2.97622e-10
1.1549e-10
1.33565
1.35361
1.37127
1.38896
1.40462
1.41866
1.42807
1.43097
1.41586
1.35968
1.19594
0.615186
0.189706
0.0596485
0.0186861
0.00594655
0.00188729
0.000596187
0.00018757
5.88196e-05
1.83936e-05
5.73787e-06
1.78614e-06
5.54984e-07
1.72162e-07
5.33288e-08
1.6497e-08
5.09695e-09
1.57321e-09
4.86106e-10
1.53578e-10
5.99983e-11
1.18506
1.20159
1.21934
1.2382
1.25807
1.27893
1.30085
1.3224
1.34373
1.36517
1.38465
1.40222
1.41771
1.4266
1.42474
1.39209
1.25822
0.847126
0.251532
0.0720665
0.0208782
0.00619796
0.00184664
0.000550202
0.000163708
4.86476e-05
1.44387e-05
4.28051e-06
1.26784e-06
3.75841e-07
1.13682e-07
4.23853e-08
1.18544
1.202
1.21974
1.23865
1.2587
1.28002
1.30137
1.32269
1.34392
1.36525
1.38467
1.40214
1.41747
1.42604
1.42302
1.38819
1.24814
0.813043
0.239709
0.0689513
0.0200341
0.00595519
0.00177616
0.00052967
0.0001577
4.68814e-05
1.39179e-05
4.12678e-06
1.22245e-06
3.62427e-07
1.09637e-07
4.08826e-08
1.1871
1.20383
1.22176
1.24074
1.26061
1.28121
1.30246
1.32453
1.34584
1.36649
1.38658
1.40392
1.41796
1.42665
1.42104
1.3842
1.23236
0.763243
0.220949
0.0636253
0.0185185
0.00551045
0.00164532
0.000491023
0.000146244
4.34843e-05
1.2912e-05
3.82939e-06
1.13461e-06
3.36453e-07
1.01802e-07
3.79708e-08
1.18831
1.20531
1.22386
1.24312
1.2631
1.28371
1.30477
1.32619
1.3481
1.36859
1.3878
1.40587
1.41978
1.42777
1.41988
1.37814
1.21468
0.685965
0.195295
0.0564507
0.0164505
0.00490196
0.00146477
0.000437077
0.000130172
3.87117e-05
1.14973e-05
3.41062e-06
1.01079e-06
2.99821e-07
9.0749e-08
3.38617e-08
1.19101
1.20846
1.22686
1.24614
1.26617
1.28683
1.30792
1.32929
1.35108
1.37142
1.39037
1.40801
1.42125
1.42793
1.41609
1.36416
1.18195
0.576557
0.164134
0.0477769
0.0139387
0.00416212
0.00124443
0.000371278
0.000110593
3.29005e-05
9.77553e-06
2.90117e-06
8.60207e-07
2.55274e-07
7.73031e-08
2.88596e-08
1.19466
1.21187
1.23022
1.24957
1.26981
1.29084
1.31282
1.33425
1.35525
1.37609
1.39466
1.41073
1.42364
1.42754
1.41088
1.33755
1.11924
0.448526
0.130757
0.0381686
0.0111808
0.00335083
0.00100136
0.000298805
8.9077e-05
2.65222e-05
7.88707e-06
2.34268e-06
6.95186e-07
2.06471e-07
6.25756e-08
2.33812e-08
1.19928
1.21679
1.23543
1.25504
1.2755
1.29669
1.31872
1.33998
1.36049
1.38018
1.39897
1.41414
1.4244
1.42589
1.40031
1.2986
1.00875
0.333968
0.0984799
0.0286244
0.00844576
0.00254011
0.000760334
0.000227221
6.78083e-05
2.02091e-05
6.01564e-06
1.78861e-06
5.31301e-07
1.57953e-07
4.79187e-08
1.79226e-08
1.20467
1.22254
1.24152
1.26159
1.28294
1.30425
1.32547
1.34631
1.36666
1.38666
1.40398
1.41796
1.42668
1.42145
1.38418
1.24157
0.80242
0.238092
0.0690573
0.02021
0.00604383
0.00181222
0.000543132
0.000162506
4.85506e-05
1.44858e-05
4.31662e-06
1.28479e-06
3.82034e-07
1.13691e-07
3.45261e-08
1.29274e-08
1.21225
1.23049
1.24973
1.26988
1.29089
1.31277
1.334
1.35458
1.37427
1.39287
1.41002
1.42238
1.42689
1.41368
1.35434
1.16667
0.538934
0.154808
0.0453592
0.0133188
0.00400413
0.00120501
0.000361741
0.000108391
3.24321e-05
9.6909e-06
2.89189e-06
8.61896e-07
2.56612e-07
7.64598e-08
2.32485e-08
8.71634e-09
1.22216
1.24091
1.26057
1.28088
1.30167
1.32262
1.34332
1.36346
1.38281
1.40135
1.41619
1.42579
1.42606
1.39755
1.28596
0.983284
0.319559
0.0941139
0.0275253
0.00820072
0.00247246
0.000743667
0.000223455
6.70427e-05
2.00864e-05
6.00995e-06
1.79588e-06
5.35986e-07
1.59805e-07
4.7685e-08
1.45221e-08
5.45412e-09
1.23337
1.25254
1.27251
1.29302
1.31378
1.33453
1.35486
1.37443
1.39289
1.41007
1.42259
1.42736
1.41517
1.36383
1.18336
0.606585
0.175379
0.0515787
0.0152323
0.00459914
0.00139039
0.000419589
0.000126389
3.8008e-05
1.1412e-05
3.42153e-06
1.02445e-06
3.06355e-07
9.15233e-08
2.73662e-08
8.35269e-09
3.14476e-09
1.24736
1.2669
1.28714
1.30774
1.32843
1.34889
1.36864
1.38718
1.40396
1.41784
1.42631
1.4246
1.39202
1.26708
0.920794
0.292744
0.0865077
0.0255611
0.00768889
0.00233911
0.000709188
0.000214694
6.48743e-05
1.95694e-05
5.89379e-06
1.77244e-06
5.32306e-07
1.59667e-07
4.7846e-08
1.43506e-08
4.39447e-09
1.6604e-09
1.26441
1.28418
1.30446
1.32472
1.3441
1.36359
1.38236
1.39968
1.41466
1.42625
1.42778
1.40586
1.32397
1.09377
0.429411
0.128638
0.0383408
0.0114572
0.00350744
0.00107201
0.000326627
9.93016e-05
3.01323e-05
9.12761e-06
2.76054e-06
8.33675e-07
2.5143e-07
7.57375e-08
2.27924e-08
6.8657e-09
2.112e-09
8.01922e-10
1.28321
1.30321
1.32283
1.34296
1.36276
1.38145
1.39791
1.41305
1.42475
1.42903
1.41572
1.35943
1.17788
0.601717
0.178092
0.053441
0.0160469
0.00491658
0.00150785
0.000461539
0.000141012
4.30097e-05
1.30971e-05
3.98248e-06
1.20938e-06
3.66826e-07
1.11145e-07
3.36432e-08
1.01761e-08
3.08162e-09
9.53422e-10
3.64312e-10
1.29749
1.31733
1.33671
1.35658
1.37578
1.39301
1.40936
1.42315
1.43153
1.42822
1.39922
1.28171
0.949765
0.3058
0.0911573
0.0270561
0.0081669
0.00249427
0.000760245
0.000231681
7.05711e-05
2.14861e-05
6.53887e-06
1.98927e-06
6.04994e-07
1.83945e-07
5.59122e-08
1.69905e-08
5.16235e-09
1.57126e-09
4.8898e-10
1.881e-10
1.15959
1.17463
1.1913
1.20907
1.22811
1.24868
1.26993
1.2922
1.31439
1.33723
1.35953
1.37993
1.39925
1.4149
1.42613
1.4267
1.39637
1.26911
0.88576
0.260333
0.0730112
0.0207342
0.00604068
0.00176822
0.000518038
0.000151691
4.43965e-05
1.29873e-05
3.79772e-06
1.11192e-06
3.3214e-07
1.22229e-07
1.16008
1.17536
1.19188
1.20974
1.22923
1.24963
1.27126
1.29314
1.3157
1.33776
1.35977
1.38013
1.39958
1.41608
1.42617
1.42627
1.39635
1.26214
0.860786
0.250823
0.0703483
0.0199804
0.0058214
0.00170464
0.000499573
0.000146306
4.28204e-05
1.25256e-05
3.66261e-06
1.07239e-06
3.20359e-07
1.1791e-07
1.16115
1.17632
1.19292
1.21119
1.23051
1.25124
1.27257
1.29488
1.31705
1.33955
1.36089
1.38171
1.40009
1.41633
1.42667
1.42437
1.39223
1.25189
0.806406
0.231106
0.0649728
0.0184922
0.00539359
0.0015808
0.000463456
0.00013574
3.97303e-05
1.16233e-05
3.39948e-06
9.95585e-07
2.97492e-07
1.09526e-07
1.16288
1.17825
1.19502
1.21339
1.23267
1.25299
1.27462
1.2966
1.31946
1.34217
1.3635
1.38425
1.40232
1.41791
1.42638
1.42272
1.38534
1.22624
0.723117
0.203061
0.0574054
0.016396
0.00479529
0.00140741
0.000412784
0.00012094
3.54102e-05
1.03621e-05
3.03125e-06
8.87935e-07
2.65393e-07
9.77384e-08
1.16511
1.1807
1.19769
1.2163
1.23589
1.2568
1.27824
1.30066
1.32287
1.34532
1.36645
1.38694
1.40471
1.41998
1.42827
1.4199
1.37441
1.19659
0.61568
0.171362
0.0487281
0.0139258
0.00407854
0.00119723
0.000351058
0.000102873
3.01302e-05
8.82038e-06
2.58129e-06
7.56439e-07
2.26187e-07
8.33391e-08
1.1682
1.18424
1.20145
1.21995
1.23993
1.26053
1.28189
1.30427
1.32638
1.34897
1.37074
1.3903
1.40825
1.42169
1.42826
1.41535
1.35383
1.15281
0.485473
0.136781
0.0390027
0.0111772
0.00328448
0.000963644
0.000282627
8.28855e-05
2.42982e-05
7.11989e-06
2.08558e-06
6.11712e-07
1.83071e-07
6.75129e-08
1.17213
1.18826
1.206
1.22473
1.24462
1.26587
1.28754
1.30998
1.33199
1.35414
1.37486
1.39479
1.41218
1.42419
1.42795
1.406
1.31837
1.06061
0.358784
0.103241
0.0293064
0.00845872
0.00249347
0.000732415
0.00021505
6.31237e-05
1.85224e-05
5.43288e-06
1.59305e-06
4.67732e-07
1.40128e-07
5.17316e-08
1.17716
1.19393
1.21181
1.23092
1.25156
1.27277
1.29496
1.31702
1.33942
1.36079
1.3816
1.39997
1.41608
1.42593
1.42585
1.39558
1.26361
0.87549
0.258051
0.0726776
0.0207195
0.00605818
0.0017799
0.000523454
0.000153885
4.52241e-05
1.32854e-05
3.90106e-06
1.14508e-06
3.36549e-07
1.00931e-07
3.73014e-08
1.18395
1.20123
1.21956
1.23904
1.25992
1.28113
1.30277
1.32511
1.34675
1.36824
1.38785
1.406
1.41993
1.42761
1.41919
1.36997
1.19121
0.59504
0.166271
0.0475209
0.0136392
0.00401413
0.00118424
0.000348915
0.000102728
3.02335e-05
8.89397e-06
2.61509e-06
7.68606e-07
2.26183e-07
6.79181e-08
2.51342e-08
1.19277
1.21036
1.22948
1.24937
1.27012
1.29196
1.31357
1.33515
1.35703
1.37742
1.39684
1.41287
1.42515
1.42716
1.40443
1.30951
1.03897
0.347226
0.100852
0.0287834
0.00834858
0.00247295
0.000729898
0.000215327
6.35002e-05
1.87183e-05
5.51491e-06
1.62396e-06
4.7801e-07
1.40879e-07
4.23715e-08
1.57082e-08
1.2037
1.22193
1.24113
1.2612
1.28216
1.30415
1.32568
1.34692
1.36829
1.38785
1.406
1.41975
1.4268
1.42097
1.37906
1.21086
0.687443
0.193181
0.0551714
0.0158982
0.00469129
0.00139014
0.00041168
0.000121781
3.59995e-05
1.06352e-05
3.14e-06
9.26523e-07
2.73278e-07
8.07092e-08
2.43292e-08
9.04202e-09
1.21704
1.23573
1.25533
1.27574
1.2969
1.31894
1.34022
1.36071
1.38037
1.39931
1.41487
1.42625
1.42651
1.39915
1.29564
0.994998
0.326285
0.0948855
0.027341
0.00802904
0.0023891
0.000709769
0.000210792
6.25486e-05
1.8547e-05
5.49603e-06
1.62764e-06
4.81745e-07
1.42531e-07
4.22269e-08
1.27714e-08
4.76371e-09
1.23301
1.25234
1.27243
1.29309
1.31409
1.3353
1.35685
1.3768
1.3951
1.41135
1.42463
1.42885
1.41361
1.353
1.14766
0.505926
0.145033
0.0421212
0.0122754
0.00367033
0.00109705
0.000327363
9.76072e-05
2.90826e-05
8.65973e-06
2.57697e-06
7.66411e-07
2.27813e-07
6.76922e-08
2.01423e-08
6.11998e-09
2.29412e-09
1.2514
1.27137
1.29192
1.31283
1.33377
1.35435
1.37418
1.39271
1.40929
1.4227
1.43012
1.42517
1.38451
1.22628
0.732738
0.210942
0.0607613
0.0176801
0.00526822
0.00157741
0.000472334
0.000141361
4.22931e-05
1.26489e-05
3.78164e-06
1.1302e-06
3.37664e-07
1.00851e-07
3.01169e-08
9.00845e-09
2.75271e-09
1.03838e-09
1.26631
1.28648
1.30646
1.32719
1.34794
1.36815
1.38738
1.40506
1.42025
1.43126
1.43405
1.4134
1.3261
1.07283
0.371712
0.107413
0.030743
0.00894865
0.00266732
0.00079439
0.000236922
7.07301e-05
2.11326e-05
6.31865e-06
1.89056e-06
5.66008e-07
1.69545e-07
5.081e-08
1.5235e-08
4.57846e-09
1.40676e-09
5.34077e-10
1.12911
1.14119
1.15493
1.17008
1.18698
1.20538
1.22488
1.24592
1.26793
1.29014
1.31329
1.33639
1.3582
1.37969
1.39956
1.4161
1.42579
1.42473
1.39216
1.248
0.779024
0.216524
0.0600952
0.016918
0.00488662
0.00141748
0.000411195
0.00011924
3.45697e-05
1.00207e-05
2.90872e-06
8.61191e-07
3.13951e-07
1.12934
1.14147
1.15533
1.17075
1.18746
1.20578
1.22524
1.24629
1.26831
1.29054
1.31366
1.33691
1.35946
1.38016
1.39982
1.41643
1.42685
1.42383
1.38914
1.23962
0.749953
0.207685
0.0577829
0.0162872
0.00470996
0.00136741
0.000396821
0.000115074
3.3358e-05
9.66827e-06
2.80624e-06
8.30862e-07
3.02921e-07
1.13003
1.14235
1.1561
1.17161
1.18867
1.20696
1.22689
1.248
1.26968
1.29246
1.31557
1.33796
1.36048
1.38197
1.40143
1.41677
1.42683
1.42437
1.38852
1.23263
0.703879
0.193421
0.0538838
0.0151778
0.00438852
0.0012724
0.00036875
0.000106862
3.09693e-05
8.97575e-06
2.60557e-06
7.7162e-07
2.81407e-07
1.13143
1.14391
1.15778
1.17334
1.19028
1.20892
1.22891
1.24973
1.27192
1.2948
1.31737
1.34033
1.36293
1.38414
1.40247
1.41828
1.42755
1.42179
1.37668
1.20347
0.618997
0.169682
0.0476353
0.0134618
0.00390384
0.00113392
0.00032893
9.53633e-05
2.76435e-05
8.01335e-06
2.32657e-06
6.89111e-07
2.51364e-07
1.13314
1.14584
1.15997
1.17585
1.19327
1.21184
1.23188
1.25281
1.27517
1.29827
1.32146
1.34373
1.36591
1.3868
1.40477
1.42011
1.42826
1.41931
1.36705
1.1714
0.521104
0.143971
0.0404754
0.0114395
0.00332237
0.000964994
0.000279967
8.12038e-05
2.35498e-05
6.82951e-06
1.98361e-06
5.87748e-07
2.14477e-07
1.13562
1.14849
1.16303
1.17897
1.19666
1.21579
1.23585
1.25736
1.27972
1.30215
1.32531
1.34812
1.36941
1.39006
1.40849
1.42281
1.42777
1.41242
1.34241
1.11516
0.407266
0.115212
0.0323412
0.00919658
0.00267482
0.000776314
0.000225402
6.54472e-05
1.90004e-05
5.51576e-06
1.60359e-06
4.75604e-07
1.73724e-07
1.13895
1.15218
1.16708
1.18337
1.20139
1.2208
1.24109
1.26266
1.28462
1.30753
1.33058
1.35257
1.37434
1.39473
1.41225
1.4242
1.4276
1.40478
1.30282
0.988048
0.308724
0.08682
0.0243635
0.00701829
0.00203399
0.000590817
0.000171667
4.98809e-05
1.44938e-05
4.21154e-06
1.22566e-06
3.63903e-07
1.33073e-07
1.1432
1.15702
1.1722
1.18904
1.2071
1.22673
1.24727
1.26925
1.29188
1.31428
1.33721
1.3596
1.38019
1.39981
1.41645
1.42704
1.42468
1.39103
1.24691
0.786734
0.219979
0.0612203
0.0172841
0.00500494
0.00145534
0.000423299
0.000123111
3.58078e-05
1.04146e-05
3.02907e-06
8.82342e-07
2.62217e-07
9.59832e-08
1.14871
1.16308
1.17881
1.19618
1.21472
1.23476
1.25564
1.27786
1.30066
1.32295
1.34547
1.36672
1.38749
1.40634
1.42138
1.42776
1.41743
1.36266
1.16144
0.511979
0.142508
0.0402833
0.0114342
0.00333353
0.000971741
0.000282958
8.23881e-05
2.399e-05
6.98537e-06
2.03401e-06
5.93174e-07
1.76492e-07
6.46862e-08
1.15585
1.17064
1.18714
1.20492
1.22422
1.24445
1.26595
1.28783
1.31066
1.33352
1.35518
1.37645
1.39547
1.4128
1.4256
1.42833
1.40259
1.29929
0.98998
0.308639
0.0868565
0.0244524
0.0070408
0.00205623
0.000599481
0.000174828
5.09904e-05
1.48721e-05
4.33724e-06
1.26482e-06
3.69406e-07
1.10084e-07
4.04169e-08
1.16468
1.18051
1.19764
1.21633
1.23602
1.25706
1.2786
1.30101
1.32311
1.3455
1.36661
1.38707
1.40478
1.41994
1.42814
1.42007
1.37444
1.19811
0.611781
0.168761
0.0476569
0.0135533
0.00395733
0.00115848
0.000338808
9.905e-05
2.8955e-05
8.46329e-06
2.47329e-06
7.2273e-07
2.11517e-07
6.31724e-08
2.32505e-08
1.17651
1.19301
1.21108
1.23008
1.25017
1.27163
1.29339
1.31581
1.33744
1.3586
1.37975
1.39926
1.41505
1.42662
1.42691
1.39927
1.28476
0.955988
0.29595
0.0836886
0.0237378
0.00690505
0.00202114
0.000592838
0.000173896
5.10013e-05
1.49555e-05
4.38462e-06
1.28519e-06
3.76685e-07
1.1058e-07
3.31342e-08
1.22386e-08
1.19121
1.20865
1.22716
1.24668
1.2672
1.28893
1.31057
1.33227
1.35422
1.37475
1.39451
1.41111
1.42362
1.42882
1.41269
1.34632
1.12371
0.456537
0.129962
0.0371773
0.010707
0.00316098
0.000931527
0.000274418
8.08326e-05
2.38045e-05
7.00875e-06
2.06321e-06
6.07259e-07
1.7873e-07
5.26915e-08
1.58595e-08
5.88653e-09
1.20767
1.22596
1.24529
1.26548
1.28629
1.30753
1.32904
1.35093
1.37138
1.3904
1.40767
1.42268
1.43069
1.42584
1.38306
1.21565
0.686337
0.191904
0.0546077
0.0156817
0.00461584
0.00136347
0.000402786
0.00011902
3.51768e-05
1.03976e-05
3.07363e-06
9.08665e-07
2.68653e-07
7.94453e-08
2.35381e-08
7.12326e-09
2.66001e-09
1.22114
1.24021
1.26027
1.28105
1.30226
1.32359
1.3447
1.36523
1.38472
1.40267
1.41822
1.42974
1.43309
1.41351
1.32177
1.04419
0.342552
0.0977852
0.0276058
0.00796876
0.00233955
0.000687742
0.00020258
5.97406e-05
1.76374e-05
5.21305e-06
1.54249e-06
4.56863e-07
1.35439e-07
4.01894e-08
1.19566e-08
3.63646e-09
1.36604e-09
1.11697
1.12783
1.1403
1.15432
1.16977
1.18702
1.20587
1.22601
1.24694
1.26924
1.29248
1.31617
1.33977
1.36268
1.38407
1.40243
1.41818
1.42718
1.42047
1.37387
1.19216
0.555177
0.151
0.0420425
0.0117862
0.0033952
0.000978678
0.00028196
8.12367e-05
2.34063e-05
6.75395e-06
1.98745e-06
7.19787e-07
1.11735
1.12815
1.14064
1.15476
1.17043
1.18748
1.20631
1.22667
1.24827
1.27068
1.29326
1.31667
1.34011
1.36295
1.38458
1.40404
1.41969
1.42701
1.41871
1.36874
1.18058
0.528345
0.144605
0.040362
0.0113375
0.00327275
0.000944548
0.000272213
7.84193e-05
2.25907e-05
6.51795e-06
1.91797e-06
6.94669e-07
1.11794
1.129
1.14157
1.1556
1.17141
1.18882
1.20765
1.2276
1.24913
1.27181
1.29519
1.31877
1.34199
1.36379
1.38504
1.40438
1.4202
1.42859
1.41957
1.36662
1.17168
0.490945
0.135126
0.0376603
0.0105744
0.00304836
0.000877776
0.000252742
7.27943e-05
2.09707e-05
6.05144e-06
1.78113e-06
6.45321e-07
1.11906
1.13023
1.14281
1.15713
1.17311
1.1906
1.20931
1.22973
1.25154
1.27433
1.29752
1.32027
1.34339
1.36602
1.38736
1.40649
1.42182
1.42905
1.41574
1.34809
1.12764
0.424619
0.119023
0.0332655
0.00940427
0.00271695
0.000782968
0.000225674
6.50429e-05
1.87456e-05
5.41059e-06
1.59268e-06
5.77073e-07
1.12056
1.13192
1.1447
1.15924
1.17542
1.19311
1.21199
1.23257
1.25452
1.27748
1.30095
1.32431
1.34669
1.36896
1.38996
1.40866
1.42325
1.4291
1.41128
1.32665
1.06746
0.356567
0.100945
0.0281516
0.00801167
0.00231307
0.00066696
0.000192362
5.54651e-05
1.59907e-05
4.61678e-06
1.3594e-06
4.92709e-07
1.12258
1.13424
1.14753
1.16238
1.17861
1.19664
1.21618
1.23695
1.25836
1.28106
1.30453
1.32817
1.35133
1.37336
1.39293
1.4107
1.42408
1.42797
1.40504
1.29989
0.974145
0.294324
0.081448
0.0226398
0.00647196
0.00186239
0.000537192
0.000154992
4.47181e-05
1.29031e-05
3.72895e-06
1.09915e-06
3.98839e-07
1.12552
1.13756
1.15124
1.16647
1.18308
1.20146
1.22133
1.24235
1.26391
1.28674
1.31024
1.33377
1.35661
1.37755
1.39746
1.41458
1.42635
1.42689
1.39614
1.25667
0.795712
0.22184
0.0612139
0.0171193
0.00491464
0.00141726
0.00040898
0.000118046
3.40824e-05
9.84307e-06
2.84754e-06
8.40311e-07
3.053e-07
1.12946
1.14196
1.15587
1.17152
1.1887
1.20713
1.22729
1.24877
1.27106
1.29343
1.3167
1.34012
1.36294
1.38446
1.40371
1.41853
1.42734
1.42103
1.3753
1.19504
0.572548
0.15555
0.0434185
0.0121988
0.00352043
0.00101695
0.000293704
8.48548e-05
2.45211e-05
7.08754e-06
2.052e-06
6.06031e-07
2.20369e-07
1.13435
1.14742
1.16189
1.17812
1.19584
1.21477
1.23537
1.25721
1.27976
1.30222
1.32542
1.34854
1.37072
1.39058
1.40882
1.4231
1.42885
1.41177
1.33139
1.07105
0.362752
0.102645
0.0286368
0.00815084
0.00235615
0.000680689
0.000196816
5.69226e-05
1.64662e-05
4.76432e-06
1.38083e-06
4.08255e-07
1.48626e-07
1.1407
1.15426
1.16958
1.18649
1.20465
1.22443
1.24545
1.26702
1.28973
1.3128
1.33521
1.3578
1.37954
1.39953
1.41623
1.42641
1.42605
1.39396
1.25342
0.797254
0.223713
0.062043
0.0174304
0.00502449
0.00145431
0.000421129
0.000121958
3.5326e-05
1.02338e-05
2.9652e-06
8.60578e-07
2.54808e-07
9.2913e-08
1.14869
1.1632
1.17913
1.19682
1.21594
1.23605
1.25762
1.27999
1.30232
1.32537
1.3481
1.36938
1.38996
1.40829
1.42182
1.42813
1.41486
1.3495
1.12346
0.434409
0.122171
0.0343451
0.00973356
0.00283204
0.000822429
0.000238683
6.92793e-05
2.01106e-05
5.83798e-06
1.69493e-06
4.92906e-07
1.46258e-07
5.34585e-08
1.15933
1.17464
1.19161
1.2098
1.22951
1.25012
1.27214
1.29479
1.31706
1.33966
1.36121
1.38239
1.4017
1.417
1.42734
1.42548
1.38838
1.24125
0.779086
0.217893
0.0607715
0.0171748
0.00497841
0.00144938
0.000422072
0.000122905
3.57908e-05
1.04222e-05
3.0347e-06
8.83697e-07
2.57761e-07
7.67273e-08
2.8142e-08
1.17296
1.18929
1.20697
1.22621
1.24621
1.26713
1.28926
1.31135
1.33391
1.35557
1.37705
1.39699
1.41348
1.42617
1.42849
1.40628
1.31179
1.03147
0.338841
0.0968413
0.0273343
0.00787351
0.00230154
0.000672313
0.000196524
5.74508e-05
1.67949e-05
4.90962e-06
1.43517e-06
4.19578e-07
1.22881e-07
3.67349e-08
1.35369e-08
1.18816
1.20546
1.22416
1.24441
1.26516
1.28657
1.30892
1.33072
1.35214
1.37346
1.39272
1.4099
1.42439
1.43077
1.42075
1.36486
1.16921
0.518496
0.144366
0.040877
0.0116469
0.00341088
0.00099966
0.000292886
8.58456e-05
2.51724e-05
7.38394e-06
2.16662e-06
6.35911e-07
1.86716e-07
5.49347e-08
1.65061e-08
6.1174e-09
1.20122
1.21897
1.23838
1.2594
1.28069
1.30216
1.32365
1.34486
1.36553
1.38541
1.40455
1.42019
1.43113
1.43341
1.40641
1.28563
0.914266
0.266951
0.0739418
0.02074
0.00598324
0.0017394
0.000507125
0.000148088
4.33139e-05
1.26886e-05
3.72232e-06
1.09338e-06
3.21535e-07
9.46676e-08
2.79498e-08
8.43475e-09
3.14281e-09
1.10837
1.11796
1.1292
1.14214
1.15679
1.17314
1.19111
1.21054
1.23113
1.25246
1.27513
1.29857
1.32227
1.34581
1.3686
1.38984
1.40859
1.42311
1.4289
1.41082
1.32363
1.04876
0.333654
0.0930702
0.0256693
0.00724679
0.00207761
0.000595223
0.00017064
4.89259e-05
1.40506e-05
4.11475e-06
1.48271e-06
1.1086
1.11833
1.12948
1.14237
1.157
1.17332
1.1913
1.21086
1.23182
1.25392
1.27688
1.3002
1.32305
1.34624
1.36883
1.38998
1.40858
1.42279
1.42803
1.40837
1.31503
1.02321
0.319838
0.0889573
0.0245962
0.00699111
0.00200043
0.000573612
0.000164503
4.71809e-05
1.35538e-05
3.97044e-06
1.4311e-06
1.10902
1.11892
1.13038
1.14344
1.15813
1.17437
1.19195
1.21133
1.23225
1.25445
1.27758
1.30127
1.32508
1.34855
1.37116
1.3922
1.41066
1.42463
1.42939
1.40827
1.30727
0.989427
0.298247
0.0821174
0.0227036
0.00646071
0.00185028
0.000530963
0.000152383
4.37339e-05
1.25713e-05
3.68487e-06
1.32901e-06
1.11005
1.12011
1.1317
1.14481
1.15936
1.17573
1.19381
1.21353
1.2347
1.25707
1.28031
1.30405
1.32789
1.35126
1.3734
1.39297
1.41057
1.42345
1.42612
1.40001
1.27963
0.898045
0.260085
0.0717144
0.0199986
0.00572803
0.00164742
0.000473884
0.000136195
3.91214e-05
1.12504e-05
3.29819e-06
1.18955e-06
1.11137
1.12161
1.1334
1.14673
1.16149
1.17809
1.19641
1.21631
1.23762
1.26006
1.28337
1.30715
1.33095
1.35429
1.3765
1.39663
1.41282
1.42439
1.42464
1.39334
1.25274
0.789601
0.219473
0.0606383
0.0169828
0.00487831
0.00140507
0.000404351
0.000116239
3.33964e-05
9.60571e-06
2.81657e-06
1.01608e-06
1.11336
1.12371
1.13577
1.14953
1.16497
1.1821
1.20081
1.22092
1.24209
1.26388
1.28691
1.31054
1.33426
1.3575
1.37955
1.39967
1.41658
1.42729
1.42478
1.38758
1.22678
0.665261
0.179272
0.0494665
0.0138032
0.00395575
0.00113676
0.000326569
9.38092e-05
2.69509e-05
7.75524e-06
2.27582e-06
8.21901e-07
1.11596
1.1267
1.13916
1.15332
1.16916
1.18665
1.20565
1.22587
1.24683
1.26919
1.29247
1.3162
1.33986
1.36286
1.3846
1.40421
1.42023
1.42893
1.42042
1.36793
1.17275
0.488458
0.134092
0.0372924
0.0104456
0.00300483
0.000863577
0.000248193
7.13605e-05
2.0524e-05
5.91322e-06
1.73767e-06
6.28494e-07
1.11928
1.13068
1.14366
1.1582
1.17415
1.19192
1.21134
1.23217
1.25407
1.27666
1.2993
1.32273
1.34614
1.36881
1.38999
1.40866
1.42317
1.42886
1.41093
1.32649
1.05875
0.341452
0.0958445
0.0265244
0.00751211
0.0021609
0.000621099
0.000178658
5.14014e-05
1.47932e-05
4.26499e-06
1.2542e-06
4.53971e-07
1.12368
1.13564
1.14919
1.1643
1.18081
1.19912
1.21902
1.24021
1.26231
1.28461
1.30785
1.33136
1.35451
1.37671
1.39719
1.41469
1.42667
1.42691
1.39388
1.25518
0.80919
0.226468
0.0624957
0.0174857
0.0050202
0.00144592
0.000416462
0.000119936
3.45459e-05
9.95332e-06
2.87268e-06
8.45671e-07
3.06445e-07
1.12947
1.14202
1.15604
1.17186
1.18935
1.20839
1.22867
1.24974
1.27216
1.29541
1.31896
1.34214
1.36386
1.38508
1.40442
1.42015
1.42848
1.41945
1.36464
1.16054
0.493518
0.13652
0.0382487
0.0107729
0.00311144
0.00089723
0.000258657
7.45855e-05
2.15099e-05
6.20467e-06
1.79285e-06
5.28452e-07
1.91769e-07
1.13699
1.15026
1.16527
1.18188
1.19979
1.21942
1.24044
1.26237
1.28452
1.30771
1.33111
1.35388
1.37491
1.39513
1.41281
1.42568
1.42834
1.40208
1.28442
0.927469
0.274998
0.0762441
0.0212949
0.00611021
0.00176293
0.000509265
0.00014713
4.25108e-05
1.22837e-05
3.55007e-06
1.02776e-06
3.03557e-07
1.1041e-07
1.14658
1.16093
1.17671
1.19425
1.21324
1.23322
1.25473
1.27707
1.29937
1.32246
1.34532
1.36678
1.38766
1.40649
1.42146
1.42773
1.41717
1.36105
1.15878
0.489023
0.135471
0.0380653
0.0107657
0.00312432
0.000905562
0.000262422
7.60617e-05
2.2046e-05
6.38976e-06
1.85223e-06
5.37835e-07
1.59353e-07
5.81581e-08
1.15886
1.17421
1.19122
1.20945
1.22919
1.24981
1.27188
1.29457
1.31691
1.33957
1.36114
1.3824
1.40186
1.41732
1.42799
1.42667
1.39073
1.24566
0.785468
0.219481
0.0610979
0.0172419
0.00499162
0.00145161
0.000422304
0.000122859
3.57463e-05
1.04006e-05
3.02607e-06
8.80568e-07
2.56693e-07
7.63697e-08
2.79984e-08
1.17337
1.18992
1.20787
1.22741
1.24767
1.26878
1.29107
1.31328
1.33588
1.35729
1.37777
1.39777
1.41539
1.42773
1.43183
1.41034
1.31829
1.02416
0.329565
0.0932116
0.026146
0.00749603
0.00218317
0.000635779
0.000185349
5.40574e-05
1.57725e-05
4.60385e-06
1.34432e-06
3.92727e-07
1.14969e-07
3.43668e-08
1.26672e-08
1.18499
1.2024
1.22125
1.2417
1.2626
1.28392
1.30559
1.32753
1.34989
1.3708
1.39055
1.40926
1.42396
1.43248
1.42854
1.3885
1.22518
0.634166
0.171587
0.0476054
0.0133637
0.00385989
0.00111799
0.000324311
9.42471e-05
2.74339e-05
7.99795e-06
2.33505e-06
6.82639e-07
1.99832e-07
5.86665e-08
1.76026e-08
6.51893e-09
1.09462
1.10203
1.11087
1.12127
1.1333
1.14702
1.16245
1.17954
1.19823
1.21841
1.23988
1.26239
1.28548
1.30845
1.3323
1.3567
1.37929
1.39969
1.41665
1.42682
1.42663
1.39253
1.23737
0.683443
0.183
0.0501799
0.013922
0.00396642
0.00113306
0.000323534
9.23799e-05
2.64203e-05
7.7044e-06
2.76391e-06
1.09474
1.10216
1.11102
1.12141
1.13343
1.14713
1.16253
1.17961
1.19833
1.21856
1.24012
1.26276
1.28617
1.30995
1.33379
1.35717
1.3794
1.39969
1.41674
1.42756
1.42517
1.38825
1.22724
0.653216
0.175198
0.0481527
0.0133725
0.00381334
0.0010901
0.000311461
8.89889e-05
2.54672e-05
7.43135e-06
2.66759e-06
1.09524
1.10255
1.11136
1.12175
1.13376
1.14745
1.16282
1.17987
1.19856
1.21877
1.24034
1.26301
1.28646
1.31031
1.33413
1.3574
1.37951
1.39967
1.41643
1.42646
1.42152
1.37844
1.20374
0.581671
0.157556
0.0437676
0.0122245
0.00350266
0.00100354
0.00028723
8.22063e-05
2.35628e-05
6.88568e-06
2.47519e-06
1.09581
1.10338
1.11242
1.123
1.1352
1.14906
1.16462
1.18189
1.20078
1.22119
1.24292
1.26571
1.28925
1.31315
1.33694
1.36009
1.38196
1.40178
1.41811
1.42734
1.42005
1.37087
1.18328
0.519255
0.141228
0.0391541
0.0109405
0.00313687
0.000898265
0.00025713
7.36082e-05
2.11005e-05
6.16616e-06
2.21641e-06
1.09677
1.10454
1.11379
1.1246
1.13703
1.15113
1.16693
1.18442
1.20352
1.22409
1.24595
1.26881
1.29236
1.31626
1.34003
1.36307
1.38471
1.40415
1.41983
1.42777
1.41647
1.35479
1.14134
0.433174
0.120021
0.0332611
0.0093282
0.00267641
0.00076628
0.000219431
6.28336e-05
1.80162e-05
5.26612e-06
1.89339e-06
1.09836
1.10646
1.11604
1.12721
1.14004
1.15456
1.17078
1.18866
1.20804
1.2288
1.25075
1.2735
1.29638
1.32026
1.34481