/*--------------------------------*- C++ -*----------------------------------*\
| =========                 |                                                 |
| \\      /  F ield         | OpenFOAM: The Open Source CFD Toolbox           |
|  \\    /   O peration     | Version:  2412                                  |
|   \\  /    A nd           | Website:  www.openfoam.com                      |
|    \\/     M anipulation  |                                                 |
\*---------------------------------------------------------------------------*/
FoamFile
{
    version     2.0;
    format      ascii;
    arch        "LSB;label=32;scalar=64";
    class       volScalarField;
    location    "0.030011";
    object      Vm_0;
}
// * * * * * * * * * * * * * * * * * * * * * * * * * * * * * * * * * * * * * //

dimensions      [1 2 -3 0 0 -1 0];

internalField   nonuniform List<scalar> 
8670
(
0.0204504
0.0219543
0.023569
0.025268
0.0270203
0.0288004
0.0305758
0.032307
0.0339628
0.0354959
0.0368269
0.0378245
0.038192
0.0371186
0.032669
0.018203
-0.0309368
-0.0682453
-0.0792521
-0.0825679
-0.0835595
-0.0838646
-0.0839585
-0.0839874
-0.0839962
-0.0839988
-0.0839996
-0.0839999
-0.084
-0.084
-0.084
-0.084
0.0205047
0.0220404
0.0236221
0.0253031
0.0270459
0.0288148
0.0305815
0.0323104
0.0339633
0.0354964
0.0368261
0.0378237
0.0381917
0.0371337
0.0322089
0.0170778
-0.0339178
-0.0690333
-0.079466
-0.0826292
-0.0835778
-0.08387
-0.0839602
-0.0839878
-0.0839963
-0.0839989
-0.0839997
-0.0839999
-0.084
-0.084
-0.084
-0.084
0.0206027
0.0221504
0.0237852
0.0254811
0.027202
0.0288886
0.0306211
0.0323456
0.0340208
0.0356431
0.036981
0.0379444
0.0382026
0.0368019
0.031305
0.0157292
-0.037851
-0.0702012
-0.0798168
-0.0827331
-0.0836089
-0.0838796
-0.0839631
-0.0839887
-0.0839966
-0.083999
-0.0839997
-0.0839999
-0.084
-0.084
-0.084
-0.084
0.0207945
0.0223474
0.0239718
0.0256113
0.0273312
0.0290846
0.030835
0.0325506
0.03419
0.0356991
0.0370137
0.0380365
0.0382268
0.0365586
0.0300552
0.0121996
-0.0438999
-0.0717989
-0.080289
-0.0828742
-0.083652
-0.0838929
-0.0839672
-0.08399
-0.0839969
-0.0839991
-0.0839997
-0.0839999
-0.084
-0.084
-0.084
-0.084
0.02104
0.0226059
0.0242523
0.0259411
0.0276198
0.0293597
0.0311011
0.0328047
0.034429
0.0359279
0.0372757
0.0381299
0.0381316
0.036054
0.0281121
0.00694498
-0.0506377
-0.0736771
-0.0808626
-0.0830455
-0.0837045
-0.0839091
-0.0839721
-0.0839915
-0.0839974
-0.0839992
-0.0839998
-0.0839999
-0.084
-0.084
-0.084
-0.084
0.0213803
0.0229173
0.0245644
0.0262849
0.0280433
0.0298162
0.0315691
0.03326
0.0348523
0.0362881
0.0374607
0.0381497
0.0378812
0.035284
0.0257641
-0.00121508
-0.0568344
-0.0756913
-0.0814846
-0.0832313
-0.0837617
-0.0839267
-0.0839775
-0.0839931
-0.0839979
-0.0839994
-0.0839998
-0.0839999
-0.084
-0.084
-0.084
-0.084
0.0218262
0.0233887
0.0250537
0.0267849
0.0285501
0.03032
0.0320589
0.0337291
0.0352844
0.0366589
0.0377337
0.0382439
0.0375494
0.0339303
0.0214597
-0.016349
-0.0633603
-0.0777494
-0.0821016
-0.0834135
-0.0838189
-0.0839442
-0.0839829
-0.0839948
-0.0839984
-0.0839995
-0.0839999
-0.084
-0.084
-0.084
-0.084
-0.084
0.0223741
0.024006
0.0256872
0.0273625
0.0291061
0.0308543
0.0325661
0.0341966
0.0356999
0.0370018
0.037943
0.0381799
0.0367842
0.0313045
0.0153527
-0.0362764
-0.0696024
-0.0795908
-0.0826543
-0.0835822
-0.0838705
-0.0839601
-0.0839877
-0.0839962
-0.0839989
-0.0839997
-0.0839999
-0.084
-0.084
-0.084
-0.084
-0.084
0.0230687
0.0247066
0.0263539
0.0280768
0.02983
0.0315722
0.0332528
0.034821
0.0361815
0.0374522
0.0382196
0.0380895
0.0357523
0.0271311
0.00399368
-0.0532207
-0.0744191
-0.08108
-0.0831061
-0.0837213
-0.0839136
-0.0839733
-0.0839918
-0.0839975
-0.0839992
-0.0839998
-0.0839999
-0.084
-0.084
-0.084
-0.084
-0.084
0.0238981
0.0255502
0.0272471
0.0289154
0.0306327
0.0323353
0.033974
0.0354942
0.0368288
0.0378547
0.038275
0.0374022
0.0333591
0.0201223
-0.0214232
-0.0649371
-0.0781784
-0.0822189
-0.0834457
-0.0838276
-0.0839466
-0.0839835
-0.0839949
-0.0839984
-0.0839995
-0.0839999
-0.084
-0.084
-0.084
-0.084
-0.084
-0.084
0.0249828
0.0266104
0.0283167
0.030024
0.0316566
0.0332974
0.0348643
0.0362838
0.0374659
0.0382199
0.0381214
0.0359159
0.0279941
0.00686723
-0.0504918
-0.0735233
-0.0807751
-0.083007
-0.0836883
-0.0839026
-0.0839697
-0.0839906
-0.0839971
-0.0839991
-0.0839997
-0.0839999
-0.084
-0.084
-0.084
-0.084
-0.084
-0.084
0.0262322
0.0278608
0.0295412
0.0311721
0.032822
0.0344092
0.0358539
0.0370148
0.0379042
0.0381486
0.0368964
0.0320157
0.0173059
-0.0293544
-0.0672792
-0.0788072
-0.0823911
-0.0834935
-0.0838407
-0.0839501
-0.0839845
-0.0839952
-0.0839985
-0.0839995
-0.0839999
-0.084
-0.084
-0.084
-0.084
-0.084
-0.084
-0.084
0.027645
0.0293041
0.0309225
0.032565
0.0341441
0.0355388
0.0368268
0.0378171
0.038171
0.037463
0.03391
0.0222417
-0.0110485
-0.0604501
-0.0765884
-0.0816795
-0.0832701
-0.0837676
-0.0839266
-0.0839769
-0.0839928
-0.0839978
-0.0839993
-0.0839998
-0.0839999
-0.084
-0.084
-0.084
-0.084
-0.084
-0.084
-0.084
0.0292788
0.03087
0.0324882
0.034004
0.0354735
0.0367266
0.0377926
0.0383475
0.0380907
0.0355951
0.0268178
0.00240911
-0.0532696
-0.0740801
-0.0808704
-0.0830138
-0.0836841
-0.0838994
-0.0839682
-0.08399
-0.0839969
-0.083999
-0.0839997
-0.0839999
-0.084
-0.084
-0.084
-0.084
-0.084
-0.084
-0.084
-0.084
0.0304652
0.0320041
0.0335176
0.0350338
0.0363758
0.0375795
0.0383853
0.038634
0.0373392
0.0325245
0.018492
-0.0312786
-0.0677422
-0.0788881
-0.0823986
-0.0834904
-0.0838383
-0.0839489
-0.0839839
-0.083995
-0.0839984
-0.0839995
-0.0839998
-0.084
-0.084
-0.084
-0.084
-0.084
-0.084
-0.084
-0.084
-0.084
0.0175595
0.0189761
0.0204976
0.0221135
0.0238168
0.0256044
0.0274828
0.0293298
0.0311574
0.032995
0.0346647
0.0361703
0.0374975
0.0382595
0.0381002
0.0353021
0.0238296
-0.0114013
-0.0624437
-0.0778239
-0.0822107
-0.0834688
-0.0838417
-0.0839528
-0.083986
-0.0839958
-0.0839988
-0.0839996
-0.0839999
-0.084
-0.084
-0.084
0.0175925
0.0190114
0.020532
0.0221519
0.0238704
0.0256978
0.0275278
0.0293549
0.0311736
0.0330017
0.0346659
0.0361638
0.0374773
0.0382114
0.0379527
0.0349675
0.0229653
-0.0143222
-0.0634569
-0.0780909
-0.0822831
-0.0834896
-0.0838478
-0.0839546
-0.0839865
-0.083996
-0.0839988
-0.0839996
-0.0839999
-0.084
-0.084
-0.084
0.0177347
0.0191679
0.0207045
0.0223314
0.0240342
0.0257996
0.0276205
0.0295125
0.0313385
0.0331078
0.0348302
0.0363162
0.0375194
0.0382637
0.0377834
0.0346257
0.0216133
-0.01859
-0.0650647
-0.0785473
-0.082413
-0.0835278
-0.083859
-0.0839579
-0.0839875
-0.0839963
-0.0839989
-0.0839997
-0.0839999
-0.084
-0.084
-0.084
0.0178379
0.0192951
0.0208851
0.0225357
0.0242479
0.0260136
0.0278192
0.0296547
0.031532
0.0332879
0.0349341
0.0364829
0.037675
0.0383602
0.0376839
0.0341069
0.0200984
-0.0252128
-0.0672632
-0.0791622
-0.0825902
-0.0835799
-0.0838745
-0.0839625
-0.0839888
-0.0839967
-0.083999
-0.0839997
-0.0839999
-0.084
-0.084
-0.084
0.0180695
0.0195647
0.0211415
0.0227942
0.0245109
0.0262815
0.028089
0.0299201
0.0317877
0.033531
0.0351549
0.0366662
0.0378011
0.0383735
0.0373585
0.0329085
0.0172929
-0.034589
-0.0699337
-0.0799055
-0.0828055
-0.0836433
-0.0838934
-0.0839682
-0.0839905
-0.0839972
-0.0839992
-0.0839998
-0.0839999
-0.084
-0.084
-0.084
0.0183823
0.0198574
0.0214297
0.0230884
0.0248225
0.0266246
0.028509
0.0303456
0.032145
0.0339308
0.0355225
0.0368999
0.0380063
0.0383398
0.0369128
0.030628
0.0119192
-0.0455613
-0.0727941
-0.080729
-0.0830418
-0.0837128
-0.0839142
-0.0839744
-0.0839924
-0.0839977
-0.0839993
-0.0839998
-0.0839999
-0.084
-0.084
-0.084
0.0187779
0.0202788
0.021876
0.023557
0.0253106
0.0271266
0.0290146
0.0308366
0.0325942
0.0342811
0.0358918
0.0371917
0.0380714
0.0381989
0.036007
0.0272896
0.00244979
-0.0553789
-0.0755603
-0.0815469
-0.0832762
-0.0837823
-0.0839348
-0.0839805
-0.0839942
-0.0839983
-0.0839995
-0.0839998
-0.084
-0.084
-0.084
-0.084
0.0192405
0.0207717
0.0223985
0.0241182
0.0259482
0.0277746
0.0295924
0.0313786
0.0331229
0.0348367
0.0363214
0.0375191
0.0382666
0.0378187
0.0346245
0.0224026
-0.0152326
-0.0635955
-0.0780818
-0.082268
-0.083482
-0.0838447
-0.0839535
-0.0839861
-0.0839958
-0.0839988
-0.0839996
-0.0839999
-0.084
-0.084
-0.084
-0.084
0.0198902
0.0214527
0.0231015
0.0248289
0.0266289
0.0285047
0.0303241
0.0320871
0.0337746
0.0353694
0.0368386
0.0378982
0.0382843
0.0371525
0.0320667
0.0159837
-0.0378133
-0.0707329
-0.0801127
-0.0828586
-0.0836568
-0.0838967
-0.083969
-0.0839907
-0.0839972
-0.0839992
-0.0839998
-0.0839999
-0.084
-0.084
-0.084
-0.084
0.0207389
0.0223458
0.0240306
0.0257716
0.0275529
0.0293483
0.0311224
0.0328486
0.0345071
0.036096
0.0373674
0.0381904
0.0382131
0.0357704
0.026207
0.000267404
-0.0566138
-0.0759344
-0.0816411
-0.0832972
-0.0837881
-0.0839363
-0.0839808
-0.0839943
-0.0839983
-0.0839995
-0.0839998
-0.084
-0.084
-0.084
-0.084
-0.084
0.0216995
0.0233424
0.0250542
0.0268116
0.0285905
0.0303689
0.0321118
0.0337883
0.0353707
0.0368428
0.0379156
0.0383247
0.0372802
0.0328804
0.0174138
-0.0320157
-0.06897
-0.0795797
-0.0826946
-0.0836059
-0.0838808
-0.083964
-0.0839892
-0.0839967
-0.083999
-0.0839997
-0.0839999
-0.084
-0.084
-0.084
-0.084
-0.084
0.0228985
0.024573
0.0263075
0.0280733
0.0298462
0.0315995
0.0332922
0.0348817
0.0363196
0.0375088
0.0382351
0.038088
0.0352961
0.0245883
-0.00508792
-0.0589118
-0.0765863
-0.0818094
-0.0833411
-0.0837995
-0.0839392
-0.0839816
-0.0839944
-0.0839983
-0.0839995
-0.0839998
-0.084
-0.084
-0.084
-0.084
-0.084
-0.084
0.0243595
0.0260543
0.027792
0.0295289
0.0311893
0.0328596
0.0344684
0.0359522
0.0372364
0.0382295
0.0383604
0.0364818
0.0294643
0.00973649
-0.0471994
-0.0729757
-0.0807142
-0.0830181
-0.0836994
-0.0839081
-0.083972
-0.0839915
-0.0839974
-0.0839992
-0.0839998
-0.0839999
-0.084
-0.084
-0.084
-0.084
-0.084
-0.084
0.0259712
0.0276852
0.0293664
0.0310914
0.0327881
0.0343902
0.0358009
0.0370981
0.0381013
0.0384681
0.0373271
0.032503
0.0169441
-0.0324329
-0.0687375
-0.0794201
-0.0826248
-0.0835786
-0.0838708
-0.0839604
-0.0839879
-0.0839963
-0.0839989
-0.0839997
-0.0839999
-0.084
-0.084
-0.084
-0.084
-0.084
-0.084
-0.084
0.0271951
0.0288953
0.0305559
0.0322585
0.033904
0.0353811
0.0367822
0.0379643
0.0386822
0.0383986
0.0359128
0.0258425
-0.00260511
-0.0577929
-0.0761878
-0.0816813
-0.0833001
-0.0837862
-0.0839348
-0.0839801
-0.083994
-0.0839982
-0.0839994
-0.0839998
-0.0839999
-0.084
-0.084
-0.084
-0.084
-0.084
-0.084
-0.084
0.0153766
0.0166656
0.0180941
0.0196169
0.0212492
0.0230121
0.0248332
0.0267415
0.0286434
0.0306003
0.032512
0.0342597
0.0359158
0.0372568
0.0382192
0.0382685
0.0356692
0.0247631
-0.00809035
-0.0616894
-0.0777429
-0.0822231
-0.0834823
-0.0838485
-0.0839556
-0.083987
-0.0839962
-0.0839989
-0.0839997
-0.0839999
-0.084
-0.084
0.015419
0.0167285
0.0181438
0.0196751
0.0213449
0.0230937
0.0249469
0.0268221
0.0287557
0.0306456
0.0325325
0.034277
0.0359439
0.0373584
0.0382224
0.0382315
0.035667
0.0241658
-0.0102306
-0.0625045
-0.0779712
-0.0822877
-0.0835011
-0.0838539
-0.0839572
-0.0839875
-0.0839963
-0.0839989
-0.0839997
-0.0839999
-0.084
-0.084
0.0155106
0.016811
0.0182336
0.0197989
0.0214546
0.023231
0.0250593
0.0269715
0.0288714
0.0307995
0.0326283
0.0344124
0.0359879
0.0373799
0.0382656
0.0380682
0.0353145
0.0232866
-0.014891
-0.0641942
-0.0784318
-0.0824152
-0.0835378
-0.0838645
-0.0839603
-0.0839884
-0.0839966
-0.083999
-0.0839997
-0.0839999
-0.084
-0.084
0.0156591
0.0169757
0.0184136
0.0199878
0.0216395
0.0233816
0.0252348
0.0271188
0.0290779
0.0310238
0.0328521
0.0346299
0.0361785
0.0375148
0.0382411
0.0379275
0.0347235
0.0210888
-0.0220289
-0.0665976
-0.0790804
-0.0825949
-0.083589
-0.0838794
-0.0839646
-0.0839896
-0.083997
-0.0839991
-0.0839997
-0.0839999
-0.084
-0.084
0.0158498
0.017186
0.0186418
0.0202368
0.0219154
0.0237081
0.0255455
0.0274663
0.0293699
0.031294
0.0331048
0.0348606
0.036384
0.0376924
0.0384028
0.0376858
0.0337872
0.0185475
-0.0312362
-0.0693142
-0.079824
-0.0828066
-0.0836505
-0.0838974
-0.0839699
-0.0839912
-0.0839974
-0.0839992
-0.0839998
-0.0839999
-0.084
-0.084
0.0161147
0.0174897
0.0189646
0.0205498
0.0222622
0.0240278
0.0258583
0.0277762
0.0296706
0.0316065
0.0334727
0.0351489
0.0366874
0.0378388
0.0384018
0.0372953
0.032023
0.014796
-0.042395
-0.0722778
-0.0806575
-0.0830421
-0.0837185
-0.0839174
-0.0839758
-0.0839929
-0.0839979
-0.0839994
-0.0839998
-0.0839999
-0.084
-0.084
0.016452
0.0178338
0.0193538
0.0209594
0.0226643
0.0244852
0.0263419
0.0282656
0.0301514
0.0320501
0.0338252
0.0355336
0.0370239
0.0380532
0.038375
0.0364943
0.0289841
0.006894
-0.0532522
-0.0751523
-0.0814884
-0.0832751
-0.0837863
-0.0839372
-0.0839816
-0.0839946
-0.0839984
-0.0839995
-0.0839999
-0.084
-0.084
-0.084
0.0168826
0.0183197
0.0198519
0.02149
0.0232588
0.0250763
0.0269784
0.028869
0.0307886
0.0326194
0.0344032
0.0359775
0.0373582
0.0382023
0.0381957
0.0356009
0.0242913
-0.00897053
-0.061885
-0.0777715
-0.0822243
-0.0834808
-0.0838475
-0.0839551
-0.0839868
-0.0839961
-0.0839989
-0.0839997
-0.0839999
-0.084
-0.084
-0.084
0.0174646
0.0189458
0.0205166
0.0221857
0.0239752
0.0257929
0.0276472
0.029562
0.0314162
0.0332584
0.0349389
0.0364943
0.0376884
0.0383464
0.0376242
0.0334066
0.0180871
-0.0330051
-0.0697506
-0.0799275
-0.0828311
-0.083656
-0.0838985
-0.0839701
-0.0839912
-0.0839974
-0.0839992
-0.0839998
-0.0839999
-0.084
-0.084
-0.084
0.0182202
0.0197274
0.0213668
0.0230709
0.0248495
0.0267212
0.0285726
0.0304224
0.0322972
0.0340447
0.0357093
0.0370833
0.0381353
0.0383077
0.0363595
0.028225
0.00503958
-0.0542427
-0.075357
-0.0815333
-0.0832845
-0.0837881
-0.0839374
-0.0839815
-0.0839946
-0.0839984
-0.0839995
-0.0839999
-0.084
-0.084
-0.084
-0.084
0.0191568
0.0207193
0.0223647
0.0240851
0.0258808
0.0277657
0.0296107
0.0314312
0.0332621
0.0349385
0.0364942
0.0376724
0.0382766
0.0377768
0.0341858
0.0197705
-0.0250862
-0.0674444
-0.0792718
-0.0826375
-0.083598
-0.0838809
-0.0839647
-0.0839896
-0.0839969
-0.0839991
-0.0839997
-0.0839999
-0.084
-0.084
-0.084
-0.084
0.0203006
0.0219016
0.0235821
0.0253312
0.0271444
0.0290332
0.030857
0.0326128
0.0342975
0.0359206
0.0372539
0.0382299
0.0382516
0.0359071
0.0270365
0.00127132
-0.0560374
-0.0758683
-0.0816569
-0.0833119
-0.0837953
-0.0839392
-0.0839819
-0.0839946
-0.0839984
-0.0839995
-0.0839999
-0.084
-0.084
-0.084
-0.084
-0.084
0.021669
0.0233253
0.0250477
0.0268177
0.0286172
0.0304356
0.0322821
0.0339914
0.0355599
0.0369527
0.0380905
0.0384528
0.0371461
0.0319523
0.0143544
-0.0406422
-0.0715707
-0.0803902
-0.082948
-0.0836855
-0.083906
-0.0839719
-0.0839916
-0.0839975
-0.0839993
-0.0839998
-0.0839999
-0.084
-0.084
-0.084
-0.084
-0.084
0.0232452
0.0249562
0.0267173
0.0285097
0.0303039
0.032068
0.033767
0.0353552
0.0367759
0.0379257
0.038561
0.0381372
0.0346524
0.0210918
-0.0212043
-0.0659223
-0.0787928
-0.0824848
-0.0835485
-0.0838648
-0.0839595
-0.0839879
-0.0839964
-0.0839989
-0.0839997
-0.0839999
-0.084
-0.084
-0.084
-0.084
-0.084
-0.084
0.0245227
0.0262516
0.0279634
0.0297403
0.0315187
0.0332504
0.0348985
0.0364134
0.0377155
0.0386591
0.038898
0.0371286
0.0296466
0.00794158
-0.0521443
-0.0747947
-0.0813653
-0.0832331
-0.0837714
-0.0839319
-0.0839797
-0.0839939
-0.0839982
-0.0839995
-0.0839998
-0.084
-0.084
-0.084
-0.084
-0.084
-0.084
-0.084
0.012765
0.0138003
0.0149772
0.0162762
0.0177244
0.0193011
0.0209721
0.0227755
0.0246615
0.0265653
0.0285492
0.0305289
0.0323981
0.0342398
0.0359419
0.0373596
0.0381906
0.0380993
0.0353085
0.0229534
-0.0172376
-0.0654439
-0.0788498
-0.0825501
-0.0835812
-0.0838785
-0.0839648
-0.0839898
-0.083997
-0.0839991
-0.0839998
-0.0839999
-0.084
0.0127841
0.0138243
0.015012
0.0163331
0.0177649
0.0193351
0.021003
0.0228072
0.0246937
0.0265989
0.0285808
0.0305735
0.0325061
0.0342798
0.0359645
0.0373882
0.0382809
0.0380225
0.0350496
0.0222358
-0.019729
-0.0662014
-0.079048
-0.0826042
-0.0835964
-0.0838828
-0.083966
-0.0839901
-0.0839971
-0.0839992
-0.0839998
-0.0839999
-0.084
0.0128436
0.0138995
0.0150781
0.016407
0.0178693
0.0194367
0.0211448
0.0229534
0.0248115
0.0267637
0.028744
0.030663
0.0325928
0.0344345
0.0361026
0.0374172
0.0382792
0.0380687
0.0349958
0.0216367
-0.0236776
-0.0674238
-0.0793822
-0.0826993
-0.0836239
-0.083891
-0.0839684
-0.0839908
-0.0839973
-0.0839992
-0.0839998
-0.0839999
-0.084
0.0129635
0.0140332
0.0152216
0.0165556
0.0180074
0.0196041
0.0213172
0.0231022
0.0250038
0.0269645
0.0288984
0.0308662
0.0328027
0.0346205
0.0361914
0.0375467
0.0383412
0.0378474
0.0339813
0.0191372
-0.030952
-0.0694583
-0.0799177
-0.0828463
-0.0836654
-0.0839028
-0.0839718
-0.0839918
-0.0839976
-0.0839993
-0.0839998
-0.0839999
-0.084
0.0131101
0.0141987
0.015409
0.0167702
0.018263
0.0198543
0.0215724
0.0233656
0.0252819
0.0272619
0.0292491
0.0311573
0.0330582
0.0348488
0.0363885
0.0377031
0.0384021
0.0376352
0.0331563
0.0163888
-0.0393414
-0.0716617
-0.0805313
-0.0830196
-0.0837153
-0.0839173
-0.083976
-0.083993
-0.083998
-0.0839994
-0.0839998
-0.0839999
-0.084
0.013323
0.0144259
0.0156718
0.0170375
0.0185535
0.0201929
0.0219124
0.0237554
0.0256719
0.0275945
0.0295788
0.0315337
0.0333584
0.0351285
0.0367073
0.0379345
0.0383595
0.0370442
0.0310445
0.0115691
-0.0490973
-0.0741263
-0.0812284
-0.0832119
-0.0837708
-0.0839335
-0.0839807
-0.0839944
-0.0839984
-0.0839995
-0.0839999
-0.084
-0.084
0.0136082
0.0147421
0.016019
0.017415
0.0189588
0.0206228
0.0223617
0.02421
0.026092
0.0280553
0.030031
0.0319149
0.0337811
0.0355285
0.0370301
0.0380536
0.038345
0.03639
0.0276516
0.000675678
-0.0575424
-0.0765595
-0.0819121
-0.0833985
-0.0838257
-0.0839494
-0.0839853
-0.0839957
-0.0839988
-0.0839996
-0.0839999
-0.084
-0.084
0.0139726
0.0151563
0.0164578
0.0179004
0.0194482
0.0211305
0.0228909
0.0247744
0.0267144
0.0286339
0.030599
0.0325181
0.0342823
0.0359639
0.03739
0.0382975
0.0380952
0.0352116
0.0228601
-0.0165769
-0.0651478
-0.0787534
-0.0825187
-0.0835711
-0.0838753
-0.0839637
-0.0839894
-0.0839969
-0.0839991
-0.0839997
-0.0839999
-0.084
-0.084
0.0144443
0.0156756
0.017024
0.0185126
0.0201012
0.0218194
0.0236087
0.0255123
0.0274661
0.0293769
0.0313064
0.0331282
0.0349077
0.0365232
0.0378126
0.0383587
0.0374736
0.0327799
0.0155355
-0.0401234
-0.0717871
-0.0805477
-0.0830201
-0.0837143
-0.0839167
-0.0839758
-0.0839929
-0.0839979
-0.0839994
-0.0839998
-0.0839999
-0.084
-0.084
0.0150562
0.0163235
0.0177377
0.0192616
0.0209157
0.0226491
0.0244921
0.0263669
0.0283234
0.0302827
0.0321387
0.0339614
0.0355921
0.0370765
0.0381743
0.0384076
0.0362017
0.0273489
0.000841261
-0.0575496
-0.0765564
-0.0819044
-0.0833966
-0.0838238
-0.0839486
-0.083985
-0.0839956
-0.0839987
-0.0839996
-0.0839999
-0.084
-0.084
-0.084
0.0158131
0.0171696
0.0186374
0.0202397
0.0219268
0.0237299
0.0255761
0.0274969
0.0293902
0.0313094
0.0331186
0.0348717
0.0363896
0.037689
0.0383912
0.0377004
0.0337898
0.0186776
-0.0315704
-0.0695372
-0.0799158
-0.0828385
-0.0836609
-0.0839007
-0.083971
-0.0839915
-0.0839975
-0.0839993
-0.0839998
-0.0839999
-0.084
-0.084
-0.084
0.0168269
0.0182405
0.0197898
0.0214182
0.02314
0.0249791
0.0268437
0.0287647
0.0306189
0.0324322
0.0342443
0.0359168
0.0372701
0.0382612
0.0382863
0.0359178
0.0261039
-0.00207179
-0.0586371
-0.0768279
-0.0819657
-0.0834082
-0.0838268
-0.0839492
-0.0839851
-0.0839956
-0.0839987
-0.0839996
-0.0839999
-0.084
-0.084
-0.084
-0.084
0.0180867
0.0195815
0.0211673
0.0228402
0.0245989
0.026461
0.0283156
0.0301754
0.0320568
0.0338162
0.0355098
0.0369321
0.0380046
0.0384499
0.0370676
0.0313794
0.0123023
-0.0448748
-0.0728622
-0.0808139
-0.0830824
-0.0837291
-0.0839202
-0.0839765
-0.0839931
-0.083998
-0.0839994
-0.0839998
-0.0839999
-0.084
-0.084
-0.084
-0.084
0.0194973
0.0210649
0.0227215
0.0244516
0.0262349
0.028055
0.0298985
0.0317747
0.0335272
0.0351571
0.0366376
0.0379237
0.0386098
0.0381948
0.0345284
0.0201815
-0.0251809
-0.0675538
-0.0793201
-0.0826561
-0.0836044
-0.0838832
-0.0839655
-0.0839898
-0.083997
-0.0839991
-0.0839997
-0.0839999
-0.084
-0.084
-0.084
-0.084
-0.084
0.0206521
0.0222862
0.0240054
0.0257862
0.027604
0.0294317
0.0312407
0.0330002
0.0346708
0.0362088
0.0375413
0.0385289
0.0388158
0.037138
0.0292757
0.00548672
-0.0546433
-0.0756198
-0.0816342
-0.0833171
-0.0837995
-0.0839411
-0.0839826
-0.0839949
-0.0839985
-0.0839996
-0.0839999
-0.084
-0.084
-0.084
-0.084
-0.084
-0.084
0.011724
0.0126546
0.0137236
0.0149255
0.0162497
0.0177279
0.0193427
0.0210694
0.0228629
0.0247742
0.0267655
0.0287962
0.030818
0.0327819
0.0346144
0.0361886
0.0375382
0.0383094
0.0377339
0.0337409
0.018168
-0.0364214
-0.0710593
-0.080397
-0.0829899
-0.083709
-0.0839161
-0.0839758
-0.083993
-0.083998
-0.0839994
-0.0839998
-0.0839999
0.0117571
0.0126827
0.0137527
0.0149631
0.016306
0.0177674
0.0193811
0.0211258
0.0229763
0.0248973
0.0268322
0.0288383
0.0308473
0.0328047
0.0346584
0.0363265
0.037667
0.0382949
0.0375833
0.0333011
0.0171753
-0.0387209
-0.0716074
-0.080541
-0.0830284
-0.0837195
-0.0839191
-0.0839767
-0.0839933
-0.0839981
-0.0839994
-0.0839998
-0.0839999
0.0118074
0.012755
0.0138325
0.015035
0.0163895
0.0178816
0.019496
0.0212049
0.0230501
0.0249945
0.0269976
0.0290185
0.0310088
0.0328765
0.0346976
0.0363553
0.0377109
0.0384303
0.0376573
0.0331195
0.0164128
-0.041926
-0.0724197
-0.0807725
-0.0830938
-0.0837388
-0.0839248
-0.0839783
-0.0839938
-0.0839982
-0.0839995
-0.0839998
-0.0839999
0.0119034
0.0128608
0.0139389
0.0151663
0.0165354
0.0180345
0.0196382
0.0213877
0.0232571
0.02521
0.027197
0.0291467
0.0311287
0.0330676
0.0348964
0.036536
0.0378498
0.0384692
0.0373285
0.0315312
0.0126383
-0.0476102
-0.0737997
-0.0811491
-0.0831941
-0.0837672
-0.0839329
-0.0839807
-0.0839944
-0.0839984
-0.0839995
-0.0839999
-0.084
0.0120324
0.0130056
0.0141004
0.0153465
0.0167337
0.0182494
0.0198676
0.0216316
0.0235127
0.0254799
0.0274917
0.0294935
0.0314112
0.0333195
0.0351195
0.0367225
0.0379724
0.0384742
0.0369471
0.0296939
0.00748158
-0.0534422
-0.075349
-0.0815874
-0.0833134
-0.0838018
-0.0839428
-0.0839835
-0.0839952
-0.0839986
-0.0839996
-0.0839999
-0.084
0.0122052
0.0132041
0.0143429
0.0156157
0.0170072
0.0185521
0.0202269
0.0220063
0.0238415
0.0257872
0.0277984
0.029824
0.0318094
0.0336965
0.0353742
0.0368971
0.0380434
0.0383772
0.0364121
0.0274003
-0.000515815
-0.0587764
-0.0770199
-0.0820598
-0.0834454
-0.0838404
-0.083954
-0.0839867
-0.0839962
-0.0839989
-0.0839997
-0.0839999
-0.084
0.0124566
0.0134887
0.0146611
0.0159666
0.0173901
0.018965
0.0206683
0.0224692
0.0243173
0.0262735
0.0282878
0.0303044
0.0322618
0.0340563
0.0357623
0.0372294
0.038238
0.0382845
0.035649
0.0236964
-0.0158075
-0.0649883
-0.078754
-0.0825329
-0.0835788
-0.0838785
-0.083965
-0.0839899
-0.0839971
-0.0839992
-0.0839998
-0.0839999
-0.084
0.0127947
0.0138657
0.0150582
0.0163996
0.0178716
0.0194512
0.0211784
0.0230197
0.0249299
0.0268472
0.0288415
0.0308482
0.0328043
0.0346481
0.0362983
0.037568
0.0383229
0.0377826
0.0338634
0.0184147
-0.0349326
-0.0706694
-0.080279
-0.0829546
-0.0836983
-0.0839128
-0.0839748
-0.0839927
-0.0839979
-0.0839994
-0.0839998
-0.0839999
-0.084
0.0132138
0.0143336
0.0155739
0.0169645
0.0184839
0.0201059
0.0218713
0.023743
0.0256757
0.0276004
0.0295887
0.0315701
0.0334709
0.0351725
0.0367359
0.0379601
0.0384527
0.0369884
0.0301001
0.00778891
-0.0529121
-0.0752033
-0.0815458
-0.0833015
-0.0837981
-0.0839417
-0.0839831
-0.0839951
-0.0839986
-0.0839996
-0.0839999
-0.084
-0.084
0.0137576
0.0149201
0.016233
0.0176821
0.0192382
0.0209339
0.0227353
0.0245836
0.0265299
0.028507
0.0304271
0.0323631
0.0342269
0.0359398
0.0373712
0.0382436
0.0382128
0.0354625
0.0234185
-0.0156753
-0.0648278
-0.0786829
-0.0825062
-0.0835694
-0.0838754
-0.0839639
-0.0839895
-0.083997
-0.0839991
-0.0839997
-0.0839999
-0.084
-0.084
0.014443
0.0156861
0.0170514
0.0185678
0.0202062
0.0219294
0.0237778
0.0256949
0.0276089
0.0295846
0.0315321
0.0333555
0.0351193
0.0366904
0.0378496
0.0383906
0.0372536
0.0316518
0.0122806
-0.0467712
-0.07353
-0.0810566
-0.0831658
-0.0837573
-0.0839295
-0.0839795
-0.0839941
-0.0839983
-0.0839995
-0.0839999
-0.084
-0.084
-0.084
0.0153546
0.016667
0.0181208
0.0196796
0.0213693
0.0231355
0.0250223
0.0269632
0.0288717
0.0308086
0.0326558
0.0344705
0.0361259
0.0374369
0.0383227
0.0381638
0.0349841
0.0223747
-0.0172323
-0.0653266
-0.0787919
-0.0825281
-0.0835734
-0.0838758
-0.0839638
-0.0839895
-0.0839969
-0.0839991
-0.0839997
-0.0839999
-0.084
-0.084
-0.084
0.0165229
0.017922
0.0194374
0.0210858
0.0228002
0.0245931
0.0264894
0.0283829
0.0303157
0.0321722
0.0340133
0.0357221
0.0371351
0.0382226
0.0384219
0.0365184
0.0284206
0.00439723
-0.0549613
-0.0757007
-0.0816575
-0.0833252
-0.0838028
-0.0839424
-0.0839832
-0.0839951
-0.0839986
-0.0839996
-0.0839999
-0.084
-0.084
-0.084
-0.084
0.0178251
0.0193076
0.0209102
0.0226457
0.0244243
0.0262587
0.0281742
0.0300426
0.0318786
0.0337051
0.0353559
0.0368283
0.0380698
0.038617
0.0377581
0.0329688
0.0162015
-0.0395649
-0.0716279
-0.0804968
-0.0830019
-0.0837077
-0.0839143
-0.0839749
-0.0839926
-0.0839978
-0.0839994
-0.0839998
-0.0839999
-0.084
-0.084
-0.084
-0.084
0.0189444
0.0204659
0.022129
0.023931
0.0257549
0.0275949
0.0294365
0.0312542
0.0330256
0.0347296
0.0363701
0.0377103
0.0386474
0.0388432
0.0365289
0.0261784
-0.00564742
-0.0611223
-0.0776632
-0.0822226
-0.0834872
-0.0838509
-0.0839565
-0.0839873
-0.0839963
-0.0839989
-0.0839997
-0.0839999
-0.084
-0.084
-0.084
-0.084
-0.084
0.0109872
0.0118089
0.0127726
0.0138816
0.0151367
0.0165377
0.0180778
0.0197429
0.0215081
0.0233357
0.0252784
0.0272878
0.0293189
0.0313363
0.033289
0.0351091
0.0367162
0.0379607
0.0384564
0.0369073
0.0294349
0.00587838
-0.0554058
-0.0760239
-0.0818001
-0.0833789
-0.0838219
-0.083949
-0.0839854
-0.0839958
-0.0839988
-0.0839996
-0.0839999
0.011007
0.0118406
0.012796
0.0139014
0.0151548
0.0165535
0.0180944
0.0197704
0.0215666
0.0234613
0.0254283
0.0274271
0.0293852
0.0313724
0.0333092
0.0351214
0.0367154
0.0379331
0.0383822
0.0366976
0.0286977
0.00368886
-0.0565899
-0.0763764
-0.0818921
-0.0834009
-0.0838286
-0.0839508
-0.0839859
-0.083996
-0.0839988
-0.0839997
-0.0839999
0.0110432
0.0118914
0.0128733
0.0139931
0.0152516
0.0166432
0.0181505
0.0198106
0.0216039
0.0235062
0.025489
0.0275191
0.029559
0.0315703
0.0335088
0.0353118
0.0368933
0.0380905
0.0384988
0.0366891
0.0280334
0.000793875
-0.0584403
-0.0769625
-0.0820543
-0.0834463
-0.0838414
-0.0839545
-0.0839869
-0.0839963
-0.0839989
-0.0839997
-0.0839999
0.0111312
0.0119937
0.0129867
0.0141101
0.0153571
0.0167603
0.0183099
0.0199993
0.0218136
0.0237307
0.0257229
0.0277574
0.0298
0.0318031
0.0337002
0.0353779
0.0368859
0.0379899
0.0382189
0.0359805
0.0256641
-0.00703757
-0.0617107
-0.0778541
-0.0822861
-0.0835091
-0.0838588
-0.0839594
-0.0839883
-0.0839966
-0.083999
-0.0839997
-0.0839999
0.0112447
0.0121223
0.0131323
0.0142746
0.0155397
0.0169626
0.0185322
0.0202381
0.0220637
0.0239873
0.0259848
0.0280226
0.0300622
0.0320625
0.0339661
0.0356909
0.037079
0.0380699
0.0380919
0.0354096
0.0233602
-0.0163312
-0.0651912
-0.0788033
-0.0825446
-0.0835819
-0.0838796
-0.0839653
-0.08399
-0.0839971
-0.0839992
-0.0839998
-0.0839999
0.0114147
0.0123022
0.0133355
0.0145144
0.0158379
0.0173059
0.0189098
0.0206326
0.022447
0.0243147
0.0262879
0.0283132
0.0303464
0.0323378
0.0342272
0.0359517
0.0374011
0.038319
0.0381036
0.0349155
0.0211348
-0.0269871
-0.0686364
-0.0797607
-0.0828171
-0.083661
-0.0839026
-0.083972
-0.083992
-0.0839977
-0.0839993
-0.0839998
-0.0839999
0.0116374
0.0125579
0.0136256
0.0148393
0.0161966
0.0176956
0.0193239
0.0210568
0.0228537
0.0247697
0.0267643
0.0287982
0.0308256
0.0327968
0.0346599
0.0363412
0.0377141
0.0384597
0.0377304
0.0332312
0.0165047
-0.0421391
-0.0725083
-0.080804
-0.0831048
-0.0837425
-0.083926
-0.0839787
-0.0839939
-0.0839982
-0.0839995
-0.0839999
-0.0839999
0.0119219
0.012899
0.0140118
0.0152575
0.0166244
0.0181472
0.0198117
0.0215966
0.0234742
0.02541
0.02735
0.0293579
0.031364
0.0333072
0.0351222
0.0367218
0.0379655
0.0384529
0.0369163
0.02968
0.00673485
-0.0547376
-0.0757861
-0.0817269
-0.0833562
-0.0838148
-0.0839468
-0.0839847
-0.0839956
-0.0839987
-0.0839996
-0.0839999
-0.084
0.0122994
0.013324
0.0144855
0.0157807
0.0171953
0.0187644
0.0204698
0.0222862
0.0241797
0.0260911
0.0280831
0.0300973
0.0320816
0.0339838
0.0357395
0.0372386
0.0382653
0.0382862
0.0354556
0.0235689
-0.0146524
-0.0645917
-0.0786441
-0.0825015
-0.0835698
-0.0838761
-0.0839643
-0.0839897
-0.083997
-0.0839991
-0.0839998
-0.0839999
-0.084
0.0127952
0.013871
0.0150722
0.0164286
0.0179274
0.0195587
0.0212974
0.0231026
0.0250241
0.0270167
0.0290347
0.0310217
0.0328825
0.034701
0.0363587
0.0377065
0.038421
0.0376466
0.0329499
0.0154583
-0.0417055
-0.0723002
-0.0807221
-0.0830768
-0.0837333
-0.0839231
-0.0839778
-0.0839936
-0.0839982
-0.0839995
-0.0839998
-0.084
-0.084
0.0134401
0.0145776
0.0158636
0.0172868
0.018822
0.0205041
0.0223055
0.0241847
0.0260833
0.0280705
0.0300765
0.0320279
0.03383
0.0355622
0.0370779
0.0381809
0.0384083
0.0361585
0.0260751
-0.00451589
-0.0604326
-0.0774659
-0.082175
-0.0834764
-0.0838489
-0.0839564
-0.0839874
-0.0839964
-0.0839989
-0.0839997
-0.0839999
-0.084
-0.084
0.0142622
0.0154914
0.0168439
0.018347
0.0199749
0.0216871
0.0235301
0.0254453
0.0273563
0.0293349
0.0312941
0.0331333
0.0349222
0.0365365
0.0378192
0.0383567
0.0374511
0.0326416
0.0153078
-0.0420907
-0.0723901
-0.0807378
-0.0830774
-0.0837322
-0.0839224
-0.0839775
-0.0839935
-0.0839981
-0.0839995
-0.0839998
-0.084
-0.084
-0.084
0.0153139
0.01663
0.0180872
0.0196496
0.0213417
0.0231089
0.0249999
0.0269443
0.0288595
0.0308007
0.03265
0.0344714
0.0361392
0.0374646
0.038379
0.0382655
0.0351855
0.0227534
-0.0166854
-0.0651905
-0.0787639
-0.0825224
-0.0835722
-0.0838756
-0.0839638
-0.0839895
-0.0839969
-0.0839991
-0.0839997
-0.0839999
-0.084
-0.084
-0.084
0.0165574
0.0179766
0.0195145
0.0211888
0.0229253
0.0247345
0.026645
0.028548
0.0304851
0.0323198
0.0340749
0.035789
0.0372991
0.0383561
0.0387078
0.0368662
0.0289772
0.00377044
-0.0557563
-0.0760118
-0.0817593
-0.0833576
-0.0838129
-0.0839455
-0.0839841
-0.0839954
-0.0839986
-0.0839996
-0.0839999
-0.084
-0.084
-0.084
-0.084
0.0175535
0.0190457
0.0206614
0.0224134
0.024205
0.0260323
0.0278895
0.0297694
0.0316854
0.033478
0.0351699
0.0367736
0.0380335
0.0387631
0.0384256
0.0349942
0.0209978
-0.0296519
-0.069295