/*--------------------------------*- C++ -*----------------------------------*\
| =========                 |                                                 |
| \\      /  F ield         | OpenFOAM: The Open Source CFD Toolbox           |
|  \\    /   O peration     | Version:  2312                                  |
|   \\  /    A nd           | Website:  www.openfoam.com                      |
|    \\/     M anipulation  |                                                 |
\*---------------------------------------------------------------------------*/
FoamFile
{
    version     2.0;
    format      ascii;
    arch        "LSB;label=32;scalar=64";
    class       volVectorField;
    location    "0.6";
    object      D_0_0;
}
// * * * * * * * * * * * * * * * * * * * * * * * * * * * * * * * * * * * * * //

dimensions      [0 1 0 0 0 0 0];

internalField   nonuniform List<vector> 
3240
(
(-0.000413028 0.000162456 -0.00012229)
(-0.000425615 0.000125841 -0.000122289)
(-0.000434962 8.82665e-05 -0.000122291)
(-0.000440999 5.00195e-05 -0.000122291)
(-0.000443683 1.13931e-05 -0.000122291)
(-0.000442987 -2.73198e-05 -0.00012229)
(-0.000438921 -6.58232e-05 -0.000122288)
(-0.000431513 -0.000103826 -0.000122288)
(-0.000420823 -0.000141038 -0.000122289)
(-0.000406928 -0.000177178 -0.00012229)
(-0.000389937 -0.000211971 -0.000122291)
(-0.000369979 -0.000245151 -0.000122292)
(-0.000347205 -0.000276465 -0.00012229)
(-0.000321789 -0.000305674 -0.00012229)
(-0.000293923 -0.000332555 -0.000122288)
(-0.00026382 -0.000356906 -0.00012229)
(-0.000231709 -0.000378542 -0.000122291)
(-0.000197836 -0.000397297 -0.00012229)
(-0.000162456 -0.000413028 -0.00012229)
(-0.000125841 -0.000425615 -0.000122289)
(-8.82665e-05 -0.000434962 -0.000122291)
(-5.00195e-05 -0.000440999 -0.000122291)
(-1.13931e-05 -0.000443683 -0.000122291)
(2.73197e-05 -0.000442987 -0.00012229)
(6.58232e-05 -0.000438921 -0.000122288)
(0.000103826 -0.000431513 -0.000122288)
(0.000141038 -0.000420823 -0.000122289)
(0.000177178 -0.000406928 -0.00012229)
(0.000211971 -0.000389937 -0.000122291)
(0.000245151 -0.000369979 -0.000122292)
(0.000276465 -0.000347205 -0.00012229)
(0.000305674 -0.000321789 -0.000122289)
(0.000332555 -0.000293923 -0.000122288)
(0.000356906 -0.00026382 -0.000122289)
(0.000378542 -0.000231709 -0.000122291)
(0.000397297 -0.000197836 -0.00012229)
(0.000413028 -0.000162456 -0.00012229)
(0.000425615 -0.000125841 -0.000122289)
(0.000434962 -8.82665e-05 -0.000122291)
(0.000440999 -5.00195e-05 -0.000122291)
(0.000443683 -1.13931e-05 -0.000122291)
(0.000442987 2.73197e-05 -0.00012229)
(0.000438921 6.58232e-05 -0.000122288)
(0.000431513 0.000103826 -0.000122288)
(0.000420823 0.000141038 -0.000122289)
(0.000406928 0.000177179 -0.00012229)
(0.000389937 0.000211971 -0.000122291)
(0.000369979 0.000245151 -0.000122292)
(0.000347205 0.000276465 -0.00012229)
(0.000321789 0.000305674 -0.000122289)
(0.000293923 0.000332555 -0.000122288)
(0.00026382 0.000356906 -0.000122289)
(0.000231709 0.000378542 -0.000122291)
(0.000197836 0.000397297 -0.00012229)
(0.000162456 0.000413028 -0.00012229)
(0.000125841 0.000425615 -0.000122289)
(8.82665e-05 0.000434962 -0.000122291)
(5.00195e-05 0.000440999 -0.000122291)
(1.13931e-05 0.000443683 -0.000122291)
(-2.73198e-05 0.000442987 -0.00012229)
(-6.58232e-05 0.000438921 -0.000122288)
(-0.000103826 0.000431513 -0.000122288)
(-0.000141038 0.000420823 -0.000122289)
(-0.000177179 0.000406928 -0.00012229)
(-0.000211971 0.000389937 -0.000122291)
(-0.000245151 0.000369979 -0.000122292)
(-0.000276465 0.000347205 -0.00012229)
(-0.000305674 0.000321789 -0.000122289)
(-0.000332555 0.000293923 -0.000122288)
(-0.000356906 0.00026382 -0.000122289)
(-0.000378542 0.000231709 -0.000122291)
(-0.000397297 0.000197836 -0.00012229)
(-0.000353161 0.000175549 -8.87976e-05)
(-0.000367117 0.000144101 -8.87971e-05)
(-0.000378279 0.000111556 -8.87978e-05)
(-0.000386562 7.81614e-05 -8.87976e-05)
(-0.000391904 4.41724e-05 -8.87976e-05)
(-0.000394263 9.84792e-06 -8.87975e-05)
(-0.00039362 -2.45516e-05 -8.8797e-05)
(-0.000389983 -5.87635e-05 -8.87963e-05)
(-0.000383378 -9.25279e-05 -8.87966e-05)
(-0.000373855 -0.000125589 -8.87975e-05)
(-0.000361486 -0.000157696 -8.87976e-05)
(-0.000346367 -0.000188602 -8.87974e-05)
(-0.000328611 -0.000218073 -8.87971e-05)
(-0.000308354 -0.000245883 -8.87969e-05)
(-0.00028575 -0.000271821 -8.8797e-05)
(-0.000260973 -0.000295692 -8.87971e-05)
(-0.000234208 -0.000317312 -8.87978e-05)
(-0.000205661 -0.000336517 -8.87975e-05)
(-0.000175549 -0.000353161 -8.87976e-05)
(-0.000144101 -0.000367117 -8.87971e-05)
(-0.000111556 -0.000378279 -8.87978e-05)
(-7.81614e-05 -0.000386562 -8.87976e-05)
(-4.41724e-05 -0.000391904 -8.87976e-05)
(-9.84794e-06 -0.000394263 -8.87975e-05)
(2.45516e-05 -0.00039362 -8.8797e-05)
(5.87634e-05 -0.000389983 -8.87964e-05)
(9.25279e-05 -0.000383378 -8.87966e-05)
(0.000125589 -0.000373855 -8.87975e-05)
(0.000157696 -0.000361486 -8.87976e-05)
(0.000188602 -0.000346367 -8.87974e-05)
(0.000218073 -0.000328611 -8.87971e-05)
(0.000245883 -0.000308354 -8.87969e-05)
(0.000271821 -0.00028575 -8.87969e-05)
(0.000295692 -0.000260973 -8.8797e-05)
(0.000317312 -0.000234208 -8.87978e-05)
(0.000336517 -0.000205661 -8.87975e-05)
(0.000353161 -0.000175549 -8.87976e-05)
(0.000367117 -0.000144101 -8.87971e-05)
(0.000378279 -0.000111556 -8.87978e-05)
(0.000386562 -7.81613e-05 -8.87976e-05)
(0.000391904 -4.41724e-05 -8.87977e-05)
(0.000394263 -9.84793e-06 -8.87975e-05)
(0.00039362 2.45516e-05 -8.8797e-05)
(0.000389983 5.87634e-05 -8.87964e-05)
(0.000383378 9.25279e-05 -8.87966e-05)
(0.000373855 0.000125589 -8.87976e-05)
(0.000361486 0.000157696 -8.87976e-05)
(0.000346367 0.000188602 -8.87974e-05)
(0.000328611 0.000218073 -8.87971e-05)
(0.000308354 0.000245883 -8.87969e-05)
(0.00028575 0.000271821 -8.87969e-05)
(0.000260973 0.000295692 -8.8797e-05)
(0.000234208 0.000317312 -8.87978e-05)
(0.000205661 0.000336517 -8.87975e-05)
(0.000175549 0.000353161 -8.87976e-05)
(0.000144101 0.000367117 -8.87971e-05)
(0.000111556 0.000378279 -8.87978e-05)
(7.81613e-05 0.000386562 -8.87976e-05)
(4.41724e-05 0.000391904 -8.87977e-05)
(9.84792e-06 0.000394263 -8.87975e-05)
(-2.45516e-05 0.00039362 -8.8797e-05)
(-5.87634e-05 0.000389983 -8.87964e-05)
(-9.25279e-05 0.000383378 -8.87966e-05)
(-0.000125589 0.000373855 -8.87976e-05)
(-0.000157696 0.000361486 -8.87976e-05)
(-0.000188602 0.000346367 -8.87974e-05)
(-0.000218073 0.000328611 -8.87971e-05)
(-0.000245883 0.000308354 -8.87969e-05)
(-0.000271821 0.00028575 -8.87969e-05)
(-0.000295692 0.000260973 -8.8797e-05)
(-0.000317312 0.000234208 -8.87978e-05)
(-0.000336517 0.000205661 -8.87975e-05)
(-0.000306257 0.000273851 -4.16708e-05)
(-0.000328959 0.000246117 -4.16707e-05)
(-0.000349158 0.000216509 -4.16702e-05)
(-0.000366699 0.000185253 -4.16704e-05)
(-0.000381451 0.000152589 -4.16709e-05)
(-0.000393297 0.000118763 -4.1671e-05)
(-0.000402151 8.40324e-05 -4.16708e-05)
(-0.000407945 4.86636e-05 -4.16713e-05)
(-0.000410635 1.29248e-05 -4.16711e-05)
(-0.0004102 -2.29138e-05 -4.16714e-05)
(-0.000406641 -5.85785e-05 -4.16708e-05)
(-0.000399989 -9.3797e-05 -4.16703e-05)
(-0.000390291 -0.000128302 -4.16698e-05)
(-0.000377624 -0.00016183 -4.16705e-05)
(-0.000362082 -0.000194126 -4.16712e-05)
(-0.000343786 -0.000224944 -4.16712e-05)
(-0.000322871 -0.00025405 -4.16707e-05)
(-0.000299501 -0.000281224 -4.16706e-05)
(-0.000273851 -0.000306257 -4.16708e-05)
(-0.000246117 -0.000328959 -4.16707e-05)
(-0.000216509 -0.000349158 -4.16702e-05)
(-0.000185253 -0.000366699 -4.16704e-05)
(-0.000152589 -0.000381451 -4.16709e-05)
(-0.000118763 -0.000393297 -4.1671e-05)
(-8.40324e-05 -0.000402151 -4.16708e-05)
(-4.86637e-05 -0.000407945 -4.16713e-05)
(-1.29248e-05 -0.000410635 -4.16711e-05)
(2.29138e-05 -0.0004102 -4.16714e-05)
(5.85784e-05 -0.000406641 -4.16708e-05)
(9.3797e-05 -0.000399989 -4.16703e-05)
(0.000128302 -0.000390291 -4.16698e-05)
(0.00016183 -0.000377625 -4.16705e-05)
(0.000194126 -0.000362082 -4.16712e-05)
(0.000224944 -0.000343786 -4.16711e-05)
(0.00025405 -0.000322871 -4.16707e-05)
(0.000281224 -0.000299501 -4.16706e-05)
(0.000306257 -0.000273851 -4.16708e-05)
(0.000328959 -0.000246117 -4.16707e-05)
(0.000349158 -0.000216509 -4.16703e-05)
(0.000366699 -0.000185253 -4.16705e-05)
(0.000381451 -0.000152589 -4.16709e-05)
(0.000393297 -0.000118763 -4.16711e-05)
(0.000402151 -8.40324e-05 -4.16708e-05)
(0.000407945 -4.86637e-05 -4.16713e-05)
(0.000410635 -1.29248e-05 -4.16711e-05)
(0.0004102 2.29138e-05 -4.16714e-05)
(0.000406641 5.85784e-05 -4.16708e-05)
(0.000399989 9.3797e-05 -4.16703e-05)
(0.000390291 0.000128302 -4.16698e-05)
(0.000377625 0.00016183 -4.16705e-05)
(0.000362082 0.000194126 -4.16712e-05)
(0.000343786 0.000224944 -4.16711e-05)
(0.000322871 0.00025405 -4.16707e-05)
(0.000299501 0.000281224 -4.16706e-05)
(0.000273851 0.000306257 -4.16708e-05)
(0.000246117 0.000328959 -4.16707e-05)
(0.000216509 0.000349158 -4.16702e-05)
(0.000185253 0.000366699 -4.16705e-05)
(0.000152589 0.000381451 -4.16709e-05)
(0.000118763 0.000393297 -4.16711e-05)
(8.40324e-05 0.000402151 -4.16709e-05)
(4.86637e-05 0.000407945 -4.16713e-05)
(1.29248e-05 0.000410635 -4.16712e-05)
(-2.29138e-05 0.0004102 -4.16714e-05)
(-5.85784e-05 0.000406641 -4.16708e-05)
(-9.3797e-05 0.000399989 -4.16703e-05)
(-0.000128302 0.000390291 -4.16698e-05)
(-0.00016183 0.000377625 -4.16705e-05)
(-0.000194126 0.000362082 -4.16712e-05)
(-0.000224944 0.000343786 -4.16712e-05)
(-0.00025405 0.000322871 -4.16707e-05)
(-0.000281224 0.000299501 -4.16706e-05)
(-0.00102468 0.000471661 -0.000371187)
(-0.00106189 0.000380559 -0.000371186)
(-0.00109102 0.00028656 -0.000371189)
(-0.00111184 0.00019038 -0.00037119)
(-0.0011242 9.27511e-05 -0.000371189)
(-0.00112801 -5.58249e-06 -0.000371187)
(-0.00112323 -0.000103873 -0.000371183)
(-0.00110991 -0.000201371 -0.000371181)
(-0.00108813 -0.000297337 -0.00037118)
(-0.00105808 -0.000391041 -0.000371182)
(-0.00101997 -0.000481771 -0.000371186)
(-0.000974096 -0.000568835 -0.000371188)
(-0.000920812 -0.000651572 -0.000371187)
(-0.00086052 -0.000729347 -0.000371186)
(-0.00079368 -0.000801569 -0.000371185)
(-0.000720797 -0.00086769 -0.000371185)
(-0.000642429 -0.000927211 -0.000371189)
(-0.000559173 -0.000979677 -0.000371188)
(-0.000471661 -0.00102468 -0.000371187)
(-0.000380559 -0.00106189 -0.000371186)
(-0.00028656 -0.00109102 -0.000371189)
(-0.00019038 -0.00111184 -0.00037119)
(-9.27511e-05 -0.0011242 -0.000371189)
(5.58248e-06 -0.00112801 -0.000371187)
(0.000103873 -0.00112323 -0.000371183)
(0.000201371 -0.00110991 -0.000371181)
(0.000297337 -0.00108813 -0.00037118)
(0.000391041 -0.00105808 -0.000371182)
(0.000481771 -0.00101997 -0.000371186)
(0.000568835 -0.000974096 -0.000371188)
(0.000651572 -0.000920812 -0.000371187)
(0.000729347 -0.00086052 -0.000371186)
(0.000801569 -0.00079368 -0.000371185)
(0.00086769 -0.000720797 -0.000371185)
(0.000927211 -0.000642429 -0.000371189)
(0.000979677 -0.000559173 -0.000371188)
(0.00102468 -0.000471661 -0.000371187)
(0.00106189 -0.000380559 -0.000371186)
(0.00109102 -0.00028656 -0.000371189)
(0.00111184 -0.00019038 -0.00037119)
(0.0011242 -9.2751e-05 -0.000371189)
(0.00112801 5.5825e-06 -0.000371187)
(0.00112323 0.000103873 -0.000371183)
(0.00110991 0.000201371 -0.000371181)
(0.00108813 0.000297337 -0.00037118)
(0.00105808 0.000391041 -0.000371182)
(0.00101997 0.000481771 -0.000371186)
(0.000974096 0.000568835 -0.000371188)
(0.000920812 0.000651572 -0.000371187)
(0.00086052 0.000729347 -0.000371186)
(0.00079368 0.000801569 -0.000371185)
(0.000720797 0.00086769 -0.000371185)
(0.000642429 0.000927211 -0.000371189)
(0.000559173 0.000979677 -0.000371188)
(0.000471661 0.00102468 -0.000371187)
(0.000380559 0.00106189 -0.000371186)
(0.00028656 0.00109102 -0.000371189)
(0.00019038 0.00111184 -0.00037119)
(9.2751e-05 0.0011242 -0.00037119)
(-5.58252e-06 0.00112801 -0.000371187)
(-0.000103873 0.00112323 -0.000371183)
(-0.000201371 0.00110991 -0.000371181)
(-0.000297337 0.00108813 -0.00037118)
(-0.000391041 0.00105808 -0.000371182)
(-0.000481771 0.00101997 -0.000371186)
(-0.000568835 0.000974096 -0.000371188)
(-0.000651572 0.000920812 -0.000371187)
(-0.000729347 0.00086052 -0.000371186)
(-0.000801569 0.00079368 -0.000371185)
(-0.00086769 0.000720797 -0.000371185)
(-0.000927211 0.000642429 -0.000371189)
(-0.000979677 0.000559173 -0.000371188)
(-0.00101287 0.000603117 -0.000247491)
(-0.00106158 0.000512545 -0.00024749)
(-0.00110221 0.000418071 -0.000247491)
(-0.00113445 0.000320415 -0.000247491)
(-0.00115807 0.000220321 -0.000247491)
(-0.00117286 0.000118551 -0.00024749)
(-0.00117873 1.58796e-05 -0.000247489)
(-0.00117563 -8.69127e-05 -0.000247488)
(-0.00116358 -0.000189044 -0.000247487)
(-0.00114268 -0.000289737 -0.000247487)
(-0.00111308 -0.000388226 -0.000247488)
(-0.00107501 -0.000483761 -0.000247489)
(-0.00102875 -0.000575614 -0.000247489)
(-0.000974669 -0.000663085 -0.000247489)
(-0.000913168 -0.000745508 -0.000247489)
(-0.000844717 -0.000822258 -0.000247489)
(-0.000769838 -0.000892752 -0.00024749)
(-0.0006891 -0.000956452 -0.00024749)
(-0.000603117 -0.00101287 -0.000247491)
(-0.000512545 -0.00106158 -0.00024749)
(-0.000418071 -0.00110221 -0.000247491)
(-0.000320415 -0.00113445 -0.000247491)
(-0.000220321 -0.00115807 -0.000247491)
(-0.000118551 -0.00117286 -0.00024749)
(-1.58797e-05 -0.00117873 -0.000247489)
(8.69127e-05 -0.00117563 -0.000247488)
(0.000189044 -0.00116358 -0.000247488)
(0.000289737 -0.00114268 -0.000247487)
(0.000388226 -0.00111308 -0.000247488)
(0.000483761 -0.00107501 -0.000247489)
(0.000575614 -0.00102875 -0.000247489)
(0.000663085 -0.000974669 -0.000247489)
(0.000745508 -0.000913168 -0.000247489)
(0.000822258 -0.000844717 -0.000247489)
(0.000892752 -0.000769838 -0.00024749)
(0.000956452 -0.0006891 -0.00024749)
(0.00101287 -0.000603117 -0.000247491)
(0.00106158 -0.000512545 -0.00024749)
(0.00110221 -0.000418071 -0.000247491)
(0.00113445 -0.000320415 -0.000247491)
(0.00115807 -0.000220321 -0.000247491)
(0.00117286 -0.000118551 -0.00024749)
(0.00117873 -1.58796e-05 -0.000247489)
(0.00117563 8.69127e-05 -0.000247488)
(0.00116358 0.000189044 -0.000247488)
(0.00114268 0.000289737 -0.000247487)
(0.00111308 0.000388226 -0.000247488)
(0.00107501 0.000483761 -0.000247489)
(0.00102875 0.000575614 -0.000247489)
(0.000974669 0.000663085 -0.000247489)
(0.000913168 0.000745508 -0.000247489)
(0.000844717 0.000822258 -0.000247489)
(0.000769838 0.000892752 -0.00024749)
(0.0006891 0.000956452 -0.00024749)
(0.000603117 0.00101287 -0.000247491)
(0.000512545 0.00106158 -0.00024749)
(0.000418071 0.00110221 -0.000247491)
(0.000320415 0.00113445 -0.000247491)
(0.000220321 0.00115807 -0.000247491)
(0.000118551 0.00117286 -0.00024749)
(1.58796e-05 0.00117873 -0.000247489)
(-8.69127e-05 0.00117563 -0.000247488)
(-0.000189044 0.00116358 -0.000247488)
(-0.000289737 0.00114268 -0.000247487)
(-0.000388226 0.00111308 -0.000247488)
(-0.000483761 0.00107501 -0.000247489)
(-0.000575614 0.00102875 -0.000247489)
(-0.000663085 0.000974669 -0.000247489)
(-0.000745508 0.000913168 -0.000247489)
(-0.000822258 0.000844717 -0.000247489)
(-0.000892752 0.000769838 -0.00024749)
(-0.000956452 0.0006891 -0.00024749)
(-0.00103026 0.000841042 -0.000110319)
(-0.00109964 0.000748049 -0.000110319)
(-0.00116065 0.000649361 -0.000110318)
(-0.00121283 0.000545732 -0.000110318)
(-0.00125578 0.000437949 -0.000110318)
(-0.00128917 0.000326835 -0.000110319)
(-0.00131275 0.000213233 -0.000110319)
(-0.00132634 9.80089e-05 -0.00011032)
(-0.00132984 -1.79613e-05 -0.000110319)
(-0.00132321 -0.000133796 -0.000110318)
(-0.00130652 -0.000248614 -0.000110317)
(-0.00127988 -0.000361539 -0.000110317)
(-0.0012435 -0.000471713 -0.000110318)
(-0.00119765 -0.000578295 -0.000110319)
(-0.00114269 -0.000680475 -0.000110319)
(-0.00107904 -0.000777476 -0.000110319)
(-0.00100717 -0.000868563 -0.000110319)
(-0.000927634 -0.000953039 -0.000110318)
(-0.000841042 -0.00103026 -0.000110319)
(-0.000748049 -0.00109964 -0.000110319)
(-0.000649361 -0.00116065 -0.000110318)
(-0.000545732 -0.00121283 -0.000110318)
(-0.000437949 -0.00125578 -0.000110318)
(-0.000326835 -0.00128917 -0.000110319)
(-0.000213233 -0.00131275 -0.000110319)
(-9.8009e-05 -0.00132634 -0.00011032)
(1.79613e-05 -0.00132984 -0.000110319)
(0.000133796 -0.00132321 -0.000110318)
(0.000248614 -0.00130652 -0.000110317)
(0.000361539 -0.00127988 -0.000110318)
(0.000471713 -0.0012435 -0.000110318)
(0.000578295 -0.00119765 -0.000110319)
(0.000680475 -0.00114269 -0.000110319)
(0.000777476 -0.00107904 -0.000110319)
(0.000868563 -0.00100717 -0.000110319)
(0.000953039 -0.000927634 -0.000110318)
(0.00103026 -0.000841042 -0.000110319)
(0.00109964 -0.000748049 -0.000110319)
(0.00116065 -0.000649361 -0.000110318)
(0.00121283 -0.000545732 -0.000110318)
(0.00125578 -0.000437949 -0.000110318)
(0.00128917 -0.000326835 -0.000110319)
(0.00131275 -0.000213233 -0.000110319)
(0.00132634 -9.8009e-05 -0.00011032)
(0.00132984 1.79613e-05 -0.000110319)
(0.00132321 0.000133796 -0.000110318)
(0.00130652 0.000248614 -0.000110317)
(0.00127988 0.000361539 -0.000110318)
(0.0012435 0.000471713 -0.000110318)
(0.00119765 0.000578295 -0.000110319)
(0.00114269 0.000680475 -0.000110319)
(0.00107904 0.000777476 -0.000110319)
(0.00100717 0.000868563 -0.000110319)
(0.000927634 0.000953039 -0.000110318)
(0.000841042 0.00103026 -0.000110319)
(0.000748049 0.00109964 -0.000110319)
(0.000649361 0.00116065 -0.000110318)
(0.000545732 0.00121283 -0.000110318)
(0.000437949 0.00125578 -0.000110318)
(0.000326835 0.00128917 -0.000110319)
(0.000213233 0.00131275 -0.000110319)
(9.80089e-05 0.00132634 -0.00011032)
(-1.79613e-05 0.00132984 -0.00011032)
(-0.000133796 0.00132321 -0.000110318)
(-0.000248614 0.00130652 -0.000110317)
(-0.000361539 0.00127988 -0.000110318)
(-0.000471713 0.0012435 -0.000110318)
(-0.000578295 0.00119765 -0.000110319)
(-0.000680475 0.00114269 -0.000110319)
(-0.000777476 0.00107904 -0.000110319)
(-0.000868563 0.00100717 -0.000110319)
(-0.000953039 0.000927634 -0.000110318)
(-0.00147647 0.00085141 -0.000625423)
(-0.00154505 0.000719488 -0.000625423)
(-0.00160188 0.000582089 -0.000625424)
(-0.00164652 0.000440261 -0.000625423)
(-0.00167863 0.000295081 -0.000625424)
(-0.00169796 0.000147656 -0.000625421)
(-0.00170436 -8.91508e-07 -0.000625417)
(-0.0016978 -0.000149432 -0.000625417)
(-0.00167832 -0.000296837 -0.000625417)
(-0.00164606 -0.000441981 -0.000625417)
(-0.00160128 -0.000583762 -0.000625417)
(-0.0015443 -0.0007211 -0.000625419)
(-0.00147558 -0.000852952 -0.000625419)
(-0.00139562 -0.000978312 -0.000625419)
(-0.00130505 -0.00109623 -0.000625419)
(-0.00120454 -0.0012058 -0.000625419)
(-0.00109486 -0.00130619 -0.000625422)
(-0.000976853 -0.00139664 -0.000625423)
(-0.00085141 -0.00147647 -0.000625423)
(-0.000719488 -0.00154505 -0.000625423)
(-0.000582089 -0.00160188 -0.000625424)
(-0.000440261 -0.00164652 -0.000625423)
(-0.000295081 -0.00167863 -0.000625424)
(-0.000147656 -0.00169796 -0.000625421)
(8.91423e-07 -0.00170436 -0.000625417)
(0.000149432 -0.0016978 -0.000625417)
(0.000296836 -0.00167832 -0.000625417)
(0.000441981 -0.00164606 -0.000625417)
(0.000583762 -0.00160128 -0.000625417)
(0.0007211 -0.0015443 -0.000625419)
(0.000852952 -0.00147558 -0.000625419)
(0.000978312 -0.00139562 -0.000625419)
(0.00109623 -0.00130505 -0.000625419)
(0.0012058 -0.00120454 -0.000625419)
(0.00130619 -0.00109486 -0.000625422)
(0.00139664 -0.000976853 -0.000625423)
(0.00147647 -0.00085141 -0.000625423)
(0.00154505 -0.000719487 -0.000625423)
(0.00160188 -0.000582089 -0.000625424)
(0.00164652 -0.000440261 -0.000625424)
(0.00167863 -0.000295081 -0.000625424)
(0.00169796 -0.000147656 -0.000625421)
(0.00170436 8.91464e-07 -0.000625417)
(0.0016978 0.000149432 -0.000625417)
(0.00167832 0.000296836 -0.000625417)
(0.00164606 0.000441981 -0.000625417)
(0.00160128 0.000583762 -0.000625417)
(0.0015443 0.0007211 -0.000625419)
(0.00147558 0.000852952 -0.000625419)
(0.00139562 0.000978312 -0.000625419)
(0.00130505 0.00109623 -0.000625419)
(0.00120454 0.0012058 -0.000625419)
(0.00109486 0.00130619 -0.000625422)
(0.000976853 0.00139664 -0.000625423)
(0.00085141 0.00147647 -0.000625423)
(0.000719487 0.00154505 -0.000625423)
(0.000582089 0.00160188 -0.000625424)
(0.000440261 0.00164652 -0.000625423)
(0.000295081 0.00167863 -0.000625424)
(0.000147656 0.00169796 -0.000625421)
(-8.91475e-07 0.00170436 -0.000625417)
(-0.000149432 0.0016978 -0.000625417)
(-0.000296836 0.00167832 -0.000625417)
(-0.000441981 0.00164606 -0.000625417)
(-0.000583762 0.00160128 -0.000625417)
(-0.0007211 0.0015443 -0.000625419)
(-0.000852952 0.00147558 -0.000625419)
(-0.000978312 0.00139562 -0.000625419)
(-0.00109623 0.00130505 -0.000625419)
(-0.0012058 0.00120454 -0.000625419)
(-0.00130619 0.00109486 -0.000625422)
(-0.00139664 0.000976853 -0.000625423)
(-0.0015356 0.00111319 -0.00043278)
(-0.00162677 0.000975121 -0.00043278)
(-0.00170557 0.000829628 -0.00043278)
(-0.00177139 0.000677821 -0.00043278)
(-0.00182372 0.000520854 -0.00043278)
(-0.00186218 0.000359924 -0.00043278)
(-0.00188646 0.000196256 -0.000432778)
(-0.00189639 3.10936e-05 -0.000432778)
(-0.00189188 -0.000134306 -0.000432777)
(-0.00187298 -0.000298683 -0.000432777)
(-0.00183982 -0.000460787 -0.000432777)
(-0.00179266 -0.000619385 -0.000432778)
(-0.00173185 -0.000773269 -0.000432778)
(-0.00165787 -0.000921267 -0.000432777)
(-0.00157127 -0.00106225 -0.000432778)
(-0.0014727 -0.00119516 -0.000432778)
(-0.00136293 -0.00131896 -0.000432779)
(-0.00124279 -0.00143273 -0.000432779)
(-0.00111319 -0.0015356 -0.00043278)
(-0.000975121 -0.00162677 -0.00043278)
(-0.000829628 -0.00170557 -0.00043278)
(-0.000677821 -0.00177139 -0.00043278)
(-0.000520854 -0.00182372 -0.00043278)
(-0.000359924 -0.00186218 -0.00043278)
(-0.000196256 -0.00188646 -0.000432778)
(-3.10936e-05 -0.00189639 -0.000432778)
(0.000134306 -0.00189188 -0.000432777)
(0.000298683 -0.00187298 -0.000432777)
(0.000460787 -0.00183982 -0.000432777)
(0.000619385 -0.00179266 -0.000432778)
(0.000773269 -0.00173185 -0.000432778)
(0.000921267 -0.00165787 -0.000432777)
(0.00106225 -0.00157127 -0.000432778)
(0.00119516 -0.0014727 -0.000432778)
(0.00131896 -0.00136293 -0.000432779)
(0.00143273 -0.00124279 -0.000432779)
(0.0015356 -0.00111319 -0.00043278)
(0.00162677 -0.000975121 -0.00043278)
(0.00170557 -0.000829627 -0.00043278)
(0.00177139 -0.000677821 -0.00043278)
(0.00182372 -0.000520854 -0.00043278)
(0.00186218 -0.000359924 -0.00043278)
(0.00188646 -0.000196256 -0.000432778)
(0.00189639 -3.10936e-05 -0.000432778)
(0.00189188 0.000134306 -0.000432777)
(0.00187298 0.000298683 -0.000432777)
(0.00183982 0.000460787 -0.000432777)
(0.00179266 0.000619385 -0.000432778)
(0.00173185 0.000773269 -0.000432778)
(0.00165787 0.000921267 -0.000432777)
(0.00157127 0.00106225 -0.000432778)
(0.0014727 0.00119516 -0.000432778)
(0.00136293 0.00131896 -0.000432779)
(0.00124279 0.00143273 -0.000432779)
(0.00111319 0.0015356 -0.00043278)
(0.000975121 0.00162677 -0.00043278)
(0.000829627 0.00170557 -0.00043278)
(0.000677821 0.00177139 -0.00043278)
(0.000520854 0.00182372 -0.00043278)
(0.000359924 0.00186218 -0.00043278)
(0.000196256 0.00188646 -0.000432778)
(3.10936e-05 0.00189639 -0.000432778)
(-0.000134306 0.00189188 -0.000432777)
(-0.000298683 0.00187298 -0.000432777)
(-0.000460787 0.00183982 -0.000432777)
(-0.000619385 0.00179266 -0.000432778)
(-0.000773269 0.00173185 -0.000432778)
(-0.000921267 0.00165787 -0.000432777)
(-0.00106225 0.00157127 -0.000432778)
(-0.00119516 0.0014727 -0.000432778)
(-0.00131896 0.00136293 -0.000432779)
(-0.00143273 0.00124279 -0.000432779)
(-0.00163875 0.00142372 -0.000254999)
(-0.0017566 0.00127548 -0.000254999)
(-0.00186108 0.00111753 -0.000254999)
(-0.00195139 0.000951073 -0.000254999)
(-0.00202686 0.000777378 -0.000255)
(-0.0020869 0.000597769 -0.000255)
(-0.00213106 0.00041361 -0.000255)
(-0.002159 0.000226303 -0.000255)
(-0.0021705 3.72725e-05 -0.000255)
(-0.00216549 -0.000152042 -0.000254999)
(-0.002144 -0.000340199 -0.000254999)
(-0.00210619 -0.000525767 -0.000254999)
(-0.00205236 -0.000707333 -0.000254999)
(-0.0019829 -0.000883516 -0.000254999)
(-0.00189835 -0.00105297 -0.000254999)
(-0.00179935 -0.00121442 -0.000254999)
(-0.00168666 -0.00136662 -0.000254999)
(-0.00156113 -0.00150842 -0.000254999)
(-0.00142372 -0.00163875 -0.000254999)
(-0.00127548 -0.0017566 -0.000254999)
(-0.00111753 -0.00186108 -0.000254999)
(-0.000951073 -0.00195139 -0.000254999)
(-0.000777378 -0.00202686 -0.000255)
(-0.000597769 -0.0020869 -0.000255)
(-0.00041361 -0.00213106 -0.000255)
(-0.000226303 -0.002159 -0.000255)
(-3.72725e-05 -0.0021705 -0.000255)
(0.000152041 -0.00216549 -0.000254999)
(0.000340199 -0.002144 -0.000254999)
(0.000525767 -0.00210619 -0.000254999)
(0.000707333 -0.00205236 -0.000254999)
(0.000883516 -0.0019829 -0.000254999)
(0.00105297 -0.00189835 -0.000254999)
(0.00121442 -0.00179935 -0.000254999)
(0.00136662 -0.00168666 -0.000254999)
(0.00150842 -0.00156113 -0.000254999)
(0.00163875 -0.00142372 -0.000254999)
(0.0017566 -0.00127548 -0.000254999)
(0.00186108 -0.00111753 -0.000254999)
(0.00195139 -0.000951073 -0.000254999)
(0.00202686 -0.000777378 -0.000255)
(0.0020869 -0.000597769 -0.000255)
(0.00213106 -0.00041361 -0.000255)
(0.002159 -0.000226303 -0.000255)
(0.0021705 -3.72725e-05 -0.000255)
(0.00216549 0.000152042 -0.000254999)
(0.002144 0.000340199 -0.000254999)
(0.00210619 0.000525767 -0.000254999)
(0.00205236 0.000707333 -0.000254999)
(0.0019829 0.000883516 -0.000254999)
(0.00189835 0.00105297 -0.000254999)
(0.00179935 0.00121442 -0.000254999)
(0.00168666 0.00136662 -0.000254999)
(0.00156113 0.00150842 -0.000254999)
(0.00142372 0.00163875 -0.000254999)
(0.00127548 0.0017566 -0.000254999)
(0.00111753 0.00186108 -0.000254999)
(0.000951073 0.00195139 -0.000254999)
(0.000777378 0.00202686 -0.000255)
(0.000597769 0.0020869 -0.000255)
(0.00041361 0.00213106 -0.000255)
(0.000226303 0.002159 -0.000255)
(3.72725e-05 0.0021705 -0.000255)
(-0.000152041 0.00216549 -0.000254999)
(-0.000340199 0.002144 -0.000254999)
(-0.000525767 0.00210619 -0.000254999)
(-0.000707333 0.00205236 -0.000254999)
(-0.000883516 0.0019829 -0.000254999)
(-0.00105297 0.00189835 -0.000254999)
(-0.00121442 0.00179935 -0.000254999)
(-0.00136662 0.00168666 -0.000254999)
(-0.00150842 0.00156113 -0.000254999)
(-0.00173448 0.00136042 -0.000888564)
(-0.00184645 0.00120407 -0.000888565)
(-0.00194437 0.00103856 -0.000888567)
(-0.00202749 0.00086515 -0.000888567)
(-0.00209517 0.000685149 -0.000888566)
(-0.00214691 0.000499935 -0.000888565)
(-0.00218232 0.000310918 -0.000888562)
(-0.00220111 0.000119533 -0.000888561)
(-0.00220315 -7.27607e-05 -0.000888562)
(-0.00218843 -0.000264502 -0.000888564)
(-0.00215705 -0.00045423 -0.000888563)
(-0.00210925 -0.0006405 -0.000888563)
(-0.0020454 -0.000821895 -0.000888562)
(-0.00196598 -0.000997036 -0.000888562)
(-0.00187161 -0.00116459 -0.000888562)
(-0.00176298 -0.00132328 -0.000888562)
(-0.00164094 -0.0014719 -0.000888563)
(-0.00150641 -0.00160931 -0.000888564)
(-0.00136042 -0.00173448 -0.000888564)
(-0.00120407 -0.00184645 -0.000888565)
(-0.00103856 -0.00194437 -0.000888567)
(-0.00086515 -0.00202748 -0.000888567)
(-0.000685149 -0.00209517 -0.000888566)
(-0.000499935 -0.00214691 -0.000888565)
(-0.000310918 -0.00218232 -0.000888562)
(-0.000119533 -0.00220111 -0.000888561)
(7.27607e-05 -0.00220315 -0.000888562)
(0.000264502 -0.00218843 -0.000888564)
(0.00045423 -0.00215705 -0.000888563)
(0.0006405 -0.00210925 -0.000888563)
(0.000821895 -0.0020454 -0.000888562)
(0.000997036 -0.00196598 -0.000888562)
(0.00116459 -0.00187161 -0.000888562)
(0.00132328 -0.00176298 -0.000888562)
(0.0014719 -0.00164094 -0.000888563)
(0.00160931 -0.00150641 -0.000888564)
(0.00173448 -0.00136042 -0.000888564)
(0.00184645 -0.00120407 -0.000888565)
(0.00194437 -0.00103856 -0.000888567)
(0.00202749 -0.000865149 -0.000888567)
(0.00209517 -0.000685149 -0.000888566)
(0.00214691 -0.000499935 -0.000888565)
(0.00218232 -0.000310918 -0.000888562)
(0.00220111 -0.000119533 -0.000888561)
(0.00220315 7.27608e-05 -0.000888562)
(0.00218843 0.000264502 -0.000888564)
(0.00215705 0.00045423 -0.000888563)
(0.00210925 0.0006405 -0.000888563)
(0.0020454 0.000821895 -0.000888562)
(0.00196598 0.000997036 -0.000888562)
(0.00187161 0.00116459 -0.000888562)
(0.00176298 0.00132328 -0.000888562)
(0.00164094 0.0014719 -0.000888563)
(0.00150641 0.00160931 -0.000888564)
(0.00136042 0.00173448 -0.000888564)
(0.00120407 0.00184645 -0.000888565)
(0.00103856 0.00194437 -0.000888567)
(0.000865149 0.00202749 -0.000888567)
(0.000685149 0.00209517 -0.000888566)
(0.000499935 0.00214691 -0.000888565)
(0.000310918 0.00218232 -0.000888562)
(0.000119533 0.00220111 -0.000888561)
(-7.27607e-05 0.00220315 -0.000888562)
(-0.000264502 0.00218843 -0.000888564)
(-0.00045423 0.00215705 -0.000888563)
(-0.0006405 0.00210925 -0.000888563)
(-0.000821895 0.0020454 -0.000888562)
(-0.000997036 0.00196598 -0.000888562)
(-0.00116459 0.00187161 -0.000888562)
(-0.00132328 0.00176298 -0.000888562)
(-0.0014719 0.00164094 -0.000888563)
(-0.00160931 0.00150641 -0.000888564)
(-0.00185423 0.00168692 -0.00066721)
(-0.0019942 0.0015189 -0.00066721)
(-0.00211899 0.00133931 -0.000667211)
(-0.00222765 0.00114953 -0.000667211)
(-0.00231936 0.000951007 -0.000667211)
(-0.00239342 0.000745242 -0.00066721)
(-0.00244927 0.000533805 -0.000667209)
(-0.00248647 0.000318306 -0.000667208)
(-0.00250475 0.000100386 -0.000667208)
(-0.00250397 -0.0001183 -0.000667209)
(-0.00248413 -0.000336085 -0.000667209)
(-0.00244539 -0.000551313 -0.000667209)
(-0.00238803 -0.000762344 -0.000667208)
(-0.0023125 -0.000967574 -0.000667208)
(-0.00221937 -0.00116544 -0.000667208)
(-0.00210935 -0.00135444 -0.000667209)
(-0.00198328 -0.00153312 -0.000667209)
(-0.00184211 -0.00170015 -0.000667209)
(-0.00168692 -0.00185423 -0.000667209)
(-0.0015189 -0.0019942 -0.00066721)
(-0.00133931 -0.00211899 -0.000667211)
(-0.00114953 -0.00222765 -0.000667211)
(-0.000951007 -0.00231936 -0.000667211)
(-0.000745242 -0.00239342 -0.00066721)
(-0.000533805 -0.00244927 -0.000667209)
(-0.000318306 -0.00248647 -0.000667208)
(-0.000100386 -0.00250475 -0.000667208)
(0.0001183 -0.00250397 -0.000667209)
(0.000336085 -0.00248413 -0.000667209)