/*--------------------------------*- C++ -*----------------------------------*\
| =========                 |                                                 |
| \\      /  F ield         | OpenFOAM: The Open Source CFD Toolbox           |
|  \\    /   O peration     | Version:  2312                                  |
|   \\  /    A nd           | Website:  www.openfoam.com                      |
|    \\/     M anipulation  |                                                 |
\*---------------------------------------------------------------------------*/
FoamFile
{
    version     2.0;
    format      ascii;
    arch        "LSB;label=32;scalar=64";
    class       volTensorField;
    location    "0.6";
    object      F;
}
// * * * * * * * * * * * * * * * * * * * * * * * * * * * * * * * * * * * * * //

dimensions      [0 0 0 0 0 0 0];

internalField   nonuniform List<tensor> 
3240
(
(0.940584 -0.0199666 0.31967 -0.0068015 0.954043 -0.157192 -0.0313293 -0.00136721 1.12665)
(0.943011 -0.0209312 0.332153 -0.00776561 0.951616 -0.128732 -0.03109 -0.00409366 1.12665)
(0.945569 -0.0214609 0.342109 -0.00829504 0.949057 -0.0992934 -0.0306162 -0.00678927 1.12665)
(0.948179 -0.0215391 0.349461 -0.00837286 0.946447 -0.0690987 -0.0299092 -0.00943049 1.12665)
(0.950762 -0.0211618 0.354154 -0.00799581 0.943864 -0.0383779 -0.0289732 -0.012 1.12665)
(0.953241 -0.0203408 0.356151 -0.00717634 0.941386 -0.00736549 -0.027817 -0.0144783 1.12665)
(0.95554 -0.0191023 0.355438 -0.00593722 0.939088 0.0237034 -0.0264473 -0.0168469 1.12665)
(0.957589 -0.0174835 0.352021 -0.00431842 0.937039 0.0545912 -0.0248773 -0.0190898 1.12665)
(0.959326 -0.0155334 0.345924 -0.00236817 0.935302 0.0850636 -0.023119 -0.0211868 1.12665)
(0.960698 -0.0133112 0.337193 -0.000145195 0.93393 0.114888 -0.021185 -0.0231214 1.12665)
(0.961664 -0.0108844 0.325896 0.00228235 0.932964 0.143839 -0.01909 -0.02488 1.12665)
(0.962193 -0.00832706 0.312119 0.00483947 0.932434 0.171696 -0.0168504 -0.0264493 1.12665)
(0.96227 -0.00571802 0.295967 0.00744856 0.932357 0.198246 -0.0144815 -0.027816 1.12665)
(0.961892 -0.003134 0.277563 0.0100304 0.932735 0.223287 -0.0120018 -0.0289715 1.12665)
(0.961071 -0.000655514 0.257046 0.0125092 0.933557 0.246629 -0.00942952 -0.0299064 1.12665)
(0.959832 0.00164426 0.234573 0.0148098 0.934795 0.268093 -0.0067855 -0.0306162 1.12665)
(0.958214 0.00369341 0.210314 0.0168597 0.936413 0.287517 -0.00409305 -0.0310923 1.12665)
(0.956264 0.00542935 0.184454 0.0185958 0.938362 0.304754 -0.00136874 -0.0313291 1.12665)
(0.954043 0.00680151 0.157192 0.0199666 0.940584 0.31967 0.00136721 -0.0313293 1.12665)
(0.951616 0.00776561 0.128732 0.0209312 0.943011 0.332153 0.00409366 -0.03109 1.12665)
(0.949057 0.00829505 0.0992934 0.0214609 0.945569 0.342109 0.00678927 -0.0306162 1.12665)
(0.946447 0.00837287 0.0690987 0.0215391 0.948179 0.349461 0.00943049 -0.0299092 1.12665)
(0.943864 0.00799582 0.0383779 0.0211618 0.950762 0.354154 0.012 -0.0289732 1.12665)
(0.941386 0.00717634 0.0073655 0.0203408 0.953241 0.356151 0.0144783 -0.027817 1.12665)
(0.939088 0.00593722 -0.0237034 0.0191023 0.95554 0.355438 0.0168469 -0.0264473 1.12665)
(0.937039 0.00431842 -0.0545911 0.0174835 0.957589 0.352021 0.0190898 -0.0248773 1.12665)
(0.935302 0.00236817 -0.0850636 0.0155334 0.959326 0.345924 0.0211868 -0.023119 1.12665)
(0.93393 0.000145196 -0.114888 0.0133112 0.960698 0.337193 0.0231214 -0.021185 1.12665)
(0.932964 -0.00228235 -0.143839 0.0108844 0.961664 0.325896 0.02488 -0.01909 1.12665)
(0.932434 -0.00483946 -0.171696 0.00832706 0.962193 0.312119 0.0264493 -0.0168504 1.12665)
(0.932357 -0.00744855 -0.198246 0.00571802 0.96227 0.295967 0.027816 -0.0144815 1.12665)
(0.932735 -0.0100304 -0.223287 0.00313399 0.961892 0.277563 0.0289715 -0.0120018 1.12665)
(0.933557 -0.0125092 -0.246629 0.000655515 0.961071 0.257046 0.0299064 -0.0094295 1.12665)
(0.934795 -0.0148099 -0.268093 -0.00164426 0.959832 0.234573 0.0306162 -0.00678548 1.12665)
(0.936413 -0.0168597 -0.287517 -0.00369341 0.958214 0.210314 0.0310923 -0.00409303 1.12665)
(0.938362 -0.0185958 -0.304754 -0.00542935 0.956264 0.184454 0.0313292 -0.00136873 1.12665)
(0.940584 -0.0199666 -0.31967 -0.00680152 0.954043 0.157192 0.0313293 0.00136721 1.12665)
(0.943011 -0.0209312 -0.332153 -0.00776562 0.951616 0.128732 0.03109 0.00409366 1.12665)
(0.945569 -0.0214609 -0.342109 -0.00829506 0.949057 0.0992934 0.0306162 0.00678927 1.12665)
(0.948179 -0.0215391 -0.349461 -0.00837287 0.946447 0.0690987 0.0299092 0.00943049 1.12665)
(0.950762 -0.0211618 -0.354154 -0.00799583 0.943864 0.0383779 0.0289732 0.012 1.12665)
(0.953241 -0.0203408 -0.356151 -0.00717635 0.941386 0.00736549 0.027817 0.0144783 1.12665)
(0.95554 -0.0191023 -0.355438 -0.00593722 0.939088 -0.0237034 0.0264473 0.0168469 1.12665)
(0.957589 -0.0174835 -0.352021 -0.00431843 0.937039 -0.0545911 0.0248773 0.0190898 1.12665)
(0.959326 -0.0155334 -0.345924 -0.00236818 0.935302 -0.0850636 0.023119 0.0211868 1.12665)
(0.960698 -0.0133112 -0.337193 -0.000145199 0.93393 -0.114888 0.021185 0.0231214 1.12665)
(0.961664 -0.0108844 -0.325896 0.00228235 0.932964 -0.143839 0.01909 0.02488 1.12665)
(0.962193 -0.00832706 -0.312119 0.00483946 0.932434 -0.171696 0.0168504 0.0264493 1.12665)
(0.96227 -0.00571802 -0.295967 0.00744855 0.932357 -0.198246 0.0144815 0.027816 1.12665)
(0.961892 -0.003134 -0.277563 0.0100304 0.932735 -0.223287 0.0120018 0.0289715 1.12665)
(0.961071 -0.00065552 -0.257046 0.0125092 0.933557 -0.246629 0.0094295 0.0299064 1.12665)
(0.959832 0.00164425 -0.234573 0.0148099 0.934795 -0.268093 0.00678548 0.0306162 1.12665)
(0.958214 0.0036934 -0.210314 0.0168597 0.936413 -0.287517 0.00409303 0.0310923 1.12665)
(0.956264 0.00542934 -0.184454 0.0185958 0.938362 -0.304754 0.00136873 0.0313291 1.12665)
(0.954043 0.0068015 -0.157192 0.0199666 0.940584 -0.31967 -0.00136721 0.0313293 1.12665)
(0.951616 0.0077656 -0.128732 0.0209312 0.943011 -0.332153 -0.00409366 0.03109 1.12665)
(0.949057 0.00829504 -0.0992934 0.0214609 0.945569 -0.342109 -0.00678928 0.0306162 1.12665)
(0.946447 0.00837286 -0.0690987 0.0215391 0.948179 -0.349461 -0.00943049 0.0299092 1.12665)
(0.943864 0.00799582 -0.0383779 0.0211619 0.950762 -0.354154 -0.012 0.0289732 1.12665)
(0.941386 0.00717635 -0.00736549 0.0203408 0.953241 -0.356151 -0.0144783 0.027817 1.12665)
(0.939088 0.00593723 0.0237034 0.0191023 0.95554 -0.355438 -0.0168469 0.0264473 1.12665)
(0.937039 0.00431844 0.0545911 0.0174835 0.957589 -0.352021 -0.0190898 0.0248773 1.12665)
(0.935302 0.00236819 0.0850636 0.0155334 0.959326 -0.345924 -0.0211868 0.023119 1.12665)
(0.93393 0.000145208 0.114888 0.0133112 0.960698 -0.337193 -0.0231214 0.021185 1.12665)
(0.932964 -0.00228234 0.143839 0.0108844 0.961664 -0.325896 -0.02488 0.01909 1.12665)
(0.932434 -0.00483945 0.171696 0.00832706 0.962193 -0.312119 -0.0264493 0.0168504 1.12665)
(0.932357 -0.00744854 0.198246 0.00571802 0.96227 -0.295967 -0.027816 0.0144815 1.12665)
(0.932735 -0.0100304 0.223287 0.003134 0.961892 -0.277563 -0.0289715 0.0120018 1.12665)
(0.933557 -0.0125092 0.246629 0.000655521 0.961071 -0.257046 -0.0299064 0.0094295 1.12665)
(0.934795 -0.0148098 0.268093 -0.00164425 0.959832 -0.234573 -0.0306162 0.00678548 1.12665)
(0.936413 -0.0168597 0.287517 -0.00369341 0.958214 -0.210314 -0.0310923 0.00409303 1.12665)
(0.938362 -0.0185958 0.304754 -0.00542935 0.956264 -0.184454 -0.0313291 0.00136873 1.12665)
(0.946637 -0.0228996 0.346656 -0.0510856 0.953809 -0.222541 -0.038437 -0.00167793 1.07957)
(0.953115 -0.0229602 0.364733 -0.0511459 0.947331 -0.191481 -0.0381439 -0.00502184 1.07957)
(0.959506 -0.0218957 0.380033 -0.0500809 0.94094 -0.158964 -0.0375623 -0.00832784 1.07957)
(0.965614 -0.0197373 0.392441 -0.0479229 0.934832 -0.125237 -0.036694 -0.0115696 1.07957)
(0.971255 -0.0165505 0.401864 -0.044737 0.929191 -0.0905569 -0.0355456 -0.0147234 1.07957)
(0.976256 -0.0124326 0.408227 -0.0406197 0.92419 -0.0551873 -0.0341267 -0.0177646 1.07957)
(0.980466 -0.00750952 0.411483 -0.0356955 0.919981 -0.0193985 -0.0324477 -0.0206705 1.07957)
(0.983758 -0.0019296 0.411608 -0.030116 0.916689 0.0165383 -0.0305222 -0.0234201 1.07957)
(0.986031 0.00413727 0.408601 -0.0240487 0.914416 0.0523493 -0.0283647 -0.0259925 1.07957)
(0.987217 0.0105064 0.402484 -0.0176783 0.913231 0.087762 -0.0259918 -0.0283662 1.07957)
(0.987278 0.016985 0.393303 -0.0111995 0.91317 0.122507 -0.0234216 -0.0305236 1.07957)
(0.986212 0.0233762 0.381129 -0.00480922 0.914235 0.15632 -0.0206727 -0.032449 1.07957)
(0.984053 0.0294839 0.366055 0.00129827 0.916393 0.188943 -0.0177657 -0.034127 1.07957)
(0.980867 0.0351247 0.348195 0.00693777 0.91958 0.220127 -0.0147233 -0.035545 1.07957)
(0.976749 0.0401258 0.327684 0.0119392 0.923698 0.249636 -0.011569 -0.036692 1.07957)
(0.971825 0.0443369 0.304679 0.0161504 0.928622 0.277246 -0.00832661 -0.0375613 1.07957)
(0.966245 0.0476284 0.279356 0.0194428 0.934201 0.302746 -0.00502159 -0.0381453 1.07957)
(0.960179 0.0499008 0.251907 0.0217155 0.940267 0.325942 -0.00167834 -0.038437 1.07957)
(0.953809 0.0510856 0.222541 0.0228996 0.946637 0.346656 0.00167793 -0.038437 1.07957)
(0.947331 0.0511459 0.191481 0.0229602 0.953115 0.364733 0.00502184 -0.0381439 1.07957)
(0.94094 0.0500809 0.158964 0.0218957 0.959506 0.380033 0.00832784 -0.0375623 1.07957)
(0.934832 0.0479229 0.125237 0.0197373 0.965614 0.392441 0.0115696 -0.036694 1.07957)
(0.929191 0.044737 0.0905569 0.0165505 0.971255 0.401864 0.0147234 -0.0355456 1.07957)
(0.92419 0.0406197 0.0551873 0.0124326 0.976256 0.408227 0.0177646 -0.0341267 1.07957)
(0.919981 0.0356955 0.0193985 0.00750953 0.980466 0.411483 0.0206705 -0.0324477 1.07957)
(0.916689 0.030116 -0.0165382 0.00192961 0.983758 0.411608 0.0234201 -0.0305222 1.07957)
(0.914416 0.0240487 -0.0523493 -0.00413726 0.986031 0.408601 0.0259925 -0.0283647 1.07957)
(0.913231 0.0176783 -0.0877619 -0.0105064 0.987217 0.402484 0.0283662 -0.0259918 1.07957)
(0.91317 0.0111995 -0.122507 -0.016985 0.987278 0.393303 0.0305235 -0.0234216 1.07957)
(0.914235 0.00480921 -0.15632 -0.0233762 0.986212 0.381129 0.0324489 -0.0206727 1.07957)
(0.916393 -0.00129828 -0.188943 -0.0294839 0.984053 0.366055 0.034127 -0.0177657 1.07957)
(0.91958 -0.00693778 -0.220127 -0.0351247 0.980867 0.348195 0.035545 -0.0147233 1.07957)
(0.923698 -0.0119392 -0.249636 -0.0401258 0.976749 0.327684 0.0366919 -0.011569 1.07957)
(0.928622 -0.0161504 -0.277246 -0.0443369 0.971825 0.304679 0.0375613 -0.0083266 1.07957)
(0.934201 -0.0194428 -0.302746 -0.0476284 0.966245 0.279356 0.0381453 -0.00502157 1.07957)
(0.940267 -0.0217155 -0.325942 -0.0499008 0.960179 0.251907 0.0384371 -0.00167833 1.07957)
(0.946637 -0.0228996 -0.346656 -0.0510856 0.953809 0.222541 0.038437 0.00167793 1.07957)
(0.953115 -0.0229602 -0.364733 -0.0511459 0.947331 0.191481 0.0381439 0.00502185 1.07957)
(0.959506 -0.0218957 -0.380033 -0.0500809 0.94094 0.158964 0.0375623 0.00832785 1.07957)
(0.965614 -0.0197373 -0.392441 -0.0479229 0.934832 0.125236 0.036694 0.0115696 1.07957)
(0.971255 -0.0165505 -0.401864 -0.044737 0.929191 0.0905569 0.0355456 0.0147234 1.07957)
(0.976256 -0.0124326 -0.408227 -0.0406197 0.92419 0.0551873 0.0341267 0.0177646 1.07957)
(0.980466 -0.00750953 -0.411483 -0.0356955 0.919981 0.0193985 0.0324477 0.0206705 1.07957)
(0.983758 -0.00192961 -0.411608 -0.030116 0.916689 -0.0165383 0.0305222 0.0234201 1.07957)
(0.986031 0.00413726 -0.408601 -0.0240487 0.914416 -0.0523493 0.0283647 0.0259925 1.07957)
(0.987217 0.0105064 -0.402484 -0.0176783 0.913231 -0.0877619 0.0259918 0.0283662 1.07957)
(0.987278 0.016985 -0.393303 -0.0111995 0.91317 -0.122507 0.0234216 0.0305235 1.07957)
(0.986212 0.0233762 -0.381129 -0.00480921 0.914235 -0.15632 0.0206727 0.0324489 1.07957)
(0.984053 0.0294839 -0.366055 0.00129828 0.916393 -0.188943 0.0177657 0.034127 1.07957)
(0.980867 0.0351247 -0.348195 0.00693777 0.91958 -0.220127 0.0147233 0.035545 1.07957)
(0.976749 0.0401258 -0.327684 0.0119392 0.923698 -0.249636 0.011569 0.0366919 1.07957)
(0.971825 0.0443369 -0.304679 0.0161504 0.928622 -0.277246 0.0083266 0.0375613 1.07957)
(0.966245 0.0476284 -0.279356 0.0194428 0.934201 -0.302746 0.00502158 0.0381453 1.07957)
(0.960179 0.0499008 -0.251907 0.0217155 0.940267 -0.325942 0.00167834 0.0384371 1.07957)
(0.953809 0.0510856 -0.222541 0.0228996 0.946637 -0.346656 -0.00167793 0.038437 1.07957)
(0.947331 0.0511459 -0.191481 0.0229602 0.953115 -0.364733 -0.00502185 0.0381439 1.07957)
(0.94094 0.0500809 -0.158964 0.0218957 0.959506 -0.380033 -0.00832785 0.0375623 1.07957)
(0.934832 0.0479229 -0.125236 0.0197373 0.965614 -0.392441 -0.0115696 0.036694 1.07957)
(0.929191 0.044737 -0.0905569 0.0165505 0.971255 -0.401864 -0.0147234 0.0355456 1.07957)
(0.92419 0.0406197 -0.0551873 0.0124326 0.976256 -0.408227 -0.0177646 0.0341267 1.07957)
(0.919981 0.0356955 -0.0193985 0.00750954 0.980466 -0.411483 -0.0206705 0.0324477 1.07957)
(0.916689 0.0301161 0.0165383 0.00192962 0.983758 -0.411608 -0.0234201 0.0305222 1.07957)
(0.914416 0.0240487 0.0523493 -0.00413725 0.986031 -0.408601 -0.0259925 0.0283647 1.07957)
(0.913231 0.0176784 0.0877619 -0.0105064 0.987217 -0.402484 -0.0283662 0.0259918 1.07957)
(0.91317 0.0111995 0.122507 -0.016985 0.987278 -0.393303 -0.0305235 0.0234216 1.07957)
(0.914235 0.00480922 0.15632 -0.0233762 0.986212 -0.381129 -0.0324489 0.0206727 1.07957)
(0.916393 -0.00129827 0.188943 -0.0294839 0.984053 -0.366055 -0.034127 0.0177657 1.07957)
(0.91958 -0.00693777 0.220127 -0.0351247 0.980867 -0.348195 -0.035545 0.0147233 1.07957)
(0.923698 -0.0119392 0.249636 -0.0401258 0.976749 -0.327684 -0.0366919 0.011569 1.07957)
(0.928622 -0.0161504 0.277246 -0.0443369 0.971825 -0.304679 -0.0375613 0.00832659 1.07957)
(0.934201 -0.0194428 0.302746 -0.0476284 0.966245 -0.279356 -0.0381453 0.00502157 1.07957)
(0.940267 -0.0217155 0.325942 -0.0499008 0.960179 -0.251907 -0.0384371 0.00167834 1.07957)
(0.953833 -0.0392408 0.383009 -0.0984708 0.952252 -0.300416 -0.0459702 -0.00200717 1.03192)
(0.965778 -0.0380573 0.407734 -0.0972875 0.940308 -0.265891 -0.0456201 -0.00600555 1.03192)
(0.977336 -0.0348184 0.429356 -0.094048 0.92875 -0.229343 -0.0449241 -0.00995914 1.03192)
(0.988155 -0.0296216 0.44771 -0.088851 0.91793 -0.191049 -0.0438847 -0.0138373 1.03192)
(0.997908 -0.0226238 0.462658 -0.0818546 0.908178 -0.151302 -0.0425114 -0.0176094 1.03192)
(1.0063 -0.0140388 0.474084 -0.0732702 0.899788 -0.110403 -0.0408146 -0.0212469 1.03192)
(1.01307 -0.00412839 0.481902 -0.0633593 0.893017 -0.0686637 -0.038807 -0.024723 1.03192)
(1.01802 0.00680704 0.486053 -0.0524236 0.88807 -0.0264018 -0.0365039 -0.0280106 1.03192)
(1.02099 0.018436 0.486505 -0.0407938 0.885096 0.0160608 -0.0339241 -0.0310858 1.03192)
(1.0219 0.0304045 0.483254 -0.028824 0.884186 0.0584015 -0.0310865 -0.0339245 1.03192)
(1.02072 0.042349 0.476325 -0.0168788 0.88537 0.100298 -0.0280123 -0.0365049 1.03192)
(1.01748 0.0539082 0.465771 -0.00532123 0.888609 0.141431 -0.0247241 -0.0388077 1.03192)
(1.01228 0.0647279 0.451672 0.00549777 0.893807 0.181487 -0.0212471 -0.0408153 1.03192)
(1.00528 0.0744802 0.434136 0.0152496 0.900804 0.220162 -0.0176078 -0.0425116 1.03192)
(0.996697 0.0828698 0.413295 0.0236389 0.909389 0.257162 -0.0138358 -0.0438837 1.03192)
(0.986786 0.0896418 0.389309 0.0304103 0.9193 0.292204 -0.00995932 -0.0449224 1.03192)
(0.97585 0.094589 0.362361 0.0353587 0.930235 0.325023 -0.00600651 -0.0456206 1.03192)
(0.964221 0.0975621 0.332654 0.0383323 0.941864 0.355368 -0.00200707 -0.0459702 1.03192)
(0.952253 0.0984708 0.300416 0.0392408 0.953833 0.383009 0.00200717 -0.0459702 1.03192)
(0.940308 0.0972876 0.265891 0.0380573 0.965778 0.407734 0.00600555 -0.0456201 1.03192)
(0.92875 0.094048 0.229343 0.0348184 0.977336 0.429356 0.00995914 -0.0449241 1.03192)
(0.91793 0.088851 0.191049 0.0296215 0.988155 0.44771 0.0138373 -0.0438847 1.03192)
(0.908178 0.0818546 0.151302 0.0226238 0.997908 0.462658 0.0176094 -0.0425113 1.03192)
(0.899788 0.0732702 0.110403 0.0140388 1.0063 0.474084 0.0212469 -0.0408146 1.03192)
(0.893017 0.0633593 0.0686637 0.0041284 1.01307 0.481902 0.024723 -0.038807 1.03192)
(0.88807 0.0524236 0.0264019 -0.00680702 1.01802 0.486053 0.0280106 -0.0365039 1.03192)
(0.885096 0.0407938 -0.0160608 -0.018436 1.02099 0.486505 0.0310858 -0.0339241 1.03192)
(0.884186 0.028824 -0.0584015 -0.0304045 1.0219 0.483254 0.0339245 -0.0310865 1.03192)
(0.88537 0.0168788 -0.100298 -0.042349 1.02072 0.476325 0.0365049 -0.0280123 1.03192)
(0.888609 0.00532121 -0.141431 -0.0539082 1.01748 0.465771 0.0388077 -0.0247241 1.03192)
(0.893807 -0.00549779 -0.181487 -0.0647279 1.01228 0.451672 0.0408153 -0.0212471 1.03192)
(0.900804 -0.0152496 -0.220162 -0.0744802 1.00528 0.434136 0.0425116 -0.0176078 1.03192)
(0.909389 -0.0236389 -0.257162 -0.0828698 0.996697 0.413295 0.0438837 -0.0138358 1.03192)
(0.9193 -0.0304103 -0.292204 -0.0896418 0.986786 0.389309 0.0449224 -0.00995932 1.03192)
(0.930235 -0.0353587 -0.325023 -0.094589 0.97585 0.362361 0.0456206 -0.0060065 1.03192)
(0.941864 -0.0383323 -0.355368 -0.0975621 0.964221 0.332654 0.0459702 -0.00200706 1.03192)
(0.953833 -0.0392408 -0.383009 -0.0984708 0.952252 0.300416 0.0459702 0.00200718 1.03192)
(0.965778 -0.0380573 -0.407734 -0.0972876 0.940308 0.265891 0.0456201 0.00600556 1.03192)
(0.977336 -0.0348184 -0.429356 -0.094048 0.92875 0.229343 0.0449241 0.00995915 1.03192)
(0.988155 -0.0296215 -0.44771 -0.088851 0.91793 0.191049 0.0438847 0.0138373 1.03192)
(0.997908 -0.0226238 -0.462658 -0.0818546 0.908178 0.151302 0.0425113 0.0176094 1.03192)
(1.0063 -0.0140388 -0.474084 -0.0732702 0.899788 0.110403 0.0408146 0.0212469 1.03192)
(1.01307 -0.00412841 -0.481902 -0.0633593 0.893017 0.0686637 0.038807 0.024723 1.03192)
(1.01802 0.00680702 -0.486053 -0.0524236 0.88807 0.0264018 0.0365039 0.0280106 1.03192)
(1.02099 0.018436 -0.486505 -0.0407938 0.885096 -0.0160608 0.0339241 0.0310858 1.03192)
(1.0219 0.0304045 -0.483254 -0.028824 0.884186 -0.0584015 0.0310865 0.0339245 1.03192)
(1.02072 0.042349 -0.476325 -0.0168788 0.88537 -0.100298 0.0280123 0.0365049 1.03192)
(1.01748 0.0539082 -0.465771 -0.00532121 0.888609 -0.141431 0.0247241 0.0388077 1.03192)
(1.01228 0.0647279 -0.451672 0.00549779 0.893807 -0.181487 0.0212471 0.0408153 1.03192)
(1.00528 0.0744802 -0.434136 0.0152496 0.900804 -0.220162 0.0176078 0.0425116 1.03192)
(0.996697 0.0828698 -0.413295 0.0236389 0.909389 -0.257162 0.0138358 0.0438837 1.03192)
(0.986786 0.0896418 -0.389309 0.0304103 0.9193 -0.292204 0.00995932 0.0449224 1.03192)
(0.97585 0.0945889 -0.362361 0.0353587 0.930235 -0.325023 0.00600651 0.0456206 1.03192)
(0.964221 0.0975621 -0.332654 0.0383323 0.941864 -0.355368 0.00200706 0.0459702 1.03192)
(0.952252 0.0984708 -0.300416 0.0392408 0.953833 -0.383009 -0.00200717 0.0459702 1.03192)
(0.940308 0.0972875 -0.265891 0.0380573 0.965778 -0.407734 -0.00600556 0.0456201 1.03192)
(0.92875 0.094048 -0.229343 0.0348184 0.977336 -0.429356 -0.00995915 0.0449241 1.03192)
(0.91793 0.088851 -0.191049 0.0296215 0.988155 -0.44771 -0.0138373 0.0438847 1.03192)
(0.908178 0.0818546 -0.151302 0.0226238 0.997908 -0.462658 -0.0176094 0.0425113 1.03192)
(0.899788 0.0732702 -0.110403 0.0140388 1.0063 -0.474084 -0.0212469 0.0408146 1.03192)
(0.893017 0.0633593 -0.0686637 0.00412841 1.01307 -0.481902 -0.024723 0.038807 1.03192)
(0.88807 0.0524236 -0.0264018 -0.00680701 1.01802 -0.486053 -0.0280106 0.0365039 1.03192)
(0.885096 0.0407938 0.0160608 -0.018436 1.02099 -0.486505 -0.0310858 0.0339241 1.03192)
(0.884186 0.028824 0.0584015 -0.0304045 1.0219 -0.483254 -0.0339245 0.0310865 1.03192)
(0.88537 0.0168788 0.100298 -0.042349 1.02072 -0.476325 -0.0365049 0.0280123 1.03192)
(0.888609 0.00532122 0.141431 -0.0539082 1.01748 -0.465771 -0.0388077 0.0247241 1.03192)
(0.893807 -0.00549778 0.181487 -0.0647279 1.01228 -0.451672 -0.0408153 0.0212471 1.03192)
(0.900804 -0.0152496 0.220162 -0.0744802 1.00528 -0.434136 -0.0425116 0.0176078 1.03192)
(0.909389 -0.0236389 0.257162 -0.0828698 0.996697 -0.413295 -0.0438837 0.0138358 1.03192)
(0.9193 -0.0304103 0.292204 -0.0896418 0.986786 -0.389309 -0.0449224 0.00995932 1.03192)
(0.930235 -0.0353587 0.325023 -0.0945889 0.97585 -0.362361 -0.0456206 0.00600651 1.03192)
(0.941864 -0.0383323 0.355368 -0.0975621 0.964221 -0.332654 -0.0459702 0.00200707 1.03192)
(0.991512 -0.0496679 0.280211 -0.123749 0.882939 -0.181964 -0.120809 -0.00527334 1.12414)
(1.00574 -0.0389224 0.295004 -0.113004 0.868706 -0.156849 -0.119889 -0.0157849 1.12414)
(1.0179 -0.0258713 0.307552 -0.0999518 0.856554 -0.130541 -0.118059 -0.0261754 1.12414)
(1.0276 -0.0109095 0.317759 -0.084988 0.846855 -0.10324 -0.11533 -0.0363638 1.12414)
(1.03455 0.00551075 0.325547 -0.0685686 0.839902 -0.0751528 -0.111723 -0.0462752 1.12414)
(1.03854 0.0228897 0.330859 -0.0511906 0.835907 -0.0464936 -0.107264 -0.0558333 1.12414)
(1.03946 0.0406982 0.333652 -0.0333825 0.834991 -0.0174802 -0.101987 -0.0649683 1.12414)
(1.03727 0.0583949 0.333906 -0.0156847 0.83718 0.0116662 -0.0959336 -0.0736103 1.12414)
(1.03204 0.0754441 0.331619 0.00136461 0.842409 0.0407242 -0.0891513 -0.0816932 1.12414)
(1.02393 0.0913272 0.326808 0.0172481 0.850519 0.0694718 -0.0816916 -0.0891555 1.12414)
(1.01319 0.105561 0.319509 0.0314821 0.861262 0.0976899 -0.0736119 -0.0959388 1.12414)
(1.00014 0.117711 0.309779 0.0436329 0.874313 0.125165 -0.0649732 -0.101989 1.12414)
(0.985175 0.127409 0.297691 0.0533309 0.889276 0.151687 -0.0558385 -0.107262 1.12414)
(0.968754 0.134362 0.283338 0.0602813 0.905697 0.177056 -0.0462771 -0.111719 1.12414)
(0.951374 0.138357 0.266828 0.0642758 0.923077 0.201077 -0.0363628 -0.115326 1.12414)
(0.933565 0.139275 0.248288 0.0651955 0.940886 0.223567 -0.0261703 -0.118057 1.12414)
(0.915868 0.137087 0.227858 0.0630094 0.958583 0.244356 -0.0157823 -0.119892 1.12414)
(0.89882 0.131858 0.205693 0.05778 0.97563 0.263285 -0.00527574 -0.120811 1.12414)
(0.882939 0.123749 0.181964 0.0496679 0.991512 0.280211 0.00527334 -0.120809 1.12414)
(0.868706 0.113004 0.156849 0.0389224 1.00574 0.295004 0.0157849 -0.119889 1.12414)
(0.856554 0.0999518 0.130541 0.0258713 1.0179 0.307552 0.0261755 -0.118059 1.12414)
(0.846855 0.084988 0.10324 0.0109095 1.0276 0.317759 0.0363638 -0.11533 1.12414)
(0.839902 0.0685687 0.0751528 -0.00551073 1.03455 0.325547 0.0462752 -0.111723 1.12414)
(0.835908 0.0511907 0.0464936 -0.0228897 1.03854 0.330859 0.0558333 -0.107264 1.12414)
(0.834991 0.0333825 0.0174802 -0.0406982 1.03946 0.333652 0.0649683 -0.101987 1.12414)
(0.83718 0.0156846 -0.0116661 -0.0583949 1.03727 0.333906 0.0736103 -0.0959336 1.12414)
(0.842409 -0.00136464 -0.0407242 -0.0754441 1.03204 0.331619 0.0816932 -0.0891513 1.12414)
(0.850519 -0.0172481 -0.0694718 -0.0913272 1.02393 0.326808 0.0891555 -0.0816916 1.12414)
(0.861262 -0.0314821 -0.0976899 -0.105561 1.01319 0.319509 0.0959388 -0.073612 1.12414)
(0.874313 -0.0436329 -0.125165 -0.117711 1.00014 0.309779 0.101989 -0.0649732 1.12414)
(0.889276 -0.0533309 -0.151687 -0.127409 0.985175 0.297691 0.107262 -0.0558385 1.12414)
(0.905697 -0.0602813 -0.177056 -0.134362 0.968754 0.283338 0.111719 -0.0462771 1.12414)
(0.923077 -0.0642758 -0.201077 -0.138357 0.951374 0.266828 0.115326 -0.0363628 1.12414)
(0.940886 -0.0651955 -0.223567 -0.139275 0.933565 0.248288 0.118057 -0.0261702 1.12414)
(0.958583 -0.0630094 -0.244356 -0.137087 0.915868 0.227858 0.119892 -0.0157822 1.12414)
(0.97563 -0.05778 -0.263285 -0.131858 0.89882 0.205693 0.120811 -0.00527572 1.12414)
(0.991512 -0.0496679 -0.280211 -0.123749 0.882939 0.181964 0.120809 0.00527335 1.12414)
(1.00574 -0.0389224 -0.295004 -0.113004 0.868706 0.156849 0.119889 0.0157849 1.12414)
(1.0179 -0.0258713 -0.307552 -0.0999518 0.856554 0.130541 0.118059 0.0261755 1.12414)
(1.0276 -0.0109095 -0.317759 -0.0849881 0.846855 0.10324 0.11533 0.0363638 1.12414)
(1.03455 0.00551072 -0.325547 -0.0685687 0.839902 0.0751528 0.111723 0.0462752 1.12414)
(1.03854 0.0228897 -0.330859 -0.0511907 0.835908 0.0464936 0.107264 0.0558333 1.12414)
(1.03946 0.0406982 -0.333652 -0.0333825 0.834991 0.0174802 0.101987 0.0649683 1.12414)
(1.03727 0.0583949 -0.333906 -0.0156846 0.83718 -0.0116661 0.0959336 0.0736103 1.12414)
(1.03204 0.0754441 -0.331619 0.00136463 0.842409 -0.0407242 0.0891513 0.0816932 1.12414)
(1.02393 0.0913272 -0.326808 0.0172481 0.850519 -0.0694718 0.0816916 0.0891555 1.12414)
(1.01319 0.105561 -0.319509 0.0314821 0.861262 -0.0976899 0.073612 0.0959388 1.12414)
(1.00014 0.117711 -0.309779 0.0436329 0.874313 -0.125165 0.0649732 0.101989 1.12414)
(0.985175 0.127409 -0.297691 0.0533309 0.889276 -0.151687 0.0558385 0.107262 1.12414)
(0.968754 0.134362 -0.283338 0.0602813 0.905697 -0.177056 0.0462771 0.111719 1.12414)
(0.951374 0.138357 -0.266828 0.0642758 0.923077 -0.201077 0.0363628 0.115326 1.12414)
(0.933565 0.139275 -0.248288 0.0651955 0.940886 -0.223567 0.0261702 0.118057 1.12414)
(0.915868 0.137087 -0.227858 0.0630094 0.958583 -0.244356 0.0157822 0.119892 1.12414)
(0.89882 0.131858 -0.205693 0.05778 0.97563 -0.263286 0.00527572 0.120811 1.12414)
(0.882939 0.123749 -0.181964 0.0496679 0.991512 -0.280211 -0.00527335 0.120809 1.12414)
(0.868706 0.113004 -0.156849 0.0389224 1.00574 -0.295004 -0.0157849 0.119889 1.12414)
(0.856554 0.0999518 -0.130541 0.0258713 1.0179 -0.307552 -0.0261755 0.118059 1.12414)
(0.846855 0.084988 -0.10324 0.0109095 1.0276 -0.317759 -0.0363638 0.11533 1.12414)
(0.839902 0.0685687 -0.0751528 -0.00551073 1.03455 -0.325547 -0.0462752 0.111723 1.12414)
(0.835908 0.0511907 -0.0464936 -0.0228897 1.03854 -0.330859 -0.0558333 0.107264 1.12414)
(0.834991 0.0333825 -0.0174802 -0.0406982 1.03946 -0.333652 -0.0649683 0.101987 1.12414)
(0.83718 0.0156847 0.0116661 -0.0583949 1.03727 -0.333906 -0.0736103 0.0959336 1.12414)
(0.842409 -0.00136462 0.0407242 -0.0754441 1.03204 -0.331619 -0.0816931 0.0891513 1.12414)
(0.850519 -0.0172481 0.0694718 -0.0913272 1.02393 -0.326808 -0.0891555 0.0816916 1.12414)
(0.861262 -0.031482 0.0976899 -0.105561 1.01319 -0.319509 -0.0959388 0.073612 1.12414)
(0.874313 -0.0436329 0.125165 -0.117711 1.00014 -0.309779 -0.101989 0.0649732 1.12414)
(0.889276 -0.0533309 0.151687 -0.127409 0.985175 -0.297691 -0.107262 0.0558385 1.12414)
(0.905697 -0.0602813 0.177056 -0.134362 0.968754 -0.283338 -0.111719 0.0462771 1.12414)
(0.923077 -0.0642758 0.201077 -0.138357 0.951374 -0.266828 -0.115326 0.0363628 1.12414)
(0.940886 -0.0651955 0.223567 -0.139275 0.933565 -0.248288 -0.118057 0.0261702 1.12414)
(0.958583 -0.0630094 0.244356 -0.137087 0.915868 -0.227858 -0.119892 0.0157822 1.12414)
(0.97563 -0.05778 0.263286 -0.131858 0.89882 -0.205693 -0.120811 0.00527572 1.12414)
(1.00787 -0.070056 0.314509 -0.178932 0.868468 -0.252074 -0.128669 -0.00561778 1.08285)
(1.02843 -0.0560601 0.335282 -0.164937 0.847908 -0.223703 -0.127689 -0.0168108 1.08285)
(1.04625 -0.0387086 0.353503 -0.147584 0.830091 -0.19363 -0.12574 -0.0278767 1.08285)
(1.06078 -0.0185269 0.369033 -0.127401 0.815558 -0.162084 -0.122833 -0.0387289 1.08285)
(1.07159 0.00387332 0.381756 -0.105003 0.804751 -0.129304 -0.11899 -0.0492865 1.08285)
(1.07834 0.02781 0.391572 -0.0810666 0.797999 -0.0955395 -0.114241 -0.0594682 1.08285)
(1.08084 0.0525549 0.398409 -0.0563216 0.795505 -0.0610484 -0.108621 -0.0691976 1.08285)
(1.079 0.0773559 0.402214 -0.0315187 0.797346 -0.0260921 -0.102175 -0.0784008 1.08285)
(1.07288 0.101462 0.402958 -0.00741191 0.803465 0.00906276 -0.094953 -0.0870077 1.08285)
(1.06267 0.12414 0.400634 0.015267 0.813678 0.0441483 -0.087009 -0.0949541 1.08285)
(1.04867 0.144701 0.395262 0.0358275 0.827673 0.0788976 -0.0784027 -0.102178 1.08285)
(1.03132 0.162519 0.386881 0.0536443 0.845025 0.113047 -0.0691999 -0.108624 1.08285)
(1.01113 0.177051 0.375556 0.0681759 0.865208 0.146335 -0.0594697 -0.114241 1.08285)
(0.988735 0.187858 0.361374 0.0789808 0.887608 0.17851 -0.0492865 -0.118988 1.08285)
(0.964798 0.194611 0.34444 0.0857338 0.911544 0.209327 -0.0387281 -0.12283 1.08285)
(0.940053 0.197104 0.324885 0.0882297 0.93629 0.238551 -0.0278746 -0.125738 1.08285)
(0.915251 0.195265 0.302858 0.0863904 0.961092 0.265959 -0.0168104 -0.127691 1.08285)
(0.891145 0.189145 0.278526 0.0802702 0.985197 0.291342 -0.00561771 -0.12867 1.08285)
(0.868468 0.178932 0.252074 0.070056 1.00787 0.314509 0.00561777 -0.128669 1.08285)
(0.847908 0.164937 0.223703 0.0560601 1.02843 0.335282 0.0168108 -0.127689 1.08285)
(0.830091 0.147584 0.19363 0.0387086 1.04625 0.353503 0.0278767 -0.12574 1.08285)
(0.815558 0.127402 0.162084 0.0185269 1.06078 0.369033 0.0387289 -0.122833 1.08285)
(0.804751 0.105003 0.129304 -0.00387332 1.07159 0.381756 0.0492865 -0.11899 1.08285)
(0.797999 0.0810667 0.0955395 -0.02781 1.07834 0.391572 0.0594682 -0.114241 1.08285)
(0.795505 0.0563216 0.0610484 -0.0525548 1.08084 0.398409 0.0691976 -0.108621 1.08285)
(0.797346 0.0315186 0.0260922 -0.0773559 1.079 0.402214 0.0784008 -0.102175 1.08285)
(0.803465 0.0074119 -0.00906275 -0.101462 1.07288 0.402958 0.0870077 -0.094953 1.08285)
(0.813678 -0.0152671 -0.0441483 -0.12414 1.06267 0.400634 0.0949541 -0.087009 1.08285)
(0.827673 -0.0358276 -0.0788976 -0.144701 1.04867 0.395262 0.102178 -0.0784027 1.08285)
(0.845025 -0.0536443 -0.113047 -0.162519 1.03132 0.386881 0.108624 -0.0691999 1.08285)
(0.865208 -0.0681759 -0.146335 -0.177051 1.01113 0.375557 0.114241 -0.0594697 1.08285)
(0.887608 -0.0789808 -0.17851 -0.187858 0.988735 0.361374 0.118988 -0.0492865 1.08285)
(0.911544 -0.0857338 -0.209327 -0.194611 0.964798 0.34444 0.12283 -0.038728 1.08285)
(0.93629 -0.0882298 -0.238551 -0.197104 0.940053 0.324885 0.125738 -0.0278746 1.08285)
(0.961092 -0.0863904 -0.265959 -0.195265 0.915251 0.302858 0.127691 -0.0168103 1.08285)
(0.985197 -0.0802702 -0.291342 -0.189145 0.891145 0.278526 0.12867 -0.00561769 1.08285)
(1.00787 -0.070056 -0.314509 -0.178932 0.868468 0.252074 0.128669 0.00561779 1.08285)
(1.02843 -0.0560601 -0.335282 -0.164937 0.847908 0.223703 0.127689 0.0168108 1.08285)
(1.04625 -0.0387086 -0.353503 -0.147584 0.830091 0.19363 0.12574 0.0278767 1.08285)
(1.06078 -0.0185269 -0.369033 -0.127402 0.815558 0.162084 0.122833 0.0387289 1.08285)
(1.07159 0.00387331 -0.381756 -0.105003 0.804751 0.129304 0.11899 0.0492865 1.08285)