/*--------------------------------*- C++ -*----------------------------------*\
| =========                 |                                                 |
| \\      /  F ield         | OpenFOAM: The Open Source CFD Toolbox           |
|  \\    /   O peration     | Version:  2312                                  |
|   \\  /    A nd           | Website:  www.openfoam.com                      |
|    \\/     M anipulation  |                                                 |
\*---------------------------------------------------------------------------*/
FoamFile
{
    version     2.0;
    format      ascii;
    arch        "LSB;label=32;scalar=64";
    class       pointVectorField;
    location    "0.6";
    object      pointD;
}
// * * * * * * * * * * * * * * * * * * * * * * * * * * * * * * * * * * * * * //

dimensions      [0 1 0 0 0 0 0];

internalField   nonuniform List<vector> 
4324
(
(0 0 0)
(0 0 0)
(0 0 0)
(0 0 0)
(0 0 0)
(0 0 0)
(0 0 0)
(0 0 0)
(0 0 0)
(0 0 0)
(0 0 0)
(0 0 0)
(0 0 0)
(0 0 0)
(0 0 0)
(0 0 0)
(0 0 0)
(0 0 0)
(0 0 0)
(0 0 0)
(0 0 0)
(0 0 0)
(0 0 0)
(0 0 0)
(0 0 0)
(0 0 0)
(0 0 0)
(0 0 0)
(0 0 0)
(0 0 0)
(0 0 0)
(0 0 0)
(0 0 0)
(0 0 0)
(0 0 0)
(0 0 0)
(0 0 0)
(0 0 0)
(0 0 0)
(0 0 0)
(0 0 0)
(0 0 0)
(0 0 0)
(0 0 0)
(0 0 0)
(0 0 0)
(0 0 0)
(0 0 0)
(0 0 0)
(0 0 0)
(0 0 0)
(0 0 0)
(0 0 0)
(0 0 0)
(0 0 0)
(0 0 0)
(0 0 0)
(0 0 0)
(0 0 0)
(0 0 0)
(0 0 0)
(0 0 0)
(0 0 0)
(0 0 0)
(0 0 0)
(0 0 0)
(0 0 0)
(0 0 0)
(0 0 0)
(0 0 0)
(0 0 0)
(0 0 0)
(-0.000787301 0.000234275 -0.000284423)
(-0.000804721 0.000164765 -0.000284425)
(-0.000816018 9.4e-05 -0.000284428)
(-0.000821107 2.25199e-05 -0.000284428)
(-0.000819947 -4.91309e-05 -0.000284427)
(-0.000812546 -0.000120406 -0.000284422)
(-0.000798961 -0.000190763 -0.000284418)
(-0.000779294 -0.000259669 -0.000284418)
(-0.000753697 -0.000326599 -0.00028442)
(-0.000722362 -0.000391044 -0.000284423)
(-0.00068553 -0.000452515 -0.000284426)
(-0.000643482 -0.000510544 -0.000284427)
(-0.000596537 -0.000564687 -0.000284425)
(-0.000545053 -0.000614529 -0.000284423)
(-0.00048942 -0.000659692 -0.000284422)
(-0.000430059 -0.000699837 -0.000284426)
(-0.000367428 -0.000734658 -0.000284426)
(-0.000302 -0.000763888 -0.000284425)
(-0.000234275 -0.000787301 -0.000284423)
(-0.000164765 -0.000804721 -0.000284425)
(-9.4e-05 -0.000816018 -0.000284428)
(-2.25199e-05 -0.000821107 -0.000284428)
(4.91309e-05 -0.000819947 -0.000284427)
(0.000120406 -0.000812546 -0.000284422)
(0.000190763 -0.000798961 -0.000284419)
(0.000259669 -0.000779294 -0.000284418)
(0.000326599 -0.000753697 -0.00028442)
(0.000391044 -0.000722362 -0.000284423)
(0.000452515 -0.00068553 -0.000284426)
(0.000510544 -0.000643482 -0.000284427)
(0.000564687 -0.000596537 -0.000284425)
(0.000614529 -0.000545053 -0.000284422)
(0.000659691 -0.00048942 -0.000284422)
(0.000699837 -0.000430059 -0.000284426)
(0.000734658 -0.000367428 -0.000284426)
(0.000763888 -0.000302 -0.000284425)
(0.000787301 -0.000234275 -0.000284423)
(0.000804721 -0.000164765 -0.000284425)
(0.000816018 -9.4e-05 -0.000284428)
(0.000821107 -2.25198e-05 -0.000284428)
(0.000819947 4.91309e-05 -0.000284427)
(0.000812546 0.000120406 -0.000284422)
(0.000798961 0.000190763 -0.000284419)
(0.000779294 0.000259669 -0.000284418)
(0.000753697 0.000326599 -0.00028442)
(0.000722362 0.000391044 -0.000284423)
(0.00068553 0.000452515 -0.000284426)
(0.000643482 0.000510544 -0.000284427)
(0.000596537 0.000564687 -0.000284425)
(0.000545053 0.000614529 -0.000284422)
(0.00048942 0.000659691 -0.000284422)
(0.000430059 0.000699837 -0.000284426)
(0.000367428 0.000734658 -0.000284426)
(0.000302 0.000763888 -0.000284425)
(0.000234275 0.000787301 -0.000284423)
(0.000164765 0.000804721 -0.000284425)
(9.4e-05 0.000816018 -0.000284428)
(2.25198e-05 0.000821107 -0.000284428)
(-4.91309e-05 0.000819947 -0.000284427)
(-0.000120406 0.000812546 -0.000284422)
(-0.000190763 0.000798961 -0.000284419)
(-0.000259669 0.000779294 -0.000284419)
(-0.000326599 0.000753697 -0.00028442)
(-0.000391044 0.000722362 -0.000284423)
(-0.000452515 0.00068553 -0.000284426)
(-0.000510544 0.000643482 -0.000284427)
(-0.000564687 0.000596537 -0.000284425)
(-0.000614529 0.000545053 -0.000284422)
(-0.000659691 0.00048942 -0.000284422)
(-0.000699837 0.000430059 -0.000284426)
(-0.000734658 0.000367428 -0.000284426)
(-0.000763888 0.000302 -0.000284425)
(-0.000751225 0.000292012 -0.000209259)
(-0.000773815 0.000225428 -0.000209259)
(-0.000790518 0.000157125 -0.000209261)
(-0.000801205 8.76281e-05 -0.000209261)
(-0.000805795 1.74654e-05 -0.00020926)
(-0.000804251 -5.28299e-05 -0.000209258)
(-0.000796586 -0.000122723 -0.000209256)
(-0.000782859 -0.00019168 -0.000209256)
(-0.000763175 -0.000259181 -0.000209256)
(-0.000737681 -0.00032471 -0.000209257)
(-0.000706573 -0.000387768 -0.000209259)
(-0.000670088 -0.000447877 -0.00020926)
(-0.000628503 -0.000504576 -0.000209259)
(-0.000582135 -0.000557432 -0.000209258)
(-0.000531336 -0.000606045 -0.000209258)
(-0.000476494 -0.000650048 -0.000209259)
(-0.000418024 -0.000689105 -0.00020926)
(-0.000356375 -0.000722917 -0.000209259)
(-0.000292012 -0.000751225 -0.000209259)
(-0.000225428 -0.000773815 -0.000209259)
(-0.000157125 -0.000790518 -0.000209261)
(-8.76281e-05 -0.000801205 -0.000209261)
(-1.74654e-05 -0.000805795 -0.00020926)
(5.28299e-05 -0.000804251 -0.000209258)
(0.000122722 -0.000796586 -0.000209256)
(0.00019168 -0.000782859 -0.000209256)
(0.000259181 -0.000763175 -0.000209256)
(0.00032471 -0.000737681 -0.000209257)
(0.000387768 -0.000706573 -0.000209259)
(0.000447877 -0.000670088 -0.00020926)
(0.000504576 -0.000628503 -0.000209259)
(0.000557432 -0.000582135 -0.000209258)
(0.000606045 -0.000531336 -0.000209258)
(0.000650048 -0.000476494 -0.000209259)
(0.000689105 -0.000418024 -0.00020926)
(0.000722917 -0.000356375 -0.000209259)
(0.000751225 -0.000292012 -0.000209259)
(0.000773815 -0.000225428 -0.000209259)
(0.000790518 -0.000157125 -0.000209261)
(0.000801205 -8.76281e-05 -0.000209261)
(0.000805795 -1.74654e-05 -0.00020926)
(0.000804251 5.28299e-05 -0.000209258)
(0.000796586 0.000122722 -0.000209256)
(0.000782859 0.00019168 -0.000209256)
(0.000763175 0.000259181 -0.000209256)
(0.000737681 0.00032471 -0.000209257)
(0.000706573 0.000387768 -0.000209259)
(0.000670088 0.000447877 -0.00020926)
(0.000628503 0.000504576 -0.000209259)
(0.000582135 0.000557432 -0.000209258)
(0.000531336 0.000606045 -0.000209258)
(0.000476494 0.000650048 -0.000209259)
(0.000418024 0.000689105 -0.00020926)
(0.000356375 0.000722917 -0.000209259)
(0.000292012 0.000751225 -0.000209259)
(0.000225428 0.000773815 -0.000209259)
(0.000157125 0.000790518 -0.000209261)
(8.76281e-05 0.000801205 -0.000209261)
(1.74653e-05 0.000805795 -0.00020926)
(-5.28299e-05 0.000804251 -0.000209258)
(-0.000122722 0.000796586 -0.000209256)
(-0.00019168 0.000782859 -0.000209256)
(-0.000259181 0.000763175 -0.000209256)
(-0.00032471 0.000737681 -0.000209258)
(-0.000387768 0.000706573 -0.000209259)
(-0.000447877 0.000670088 -0.00020926)
(-0.000504576 0.000628503 -0.000209259)
(-0.000557432 0.000582135 -0.000209258)
(-0.000606045 0.000531336 -0.000209258)
(-0.000650048 0.000476494 -0.000209259)
(-0.000689105 0.000418024 -0.00020926)
(-0.000722917 0.000356375 -0.000209259)
(0 0 0)
(0 0 0)
(0 0 0)
(0 0 0)
(0 0 0)
(0 0 0)
(0 0 0)
(0 0 0)
(0 0 0)
(0 0 0)
(0 0 0)
(0 0 0)
(0 0 0)
(0 0 0)
(0 0 0)
(0 0 0)
(0 0 0)
(0 0 0)
(0 0 0)
(0 0 0)
(0 0 0)
(0 0 0)
(0 0 0)
(0 0 0)
(0 0 0)
(0 0 0)
(0 0 0)
(0 0 0)
(0 0 0)
(0 0 0)
(0 0 0)
(0 0 0)
(0 0 0)
(0 0 0)
(0 0 0)
(0 0 0)
(0 0 0)
(0 0 0)
(0 0 0)
(0 0 0)
(0 0 0)
(0 0 0)
(0 0 0)
(0 0 0)
(0 0 0)
(0 0 0)
(0 0 0)
(0 0 0)
(0 0 0)
(0 0 0)
(0 0 0)
(0 0 0)
(0 0 0)
(0 0 0)
(0 0 0)
(0 0 0)
(0 0 0)
(0 0 0)
(0 0 0)
(0 0 0)
(0 0 0)
(0 0 0)
(0 0 0)
(0 0 0)
(0 0 0)
(0 0 0)
(0 0 0)
(0 0 0)
(0 0 0)
(0 0 0)
(0 0 0)
(0 0 0)
(-0.000730082 0.000416396 -0.000120675)
(-0.000763594 0.000351182 -0.000120674)
(-0.000791296 0.000283291 -0.000120675)
(-0.000812976 0.000213246 -0.000120675)
(-0.000828468 0.00014158 -0.000120675)
(-0.000837655 6.88364e-05 -0.000120674)
(-0.000840467 -4.43178e-06 -0.000120674)
(-0.000836882 -7.76649e-05 -0.000120674)
(-0.00082693 -0.000150307 -0.000120673)
(-0.000810683 -0.000221809 -0.000120674)
(-0.000788268 -0.000291621 -0.000120673)
(-0.000759852 -0.000359214 -0.000120673)
(-0.000725652 -0.000424073 -0.000120674)
(-0.00068593 -0.000485703 -0.000120674)
(-0.000640988 -0.000543636 -0.000120675)
(-0.000591168 -0.000597433 -0.000120674)
(-0.000536847 -0.000646684 -0.000120675)
(-0.000478443 -0.000691013 -0.000120675)
(-0.000416396 -0.000730082 -0.000120675)
(-0.000351182 -0.000763594 -0.000120674)
(-0.000283291 -0.000791296 -0.000120675)
(-0.000213246 -0.000812976 -0.000120675)
(-0.00014158 -0.000828468 -0.000120675)
(-6.88364e-05 -0.000837655 -0.000120674)
(4.43173e-06 -0.000840467 -0.000120674)
(7.76648e-05 -0.000836882 -0.000120674)
(0.000150307 -0.00082693 -0.000120673)
(0.000221809 -0.000810683 -0.000120674)
(0.000291621 -0.000788268 -0.000120673)
(0.000359214 -0.000759852 -0.000120673)
(0.000424073 -0.000725652 -0.000120674)
(0.000485703 -0.00068593 -0.000120674)
(0.000543636 -0.000640988 -0.000120675)
(0.000597433 -0.000591168 -0.000120674)
(0.000646684 -0.000536847 -0.000120675)
(0.000691013 -0.000478443 -0.000120675)
(0.000730082 -0.000416396 -0.000120675)
(0.000763594 -0.000351181 -0.000120674)
(0.000791296 -0.000283291 -0.000120675)
(0.000812976 -0.000213246 -0.000120675)
(0.000828468 -0.00014158 -0.000120675)
(0.000837655 -6.88364e-05 -0.000120674)
(0.000840466 4.43174e-06 -0.000120674)
(0.000836882 7.76648e-05 -0.000120674)
(0.00082693 0.000150307 -0.000120673)
(0.000810683 0.000221809 -0.000120674)
(0.000788268 0.000291621 -0.000120673)
(0.000759852 0.000359214 -0.000120673)
(0.000725652 0.000424073 -0.000120674)
(0.00068593 0.000485703 -0.000120674)
(0.000640988 0.000543636 -0.000120675)
(0.000591168 0.000597433 -0.000120674)
(0.000536847 0.000646684 -0.000120675)
(0.000478443 0.000691013 -0.000120675)
(0.000416396 0.000730082 -0.000120675)
(0.000351181 0.000763594 -0.000120674)
(0.000283291 0.000791296 -0.000120675)
(0.000213246 0.000812976 -0.000120675)
(0.00014158 0.000828468 -0.000120675)
(6.88364e-05 0.000837655 -0.000120674)
(-4.43175e-06 0.000840466 -0.000120674)
(-7.76648e-05 0.000836882 -0.000120674)
(-0.000150307 0.00082693 -0.000120674)
(-0.000221809 0.000810683 -0.000120674)
(-0.000291621 0.000788268 -0.000120673)
(-0.000359214 0.000759852 -0.000120673)
(-0.000424073 0.000725652 -0.000120674)
(-0.000485703 0.00068593 -0.000120674)
(-0.000543636 0.000640988 -0.000120675)
(-0.000597433 0.000591168 -0.000120674)
(-0.000646684 0.000536847 -0.000120675)
(-0.000691013 0.000478443 -0.000120675)
(0 0 0)
(0 0 0)
(0 0 0)
(0 0 0)
(0 0 0)
(0 0 0)
(0 0 0)
(0 0 0)
(0 0 0)
(0 0 0)
(0 0 0)
(0 0 0)
(0 0 0)
(0 0 0)
(0 0 0)
(0 0 0)
(0 0 0)
(0 0 0)
(0 0 0)
(0 0 0)
(0 0 0)
(0 0 0)
(0 0 0)
(0 0 0)
(0 0 0)
(0 0 0)
(0 0 0)
(0 0 0)
(0 0 0)
(0 0 0)
(0 0 0)
(0 0 0)
(0 0 0)
(0 0 0)
(0 0 0)
(0 0 0)
(0 0 0)
(0 0 0)
(0 0 0)
(0 0 0)
(0 0 0)
(0 0 0)
(0 0 0)
(0 0 0)
(0 0 0)
(0 0 0)
(0 0 0)
(0 0 0)
(0 0 0)
(0 0 0)
(0 0 0)
(0 0 0)
(0 0 0)
(0 0 0)
(0 0 0)
(0 0 0)
(0 0 0)
(0 0 0)
(0 0 0)
(0 0 0)
(0 0 0)
(0 0 0)
(0 0 0)
(0 0 0)
(0 0 0)
(0 0 0)
(0 0 0)
(0 0 0)
(0 0 0)
(0 0 0)
(0 0 0)
(0 0 0)
(-0.000725337 0.00060568 -2.46293e-05)
(-0.000775364 0.000540158 -2.46287e-05)
(-0.000819492 0.000470523 -2.46284e-05)
(-0.000857382 0.00039731 -2.46284e-05)
(-0.000888747 0.000321071 -2.46293e-05)
(-0.000913348 0.000242391 -2.46299e-05)
(-0.000930998 0.000161865 -2.46315e-05)
(-0.000941563 8.01088e-05 -2.46312e-05)
(-0.000944963 -2.25762e-06 -2.46298e-05)
(-0.000941171 -8.46096e-05 -2.46288e-05)
(-0.000930217 -0.000166318 -2.46286e-05)
(-0.000912182 -0.00024676 -2.46278e-05)
(-0.000887203 -0.000325323 -2.46288e-05)
(-0.000855473 -0.000401409 -2.46297e-05)
(-0.000817233 -0.000474439 -2.46302e-05)
(-0.000772773 -0.00054386 -2.46295e-05)
(-0.000722432 -0.000609142 -2.46286e-05)
(-0.000666591 -0.000669788 -2.46294e-05)
(-0.00060568 -0.000725337 -2.46293e-05)
(-0.000540158 -0.000775364 -2.46287e-05)
(-0.000470523 -0.000819492 -2.46284e-05)
(-0.00039731 -0.000857382 -2.46284e-05)
(-0.000321071 -0.000888747 -2.46294e-05)
(-0.000242392 -0.000913348 -2.46299e-05)
(-0.000161865 -0.000930998 -2.46316e-05)
(-8.01089e-05 -0.000941563 -2.46312e-05)
(2.25757e-06 -0.000944963 -2.46298e-05)
(8.46095e-05 -0.000941171 -2.46288e-05)
(0.000166318 -0.000930217 -2.46286e-05)
(0.00024676 -0.000912182 -2.46278e-05)
(0.000325323 -0.000887203 -2.46288e-05)
(0.000401409 -0.000855473 -2.46297e-05)
(0.000474439 -0.000817233 -2.46302e-05)
(0.00054386 -0.000772773 -2.46295e-05)
(0.000609142 -0.000722432 -2.46285e-05)
(0.000669789 -0.000666591 -2.46294e-05)
(0.000725337 -0.00060568 -2.46293e-05)
(0.000775364 -0.000540158 -2.46287e-05)
(0.000819492 -0.000470523 -2.46284e-05)
(0.000857382 -0.00039731 -2.46284e-05)
(0.000888747 -0.000321071 -2.46294e-05)
(0.000913348 -0.000242391 -2.463e-05)
(0.000930998 -0.000161865 -2.46316e-05)
(0.000941563 -8.01089e-05 -2.46313e-05)
(0.000944963 2.25757e-06 -2.46298e-05)
(0.000941171 8.46095e-05 -2.46288e-05)
(0.000930217 0.000166318 -2.46286e-05)
(0.000912182 0.00024676 -2.46278e-05)
(0.000887203 0.000325323 -2.46288e-05)
(0.000855473 0.000401409 -2.46297e-05)
(0.000817233 0.000474439 -2.46302e-05)
(0.000772773 0.00054386 -2.46295e-05)
(0.000722432 0.000609142 -2.46285e-05)
(0.000666591 0.000669789 -2.46294e-05)
(0.00060568 0.000725337 -2.46293e-05)
(0.000540158 0.000775364 -2.46287e-05)
(0.000470523 0.000819492 -2.46284e-05)
(0.00039731 0.000857382 -2.46284e-05)
(0.000321071 0.000888747 -2.46294e-05)
(0.000242391 0.000913348 -2.463e-05)
(0.000161865 0.000930998 -2.46316e-05)
(8.01089e-05 0.000941563 -2.46313e-05)
(-2.25757e-06 0.000944963 -2.46299e-05)
(-8.46095e-05 0.000941171 -2.46289e-05)
(-0.000166318 0.000930217 -2.46287e-05)
(-0.00024676 0.000912182 -2.46279e-05)
(-0.000325323 0.000887203 -2.46289e-05)
(-0.000401409 0.000855473 -2.46297e-05)
(-0.000474439 0.000817233 -2.46302e-05)
(-0.00054386 0.000772773 -2.46295e-05)
(-0.000609142 0.000722432 -2.46286e-05)
(-0.000669788 0.000666591 -2.46294e-05)
(0 0 0)
(0 0 0)
(0 0 0)
(0 0 0)
(0 0 0)
(0 0 0)
(0 0 0)
(0 0 0)
(0 0 0)
(0 0 0)
(0 0 0)
(0 0 0)
(0 0 0)
(0 0 0)
(0 0 0)
(0 0 0)
(0 0 0)
(0 0 0)
(0 0 0)
(0 0 0)
(0 0 0)
(0 0 0)
(0 0 0)
(0 0 0)
(0 0 0)
(0 0 0)
(0 0 0)
(0 0 0)
(0 0 0)
(0 0 0)
(0 0 0)
(0 0 0)
(0 0 0)
(0 0 0)
(0 0 0)
(0 0 0)
(0 0 0)
(0 0 0)
(0 0 0)
(0 0 0)
(0 0 0)
(0 0 0)
(0 0 0)
(0 0 0)
(0 0 0)
(0 0 0)
(0 0 0)
(0 0 0)
(0 0 0)
(0 0 0)
(0 0 0)
(0 0 0)
(0 0 0)
(0 0 0)
(0 0 0)
(0 0 0)
(0 0 0)
(0 0 0)
(0 0 0)
(0 0 0)
(0 0 0)
(0 0 0)
(0 0 0)
(0 0 0)
(0 0 0)
(0 0 0)
(0 0 0)
(0 0 0)
(0 0 0)
(0 0 0)
(0 0 0)
(0 0 0)
(-0.00133897 0.000471323 -0.000575098)
(-0.00137495 0.00035283 -0.000575099)
(-0.00140047 0.000231653 -0.0005751)
(-0.00141533 0.00010871 -0.000575102)
(-0.00141942 -1.50577e-05 -0.0005751)
(-0.00141271 -0.000138711 -0.000575094)
(-0.00139524 -0.000261307 -0.000575091)
(-0.00136716 -0.000381914 -0.000575089)
(-0.00132867 -0.000499615 -0.000575089)
(-0.00128007 -0.000613513 -0.000575092)
(-0.00122173 -0.000722743 -0.000575096)
(-0.00115409 -0.000826475 -0.000575097)
(-0.00107766 -0.000923918 -0.000575096)
(-0.000993037 -0.00101433 -0.000575095)
(-0.000900854 -0.00109701 -0.000575094)
(-0.000801813 -0.00117135 -0.000575097)
(-0.000696671 -0.00123678 -0.0005751)
(-0.000586228 -0.0012928 -0.000575099)
(-0.000471323 -0.00133897 -0.000575098)
(-0.00035283 -0.00137495 -0.000575099)
(-0.000231653 -0.00140047 -0.0005751)
(-0.000108709 -0.00141533 -0.000575102)
(1.50578e-05 -0.00141942 -0.0005751)
(0.000138711 -0.00141271 -0.000575094)
(0.000261307 -0.00139524 -0.000575091)
(0.000381914 -0.00136716 -0.000575089)
(0.000499614 -0.00132867 -0.00057509)
(0.000613513 -0.00128007 -0.000575092)
(0.000722743 -0.00122173 -0.000575096)
(0.000826475 -0.00115409 -0.000575097)
(0.000923918 -0.00107766 -0.000575096)
(0.00101433 -0.000993037 -0.000575095)
(0.00109701 -0.000900854 -0.000575094)
(0.00117135 -0.000801813 -0.000575097)
(0.00123678 -0.000696671 -0.0005751)
(0.0012928 -0.000586228 -0.000575099)
(0.00133897 -0.000471323 -0.000575098)
(0.00137495 -0.00035283 -0.000575099)
(0.00140047 -0.000231653 -0.0005751)
(0.00141533 -0.000108709 -0.000575102)
(0.00141942 1.50578e-05 -0.0005751)
(0.00141271 0.000138711 -0.000575094)
(0.00139524 0.000261307 -0.000575091)
(0.00136716 0.000381914 -0.000575089)
(0.00132867 0.000499614 -0.00057509)
(0.00128007 0.000613513 -0.000575092)
(0.00122173 0.000722743 -0.000575096)
(0.00115409 0.000826475 -0.000575097)
(0.00107766 0.000923918 -0.000575096)
(0.000993037 0.00101433 -0.000575095)
(0.000900854 0.00109701 -0.000575094)
(0.000801813 0.00117135 -0.000575097)
(0.000696671 0.00123678 -0.0005751)
(0.000586228 0.0012928 -0.000575099)
(0.000471323 0.00133897 -0.000575098)
(0.00035283 0.00137495 -0.000575099)
(0.000231653 0.00140047 -0.000575101)
(0.000108709 0.00141533 -0.000575102)
(-1.50578e-05 0.00141942 -0.0005751)
(-0.000138711 0.00141271 -0.000575094)
(-0.000261307 0.00139524 -0.000575091)
(-0.000381914 0.00136716 -0.000575089)
(-0.000499615 0.00132867 -0.00057509)
(-0.000613513 0.00128007 -0.000575092)
(-0.000722743 0.00122173 -0.000575096)
(-0.000826475 0.00115409 -0.000575097)
(-0.000923918 0.00107766 -0.000575096)
(-0.00101433 0.000993037 -0.000575095)
(-0.00109701 0.000900854 -0.000575094)
(-0.00117135 0.000801813 -0.000575097)
(-0.00123678 0.000696671 -0.0005751)
(-0.0012928 0.000586228 -0.000575099)
(-0.0013682 0.000661181 -0.000414511)
(-0.00142062 0.00053942 -0.000414511)
(-0.00146223 0.000413549 -0.000414513)
(-0.00149271 0.000284534 -0.000414511)
(-0.00151183 0.000153353 -0.000414511)
(-0.00151944 2.10044e-05 -0.000414509)
(-0.00151549 -0.000111501 -0.000414506)
(-0.00150001 -0.00024316 -0.000414506)
(-0.00147311 -0.000372967 -0.000414506)
(-0.00143499 -0.000499937 -0.000414506)
(-0.00138596 -0.000623102 -0.000414508)
(-0.00132638 -0.000741528 -0.00041451)
(-0.0012567 -0.000854309 -0.000414509)
(-0.00117746 -0.000960586 -0.000414508)
(-0.00108926 -0.00105955 -0.000414509)
(-0.00099277 -0.00115046 -0.00041451)
(-0.000888722 -0.0012326 -0.000414512)
(-0.000777913 -0.00130537 -0.00041451)
(-0.000661181 -0.0013682 -0.000414511)
(-0.00053942 -0.00142062 -0.000414511)
(-0.000413549 -0.00146223 -0.000414513)
(-0.000284534 -0.00149271 -0.000414511)
(-0.000153353 -0.00151183 -0.000414511)
(-2.10044e-05 -0.00151944 -0.000414509)
(0.000111501 -0.00151549 -0.000414506)
(0.00024316 -0.00150001 -0.000414506)
(0.000372967 -0.00147311 -0.000414506)
(0.000499937 -0.00143499 -0.000414506)
(0.000623102 -0.00138596 -0.000414508)
(0.000741528 -0.00132638 -0.00041451)
(0.000854309 -0.0012567 -0.000414509)
(0.000960586 -0.00117746 -0.000414507)
(0.00105955 -0.00108926 -0.000414509)
(0.00115046 -0.00099277 -0.000414509)
(0.0012326 -0.000888722 -0.000414512)
(0.00130537 -0.000777913 -0.00041451)
(0.0013682 -0.000661181 -0.000414511)
(0.00142062 -0.00053942 -0.000414511)
(0.00146223 -0.000413549 -0.000414513)
(0.00149271 -0.000284534 -0.000414511)
(0.00151183 -0.000153353 -0.000414511)
(0.00151944 -2.10044e-05 -0.000414509)
(0.00151549 0.000111501 -0.000414506)
(0.00150001 0.00024316 -0.000414506)
(0.00147311 0.000372967 -0.000414506)
(0.00143499 0.000499937 -0.000414506)
(0.00138596 0.000623102 -0.000414508)
(0.00132638 0.000741528 -0.00041451)
(0.0012567 0.000854309 -0.000414509)
(0.00117746 0.000960586 -0.000414508)
(0.00108926 0.00105955 -0.000414509)
(0.00099277 0.00115046 -0.000414509)
(0.000888722 0.0012326 -0.000414512)
(0.000777913 0.00130537 -0.00041451)
(0.000661181 0.0013682 -0.000414511)
(0.00053942 0.00142062 -0.000414511)
(0.000413549 0.00146223 -0.000414513)
(0.000284534 0.00149271 -0.000414511)
(0.000153353 0.00151183 -0.000414511)
(2.10044e-05 0.00151944 -0.00041451)
(-0.000111501 0.00151549 -0.000414506)
(-0.00024316 0.00150001 -0.000414506)
(-0.000372967 0.00147311 -0.000414506)
(-0.000499937 0.00143499 -0.000414507)
(-0.000623102 0.00138596 -0.000414508)
(-0.000741528 0.00132638 -0.00041451)
(-0.000854309 0.0012567 -0.000414509)
(-0.000960586 0.00117746 -0.000414508)
(-0.00105955 0.00108926 -0.000414509)
(-0.00115046 0.00099277 -0.00041451)
(-0.0012326 0.000888722 -0.000414512)
(-0.00130537 0.000777913 -0.00041451)
(-0.00142396 0.000909778 -0.000245475)
(-0.00149783 0.00078221 -0.000245474)
(-0.00156031 0.00064869 -0.000245474)
(-0.00161091 0.000510231 -0.000245474)
(-0.00164925 0.000367888 -0.000245474)
(-0.00167503 0.000222749 -0.000245474)
(-0.00168807 7.5913e-05 -0.000245473)
(-0.00168827 -7.14992e-05 -0.000245473)
(-0.00167561 -0.000218371 -0.000245473)
(-0.0016502 -0.000363579 -0.000245471)
(-0.00161224 -0.00050602 -0.000245472)
(-0.001562 -0.000644613 -0.000245473)
(-0.00149987 -0.000778296 -0.000245473)
(-0.00142633 -0.000906057 -0.000245473)
(-0.00134194 -0.00102692 -0.000245473)
(-0.00124733 -0.00113997 -0.000245474)
(-0.00114322 -0.00124435 -0.000245474)
(-0.00103042 -0.00133925 -0.000245474)
(-0.000909778 -0.00142396 -0.000245475)
(-0.00078221 -0.00149783 -0.000245474)
(-0.00064869 -0.00156031 -0.000245474)
(-0.000510231 -0.00161091 -0.000245474)
(-0.000367888 -0.00164925 -0.000245474)
(-0.000222749 -0.00167503 -0.000245474)
(-7.59131e-05 -0.00168807 -0.000245473)
(7.14991e-05 -0.00168827 -0.000245473)
(0.000218371 -0.00167561 -0.000245473)
(0.000363579 -0.0016502 -0.000245471)
(0.000506019 -0.00161224 -0.000245472)
(0.000644613 -0.001562 -0.000245473)
(0.000778296 -0.00149987 -0.000245473)
(0.000906057 -0.00142633 -0.000245473)
(0.00102692 -0.00134194 -0.000245473)
(0.00113997 -0.00124733 -0.000245474)
(0.00124435 -0.00114322 -0.000245474)
(0.00133925 -0.00103042 -0.000245474)
(0.00142396 -0.000909778 -0.000245475)
(0.00149783 -0.00078221 -0.000245474)
(0.00156031 -0.00064869 -0.000245474)
(0.00161091 -0.000510231 -0.000245474)
(0.00164925 -0.000367888 -0.000245474)
(0.00167503 -0.000222749 -0.000245474)
(0.00168807 -7.5913e-05 -0.000245473)
(0.00168827 7.14991e-05 -0.000245473)
(0.00167561 0.000218371 -0.000245473)
(0.0016502 0.000363579 -0.000245471)
(0.00161224 0.000506019 -0.000245472)
(0.001562 0.000644613 -0.000245473)
(0.00149987 0.000778296 -0.000245473)
(0.00142633 0.000906057 -0.000245473)
(0.00134194 0.00102692 -0.000245473)
(0.00124733 0.00113997 -0.000245474)
(0.00114322 0.00124435 -0.000245474)
(0.00103042 0.00133925 -0.000245474)
(0.000909778 0.00142396 -0.000245475)
(0.00078221 0.00149783 -0.000245474)
(0.00064869 0.00156031 -0.000245474)
(0.000510231 0.00161091 -0.000245474)
(0.000367888 0.00164925 -0.000245474)
(0.000222749 0.00167503 -0.000245474)
(7.5913e-05 0.00168807 -0.000245473)
(-7.14991e-05 0.00168827 -0.000245473)
(-0.000218371 0.00167561 -0.000245473)
(-0.000363579 0.0016502 -0.000245471)
(-0.000506019 0.00161224 -0.000245472)
(-0.000644613 0.001562 -0.000245473)
(-0.000778296 0.00149987 -0.000245473)
(-0.000906057 0.00142633 -0.000245473)
(-0.00102692 0.00134194 -0.000245473)
(-0.00113997 0.00124733 -0.000245474)
(-0.00124435 0.00114322 -0.000245474)
(-0.00133925 0.00103042 -0.000245474)
(-0.00150299 0.0012038 -8.20199e-05)
(-0.00160219 0.00106822 -8.20189e-05)
(-0.0016892 0.000924515 -8.20186e-05)
(-0.00176335 0.000773774 -8.20186e-05)
(-0.00182407 0.000617143 -8.202e-05)
(-0.00187092 0.000455817 -8.20212e-05)
(-0.00190353 0.000291023 -8.20221e-05)
(-0.00192165 0.000124012 -8.2023e-05)
(-0.00192514 -4.39426e-05 -8.20213e-05)
(-0.00191399 -0.000211565 -8.20201e-05)
(-0.00188827 -0.000377576 -8.20193e-05)
(-0.00184818 -0.000540713 -8.20196e-05)
(-0.00179402 -0.000699734 -8.20202e-05)
(-0.00172621 -0.000853428 -8.20198e-05)
(-0.00164526 -0.00100063 -8.20201e-05)
(-0.00155178 -0.00114022 -8.20197e-05)
(-0.0014465 -0.00127112 -8.20194e-05)
(-0.00133021 -0.00139236 -8.202e-05)
(-0.0012038 -0.00150299 -8.20199e-05)
(-0.00106822 -0.00160219 -8.20189e-05)
(-0.000924515 -0.0016892 -8.20185e-05)
(-0.000773774 -0.00176335 -8.20186e-05)
(-0.000617143 -0.00182407 -8.20201e-05)
(-0.000455817 -0.00187092 -8.20212e-05)
(-0.000291023 -0.00190353 -8.20221e-05)
(-0.000124012 -0.00192165 -8.2023e-05)
(4.39425e-05 -0.00192514 -8.20213e-05)
(0.000211565 -0.00191399 -8.20202e-05)
(0.000377576 -0.00188827 -8.20193e-05)
(0.000540713 -0.00184818 -8.20196e-05)
(0.000699734 -0.00179402 -8.20202e-05)
(0.000853428 -0.00172621 -8.20198e-05)
(0.00100063 -0.00164526 -8.20201e-05)
(0.00114022 -0.00155178 -8.20196e-05)
(0.00127112 -0.0014465 -8.20193e-05)
(0.00139236 -0.00133021 -8.202e-05)
(0.00150299 -0.0012038 -8.20198e-05)
(0.00160219 -0.00106822 -8.20189e-05)
(0.0016892 -0.000924515 -8.20185e-05)
(0.00176335 -0.000773774 -8.20186e-05)
(0.00182407 -0.000617143 -8.20201e-05)
(0.00187092 -0.000455817 -8.20213e-05)
(0.00190353 -0.000291023 -8.20222e-05)
(0.00192165 -0.000124012 -8.20231e-05)
(0.00192514 4.39425e-05 -8.20214e-05)
(0.00191399 0.000211565 -8.20202e-05)
(0.00188827 0.000377576 -8.20194e-05)
(0.00184818 0.000540713 -8.20196e-05)
(0.00179402 0.000699734 -8.20202e-05)
(0.00172621 0.000853428 -8.20198e-05)
(0.00164526 0.00100063 -8.20201e-05)
(0.00155178 0.00114022 -8.20196e-05)
(0.0014465 0.00127112 -8.20193e-05)
(0.00133021 0.00139236 -8.202e-05)
(0.0012038 0.00150299 -8.20198e-05)
(0.00106822 0.00160219 -8.20189e-05)
(0.000924515 0.0016892 -8.20185e-05)
(0.000773774 0.00176335 -8.20186e-05)
(0.000617143 0.00182407 -8.20201e-05)
(0.000455817 0.00187092 -8.20213e-05)
(0.000291023 0.00190353 -8.20222e-05)
(0.000124012 0.00192165 -8.20231e-05)
(-4.39425e-05 0.00192514 -8.20214e-05)
(-0.000211565 0.00191399 -8.20203e-05)
(-0.000377576 0.00188827 -8.20194e-05)
(-0.000540713 0.00184818 -8.20197e-05)
(-0.000699734 0.00179402 -8.20202e-05)
(-0.000853428 0.00172621 -8.20199e-05)
(-0.00100063 0.00164526 -8.20202e-05)
(-0.00114022 0.00155178 -8.20197e-05)
(-0.00127112 0.0014465 -8.20194e-05)
(-0.00139236 0.00133021 -8.202e-05)
(-0.00168074 0.000845156 -0.000854352)
(-0.00174801 0.000695454 -0.000854354)
(-0.00180197 0.000540459 -0.000854353)
(-0.00184221 0.00038135 -0.000854354)
(-0.00186844 0.000219339 -0.000854352)
(-0.00188045 5.56581e-05 -0.000854348)
(-0.00187814 -0.000108444 -0.000854346)
(-0.00186155 -0.000271722 -0.000854345)
(-0.00183078 -0.000432935 -0.000854348)
(-0.00178608 -0.000590849 -0.000854346)
(-0.00172779 -0.000744268 -0.000854347)
(-0.00165635 -0.00089202 -0.000854347)
(-0.0015723 -0.00103299 -0.000854347)
(-0.00147628 -0.00116609 -0.000854348)
(-0.00136904 -0.00129032 -0.000854347)
(-0.00125137 -0.00140473 -0.000854349)
(-0.00112417 -0.00150845 -0.000854352)
(-0.000988426 -0.00160069 -0.000854352)
(-0.000845156 -0.00168074 -0.000854352)
(-0.000695454 -0.00174801 -0.000854354)
(-0.000540459 -0.00180197 -0.000854353)
(-0.00038135 -0.00184221 -0.000854354)
(-0.000219339 -0.00186844 -0.000854352)
(-5.56581e-05 -0.00188045 -0.000854347)
(0.000108444 -0.00187814 -0.000854346)
(0.000271722 -0.00186155 -0.000854345)
(0.000432934 -0.00183078 -0.000854348)
(0.000590849 -0.00178608 -0.000854346)
(0.000744268 -0.00172779 -0.000854347)
(0.00089202 -0.00165635 -0.000854347)
(0.00103299 -0.0015723 -0.000854347)
(0.00116609 -0.00147628 -0.000854348)
(0.00129032 -0.00136904 -0.000854347)
(0.00140473 -0.00125137 -0.000854349)
(0.00150845 -0.00112417 -0.000854352)
(0.00160069 -0.000988426 -0.000854352)
(0.00168074 -0.000845156 -0.000854352)
(0.00174801 -0.000695454 -0.000854354)
(0.00180197 -0.000540459 -0.000854353)
(0.00184221 -0.00038135 -0.000854354)
(0.00186844 -0.000219339 -0.000854352)
(0.00188045 -5.56581e-05 -0.000854347)
(0.00187814 0.000108444 -0.000854346)
(0.00186155 0.000271722 -0.000854345)
(0.00183078 0.000432934 -0.000854348)
(0.00178608 0.000590849 -0.000854347)
(0.00172779 0.000744268 -0.000854347)
(0.00165635 0.00089202 -0.000854347)
(0.0015723 0.00103299 -0.000854347)
(0.00147628 0.00116609 -0.000854348)
(0.00136904 0.00129032 -0.000854347)
(0.00125137 0.00140473 -0.000854349)
(0.00112417 0.00150845 -0.000854352)
(0.000988426 0.00160069 -0.000854352)
(0.000845156 0.00168074 -0.000854352)
(0.000695454 0.00174801 -0.000854354)
(0.000540459 0.00180197 -0.000854353)
(0.00038135 0.00184221 -0.000854354)
(0.000219339 0.00186844 -0.000854352)
(5.56581e-05 0.00188045 -0.000854348)
(-0.000108444 0.00187814 -0.000854346)
(-0.000271722 0.00186155 -0.000854345)
(-0.000432934 0.00183078 -0.000854348)
(-0.000590849 0.00178608 -0.000854347)
(-0.000744268 0.00172779 -0.000854347)
(-0.00089202 0.00165635 -0.000854347)
(-0.00103299 0.0015723 -0.000854347)
(-0.00116609 0.00147628 -0.000854348)
(-0.00129032 0.00136904 -0.000854347)
(-0.00140473 0.00125137 -0.000854349)
(-0.00150845 0.00112417 -0.000854352)
(-0.00160069 0.000988426 -0.000854352)
(-0.00178411 0.00114779 -0.00063856)
(-0.00187736 0.000987923 -0.000638561)
(-0.00195632 0.000820543 -0.000638561)
(-0.00202039 0.000646915 -0.000638561)
(-0.00206908 0.000468364 -0.00063856)
(-0.00210203 0.000286248 -0.000638559)
(-0.00211898 0.000101958 -0.000638556)
(-0.0021198 -8.3113e-05 -0.000638557)
(-0.0021045 -0.000267547 -0.000638556)
(-0.00207317 -0.000449948 -0.000638558)
(-0.00202606 -0.000628925 -0.000638557)
(-0.00196354 -0.000803114 -0.000638558)
(-0.00188607 -0.000971192 -0.000638557)
(-0.00179425 -0.00113188 -0.000638557)
(-0.00168877 -0.00128395 -0.000638557)
(-0.00157044 -0.00142625 -0.000638559)
(-0.00144016 -0.0015577 -0.000638559)
(-0.00129892 -0.00167729 -0.000638559)
(-0.00114779 -0.00178411 -0.00063856)
(-0.000987923 -0.00187736 -0.000638561)
(-0.000820543 -0.00195632 -0.000638561)
(-0.000646915 -0.00202039 -0.000638561)
(-0.000468364 -0.00206908 -0.00063856)
(-0.000286248 -0.00210203 -0.000638559)
(-0.000101958 -0.00211898 -0.000638556)
(8.31129e-05 -0.0021198 -0.000638557)
(0.000267547 -0.0021045 -0.000638556)
(0.000449948 -0.00207317 -0.000638558)
(0.000628925 -0.00202606 -0.000638557)
(0.000803114 -0.00196354 -0.000638558)
(0.000971192 -0.00188607 -0.000638557)
(0.00113188 -0.00179425 -0.000638557)
(0.00128395 -0.00168877 -0.000638557)
(0.00142625 -0.00157044 -0.000638559)
(0.0015577 -0.00144016 -0.000638559)
(0.00167729 -0.00129892 -0.000638559)
(0.00178411 -0.00114779 -0.00063856)
(0.00187736 -0.000987923 -0.000638561)
(0.00195632 -0.000820543 -0.000638561)