/*--------------------------------*- C++ -*----------------------------------*\
| =========                 |                                                 |
| \\      /  F ield         | OpenFOAM: The Open Source CFD Toolbox           |
|  \\    /   O peration     | Version:  2312                                  |
|   \\  /    A nd           | Website:  www.openfoam.com                      |
|    \\/     M anipulation  |                                                 |
\*---------------------------------------------------------------------------*/
FoamFile
{
    version     2.0;
    format      ascii;
    arch        "LSB;label=32;scalar=64";
    class       volVectorField;
    location    "0.6";
    object      traction;
}
// * * * * * * * * * * * * * * * * * * * * * * * * * * * * * * * * * * * * * //

dimensions      [1 -1 -2 0 0 0 0];

internalField   uniform (0 0 0);

boundaryField
{
    fixed
    {
        type            calculated;
        value           nonuniform List<vector> 
216
(
(862.927 17036.9 19136)
(-625.276 17047.3 19135.9)
(-2108.65 16928 19136)
(-3575.93 16679.8 19136)
(-5016.07 16304.6 19136)
(-6418.09 15805.3 19135.8)
(-7771.19 15185.8 19136)
(-9065.14 14450.8 19135.9)
(-10290.1 13605.7 19135.9)
(-11436.8 12657.1 19135.9)
(-12496.4 11612.2 19136)
(-13460.9 10478.9 19136.1)
(-14322.9 9265.79 19135.9)
(-15076 7982.13 19135.9)
(-15714.4 6637.8 19136)
(-16233.1 5243 19136)
(-16628.3 3808.26 19136)
(-16896.9 2344.49 19136)
(-17036.9 862.926 19136)
(-17047.3 -625.277 19135.9)
(-16928 -2108.65 19136)
(-16679.8 -3575.93 19136)
(-16304.6 -5016.07 19136)
(-15805.3 -6418.09 19135.8)
(-15185.8 -7771.19 19136)
(-14450.8 -9065.14 19135.9)
(-13605.7 -10290.1 19135.9)
(-12657.1 -11436.8 19135.9)
(-11612.2 -12496.4 19136)
(-10478.9 -13460.9 19136.1)
(-9265.79 -14322.9 19135.9)
(-7982.13 -15076 19135.9)
(-6637.8 -15714.4 19136)
(-5243 -16233.1 19136)
(-3808.26 -16628.3 19136)
(-2344.49 -16896.9 19136)
(-862.926 -17036.9 19136)
(625.277 -17047.3 19135.9)
(2108.65 -16928 19136)
(3575.93 -16679.8 19136)
(5016.07 -16304.6 19136)
(6418.09 -15805.3 19135.8)
(7771.19 -15185.8 19136)
(9065.14 -14450.8 19135.9)
(10290.1 -13605.7 19135.9)
(11436.8 -12657.1 19135.9)
(12496.4 -11612.2 19136)
(13460.9 -10478.9 19136.1)
(14322.9 -9265.79 19135.9)
(15076 -7982.13 19135.9)
(15714.4 -6637.8 19136)
(16233.1 -5243 19136)
(16628.3 -3808.26 19136)
(16896.9 -2344.49 19136)
(17036.9 -862.926 19136)
(17047.3 625.277 19135.9)
(16928 2108.65 19136)
(16679.8 3575.93 19136)
(16304.6 5016.07 19136)
(15805.3 6418.09 19135.8)
(15185.8 7771.19 19136)
(14450.8 9065.14 19135.9)
(13605.7 10290.1 19135.9)
(12657.1 11436.8 19135.9)
(11612.2 12496.4 19136)
(10478.9 13460.9 19136.1)
(9265.79 14322.9 19135.9)
(7982.13 15076 19135.9)
(6637.8 15714.4 19136)
(5243 16233.1 19136)
(3808.26 16628.3 19136)
(2344.49 16896.9 19136)
(913.682 1915.82 -528.868)
(743.229 1988.17 -528.89)
(567.12 2045.4 -528.847)
(386.717 2086.97 -528.85)
(203.365 2112.69 -528.916)
(18.4504 2122.38 -528.937)
(-166.627 2115.96 -528.896)
(-350.417 2093.4 -528.828)
(-531.593 2054.95 -528.889)
(-708.671 2000.81 -528.924)
(-880.303 1931.4 -528.88)
(-1045.27 1847.31 -528.901)
(-1202.24 1749.15 -528.921)
(-1350.09 1637.7 -528.905)
(-1487.72 1513.81 -528.878)
(-1614.07 1378.4 -528.869)
(-1728.07 1232.48 -528.883)
(-1828.9 1077.18 -528.899)
(-1915.82 913.682 -528.868)
(-1988.17 743.229 -528.89)
(-2045.4 567.12 -528.847)
(-2086.97 386.717 -528.85)
(-2112.69 203.365 -528.916)
(-2122.38 18.4503 -528.937)
(-2115.96 -166.627 -528.895)
(-2093.4 -350.419 -528.827)
(-2054.95 -531.593 -528.889)
(-2000.81 -708.671 -528.924)
(-1931.4 -880.302 -528.88)
(-1847.31 -1045.27 -528.902)
(-1749.15 -1202.24 -528.922)
(-1637.7 -1350.09 -528.905)
(-1513.81 -1487.72 -528.878)
(-1378.4 -1614.08 -528.869)
(-1232.48 -1728.07 -528.884)
(-1077.18 -1828.9 -528.899)
(-913.682 -1915.82 -528.868)
(-743.229 -1988.17 -528.89)
(-567.12 -2045.4 -528.847)
(-386.717 -2086.97 -528.85)
(-203.365 -2112.69 -528.916)
(-18.4503 -2122.38 -528.937)
(166.628 -2115.96 -528.895)
(350.419 -2093.4 -528.827)
(531.593 -2054.95 -528.889)
(708.671 -2000.81 -528.923)
(880.302 -1931.4 -528.879)
(1045.27 -1847.31 -528.901)
(1202.24 -1749.15 -528.921)
(1350.09 -1637.7 -528.905)
(1487.72 -1513.81 -528.878)
(1614.08 -1378.4 -528.869)
(1728.07 -1232.48 -528.884)
(1828.9 -1077.18 -528.899)
(1915.82 -913.682 -528.868)
(1988.17 -743.229 -528.89)
(2045.4 -567.12 -528.847)
(2086.97 -386.717 -528.85)
(2112.69 -203.365 -528.915)
(2122.38 -18.4502 -528.936)
(2115.96 166.628 -528.895)
(2093.4 350.419 -528.826)
(2054.95 531.593 -528.888)
(2000.81 708.671 -528.923)
(1931.4 880.302 -528.879)
(1847.31 1045.27 -528.901)
(1749.15 1202.24 -528.921)
(1637.7 1350.09 -528.905)
(1513.81 1487.72 -528.878)
(1378.4 1614.08 -528.869)
(1232.48 1728.07 -528.883)
(1077.18 1828.9 -528.899)
(3793.31 -21461 7609.12)
(5649.3 -21048.7 7609.12)
(7462.27 -20476.3 7609.17)
(9218.48 -19747.9 7609.11)
(10904.6 -18869.3 7609.09)
(12507.7 -17847.1 7609.08)
(14015.6 -16689.1 7609.15)
(15416.9 -15404 7609.19)
(16700.7 -14001.8 7609.11)
(17857.4 -12493 7609.04)
(18878.3 -10889.1 7609.14)
(19755.6 -9202.23 7609.13)
(20482.4 -7445.44 7609.11)
(21053.4 -5631.93 7609.14)
(21464.1 -3775.5 7609.11)
(21711.5 -1890.41 7609.16)
(21793.6 9.0081 7609.13)
(21709.9 1908.4 7609.08)
(21461 3793.31 7609.12)
(21048.7 5649.3 7609.12)
(20476.3 7462.27 7609.17)
(19747.9 9218.48 7609.11)
(18869.3 10904.6 7609.09)
(17847.1 12507.7 7609.08)
(16689.1 14015.6 7609.16)
(15404 15416.9 7609.19)
(14001.8 16700.7 7609.11)
(12493 17857.4 7609.04)
(10889.1 18878.3 7609.14)
(9202.23 19755.6 7609.14)
(7445.44 20482.4 7609.11)
(5631.93 21053.4 7609.14)
(3775.5 21464.1 7609.11)
(1890.41 21711.5 7609.16)
(-9.00794 21793.6 7609.13)
(-1908.4 21709.9 7609.08)
(-3793.31 21461 7609.12)
(-5649.3 21048.7 7609.12)
(-7462.27 20476.3 7609.17)
(-9218.48 19747.9 7609.11)
(-10904.6 18869.3 7609.09)
(-12507.7 17847.1 7609.08)
(-14015.6 16689.1 7609.16)
(-15416.9 15404 7609.19)
(-16700.7 14001.8 7609.11)
(-17857.4 12493 7609.04)
(-18878.3 10889.1 7609.14)
(-19755.6 9202.23 7609.14)
(-20482.4 7445.44 7609.11)
(-21053.4 5631.93 7609.14)
(-21464.1 3775.5 7609.11)
(-21711.5 1890.41 7609.16)
(-21793.6 -9.00803 7609.13)
(-21709.9 -1908.4 7609.08)
(-21461 -3793.31 7609.12)
(-21048.7 -5649.3 7609.12)
(-20476.3 -7462.27 7609.17)
(-19747.9 -9218.48 7609.11)
(-18869.3 -10904.6 7609.09)
(-17847.1 -12507.7 7609.08)
(-16689.1 -14015.6 7609.16)
(-15404 -15416.9 7609.19)
(-14001.8 -16700.7 7609.11)
(-12493 -17857.4 7609.04)
(-10889.1 -18878.3 7609.14)
(-9202.23 -19755.6 7609.14)
(-7445.44 -20482.4 7609.11)
(-5631.93 -21053.4 7609.14)
(-3775.5 -21464.1 7609.11)
(-1890.41 -21711.5 7609.16)
(9.00823 -21793.6 7609.13)
(1908.4 -21709.9 7609.08)
)
;
    }
    inside
    {
        type            calculated;
        value           nonuniform List<vector> 
1080
(
(7802.85 -1738.91 2966.41)
(7924.74 -1052.24 2966.53)
(7986.23 -357.612 2966.38)
(7987.02 339.824 2966.49)
(7927.05 1034.7 2966.45)
(7806.72 1721.73 2966.5)
(7626.89 2395.48 2966.28)
(7389.06 3051.13 2966.44)
(7095.09 3683.48 2966.45)
(6747.09 4287.8 2966.57)
(6347.62 4859.5 2966.43)
(5899.91 5394.39 2966.5)
(5407.39 5887.99 2966.33)
(4873.63 6336.89 2966.43)
(4302.77 6737.54 2966.43)
(3699.14 7086.96 2966.5)
(3067.48 7382.32 2966.4)
(2412.36 7621.63 2966.48)
(1738.91 7802.85 2966.41)
(1052.24 7924.74 2966.53)
(357.612 7986.23 2966.38)
(-339.824 7987.02 2966.49)
(-1034.7 7927.05 2966.45)
(-1721.73 7806.72 2966.5)
(-2395.48 7626.89 2966.28)
(-3051.13 7389.06 2966.44)
(-3683.48 7095.09 2966.45)
(-4287.8 6747.09 2966.57)
(-4859.5 6347.62 2966.43)
(-5394.39 5899.91 2966.5)
(-5887.99 5407.39 2966.33)
(-6336.89 4873.63 2966.43)
(-6737.54 4302.77 2966.43)
(-7086.96 3699.14 2966.5)
(-7382.32 3067.48 2966.4)
(-7621.63 2412.36 2966.48)
(-7802.85 1738.91 2966.41)
(-7924.74 1052.24 2966.53)
(-7986.23 357.612 2966.38)
(-7987.02 -339.824 2966.49)
(-7927.05 -1034.7 2966.45)
(-7806.72 -1721.73 2966.5)
(-7626.89 -2395.48 2966.28)
(-7389.06 -3051.13 2966.44)
(-7095.09 -3683.48 2966.45)
(-6747.09 -4287.8 2966.57)
(-6347.62 -4859.5 2966.43)
(-5899.91 -5394.39 2966.5)
(-5407.39 -5887.99 2966.33)
(-4873.63 -6336.89 2966.43)
(-4302.77 -6737.54 2966.43)
(-3699.14 -7086.96 2966.5)
(-3067.48 -7382.32 2966.4)
(-2412.36 -7621.63 2966.48)
(-1738.91 -7802.85 2966.41)
(-1052.24 -7924.74 2966.53)
(-357.613 -7986.23 2966.38)
(339.824 -7987.02 2966.49)
(1034.7 -7927.05 2966.45)
(1721.73 -7806.72 2966.5)
(2395.48 -7626.89 2966.28)
(3051.13 -7389.06 2966.44)
(3683.48 -7095.09 2966.45)
(4287.8 -6747.09 2966.57)
(4859.5 -6347.62 2966.43)
(5394.39 -5899.91 2966.5)
(5887.99 -5407.39 2966.33)
(6336.89 -4873.63 2966.43)
(6737.54 -4302.77 2966.43)
(7086.96 -3699.14 2966.5)
(7382.32 -3067.48 2966.4)
(7621.63 -2412.36 2966.48)
(10526.3 -293.76 3677.53)
(10511.8 624.711 3677.45)
(10417.4 1538.42 3677.41)
(10243.7 2440.5 3677.5)
(9992.01 3323.99 3677.37)
(9664.26 4182.34 3677.47)
(9262.95 5008.63 3677.32)
(8791.11 5796.96 3677.43)
(8252.4 6541.19 3677.45)
(7650.93 7235.41 3677.34)
(6991.17 7874.62 3677.42)
(6278.24 8454.09 3677.52)
(5517.62 8969.07 3677.36)
(4714.88 9415.94 3677.48)
(3876.33 9790.99 3677.39)
(3008.22 10091.6 3677.48)
(2117.29 10315.3 3677.47)
(1210.22 10460.6 3677.34)
(293.76 10526.3 3677.53)
(-624.711 10511.8 3677.45)
(-1538.42 10417.4 3677.41)
(-2440.5 10243.7 3677.5)
(-3323.99 9992.01 3677.37)
(-4182.34 9664.26 3677.47)
(-5008.63 9262.95 3677.32)
(-5796.96 8791.11 3677.43)
(-6541.19 8252.4 3677.45)
(-7235.41 7650.93 3677.34)
(-7874.62 6991.17 3677.42)
(-8454.09 6278.24 3677.52)
(-8969.07 5517.62 3677.36)
(-9415.94 4714.88 3677.48)
(-9790.99 3876.33 3677.39)
(-10091.6 3008.22 3677.48)
(-10315.3 2117.3 3677.47)
(-10460.6 1210.22 3677.34)
(-10526.3 293.761 3677.53)
(-10511.8 -624.711 3677.45)
(-10417.4 -1538.42 3677.41)
(-10243.7 -2440.5 3677.5)
(-9992.01 -3323.99 3677.37)
(-9664.26 -4182.34 3677.47)
(-9262.95 -5008.63 3677.32)
(-8791.11 -5796.96 3677.43)
(-8252.4 -6541.19 3677.45)
(-7650.93 -7235.41 3677.34)
(-6991.17 -7874.62 3677.42)
(-6278.24 -8454.09 3677.52)
(-5517.62 -8969.07 3677.36)
(-4714.88 -9415.94 3677.48)
(-3876.33 -9790.99 3677.39)
(-3008.22 -10091.6 3677.48)
(-2117.3 -10315.3 3677.47)
(-1210.22 -10460.6 3677.34)
(-293.761 -10526.3 3677.53)
(624.71 -10511.8 3677.45)
(1538.42 -10417.4 3677.41)
(2440.5 -10243.7 3677.5)
(3323.99 -9992.01 3677.37)
(4182.34 -9664.26 3677.47)
(5008.63 -9262.95 3677.32)
(5796.96 -8791.11 3677.43)
(6541.19 -8252.4 3677.45)
(7235.41 -7650.93 3677.34)
(7874.62 -6991.17 3677.42)
(8454.09 -6278.24 3677.52)
(8969.07 -5517.62 3677.36)
(9415.94 -4714.88 3677.48)
(9790.99 -3876.33 3677.39)
(10091.6 -3008.22 3677.48)
(10315.3 -2117.29 3677.47)
(10460.6 -1210.22 3677.34)
(12618 4499.89 2513.11)
(12177.7 5582.58 2513.12)
(11644.8 6622.68 2513.06)
(11023.3 7612.38 2513.03)
(10317.9 8544.17 2513.12)
(9534.04 9410.85 2513.1)
(8677.54 10206.1 2513.09)
(7754.99 10923.4 2513.02)
(6773.43 11557.9 2513.22)
(5740.4 12104.1 2513)
(4663.48 12558.5 2513.16)
(3551.27 12917.1 2513.1)
(2411.94 13177.5 2513.09)
(1254.26 13337.6 2513.04)
(86.9437 13396.1 2513.07)
(-1080.9 13352.7 2513.09)
(-2240.49 13207.6 2513.06)
(-3383.07 12962.2 2513.11)
(-4499.89 12618 2513.11)
(-5582.58 12177.7 2513.12)
(-6622.68 11644.8 2513.06)
(-7612.38 11023.3 2513.03)
(-8544.17 10317.9 2513.12)
(-9410.85 9534.04 2513.1)
(-10206.1 8677.54 2513.09)
(-10923.4 7754.99 2513.02)
(-11557.9 6773.43 2513.22)
(-12104.1 5740.4 2513)
(-12558.5 4663.48 2513.16)
(-12917.1 3551.26 2513.1)
(-13177.5 2411.94 2513.09)
(-13337.6 1254.26 2513.04)
(-13396.1 86.9432 2513.07)
(-13352.7 -1080.9 2513.09)
(-13207.6 -2240.49 2513.06)
(-12962.2 -3383.07 2513.11)
(-12618 -4499.89 2513.11)
(-12177.7 -5582.58 2513.12)
(-11644.8 -6622.68 2513.06)
(-11023.3 -7612.38 2513.03)
(-10317.9 -8544.17 2513.12)
(-9534.04 -9410.85 2513.1)
(-8677.54 -10206.1 2513.09)
(-7754.99 -10923.4 2513.02)
(-6773.43 -11557.9 2513.22)
(-5740.4 -12104.1 2513)
(-4663.48 -12558.5 2513.16)
(-3551.27 -12917.1 2513.1)
(-2411.94 -13177.5 2513.09)
(-1254.26 -13337.6 2513.04)
(-86.9432 -13396.1 2513.07)
(1080.9 -13352.7 2513.09)
(2240.49 -13207.6 2513.06)
(3383.07 -12962.2 2513.11)
(4499.89 -12618 2513.11)
(5582.58 -12177.7 2513.12)
(6622.68 -11644.8 2513.06)
(7612.38 -11023.3 2513.03)
(8544.17 -10317.9 2513.12)
(9410.84 -9534.04 2513.1)
(10206.1 -8677.54 2513.09)
(10923.4 -7754.99 2513.02)
(11557.9 -6773.43 2513.22)
(12104.1 -5740.4 2513)
(12558.5 -4663.48 2513.16)
(12917.1 -3551.27 2513.1)
(13177.5 -2411.94 2513.09)
(13337.6 -1254.26 2513.04)
(13396.1 -86.9432 2513.07)
(13352.7 1080.9 2513.09)
(13207.6 2240.49 2513.06)
(12962.2 3383.07 2513.11)
(14113.6 10157.9 2428.7)
(13174.5 11349.4 2428.82)
(12135.2 12454.6 2428.87)
(11003.6 13464.7 2428.83)
(9788.16 14372.6 2428.98)
(8498.34 15170.9 2428.68)
(7143.68 15854 2428.82)
(5734.73 16416.1 2428.79)
(4282.11 16853.6 2428.78)
(2796.97 17162.6 2428.79)
(1290.51 17341 2428.84)
(-225.788 17387.5 2428.76)
(-1740.41 17301.8 2428.94)
(-3241.54 17084.1 2428.69)
(-4718.27 16736.7 2428.9)
(-6158.98 16261.7 2428.77)
(-7552.94 15663 2428.83)
(-8889.4 14945.2 2428.91)
(-10157.9 14113.6 2428.7)
(-11349.4 13174.5 2428.82)
(-12454.6 12135.2 2428.87)
(-13464.7 11003.6 2428.83)
(-14372.6 9788.16 2428.98)
(-15170.9 8498.34 2428.68)
(-15854 7143.68 2428.82)
(-16416.1 5734.73 2428.79)
(-16853.6 4282.11 2428.78)
(-17162.6 2796.97 2428.79)
(-17341 1290.51 2428.84)
(-17387.5 -225.787 2428.76)
(-17301.8 -1740.41 2428.94)
(-17084.1 -3241.55 2428.69)
(-16736.7 -4718.27 2428.9)
(-16261.7 -6158.98 2428.77)
(-15663 -7552.94 2428.83)
(-14945.2 -8889.4 2428.91)
(-14113.6 -10157.9 2428.7)
(-13174.5 -11349.4 2428.82)
(-12135.2 -12454.6 2428.87)
(-11003.6 -13464.7 2428.83)
(-9788.16 -14372.6 2428.98)
(-8498.34 -15170.9 2428.68)
(-7143.68 -15854 2428.82)
(-5734.73 -16416.1 2428.79)
(-4282.11 -16853.6 2428.78)
(-2796.97 -17162.6 2428.79)
(-1290.51 -17341 2428.84)
(225.787 -17387.5 2428.76)
(1740.41 -17301.8 2428.94)
(3241.55 -17084.1 2428.69)
(4718.27 -16736.7 2428.9)
(6158.98 -16261.7 2428.77)
(7552.94 -15663 2428.83)
(8889.4 -14945.2 2428.91)
(10157.9 -14113.6 2428.7)
(11349.4 -13174.5 2428.82)
(12454.6 -12135.2 2428.87)
(13464.7 -11003.6 2428.83)
(14372.6 -9788.16 2428.98)
(15170.9 -8498.34 2428.68)
(15854 -7143.68 2428.82)
(16416.1 -5734.73 2428.79)
(16853.6 -4282.11 2428.78)
(17162.6 -2796.97 2428.79)
(17341 -1290.51 2428.84)
(17387.5 225.787 2428.76)
(17301.8 1740.41 2428.94)
(17084.1 3241.55 2428.69)
(16736.7 4718.27 2428.9)
(16261.7 6158.98 2428.77)
(15663 7552.94 2428.83)
(14945.2 8889.4 2428.91)
(14785.6 15224.4 3150.81)
(13402.5 16455.1 3150.76)
(11917.2 17560.8 3151.03)
(10341.4 18532.4 3150.71)
(8686.79 19363.4 3150.9)
(6966.2 20046.7 3150.75)
(5192.5 20577.7 3150.99)
(3379.3 20951.8 3150.73)
(1540.29 21166.7 3150.86)
(-310.316 21220.3 3150.79)
(-2158.65 21112.6 3150.95)
(-3990.35 20844 3150.76)
(-5792.01 20417 3150.94)
(-7549.42 19834.4 3150.74)
(-9249.46 19101 3150.93)
(-10878.8 18222.1 3150.65)
(-12425.7 17204.6 3150.91)
(-13877.9 16056.3 3150.88)
(-15224.4 14785.6 3150.81)
(-16455.1 13402.5 3150.76)
(-17560.8 11917.2 3151.03)
(-18532.4 10341.4 3150.71)
(-19363.4 8686.79 3150.9)
(-20046.7 6966.2 3150.75)
(-20577.7 5192.5 3150.99)
(-20951.8 3379.3 3150.73)
(-21166.7 1540.29 3150.86)
(-21220.3 -310.317 3150.79)
(-21112.6 -2158.65 3150.95)
(-20844 -3990.35 3150.76)
(-20417 -5792.01 3150.94)
(-19834.4 -7549.42 3150.74)
(-19101 -9249.46 3150.93)
(-18222.1 -10878.8 3150.65)
(-17204.6 -12425.7 3150.91)
(-16056.3 -13877.9 3150.88)
(-14785.6 -15224.4 3150.81)
(-13402.5 -16455.1 3150.76)
(-11917.2 -17560.8 3151.03)
(-10341.4 -18532.4 3150.71)
(-8686.79 -19363.4 3150.9)
(-6966.2 -20046.7 3150.75)
(-5192.5 -20577.7 3150.99)
(-3379.3 -20951.8 3150.73)
(-1540.29 -21166.7 3150.86)
(310.316 -21220.3 3150.79)
(2158.65 -21112.6 3150.95)
(3990.35 -20844 3150.76)
(5792.01 -20417 3150.94)
(7549.42 -19834.4 3150.74)
(9249.46 -19101 3150.93)
(10878.8 -18222.1 3150.65)
(12425.7 -17204.6 3150.91)
(13877.9 -16056.3 3150.88)
(15224.4 -14785.6 3150.81)
(16455.1 -13402.5 3150.76)
(17560.8 -11917.2 3151.03)
(18532.4 -10341.4 3150.71)
(19363.4 -8686.79 3150.9)
(20046.7 -6966.2 3150.76)
(20577.7 -5192.5 3150.99)
(20951.8 -3379.3 3150.73)
(21166.7 -1540.29 3150.86)
(21220.3 310.316 3150.79)
(21112.6 2158.65 3150.95)
(20844 3990.35 3150.76)
(20417 5792.01 3150.94)
(19834.4 7549.42 3150.74)
(19101 9249.46 3150.93)
(18222.1 10878.8 3150.65)
(17204.6 12425.7 3150.91)
(16056.3 13877.9 3150.88)
(14847.6 18913.4 4139.69)
(13142.6 20135.2 4139.34)
(11337.7 21204.4 4139.76)
(9446.5 22111.5 4139.38)
(7483.37 22850.9 4139.63)
(5463.32 23416.1 4139.66)
(3401.67 23803.1 4139.52)
(1314.13 24009.1 4139.57)
(-783.349 24032.3 4139.69)
(-2874.85 23872.5 4139.43)
(-4944.6 23531.1 4139.55)
(-6976.73 23010.7 4139.54)
(-8955.56 22315 4139.5)
(-10866.4 21449.5 4139.51)
(-12694.6 20420.9 4139.73)
(-14425.9 19236.7 4139.32)
(-16047.8 17906.3 4139.76)
(-17547.2 16439.4 4139.39)
(-18913.4 14847.6 4139.69)
(-20135.2 13142.6 4139.34)
(-21204.4 11337.7 4139.76)
(-22111.5 9446.5 4139.38)
(-22850.9 7483.37 4139.63)
(-23416.1 5463.32 4139.66)
(-23803.1 3401.67 4139.52)
(-24009.1 1314.13 4139.57)
(-24032.3 -783.35 4139.69)
(-23872.5 -2874.85 4139.43)
(-23531.1 -4944.6 4139.55)
(-23010.7 -6976.73 4139.54)
(-22315 -8955.56 4139.5)
(-21449.5 -10866.4 4139.51)
(-20420.9 -12694.6 4139.73)
(-19236.7 -14425.9 4139.32)
(-17906.3 -16047.8 4139.76)
(-16439.4 -17547.2 4139.39)
(-14847.6 -18913.4 4139.69)
(-13142.6 -20135.2 4139.34)
(-11337.7 -21204.4 4139.76)
(-9446.5 -22111.5 4139.38)
(-7483.37 -22850.9 4139.63)
(-5463.32 -23416.1 4139.66)
(-3401.67 -23803.1 4139.52)
(-1314.13 -24009.1 4139.57)
(783.349 -24032.3 4139.69)
(2874.85 -23872.5 4139.43)
(4944.6 -23531.1 4139.55)
(6976.73 -23010.7 4139.54)
(8955.56 -22315 4139.5)
(10866.4 -21449.5 4139.51)
(12694.6 -20420.9 4139.73)
(14425.9 -19236.7 4139.32)
(16047.8 -17906.3 4139.76)
(17547.2 -16439.4 4139.39)
(18913.4 -14847.6 4139.69)
(20135.2 -13142.6 4139.34)
(21204.4 -11337.7 4139.76)
(22111.5 -9446.5 4139.38)
(22850.9 -7483.37 4139.63)
(23416.1 -5463.32 4139.66)
(23803.1 -3401.67 4139.52)
(24009.1 -1314.13 4139.57)
(24032.3 783.349 4139.69)
(23872.5 2874.85 4139.43)
(23531.1 4944.6 4139.55)
(23010.7 6976.73 4139.54)
(22315 8955.56 4139.5)
(21449.5 10866.4 4139.51)
(20420.9 12694.6 4139.73)
(19236.7 14425.9 4139.32)
(17906.3 16047.8 4139.76)
(16439.4 17547.2 4139.39)
(14806.4 21504.1 5141.42)
(12875.8 22712.5 5141.18)
(10847.4 23748.4 5141.33)
(8736.24 24603.4 5141.21)
(6558.7 25271.2 5141.34)
(4331.22 25746.6 5141.22)
(2070.72 26026.1 5141.2)
(-205.542 26107.7 5141.51)
(-2480.11 25990.3 5141.21)
(-4735.9 25675.3 5141.34)
(-6955.54 25164.7 5141.08)
(-9122.5 24462.8 5141.36)
(-11219.8 23574.7 5141.31)
(-13231.7 22507.1 5141.2)
(-15143 21268.3 5141.33)
(-16939 19867.6 5141.28)
(-18606.2 18315.6 5141.38)
(-20131.6 16624.2 5141.12)
(-21504.1 14806.4 5141.42)
(-22712.5 12875.8 5141.18)
(-23748.4 10847.4 5141.33)
(-24603.4 8736.24 5141.21)
(-25271.2 6558.7 5141.34)
(-25746.6 4331.22 5141.22)
(-26026.1 2070.72 5141.2)
(-26107.7 -205.541 5141.51)
(-25990.3 -2480.11 5141.21)
(-25675.3 -4735.9 5141.34)
(-25164.7 -6955.54 5141.08)
(-24462.8 -9122.49 5141.36)
(-23574.7 -11219.8 5141.31)
(-22507.1 -13231.7 5141.2)
(-21268.3 -15143 5141.33)
(-19867.6 -16939 5141.28)
(-18315.6 -18606.2 5141.38)
(-16624.2 -20131.6 5141.12)
(-14806.4 -21504.1 5141.42)
(-12875.8 -22712.5 5141.18)
(-10847.4 -23748.4 5141.33)
(-8736.24 -24603.4 5141.21)
(-6558.7 -25271.2 5141.34)
(-4331.22 -25746.6 5141.22)
(-2070.72 -26026.1 5141.2)
(205.541 -26107.7 5141.51)
(2480.11 -25990.3 5141.21)
(4735.9 -25675.3 5141.34)
(6955.54 -25164.7 5141.08)
(9122.49 -24462.8 5141.36)
(11219.8 -23574.7 5141.31)
(13231.7 -22507.1 5141.2)
(15143 -21268.3 5141.33)
(16939 -19867.6 5141.28)
(18606.2 -18315.6 5141.38)
(20131.6 -16624.2 5141.12)
(21504.1 -14806.4 5141.42)
(22712.5 -12875.8 5141.18)
(23748.4 -10847.4 5141.33)
(24603.4 -8736.24 5141.21)
(25271.2 -6558.7 5141.34)
(25746.6 -4331.23 5141.22)
(26026.1 -2070.73 5141.2)
(26107.7 205.54 5141.51)
(25990.3 2480.11 5141.21)
(25675.3 4735.9 5141.34)
(25164.7 6955.54 5141.08)
(24462.8 9122.49 5141.36)
(23574.7 11219.8 5141.31)
(22507.1 13231.7 5141.2)
(21268.3 15143 5141.33)
(19867.6 16939 5141.28)
(18315.6 18606.2 5141.38)
(16624.2 20131.6 5141.12)
(14992.4 23490.7 6113.15)
(12888 24708.1 6113.12)
(10685.4 25737.3 6113.12)
(8401.65 26570.7 6113.21)
(6053.95 27201.8 6113.17)
(3660.17 27625.9 6113.07)
(1238.43 27839.8 6113.16)
(-1192.69 27841.8 6113.26)
(-3614.7 27631.8 6112.98)
(-6009.34 27211.8 6113.32)
(-8357.92 26584.3 6113.09)
(-10643.1 25754.8 6113.17)
(-12847.4 24729.2 6113.27)
(-14953.7 23515.4 6113.09)
(-16946.3 22122.6 6113.1)
(-18810 20561.4 6113.17)
(-20530.5 18843.7 6113.18)
(-22094.7 16982.7 6113.18)
(-23490.7 14992.4 6113.15)
(-24708.1 12888 6113.12)
(-25737.3 10685.4 6113.12)
(-26570.7 8401.65 6113.21)
(-27201.8 6053.95 6113.17)
(-27625.9 3660.17 6113.07)
(-27839.8 1238.43 6113.16)
(-27841.8 -1192.69 6113.26)
(-27631.7 -3614.7 6112.98)
(-27211.8 -6009.34 6113.32)
(-26584.3 -8357.92 6113.09)
(-25754.8 -10643.1 6113.18)
(-24729.2 -12847.4 6113.27)
(-23515.4 -14953.7 6113.09)
(-22122.6 -16946.3 6113.1)
(-20561.4 -18810 6113.17)
(-18843.7 -20530.5 6113.18)
(-16982.7 -22094.7 6113.17)
(-14992.4 -23490.7 6113.15)
(-12888 -24708.1 6113.12)
(-10685.4 -25737.3 6113.12)
(-8401.65 -26570.7 6113.21)
(-6053.95 -27201.8 6113.17)
(-3660.17 -27625.9 6113.07)
(-1238.43 -27839.8 6113.16)
(1192.69 -27841.8 6113.26)
(3614.7 -27631.8 6112.98)
(6009.34 -27211.8 6113.32)
(8357.92 -26584.3 6113.09)
(10643.1 -25754.8 6113.18)
(12847.4 -24729.2 6113.27)
(14953.7 -23515.4 6113.09)
(16946.3 -22122.6 6113.1)
(18810 -20561.4 6113.17)
(20530.5 -18843.7 6113.18)
(22094.7 -16982.7 6113.17)
(23490.7 -14992.4 6113.15)
(24708.1 -12888 6113.12)
(25737.3 -10685.4 6113.12)
(26570.7 -8401.65 6113.21)
(27201.8 -6053.95 6113.17)
(27625.9 -3660.17 6113.07)
(27839.8 -1238.43 6113.16)
(27841.8 1192.69 6113.26)
(27631.8 3614.7 6112.98)
(27211.8 6009.34 6113.32)
(26584.3 8357.92 6113.09)
(25754.8 10643.1 6113.18)
(24729.2 12847.4 6113.27)
(23515.4 14953.7 6113.09)
(22122.6 16946.3 6113.1)
(20561.4 18810 6113.17)
(18843.7 20530.5 6113.18)
(16982.7 22094.7 6113.17)
(15388.2 25064.6 6983.81)
(13145.1 26310.5 6983.94)
(10802 27356 6984.03)
(8376.58 28193.4 6984.06)
(5887.44 28816.2 6983.88)
(3353.58 29219.7 6984.01)
(794.232 29400.7 6983.89)
(-1771.22 29358 6984.11)
(-4323.11 29091.9 6983.78)
(-6842.33 28604.7 6984.25)
(-9309.21 27899.3 6983.87)
(-11705.5 26981.8 6984.03)
(-14012.5 25858.9 6983.86)
(-16213.1 24539.3 6983.99)
(-18290 23032.8 6983.88)
(-20227.9 21351.1 6983.92)
(-22011.8 19506.9 6984.02)
(-23628.1 17514.2 6984.17)
(-25064.6 15388.2 6983.81)
(-26310.5 13145.1 6983.94)
(-27356 10802 6984.03)
(-28193.4 8376.58 6984.06)
(-28816.2 5887.44 6983.88)
(-29219.7 3353.58 6984.01)
(-29400.7 794.232 6983.89)
(-29358 -1771.22 6984.11)
(-29091.9 -4323.11 6983.78)
(-28604.7 -6842.33 6984.25)
(-27899.3 -9309.21 6983.87)
(-26981.8 -11705.5 6984.03)
(-25858.9 -14012.5 6983.86)
(-24539.3 -16213.1 6983.99)
(-23032.8 -18290 6983.88)
(-21351.1 -20227.9 6983.92)
(-19506.9 -22011.8 6984.02)
(-17514.2 -23628.1 6984.17)
(-15388.2 -25064.6 6983.81)
(-13145.1 -26310.5 6983.94)
(-10802 -27356 6984.03)
(-8376.58 -28193.4 6984.06)
(-5887.44 -28816.2 6983.88)
(-3353.58 -29219.7 6984.01)
(-794.233 -29400.7 6983.89)
(1771.22 -29358 6984.11)
(4323.11 -29091.9 6983.78)
(6842.33 -28604.7 6984.25)
(9309.21 -27899.3 6983.87)
(11705.5 -26981.8 6984.03)
(14012.5 -25858.9 6983.86)
(16213.1 -24539.3 6983.99)
(18290 -23032.8 6983.88)
(20227.9 -21351.1 6983.92)
(22011.8 -19506.9 6984.02)
(23628.1 -17514.2 6984.17)
(25064.6 -15388.2 6983.81)
(26310.5 -13145.1 6983.94)
(27356 -10802 6984.03)
(28193.4 -8376.58 6984.06)
(28816.2 -5887.44 6983.88)
(29219.7 -3353.58 6984.01)
(29400.7 -794.233 6983.89)
(29358 1771.22 6984.11)
(29091.9 4323.11 6983.78)
(28604.7 6842.33 6984.25)
(27899.3 9309.21 6983.87)
(26981.8 11705.5 6984.03)
(25858.9 14012.5 6983.86)
(24539.3 16213.1 6983.99)
(23032.8 18290 6983.88)
(21351.1 20227.9 6983.92)
(19506.9 22011.8 6984.02)
(17514.2 23628.1 6984.17)
(15699.6 25692.4 7690.1)
(13400.6 26963.2 7690.47)
(10999.6 28028.4 7690.23)
(8514.84 28880.5 7690.45)
(5965.39 29512.5 7690.27)
(3370.48 29920.3 7690.45)
(749.95 30100.2 7690.2)
(-1876.41 30051.1 7690.47)
(-4488.35 29773.1 7690.2)
(-7066.27 29268.7 7690.5)
(-9590.18 28541.3 7690.22)
(-12041.3 27597 7690.46)
(-14400.6 26442.5 7690.22)
(-16650.4 25086.8 7690.43)
(-18773.5 23540.1 7690.24)
(-20753.8 21814.3 7690.43)
(-22576 19922.5 7690.24)
(-24226.6 17879.1 7690.57)
(-25692.4 15699.6 7690.1)
(-26963.2 13400.6 7690.47)
(-28028.4 10999.6 7690.23)
(-28880.5 8514.84 7690.45)
(-29512.5 5965.39 7690.27)
(-29920.3 3370.48 7690.45)
(-30100.2 749.95 7690.2)
(-30051.1 -1876.41 7690.47)
(-29773.1 -4488.35 7690.2)
(-29268.7 -7066.27 7690.5)
(-28541.3 -9590.18 7690.22)
(-27597 -12041.3 7690.46)
(-26442.5 -14400.6 7690.22)
(-25086.8 -16650.4 7690.43)
(-23540.1 -18773.5 7690.24)
(-21814.3 -20753.8 7690.42)
(-19922.5 -22576 7690.24)
(-17879.1 -24226.6 7690.57)
(-15699.6 -25692.4 7690.1)
(-13400.6 -26963.2 7690.46)
(-10999.6 -28028.4 7690.23)
(-8514.84 -28880.5 7690.45)
(-5965.39 -29512.5 7690.27)
(-3370.48 -29920.3 7690.45)
(-749.95 -30100.2 7690.2)
(1876.41 -30051.1 7690.47)
(4488.35 -29773.1 7690.2)
(7066.27 -29268.7 7690.5)
(9590.18 -28541.3 7690.22)
(12041.3 -27597 7690.46)
(14400.6 -26442.5 7690.22)
(16650.4 -25086.8 7690.43)
(18773.5 -23540.1 7690.24)
(20753.8 -21814.3 7690.42)
(22576 -19922.5 7690.24)
(24226.6 -17879.1 7690.57)
(25692.4 -15699.6 7690.1)
(26963.2 -13400.6 7690.46)
(28028.4 -10999.6 7690.23)
(28880.5 -8514.84 7690.45)
(29512.5 -5965.39 7690.27)
(29920.3 -3370.48 7690.45)
(30100.2 -749.95 7690.19)
(30051.1 1876.41 7690.47)
(29773.1 4488.35 7690.2)
(29268.7 7066.27 7690.5)
(28541.3 9590.18 7690.22)
(27597 12041.3 7690.46)
(26442.5 14400.6 7690.22)
(25086.8 16650.4 7690.43)
(23540.1 18773.5 7690.24)
(21814.3 20753.8 7690.43)
(19922.5 22576 7690.24)
(17879.1 24226.6 7690.57)
(15300.5 23546.8 7896.58)
(13190 24790.8 7896.91)
(10979.2 25846 7896.69)
(8684.76 26704.6 7896.89)
(6324.24 27359.7 7896.66)
(3915.54 27807 7896.87)
(1477.26 28042.4 7896.64)
(-972.484 28064.6 7896.83)
(-3414.74 27872.9 7896.59)
(-5831.2 27469.3 7896.96)
(-8202.98 26856.5 7896.7)
(-10512.5 26039.3 7896.86)
(-12742 25024 7896.64)
(-14874.5 23818.2 7896.92)
(-16893.6 22431.2 7896.65)
(-18784.5 20873.6 7896.84)
(-20532.2 19156.9 7896.64)
(-22123.8 17294.5 7896.97)
(-23546.8 15300.5 7896.58)
(-24790.8 13190 7896.91)
(-25846 10979.2 7896.69)
(-26704.6 8684.76 7896.89)
(-27359.7 6324.24 7896.66)
(-27807 3915.54 7896.87)
(-28042.4 1477.26 7896.64)
(-28064.6 -972.483 7896.83)
(-27872.9 -3414.74 7896.59)
(-27469.3 -5831.2 7896.96)
(-26856.5 -8202.98 7896.7)
(-26039.3 -10512.5 7896.86)
(-25024 -12742 7896.64)
(-23818.2 -14874.5 7896.92)
(-22431.2 -16893.6 7896.65)
(-20873.6 -18784.5 7896.83)
(-19156.9 -20532.2 7896.64)
(-17294.5 -22123.8 7896.97)
(-15300.5 -23546.8 7896.58)
(-13190 -24790.8 7896.91)
(-10979.2 -25846 7896.69)
(-8684.76 -26704.6 7896.89)
(-6324.24 -27359.7 7896.66)
(-3915.54 -27807 7896.87)
(-1477.26 -28042.4 7896.64)
(972.483 -28064.6 7896.83)
(3414.74 -27872.9 7896.59)
(5831.2 -27469.3 7896.96)
(8202.98 -26856.5 7896.7)
(10512.5 -26039.3 7896.86)
(12742 -25024 7896.64)
(14874.5 -23818.2 7896.92)
(16893.6 -22431.2 7896.65)
(18784.5 -20873.6 7896.83)
(20532.2 -19156.9 7896.64)
(22123.8 -17294.5 7896.97)
(23546.8 -15300.5 7896.58)
(24790.8 -13190 7896.91)
(25846 -10979.2 7896.69)
(26704.6 -8684.76 7896.89)
(27359.7 -6324.24 7896.66)
(27807 -3915.54 7896.87)
(28042.4 -1477.26 7896.64)
(28064.6 972.483 7896.83)
(27872.9 3414.74 7896.58)
(27469.3 5831.2 7896.96)
(26856.5 8202.98 7896.7)
(26039.3 10512.5 7896.86)
(25024 12742 7896.64)
(23818.2 14874.5 7896.92)
(22431.2 16893.6 7896.65)
(20873.6 18784.5 7896.83)
(19156.9 20532.2 7896.64)
(17294.5 22123.8 7896.97)
(13880.6 16128.6 7023.65)
(12422.2 17277.2 7023.88)
(10869.1 18294.1 7023.68)
(9233.27 19171.8 7023.87)
(7527.23 19903.5 7023.68)
(5763.86 20484 7023.93)
(3956.66 20908.2 7023.65)
(2119.25 21173.6 7023.85)
(265.877 21277.7 7023.63)
(-1589.63 21220 7023.85)
(-3433.04 21000.6 7023.71)
(-5250.33 20621.5 7023.87)
(-7027.56 20085.4 7023.61)
(-8751.37 19396.4 7023.88)
(-10408.7 18559.9 7023.71)
(-11986.6 17582.1 7023.85)
(-13473.2 16470.5 7023.62)
(-14857.5 15233.5 7023.93)
(-16128.6 13880.6 7023.65)
(-17277.2 12422.2 7023.88)
(-18294.1 10869.1 7023.68)
(-19171.8 9233.27 7023.87)
(-19903.5 7527.23 7023.68)
(-20484 5763.86 7023.93)
(-20908.2 3956.66 7023.65)
(-21173.6 2119.25 7023.85)
(-21277.7 265.877 7023.63)
(-21220 -1589.63 7023.85)
(-21000.6 -3433.04 7023.71)
(-20621.5 -5250.33 7023.87)
(-20085.4 -7027.56 7023.61)
(-19396.4 -8751.37 7023.88)
(-18559.9 -10408.7 7023.71)
(-17582.1 -11986.6 7023.85)
(-16470.5 -13473.2 7023.62)
(-15233.5 -14857.5 7023.93)
(-13880.6 -16128.6 7023.65)
(-12422.2 -17277.2 7023.88)
(-10869.1 -18294.1 7023.68)
(-9233.27 -19171.7 7023.87)
(-7527.23 -19903.5 7023.68)
(-5763.86 -20484 7023.93)
(-3956.66 -20908.2 7023.65)
(-2119.25 -21173.6 7023.85)
(-265.877 -21277.7 7023.63)
(1589.63 -21220 7023.85)
(3433.04 -21000.6 7023.71)
(5250.33 -20621.5 7023.87)
(7027.56 -20085.4 7023.61)
(8751.37 -19396.4 7023.88)
(10408.7 -18559.9 7023.71)
(11986.6 -17582.1 7023.85)
(13473.2 -16470.5 7023.62)
(14857.5 -15233.5 7023.93)
(16128.6 -13880.6 7023.65)
(17277.2 -12422.2 7023.88)
(18294.1 -10869.1 7023.68)
(19171.8 -9233.27 7023.87)
(19903.5 -7527.23 7023.68)
(20484 -5763.86 7023.93)
(20908.2 -3956.66 7023.65)
(21173.6 -2119.25 7023.85)
(21277.7 -265.878 7023.63)
(21220 1589.63 7023.84)
(21000.6 3433.04 7023.71)
(20621.5 5250.33 7023.87)
(20085.4 7027.56 7023.61)
(19396.4 8751.37 7023.88)
(18559.9 10408.7 7023.71)
(17582.1 11986.6 7023.85)
(16470.5 13473.2 7023.62)
(15233.5 14857.5 7023.93)
(12861.5 4103.85 6365.53)
(12454.9 5209.22 6365.57)
(11953.4 6274.89 6365.47)
(11361.2 7292.79 6365.64)
(10682.2 8255.54 6365.46)
(9922.12 9154.99 6365.56)
(9086.43 9984.91 6365.58)