/*--------------------------------*- C++ -*----------------------------------*\
| =========                 |                                                 |
| \\      /  F ield         | OpenFOAM: The Open Source CFD Toolbox           |
|  \\    /   O peration     | Version:  2312                                  |
|   \\  /    A nd           | Website:  www.openfoam.com                      |
|    \\/     M anipulation  |                                                 |
\*---------------------------------------------------------------------------*/
FoamFile
{
    version     2.0;
    format      ascii;
    arch        "LSB;label=32;scalar=64";
    class       volVectorField;
    location    "0";
    object      f0;
}
// * * * * * * * * * * * * * * * * * * * * * * * * * * * * * * * * * * * * * //

dimensions      [0 0 0 0 0 0 0];

internalField   nonuniform List<vector> 
1620
(
(0.681855 0.722456 0.114589)
(0.681855 0.691582 0.238302)
(0.681856 0.639694 0.354773)
(0.681855 0.568371 0.460465)
(0.681855 0.479777 0.552166)
(0.681855 0.376605 0.62709)
(0.681856 0.261991 0.682959)
(0.681855 0.139416 0.718079)
(0.681855 0.012605 0.731379)
(0.681855 -0.114589 0.722456)
(0.681855 -0.238302 0.691582)
(0.681856 -0.354773 0.639694)
(0.681855 -0.460465 0.568371)
(0.681855 -0.552166 0.479777)
(0.681855 -0.62709 0.376605)
(0.681856 -0.682959 0.261991)
(0.681855 -0.718079 0.139416)
(0.681855 -0.731379 0.012605)
(0.681855 -0.722456 -0.114589)
(0.681855 -0.691582 -0.238302)
(0.681856 -0.639694 -0.354773)
(0.681855 -0.568371 -0.460465)
(0.681855 -0.479777 -0.552166)
(0.681855 -0.376605 -0.62709)
(0.681856 -0.261991 -0.682959)
(0.681855 -0.139416 -0.718079)
(0.681855 -0.012605 -0.731379)
(0.681855 0.114589 -0.722456)
(0.681855 0.238302 -0.691582)
(0.681856 0.354773 -0.639694)
(0.681855 0.460465 -0.568371)
(0.681855 0.552166 -0.479777)
(0.681855 0.62709 -0.376605)
(0.681856 0.682959 -0.261991)
(0.681855 0.718079 -0.139416)
(0.681855 0.731379 -0.012605)
(0.0972977 0.990829 0.0937575)
(0.0972973 0.959496 0.264389)
(0.0972985 0.899008 0.426987)
(0.0972989 0.811205 0.576611)
(0.097299 0.698753 0.708715)
(0.0972989 0.56507 0.819286)
(0.0972985 0.414218 0.904962)
(0.0972973 0.25078 0.963142)
(0.0972977 0.0797223 0.992057)
(0.0972977 -0.0937575 0.990829)
(0.0972973 -0.264389 0.959496)
(0.0972985 -0.426987 0.899008)
(0.0972989 -0.576611 0.811205)
(0.097299 -0.708715 0.698753)
(0.0972989 -0.819286 0.56507)
(0.0972985 -0.904962 0.414218)
(0.0972973 -0.963142 0.25078)
(0.0972977 -0.992057 0.0797223)
(0.0972977 -0.990829 -0.0937575)
(0.0972973 -0.959496 -0.264389)
(0.0972985 -0.899008 -0.426987)
(0.0972989 -0.811205 -0.576611)
(0.097299 -0.698753 -0.708715)
(0.0972989 -0.56507 -0.819286)
(0.0972985 -0.414218 -0.904962)
(0.0972973 -0.25078 -0.963142)
(0.0972977 -0.0797223 -0.992057)
(0.0972977 0.0937575 -0.990829)
(0.0972973 0.264389 -0.959496)
(0.0972985 0.426987 -0.899008)
(0.0972989 0.576611 -0.811205)
(0.097299 0.708715 -0.698753)
(0.0972989 0.819286 -0.56507)
(0.0972985 0.904962 -0.414218)
(0.0972973 0.963142 -0.25078)
(0.0972977 0.992057 -0.0797223)
(-0.586714 0.809212 0.0306993)
(-0.586714 0.791588 0.170751)
(-0.586714 0.749911 0.305615)
(-0.586714 0.685449 0.431193)
(-0.586712 0.60016 0.54367)
(-0.586714 0.496635 0.639626)
(-0.586714 0.37802 0.716148)
(-0.586714 0.247919 0.770911)
(-0.586714 0.110285 0.802249)
(-0.586714 -0.0306993 0.809212)
(-0.586714 -0.170751 0.791588)
(-0.586714 -0.305615 0.749911)
(-0.586714 -0.431193 0.685449)
(-0.586712 -0.54367 0.60016)
(-0.586714 -0.639626 0.496635)
(-0.586714 -0.716148 0.37802)
(-0.586714 -0.770911 0.247919)
(-0.586714 -0.802249 0.110285)
(-0.586714 -0.809212 -0.0306993)
(-0.586714 -0.791588 -0.170751)
(-0.586714 -0.749911 -0.305615)
(-0.586714 -0.685449 -0.431193)
(-0.586712 -0.60016 -0.54367)
(-0.586714 -0.496635 -0.639626)
(-0.586714 -0.37802 -0.716148)
(-0.586714 -0.247919 -0.770911)
(-0.586714 -0.110285 -0.802249)
(-0.586714 0.0306993 -0.809212)
(-0.586714 0.170751 -0.791588)
(-0.586714 0.305615 -0.749911)
(-0.586714 0.431193 -0.685449)
(-0.586712 0.54367 -0.60016)
(-0.586714 0.639626 -0.496635)
(-0.586714 0.716148 -0.37802)
(-0.586714 0.770911 -0.247919)
(-0.586714 0.802249 -0.110285)
(0.691248 0.717069 0.089374)
(0.691248 0.690656 0.212534)
(0.691249 0.643257 0.329236)
(0.691248 0.576313 0.435935)
(0.691248 0.491859 0.529388)
(0.691248 0.392459 0.606755)
(0.691249 0.281134 0.665687)
(0.691248 0.161268 0.704393)
(0.691248 0.0365017 0.721695)
(0.691248 -0.089374 0.717069)
(0.691248 -0.212534 0.690656)
(0.691249 -0.329236 0.643257)
(0.691248 -0.435935 0.576313)
(0.691248 -0.529388 0.491859)
(0.691248 -0.606755 0.392459)
(0.691249 -0.665687 0.281134)
(0.691248 -0.704393 0.161268)
(0.691248 -0.721695 0.0365017)
(0.691248 -0.717069 -0.089374)
(0.691248 -0.690656 -0.212534)
(0.691249 -0.643257 -0.329236)
(0.691248 -0.576313 -0.435935)
(0.691248 -0.491859 -0.529388)
(0.691248 -0.392459 -0.606755)
(0.691249 -0.281134 -0.665687)
(0.691248 -0.161268 -0.704393)
(0.691248 -0.0365017 -0.721695)
(0.691248 0.089374 -0.717069)
(0.691248 0.212534 -0.690656)
(0.691249 0.329236 -0.643257)
(0.691248 0.435935 -0.576313)
(0.691248 0.529388 -0.491859)
(0.691248 0.606755 -0.392459)
(0.691249 0.665687 -0.281134)
(0.691248 0.704393 -0.161268)
(0.691248 0.721695 -0.0365017)
(0.116483 0.989027 0.090869)
(0.116483 0.958222 0.261231)
(0.116484 0.898302 0.423656)
(0.116484 0.811088 0.573208)
(0.116483 0.699229 0.705344)
(0.116484 0.566124 0.816048)
(0.116484 0.415819 0.901957)
(0.116483 0.252878 0.96046)
(0.116483 0.0822542 0.989781)
(0.116483 -0.090869 0.989027)
(0.116483 -0.261231 0.958222)
(0.116484 -0.423656 0.898302)
(0.116484 -0.573208 0.811088)
(0.116483 -0.705344 0.699229)
(0.116484 -0.816048 0.566124)
(0.116484 -0.901957 0.415819)
(0.116483 -0.96046 0.252878)
(0.116483 -0.989781 0.0822542)
(0.116483 -0.989027 -0.090869)
(0.116483 -0.958222 -0.261231)
(0.116484 -0.898302 -0.423656)
(0.116484 -0.811088 -0.573208)
(0.116483 -0.699229 -0.705344)
(0.116484 -0.566124 -0.816048)
(0.116484 -0.415819 -0.901957)
(0.116483 -0.252878 -0.96046)
(0.116483 -0.0822542 -0.989781)
(0.116483 0.090869 -0.989027)
(0.116483 0.261231 -0.958222)
(0.116484 0.423656 -0.898302)
(0.116484 0.573208 -0.811088)
(0.116483 0.705344 -0.699229)
(0.116484 0.816048 -0.566124)
(0.116484 0.901957 -0.415819)
(0.116483 0.96046 -0.252878)
(0.116483 0.989781 -0.0822542)
(-0.576621 0.81541 0.0511291)
(-0.576621 0.794144 0.191947)
(-0.576621 0.748748 0.326932)
(-0.576622 0.680601 0.451984)
(-0.576621 0.591775 0.563303)
(-0.576622 0.484968 0.657505)
(-0.576621 0.363426 0.731731)
(-0.576621 0.230841 0.783722)
(-0.576621 0.0912423 0.811901)
(-0.576621 -0.0511291 0.81541)
(-0.576621 -0.191947 0.794144)
(-0.576621 -0.326932 0.748748)
(-0.576622 -0.451984 0.680601)
(-0.576621 -0.563303 0.591775)
(-0.576622 -0.657505 0.484968)
(-0.576621 -0.731731 0.363426)
(-0.576621 -0.783722 0.230841)
(-0.576621 -0.811901 0.0912423)
(-0.576621 -0.81541 -0.0511291)
(-0.576621 -0.794144 -0.191947)
(-0.576621 -0.748748 -0.326932)
(-0.576622 -0.680601 -0.451984)
(-0.576621 -0.591775 -0.563303)
(-0.576622 -0.484968 -0.657505)
(-0.576621 -0.363426 -0.731731)
(-0.576621 -0.230841 -0.783722)
(-0.576621 -0.0912423 -0.811901)
(-0.576621 0.0511291 -0.81541)
(-0.576621 0.191947 -0.794144)
(-0.576621 0.326932 -0.748748)
(-0.576622 0.451984 -0.680601)
(-0.576621 0.563303 -0.591775)
(-0.576622 0.657505 -0.484968)
(-0.576621 0.731731 -0.363426)
(-0.576621 0.783722 -0.230841)
(-0.576621 0.811901 -0.0912423)
(0.692239 0.718753 0.0648032)
(0.692239 0.69658 0.188629)
(0.69224 0.653242 0.306723)
(0.69224 0.590056 0.415497)
(0.69224 0.508941 0.511647)
(0.69224 0.412363 0.592251)
(0.69224 0.303255 0.654859)
(0.692239 0.184933 0.697571)
(0.692239 0.0609913 0.719086)
(0.692239 -0.0648032 0.718753)
(0.692239 -0.188629 0.69658)
(0.69224 -0.306723 0.653242)
(0.69224 -0.415497 0.590056)
(0.69224 -0.511647 0.508941)
(0.69224 -0.592251 0.412363)
(0.69224 -0.654859 0.303255)
(0.692239 -0.697571 0.184933)
(0.692239 -0.719086 0.0609913)
(0.692239 -0.718753 -0.0648032)
(0.692239 -0.69658 -0.188629)
(0.69224 -0.653242 -0.306723)
(0.69224 -0.590056 -0.415497)
(0.69224 -0.508941 -0.511647)
(0.69224 -0.412363 -0.592251)
(0.69224 -0.303255 -0.654859)
(0.692239 -0.184933 -0.697571)
(0.692239 -0.0609913 -0.719086)
(0.692239 0.0648032 -0.718753)
(0.692239 0.188629 -0.69658)
(0.69224 0.306723 -0.653242)
(0.69224 0.415497 -0.590056)
(0.69224 0.511647 -0.508941)
(0.69224 0.592251 -0.412363)
(0.69224 0.654859 -0.303255)
(0.692239 0.697571 -0.184933)
(0.692239 0.719086 -0.0609913)
(0.117454 0.989268 0.0869145)
(0.117454 0.959146 0.257378)
(0.117455 0.899881 0.420022)
(0.117455 0.813274 0.569904)
(0.117454 0.701955 0.702469)
(0.117455 0.569308 0.81369)
(0.117455 0.419364 0.900188)
(0.117454 0.256676 0.959334)
(0.117454 0.0861906 0.989331)
(0.117454 -0.0869145 0.989268)
(0.117454 -0.257378 0.959146)
(0.117455 -0.420022 0.899881)
(0.117455 -0.569904 0.813274)
(0.117454 -0.702469 0.701955)
(0.117455 -0.81369 0.569308)
(0.117455 -0.900188 0.419364)
(0.117454 -0.959334 0.256676)
(0.117454 -0.989331 0.0861906)
(0.117454 -0.989268 -0.0869145)
(0.117454 -0.959146 -0.257378)
(0.117455 -0.899881 -0.420022)
(0.117455 -0.813274 -0.569904)
(0.117454 -0.701955 -0.702469)
(0.117455 -0.569308 -0.81369)
(0.117455 -0.419364 -0.900188)
(0.117454 -0.256676 -0.959334)
(0.117454 -0.0861906 -0.989331)
(0.117454 0.0869145 -0.989268)
(0.117454 0.257378 -0.959146)
(0.117455 0.420022 -0.899881)
(0.117455 0.569904 -0.813274)
(0.117454 0.702469 -0.701955)
(0.117455 0.81369 -0.569308)
(0.117455 0.900188 -0.419364)
(0.117454 0.959334 -0.256676)
(0.117454 0.989331 -0.0861906)
(-0.576432 0.814204 0.0692688)
(-0.576432 0.789806 0.209601)
(-0.576432 0.74141 0.343565)
(-0.576432 0.670487 0.46709)
(-0.576432 0.579191 0.576423)
(-0.576432 0.470297 0.668241)
(-0.576432 0.347113 0.739756)
(-0.576432 0.213383 0.788793)
(-0.576432 0.0731688 0.813863)
(-0.576432 -0.0692688 0.814204)
(-0.576432 -0.209601 0.789806)
(-0.576432 -0.343565 0.74141)
(-0.576432 -0.46709 0.670487)
(-0.576432 -0.576423 0.579191)
(-0.576432 -0.668241 0.470297)
(-0.576432 -0.739756 0.347113)
(-0.576432 -0.788793 0.213383)
(-0.576432 -0.813863 0.0731688)
(-0.576432 -0.814204 -0.0692688)
(-0.576432 -0.789806 -0.209601)
(-0.576432 -0.74141 -0.343565)
(-0.576432 -0.670487 -0.46709)
(-0.576432 -0.579191 -0.576423)
(-0.576432 -0.470297 -0.668241)
(-0.576432 -0.347113 -0.739756)
(-0.576432 -0.213383 -0.788793)
(-0.576432 -0.0731688 -0.813863)
(-0.576432 0.0692688 -0.814204)
(-0.576432 0.209601 -0.789806)
(-0.576432 0.343565 -0.74141)
(-0.576432 0.46709 -0.670487)
(-0.576432 0.576423 -0.579191)
(-0.576432 0.668241 -0.470297)
(-0.576432 0.739756 -0.347113)
(-0.576432 0.788793 -0.213383)
(-0.576432 0.813863 -0.0731688)
(0.692168 0.720607 0.0403605)
(0.692168 0.702651 0.164879)
(0.692168 0.663345 0.284389)
(0.692168 0.603884 0.395257)
(0.692168 0.526074 0.494115)
(0.692168 0.432279 0.57796)
(0.692168 0.32535 0.644244)
(0.692168 0.208536 0.690953)
(0.692168 0.0853847 0.716668)
(0.692168 -0.0403605 0.720607)
(0.692168 -0.164879 0.702651)
(0.692168 -0.284389 0.663345)
(0.692168 -0.395257 0.603884)
(0.692168 -0.494115 0.526074)
(0.692168 -0.57796 0.432279)
(0.692168 -0.644244 0.32535)
(0.692168 -0.690953 0.208536)
(0.692168 -0.716668 0.0853847)
(0.692168 -0.720607 -0.0403605)
(0.692168 -0.702651 -0.164879)
(0.692168 -0.663345 -0.284389)
(0.692168 -0.603884 -0.395257)
(0.692168 -0.526074 -0.494115)
(0.692168 -0.432279 -0.57796)
(0.692168 -0.32535 -0.644244)
(0.692168 -0.208536 -0.690953)
(0.692168 -0.0853847 -0.716668)
(0.692168 0.0403605 -0.720607)
(0.692168 0.164879 -0.702651)
(0.692168 0.284389 -0.663345)
(0.692168 0.395257 -0.603884)
(0.692168 0.494115 -0.526074)
(0.692168 0.57796 -0.432279)
(0.692168 0.644244 -0.32535)
(0.692168 0.690953 -0.208536)
(0.692168 0.716668 -0.0853847)
(0.117578 0.98959 0.0829864)
(0.117579 0.960146 0.253566)
(0.117579 0.901527 0.416441)
(0.117579 0.815517 0.566663)
(0.117579 0.704727 0.699667)
(0.117579 0.572525 0.811413)
(0.117579 0.422927 0.898503)
(0.117579 0.260478 0.958293)
(0.117578 0.0901149 0.988966)
(0.117578 -0.0829864 0.98959)
(0.117579 -0.253566 0.960146)
(0.117579 -0.416441 0.901527)
(0.117579 -0.566663 0.815517)
(0.117579 -0.699667 0.704727)
(0.117579 -0.811413 0.572525)
(0.117579 -0.898503 0.422927)
(0.117579 -0.958293 0.260478)
(0.117578 -0.988966 0.0901149)
(0.117578 -0.98959 -0.0829864)
(0.117579 -0.960146 -0.253566)
(0.117579 -0.901527 -0.416441)
(0.117579 -0.815517 -0.566663)
(0.117579 -0.704727 -0.699667)
(0.117579 -0.572525 -0.811413)
(0.117579 -0.422927 -0.898503)
(0.117579 -0.260478 -0.958293)
(0.117578 -0.0901149 -0.988966)
(0.117578 0.0829864 -0.98959)
(0.117579 0.253566 -0.960146)
(0.117579 0.416441 -0.901527)
(0.117579 0.566663 -0.815517)
(0.117579 0.699667 -0.704727)
(0.117579 0.811413 -0.572525)
(0.117579 0.898503 -0.422927)
(0.117579 0.958293 -0.260478)
(0.117578 0.988966 -0.0901149)
(-0.575983 0.812826 0.0869319)
(-0.575983 0.785382 0.226757)
(-0.575983 0.734074 0.359692)
(-0.575983 0.660462 0.481698)
(-0.575983 0.566782 0.589069)
(-0.575983 0.455881 0.67854)
(-0.575983 0.331128 0.747394)
(-0.575983 0.196314 0.793539)
(-0.575983 0.0555346 0.815573)
(-0.575983 -0.0869319 0.812826)
(-0.575983 -0.226757 0.785382)
(-0.575983 -0.359692 0.734074)
(-0.575983 -0.481698 0.660462)
(-0.575983 -0.589069 0.566782)
(-0.575983 -0.67854 0.455881)
(-0.575983 -0.747394 0.331128)
(-0.575983 -0.793539 0.196314)
(-0.575983 -0.815573 0.0555346)
(-0.575983 -0.812826 -0.0869319)
(-0.575983 -0.785382 -0.226757)
(-0.575983 -0.734074 -0.359692)
(-0.575983 -0.660462 -0.481698)
(-0.575983 -0.566782 -0.589069)
(-0.575983 -0.455881 -0.67854)
(-0.575983 -0.331128 -0.747394)
(-0.575983 -0.196314 -0.793539)
(-0.575983 -0.0555346 -0.815573)
(-0.575983 0.0869319 -0.812826)
(-0.575983 0.226757 -0.785382)
(-0.575983 0.359692 -0.734074)
(-0.575983 0.481698 -0.660462)
(-0.575983 0.589069 -0.566782)
(-0.575983 0.67854 -0.455881)
(-0.575983 0.747394 -0.331128)
(-0.575983 0.793539 -0.196314)
(-0.575983 0.815573 -0.0555346)
(0.691614 0.722104 0.0153924)
(0.691614 0.70846 0.14055)
(0.691614 0.673291 0.261438)
(0.691614 0.617664 0.374382)
(0.691614 0.54327 0.475951)
(0.691614 0.452368 0.563057)
(0.691614 0.347722 0.633056)
(0.691614 0.23251 0.683819)
(0.691614 0.110234 0.713806)
(0.691614 -0.0153924 0.722104)
(0.691614 -0.14055 0.70846)
(0.691614 -0.261438 0.673291)
(0.691614 -0.374382 0.617664)
(0.691614 -0.475951 0.54327)
(0.691614 -0.563057 0.452368)
(0.691614 -0.633056 0.347722)
(0.691614 -0.683819 0.23251)
(0.691614 -0.713806 0.110234)
(0.691614 -0.722104 -0.0153924)
(0.691614 -0.70846 -0.14055)
(0.691614 -0.673291 -0.261438)
(0.691614 -0.617664 -0.374382)
(0.691614 -0.54327 -0.475951)
(0.691614 -0.452368 -0.563057)
(0.691614 -0.347722 -0.633056)
(0.691614 -0.23251 -0.683819)
(0.691614 -0.110234 -0.713806)
(0.691614 0.0153924 -0.722104)
(0.691614 0.14055 -0.70846)
(0.691614 0.261438 -0.673291)
(0.691614 0.374382 -0.617664)
(0.691614 0.475951 -0.54327)
(0.691614 0.563057 -0.452368)
(0.691614 0.633056 -0.347722)
(0.691614 0.683819 -0.23251)
(0.691614 0.713806 -0.110234)
(0.118679 0.989792 0.0789178)
(0.11868 0.96105 0.249594)
(0.118679 0.903108 0.412687)
(0.118678 0.817726 0.563241)
(0.118678 0.707497 0.69668)
(0.118678 0.575771 0.808952)
(0.118679 0.426551 0.896643)
(0.11868 0.264371 0.957091)
(0.118679 0.0941568 0.988458)
(0.118679 -0.0789178 0.989792)
(0.11868 -0.249594 0.96105)
(0.118679 -0.412687 0.903108)
(0.118678 -0.563241 0.817726)
(0.118678 -0.69668 0.707497)
(0.118678 -0.808952 0.575771)
(0.118679 -0.896643 0.426551)
(0.11868 -0.957091 0.264371)
(0.118679 -0.988458 0.0941568)
(0.118679 -0.989792 -0.0789178)
(0.11868 -0.96105 -0.249594)
(0.118679 -0.903108 -0.412687)
(0.118678 -0.817726 -0.563241)
(0.118678 -0.707497 -0.69668)
(0.118678 -0.575771 -0.808952)
(0.118679 -0.426551 -0.896643)
(0.11868 -0.264371 -0.957091)
(0.118679 -0.0941568 -0.988458)
(0.118679 0.0789178 -0.989792)
(0.11868 0.249594 -0.96105)
(0.118679 0.412687 -0.903108)
(0.118678 0.563241 -0.817726)
(0.118678 0.69668 -0.707497)
(0.118678 0.808952 -0.575771)
(0.118679 0.896643 -0.426551)
(0.11868 0.957091 -0.264371)
(0.118679 0.988458 -0.0941568)
(-0.574348 0.811892 0.104669)
(-0.574348 0.781382 0.244063)
(-0.574349 0.72713 0.37604)
(-0.574349 0.650784 0.496592)
(-0.574349 0.554665 0.602055)
(-0.574349 0.441693 0.689225)
(-0.574349 0.3153 0.755453)
(-0.574348 0.179327 0.798728)
(-0.574348 0.0379046 0.817733)
(-0.574348 -0.104669 0.811892)
(-0.574348 -0.244063 0.781382)
(-0.574349 -0.37604 0.72713)
(-0.574349 -0.496592 0.650784)
(-0.574349 -0.602055 0.554665)
(-0.574349 -0.689225 0.441693)
(-0.574349 -0.755453 0.3153)
(-0.574348 -0.798728 0.179327)
(-0.574348 -0.817733 0.0379046)
(-0.574348 -0.811892 -0.104669)
(-0.574348 -0.781382 -0.244063)
(-0.574349 -0.72713 -0.37604)
(-0.574349 -0.650784 -0.496592)
(-0.574349 -0.554665 -0.602055)
(-0.574349 -0.441693 -0.689225)
(-0.574349 -0.3153 -0.755453)
(-0.574348 -0.179327 -0.798728)
(-0.574348 -0.0379046 -0.817733)
(-0.574348 0.104669 -0.811892)
(-0.574348 0.244063 -0.781382)
(-0.574349 0.37604 -0.72713)
(-0.574349 0.496592 -0.650784)
(-0.574349 0.602055 -0.554665)
(-0.574349 0.689225 -0.441693)
(-0.574349 0.755453 -0.3153)
(-0.574348 0.798728 -0.179327)
(-0.574348 0.817733 -0.0379046)
(0.690553 0.723201 -0.0108042)
(0.690554 0.71409 0.114942)
(0.690554 0.683281 0.237196)
(0.690554 0.631712 0.352243)
(0.690554 0.560949 0.456588)
(0.690554 0.473141 0.547059)
(0.690554 0.370957 0.620908)
(0.690554 0.257502 0.675891)
(0.690553 0.136223 0.710338)
(0.690553 0.0108042 0.723201)
(0.690554 -0.114942 0.71409)
(0.690554 -0.237196 0.683281)
(0.690554 -0.352243 0.631712)
(0.690554 -0.456588 0.560949)
(0.690554 -0.547059 0.473141)
(0.690554 -0.620908 0.370957)
(0.690554 -0.675891 0.257502)
(0.690553 -0.710338 0.136223)
(0.690553 -0.723201 0.0108042)
(0.690554 -0.71409 -0.114942)
(0.690554 -0.683281 -0.237196)
(0.690554 -0.631712 -0.352243)
(0.690554 -0.560949 -0.456588)
(0.690554 -0.473141 -0.547059)
(0.690554 -0.370957 -0.620908)
(0.690554 -0.257502 -0.675891)
(0.690553 -0.136223 -0.710338)
(0.690553 -0.0108042 -0.723201)
(0.690554 0.114942 -0.71409)
(0.690554 0.237196 -0.683281)
(0.690554 0.352243 -0.631712)
(0.690554 0.456588 -0.560949)
(0.690554 0.547059 -0.473141)
(0.690554 0.620908 -0.370957)
(0.690554 0.675891 -0.257502)
(0.690553 0.710338 -0.136223)
(0.120954 0.989862 0.0744555)
(0.120955 0.961894 0.245212)
(0.120955 0.904701 0.408518)
(0.120954 0.820018 0.559411)
(0.120954 0.710419 0.693307)
(0.120954 0.579235 0.806137)
(0.120955 0.430451 0.894473)
(0.120955 0.268588 0.955631)
(0.120954 0.0985635 0.987753)
(0.120954 -0.0744555 0.989862)
(0.120955 -0.245212 0.961894)
(0.120955 -0.408518 0.904701)
(0.120954 -0.559411 0.820018)
(0.120954 -0.693307 0.710419)
(0.120954 -0.806137 0.579235)
(0.120955 -0.894473 0.430451)
(0.120955 -0.955631 0.268588)
(0.120954 -0.987753 0.0985635)
(0.120954 -0.989862 -0.0744555)
(0.120955 -0.961894 -0.245212)
(0.120955 -0.904701 -0.408518)
(0.120954 -0.820018 -0.559411)
(0.120954 -0.710419 -0.693307)
(0.120954 -0.579235 -0.806137)
(0.120955 -0.430451 -0.894473)
(0.120955 -0.268588 -0.955631)
(0.120954 -0.0985635 -0.987753)
(0.120954 0.0744555 -0.989862)
(0.120955 0.245212 -0.961894)
(0.120955 0.408518 -0.904701)
(0.120954 0.559411 -0.820018)
(0.120954 0.693307 -0.710419)
(0.120954 0.806137 -0.579235)
(0.120955 0.894473 -0.430451)
(0.120955 0.955631 -0.268588)
(0.120954 0.987753 -0.0985635)
(-0.571404 0.811408 0.122941)
(-0.571404 0.777732 0.261972)
(-0.571404 0.720426 0.393044)
(-0.571405 0.641229 0.512173)
(-0.571405 0.54255 0.615741)
(-0.571405 0.427385 0.700599)
(-0.571404 0.299234 0.76417)
(-0.571404 0.161992 0.804522)
(-0.571404 0.0198268 0.820429)
(-0.571404 -0.122941 0.811408)
(-0.571404 -0.261972 0.777732)
(-0.571404 -0.393044 0.720426)
(-0.571405 -0.512173 0.641229)
(-0.571405 -0.615741 0.54255)
(-0.571405 -0.700599 0.427385)
(-0.571404 -0.76417 0.299234)
(-0.571404 -0.804522 0.161992)
(-0.571404 -0.820429 0.0198268)
(-0.571404 -0.811408 -0.122941)
(-0.571404 -0.777732 -0.261972)
(-0.571404 -0.720426 -0.393044)
(-0.571405 -0.641229 -0.512173)
(-0.571405 -0.54255 -0.615741)
(-0.571405 -0.427385 -0.700599)
(-0.571404 -0.299234 -0.76417)
(-0.571404 -0.161992 -0.804522)
(-0.571404 -0.0198268 -0.820429)
(-0.571404 0.122941 -0.811408)
(-0.571404 0.261972 -0.777732)
(-0.571404 0.393044 -0.720426)
(-0.571405 0.512173 -0.641229)
(-0.571405 0.615741 -0.54255)
(-0.571405 0.700599 -0.427385)
(-0.571404 0.76417 -0.299234)
(-0.571404 0.804522 -0.161992)
(-0.571404 0.820429 -0.0198268)
(0.688848 0.723852 -0.0390841)
(0.688848 0.719641 0.087205)
(0.688848 0.693565 0.210845)
(0.688848 0.646416 0.328078)
(0.688849 0.579625 0.435342)
(0.688848 0.495223 0.52938)
(0.688848 0.395774 0.607332)
(0.688848 0.284299 0.66683)
(0.688848 0.164186 0.706068)
(0.688848 0.0390841 0.723852)
(0.688848 -0.087205 0.719641)
(0.688848 -0.210845 0.693565)
(0.688848 -0.328078 0.646416)
(0.688849 -0.435342 0.579625)
(0.688848 -0.52938 0.495223)
(0.688848 -0.607332 0.395774)
(0.688848 -0.66683 0.284299)
(0.688848 -0.706068 0.164186)
(0.688848 -0.723852 0.0390841)
(0.688848 -0.719641 -0.087205)
(0.688848 -0.693565 -0.210845)
(0.688848 -0.646416 -0.328078)
(0.688849 -0.579625 -0.435342)
(0.688848 -0.495223 -0.52938)
(0.688848 -0.395774 -0.607332)
(0.688848 -0.284299 -0.66683)
(0.688848 -0.164186 -0.706068)
(0.688848 -0.0390841 -0.723852)
(0.688848 0.087205 -0.719641)
(0.688848 0.210845 -0.693565)
(0.688848 0.328078 -0.646416)
(0.688849 0.435342 -0.579625)
(0.688848 0.52938 -0.495223)
(0.688848 0.607332 -0.395774)
(0.688848 0.66683 -0.284299)
(0.688848 0.706068 -0.164186)
(0.124565 0.98979 0.0692767)
(0.124566 0.962723 0.240099)
(0.124565 0.906404 0.403627)
(0.124566 0.822545 0.554891)
(0.124567 0.713693 0.689293)
(0.124566 0.583156 0.802753)
(0.124565 0.4349 0.891822)
(0.124566 0.27343 0.953792)
(0.124565 0.103651 0.986783)
(0.124565 -0.0692767 0.98979)
(0.124566 -0.240099 0.962723)
(0.124565 -0.403627 0.906404)
(0.124566 -0.554891 0.822545)
(0.124567 -0.689293 0.713693)
(0.124566 -0.802753 0.583156)
(0.124565 -0.891822 0.4349)
(0.124566 -0.953792 0.27343)
(0.124565 -0.986783 0.103651)
(0.124565 -0.98979 -0.0692767)
(0.124566 -0.962723 -0.240099)
(0.124565 -0.906404 -0.403627)
(0.124566 -0.822545 -0.554891)
(0.124567 -0.713693 -0.689293)
(0.124566 -0.583156 -0.802753)
(0.124565 -0.4349 -0.891822)
(0.124566 -0.27343 -0.953792)
(0.124565 -0.103651 -0.986783)
(0.124565 0.0692767 -0.98979)
(0.124566 0.240099 -0.962723)
(0.124565 0.403627 -0.906404)
(0.124566 0.554891 -0.822545)
(0.124567 0.689293 -0.713693)
(0.124566 0.802753 -0.583156)
(0.124565 0.891822 -0.4349)
(0.124566 0.953792 -0.27343)
(0.124565 0.986783 -0.103651)
(-0.566963 0.811367 0.142258)
(-0.566962 0.774338 0.280989)
(-0.566962 0.71378 0.411183)
(-0.566962 0.631535 0.528883)
(-0.566962 0.530102 0.630513)
(-0.566962 0.412561 0.712985)
(-0.566962 0.282485 0.773793)
(-0.566962 0.143825 0.811091)
(-0.566963 0.000795713 0.823743)
(-0.566963 -0.142258 0.811367)
(-0.566962 -0.280989 0.774338)
(-0.566962 -0.411183 0.71378)
(-0.566962 -0.528883 0.631535)
(-0.566962 -0.630513 0.530102)
(-0.566962 -0.712985 0.412561)
(-0.566962 -0.773793 0.282485)
(-0.566962 -0.811091 0.143825)
(-0.566963 -0.823743 0.000795713)
(-0.566963 -0.811367 -0.142258)
(-0.566962 -0.774338 -0.280989)
(-0.566962 -0.71378 -0.411183)
(-0.566962 -0.631535 -0.528883)
(-0.566962 -0.530102 -0.630513)
(-0.566962 -0.412561 -0.712985)
(-0.566962 -0.282485 -0.773793)
(-0.566962 -0.143825 -0.811091)
(-0.566963 -0.000795713 -0.823743)
(-0.566963 0.142258 -0.811367)
(-0.566962 0.280989 -0.774338)
(-0.566962 0.411183 -0.71378)
(-0.566962 0.528883 -0.631535)
(-0.566962 0.630513 -0.530102)
(-0.566962 0.712985 -0.412561)
(-0.566962 0.773793 -0.282485)
(-0.566962 0.811091 -0.143825)
(-0.566963 0.823743 -0.000795713)
(0.686306 0.723876 -0.0706208)
(0.686307 0.725142 0.0561518)
(0.686307 0.704374 0.181218)
(0.686307 0.662205 0.300778)
(0.686307 0.599915 0.411199)
(0.686307 0.519397 0.509126)
(0.686307 0.423097 0.591584)
(0.686307 0.313942 0.656067)
(0.686306 0.195247 0.700615)
(0.686306 0.0706208 0.723876)
(0.686307 -0.0561518 0.725142)
(0.686307 -0.181218 0.704374)
(0.686307 -0.300778 0.662205)
(0.686307 -0.411199 0.599915)
(0.686307 -0.509126 0.519397)
(0.686307 -0.591584 0.423097)
(0.686307 -0.656067 0.313942)
(0.686306 -0.700615 0.195247)
(0.686306 -0.723876 0.0706208)
(0.686307 -0.725142 -0.0561518)
(0.686307 -0.704374 -0.181218)
(0.686307 -0.662205 -0.300778)
(0.686307 -0.599915 -0.411199)
(0.686307 -0.519397 -0.509126)
(0.686307 -0.423097 -0.591584)
(0.686307 -0.313942 -0.656067)
(0.686306 -0.195247 -0.700615)
(0.686306 -0.0706208 -0.723876)
(0.686307 0.0561518 -0.725142)
(0.686307 0.181218 -0.704374)
(0.686307 0.300778 -0.662205)
(0.686307 0.411199 -0.599915)
(0.686307 0.509126 -0.519397)
(0.686307 0.591584 -0.423097)
(0.686307 0.656067 -0.313942)
(0.686306 0.700615 -0.195247)
(0.129962 0.989523 0.0628773)
(0.129963 0.963572 0.233751)
(0.129963 0.908342 0.397522)
(0.129964 0.825513 0.549215)
(0.129964 0.717602 0.68422)
(0.129964 0.587887 0.798435)
(0.129963 0.440308 0.888391)
(0.129963 0.279352 0.951353)
(0.129962 0.109907 0.985409)
(0.129962 -0.0628773 0.989523)
(0.129963 -0.233751 0.963572)
(0.129963 -0.397522 0.908342)
(0.129964 -0.549215 0.825513)
(0.129964 -0.68422 0.717602)
(0.129964 -0.798435 0.587887)
(0.129963 -0.888391 0.440308)
(0.129963 -0.951353 0.279352)
(0.129962 -0.985409 0.109907)
(0.129962 -0.989523 -0.0628773)
(0.129963 -0.963572 -0.233751)
(0.129963 -0.908342 -0.397522)
(0.129964 -0.825513 -0.549215)
(0.129964 -0.717602 -0.68422)
(0.129964 -0.587887 -0.798435)
(0.129963 -0.440308 -0.888391)
(0.129963 -0.279352 -0.951353)
(0.129962 -0.109907 -0.985409)
(0.129962 0.0628773 -0.989523)
(0.129963 0.233751 -0.963572)
(0.129963 0.397522 -0.908342)
(0.129964 0.549215 -0.825513)
(0.129964 0.68422 -0.717602)
(0.129964 0.798435 -0.587887)
(0.129963 0.888391 -0.440308)
(0.129963 0.951353 -0.279352)
(0.129962 0.985409 -0.109907)
(-0.560548 0.81187 0.163257)
(-0.560548 0.771187 0.301756)
(-0.560548 0.707072 0.431087)
(-0.560547 0.621472 0.54732)
(-0.560548 0.516989 0.646922)
(-0.560547 0.396799 0.726868)
(-0.560548 0.264551 0.784729)
(-0.560548 0.124265 0.818745)
(-0.560548 -0.0197968 0.827885)
(-0.560548 -0.163257 0.81187)
(-0.560548 -0.301756 0.771187)
(-0.560548 -0.431087 0.707072)
(-0.560547 -0.54732 0.621472)
(-0.560548 -0.646922 0.516989)
(-0.560547 -0.726868 0.396799)
(-0.560548 -0.784729 0.264551)
(-0.560548 -0.818745 0.124265)
(-0.560548 -0.827885 -0.0197968)
(-0.560548 -0.81187 -0.163257)
(-0.560548 -0.771187 -0.301756)
(-0.560548 -0.707072 -0.431087)
(-0.560547 -0.621472 -0.54732)
(-0.560548 -0.516989 -0.646922)
(-0.560547 -0.396799 -0.726868)
(-0.560548 -0.264551 -0.784729)
(-0.560548 -0.124265 -0.818745)
(-0.560548 0.0197968 -0.827885)
(-0.560548 0.163257 -0.81187)
(-0.560548 0.301756 -0.771187)
(-0.560548 0.431087 -0.707072)
(-0.560547 0.54732 -0.621472)
(-0.560548 0.646922 -0.516989)
(-0.560547 0.726868 -0.396799)
(-0.560548 0.784729 -0.264551)
(-0.560548 0.818745 -0.124265)
(-0.560548 0.827885 0.0197968)
(0.682653 0.722837 -0.1072)
(0.682652 0.730471 0.0199481)
(0.682653 0.715909 0.14649)
(0.682653 0.679595 0.26858)
(0.682653 0.622632 0.38251)
(0.682653 0.546751 0.484818)
(0.682653 0.454257 0.572395)
(0.682652 0.34796 0.64258)
(0.682653 0.231091 0.69324)
(0.682653 0.1072 0.722837)
(0.682652 -0.0199481 0.730471)
(0.682653 -0.14649 0.715909)
(0.682653 -0.26858 0.679595)
(0.682653 -0.38251 0.622632)
(0.682653 -0.484818 0.546751)
(0.682653 -0.572395 0.454257)
(0.682652 -0.64258 0.34796)
(0.682653 -0.69324 0.231091)
(0.682653 -0.722837 0.1072)
(0.682652 -0.730471 -0.0199481)
(0.682653 -0.715909 -0.14649)
(0.682653 -0.679595 -0.26858)
(0.682653 -0.622632 -0.38251)
(0.682653 -0.546751 -0.484818)
(0.682653 -0.454257 -0.572395)
(0.682652 -0.34796 -0.64258)
(0.682653 -0.231091 -0.69324)
(0.682653 -0.1072 -0.722837)
(0.682652 0.0199481 -0.730471)
(0.682653 0.14649 -0.715909)
(0.682653 0.26858 -0.679595)
(0.682653 0.38251 -0.622632)
(0.682653 0.484818 -0.546751)
(0.682653 0.572395 -0.454257)
(0.682652 0.64258 -0.34796)
(0.682653 0.69324 -0.231091)
(0.138153 0.98892 0.0543265)
(0.138151 0.964462 0.225226)
(0.138152 0.9107 0.389281)
(0.138154 0.829266 0.541508)
(0.138154 0.722636 0.677282)
(0.138154 0.594049 0.792477)
(0.138152 0.447412 0.883593)
(0.138151 0.28718 0.947862)
(0.138153 0.118223 0.98333)
(0.138153 -0.0543265 0.98892)
(0.138151 -0.225226 0.964462)
(0.138152 -0.389281 0.9107)
(0.138154 -0.541508 0.829266)
(0.138154 -0.677282 0.722636)
(0.138154 -0.792477 0.594049)
(0.138152 -0.883593 0.447412)
(0.138151 -0.947862 0.28718)
(0.138153 -0.98333 0.118223)
(0.138153 -0.98892 -0.0543265)
(0.138151 -0.964462 -0.225226)
(0.138152 -0.9107 -0.389281)
(0.138154 -0.829266 -0.541508)
(0.138154 -0.722636 -0.677282)
(0.138154 -0.594049 -0.792477)
(0.138152 -0.447412 -0.883593)
(0.138151 -0.28718 -0.947862)
(0.138153 -0.118223 -0.98333)
(0.138153 0.0543265 -0.98892)
(0.138151 0.225226 -0.964462)
(0.138152 0.389281 -0.9107)
(0.138154 0.541508 -0.829266)
(0.138154 0.677282 -0.722636)
(0.138154 0.792477 -0.594049)
(0.138152 0.883593 -0.447412)
(0.138151 0.947862 -0.28718)
(0.138153 0.98333 -0.118223)
(-0.551173 0.81322 0.186767)
(-0.551174 0.768433 0.325144)
(-0.551174 0.700298 0.453641)
(-0.551173 0.610885 0.568355)
(-0.551172 0.502911 0.6658)
(-0.551173 0.379656 0.743014)
(-0.551174 0.244864 0.797652)
(-0.551174 0.102633 0.828054)
(-0.551173 -0.042716 0.833297)
(-0.551173 -0.186767 0.81322)
(-0.551174 -0.325144 0.768433)
(-0.551174 -0.453641 0.700298)
(-0.551173 -0.568355 0.610885)
(-0.551172 -0.6658 0.502911)
(-0.551173 -0.743014 0.379656)
(-0.551174 -0.797652 0.244864)
(-0.551174 -0.828054 0.102633)
(-0.551173 -0.833297 -0.042716)
(-0.551173 -0.81322 -0.186767)
(-0.551174 -0.768433 -0.325144)
(-0.551174 -0.700298 -0.453641)
(-0.551173 -0.610885 -0.568355)
(-0.551172 -0.502911 -0.6658)
(-0.551173 -0.379656 -0.743014)
(-0.551174 -0.244864 -0.797652)