/*--------------------------------*- C++ -*----------------------------------*\
| =========                 |                                                 |
| \\      /  F ield         | OpenFOAM: The Open Source CFD Toolbox           |
|  \\    /   O peration     | Version:  2312                                  |
|   \\  /    A nd           | Website:  www.openfoam.com                      |
|    \\/     M anipulation  |                                                 |
\*---------------------------------------------------------------------------*/
FoamFile
{
    version     2.0;
    format      ascii;
    arch        "LSB;label=32;scalar=64";
    class       volTensorField;
    location    "0.9";
    object      F;
}
// * * * * * * * * * * * * * * * * * * * * * * * * * * * * * * * * * * * * * //

dimensions      [0 0 0 0 0 0 0];

internalField   nonuniform List<tensor> 
1620
(
(0.908708 -0.0303134 0.161578 -0.0838479 0.963819 -0.235762 -0.045384 -0.00397083 1.16889)
(0.929893 -0.0362957 0.200063 -0.0898305 0.942635 -0.204122 -0.0440055 -0.0117913 1.16889)
(0.951846 -0.0346718 0.232469 -0.0882065 0.920682 -0.166281 -0.0412892 -0.0192531 1.16889)
(0.971919 -0.0256371 0.257812 -0.0791716 0.900609 -0.123387 -0.0373182 -0.0261303 1.16889)
(0.987693 -0.0102815 0.275322 -0.0638161 0.884836 -0.076744 -0.0322139 -0.0322141 1.16888)
(0.997263 0.00954228 0.284465 -0.0439921 0.875265 -0.0277692 -0.0261307 -0.0373185 1.16889)
(0.999475 0.0314435 0.284965 -0.0220907 0.873053 0.0220497 -0.0192534 -0.0412887 1.16889)
(0.994063 0.052781 0.276807 -0.000753183 0.878465 0.0711985 -0.011791 -0.0440048 1.16889)
(0.98168 0.070981 0.260238 0.0174466 0.890848 0.118184 -0.00397045 -0.0453839 1.16889)
(0.963819 0.0838479 0.235762 0.0303134 0.908708 0.161578 0.00397083 -0.045384 1.16889)
(0.942635 0.0898305 0.204122 0.0362957 0.929893 0.200063 0.0117913 -0.0440055 1.16889)
(0.920682 0.0882065 0.166281 0.0346718 0.951846 0.232469 0.0192531 -0.0412892 1.16889)
(0.900609 0.0791716 0.123387 0.0256371 0.971919 0.257812 0.0261303 -0.0373182 1.16889)
(0.884836 0.0638161 0.076744 0.0102815 0.987693 0.275322 0.0322141 -0.0322139 1.16888)
(0.875265 0.0439921 0.0277691 -0.00954227 0.997263 0.284465 0.0373185 -0.0261307 1.16889)
(0.873053 0.0220907 -0.0220497 -0.0314435 0.999475 0.284965 0.0412887 -0.0192534 1.16889)
(0.878465 0.000753186 -0.0711985 -0.052781 0.994063 0.276807 0.0440048 -0.011791 1.16889)
(0.890847 -0.0174466 -0.118184 -0.070981 0.98168 0.260238 0.0453839 -0.00397045 1.16889)
(0.908708 -0.0303134 -0.161578 -0.0838479 0.963819 0.235762 0.045384 0.00397083 1.16889)
(0.929893 -0.0362957 -0.200063 -0.0898305 0.942635 0.204122 0.0440055 0.0117913 1.16889)
(0.951845 -0.0346718 -0.232469 -0.0882065 0.920682 0.166281 0.0412892 0.0192531 1.16889)
(0.971919 -0.0256371 -0.257812 -0.0791716 0.900609 0.123387 0.0373182 0.0261303 1.16889)
(0.987693 -0.0102815 -0.275322 -0.0638161 0.884836 0.076744 0.0322139 0.0322141 1.16888)
(0.997263 0.00954227 -0.284465 -0.0439921 0.875265 0.0277691 0.0261307 0.0373185 1.16889)
(0.999475 0.0314435 -0.284965 -0.0220907 0.873053 -0.0220497 0.0192534 0.0412887 1.16889)
(0.994063 0.052781 -0.276807 -0.000753183 0.878465 -0.0711985 0.011791 0.0440048 1.16889)
(0.98168 0.070981 -0.260238 0.0174466 0.890848 -0.118184 0.00397045 0.0453839 1.16889)
(0.963819 0.0838479 -0.235762 0.0303134 0.908708 -0.161578 -0.00397083 0.045384 1.16889)
(0.942635 0.0898305 -0.204122 0.0362957 0.929893 -0.200063 -0.0117913 0.0440055 1.16889)
(0.920682 0.0882065 -0.166281 0.0346718 0.951846 -0.232469 -0.0192531 0.0412892 1.16889)
(0.900609 0.0791716 -0.123387 0.0256371 0.971919 -0.257812 -0.0261303 0.0373182 1.16889)
(0.884836 0.0638161 -0.076744 0.0102815 0.987693 -0.275322 -0.0322141 0.0322139 1.16888)
(0.875265 0.0439921 -0.0277691 -0.00954228 0.997263 -0.284465 -0.0373185 0.0261307 1.16889)
(0.873053 0.0220907 0.0220497 -0.0314435 0.999475 -0.284965 -0.0412887 0.0192534 1.16889)
(0.878465 0.000753176 0.0711985 -0.052781 0.994063 -0.276807 -0.0440048 0.011791 1.16889)
(0.890848 -0.0174466 0.118184 -0.070981 0.98168 -0.260238 -0.0453839 0.00397045 1.16889)
(0.924871 -0.0422268 0.174016 -0.0854893 0.971547 -0.308119 -0.0456051 -0.00398999 1.12609)
(0.948119 -0.0463576 0.224876 -0.0896205 0.948299 -0.27322 -0.0442197 -0.0118487 1.12609)
(0.971378 -0.0422883 0.268904 -0.0855511 0.92504 -0.23002 -0.0414902 -0.0193471 1.12609)
(0.991843 -0.0305093 0.304761 -0.0737717 0.904576 -0.179831 -0.0375001 -0.0262577 1.12609)
(1.00704 -0.012441 0.331359 -0.0557036 0.889374 -0.124178 -0.0323708 -0.0323709 1.12609)
(1.01515 0.00973679 0.347888 -0.0335257 0.881269 -0.0647511 -0.0262579 -0.0375003 1.12609)
(1.01518 0.0333488 0.353847 -0.00991338 0.881238 -0.00335725 -0.0193471 -0.0414899 1.12609)
(1.00713 0.0555479 0.349054 0.0122856 0.889284 0.0581387 -0.0118484 -0.0442191 1.12609)
(0.99198 0.0736561 0.333655 0.0303937 0.904438 0.117868 -0.00398985 -0.045605 1.12609)
(0.971547 0.0854893 0.308119 0.0422268 0.924871 0.174016 0.00398999 -0.0456051 1.12609)
(0.948299 0.0896205 0.27322 0.0463576 0.948119 0.224876 0.0118487 -0.0442197 1.12609)
(0.92504 0.0855511 0.23002 0.0422883 0.971378 0.268904 0.0193471 -0.0414902 1.12609)
(0.904576 0.0737717 0.179831 0.0305093 0.991843 0.304761 0.0262576 -0.0375001 1.12609)
(0.889374 0.0557036 0.124178 0.012441 1.00704 0.331359 0.0323709 -0.0323708 1.12609)
(0.881269 0.0335257 0.0647511 -0.00973678 1.01515 0.347888 0.0375003 -0.0262579 1.12609)
(0.881238 0.00991339 0.00335723 -0.0333488 1.01518 0.353847 0.0414899 -0.0193471 1.12609)
(0.889284 -0.0122856 -0.0581387 -0.0555479 1.00713 0.349054 0.0442191 -0.0118484 1.12609)
(0.904438 -0.0303937 -0.117868 -0.0736561 0.99198 0.333655 0.045605 -0.00398985 1.12609)
(0.924871 -0.0422268 -0.174016 -0.0854893 0.971547 0.308119 0.0456051 0.00398998 1.12609)
(0.948119 -0.0463576 -0.224876 -0.0896205 0.948299 0.27322 0.0442197 0.0118487 1.12609)
(0.971378 -0.0422883 -0.268904 -0.0855511 0.92504 0.23002 0.0414902 0.0193471 1.12609)
(0.991843 -0.0305093 -0.304761 -0.0737717 0.904576 0.179831 0.0375001 0.0262576 1.12609)
(1.00704 -0.012441 -0.331359 -0.0557036 0.889374 0.124178 0.0323708 0.0323708 1.12609)
(1.01515 0.00973678 -0.347888 -0.0335257 0.881269 0.0647511 0.0262579 0.0375003 1.12609)
(1.01518 0.0333488 -0.353847 -0.00991338 0.881238 0.00335722 0.0193471 0.0414899 1.12609)
(1.00713 0.0555479 -0.349054 0.0122856 0.889284 -0.0581387 0.0118484 0.0442191 1.12609)
(0.99198 0.0736561 -0.333655 0.0303937 0.904438 -0.117868 0.00398985 0.045605 1.12609)
(0.971547 0.0854893 -0.308119 0.0422268 0.924871 -0.174016 -0.00398998 0.0456051 1.12609)
(0.948299 0.0896205 -0.27322 0.0463576 0.948119 -0.224876 -0.0118487 0.0442197 1.12609)
(0.92504 0.0855511 -0.23002 0.0422883 0.971378 -0.268904 -0.0193471 0.0414902 1.12609)
(0.904576 0.0737717 -0.179831 0.0305093 0.991843 -0.304761 -0.0262576 0.0375001 1.12609)
(0.889374 0.0557036 -0.124178 0.012441 1.00704 -0.331359 -0.0323708 0.0323708 1.12609)
(0.881269 0.0335257 -0.0647511 -0.00973679 1.01515 -0.347888 -0.0375003 0.0262579 1.12609)
(0.881238 0.00991337 -0.00335724 -0.0333488 1.01518 -0.353847 -0.0414899 0.0193471 1.12609)
(0.889284 -0.0122856 0.0581387 -0.0555479 1.00713 -0.349054 -0.0442191 0.0118484 1.12609)
(0.904438 -0.0303937 0.117868 -0.0736561 0.99198 -0.333655 -0.045605 0.00398985 1.12609)
(0.943167 -0.0577056 0.192954 -0.0857321 0.977167 -0.379857 -0.0454096 -0.00397274 1.08439)
(0.968721 -0.0591948 0.255984 -0.0872214 0.951612 -0.340581 -0.0440301 -0.0117978 1.08439)
(0.993244 -0.0518541 0.311236 -0.0798806 0.92709 -0.290955 -0.0413122 -0.0192643 1.08439)
(1.01378 -0.0365688 0.357031 -0.0645951 0.906556 -0.232489 -0.0373393 -0.0261452 1.08439)
(1.02784 -0.0151826 0.391979 -0.0432087 0.892489 -0.16696 -0.032232 -0.032232 1.08439)
(1.03375 0.00972535 0.415016 -0.0183006 0.886586 -0.0963565 -0.0261453 -0.0373394 1.08439)
(1.03078 0.03515 0.425443 0.00712411 0.889557 -0.0228257 -0.0192641 -0.0413121 1.08439)
(1.01929 0.0580257 0.422943 0.0299996 0.901044 0.0513985 -0.0117976 -0.0440295 1.08439)
(1.00067 0.0755926 0.407593 0.0475664 0.919663 0.124061 -0.00397288 -0.0454095 1.08439)
(0.977167 0.0857321 0.379857 0.0577056 0.943167 0.192954 0.00397274 -0.0454096 1.08439)
(0.951612 0.0872214 0.340581 0.0591948 0.968721 0.255984 0.0117978 -0.0440301 1.08439)
(0.92709 0.0798806 0.290955 0.0518541 0.993244 0.311236 0.0192643 -0.0413122 1.08439)
(0.906556 0.0645951 0.232489 0.0365688 1.01378 0.357031 0.0261452 -0.0373393 1.08439)
(0.892489 0.0432087 0.16696 0.0151826 1.02784 0.391979 0.032232 -0.032232 1.08439)
(0.886585 0.0183006 0.0963564 -0.00972534 1.03375 0.415016 0.0373394 -0.0261453 1.08439)
(0.889557 -0.00712411 0.0228257 -0.03515 1.03078 0.425443 0.0413121 -0.0192641 1.08439)
(0.901044 -0.0299996 -0.0513985 -0.0580257 1.01929 0.422943 0.0440295 -0.0117976 1.08439)
(0.919663 -0.0475664 -0.124061 -0.0755926 1.00067 0.407593 0.0454094 -0.00397288 1.08439)
(0.943167 -0.0577056 -0.192954 -0.0857321 0.977167 0.379857 0.0454096 0.00397274 1.08439)
(0.968721 -0.0591948 -0.255984 -0.0872214 0.951612 0.340581 0.0440301 0.0117978 1.08439)
(0.993244 -0.0518541 -0.311236 -0.0798806 0.92709 0.290955 0.0413122 0.0192643 1.08439)
(1.01378 -0.0365688 -0.357031 -0.0645951 0.906556 0.232489 0.0373393 0.0261452 1.08439)
(1.02784 -0.0151826 -0.391979 -0.0432087 0.892489 0.16696 0.032232 0.032232 1.08439)
(1.03375 0.00972534 -0.415016 -0.0183006 0.886586 0.0963564 0.0261453 0.0373394 1.08439)
(1.03078 0.03515 -0.425443 0.00712411 0.889557 0.0228257 0.0192641 0.0413121 1.08439)
(1.01929 0.0580257 -0.422943 0.0299996 0.901044 -0.0513985 0.0117976 0.0440295 1.08439)
(1.00067 0.0755926 -0.407593 0.0475664 0.919663 -0.124061 0.00397289 0.0454094 1.08439)
(0.977167 0.0857321 -0.379857 0.0577056 0.943167 -0.192954 -0.00397274 0.0454095 1.08439)
(0.951612 0.0872214 -0.340581 0.0591948 0.968721 -0.255984 -0.0117978 0.0440301 1.08439)
(0.92709 0.0798806 -0.290955 0.0518541 0.993244 -0.311236 -0.0192643 0.0413122 1.08439)
(0.906556 0.0645951 -0.232489 0.0365688 1.01378 -0.357031 -0.0261452 0.0373393 1.08439)
(0.892489 0.0432087 -0.16696 0.0151826 1.02784 -0.391979 -0.032232 0.032232 1.08439)
(0.886586 0.0183006 -0.0963565 -0.00972535 1.03375 -0.415016 -0.0373394 0.0261453 1.08439)
(0.889557 -0.00712412 -0.0228257 -0.03515 1.03078 -0.425443 -0.0413121 0.0192641 1.08439)
(0.901044 -0.0299996 0.0513985 -0.0580257 1.01929 -0.422943 -0.0440295 0.0117976 1.08439)
(0.919663 -0.0475664 0.124061 -0.0755926 1.00067 -0.407593 -0.0454095 0.00397288 1.08439)
(0.934077 -0.0751459 0.159548 -0.219094 0.917524 -0.254359 -0.126709 -0.0110859 1.18432)
(0.983896 -0.0634428 0.201293 -0.207392 0.867705 -0.222789 -0.122859 -0.0329201 1.18432)
(1.02671 -0.0354068 0.236922 -0.179356 0.824894 -0.18445 -0.115276 -0.0537534 1.18432)
(1.05735 0.0055812 0.265352 -0.138367 0.794253 -0.140507 -0.10419 -0.0729535 1.18432)
(1.07212 0.0545775 0.28572 -0.0893703 0.779479 -0.0922945 -0.0899378 -0.0899379 1.18432)
(1.06925 0.105672 0.297406 -0.0382757 0.782353 -0.0412777 -0.0729542 -0.10419 1.18432)
(1.04907 0.152702 0.300055 0.00875412 0.80253 0.0109933 -0.0537534 -0.115275 1.18432)
(1.01403 0.189995 0.293588 0.046047 0.837575 0.0629305 -0.0329193 -0.122858 1.18432)
(0.968341 0.213053 0.2782 0.0691046 0.88326 0.112956 -0.0110852 -0.126708 1.18432)
(0.917524 0.219094 0.254359 0.0751459 0.934077 0.159548 0.0110859 -0.126709 1.18432)
(0.867705 0.207392 0.222789 0.0634428 0.983896 0.201293 0.0329201 -0.122859 1.18432)
(0.824893 0.179356 0.18445 0.0354068 1.02671 0.236922 0.0537534 -0.115276 1.18432)
(0.794253 0.138367 0.140507 -0.00558119 1.05735 0.265352 0.0729535 -0.10419 1.18432)
(0.779479 0.0893703 0.0922944 -0.0545775 1.07212 0.28572 0.0899379 -0.0899378 1.18432)
(0.782353 0.0382757 0.0412777 -0.105672 1.06925 0.297406 0.10419 -0.0729542 1.18432)
(0.80253 -0.00875411 -0.0109934 -0.152702 1.04907 0.300055 0.115275 -0.0537534 1.18432)
(0.837575 -0.046047 -0.0629306 -0.189995 1.01403 0.293588 0.122858 -0.0329193 1.18432)
(0.88326 -0.0691046 -0.112956 -0.213053 0.968341 0.2782 0.126708 -0.0110852 1.18432)
(0.934077 -0.0751459 -0.159548 -0.219094 0.917524 0.254359 0.126709 0.0110859 1.18432)
(0.983896 -0.0634428 -0.201293 -0.207392 0.867705 0.222789 0.122859 0.0329201 1.18432)
(1.02671 -0.0354068 -0.236922 -0.179356 0.824894 0.18445 0.115276 0.0537534 1.18432)
(1.05735 0.00558119 -0.265352 -0.138367 0.794253 0.140507 0.10419 0.0729535 1.18432)
(1.07212 0.0545775 -0.28572 -0.0893703 0.779479 0.0922944 0.0899378 0.0899378 1.18432)
(1.06925 0.105672 -0.297406 -0.0382757 0.782353 0.0412777 0.0729542 0.10419 1.18432)
(1.04907 0.152702 -0.300055 0.00875412 0.80253 -0.0109934 0.0537534 0.115275 1.18432)
(1.01403 0.189995 -0.293588 0.046047 0.837575 -0.0629306 0.0329193 0.122858 1.18432)
(0.968341 0.213053 -0.2782 0.0691046 0.88326 -0.112956 0.0110852 0.126708 1.18432)
(0.917524 0.219094 -0.254359 0.0751459 0.934077 -0.159548 -0.0110859 0.126709 1.18432)
(0.867705 0.207392 -0.222789 0.0634428 0.983896 -0.201294 -0.0329201 0.122859 1.18432)
(0.824894 0.179356 -0.18445 0.0354068 1.02671 -0.236922 -0.0537534 0.115276 1.18432)
(0.794253 0.138367 -0.140507 -0.00558119 1.05735 -0.265352 -0.0729535 0.10419 1.18432)
(0.779479 0.0893703 -0.0922945 -0.0545775 1.07212 -0.28572 -0.0899378 0.0899378 1.18432)
(0.782353 0.0382757 -0.0412777 -0.105672 1.06925 -0.297406 -0.10419 0.0729542 1.18432)
(0.80253 -0.00875413 0.0109934 -0.152702 1.04907 -0.300055 -0.115275 0.0537534 1.18432)
(0.837575 -0.046047 0.0629305 -0.189995 1.01403 -0.293588 -0.122858 0.0329193 1.18432)
(0.88326 -0.0691046 0.112956 -0.213053 0.968341 -0.2782 -0.126708 0.0110852 1.18432)
(0.95829 -0.108291 0.176226 -0.220321 0.918562 -0.315986 -0.126585 -0.0110749 1.14767)
(1.01329 -0.0915881 0.228419 -0.203619 0.863564 -0.280585 -0.122739 -0.0328878 1.14767)
(1.05926 -0.0570827 0.273672 -0.169113 0.817596 -0.236657 -0.115163 -0.0537012 1.14767)
(1.09065 -0.00893633 0.310609 -0.120966 0.786201 -0.185539 -0.104088 -0.0728825 1.14767)
(1.10368 0.0470448 0.338109 -0.0649843 0.773167 -0.128784 -0.08985 -0.0898498 1.14767)
(1.09679 0.104108 0.355336 -0.00792123 0.780066 -0.0681153 -0.0728827 -0.104088 1.14767)
(1.07079 0.15537 0.361765 0.0433408 0.806065 -0.00537701 -0.0537009 -0.115162 1.14767)
(1.02882 0.194649 0.357203 0.082619 0.848029 0.0575248 -0.0328873 -0.122738 1.14767)
(0.975956 0.217206 0.341787 0.105176 0.900896 0.118679 -0.0110745 -0.126584 1.14767)
(0.918562 0.220321 0.315986 0.108291 0.95829 0.176226 0.0110749 -0.126585 1.14767)
(0.863564 0.203619 0.280585 0.0915881 1.01329 0.228419 0.0328878 -0.122739 1.14767)
(0.817596 0.169113 0.236657 0.0570827 1.05926 0.273672 0.0537012 -0.115163 1.14767)
(0.786201 0.120966 0.185539 0.00893634 1.09065 0.310609 0.0728824 -0.104088 1.14767)
(0.773167 0.0649844 0.128784 -0.0470448 1.10368 0.338109 0.0898498 -0.08985 1.14767)
(0.780066 0.00792124 0.0681153 -0.104108 1.09679 0.355336 0.104088 -0.0728827 1.14767)
(0.806065 -0.0433408 0.00537699 -0.15537 1.07079 0.361765 0.115162 -0.0537009 1.14767)
(0.848029 -0.082619 -0.0575248 -0.194649 1.02882 0.357203 0.122738 -0.0328873 1.14767)
(0.900896 -0.105176 -0.118679 -0.217206 0.975956 0.341787 0.126584 -0.0110746 1.14767)
(0.95829 -0.108291 -0.176226 -0.220321 0.918562 0.315986 0.126585 0.0110749 1.14767)
(1.01329 -0.0915881 -0.228419 -0.203619 0.863564 0.280585 0.122739 0.0328878 1.14767)
(1.05926 -0.0570827 -0.273672 -0.169113 0.817596 0.236657 0.115163 0.0537012 1.14767)
(1.09065 -0.00893634 -0.310609 -0.120966 0.786201 0.185539 0.104088 0.0728824 1.14767)
(1.10368 0.0470448 -0.338109 -0.0649843 0.773167 0.128784 0.08985 0.0898498 1.14767)
(1.09679 0.104108 -0.355336 -0.00792123 0.780066 0.0681153 0.0728827 0.104088 1.14767)
(1.07079 0.15537 -0.361765 0.0433408 0.806065 0.00537698 0.0537009 0.115162 1.14767)
(1.02882 0.194649 -0.357203 0.082619 0.848029 -0.0575248 0.0328873 0.122738 1.14767)
(0.975956 0.217206 -0.341787 0.105176 0.900896 -0.118679 0.0110746 0.126584 1.14767)
(0.918562 0.220321 -0.315986 0.108291 0.95829 -0.176226 -0.0110748 0.126585 1.14767)
(0.863564 0.203619 -0.280585 0.0915881 1.01329 -0.228419 -0.0328878 0.122739 1.14767)
(0.817596 0.169113 -0.236657 0.0570827 1.05926 -0.273672 -0.0537012 0.115163 1.14767)
(0.786201 0.120966 -0.185539 0.00893634 1.09065 -0.310609 -0.0728824 0.104088 1.14767)
(0.773167 0.0649843 -0.128784 -0.0470448 1.10368 -0.338109 -0.0898498 0.08985 1.14767)
(0.780066 0.00792122 -0.0681153 -0.104108 1.09679 -0.355336 -0.104088 0.0728827 1.14767)
(0.806065 -0.0433408 -0.005377 -0.15537 1.07079 -0.361765 -0.115162 0.0537009 1.14767)
(0.848029 -0.082619 0.0575248 -0.194649 1.02882 -0.357203 -0.122738 0.0328873 1.14767)
(0.900896 -0.105176 0.118679 -0.217206 0.975956 -0.341787 -0.126584 0.0110745 1.14767)
(0.984921 -0.150344 0.199125 -0.217641 0.914396 -0.374557 -0.124546 -0.0108962 1.11231)
(1.04572 -0.127187 0.261141 -0.194484 0.853593 -0.334289 -0.120762 -0.0323579 1.11231)
(1.09494 -0.0846317 0.315222 -0.151929 0.804378 -0.283864 -0.113308 -0.0528365 1.11231)
(1.12663 -0.02781 0.359725 -0.0951064 0.772685 -0.224813 -0.102411 -0.071709 1.11231)
(1.13698 0.0364246 0.393299 -0.0308711 0.762338 -0.158932 -0.0884029 -0.0884028 1.11231)
(1.12473 0.100325 0.414922 0.0330291 0.774585 -0.088222 -0.0717088 -0.102411 1.11231)
(1.09137 0.156182 0.423938 0.0888867 0.807948 -0.0148312 -0.0528359 -0.113307 1.11231)
(1.04091 0.197261 0.420073 0.129965 0.858404 0.0590104 -0.0323577 -0.120761 1.11231)
(0.979452 0.218605 0.403444 0.151309 0.919866 0.131059 -0.0108963 -0.124545 1.11231)
(0.914396 0.217641 0.374557 0.150344 0.984921 0.199125 0.0108962 -0.124546 1.11231)
(0.853593 0.194484 0.334289 0.127187 1.04572 0.261141 0.0323579 -0.120762 1.11231)
(0.804378 0.151929 0.283863 0.0846317 1.09494 0.315222 0.0528365 -0.113308 1.11231)
(0.772685 0.0951064 0.224813 0.02781 1.12663 0.359725 0.071709 -0.102411 1.11231)
(0.762338 0.0308712 0.158932 -0.0364246 1.13698 0.393299 0.0884028 -0.0884029 1.11231)
(0.774585 -0.0330291 0.088222 -0.100325 1.12473 0.414922 0.102411 -0.0717088 1.11231)
(0.807948 -0.0888867 0.0148312 -0.156182 1.09137 0.423938 0.113307 -0.0528359 1.11231)
(0.858404 -0.129965 -0.0590104 -0.197261 1.04091 0.420073 0.120761 -0.0323577 1.11231)
(0.919866 -0.151309 -0.131059 -0.218605 0.979452 0.403444 0.124545 -0.0108963 1.11231)
(0.984921 -0.150344 -0.199125 -0.217641 0.914396 0.374557 0.124546 0.0108962 1.11231)
(1.04572 -0.127187 -0.261141 -0.194484 0.853593 0.334289 0.120762 0.0323579 1.11231)
(1.09494 -0.0846317 -0.315222 -0.151929 0.804378 0.283863 0.113308 0.0528364 1.11231)
(1.12663 -0.02781 -0.359725 -0.0951064 0.772685 0.224813 0.102411 0.071709 1.11231)
(1.13698 0.0364246 -0.393299 -0.0308711 0.762338 0.158932 0.0884029 0.0884028 1.11231)
(1.12473 0.100325 -0.414922 0.0330291 0.774585 0.088222 0.0717088 0.102411 1.11231)
(1.09137 0.156182 -0.423938 0.0888867 0.807948 0.0148311 0.0528359 0.113307 1.11231)
(1.04091 0.197261 -0.420073 0.129965 0.858404 -0.0590104 0.0323578 0.120761 1.11231)
(0.979452 0.218605 -0.403444 0.151309 0.919866 -0.131059 0.0108964 0.124545 1.11231)
(0.914396 0.217641 -0.374557 0.150344 0.984921 -0.199125 -0.0108962 0.124546 1.11231)
(0.853593 0.194484 -0.334289 0.127187 1.04572 -0.261141 -0.0323579 0.120762 1.11231)
(0.804378 0.151929 -0.283863 0.0846317 1.09494 -0.315222 -0.0528364 0.113308 1.11231)
(0.772685 0.0951063 -0.224813 0.02781 1.12663 -0.359725 -0.071709 0.102411 1.11231)
(0.762338 0.0308711 -0.158932 -0.0364246 1.13698 -0.393299 -0.0884028 0.0884029 1.11231)
(0.774585 -0.0330291 -0.088222 -0.100325 1.12473 -0.414922 -0.102411 0.0717088 1.11231)
(0.807948 -0.0888867 -0.0148312 -0.156182 1.09137 -0.423938 -0.113307 0.0528359 1.11231)
(0.858404 -0.129965 0.0590104 -0.197261 1.04091 -0.420073 -0.120761 0.0323577 1.11231)
(0.919866 -0.151309 0.131059 -0.218605 0.979452 -0.403444 -0.124545 0.0108963 1.11231)
(0.975975 -0.123657 0.152308 -0.313186 0.877208 -0.274848 -0.185089 -0.0161934 1.21824)
(1.0477 -0.0935946 0.197721 -0.283123 0.805482 -0.244225 -0.179465 -0.0480874 1.21824)
(1.10482 -0.0408135 0.237127 -0.230342 0.748363 -0.206181 -0.168388 -0.07852 1.21824)
(1.14044 0.0283204 0.269327 -0.161208 0.712741 -0.161871 -0.152194 -0.106567 1.21824)
(1.15027 0.105468 0.293344 -0.0840595 0.702913 -0.112644 -0.131376 -0.131376 1.21824)
(1.13312 0.181325 0.308448 -0.00820225 0.720064 -0.0599941 -0.106567 -0.152193 1.21824)
(1.09106 0.246742 0.314179 0.0572144 0.762125 -0.0055213 -0.0785196 -0.168386 1.21824)
(1.02916 0.293828 0.310365 0.1043 0.824024 0.0491193 -0.0480864 -0.179464 1.21824)
(0.95489 0.316904 0.297121 0.127375 0.898293 0.102267 -0.0161924 -0.185088 1.21824)
(0.877208 0.313186 0.274848 0.123657 0.975975 0.152308 0.0161934 -0.185089 1.21824)
(0.805482 0.283123 0.244225 0.0935946 1.0477 0.197721 0.0480874 -0.179465 1.21824)
(0.748363 0.230342 0.206181 0.0408135 1.10482 0.237127 0.07852 -0.168388 1.21824)
(0.712741 0.161208 0.161871 -0.0283203 1.14044 0.269327 0.106567 -0.152194 1.21824)
(0.702913 0.0840595 0.112644 -0.105468 1.15027 0.293344 0.131376 -0.131376 1.21824)
(0.720064 0.00820226 0.059994 -0.181325 1.13312 0.308448 0.152193 -0.106567 1.21824)
(0.762125 -0.0572144 0.00552128 -0.246742 1.09106 0.314179 0.168386 -0.0785196 1.21824)
(0.824024 -0.1043 -0.0491193 -0.293828 1.02916 0.310365 0.179464 -0.0480864 1.21824)
(0.898293 -0.127375 -0.102267 -0.316904 0.95489 0.297121 0.185088 -0.0161924 1.21824)
(0.975975 -0.123657 -0.152308 -0.313186 0.877208 0.274848 0.185089 0.0161934 1.21824)
(1.0477 -0.0935946 -0.197721 -0.283123 0.805482 0.244225 0.179465 0.0480874 1.21824)
(1.10482 -0.0408135 -0.237127 -0.230342 0.748363 0.206181 0.168388 0.07852 1.21824)
(1.14044 0.0283203 -0.269327 -0.161208 0.712741 0.161871 0.152194 0.106567 1.21824)
(1.15027 0.105468 -0.293344 -0.0840595 0.702913 0.112644 0.131376 0.131376 1.21824)
(1.13312 0.181325 -0.308448 -0.00820226 0.720064 0.059994 0.106567 0.152193 1.21824)
(1.09106 0.246742 -0.314179 0.0572144 0.762125 0.00552127 0.0785196 0.168386 1.21824)
(1.02916 0.293828 -0.310365 0.1043 0.824024 -0.0491193 0.0480864 0.179464 1.21824)
(0.95489 0.316904 -0.297121 0.127375 0.898293 -0.102267 0.0161924 0.185088 1.21824)
(0.877208 0.313186 -0.274848 0.123657 0.975975 -0.152308 -0.0161934 0.185089 1.21824)
(0.805482 0.283123 -0.244225 0.0935946 1.0477 -0.197721 -0.0480874 0.179465 1.21824)
(0.748363 0.230342 -0.206181 0.0408135 1.10482 -0.237127 -0.07852 0.168388 1.21824)
(0.712741 0.161208 -0.161871 -0.0283203 1.14044 -0.269327 -0.106567 0.152194 1.21824)
(0.702913 0.0840595 -0.112644 -0.105468 1.15027 -0.293344 -0.131376 0.131376 1.21824)
(0.720064 0.00820225 -0.059994 -0.181325 1.13312 -0.308448 -0.152193 0.106567 1.21824)
(0.762125 -0.0572144 -0.00552129 -0.246742 1.09106 -0.31418 -0.168386 0.0785196 1.21824)
(0.824024 -0.1043 0.0491193 -0.293828 1.02916 -0.310365 -0.179464 0.0480864 1.21824)
(0.898293 -0.127375 0.102267 -0.316904 0.95489 -0.297121 -0.185088 0.0161924 1.21824)
(1.0071 -0.173158 0.174783 -0.309391 0.870752 -0.31037 -0.183833 -0.0160835 1.19382)
(1.08551 -0.135291 0.226022 -0.271524 0.792343 -0.275304 -0.178248 -0.0477613 1.19382)
(1.14624 -0.0728899 0.270395 -0.209123 0.731614 -0.231873 -0.167246 -0.0779879 1.19382)
(1.18196 0.00651807 0.306551 -0.129714 0.69589 -0.181397 -0.151162 -0.105844 1.19382)
(1.18837 0.0933562 0.333393 -0.0428757 0.689479 -0.125409 -0.130485 -0.130485 1.19382)
(1.1647 0.17715 0.350105 0.0409184 0.713155 -0.0656104 -0.105844 -0.151161 1.19382)
(1.11379 0.247793 0.356179 0.111561 0.764063 -0.00381873 -0.0779873 -0.167245 1.19382)
(1.04179 0.296764 0.351431 0.160532 0.836062 0.0580891 -0.0477606 -0.178246 1.19382)
(0.957384 0.318157 0.336005 0.181924 0.920467 0.118232 -0.016083 -0.183833 1.19382)
(0.870752 0.309391 0.31037 0.173158 1.0071 0.174783 0.0160835 -0.183833 1.19382)
(0.792343 0.271524 0.275304 0.135291 1.08551 0.226022 0.0477613 -0.178248 1.19382)
(0.731614 0.209123 0.231873 0.0728899 1.14624 0.270395 0.0779879 -0.167246 1.19382)
(0.69589 0.129714 0.181397 -0.00651806 1.18196 0.306551 0.105844 -0.151162 1.19382)
(0.689479 0.0428758 0.125409 -0.0933562 1.18837 0.333393 0.130485 -0.130485 1.19382)
(0.713155 -0.0409184 0.0656104 -0.17715 1.1647 0.350105 0.151161 -0.105844 1.19382)
(0.764063 -0.111561 0.00381871 -0.247793 1.11379 0.356179 0.167245 -0.0779873 1.19382)
(0.836062 -0.160532 -0.0580891 -0.296764 1.04179 0.351431 0.178246 -0.0477606 1.19382)
(0.920467 -0.181924 -0.118232 -0.318157 0.957384 0.336005 0.183833 -0.016083 1.19382)
(1.0071 -0.173158 -0.174783 -0.309391 0.870752 0.31037 0.183833 0.0160835 1.19382)
(1.08551 -0.135291 -0.226022 -0.271524 0.792343 0.275304 0.178248 0.0477613 1.19382)
(1.14624 -0.0728899 -0.270395 -0.209123 0.731614 0.231873 0.167246 0.0779879 1.19382)
(1.18196 0.00651805 -0.306551 -0.129714 0.69589 0.181397 0.151162 0.105844 1.19382)
(1.18837 0.0933562 -0.333393 -0.0428758 0.689479 0.125409 0.130485 0.130485 1.19382)
(1.1647 0.17715 -0.350105 0.0409184 0.713155 0.0656104 0.105844 0.151161 1.19382)
(1.11379 0.247793 -0.356179 0.111561 0.764063 0.0038187 0.0779873 0.167245 1.19382)
(1.04179 0.296764 -0.351431 0.160532 0.836062 -0.0580891 0.0477606 0.178246 1.19382)
(0.957384 0.318157 -0.336005 0.181924 0.920467 -0.118232 0.016083 0.183833 1.19382)
(0.870752 0.309391 -0.31037 0.173158 1.0071 -0.174783 -0.0160835 0.183833 1.19382)
(0.792343 0.271524 -0.275304 0.135291 1.08551 -0.226022 -0.0477613 0.178248 1.19382)
(0.731614 0.209123 -0.231873 0.0728899 1.14624 -0.270395 -0.0779878 0.167246 1.19382)
(0.69589 0.129714 -0.181397 -0.00651805 1.18196 -0.306551 -0.105844 0.151162 1.19382)
(0.689479 0.0428757 -0.125409 -0.0933562 1.18837 -0.333393 -0.130485 0.130485 1.19382)
(0.713155 -0.0409184 -0.0656104 -0.17715 1.1647 -0.350105 -0.151161 0.105844 1.19382)
(0.764063 -0.111561 -0.00381873 -0.247793 1.11379 -0.356179 -0.167245 0.0779873 1.19382)
(0.836062 -0.160532 0.0580891 -0.296764 1.04179 -0.351431 -0.178247 0.0477606 1.19382)
(0.920467 -0.181924 0.118232 -0.318157 0.957384 -0.336005 -0.183833 0.016083 1.19382)
(1.04057 -0.234165 0.2025 -0.299023 0.856044 -0.339227 -0.180057 -0.0157529 1.1713)
(1.12618 -0.186532 0.25833 -0.251391 0.770427 -0.29891 -0.174586 -0.0467802 1.1713)
(1.19034 -0.11249 0.30631 -0.177348 0.706266 -0.24951 -0.16381 -0.076386 1.1713)
(1.22531 -0.0209682 0.344984 -0.0858264 0.671297 -0.19253 -0.148056 -0.10367 1.1713)
(1.22687 0.0769941 0.373175 0.0121365 0.66974 -0.129699 -0.127805 -0.127805 1.1713)
(1.19483 0.169581 0.390027 0.104724 0.701782 -0.0629273 -0.10367 -0.148056 1.1713)
(1.13305 0.245626 0.395029 0.180769 0.763558 0.00575628 -0.0763852 -0.163809 1.1713)
(1.04899 0.295956 0.388028 0.231098 0.847617 0.0742649 -0.0467798 -0.174585 1.1713)
(0.952788 0.314501 0.369237 0.249642 0.943821 0.140517 -0.0157529 -0.180056 1.1713)
(0.856044 0.299023 0.339227 0.234165 1.04057 0.2025 0.0157529 -0.180057 1.1713)
(0.770427 0.251391 0.29891 0.186532 1.12618 0.25833 0.0467801 -0.174586 1.1713)
(0.706266 0.177349 0.24951 0.11249 1.19034 0.30631 0.0763859 -0.16381 1.1713)
(0.671297 0.0858264 0.19253 0.0209682 1.22531 0.344984 0.10367 -0.148056 1.1713)
(0.66974 -0.0121365 0.129699 -0.0769941 1.22687 0.373175 0.127805 -0.127805 1.1713)
(0.701782 -0.104724 0.0629273 -0.169581 1.19483 0.390027 0.148056 -0.10367 1.1713)
(0.763558 -0.180769 -0.0057563 -0.245626 1.13305 0.395029 0.163809 -0.0763852 1.1713)
(0.847617 -0.231098 -0.0742649 -0.295956 1.04899 0.388028 0.174585 -0.0467798 1.1713)
(0.943821 -0.249642 -0.140517 -0.314501 0.952788 0.369237 0.180056 -0.015753 1.1713)
(1.04057 -0.234165 -0.2025 -0.299023 0.856044 0.339227 0.180057 0.0157528 1.1713)
(1.12618 -0.186532 -0.25833 -0.251391 0.770427 0.29891 0.174586 0.0467801 1.1713)
(1.19034 -0.11249 -0.30631 -0.177348 0.706266 0.24951 0.16381 0.0763859 1.1713)
(1.22531 -0.0209682 -0.344984 -0.0858264 0.671297 0.19253 0.148056 0.10367 1.1713)
(1.22687 0.0769941 -0.373175 0.0121365 0.66974 0.129699 0.127805 0.127805 1.1713)
(1.19483 0.169581 -0.390027 0.104724 0.701782 0.0629273 0.10367 0.148056 1.1713)
(1.13305 0.245626 -0.395029 0.180769 0.763558 -0.0057563 0.0763852 0.163809 1.1713)
(1.04899 0.295956 -0.388028 0.231098 0.847617 -0.0742649 0.0467799 0.174585 1.1713)
(0.952788 0.314501 -0.369237 0.249642 0.943821 -0.140517 0.015753 0.180056 1.1713)
(0.856044 0.299023 -0.339227 0.234165 1.04057 -0.2025 -0.0157528 0.180057 1.1713)
(0.770427 0.251391 -0.29891 0.186532 1.12618 -0.25833 -0.0467801 0.174586 1.1713)
(0.706266 0.177348 -0.24951 0.11249 1.19034 -0.30631 -0.0763859 0.16381 1.1713)
(0.671297 0.0858264 -0.19253 0.0209682 1.22531 -0.344984 -0.10367 0.148056 1.1713)
(0.66974 -0.0121366 -0.129699 -0.0769941 1.22687 -0.373175 -0.127805 0.127805 1.1713)
(0.701782 -0.104724 -0.0629273 -0.169581 1.19483 -0.390027 -0.148056 0.10367 1.1713)
(0.763558 -0.180769 0.00575627 -0.245626 1.13305 -0.395029 -0.163809 0.0763852 1.1713)
(0.847617 -0.231098 0.0742649 -0.295956 1.04899 -0.388028 -0.174585 0.0467798 1.1713)
(0.943821 -0.249642 0.140517 -0.314501 0.952788 -0.369237 -0.180056 0.0157529 1.1713)
(1.02785 -0.179503 0.145001 -0.347862 0.843579 -0.289571 -0.2181 -0.0190818 1.24385)
(1.11248 -0.132089 0.193082 -0.300449 0.758951 -0.259992 -0.211473 -0.0566642 1.24385)
(1.17578 -0.05859 0.235295 -0.22695 0.695643 -0.222514 -0.198421 -0.0925249 1.24385)
(1.21014 0.0321289 0.27036 -0.136231 0.661291 -0.178275 -0.179339 -0.125574 1.24385)
(1.21139 0.129126 0.297209 -0.0392334 0.660038 -0.128619 -0.154809 -0.154808 1.24385)
(1.17939 0.220702 0.315028 0.0523428 0.692036 -0.0750547 -0.125574 -0.179338 1.24385)
(1.118 0.295811 0.323275 0.127452 0.753425 -0.0192102 -0.0925247 -0.198419 1.24385)
(1.03463 0.345395 0.3217 0.177036 0.836801 0.0372178 -0.0566633 -0.211471 1.24385)
(0.93932 0.363472 0.31035 0.195113 0.932107 0.0925149 -0.0190805 -0.218099 1.24385)
(0.843579 0.347862 0.28957 0.179503 1.02785 0.145001 0.0190818 -0.2181 1.24385)
(0.758951 0.300449 0.259992 0.132089 1.11248 0.193082 0.0566642 -0.211473 1.24385)
(0.695643 0.22695 0.222514 0.05859 1.17578 0.235295 0.0925248 -0.198421 1.24385)