/*--------------------------------*- C++ -*----------------------------------*\
| =========                 |                                                 |
| \\      /  F ield         | OpenFOAM: The Open Source CFD Toolbox           |
|  \\    /   O peration     | Version:  2312                                  |
|   \\  /    A nd           | Website:  www.openfoam.com                      |
|    \\/     M anipulation  |                                                 |
\*---------------------------------------------------------------------------*/
FoamFile
{
    version     2.0;
    format      ascii;
    arch        "LSB;label=32;scalar=64";
    class       volVectorField;
    location    "0.3";
    object      D;
}
// * * * * * * * * * * * * * * * * * * * * * * * * * * * * * * * * * * * * * //

dimensions      [0 1 0 0 0 0 0];

internalField   nonuniform List<vector> 
3240
(
(-0.000256679 0.000192443 -9.5813e-05)
(-0.000272475 0.00016934 -9.58125e-05)
(-0.000286196 0.000144948 -9.58134e-05)
(-0.00029774 0.000119451 -9.58134e-05)
(-0.000307019 9.30473e-05 -9.58132e-05)
(-0.00031396 6.59347e-05 -9.58128e-05)
(-0.000318512 3.83212e-05 -9.58117e-05)
(-0.00032064 1.04156e-05 -9.58118e-05)
(-0.000320327 -1.75689e-05 -9.58124e-05)
(-0.000317577 -4.54203e-05 -9.58131e-05)
(-0.00031241 -7.29265e-05 -9.58134e-05)
(-0.000304865 -9.9878e-05 -9.58136e-05)
(-0.000295 -0.000126069 -9.5813e-05)
(-0.00028289 -0.000151301 -9.58125e-05)
(-0.000268626 -0.000175379 -9.58118e-05)
(-0.000252319 -0.000198124 -9.58126e-05)
(-0.000234091 -0.000219362 -9.58136e-05)
(-0.000214082 -0.00023893 -9.58129e-05)
(-0.000192443 -0.000256679 -9.5813e-05)
(-0.00016934 -0.000272475 -9.58125e-05)
(-0.000144948 -0.000286196 -9.58134e-05)
(-0.000119451 -0.00029774 -9.58134e-05)
(-9.30473e-05 -0.000307019 -9.58132e-05)
(-6.59347e-05 -0.00031396 -9.58128e-05)
(-3.83212e-05 -0.000318512 -9.58118e-05)
(-1.04156e-05 -0.00032064 -9.58118e-05)
(1.75689e-05 -0.000320327 -9.58124e-05)
(4.54203e-05 -0.000317577 -9.58131e-05)
(7.29265e-05 -0.00031241 -9.58134e-05)
(9.9878e-05 -0.000304865 -9.58136e-05)
(0.000126069 -0.000295 -9.58129e-05)
(0.000151301 -0.00028289 -9.58125e-05)
(0.000175379 -0.000268626 -9.58118e-05)
(0.000198124 -0.000252319 -9.58126e-05)
(0.000219362 -0.000234091 -9.58136e-05)
(0.00023893 -0.000214082 -9.58129e-05)
(0.000256679 -0.000192443 -9.5813e-05)
(0.000272475 -0.00016934 -9.58125e-05)
(0.000286196 -0.000144948 -9.58134e-05)
(0.00029774 -0.000119451 -9.58134e-05)
(0.000307019 -9.30473e-05 -9.58132e-05)
(0.00031396 -6.59347e-05 -9.58128e-05)
(0.000318512 -3.83212e-05 -9.58118e-05)
(0.00032064 -1.04156e-05 -9.58118e-05)
(0.000320327 1.75689e-05 -9.58124e-05)
(0.000317577 4.54203e-05 -9.58131e-05)
(0.00031241 7.29265e-05 -9.58134e-05)
(0.000304865 9.9878e-05 -9.58136e-05)
(0.000295 0.000126069 -9.58129e-05)
(0.00028289 0.000151301 -9.58125e-05)
(0.000268626 0.000175379 -9.58118e-05)
(0.000252319 0.000198124 -9.58126e-05)
(0.000234091 0.000219362 -9.58136e-05)
(0.000214082 0.00023893 -9.58129e-05)
(0.000192443 0.000256679 -9.5813e-05)
(0.00016934 0.000272475 -9.58125e-05)
(0.000144948 0.000286196 -9.58134e-05)
(0.000119451 0.00029774 -9.58134e-05)
(9.30473e-05 0.000307019 -9.58132e-05)
(6.59347e-05 0.00031396 -9.58128e-05)
(3.83212e-05 0.000318512 -9.58118e-05)
(1.04156e-05 0.00032064 -9.58118e-05)
(-1.75689e-05 0.000320328 -9.58125e-05)
(-4.54203e-05 0.000317577 -9.58132e-05)
(-7.29265e-05 0.00031241 -9.58134e-05)
(-9.9878e-05 0.000304865 -9.58136e-05)
(-0.000126069 0.000295 -9.58129e-05)
(-0.000151301 0.00028289 -9.58125e-05)
(-0.000175379 0.000268627 -9.58118e-05)
(-0.000198124 0.000252319 -9.58126e-05)
(-0.000219362 0.000234091 -9.58136e-05)
(-0.00023893 0.000214082 -9.58129e-05)
(-0.000209346 0.000221813 -4.97597e-05)
(-0.000227881 0.000202723 -4.97594e-05)
(-0.000244683 0.000182091 -4.97597e-05)
(-0.000259622 0.000160071 -4.97596e-05)
(-0.000272585 0.000136835 -4.97596e-05)
(-0.000283474 0.000112557 -4.97595e-05)
(-0.000292205 8.74222e-05 -4.97591e-05)
(-0.000298712 6.16226e-05 -4.97588e-05)
(-0.000302947 3.53543e-05 -4.9759e-05)
(-0.000304875 8.81628e-06 -4.97596e-05)
(-0.000304483 -1.77893e-05 -4.97597e-05)
(-0.000301775 -4.42595e-05 -4.97596e-05)
(-0.000296769 -7.03928e-05 -4.97594e-05)
(-0.000289504 -9.59899e-05 -4.97592e-05)
(-0.000280036 -0.000120856 -4.97593e-05)
(-0.000268438 -0.000144803 -4.97593e-05)
(-0.000254796 -0.000167648 -4.97598e-05)
(-0.000239214 -0.000189217 -4.97596e-05)
(-0.000221813 -0.000209346 -4.97597e-05)
(-0.000202723 -0.000227881 -4.97594e-05)
(-0.000182091 -0.000244683 -4.97597e-05)
(-0.000160071 -0.000259622 -4.97596e-05)
(-0.000136835 -0.000272585 -4.97596e-05)
(-0.000112557 -0.000283474 -4.97595e-05)
(-8.74222e-05 -0.000292205 -4.97592e-05)
(-6.16226e-05 -0.000298712 -4.97588e-05)
(-3.53544e-05 -0.000302947 -4.9759e-05)
(-8.81629e-06 -0.000304875 -4.97596e-05)
(1.77893e-05 -0.000304483 -4.97597e-05)
(4.42595e-05 -0.000301775 -4.97596e-05)
(7.03928e-05 -0.000296769 -4.97594e-05)
(9.59899e-05 -0.000289504 -4.97592e-05)
(0.000120856 -0.000280036 -4.97592e-05)
(0.000144803 -0.000268438 -4.97593e-05)
(0.000167648 -0.000254796 -4.97598e-05)
(0.000189217 -0.000239214 -4.97596e-05)
(0.000209346 -0.000221813 -4.97597e-05)
(0.000227881 -0.000202723 -4.97594e-05)
(0.000244683 -0.000182091 -4.97597e-05)
(0.000259622 -0.000160071 -4.97596e-05)
(0.000272585 -0.000136835 -4.97596e-05)
(0.000283474 -0.000112557 -4.97595e-05)
(0.000292205 -8.74222e-05 -4.97592e-05)
(0.000298712 -6.16226e-05 -4.97588e-05)
(0.000302947 -3.53544e-05 -4.9759e-05)
(0.000304875 -8.81629e-06 -4.97596e-05)
(0.000304483 1.77893e-05 -4.97597e-05)
(0.000301775 4.42595e-05 -4.97596e-05)
(0.000296769 7.03928e-05 -4.97594e-05)
(0.000289504 9.59899e-05 -4.97592e-05)
(0.000280036 0.000120856 -4.97593e-05)
(0.000268438 0.000144803 -4.97593e-05)
(0.000254796 0.000167648 -4.97598e-05)
(0.000239214 0.000189217 -4.97596e-05)
(0.000221813 0.000209346 -4.97597e-05)
(0.000202723 0.000227881 -4.97594e-05)
(0.000182091 0.000244683 -4.97597e-05)
(0.000160071 0.000259622 -4.97596e-05)
(0.000136835 0.000272585 -4.97596e-05)
(0.000112557 0.000283474 -4.97595e-05)
(8.74222e-05 0.000292205 -4.97592e-05)
(6.16226e-05 0.000298712 -4.97589e-05)
(3.53543e-05 0.000302947 -4.9759e-05)
(8.81629e-06 0.000304875 -4.97596e-05)
(-1.77893e-05 0.000304483 -4.97597e-05)
(-4.42595e-05 0.000301775 -4.97596e-05)
(-7.03928e-05 0.000296769 -4.97594e-05)
(-9.59899e-05 0.000289504 -4.97592e-05)
(-0.000120856 0.000280036 -4.97593e-05)
(-0.000144803 0.000268438 -4.97593e-05)
(-0.000167648 0.000254796 -4.97598e-05)
(-0.000189217 0.000239214 -4.97596e-05)
(-0.000180744 0.0002696 -2.67009e-06)
(-0.000203553 0.000252821 -2.66997e-06)
(-0.000224813 0.000234118 -2.6697e-06)
(-0.000244363 0.000213633 -2.66992e-06)
(-0.000262053 0.000191523 -2.67014e-06)
(-0.000277747 0.000167955 -2.67011e-06)
(-0.000291328 0.000143108 -2.66985e-06)
(-0.000302693 0.000117173 -2.67009e-06)
(-0.000311754 9.03464e-05 -2.67e-06)
(-0.000318442 6.28314e-05 -2.67023e-06)
(-0.000322705 3.48378e-05 -2.67003e-06)
(-0.000324514 6.57936e-06 -2.66983e-06)
(-0.000323852 -2.17293e-05 -2.66966e-06)
(-0.000320727 -4.98723e-05 -2.67003e-06)
(-0.000315159 -7.76353e-05 -2.67042e-06)
(-0.000307194 -0.000104808 -2.67031e-06)
(-0.00029689 -0.000131182 -2.67007e-06)
(-0.000284327 -0.000156559 -2.67003e-06)
(-0.0002696 -0.000180744 -2.67009e-06)
(-0.000252821 -0.000203553 -2.66997e-06)
(-0.000234118 -0.000224813 -2.6697e-06)
(-0.000213633 -0.000244363 -2.66992e-06)
(-0.000191523 -0.000262053 -2.67014e-06)
(-0.000167955 -0.000277747 -2.67012e-06)
(-0.000143108 -0.000291328 -2.66986e-06)
(-0.000117173 -0.000302692 -2.67009e-06)
(-9.03464e-05 -0.000311754 -2.67001e-06)
(-6.28314e-05 -0.000318442 -2.67024e-06)
(-3.48378e-05 -0.000322705 -2.67003e-06)
(-6.57936e-06 -0.000324514 -2.66983e-06)
(2.17293e-05 -0.000323852 -2.66966e-06)
(4.98724e-05 -0.000320727 -2.67003e-06)
(7.76353e-05 -0.000315159 -2.67041e-06)
(0.000104808 -0.000307194 -2.67031e-06)
(0.000131182 -0.00029689 -2.67007e-06)
(0.000156559 -0.000284327 -2.67002e-06)
(0.000180744 -0.0002696 -2.67009e-06)
(0.000203553 -0.000252821 -2.66997e-06)
(0.000224813 -0.000234118 -2.6697e-06)
(0.000244363 -0.000213633 -2.66992e-06)
(0.000262053 -0.000191523 -2.67015e-06)
(0.000277747 -0.000167955 -2.67012e-06)
(0.000291328 -0.000143108 -2.66986e-06)
(0.000302692 -0.000117173 -2.6701e-06)
(0.000311754 -9.03464e-05 -2.67001e-06)
(0.000318442 -6.28314e-05 -2.67024e-06)
(0.000322705 -3.48378e-05 -2.67003e-06)
(0.000324514 -6.57936e-06 -2.66984e-06)
(0.000323852 2.17293e-05 -2.66966e-06)
(0.000320727 4.98724e-05 -2.67003e-06)
(0.000315159 7.76353e-05 -2.67042e-06)
(0.000307194 0.000104808 -2.67031e-06)
(0.00029689 0.000131182 -2.67007e-06)
(0.000284327 0.000156559 -2.67002e-06)
(0.0002696 0.000180744 -2.67009e-06)
(0.000252821 0.000203553 -2.66997e-06)
(0.000234118 0.000224813 -2.6697e-06)
(0.000213633 0.000244363 -2.66992e-06)
(0.000191523 0.000262053 -2.67015e-06)
(0.000167955 0.000277747 -2.67012e-06)
(0.000143108 0.000291328 -2.66987e-06)
(0.000117173 0.000302692 -2.6701e-06)
(9.03464e-05 0.000311754 -2.67002e-06)
(6.28314e-05 0.000318442 -2.67025e-06)
(3.48378e-05 0.000322705 -2.67004e-06)
(6.57936e-06 0.000324514 -2.66984e-06)
(-2.17293e-05 0.000323852 -2.66967e-06)
(-4.98723e-05 0.000320727 -2.67003e-06)
(-7.76353e-05 0.000315159 -2.67042e-06)
(-0.000104808 0.000307194 -2.67031e-06)
(-0.000131182 0.00029689 -2.67008e-06)
(-0.000156559 0.000284327 -2.67003e-06)
(-0.000636938 0.000580074 -0.000280267)
(-0.00068507 0.000522353 -0.000280266)
(-0.000727988 0.000460658 -0.000280267)
(-0.000765368 0.000395456 -0.000280268)
(-0.000796923 0.000327245 -0.000280267)
(-0.000822412 0.000256543 -0.000280266)
(-0.000841642 0.00018389 -0.000280264)
(-0.000854466 0.000109837 -0.000280263)
(-0.000860787 3.49484e-05 -0.000280263)
(-0.000860557 -4.02064e-05 -0.000280264)
(-0.000853778 -0.000115056 -0.000280266)
(-0.000840501 -0.000189031 -0.000280267)
(-0.000820827 -0.000261567 -0.000280266)
(-0.000794907 -0.000332112 -0.000280266)
(-0.000762937 -0.000400128 -0.000280265)
(-0.00072516 -0.000465099 -0.000280265)
(-0.000681864 -0.000526531 -0.000280267)
(-0.000633379 -0.000583958 -0.000280267)
(-0.000580074 -0.000636938 -0.000280267)
(-0.000522353 -0.00068507 -0.000280266)
(-0.000460658 -0.000727988 -0.000280267)
(-0.000395456 -0.000765368 -0.000280268)
(-0.000327245 -0.000796923 -0.000280267)
(-0.000256543 -0.000822412 -0.000280266)
(-0.00018389 -0.000841642 -0.000280264)
(-0.000109837 -0.000854466 -0.000280263)
(-3.49484e-05 -0.000860787 -0.000280263)
(4.02064e-05 -0.000860557 -0.000280264)
(0.000115056 -0.000853778 -0.000280266)
(0.000189031 -0.000840501 -0.000280267)
(0.000261567 -0.000820828 -0.000280266)
(0.000332112 -0.000794907 -0.000280265)
(0.000400128 -0.000762937 -0.000280265)
(0.000465098 -0.00072516 -0.000280265)
(0.000526531 -0.000681864 -0.000280267)
(0.000583957 -0.000633379 -0.000280267)
(0.000636938 -0.000580074 -0.000280267)
(0.00068507 -0.000522353 -0.000280266)
(0.000727988 -0.000460658 -0.000280267)
(0.000765368 -0.000395456 -0.000280268)
(0.000796923 -0.000327245 -0.000280267)
(0.000822412 -0.000256543 -0.000280266)
(0.000841642 -0.00018389 -0.000280264)
(0.000854466 -0.000109837 -0.000280263)
(0.000860787 -3.49484e-05 -0.000280263)
(0.000860557 4.02064e-05 -0.000280264)
(0.000853778 0.000115056 -0.000280266)
(0.000840501 0.000189031 -0.000280267)
(0.000820828 0.000261567 -0.000280266)
(0.000794907 0.000332112 -0.000280265)
(0.000762937 0.000400128 -0.000280265)
(0.00072516 0.000465098 -0.000280265)
(0.000681864 0.000526531 -0.000280267)
(0.000633379 0.000583958 -0.000280267)
(0.000580074 0.000636938 -0.000280267)
(0.000522353 0.00068507 -0.000280266)
(0.000460658 0.000727988 -0.000280267)
(0.000395456 0.000765368 -0.000280268)
(0.000327245 0.000796923 -0.000280267)
(0.000256543 0.000822412 -0.000280266)
(0.00018389 0.000841642 -0.000280264)
(0.000109837 0.000854466 -0.000280263)
(3.49484e-05 0.000860787 -0.000280263)
(-4.02064e-05 0.000860557 -0.000280264)
(-0.000115056 0.000853778 -0.000280266)
(-0.000189031 0.000840501 -0.000280267)
(-0.000261567 0.000820828 -0.000280266)
(-0.000332112 0.000794907 -0.000280265)
(-0.000400128 0.000762937 -0.000280265)
(-0.000465099 0.00072516 -0.000280265)
(-0.000526531 0.000681864 -0.000280267)
(-0.000583958 0.000633379 -0.000280267)
(-0.000615138 0.000681738 -0.000166365)
(-0.000672213 0.000625531 -0.000166364)
(-0.000724173 0.000564563 -0.000166365)
(-0.000770623 0.000499298 -0.000166365)
(-0.000811208 0.000430234 -0.000166365)
(-0.000845619 0.000357896 -0.000166364)
(-0.000873594 0.000282834 -0.000166363)
(-0.00089492 0.00020562 -0.000166363)
(-0.000909435 0.00012684 -0.000166363)
(-0.000917029 4.7095e-05 -0.000166363)
(-0.000917645 -3.30089e-05 -0.000166363)
(-0.000911276 -0.000112862 -0.000166364)
(-0.000897971 -0.000191856 -0.000166364)
(-0.000877833 -0.000269389 -0.000166364)
(-0.000851013 -0.000344871 -0.000166364)
(-0.000817717 -0.000417729 -0.000166364)
(-0.000778198 -0.000487409 -0.000166365)
(-0.000732756 -0.000553379 -0.000166365)
(-0.000681738 -0.000615138 -0.000166365)
(-0.000625531 -0.000672213 -0.000166364)
(-0.000564563 -0.000724173 -0.000166365)
(-0.000499298 -0.000770623 -0.000166365)
(-0.000430234 -0.000811208 -0.000166365)
(-0.000357896 -0.000845619 -0.000166364)
(-0.000282834 -0.000873594 -0.000166363)
(-0.00020562 -0.00089492 -0.000166363)
(-0.00012684 -0.000909435 -0.000166363)
(-4.7095e-05 -0.000917029 -0.000166363)
(3.30088e-05 -0.000917645 -0.000166363)
(0.000112862 -0.000911276 -0.000166364)
(0.000191856 -0.000897971 -0.000166364)
(0.000269389 -0.000877833 -0.000166364)
(0.000344871 -0.000851013 -0.000166364)
(0.000417729 -0.000817717 -0.000166364)
(0.000487409 -0.000778198 -0.000166365)
(0.000553379 -0.000732756 -0.000166365)
(0.000615138 -0.000681738 -0.000166365)
(0.000672213 -0.000625531 -0.000166364)
(0.000724173 -0.000564563 -0.000166365)
(0.000770623 -0.000499298 -0.000166365)
(0.000811208 -0.000430234 -0.000166365)
(0.000845619 -0.000357896 -0.000166364)
(0.000873594 -0.000282834 -0.000166363)
(0.00089492 -0.00020562 -0.000166363)
(0.000909435 -0.00012684 -0.000166363)
(0.000917029 -4.7095e-05 -0.000166363)
(0.000917645 3.30089e-05 -0.000166363)
(0.000911276 0.000112862 -0.000166364)
(0.000897971 0.000191856 -0.000166364)
(0.000877833 0.000269389 -0.000166364)
(0.000851013 0.000344871 -0.000166364)
(0.000817717 0.000417729 -0.000166364)
(0.000778198 0.000487409 -0.000166365)
(0.000732756 0.000553379 -0.000166365)
(0.000681738 0.000615138 -0.000166365)
(0.000625531 0.000672213 -0.000166364)
(0.000564563 0.000724173 -0.000166365)
(0.000499298 0.000770623 -0.000166365)
(0.000430234 0.000811208 -0.000166365)
(0.000357896 0.000845619 -0.000166364)
(0.000282834 0.000873594 -0.000166363)
(0.00020562 0.00089492 -0.000166363)
(0.00012684 0.000909435 -0.000166363)
(4.7095e-05 0.000917029 -0.000166363)
(-3.30089e-05 0.000917645 -0.000166363)
(-0.000112862 0.000911276 -0.000166364)
(-0.000191856 0.000897971 -0.000166364)
(-0.000269389 0.000877833 -0.000166364)
(-0.000344871 0.000851013 -0.000166364)
(-0.000417729 0.000817717 -0.000166364)
(-0.000487409 0.000778198 -0.000166365)
(-0.000553379 0.000732756 -0.000166365)
(-0.000618811 0.000813662 -5.54035e-05)
(-0.000687372 0.000756633 -5.54031e-05)
(-0.0007507 0.000693845 -5.54026e-05)
(-0.000808317 0.000625777 -5.54029e-05)
(-0.000859781 0.000552946 -5.54029e-05)
(-0.000904701 0.000475907 -5.5403e-05)
(-0.000942737 0.000395247 -5.5403e-05)
(-0.000973597 0.000311578 -5.54031e-05)
(-0.000997048 0.000225538 -5.54029e-05)
(-0.00101291 0.000137781 -5.54022e-05)
(-0.00102107 4.89753e-05 -5.5402e-05)
(-0.00102145 -4.02034e-05 -5.54025e-05)
(-0.00101406 -0.000129076 -5.54028e-05)
(-0.00099895 -0.000216965 -5.54033e-05)
(-0.000976239 -0.000303203 -5.54034e-05)
(-0.000946097 -0.000387133 -5.5403e-05)
(-0.000908757 -0.000468119 -5.54032e-05)
(-0.000864498 -0.000545541 -5.54031e-05)
(-0.000813662 -0.000618811 -5.54035e-05)
(-0.000756633 -0.000687372 -5.54031e-05)
(-0.000693845 -0.0007507 -5.54026e-05)
(-0.000625777 -0.000808317 -5.54029e-05)
(-0.000552946 -0.000859781 -5.54029e-05)
(-0.000475907 -0.000904701 -5.5403e-05)
(-0.000395247 -0.000942737 -5.5403e-05)
(-0.000311578 -0.000973597 -5.54031e-05)
(-0.000225538 -0.000997048 -5.54029e-05)
(-0.000137781 -0.00101291 -5.54022e-05)
(-4.89753e-05 -0.00102107 -5.5402e-05)
(4.02034e-05 -0.00102145 -5.54025e-05)
(0.000129076 -0.00101406 -5.54028e-05)
(0.000216965 -0.00099895 -5.54033e-05)
(0.000303203 -0.000976239 -5.54034e-05)
(0.000387133 -0.000946097 -5.5403e-05)
(0.000468119 -0.000908757 -5.54032e-05)
(0.000545541 -0.000864498 -5.54031e-05)
(0.000618811 -0.000813662 -5.54035e-05)
(0.000687372 -0.000756633 -5.54031e-05)
(0.0007507 -0.000693845 -5.54026e-05)
(0.000808317 -0.000625777 -5.54029e-05)
(0.000859781 -0.000552946 -5.54029e-05)
(0.000904701 -0.000475907 -5.5403e-05)
(0.000942737 -0.000395247 -5.5403e-05)
(0.000973597 -0.000311578 -5.54031e-05)
(0.000997048 -0.000225538 -5.54029e-05)
(0.00101291 -0.000137781 -5.54022e-05)
(0.00102107 -4.89753e-05 -5.5402e-05)
(0.00102145 4.02034e-05 -5.54025e-05)
(0.00101406 0.000129076 -5.54028e-05)
(0.00099895 0.000216965 -5.54033e-05)
(0.000976239 0.000303203 -5.54034e-05)
(0.000946097 0.000387133 -5.5403e-05)
(0.000908757 0.000468119 -5.54032e-05)
(0.000864498 0.000545541 -5.54031e-05)
(0.000813662 0.000618811 -5.54035e-05)
(0.000756633 0.000687372 -5.5403e-05)
(0.000693845 0.0007507 -5.54026e-05)
(0.000625777 0.000808317 -5.54029e-05)
(0.000552946 0.000859781 -5.54029e-05)
(0.000475907 0.000904701 -5.5403e-05)
(0.000395247 0.000942737 -5.54031e-05)
(0.000311578 0.000973597 -5.54031e-05)
(0.000225538 0.000997048 -5.54029e-05)
(0.000137781 0.00101291 -5.54023e-05)
(4.89753e-05 0.00102107 -5.54021e-05)
(-4.02034e-05 0.00102145 -5.54026e-05)
(-0.000129076 0.00101406 -5.54029e-05)
(-0.000216965 0.00099895 -5.54034e-05)
(-0.000303203 0.000976239 -5.54034e-05)
(-0.000387133 0.000946097 -5.5403e-05)
(-0.000468119 0.000908757 -5.54032e-05)
(-0.000545541 0.000864498 -5.54031e-05)
(-0.000959258 0.000999684 -0.000478365)
(-0.00104274 0.000912275 -0.000478365)
(-0.00111828 0.000817923 -0.000478365)
(-0.00118531 0.000717347 -0.000478365)
(-0.00124332 0.00061131 -0.000478365)
(-0.00129187 0.000500622 -0.000478363)
(-0.00133058 0.000386123 -0.000478361)
(-0.00135917 0.000268687 -0.000478361)
(-0.00137742 0.000149205 -0.000478361)
(-0.00138518 2.85874e-05 -0.000478361)
(-0.0013824 -9.22473e-05 -0.000478361)
(-0.0013691 -0.00021238 -0.000478362)
(-0.00134538 -0.000330898 -0.000478362)
(-0.00131142 -0.000446897 -0.000478362)
(-0.00126748 -0.000559494 -0.000478362)
(-0.00121389 -0.000667833 -0.000478362)
(-0.00115107 -0.00077109 -0.000478364)
(-0.00107948 -0.000868479 -0.000478365)
(-0.000999684 -0.000959258 -0.000478365)
(-0.000912275 -0.00104274 -0.000478365)
(-0.000817923 -0.00111828 -0.000478365)
(-0.000717347 -0.00118531 -0.000478365)
(-0.00061131 -0.00124332 -0.000478364)
(-0.000500621 -0.00129187 -0.000478363)
(-0.000386123 -0.00133058 -0.000478361)
(-0.000268687 -0.00135917 -0.000478361)
(-0.000149205 -0.00137742 -0.000478361)
(-2.85875e-05 -0.00138518 -0.000478361)
(9.22473e-05 -0.0013824 -0.000478361)
(0.00021238 -0.0013691 -0.000478362)
(0.000330898 -0.00134538 -0.000478362)
(0.000446897 -0.00131142 -0.000478362)
(0.000559494 -0.00126748 -0.000478362)
(0.000667833 -0.00121389 -0.000478362)
(0.00077109 -0.00115107 -0.000478364)
(0.000868479 -0.00107948 -0.000478365)
(0.000959258 -0.000999684 -0.000478365)
(0.00104274 -0.000912275 -0.000478365)
(0.00111828 -0.000817923 -0.000478365)
(0.00118531 -0.000717347 -0.000478365)
(0.00124332 -0.00061131 -0.000478364)
(0.00129187 -0.000500621 -0.000478363)
(0.00133058 -0.000386123 -0.000478361)
(0.00135917 -0.000268687 -0.000478361)
(0.00137742 -0.000149205 -0.000478361)
(0.00138518 -2.85874e-05 -0.000478361)
(0.0013824 9.22473e-05 -0.000478361)
(0.0013691 0.00021238 -0.000478362)
(0.00134538 0.000330898 -0.000478362)
(0.00131142 0.000446897 -0.000478362)
(0.00126748 0.000559494 -0.000478362)
(0.00121389 0.000667833 -0.000478362)
(0.00115107 0.00077109 -0.000478364)
(0.00107948 0.000868479 -0.000478365)
(0.000999684 0.000959258 -0.000478365)
(0.000912275 0.00104274 -0.000478365)
(0.000817923 0.00111828 -0.000478365)
(0.000717347 0.00118531 -0.000478365)
(0.00061131 0.00124332 -0.000478365)
(0.000500621 0.00129187 -0.000478363)
(0.000386123 0.00133058 -0.000478361)
(0.000268687 0.00135917 -0.000478361)
(0.000149205 0.00137742 -0.000478361)
(2.85874e-05 0.00138518 -0.000478361)
(-9.22473e-05 0.0013824 -0.000478361)
(-0.00021238 0.0013691 -0.000478362)
(-0.000330898 0.00134538 -0.000478362)
(-0.000446897 0.00131142 -0.000478362)
(-0.000559494 0.00126748 -0.000478362)
(-0.000667833 0.00121389 -0.000478362)
(-0.00077109 0.00115107 -0.000478364)
(-0.000868479 0.00107948 -0.000478365)
(-0.000972961 0.00116795 -0.000321837)
(-0.00107105 0.00107871 -0.000321837)
(-0.00116099 0.000981255 -0.000321837)
(-0.0012421 0.000876334 -0.000321837)
(-0.00131375 0.000764743 -0.000321837)
(-0.0013754 0.000647332 -0.000321837)
(-0.00142658 0.000524996 -0.000321836)
(-0.00146691 0.000398663 -0.000321836)
(-0.00149608 0.000269297 -0.000321836)
(-0.00151385 0.00013788 -0.000321835)
(-0.00152011 5.41495e-06 -0.000321836)
(-0.0015148 -0.000127092 -0.000321836)
(-0.00149796 -0.000258632 -0.000321836)
(-0.00146971 -0.000388204 -0.000321836)
(-0.00143029 -0.00051482 -0.000321836)
(-0.00137997 -0.000637519 -0.000321837)
(-0.00131916 -0.000755366 -0.000321837)
(-0.00124831 -0.000867465 -0.000321837)
(-0.00116795 -0.000972961 -0.000321837)
(-0.00107871 -0.00107105 -0.000321837)
(-0.000981255 -0.00116099 -0.000321837)
(-0.000876334 -0.0012421 -0.000321837)
(-0.000764743 -0.00131375 -0.000321837)
(-0.000647332 -0.0013754 -0.000321837)
(-0.000524996 -0.00142658 -0.000321836)
(-0.000398663 -0.00146691 -0.000321836)
(-0.000269297 -0.00149608 -0.000321836)
(-0.00013788 -0.00151385 -0.000321835)
(-5.41497e-06 -0.00152011 -0.000321836)
(0.000127092 -0.0015148 -0.000321836)
(0.000258632 -0.00149796 -0.000321836)
(0.000388204 -0.00146971 -0.000321836)
(0.00051482 -0.00143029 -0.000321836)
(0.000637519 -0.00137997 -0.000321837)
(0.000755366 -0.00131916 -0.000321837)
(0.000867465 -0.00124831 -0.000321837)
(0.000972961 -0.00116795 -0.000321837)
(0.00107105 -0.00107871 -0.000321837)
(0.00116099 -0.000981254 -0.000321837)
(0.0012421 -0.000876334 -0.000321837)
(0.00131375 -0.000764743 -0.000321837)
(0.0013754 -0.000647332 -0.000321837)
(0.00142658 -0.000524996 -0.000321836)
(0.00146691 -0.000398663 -0.000321836)
(0.00149608 -0.000269297 -0.000321836)
(0.00151385 -0.00013788 -0.000321835)
(0.00152011 -5.41495e-06 -0.000321836)
(0.0015148 0.000127092 -0.000321836)
(0.00149796 0.000258633 -0.000321836)
(0.00146971 0.000388204 -0.000321836)
(0.00143029 0.000514821 -0.000321836)
(0.00137997 0.000637519 -0.000321837)
(0.00131916 0.000755366 -0.000321837)
(0.00124831 0.000867465 -0.000321837)
(0.00116795 0.000972961 -0.000321837)
(0.00107871 0.00107105 -0.000321837)
(0.000981254 0.00116099 -0.000321837)
(0.000876334 0.0012421 -0.000321837)
(0.000764743 0.00131375 -0.000321837)
(0.000647332 0.0013754 -0.000321837)
(0.000524996 0.00142658 -0.000321836)
(0.000398663 0.00146691 -0.000321836)
(0.000269297 0.00149608 -0.000321836)
(0.00013788 0.00151385 -0.000321835)
(5.41495e-06 0.00152011 -0.000321836)
(-0.000127092 0.0015148 -0.000321836)
(-0.000258633 0.00149796 -0.000321836)
(-0.000388204 0.00146971 -0.000321836)
(-0.000514821 0.00143029 -0.000321836)
(-0.000637519 0.00137997 -0.000321837)
(-0.000755366 0.00131916 -0.000321837)
(-0.000867465 0.00124831 -0.000321837)
(-0.00101674 0.00135195 -0.000176004)
(-0.0011307 0.00125819 -0.000176003)
(-0.00123606 0.00115485 -0.000176003)
(-0.00133201 0.00104273 -0.000176003)
(-0.00141782 0.00092267 -0.000176004)
(-0.00149284 0.000795589 -0.000176004)
(-0.0015565 0.000662452 -0.000176004)
(-0.00160831 0.000524274 -0.000176004)
(-0.00164789 0.000382105 -0.000176004)
(-0.00167492 0.000237028 -0.000176003)
(-0.0016892 9.01472e-05 -0.000176003)
(-0.00169063 -5.74198e-05 -0.000176003)
(-0.00167919 -0.00020455 -0.000176003)
(-0.00165497 -0.000350122 -0.000176003)
(-0.00161816 -0.00049303 -0.000176003)
(-0.00156903 -0.000632186 -0.000176003)
(-0.00150796 -0.000766531 -0.000176003)
(-0.00143542 -0.000895043 -0.000176004)
(-0.00135195 -0.00101674 -0.000176004)
(-0.00125819 -0.0011307 -0.000176003)
(-0.00115485 -0.00123606 -0.000176003)
(-0.00104273 -0.00133201 -0.000176003)
(-0.00092267 -0.00141782 -0.000176004)
(-0.000795589 -0.00149284 -0.000176004)
(-0.000662452 -0.0015565 -0.000176004)
(-0.000524274 -0.00160831 -0.000176004)
(-0.000382105 -0.00164789 -0.000176004)
(-0.000237028 -0.00167492 -0.000176003)
(-9.01472e-05 -0.0016892 -0.000176003)
(5.74198e-05 -0.00169063 -0.000176003)
(0.00020455 -0.00167919 -0.000176003)
(0.000350122 -0.00165497 -0.000176003)
(0.00049303 -0.00161816 -0.000176003)
(0.000632186 -0.00156903 -0.000176003)
(0.000766531 -0.00150796 -0.000176003)
(0.000895043 -0.00143542 -0.000176004)
(0.00101674 -0.00135195 -0.000176004)
(0.0011307 -0.00125819 -0.000176003)
(0.00123606 -0.00115485 -0.000176003)
(0.00133201 -0.00104273 -0.000176003)
(0.00141782 -0.00092267 -0.000176004)
(0.00149284 -0.000795589 -0.000176004)
(0.0015565 -0.000662452 -0.000176004)
(0.00160831 -0.000524274 -0.000176004)
(0.00164789 -0.000382105 -0.000176004)
(0.00167492 -0.000237028 -0.000176003)
(0.0016892 -9.01472e-05 -0.000176003)
(0.00169063 5.74198e-05 -0.000176003)
(0.00167919 0.00020455 -0.000176003)
(0.00165497 0.000350122 -0.000176003)
(0.00161816 0.00049303 -0.000176003)
(0.00156903 0.000632186 -0.000176003)
(0.00150796 0.000766531 -0.000176003)
(0.00143542 0.000895043 -0.000176004)
(0.00135195 0.00101674 -0.000176004)
(0.00125819 0.0011307 -0.000176003)
(0.00115485 0.00123606 -0.000176003)
(0.00104273 0.00133201 -0.000176003)
(0.00092267 0.00141782 -0.000176004)
(0.000795589 0.00149284 -0.000176004)
(0.000662452 0.0015565 -0.000176004)
(0.000524274 0.00160831 -0.000176004)
(0.000382105 0.00164789 -0.000176004)
(0.000237028 0.00167492 -0.000176003)
(9.01472e-05 0.0016892 -0.000176003)
(-5.74198e-05 0.00169063 -0.000176003)
(-0.00020455 0.00167919 -0.000176003)
(-0.000350122 0.00165497 -0.000176003)
(-0.00049303 0.00161816 -0.000176003)
(-0.000632186 0.00156903 -0.000176003)
(-0.000766531 0.00150796 -0.000176003)
(-0.000895043 0.00143542 -0.000176004)
(-0.00120642 0.00146988 -0.000694133)
(-0.00132994 0.00135914 -0.000694134)
(-0.00144333 0.00123806 -0.000694135)
(-0.00154574 0.00110755 -0.000694135)
(-0.00163639 0.000968616 -0.000694134)
(-0.00171458 0.000822309 -0.000694134)
(-0.00177973 0.000669745 -0.000694132)
(-0.00183133 0.000512083 -0.000694132)
(-0.00186899 0.000350524 -0.000694132)
(-0.00189243 0.000186296 -0.000694133)
(-0.00190146 2.0651e-05 -0.000694133)
(-0.00189603 -0.00014515 -0.000694132)
(-0.00187616 -0.000309848 -0.000694132)
(-0.00184202 -0.000472187 -0.000694132)
(-0.00179385 -0.000630933 -0.000694132)
(-0.00173204 -0.000784877 -0.000694132)
(-0.00165704 -0.000932847 -0.000694133)
(-0.00156943 -0.00107372 -0.000694133)
(-0.00146988 -0.00120642 -0.000694133)
(-0.00135914 -0.00132994 -0.000694134)
(-0.00123806 -0.00144333 -0.000694135)
(-0.00110755 -0.00154574 -0.000694135)
(-0.000968616 -0.00163639 -0.000694134)
(-0.000822309 -0.00171458 -0.000694134)
(-0.000669745 -0.00177973 -0.000694132)
(-0.000512083 -0.00183133 -0.000694132)
(-0.000350524 -0.00186899 -0.000694132)
(-0.000186296 -0.00189243 -0.000694133)
(-2.0651e-05 -0.00190146 -0.000694133)
(0.00014515 -0.00189603 -0.000694133)
(0.000309848 -0.00187616 -0.000694132)
(0.000472187 -0.00184202 -0.000694132)
(0.000630933 -0.00179385 -0.000694132)
(0.000784877 -0.00173204 -0.000694132)
(0.000932847 -0.00165704 -0.000694133)
(0.00107372 -0.00156943 -0.000694133)
(0.00120642 -0.00146988 -0.000694133)
(0.00132994 -0.00135914 -0.000694134)
(0.00144333 -0.00123806 -0.000694135)
(0.00154574 -0.00110755 -0.000694135)
(0.00163639 -0.000968616 -0.000694134)
(0.00171458 -0.000822309 -0.000694134)
(0.00177973 -0.000669745 -0.000694132)
(0.00183133 -0.000512083 -0.000694132)
(0.00186899 -0.000350524 -0.000694132)
(0.00189243 -0.000186296 -0.000694133)
(0.00190146 -2.0651e-05 -0.000694133)
(0.00189603 0.00014515 -0.000694133)
(0.00187616 0.000309848 -0.000694132)
(0.00184202 0.000472187 -0.000694132)
(0.00179385 0.000630933 -0.000694132)
(0.00173204 0.000784877 -0.000694132)
(0.00165704 0.000932847 -0.000694133)
(0.00156943 0.00107372 -0.000694133)
(0.00146988 0.00120642 -0.000694133)
(0.00135914 0.00132994 -0.000694134)
(0.00123806 0.00144333 -0.000694135)
(0.00110755 0.00154574 -0.000694135)
(0.000968616 0.00163639 -0.000694134)
(0.000822309 0.00171458 -0.000694134)
(0.000669745 0.00177973 -0.000694132)
(0.000512083 0.00183133 -0.000694132)
(0.000350524 0.00186899 -0.000694132)
(0.000186296 0.00189243 -0.000694133)
(2.0651e-05 0.00190146 -0.000694133)
(-0.00014515 0.00189603 -0.000694133)
(-0.000309848 0.00187616 -0.000694132)
(-0.000472187 0.00184202 -0.000694132)
(-0.000630933 0.00179385 -0.000694132)
(-0.000784877 0.00173204 -0.000694132)
(-0.000932847 0.00165704 -0.000694133)
(-0.00107372 0.00156943 -0.000694133)
(-0.00125245 0.00167082 -0.000512663)
(-0.0013933 0.0015553 -0.000512663)
(-0.00152355 0.00142795 -0.000512663)
(-0.00164221 0.00128973 -0.000512664)
(-0.00174837 0.00114169 -0.000512664)
(-0.00184122 0.00098497 -0.000512663)
(-0.00192006 0.000820748 -0.000512662)
(-0.00198429 0.000650281 -0.000512662)
(-0.00203341 0.000474865 -0.000512662)
(-0.00206706 0.000295835 -0.000512662)
(-0.00208498 0.000114553 -0.000512662)
(-0.00208703 -6.76008e-05 -0.000512662)
(-0.00207319 -0.00024924 -0.000512662)
(-0.00204358 -0.000428982 -0.000512662)
(-0.00199842 -0.00060546 -0.000512662)
(-0.00193804 -0.00077733 -0.000512662)
(-0.00186292 -0.000943284 -0.000512663)
(-0.00177362 -0.00110206 -0.000512663)
(-0.00167082 -0.00125245 -0.000512663)
(-0.0015553 -0.0013933 -0.000512663)
(-0.00142795 -0.00152355 -0.000512663)