/*--------------------------------*- C++ -*----------------------------------*\
| =========                 |                                                 |
| \\      /  F ield         | OpenFOAM: The Open Source CFD Toolbox           |
|  \\    /   O peration     | Version:  2312                                  |
|   \\  /    A nd           | Website:  www.openfoam.com                      |
|    \\/     M anipulation  |                                                 |
\*---------------------------------------------------------------------------*/
FoamFile
{
    version     2.0;
    format      ascii;
    arch        "LSB;label=32;scalar=64";
    class       volVectorField;
    location    "0.3";
    object      D_0;
}
// * * * * * * * * * * * * * * * * * * * * * * * * * * * * * * * * * * * * * //

dimensions      [0 1 0 0 0 0 0];

internalField   nonuniform List<vector> 
3240
(
(-0.000250504 0.000193093 -9.39374e-05)
(-0.00026638 0.000170526 -9.3937e-05)
(-0.000280228 0.000146661 -9.39379e-05)
(-0.000291944 0.000121678 -9.39379e-05)
(-0.000301439 9.57705e-05 -9.39377e-05)
(-0.000308639 6.91338e-05 -9.39373e-05)
(-0.00031349 4.19719e-05 -9.39363e-05)
(-0.000315955 1.44901e-05 -9.39363e-05)
(-0.000316016 -1.31016e-05 -9.39369e-05)
(-0.000313671 -4.05942e-05 -9.39376e-05)
(-0.000308939 -6.77783e-05 -9.39379e-05)
(-0.000301856 -9.44469e-05 -9.39381e-05)
(-0.000292476 -0.000120397 -9.39374e-05)
(-0.00028087 -0.00014543 -9.3937e-05)
(-0.000267126 -0.000169354 -9.39363e-05)
(-0.00025135 -0.000191992 -9.39371e-05)
(-0.00023366 -0.000213168 -9.39381e-05)
(-0.000214192 -0.000232722 -9.39374e-05)
(-0.000193093 -0.000250504 -9.39374e-05)
(-0.000170526 -0.00026638 -9.3937e-05)
(-0.000146661 -0.000280228 -9.39379e-05)
(-0.000121678 -0.000291944 -9.39379e-05)
(-9.57705e-05 -0.000301439 -9.39377e-05)
(-6.91338e-05 -0.000308639 -9.39373e-05)
(-4.19719e-05 -0.00031349 -9.39363e-05)
(-1.44901e-05 -0.000315955 -9.39363e-05)
(1.31016e-05 -0.000316016 -9.39369e-05)
(4.05942e-05 -0.000313671 -9.39376e-05)
(6.77783e-05 -0.000308939 -9.39379e-05)
(9.44469e-05 -0.000301856 -9.3938e-05)
(0.000120397 -0.000292476 -9.39374e-05)
(0.000145429 -0.00028087 -9.3937e-05)
(0.000169354 -0.000267126 -9.39363e-05)
(0.000191992 -0.00025135 -9.39371e-05)
(0.000213168 -0.00023366 -9.39381e-05)
(0.000232722 -0.000214192 -9.39374e-05)
(0.000250504 -0.000193093 -9.39374e-05)
(0.00026638 -0.000170526 -9.3937e-05)
(0.000280228 -0.000146661 -9.39379e-05)
(0.000291944 -0.000121678 -9.39379e-05)
(0.000301439 -9.57705e-05 -9.39377e-05)
(0.000308639 -6.91338e-05 -9.39373e-05)
(0.00031349 -4.19719e-05 -9.39363e-05)
(0.000315955 -1.44901e-05 -9.39363e-05)
(0.000316016 1.31016e-05 -9.39369e-05)
(0.000313671 4.05942e-05 -9.39376e-05)
(0.000308939 6.77783e-05 -9.39379e-05)
(0.000301856 9.44469e-05 -9.39381e-05)
(0.000292476 0.000120397 -9.39374e-05)
(0.00028087 0.00014543 -9.3937e-05)
(0.000267126 0.000169354 -9.39363e-05)
(0.00025135 0.000191992 -9.39371e-05)
(0.00023366 0.000213168 -9.39381e-05)
(0.000214192 0.000232722 -9.39374e-05)
(0.000193093 0.000250504 -9.39374e-05)
(0.000170526 0.00026638 -9.3937e-05)
(0.000146661 0.000280228 -9.39379e-05)
(0.000121678 0.000291944 -9.39379e-05)
(9.57705e-05 0.000301439 -9.39377e-05)
(6.91338e-05 0.000308639 -9.39373e-05)
(4.19719e-05 0.00031349 -9.39363e-05)
(1.44901e-05 0.000315955 -9.39363e-05)
(-1.31016e-05 0.000316016 -9.39369e-05)
(-4.05942e-05 0.000313671 -9.39376e-05)
(-6.77783e-05 0.000308939 -9.39379e-05)
(-9.44469e-05 0.000301856 -9.39381e-05)
(-0.000120397 0.000292476 -9.39374e-05)
(-0.00014543 0.00028087 -9.3937e-05)
(-0.000169354 0.000267126 -9.39363e-05)
(-0.000191992 0.00025135 -9.39371e-05)
(-0.000213168 0.00023366 -9.39381e-05)
(-0.000232722 0.000214192 -9.39374e-05)
(-0.000204129 0.000221748 -4.83141e-05)
(-0.000222679 0.000203114 -4.83138e-05)
(-0.000239534 0.000182933 -4.83142e-05)
(-0.000254566 0.000161359 -4.8314e-05)
(-0.000267661 0.000138558 -4.8314e-05)
(-0.000278719 0.000114703 -4.83139e-05)
(-0.000287655 8.99745e-05 -4.83136e-05)
(-0.000294402 6.45617e-05 -4.83133e-05)
(-0.000298909 3.86579e-05 -4.83134e-05)
(-0.000301141 1.24592e-05 -4.8314e-05)
(-0.000301081 -1.38348e-05 -4.83141e-05)
(-0.00029873 -4.00235e-05 -4.8314e-05)
(-0.000294105 -6.59076e-05 -4.83138e-05)
(-0.000287241 -9.12895e-05 -4.83137e-05)
(-0.000278192 -0.000115976 -4.83137e-05)
(-0.000267025 -0.000139781 -4.83138e-05)
(-0.000253826 -0.000162522 -4.83142e-05)
(-0.000238695 -0.000184026 -4.8314e-05)
(-0.000221748 -0.000204129 -4.83141e-05)
(-0.000203114 -0.000222679 -4.83138e-05)
(-0.000182933 -0.000239534 -4.83142e-05)
(-0.000161359 -0.000254566 -4.8314e-05)
(-0.000138558 -0.000267661 -4.8314e-05)
(-0.000114703 -0.000278719 -4.83139e-05)
(-8.99745e-05 -0.000287655 -4.83136e-05)
(-6.45617e-05 -0.000294402 -4.83133e-05)
(-3.86579e-05 -0.000298909 -4.83134e-05)
(-1.24592e-05 -0.000301141 -4.8314e-05)
(1.38348e-05 -0.000301081 -4.83141e-05)
(4.00235e-05 -0.00029873 -4.8314e-05)
(6.59076e-05 -0.000294105 -4.83138e-05)
(9.12895e-05 -0.000287241 -4.83136e-05)
(0.000115976 -0.000278192 -4.83137e-05)
(0.000139781 -0.000267025 -4.83138e-05)
(0.000162522 -0.000253826 -4.83142e-05)
(0.000184026 -0.000238695 -4.8314e-05)
(0.000204129 -0.000221748 -4.83141e-05)
(0.000222679 -0.000203114 -4.83138e-05)
(0.000239534 -0.000182933 -4.83142e-05)
(0.000254566 -0.000161359 -4.8314e-05)
(0.000267661 -0.000138558 -4.8314e-05)
(0.000278719 -0.000114703 -4.83139e-05)
(0.000287655 -8.99745e-05 -4.83136e-05)
(0.000294402 -6.45617e-05 -4.83133e-05)
(0.000298909 -3.86579e-05 -4.83134e-05)
(0.000301141 -1.24592e-05 -4.8314e-05)
(0.000301081 1.38348e-05 -4.83141e-05)
(0.00029873 4.00235e-05 -4.8314e-05)
(0.000294105 6.59076e-05 -4.83138e-05)
(0.000287241 9.12895e-05 -4.83136e-05)
(0.000278192 0.000115976 -4.83137e-05)
(0.000267025 0.000139781 -4.83138e-05)
(0.000253826 0.000162522 -4.83142e-05)
(0.000238695 0.000184026 -4.8314e-05)
(0.000221748 0.000204129 -4.83141e-05)
(0.000203114 0.000222679 -4.83138e-05)
(0.000182933 0.000239534 -4.83142e-05)
(0.000161359 0.000254566 -4.8314e-05)
(0.000138558 0.000267661 -4.8314e-05)
(0.000114703 0.000278719 -4.83139e-05)
(8.99745e-05 0.000287655 -4.83136e-05)
(6.45617e-05 0.000294402 -4.83133e-05)
(3.86579e-05 0.000298909 -4.83134e-05)
(1.24592e-05 0.000301141 -4.8314e-05)
(-1.38348e-05 0.000301081 -4.83141e-05)
(-4.00235e-05 0.00029873 -4.8314e-05)
(-6.59076e-05 0.000294105 -4.83138e-05)
(-9.12895e-05 0.000287241 -4.83136e-05)
(-0.000115976 0.000278192 -4.83137e-05)
(-0.000139781 0.000267025 -4.83138e-05)
(-0.000162522 0.000253826 -4.83142e-05)
(-0.000184026 0.000238695 -4.8314e-05)
(-0.000176349 0.000267272 -1.939e-06)
(-0.000198972 0.000250885 -1.93888e-06)
(-0.000220081 0.000232589 -1.93861e-06)
(-0.000239515 0.000212522 -1.93883e-06)
(-0.000257127 0.000190839 -1.93904e-06)
(-0.00027278 0.000167702 -1.93902e-06)
(-0.000286358 0.000143289 -1.93876e-06)
(-0.000297757 0.000117787 -1.93899e-06)
(-0.000306891 9.13882e-05 -1.9389e-06)
(-0.000313688 6.42931e-05 -1.93913e-06)
(-0.000318097 3.67083e-05 -1.93893e-06)
(-0.000320086 8.84439e-06 -1.93875e-06)
(-0.000319639 -1.9087e-05 -1.93858e-06)
(-0.00031676 -4.68728e-05 -1.93894e-06)
(-0.000311469 -7.43015e-05 -1.93932e-06)
(-0.000303808 -0.000101165 -1.93921e-06)
(-0.000293834 -0.000127258 -1.93898e-06)
(-0.000281625 -0.000152383 -1.93894e-06)
(-0.000267272 -0.000176349 -1.939e-06)
(-0.000250885 -0.000198972 -1.93888e-06)
(-0.000232589 -0.000220081 -1.93861e-06)
(-0.000212522 -0.000239515 -1.93883e-06)
(-0.000190839 -0.000257127 -1.93904e-06)
(-0.000167702 -0.00027278 -1.93902e-06)
(-0.000143289 -0.000286358 -1.93876e-06)
(-0.000117787 -0.000297757 -1.93899e-06)
(-9.13882e-05 -0.000306891 -1.93891e-06)
(-6.42931e-05 -0.000313688 -1.93914e-06)
(-3.67083e-05 -0.000318097 -1.93894e-06)
(-8.84439e-06 -0.000320086 -1.93875e-06)
(1.9087e-05 -0.000319639 -1.93858e-06)
(4.68728e-05 -0.00031676 -1.93894e-06)
(7.43015e-05 -0.000311469 -1.93932e-06)
(0.000101165 -0.000303808 -1.93921e-06)
(0.000127258 -0.000293834 -1.93898e-06)
(0.000152383 -0.000281625 -1.93893e-06)
(0.000176349 -0.000267272 -1.939e-06)
(0.000198972 -0.000250885 -1.93888e-06)
(0.000220081 -0.000232589 -1.93861e-06)
(0.000239515 -0.000212522 -1.93883e-06)
(0.000257127 -0.000190839 -1.93905e-06)
(0.00027278 -0.000167702 -1.93902e-06)
(0.000286358 -0.000143289 -1.93877e-06)
(0.000297757 -0.000117787 -1.939e-06)
(0.000306891 -9.13882e-05 -1.93892e-06)
(0.000313688 -6.42931e-05 -1.93914e-06)
(0.000318097 -3.67083e-05 -1.93894e-06)
(0.000320086 -8.84439e-06 -1.93875e-06)
(0.000319639 1.9087e-05 -1.93858e-06)
(0.00031676 4.68728e-05 -1.93894e-06)
(0.000311469 7.43015e-05 -1.93932e-06)
(0.000303808 0.000101165 -1.93921e-06)
(0.000293834 0.000127258 -1.93898e-06)
(0.000281625 0.000152383 -1.93893e-06)
(0.000267272 0.000176349 -1.93899e-06)
(0.000250885 0.000198972 -1.93887e-06)
(0.000232589 0.000220081 -1.93861e-06)
(0.000212522 0.000239515 -1.93883e-06)
(0.000190839 0.000257127 -1.93905e-06)
(0.000167702 0.00027278 -1.93903e-06)
(0.000143289 0.000286358 -1.93877e-06)
(0.000117787 0.000297757 -1.939e-06)
(9.13882e-05 0.000306891 -1.93892e-06)
(6.42931e-05 0.000313688 -1.93915e-06)
(3.67083e-05 0.000318097 -1.93895e-06)
(8.8444e-06 0.000320086 -1.93876e-06)
(-1.9087e-05 0.000319639 -1.93859e-06)
(-4.68728e-05 0.00031676 -1.93894e-06)
(-7.43015e-05 0.000311469 -1.93932e-06)
(-0.000101165 0.000303808 -1.93922e-06)
(-0.000127258 0.000293834 -1.93899e-06)
(-0.000152383 0.000281625 -1.93894e-06)
(-0.000622145 0.000582042 -0.000274514)
(-0.000670505 0.000525603 -0.000274514)
(-0.000713762 0.000465164 -0.000274515)
(-0.000751589 0.000401185 -0.000274515)
(-0.000783695 0.000334153 -0.000274515)
(-0.000809837 0.000264579 -0.000274513)
(-0.000829815 0.00019299 -0.000274511)
(-0.000843477 0.000119934 -0.000274511)
(-0.00085072 4.59644e-05 -0.000274511)
(-0.000851488 -2.83549e-05 -0.000274511)
(-0.000845777 -0.000102459 -0.000274513)
(-0.000833628 -0.000175784 -0.000274514)
(-0.000815135 -0.000247772 -0.000274514)
(-0.000790439 -0.000317874 -0.000274513)
(-0.000759727 -0.000385554 -0.000274513)
(-0.000723232 -0.000450301 -0.000274513)
(-0.000681233 -0.000511622 -0.000274515)
(-0.00063405 -0.00056905 -0.000274514)
(-0.000582042 -0.000622145 -0.000274514)
(-0.000525603 -0.000670505 -0.000274514)
(-0.000465164 -0.000713762 -0.000274515)
(-0.000401185 -0.000751589 -0.000274515)
(-0.000334153 -0.000783695 -0.000274515)
(-0.000264579 -0.000809837 -0.000274513)
(-0.00019299 -0.000829815 -0.000274512)
(-0.000119934 -0.000843477 -0.000274511)
(-4.59644e-05 -0.00085072 -0.000274511)
(2.83549e-05 -0.000851488 -0.000274512)
(0.000102459 -0.000845777 -0.000274513)
(0.000175784 -0.000833628 -0.000274514)
(0.000247772 -0.000815135 -0.000274514)
(0.000317874 -0.000790439 -0.000274513)
(0.000385554 -0.000759727 -0.000274513)
(0.000450301 -0.000723232 -0.000274513)
(0.000511622 -0.000681233 -0.000274515)
(0.00056905 -0.00063405 -0.000274514)
(0.000622145 -0.000582042 -0.000274514)
(0.000670505 -0.000525603 -0.000274514)
(0.000713762 -0.000465164 -0.000274515)
(0.000751589 -0.000401185 -0.000274515)
(0.000783695 -0.000334153 -0.000274515)
(0.000809837 -0.000264578 -0.000274513)
(0.000829815 -0.00019299 -0.000274512)
(0.000843477 -0.000119934 -0.000274511)
(0.00085072 -4.59644e-05 -0.000274511)
(0.000851488 2.83549e-05 -0.000274512)
(0.000845777 0.000102459 -0.000274513)
(0.000833628 0.000175784 -0.000274514)
(0.000815135 0.000247772 -0.000274514)
(0.000790439 0.000317874 -0.000274513)
(0.000759727 0.000385554 -0.000274513)
(0.000723232 0.000450301 -0.000274513)
(0.000681233 0.000511622 -0.000274515)
(0.00063405 0.00056905 -0.000274514)
(0.000582042 0.000622145 -0.000274514)
(0.000525603 0.000670505 -0.000274514)
(0.000465164 0.000713762 -0.000274515)
(0.000401185 0.000751589 -0.000274515)
(0.000334153 0.000783695 -0.000274515)
(0.000264578 0.000809837 -0.000274513)
(0.00019299 0.000829815 -0.000274512)
(0.000119934 0.000843477 -0.000274511)
(4.59644e-05 0.00085072 -0.000274511)
(-2.83549e-05 0.000851488 -0.000274512)
(-0.000102459 0.000845777 -0.000274513)
(-0.000175784 0.000833628 -0.000274514)
(-0.000247772 0.000815135 -0.000274514)
(-0.000317874 0.000790439 -0.000274513)
(-0.000385554 0.000759727 -0.000274513)
(-0.000450301 0.000723232 -0.000274513)
(-0.000511622 0.000681233 -0.000274515)
(-0.00056905 0.00063405 -0.000274514)
(-0.000600415 0.000680123 -0.000162536)
(-0.000657406 0.000625206 -0.000162536)
(-0.000709394 0.000565529 -0.000162536)
(-0.000755984 0.000501549 -0.000162536)
(-0.000796821 0.000433753 -0.000162536)
(-0.000831593 0.000362655 -0.000162536)
(-0.000860036 0.000288797 -0.000162535)
(-0.000881933 0.000212742 -0.000162535)
(-0.000897119 0.000135067 -0.000162534)
(-0.000905477 5.6364e-05 -0.000162534)
(-0.000906944 -2.27683e-05 -0.000162535)
(-0.000901509 -0.000101728 -0.000162535)
(-0.000889211 -0.000179913 -0.000162536)
(-0.000870148 -0.000256728 -0.000162535)
(-0.000844461 -0.000331589 -0.000162535)
(-0.000812347 -0.000403926 -0.000162536)
(-0.000774051 -0.00047319 -0.000162536)
(-0.000729864 -0.000538853 -0.000162536)
(-0.000680123 -0.000600415 -0.000162536)
(-0.000625206 -0.000657406 -0.000162536)
(-0.000565529 -0.000709394 -0.000162536)
(-0.000501549 -0.000755984 -0.000162536)
(-0.000433753 -0.000796821 -0.000162536)
(-0.000362655 -0.000831593 -0.000162536)
(-0.000288797 -0.000860036 -0.000162535)
(-0.000212742 -0.000881933 -0.000162535)
(-0.000135067 -0.000897119 -0.000162534)
(-5.6364e-05 -0.000905477 -0.000162534)
(2.27683e-05 -0.000906944 -0.000162535)
(0.000101728 -0.000901509 -0.000162535)
(0.000179913 -0.000889211 -0.000162536)
(0.000256728 -0.000870148 -0.000162535)
(0.000331589 -0.000844461 -0.000162535)
(0.000403926 -0.000812347 -0.000162536)
(0.00047319 -0.000774051 -0.000162536)
(0.000538853 -0.000729864 -0.000162536)
(0.000600415 -0.000680123 -0.000162536)
(0.000657406 -0.000625206 -0.000162536)
(0.000709394 -0.000565529 -0.000162536)
(0.000755984 -0.000501549 -0.000162536)
(0.000796821 -0.000433753 -0.000162536)
(0.000831593 -0.000362655 -0.000162536)
(0.000860036 -0.000288797 -0.000162535)
(0.000881933 -0.000212742 -0.000162535)
(0.000897119 -0.000135067 -0.000162534)
(0.000905477 -5.6364e-05 -0.000162534)
(0.000906944 2.27683e-05 -0.000162535)
(0.000901509 0.000101728 -0.000162535)
(0.000889211 0.000179913 -0.000162536)
(0.000870148 0.000256728 -0.000162535)
(0.000844461 0.000331589 -0.000162535)
(0.000812347 0.000403926 -0.000162536)
(0.000774051 0.00047319 -0.000162536)
(0.000729864 0.000538853 -0.000162536)
(0.000680123 0.000600415 -0.000162536)
(0.000625206 0.000657406 -0.000162536)
(0.000565529 0.000709394 -0.000162536)
(0.000501549 0.000755984 -0.000162536)
(0.000433753 0.000796821 -0.000162536)
(0.000362655 0.000831593 -0.000162536)
(0.000288797 0.000860036 -0.000162535)
(0.000212742 0.000881933 -0.000162535)
(0.000135067 0.000897119 -0.000162534)
(5.6364e-05 0.000905477 -0.000162534)
(-2.27683e-05 0.000906944 -0.000162535)
(-0.000101728 0.000901509 -0.000162535)
(-0.000179913 0.000889211 -0.000162536)
(-0.000256728 0.000870148 -0.000162535)
(-0.000331589 0.000844461 -0.000162535)
(-0.000403926 0.000812347 -0.000162536)
(-0.00047319 0.000774051 -0.000162536)
(-0.000538853 0.000729864 -0.000162536)
(-0.000603689 0.000806561 -5.3726e-05)
(-0.000671689 0.000750877 -5.37256e-05)
(-0.000734575 0.000689477 -5.37251e-05)
(-0.000791872 0.000622831 -5.37254e-05)
(-0.000843142 0.000551445 -5.37254e-05)
(-0.000887995 0.000475862 -5.37255e-05)
(-0.00092609 0.000396658 -5.37255e-05)
(-0.000957136 0.000314434 -5.37256e-05)
(-0.000980899 0.000229819 -5.37254e-05)
(-0.000997197 0.000143453 -5.37247e-05)
(-0.0010059 5.59948e-05 -5.37245e-05)
(-0.00100696 -3.18892e-05 -5.3725e-05)
(-0.00100035 -0.00011953 -5.37253e-05)
(-0.000986123 -0.000206261 -5.37258e-05)
(-0.000964394 -0.000291422 -5.37259e-05)
(-0.000935324 -0.000374365 -5.37255e-05)
(-0.000899137 -0.00045446 -5.37257e-05)
(-0.000856106 -0.000531096 -5.37256e-05)
(-0.000806561 -0.000603689 -5.3726e-05)
(-0.000750877 -0.000671688 -5.37256e-05)
(-0.000689477 -0.000734575 -5.37251e-05)
(-0.000622831 -0.000791872 -5.37254e-05)
(-0.000551445 -0.000843142 -5.37254e-05)
(-0.000475862 -0.000887995 -5.37255e-05)
(-0.000396658 -0.00092609 -5.37255e-05)
(-0.000314435 -0.000957136 -5.37256e-05)
(-0.000229819 -0.000980899 -5.37254e-05)
(-0.000143453 -0.000997197 -5.37247e-05)
(-5.59948e-05 -0.00100591 -5.37246e-05)
(3.18892e-05 -0.00100696 -5.37251e-05)
(0.00011953 -0.00100035 -5.37254e-05)
(0.000206261 -0.000986123 -5.37258e-05)
(0.000291422 -0.000964394 -5.37259e-05)
(0.000374365 -0.000935324 -5.37255e-05)
(0.00045446 -0.000899137 -5.37257e-05)
(0.000531096 -0.000856106 -5.37256e-05)
(0.000603689 -0.000806561 -5.3726e-05)
(0.000671688 -0.000750877 -5.37256e-05)
(0.000734575 -0.000689477 -5.37251e-05)
(0.000791872 -0.000622831 -5.37254e-05)
(0.000843142 -0.000551445 -5.37254e-05)
(0.000887995 -0.000475862 -5.37255e-05)
(0.00092609 -0.000396658 -5.37255e-05)
(0.000957136 -0.000314435 -5.37256e-05)
(0.000980899 -0.000229819 -5.37254e-05)
(0.000997197 -0.000143453 -5.37248e-05)
(0.00100591 -5.59948e-05 -5.37246e-05)
(0.00100696 3.18892e-05 -5.37251e-05)
(0.00100035 0.00011953 -5.37254e-05)
(0.000986123 0.000206261 -5.37259e-05)
(0.000964394 0.000291422 -5.37259e-05)
(0.000935324 0.000374365 -5.37255e-05)
(0.000899137 0.00045446 -5.37257e-05)
(0.000856106 0.000531096 -5.37256e-05)
(0.000806561 0.000603689 -5.3726e-05)
(0.000750877 0.000671689 -5.37255e-05)
(0.000689477 0.000734575 -5.37251e-05)
(0.000622831 0.000791872 -5.37254e-05)
(0.000551445 0.000843142 -5.37254e-05)
(0.000475862 0.000887995 -5.37255e-05)
(0.000396658 0.00092609 -5.37255e-05)
(0.000314435 0.000957136 -5.37256e-05)
(0.000229819 0.000980899 -5.37254e-05)
(0.000143453 0.000997197 -5.37248e-05)
(5.59948e-05 0.0010059 -5.37246e-05)
(-3.18892e-05 0.00100696 -5.37251e-05)
(-0.00011953 0.00100035 -5.37254e-05)
(-0.000206261 0.000986123 -5.37259e-05)
(-0.000291422 0.000964394 -5.37259e-05)
(-0.000374365 0.000935324 -5.37256e-05)
(-0.00045446 0.000899137 -5.37257e-05)
(-0.000531096 0.000856106 -5.37256e-05)
(-0.000938995 0.00100109 -0.000468961)
(-0.00102267 0.000915446 -0.000468962)
(-0.00109857 0.00082283 -0.000468962)
(-0.0011661 0.000723953 -0.000468961)
(-0.00122476 0.000619566 -0.000468961)
(-0.0012741 0.000510463 -0.00046896)
(-0.00131374 0.000397476 -0.000468958)
(-0.00134338 0.000281464 -0.000468958)
(-0.0013628 0.00016331 -0.000468958)
(-0.00137185 4.39125e-05 -0.000468958)
(-0.00137046 -7.58187e-05 -0.000468958)
(-0.00135863 -0.000194973 -0.000468959)
(-0.00133647 -0.000312645 -0.000468959)
(-0.00130414 -0.000427936 -0.000468959)
(-0.00126188 -0.000539971 -0.000468959)
(-0.00121001 -0.000647895 -0.000468959)
(-0.00114894 -0.00075089 -0.000468961)
(-0.00107912 -0.00084817 -0.000468962)
(-0.00100109 -0.000938995 -0.000468961)
(-0.000915446 -0.00102267 -0.000468962)
(-0.00082283 -0.00109857 -0.000468962)
(-0.000723953 -0.0011661 -0.000468961)
(-0.000619566 -0.00122476 -0.000468961)
(-0.000510463 -0.0012741 -0.00046896)
(-0.000397476 -0.00131374 -0.000468958)
(-0.000281464 -0.00134338 -0.000468958)
(-0.00016331 -0.0013628 -0.000468958)
(-4.39125e-05 -0.00137185 -0.000468958)
(7.58187e-05 -0.00137046 -0.000468958)
(0.000194973 -0.00135863 -0.000468959)
(0.000312645 -0.00133647 -0.000468959)
(0.000427936 -0.00130414 -0.000468959)
(0.000539971 -0.00126188 -0.000468959)
(0.000647895 -0.00121001 -0.000468959)
(0.00075089 -0.00114894 -0.000468961)
(0.00084817 -0.00107912 -0.000468962)
(0.000938995 -0.00100109 -0.000468961)
(0.00102267 -0.000915446 -0.000468962)
(0.00109857 -0.00082283 -0.000468962)
(0.0011661 -0.000723953 -0.000468961)
(0.00122476 -0.000619566 -0.000468961)
(0.0012741 -0.000510463 -0.00046896)
(0.00131374 -0.000397476 -0.000468958)
(0.00134338 -0.000281464 -0.000468958)
(0.0013628 -0.00016331 -0.000468958)
(0.00137185 -4.39125e-05 -0.000468958)
(0.00137046 7.58187e-05 -0.000468958)
(0.00135863 0.000194973 -0.000468959)
(0.00133647 0.000312645 -0.000468959)
(0.00130414 0.000427936 -0.000468959)
(0.00126188 0.000539971 -0.000468959)
(0.00121001 0.000647895 -0.000468959)
(0.00114894 0.00075089 -0.000468961)
(0.00107912 0.00084817 -0.000468962)
(0.00100109 0.000938995 -0.000468961)
(0.000915446 0.00102267 -0.000468962)
(0.00082283 0.00109857 -0.000468962)
(0.000723953 0.0011661 -0.000468961)
(0.000619566 0.00122476 -0.000468961)
(0.000510463 0.0012741 -0.00046896)
(0.000397476 0.00131374 -0.000468958)
(0.000281464 0.00134338 -0.000468958)
(0.00016331 0.0013628 -0.000468958)
(4.39125e-05 0.00137185 -0.000468958)
(-7.58187e-05 0.00137046 -0.000468958)
(-0.000194973 0.00135863 -0.000468959)
(-0.000312645 0.00133647 -0.000468959)
(-0.000427936 0.00130414 -0.000468959)
(-0.000539971 0.00126188 -0.000468959)
(-0.000647895 0.00121001 -0.000468959)
(-0.00075089 0.00114894 -0.000468961)
(-0.00084817 0.00107912 -0.000468962)
(-0.000951305 0.00116327 -0.000315378)
(-0.00104907 0.00107593 -0.000315378)
(-0.00113885 0.000980402 -0.000315378)
(-0.00121996 0.000877415 -0.000315378)
(-0.00129179 0.000767748 -0.000315378)
(-0.00135379 0.000652239 -0.000315377)
(-0.00140549 0.000531768 -0.000315376)
(-0.00144649 0.000407248 -0.000315376)
(-0.00147648 0.000279629 -0.000315376)
(-0.00149523 0.000149882 -0.000315376)
(-0.0015026 1.89937e-05 -0.000315376)
(-0.00149854 -0.000112039 -0.000315376)
(-0.00148307 -0.00024222 -0.000315377)
(-0.00145632 -0.000370556 -0.000315376)
(-0.00141848 -0.000496072 -0.000315377)
(-0.00136985 -0.000617813 -0.000315377)
(-0.00131079 -0.000734852 -0.000315378)
(-0.00124175 -0.000846299 -0.000315378)
(-0.00116327 -0.000951305 -0.000315378)
(-0.00107593 -0.00104907 -0.000315378)
(-0.000980402 -0.00113885 -0.000315378)
(-0.000877414 -0.00121996 -0.000315378)
(-0.000767748 -0.00129179 -0.000315378)
(-0.000652239 -0.00135379 -0.000315377)
(-0.000531768 -0.00140549 -0.000315376)
(-0.000407248 -0.00144649 -0.000315376)
(-0.000279629 -0.00147648 -0.000315376)
(-0.000149882 -0.00149523 -0.000315376)
(-1.89937e-05 -0.0015026 -0.000315376)
(0.000112039 -0.00149854 -0.000315376)
(0.00024222 -0.00148307 -0.000315377)
(0.000370556 -0.00145632 -0.000315376)
(0.000496072 -0.00141848 -0.000315377)
(0.000617813 -0.00136985 -0.000315377)
(0.000734852 -0.00131079 -0.000315378)
(0.000846299 -0.00124175 -0.000315378)
(0.000951305 -0.00116327 -0.000315378)
(0.00104907 -0.00107593 -0.000315378)
(0.00113885 -0.000980402 -0.000315378)
(0.00121996 -0.000877414 -0.000315378)
(0.00129179 -0.000767748 -0.000315378)
(0.00135379 -0.000652239 -0.000315377)
(0.00140549 -0.000531768 -0.000315376)
(0.00144649 -0.000407248 -0.000315376)
(0.00147648 -0.000279629 -0.000315376)
(0.00149523 -0.000149882 -0.000315376)
(0.0015026 -1.89937e-05 -0.000315376)
(0.00149854 0.000112039 -0.000315376)
(0.00148307 0.00024222 -0.000315377)
(0.00145632 0.000370556 -0.000315376)
(0.00141848 0.000496072 -0.000315377)
(0.00136985 0.000617813 -0.000315377)
(0.00131079 0.000734853 -0.000315378)
(0.00124175 0.000846299 -0.000315378)
(0.00116327 0.000951305 -0.000315378)
(0.00107593 0.00104907 -0.000315378)
(0.000980402 0.00113885 -0.000315378)
(0.000877414 0.00121996 -0.000315378)
(0.000767748 0.00129179 -0.000315378)
(0.000652239 0.00135379 -0.000315377)
(0.000531768 0.00140549 -0.000315376)
(0.000407248 0.00144649 -0.000315376)
(0.000279629 0.00147648 -0.000315376)
(0.000149882 0.00149523 -0.000315376)
(1.89937e-05 0.0015026 -0.000315376)
(-0.000112039 0.00149854 -0.000315376)
(-0.00024222 0.00148307 -0.000315377)
(-0.000370556 0.00145632 -0.000315376)
(-0.000496072 0.00141848 -0.000315377)
(-0.000617813 0.00136985 -0.000315377)
(-0.000734853 0.00131079 -0.000315378)
(-0.000846299 0.00124175 -0.000315378)
(-0.000992923 0.00134033 -0.000172172)
(-0.00110596 0.00124869 -0.000172172)
(-0.00121058 0.00114755 -0.000172172)
(-0.00130599 0.00103767 -0.000172172)
(-0.00139146 0.0009199 -0.000172172)
(-0.00146634 0.000795127 -0.000172172)
(-0.00153006 0.000664301 -0.000172172)
(-0.00158214 0.00052842 -0.000172172)
(-0.00162217 0.000388517 -0.000172172)
(-0.00164986 0.000245657 -0.000172172)
(-0.00166499 0.000100927 -0.000172172)
(-0.00166745 -4.45713e-05 -0.000172172)
(-0.00165722 -0.00018973 -0.000172172)
(-0.00163438 -0.000333444 -0.000172172)
(-0.0015991 -0.000474621 -0.000172172)
(-0.00155165 -0.000612185 -0.000172172)
(-0.00149239 -0.000745091 -0.000172172)
(-0.00142177 -0.000872327 -0.000172172)
(-0.00134033 -0.000992923 -0.000172172)
(-0.00124869 -0.00110596 -0.000172172)
(-0.00114755 -0.00121058 -0.000172172)
(-0.00103767 -0.00130599 -0.000172172)
(-0.0009199 -0.00139146 -0.000172172)
(-0.000795127 -0.00146634 -0.000172172)
(-0.000664301 -0.00153006 -0.000172172)
(-0.00052842 -0.00158214 -0.000172172)
(-0.000388517 -0.00162217 -0.000172172)
(-0.000245657 -0.00164986 -0.000172172)
(-0.000100927 -0.00166499 -0.000172172)
(4.45713e-05 -0.00166745 -0.000172172)
(0.00018973 -0.00165722 -0.000172172)
(0.000333444 -0.00163438 -0.000172172)
(0.000474621 -0.0015991 -0.000172172)
(0.000612185 -0.00155165 -0.000172172)
(0.000745091 -0.00149239 -0.000172172)
(0.000872327 -0.00142177 -0.000172172)
(0.000992923 -0.00134033 -0.000172172)
(0.00110596 -0.00124869 -0.000172172)
(0.00121058 -0.00114755 -0.000172172)
(0.00130599 -0.00103767 -0.000172172)
(0.00139146 -0.0009199 -0.000172172)
(0.00146634 -0.000795127 -0.000172172)
(0.00153006 -0.000664301 -0.000172172)
(0.00158214 -0.00052842 -0.000172172)
(0.00162217 -0.000388517 -0.000172172)
(0.00164986 -0.000245657 -0.000172172)
(0.00166499 -0.000100927 -0.000172172)
(0.00166745 4.45713e-05 -0.000172172)
(0.00165722 0.00018973 -0.000172172)
(0.00163438 0.000333444 -0.000172172)
(0.0015991 0.000474621 -0.000172172)
(0.00155165 0.000612185 -0.000172172)
(0.00149239 0.000745091 -0.000172172)
(0.00142177 0.000872327 -0.000172172)
(0.00134033 0.000992923 -0.000172172)
(0.00124869 0.00110596 -0.000172172)
(0.00114755 0.00121058 -0.000172171)
(0.00103767 0.00130599 -0.000172172)
(0.0009199 0.00139146 -0.000172172)
(0.000795127 0.00146634 -0.000172172)
(0.000664301 0.00153006 -0.000172172)
(0.00052842 0.00158214 -0.000172172)
(0.000388517 0.00162217 -0.000172172)
(0.000245657 0.00164986 -0.000172172)
(0.000100927 0.00166499 -0.000172172)
(-4.45713e-05 0.00166745 -0.000172172)
(-0.00018973 0.00165722 -0.000172172)
(-0.000333444 0.00163438 -0.000172172)
(-0.000474621 0.0015991 -0.000172172)
(-0.000612185 0.00155165 -0.000172172)
(-0.000745091 0.00149239 -0.000172172)
(-0.000872327 0.00142177 -0.000172172)
(-0.00118438 0.00146778 -0.000681286)
(-0.0013078 0.00135897 -0.000681287)
(-0.00142126 0.00123982 -0.000681287)
(-0.00152391 0.00111123 -0.000681287)
(-0.00161496 0.000974183 -0.000681286)
(-0.00169372 0.000829722 -0.000681286)
(-0.00175959 0.000678948 -0.000681284)
(-0.00181207 0.000523006 -0.000681284)
(-0.00185076 0.000363084 -0.000681284)
(-0.00187536 0.000200398 -0.000681285)
(-0.00188569 3.61867e-05 -0.000681285)
(-0.00188167 -0.000128299 -0.000681285)
(-0.00186332 -0.000291809 -0.000681284)
(-0.0018308 -0.000453097 -0.000681284)
(-0.00178434 -0.000610939 -0.000681284)
(-0.00172431 -0.00076413 -0.000681285)
(-0.00165115 -0.000911505 -0.000681285)
(-0.00156542 -0.00105194 -0.000681285)
(-0.00146778 -0.00118438 -0.000681286)
(-0.00135897 -0.00130779 -0.000681286)
(-0.00123982 -0.00142126 -0.000681287)
(-0.00111123 -0.00152391 -0.000681287)
(-0.000974182 -0.00161496 -0.000681286)
(-0.000829722 -0.00169372 -0.000681286)
(-0.000678948 -0.00175959 -0.000681284)
(-0.000523006 -0.00181207 -0.000681284)
(-0.000363084 -0.00185076 -0.000681284)
(-0.000200398 -0.00187536 -0.000681285)
(-3.61867e-05 -0.00188569 -0.000681285)
(0.000128299 -0.00188167 -0.000681285)
(0.000291809 -0.00186332 -0.000681284)
(0.000453097 -0.0018308 -0.000681284)
(0.000610939 -0.00178434 -0.000681284)
(0.00076413 -0.00172431 -0.000681285)
(0.000911505 -0.00165115 -0.000681285)
(0.00105194 -0.00156542 -0.000681285)
(0.00118438 -0.00146778 -0.000681286)
(0.00130779 -0.00135897 -0.000681287)
(0.00142126 -0.00123982 -0.000681287)
(0.00152391 -0.00111123 -0.000681287)
(0.00161496 -0.000974182 -0.000681286)
(0.00169372 -0.000829722 -0.000681286)
(0.00175959 -0.000678948 -0.000681284)
(0.00181207 -0.000523006 -0.000681284)
(0.00185076 -0.000363084 -0.000681284)
(0.00187536 -0.000200398 -0.000681286)
(0.00188569 -3.61867e-05 -0.000681285)
(0.00188167 0.000128299 -0.000681285)
(0.00186332 0.000291809 -0.000681284)
(0.0018308 0.000453097 -0.000681284)
(0.00178434 0.000610939 -0.000681284)
(0.00172431 0.00076413 -0.000681285)
(0.00165115 0.000911505 -0.000681285)
(0.00156542 0.00105194 -0.000681285)
(0.00146778 0.00118438 -0.000681286)
(0.00135897 0.0013078 -0.000681286)
(0.00123982 0.00142126 -0.000681287)
(0.00111123 0.00152391 -0.000681287)
(0.000974182 0.00161496 -0.000681286)
(0.000829722 0.00169372 -0.000681286)
(0.000678948 0.00175959 -0.000681284)
(0.000523006 0.00181207 -0.000681284)
(0.000363084 0.00185076 -0.000681284)
(0.000200398 0.00187536 -0.000681286)
(3.61867e-05 0.00188569 -0.000681285)
(-0.000128299 0.00188167 -0.000681285)
(-0.000291809 0.00186332 -0.000681284)
(-0.000453097 0.0018308 -0.000681284)
(-0.000610939 0.00178434 -0.000681284)
(-0.00076413 0.00172431 -0.000681285)
(-0.000911505 0.00165115 -0.000681285)
(-0.00105194 0.00156542 -0.000681285)
(-0.00122772 0.00166174 -0.000502959)
(-0.00136788 0.00154841 -0.000502959)
(-0.00149762 0.0014233 -0.000502959)
(-0.00161597 0.00128736 -0.000502959)
(-0.00172202 0.00114162 -0.000502959)
(-0.00181497 0.00098719 -0.000502958)
(-0.0018941 0.000825248 -0.000502958)
(-0.00195882 0.000657026 -0.000502958)
(-0.00200863 0.000483804 -0.000502957)
(-0.00204315 0.000306899 -0.000502958)
(-0.00206213 0.000127659 -0.000502958)
(-0.00206541 -5.25533e-05 -0.000502958)
(-0.00205297 -0.000232365 -0.000502958)
(-0.0020249 -0.000410409 -0.000502958)
(-0.00198143 -0.000585329 -0.000502958)
(-0.00192287 -0.000755795 -0.000502958)
(-0.00184968 -0.000920508 -0.000502958)
(-0.00176242 -0.00107822 -0.000502958)
(-0.00166174 -0.00122772 -0.000502959)
(-0.00154841 -0.00136788 -0.000502959)
(-0.0014233 -0.00149762 -0.000502959)