/*--------------------------------*- C++ -*----------------------------------*\
| =========                 |                                                 |
| \\      /  F ield         | OpenFOAM: The Open Source CFD Toolbox           |
|  \\    /   O peration     | Version:  2312                                  |
|   \\  /    A nd           | Website:  www.openfoam.com                      |
|    \\/     M anipulation  |                                                 |
\*---------------------------------------------------------------------------*/
FoamFile
{
    version     2.0;
    format      ascii;
    arch        "LSB;label=32;scalar=64";
    class       volVectorField;
    location    "0.3";
    object      D_0_0_0;
}
// * * * * * * * * * * * * * * * * * * * * * * * * * * * * * * * * * * * * * //

dimensions      [0 1 0 0 0 0 0];

internalField   nonuniform List<vector> 
3240
(
(-0.000237934 0.00019432 -9.00085e-05)
(-0.000253964 0.000172843 -9.00081e-05)
(-0.000268062 0.000150051 -9.00089e-05)
(-0.000280119 0.000126116 -9.00089e-05)
(-0.000290046 0.000101222 -9.00087e-05)
(-0.000297764 7.55577e-05 -9.00083e-05)
(-0.000303217 4.93191e-05 -9.00074e-05)
(-0.000306361 2.27047e-05 -9.00074e-05)
(-0.000307174 -4.08214e-06 -9.0008e-05)
(-0.000305649 -3.08385e-05 -9.00086e-05)
(-0.000301798 -5.73605e-05 -9.00089e-05)
(-0.00029565 -8.34463e-05 -9.0009e-05)
(-0.000287253 -0.000108897 -9.00084e-05)
(-0.000276669 -0.000133518 -9.0008e-05)
(-0.000263979 -0.000157122 -9.00074e-05)
(-0.00024928 -0.000179532 -9.00081e-05)
(-0.000232684 -0.000200575 -9.00091e-05)
(-0.000214318 -0.000220092 -9.00084e-05)
(-0.00019432 -0.000237934 -9.00085e-05)
(-0.000172843 -0.000253964 -9.00081e-05)
(-0.000150051 -0.000268062 -9.00088e-05)
(-0.000126116 -0.000280119 -9.00089e-05)
(-0.000101222 -0.000290046 -9.00087e-05)
(-7.55577e-05 -0.000297764 -9.00083e-05)
(-4.93191e-05 -0.000303217 -9.00074e-05)
(-2.27047e-05 -0.000306361 -9.00074e-05)
(4.08213e-06 -0.000307174 -9.0008e-05)
(3.08385e-05 -0.000305649 -9.00086e-05)
(5.73605e-05 -0.000301798 -9.00089e-05)
(8.34463e-05 -0.00029565 -9.0009e-05)
(0.000108897 -0.000287253 -9.00084e-05)
(0.000133518 -0.000276669 -9.0008e-05)
(0.000157122 -0.000263979 -9.00074e-05)
(0.000179532 -0.00024928 -9.00081e-05)
(0.000200575 -0.000232684 -9.00091e-05)
(0.000220092 -0.000214318 -9.00084e-05)
(0.000237934 -0.00019432 -9.00085e-05)
(0.000253964 -0.000172843 -9.00081e-05)
(0.000268062 -0.000150051 -9.00089e-05)
(0.000280119 -0.000126116 -9.00089e-05)
(0.000290046 -0.000101222 -9.00087e-05)
(0.000297764 -7.55577e-05 -9.00083e-05)
(0.000303217 -4.93191e-05 -9.00074e-05)
(0.000306361 -2.27047e-05 -9.00074e-05)
(0.000307174 4.08214e-06 -9.0008e-05)
(0.000305649 3.08385e-05 -9.00086e-05)
(0.000301798 5.73605e-05 -9.00089e-05)
(0.00029565 8.34463e-05 -9.0009e-05)
(0.000287253 0.000108897 -9.00084e-05)
(0.000276669 0.000133518 -9.0008e-05)
(0.000263979 0.000157122 -9.00074e-05)
(0.00024928 0.000179532 -9.00081e-05)
(0.000232684 0.000200575 -9.00091e-05)
(0.000214318 0.000220092 -9.00084e-05)
(0.00019432 0.000237934 -9.00085e-05)
(0.000172843 0.000253964 -9.00081e-05)
(0.000150051 0.000268062 -9.00089e-05)
(0.000126116 0.000280119 -9.00089e-05)
(0.000101222 0.000290046 -9.00087e-05)
(7.55577e-05 0.000297764 -9.00083e-05)
(4.93191e-05 0.000303217 -9.00074e-05)
(2.27047e-05 0.000306361 -9.00074e-05)
(-4.08214e-06 0.000307174 -9.0008e-05)
(-3.08385e-05 0.000305649 -9.00086e-05)
(-5.73605e-05 0.000301798 -9.00089e-05)
(-8.34463e-05 0.00029565 -9.0009e-05)
(-0.000108897 0.000287253 -9.00084e-05)
(-0.000133518 0.000276669 -9.0008e-05)
(-0.000157122 0.000263979 -9.00074e-05)
(-0.000179532 0.00024928 -9.00081e-05)
(-0.000200575 0.000232684 -9.00091e-05)
(-0.000220092 0.000214318 -9.00084e-05)
(-0.000193555 0.000221309 -4.54275e-05)
(-0.000212107 0.000203597 -4.54273e-05)
(-0.000229044 0.000184336 -4.54276e-05)
(-0.000244238 0.000163672 -4.54275e-05)
(-0.000257574 0.000141762 -4.54274e-05)
(-0.00026895 0.000118774 -4.54273e-05)
(-0.000278278 9.48812e-05 -4.54271e-05)
(-0.000285488 7.0267e-05 -4.54268e-05)
(-0.000290526 4.51184e-05 -4.54269e-05)
(-0.000293353 1.96257e-05 -4.54274e-05)
(-0.000293947 -6.01676e-06 -4.54275e-05)
(-0.000292304 -3.16134e-05 -4.54275e-05)
(-0.000288437 -5.69694e-05 -4.54273e-05)
(-0.000282374 -8.18914e-05 -4.54271e-05)
(-0.000274162 -0.00010619 -4.54272e-05)
(-0.000263864 -0.000129681 -4.54272e-05)
(-0.000251557 -0.000152184 -4.54276e-05)
(-0.000237336 -0.00017353 -4.54275e-05)
(-0.000221309 -0.000193555 -4.54275e-05)
(-0.000203597 -0.000212107 -4.54273e-05)
(-0.000184336 -0.000229044 -4.54276e-05)
(-0.000163672 -0.000244238 -4.54275e-05)
(-0.000141762 -0.000257574 -4.54274e-05)
(-0.000118774 -0.00026895 -4.54273e-05)
(-9.48812e-05 -0.000278278 -4.54271e-05)
(-7.0267e-05 -0.000285488 -4.54268e-05)
(-4.51184e-05 -0.000290526 -4.54269e-05)
(-1.96257e-05 -0.000293353 -4.54274e-05)
(6.01675e-06 -0.000293947 -4.54275e-05)
(3.16134e-05 -0.000292304 -4.54275e-05)
(5.69694e-05 -0.000288437 -4.54273e-05)
(8.18914e-05 -0.000282374 -4.54271e-05)
(0.00010619 -0.000274162 -4.54272e-05)
(0.000129681 -0.000263864 -4.54272e-05)
(0.000152184 -0.000251557 -4.54276e-05)
(0.00017353 -0.000237336 -4.54275e-05)
(0.000193555 -0.000221309 -4.54275e-05)
(0.000212107 -0.000203597 -4.54273e-05)
(0.000229044 -0.000184336 -4.54276e-05)
(0.000244238 -0.000163672 -4.54275e-05)
(0.000257574 -0.000141762 -4.54274e-05)
(0.00026895 -0.000118774 -4.54273e-05)
(0.000278278 -9.48812e-05 -4.54271e-05)
(0.000285488 -7.0267e-05 -4.54268e-05)
(0.000290526 -4.51184e-05 -4.54269e-05)
(0.000293353 -1.96257e-05 -4.54274e-05)
(0.000293947 6.01676e-06 -4.54275e-05)
(0.000292304 3.16134e-05 -4.54275e-05)
(0.000288437 5.69694e-05 -4.54273e-05)
(0.000282374 8.18914e-05 -4.54271e-05)
(0.000274162 0.00010619 -4.54272e-05)
(0.000263864 0.000129681 -4.54272e-05)
(0.000251557 0.000152184 -4.54276e-05)
(0.000237336 0.00017353 -4.54275e-05)
(0.000221309 0.000193555 -4.54275e-05)
(0.000203597 0.000212107 -4.54273e-05)
(0.000184336 0.000229044 -4.54276e-05)
(0.000163672 0.000244238 -4.54275e-05)
(0.000141762 0.000257574 -4.54274e-05)
(0.000118774 0.00026895 -4.54273e-05)
(9.48812e-05 0.000278278 -4.54271e-05)
(7.0267e-05 0.000285488 -4.54268e-05)
(4.51184e-05 0.000290526 -4.54269e-05)
(1.96257e-05 0.000293353 -4.54274e-05)
(-6.01676e-06 0.000293947 -4.54275e-05)
(-3.16134e-05 0.000292304 -4.54275e-05)
(-5.69694e-05 0.000288437 -4.54273e-05)
(-8.18914e-05 0.000282374 -4.54271e-05)
(-0.00010619 0.000274162 -4.54272e-05)
(-0.000129681 0.000263864 -4.54272e-05)
(-0.000152184 0.000251557 -4.54276e-05)
(-0.00017353 0.000237336 -4.54275e-05)
(-0.000167426 0.000262222 -6.2331e-07)
(-0.000189643 0.000246632 -6.23193e-07)
(-0.000210416 0.000229165 -6.22939e-07)
(-0.000229589 0.000209953 -6.2315e-07)
(-0.000247014 0.000189144 -6.23349e-07)
(-0.000262559 0.000166896 -6.23321e-07)
(-0.000276105 0.000143377 -6.23071e-07)
(-0.000287551 0.000118768 -6.23286e-07)
(-0.000296809 9.32548e-05 -6.23211e-07)
(-0.000303807 6.70313e-05 -6.23428e-07)
(-0.000308493 4.02972e-05 -6.23249e-07)
(-0.000310831 1.32568e-05 -6.23078e-07)
(-0.000310803 -1.38847e-05 -6.22922e-07)
(-0.000308411 -4.09203e-05 -6.23262e-07)
(-0.000303671 -6.7644e-05 -6.2362e-07)
(-0.00029662 -9.3853e-05 -6.23517e-07)
(-0.000287311 -0.000119348 -6.233e-07)
(-0.000275816 -0.000143935 -6.23256e-07)
(-0.000262222 -0.000167426 -6.23309e-07)
(-0.000246632 -0.000189643 -6.23192e-07)
(-0.000229165 -0.000210416 -6.22939e-07)
(-0.000209953 -0.000229589 -6.23151e-07)
(-0.000189145 -0.000247014 -6.23352e-07)
(-0.000166896 -0.000262559 -6.23325e-07)
(-0.000143377 -0.000276105 -6.23076e-07)
(-0.000118768 -0.000287551 -6.23293e-07)
(-9.32548e-05 -0.000296809 -6.23218e-07)
(-6.70313e-05 -0.000303807 -6.23434e-07)
(-4.02973e-05 -0.000308493 -6.23253e-07)
(-1.32568e-05 -0.000310831 -6.23079e-07)
(1.38847e-05 -0.000310803 -6.22922e-07)
(4.09203e-05 -0.000308411 -6.23261e-07)
(6.7644e-05 -0.000303671 -6.23618e-07)
(9.3853e-05 -0.00029662 -6.23515e-07)
(0.000119348 -0.000287311 -6.23298e-07)
(0.000143935 -0.000275816 -6.23255e-07)
(0.000167426 -0.000262222 -6.23309e-07)
(0.000189643 -0.000246632 -6.23194e-07)
(0.000210416 -0.000229165 -6.22942e-07)
(0.000229589 -0.000209953 -6.23154e-07)
(0.000247014 -0.000189144 -6.23355e-07)
(0.000262559 -0.000166896 -6.23329e-07)
(0.000276105 -0.000143377 -6.23081e-07)
(0.000287551 -0.000118768 -6.23297e-07)
(0.000296809 -9.32548e-05 -6.23222e-07)
(0.000303807 -6.70313e-05 -6.23438e-07)
(0.000308493 -4.02972e-05 -6.23258e-07)
(0.000310831 -1.32568e-05 -6.23084e-07)
(0.000310803 1.38847e-05 -6.22926e-07)
(0.000308411 4.09203e-05 -6.23264e-07)
(0.000303671 6.7644e-05 -6.23621e-07)
(0.00029662 9.3853e-05 -6.23517e-07)
(0.000287311 0.000119348 -6.23299e-07)
(0.000275816 0.000143935 -6.23255e-07)
(0.000262222 0.000167426 -6.23307e-07)
(0.000246632 0.000189643 -6.23191e-07)
(0.000229165 0.000210416 -6.2294e-07)
(0.000209953 0.000229589 -6.23153e-07)
(0.000189144 0.000247014 -6.23356e-07)
(0.000166896 0.000262559 -6.23331e-07)
(0.000143377 0.000276105 -6.23085e-07)
(0.000118768 0.000287551 -6.23302e-07)
(9.32548e-05 0.000296809 -6.23228e-07)
(6.70313e-05 0.000303807 -6.23444e-07)
(4.02973e-05 0.000308493 -6.23263e-07)
(1.32568e-05 0.000310831 -6.23089e-07)
(-1.38847e-05 0.000310803 -6.2293e-07)
(-4.09203e-05 0.000308411 -6.23267e-07)
(-6.7644e-05 0.000303671 -6.23624e-07)
(-9.3853e-05 0.00029662 -6.2352e-07)
(-0.000119348 0.000287311 -6.23303e-07)
(-0.000143935 0.000275816 -6.23258e-07)
(-0.000592007 0.000585658 -0.000262529)
(-0.000640797 0.000531832 -0.000262529)
(-0.00068471 0.000473959 -0.00026253)
(-0.000723414 0.000412479 -0.00026253)
(-0.000756612 0.000347859 -0.00026253)
(-0.000784051 0.000280593 -0.000262529)
(-0.000805523 0.000211191 -0.000262527)
(-0.000820864 0.000140182 -0.000262526)
(-0.000829957 6.81066e-05 -0.000262526)
(-0.000832735 -4.48751e-06 -0.000262527)
(-0.000829174 -7.70481e-05 -0.000262528)
(-0.000819304 -0.000149023 -0.000262529)
(-0.000803198 -0.000219864 -0.000262529)
(-0.000780979 -0.000289031 -0.000262528)
(-0.000752817 -0.000355997 -0.000262528)
(-0.000718924 -0.000420254 -0.000262528)
(-0.000679561 -0.000481314 -0.00026253)
(-0.000635026 -0.000538711 -0.000262529)
(-0.000585658 -0.000592007 -0.000262529)
(-0.000531832 -0.000640797 -0.000262529)
(-0.000473959 -0.00068471 -0.00026253)
(-0.000412479 -0.000723414 -0.00026253)
(-0.000347859 -0.000756612 -0.00026253)
(-0.000280593 -0.000784051 -0.000262529)
(-0.000211191 -0.000805523 -0.000262527)
(-0.000140182 -0.000820864 -0.000262526)
(-6.81066e-05 -0.000829957 -0.000262526)
(4.48748e-06 -0.000832735 -0.000262527)
(7.70481e-05 -0.000829174 -0.000262528)
(0.000149023 -0.000819304 -0.000262529)
(0.000219864 -0.000803198 -0.000262529)
(0.000289031 -0.000780979 -0.000262528)
(0.000355997 -0.000752817 -0.000262528)
(0.000420254 -0.000718924 -0.000262528)
(0.000481314 -0.000679561 -0.00026253)
(0.000538711 -0.000635026 -0.000262529)
(0.000592007 -0.000585658 -0.000262529)
(0.000640797 -0.000531832 -0.000262529)
(0.00068471 -0.000473959 -0.00026253)
(0.000723414 -0.000412479 -0.00026253)
(0.000756612 -0.000347859 -0.00026253)
(0.000784051 -0.000280593 -0.000262529)
(0.000805523 -0.000211191 -0.000262527)
(0.000820864 -0.000140182 -0.000262526)
(0.000829957 -6.81066e-05 -0.000262526)
(0.000832735 4.4875e-06 -0.000262527)
(0.000829174 7.70481e-05 -0.000262528)
(0.000819304 0.000149023 -0.000262529)
(0.000803198 0.000219864 -0.000262529)
(0.000780979 0.000289031 -0.000262528)
(0.000752817 0.000355997 -0.000262528)
(0.000718924 0.000420254 -0.000262528)
(0.000679561 0.000481314 -0.00026253)
(0.000635026 0.000538711 -0.000262529)
(0.000585658 0.000592007 -0.000262529)
(0.000531832 0.000640797 -0.000262529)
(0.000473959 0.00068471 -0.00026253)
(0.000412479 0.000723414 -0.00026253)
(0.000347859 0.000756612 -0.00026253)
(0.000280593 0.000784051 -0.000262529)
(0.000211191 0.000805523 -0.000262527)
(0.000140182 0.000820864 -0.000262526)
(6.81066e-05 0.000829957 -0.000262526)
(-4.48751e-06 0.000832735 -0.000262527)
(-7.70481e-05 0.000829174 -0.000262528)
(-0.000149023 0.000819304 -0.000262529)
(-0.000219864 0.000803198 -0.000262529)
(-0.000289031 0.000780979 -0.000262528)
(-0.000355997 0.000752817 -0.000262528)
(-0.000420254 0.000718924 -0.000262528)
(-0.000481314 0.000679561 -0.00026253)
(-0.000538711 0.000635026 -0.000262529)
(-0.000570471 0.000676089 -0.000154723)
(-0.000627225 0.000623796 -0.000154723)
(-0.000679205 0.000566756 -0.000154723)
(-0.000726017 0.000505402 -0.000154723)
(-0.000767304 0.000440203 -0.000154723)
(-0.00080275 0.000371653 -0.000154723)
(-0.000832087 0.000300275 -0.000154722)
(-0.000855091 0.000226612 -0.000154722)
(-0.000871588 0.000151224 -0.000154721)
(-0.000881451 7.46842e-05 -0.000154721)
(-0.000884606 -2.42372e-06 -0.000154722)
(-0.000881029 -7.95135e-05 -0.000154722)
(-0.000870746 -0.000155998 -0.000154723)
(-0.000853837 -0.000231295 -0.000154722)
(-0.000830428 -0.000304831 -0.000154722)
(-0.0008007 -0.000376047 -0.000154723)
(-0.000764878 -0.000444402 -0.000154723)
(-0.000723236 -0.000509375 -0.000154723)
(-0.000676089 -0.000570471 -0.000154723)
(-0.000623796 -0.000627225 -0.000154723)
(-0.000566756 -0.000679205 -0.000154723)
(-0.000505402 -0.000726017 -0.000154723)
(-0.000440203 -0.000767304 -0.000154723)
(-0.000371653 -0.00080275 -0.000154723)
(-0.000300275 -0.000832087 -0.000154722)
(-0.000226612 -0.000855091 -0.000154722)
(-0.000151224 -0.000871588 -0.000154721)
(-7.46842e-05 -0.000881451 -0.000154721)
(2.42371e-06 -0.000884606 -0.000154722)
(7.95135e-05 -0.000881029 -0.000154722)
(0.000155998 -0.000870746 -0.000154723)
(0.000231295 -0.000853837 -0.000154722)
(0.000304831 -0.000830428 -0.000154722)
(0.000376047 -0.0008007 -0.000154723)
(0.000444402 -0.000764878 -0.000154723)
(0.000509375 -0.000723236 -0.000154723)
(0.000570471 -0.000676089 -0.000154723)
(0.000627225 -0.000623796 -0.000154723)
(0.000679205 -0.000566756 -0.000154723)
(0.000726017 -0.000505402 -0.000154723)
(0.000767304 -0.000440203 -0.000154723)
(0.00080275 -0.000371653 -0.000154723)
(0.000832087 -0.000300275 -0.000154722)
(0.000855091 -0.000226612 -0.000154722)
(0.000871588 -0.000151224 -0.000154721)
(0.000881451 -7.46842e-05 -0.000154721)
(0.000884606 2.42372e-06 -0.000154722)
(0.000881029 7.95135e-05 -0.000154722)
(0.000870746 0.000155998 -0.000154723)
(0.000853837 0.000231295 -0.000154722)
(0.000830428 0.000304831 -0.000154722)
(0.0008007 0.000376047 -0.000154723)
(0.000764878 0.000444402 -0.000154723)
(0.000723236 0.000509375 -0.000154723)
(0.000676089 0.000570471 -0.000154723)
(0.000623796 0.000627225 -0.000154723)
(0.000566756 0.000679205 -0.000154723)
(0.000505402 0.000726017 -0.000154723)
(0.000440203 0.000767304 -0.000154723)
(0.000371653 0.00080275 -0.000154723)
(0.000300275 0.000832087 -0.000154722)
(0.000226612 0.000855091 -0.000154722)
(0.000151224 0.000871588 -0.000154721)
(7.46842e-05 0.000881451 -0.000154721)
(-2.42372e-06 0.000884606 -0.000154722)
(-7.95135e-05 0.000881029 -0.000154722)
(-0.000155998 0.000870746 -0.000154723)
(-0.000231295 0.000853837 -0.000154722)
(-0.000304831 0.000830428 -0.000154722)
(-0.000376047 0.0008007 -0.000154723)
(-0.000444402 0.000764878 -0.000154723)
(-0.000509375 0.000723236 -0.000154723)
(-0.000572938 0.000791193 -5.04814e-05)
(-0.000639714 0.000738248 -5.0481e-05)
(-0.000701622 0.000679683 -5.04805e-05)
(-0.00075819 0.000615946 -5.04809e-05)
(-0.000808989 0.000547521 -5.04808e-05)
(-0.00085363 0.00047493 -5.04809e-05)
(-0.000891774 0.000398724 -5.04809e-05)
(-0.000923131 0.000319484 -5.0481e-05)
(-0.000947464 0.000237813 -5.04808e-05)
(-0.000964585 0.000154331 -5.04802e-05)
(-0.000974366 6.96737e-05 -5.04801e-05)
(-0.000976731 -1.55135e-05 -5.04805e-05)
(-0.000971662 -0.000100582 -5.04808e-05)
(-0.000959198 -0.000184885 -5.04813e-05)
(-0.000939435 -0.000267781 -5.04813e-05)
(-0.000912521 -0.000348638 -5.0481e-05)
(-0.000878663 -0.000426844 -5.04812e-05)
(-0.000838117 -0.0005018 -5.0481e-05)
(-0.000791193 -0.000572938 -5.04814e-05)
(-0.000738248 -0.000639714 -5.0481e-05)
(-0.000679683 -0.000701622 -5.04805e-05)
(-0.000615946 -0.00075819 -5.04809e-05)
(-0.000547521 -0.000808989 -5.04808e-05)
(-0.00047493 -0.00085363 -5.04809e-05)
(-0.000398725 -0.000891774 -5.0481e-05)
(-0.000319484 -0.000923131 -5.0481e-05)
(-0.000237813 -0.000947464 -5.04808e-05)
(-0.000154331 -0.000964585 -5.04802e-05)
(-6.96737e-05 -0.000974366 -5.04801e-05)
(1.55135e-05 -0.000976731 -5.04806e-05)
(0.000100582 -0.000971662 -5.04808e-05)
(0.000184885 -0.000959198 -5.04813e-05)
(0.000267781 -0.000939435 -5.04813e-05)
(0.000348638 -0.000912521 -5.0481e-05)
(0.000426844 -0.000878663 -5.04812e-05)
(0.0005018 -0.000838117 -5.0481e-05)
(0.000572938 -0.000791193 -5.04814e-05)
(0.000639714 -0.000738248 -5.0481e-05)
(0.000701622 -0.000679683 -5.04805e-05)
(0.00075819 -0.000615946 -5.04809e-05)
(0.000808989 -0.000547521 -5.04808e-05)
(0.00085363 -0.00047493 -5.04809e-05)
(0.000891774 -0.000398724 -5.0481e-05)
(0.000923131 -0.000319484 -5.0481e-05)
(0.000947464 -0.000237813 -5.04809e-05)
(0.000964585 -0.000154331 -5.04802e-05)
(0.000974366 -6.96737e-05 -5.04801e-05)
(0.000976731 1.55135e-05 -5.04806e-05)
(0.000971662 0.000100582 -5.04809e-05)
(0.000959198 0.000184885 -5.04813e-05)
(0.000939435 0.000267781 -5.04813e-05)
(0.000912521 0.000348638 -5.0481e-05)
(0.000878663 0.000426844 -5.04812e-05)
(0.000838117 0.0005018 -5.0481e-05)
(0.000791193 0.000572938 -5.04814e-05)
(0.000738248 0.000639714 -5.0481e-05)
(0.000679683 0.000701622 -5.04805e-05)
(0.000615946 0.00075819 -5.04809e-05)
(0.000547521 0.000808989 -5.04808e-05)
(0.00047493 0.00085363 -5.04809e-05)
(0.000398724 0.000891774 -5.0481e-05)
(0.000319484 0.000923131 -5.04811e-05)
(0.000237813 0.000947464 -5.04809e-05)
(0.000154331 0.000964585 -5.04803e-05)
(6.96737e-05 0.000974366 -5.04801e-05)
(-1.55135e-05 0.000976731 -5.04806e-05)
(-0.000100582 0.000971662 -5.04809e-05)
(-0.000184885 0.000959198 -5.04813e-05)
(-0.000267781 0.000939435 -5.04813e-05)
(-0.000348638 0.000912521 -5.0481e-05)
(-0.000426844 0.000878663 -5.04812e-05)
(-0.0005018 0.000838117 -5.04811e-05)
(-0.000897443 0.00100332 -0.00044929)
(-0.000981473 0.000921287 -0.000449291)
(-0.00105803 0.000832241 -0.000449291)
(-0.00112654 0.00073686 -0.00044929)
(-0.00118648 0.000635872 -0.00044929)
(-0.00123738 0.000530043 -0.000449289)
(-0.00127887 0.000420182 -0.000449287)
(-0.00131062 0.000307123 -0.000449287)
(-0.00133241 0.000191726 -0.000449287)
(-0.00134405 7.48698e-05 -0.000449287)
(-0.00134546 -4.25558e-05 -0.000449287)
(-0.00133663 -0.000159658 -0.000449288)
(-0.00131762 -0.000275546 -0.000449288)
(-0.0012886 -0.000389336 -0.000449288)
(-0.00124976 -0.000500163 -0.000449288)
(-0.00120141 -0.000607183 -0.000449288)
(-0.00114392 -0.000709582 -0.00044929)
(-0.00107772 -0.000806582 -0.00044929)
(-0.00100332 -0.000897443 -0.00044929)
(-0.000921287 -0.000981473 -0.000449291)
(-0.000832241 -0.00105803 -0.000449291)
(-0.00073686 -0.00112654 -0.00044929)
(-0.000635872 -0.00118648 -0.00044929)
(-0.000530043 -0.00123738 -0.000449289)
(-0.000420182 -0.00127887 -0.000449287)
(-0.000307123 -0.00131062 -0.000449287)
(-0.000191726 -0.00133241 -0.000449287)
(-7.48698e-05 -0.00134405 -0.000449287)
(4.25558e-05 -0.00134546 -0.000449287)
(0.000159658 -0.00133663 -0.000449288)
(0.000275546 -0.00131762 -0.000449288)
(0.000389336 -0.0012886 -0.000449288)
(0.000500163 -0.00124976 -0.000449288)
(0.000607183 -0.00120141 -0.000449288)
(0.000709582 -0.00114392 -0.00044929)
(0.000806583 -0.00107772 -0.00044929)
(0.000897443 -0.00100332 -0.00044929)
(0.000981473 -0.000921287 -0.000449291)
(0.00105803 -0.000832241 -0.000449291)
(0.00112654 -0.00073686 -0.00044929)
(0.00118648 -0.000635871 -0.00044929)
(0.00123738 -0.000530043 -0.000449289)
(0.00127887 -0.000420182 -0.000449287)
(0.00131062 -0.000307123 -0.000449287)
(0.00133241 -0.000191726 -0.000449287)
(0.00134405 -7.48698e-05 -0.000449287)
(0.00134546 4.25559e-05 -0.000449287)
(0.00133663 0.000159658 -0.000449288)
(0.00131762 0.000275546 -0.000449288)
(0.0012886 0.000389336 -0.000449288)
(0.00124976 0.000500163 -0.000449288)
(0.00120141 0.000607183 -0.000449288)
(0.00114392 0.000709582 -0.00044929)
(0.00107772 0.000806583 -0.00044929)
(0.00100332 0.000897443 -0.00044929)
(0.000921287 0.000981473 -0.000449291)
(0.000832241 0.00105803 -0.000449291)
(0.00073686 0.00112654 -0.00044929)
(0.000635871 0.00118648 -0.00044929)
(0.000530043 0.00123738 -0.000449289)
(0.000420182 0.00127887 -0.000449287)
(0.000307123 0.00131062 -0.000449287)
(0.000191726 0.00133241 -0.000449287)
(7.48698e-05 0.00134405 -0.000449287)
(-4.25559e-05 0.00134546 -0.000449287)
(-0.000159658 0.00133663 -0.000449288)
(-0.000275546 0.00131762 -0.000449288)
(-0.000389336 0.0012886 -0.000449288)
(-0.000500163 0.00124976 -0.000449288)
(-0.000607183 0.00120141 -0.000449288)
(-0.000709582 0.00114392 -0.00044929)
(-0.000806583 0.00107772 -0.00044929)
(-0.000907001 0.00115264 -0.000301979)
(-0.00100401 0.00106921 -0.000301979)
(-0.00109337 0.000977633 -0.000301979)
(-0.00117442 0.00087862 -0.000301979)
(-0.00124653 0.000772919 -0.000301979)
(-0.00130915 0.000661335 -0.000301979)
(-0.00136181 0.000544719 -0.000301978)
(-0.0014041 0.000423957 -0.000301978)
(-0.00143571 0.000299969 -0.000301977)
(-0.00145639 0.000173697 -0.000301977)
(-0.00146599 4.61039e-05 -0.000301978)
(-0.00146442 -8.18408e-05 -0.000301978)
(-0.00145172 -0.000209163 -0.000301978)
(-0.00142796 -0.000334893 -0.000301978)
(-0.00139334 -0.000458074 -0.000301978)
(-0.00134812 -0.000577768 -0.000301978)
(-0.00129263 -0.000693066 -0.000301979)
(-0.00122731 -0.000803089 -0.000301979)
(-0.00115264 -0.000907001 -0.000301979)
(-0.00106921 -0.00100401 -0.000301979)
(-0.000977633 -0.00109337 -0.000301979)
(-0.00087862 -0.00117442 -0.000301979)
(-0.000772919 -0.00124653 -0.000301979)
(-0.000661335 -0.00130915 -0.000301979)
(-0.000544719 -0.00136181 -0.000301978)
(-0.000423958 -0.0014041 -0.000301978)
(-0.000299969 -0.00143571 -0.000301977)
(-0.000173697 -0.00145639 -0.000301977)
(-4.61039e-05 -0.00146599 -0.000301978)
(8.18408e-05 -0.00146442 -0.000301978)
(0.000209163 -0.00145172 -0.000301978)
(0.000334893 -0.00142796 -0.000301978)
(0.000458074 -0.00139334 -0.000301978)
(0.000577768 -0.00134812 -0.000301978)
(0.000693066 -0.00129263 -0.000301979)
(0.000803089 -0.00122731 -0.000301979)
(0.000907001 -0.00115264 -0.000301979)
(0.00100401 -0.00106921 -0.000301979)
(0.00109337 -0.000977633 -0.000301979)
(0.00117442 -0.00087862 -0.000301979)
(0.00124653 -0.000772918 -0.000301979)
(0.00130915 -0.000661335 -0.000301979)
(0.00136181 -0.000544719 -0.000301978)
(0.0014041 -0.000423958 -0.000301978)
(0.00143571 -0.000299969 -0.000301977)
(0.00145639 -0.000173697 -0.000301977)
(0.00146599 -4.61039e-05 -0.000301978)
(0.00146442 8.18408e-05 -0.000301978)
(0.00145172 0.000209163 -0.000301978)
(0.00142796 0.000334893 -0.000301978)
(0.00139334 0.000458074 -0.000301978)
(0.00134812 0.000577768 -0.000301978)
(0.00129263 0.000693066 -0.000301979)
(0.00122731 0.00080309 -0.000301979)
(0.00115264 0.000907001 -0.000301979)
(0.00106921 0.00100401 -0.000301979)
(0.000977633 0.00109337 -0.000301979)
(0.00087862 0.00117442 -0.000301979)
(0.000772918 0.00124653 -0.000301979)
(0.000661335 0.00130915 -0.000301979)
(0.000544719 0.00136181 -0.000301978)
(0.000423958 0.0014041 -0.000301978)
(0.000299969 0.00143571 -0.000301977)
(0.000173697 0.00145639 -0.000301977)
(4.61039e-05 0.00146599 -0.000301978)
(-8.18408e-05 0.00146442 -0.000301978)
(-0.000209163 0.00145172 -0.000301978)
(-0.000334893 0.00142796 -0.000301978)
(-0.000458074 0.00139334 -0.000301978)
(-0.000577768 0.00134812 -0.000301978)
(-0.000693066 0.00129263 -0.000301979)
(-0.00080309 0.00122731 -0.000301979)
(-0.000944258 0.00131519 -0.000164417)
(-0.00105529 0.00122788 -0.000164417)
(-0.00115829 0.00113124 -0.000164416)
(-0.00125248 0.00102598 -0.000164417)
(-0.00133713 0.000912916 -0.000164417)
(-0.00141161 0.000792904 -0.000164417)
(-0.00147534 0.000666857 -0.000164417)
(-0.00152785 0.000535735 -0.000164417)
(-0.00156873 0.000400535 -0.000164417)
(-0.00159767 0.000262287 -0.000164416)
(-0.00161445 0.000122043 -0.000164416)
(-0.00161894 -1.91305e-05 -0.000164417)
(-0.00161111 -0.000160158 -0.000164417)
(-0.00159102 -0.000299966 -0.000164417)
(-0.00155883 -0.000437491 -0.000164417)
(-0.00151476 -0.000571687 -0.000164417)
(-0.00145917 -0.000701533 -0.000164417)
(-0.00139248 -0.000826039 -0.000164417)
(-0.00131519 -0.000944258 -0.000164417)
(-0.00122788 -0.00105529 -0.000164417)
(-0.00113124 -0.00115829 -0.000164416)
(-0.00102598 -0.00125248 -0.000164417)
(-0.000912916 -0.00133713 -0.000164417)
(-0.000792904 -0.00141161 -0.000164417)
(-0.000666857 -0.00147534 -0.000164417)
(-0.000535735 -0.00152785 -0.000164417)
(-0.000400535 -0.00156873 -0.000164417)
(-0.000262287 -0.00159767 -0.000164417)
(-0.000122043 -0.00161445 -0.000164417)
(1.91305e-05 -0.00161894 -0.000164417)
(0.000160158 -0.00161111 -0.000164417)
(0.000299966 -0.00159102 -0.000164417)
(0.000437492 -0.00155883 -0.000164417)
(0.000571687 -0.00151476 -0.000164417)
(0.000701533 -0.00145917 -0.000164417)
(0.000826039 -0.00139248 -0.000164417)
(0.000944258 -0.00131519 -0.000164417)
(0.00105529 -0.00122788 -0.000164417)
(0.00115829 -0.00113124 -0.000164416)
(0.00125248 -0.00102598 -0.000164417)
(0.00133713 -0.000912916 -0.000164417)
(0.00141161 -0.000792904 -0.000164417)
(0.00147534 -0.000666857 -0.000164417)
(0.00152785 -0.000535735 -0.000164417)
(0.00156873 -0.000400535 -0.000164417)
(0.00159767 -0.000262287 -0.000164417)
(0.00161445 -0.000122043 -0.000164417)
(0.00161894 1.91306e-05 -0.000164417)
(0.00161111 0.000160158 -0.000164417)
(0.00159102 0.000299966 -0.000164417)
(0.00155883 0.000437492 -0.000164417)
(0.00151476 0.000571687 -0.000164417)
(0.00145917 0.000701533 -0.000164417)
(0.00139248 0.000826039 -0.000164417)
(0.00131519 0.000944258 -0.000164417)
(0.00122788 0.00105529 -0.000164417)
(0.00113124 0.00115829 -0.000164416)
(0.00102598 0.00125248 -0.000164417)
(0.000912916 0.00133713 -0.000164417)
(0.000792904 0.00141161 -0.000164417)
(0.000666857 0.00147534 -0.000164417)
(0.000535735 0.00152785 -0.000164417)
(0.000400535 0.00156873 -0.000164417)
(0.000262287 0.00159767 -0.000164417)
(0.000122043 0.00161445 -0.000164417)
(-1.91305e-05 0.00161894 -0.000164417)
(-0.000160158 0.00161111 -0.000164417)
(-0.000299966 0.00159102 -0.000164417)
(-0.000437492 0.00155883 -0.000164417)
(-0.000571687 0.00151476 -0.000164417)
(-0.000701533 0.00145917 -0.000164417)
(-0.000826039 0.00139248 -0.000164417)
(-0.0011387 0.00146268 -0.00065424)
(-0.00126185 0.00135787 -0.000654241)
(-0.00137539 0.00124272 -0.000654242)
(-0.00147847 0.00111812 -0.000654242)
(-0.0015703 0.000985007 -0.000654241)
(-0.00165017 0.000844399 -0.000654241)
(-0.00171749 0.000697365 -0.000654239)
(-0.00177173 0.000545023 -0.000654239)
(-0.00181249 0.000388532 -0.000654239)
(-0.00183945 0.000229085 -0.00065424)
(-0.00185242 6.78939e-05 -0.00065424)
(-0.00185129 -9.38128e-05 -0.00065424)
(-0.00183607 -0.000254806 -0.000654239)
(-0.00180687 -0.00041386 -0.000654239)
(-0.00176393 -0.000569765 -0.000654239)
(-0.00170756 -0.000721334 -0.00065424)
(-0.00163819 -0.000867412 -0.00065424)
(-0.00155635 -0.00100689 -0.00065424)
(-0.00146268 -0.0011387 -0.00065424)
(-0.00135787 -0.00126185 -0.000654241)
(-0.00124272 -0.00137539 -0.000654242)
(-0.00111812 -0.00147847 -0.000654242)
(-0.000985007 -0.0015703 -0.000654241)
(-0.000844399 -0.00165017 -0.000654241)
(-0.000697365 -0.00171749 -0.000654239)
(-0.000545023 -0.00177173 -0.000654239)
(-0.000388532 -0.00181249 -0.000654239)
(-0.000229085 -0.00183945 -0.00065424)
(-6.78939e-05 -0.00185242 -0.00065424)
(9.38128e-05 -0.00185129 -0.00065424)
(0.000254806 -0.00183607 -0.000654239)
(0.00041386 -0.00180687 -0.000654239)
(0.000569765 -0.00176393 -0.000654239)
(0.000721334 -0.00170756 -0.00065424)
(0.000867412 -0.00163819 -0.00065424)
(0.00100689 -0.00155635 -0.00065424)
(0.0011387 -0.00146268 -0.00065424)
(0.00126185 -0.00135787 -0.000654241)
(0.00137539 -0.00124272 -0.000654242)
(0.00147847 -0.00111812 -0.000654242)
(0.0015703 -0.000985007 -0.000654241)
(0.00165017 -0.000844399 -0.000654241)
(0.00171749 -0.000697365 -0.000654239)
(0.00177173 -0.000545022 -0.000654239)
(0.00181249 -0.000388532 -0.000654239)
(0.00183945 -0.000229085 -0.00065424)
(0.00185242 -6.78938e-05 -0.00065424)
(0.00185129 9.38129e-05 -0.00065424)
(0.00183607 0.000254806 -0.000654239)
(0.00180687 0.00041386 -0.000654239)
(0.00176393 0.000569765 -0.000654239)
(0.00170756 0.000721334 -0.00065424)
(0.00163819 0.000867412 -0.00065424)
(0.00155635 0.00100689 -0.00065424)
(0.00146268 0.0011387 -0.00065424)
(0.00135787 0.00126185 -0.000654241)
(0.00124272 0.00137539 -0.000654242)
(0.00111812 0.00147847 -0.000654242)
(0.000985007 0.0015703 -0.000654241)
(0.000844399 0.00165017 -0.000654241)
(0.000697365 0.00171749 -0.000654239)
(0.000545023 0.00177173 -0.000654239)
(0.000388532 0.00181249 -0.000654239)
(0.000229085 0.00183945 -0.00065424)
(6.78939e-05 0.00185242 -0.00065424)
(-9.38129e-05 0.00185129 -0.00065424)
(-0.000254806 0.00183607 -0.000654239)
(-0.00041386 0.00180687 -0.000654239)
(-0.000569765 0.00176393 -0.000654239)
(-0.000721334 0.00170756 -0.00065424)
(-0.000867412 0.00163819 -0.00065424)
(-0.00100689 0.00155635 -0.00065424)
(-0.00117665 0.00164188 -0.00048267)
(-0.00131527 0.00153308 -0.00048267)
(-0.00144388 0.00141261 -0.00048267)
(-0.0015615 0.00128139 -0.00048267)
(-0.00166724 0.00114042 -0.00048267)
(-0.00176029 0.000990774 -0.00048267)
(-0.00183995 0.000833584 -0.000482669)
(-0.0019056 0.00067005 -0.000482669)
(-0.00195674 0.000501417 -0.000482669)
(-0.001993 0.000328968 -0.000482669)
(-0.00201409 0.000154015 -0.000482669)
(-0.00201985 -2.21108e-05 -0.000482669)
(-0.00201023 -0.000198068 -0.000482669)
(-0.00198532 -0.000372517 -0.000482669)
(-0.0019453 -0.000544132 -0.000482669)
(-0.00189047 -0.000711606 -0.000482669)
(-0.00182126 -0.000873663 -0.000482669)
(-0.00173818 -0.00102907 -0.000482669)
(-0.00164188 -0.00117665 -0.00048267)
(-0.00153308 -0.00131527 -0.00048267)
(-0.00141261 -0.00144388 -0.00048267)