/*--------------------------------*- C++ -*----------------------------------*\
| =========                 |                                                 |
| \\      /  F ield         | OpenFOAM: The Open Source CFD Toolbox           |
|  \\    /   O peration     | Version:  2312                                  |
|   \\  /    A nd           | Website:  www.openfoam.com                      |
|    \\/     M anipulation  |                                                 |
\*---------------------------------------------------------------------------*/
FoamFile
{
    version     2.0;
    format      ascii;
    arch        "LSB;label=32;scalar=64";
    class       volVectorField;
    location    "0.3";
    object      D_0_0;
}
// * * * * * * * * * * * * * * * * * * * * * * * * * * * * * * * * * * * * * //

dimensions      [0 1 0 0 0 0 0];

internalField   nonuniform List<vector> 
3240
(
(-0.000244263 0.000193713 -9.20122e-05)
(-0.000260217 0.000171687 -9.20118e-05)
(-0.00027419 0.000148354 -9.20126e-05)
(-0.000286076 0.000123891 -9.20126e-05)
(-0.000295786 9.84871e-05 -9.20124e-05)
(-0.000303244 7.23328e-05 -9.2012e-05)
(-0.000308395 4.56288e-05 -9.2011e-05)
(-0.000311198 1.85772e-05 -9.20111e-05)
(-0.000311633 -8.61552e-06 -9.20117e-05)
(-0.000309696 -3.57432e-05 -9.20123e-05)
(-0.000305402 -6.25992e-05 -9.20126e-05)
(-0.000298784 -8.89792e-05 -9.20128e-05)
(-0.000289892 -0.000114682 -9.20122e-05)
(-0.000278794 -0.000139511 -9.20117e-05)
(-0.000265573 -0.000163278 -9.20111e-05)
(-0.000250332 -0.000185803 -9.20118e-05)
(-0.000233186 -0.000206914 -9.20128e-05)
(-0.000214265 -0.000226451 -9.20121e-05)
(-0.000193713 -0.000244263 -9.20122e-05)
(-0.000171687 -0.000260217 -9.20118e-05)
(-0.000148354 -0.00027419 -9.20126e-05)
(-0.000123891 -0.000286076 -9.20126e-05)
(-9.84871e-05 -0.000295786 -9.20124e-05)
(-7.23328e-05 -0.000303244 -9.2012e-05)
(-4.56288e-05 -0.000308395 -9.20111e-05)
(-1.85772e-05 -0.000311198 -9.20111e-05)
(8.61551e-06 -0.000311633 -9.20117e-05)
(3.57432e-05 -0.000309696 -9.20123e-05)
(6.25992e-05 -0.000305402 -9.20126e-05)
(8.89792e-05 -0.000298784 -9.20128e-05)
(0.000114682 -0.000289892 -9.20121e-05)
(0.000139511 -0.000278794 -9.20117e-05)
(0.000163278 -0.000265573 -9.20111e-05)
(0.000185803 -0.000250332 -9.20118e-05)
(0.000206914 -0.000233186 -9.20128e-05)
(0.000226451 -0.000214265 -9.20121e-05)
(0.000244263 -0.000193713 -9.20122e-05)
(0.000260217 -0.000171687 -9.20118e-05)
(0.00027419 -0.000148354 -9.20126e-05)
(0.000286076 -0.000123891 -9.20126e-05)
(0.000295786 -9.84871e-05 -9.20124e-05)
(0.000303244 -7.23328e-05 -9.2012e-05)
(0.000308395 -4.56288e-05 -9.20111e-05)
(0.000311198 -1.85772e-05 -9.20111e-05)
(0.000311633 8.61551e-06 -9.20117e-05)
(0.000309696 3.57432e-05 -9.20123e-05)
(0.000305402 6.25992e-05 -9.20126e-05)
(0.000298784 8.89793e-05 -9.20128e-05)
(0.000289892 0.000114682 -9.20121e-05)
(0.000278794 0.000139511 -9.20117e-05)
(0.000265573 0.000163278 -9.20111e-05)
(0.000250332 0.000185803 -9.20118e-05)
(0.000233186 0.000206914 -9.20128e-05)
(0.000214265 0.000226451 -9.20121e-05)
(0.000193713 0.000244263 -9.20122e-05)
(0.000171687 0.000260217 -9.20118e-05)
(0.000148354 0.00027419 -9.20126e-05)
(0.000123891 0.000286076 -9.20126e-05)
(9.84871e-05 0.000295786 -9.20124e-05)
(7.23328e-05 0.000303244 -9.2012e-05)
(4.56288e-05 0.000308395 -9.20111e-05)
(1.85772e-05 0.000311198 -9.20111e-05)
(-8.61552e-06 0.000311633 -9.20117e-05)
(-3.57432e-05 0.000309696 -9.20124e-05)
(-6.25992e-05 0.000305402 -9.20126e-05)
(-8.89793e-05 0.000298784 -9.20128e-05)
(-0.000114682 0.000289892 -9.20122e-05)
(-0.000139511 0.000278794 -9.20117e-05)
(-0.000163278 0.000265573 -9.20111e-05)
(-0.000185803 0.000250332 -9.20118e-05)
(-0.000206914 0.000233186 -9.20128e-05)
(-0.000226451 0.000214265 -9.20121e-05)
(-0.000198866 0.000221575 -4.68798e-05)
(-0.000217421 0.0002034 -4.68796e-05)
(-0.000234321 0.000183676 -4.68799e-05)
(-0.000249437 0.000162555 -4.68798e-05)
(-0.000262656 0.000140196 -4.68797e-05)
(-0.000273876 0.000116771 -4.68796e-05)
(-0.000283011 9.24565e-05 -4.68793e-05)
(-0.000289992 6.74391e-05 -4.68791e-05)
(-0.000294766 4.19087e-05 -4.68792e-05)
(-0.000297297 1.60587e-05 -4.68797e-05)
(-0.000297565 -9.91392e-06 -4.68798e-05)
(-0.000295569 -3.58111e-05 -4.68798e-05)
(-0.000291323 -6.14357e-05 -4.68796e-05)
(-0.00028486 -8.65922e-05 -4.68794e-05)
(-0.000276229 -0.00011109 -4.68795e-05)
(-0.000265496 -0.000134742 -4.68795e-05)
(-0.000252742 -0.000157368 -4.688e-05)
(-0.000238064 -0.000178798 -4.68798e-05)
(-0.000221575 -0.000198866 -4.68798e-05)
(-0.0002034 -0.000217421 -4.68796e-05)
(-0.000183676 -0.000234321 -4.68799e-05)
(-0.000162555 -0.000249437 -4.68798e-05)
(-0.000140196 -0.000262656 -4.68797e-05)
(-0.000116771 -0.000273876 -4.68796e-05)
(-9.24565e-05 -0.000283011 -4.68794e-05)
(-6.74391e-05 -0.000289992 -4.68791e-05)
(-4.19087e-05 -0.000294766 -4.68792e-05)
(-1.60587e-05 -0.000297297 -4.68797e-05)
(9.91391e-06 -0.000297565 -4.68798e-05)
(3.58111e-05 -0.000295569 -4.68798e-05)
(6.14357e-05 -0.000291323 -4.68796e-05)
(8.65922e-05 -0.00028486 -4.68794e-05)
(0.00011109 -0.000276229 -4.68795e-05)
(0.000134742 -0.000265496 -4.68795e-05)
(0.000157368 -0.000252742 -4.68799e-05)
(0.000178798 -0.000238064 -4.68798e-05)
(0.000198866 -0.000221575 -4.68798e-05)
(0.000217421 -0.0002034 -4.68796e-05)
(0.000234321 -0.000183676 -4.68799e-05)
(0.000249437 -0.000162555 -4.68798e-05)
(0.000262656 -0.000140196 -4.68797e-05)
(0.000273876 -0.000116771 -4.68796e-05)
(0.000283011 -9.24565e-05 -4.68794e-05)
(0.000289992 -6.74391e-05 -4.68791e-05)
(0.000294766 -4.19087e-05 -4.68792e-05)
(0.000297297 -1.60587e-05 -4.68797e-05)
(0.000297565 9.91392e-06 -4.68798e-05)
(0.000295569 3.58111e-05 -4.68798e-05)
(0.000291323 6.14357e-05 -4.68796e-05)
(0.00028486 8.65923e-05 -4.68794e-05)
(0.000276229 0.00011109 -4.68795e-05)
(0.000265496 0.000134742 -4.68795e-05)
(0.000252742 0.000157368 -4.68799e-05)
(0.000238064 0.000178798 -4.68798e-05)
(0.000221575 0.000198866 -4.68798e-05)
(0.0002034 0.000217421 -4.68796e-05)
(0.000183676 0.000234321 -4.68799e-05)
(0.000162555 0.000249437 -4.68798e-05)
(0.000140196 0.000262656 -4.68798e-05)
(0.000116771 0.000273876 -4.68796e-05)
(9.24565e-05 0.000283011 -4.68794e-05)
(6.74391e-05 0.000289992 -4.68791e-05)
(4.19087e-05 0.000294766 -4.68792e-05)
(1.60587e-05 0.000297297 -4.68797e-05)
(-9.91392e-06 0.000297565 -4.68799e-05)
(-3.58111e-05 0.000295569 -4.68798e-05)
(-6.14357e-05 0.000291323 -4.68796e-05)
(-8.65922e-05 0.00028486 -4.68794e-05)
(-0.00011109 0.000276229 -4.68795e-05)
(-0.000134742 0.000265496 -4.68795e-05)
(-0.000157368 0.000252742 -4.688e-05)
(-0.000178798 0.000238064 -4.68798e-05)
(-0.000171901 0.000264809 -1.26691e-06)
(-0.000194326 0.000248819 -1.26679e-06)
(-0.000215273 0.000230935 -1.26653e-06)
(-0.000234581 0.000211294 -1.26674e-06)
(-0.000252105 0.000190045 -1.26695e-06)
(-0.000267708 0.000167349 -1.26692e-06)
(-0.000281275 0.00014338 -1.26667e-06)
(-0.000292701 0.00011832 -1.26689e-06)
(-0.0003019 9.23601e-05 -1.26681e-06)
(-0.000308801 6.56963e-05 -1.26703e-06)
(-0.000313351 3.8532e-05 -1.26685e-06)
(-0.000315517 1.10748e-05 -1.26667e-06)
(-0.000315282 -1.64669e-05 -1.26651e-06)
(-0.000312648 -4.38829e-05 -1.26686e-06)
(-0.000307633 -7.09646e-05 -1.26722e-06)
(-0.000300278 -9.75062e-05 -1.26712e-06)
(-0.000290636 -0.000123306 -1.2669e-06)
(-0.000278784 -0.000148167 -1.26685e-06)
(-0.000264809 -0.000171901 -1.26691e-06)
(-0.000248819 -0.000194326 -1.26679e-06)
(-0.000230935 -0.000215273 -1.26653e-06)
(-0.000211294 -0.000234581 -1.26675e-06)
(-0.000190045 -0.000252105 -1.26695e-06)
(-0.000167349 -0.000267708 -1.26693e-06)
(-0.00014338 -0.000281275 -1.26667e-06)
(-0.00011832 -0.000292701 -1.2669e-06)
(-9.23601e-05 -0.0003019 -1.26682e-06)
(-6.56963e-05 -0.000308801 -1.26704e-06)
(-3.8532e-05 -0.000313351 -1.26685e-06)
(-1.10748e-05 -0.000315517 -1.26667e-06)
(1.64669e-05 -0.000315282 -1.2665e-06)
(4.38829e-05 -0.000312648 -1.26685e-06)
(7.09646e-05 -0.000307633 -1.26722e-06)
(9.75062e-05 -0.000300278 -1.26712e-06)
(0.000123306 -0.000290636 -1.26689e-06)
(0.000148167 -0.000278784 -1.26685e-06)
(0.000171901 -0.000264809 -1.26691e-06)
(0.000194326 -0.000248819 -1.26679e-06)
(0.000215273 -0.000230935 -1.26653e-06)
(0.000234581 -0.000211294 -1.26675e-06)
(0.000252105 -0.000190045 -1.26696e-06)
(0.000267708 -0.000167349 -1.26693e-06)
(0.000281275 -0.00014338 -1.26668e-06)
(0.000292701 -0.00011832 -1.2669e-06)
(0.0003019 -9.23601e-05 -1.26682e-06)
(0.000308801 -6.56963e-05 -1.26704e-06)
(0.000313351 -3.8532e-05 -1.26685e-06)
(0.000315517 -1.10748e-05 -1.26667e-06)
(0.000315282 1.64669e-05 -1.26651e-06)
(0.000312648 4.38829e-05 -1.26686e-06)
(0.000307633 7.09646e-05 -1.26722e-06)
(0.000300278 9.75062e-05 -1.26712e-06)
(0.000290636 0.000123306 -1.26689e-06)
(0.000278783 0.000148167 -1.26685e-06)
(0.000264809 0.000171901 -1.2669e-06)
(0.000248819 0.000194326 -1.26679e-06)
(0.000230935 0.000215273 -1.26653e-06)
(0.000211294 0.000234581 -1.26675e-06)
(0.000190045 0.000252105 -1.26696e-06)
(0.000167349 0.000267708 -1.26693e-06)
(0.00014338 0.000281275 -1.26668e-06)
(0.00011832 0.000292701 -1.26691e-06)
(9.23601e-05 0.0003019 -1.26683e-06)
(6.56963e-05 0.000308801 -1.26705e-06)
(3.8532e-05 0.000313351 -1.26686e-06)
(1.10748e-05 0.000315517 -1.26668e-06)
(-1.64669e-05 0.000315282 -1.26651e-06)
(-4.38829e-05 0.000312648 -1.26686e-06)
(-7.09646e-05 0.000307633 -1.26723e-06)
(-9.75062e-05 0.000300278 -1.26712e-06)
(-0.000123306 0.000290636 -1.2669e-06)
(-0.000148167 0.000278784 -1.26685e-06)
(-0.000607177 0.000583885 -0.000268632)
(-0.000655754 0.000528744 -0.000268632)
(-0.000699341 0.000469579 -0.000268633)
(-0.000737608 0.00040684 -0.000268633)
(-0.00077026 0.000341005 -0.000268633)
(-0.00079705 0.000272575 -0.000268632)
(-0.000817773 0.000202071 -0.00026863)
(-0.000832273 0.000130029 -0.000268629)
(-0.000840438 5.69976e-05 -0.000268629)
(-0.000842207 -1.64677e-05 -0.00026863)
(-0.000837567 -8.98083e-05 -0.000268632)
(-0.000826552 -0.000162466 -0.000268632)
(-0.000809247 -0.000233888 -0.000268632)
(-0.000785783 -0.000303529 -0.000268631)
(-0.000756339 -0.000370858 -0.000268631)
(-0.000721138 -0.000435365 -0.000268631)
(-0.000680449 -0.000496561 -0.000268633)
(-0.000634582 -0.000553978 -0.000268633)
(-0.000583885 -0.000607177 -0.000268632)
(-0.000528744 -0.000655754 -0.000268632)
(-0.000469579 -0.000699341 -0.000268633)
(-0.00040684 -0.000737608 -0.000268633)
(-0.000341005 -0.00077026 -0.000268633)
(-0.000272575 -0.00079705 -0.000268632)
(-0.000202071 -0.000817773 -0.00026863)
(-0.000130029 -0.000832273 -0.000268629)
(-5.69976e-05 -0.000840438 -0.000268629)
(1.64676e-05 -0.000842207 -0.00026863)
(8.98083e-05 -0.000837567 -0.000268632)
(0.000162466 -0.000826552 -0.000268632)
(0.000233888 -0.000809247 -0.000268632)
(0.000303529 -0.000785783 -0.000268631)
(0.000370858 -0.000756339 -0.000268631)
(0.000435365 -0.000721138 -0.000268631)
(0.000496561 -0.000680449 -0.000268633)
(0.000553978 -0.000634582 -0.000268633)
(0.000607177 -0.000583885 -0.000268632)
(0.000655754 -0.000528744 -0.000268632)
(0.000699341 -0.000469579 -0.000268633)
(0.000737608 -0.00040684 -0.000268633)
(0.00077026 -0.000341005 -0.000268633)
(0.00079705 -0.000272575 -0.000268632)
(0.000817773 -0.000202071 -0.00026863)
(0.000832273 -0.000130029 -0.000268629)
(0.000840438 -5.69976e-05 -0.000268629)
(0.000842207 1.64676e-05 -0.00026863)
(0.000837567 8.98083e-05 -0.000268632)
(0.000826552 0.000162466 -0.000268632)
(0.000809247 0.000233888 -0.000268632)
(0.000785783 0.000303529 -0.000268631)
(0.000756339 0.000370858 -0.000268631)
(0.000721138 0.000435365 -0.000268631)
(0.000680449 0.000496561 -0.000268633)
(0.000634582 0.000553978 -0.000268633)
(0.000583885 0.000607177 -0.000268632)
(0.000528744 0.000655754 -0.000268632)
(0.000469579 0.000699341 -0.000268633)
(0.00040684 0.000737608 -0.000268633)
(0.000341005 0.00077026 -0.000268633)
(0.000272575 0.00079705 -0.000268632)
(0.000202071 0.000817773 -0.00026863)
(0.000130029 0.000832273 -0.000268629)
(5.69976e-05 0.000840438 -0.000268629)
(-1.64677e-05 0.000842207 -0.00026863)
(-8.98083e-05 0.000837567 -0.000268632)
(-0.000162466 0.000826552 -0.000268632)
(-0.000233888 0.000809247 -0.000268632)
(-0.000303529 0.000785784 -0.000268631)
(-0.000370858 0.000756339 -0.000268631)
(-0.000435365 0.000721138 -0.000268631)
(-0.000496561 0.000680449 -0.000268633)
(-0.000553978 0.000634582 -0.000268633)
(-0.000585526 0.000678225 -0.000158688)
(-0.000642408 0.000624613 -0.000158687)
(-0.000694402 0.000566246 -0.000158687)
(-0.000741111 0.000503569 -0.000158688)
(-0.000782181 0.000437061 -0.000158687)
(-0.000817297 0.000367227 -0.000158687)
(-0.000846193 0.000294598 -0.000158686)
(-0.000868649 0.000219727 -0.000158686)
(-0.000884493 0.000143183 -0.000158686)
(-0.000893607 6.55499e-05 -0.000158686)
(-0.00089592 -1.25828e-05 -0.000158686)
(-0.000891414 -9.06199e-05 -0.000158687)
(-0.000880123 -0.000167968 -0.000158687)
(-0.000862135 -0.000244036 -0.000158687)
(-0.000837585 -0.000318247 -0.000158687)
(-0.00080666 -0.000390036 -0.000158687)
(-0.000769597 -0.000458857 -0.000158687)
(-0.000726676 -0.000524186 -0.000158687)
(-0.000678225 -0.000585526 -0.000158688)
(-0.000624613 -0.000642408 -0.000158687)
(-0.000566246 -0.000694402 -0.000158687)
(-0.000503569 -0.000741111 -0.000158687)
(-0.000437061 -0.000782181 -0.000158687)
(-0.000367227 -0.000817297 -0.000158687)
(-0.000294598 -0.000846193 -0.000158686)
(-0.000219727 -0.000868649 -0.000158686)
(-0.000143183 -0.000884493 -0.000158686)
(-6.55499e-05 -0.000893607 -0.000158686)
(1.25828e-05 -0.00089592 -0.000158686)
(9.06199e-05 -0.000891414 -0.000158687)
(0.000167968 -0.000880123 -0.000158687)
(0.000244036 -0.000862135 -0.000158687)
(0.000318247 -0.000837585 -0.000158687)
(0.000390036 -0.00080666 -0.000158687)
(0.000458857 -0.000769597 -0.000158687)
(0.000524186 -0.000726676 -0.000158687)
(0.000585526 -0.000678225 -0.000158688)
(0.000642408 -0.000624613 -0.000158687)
(0.000694402 -0.000566246 -0.000158687)
(0.000741111 -0.000503569 -0.000158688)
(0.000782181 -0.000437061 -0.000158687)
(0.000817297 -0.000367227 -0.000158687)
(0.000846193 -0.000294598 -0.000158686)
(0.000868649 -0.000219727 -0.000158686)
(0.000884493 -0.000143183 -0.000158686)
(0.000893607 -6.55499e-05 -0.000158686)
(0.00089592 1.25828e-05 -0.000158686)
(0.000891414 9.062e-05 -0.000158687)
(0.000880123 0.000167968 -0.000158687)
(0.000862135 0.000244036 -0.000158687)
(0.000837585 0.000318247 -0.000158687)
(0.00080666 0.000390036 -0.000158687)
(0.000769597 0.000458857 -0.000158687)
(0.000726676 0.000524186 -0.000158687)
(0.000678225 0.000585526 -0.000158687)
(0.000624613 0.000642408 -0.000158687)
(0.000566246 0.000694402 -0.000158687)
(0.000503569 0.000741111 -0.000158688)
(0.000437061 0.000782181 -0.000158687)
(0.000367227 0.000817297 -0.000158687)
(0.000294598 0.000846193 -0.000158686)
(0.000219727 0.000868649 -0.000158686)
(0.000143183 0.000884493 -0.000158686)
(6.55499e-05 0.000893607 -0.000158686)
(-1.25828e-05 0.00089592 -0.000158686)
(-9.062e-05 0.000891414 -0.000158687)
(-0.000167968 0.000880123 -0.000158687)
(-0.000244036 0.000862135 -0.000158687)
(-0.000318247 0.000837585 -0.000158687)
(-0.000390036 0.00080666 -0.000158687)
(-0.000458857 0.000769597 -0.000158687)
(-0.000524186 0.000726676 -0.000158687)
(-0.000588388 0.00079906 -5.21173e-05)
(-0.000655791 0.000744738 -5.21169e-05)
(-0.000718203 0.000684747 -5.21164e-05)
(-0.00077515 0.000619546 -5.21168e-05)
(-0.000826198 0.00054963 -5.21167e-05)
(-0.000870957 0.00047553 -5.21168e-05)
(-0.000909088 0.000397812 -5.21168e-05)
(-0.0009403 0.000317067 -5.21169e-05)
(-0.000964356 0.000233908 -5.21167e-05)
(-0.000981073 0.000148968 -5.21161e-05)
(-0.000990323 6.28949e-05 -5.21159e-05)
(-0.000992037 -2.36573e-05 -5.21164e-05)
(-0.0009862 -0.000110029 -5.21167e-05)
(-0.000972858 -0.000195563 -5.21172e-05)
(-0.000952111 -0.000279609 -5.21172e-05)
(-0.000924118 -0.000361526 -5.21169e-05)
(-0.000889093 -0.000440693 -5.21171e-05)
(-0.0008473 -0.000516506 -5.21169e-05)
(-0.00079906 -0.000588388 -5.21173e-05)
(-0.000744738 -0.000655791 -5.21169e-05)
(-0.000684747 -0.000718203 -5.21164e-05)
(-0.000619546 -0.00077515 -5.21168e-05)
(-0.00054963 -0.000826198 -5.21167e-05)
(-0.00047553 -0.000870957 -5.21168e-05)
(-0.000397812 -0.000909088 -5.21169e-05)
(-0.000317067 -0.0009403 -5.21169e-05)
(-0.000233908 -0.000964356 -5.21168e-05)
(-0.000148968 -0.000981073 -5.21161e-05)
(-6.28949e-05 -0.000990323 -5.21159e-05)
(2.36573e-05 -0.000992037 -5.21164e-05)
(0.000110029 -0.0009862 -5.21167e-05)
(0.000195563 -0.000972858 -5.21172e-05)
(0.000279609 -0.000952111 -5.21172e-05)
(0.000361526 -0.000924118 -5.21169e-05)
(0.000440693 -0.000889093 -5.21171e-05)
(0.000516506 -0.0008473 -5.21169e-05)
(0.000588388 -0.00079906 -5.21173e-05)
(0.000655791 -0.000744738 -5.21169e-05)
(0.000718203 -0.000684747 -5.21164e-05)
(0.00077515 -0.000619546 -5.21168e-05)
(0.000826198 -0.00054963 -5.21167e-05)
(0.000870957 -0.00047553 -5.21168e-05)
(0.000909088 -0.000397812 -5.21169e-05)
(0.0009403 -0.000317067 -5.2117e-05)
(0.000964356 -0.000233908 -5.21168e-05)
(0.000981073 -0.000148968 -5.21161e-05)
(0.000990323 -6.28949e-05 -5.2116e-05)
(0.000992037 2.36573e-05 -5.21164e-05)
(0.0009862 0.000110029 -5.21167e-05)
(0.000972858 0.000195563 -5.21172e-05)
(0.000952111 0.000279609 -5.21172e-05)
(0.000924118 0.000361526 -5.21169e-05)
(0.000889093 0.000440693 -5.21171e-05)
(0.0008473 0.000516506 -5.21169e-05)
(0.00079906 0.000588388 -5.21173e-05)
(0.000744738 0.000655791 -5.21169e-05)
(0.000684747 0.000718203 -5.21164e-05)
(0.000619546 0.00077515 -5.21168e-05)
(0.00054963 0.000826198 -5.21167e-05)
(0.00047553 0.000870957 -5.21168e-05)
(0.000397812 0.000909088 -5.21169e-05)
(0.000317067 0.0009403 -5.2117e-05)
(0.000233908 0.000964356 -5.21168e-05)
(0.000148968 0.000981073 -5.21161e-05)
(6.28949e-05 0.000990323 -5.2116e-05)
(-2.36573e-05 0.000992037 -5.21165e-05)
(-0.000110029 0.0009862 -5.21167e-05)
(-0.000195563 0.000972858 -5.21172e-05)
(-0.000279609 0.000952111 -5.21172e-05)
(-0.000361526 0.000924118 -5.21169e-05)
(-0.000440693 0.000889093 -5.21171e-05)
(-0.000516506 0.0008473 -5.21169e-05)
(-0.0009184 0.00100228 -0.000459324)
(-0.00100226 0.000918418 -0.000459325)
(-0.00107849 0.000827571 -0.000459325)
(-0.00114651 0.000730425 -0.000459324)
(-0.00120581 0.000627721 -0.000459324)
(-0.00125593 0.000520238 -0.000459323)
(-0.0012965 0.000408797 -0.000459321)
(-0.00132719 0.000294246 -0.000459321)
(-0.00134779 0.000177454 -0.000459321)
(-0.00135812 5.93114e-05 -0.000459321)
(-0.00135812 -5.9282e-05 -0.000459321)
(-0.00134779 -0.000177424 -0.000459322)
(-0.0013272 -0.000294218 -0.000459322)
(-0.0012965 -0.000408771 -0.000459322)
(-0.00125594 -0.000520213 -0.000459322)
(-0.00120582 -0.000627696 -0.000459322)
(-0.00114653 -0.000730402 -0.000459324)
(-0.00107851 -0.00082755 -0.000459324)
(-0.00100228 -0.0009184 -0.000459324)
(-0.000918418 -0.00100226 -0.000459325)
(-0.000827571 -0.00107849 -0.000459325)
(-0.000730425 -0.00114651 -0.000459324)
(-0.000627721 -0.00120581 -0.000459324)
(-0.000520238 -0.00125593 -0.000459323)
(-0.000408797 -0.0012965 -0.000459321)
(-0.000294246 -0.00132719 -0.000459321)
(-0.000177454 -0.00134779 -0.000459321)
(-5.93114e-05 -0.00135812 -0.000459321)
(5.9282e-05 -0.00135812 -0.000459321)
(0.000177424 -0.00134779 -0.000459322)
(0.000294218 -0.0013272 -0.000459322)
(0.000408771 -0.0012965 -0.000459322)
(0.000520213 -0.00125594 -0.000459322)
(0.000627696 -0.00120582 -0.000459322)
(0.000730402 -0.00114653 -0.000459324)
(0.00082755 -0.00107851 -0.000459324)
(0.0009184 -0.00100228 -0.000459324)
(0.00100226 -0.000918418 -0.000459325)
(0.00107849 -0.000827571 -0.000459325)
(0.00114651 -0.000730425 -0.000459324)
(0.00120581 -0.00062772 -0.000459324)
(0.00125593 -0.000520238 -0.000459323)
(0.0012965 -0.000408797 -0.000459321)
(0.00132719 -0.000294246 -0.000459321)
(0.00134779 -0.000177454 -0.000459321)
(0.00135812 -5.93114e-05 -0.000459321)
(0.00135812 5.9282e-05 -0.000459321)
(0.00134779 0.000177425 -0.000459322)
(0.0013272 0.000294218 -0.000459322)
(0.0012965 0.000408771 -0.000459322)
(0.00125594 0.000520213 -0.000459322)
(0.00120582 0.000627696 -0.000459322)
(0.00114653 0.000730402 -0.000459324)
(0.00107851 0.00082755 -0.000459324)
(0.00100228 0.0009184 -0.000459324)
(0.000918418 0.00100226 -0.000459325)
(0.000827571 0.00107849 -0.000459325)
(0.000730425 0.00114651 -0.000459324)
(0.00062772 0.00120581 -0.000459324)
(0.000520238 0.00125593 -0.000459323)
(0.000408797 0.0012965 -0.000459321)
(0.000294246 0.00132719 -0.000459321)
(0.000177454 0.00134779 -0.000459321)
(5.93114e-05 0.00135812 -0.000459321)
(-5.9282e-05 0.00135812 -0.000459321)
(-0.000177425 0.00134779 -0.000459322)
(-0.000294218 0.0013272 -0.000459322)
(-0.000408771 0.0012965 -0.000459322)
(-0.000520213 0.00125594 -0.000459322)
(-0.000627696 0.00120582 -0.000459322)
(-0.000730402 0.00114653 -0.000459324)
(-0.00082755 0.00107851 -0.000459324)
(-0.000929319 0.00115814 -0.000308813)
(-0.00102672 0.00107274 -0.000308813)
(-0.00111631 0.000979171 -0.000308813)
(-0.0011974 0.000878153 -0.000308813)
(-0.00126938 0.00077045 -0.000308813)
(-0.0013317 0.000656884 -0.000308813)
(-0.00138388 0.00053832 -0.000308811)
(-0.00142554 0.000415659 -0.000308811)
(-0.00145634 0.000289834 -0.000308811)
(-0.00147606 0.000161802 -0.000308811)
(-0.00148454 3.254e-05 -0.000308811)
(-0.00148173 -9.69705e-05 -0.000308812)
(-0.00146764 -0.000225743 -0.000308812)
(-0.00144238 -0.000352797 -0.000308811)
(-0.00140614 -0.000477166 -0.000308812)
(-0.0013592 -0.000597904 -0.000308812)
(-0.00130192 -0.000714091 -0.000308813)
(-0.00123473 -0.000824844 -0.000308813)
(-0.00115814 -0.000929319 -0.000308813)
(-0.00107274 -0.00102672 -0.000308813)
(-0.000979171 -0.00111631 -0.000308813)
(-0.000878153 -0.0011974 -0.000308813)
(-0.00077045 -0.00126938 -0.000308813)
(-0.000656884 -0.0013317 -0.000308813)
(-0.00053832 -0.00138388 -0.000308811)
(-0.000415659 -0.00142554 -0.000308811)
(-0.000289834 -0.00145634 -0.000308811)
(-0.000161802 -0.00147606 -0.000308811)
(-3.25401e-05 -0.00148454 -0.000308811)
(9.69704e-05 -0.00148173 -0.000308812)
(0.000225743 -0.00146764 -0.000308812)
(0.000352797 -0.00144238 -0.000308811)
(0.000477166 -0.00140614 -0.000308812)
(0.000597904 -0.0013592 -0.000308812)
(0.000714091 -0.00130192 -0.000308813)
(0.000824844 -0.00123473 -0.000308813)
(0.000929319 -0.00115814 -0.000308813)
(0.00102672 -0.00107274 -0.000308813)
(0.00111631 -0.000979171 -0.000308813)
(0.0011974 -0.000878153 -0.000308813)
(0.00126938 -0.00077045 -0.000308813)
(0.0013317 -0.000656884 -0.000308813)
(0.00138388 -0.00053832 -0.000308811)
(0.00142554 -0.000415659 -0.000308811)
(0.00145634 -0.000289834 -0.000308811)
(0.00147606 -0.000161802 -0.000308811)
(0.00148454 -3.254e-05 -0.000308811)
(0.00148173 9.69705e-05 -0.000308812)
(0.00146764 0.000225743 -0.000308812)
(0.00144238 0.000352797 -0.000308811)
(0.00140614 0.000477166 -0.000308812)
(0.0013592 0.000597904 -0.000308812)
(0.00130192 0.000714091 -0.000308813)
(0.00123473 0.000824844 -0.000308813)
(0.00115814 0.000929319 -0.000308813)
(0.00107274 0.00102672 -0.000308813)
(0.000979171 0.00111631 -0.000308813)
(0.000878153 0.0011974 -0.000308813)
(0.00077045 0.00126938 -0.000308813)
(0.000656884 0.0013317 -0.000308813)
(0.00053832 0.00138388 -0.000308811)
(0.000415659 0.00142554 -0.000308811)
(0.000289834 0.00145634 -0.000308811)
(0.000161802 0.00147606 -0.000308811)
(3.254e-05 0.00148454 -0.000308812)
(-9.69705e-05 0.00148173 -0.000308812)
(-0.000225743 0.00146764 -0.000308812)
(-0.000352797 0.00144238 -0.000308812)
(-0.000477166 0.00140614 -0.000308812)
(-0.000597904 0.0013592 -0.000308812)
(-0.000714091 0.00130192 -0.000308813)
(-0.000824844 0.00123473 -0.000308813)
(-0.000968753 0.00132806 -0.000168363)
(-0.00108081 0.00123857 -0.000168363)
(-0.00118465 0.00113966 -0.000168363)
(-0.00127947 0.00103208 -0.000168363)
(-0.00136455 0.000916636 -0.000168364)
(-0.00143925 0.00079422 -0.000168363)
(-0.00150299 0.000665759 -0.000168363)
(-0.0015553 0.000532231 -0.000168363)
(-0.00159577 0.000394653 -0.000168364)
(-0.00162409 0.00025407 -0.000168363)
(-0.00164006 0.000111554 -0.000168363)
(-0.00164354 -3.18111e-05 -0.000168363)
(-0.00163451 -0.000174934 -0.000168363)
(-0.00161304 -0.000316725 -0.000168363)
(-0.0015793 -0.000456106 -0.000168363)
(-0.00153354 -0.000592015 -0.000168363)
(-0.00147611 -0.00072342 -0.000168363)
(-0.00140744 -0.000849319 -0.000168364)
(-0.00132806 -0.000968753 -0.000168363)
(-0.00123857 -0.00108081 -0.000168363)
(-0.00113966 -0.00118465 -0.000168363)
(-0.00103208 -0.00127947 -0.000168363)
(-0.000916636 -0.00136455 -0.000168364)
(-0.00079422 -0.00143925 -0.000168363)
(-0.000665759 -0.00150299 -0.000168363)
(-0.000532231 -0.0015553 -0.000168363)
(-0.000394653 -0.00159577 -0.000168364)
(-0.00025407 -0.00162409 -0.000168363)
(-0.000111554 -0.00164006 -0.000168363)
(3.18111e-05 -0.00164354 -0.000168363)
(0.000174934 -0.00163451 -0.000168363)
(0.000316725 -0.00161304 -0.000168363)
(0.000456106 -0.0015793 -0.000168363)
(0.000592015 -0.00153354 -0.000168363)
(0.00072342 -0.00147611 -0.000168363)
(0.000849319 -0.00140744 -0.000168363)
(0.000968753 -0.00132806 -0.000168363)
(0.00108081 -0.00123857 -0.000168363)
(0.00118465 -0.00113966 -0.000168363)
(0.00127947 -0.00103208 -0.000168363)
(0.00136455 -0.000916636 -0.000168364)
(0.00143925 -0.00079422 -0.000168363)
(0.00150299 -0.000665759 -0.000168364)
(0.0015553 -0.000532231 -0.000168363)
(0.00159577 -0.000394653 -0.000168364)
(0.00162409 -0.00025407 -0.000168363)
(0.00164006 -0.000111554 -0.000168363)
(0.00164354 3.18111e-05 -0.000168363)
(0.00163451 0.000174934 -0.000168363)
(0.00161304 0.000316725 -0.000168363)
(0.0015793 0.000456106 -0.000168363)
(0.00153354 0.000592015 -0.000168363)
(0.00147611 0.00072342 -0.000168363)
(0.00140744 0.000849319 -0.000168363)
(0.00132806 0.000968753 -0.000168363)
(0.00123857 0.00108081 -0.000168363)
(0.00113966 0.00118465 -0.000168363)
(0.00103208 0.00127947 -0.000168363)
(0.000916636 0.00136455 -0.000168364)
(0.00079422 0.00143925 -0.000168363)
(0.000665759 0.00150299 -0.000168364)
(0.000532231 0.0015553 -0.000168363)
(0.000394653 0.00159577 -0.000168364)
(0.00025407 0.00162409 -0.000168363)
(0.000111554 0.00164006 -0.000168363)
(-3.18111e-05 0.00164354 -0.000168363)
(-0.000174934 0.00163451 -0.000168363)
(-0.000316725 0.00161304 -0.000168363)
(-0.000456106 0.0015793 -0.000168363)
(-0.000592015 0.00153354 -0.000168363)
(-0.00072342 0.00147611 -0.000168363)
(-0.000849319 0.00140744 -0.000168364)
(-0.00116182 0.00146534 -0.000668063)
(-0.00128511 0.0013585 -0.000668064)
(-0.00139862 0.00124133 -0.000668065)
(-0.00150149 0.00111471 -0.000668064)
(-0.00159293 0.000979603 -0.000668064)
(-0.00167224 0.000837043 -0.000668063)
(-0.00173883 0.000688113 -0.000668061)
(-0.00179219 0.000533945 -0.000668061)
(-0.0018319 0.000375714 -0.000668061)
(-0.00185768 0.000214623 -0.000668063)
(-0.00186932 5.18986e-05 -0.000668062)
(-0.00186673 -0.00011122 -0.000668062)
(-0.00184993 -0.000273492 -0.000668062)
(-0.00181905 -0.000433683 -0.000668061)
(-0.00177433 -0.000590575 -0.000668062)
(-0.00171611 -0.000742971 -0.000668062)
(-0.00164482 -0.000889712 -0.000668063)
(-0.00156102 -0.00102968 -0.000668063)
(-0.00146534 -0.00116182 -0.000668063)
(-0.0013585 -0.00128511 -0.000668064)
(-0.00124133 -0.00139862 -0.000668065)
(-0.00111471 -0.00150149 -0.000668064)
(-0.000979603 -0.00159293 -0.000668064)
(-0.000837043 -0.00167224 -0.000668063)
(-0.000688113 -0.00173883 -0.000668061)
(-0.000533946 -0.00179219 -0.000668061)
(-0.000375714 -0.0018319 -0.000668061)
(-0.000214623 -0.00185768 -0.000668063)
(-5.18987e-05 -0.00186932 -0.000668062)
(0.00011122 -0.00186673 -0.000668062)
(0.000273492 -0.00184993 -0.000668062)
(0.000433684 -0.00181905 -0.000668061)
(0.000590575 -0.00177433 -0.000668061)
(0.000742971 -0.00171611 -0.000668062)
(0.000889712 -0.00164482 -0.000668063)
(0.00102968 -0.00156102 -0.000668063)
(0.00116182 -0.00146534 -0.000668063)
(0.00128511 -0.0013585 -0.000668064)
(0.00139862 -0.00124133 -0.000668065)
(0.00150149 -0.00111471 -0.000668064)
(0.00159293 -0.000979603 -0.000668064)
(0.00167224 -0.000837043 -0.000668063)
(0.00173883 -0.000688113 -0.000668061)
(0.00179219 -0.000533945 -0.000668061)
(0.0018319 -0.000375714 -0.000668061)
(0.00185768 -0.000214623 -0.000668063)
(0.00186932 -5.18986e-05 -0.000668062)
(0.00186673 0.00011122 -0.000668062)
(0.00184993 0.000273492 -0.000668062)
(0.00181905 0.000433684 -0.000668061)
(0.00177433 0.000590575 -0.000668062)
(0.00171611 0.000742971 -0.000668062)
(0.00164482 0.000889712 -0.000668063)
(0.00156102 0.00102968 -0.000668063)
(0.00146534 0.00116182 -0.000668063)
(0.0013585 0.00128511 -0.000668064)
(0.00124133 0.00139862 -0.000668065)
(0.00111471 0.00150149 -0.000668064)
(0.000979603 0.00159293 -0.000668064)
(0.000837043 0.00167224 -0.000668063)
(0.000688113 0.00173883 -0.000668062)
(0.000533946 0.00179219 -0.000668061)
(0.000375714 0.0018319 -0.000668062)
(0.000214623 0.00185768 -0.000668063)
(5.18986e-05 0.00186932 -0.000668062)
(-0.00011122 0.00186673 -0.000668062)
(-0.000273492 0.00184993 -0.000668062)
(-0.000433684 0.00181905 -0.000668061)
(-0.000590575 0.00177433 -0.000668062)
(-0.000742971 0.00171611 -0.000668062)
(-0.000889712 0.00164482 -0.000668063)
(-0.00102968 0.00156102 -0.000668063)
(-0.00120246 0.00165206 -0.000493035)
(-0.00134187 0.00154097 -0.000493035)
(-0.00147107 0.00141816 -0.000493035)
(-0.00158907 0.00128455 -0.000493035)
(-0.00169498 0.00114116 -0.000493035)
(-0.00178799 0.000989094 -0.000493034)
(-0.00186739 0.000829496 -0.000493034)
(-0.00193258 0.000663586 -0.000493034)
(-0.00198306 0.000492627 -0.000493033)
(-0.00201845 0.000317917 -0.000493034)
(-0.00203847 0.000140788 -0.000493034)
(-0.00204299 -3.74125e-05 -0.000493034)
(-0.00203195 -0.000215328 -0.000493034)
(-0.00200545 -0.000391605 -0.000493034)
(-0.00196369 -0.000564902 -0.000493034)
(-0.00190698 -0.0007339 -0.000493034)
(-0.00183576 -0.000897312 -0.000493034)
(-0.00175057 -0.0010539 -0.000493034)
(-0.00165206 -0.00120246 -0.000493035)
(-0.00154097 -0.00134187 -0.000493035)
(-0.00141816 -0.00147107 -0.000493035)