/*--------------------------------*- C++ -*----------------------------------*\
| =========                 |                                                 |
| \\      /  F ield         | OpenFOAM: The Open Source CFD Toolbox           |
|  \\    /   O peration     | Version:  2312                                  |
|   \\  /    A nd           | Website:  www.openfoam.com                      |
|    \\/     M anipulation  |                                                 |
\*---------------------------------------------------------------------------*/
FoamFile
{
    version     2.0;
    format      ascii;
    arch        "LSB;label=32;scalar=64";
    class       volTensorField;
    location    "0.3";
    object      F;
}
// * * * * * * * * * * * * * * * * * * * * * * * * * * * * * * * * * * * * * //

dimensions      [0 0 0 0 0 0 0];

internalField   nonuniform List<tensor> 
3240
(
(0.953218 -0.0227929 0.192471 -0.0276439 0.971116 -0.202171 -0.0461021 -0.00201258 1.09159)
(0.957733 -0.0239636 0.209359 -0.0288142 0.966601 -0.184627 -0.0457508 -0.00602346 1.09159)
(0.962383 -0.0243329 0.224653 -0.0291834 0.961951 -0.165677 -0.0450524 -0.00998863 1.09159)
(0.967026 -0.0238896 0.238238 -0.0287398 0.957307 -0.145467 -0.0440108 -0.0138765 1.09159)
(0.971522 -0.022646 0.25001 -0.0274962 0.952812 -0.12415 -0.0426337 -0.0176589 1.09159)
(0.975733 -0.0206402 0.259879 -0.0254913 0.948601 -0.101887 -0.0409324 -0.021307 1.09159)
(0.979532 -0.0179339 0.267771 -0.0227848 0.944802 -0.0788497 -0.0389187 -0.0247932 1.09159)
(0.982804 -0.014609 0.273624 -0.01946 0.941531 -0.0552122 -0.0366093 -0.0280919 1.09159)
(0.985448 -0.0107667 0.277395 -0.0156176 0.938886 -0.0311544 -0.0340218 -0.0311764 1.09159)
(0.987386 -0.00652354 0.279055 -0.011374 0.936949 -0.00685952 -0.0311754 -0.0340229 1.09159)
(0.988557 -0.00200845 0.27859 -0.00685839 0.935778 0.0174877 -0.0280918 -0.0366105 1.09159)
(0.988926 0.00264142 0.276006 -0.00220857 0.935408 0.0417019 -0.0247948 -0.0389195 1.09159)
(0.988482 0.0072842 0.271321 0.00243425 0.935852 0.0655991 -0.0213085 -0.0409319 1.09159)
(0.987238 0.0117801 0.264571 0.00692889 0.937096 0.0889967 -0.0176598 -0.0426329 1.09159)
(0.985232 0.0159913 0.255808 0.0111402 0.939102 0.111717 -0.0138761 -0.0440095 1.09159)
(0.982526 0.0197909 0.245098 0.0149402 0.941808 0.133587 -0.00998688 -0.0450523 1.09159)
(0.979202 0.0230625 0.232522 0.0182122 0.945132 0.15444 -0.00602315 -0.0457518 1.09159)
(0.975359 0.0257065 0.218177 0.0208563 0.948974 0.174118 -0.00201323 -0.046102 1.09159)
(0.971116 0.0276439 0.202171 0.0227929 0.953218 0.192471 0.00201258 -0.0461021 1.09159)
(0.966601 0.0288142 0.184627 0.0239636 0.957733 0.209359 0.00602346 -0.0457508 1.09159)
(0.961951 0.0291835 0.165677 0.0243329 0.962383 0.224653 0.00998863 -0.0450523 1.09159)
(0.957307 0.0287398 0.145467 0.0238896 0.967026 0.238238 0.0138765 -0.0440108 1.09159)
(0.952812 0.0274962 0.12415 0.022646 0.971522 0.25001 0.0176589 -0.0426337 1.09159)
(0.948601 0.0254913 0.101887 0.0206402 0.975733 0.259879 0.021307 -0.0409324 1.09159)
(0.944802 0.0227848 0.0788497 0.0179339 0.979532 0.267771 0.0247932 -0.0389187 1.09159)
(0.941531 0.01946 0.0552122 0.014609 0.982804 0.273624 0.0280919 -0.0366093 1.09159)
(0.938886 0.0156176 0.0311544 0.0107667 0.985448 0.277395 0.0311764 -0.0340218 1.09159)
(0.936949 0.011374 0.00685953 0.00652355 0.987386 0.279055 0.0340229 -0.0311754 1.09159)
(0.935778 0.00685839 -0.0174877 0.00200846 0.988557 0.27859 0.0366104 -0.0280918 1.09159)
(0.935408 0.00220858 -0.0417019 -0.00264142 0.988926 0.276006 0.0389195 -0.0247948 1.09159)
(0.935852 -0.00243424 -0.0655991 -0.0072842 0.988482 0.271321 0.0409319 -0.0213085 1.09159)
(0.937096 -0.00692889 -0.0889967 -0.0117801 0.987238 0.264571 0.0426329 -0.0176598 1.09159)
(0.939102 -0.0111402 -0.111717 -0.0159913 0.985232 0.255808 0.0440095 -0.0138761 1.09159)
(0.941808 -0.0149402 -0.133587 -0.0197909 0.982526 0.245098 0.0450523 -0.00998687 1.09159)
(0.945132 -0.0182122 -0.15444 -0.0230625 0.979202 0.232522 0.0457518 -0.00602314 1.09159)
(0.948974 -0.0208563 -0.174118 -0.0257065 0.975359 0.218177 0.046102 -0.00201322 1.09159)
(0.953218 -0.0227929 -0.192471 -0.0276439 0.971116 0.202171 0.0461021 0.00201258 1.09159)
(0.957733 -0.0239636 -0.209359 -0.0288142 0.966601 0.184627 0.0457508 0.00602346 1.09159)
(0.962383 -0.0243329 -0.224653 -0.0291835 0.961951 0.165677 0.0450523 0.00998863 1.09159)
(0.967026 -0.0238896 -0.238238 -0.0287398 0.957307 0.145467 0.0440108 0.0138765 1.09159)
(0.971522 -0.022646 -0.25001 -0.0274962 0.952812 0.12415 0.0426337 0.0176589 1.09159)
(0.975733 -0.0206402 -0.259879 -0.0254913 0.948601 0.101887 0.0409324 0.021307 1.09159)
(0.979532 -0.0179339 -0.267771 -0.0227848 0.944802 0.0788497 0.0389187 0.0247932 1.09159)
(0.982804 -0.014609 -0.273624 -0.01946 0.941531 0.0552122 0.0366093 0.0280919 1.09159)
(0.985448 -0.0107667 -0.277395 -0.0156176 0.938886 0.0311544 0.0340218 0.0311764 1.09159)
(0.987386 -0.00652355 -0.279055 -0.011374 0.936949 0.00685953 0.0311754 0.0340229 1.09159)
(0.988557 -0.00200846 -0.27859 -0.00685839 0.935778 -0.0174877 0.0280918 0.0366104 1.09159)
(0.988926 0.00264142 -0.276006 -0.00220858 0.935408 -0.0417019 0.0247948 0.0389195 1.09159)
(0.988482 0.0072842 -0.271321 0.00243424 0.935852 -0.0655991 0.0213085 0.0409319 1.09159)
(0.987238 0.0117801 -0.264571 0.00692889 0.937096 -0.0889967 0.0176598 0.0426329 1.09159)
(0.985232 0.0159913 -0.255808 0.0111402 0.939102 -0.111717 0.0138761 0.0440095 1.09159)
(0.982526 0.0197909 -0.245098 0.0149402 0.941808 -0.133587 0.00998687 0.0450523 1.09159)
(0.979202 0.0230625 -0.232522 0.0182122 0.945132 -0.15444 0.00602314 0.0457518 1.09159)
(0.975359 0.0257065 -0.218177 0.0208563 0.948974 -0.174118 0.00201322 0.046102 1.09159)
(0.971116 0.0276439 -0.202171 0.0227929 0.953218 -0.192471 -0.00201258 0.0461021 1.09159)
(0.966601 0.0288142 -0.184627 0.0239636 0.957733 -0.209359 -0.00602346 0.0457508 1.09159)
(0.961951 0.0291835 -0.165677 0.0243329 0.962383 -0.224653 -0.00998863 0.0450523 1.09159)
(0.957307 0.0287398 -0.145467 0.0238896 0.967026 -0.238238 -0.0138765 0.0440108 1.09159)
(0.952812 0.0274962 -0.12415 0.022646 0.971522 -0.25001 -0.0176589 0.0426337 1.09159)
(0.948601 0.0254913 -0.101887 0.0206402 0.975733 -0.259879 -0.021307 0.0409324 1.09159)
(0.944802 0.0227848 -0.0788497 0.0179339 0.979532 -0.267771 -0.0247932 0.0389187 1.09159)
(0.941531 0.01946 -0.0552122 0.014609 0.982804 -0.273624 -0.0280919 0.0366093 1.09159)
(0.938886 0.0156176 -0.0311544 0.0107667 0.985448 -0.277395 -0.0311764 0.0340218 1.09159)
(0.936949 0.011374 -0.00685953 0.00652355 0.987386 -0.279055 -0.0340229 0.0311754 1.09159)
(0.935778 0.00685839 0.0174877 0.00200846 0.988557 -0.27859 -0.0366104 0.0280918 1.09159)
(0.935408 0.00220858 0.0417019 -0.00264142 0.988926 -0.276006 -0.0389195 0.0247948 1.09159)
(0.935852 -0.00243424 0.0655991 -0.0072842 0.988482 -0.271321 -0.0409319 0.0213085 1.09159)
(0.937096 -0.00692888 0.0889967 -0.0117801 0.987238 -0.264571 -0.0426329 0.0176598 1.09159)
(0.939102 -0.0111402 0.111717 -0.0159913 0.985232 -0.255808 -0.0440095 0.0138761 1.09159)
(0.941808 -0.0149402 0.133587 -0.0197909 0.982526 -0.245098 -0.0450523 0.00998687 1.09159)
(0.945132 -0.0182122 0.15444 -0.0230625 0.979202 -0.232522 -0.0457518 0.00602314 1.09159)
(0.948974 -0.0208563 0.174118 -0.0257065 0.975359 -0.218177 -0.0461019 0.00201322 1.09159)
(0.962516 -0.0284305 0.206877 -0.0368053 0.973105 -0.240672 -0.0466466 -0.00203649 1.05676)
(0.968261 -0.0288543 0.227065 -0.0372289 0.96736 -0.221726 -0.0462913 -0.00609441 1.05676)
(0.973992 -0.0282745 0.245526 -0.0366488 0.961629 -0.201092 -0.0455846 -0.0101061 1.05676)
(0.979535 -0.0267082 0.262118 -0.0350826 0.956086 -0.178928 -0.0445304 -0.0140404 1.05676)
(0.984721 -0.0242029 0.276715 -0.0325775 0.9509 -0.155402 -0.0431371 -0.0178678 1.05676)
(0.989394 -0.0208348 0.289206 -0.0292099 0.946227 -0.130693 -0.0414155 -0.0215591 1.05676)
(0.993411 -0.0167068 0.299496 -0.0250815 0.94221 -0.10499 -0.0393785 -0.0250864 1.05676)
(0.996651 -0.0119437 0.307507 -0.0203188 0.938971 -0.0784879 -0.037042 -0.0284232 1.05676)
(0.999014 -0.00669051 0.313178 -0.0150655 0.936608 -0.0513882 -0.0344238 -0.0315442 1.05676)
(1.00043 -0.00110705 0.316465 -0.00948138 0.935193 -0.0238974 -0.0315437 -0.0344246 1.05676)
(1.00085 0.0046374 0.317343 -0.00373655 0.934769 0.00377529 -0.0284238 -0.0370427 1.05676)
(1.00027 0.0103685 0.315807 0.00199423 0.935349 0.0314193 -0.0250874 -0.039379 1.05676)
(0.998706 0.0159112 0.311866 0.00753691 0.936915 0.0588242 -0.0215597 -0.0414155 1.05676)
(0.996201 0.0210982 0.305553 0.0127231 0.939421 0.0857813 -0.0178679 -0.0431367 1.05676)
(0.992832 0.025771 0.296914 0.0173959 0.942789 0.112085 -0.0140401 -0.0445294 1.05676)
(0.988704 0.0297884 0.286015 0.0214133 0.946917 0.137537 -0.0101054 -0.045584 1.05676)
(0.983942 0.0330276 0.27294 0.024653 0.951679 0.161941 -0.00609425 -0.0462919 1.05676)
(0.978689 0.0353904 0.257787 0.027016 0.956932 0.185113 -0.0020367 -0.0466466 1.05676)
(0.973105 0.0368053 0.240672 0.0284305 0.962516 0.206877 0.00203649 -0.0466466 1.05676)
(0.96736 0.037229 0.221726 0.0288543 0.968261 0.227065 0.00609441 -0.0462913 1.05676)
(0.961629 0.0366488 0.201092 0.0282745 0.973992 0.245526 0.0101061 -0.0455846 1.05676)
(0.956086 0.0350826 0.178928 0.0267082 0.979535 0.262118 0.0140404 -0.0445304 1.05676)
(0.9509 0.0325775 0.155402 0.0242029 0.984721 0.276715 0.0178678 -0.0431371 1.05676)
(0.946227 0.0292099 0.130693 0.0208348 0.989394 0.289206 0.0215591 -0.0414155 1.05676)
(0.94221 0.0250815 0.10499 0.0167068 0.993411 0.299496 0.0250864 -0.0393785 1.05676)
(0.938971 0.0203188 0.0784879 0.0119437 0.996651 0.307507 0.0284232 -0.037042 1.05676)
(0.936608 0.0150655 0.0513882 0.00669052 0.999014 0.313178 0.0315442 -0.0344238 1.05676)
(0.935193 0.00948138 0.0238974 0.00110706 1.00043 0.316465 0.0344246 -0.0315437 1.05676)
(0.934769 0.00373655 -0.00377529 -0.0046374 1.00085 0.317343 0.0370427 -0.0284238 1.05676)
(0.935349 -0.00199423 -0.0314193 -0.0103685 1.00027 0.315807 0.039379 -0.0250874 1.05676)
(0.936915 -0.00753691 -0.0588242 -0.0159112 0.998706 0.311866 0.0414155 -0.0215597 1.05676)
(0.939421 -0.0127231 -0.0857813 -0.0210982 0.996201 0.305553 0.0431367 -0.0178679 1.05676)
(0.942789 -0.0173959 -0.112085 -0.025771 0.992832 0.296914 0.0445294 -0.0140401 1.05676)
(0.946917 -0.0214133 -0.137537 -0.0297884 0.988704 0.286015 0.045584 -0.0101054 1.05676)
(0.951679 -0.024653 -0.161941 -0.0330276 0.983942 0.27294 0.0462919 -0.00609425 1.05676)
(0.956932 -0.027016 -0.185113 -0.0353904 0.978689 0.257787 0.0466466 -0.0020367 1.05676)
(0.962516 -0.0284305 -0.206877 -0.0368053 0.973105 0.240672 0.0466466 0.00203649 1.05676)
(0.968261 -0.0288543 -0.227065 -0.037229 0.96736 0.221726 0.0462913 0.00609441 1.05676)
(0.973992 -0.0282745 -0.245526 -0.0366488 0.961629 0.201092 0.0455846 0.0101061 1.05676)
(0.979535 -0.0267082 -0.262118 -0.0350826 0.956086 0.178928 0.0445304 0.0140404 1.05676)
(0.984721 -0.0242029 -0.276715 -0.0325775 0.9509 0.155402 0.0431371 0.0178678 1.05676)
(0.989394 -0.0208348 -0.289206 -0.0292099 0.946227 0.130693 0.0414155 0.0215591 1.05676)
(0.993411 -0.0167068 -0.299496 -0.0250815 0.94221 0.10499 0.0393785 0.0250864 1.05676)
(0.996651 -0.0119437 -0.307507 -0.0203188 0.938971 0.0784879 0.037042 0.0284232 1.05676)
(0.999014 -0.00669052 -0.313178 -0.0150655 0.936608 0.0513882 0.0344238 0.0315442 1.05676)
(1.00043 -0.00110706 -0.316465 -0.00948138 0.935193 0.0238974 0.0315437 0.0344246 1.05676)
(1.00085 0.0046374 -0.317343 -0.00373655 0.934769 -0.00377529 0.0284238 0.0370427 1.05676)
(1.00027 0.0103685 -0.315807 0.00199423 0.935349 -0.0314193 0.0250874 0.039379 1.05676)
(0.998706 0.0159112 -0.311866 0.00753691 0.936915 -0.0588242 0.0215597 0.0414155 1.05676)
(0.996201 0.0210982 -0.305553 0.0127231 0.939421 -0.0857813 0.0178679 0.0431367 1.05676)
(0.992832 0.025771 -0.296914 0.0173959 0.942789 -0.112085 0.0140401 0.0445294 1.05676)
(0.988704 0.0297884 -0.286015 0.0214133 0.946917 -0.137537 0.0101054 0.045584 1.05676)
(0.983942 0.0330276 -0.27294 0.024653 0.951679 -0.161941 0.00609425 0.0462919 1.05676)
(0.978689 0.0353904 -0.257787 0.027016 0.956932 -0.185113 0.0020367 0.0466466 1.05676)
(0.973105 0.0368053 -0.240672 0.0284305 0.962516 -0.206877 -0.00203649 0.0466466 1.05676)
(0.96736 0.0372289 -0.221726 0.0288543 0.968261 -0.227065 -0.00609441 0.0462913 1.05676)
(0.961629 0.0366488 -0.201092 0.0282745 0.973992 -0.245526 -0.0101061 0.0455846 1.05676)
(0.956086 0.0350826 -0.178928 0.0267082 0.979535 -0.262118 -0.0140404 0.0445304 1.05676)
(0.9509 0.0325775 -0.155402 0.0242029 0.984721 -0.276715 -0.0178678 0.0431371 1.05676)
(0.946227 0.0292099 -0.130693 0.0208348 0.989394 -0.289206 -0.0215591 0.0414155 1.05676)
(0.94221 0.0250815 -0.10499 0.0167068 0.993411 -0.299496 -0.0250864 0.0393785 1.05676)
(0.938971 0.0203188 -0.0784879 0.0119437 0.996651 -0.307507 -0.0284232 0.037042 1.05676)
(0.936608 0.0150655 -0.0513882 0.00669052 0.999014 -0.313178 -0.0315442 0.0344238 1.05676)
(0.935193 0.00948138 -0.0238974 0.00110706 1.00043 -0.316465 -0.0344246 0.0315437 1.05676)
(0.934769 0.00373656 0.00377529 -0.00463739 1.00085 -0.317343 -0.0370427 0.0284238 1.05676)
(0.935349 -0.00199423 0.0314193 -0.0103685 1.00027 -0.315807 -0.039379 0.0250874 1.05676)
(0.936915 -0.00753691 0.0588242 -0.0159112 0.998706 -0.311866 -0.0414155 0.0215598 1.05676)
(0.939421 -0.0127231 0.0857813 -0.0210982 0.996201 -0.305553 -0.0431367 0.0178679 1.05676)
(0.942789 -0.0173959 0.112085 -0.025771 0.992832 -0.296914 -0.0445294 0.0140401 1.05676)
(0.946917 -0.0214133 0.137537 -0.0297884 0.988704 -0.286015 -0.045584 0.0101054 1.05676)
(0.951679 -0.024653 0.161941 -0.0330276 0.983942 -0.27294 -0.0462919 0.00609425 1.05676)
(0.956932 -0.027016 0.185113 -0.0353904 0.978689 -0.257787 -0.0466466 0.0020367 1.05676)
(0.972802 -0.0381978 0.225197 -0.0462815 0.973167 -0.286001 -0.0470297 -0.00205334 1.0238)
(0.98014 -0.0375876 0.249266 -0.0456715 0.965829 -0.265286 -0.0466717 -0.00614415 1.0238)
(0.98726 -0.0357129 0.271439 -0.0437965 0.958709 -0.242551 -0.0459591 -0.0101888 1.0238)
(0.993947 -0.0326304 0.291546 -0.0407137 0.952023 -0.21797 -0.0448959 -0.0141559 1.0238)
(0.999996 -0.0284331 0.309433 -0.0365169 0.945973 -0.191731 -0.0434911 -0.0180149 1.0238)
(1.00522 -0.0232488 0.324967 -0.0313331 0.940744 -0.164033 -0.0417555 -0.0217364 1.0238)
(1.00947 -0.0172358 0.338026 -0.02532 0.936495 -0.135086 -0.0397019 -0.0252929 1.0238)
(1.01261 -0.0105765 0.348514 -0.0186606 0.933355 -0.105111 -0.0373461 -0.0286567 1.0238)
(1.01455 -0.00347267 0.356348 -0.0115565 0.931418 -0.0743361 -0.0347065 -0.0318028 1.0238)
(1.01522 0.00385924 0.361471 -0.00422387 0.930745 -0.0429953 -0.031803 -0.0347069 1.0238)
(1.01461 0.0111966 0.363843 0.00311397 0.931355 -0.0113272 -0.0286574 -0.0373467 1.0238)
(1.01274 0.0183174 0.363446 0.010234 0.93323 0.020427 -0.0252934 -0.0397022 1.0238)
(1.00966 0.0250038 0.360283 0.0169202 0.936313 0.0520256 -0.0217366 -0.0417557 1.0238)
(1.00546 0.0310532 0.354377 0.0229692 0.94051 0.0832282 -0.0180141 -0.0434912 1.0238)
(1.00028 0.0362821 0.345775 0.0281979 0.945694 0.113797 -0.0141551 -0.0448953 1.0238)
(0.994262 0.0405317 0.334541 0.0324472 0.951707 0.143501 -0.0101888 -0.0459581 1.0238)
(0.987603 0.043672 0.320761 0.0355881 0.958366 0.172112 -0.00614471 -0.0466718 1.0238)
(0.980499 0.0456082 0.30454 0.0375246 0.96547 0.199413 -0.00205338 -0.0470297 1.0238)
(0.973167 0.0462815 0.286001 0.0381978 0.972802 0.225197 0.00205334 -0.0470297 1.0238)
(0.965829 0.0456715 0.265286 0.0375876 0.98014 0.249266 0.00614415 -0.0466717 1.0238)
(0.958709 0.0437965 0.242551 0.0357129 0.98726 0.271439 0.0101888 -0.0459591 1.0238)
(0.952023 0.0407137 0.21797 0.0326304 0.993947 0.291546 0.0141559 -0.0448959 1.0238)
(0.945973 0.0365169 0.191731 0.0284331 0.999996 0.309433 0.0180149 -0.0434911 1.0238)
(0.940744 0.0313331 0.164033 0.0232488 1.00522 0.324967 0.0217364 -0.0417555 1.0238)
(0.936495 0.02532 0.135086 0.0172358 1.00947 0.338026 0.0252929 -0.0397019 1.0238)
(0.933355 0.0186606 0.105111 0.0105765 1.01261 0.348514 0.0286567 -0.0373461 1.0238)
(0.931418 0.0115565 0.0743361 0.00347268 1.01455 0.356348 0.0318028 -0.0347065 1.0238)
(0.930745 0.00422386 0.0429953 -0.00385924 1.01522 0.361471 0.0347069 -0.031803 1.0238)
(0.931355 -0.00311398 0.0113272 -0.0111966 1.01461 0.363843 0.0373467 -0.0286574 1.0238)
(0.93323 -0.010234 -0.020427 -0.0183174 1.01274 0.363446 0.0397022 -0.0252934 1.0238)
(0.936313 -0.0169202 -0.0520256 -0.0250038 1.00966 0.360283 0.0417557 -0.0217366 1.0238)
(0.94051 -0.0229692 -0.0832282 -0.0310532 1.00546 0.354377 0.0434912 -0.0180141 1.0238)
(0.945694 -0.0281979 -0.113797 -0.0362821 1.00028 0.345775 0.0448953 -0.0141551 1.0238)
(0.951707 -0.0324472 -0.143501 -0.0405317 0.994262 0.334541 0.0459581 -0.0101888 1.0238)
(0.958366 -0.0355881 -0.172112 -0.043672 0.987603 0.320761 0.0466718 -0.0061447 1.0238)
(0.96547 -0.0375246 -0.199413 -0.0456082 0.980499 0.30454 0.0470297 -0.00205337 1.0238)
(0.972802 -0.0381978 -0.225197 -0.0462815 0.973167 0.286001 0.0470297 0.00205335 1.0238)
(0.98014 -0.0375876 -0.249266 -0.0456715 0.965829 0.265286 0.0466717 0.00614415 1.0238)
(0.98726 -0.0357129 -0.271439 -0.0437965 0.958709 0.242551 0.0459591 0.0101888 1.0238)
(0.993947 -0.0326304 -0.291546 -0.0407137 0.952023 0.21797 0.0448959 0.0141559 1.0238)
(0.999996 -0.0284331 -0.309433 -0.0365169 0.945973 0.191731 0.0434911 0.0180149 1.0238)
(1.00522 -0.0232488 -0.324967 -0.0313331 0.940744 0.164033 0.0417555 0.0217364 1.0238)
(1.00947 -0.0172358 -0.338026 -0.02532 0.936495 0.135086 0.0397019 0.0252929 1.0238)
(1.01261 -0.0105765 -0.348514 -0.0186606 0.933355 0.105111 0.0373461 0.0286567 1.0238)
(1.01455 -0.00347268 -0.356348 -0.0115565 0.931418 0.0743361 0.0347065 0.0318028 1.0238)
(1.01522 0.00385923 -0.361471 -0.00422386 0.930745 0.0429953 0.031803 0.0347069 1.0238)
(1.01461 0.0111966 -0.363843 0.00311397 0.931355 0.0113272 0.0286574 0.0373467 1.0238)
(1.01274 0.0183174 -0.363446 0.010234 0.93323 -0.020427 0.0252934 0.0397022 1.0238)
(1.00966 0.0250038 -0.360283 0.0169202 0.936313 -0.0520256 0.0217366 0.0417557 1.0238)
(1.00546 0.0310532 -0.354377 0.0229692 0.94051 -0.0832282 0.0180141 0.0434912 1.0238)
(1.00028 0.0362821 -0.345775 0.028198 0.945694 -0.113797 0.0141551 0.0448953 1.0238)
(0.994262 0.0405317 -0.334541 0.0324472 0.951707 -0.143501 0.0101888 0.0459581 1.0238)
(0.987603 0.043672 -0.320761 0.0355881 0.958366 -0.172112 0.00614471 0.0466718 1.0238)
(0.980499 0.0456082 -0.30454 0.0375246 0.96547 -0.199413 0.00205338 0.0470297 1.0238)
(0.973167 0.0462815 -0.286001 0.0381978 0.972802 -0.225197 -0.00205334 0.0470297 1.0238)
(0.965829 0.0456715 -0.265286 0.0375876 0.98014 -0.249266 -0.00614415 0.0466717 1.0238)
(0.958709 0.0437965 -0.242551 0.0357129 0.98726 -0.271439 -0.0101888 0.0459591 1.0238)
(0.952023 0.0407137 -0.21797 0.0326304 0.993947 -0.291546 -0.0141559 0.0448959 1.0238)
(0.945973 0.0365169 -0.191731 0.0284331 0.999996 -0.309433 -0.0180149 0.0434911 1.0238)
(0.940744 0.0313331 -0.164033 0.0232488 1.00522 -0.324967 -0.0217364 0.0417555 1.0238)
(0.936495 0.02532 -0.135086 0.0172358 1.00947 -0.338026 -0.0252929 0.0397019 1.0238)
(0.933355 0.0186606 -0.105111 0.0105765 1.01261 -0.348514 -0.0286567 0.0373461 1.0238)
(0.931418 0.0115565 -0.0743361 0.00347269 1.01455 -0.356348 -0.0318028 0.0347065 1.0238)
(0.930745 0.00422387 -0.0429953 -0.00385923 1.01522 -0.361471 -0.0347069 0.031803 1.0238)
(0.931355 -0.00311397 -0.0113272 -0.0111966 1.01461 -0.363843 -0.0373467 0.0286574 1.0238)
(0.93323 -0.010234 0.020427 -0.0183174 1.01274 -0.363446 -0.0397022 0.0252934 1.0238)
(0.936313 -0.0169202 0.0520256 -0.0250038 1.00966 -0.360283 -0.0417557 0.0217366 1.0238)
(0.94051 -0.0229692 0.0832282 -0.0310532 1.00546 -0.354377 -0.0434912 0.0180141 1.0238)
(0.945694 -0.0281979 0.113797 -0.0362821 1.00028 -0.345775 -0.0448953 0.0141551 1.0238)
(0.951707 -0.0324472 0.143501 -0.0405317 0.994262 -0.334541 -0.0459581 0.0101888 1.0238)
(0.958366 -0.0355881 0.172112 -0.043672 0.987603 -0.320761 -0.0466718 0.00614471 1.0238)
(0.96547 -0.0375246 0.199413 -0.0456082 0.980499 -0.30454 -0.0470297 0.00205338 1.0238)
(0.980838 -0.0623944 0.180066 -0.0986992 0.928098 -0.213745 -0.112875 -0.00492773 1.09288)
(0.994425 -0.056591 0.19801 -0.0928961 0.914511 -0.197238 -0.112016 -0.0147477 1.09288)
(1.0068 -0.0485179 0.214447 -0.0848224 0.902139 -0.17923 -0.110305 -0.0244549 1.09288)
(1.01758 -0.0384194 0.229252 -0.0747227 0.891357 -0.159858 -0.107754 -0.0339747 1.09288)
(1.02644 -0.026601 0.242312 -0.0629047 0.882492 -0.139269 -0.104384 -0.043236 1.09288)
(1.03312 -0.0134223 0.253528 -0.0497266 0.875815 -0.11762 -0.100218 -0.0521678 1.09288)
(1.03741 0.000715557 0.262815 -0.0355891 0.871528 -0.0950759 -0.0952885 -0.0607035 1.09288)
(1.03918 0.0153828 0.270101 -0.0209214 0.869761 -0.0718082 -0.089634 -0.0687779 1.09288)
(1.03837 0.0301347 0.275332 -0.00616958 0.870567 -0.0479939 -0.0832978 -0.0763292 1.09287)
(1.03501 0.0445226 0.278467 0.00821872 0.873922 -0.0238144 -0.0763283 -0.0833 1.09287)
(1.02921 0.0581094 0.279483 0.0218057 0.879725 0.000545907 -0.0687785 -0.0896364 1.09287)
(1.02114 0.0704814 0.278372 0.0341781 0.887798 0.0249021 -0.0607058 -0.0952895 1.09288)
(1.01104 0.0812631 0.275142 0.0449598 0.897897 0.049069 -0.0521702 -0.100217 1.09288)
(0.99922 0.0901276 0.269818 0.0538231 0.909716 0.0728626 -0.0432369 -0.104382 1.09288)
(0.986042 0.0968051 0.262441 0.0605 0.922895 0.0961016 -0.0339744 -0.107753 1.09288)
(0.971904 0.101093 0.253067 0.0647889 0.937033 0.118609 -0.0244526 -0.110304 1.09288)
(0.957237 0.102861 0.241766 0.0665578 0.9517 0.140214 -0.0147464 -0.112017 1.09288)
(0.942486 0.102055 0.228626 0.0657512 0.966451 0.160752 -0.00492867 -0.112876 1.09288)
(0.928098 0.0986992 0.213745 0.0623944 0.980838 0.180066 0.00492772 -0.112875 1.09288)
(0.914511 0.0928961 0.197238 0.056591 0.994425 0.19801 0.0147477 -0.112016 1.09288)
(0.902139 0.0848224 0.17923 0.0485179 1.0068 0.214447 0.0244549 -0.110305 1.09288)
(0.891357 0.0747227 0.159858 0.0384194 1.01758 0.229252 0.0339747 -0.107754 1.09288)
(0.882492 0.0629047 0.139269 0.026601 1.02644 0.242312 0.043236 -0.104384 1.09288)
(0.875815 0.0497267 0.11762 0.0134223 1.03312 0.253528 0.0521678 -0.100218 1.09288)
(0.871528 0.0355891 0.0950759 -0.000715547 1.03741 0.262815 0.0607036 -0.0952885 1.09288)
(0.869761 0.0209214 0.0718083 -0.0153828 1.03918 0.270101 0.0687779 -0.089634 1.09288)
(0.870567 0.00616956 0.0479939 -0.0301346 1.03837 0.275332 0.0763292 -0.0832978 1.09287)
(0.873922 -0.00821874 0.0238144 -0.0445226 1.03501 0.278467 0.0833 -0.0763283 1.09287)
(0.879725 -0.0218057 -0.000545902 -0.0581093 1.02921 0.279483 0.0896364 -0.0687786 1.09287)
(0.887798 -0.0341781 -0.0249021 -0.0704814 1.02114 0.278372 0.0952895 -0.0607058 1.09288)
(0.897897 -0.0449598 -0.049069 -0.0812631 1.01104 0.275142 0.100217 -0.0521703 1.09288)
(0.909716 -0.0538231 -0.0728626 -0.0901277 0.99922 0.269818 0.104382 -0.0432369 1.09288)
(0.922895 -0.0605 -0.0961016 -0.0968052 0.986042 0.262441 0.107753 -0.0339744 1.09288)
(0.937033 -0.0647889 -0.118609 -0.101093 0.971904 0.253067 0.110304 -0.0244525 1.09288)
(0.9517 -0.0665578 -0.140214 -0.102861 0.957237 0.241766 0.112017 -0.0147464 1.09288)
(0.966451 -0.0657512 -0.160752 -0.102055 0.942486 0.228626 0.112876 -0.00492866 1.09288)
(0.980838 -0.0623944 -0.180066 -0.0986992 0.928098 0.213745 0.112875 0.00492773 1.09288)
(0.994425 -0.056591 -0.19801 -0.0928961 0.914511 0.197238 0.112016 0.0147477 1.09288)
(1.0068 -0.0485179 -0.214447 -0.0848224 0.902139 0.17923 0.110305 0.0244549 1.09288)
(1.01758 -0.0384194 -0.229252 -0.0747227 0.891357 0.159858 0.107754 0.0339747 1.09288)
(1.02644 -0.026601 -0.242312 -0.0629047 0.882492 0.139269 0.104384 0.043236 1.09288)
(1.03312 -0.0134223 -0.253528 -0.0497267 0.875815 0.11762 0.100218 0.0521678 1.09288)
(1.03741 0.000715545 -0.262815 -0.0355891 0.871528 0.0950759 0.0952885 0.0607036 1.09288)
(1.03918 0.0153828 -0.270101 -0.0209214 0.869761 0.0718083 0.089634 0.0687779 1.09288)
(1.03837 0.0301346 -0.275332 -0.00616956 0.870567 0.0479939 0.0832978 0.0763292 1.09288)
(1.03501 0.0445226 -0.278467 0.00821873 0.873922 0.0238144 0.0763283 0.0833 1.09287)
(1.02921 0.0581093 -0.279483 0.0218057 0.879725 -0.000545906 0.0687786 0.0896364 1.09287)
(1.02114 0.0704814 -0.278372 0.0341781 0.887798 -0.0249021 0.0607058 0.0952895 1.09288)
(1.01104 0.0812631 -0.275142 0.0449598 0.897897 -0.049069 0.0521703 0.100217 1.09288)
(0.99922 0.0901277 -0.269818 0.0538231 0.909716 -0.0728626 0.0432369 0.104382 1.09288)
(0.986042 0.0968052 -0.262441 0.0605 0.922895 -0.0961016 0.0339744 0.107753 1.09288)
(0.971904 0.101093 -0.253067 0.0647889 0.937033 -0.118609 0.0244526 0.110304 1.09288)
(0.957237 0.102861 -0.241766 0.0665578 0.9517 -0.140214 0.0147464 0.112017 1.09288)
(0.942486 0.102055 -0.228626 0.0657512 0.966451 -0.160752 0.00492866 0.112876 1.09288)
(0.928098 0.0986992 -0.213745 0.0623944 0.980838 -0.180066 -0.00492773 0.112875 1.09288)
(0.914511 0.0928961 -0.197238 0.056591 0.994425 -0.19801 -0.0147477 0.112016 1.09288)
(0.902139 0.0848224 -0.17923 0.0485179 1.0068 -0.214447 -0.0244549 0.110305 1.09288)
(0.891357 0.0747227 -0.159858 0.0384194 1.01758 -0.229252 -0.0339747 0.107754 1.09288)
(0.882492 0.0629047 -0.139269 0.026601 1.02644 -0.242312 -0.043236 0.104384 1.09288)
(0.875815 0.0497267 -0.11762 0.0134223 1.03312 -0.253528 -0.0521678 0.100218 1.09288)
(0.871528 0.0355891 -0.0950759 -0.00071554 1.03741 -0.262815 -0.0607036 0.0952885 1.09288)
(0.869761 0.0209214 -0.0718083 -0.0153828 1.03918 -0.270101 -0.0687779 0.089634 1.09288)
(0.870567 0.00616957 -0.0479939 -0.0301346 1.03837 -0.275332 -0.0763292 0.0832978 1.09288)
(0.873922 -0.00821873 -0.0238144 -0.0445226 1.03501 -0.278467 -0.0833 0.0763283 1.09287)
(0.879725 -0.0218057 0.000545906 -0.0581093 1.02921 -0.279483 -0.0896364 0.0687786 1.09287)
(0.887798 -0.0341781 0.0249021 -0.0704814 1.02114 -0.278372 -0.0952894 0.0607058 1.09288)
(0.897897 -0.0449598 0.049069 -0.0812631 1.01104 -0.275142 -0.100217 0.0521703 1.09288)
(0.909716 -0.0538231 0.0728626 -0.0901277 0.99922 -0.269818 -0.104382 0.0432369 1.09288)
(0.922895 -0.0605 0.0961016 -0.0968052 0.986042 -0.262441 -0.107753 0.0339744 1.09288)
(0.937033 -0.0647889 0.118609 -0.101093 0.971904 -0.253067 -0.110304 0.0244526 1.09288)
(0.9517 -0.0665578 0.140214 -0.102861 0.957237 -0.241766 -0.112017 0.0147464 1.09288)
(0.966451 -0.0657512 0.160752 -0.102055 0.942486 -0.228626 -0.112876 0.00492866 1.09288)
(0.994624 -0.0811553 0.197718 -0.114019 0.922006 -0.251944 -0.111908 -0.00488592 1.06513)
(1.01102 -0.0733674 0.218924 -0.106232 0.905612 -0.233753 -0.111056 -0.0146208 1.06513)
(1.02581 -0.062852 0.238464 -0.0957154 0.890818 -0.213783 -0.10936 -0.0242448 1.06513)
(1.03855 -0.0499278 0.256189 -0.0827905 0.878076 -0.192186 -0.106831 -0.0336834 1.06513)
(1.04886 -0.0349863 0.271964 -0.0678496 0.867773 -0.169127 -0.103489 -0.0428657 1.06513)
(1.05641 -0.0184823 0.28567 -0.051346 0.86022 -0.14478 -0.0993582 -0.0517216 1.06513)
(1.06098 -0.000917759 0.297201 -0.0337816 0.855648 -0.119331 -0.0944713 -0.0601841 1.06513)
(1.06244 0.0171734 0.30647 -0.0156897 0.854195 -0.0929743 -0.0888658 -0.0681888 1.06513)
(1.06072 0.0352423 0.313408 0.00237963 0.855906 -0.0659097 -0.0825846 -0.0756747 1.06513)
(1.0559 0.0527401 0.31796 0.0198779 0.860728 -0.0383436 -0.0756751 -0.0825853 1.06513)
(1.04812 0.0691349 0.320091 0.0362726 0.868515 -0.0104858 -0.0681895 -0.0888675 1.06513)
(1.0376 0.0839282 0.319787 0.0510656 0.879031 0.0174518 -0.0601851 -0.0944726 1.06513)
(1.02467 0.09667 0.317049 0.0638072 0.891956 0.0452567 -0.0517225 -0.099358 1.06513)
(1.00973 0.106974 0.311898 0.0741101 0.906898 0.0727171 -0.0428659 -0.103487 1.06513)
(0.993228 0.114527 0.304374 0.0816628 0.923402 0.0996242 -0.0336831 -0.106829 1.06513)
(0.975664 0.119099 0.294533 0.0862361 0.940966 0.125773 -0.0242437 -0.109359 1.06513)
(0.957573 0.120552 0.28245 0.0876897 0.959057 0.150965 -0.0146206 -0.111056 1.06513)
(0.939504 0.118841 0.268218 0.0859787 0.977126 0.175008 -0.00488597 -0.111908 1.06513)
(0.922006 0.114019 0.251944 0.0811553 0.994624 0.197718 0.00488592 -0.111908 1.06513)
(0.905612 0.106232 0.233753 0.0733674 1.01102 0.218924 0.0146208 -0.111056 1.06513)
(0.890818 0.0957154 0.213783 0.062852 1.02581 0.238464 0.0242448 -0.10936 1.06513)
(0.878076 0.0827906 0.192186 0.0499278 1.03855 0.256189 0.0336834 -0.106831 1.06513)
(0.867773 0.0678496 0.169127 0.0349863 1.04886 0.271964 0.0428658 -0.103489 1.06513)
(0.86022 0.051346 0.14478 0.0184823 1.05641 0.28567 0.0517216 -0.0993582 1.06513)
(0.855648 0.0337816 0.119331 0.00091777 1.06098 0.297201 0.0601841 -0.0944713 1.06513)
(0.854195 0.0156897 0.0929743 -0.0171734 1.06244 0.30647 0.0681888 -0.0888658 1.06513)
(0.855906 -0.00237964 0.0659097 -0.0352423 1.06072 0.313408 0.0756747 -0.0825846 1.06513)
(0.860728 -0.0198779 0.0383436 -0.0527401 1.0559 0.31796 0.0825853 -0.0756751 1.06513)
(0.868515 -0.0362726 0.0104858 -0.0691349 1.04812 0.320091 0.0888675 -0.0681895 1.06513)
(0.879031 -0.0510656 -0.0174518 -0.0839282 1.0376 0.319787 0.0944726 -0.0601852 1.06513)
(0.891956 -0.0638072 -0.0452567 -0.09667 1.02467 0.317049 0.0993579 -0.0517225 1.06513)
(0.906898 -0.0741101 -0.0727171 -0.106974 1.00973 0.311898 0.103487 -0.0428659 1.06513)
(0.923402 -0.0816628 -0.0996243 -0.114527 0.993228 0.304374 0.106829 -0.0336831 1.06513)
(0.940966 -0.0862361 -0.125773 -0.119099 0.975664 0.294533 0.109359 -0.0242437 1.06513)
(0.959057 -0.0876897 -0.150965 -0.120552 0.957573 0.28245 0.111056 -0.0146205 1.06513)
(0.977126 -0.0859787 -0.175008 -0.118841 0.939504 0.268218 0.111908 -0.00488596 1.06513)
(0.994624 -0.0811553 -0.197718 -0.114019 0.922006 0.251944 0.111908 0.00488592 1.06513)
(1.01102 -0.0733674 -0.218924 -0.106232 0.905612 0.233753 0.111056 0.0146208 1.06513)
(1.02581 -0.062852 -0.238464 -0.0957154 0.890818 0.213783 0.10936 0.0242448 1.06513)
(1.03855 -0.0499278 -0.256189 -0.0827906 0.878076 0.192186 0.106831 0.0336834 1.06513)
(1.04886 -0.0349863 -0.271964 -0.0678496 0.867773 0.169127 0.103489 0.0428658 1.06513)