/*--------------------------------*- C++ -*----------------------------------*\
| =========                 |                                                 |
| \\      /  F ield         | OpenFOAM: The Open Source CFD Toolbox           |
|  \\    /   O peration     | Version:  2312                                  |
|   \\  /    A nd           | Website:  www.openfoam.com                      |
|    \\/     M anipulation  |                                                 |
\*---------------------------------------------------------------------------*/
FoamFile
{
    version     2.0;
    format      ascii;
    arch        "LSB;label=32;scalar=64";
    class       volVectorField;
    location    "0.3";
    object      U;
}
// * * * * * * * * * * * * * * * * * * * * * * * * * * * * * * * * * * * * * //

dimensions      [0 1 -1 0 0 0 0];

internalField   nonuniform List<vector> 
3240
(
(-0.000614133 -6.66212e-05 -0.000185066)
(-0.000605988 -0.000119891 -0.000185064)
(-0.000593232 -0.000172252 -0.000185067)
(-0.000575961 -0.000223302 -0.000185068)
(-0.000554311 -0.000272652 -0.000185067)
(-0.000528439 -0.000319926 -0.000185066)
(-0.000498545 -0.000364763 -0.000185062)
(-0.000464856 -0.000406824 -0.000185061)
(-0.00042763 -0.000445788 -0.000185064)
(-0.000387149 -0.000481362 -0.000185066)
(-0.000343722 -0.000513273 -0.000185068)
(-0.000297679 -0.00054128 -0.000185069)
(-0.000249371 -0.000565167 -0.000185066)
(-0.000199166 -0.000584751 -0.000185065)
(-0.000147444 -0.00059988 -0.000185062)
(-9.45986e-05 -0.000610447 -0.000185065)
(-4.10332e-05 -0.000616371 -0.000185068)
(1.2842e-05 -0.000617603 -0.000185066)
(6.66212e-05 -0.000614133 -0.000185066)
(0.000119891 -0.000605989 -0.000185064)
(0.000172252 -0.000593232 -0.000185067)
(0.000223302 -0.000575961 -0.000185068)
(0.000272652 -0.000554311 -0.000185067)
(0.000319926 -0.000528439 -0.000185066)
(0.000364763 -0.000498545 -0.000185062)
(0.000406824 -0.000464856 -0.000185062)
(0.000445788 -0.00042763 -0.000185064)
(0.000481362 -0.000387149 -0.000185066)
(0.000513273 -0.000343722 -0.000185068)
(0.00054128 -0.000297679 -0.000185069)
(0.000565167 -0.000249371 -0.000185066)
(0.000584751 -0.000199166 -0.000185065)
(0.00059988 -0.000147444 -0.000185062)
(0.000610447 -9.45987e-05 -0.000185065)
(0.000616371 -4.10332e-05 -0.000185068)
(0.000617603 1.2842e-05 -0.000185066)
(0.000614133 6.66212e-05 -0.000185066)
(0.000605989 0.000119891 -0.000185064)
(0.000593232 0.000172252 -0.000185067)
(0.000575961 0.000223302 -0.000185068)
(0.000554311 0.000272652 -0.000185067)
(0.000528439 0.000319926 -0.000185066)
(0.000498545 0.000364763 -0.000185062)
(0.000464856 0.000406823 -0.000185062)
(0.00042763 0.000445788 -0.000185064)
(0.000387149 0.000481362 -0.000185066)
(0.000343722 0.000513273 -0.000185068)
(0.000297679 0.00054128 -0.000185069)
(0.000249371 0.000565167 -0.000185066)
(0.000199166 0.000584751 -0.000185065)
(0.000147444 0.00059988 -0.000185062)
(9.45987e-05 0.000610447 -0.000185065)
(4.10332e-05 0.000616371 -0.000185068)
(-1.2842e-05 0.000617603 -0.000185066)
(-6.66211e-05 0.000614133 -0.000185066)
(-0.000119891 0.000605988 -0.000185064)
(-0.000172252 0.000593232 -0.000185067)
(-0.000223302 0.000575961 -0.000185068)
(-0.000272652 0.000554311 -0.000185067)
(-0.000319926 0.000528439 -0.000185066)
(-0.000364763 0.000498545 -0.000185062)
(-0.000406823 0.000464856 -0.000185061)
(-0.000445788 0.00042763 -0.000185064)
(-0.000481362 0.000387149 -0.000185066)
(-0.000513273 0.000343722 -0.000185068)
(-0.00054128 0.000297679 -0.000185069)
(-0.000565167 0.000249371 -0.000185066)
(-0.000584751 0.000199166 -0.000185065)
(-0.00059988 0.000147444 -0.000185062)
(-0.000610447 9.45987e-05 -0.000185065)
(-0.000616371 4.10332e-05 -0.000185068)
(-0.000617603 -1.2842e-05 -0.000185066)
(-0.000519283 1.03434e-06 -0.000145125)
(-0.000517397 -4.42277e-05 -0.000145124)
(-0.000511573 -8.91544e-05 -0.000145125)
(-0.000501856 -0.000133403 -0.000145125)
(-0.00048832 -0.000176635 -0.000145125)
(-0.000471067 -0.000218523 -0.000145125)
(-0.000450229 -0.000258747 -0.000145124)
(-0.000425965 -0.000297001 -0.000145123)
(-0.000398459 -0.000332994 -0.000145123)
(-0.000367921 -0.000366455 -0.000145125)
(-0.000334582 -0.000397128 -0.000145125)
(-0.000298698 -0.000424779 -0.000145125)
(-0.000260539 -0.000449197 -0.000145124)
(-0.000220398 -0.000470194 -0.000145124)
(-0.000178578 -0.000487613 -0.000145124)
(-0.000135401 -0.000501321 -0.000145124)
(-9.11912e-05 -0.000511214 -0.000145125)
(-4.62891e-05 -0.000517217 -0.000145125)
(-1.03431e-06 -0.000519283 -0.000145125)
(4.42277e-05 -0.000517397 -0.000145124)
(8.91544e-05 -0.000511573 -0.000145126)
(0.000133403 -0.000501856 -0.000145125)
(0.000176635 -0.00048832 -0.000145125)
(0.000218523 -0.000471067 -0.000145125)
(0.000258747 -0.000450229 -0.000145124)
(0.000297001 -0.000425965 -0.000145123)
(0.000332994 -0.000398459 -0.000145123)
(0.000366455 -0.000367921 -0.000145125)
(0.000397128 -0.000334583 -0.000145125)
(0.000424779 -0.000298698 -0.000145125)
(0.000449197 -0.000260539 -0.000145124)
(0.000470194 -0.000220398 -0.000145124)
(0.000487613 -0.000178578 -0.000145124)
(0.000501321 -0.000135401 -0.000145124)
(0.000511214 -9.11913e-05 -0.000145125)
(0.000517217 -4.62891e-05 -0.000145125)
(0.000519283 -1.03433e-06 -0.000145125)
(0.000517397 4.42277e-05 -0.000145124)
(0.000511573 8.91544e-05 -0.000145126)
(0.000501856 0.000133403 -0.000145125)
(0.00048832 0.000176635 -0.000145125)
(0.000471067 0.000218523 -0.000145125)
(0.000450229 0.000258747 -0.000145124)
(0.000425965 0.000297001 -0.000145123)
(0.000398459 0.000332994 -0.000145123)
(0.000367921 0.000366455 -0.000145125)
(0.000334583 0.000397128 -0.000145125)
(0.000298698 0.000424779 -0.000145125)
(0.000260539 0.000449197 -0.000145124)
(0.000220398 0.000470194 -0.000145124)
(0.000178578 0.000487613 -0.000145124)
(0.000135401 0.000501321 -0.000145124)
(9.11913e-05 0.000511214 -0.000145125)
(4.62891e-05 0.000517217 -0.000145125)
(1.03435e-06 0.000519283 -0.000145125)
(-4.42276e-05 0.000517397 -0.000145124)
(-8.91544e-05 0.000511573 -0.000145125)
(-0.000133402 0.000501856 -0.000145125)
(-0.000176635 0.00048832 -0.000145125)
(-0.000218523 0.000471067 -0.000145125)
(-0.000258747 0.000450229 -0.000145124)
(-0.000297001 0.000425965 -0.000145123)
(-0.000332994 0.000398459 -0.000145123)
(-0.000366455 0.000367921 -0.000145125)
(-0.000397128 0.000334582 -0.000145125)
(-0.000424779 0.000298698 -0.000145125)
(-0.000449197 0.000260539 -0.000145124)
(-0.000470194 0.000220398 -0.000145124)
(-0.000487613 0.000178578 -0.000145124)
(-0.000501321 0.000135401 -0.000145124)
(-0.000511214 9.11912e-05 -0.000145125)
(-0.000517217 4.62891e-05 -0.000145125)
(-0.000436881 0.000226016 -7.60596e-05)
(-0.000454916 0.00018708 -7.60594e-05)
(-0.00046949 0.000146719 -7.60589e-05)
(-0.000480491 0.000105241 -7.60592e-05)
(-0.000487837 6.29626e-05 -7.60599e-05)
(-0.000491467 2.02062e-05 -7.606e-05)
(-0.000491356 -2.27053e-05 -7.60597e-05)
(-0.000487509 -6.54424e-05 -7.60603e-05)
(-0.000479952 -0.000107681 -7.606e-05)
(-0.000468741 -0.000149103 -7.60605e-05)
(-0.000453962 -0.00018939 -7.60594e-05)
(-0.000435729 -0.000228235 -7.60587e-05)
(-0.000414178 -0.000265344 -7.60581e-05)
(-0.000389477 -0.000300433 -7.60591e-05)
(-0.000361809 -0.000333233 -7.60601e-05)
(-0.00033139 -0.000363498 -7.606e-05)
(-0.000298446 -0.000390996 -7.60594e-05)
(-0.000263234 -0.00041552 -7.60593e-05)
(-0.000226016 -0.000436881 -7.60596e-05)
(-0.00018708 -0.000454916 -7.60595e-05)
(-0.000146719 -0.00046949 -7.6059e-05)
(-0.000105241 -0.000480491 -7.60593e-05)
(-6.29626e-05 -0.000487837 -7.60599e-05)
(-2.02062e-05 -0.000491467 -7.60601e-05)
(2.27053e-05 -0.000491356 -7.60597e-05)
(6.54424e-05 -0.000487509 -7.60604e-05)
(0.000107681 -0.000479952 -7.606e-05)
(0.000149103 -0.000468741 -7.60605e-05)
(0.00018939 -0.000453962 -7.60595e-05)
(0.000228235 -0.000435729 -7.60587e-05)
(0.000265344 -0.000414178 -7.60581e-05)
(0.000300433 -0.000389477 -7.60591e-05)
(0.000333233 -0.000361809 -7.60601e-05)
(0.000363498 -0.00033139 -7.606e-05)
(0.000390996 -0.000298446 -7.60594e-05)
(0.00041552 -0.000263234 -7.60592e-05)
(0.000436881 -0.000226016 -7.60596e-05)
(0.000454916 -0.00018708 -7.60595e-05)
(0.00046949 -0.000146719 -7.6059e-05)
(0.000480491 -0.000105241 -7.60593e-05)
(0.000487837 -6.29627e-05 -7.60599e-05)
(0.000491467 -2.02062e-05 -7.606e-05)
(0.000491356 2.27052e-05 -7.60597e-05)
(0.000487509 6.54424e-05 -7.60604e-05)
(0.000479952 0.000107681 -7.606e-05)
(0.000468741 0.000149103 -7.60605e-05)
(0.000453962 0.00018939 -7.60595e-05)
(0.000435729 0.000228235 -7.60587e-05)
(0.000414178 0.000265344 -7.60581e-05)
(0.000389477 0.000300433 -7.60591e-05)
(0.000361809 0.000333233 -7.60601e-05)
(0.00033139 0.000363498 -7.606e-05)
(0.000298446 0.000390996 -7.60593e-05)
(0.000263234 0.00041552 -7.60592e-05)
(0.000226016 0.000436881 -7.60595e-05)
(0.00018708 0.000454916 -7.60594e-05)
(0.000146719 0.00046949 -7.60589e-05)
(0.000105241 0.000480491 -7.60592e-05)
(6.29627e-05 0.000487837 -7.60599e-05)
(2.02062e-05 0.000491467 -7.606e-05)
(-2.27052e-05 0.000491356 -7.60597e-05)
(-6.54424e-05 0.000487509 -7.60603e-05)
(-0.000107681 0.000479952 -7.606e-05)
(-0.000149103 0.000468741 -7.60605e-05)
(-0.000189389 0.000453962 -7.60595e-05)
(-0.000228235 0.000435729 -7.60587e-05)
(-0.000265344 0.000414178 -7.60581e-05)
(-0.000300433 0.000389477 -7.60591e-05)
(-0.000333233 0.000361809 -7.60601e-05)
(-0.000363498 0.00033139 -7.606e-05)
(-0.000390996 0.000298446 -7.60593e-05)
(-0.00041552 0.000263234 -7.60592e-05)
(-0.00147049 -0.000203038 -0.00056883)
(-0.0014472 -0.000330427 -0.000568828)
(-0.00141289 -0.000455303 -0.000568833)
(-0.00136783 -0.000576715 -0.000568835)
(-0.00131237 -0.000693737 -0.000568834)
(-0.00124691 -0.000805477 -0.00056883)
(-0.00117197 -0.000911085 -0.000568823)
(-0.0010881 -0.00100976 -0.000568819)
(-0.000995957 -0.00110075 -0.000568819)
(-0.00089623 -0.00118336 -0.000568822)
(-0.00078968 -0.00125697 -0.000568828)
(-0.000677121 -0.00132101 -0.000568832)
(-0.000559411 -0.00137501 -0.000568831)
(-0.000437444 -0.00141853 -0.000568828)
(-0.000312148 -0.00145126 -0.000568826)
(-0.000184474 -0.00147293 -0.000568826)
(-5.53939e-05 -0.00148341 -0.000568833)
(7.4104e-05 -0.0014826 -0.000568832)
(0.000203038 -0.0014705 -0.00056883)
(0.000330427 -0.0014472 -0.000568828)
(0.000455303 -0.00141289 -0.000568833)
(0.000576715 -0.00136783 -0.000568835)
(0.000693737 -0.00131237 -0.000568834)
(0.000805477 -0.00124691 -0.00056883)
(0.000911085 -0.00117197 -0.000568823)
(0.00100976 -0.0010881 -0.00056882)
(0.00110075 -0.000995957 -0.000568819)
(0.00118336 -0.00089623 -0.000568822)
(0.00125697 -0.00078968 -0.000568828)
(0.00132101 -0.000677121 -0.000568832)
(0.00137501 -0.000559411 -0.000568831)
(0.00141853 -0.000437445 -0.000568828)
(0.00145126 -0.000312148 -0.000568826)
(0.00147293 -0.000184474 -0.000568826)
(0.00148341 -5.5394e-05 -0.000568833)
(0.0014826 7.41039e-05 -0.000568832)
(0.0014705 0.000203038 -0.00056883)
(0.0014472 0.000330427 -0.000568828)
(0.00141289 0.000455303 -0.000568833)
(0.00136783 0.000576715 -0.000568835)
(0.00131237 0.000693737 -0.000568834)
(0.00124691 0.000805477 -0.00056883)
(0.00117197 0.000911085 -0.000568823)
(0.0010881 0.00100976 -0.00056882)
(0.000995957 0.00110075 -0.000568819)
(0.00089623 0.00118336 -0.000568822)
(0.00078968 0.00125697 -0.000568828)
(0.000677121 0.00132101 -0.000568832)
(0.000559411 0.00137501 -0.00056883)
(0.000437445 0.00141853 -0.000568827)
(0.000312148 0.00145126 -0.000568826)
(0.000184474 0.00147293 -0.000568826)
(5.53941e-05 0.00148341 -0.000568833)
(-7.41039e-05 0.00148259 -0.000568831)
(-0.000203038 0.00147049 -0.00056883)
(-0.000330427 0.0014472 -0.000568828)
(-0.000455303 0.00141289 -0.000568833)
(-0.000576715 0.00136783 -0.000568835)
(-0.000693737 0.00131237 -0.000568834)
(-0.000805477 0.00124691 -0.00056883)
(-0.000911085 0.00117197 -0.000568823)
(-0.00100976 0.0010881 -0.000568819)
(-0.00110075 0.000995957 -0.000568819)
(-0.00118336 0.00089623 -0.000568822)
(-0.00125697 0.00078968 -0.000568828)
(-0.00132101 0.000677121 -0.000568832)
(-0.00137501 0.000559411 -0.00056883)
(-0.00141853 0.000437444 -0.000568827)
(-0.00145126 0.000312148 -0.000568826)
(-0.00147293 0.000184474 -0.000568826)
(-0.00148341 5.5394e-05 -0.000568833)
(-0.00148259 -7.4104e-05 -0.000568832)
(-0.001464 0.000147287 -0.000381849)
(-0.00147126 1.91312e-05 -0.000381848)
(-0.00146733 -0.000109172 -0.00038185)
(-0.00145223 -0.000236646 -0.00038185)
(-0.00142609 -0.000362316 -0.000381849)
(-0.00138908 -0.000485228 -0.000381848)
(-0.0013415 -0.000604446 -0.000381846)
(-0.00128372 -0.000719064 -0.000381845)
(-0.00121617 -0.000828209 -0.000381844)
(-0.00113936 -0.000931053 -0.000381844)
(-0.00105387 -0.00102681 -0.000381845)
(-0.000960371 -0.00111476 -0.000381846)
(-0.000859557 -0.00119422 -0.000381847)
(-0.000752204 -0.00126459 -0.000381847)
(-0.000639124 -0.00132534 -0.000381847)
(-0.000521181 -0.00137599 -0.000381847)
(-0.000399271 -0.00141618 -0.000381849)
(-0.000274322 -0.00144559 -0.000381848)
(-0.000147287 -0.001464 -0.000381849)
(-1.91311e-05 -0.00147126 -0.000381848)
(0.000109173 -0.00146733 -0.00038185)
(0.000236646 -0.00145223 -0.00038185)
(0.000362316 -0.00142609 -0.00038185)
(0.000485228 -0.00138908 -0.000381848)
(0.000604446 -0.0013415 -0.000381846)
(0.000719064 -0.00128372 -0.000381845)
(0.000828209 -0.00121617 -0.000381844)
(0.000931053 -0.00113936 -0.000381844)
(0.00102681 -0.00105387 -0.000381845)
(0.00111476 -0.000960371 -0.000381847)
(0.00119422 -0.000859557 -0.000381847)
(0.00126459 -0.000752204 -0.000381846)
(0.00132534 -0.000639124 -0.000381847)
(0.00137599 -0.000521181 -0.000381847)
(0.00141618 -0.000399271 -0.000381849)
(0.00144559 -0.000274323 -0.000381848)
(0.001464 -0.000147287 -0.000381849)
(0.00147127 -1.91312e-05 -0.000381848)
(0.00146733 0.000109172 -0.00038185)
(0.00145223 0.000236646 -0.00038185)
(0.00142609 0.000362316 -0.00038185)
(0.00138908 0.000485228 -0.000381848)
(0.0013415 0.000604446 -0.000381846)
(0.00128372 0.000719064 -0.000381845)
(0.00121617 0.000828209 -0.000381844)
(0.00113936 0.000931053 -0.000381844)
(0.00105387 0.00102681 -0.000381845)
(0.000960371 0.00111476 -0.000381846)
(0.000859557 0.00119422 -0.000381847)
(0.000752204 0.00126459 -0.000381846)
(0.000639124 0.00132534 -0.000381846)
(0.000521181 0.00137599 -0.000381847)
(0.000399271 0.00141618 -0.000381848)
(0.000274323 0.00144559 -0.000381848)
(0.000147287 0.001464 -0.000381849)
(1.91313e-05 0.00147126 -0.000381848)
(-0.000109172 0.00146733 -0.00038185)
(-0.000236645 0.00145223 -0.00038185)
(-0.000362316 0.00142609 -0.000381849)
(-0.000485228 0.00138908 -0.000381848)
(-0.000604446 0.0013415 -0.000381846)
(-0.000719064 0.00128372 -0.000381845)
(-0.000828209 0.00121617 -0.000381844)
(-0.000931053 0.00113936 -0.000381844)
(-0.00102681 0.00105387 -0.000381845)
(-0.00111476 0.000960371 -0.000381846)
(-0.00119422 0.000859557 -0.000381847)
(-0.00126459 0.000752204 -0.000381846)
(-0.00132534 0.000639124 -0.000381846)
(-0.00137599 0.000521181 -0.000381847)
(-0.00141618 0.000399271 -0.000381848)
(-0.00144559 0.000274323 -0.000381848)
(-0.00150322 0.000690129 -0.000171193)
(-0.00155765 0.000556491 -0.000171193)
(-0.00160022 0.000418614 -0.000171192)
(-0.00163061 0.000277551 -0.000171192)
(-0.0016486 0.000134376 -0.000171192)
(-0.00165404 -9.81874e-06 -0.000171193)
(-0.00164689 -0.000153939 -0.000171193)
(-0.0016272 -0.000296887 -0.000171194)
(-0.00159514 -0.000437577 -0.000171193)
(-0.00155093 -0.000574938 -0.000171191)
(-0.00149492 -0.000707925 -0.00017119)
(-0.00142754 -0.000835524 -0.00017119)
(-0.00134928 -0.000956764 -0.00017119)
(-0.00126076 -0.00107072 -0.000171192)
(-0.00116264 -0.00117653 -0.000171192)
(-0.00105568 -0.00127338 -0.000171192)
(-0.000940677 -0.00136054 -0.000171192)
(-0.000818517 -0.00143735 -0.000171192)
(-0.000690129 -0.00150322 -0.000171193)
(-0.000556491 -0.00155765 -0.000171193)
(-0.000418614 -0.00160022 -0.000171192)
(-0.000277551 -0.00163061 -0.000171193)
(-0.000134376 -0.0016486 -0.000171192)
(9.8187e-06 -0.00165404 -0.000171193)
(0.000153939 -0.00164689 -0.000171194)
(0.000296887 -0.0016272 -0.000171194)
(0.000437577 -0.00159514 -0.000171194)
(0.000574938 -0.00155093 -0.000171191)
(0.000707925 -0.00149492 -0.00017119)
(0.000835524 -0.00142754 -0.00017119)
(0.000956764 -0.00134928 -0.000171191)
(0.00107072 -0.00126076 -0.000171192)
(0.00117653 -0.00116264 -0.000171192)
(0.00127338 -0.00105568 -0.000171192)
(0.00136054 -0.000940677 -0.000171192)
(0.00143735 -0.000818517 -0.000171192)
(0.00150322 -0.000690129 -0.000171193)
(0.00155765 -0.000556491 -0.000171193)
(0.00160022 -0.000418614 -0.000171192)
(0.00163061 -0.000277551 -0.000171192)
(0.0016486 -0.000134376 -0.000171192)
(0.00165404 9.81863e-06 -0.000171193)
(0.00164689 0.000153939 -0.000171194)
(0.0016272 0.000296887 -0.000171194)
(0.00159514 0.000437577 -0.000171193)
(0.00155093 0.000574938 -0.000171191)
(0.00149492 0.000707925 -0.00017119)
(0.00142754 0.000835524 -0.00017119)
(0.00134928 0.000956764 -0.00017119)
(0.00126076 0.00107072 -0.000171192)
(0.00116264 0.00117653 -0.000171192)
(0.00105568 0.00127338 -0.000171192)
(0.000940677 0.00136054 -0.000171192)
(0.000818517 0.00143735 -0.000171191)
(0.000690129 0.00150322 -0.000171193)
(0.000556491 0.00155765 -0.000171193)
(0.000418614 0.00160022 -0.000171192)
(0.000277551 0.00163061 -0.000171192)
(0.000134376 0.0016486 -0.000171192)
(-9.81861e-06 0.00165404 -0.000171193)
(-0.000153939 0.00164689 -0.000171194)
(-0.000296887 0.0016272 -0.000171194)
(-0.000437577 0.00159514 -0.000171193)
(-0.000574938 0.00155093 -0.000171191)
(-0.000707925 0.00149492 -0.00017119)
(-0.000835524 0.00142754 -0.00017119)
(-0.000956764 0.00134928 -0.00017119)
(-0.00107072 0.00126076 -0.000171192)
(-0.00117653 0.00116264 -0.000171192)
(-0.00127338 0.00105568 -0.000171192)
(-0.00136054 0.000940677 -0.000171192)
(-0.00143735 0.000818517 -0.000171191)
(-0.00200973 -0.000152351 -0.000928632)
(-0.0019888 -0.000326931 -0.000928632)
(-0.00195274 -0.000499023 -0.000928634)
(-0.00190181 -0.000667316 -0.000928633)
(-0.00183642 -0.000830532 -0.000928634)
(-0.00175704 -0.000987427 -0.000928629)
(-0.0016643 -0.0011368 -0.000928623)
(-0.00155889 -0.00127753 -0.000928623)
(-0.00144161 -0.00140853 -0.000928622)
(-0.00131337 -0.00152882 -0.000928623)
(-0.00117512 -0.00163747 -0.000928623)
(-0.00102793 -0.00173365 -0.000928627)
(-0.000872924 -0.00181665 -0.000928626)
(-0.000711272 -0.00188582 -0.000928626)
(-0.000544206 -0.00194063 -0.000928626)
(-0.000372996 -0.00198068 -0.000928626)
(-0.000198947 -0.00200565 -0.000928631)
(-2.33865e-05 -0.00201536 -0.000928633)
(0.000152351 -0.00200973 -0.000928633)
(0.000326932 -0.0019888 -0.000928633)
(0.000499023 -0.00195274 -0.000928634)
(0.000667316 -0.00190181 -0.000928634)
(0.000830532 -0.00183642 -0.000928634)
(0.000987427 -0.00175704 -0.00092863)
(0.0011368 -0.0016643 -0.000928623)
(0.00127753 -0.00155889 -0.000928623)
(0.00140853 -0.00144161 -0.000928622)
(0.00152882 -0.00131337 -0.000928623)
(0.00163747 -0.00117512 -0.000928623)
(0.00173365 -0.00102793 -0.000928627)
(0.00181665 -0.000872924 -0.000928626)
(0.00188582 -0.000711272 -0.000928626)
(0.00194063 -0.000544206 -0.000928626)
(0.00198068 -0.000372996 -0.000928626)
(0.00200565 -0.000198947 -0.000928631)
(0.00201536 -2.33866e-05 -0.000928633)
(0.00200973 0.000152351 -0.000928632)
(0.0019888 0.000326931 -0.000928633)
(0.00195274 0.000499023 -0.000928634)
(0.00190181 0.000667316 -0.000928634)
(0.00183642 0.000830532 -0.000928634)
(0.00175704 0.000987427 -0.000928629)
(0.0016643 0.0011368 -0.000928623)
(0.00155889 0.00127753 -0.000928623)
(0.00144161 0.00140853 -0.000928622)
(0.00131337 0.00152882 -0.000928623)
(0.00117512 0.00163746 -0.000928623)
(0.00102793 0.00173365 -0.000928627)
(0.000872924 0.00181665 -0.000928626)
(0.000711273 0.00188582 -0.000928626)
(0.000544206 0.00194063 -0.000928626)
(0.000372996 0.00198067 -0.000928625)
(0.000198947 0.00200565 -0.000928631)
(2.33867e-05 0.00201536 -0.000928633)
(-0.000152351 0.00200973 -0.000928632)
(-0.000326931 0.0019888 -0.000928632)
(-0.000499023 0.00195274 -0.000928634)
(-0.000667316 0.00190181 -0.000928633)
(-0.000830532 0.00183641 -0.000928634)
(-0.000987427 0.00175704 -0.000928629)
(-0.0011368 0.0016643 -0.000928623)
(-0.00127753 0.00155889 -0.000928623)
(-0.00140853 0.00144161 -0.000928622)
(-0.00152882 0.00131337 -0.000928623)
(-0.00163746 0.00117512 -0.000928623)
(-0.00173365 0.00102793 -0.000928626)
(-0.00181665 0.000872924 -0.000928626)
(-0.00188582 0.000711272 -0.000928626)
(-0.00194063 0.000544206 -0.000928626)
(-0.00198067 0.000372996 -0.000928625)
(-0.00200565 0.000198947 -0.000928631)
(-0.00201536 2.33866e-05 -0.000928633)
(-0.00214916 0.000446273 -0.000640699)
(-0.00217988 0.000257263 -0.000640699)
(-0.002194 6.62948e-05 -0.0006407)
(-0.00219143 -0.000125177 -0.0006407)
(-0.00217218 -0.000315697 -0.0006407)
(-0.0021364 -0.000503815 -0.000640699)
(-0.00208436 -0.000688096 -0.000640696)
(-0.00201646 -0.000867141 -0.000640696)
(-0.00193321 -0.00103959 -0.000640695)
(-0.00183525 -0.00120412 -0.000640694)
(-0.00172332 -0.00135949 -0.000640695)
(-0.00159828 -0.00150452 -0.000640696)
(-0.00146106 -0.00163809 -0.000640696)
(-0.00131274 -0.0017592 -0.000640695)
(-0.00115442 -0.00186692 -0.000640696)
(-0.000987311 -0.00196043 -0.000640697)
(-0.000812691 -0.00203902 -0.000640698)
(-0.000631886 -0.00210209 -0.000640698)
(-0.000446272 -0.00214916 -0.000640699)
(-0.000257263 -0.00217988 -0.000640699)
(-6.62947e-05 -0.002194 -0.0006407)
(0.000125177 -0.00219143 -0.000640701)
(0.000315698 -0.00217218 -0.0006407)
(0.000503816 -0.0021364 -0.000640699)
(0.000688096 -0.00208436 -0.000640696)
(0.000867141 -0.00201646 -0.000640696)
(0.00103959 -0.00193321 -0.000640695)
(0.00120412 -0.00183525 -0.000640694)
(0.00135949 -0.00172332 -0.000640695)
(0.00150452 -0.00159828 -0.000640696)
(0.00163809 -0.00146107 -0.000640696)
(0.0017592 -0.00131274 -0.000640695)
(0.00186692 -0.00115442 -0.000640696)
(0.00196043 -0.000987311 -0.000640696)
(0.00203902 -0.000812691 -0.000640698)
(0.00210209 -0.000631886 -0.000640698)
(0.00214916 -0.000446273 -0.000640699)
(0.00217988 -0.000257263 -0.000640699)
(0.002194 -6.62948e-05 -0.0006407)
(0.00219143 0.000125177 -0.000640701)
(0.00217218 0.000315697 -0.0006407)
(0.0021364 0.000503815 -0.000640699)
(0.00208436 0.000688095 -0.000640696)
(0.00201646 0.000867141 -0.000640696)
(0.00193321 0.00103959 -0.000640695)
(0.00183525 0.00120412 -0.000640694)
(0.00172332 0.00135949 -0.000640695)
(0.00159828 0.00150452 -0.000640696)
(0.00146107 0.00163809 -0.000640696)
(0.00131274 0.0017592 -0.000640695)
(0.00115442 0.00186692 -0.000640695)
(0.000987311 0.00196043 -0.000640696)
(0.000812691 0.00203902 -0.000640698)
(0.000631887 0.00210209 -0.000640698)
(0.000446273 0.00214916 -0.000640699)
(0.000257263 0.00217988 -0.000640699)
(6.62949e-05 0.002194 -0.0006407)
(-0.000125177 0.00219143 -0.0006407)
(-0.000315697 0.00217218 -0.0006407)
(-0.000503815 0.0021364 -0.000640699)
(-0.000688095 0.00208436 -0.000640696)
(-0.000867141 0.00201646 -0.000640696)
(-0.00103959 0.00193321 -0.000640695)
(-0.00120412 0.00183525 -0.000640694)
(-0.00135949 0.00172332 -0.000640695)
(-0.00150452 0.00159828 -0.000640696)
(-0.00163809 0.00146106 -0.000640696)
(-0.0017592 0.00131274 -0.000640695)
(-0.00186692 0.00115442 -0.000640695)
(-0.00196043 0.000987311 -0.000640696)
(-0.00203902 0.000812691 -0.000640698)
(-0.00210209 0.000631886 -0.000640698)
(-0.0023644 0.00112893 -0.000384301)
(-0.0024538 0.000918565 -0.000384301)
(-0.00252452 0.000701208 -0.000384302)
(-0.00257602 0.000478512 -0.000384302)
(-0.00260793 0.000252175 -0.000384303)
(-0.00261998 2.39214e-05 -0.000384302)
(-0.0026121 -0.000204516 -0.000384303)
(-0.00258433 -0.000431396 -0.000384303)
(-0.0025369 -0.000654994 -0.000384303)
(-0.00247016 -0.000873608 -0.000384301)
(-0.00238463 -0.00108557 -0.000384301)
(-0.00228094 -0.00128928 -0.000384301)
(-0.00215989 -0.00148317 -0.000384301)
(-0.0020224 -0.00166577 -0.000384301)
(-0.00186952 -0.00183569 -0.000384301)
(-0.00170242 -0.00199165 -0.000384301)
(-0.00152236 -0.00213245 -0.000384301)
(-0.00133071 -0.00225701 -0.000384301)
(-0.00112893 -0.0023644 -0.000384301)
(-0.000918565 -0.0024538 -0.000384301)
(-0.000701208 -0.00252452 -0.000384302)
(-0.000478512 -0.00257602 -0.000384302)
(-0.000252175 -0.00260793 -0.000384303)
(-2.39214e-05 -0.00261998 -0.000384303)
(0.000204516 -0.0026121 -0.000384303)
(0.000431396 -0.00258433 -0.000384303)
(0.000654994 -0.0025369 -0.000384303)
(0.000873608 -0.00247016 -0.000384301)
(0.00108557 -0.00238463 -0.000384301)
(0.00128928 -0.00228094 -0.000384301)
(0.00148317 -0.00215989 -0.000384301)
(0.00166577 -0.0020224 -0.000384301)
(0.0018357 -0.00186952 -0.000384301)
(0.00199165 -0.00170242 -0.000384301)
(0.00213245 -0.00152236 -0.000384301)
(0.00225701 -0.00133071 -0.000384301)
(0.0023644 -0.00112893 -0.000384301)
(0.0024538 -0.000918565 -0.000384301)
(0.00252452 -0.000701208 -0.000384302)
(0.00257602 -0.000478512 -0.000384302)
(0.00260793 -0.000252175 -0.000384303)
(0.00261998 -2.39215e-05 -0.000384303)
(0.0026121 0.000204515 -0.000384303)
(0.00258433 0.000431396 -0.000384303)
(0.0025369 0.000654994 -0.000384303)
(0.00247016 0.000873607 -0.000384301)
(0.00238463 0.00108557 -0.000384301)
(0.00228094 0.00128928 -0.000384301)
(0.00215989 0.00148317 -0.000384301)
(0.0020224 0.00166577 -0.000384301)
(0.00186952 0.00183569 -0.000384301)
(0.00170242 0.00199165 -0.000384301)
(0.00152236 0.00213245 -0.0003843)
(0.00133071 0.00225701 -0.000384301)
(0.00112893 0.0023644 -0.000384301)
(0.000918565 0.0024538 -0.000384301)
(0.000701208 0.00252452 -0.000384301)
(0.000478512 0.00257602 -0.000384302)
(0.000252175 0.00260793 -0.000384303)
(2.39215e-05 0.00261998 -0.000384302)
(-0.000204515 0.0026121 -0.000384303)
(-0.000431396 0.00258433 -0.000384303)
(-0.000654994 0.0025369 -0.000384303)
(-0.000873607 0.00247016 -0.000384301)
(-0.00108557 0.00238463 -0.000384301)
(-0.00128928 0.00228094 -0.000384301)
(-0.00148317 0.00215989 -0.000384301)
(-0.00166577 0.0020224 -0.000384301)
(-0.00183569 0.00186952 -0.000384301)
(-0.00199165 0.00170242 -0.000384301)
(-0.00213245 0.00152236 -0.0003843)
(-0.00225701 0.00133071 -0.000384301)
(-0.00217819 0.000192642 -0.00126604)
(-0.00218669 2.06794e-06 -0.00126604)
(-0.00217855 -0.000188522 -0.00126604)
(-0.00215382 -0.000377677 -0.00126604)
(-0.00211271 -0.00056396 -0.00126604)
(-0.00205552 -0.00074595 -0.00126604)
(-0.00198269 -0.000922261 -0.00126603)
(-0.00189476 -0.00109155 -0.00126603)
(-0.00179241 -0.00125254 -0.00126603)
(-0.00167643 -0.00140399 -0.00126604)
(-0.00154768 -0.00154476 -0.00126604)
(-0.00140716 -0.00167377 -0.00126604)
(-0.00125593 -0.00179004 -0.00126603)
(-0.00109513 -0.00189269 -0.00126603)
(-0.000926009 -0.00198094 -0.00126603)
(-0.000749834 -0.00205411 -0.00126603)
(-0.000567952 -0.00211164 -0.00126604)
(-0.00038175 -0.00215311 -0.00126604)
(-0.000192642 -0.00217819 -0.00126604)
(-2.0678e-06 -0.00218669 -0.00126604)
(0.000188522 -0.00217855 -0.00126604)
(0.000377677 -0.00215382 -0.00126604)
(0.00056396 -0.00211271 -0.00126604)
(0.00074595 -0.00205552 -0.00126604)
(0.000922261 -0.00198269 -0.00126603)
(0.00109155 -0.00189476 -0.00126603)
(0.00125254 -0.00179241 -0.00126603)
(0.00140399 -0.00167643 -0.00126604)
(0.00154476 -0.00154768 -0.00126604)
(0.00167377 -0.00140716 -0.00126604)
(0.00179004 -0.00125593 -0.00126603)
(0.00189269 -0.00109513 -0.00126603)
(0.00198094 -0.000926009 -0.00126603)
(0.00205411 -0.000749834 -0.00126603)
(0.00211164 -0.000567953 -0.00126604)
(0.00215311 -0.00038175 -0.00126604)
(0.00217819 -0.000192642 -0.00126604)
(0.00218669 -2.06803e-06 -0.00126604)
(0.00217855 0.000188522 -0.00126604)
(0.00215382 0.000377677 -0.00126604)
(0.00211271 0.00056396 -0.00126604)
(0.00205552 0.00074595 -0.00126604)
(0.00198269 0.00092226 -0.00126603)
(0.00189476 0.00109155 -0.00126603)
(0.00179241 0.00125254 -0.00126603)
(0.00167643 0.00140399 -0.00126604)
(0.00154768 0.00154476 -0.00126604)
(0.00140716 0.00167377 -0.00126604)
(0.00125593 0.00179004 -0.00126603)
(0.00109513 0.00189269 -0.00126603)
(0.000926009 0.00198094 -0.00126603)
(0.000749835 0.00205411 -0.00126603)
(0.000567953 0.00211164 -0.00126604)
(0.00038175 0.00215311 -0.00126604)
(0.000192642 0.00217819 -0.00126604)
(2.06815e-06 0.00218669 -0.00126604)
(-0.000188522 0.00217855 -0.00126604)
(-0.000377677 0.00215382 -0.00126604)
(-0.000563959 0.00211271 -0.00126604)
(-0.00074595 0.00205552 -0.00126604)
(-0.00092226 0.00198269 -0.00126603)
(-0.00109155 0.00189476 -0.00126603)
(-0.00125254 0.00179241 -0.00126603)
(-0.00140399 0.00167643 -0.00126604)
(-0.00154476 0.00154768 -0.00126604)
(-0.00167377 0.00140716 -0.00126604)
(-0.00179004 0.00125593 -0.00126603)
(-0.00189269 0.00109513 -0.00126603)
(-0.00198094 0.000926009 -0.00126603)
(-0.00205411 0.000749834 -0.00126603)
(-0.00211164 0.000567953 -0.00126604)
(-0.00215311 0.00038175 -0.00126604)
(-0.00244618 0.000878181 -0.000959425)
(-0.00251341 0.000661641 -0.000959426)
(-0.00256151 0.000440067 -0.000959427)
(-0.00259011 0.000215142 -0.000959429)
(-0.00259901 -1.1421e-05 -0.000959428)
(-0.00258812 -0.000237895 -0.000959426)
(-0.00255754 -0.000462561 -0.000959424)
(-0.00250749 -0.000683705 -0.000959423)
(-0.00243836 -0.000899644 -0.000959423)
(-0.00235067 -0.00110874 -0.000959424)
(-0.0022451 -0.00130939 -0.000959425)
(-0.00212243 -0.00150009 -0.000959424)
(-0.00198362 -0.00167936 -0.000959423)
(-0.0018297 -0.00184585 -0.000959423)
(-0.00166186 -0.0019983 -0.000959423)
(-0.00148137 -0.00213553 -0.000959424)
(-0.00128961 -0.00225652 -0.000959424)
(-0.00108804 -0.00236033 -0.000959424)
(-0.000878181 -0.00244618 -0.000959425)
(-0.000661641 -0.00251341 -0.000959426)
(-0.000440067 -0.00256151 -0.000959427)
(-0.000215142 -0.00259011 -0.000959429)
(1.14212e-05 -0.00259901 -0.000959429)
(0.000237896 -0.00258812 -0.000959426)
(0.000462561 -0.00255754 -0.000959424)
(0.000683705 -0.00250749 -0.000959424)
(0.000899644 -0.00243836 -0.000959423)
(0.00110874 -0.00235067 -0.000959424)
(0.00130939 -0.0022451 -0.000959425)
(0.00150009 -0.00212243 -0.000959425)
(0.00167936 -0.00198362 -0.000959424)