/*--------------------------------*- C++ -*----------------------------------*\
| =========                 |                                                 |
| \\      /  F ield         | OpenFOAM: The Open Source CFD Toolbox           |
|  \\    /   O peration     | Version:  2312                                  |
|   \\  /    A nd           | Website:  www.openfoam.com                      |
|    \\/     M anipulation  |                                                 |
\*---------------------------------------------------------------------------*/
FoamFile
{
    version     2.0;
    format      ascii;
    arch        "LSB;label=32;scalar=64";
    class       volVectorField;
    location    "0.4";
    object      D_0;
}
// * * * * * * * * * * * * * * * * * * * * * * * * * * * * * * * * * * * * * //

dimensions      [0 1 0 0 0 0 0];

internalField   nonuniform List<vector> 
3240
(
(-0.000309703 0.000183067 -0.000109642)
(-0.000324479 0.000155379 -0.000109641)
(-0.000336786 0.000126507 -0.000109642)
(-0.00034653 9.66715e-05 -0.000109642)
(-0.000353638 6.61016e-05 -0.000109642)
(-0.000358054 3.50284e-05 -0.000109641)
(-0.000359744 3.68969e-06 -0.00010964)
(-0.000358697 -2.76775e-05 -0.00010964)
(-0.000354919 -5.88337e-05 -0.000109641)
(-0.000348441 -8.95429e-05 -0.000109642)
(-0.00033931 -0.000119571 -0.000109642)
(-0.000327598 -0.00014869 -0.000109643)
(-0.000313393 -0.000176677 -0.000109642)
(-0.000296802 -0.000203319 -0.000109641)
(-0.000277952 -0.000228412 -0.00010964)
(-0.000256987 -0.000251767 -0.000109641)
(-0.000234065 -0.000273208 -0.000109643)
(-0.000209363 -0.000292569 -0.000109642)
(-0.000183067 -0.000309703 -0.000109642)
(-0.000155379 -0.000324479 -0.000109641)
(-0.000126507 -0.000336786 -0.000109642)
(-9.66714e-05 -0.00034653 -0.000109642)
(-6.61016e-05 -0.000353638 -0.000109642)
(-3.50284e-05 -0.000358054 -0.000109641)
(-3.68971e-06 -0.000359744 -0.00010964)
(2.76774e-05 -0.000358697 -0.00010964)
(5.88337e-05 -0.000354919 -0.000109641)
(8.95429e-05 -0.000348441 -0.000109642)
(0.000119571 -0.00033931 -0.000109642)
(0.00014869 -0.000327598 -0.000109643)
(0.000176677 -0.000313393 -0.000109642)
(0.000203319 -0.000296802 -0.000109641)
(0.000228412 -0.000277952 -0.00010964)
(0.000251767 -0.000256987 -0.000109641)
(0.000273208 -0.000234065 -0.000109643)
(0.000292569 -0.000209363 -0.000109642)
(0.000309703 -0.000183067 -0.000109642)
(0.000324479 -0.000155379 -0.000109641)
(0.000336786 -0.000126507 -0.000109642)
(0.00034653 -9.66714e-05 -0.000109642)
(0.000353638 -6.61016e-05 -0.000109642)
(0.000358054 -3.50284e-05 -0.000109641)
(0.000359744 -3.6897e-06 -0.00010964)
(0.000358697 2.76775e-05 -0.00010964)
(0.000354919 5.88337e-05 -0.000109641)
(0.000348441 8.95429e-05 -0.000109642)
(0.00033931 0.000119571 -0.000109642)
(0.000327598 0.00014869 -0.000109643)
(0.000313393 0.000176677 -0.000109642)
(0.000296802 0.000203319 -0.000109641)
(0.000277952 0.000228412 -0.00010964)
(0.000256987 0.000251767 -0.000109641)
(0.000234065 0.000273208 -0.000109643)
(0.000209363 0.000292569 -0.000109642)
(0.000183067 0.000309703 -0.000109642)
(0.000155379 0.000324479 -0.000109641)
(0.000126507 0.000336786 -0.000109642)
(9.66714e-05 0.00034653 -0.000109642)
(6.61016e-05 0.000353638 -0.000109642)
(3.50284e-05 0.000358054 -0.000109641)
(3.68969e-06 0.000359744 -0.00010964)
(-2.76775e-05 0.000358697 -0.00010964)
(-5.88337e-05 0.000354919 -0.000109641)
(-8.95429e-05 0.000348441 -0.000109642)
(-0.000119571 0.00033931 -0.000109642)
(-0.00014869 0.000327598 -0.000109643)
(-0.000176677 0.000313393 -0.000109642)
(-0.000203319 0.000296802 -0.000109641)
(-0.000228412 0.000277952 -0.00010964)
(-0.000251767 0.000256987 -0.000109641)
(-0.000273208 0.000234065 -0.000109643)
(-0.000292569 0.000209363 -0.000109642)
(-0.000255194 0.000214917 -6.28234e-05)
(-0.000272954 0.000191858 -6.28231e-05)
(-0.000288637 0.000167338 -6.28235e-05)
(-0.000302123 0.000141545 -6.28234e-05)
(-0.00031331 0.000114674 -6.28233e-05)
(-0.000322112 8.69311e-05 -6.28232e-05)
(-0.000328463 5.85264e-05 -6.28228e-05)
(-0.000332314 2.96768e-05 -6.28224e-05)
(-0.000333636 6.01742e-07 -6.28226e-05)
(-0.000332419 -2.84789e-05 -6.28233e-05)
(-0.000328672 -5.73432e-05 -6.28234e-05)
(-0.000322424 -8.57712e-05 -6.28233e-05)
(-0.000313721 -0.000113546 -6.2823e-05)
(-0.000302631 -0.000140457 -6.28229e-05)
(-0.000289238 -0.000166298 -6.28229e-05)
(-0.000273644 -0.000190874 -6.2823e-05)
(-0.000255966 -0.000213997 -6.28236e-05)
(-0.000236341 -0.000235492 -6.28233e-05)
(-0.000214917 -0.000255194 -6.28234e-05)
(-0.000191858 -0.000272954 -6.28231e-05)
(-0.000167338 -0.000288637 -6.28235e-05)
(-0.000141545 -0.000302123 -6.28234e-05)
(-0.000114674 -0.00031331 -6.28233e-05)
(-8.69311e-05 -0.000322112 -6.28232e-05)
(-5.85264e-05 -0.000328463 -6.28228e-05)
(-2.96769e-05 -0.000332314 -6.28224e-05)
(-6.01756e-07 -0.000333636 -6.28226e-05)
(2.84788e-05 -0.000332419 -6.28233e-05)
(5.73432e-05 -0.000328672 -6.28234e-05)
(8.57712e-05 -0.000322424 -6.28233e-05)
(0.000113546 -0.000313721 -6.2823e-05)
(0.000140457 -0.000302631 -6.28228e-05)
(0.000166298 -0.000289238 -6.28229e-05)
(0.000190874 -0.000273644 -6.2823e-05)
(0.000213997 -0.000255966 -6.28235e-05)
(0.000235492 -0.000236341 -6.28233e-05)
(0.000255194 -0.000214917 -6.28234e-05)
(0.000272954 -0.000191858 -6.28231e-05)
(0.000288637 -0.000167338 -6.28235e-05)
(0.000302123 -0.000141545 -6.28234e-05)
(0.00031331 -0.000114674 -6.28233e-05)
(0.000322112 -8.69311e-05 -6.28232e-05)
(0.000328463 -5.85264e-05 -6.28228e-05)
(0.000332314 -2.96769e-05 -6.28224e-05)
(0.000333636 -6.01753e-07 -6.28226e-05)
(0.000332419 2.84788e-05 -6.28233e-05)
(0.000328672 5.73432e-05 -6.28234e-05)
(0.000322424 8.57712e-05 -6.28233e-05)
(0.000313721 0.000113546 -6.2823e-05)
(0.000302631 0.000140457 -6.28228e-05)
(0.000289238 0.000166298 -6.28229e-05)
(0.000273644 0.000190874 -6.2823e-05)
(0.000255966 0.000213997 -6.28235e-05)
(0.000236341 0.000235492 -6.28233e-05)
(0.000214917 0.000255194 -6.28234e-05)
(0.000191858 0.000272954 -6.28231e-05)
(0.000167338 0.000288637 -6.28235e-05)
(0.000141545 0.000302123 -6.28234e-05)
(0.000114674 0.00031331 -6.28233e-05)
(8.69311e-05 0.000322112 -6.28232e-05)
(5.85264e-05 0.000328463 -6.28228e-05)
(2.96769e-05 0.000332314 -6.28224e-05)
(6.0175e-07 0.000333636 -6.28226e-05)
(-2.84788e-05 0.000332419 -6.28233e-05)
(-5.73432e-05 0.000328672 -6.28234e-05)
(-8.57712e-05 0.000322424 -6.28233e-05)
(-0.000113546 0.000313721 -6.2823e-05)
(-0.000140457 0.000302631 -6.28228e-05)
(-0.000166298 0.000289238 -6.28229e-05)
(-0.000190874 0.000273644 -6.2823e-05)
(-0.000213997 0.000255966 -6.28236e-05)
(-0.000235492 0.000236341 -6.28233e-05)
(-0.00021924 0.00028173 -1.18574e-05)
(-0.00024296 0.000261551 -1.18572e-05)
(-0.000264831 0.00023938 -1.18569e-05)
(-0.000284686 0.000215387 -1.18571e-05)
(-0.000302376 0.000189755 -1.18574e-05)
(-0.000317763 0.000162679 -1.18574e-05)
(-0.000330732 0.000134365 -1.18571e-05)
(-0.000341184 0.000105029 -1.18574e-05)
(-0.000349041 7.48944e-05 -1.18573e-05)
(-0.00035424 4.41884e-05 -1.18576e-05)
(-0.000356743 1.31456e-05 -1.18573e-05)
(-0.000356531 -1.79969e-05 -1.1857e-05)
(-0.000353606 -4.90027e-05 -1.18568e-05)
(-0.00034799 -7.96352e-05 -1.18572e-05)
(-0.000339725 -0.000109661 -1.18577e-05)
(-0.000328875 -0.000138852 -1.18576e-05)
(-0.000315521 -0.000166987 -1.18573e-05)
(-0.000299767 -0.000193851 -1.18573e-05)
(-0.00028173 -0.00021924 -1.18574e-05)
(-0.000261551 -0.00024296 -1.18572e-05)
(-0.00023938 -0.000264831 -1.18569e-05)
(-0.000215387 -0.000284686 -1.18571e-05)
(-0.000189755 -0.000302376 -1.18574e-05)
(-0.00016268 -0.000317763 -1.18574e-05)
(-0.000134365 -0.000330732 -1.18572e-05)
(-0.000105029 -0.000341184 -1.18575e-05)
(-7.48944e-05 -0.000349041 -1.18573e-05)
(-4.41884e-05 -0.00035424 -1.18576e-05)
(-1.31456e-05 -0.000356743 -1.18573e-05)
(1.79969e-05 -0.000356531 -1.1857e-05)
(4.90027e-05 -0.000353606 -1.18568e-05)
(7.96352e-05 -0.00034799 -1.18572e-05)
(0.000109661 -0.000339725 -1.18577e-05)
(0.000138852 -0.000328875 -1.18576e-05)
(0.000166987 -0.000315521 -1.18573e-05)
(0.000193851 -0.000299767 -1.18573e-05)
(0.00021924 -0.00028173 -1.18574e-05)
(0.00024296 -0.000261551 -1.18572e-05)
(0.000264831 -0.00023938 -1.18569e-05)
(0.000284686 -0.000215387 -1.18572e-05)
(0.000302376 -0.000189755 -1.18574e-05)
(0.000317763 -0.00016268 -1.18574e-05)
(0.000330732 -0.000134365 -1.18572e-05)
(0.000341184 -0.000105029 -1.18575e-05)
(0.000349041 -7.48944e-05 -1.18573e-05)
(0.00035424 -4.41884e-05 -1.18576e-05)
(0.000356743 -1.31456e-05 -1.18573e-05)
(0.000356531 1.79969e-05 -1.1857e-05)
(0.000353606 4.90027e-05 -1.18568e-05)
(0.00034799 7.96352e-05 -1.18572e-05)
(0.000339725 0.000109661 -1.18577e-05)
(0.000328875 0.000138852 -1.18576e-05)
(0.000315521 0.000166987 -1.18573e-05)
(0.000299767 0.000193851 -1.18573e-05)
(0.00028173 0.00021924 -1.18574e-05)
(0.000261551 0.00024296 -1.18572e-05)
(0.00023938 0.000264831 -1.18569e-05)
(0.000215387 0.000284686 -1.18572e-05)
(0.000189755 0.000302376 -1.18574e-05)
(0.00016268 0.000317763 -1.18574e-05)
(0.000134365 0.000330732 -1.18572e-05)
(0.000105029 0.000341184 -1.18575e-05)
(7.48944e-05 0.000349041 -1.18574e-05)
(4.41884e-05 0.00035424 -1.18576e-05)
(1.31456e-05 0.000356743 -1.18573e-05)
(-1.79969e-05 0.000356531 -1.1857e-05)
(-4.90027e-05 0.000353606 -1.18568e-05)
(-7.96352e-05 0.00034799 -1.18572e-05)
(-0.000109661 0.000339725 -1.18577e-05)
(-0.000138852 0.000328875 -1.18576e-05)
(-0.000166987 0.000315521 -1.18573e-05)
(-0.000193851 0.000299767 -1.18573e-05)
(-0.000764724 0.000550318 -0.000323969)
(-0.000809776 0.000481574 -0.000323969)
(-0.000848665 0.000409164 -0.000323971)
(-0.000881098 0.00033364 -0.000323971)
(-0.000906825 0.000255577 -0.000323971)
(-0.00092565 0.00017557 -0.000323969)
(-0.000937429 9.42273e-05 -0.000323966)
(-0.000942075 1.21678e-05 -0.000323965)
(-0.00093955 -6.99845e-05 -0.000323965)
(-0.000929875 -0.000151604 -0.000323966)
(-0.000913123 -0.000232071 -0.000323969)
(-0.000889421 -0.000310773 -0.00032397)
(-0.000858951 -0.000387111 -0.000323969)
(-0.000821944 -0.000460501 -0.000323968)
(-0.000778681 -0.000530384 -0.000323968)
(-0.000729491 -0.000596231 -0.000323968)
(-0.000674749 -0.000657542 -0.000323971)
(-0.000614874 -0.00071385 -0.00032397)
(-0.000550318 -0.000764724 -0.000323969)
(-0.000481574 -0.000809776 -0.000323969)
(-0.000409164 -0.000848665 -0.000323971)
(-0.00033364 -0.000881098 -0.000323971)
(-0.000255577 -0.000906825 -0.000323971)
(-0.00017557 -0.00092565 -0.000323969)
(-9.42273e-05 -0.000937429 -0.000323966)
(-1.21679e-05 -0.000942075 -0.000323965)
(6.99844e-05 -0.00093955 -0.000323965)
(0.000151604 -0.000929875 -0.000323966)
(0.000232071 -0.000913123 -0.000323969)
(0.000310773 -0.000889421 -0.00032397)
(0.000387111 -0.000858951 -0.000323969)
(0.000460501 -0.000821944 -0.000323968)
(0.000530384 -0.000778681 -0.000323968)
(0.000596231 -0.000729491 -0.000323968)
(0.000657542 -0.000674749 -0.000323971)
(0.00071385 -0.000614874 -0.00032397)
(0.000764724 -0.000550318 -0.000323969)
(0.000809776 -0.000481574 -0.000323969)
(0.000848665 -0.000409164 -0.000323971)
(0.000881098 -0.00033364 -0.000323971)
(0.000906825 -0.000255577 -0.000323971)
(0.00092565 -0.00017557 -0.000323969)
(0.000937429 -9.42273e-05 -0.000323966)
(0.000942075 -1.21678e-05 -0.000323965)
(0.00093955 6.99845e-05 -0.000323965)
(0.000929875 0.000151604 -0.000323966)
(0.000913123 0.000232071 -0.000323969)
(0.000889421 0.000310773 -0.00032397)
(0.000858951 0.000387111 -0.000323969)
(0.000821944 0.000460501 -0.000323968)
(0.000778681 0.000530384 -0.000323968)
(0.000729491 0.000596231 -0.000323968)
(0.000674749 0.000657542 -0.000323971)
(0.000614874 0.00071385 -0.00032397)
(0.000550318 0.000764724 -0.000323969)
(0.000481574 0.000809776 -0.000323969)
(0.000409164 0.000848665 -0.000323971)
(0.00033364 0.000881098 -0.000323971)
(0.000255577 0.000906825 -0.000323971)
(0.00017557 0.00092565 -0.000323969)
(9.42273e-05 0.000937429 -0.000323967)
(1.21678e-05 0.000942075 -0.000323965)
(-6.99845e-05 0.00093955 -0.000323965)
(-0.000151604 0.000929875 -0.000323966)
(-0.000232072 0.000913123 -0.000323969)
(-0.000310773 0.000889421 -0.00032397)
(-0.000387111 0.000858951 -0.000323969)
(-0.000460501 0.000821944 -0.000323968)
(-0.000530384 0.000778681 -0.000323968)
(-0.000596231 0.000729491 -0.000323968)
(-0.000657542 0.000674749 -0.000323971)
(-0.00071385 0.000614874 -0.00032397)
(-0.000743305 0.000676133 -0.000198476)
(-0.000799405 0.000608777 -0.000198476)
(-0.00084942 0.000536787 -0.000198476)
(-0.000892973 0.000460712 -0.000198476)
(-0.00092973 0.000381132 -0.000198476)
(-0.000959409 0.00029865 -0.000198475)
(-0.000981788 0.000213897 -0.000198474)
(-0.000996694 0.000127515 -0.000198474)
(-0.00100401 4.01629e-05 -0.000198474)
(-0.00100369 -4.74956e-05 -0.000198474)
(-0.000995736 -0.000134793 -0.000198474)
(-0.000980199 -0.000221065 -0.000198475)
(-0.000957202 -0.000305655 -0.000198475)
(-0.00092692 -0.000387917 -0.000198475)
(-0.000889583 -0.000467226 -0.000198475)
(-0.000845476 -0.00054298 -0.000198475)
(-0.000794935 -0.000614603 -0.000198476)
(-0.000738344 -0.000681548 -0.000198476)
(-0.000676133 -0.000743305 -0.000198476)
(-0.000608777 -0.000799405 -0.000198476)
(-0.000536787 -0.00084942 -0.000198476)
(-0.000460712 -0.000892973 -0.000198476)
(-0.000381132 -0.00092973 -0.000198476)
(-0.00029865 -0.000959409 -0.000198475)
(-0.000213897 -0.000981788 -0.000198474)
(-0.000127515 -0.000996694 -0.000198474)
(-4.01629e-05 -0.00100401 -0.000198474)
(4.74956e-05 -0.0010037 -0.000198474)
(0.000134793 -0.000995736 -0.000198474)
(0.000221065 -0.000980199 -0.000198475)
(0.000305655 -0.000957202 -0.000198475)
(0.000387917 -0.00092692 -0.000198475)
(0.000467226 -0.000889583 -0.000198475)
(0.00054298 -0.000845476 -0.000198475)
(0.000614603 -0.000794935 -0.000198476)
(0.000681548 -0.000738344 -0.000198476)
(0.000743305 -0.000676133 -0.000198476)
(0.000799405 -0.000608777 -0.000198476)
(0.00084942 -0.000536787 -0.000198476)
(0.000892973 -0.000460712 -0.000198476)
(0.00092973 -0.000381132 -0.000198476)
(0.000959409 -0.00029865 -0.000198476)
(0.000981788 -0.000213897 -0.000198474)
(0.000996694 -0.000127515 -0.000198474)
(0.00100401 -4.01629e-05 -0.000198474)
(0.0010037 4.74956e-05 -0.000198474)
(0.000995736 0.000134793 -0.000198474)
(0.000980199 0.000221065 -0.000198475)
(0.000957202 0.000305655 -0.000198475)
(0.00092692 0.000387917 -0.000198475)
(0.000889583 0.000467226 -0.000198475)
(0.000845476 0.00054298 -0.000198475)
(0.000794935 0.000614603 -0.000198476)
(0.000738344 0.000681548 -0.000198476)
(0.000676133 0.000743305 -0.000198476)
(0.000608777 0.000799405 -0.000198476)
(0.000536787 0.00084942 -0.000198476)
(0.000460712 0.000892973 -0.000198476)
(0.000381132 0.00092973 -0.000198476)
(0.00029865 0.000959409 -0.000198476)
(0.000213897 0.000981788 -0.000198474)
(0.000127515 0.000996694 -0.000198474)
(4.01629e-05 0.00100401 -0.000198474)
(-4.74956e-05 0.00100369 -0.000198474)
(-0.000134793 0.000995736 -0.000198474)
(-0.000221065 0.000980199 -0.000198475)
(-0.000305655 0.000957202 -0.000198475)
(-0.000387917 0.00092692 -0.000198475)
(-0.000467226 0.000889583 -0.000198475)
(-0.00054298 0.000845476 -0.000198475)
(-0.000614603 0.000794935 -0.000198476)
(-0.000681548 0.000738344 -0.000198476)
(-0.000750281 0.000851929 -7.27512e-05)
(-0.000821676 0.000783296 -7.27508e-05)
(-0.000886817 0.000708701 -7.27502e-05)
(-0.00094521 0.000628712 -7.27506e-05)
(-0.000996409 0.000543939 -7.27505e-05)
(-0.00104003 0.000455027 -7.27507e-05)
(-0.00107573 0.000362652 -7.27508e-05)
(-0.00110324 0.000267516 -7.2751e-05)
(-0.00112236 0.000170346 -7.27507e-05)
(-0.00113293 7.1877e-05 -7.27498e-05)
(-0.00113489 -2.71388e-05 -7.27495e-05)
(-0.0011282 -0.000125948 -7.275e-05)
(-0.00111293 -0.000223799 -7.27503e-05)
(-0.00108919 -0.000319945 -7.27509e-05)
(-0.00105716 -0.000413656 -7.2751e-05)
(-0.00101709 -0.000504219 -7.27507e-05)
(-0.000969271 -0.000590946 -7.27509e-05)
(-0.000914078 -0.000673175 -7.27507e-05)
(-0.000851929 -0.000750281 -7.27512e-05)
(-0.000783296 -0.000821676 -7.27508e-05)
(-0.000708701 -0.000886817 -7.27502e-05)
(-0.000628712 -0.00094521 -7.27506e-05)
(-0.000543939 -0.000996409 -7.27505e-05)
(-0.000455027 -0.00104003 -7.27507e-05)
(-0.000362652 -0.00107573 -7.27508e-05)
(-0.000267517 -0.00110324 -7.2751e-05)
(-0.000170346 -0.00112236 -7.27507e-05)
(-7.18771e-05 -0.00113293 -7.27498e-05)
(2.71388e-05 -0.00113489 -7.27495e-05)
(0.000125948 -0.0011282 -7.275e-05)
(0.000223799 -0.00111293 -7.27503e-05)
(0.000319945 -0.00108919 -7.27509e-05)
(0.000413656 -0.00105716 -7.2751e-05)
(0.000504219 -0.00101709 -7.27507e-05)
(0.000590946 -0.000969271 -7.27508e-05)
(0.000673175 -0.000914078 -7.27506e-05)
(0.000750281 -0.000851929 -7.27512e-05)
(0.000821676 -0.000783296 -7.27508e-05)
(0.000886817 -0.000708701 -7.27502e-05)
(0.00094521 -0.000628712 -7.27506e-05)
(0.000996409 -0.000543939 -7.27505e-05)
(0.00104003 -0.000455027 -7.27507e-05)
(0.00107573 -0.000362652 -7.27509e-05)
(0.00110324 -0.000267517 -7.2751e-05)
(0.00112236 -0.000170346 -7.27507e-05)
(0.00113293 -7.1877e-05 -7.27498e-05)
(0.00113489 2.71388e-05 -7.27495e-05)
(0.0011282 0.000125948 -7.275e-05)
(0.00111293 0.000223799 -7.27503e-05)
(0.00108919 0.000319945 -7.27509e-05)
(0.00105716 0.000413656 -7.2751e-05)
(0.00101709 0.000504219 -7.27507e-05)
(0.000969271 0.000590946 -7.27508e-05)
(0.000914078 0.000673175 -7.27506e-05)
(0.000851929 0.000750281 -7.27512e-05)
(0.000783296 0.000821676 -7.27507e-05)
(0.000708701 0.000886817 -7.27502e-05)
(0.000628712 0.00094521 -7.27506e-05)
(0.000543939 0.000996409 -7.27505e-05)
(0.000455027 0.00104003 -7.27507e-05)
(0.000362652 0.00107573 -7.27509e-05)
(0.000267517 0.00110324 -7.2751e-05)
(0.000170346 0.00112236 -7.27508e-05)
(7.1877e-05 0.00113293 -7.27499e-05)
(-2.71388e-05 0.00113489 -7.27495e-05)
(-0.000125948 0.0011282 -7.275e-05)
(-0.000223799 0.00111293 -7.27503e-05)
(-0.000319945 0.00108919 -7.2751e-05)
(-0.000413656 0.00105716 -7.2751e-05)
(-0.000504219 0.00101709 -7.27507e-05)
(-0.000590946 0.000969271 -7.27509e-05)
(-0.000673175 0.000914078 -7.27507e-05)
(-0.00113191 0.000965752 -0.000549246)
(-0.00121177 0.000863425 -0.000549246)
(-0.00128241 0.000754526 -0.000549246)
(-0.0013433 0.000639885 -0.000549246)
(-0.00139395 0.000520374 -0.000549246)
(-0.001434 0.000396902 -0.000549244)
(-0.00146314 0.000270411 -0.000549242)
(-0.00148114 0.000141862 -0.000549242)
(-0.00148787 1.2232e-05 -0.000549241)
(-0.00148327 -0.00011749 -0.000549242)
(-0.00146739 -0.000246318 -0.000549242)
(-0.00144033 -0.000373272 -0.000549243)
(-0.00140232 -0.000497386 -0.000549243)
(-0.00135364 -0.000617714 -0.000549243)
(-0.00129465 -0.00073334 -0.000549243)
(-0.0012258 -0.000843385 -0.000549243)
(-0.00114763 -0.000947012 -0.000549245)
(-0.00106073 -0.00104343 -0.000549246)
(-0.000965752 -0.00113191 -0.000549246)
(-0.000863425 -0.00121177 -0.000549246)
(-0.000754526 -0.00128241 -0.000549246)
(-0.000639885 -0.0013433 -0.000549246)
(-0.000520374 -0.00139395 -0.000549246)
(-0.000396902 -0.001434 -0.000549244)
(-0.000270411 -0.00146314 -0.000549241)
(-0.000141862 -0.00148114 -0.000549242)
(-1.22321e-05 -0.00148787 -0.000549241)
(0.00011749 -0.00148327 -0.000549242)
(0.000246318 -0.00146739 -0.000549242)
(0.000373272 -0.00144034 -0.000549243)
(0.000497386 -0.00140232 -0.000549243)
(0.000617714 -0.00135364 -0.000549243)
(0.00073334 -0.00129465 -0.000549243)
(0.000843385 -0.0012258 -0.000549243)
(0.000947012 -0.00114763 -0.000549245)
(0.00104343 -0.00106073 -0.000549246)
(0.00113191 -0.000965752 -0.000549246)
(0.00121177 -0.000863425 -0.000549246)
(0.00128241 -0.000754526 -0.000549246)
(0.0013433 -0.000639885 -0.000549246)
(0.00139395 -0.000520374 -0.000549246)
(0.001434 -0.000396902 -0.000549244)
(0.00146314 -0.000270411 -0.000549241)
(0.00148114 -0.000141862 -0.000549242)
(0.00148787 -1.22321e-05 -0.000549241)
(0.00148327 0.00011749 -0.000549242)
(0.00146739 0.000246318 -0.000549242)
(0.00144034 0.000373272 -0.000549243)
(0.00140232 0.000497386 -0.000549243)
(0.00135364 0.000617714 -0.000549243)
(0.00129465 0.00073334 -0.000549243)
(0.0012258 0.000843385 -0.000549243)
(0.00114763 0.000947012 -0.000549245)
(0.00106073 0.00104343 -0.000549246)
(0.000965752 0.00113191 -0.000549246)
(0.000863425 0.00121177 -0.000549246)
(0.000754526 0.00128241 -0.000549246)
(0.000639885 0.0013433 -0.000549246)
(0.000520374 0.00139395 -0.000549246)
(0.000396902 0.001434 -0.000549244)
(0.000270411 0.00146314 -0.000549242)
(0.000141862 0.00148114 -0.000549242)
(1.22321e-05 0.00148787 -0.000549241)
(-0.00011749 0.00148327 -0.000549242)
(-0.000246318 0.00146739 -0.000549242)
(-0.000373272 0.00144034 -0.000549243)
(-0.000497386 0.00140232 -0.000549243)
(-0.000617714 0.00135364 -0.000549243)
(-0.00073334 0.00129465 -0.000549243)
(-0.000843385 0.0012258 -0.000549243)
(-0.000947012 0.00114763 -0.000549245)
(-0.00104343 0.00106073 -0.000549246)
(-0.00115857 0.00117904 -0.000372648)
(-0.00125692 0.00107357 -0.000372648)
(-0.0013457 0.00095994 -0.000372648)
(-0.00142425 0.000839002 -0.000372648)
(-0.00149195 0.000711678 -0.000372648)
(-0.0015483 0.000578938 -0.000372648)
(-0.00159286 0.000441792 -0.000372646)
(-0.00162531 0.000301284 -0.000372646)
(-0.00164538 0.000158483 -0.000372646)
(-0.00165293 1.44753e-05 -0.000372646)
(-0.00164791 -0.000129642 -0.000372646)
(-0.00163034 -0.000272774 -0.000372646)
(-0.00160036 -0.00041383 -0.000372647)
(-0.0015582 -0.000551735 -0.000372646)
(-0.00150418 -0.000685442 -0.000372646)
(-0.00143872 -0.000813932 -0.000372647)
(-0.00136231 -0.000936228 -0.000372648)
(-0.00127552 -0.0010514 -0.000372648)
(-0.00117904 -0.00115857 -0.000372648)
(-0.00107357 -0.00125692 -0.000372648)
(-0.00095994 -0.0013457 -0.000372648)
(-0.000839002 -0.00142425 -0.000372648)
(-0.000711678 -0.00149195 -0.000372648)
(-0.000578938 -0.0015483 -0.000372648)
(-0.000441792 -0.00159286 -0.000372646)
(-0.000301284 -0.00162531 -0.000372646)
(-0.000158483 -0.00164538 -0.000372646)
(-1.44753e-05 -0.00165293 -0.000372646)
(0.000129642 -0.00164791 -0.000372646)
(0.000272774 -0.00163034 -0.000372646)
(0.00041383 -0.00160036 -0.000372647)
(0.000551735 -0.0015582 -0.000372646)
(0.000685442 -0.00150418 -0.000372646)
(0.000813932 -0.00143872 -0.000372647)
(0.000936228 -0.00136231 -0.000372648)
(0.0010514 -0.00127552 -0.000372648)
(0.00115857 -0.00117904 -0.000372648)
(0.00125692 -0.00107357 -0.000372648)
(0.0013457 -0.00095994 -0.000372648)
(0.00142425 -0.000839002 -0.000372648)
(0.00149195 -0.000711678 -0.000372648)
(0.0015483 -0.000578938 -0.000372648)
(0.00159286 -0.000441792 -0.000372646)
(0.00162531 -0.000301284 -0.000372646)
(0.00164538 -0.000158483 -0.000372646)
(0.00165293 -1.44753e-05 -0.000372646)
(0.00164791 0.000129642 -0.000372646)
(0.00163034 0.000272774 -0.000372646)
(0.00160036 0.00041383 -0.000372647)
(0.0015582 0.000551735 -0.000372646)
(0.00150418 0.000685442 -0.000372646)
(0.00143872 0.000813932 -0.000372647)
(0.00136231 0.000936228 -0.000372648)
(0.00127552 0.0010514 -0.000372648)
(0.00117904 0.00115857 -0.000372648)
(0.00107357 0.00125692 -0.000372648)
(0.00095994 0.0013457 -0.000372648)
(0.000839002 0.00142425 -0.000372648)
(0.000711678 0.00149195 -0.000372648)
(0.000578938 0.0015483 -0.000372648)
(0.000441792 0.00159286 -0.000372646)
(0.000301284 0.00162531 -0.000372646)
(0.000158483 0.00164538 -0.000372646)
(1.44753e-05 0.00165293 -0.000372646)
(-0.000129642 0.00164791 -0.000372646)
(-0.000272774 0.00163034 -0.000372646)
(-0.00041383 0.00160036 -0.000372647)
(-0.000551735 0.0015582 -0.000372646)
(-0.000685442 0.00150418 -0.000372646)
(-0.000813932 0.00143872 -0.000372647)
(-0.000936228 0.00136231 -0.000372648)
(-0.0010514 0.00127552 -0.000372648)
(-0.00122115 0.00141674 -0.000209028)
(-0.00133998 0.00130492 -0.000209028)
(-0.00144861 0.00118317 -0.000209027)
(-0.00154622 0.00105241 -0.000209028)
(-0.00163206 0.000913643 -0.000209028)
(-0.00170548 0.000767924 -0.000209028)
(-0.00176592 0.000616359 -0.000209028)
(-0.00181292 0.000460104 -0.000209028)
(-0.00184612 0.000300347 -0.000209028)
(-0.00186527 0.000138304 -0.000209027)
(-0.00187023 -2.47921e-05 -0.000209027)
(-0.00186095 -0.000187699 -0.000209028)
(-0.00183751 -0.000349178 -0.000209028)
(-0.00180009 -0.000507998 -0.000209028)
(-0.00174896 -0.000662953 -0.000209028)
(-0.00168453 -0.000812862 -0.000209028)
(-0.00160727 -0.000956586 -0.000209028)
(-0.00151778 -0.00109303 -0.000209028)
(-0.00141674 -0.00122115 -0.000209028)
(-0.00130492 -0.00133998 -0.000209028)
(-0.00118317 -0.00144861 -0.000209027)
(-0.00105241 -0.00154622 -0.000209028)
(-0.000913643 -0.00163206 -0.000209028)
(-0.000767924 -0.00170548 -0.000209028)
(-0.000616359 -0.00176592 -0.000209028)
(-0.000460105 -0.00181292 -0.000209028)
(-0.000300347 -0.00184612 -0.000209028)
(-0.000138304 -0.00186527 -0.000209027)
(2.4792e-05 -0.00187023 -0.000209027)
(0.000187699 -0.00186095 -0.000209028)
(0.000349178 -0.00183751 -0.000209028)
(0.000507998 -0.00180009 -0.000209028)
(0.000662953 -0.00174896 -0.000209028)
(0.000812862 -0.00168453 -0.000209028)
(0.000956586 -0.00160727 -0.000209028)
(0.00109303 -0.00151778 -0.000209028)
(0.00122115 -0.00141674 -0.000209028)
(0.00133998 -0.00130492 -0.000209028)
(0.00144861 -0.00118317 -0.000209027)
(0.00154622 -0.00105241 -0.000209028)
(0.00163206 -0.000913643 -0.000209028)
(0.00170548 -0.000767924 -0.000209028)
(0.00176592 -0.000616359 -0.000209028)
(0.00181292 -0.000460105 -0.000209028)
(0.00184612 -0.000300347 -0.000209028)
(0.00186527 -0.000138304 -0.000209028)
(0.00187023 2.47921e-05 -0.000209027)
(0.00186095 0.000187699 -0.000209028)
(0.00183751 0.000349178 -0.000209028)
(0.00180009 0.000507999 -0.000209028)
(0.00174896 0.000662953 -0.000209028)
(0.00168453 0.000812862 -0.000209028)
(0.00160727 0.000956586 -0.000209028)
(0.00151778 0.00109303 -0.000209028)
(0.00141674 0.00122115 -0.000209028)
(0.00130492 0.00133998 -0.000209028)
(0.00118317 0.00144861 -0.000209027)
(0.00105241 0.00154622 -0.000209028)
(0.000913643 0.00163206 -0.000209028)
(0.000767924 0.00170548 -0.000209028)
(0.000616359 0.00176592 -0.000209028)
(0.000460105 0.00181292 -0.000209028)
(0.000300347 0.00184612 -0.000209028)
(0.000138304 0.00186527 -0.000209028)
(-2.47921e-05 0.00187023 -0.000209028)
(-0.000187699 0.00186095 -0.000209028)
(-0.000349178 0.00183751 -0.000209028)
(-0.000507998 0.00180009 -0.000209028)
(-0.000662953 0.00174896 -0.000209028)
(-0.000812862 0.00168453 -0.000209028)
(-0.000956586 0.00160727 -0.000209028)
(-0.00109303 0.00151778 -0.000209028)
(-0.00138922 0.00145837 -0.000789302)
(-0.00151104 0.00133174 -0.000789303)
(-0.00162136 0.00119498 -0.000789305)
(-0.00171934 0.00104912 -0.000789304)
(-0.00180423 0.000895274 -0.000789304)
(-0.0018754 0.000734618 -0.000789303)
(-0.00193229 0.000568372 -0.000789301)
(-0.00197447 0.000397799 -0.0007893)
(-0.00200163 0.000224199 -0.000789301)
(-0.00201355 4.88923e-05 -0.000789302)
(-0.00201015 -0.000126787 -0.000789301)
(-0.00199145 -0.0003015 -0.000789301)
(-0.00195759 -0.000473919 -0.000789301)
(-0.00190884 -0.000642731 -0.0007893)
(-0.00184556 -0.000806652 -0.000789301)
(-0.00176823 -0.000964434 -0.000789301)
(-0.00167745 -0.00111487 -0.000789302)
(-0.0015739 -0.00125683 -0.000789302)
(-0.00145837 -0.00138922 -0.000789302)
(-0.00133174 -0.00151104 -0.000789303)
(-0.00119498 -0.00162136 -0.000789305)
(-0.00104912 -0.00171934 -0.000789304)
(-0.000895274 -0.00180423 -0.000789304)
(-0.000734618 -0.0018754 -0.000789303)
(-0.000568372 -0.00193229 -0.000789301)
(-0.000397799 -0.00197447 -0.0007893)
(-0.000224199 -0.00200163 -0.000789301)
(-4.88924e-05 -0.00201355 -0.000789302)
(0.000126787 -0.00201015 -0.000789301)
(0.0003015 -0.00199145 -0.000789301)
(0.000473919 -0.00195759 -0.000789301)
(0.000642731 -0.00190884 -0.0007893)
(0.000806652 -0.00184556 -0.000789301)
(0.000964434 -0.00176823 -0.000789301)
(0.00111487 -0.00167745 -0.000789302)
(0.00125683 -0.0015739 -0.000789302)
(0.00138922 -0.00145837 -0.000789302)
(0.00151104 -0.00133174 -0.000789303)
(0.00162136 -0.00119498 -0.000789305)
(0.00171934 -0.00104912 -0.000789304)
(0.00180423 -0.000895274 -0.000789304)
(0.0018754 -0.000734618 -0.000789303)
(0.00193229 -0.000568372 -0.000789301)
(0.00197447 -0.000397799 -0.0007893)
(0.00200163 -0.000224199 -0.000789301)
(0.00201355 -4.88923e-05 -0.000789302)
(0.00201015 0.000126787 -0.000789301)
(0.00199145 0.0003015 -0.000789301)
(0.00195759 0.000473919 -0.000789301)
(0.00190884 0.000642731 -0.0007893)
(0.00184556 0.000806652 -0.000789301)
(0.00176823 0.000964434 -0.000789301)
(0.00167745 0.00111487 -0.000789302)
(0.0015739 0.00125683 -0.000789302)
(0.00145837 0.00138922 -0.000789302)
(0.00133174 0.00151104 -0.000789303)
(0.00119498 0.00162136 -0.000789305)
(0.00104912 0.00171934 -0.000789304)
(0.000895274 0.00180423 -0.000789304)
(0.000734618 0.0018754 -0.000789303)
(0.000568372 0.00193229 -0.000789301)
(0.000397799 0.00197447 -0.0007893)
(0.000224199 0.00200163 -0.000789301)
(4.88923e-05 0.00201355 -0.000789302)
(-0.000126787 0.00201015 -0.000789301)
(-0.0003015 0.00199145 -0.000789301)
(-0.000473919 0.00195759 -0.000789301)
(-0.000642731 0.00190884 -0.000789301)
(-0.000806652 0.00184556 -0.000789301)
(-0.000964434 0.00176823 -0.000789301)
(-0.00111487 0.00167745 -0.000789302)
(-0.00125683 0.0015739 -0.000789302)
(-0.00145902 0.00171223 -0.000586498)
(-0.0016027 0.00157855 -0.000586499)
(-0.00173418 0.00143286 -0.000586499)
(-0.00185246 0.00127627 -0.0005865)
(-0.00195665 0.00110996 -0.0005865)
(-0.00204594 0.000935202 -0.000586498)
(-0.00211966 0.000753327 -0.000586497)
(-0.00217725 0.00056572 -0.000586497)
(-0.00221827 0.000373808 -0.000586497)
(-0.00224241 0.00017905 -0.000586498)
(-0.00224948 -1.70702e-05 -0.000586498)
(-0.00223944 -0.000213061 -0.000586498)
(-0.00221234 -0.00040743 -0.000586497)
(-0.00216842 -0.000598698 -0.000586497)
(-0.00210798 -0.00078541 -0.000586497)
(-0.00203151 -0.000966144 -0.000586498)
(-0.00193957 -0.00113953 -0.000586498)
(-0.00183288 -0.00130423 -0.000586498)
(-0.00171223 -0.00145902 -0.000586498)
(-0.00157855 -0.0016027 -0.000586499)
(-0.00143286 -0.00173418 -0.000586499)
(-0.00127627 -0.00185246 -0.0005865)
(-0.00110996 -0.00195665 -0.0005865)
(-0.000935202 -0.00204594 -0.000586498)