/*--------------------------------*- C++ -*----------------------------------*\
| =========                 |                                                 |
| \\      /  F ield         | OpenFOAM: The Open Source CFD Toolbox           |
|  \\    /   O peration     | Version:  2312                                  |
|   \\  /    A nd           | Website:  www.openfoam.com                      |
|    \\/     M anipulation  |                                                 |
\*---------------------------------------------------------------------------*/
FoamFile
{
    version     2.0;
    format      ascii;
    arch        "LSB;label=32;scalar=64";
    class       volVectorField;
    location    "0.4";
    object      D_0_0;
}
// * * * * * * * * * * * * * * * * * * * * * * * * * * * * * * * * * * * * * //

dimensions      [0 1 0 0 0 0 0];

internalField   nonuniform List<vector> 
3240
(
(-0.000303998 0.000184262 -0.000108367)
(-0.0003189 0.000157066 -0.000108367)
(-0.000331375 0.000128674 -0.000108368)
(-0.000341328 9.9302e-05 -0.000108368)
(-0.000348686 6.91755e-05 -0.000108368)
(-0.000353388 3.85222e-05 -0.000108367)
(-0.000355401 7.57682e-06 -0.000108366)
(-0.000354709 -2.34266e-05 -0.000108366)
(-0.000351317 -5.42515e-05 -0.000108367)
(-0.000345251 -8.46641e-05 -0.000108367)
(-0.000336559 -0.000114433 -0.000108368)
(-0.000325304 -0.000143332 -0.000108368)
(-0.000311575 -0.000171139 -0.000108367)
(-0.000295474 -0.000197643 -0.000108367)
(-0.000277123 -0.000222642 -0.000108366)
(-0.000256664 -0.000245948 -0.000108367)
(-0.000234251 -0.000267382 -0.000108368)
(-0.000210056 -0.000286781 -0.000108367)
(-0.000184262 -0.000303998 -0.000108367)
(-0.000157066 -0.0003189 -0.000108367)
(-0.000128674 -0.000331375 -0.000108368)
(-9.9302e-05 -0.000341328 -0.000108368)
(-6.91755e-05 -0.000348686 -0.000108368)
(-3.85222e-05 -0.000353388 -0.000108367)
(-7.57683e-06 -0.000355401 -0.000108366)
(2.34266e-05 -0.000354709 -0.000108366)
(5.42515e-05 -0.000351317 -0.000108367)
(8.46641e-05 -0.000345251 -0.000108367)
(0.000114433 -0.000336559 -0.000108368)
(0.000143332 -0.000325304 -0.000108368)
(0.000171139 -0.000311575 -0.000108367)
(0.000197643 -0.000295474 -0.000108367)
(0.000222642 -0.000277123 -0.000108366)
(0.000245948 -0.000256664 -0.000108367)
(0.000267382 -0.000234251 -0.000108368)
(0.000286781 -0.000210056 -0.000108367)
(0.000303998 -0.000184262 -0.000108367)
(0.0003189 -0.000157066 -0.000108367)
(0.000331375 -0.000128674 -0.000108368)
(0.000341328 -9.9302e-05 -0.000108368)
(0.000348686 -6.91755e-05 -0.000108368)
(0.000353388 -3.85222e-05 -0.000108367)
(0.000355401 -7.57683e-06 -0.000108366)
(0.000354709 2.34266e-05 -0.000108366)
(0.000351317 5.42515e-05 -0.000108367)
(0.000345251 8.46641e-05 -0.000108367)
(0.000336559 0.000114433 -0.000108368)
(0.000325304 0.000143332 -0.000108368)
(0.000311575 0.000171139 -0.000108367)
(0.000295474 0.000197643 -0.000108367)
(0.000277123 0.000222642 -0.000108366)
(0.000256664 0.000245948 -0.000108367)
(0.000234251 0.000267382 -0.000108368)
(0.000210056 0.000286781 -0.000108367)
(0.000184262 0.000303998 -0.000108367)
(0.000157066 0.0003189 -0.000108367)
(0.000128674 0.000331375 -0.000108368)
(9.9302e-05 0.000341328 -0.000108368)
(6.91755e-05 0.000348686 -0.000108368)
(3.85222e-05 0.000353388 -0.000108367)
(7.57682e-06 0.000355401 -0.000108366)
(-2.34266e-05 0.000354709 -0.000108366)
(-5.42515e-05 0.000351317 -0.000108367)
(-8.46642e-05 0.000345251 -0.000108367)
(-0.000114433 0.000336559 -0.000108368)
(-0.000143332 0.000325304 -0.000108368)
(-0.000171139 0.000311575 -0.000108367)
(-0.000197643 0.000295474 -0.000108367)
(-0.000222642 0.000277123 -0.000108366)
(-0.000245948 0.000256664 -0.000108367)
(-0.000267382 0.000234251 -0.000108368)
(-0.000286781 0.000210056 -0.000108367)
(-0.000250152 0.000216187 -6.13804e-05)
(-0.000268042 0.000193563 -6.13801e-05)
(-0.000283892 0.000169465 -6.13805e-05)
(-0.000297581 0.000144076 -6.13804e-05)
(-0.000309006 0.000117592 -6.13804e-05)
(-0.000318079 9.02132e-05 -6.13802e-05)
(-0.000324731 6.21475e-05 -6.13798e-05)
(-0.000328912 3.36094e-05 -6.13794e-05)
(-0.00033059 4.81583e-06 -6.13796e-05)
(-0.000329752 -2.40153e-05 -6.13803e-05)
(-0.000326404 -5.26641e-05 -6.13804e-05)
(-0.000320572 -8.09122e-05 -6.13803e-05)
(-0.0003123 -0.000108544 -6.13801e-05)
(-0.000301651 -0.00013535 -6.13799e-05)
(-0.000288707 -0.000161125 -6.13799e-05)
(-0.000273566 -0.000185674 -6.138e-05)
(-0.000256342 -0.000208811 -6.13806e-05)
(-0.000237167 -0.000230358 -6.13803e-05)
(-0.000216187 -0.000250152 -6.13804e-05)
(-0.000193563 -0.000268042 -6.13801e-05)
(-0.000169465 -0.000283892 -6.13805e-05)
(-0.000144076 -0.000297581 -6.13804e-05)
(-0.000117592 -0.000309006 -6.13804e-05)
(-9.02132e-05 -0.000318079 -6.13802e-05)
(-6.21475e-05 -0.000324731 -6.13798e-05)
(-3.36094e-05 -0.000328912 -6.13794e-05)
(-4.81585e-06 -0.00033059 -6.13796e-05)
(2.40153e-05 -0.000329752 -6.13803e-05)
(5.26641e-05 -0.000326404 -6.13804e-05)
(8.09122e-05 -0.000320572 -6.13803e-05)
(0.000108544 -0.0003123 -6.138e-05)
(0.00013535 -0.000301651 -6.13799e-05)
(0.000161125 -0.000288707 -6.13799e-05)
(0.000185674 -0.000273566 -6.138e-05)
(0.000208811 -0.000256342 -6.13806e-05)
(0.000230358 -0.000237167 -6.13803e-05)
(0.000250152 -0.000216187 -6.13804e-05)
(0.000268042 -0.000193563 -6.13801e-05)
(0.000283892 -0.000169465 -6.13806e-05)
(0.000297581 -0.000144076 -6.13804e-05)
(0.000309006 -0.000117592 -6.13804e-05)
(0.000318079 -9.02132e-05 -6.13802e-05)
(0.000324731 -6.21475e-05 -6.13798e-05)
(0.000328912 -3.36094e-05 -6.13795e-05)
(0.00033059 -4.81584e-06 -6.13796e-05)
(0.000329752 2.40153e-05 -6.13803e-05)
(0.000326404 5.26641e-05 -6.13804e-05)
(0.000320572 8.09122e-05 -6.13803e-05)
(0.0003123 0.000108544 -6.13801e-05)
(0.000301651 0.00013535 -6.13799e-05)
(0.000288707 0.000161125 -6.13799e-05)
(0.000273566 0.000185674 -6.138e-05)
(0.000256342 0.000208811 -6.13806e-05)
(0.000237167 0.000230358 -6.13803e-05)
(0.000216187 0.000250152 -6.13804e-05)
(0.000193563 0.000268042 -6.13801e-05)
(0.000169465 0.000283892 -6.13805e-05)
(0.000144076 0.000297581 -6.13804e-05)
(0.000117592 0.000309006 -6.13804e-05)
(9.02132e-05 0.000318079 -6.13802e-05)
(6.21475e-05 0.000324731 -6.13799e-05)
(3.36094e-05 0.000328912 -6.13795e-05)
(4.81584e-06 0.00033059 -6.13797e-05)
(-2.40153e-05 0.000329752 -6.13803e-05)
(-5.26641e-05 0.000326404 -6.13804e-05)
(-8.09122e-05 0.000320572 -6.13804e-05)
(-0.000108544 0.0003123 -6.13801e-05)
(-0.00013535 0.000301651 -6.13799e-05)
(-0.000161125 0.000288707 -6.13799e-05)
(-0.000185674 0.000273566 -6.138e-05)
(-0.000208811 0.000256342 -6.13806e-05)
(-0.000230358 0.000237167 -6.13803e-05)
(-0.000214981 0.00028101 -1.06386e-05)
(-0.000238654 0.000261204 -1.06384e-05)
(-0.000260512 0.00023941 -1.06381e-05)
(-0.000280386 0.000215793 -1.06384e-05)
(-0.000298128 0.000190535 -1.06386e-05)
(-0.000313599 0.000163826 -1.06386e-05)
(-0.000326683 0.000135871 -1.06383e-05)
(-0.000337283 0.000106882 -1.06386e-05)
(-0.000345316 7.70799e-05 -1.06385e-05)
(-0.00035072 4.66903e-05 -1.06388e-05)
(-0.000353454 1.59448e-05 -1.06385e-05)
(-0.000353498 -1.49216e-05 -1.06382e-05)
(-0.000350852 -4.56748e-05 -1.0638e-05)
(-0.000345538 -7.608e-05 -1.06385e-05)
(-0.000337591 -0.000105905 -1.06389e-05)
(-0.000327077 -0.000134925 -1.06388e-05)
(-0.000314072 -0.000162918 -1.06385e-05)
(-0.000298678 -0.000189671 -1.06385e-05)
(-0.00028101 -0.000214981 -1.06386e-05)
(-0.000261204 -0.000238654 -1.06384e-05)
(-0.00023941 -0.000260512 -1.06381e-05)
(-0.000215793 -0.000280386 -1.06384e-05)
(-0.000190535 -0.000298128 -1.06386e-05)
(-0.000163826 -0.000313599 -1.06386e-05)
(-0.000135871 -0.000326683 -1.06384e-05)
(-0.000106882 -0.000337283 -1.06386e-05)
(-7.70799e-05 -0.000345316 -1.06385e-05)
(-4.66903e-05 -0.00035072 -1.06388e-05)
(-1.59448e-05 -0.000353454 -1.06385e-05)
(1.49216e-05 -0.000353498 -1.06382e-05)
(4.56748e-05 -0.000350852 -1.0638e-05)
(7.608e-05 -0.000345538 -1.06384e-05)
(0.000105906 -0.000337591 -1.06389e-05)
(0.000134925 -0.000327077 -1.06388e-05)
(0.000162918 -0.000314072 -1.06385e-05)
(0.000189671 -0.000298678 -1.06385e-05)
(0.000214981 -0.00028101 -1.06386e-05)
(0.000238654 -0.000261204 -1.06384e-05)
(0.000260512 -0.00023941 -1.06381e-05)
(0.000280386 -0.000215793 -1.06384e-05)
(0.000298128 -0.000190535 -1.06386e-05)
(0.000313599 -0.000163826 -1.06386e-05)
(0.000326683 -0.000135871 -1.06384e-05)
(0.000337283 -0.000106882 -1.06386e-05)
(0.000345316 -7.70799e-05 -1.06385e-05)
(0.00035072 -4.66903e-05 -1.06388e-05)
(0.000353454 -1.59448e-05 -1.06385e-05)
(0.000353498 1.49216e-05 -1.06382e-05)
(0.000350852 4.56748e-05 -1.0638e-05)
(0.000345538 7.608e-05 -1.06385e-05)
(0.000337591 0.000105906 -1.06389e-05)
(0.000327077 0.000134925 -1.06388e-05)
(0.000314072 0.000162918 -1.06385e-05)
(0.000298678 0.000189671 -1.06385e-05)
(0.00028101 0.000214981 -1.06386e-05)
(0.000261204 0.000238654 -1.06384e-05)
(0.00023941 0.000260512 -1.06381e-05)
(0.000215793 0.000280386 -1.06384e-05)
(0.000190535 0.000298128 -1.06386e-05)
(0.000163826 0.000313599 -1.06386e-05)
(0.000135871 0.000326683 -1.06384e-05)
(0.000106882 0.000337283 -1.06387e-05)
(7.70799e-05 0.000345316 -1.06385e-05)
(4.66903e-05 0.00035072 -1.06388e-05)
(1.59448e-05 0.000353454 -1.06385e-05)
(-1.49216e-05 0.000353498 -1.06382e-05)
(-4.56748e-05 0.000350852 -1.0638e-05)
(-7.608e-05 0.000345538 -1.06385e-05)
(-0.000105906 0.000337591 -1.06389e-05)
(-0.000134925 0.000327077 -1.06388e-05)
(-0.000162918 0.000314072 -1.06385e-05)
(-0.000189671 0.000298678 -1.06385e-05)
(-0.000750866 0.000554242 -0.000319811)
(-0.000796313 0.00048669 -0.000319811)
(-0.0008357 0.000415434 -0.000319812)
(-0.000868728 0.000341017 -0.000319813)
(-0.000895145 0.000264004 -0.000319812)
(-0.000914749 0.000184983 -0.000319811)
(-0.00092739 0.000104554 -0.000319808)
(-0.000932974 2.333e-05 -0.000319807)
(-0.000931457 -5.80716e-05 -0.000319807)
(-0.00092285 -0.000139031 -0.000319808)
(-0.000907221 -0.000218934 -0.00031981)
(-0.000884687 -0.000297172 -0.000319812)
(-0.00085542 -0.000373148 -0.000319811)
(-0.000819643 -0.000446283 -0.00031981)
(-0.000777629 -0.000516021 -0.00031981)
(-0.000729695 -0.00058183 -0.00031981)
(-0.000676207 -0.000643214 -0.000319812)
(-0.000617574 -0.000699704 -0.000319812)
(-0.000554242 -0.000750866 -0.000319811)
(-0.00048669 -0.000796313 -0.000319811)
(-0.000415434 -0.0008357 -0.000319812)
(-0.000341017 -0.000868728 -0.000319813)
(-0.000264004 -0.000895145 -0.000319812)
(-0.000184983 -0.000914749 -0.000319811)
(-0.000104554 -0.00092739 -0.000319808)
(-2.33301e-05 -0.000932974 -0.000319807)
(5.80715e-05 -0.000931457 -0.000319807)
(0.000139031 -0.00092285 -0.000319808)
(0.000218934 -0.000907221 -0.00031981)
(0.000297172 -0.000884687 -0.000319812)
(0.000373148 -0.00085542 -0.000319811)
(0.000446283 -0.000819643 -0.00031981)
(0.000516021 -0.000777629 -0.00031981)
(0.00058183 -0.000729695 -0.00031981)
(0.000643214 -0.000676207 -0.000319812)
(0.000699704 -0.000617574 -0.000319812)
(0.000750866 -0.000554242 -0.000319811)
(0.000796313 -0.00048669 -0.000319811)
(0.0008357 -0.000415434 -0.000319812)
(0.000868728 -0.000341017 -0.000319813)
(0.000895145 -0.000264004 -0.000319812)
(0.000914749 -0.000184983 -0.000319811)
(0.00092739 -0.000104554 -0.000319808)
(0.000932974 -2.33301e-05 -0.000319807)
(0.000931457 5.80715e-05 -0.000319807)
(0.00092285 0.000139031 -0.000319808)
(0.000907221 0.000218934 -0.00031981)
(0.000884687 0.000297172 -0.000319812)
(0.00085542 0.000373148 -0.000319811)
(0.000819643 0.000446283 -0.00031981)
(0.000777629 0.000516021 -0.00031981)
(0.000729695 0.00058183 -0.00031981)
(0.000676207 0.000643214 -0.000319812)
(0.000617574 0.000699704 -0.000319812)
(0.000554242 0.000750866 -0.000319811)
(0.00048669 0.000796313 -0.000319811)
(0.000415434 0.0008357 -0.000319812)
(0.000341017 0.000868728 -0.000319813)
(0.000264004 0.000895145 -0.000319812)
(0.000184983 0.000914749 -0.000319811)
(0.000104554 0.00092739 -0.000319808)
(2.33301e-05 0.000932974 -0.000319807)
(-5.80716e-05 0.000931457 -0.000319807)
(-0.000139031 0.00092285 -0.000319808)
(-0.000218934 0.000907221 -0.00031981)
(-0.000297172 0.000884687 -0.000319812)
(-0.000373148 0.00085542 -0.000319811)
(-0.000446283 0.000819643 -0.00031981)
(-0.000516021 0.000777629 -0.00031981)
(-0.00058183 0.000729695 -0.00031981)
(-0.000643214 0.000676207 -0.000319812)
(-0.000699704 0.000617574 -0.000319812)
(-0.0007293 0.000678069 -0.000195152)
(-0.000785622 0.000611926 -0.000195151)
(-0.000835964 0.000541126 -0.000195152)
(-0.000879946 0.000466207 -0.000195152)
(-0.000917231 0.000387741 -0.000195151)
(-0.000947535 0.000306323 -0.000195151)
(-0.000970627 0.000222576 -0.00019515)
(-0.000986332 0.000137134 -0.000195149)
(-0.000994531 5.06479e-05 -0.000195149)
(-0.000995161 -3.62239e-05 -0.000195149)
(-0.000988217 -0.00012282 -0.00019515)
(-0.000973752 -0.000208482 -0.00019515)
(-0.000951876 -0.000292558 -0.000195151)
(-0.000922756 -0.000374406 -0.00019515)
(-0.000886612 -0.000453404 -0.00019515)
(-0.000843721 -0.000528951 -0.000195151)
(-0.000794409 -0.000600474 -0.000195151)
(-0.000739051 -0.000667427 -0.000195151)
(-0.000678069 -0.0007293 -0.000195152)
(-0.000611926 -0.000785622 -0.000195151)
(-0.000541126 -0.000835964 -0.000195152)
(-0.000466207 -0.000879946 -0.000195152)
(-0.000387741 -0.000917231 -0.000195151)
(-0.000306323 -0.000947535 -0.000195151)
(-0.000222576 -0.000970627 -0.00019515)
(-0.000137134 -0.000986332 -0.000195149)
(-5.0648e-05 -0.000994531 -0.000195149)
(3.62238e-05 -0.000995161 -0.000195149)
(0.00012282 -0.000988217 -0.00019515)
(0.000208482 -0.000973752 -0.00019515)
(0.000292558 -0.000951876 -0.000195151)
(0.000374406 -0.000922756 -0.00019515)
(0.000453404 -0.000886612 -0.00019515)
(0.000528951 -0.000843721 -0.00019515)
(0.000600474 -0.000794409 -0.000195151)
(0.000667427 -0.000739051 -0.000195151)
(0.0007293 -0.000678069 -0.000195152)
(0.000785622 -0.000611926 -0.000195151)
(0.000835964 -0.000541126 -0.000195152)
(0.000879946 -0.000466207 -0.000195152)
(0.000917231 -0.000387741 -0.000195151)
(0.000947535 -0.000306323 -0.000195151)
(0.000970627 -0.000222576 -0.00019515)
(0.000986332 -0.000137134 -0.000195149)
(0.000994531 -5.0648e-05 -0.000195149)
(0.000995161 3.62239e-05 -0.000195149)
(0.000988217 0.00012282 -0.00019515)
(0.000973752 0.000208482 -0.00019515)
(0.000951876 0.000292558 -0.000195151)
(0.000922756 0.000374406 -0.00019515)
(0.000886612 0.000453404 -0.00019515)
(0.000843721 0.000528951 -0.00019515)
(0.000794409 0.000600474 -0.000195151)
(0.000739051 0.000667427 -0.000195151)
(0.000678069 0.0007293 -0.000195152)
(0.000611926 0.000785622 -0.000195151)
(0.000541126 0.000835964 -0.000195152)
(0.000466207 0.000879946 -0.000195152)
(0.000387741 0.000917231 -0.000195151)
(0.000306323 0.000947535 -0.000195151)
(0.000222576 0.000970627 -0.00019515)
(0.000137134 0.000986332 -0.000195149)
(5.0648e-05 0.000994531 -0.000195149)
(-3.62239e-05 0.000995161 -0.000195149)
(-0.00012282 0.000988217 -0.00019515)
(-0.000208482 0.000973752 -0.00019515)
(-0.000292558 0.000951876 -0.000195151)
(-0.000374406 0.000922756 -0.00019515)
(-0.000453404 0.000886612 -0.00019515)
(-0.000528951 0.000843721 -0.000195151)
(-0.000600474 0.000794409 -0.000195151)
(-0.000667427 0.000739051 -0.000195151)
(-0.000735899 0.000849465 -7.07099e-05)
(-0.000807134 0.000782096 -7.07095e-05)
(-0.000872226 0.000708772 -7.07089e-05)
(-0.000930681 0.000630055 -7.07093e-05)
(-0.000982052 0.000546543 -7.07092e-05)
(-0.00102595 0.000458872 -7.07094e-05)
(-0.00106204 0.000367709 -7.07095e-05)
(-0.00109004 0.000273748 -7.07096e-05)
(-0.00110976 0.000177703 -7.07094e-05)
(-0.00112102 8.03045e-05 -7.07085e-05)
(-0.00112375 -1.77052e-05 -7.07082e-05)
(-0.00111794 -0.00011558 -7.07087e-05)
(-0.00110361 -0.000212575 -7.0709e-05)
(-0.00108088 -0.000307952 -7.07097e-05)
(-0.00104993 -0.000400984 -7.07097e-05)
(-0.00101099 -0.000490965 -7.07094e-05)
(-0.000964348 -0.000577211 -7.07096e-05)
(-0.00091037 -0.000659063 -7.07094e-05)
(-0.000849465 -0.000735899 -7.07099e-05)
(-0.000782096 -0.000807134 -7.07095e-05)
(-0.000708772 -0.000872226 -7.07089e-05)
(-0.000630055 -0.000930681 -7.07093e-05)
(-0.000546543 -0.000982052 -7.07092e-05)
(-0.000458872 -0.00102595 -7.07094e-05)
(-0.000367709 -0.00106204 -7.07095e-05)
(-0.000273748 -0.00109004 -7.07097e-05)
(-0.000177703 -0.00110976 -7.07094e-05)
(-8.03046e-05 -0.00112102 -7.07085e-05)
(1.77052e-05 -0.00112375 -7.07082e-05)
(0.00011558 -0.00111794 -7.07087e-05)
(0.000212575 -0.00110361 -7.0709e-05)
(0.000307952 -0.00108088 -7.07096e-05)
(0.000400984 -0.00104993 -7.07097e-05)
(0.000490965 -0.00101099 -7.07094e-05)
(0.000577211 -0.000964348 -7.07095e-05)
(0.000659063 -0.00091037 -7.07094e-05)
(0.000735899 -0.000849465 -7.07099e-05)
(0.000807134 -0.000782096 -7.07095e-05)
(0.000872226 -0.000708772 -7.07089e-05)
(0.000930681 -0.000630055 -7.07093e-05)
(0.000982052 -0.000546543 -7.07092e-05)
(0.00102595 -0.000458872 -7.07094e-05)
(0.00106204 -0.000367709 -7.07095e-05)
(0.00109004 -0.000273748 -7.07097e-05)
(0.00110976 -0.000177703 -7.07094e-05)
(0.00112102 -8.03046e-05 -7.07085e-05)
(0.00112375 1.77052e-05 -7.07082e-05)
(0.00111794 0.00011558 -7.07087e-05)
(0.00110361 0.000212575 -7.0709e-05)
(0.00108088 0.000307952 -7.07097e-05)
(0.00104993 0.000400984 -7.07097e-05)
(0.00101099 0.000490965 -7.07094e-05)
(0.000964348 0.000577211 -7.07095e-05)
(0.00091037 0.000659063 -7.07094e-05)
(0.000849465 0.000735899 -7.07099e-05)
(0.000782096 0.000807134 -7.07094e-05)
(0.000708772 0.000872226 -7.07089e-05)
(0.000630055 0.000930681 -7.07093e-05)
(0.000546543 0.000982052 -7.07092e-05)
(0.000458872 0.00102595 -7.07094e-05)
(0.000367709 0.00106204 -7.07096e-05)
(0.000273748 0.00109004 -7.07097e-05)
(0.000177703 0.00110976 -7.07095e-05)
(8.03046e-05 0.00112102 -7.07086e-05)
(-1.77052e-05 0.00112375 -7.07083e-05)
(-0.00011558 0.00111794 -7.07087e-05)
(-0.000212575 0.00110361 -7.07091e-05)
(-0.000307952 0.00108088 -7.07097e-05)
(-0.000400984 0.00104993 -7.07097e-05)
(-0.000490965 0.00101099 -7.07094e-05)
(-0.000577211 0.000964348 -7.07096e-05)
(-0.000659063 0.00091037 -7.07094e-05)
(-0.00111336 0.000970709 -0.00054254)
(-0.00119372 0.000869979 -0.00054254)
(-0.001265 0.000762628 -0.00054254)
(-0.00132666 0.000649474 -0.00054254)
(-0.00137822 0.000531376 -0.00054254)
(-0.00141928 0.000409235 -0.000542538)
(-0.00144955 0.000283979 -0.000542535)
(-0.00146879 0.000156563 -0.000542535)
(-0.00147684 2.79539e-05 -0.000542535)
(-0.00147366 -0.000100867 -0.000542536)
(-0.00145926 -0.000228921 -0.000542536)
(-0.00143375 -0.000355232 -0.000542537)
(-0.00139734 -0.000478841 -0.000542537)
(-0.00135029 -0.000598806 -0.000542537)
(-0.00129296 -0.000714212 -0.000542537)
(-0.00122579 -0.000824182 -0.000542537)
(-0.00114929 -0.000927881 -0.000542539)
(-0.00106405 -0.00102452 -0.00054254)
(-0.000970709 -0.00111336 -0.00054254)
(-0.000869979 -0.00119372 -0.00054254)
(-0.000762628 -0.001265 -0.00054254)
(-0.000649474 -0.00132666 -0.00054254)
(-0.000531376 -0.00137822 -0.00054254)
(-0.000409235 -0.00141928 -0.000542538)
(-0.000283979 -0.00144955 -0.000542535)
(-0.000156563 -0.00146879 -0.000542535)
(-2.7954e-05 -0.00147684 -0.000542535)
(0.000100867 -0.00147366 -0.000542536)
(0.00022892 -0.00145926 -0.000542536)
(0.000355232 -0.00143375 -0.000542537)
(0.000478841 -0.00139734 -0.000542537)
(0.000598806 -0.00135029 -0.000542537)
(0.000714212 -0.00129296 -0.000542537)
(0.000824182 -0.00122579 -0.000542537)
(0.000927881 -0.00114929 -0.000542539)
(0.00102452 -0.00106405 -0.00054254)
(0.00111336 -0.000970709 -0.00054254)
(0.00119372 -0.000869979 -0.00054254)
(0.001265 -0.000762628 -0.00054254)
(0.00132666 -0.000649474 -0.00054254)
(0.00137822 -0.000531376 -0.00054254)
(0.00141928 -0.000409235 -0.000542538)
(0.00144955 -0.000283979 -0.000542535)
(0.00146879 -0.000156563 -0.000542535)
(0.00147684 -2.7954e-05 -0.000542535)
(0.00147366 0.000100867 -0.000542536)
(0.00145926 0.000228921 -0.000542536)
(0.00143375 0.000355232 -0.000542537)
(0.00139734 0.000478841 -0.000542537)
(0.00135029 0.000598806 -0.000542537)
(0.00129296 0.000714212 -0.000542537)
(0.00122579 0.000824182 -0.000542537)
(0.00114929 0.000927881 -0.000542539)
(0.00106405 0.00102452 -0.00054254)
(0.000970709 0.00111336 -0.00054254)
(0.000869979 0.00119372 -0.00054254)
(0.000762628 0.001265 -0.00054254)
(0.000649474 0.00132666 -0.00054254)
(0.000531376 0.00137822 -0.00054254)
(0.000409235 0.00141929 -0.000542538)
(0.000283979 0.00144955 -0.000542535)
(0.000156563 0.00146879 -0.000542535)
(2.79539e-05 0.00147684 -0.000542535)
(-0.000100867 0.00147366 -0.000542536)
(-0.000228921 0.00145926 -0.000542536)
(-0.000355232 0.00143375 -0.000542537)
(-0.000478841 0.00139734 -0.000542537)
(-0.000598806 0.00135029 -0.000542537)
(-0.000714212 0.00129296 -0.000542537)
(-0.000824182 0.00122579 -0.000542537)
(-0.000927881 0.00114929 -0.000542539)
(-0.00102452 0.00106405 -0.00054254)
(-0.00113852 0.00117979 -0.000367686)
(-0.00123702 0.00107607 -0.000367686)
(-0.00132609 0.000964163 -0.000367686)
(-0.00140508 0.000844917 -0.000367686)
(-0.00147337 0.000719241 -0.000367686)
(-0.00153045 0.000588091 -0.000367686)
(-0.00157588 0.000452466 -0.000367684)
(-0.00160932 0.000313398 -0.000367684)
(-0.00163051 0.000171944 -0.000367684)
(-0.00163929 2.91808e-05 -0.000367683)
(-0.0016356 -0.000113804 -0.000367684)
(-0.00161946 -0.000255923 -0.000367684)
(-0.00159099 -0.000396095 -0.000367685)
(-0.00155041 -0.000533251 -0.000367684)
(-0.00149804 -0.000666349 -0.000367684)
(-0.00143426 -0.000794376 -0.000367685)
(-0.00135957 -0.000916358 -0.000367686)
(-0.00127453 -0.00103137 -0.000367686)
(-0.00117979 -0.00113852 -0.000367686)
(-0.00107607 -0.00123702 -0.000367686)
(-0.000964163 -0.00132609 -0.000367686)
(-0.000844917 -0.00140508 -0.000367686)
(-0.000719241 -0.00147337 -0.000367686)
(-0.000588091 -0.00153045 -0.000367686)
(-0.000452466 -0.00157588 -0.000367684)
(-0.000313398 -0.00160932 -0.000367684)
(-0.000171944 -0.00163051 -0.000367684)
(-2.91808e-05 -0.00163929 -0.000367683)
(0.000113804 -0.0016356 -0.000367684)
(0.000255923 -0.00161946 -0.000367684)
(0.000396095 -0.00159099 -0.000367685)
(0.000533251 -0.00155041 -0.000367684)
(0.000666349 -0.00149804 -0.000367684)
(0.000794376 -0.00143426 -0.000367685)
(0.000916358 -0.00135957 -0.000367685)
(0.00103137 -0.00127453 -0.000367686)
(0.00113852 -0.00117979 -0.000367686)
(0.00123702 -0.00107607 -0.000367686)
(0.00132609 -0.000964163 -0.000367686)
(0.00140508 -0.000844917 -0.000367686)
(0.00147337 -0.000719241 -0.000367686)
(0.00153045 -0.000588091 -0.000367686)
(0.00157588 -0.000452466 -0.000367684)
(0.00160932 -0.000313398 -0.000367684)
(0.00163051 -0.000171944 -0.000367684)
(0.00163929 -2.91808e-05 -0.000367684)
(0.0016356 0.000113804 -0.000367684)
(0.00161946 0.000255923 -0.000367684)
(0.00159099 0.000396095 -0.000367685)
(0.00155041 0.000533251 -0.000367684)
(0.00149804 0.00066635 -0.000367684)
(0.00143426 0.000794376 -0.000367685)
(0.00135957 0.000916358 -0.000367685)
(0.00127453 0.00103137 -0.000367686)
(0.00117979 0.00113852 -0.000367686)
(0.00107607 0.00123702 -0.000367686)
(0.000964162 0.00132609 -0.000367686)
(0.000844917 0.00140508 -0.000367686)
(0.000719241 0.00147337 -0.000367686)
(0.000588091 0.00153045 -0.000367686)
(0.000452466 0.00157588 -0.000367684)
(0.000313398 0.00160932 -0.000367684)
(0.000171944 0.00163051 -0.000367684)
(2.91808e-05 0.00163929 -0.000367684)
(-0.000113804 0.0016356 -0.000367684)
(-0.000255923 0.00161946 -0.000367684)
(-0.000396095 0.00159099 -0.000367685)
(-0.000533251 0.00155041 -0.000367684)
(-0.000666349 0.00149804 -0.000367684)
(-0.000794376 0.00143426 -0.000367685)
(-0.000916358 0.00135957 -0.000367686)
(-0.00103137 0.00127453 -0.000367686)
(-0.00119905 0.00141224 -0.0002056)
(-0.00131757 0.00130236 -0.0002056)
(-0.00142606 0.00118257 -0.000205599)
(-0.0015237 0.00105378 -0.0002056)
(-0.00160975 0.000916969 -0.0002056)
(-0.00168354 0.000773182 -0.0002056)
(-0.00174452 0.00062351 -0.0002056)
(-0.00179223 0.000469093 -0.0002056)
(-0.00182629 0.000311105 -0.0002056)
(-0.00184646 0.000150749 -0.000205599)
(-0.00185257 -1.07538e-05 -0.000205599)
(-0.00184458 -0.000172175 -0.0002056)
(-0.00182256 -0.000332286 -0.0002056)
(-0.00178666 -0.000489867 -0.0002056)
(-0.00173717 -0.000643721 -0.0002056)
(-0.00167445 -0.000792675 -0.0002056)
(-0.00159899 -0.000935597 -0.0002056)
(-0.00151137 -0.0010714 -0.0002056)
(-0.00141224 -0.00119905 -0.0002056)
(-0.00130236 -0.00131757 -0.0002056)
(-0.00118257 -0.00142606 -0.000205599)
(-0.00105378 -0.0015237 -0.0002056)
(-0.000916969 -0.00160975 -0.0002056)
(-0.000773182 -0.00168354 -0.0002056)
(-0.00062351 -0.00174452 -0.0002056)
(-0.000469093 -0.00179223 -0.0002056)
(-0.000311105 -0.00182629 -0.0002056)
(-0.000150749 -0.00184646 -0.000205599)
(1.07538e-05 -0.00185257 -0.000205599)
(0.000172175 -0.00184458 -0.0002056)
(0.000332286 -0.00182256 -0.0002056)
(0.000489867 -0.00178666 -0.0002056)
(0.000643721 -0.00173717 -0.0002056)
(0.000792675 -0.00167445 -0.0002056)
(0.000935597 -0.00159899 -0.0002056)
(0.0010714 -0.00151137 -0.0002056)
(0.00119905 -0.00141224 -0.0002056)
(0.00131757 -0.00130236 -0.0002056)
(0.00142606 -0.00118257 -0.000205599)
(0.0015237 -0.00105378 -0.0002056)
(0.00160975 -0.000916969 -0.0002056)
(0.00168354 -0.000773182 -0.0002056)
(0.00174452 -0.00062351 -0.0002056)
(0.00179223 -0.000469093 -0.0002056)
(0.00182629 -0.000311105 -0.0002056)
(0.00184646 -0.000150749 -0.0002056)
(0.00185257 1.07538e-05 -0.000205599)
(0.00184458 0.000172175 -0.0002056)
(0.00182256 0.000332286 -0.0002056)
(0.00178666 0.000489867 -0.0002056)
(0.00173717 0.000643721 -0.0002056)
(0.00167445 0.000792675 -0.0002056)
(0.00159899 0.000935597 -0.0002056)
(0.00151136 0.0010714 -0.0002056)
(0.00141224 0.00119905 -0.0002056)
(0.00130236 0.00131757 -0.0002056)
(0.00118257 0.00142606 -0.000205599)
(0.00105378 0.0015237 -0.0002056)
(0.000916969 0.00160975 -0.0002056)
(0.000773182 0.00168354 -0.0002056)
(0.00062351 0.00174452 -0.0002056)
(0.000469093 0.00179223 -0.0002056)
(0.000311105 0.00182629 -0.0002056)
(0.000150749 0.00184646 -0.0002056)
(-1.07538e-05 0.00185257 -0.000205599)
(-0.000172175 0.00184458 -0.0002056)
(-0.000332286 0.00182256 -0.0002056)
(-0.000489867 0.00178666 -0.0002056)
(-0.000643721 0.00173717 -0.0002056)
(-0.000792675 0.00167445 -0.0002056)
(-0.000935597 0.00159899 -0.0002056)
(-0.0010714 0.00151137 -0.0002056)
(-0.00136997 0.00146143 -0.000780424)
(-0.00149213 0.00133647 -0.000780426)
(-0.00160293 0.00120134 -0.000780427)
(-0.00170154 0.00105706 -0.000780426)
(-0.00178719 0.000904738 -0.000780426)
(-0.00185924 0.000745531 -0.000780425)
(-0.00191715 0.000580651 -0.000780423)
(-0.00196046 0.000411352 -0.000780422)
(-0.00198885 0.000238921 -0.000780423)
(-0.0020021 6.46725e-05 -0.000780424)
(-0.00200012 -0.000110069 -0.000780423)
(-0.00198292 -0.000283971 -0.000780423)
(-0.00195062 -0.000455713 -0.000780423)
(-0.00190348 -0.000623987 -0.000780423)
(-0.00184185 -0.000787512 -0.000780423)
(-0.00176621 -0.000945044 -0.000780423)
(-0.00167712 -0.00109538 -0.000780424)
(-0.00157527 -0.00123739 -0.000780424)
(-0.00146143 -0.00136997 -0.000780424)
(-0.00133647 -0.00149213 -0.000780426)
(-0.00120134 -0.00160293 -0.000780427)
(-0.00105706 -0.00170154 -0.000780426)
(-0.000904738 -0.00178719 -0.000780426)
(-0.000745531 -0.00185924 -0.000780425)
(-0.000580651 -0.00191715 -0.000780423)
(-0.000411352 -0.00196046 -0.000780422)
(-0.000238921 -0.00198885 -0.000780423)
(-6.46725e-05 -0.0020021 -0.000780424)
(0.000110069 -0.00200012 -0.000780424)
(0.000283971 -0.00198292 -0.000780423)
(0.000455713 -0.00195062 -0.000780423)
(0.000623987 -0.00190348 -0.000780423)
(0.000787512 -0.00184185 -0.000780423)
(0.000945044 -0.00176621 -0.000780423)
(0.00109538 -0.00167712 -0.000780424)
(0.00123739 -0.00157527 -0.000780424)
(0.00136997 -0.00146143 -0.000780424)
(0.00149213 -0.00133647 -0.000780426)
(0.00160293 -0.00120134 -0.000780427)
(0.00170154 -0.00105706 -0.000780426)
(0.00178719 -0.000904738 -0.000780426)
(0.00185924 -0.000745531 -0.000780425)
(0.00191715 -0.000580651 -0.000780423)
(0.00196046 -0.000411352 -0.000780422)
(0.00198885 -0.000238921 -0.000780423)
(0.0020021 -6.46725e-05 -0.000780424)
(0.00200012 0.000110069 -0.000780424)
(0.00198292 0.000283971 -0.000780423)
(0.00195062 0.000455713 -0.000780423)
(0.00190348 0.000623987 -0.000780423)
(0.00184185 0.000787512 -0.000780423)
(0.00176621 0.000945044 -0.000780423)
(0.00167712 0.00109538 -0.000780424)
(0.00157527 0.00123739 -0.000780424)
(0.00146143 0.00136997 -0.000780424)
(0.00133647 0.00149213 -0.000780426)
(0.00120134 0.00160293 -0.000780427)
(0.00105706 0.00170154 -0.000780426)
(0.000904738 0.00178719 -0.000780426)
(0.000745531 0.00185924 -0.000780425)
(0.000580651 0.00191715 -0.000780423)
(0.000411352 0.00196046 -0.000780422)
(0.000238921 0.00198885 -0.000780423)
(6.46725e-05 0.0020021 -0.000780425)
(-0.000110069 0.00200012 -0.000780424)
(-0.000283971 0.00198292 -0.000780424)
(-0.000455713 0.00195062 -0.000780423)
(-0.000623987 0.00190348 -0.000780423)
(-0.000787512 0.00184185 -0.000780423)
(-0.000945044 0.00176621 -0.000780423)
(-0.00109538 0.00167712 -0.000780424)
(-0.00123739 0.00157527 -0.000780424)
(-0.00143715 0.00171018 -0.000579479)
(-0.00158073 0.00157841 -0.00057948)
(-0.00171228 0.00143464 -0.00057948)
(-0.0018308 0.00127994 -0.00057948)
(-0.00193539 0.00111551 -0.000579481)
(-0.00202525 0.000942581 -0.000579479)
(-0.00209969 0.000762482 -0.000579478)
(-0.00215816 0.00057658 -0.000579478)
(-0.0022002 0.000386291 -0.000579478)
(-0.00222549 0.000193061 -0.000579479)
(-0.00223385 -1.63815e-06 -0.000579479)
(-0.00222521 -0.000196325 -0.000579479)
(-0.00219963 -0.000389517 -0.000579478)
(-0.00215731 -0.000579746 -0.000579478)
(-0.00209857 -0.000765562 -0.000579478)
(-0.00202386 -0.000945552 -0.000579479)
(-0.00193375 -0.00111835 -0.000579479)
(-0.00182892 -0.00128263 -0.000579479)
(-0.00171018 -0.00143715 -0.000579479)
(-0.00157841 -0.00158073 -0.00057948)
(-0.00143464 -0.00171228 -0.00057948)
(-0.00127994 -0.0018308 -0.00057948)
(-0.00111551 -0.00193539 -0.00057948)
(-0.000942581 -0.00202525 -0.000579479)
(-0.000762482 -0.00209969 -0.000579478)
(-0.00057658 -0.00215816 -0.000579478)