/*--------------------------------*- C++ -*----------------------------------*\
| =========                 |                                                 |
| \\      /  F ield         | OpenFOAM: The Open Source CFD Toolbox           |
|  \\    /   O peration     | Version:  2312                                  |
|   \\  /    A nd           | Website:  www.openfoam.com                      |
|    \\/     M anipulation  |                                                 |
\*---------------------------------------------------------------------------*/
FoamFile
{
    version     2.0;
    format      ascii;
    arch        "LSB;label=32;scalar=64";
    class       volTensorField;
    location    "0.4";
    object      F;
}
// * * * * * * * * * * * * * * * * * * * * * * * * * * * * * * * * * * * * * //

dimensions      [0 0 0 0 0 0 0];

internalField   nonuniform List<tensor> 
3240
(
(0.945279 -0.0219975 0.234625 -0.029704 0.964698 -0.190387 -0.0466656 -0.00203707 1.10839)
(0.949915 -0.0232904 0.250325 -0.0309966 0.960061 -0.169213 -0.0463099 -0.00609717 1.10839)
(0.954707 -0.0237593 0.26412 -0.0314653 0.95527 -0.146752 -0.0456031 -0.0101111 1.10839)
(0.959506 -0.0233897 0.275906 -0.0310952 0.95047 -0.123174 -0.044549 -0.0140462 1.10839)
(0.964167 -0.0221914 0.285591 -0.0298971 0.945809 -0.0986586 -0.043155 -0.0178746 1.10839)
(0.96855 -0.0202012 0.293103 -0.027908 0.941426 -0.0733924 -0.041433 -0.0215671 1.10839)
(0.972521 -0.0174806 0.298385 -0.025187 0.937456 -0.0475673 -0.0393943 -0.0250958 1.10839)
(0.975959 -0.0141117 0.301395 -0.0218183 0.934018 -0.0213808 -0.0370566 -0.0284352 1.10839)
(0.97876 -0.0101971 0.302112 -0.0179037 0.931217 0.00496869 -0.0344375 -0.0315576 1.10839)
(0.980839 -0.00585567 0.300529 -0.0135616 0.929138 0.0312802 -0.0315564 -0.034439 1.10839)
(0.982133 -0.00121914 0.296659 -0.00892441 0.927844 0.0573539 -0.0284352 -0.0370582 1.10839)
(0.982602 0.00357154 0.290531 -0.00413382 0.927375 0.0829912 -0.0250981 -0.0393955 1.10839)
(0.982231 0.00837001 0.282192 0.00066471 0.927746 0.107997 -0.0215692 -0.0414323 1.10839)
(0.981032 0.0130322 0.271706 0.00532529 0.928945 0.132181 -0.0178758 -0.043154 1.10839)
(0.979042 0.0174149 0.259152 0.00970813 0.930935 0.155359 -0.0140457 -0.0445472 1.10839)
(0.976321 0.0213864 0.244625 0.0136802 0.933655 0.177354 -0.0101087 -0.045603 1.10839)
(0.972953 0.0248247 0.228237 0.0171189 0.937023 0.197999 -0.00609676 -0.0463113 1.10839)
(0.969039 0.027625 0.210111 0.0199195 0.940937 0.217139 -0.00203799 -0.0466655 1.10839)
(0.964698 0.0297041 0.190387 0.0219975 0.945279 0.234625 0.00203707 -0.0466656 1.10839)
(0.960061 0.0309966 0.169213 0.0232904 0.949915 0.250325 0.00609717 -0.0463099 1.10839)
(0.95527 0.0314653 0.146752 0.0237593 0.954707 0.26412 0.0101111 -0.0456031 1.10839)
(0.95047 0.0310952 0.123174 0.0233897 0.959506 0.275906 0.0140462 -0.044549 1.10839)
(0.945809 0.0298971 0.0986585 0.0221914 0.964167 0.285591 0.0178746 -0.043155 1.10839)
(0.941426 0.027908 0.0733924 0.0202012 0.96855 0.293103 0.0215671 -0.041433 1.10839)
(0.937456 0.025187 0.0475674 0.0174806 0.972521 0.298385 0.0250958 -0.0393943 1.10839)
(0.934018 0.0218183 0.0213808 0.0141117 0.975959 0.301395 0.0284352 -0.0370566 1.10839)
(0.931217 0.0179037 -0.00496866 0.0101971 0.97876 0.302112 0.0315576 -0.0344375 1.10839)
(0.929138 0.0135616 -0.0312802 0.00585568 0.980839 0.300529 0.034439 -0.0315564 1.10839)
(0.927844 0.00892441 -0.0573539 0.00121914 0.982133 0.296659 0.0370582 -0.0284352 1.10839)
(0.927375 0.00413383 -0.0829912 -0.00357154 0.982602 0.290531 0.0393955 -0.0250981 1.10839)
(0.927746 -0.000664706 -0.107997 -0.00837001 0.982231 0.282192 0.0414322 -0.0215692 1.10839)
(0.928945 -0.00532529 -0.132181 -0.0130322 0.981032 0.271706 0.043154 -0.0178758 1.10839)
(0.930935 -0.00970814 -0.155359 -0.0174149 0.979042 0.259152 0.0445472 -0.0140457 1.10839)
(0.933655 -0.0136802 -0.177354 -0.0213864 0.976321 0.244625 0.045603 -0.0101086 1.10839)
(0.937023 -0.017119 -0.197999 -0.0248247 0.972953 0.228237 0.0463114 -0.00609675 1.10839)
(0.940937 -0.0199195 -0.217139 -0.027625 0.969039 0.210111 0.0466655 -0.00203798 1.10839)
(0.945279 -0.0219975 -0.234625 -0.0297041 0.964698 0.190387 0.0466656 0.00203707 1.10839)
(0.949915 -0.0232904 -0.250325 -0.0309966 0.960061 0.169213 0.0463099 0.00609717 1.10839)
(0.954707 -0.0237593 -0.26412 -0.0314653 0.95527 0.146752 0.0456031 0.0101111 1.10839)
(0.959506 -0.0233897 -0.275906 -0.0310952 0.95047 0.123174 0.044549 0.0140462 1.10839)
(0.964167 -0.0221914 -0.285591 -0.0298971 0.945809 0.0986585 0.043155 0.0178746 1.10839)
(0.96855 -0.0202012 -0.293103 -0.027908 0.941426 0.0733924 0.041433 0.0215671 1.10839)
(0.972521 -0.0174806 -0.298385 -0.025187 0.937456 0.0475674 0.0393943 0.0250958 1.10839)
(0.975959 -0.0141117 -0.301395 -0.0218183 0.934018 0.0213808 0.0370566 0.0284352 1.10839)
(0.97876 -0.0101972 -0.302112 -0.0179037 0.931217 -0.00496867 0.0344375 0.0315576 1.10839)
(0.980839 -0.00585568 -0.300529 -0.0135616 0.929138 -0.0312802 0.0315564 0.034439 1.10839)
(0.982133 -0.00121915 -0.296659 -0.00892441 0.927844 -0.0573539 0.0284352 0.0370582 1.10839)
(0.982602 0.00357153 -0.290531 -0.00413383 0.927375 -0.0829912 0.0250981 0.0393955 1.10839)
(0.982231 0.00837001 -0.282192 0.000664705 0.927746 -0.107997 0.0215692 0.0414322 1.10839)
(0.981032 0.0130322 -0.271706 0.00532529 0.928945 -0.132181 0.0178758 0.043154 1.10839)
(0.979042 0.0174149 -0.259152 0.00970814 0.930935 -0.155359 0.0140457 0.0445472 1.10839)
(0.976321 0.0213864 -0.244625 0.0136802 0.933655 -0.177354 0.0101086 0.045603 1.10839)
(0.972953 0.0248247 -0.228237 0.017119 0.937023 -0.197999 0.00609675 0.0463113 1.10839)
(0.969039 0.027625 -0.210111 0.0199195 0.940937 -0.217139 0.00203798 0.0466655 1.10839)
(0.964698 0.029704 -0.190387 0.0219975 0.945279 -0.234625 -0.00203707 0.0466656 1.10839)
(0.960061 0.0309966 -0.169213 0.0232904 0.949915 -0.250325 -0.00609717 0.0463099 1.10839)
(0.95527 0.0314653 -0.146752 0.0237593 0.954707 -0.26412 -0.0101111 0.0456031 1.10839)
(0.95047 0.0310952 -0.123174 0.0233897 0.959506 -0.275906 -0.0140462 0.044549 1.10839)
(0.945809 0.0298971 -0.0986585 0.0221914 0.964167 -0.285591 -0.0178746 0.043155 1.10839)
(0.941426 0.027908 -0.0733924 0.0202012 0.96855 -0.293103 -0.0215671 0.041433 1.10839)
(0.937456 0.025187 -0.0475674 0.0174806 0.972521 -0.298385 -0.0250958 0.0393943 1.10839)
(0.934018 0.0218183 -0.0213808 0.0141118 0.975959 -0.301395 -0.0284352 0.0370566 1.10839)
(0.931217 0.0179037 0.00496867 0.0101972 0.97876 -0.302112 -0.0315576 0.0344375 1.10839)
(0.929138 0.0135616 0.0312802 0.00585568 0.980839 -0.300529 -0.034439 0.0315564 1.10839)
(0.927844 0.00892442 0.0573539 0.00121915 0.982133 -0.296659 -0.0370582 0.0284352 1.10839)
(0.927375 0.00413383 0.0829912 -0.00357153 0.982602 -0.290531 -0.0393955 0.0250981 1.10839)
(0.927746 -0.000664702 0.107997 -0.00837001 0.982231 -0.282192 -0.0414322 0.0215692 1.10839)
(0.928945 -0.00532529 0.132181 -0.0130322 0.981032 -0.271706 -0.043154 0.0178758 1.10839)
(0.930935 -0.00970814 0.155359 -0.0174149 0.979042 -0.259152 -0.0445472 0.0140457 1.10839)
(0.933655 -0.0136802 0.177354 -0.0213864 0.976321 -0.244625 -0.045603 0.0101086 1.10839)
(0.937023 -0.017119 0.197999 -0.0248247 0.972953 -0.228237 -0.0463113 0.00609675 1.10839)
(0.940937 -0.0199195 0.217139 -0.027625 0.969039 -0.210111 -0.0466655 0.00203798 1.10839)
(0.95444 -0.0277835 0.253458 -0.0478403 0.966476 -0.241743 -0.0488866 -0.00213426 1.06739)
(0.961097 -0.028254 0.273563 -0.0483106 0.959818 -0.218733 -0.0485142 -0.00638708 1.06739)
(0.967736 -0.0275618 0.291585 -0.047618 0.95318 -0.194058 -0.0477737 -0.0105915 1.06739)
(0.974153 -0.0257273 0.307389 -0.0457836 0.946763 -0.167906 -0.046669 -0.0147147 1.06739)
(0.980153 -0.0228059 0.320854 -0.0428627 0.940763 -0.140476 -0.0452087 -0.0187259 1.06739)
(0.985555 -0.0188867 0.331876 -0.038944 0.93536 -0.111977 -0.0434044 -0.0225944 1.06739)
(0.990195 -0.0140895 0.340372 -0.0341462 0.930721 -0.0826267 -0.0412694 -0.0262909 1.06739)
(0.993931 -0.00855919 0.346279 -0.0286163 0.926985 -0.0526469 -0.0388207 -0.029788 1.06739)
(0.996651 -0.00246407 0.34955 -0.022521 0.924266 -0.0222664 -0.0360767 -0.033059 1.06739)
(0.998271 0.00401034 0.35016 -0.0160458 0.922646 0.00828354 -0.0330584 -0.0360778 1.06739)
(0.998741 0.0106678 0.348106 -0.00938794 0.922175 0.0387706 -0.0297888 -0.0388216 1.06739)
(0.998048 0.0173062 0.343402 -0.00274999 0.922868 0.0689625 -0.0262923 -0.0412702 1.06739)
(0.996213 0.0237227 0.336085 0.0036664 0.924703 0.0986297 -0.0225952 -0.0434044 1.06739)
(0.993292 0.0297236 0.32621 0.00966637 0.927624 0.127546 -0.0187259 -0.0452083 1.06739)
(0.989373 0.0351258 0.313852 0.0150685 0.931543 0.155492 -0.0147143 -0.0466676 1.06739)
(0.984575 0.0397659 0.299105 0.0197087 0.936341 0.182254 -0.0105906 -0.047773 1.06739)
(0.979045 0.043502 0.282083 0.0234454 0.94187 0.207629 -0.00638688 -0.0485151 1.06739)
(0.97295 0.0462209 0.262913 0.0261646 0.947965 0.231424 -0.00213453 -0.0488866 1.06739)
(0.966476 0.0478404 0.241743 0.0277835 0.95444 0.253458 0.00213425 -0.0488866 1.06739)
(0.959818 0.0483107 0.218733 0.028254 0.961097 0.273563 0.00638708 -0.0485142 1.06739)
(0.95318 0.047618 0.194058 0.0275618 0.967736 0.291585 0.0105915 -0.0477737 1.06739)
(0.946763 0.0457836 0.167906 0.0257273 0.974153 0.307389 0.0147147 -0.046669 1.06739)
(0.940763 0.0428627 0.140476 0.0228059 0.980153 0.320854 0.0187259 -0.0452087 1.06739)
(0.93536 0.038944 0.111977 0.0188867 0.985555 0.331876 0.0225944 -0.0434044 1.06739)
(0.930721 0.0341462 0.0826267 0.0140895 0.990195 0.340372 0.0262909 -0.0412694 1.06739)
(0.926985 0.0286163 0.052647 0.00855919 0.993931 0.346279 0.029788 -0.0388207 1.06739)
(0.924266 0.022521 0.0222665 0.00246408 0.996651 0.34955 0.033059 -0.0360767 1.06739)
(0.922646 0.0160458 -0.00828353 -0.00401034 0.998271 0.35016 0.0360778 -0.0330584 1.06739)
(0.922175 0.00938794 -0.0387705 -0.0106678 0.998741 0.348106 0.0388216 -0.0297889 1.06739)
(0.922868 0.00274998 -0.0689625 -0.0173062 0.998048 0.343402 0.0412701 -0.0262923 1.06739)
(0.924703 -0.0036664 -0.0986297 -0.0237227 0.996213 0.336085 0.0434044 -0.0225952 1.06739)
(0.927624 -0.00966638 -0.127546 -0.0297236 0.993292 0.32621 0.0452082 -0.0187259 1.06739)
(0.931543 -0.0150686 -0.155492 -0.0351258 0.989373 0.313852 0.0466676 -0.0147143 1.06739)
(0.936341 -0.0197087 -0.182254 -0.0397659 0.984575 0.299105 0.047773 -0.0105906 1.06739)
(0.94187 -0.0234454 -0.207629 -0.043502 0.979045 0.282083 0.0485151 -0.00638687 1.06739)
(0.947965 -0.0261646 -0.231424 -0.0462209 0.97295 0.262913 0.0488866 -0.00213452 1.06739)
(0.95444 -0.0277835 -0.253458 -0.0478404 0.966476 0.241743 0.0488866 0.00213426 1.06739)
(0.961097 -0.028254 -0.273563 -0.0483107 0.959818 0.218733 0.0485142 0.00638708 1.06739)
(0.967736 -0.0275618 -0.291585 -0.047618 0.95318 0.194058 0.0477737 0.0105915 1.06739)
(0.974153 -0.0257273 -0.307389 -0.0457836 0.946763 0.167906 0.046669 0.0147147 1.06739)
(0.980153 -0.0228059 -0.320854 -0.0428627 0.940763 0.140476 0.0452087 0.0187259 1.06739)
(0.985555 -0.0188867 -0.331876 -0.038944 0.93536 0.111977 0.0434044 0.0225944 1.06739)
(0.990195 -0.0140895 -0.340372 -0.0341462 0.930721 0.0826267 0.0412694 0.0262909 1.06739)
(0.993931 -0.00855919 -0.346279 -0.0286163 0.926985 0.0526469 0.0388207 0.029788 1.06739)
(0.996651 -0.00246408 -0.34955 -0.022521 0.924266 0.0222665 0.0360767 0.033059 1.06739)
(0.998271 0.00401034 -0.35016 -0.0160458 0.922646 -0.00828353 0.0330584 0.0360778 1.06739)
(0.998741 0.0106678 -0.348106 -0.00938794 0.922175 -0.0387705 0.0297889 0.0388216 1.06739)
(0.998048 0.0173062 -0.343402 -0.00274999 0.922868 -0.0689625 0.0262923 0.0412701 1.06739)
(0.996213 0.0237227 -0.336085 0.0036664 0.924703 -0.0986297 0.0225952 0.0434044 1.06739)
(0.993292 0.0297236 -0.32621 0.00966638 0.927624 -0.127546 0.0187259 0.0452082 1.06739)
(0.989373 0.0351258 -0.313852 0.0150686 0.931543 -0.155492 0.0147143 0.0466676 1.06739)
(0.984575 0.0397659 -0.299105 0.0197087 0.936341 -0.182254 0.0105906 0.047773 1.06739)
(0.979045 0.043502 -0.282083 0.0234454 0.94187 -0.207629 0.00638687 0.0485151 1.06739)
(0.97295 0.0462209 -0.262913 0.0261646 0.947965 -0.231424 0.00213452 0.0488866 1.06739)
(0.966476 0.0478403 -0.241743 0.0277835 0.95444 -0.253458 -0.00213426 0.0488866 1.06739)
(0.959818 0.0483106 -0.218733 0.028254 0.961097 -0.273563 -0.00638708 0.0485142 1.06739)
(0.95318 0.047618 -0.194058 0.0275618 0.967736 -0.291585 -0.0105915 0.0477737 1.06739)
(0.946763 0.0457836 -0.167906 0.0257273 0.974153 -0.307389 -0.0147147 0.046669 1.06739)
(0.940763 0.0428627 -0.140476 0.0228059 0.980153 -0.320854 -0.0187259 0.0452087 1.06739)
(0.93536 0.038944 -0.111977 0.0188867 0.985555 -0.331876 -0.0225944 0.0434044 1.06739)
(0.930721 0.0341462 -0.0826267 0.0140895 0.990195 -0.340372 -0.0262909 0.0412694 1.06739)
(0.926985 0.0286163 -0.0526469 0.0085592 0.993931 -0.346279 -0.029788 0.0388207 1.06739)
(0.924266 0.022521 -0.0222664 0.00246408 0.996651 -0.34955 -0.033059 0.0360767 1.06739)
(0.922646 0.0160458 0.00828354 -0.00401033 0.998271 -0.35016 -0.0360778 0.0330584 1.06739)
(0.922175 0.00938794 0.0387705 -0.0106678 0.998741 -0.348106 -0.0388216 0.0297888 1.06739)
(0.922868 0.00274999 0.0689625 -0.0173062 0.998048 -0.343402 -0.0412701 0.0262923 1.06739)
(0.924703 -0.0036664 0.0986297 -0.0237227 0.996213 -0.336085 -0.0434044 0.0225952 1.06739)
(0.927624 -0.00966637 0.127546 -0.0297236 0.993292 -0.32621 -0.0452082 0.0187259 1.06739)
(0.931543 -0.0150686 0.155492 -0.0351258 0.989373 -0.313852 -0.0466676 0.0147143 1.06739)
(0.936341 -0.0197087 0.182254 -0.0397659 0.984575 -0.299105 -0.047773 0.0105906 1.06739)
(0.94187 -0.0234454 0.207629 -0.043502 0.979045 -0.282083 -0.0485151 0.00638687 1.06739)
(0.947965 -0.0261646 0.231424 -0.0462209 0.97295 -0.262913 -0.0488866 0.00213452 1.06739)
(0.964706 -0.0402961 0.278077 -0.0669608 0.966393 -0.301931 -0.051077 -0.00223008 1.02814)
(0.974032 -0.0396276 0.303334 -0.0662926 0.957068 -0.276547 -0.0506881 -0.00667287 1.02814)
(0.983099 -0.0373506 0.326282 -0.0640151 0.948 -0.249057 -0.0499143 -0.0110656 1.02814)
(0.991634 -0.0335336 0.346747 -0.0601978 0.939466 -0.219672 -0.0487596 -0.0153742 1.02814)
(0.999375 -0.0282918 0.364573 -0.0549568 0.931724 -0.188615 -0.0472339 -0.0195653 1.02814)
(1.00609 -0.0217852 0.379624 -0.0484507 0.92501 -0.156122 -0.0453488 -0.023607 1.02814)
(1.01157 -0.0142122 0.391787 -0.0408775 0.919528 -0.122442 -0.0431185 -0.0274695 1.02814)
(1.01566 -0.00580248 0.400967 -0.0324677 0.915445 -0.0878297 -0.0405598 -0.0311227 1.02814)
(1.01822 0.00318904 0.407097 -0.0234757 0.912883 -0.052549 -0.0376932 -0.0345396 1.02814)
(1.01918 0.0124885 0.410128 -0.0141753 0.911921 -0.0168681 -0.0345399 -0.0376936 1.02814)
(1.01851 0.0218136 0.410037 -0.00484968 0.91259 0.0189413 -0.0311237 -0.0405606 1.02814)
(1.01623 0.030882 0.406826 0.00421773 0.914867 0.0546065 -0.0274702 -0.0431189 1.02814)
(1.01242 0.0394163 0.400519 0.0127517 0.918684 0.0898559 -0.0236073 -0.0453492 1.02814)
(1.00717 0.0471579 0.391163 0.0204928 0.923926 0.124421 -0.0195643 -0.047234 1.02814)
(1.00067 0.053872 0.37883 0.0272067 0.930432 0.15804 -0.0153732 -0.0487589 1.02814)
(0.993094 0.0593548 0.363615 0.032689 0.938006 0.190456 -0.0110657 -0.0499131 1.02814)
(0.984684 0.0634384 0.345632 0.0367735 0.946415 0.221422 -0.00667356 -0.0506884 1.02814)
(0.975693 0.0659997 0.325018 0.0393351 0.955406 0.250704 -0.00223007 -0.051077 1.02814)
(0.966393 0.0669608 0.301931 0.0402961 0.964706 0.278077 0.00223008 -0.051077 1.02814)
(0.957068 0.0662926 0.276547 0.0396276 0.974032 0.303334 0.00667287 -0.0506881 1.02814)
(0.948 0.0640151 0.249057 0.0373505 0.983099 0.326282 0.0110656 -0.0499143 1.02814)
(0.939466 0.0601978 0.219672 0.0335335 0.991634 0.346747 0.0153742 -0.0487596 1.02814)
(0.931724 0.0549568 0.188615 0.0282918 0.999375 0.364573 0.0195653 -0.0472339 1.02814)
(0.92501 0.0484507 0.156122 0.0217852 1.00609 0.379624 0.023607 -0.0453488 1.02814)
(0.919528 0.0408775 0.122442 0.0142122 1.01157 0.391787 0.0274695 -0.0431185 1.02814)
(0.915445 0.0324677 0.0878297 0.00580249 1.01566 0.400967 0.0311227 -0.0405598 1.02814)
(0.912883 0.0234757 0.052549 -0.00318903 1.01822 0.407097 0.0345396 -0.0376932 1.02814)
(0.911921 0.0141753 0.0168681 -0.0124885 1.01918 0.410128 0.0376936 -0.0345399 1.02814)
(0.91259 0.00484968 -0.0189413 -0.0218136 1.01851 0.410037 0.0405606 -0.0311237 1.02814)
(0.914867 -0.00421774 -0.0546065 -0.030882 1.01623 0.406826 0.0431189 -0.0274702 1.02814)
(0.918684 -0.0127517 -0.0898559 -0.0394163 1.01242 0.400519 0.0453492 -0.0236073 1.02814)
(0.923926 -0.0204928 -0.124421 -0.0471579 1.00717 0.391163 0.047234 -0.0195643 1.02814)
(0.930432 -0.0272067 -0.15804 -0.053872 1.00067 0.37883 0.0487589 -0.0153732 1.02814)
(0.938006 -0.032689 -0.190456 -0.0593548 0.993094 0.363615 0.0499131 -0.0110657 1.02814)
(0.946415 -0.0367735 -0.221422 -0.0634384 0.984684 0.345632 0.0506884 -0.00667355 1.02814)
(0.955407 -0.0393351 -0.250704 -0.0659997 0.975693 0.325018 0.051077 -0.00223006 1.02814)
(0.964706 -0.0402961 -0.278077 -0.0669608 0.966393 0.301931 0.051077 0.00223008 1.02814)
(0.974032 -0.0396276 -0.303334 -0.0662926 0.957068 0.276547 0.0506881 0.00667288 1.02814)
(0.983099 -0.0373505 -0.326282 -0.0640151 0.948 0.249057 0.0499143 0.0110656 1.02814)
(0.991634 -0.0335335 -0.346747 -0.0601978 0.939466 0.219672 0.0487596 0.0153742 1.02814)
(0.999375 -0.0282918 -0.364573 -0.0549568 0.931724 0.188615 0.0472339 0.0195653 1.02814)
(1.00609 -0.0217852 -0.379624 -0.0484507 0.92501 0.156122 0.0453488 0.023607 1.02814)
(1.01157 -0.0142122 -0.391787 -0.0408775 0.919528 0.122442 0.0431185 0.0274695 1.02814)
(1.01566 -0.0058025 -0.400967 -0.0324677 0.915445 0.0878297 0.0405598 0.0311227 1.02814)
(1.01822 0.00318902 -0.407097 -0.0234757 0.912883 0.052549 0.0376932 0.0345396 1.02814)
(1.01918 0.0124885 -0.410128 -0.0141753 0.911921 0.0168681 0.0345399 0.0376936 1.02814)
(1.01851 0.0218136 -0.410037 -0.00484968 0.91259 -0.0189413 0.0311237 0.0405606 1.02814)
(1.01623 0.030882 -0.406826 0.00421773 0.914867 -0.0546065 0.0274702 0.0431189 1.02814)
(1.01242 0.0394163 -0.400519 0.0127517 0.918684 -0.0898559 0.0236073 0.0453492 1.02814)
(1.00717 0.0471579 -0.391163 0.0204928 0.923926 -0.124421 0.0195643 0.047234 1.02814)
(1.00067 0.053872 -0.37883 0.0272067 0.930432 -0.15804 0.0153732 0.0487589 1.02814)
(0.993094 0.0593548 -0.363615 0.032689 0.938006 -0.190456 0.0110657 0.0499131 1.02814)
(0.984684 0.0634384 -0.345632 0.0367735 0.946415 -0.221422 0.00667355 0.0506884 1.02814)
(0.975693 0.0659996 -0.325018 0.0393351 0.955406 -0.250704 0.00223007 0.051077 1.02814)
(0.966393 0.0669608 -0.301931 0.0402961 0.964706 -0.278077 -0.00223008 0.051077 1.02814)
(0.957068 0.0662926 -0.276547 0.0396276 0.974032 -0.303334 -0.00667288 0.0506881 1.02814)
(0.948 0.0640151 -0.249057 0.0373505 0.983099 -0.326282 -0.0110656 0.0499143 1.02814)
(0.939466 0.0601978 -0.219672 0.0335335 0.991634 -0.346747 -0.0153742 0.0487596 1.02814)
(0.931724 0.0549568 -0.188615 0.0282918 0.999375 -0.364573 -0.0195653 0.0472339 1.02814)
(0.92501 0.0484507 -0.156122 0.0217852 1.00609 -0.379624 -0.023607 0.0453488 1.02814)
(0.919528 0.0408775 -0.122442 0.0142122 1.01157 -0.391787 -0.0274695 0.0431185 1.02814)
(0.915445 0.0324677 -0.0878297 0.0058025 1.01566 -0.400967 -0.0311227 0.0405598 1.02814)
(0.912883 0.0234757 -0.052549 -0.00318902 1.01822 -0.407097 -0.0345396 0.0376932 1.02814)
(0.911921 0.0141753 -0.0168681 -0.0124885 1.01918 -0.410128 -0.0376936 0.0345399 1.02814)
(0.91259 0.00484968 0.0189413 -0.0218136 1.01851 -0.410037 -0.0405606 0.0311237 1.02814)
(0.914867 -0.00421773 0.0546065 -0.030882 1.01623 -0.406826 -0.0431189 0.0274702 1.02814)
(0.918684 -0.0127517 0.0898559 -0.0394163 1.01242 -0.400519 -0.0453492 0.0236073 1.02814)
(0.923926 -0.0204928 0.124421 -0.0471579 1.00717 -0.391163 -0.047234 0.0195643 1.02814)
(0.930432 -0.0272067 0.15804 -0.053872 1.00067 -0.37883 -0.0487589 0.0153732 1.02814)
(0.938006 -0.032689 0.190456 -0.0593548 0.993094 -0.363615 -0.0499131 0.0110657 1.02814)
(0.946415 -0.0367735 0.221422 -0.0634384 0.984684 -0.345632 -0.0506884 0.00667355 1.02814)
(0.955406 -0.0393351 0.250704 -0.0659996 0.975693 -0.325018 -0.051077 0.00223007 1.02814)
(0.981043 -0.0588 0.214185 -0.123981 0.911968 -0.20778 -0.125096 -0.00546108 1.1083)
(0.996388 -0.0514133 0.231479 -0.116595 0.896622 -0.188322 -0.124143 -0.0163446 1.1083)
(1.01022 -0.041476 0.247011 -0.106657 0.882792 -0.167431 -0.122248 -0.027103 1.1083)
(1.02211 -0.0292887 0.260664 -0.0944684 0.870899 -0.145265 -0.119421 -0.0376533 1.1083)
(1.03171 -0.0152201 0.272333 -0.0804003 0.861303 -0.121994 -0.115685 -0.0479171 1.1083)
(1.03872 0.000301913 0.281929 -0.0648791 0.854296 -0.0977947 -0.111069 -0.0578156 1.1083)
(1.04292 0.0168046 0.289379 -0.0483766 0.850091 -0.0728507 -0.105605 -0.0672753 1.1083)
(1.0442 0.0337866 0.294628 -0.0313941 0.848815 -0.0473524 -0.0993384 -0.076224 1.1083)
(1.0425 0.0507329 0.297634 -0.0144478 0.850507 -0.0214933 -0.092316 -0.084593 1.1083)
(1.0379 0.0671283 0.298375 0.00194799 0.855116 0.00452898 -0.0845919 -0.0923189 1.1083)
(1.03051 0.0824743 0.296844 0.0172942 0.862501 0.0305163 -0.0762249 -0.0993417 1.1083)
(1.02057 0.0963038 0.293055 0.0311241 0.872439 0.0562715 -0.0672785 -0.105607 1.1083)
(1.00838 0.108197 0.287035 0.0430171 0.884627 0.0815987 -0.057819 -0.111067 1.1083)
(0.994315 0.117793 0.278831 0.0526117 0.898696 0.106305 -0.0479184 -0.115683 1.1083)
(0.978793 0.1248 0.268505 0.0596182 0.914219 0.130202 -0.0376529 -0.119419 1.1083)
(0.96229 0.129006 0.256135 0.0638254 0.930722 0.153109 -0.0270998 -0.122247 1.1083)
(0.945308 0.130283 0.241816 0.0651033 0.947703 0.17485 -0.0163428 -0.124145 1.1083)
(0.928363 0.12859 0.225657 0.0634107 0.964648 0.19526 -0.00546243 -0.125097 1.1083)
(0.911968 0.123981 0.20778 0.0588 0.981043 0.214185 0.00546107 -0.125096 1.1083)
(0.896622 0.116595 0.188322 0.0514133 0.996388 0.231479 0.0163446 -0.124143 1.1083)
(0.882792 0.106657 0.167431 0.041476 1.01022 0.247011 0.027103 -0.122248 1.1083)
(0.870899 0.0944684 0.145265 0.0292887 1.02211 0.260664 0.0376533 -0.119421 1.1083)
(0.861303 0.0804003 0.121994 0.0152201 1.03171 0.272332 0.0479171 -0.115685 1.1083)
(0.854296 0.0648791 0.0977947 -0.000301896 1.03872 0.281929 0.0578156 -0.111068 1.1083)
(0.850091 0.0483766 0.0728507 -0.0168046 1.04292 0.289379 0.0672753 -0.105605 1.1083)
(0.848815 0.0313941 0.0473524 -0.0337866 1.0442 0.294628 0.076224 -0.0993384 1.1083)
(0.850507 0.0144477 0.0214934 -0.0507329 1.0425 0.297634 0.084593 -0.092316 1.1083)
(0.855116 -0.001948 -0.00452896 -0.0671283 1.0379 0.298375 0.0923189 -0.0845919 1.1083)
(0.862501 -0.0172942 -0.0305163 -0.0824743 1.03051 0.296844 0.0993417 -0.0762249 1.1083)
(0.872439 -0.0311241 -0.0562715 -0.0963038 1.02057 0.293055 0.105607 -0.0672785 1.1083)
(0.884627 -0.0430171 -0.0815987 -0.108197 1.00838 0.287035 0.111067 -0.057819 1.1083)
(0.898696 -0.0526117 -0.106305 -0.117793 0.994315 0.278831 0.115683 -0.0479184 1.1083)
(0.914219 -0.0596182 -0.130202 -0.1248 0.978793 0.268505 0.119419 -0.0376528 1.1083)
(0.930722 -0.0638254 -0.153109 -0.129006 0.96229 0.256135 0.122247 -0.0270997 1.1083)
(0.947703 -0.0651034 -0.17485 -0.130283 0.945308 0.241816 0.124145 -0.0163428 1.1083)
(0.964648 -0.0634107 -0.19526 -0.12859 0.928363 0.225657 0.125097 -0.00546242 1.1083)
(0.981043 -0.0588 -0.214185 -0.123981 0.911968 0.20778 0.125096 0.00546108 1.1083)
(0.996388 -0.0514133 -0.231479 -0.116595 0.896622 0.188322 0.124143 0.0163446 1.1083)
(1.01022 -0.041476 -0.247011 -0.106657 0.882792 0.167431 0.122248 0.027103 1.1083)
(1.02211 -0.0292887 -0.260664 -0.0944684 0.870899 0.145265 0.119421 0.0376533 1.1083)
(1.03171 -0.0152201 -0.272332 -0.0804003 0.861303 0.121994 0.115685 0.0479171 1.1083)
(1.03872 0.000301894 -0.281929 -0.0648791 0.854296 0.0977947 0.111068 0.0578156 1.1083)
(1.04292 0.0168046 -0.289379 -0.0483766 0.850091 0.0728507 0.105605 0.0672753 1.1083)
(1.0442 0.0337866 -0.294628 -0.0313941 0.848815 0.0473524 0.0993384 0.076224 1.1083)
(1.0425 0.0507329 -0.297634 -0.0144477 0.850507 0.0214934 0.092316 0.084593 1.1083)
(1.0379 0.0671283 -0.298375 0.001948 0.855116 -0.00452897 0.0845919 0.0923189 1.1083)
(1.03051 0.0824743 -0.296844 0.0172942 0.862501 -0.0305163 0.0762249 0.0993417 1.1083)
(1.02057 0.0963038 -0.293055 0.0311241 0.872439 -0.0562715 0.0672785 0.105607 1.1083)
(1.00838 0.108197 -0.287035 0.0430171 0.884627 -0.0815987 0.057819 0.111067 1.1083)
(0.994315 0.117793 -0.278831 0.0526117 0.898696 -0.106305 0.0479184 0.115683 1.1083)
(0.978793 0.1248 -0.268505 0.0596182 0.914219 -0.130202 0.0376528 0.119419 1.1083)
(0.96229 0.129006 -0.256135 0.0638254 0.930722 -0.153109 0.0270997 0.122247 1.1083)
(0.945308 0.130283 -0.241816 0.0651034 0.947703 -0.17485 0.0163428 0.124145 1.1083)
(0.928363 0.12859 -0.225657 0.0634107 0.964648 -0.19526 0.00546242 0.125097 1.1083)
(0.911968 0.123981 -0.20778 0.0588 0.981043 -0.214185 -0.00546108 0.125096 1.1083)
(0.896622 0.116595 -0.188322 0.0514133 0.996388 -0.231479 -0.0163446 0.124143 1.1083)
(0.882792 0.106657 -0.167431 0.041476 1.01022 -0.247011 -0.027103 0.122248 1.1083)
(0.870899 0.0944684 -0.145265 0.0292887 1.02211 -0.260664 -0.0376533 0.119421 1.1083)
(0.861303 0.0804003 -0.121994 0.0152201 1.03171 -0.272332 -0.0479171 0.115685 1.1083)
(0.854296 0.0648791 -0.0977947 -0.000301892 1.03872 -0.281929 -0.0578156 0.111068 1.1083)
(0.850091 0.0483766 -0.0728507 -0.0168046 1.04292 -0.289379 -0.0672754 0.105605 1.1083)
(0.848815 0.0313941 -0.0473524 -0.0337866 1.0442 -0.294628 -0.076224 0.0993384 1.1083)
(0.850507 0.0144478 -0.0214934 -0.0507329 1.0425 -0.297634 -0.084593 0.092316 1.1083)
(0.855116 -0.00194799 0.00452897 -0.0671283 1.0379 -0.298375 -0.0923189 0.0845919 1.1083)
(0.862501 -0.0172942 0.0305163 -0.0824743 1.03051 -0.296844 -0.0993417 0.0762249 1.1083)
(0.872439 -0.0311241 0.0562715 -0.0963038 1.02057 -0.293055 -0.105607 0.0672785 1.1083)
(0.884627 -0.0430171 0.0815987 -0.108197 1.00838 -0.287035 -0.111067 0.057819 1.1083)
(0.898696 -0.0526117 0.106305 -0.117793 0.994315 -0.278831 -0.115683 0.0479184 1.1083)
(0.914219 -0.0596182 0.130202 -0.1248 0.978793 -0.268505 -0.119419 0.0376528 1.1083)
(0.930722 -0.0638254 0.153109 -0.129006 0.96229 -0.256135 -0.122247 0.0270997 1.1083)
(0.947703 -0.0651034 0.17485 -0.130283 0.945308 -0.241816 -0.124145 0.0163428 1.1083)
(0.964648 -0.0634107 0.19526 -0.12859 0.928363 -0.225657 -0.125097 0.00546242 1.1083)
(0.996708 -0.0801362 0.237893 -0.149972 0.903563 -0.258591 -0.125916 -0.00549758 1.07509)
(1.01598 -0.0703006 0.259525 -0.140137 0.884292 -0.236873 -0.124958 -0.0164511 1.07509)
(1.03325 -0.0572693 0.279182 -0.127105 0.86702 -0.213352 -0.12305 -0.0272799 1.07509)
(1.048 -0.0414371 0.296715 -0.111272 0.852275 -0.188208 -0.120204 -0.0379 1.07509)
(1.05977 -0.0232837 0.311989 -0.0931195 0.840503 -0.161632 -0.116444 -0.0482318 1.07509)
(1.06821 -0.00336166 0.324889 -0.0731979 0.832063 -0.133825 -0.111796 -0.0581961 1.07509)
(1.07306 0.017723 0.335316 -0.0521132 0.82721 -0.105 -0.106297 -0.0677178 1.07509)
(1.07418 0.0393295 0.343192 -0.0305057 0.826092 -0.0753756 -0.0999898 -0.0767245 1.07509)
(1.07153 0.0608024 0.348455 -0.00903225 0.828742 -0.0451774 -0.0929224 -0.0851474 1.07509)
(1.06519 0.0814894 0.351067 0.0116554 0.835082 -0.0146356 -0.085148 -0.0929233 1.07509)
(1.05536 0.100762 0.351006 0.0309275 0.844917 0.0160174 -0.0767255 -0.0999921 1.07509)
(1.04232 0.118033 0.348275 0.0481985 0.857948 0.0465486 -0.0677193 -0.106299 1.07509)
(1.02649 0.132778 0.342892 0.0629432 0.873782 0.0767256 -0.0581972 -0.111796 1.07509)
(1.00834 0.14455 0.334901 0.0747137 0.891935 0.106319 -0.0482319 -0.116442 1.07509)
(0.988414 0.152991 0.32436 0.0831543 0.911857 0.135103 -0.0378996 -0.120202 1.07509)
(0.96733 0.157844 0.31135 0.0880088 0.932942 0.162859 -0.0272785 -0.123048 1.07509)
(0.945723 0.158963 0.295972 0.0891279 0.954548 0.189375 -0.0164508 -0.124959 1.07509)
(0.92425 0.156312 0.27834 0.0864767 0.976021 0.21445 -0.00549757 -0.125917 1.07509)
(0.903563 0.149972 0.258591 0.0801362 0.996708 0.237893 0.00549757 -0.125916 1.07509)
(0.884292 0.140137 0.236873 0.0703006 1.01598 0.259525 0.0164511 -0.124958 1.07509)
(0.86702 0.127105 0.213352 0.0572693 1.03325 0.279182 0.0272799 -0.12305 1.07509)
(0.852275 0.111272 0.188208 0.0414371 1.048 0.296715 0.0379 -0.120204 1.07509)
(0.840503 0.0931195 0.161632 0.0232837 1.05977 0.311989 0.0482318 -0.116444 1.07509)
(0.832063 0.0731979 0.133825 0.00336168 1.06821 0.324889 0.0581961 -0.111796 1.07509)
(0.82721 0.0521132 0.105 -0.017723 1.07306 0.335316 0.0677178 -0.106297 1.07509)
(0.826092 0.0305057 0.0753756 -0.0393294 1.07418 0.343192 0.0767245 -0.0999898 1.07509)
(0.828742 0.00903224 0.0451774 -0.0608024 1.07153 0.348455 0.0851474 -0.0929224 1.07509)
(0.835082 -0.0116554 0.0146356 -0.0814894 1.06519 0.351067 0.0929232 -0.085148 1.07509)
(0.844917 -0.0309275 -0.0160174 -0.100762 1.05536 0.351006 0.0999921 -0.0767255 1.07509)
(0.857948 -0.0481985 -0.0465486 -0.118033 1.04232 0.348275 0.106299 -0.0677193 1.07509)
(0.873782 -0.0629433 -0.0767256 -0.132778 1.02649 0.342892 0.111796 -0.0581972 1.07509)
(0.891935 -0.0747137 -0.106319 -0.144551 1.00834 0.334901 0.116442 -0.0482319 1.07509)
(0.911857 -0.0831543 -0.135103 -0.152991 0.988414 0.32436 0.120202 -0.0378995 1.07509)
(0.932942 -0.0880088 -0.162859 -0.157844 0.96733 0.31135 0.123048 -0.0272784 1.07509)
(0.954548 -0.0891279 -0.189375 -0.158963 0.945723 0.295972 0.124959 -0.0164507 1.07509)
(0.976021 -0.0864767 -0.21445 -0.156312 0.92425 0.27834 0.125917 -0.00549756 1.07509)
(0.996708 -0.0801362 -0.237893 -0.149972 0.903563 0.258591 0.125916 0.00549758 1.07509)
(1.01598 -0.0703006 -0.259525 -0.140137 0.884292 0.236873 0.124958 0.0164511 1.07509)
(1.03325 -0.0572693 -0.279182 -0.127105 0.86702 0.213352 0.12305 0.0272799 1.07509)
(1.048 -0.0414371 -0.296715 -0.111272 0.852275 0.188208 0.120204 0.0379 1.07509)
(1.05977 -0.0232837 -0.311989 -0.0931195 0.840503 0.161632 0.116444 0.0482318 1.07509)
(1.06821 -0.00336168 -0.324889 -0.0731979 0.832063 0.133825 0.111796 0.0581961 1.07509)
(1.07306 0.017723 -0.335316 -0.0521132 0.82721 0.105 0.106297 0.0677178 1.07509)