/*--------------------------------*- C++ -*----------------------------------*\
| =========                 |                                                 |
| \\      /  F ield         | OpenFOAM: The Open Source CFD Toolbox           |
|  \\    /   O peration     | Version:  2312                                  |
|   \\  /    A nd           | Website:  www.openfoam.com                      |
|    \\/     M anipulation  |                                                 |
\*---------------------------------------------------------------------------*/
FoamFile
{
    version     2.0;
    format      ascii;
    arch        "LSB;label=32;scalar=64";
    class       volSymmTensorField;
    location    "0.4";
    object      sigma;
}
// * * * * * * * * * * * * * * * * * * * * * * * * * * * * * * * * * * * * * //

dimensions      [1 -1 -2 0 0 0 0];

internalField   nonuniform List<symmTensor> 
3240
(
(1915.7 -992.283 171.555 14674.2 10890.3 13364)
(2184.92 -2084.98 -778.285 14404.9 10863.8 13364)
(2639.78 -3114.26 -1722.14 13950 10754.7 13364)
(3266.51 -4048.95 -2652.9 13323.4 10563.7 13364)
(4045.99 -4860.64 -3563.5 12543.9 10292.2 13364)
(4954.61 -5524.66 -4447.01 11635.3 9942.48 13363.9)
(5964.69 -6020.72 -5296.63 10625.2 9517.07 13364)
(7045.49 -6333.89 -6105.9 9544.27 9019.24 13364)
(8164.32 -6454.62 -6868.76 8425.35 8452.73 13363.9)
(9287.14 -6379.22 -7579.32 7302.57 7821.92 13363.9)
(10379.9 -6109.99 -8232.21 6209.96 7131.57 13364)
(11409.2 -5655.14 -8822.43 5180.71 6386.99 13364.1)
(12343.9 -5028.48 -9345.52 4246.01 5593.75 13363.9)
(13155.6 -4248.95 -9797.5 3434.3 4757.91 13364)
(13819.6 -3340.34 -10174.9 2770.34 3885.89 13364)
(14315.6 -2330.27 -10474.8 2274.16 2984.33 13364)
(14628.9 -1249.4 -10695.1 1961.04 2060.04 13364)
(14749.6 -130.517 -10833.9 1840.31 1120.04 13364)
(14674.2 992.283 -10890.3 1915.7 171.555 13364)
(14404.9 2084.98 -10863.8 2184.92 -778.285 13364)
(13950 3114.26 -10754.7 2639.78 -1722.14 13364)
(13323.4 4048.95 -10563.7 3266.51 -2652.9 13364)
(12543.9 4860.64 -10292.2 4045.99 -3563.5 13364)
(11635.3 5524.66 -9942.48 4954.61 -4447.01 13363.9)
(10625.2 6020.73 -9517.07 5964.69 -5296.63 13364)
(9544.27 6333.89 -9019.24 7045.49 -6105.9 13364)
(8425.35 6454.62 -8452.73 8164.32 -6868.76 13363.9)
(7302.57 6379.22 -7821.92 9287.15 -7579.32 13363.9)
(6209.96 6109.99 -7131.57 10379.9 -8232.21 13364)
(5180.71 5655.14 -6386.99 11409.2 -8822.43 13364.1)
(4246.01 5028.48 -5593.75 12343.9 -9345.52 13363.9)
(3434.3 4248.95 -4757.91 13155.6 -9797.5 13364)
(2770.34 3340.34 -3885.89 13819.6 -10174.9 13364)
(2274.16 2330.27 -2984.33 14315.6 -10474.8 13364)
(1961.04 1249.4 -2060.04 14628.9 -10695.1 13364)
(1840.31 130.517 -1120.04 14749.6 -10833.9 13364)
(1915.7 -992.283 -171.555 14674.2 -10890.3 13364)
(2184.92 -2084.98 778.285 14404.9 -10863.8 13364)
(2639.78 -3114.26 1722.14 13950 -10754.7 13364)
(3266.51 -4048.95 2652.9 13323.4 -10563.7 13364)
(4045.99 -4860.64 3563.5 12543.9 -10292.2 13364)
(4954.61 -5524.66 4447.01 11635.3 -9942.48 13363.9)
(5964.69 -6020.73 5296.63 10625.2 -9517.07 13364)
(7045.49 -6333.89 6105.9 9544.27 -9019.24 13364)
(8164.32 -6454.62 6868.76 8425.35 -8452.73 13363.9)
(9287.15 -6379.22 7579.32 7302.57 -7821.92 13363.9)
(10379.9 -6109.99 8232.21 6209.96 -7131.57 13364)
(11409.2 -5655.14 8822.43 5180.71 -6386.99 13364.1)
(12343.9 -5028.48 9345.52 4246.01 -5593.75 13363.9)
(13155.6 -4248.95 9797.5 3434.3 -4757.91 13364)
(13819.6 -3340.34 10174.9 2770.34 -3885.89 13364)
(14315.6 -2330.27 10474.8 2274.16 -2984.33 13364)
(14628.9 -1249.4 10695.1 1961.04 -2060.04 13364)
(14749.6 -130.517 10833.9 1840.31 -1120.04 13364)
(14674.2 992.283 10890.3 1915.7 -171.555 13364)
(14404.9 2084.98 10863.8 2184.92 778.285 13364)
(13950 3114.26 10754.7 2639.78 1722.14 13364)
(13323.4 4048.95 10563.7 3266.51 2652.9 13364)
(12543.9 4860.64 10292.2 4045.99 3563.5 13364)
(11635.3 5524.66 9942.48 4954.61 4447.01 13363.9)
(10625.2 6020.73 9517.07 5964.69 5296.63 13364)
(9544.27 6333.89 9019.24 7045.49 6105.9 13364)
(8425.35 6454.62 8452.73 8164.32 6868.76 13363.9)
(7302.57 6379.22 7821.92 9287.15 7579.32 13363.9)
(6209.96 6109.99 7131.57 10379.9 8232.21 13364)
(5180.71 5655.14 6386.99 11409.2 8822.43 13364.1)
(4246.01 5028.48 5593.75 12343.9 9345.52 13363.9)
(3434.3 4248.95 4757.91 13155.6 9797.5 13364)
(2770.34 3340.34 3885.89 13819.6 10174.9 13364)
(2274.16 2330.27 2984.33 14315.6 10474.8 13364)
(1961.04 1249.4 2060.04 14628.9 10695.1 13364)
(1840.31 130.517 1120.04 14749.6 10833.9 13364)
(-569.669 -1759.89 603.129 22855.1 835.178 19.5306)
(-86.146 -3766.98 528.045 22371.5 884.563 19.5169)
(738.586 -5659.58 448.941 21546.9 927.221 19.5436)
(1879.43 -7380.26 366.434 20406 962.779 19.5419)
(3301.72 -8876.72 281.136 18983.7 991.03 19.4989)
(4962.27 -10103.5 193.68 17323.1 1011.78 19.4822)
(6810.63 -11023.2 104.737 15474.8 1024.84 19.5084)
(8790.68 -11608 15.0168 13494.8 1030.07 19.5551)
(10842.1 -11840 -74.8355 11443.3 1027.48 19.5122)
(12902.5 -11712.4 -164.098 9382.86 1017.06 19.49)
(14909.6 -11228.9 -252.096 7375.79 998.868 19.5251)
(16802.3 -10404.1 -338.192 5483.1 973.091 19.5098)
(18523 -9263.29 -421.675 3762.41 939.893 19.4958)
(20019.4 -7840.98 -501.97 2265.98 899.557 19.5075)
(21246.2 -6180.4 -578.484 1039.26 852.389 19.5273)
(22165.9 -4332.06 -650.614 119.541 798.735 19.5306)
(22750.6 -2352.14 -717.754 -465.248 738.994 19.5181)
(22982.7 -300.705 -779.435 -697.349 673.627 19.5124)
(22855.1 1759.89 -835.178 -569.67 603.13 19.5307)
(22371.5 3766.98 -884.563 -86.1461 528.045 19.5169)
(21546.9 5659.58 -927.221 738.586 448.941 19.5435)
(20406 7380.26 -962.779 1879.43 366.434 19.5419)
(18983.7 8876.72 -991.03 3301.72 281.136 19.499)
(17323.1 10103.5 -1011.78 4962.27 193.68 19.4824)
(15474.8 11023.2 -1024.84 6810.63 104.737 19.5089)
(13494.8 11608 -1030.07 8790.68 15.0168 19.5554)
(11443.3 11840 -1027.48 10842.1 -74.8354 19.5123)
(9382.86 11712.4 -1017.06 12902.5 -164.098 19.4901)
(7375.79 11228.9 -998.868 14909.6 -252.096 19.5252)
(5483.1 10404.1 -973.091 16802.3 -338.192 19.5097)
(3762.41 9263.29 -939.893 18523 -421.675 19.4956)
(2265.98 7840.98 -899.557 20019.4 -501.97 19.5072)
(1039.26 6180.4 -852.389 21246.2 -578.484 19.5269)
(119.541 4332.06 -798.735 22165.9 -650.614 19.5303)
(-465.248 2352.14 -738.994 22750.6 -717.754 19.5179)
(-697.349 300.705 -673.627 22982.7 -779.435 19.5123)
(-569.67 -1759.89 -603.13 22855.1 -835.178 19.5307)
(-86.146 -3766.98 -528.045 22371.5 -884.563 19.5169)
(738.586 -5659.58 -448.941 21546.9 -927.221 19.5436)
(1879.43 -7380.26 -366.434 20406 -962.779 19.542)
(3301.72 -8876.72 -281.136 18983.7 -991.03 19.4991)
(4962.27 -10103.5 -193.68 17323.1 -1011.78 19.4825)
(6810.63 -11023.2 -104.737 15474.8 -1024.84 19.5091)
(8790.68 -11608 -15.0169 13494.8 -1030.07 19.5556)
(10842.1 -11840 74.8354 11443.3 -1027.48 19.5124)
(12902.5 -11712.4 164.098 9382.86 -1017.06 19.4903)
(14909.6 -11228.9 252.096 7375.79 -998.868 19.5253)
(16802.3 -10404.1 338.192 5483.1 -973.091 19.5098)
(18523 -9263.29 421.675 3762.41 -939.893 19.4957)
(20019.4 -7840.98 501.969 2265.98 -899.557 19.5072)
(21246.2 -6180.4 578.484 1039.26 -852.389 19.527)
(22165.9 -4332.06 650.614 119.541 -798.735 19.5302)
(22750.6 -2352.14 717.754 -465.248 -738.994 19.5178)
(22982.7 -300.705 779.435 -697.349 -673.627 19.5122)
(22855.1 1759.89 835.178 -569.669 -603.129 19.5305)
(22371.5 3766.98 884.563 -86.1461 -528.045 19.5168)
(21546.9 5659.58 927.221 738.586 -448.941 19.5435)
(20406 7380.26 962.779 1879.43 -366.434 19.542)
(18983.7 8876.72 991.03 3301.72 -281.136 19.4992)
(17323.1 10103.5 1011.78 4962.27 -193.68 19.4827)
(15474.8 11023.2 1024.84 6810.63 -104.737 19.5093)
(13494.8 11608 1030.07 8790.68 -15.0169 19.5558)
(11443.3 11840 1027.48 10842.1 74.8354 19.5127)
(9382.86 11712.4 1017.06 12902.5 164.098 19.4905)
(7375.79 11228.9 998.868 14909.6 252.096 19.5254)
(5483.1 10404.1 973.091 16802.3 338.192 19.5099)
(3762.41 9263.29 939.892 18523 421.673 19.4956)
(2265.98 7840.98 899.557 20019.4 501.969 19.5075)
(1039.26 6180.4 852.389 21246.2 578.484 19.5271)
(119.541 4332.06 798.735 22165.9 650.614 19.5304)
(-465.248 2352.14 738.994 22750.6 717.754 19.5179)
(-697.349 300.705 673.627 22982.7 779.435 19.5122)
(-4489.86 -2494.85 2178.27 13446.1 -14727.2 5361)
(-3920.39 -4014.21 3453.53 12876.6 -14481.3 5361.02)
(-3095.75 -5411.56 4702.48 12051.9 -14125.2 5361.04)
(-2040.96 -6644.55 5915.69 10997.2 -13661.6 5361.05)
(-788.112 -7675.66 7083.9 9744.24 -13094 5361.02)
(624.751 -8473.52 8198.17 8331.34 -12426.8 5360.99)
(2154.7 -9013.88 9250.02 6801.46 -11665 5361.05)
(3755.37 -9280.44 10231.5 5200.92 -10814.4 5361.08)
(5377.84 -9264.96 11135.1 3578.41 -9881.49 5361.02)
(6972.89 -8967.96 11953.9 1983.28 -8873.43 5360.97)
(8492.28 -8398.49 12681.8 463.947 -7797.82 5361.04)
(9889.68 -7573.81 13313.2 -933.537 -6662.82 5361.03)
(11122.6 -6519.06 13843.2 -2166.47 -5477.17 5361.02)
(12153.7 -5266.21 14267.9 -3197.54 -4249.81 5361.07)
(12951.6 -3853.3 14584 -3995.42 -2990.06 5361.04)
(13492 -2323.33 14789.1 -4535.82 -1707.59 5361.03)
(13758.5 -722.814 14881.7 -4802.31 -412.16 5361.02)
(13743 899.666 14861 -4786.85 886.413 5360.99)
(13446.1 2494.85 14727.2 -4489.86 2178.27 5361)
(12876.6 4014.21 14481.3 -3920.39 3453.53 5361.02)
(12051.9 5411.56 14125.2 -3095.75 4702.48 5361.04)
(10997.2 6644.55 13661.6 -2040.96 5915.69 5361.05)
(9744.24 7675.66 13094 -788.112 7083.9 5361.02)
(8331.34 8473.52 12426.8 624.751 8198.17 5360.99)
(6801.46 9013.88 11665 2154.7 9250.02 5361.05)
(5200.92 9280.44 10814.4 3755.37 10231.5 5361.08)
(3578.41 9264.96 9881.49 5377.84 11135.1 5361.02)
(1983.28 8967.96 8873.43 6972.89 11953.9 5360.97)
(463.947 8398.49 7797.82 8492.28 12681.8 5361.04)
(-933.537 7573.81 6662.82 9889.68 13313.2 5361.03)
(-2166.47 6519.06 5477.17 11122.6 13843.2 5361.02)
(-3197.54 5266.21 4249.81 12153.7 14267.9 5361.07)
(-3995.42 3853.3 2990.06 12951.6 14584 5361.04)
(-4535.82 2323.33 1707.59 13492 14789.1 5361.03)
(-4802.31 722.814 412.16 13758.5 14881.7 5361.02)
(-4786.85 -899.666 -886.413 13743 14861 5360.99)
(-4489.86 -2494.85 -2178.27 13446.1 14727.2 5361)
(-3920.39 -4014.21 -3453.53 12876.6 14481.3 5361.02)
(-3095.75 -5411.56 -4702.48 12051.9 14125.2 5361.04)
(-2040.96 -6644.55 -5915.69 10997.2 13661.6 5361.05)
(-788.112 -7675.66 -7083.9 9744.24 13094 5361.02)
(624.751 -8473.52 -8198.17 8331.34 12426.8 5360.99)
(2154.7 -9013.88 -9250.02 6801.46 11665 5361.05)
(3755.37 -9280.44 -10231.5 5200.92 10814.4 5361.08)
(5377.84 -9264.96 -11135.1 3578.41 9881.49 5361.02)
(6972.89 -8967.96 -11953.9 1983.28 8873.43 5360.97)
(8492.28 -8398.49 -12681.8 463.947 7797.82 5361.04)
(9889.68 -7573.81 -13313.2 -933.537 6662.82 5361.03)
(11122.6 -6519.06 -13843.2 -2166.47 5477.17 5361.02)
(12153.7 -5266.21 -14267.9 -3197.54 4249.81 5361.07)
(12951.6 -3853.3 -14584 -3995.42 2990.06 5361.04)
(13492 -2323.33 -14789.1 -4535.82 1707.59 5361.03)
(13758.5 -722.814 -14881.7 -4802.31 412.16 5361.02)
(13743 899.666 -14861 -4786.85 -886.413 5360.99)
(13446.1 2494.85 -14727.2 -4489.86 -2178.27 5361)
(12876.6 4014.21 -14481.3 -3920.39 -3453.53 5361.02)
(12051.9 5411.56 -14125.2 -3095.75 -4702.48 5361.04)
(10997.2 6644.55 -13661.6 -2040.96 -5915.69 5361.05)
(9744.24 7675.66 -13094 -788.112 -7083.9 5361.02)
(8331.34 8473.52 -12426.8 624.751 -8198.17 5360.99)
(6801.46 9013.88 -11665 2154.7 -9250.02 5361.05)
(5200.92 9280.44 -10814.4 3755.37 -10231.5 5361.08)
(3578.42 9264.96 -9881.49 5377.84 -11135.1 5361.02)
(1983.28 8967.96 -8873.43 6972.89 -11953.9 5360.97)
(463.947 8398.49 -7797.82 8492.29 -12681.8 5361.04)
(-933.537 7573.81 -6662.82 9889.68 -13313.2 5361.03)
(-2166.47 6519.06 -5477.17 11122.6 -13843.2 5361.02)
(-3197.54 5266.21 -4249.81 12153.7 -14267.9 5361.07)
(-3995.42 3853.3 -2990.06 12951.6 -14584 5361.04)
(-4535.82 2323.33 -1707.59 13492 -14789.1 5361.03)
(-4802.31 722.814 -412.16 13758.5 -14881.7 5361.02)
(-4786.85 -899.666 886.413 13743 -14861 5360.99)
(596.537 -1442.73 -349.64 11815.5 10785.7 13214.4)
(932.246 -2394.88 -1288.35 11479.6 10714.2 13214.4)
(1428.21 -3274.23 -2217.21 10983.6 10561.1 13214.5)
(2069.34 -4054.13 -3129.22 10342.6 10327.7 13214.4)
(2836.23 -4710.88 -4017.45 9575.78 10015.7 13214.4)
(3705.48 -5224.48 -4875.12 8706.52 9627.41 13214.4)
(4650.67 -5579.3 -5695.64 7761.28 9165.88 13214.4)
(5643.13 -5764.6 -6472.82 6768.81 8634.59 13214.4)
(6652.67 -5774.75 -7200.73 5759.22 8037.58 13214.4)
(7648.61 -5609.43 -7873.84 4763.22 7379.42 13214.4)
(8600.76 -5273.71 -8487.03 3811.07 6665.08 13214.4)
(9480.18 -4777.74 -9035.63 2931.75 5900.05 13214.4)
(10260.1 -4136.61 -9515.48 2151.85 5090.1 13214.4)
(10916.9 -3369.76 -9922.92 1495.1 4241.36 13214.4)
(11430.5 -2500.49 -10254.8 981.539 3360.35 13214.4)
(11785.2 -1555.3 -10508.7 626.651 2453.83 13214.4)
(11970.5 -562.904 -10682.5 441.345 1528.67 13214.4)
(11980.8 446.711 -10775.1 431.216 591.746 13214.4)
(11815.5 1442.73 -10785.7 596.537 -349.64 13214.4)
(11479.6 2394.88 -10714.2 932.246 -1288.35 13214.4)
(10983.6 3274.23 -10561.1 1428.21 -2217.21 13214.5)
(10342.6 4054.13 -10327.7 2069.34 -3129.22 13214.4)
(9575.78 4710.88 -10015.7 2836.23 -4017.45 13214.4)
(8706.52 5224.48 -9627.41 3705.48 -4875.12 13214.4)
(7761.28 5579.3 -9165.88 4650.67 -5695.64 13214.4)
(6768.81 5764.6 -8634.59 5643.13 -6472.82 13214.4)
(5759.22 5774.75 -8037.58 6652.66 -7200.73 13214.4)
(4763.22 5609.43 -7379.42 7648.61 -7873.84 13214.4)
(3811.07 5273.71 -6665.08 8600.76 -8487.03 13214.4)
(2931.75 4777.74 -5900.05 9480.18 -9035.63 13214.4)
(2151.85 4136.61 -5090.1 10260.1 -9515.48 13214.4)
(1495.1 3369.76 -4241.36 10916.9 -9922.92 13214.4)
(981.538 2500.49 -3360.35 11430.5 -10254.8 13214.4)
(626.651 1555.3 -2453.83 11785.2 -10508.7 13214.4)
(441.345 562.904 -1528.67 11970.5 -10682.5 13214.4)
(431.216 -446.711 -591.746 11980.8 -10775.1 13214.4)
(596.537 -1442.73 349.64 11815.5 -10785.7 13214.4)
(932.246 -2394.88 1288.35 11479.6 -10714.2 13214.4)
(1428.21 -3274.23 2217.21 10983.6 -10561.1 13214.5)
(2069.34 -4054.13 3129.22 10342.6 -10327.7 13214.4)
(2836.23 -4710.88 4017.45 9575.78 -10015.7 13214.4)
(3705.48 -5224.48 4875.12 8706.52 -9627.41 13214.4)
(4650.67 -5579.3 5695.64 7761.28 -9165.88 13214.4)
(5643.13 -5764.6 6472.82 6768.81 -8634.59 13214.4)
(6652.66 -5774.75 7200.73 5759.22 -8037.58 13214.4)
(7648.61 -5609.43 7873.84 4763.22 -7379.42 13214.4)
(8600.76 -5273.71 8487.03 3811.07 -6665.08 13214.4)
(9480.18 -4777.74 9035.63 2931.75 -5900.05 13214.4)
(10260.1 -4136.61 9515.48 2151.85 -5090.1 13214.4)
(10916.9 -3369.76 9922.92 1495.1 -4241.36 13214.4)
(11430.5 -2500.49 10254.8 981.538 -3360.35 13214.4)
(11785.2 -1555.3 10508.7 626.651 -2453.83 13214.4)
(11970.5 -562.904 10682.5 441.345 -1528.67 13214.4)
(11980.8 446.711 10775.1 431.216 -591.746 13214.4)
(11815.5 1442.73 10785.7 596.537 349.64 13214.4)
(11479.6 2394.88 10714.2 932.246 1288.35 13214.4)
(10983.6 3274.23 10561.1 1428.21 2217.21 13214.5)
(10342.6 4054.13 10327.7 2069.34 3129.22 13214.4)
(9575.78 4710.88 10015.7 2836.23 4017.45 13214.4)
(8706.52 5224.48 9627.41 3705.48 4875.12 13214.4)
(7761.28 5579.3 9165.88 4650.67 5695.64 13214.4)
(6768.81 5764.6 8634.59 5643.13 6472.82 13214.4)
(5759.22 5774.75 8037.58 6652.66 7200.73 13214.4)
(4763.22 5609.43 7379.42 7648.61 7873.84 13214.4)
(3811.07 5273.71 6665.08 8600.76 8487.03 13214.4)
(2931.75 4777.74 5900.05 9480.18 9035.63 13214.4)
(2151.85 4136.61 5090.1 10260.1 9515.48 13214.4)
(1495.1 3369.76 4241.36 10916.9 9922.92 13214.4)
(981.538 2500.49 3360.35 11430.5 10254.8 13214.4)
(626.651 1555.3 2453.83 11785.2 10508.7 13214.4)
(441.345 562.904 1528.67 11970.5 10682.5 13214.4)
(431.216 -446.711 591.746 11980.8 10775.1 13214.4)
(-1721.62 -2475.21 488.362 20558.7 1399.57 -1348.36)
(-1122.55 -4372.1 364.522 19959.6 1436.8 -1348.36)
(-203.254 -6136.06 237.902 19040.3 1463.15 -1348.37)
(1008.43 -7713.61 109.495 17828.6 1478.28 -1348.37)
(2475.69 -9056.87 -19.7502 16361.4 1482.15 -1348.37)
(4153.91 -10124.9 -148.871 14683.2 1474.81 -1348.38)
(5992.08 -10885.3 -276.837 12845 1456.22 -1348.37)
(7934.31 -11314.9 -402.708 10902.8 1426.57 -1348.35)
(9921.68 -11400.7 -525.508 8915.43 1386.05 -1348.35)
(11893.7 -11140.2 -644.311 6943.33 1334.97 -1348.38)
(13790.6 -10541.1 -758.209 5046.5 1273.73 -1348.35)
(15554.6 -9621.78 -866.316 3282.49 1202.79 -1348.37)
(17132.2 -8410.09 -967.856 1704.87 1122.71 -1348.4)
(18475.4 -6942.84 -1062 361.663 1034.07 -1348.38)
(19543.5 -5264.6 -1148.13 -706.39 937.586 -1348.38)
(20303.8 -3426.49 -1225.52 -1466.73 833.969 -1348.36)
(20733.4 -1484.28 -1293.5 -1896.36 723.984 -1348.38)
(20819.3 503.098 -1351.68 -1982.21 608.489 -1348.38)
(20558.7 2475.21 -1399.57 -1721.62 488.362 -1348.36)
(19959.6 4372.1 -1436.8 -1122.55 364.522 -1348.36)
(19040.3 6136.06 -1463.15 -203.254 237.902 -1348.37)
(17828.6 7713.61 -1478.28 1008.43 109.495 -1348.37)
(16361.4 9056.87 -1482.15 2475.69 -19.7502 -1348.37)
(14683.2 10124.9 -1474.81 4153.91 -148.871 -1348.38)
(12845 10885.3 -1456.22 5992.08 -276.837 -1348.37)
(10902.8 11314.9 -1426.57 7934.31 -402.708 -1348.35)
(8915.43 11400.7 -1386.05 9921.68 -525.508 -1348.35)
(6943.33 11140.2 -1334.97 11893.7 -644.311 -1348.38)
(5046.5 10541.1 -1273.73 13790.6 -758.209 -1348.35)
(3282.49 9621.78 -1202.79 15554.6 -866.316 -1348.37)
(1704.87 8410.09 -1122.71 17132.2 -967.855 -1348.4)
(361.663 6942.84 -1034.07 18475.4 -1062 -1348.38)
(-706.39 5264.6 -937.587 19543.5 -1148.13 -1348.38)
(-1466.73 3426.49 -833.969 20303.8 -1225.52 -1348.36)
(-1896.36 1484.28 -723.984 20733.4 -1293.5 -1348.38)
(-1982.21 -503.098 -608.489 20819.3 -1351.68 -1348.38)
(-1721.62 -2475.21 -488.362 20558.7 -1399.57 -1348.36)
(-1122.55 -4372.1 -364.522 19959.6 -1436.8 -1348.36)
(-203.254 -6136.06 -237.902 19040.3 -1463.15 -1348.37)
(1008.43 -7713.61 -109.495 17828.6 -1478.28 -1348.36)
(2475.69 -9056.87 19.7502 16361.4 -1482.15 -1348.37)
(4153.91 -10124.9 148.871 14683.2 -1474.81 -1348.38)
(5992.08 -10885.3 276.837 12845 -1456.22 -1348.37)
(7934.31 -11314.9 402.708 10902.8 -1426.57 -1348.35)
(9921.68 -11400.7 525.508 8915.43 -1386.05 -1348.35)
(11893.7 -11140.2 644.311 6943.33 -1334.97 -1348.38)
(13790.6 -10541.1 758.209 5046.5 -1273.73 -1348.35)
(15554.6 -9621.78 866.316 3282.49 -1202.79 -1348.37)
(17132.2 -8410.09 967.855 1704.87 -1122.71 -1348.4)
(18475.4 -6942.84 1062 361.663 -1034.07 -1348.38)
(19543.5 -5264.6 1148.13 -706.39 -937.587 -1348.38)
(20303.8 -3426.49 1225.52 -1466.73 -833.969 -1348.36)
(20733.4 -1484.28 1293.5 -1896.36 -723.984 -1348.38)
(20819.3 503.098 1351.68 -1982.21 -608.489 -1348.38)
(20558.7 2475.21 1399.57 -1721.62 -488.362 -1348.36)
(19959.6 4372.1 1436.8 -1122.55 -364.522 -1348.36)
(19040.3 6136.06 1463.15 -203.254 -237.902 -1348.37)
(17828.6 7713.61 1478.28 1008.43 -109.495 -1348.37)
(16361.4 9056.87 1482.15 2475.69 19.7502 -1348.37)
(14683.2 10124.9 1474.81 4153.91 148.871 -1348.38)
(12845 10885.3 1456.22 5992.08 276.837 -1348.37)
(10902.8 11314.9 1426.57 7934.31 402.708 -1348.35)
(8915.43 11400.7 1386.05 9921.68 525.508 -1348.35)
(6943.33 11140.2 1334.97 11893.7 644.311 -1348.38)
(5046.5 10541.1 1273.73 13790.6 758.209 -1348.35)
(3282.49 9621.78 1202.79 15554.6 866.316 -1348.37)
(1704.87 8410.09 1122.71 17132.2 967.855 -1348.4)
(361.664 6942.84 1034.07 18475.4 1062 -1348.38)
(-706.39 5264.6 937.587 19543.5 1148.13 -1348.38)
(-1466.73 3426.49 833.969 20303.8 1225.52 -1348.36)
(-1896.36 1484.28 723.984 20733.4 1293.5 -1348.38)
(-1982.21 -503.098 608.489 20819.3 1351.68 -1348.38)
(-6102.44 -3239.33 2433.57 10612.4 -14543.6 2737.05)
(-5412.96 -4641.35 3691.86 9922.94 -14276.2 2737.07)
(-4490.52 -5902.33 4922.04 9000.46 -13900.1 2737.09)
(-3363.15 -6983.99 6114.76 7873.09 -13418.2 2737.02)
(-2065.05 -7853.47 7260.97 6574.96 -12834.2 2737.03)
(-635.665 -8484.34 8351.96 5145.55 -12152.6 2737.05)
(881.562 -8857.39 9379.34 3628.39 -11378.4 2737.09)
(2440.56 -8961.31 10335.4 2069.42 -10517.6 2737.15)
(3993.83 -8792.96 11212.7 516.128 -9576.8 2737.05)
(5494.22 -8357.42 12004.6 -984.253 -8563.14 2737.05)
(6896.34 -7667.94 12705.3 -2386.29 -7484.29 2737.18)
(8157.37 -6745.49 13309.3 -3647.36 -6348.44 2737.11)
(9238.99 -5618.09 13811.9 -4729.04 -5164.31 2737.09)
(10108.5 -4319.95 14209.5 -5598.55 -3940.83 2737.06)
(10739.4 -2890.59 14498.9 -6229.37 -2687.4 2737.03)
(11112.4 -1373.38 14677.9 -6602.41 -1413.53 2737.07)
(11216.3 185.504 14745.3 -6706.33 -128.922 2737.05)
(11047.9 1738.79 14700.4 -6537.98 1156.7 2737.05)
(10612.4 3239.33 14543.6 -6102.44 2433.57 2737.05)
(9922.94 4641.35 14276.2 -5412.96 3691.86 2737.07)
(9000.46 5902.33 13900.1 -4490.52 4922.04 2737.09)
(7873.09 6983.99 13418.2 -3363.15 6114.76 2737.02)
(6574.96 7853.47 12834.2 -2065.05 7260.98 2737.03)
(5145.55 8484.34 12152.6 -635.665 8351.96 2737.05)
(3628.39 8857.39 11378.4 881.563 9379.34 2737.09)
(2069.42 8961.31 10517.6 2440.56 10335.4 2737.15)
(516.128 8792.96 9576.8 3993.83 11212.7 2737.05)
(-984.252 8357.42 8563.14 5494.22 12004.6 2737.05)
(-2386.29 7667.94 7484.29 6896.34 12705.3 2737.18)
(-3647.36 6745.49 6348.44 8157.37 13309.3 2737.11)
(-4729.04 5618.09 5164.31 9238.99 13811.9 2737.09)
(-5598.55 4319.95 3940.83 10108.5 14209.5 2737.06)
(-6229.37 2890.59 2687.4 10739.4 14498.9 2737.03)
(-6602.41 1373.38 1413.53 11112.4 14677.9 2737.07)
(-6706.33 -185.503 128.922 11216.3 14745.3 2737.05)
(-6537.98 -1738.79 -1156.7 11047.9 14700.4 2737.05)
(-6102.44 -3239.33 -2433.57 10612.4 14543.6 2737.05)
(-5412.96 -4641.35 -3691.86 9922.94 14276.2 2737.07)
(-4490.52 -5902.33 -4922.04 9000.46 13900.1 2737.09)
(-3363.15 -6983.99 -6114.76 7873.09 13418.2 2737.02)
(-2065.05 -7853.47 -7260.98 6574.96 12834.2 2737.03)
(-635.665 -8484.34 -8351.96 5145.55 12152.6 2737.05)
(881.563 -8857.39 -9379.34 3628.39 11378.4 2737.09)
(2440.56 -8961.31 -10335.4 2069.42 10517.6 2737.15)
(3993.83 -8792.96 -11212.7 516.128 9576.8 2737.05)
(5494.22 -8357.42 -12004.6 -984.252 8563.14 2737.05)
(6896.34 -7667.94 -12705.3 -2386.29 7484.29 2737.18)
(8157.37 -6745.49 -13309.3 -3647.36 6348.44 2737.11)
(9238.99 -5618.09 -13811.9 -4729.04 5164.31 2737.09)
(10108.5 -4319.95 -14209.5 -5598.55 3940.83 2737.06)
(10739.4 -2890.59 -14498.9 -6229.37 2687.4 2737.03)
(11112.4 -1373.38 -14677.9 -6602.41 1413.53 2737.07)
(11216.3 185.503 -14745.3 -6706.33 128.922 2737.05)
(11047.9 1738.79 -14700.4 -6537.98 -1156.7 2737.05)
(10612.4 3239.33 -14543.6 -6102.44 -2433.57 2737.05)
(9922.94 4641.35 -14276.2 -5412.96 -3691.86 2737.07)
(9000.46 5902.33 -13900.1 -4490.52 -4922.04 2737.09)
(7873.09 6983.99 -13418.2 -3363.15 -6114.76 2737.02)
(6574.96 7853.47 -12834.2 -2065.05 -7260.97 2737.03)
(5145.55 8484.34 -12152.6 -635.665 -8351.96 2737.05)
(3628.39 8857.39 -11378.4 881.563 -9379.34 2737.1)
(2069.42 8961.31 -10517.6 2440.56 -10335.4 2737.15)
(516.128 8792.96 -9576.8 3993.83 -11212.7 2737.05)
(-984.252 8357.42 -8563.15 5494.22 -12004.6 2737.05)
(-2386.29 7667.94 -7484.29 6896.34 -12705.3 2737.18)
(-3647.36 6745.49 -6348.44 8157.37 -13309.3 2737.11)
(-4729.04 5618.09 -5164.31 9239 -13811.9 2737.09)
(-5598.55 4319.95 -3940.83 10108.5 -14209.5 2737.06)
(-6229.37 2890.59 -2687.4 10739.4 -14498.9 2737.03)
(-6602.41 1373.38 -1413.53 11112.4 -14677.9 2737.07)
(-6706.33 -185.504 -128.922 11216.3 -14745.3 2737.05)
(-6537.98 -1738.79 1156.7 11047.9 -14700.4 2737.05)
(523.843 -1789.35 -664.983 11325.4 10577.6 13094.4)
(916.589 -2699.98 -1584.33 10932.5 10479.4 13094.5)
(1461.51 -3528.57 -2491.61 10387.7 10301.4 13094.4)
(2142.02 -4249.99 -3379.97 9707.1 10045 13094.4)
(2937.49 -4842.25 -4242.58 8911.66 9712.24 13094.4)
(3823.81 -5287.41 -5072.96 8025.45 9305.5 13094.5)
(4773.82 -5571.85 -5864.66 7075.34 8827.96 13094.5)
(5758.81 -5687.03 -6611.7 6090.39 8283.26 13094.4)
(6748.88 -5629.45 -7308.48 5100.3 7675.48 13094.3)
(7714 -5400.79 -7949.67 4135.29 7009.26 13094.4)
(8624.61 -5007.98 -8530.33 3224.56 6289.71 13094.4)
(9453.13 -4463.06 -9046.01 2396.01 5522.36 13094.4)
(10174.6 -3782.55 -9492.9 1674.61 4712.93 13094.4)
(10766.8 -2987.08 -9867.54 1082.31 3867.63 13094.4)
(11212 -2100.84 -10167.1 637.205 2992.88 13094.4)
(11496.4 -1150.74 -10389.2 352.71 2095.35 13094.4)
(11611.5 -165.774 -10532.3 237.507 1181.96 13094.4)
(11554 824.278 -10595.3 295.148 259.509 13094.3)
(11325.4 1789.35 -10577.6 523.843 -664.983 13094.4)
(10932.5 2699.98 -10479.4 916.589 -1584.33 13094.5)
(10387.7 3528.57 -10301.4 1461.51 -2491.61 13094.4)
(9707.1 4249.99 -10045 2142.02 -3379.97 13094.4)
(8911.66 4842.25 -9712.24 2937.49 -4242.58 13094.4)
(8025.45 5287.41 -9305.51 3823.81 -5072.96 13094.5)
(7075.33 5571.85 -8827.96 4773.83 -5864.67 13094.5)
(6090.39 5687.03 -8283.26 5758.82 -6611.7 13094.4)
(5100.3 5629.45 -7675.48 6748.87 -7308.48 13094.3)
(4135.29 5400.79 -7009.26 7714 -7949.67 13094.4)
(3224.56 5007.98 -6289.71 8624.61 -8530.33 13094.4)
(2396.01 4463.06 -5522.36 9453.13 -9046.01 13094.4)
(1674.61 3782.55 -4712.93 10174.6 -9492.9 13094.4)
(1082.31 2987.08 -3867.62 10766.8 -9867.54 13094.3)
(637.205 2100.83 -2992.88 11212 -10167.1 13094.4)
(352.711 1150.74 -2095.35 11496.4 -10389.2 13094.4)
(237.507 165.774 -1181.96 11611.5 -10532.3 13094.4)
(295.148 -824.278 -259.509 11554 -10595.3 13094.3)
(523.843 -1789.35 664.983 11325.4 -10577.6 13094.4)
(916.589 -2699.98 1584.33 10932.5 -10479.4 13094.5)
(1461.51 -3528.57 2491.61 10387.7 -10301.4 13094.4)
(2142.02 -4249.99 3379.97 9707.1 -10045 13094.4)
(2937.49 -4842.25 4242.58 8911.66 -9712.24 13094.4)
(3823.81 -5287.41 5072.96 8025.45 -9305.51 13094.5)
(4773.83 -5571.85 5864.67 7075.33 -8827.96 13094.5)
(5758.82 -5687.03 6611.7 6090.39 -8283.26 13094.4)
(6748.87 -5629.45 7308.48 5100.3 -7675.48 13094.3)
(7714 -5400.79 7949.67 4135.29 -7009.26 13094.4)
(8624.61 -5007.98 8530.33 3224.56 -6289.71 13094.4)
(9453.13 -4463.06 9046.01 2396.01 -5522.36 13094.4)
(10174.6 -3782.55 9492.9 1674.61 -4712.93 13094.4)
(10766.8 -2987.08 9867.54 1082.31 -3867.62 13094.3)
(11212 -2100.83 10167.1 637.205 -2992.88 13094.4)
(11496.4 -1150.74 10389.2 352.711 -2095.35 13094.4)
(11611.5 -165.774 10532.3 237.507 -1181.96 13094.4)
(11554 824.278 10595.3 295.148 -259.509 13094.3)
(11325.4 1789.35 10577.6 523.843 664.983 13094.4)
(10932.5 2699.98 10479.4 916.589 1584.33 13094.5)
(10387.7 3528.57 10301.4 1461.51 2491.61 13094.4)
(9707.1 4249.99 10045 2142.02 3379.97 13094.4)
(8911.66 4842.25 9712.24 2937.49 4242.58 13094.4)
(8025.45 5287.41 9305.5 3823.81 5072.96 13094.5)
(7075.33 5571.85 8827.96 4773.83 5864.67 13094.5)
(6090.39 5687.03 8283.26 5758.82 6611.7 13094.4)
(5100.3 5629.45 7675.48 6748.87 7308.48 13094.3)
(4135.29 5400.79 7009.26 7714 7949.67 13094.4)
(3224.56 5007.98 6289.71 8624.61 8530.33 13094.4)
(2396.01 4463.06 5522.36 9453.13 9046.01 13094.4)
(1674.61 3782.55 4712.93 10174.6 9492.9 13094.4)
(1082.31 2987.08 3867.62 10766.8 9867.54 13094.3)
(637.205 2100.83 2992.88 11212 10167.1 13094.4)
(352.711 1150.74 2095.35 11496.4 10389.2 13094.4)
(237.507 165.774 1181.96 11611.5 10532.3 13094.4)
(295.148 -824.278 259.509 11554 10595.3 13094.3)
(-1480.77 -3362.26 359.805 19589 1264.72 -1680.01)
(-736.833 -5140.57 248.202 18845.1 1291.29 -1679.98)
(304.518 -6762.62 134.712 17803.6 1308.03 -1680)
(1611.77 -8179.21 20.2094 16496.4 1314.77 -1679.99)
(3145.16 -9347.31 -94.4508 14963.1 1311.51 -1679.97)
(4858.05 -10231.4 -208.424 13250.1 1298.33 -1679.99)
(6698.55 -10804.6 -320.75 11409.8 1275.18 -1679.96)
(8610.42 -11049.5 -430.676 9497.76 1242.39 -1680.01)
(10535.9 -10958.7 -537.284 7572.33 1200.1 -1680)
(12416.4 -10534.9 -639.846 5691.8 1148.7 -1680.02)
(14194.7 -9790.95 -737.559 3913.56 1088.59 -1679.99)
(15816.7 -8749.56 -829.612 2291.48 1020.15 -1680.01)
(17233.3 -7442.32 -915.413 874.852 943.984 -1680.02)
(18401.4 -5908.94 -994.161 -293.223 860.59 -1680)
(19285.5 -4196.02 -1065.4 -1177.34 770.675 -1680.04)
(19858.6 -2355.62 -1128.53 -1750.5 674.897 -1680.02)
(20103.6 -443.652 -1183.04 -1995.37 573.966 -1680)
(20012.8 1481.82 -1228.54 -1904.55 468.667 -1680)
(19589 3362.26 -1264.72 -1480.77 359.805 -1680.01)
(18845.1 5140.57 -1291.29 -736.833 248.202 -1679.98)
(17803.6 6762.62 -1308.03 304.519 134.712 -1680)
(16496.4 8179.21 -1314.77 1611.77 20.2094 -1679.99)
(14963.1 9347.31 -1311.51 3145.16 -94.4507 -1679.97)
(13250.1 10231.4 -1298.33 4858.05 -208.424 -1679.99)
(11409.8 10804.6 -1275.18 6698.55 -320.749 -1679.96)
(9497.76 11049.5 -1242.39 8610.42 -430.676 -1680.01)
(7572.33 10958.7 -1200.1 10535.9 -537.284 -1680)
(5691.8 10534.9 -1148.7 12416.4 -639.846 -1680.02)
(3913.56 9790.95 -1088.59 14194.7 -737.559 -1679.99)
(2291.48 8749.56 -1020.15 15816.7 -829.612 -1680.01)
(874.851 7442.32 -943.984 17233.3 -915.413 -1680.02)
(-293.225 5908.94 -860.59 18401.4 -994.162 -1680.01)
(-1177.34 4196.02 -770.675 19285.5 -1065.4 -1680.04)
(-1750.5 2355.62 -674.897 19858.6 -1128.53 -1680.02)
(-1995.37 443.652 -573.966 20103.6 -1183.04 -1680)
(-1904.55 -1481.82 -468.667 20012.8 -1228.54 -1680)
(-1480.77 -3362.26 -359.805 19589 -1264.72 -1680.01)
(-736.833 -5140.57 -248.202 18845.1 -1291.29 -1679.98)
(304.519 -6762.62 -134.712 17803.6 -1308.03 -1680)
(1611.77 -8179.21 -20.2094 16496.4 -1314.77 -1679.99)
(3145.16 -9347.31 94.4507 14963.1 -1311.51 -1679.97)
(4858.05 -10231.4 208.424 13250.1 -1298.33 -1679.99)
(6698.55 -10804.6 320.749 11409.8 -1275.18 -1679.96)
(8610.42 -11049.5 430.676 9497.76 -1242.4 -1680.01)
(10535.9 -10958.7 537.284 7572.33 -1200.1 -1680)
(12416.4 -10534.9 639.846 5691.8 -1148.7 -1680.02)
(14194.7 -9790.95 737.559 3913.56 -1088.59 -1679.99)
(15816.7 -8749.56 829.612 2291.48 -1020.15 -1680.01)
(17233.3 -7442.32 915.413 874.851 -943.984 -1680.02)
(18401.4 -5908.94 994.162 -293.225 -860.59 -1680.01)
(19285.5 -4196.02 1065.4 -1177.34 -770.675 -1680.04)
(19858.6 -2355.62 1128.53 -1750.5 -674.897 -1680.02)
(20103.6 -443.652 1183.04 -1995.37 -573.966 -1680)
(20012.8 1481.82 1228.54 -1904.55 -468.667 -1680)
(19589 3362.26 1264.72 -1480.77 -359.805 -1680.01)
(18845.1 5140.57 1291.29 -736.833 -248.202 -1679.98)
(17803.6 6762.62 1308.03 304.518 -134.712 -1680)
(16496.4 8179.21 1314.77 1611.76 -20.2094 -1679.99)
(14963.1 9347.31 1311.51 3145.16 94.4507 -1679.97)
(13250.1 10231.4 1298.33 4858.05 208.423 -1679.99)
(11409.8 10804.6 1275.18 6698.55 320.749 -1679.95)
(9497.76 11049.5 1242.39 8610.42 430.676 -1680.01)
(7572.33 10958.7 1200.1 10535.9 537.284 -1680)
(5691.8 10534.9 1148.7 12416.4 639.846 -1680.02)