/*--------------------------------*- C++ -*----------------------------------*\
| =========                 |                                                 |
| \\      /  F ield         | OpenFOAM: The Open Source CFD Toolbox           |
|  \\    /   O peration     | Version:  2312                                  |
|   \\  /    A nd           | Website:  www.openfoam.com                      |
|    \\/     M anipulation  |                                                 |
\*---------------------------------------------------------------------------*/
FoamFile
{
    version     2.0;
    format      ascii;
    arch        "LSB;label=32;scalar=64";
    class       volVectorField;
    location    "0.4";
    object      U;
}
// * * * * * * * * * * * * * * * * * * * * * * * * * * * * * * * * * * * * * //

dimensions      [0 1 -1 0 0 0 0];

internalField   nonuniform List<vector> 
3240
(
(-0.000565258 -0.000122463 -0.000118071)
(-0.000552433 -0.000171261 -0.00011807)
(-0.000535403 -0.000218759 -0.000118073)
(-0.000514298 -0.000264593 -0.000118075)
(-0.000489284 -0.000308412 -0.000118074)
(-0.000460543 -0.000349882 -0.000118072)
(-0.000428297 -0.000388687 -0.000118068)
(-0.000392791 -0.000424534 -0.000118067)
(-0.000354295 -0.00045715 -0.000118069)
(-0.000313103 -0.000486289 -0.000118072)
(-0.000269528 -0.000511727 -0.000118073)
(-0.000223902 -0.000533274 -0.000118075)
(-0.000176572 -0.000550762 -0.000118073)
(-0.000127899 -0.000564056 -0.000118071)
(-7.82534e-05 -0.000573052 -0.000118069)
(-2.80094e-05 -0.000577691 -0.000118071)
(2.24479e-05 -0.000577936 -0.000118074)
(7.27318e-05 -0.000573781 -0.000118072)
(0.000122464 -0.000565258 -0.000118071)
(0.000171262 -0.000552433 -0.00011807)
(0.000218759 -0.000535402 -0.000118073)
(0.000264593 -0.000514298 -0.000118075)
(0.000308412 -0.000489284 -0.000118074)
(0.000349882 -0.000460543 -0.000118072)
(0.000388687 -0.000428297 -0.000118068)
(0.000424534 -0.000392791 -0.000118067)
(0.00045715 -0.000354296 -0.000118069)
(0.000486289 -0.000313103 -0.000118072)
(0.000511728 -0.000269528 -0.000118073)
(0.000533274 -0.000223902 -0.000118075)
(0.000550762 -0.000176573 -0.000118073)
(0.000564056 -0.000127899 -0.000118071)
(0.000573052 -7.82535e-05 -0.000118069)
(0.000577691 -2.80094e-05 -0.000118071)
(0.000577936 2.24479e-05 -0.000118074)
(0.000573781 7.27318e-05 -0.000118072)
(0.000565258 0.000122464 -0.000118072)
(0.000552433 0.000171262 -0.00011807)
(0.000535403 0.000218759 -0.000118073)
(0.000514298 0.000264593 -0.000118075)
(0.000489284 0.000308412 -0.000118074)
(0.000460543 0.000349882 -0.000118072)
(0.000428297 0.000388687 -0.000118068)
(0.000392791 0.000424534 -0.000118068)
(0.000354296 0.000457151 -0.000118069)
(0.000313103 0.000486289 -0.000118072)
(0.000269528 0.000511728 -0.000118073)
(0.000223902 0.000533275 -0.000118075)
(0.000176573 0.000550762 -0.000118073)
(0.000127899 0.000564056 -0.000118071)
(7.82536e-05 0.000573052 -0.000118069)
(2.80095e-05 0.000577691 -0.000118071)
(-2.24478e-05 0.000577936 -0.000118074)
(-7.27317e-05 0.000573781 -0.000118072)
(-0.000122463 0.000565258 -0.000118072)
(-0.000171261 0.000552433 -0.00011807)
(-0.000218759 0.000535403 -0.000118073)
(-0.000264593 0.000514298 -0.000118075)
(-0.000308412 0.000489284 -0.000118074)
(-0.000349882 0.000460543 -0.000118072)
(-0.000388687 0.000428297 -0.000118068)
(-0.000424534 0.000392791 -0.000118067)
(-0.00045715 0.000354296 -0.000118069)
(-0.000486289 0.000313103 -0.000118072)
(-0.000511728 0.000269528 -0.000118073)
(-0.000533274 0.000223902 -0.000118075)
(-0.000550762 0.000176573 -0.000118073)
(-0.000564056 0.000127899 -0.000118071)
(-0.000573052 7.82536e-05 -0.000118068)
(-0.000577691 2.80095e-05 -0.000118071)
(-0.000577936 -2.24477e-05 -0.000118074)
(-0.000573781 -7.27317e-05 -0.000118072)
(-0.000504083 -0.000143394 -0.000144023)
(-0.000489667 -0.000186782 -0.000144022)
(-0.000471524 -0.000228749 -0.000144023)
(-0.000449793 -0.000268976 -0.000144023)
(-0.000424639 -0.000307155 -0.000144023)
(-0.000396253 -0.000342996 -0.000144023)
(-0.000364851 -0.000376226 -0.000144022)
(-0.000330673 -0.000406591 -0.000144021)
(-0.000293978 -0.000433862 -0.000144021)
(-0.000255046 -0.000457833 -0.000144023)
(-0.000214174 -0.00047832 -0.000144023)
(-0.00017167 -0.000495168 -0.000144022)
(-0.00012786 -0.000508248 -0.000144022)
(-8.30767e-05 -0.000517457 -0.000144022)
(-3.76611e-05 -0.000522727 -0.000144022)
(8.04108e-06 -0.00052402 -0.000144022)
(5.36828e-05 -0.000521325 -0.000144023)
(9.89147e-05 -0.000514662 -0.000144023)
(0.000143394 -0.000504083 -0.000144023)
(0.000186782 -0.000489667 -0.000144022)
(0.00022875 -0.000471524 -0.000144023)
(0.000268976 -0.000449793 -0.000144023)
(0.000307155 -0.000424639 -0.000144023)
(0.000342996 -0.000396253 -0.000144023)
(0.000376226 -0.000364851 -0.000144022)
(0.000406591 -0.000330673 -0.000144021)
(0.000433862 -0.000293978 -0.000144022)
(0.000457833 -0.000255046 -0.000144023)
(0.00047832 -0.000214174 -0.000144023)
(0.000495168 -0.00017167 -0.000144023)
(0.000508248 -0.00012786 -0.000144022)
(0.000517457 -8.30767e-05 -0.000144022)
(0.000522727 -3.76612e-05 -0.000144022)
(0.00052402 8.04108e-06 -0.000144022)
(0.000521325 5.36828e-05 -0.000144023)
(0.000514662 9.89148e-05 -0.000144023)
(0.000504083 0.000143394 -0.000144023)
(0.000489667 0.000186782 -0.000144022)
(0.000471524 0.00022875 -0.000144024)
(0.000449793 0.000268976 -0.000144023)
(0.000424639 0.000307155 -0.000144023)
(0.000396253 0.000342996 -0.000144023)
(0.000364851 0.000376226 -0.000144022)
(0.000330673 0.000406591 -0.000144021)
(0.000293978 0.000433862 -0.000144022)
(0.000255047 0.000457833 -0.000144023)
(0.000214174 0.000478321 -0.000144023)
(0.000171671 0.000495168 -0.000144023)
(0.00012786 0.000508248 -0.000144022)
(8.30768e-05 0.000517457 -0.000144022)
(3.76612e-05 0.000522727 -0.000144022)
(-8.04102e-06 0.00052402 -0.000144022)
(-5.36828e-05 0.000521325 -0.000144023)
(-9.89147e-05 0.000514662 -0.000144023)
(-0.000143394 0.000504083 -0.000144023)
(-0.000186782 0.000489667 -0.000144022)
(-0.00022875 0.000471524 -0.000144023)
(-0.000268976 0.000449793 -0.000144023)
(-0.000307155 0.000424639 -0.000144023)
(-0.000342996 0.000396253 -0.000144023)
(-0.000376226 0.000364851 -0.000144022)
(-0.000406591 0.000330673 -0.000144021)
(-0.000433862 0.000293978 -0.000144022)
(-0.000457833 0.000255047 -0.000144023)
(-0.00047832 0.000214174 -0.000144023)
(-0.000495168 0.000171671 -0.000144023)
(-0.000508248 0.00012786 -0.000144022)
(-0.000517457 8.30768e-05 -0.000144022)
(-0.000522727 3.76612e-05 -0.000144022)
(-0.00052402 -8.04099e-06 -0.000144022)
(-0.000521325 -5.36827e-05 -0.000144023)
(-0.000514662 -9.89147e-05 -0.000144023)
(-0.000427406 5.09167e-05 -0.00012901)
(-0.000430217 1.34728e-05 -0.00012901)
(-0.000429754 -2.40756e-05 -0.000129009)
(-0.00042602 -6.14402e-05 -0.000129009)
(-0.000419046 -9.83367e-05 -0.00012901)
(-0.000408879 -0.000134483 -0.00012901)
(-0.000395601 -0.000169608 -0.00012901)
(-0.000379314 -0.000203441 -0.000129011)
(-0.000360141 -0.000235725 -0.000129011)
(-0.000338227 -0.000266217 -0.000129011)
(-0.000313738 -0.000294683 -0.00012901)
(-0.000286862 -0.000320906 -0.000129009)
(-0.0002578 -0.000344688 -0.000129008)
(-0.000226778 -0.000365846 -0.000129009)
(-0.000194029 -0.000384217 -0.00012901)
(-0.000159804 -0.000399665 -0.00012901)
(-0.000124362 -0.000412071 -0.00012901)
(-8.79745e-05 -0.000421342 -0.00012901)
(-5.09167e-05 -0.000427406 -0.00012901)
(-1.34727e-05 -0.000430217 -0.00012901)
(2.40756e-05 -0.000429754 -0.000129009)
(6.14402e-05 -0.00042602 -0.000129009)
(9.83367e-05 -0.000419046 -0.00012901)
(0.000134483 -0.000408879 -0.000129011)
(0.000169608 -0.000395601 -0.000129011)
(0.000203441 -0.000379314 -0.000129011)
(0.000235725 -0.000360141 -0.000129011)
(0.000266217 -0.000338227 -0.000129011)
(0.000294683 -0.000313738 -0.00012901)
(0.000320906 -0.000286862 -0.000129009)
(0.000344688 -0.0002578 -0.000129008)
(0.000365846 -0.000226778 -0.000129009)
(0.000384217 -0.000194029 -0.00012901)
(0.000399665 -0.000159804 -0.00012901)
(0.000412071 -0.000124362 -0.00012901)
(0.000421342 -8.79745e-05 -0.00012901)
(0.000427406 -5.09166e-05 -0.00012901)
(0.000430217 -1.34727e-05 -0.00012901)
(0.000429754 2.40756e-05 -0.000129009)
(0.00042602 6.14402e-05 -0.000129009)
(0.000419046 9.83367e-05 -0.00012901)
(0.000408879 0.000134483 -0.000129011)
(0.000395601 0.000169608 -0.000129011)
(0.000379314 0.000203441 -0.000129011)
(0.000360141 0.000235725 -0.000129011)
(0.000338227 0.000266217 -0.000129011)
(0.000313738 0.000294683 -0.00012901)
(0.000286862 0.000320906 -0.000129009)
(0.0002578 0.000344688 -0.000129008)
(0.000226778 0.000365846 -0.000129009)
(0.000194029 0.000384217 -0.00012901)
(0.000159804 0.000399665 -0.00012901)
(0.000124362 0.000412071 -0.00012901)
(8.79745e-05 0.000421342 -0.00012901)
(5.09166e-05 0.000427406 -0.00012901)
(1.34727e-05 0.000430217 -0.00012901)
(-2.40756e-05 0.000429754 -0.000129009)
(-6.14402e-05 0.00042602 -0.000129009)
(-9.83367e-05 0.000419046 -0.00012901)
(-0.000134483 0.000408879 -0.000129011)
(-0.000169608 0.000395601 -0.000129011)
(-0.00020344 0.000379314 -0.000129011)
(-0.000235725 0.000360141 -0.000129011)
(-0.000266217 0.000338227 -0.000129011)
(-0.000294683 0.000313738 -0.00012901)
(-0.000320906 0.000286862 -0.000129009)
(-0.000344688 0.0002578 -0.000129008)
(-0.000365846 0.000226778 -0.000129009)
(-0.000384217 0.000194029 -0.00012901)
(-0.000399665 0.000159805 -0.00012901)
(-0.000412071 0.000124362 -0.00012901)
(-0.000421342 8.79746e-05 -0.000129009)
(-0.00137831 -0.000408166 -0.000390976)
(-0.00133749 -0.00052674 -0.000390974)
(-0.00128649 -0.000641308 -0.00039098)
(-0.0012257 -0.000750996 -0.000390982)
(-0.00115559 -0.000854968 -0.000390982)
(-0.00107668 -0.000952431 -0.000390978)
(-0.00098957 -0.00104264 -0.000390971)
(-0.000894935 -0.00112492 -0.000390966)
(-0.000793488 -0.00119863 -0.000390965)
(-0.000686001 -0.00126322 -0.000390968)
(-0.00057329 -0.00131821 -0.000390974)
(-0.000456216 -0.00136316 -0.000390979)
(-0.000335673 -0.00139774 -0.000390978)
(-0.000212576 -0.00142168 -0.000390975)
(-8.7862e-05 -0.00143479 -0.000390973)
(3.75234e-05 -0.00143698 -0.000390973)
(0.000162625 -0.00142825 -0.000390979)
(0.000286486 -0.00140864 -0.000390978)
(0.000408166 -0.00137831 -0.000390976)
(0.00052674 -0.00133749 -0.000390974)
(0.000641308 -0.00128649 -0.00039098)
(0.000750997 -0.0012257 -0.000390982)
(0.000854969 -0.00115559 -0.000390982)
(0.000952431 -0.00107668 -0.000390978)
(0.00104264 -0.00098957 -0.000390971)
(0.00112492 -0.000894935 -0.000390967)
(0.00119863 -0.000793488 -0.000390965)
(0.00126322 -0.000686001 -0.000390968)
(0.00131821 -0.00057329 -0.000390974)
(0.00136316 -0.000456217 -0.000390979)
(0.00139774 -0.000335673 -0.000390978)
(0.00142168 -0.000212577 -0.000390975)
(0.00143479 -8.7862e-05 -0.000390973)
(0.00143698 3.75234e-05 -0.000390973)
(0.00142825 0.000162625 -0.000390979)
(0.00140864 0.000286486 -0.000390979)
(0.00137831 0.000408166 -0.000390976)
(0.00133749 0.000526741 -0.000390975)
(0.00128649 0.000641308 -0.00039098)
(0.0012257 0.000750997 -0.000390982)
(0.00115559 0.000854969 -0.000390983)
(0.00107668 0.000952431 -0.000390978)
(0.000989571 0.00104264 -0.000390971)
(0.000894936 0.00112492 -0.000390967)
(0.000793488 0.00119863 -0.000390965)
(0.000686001 0.00126322 -0.000390968)
(0.00057329 0.00131821 -0.000390975)
(0.000456217 0.00136316 -0.000390979)
(0.000335673 0.00139774 -0.000390978)
(0.000212577 0.00142168 -0.000390975)
(8.78623e-05 0.00143479 -0.000390973)
(-3.75232e-05 0.00143699 -0.000390973)
(-0.000162625 0.00142825 -0.000390979)
(-0.000286486 0.00140864 -0.000390978)
(-0.000408166 0.00137831 -0.000390976)
(-0.00052674 0.00133749 -0.000390974)
(-0.000641308 0.00128649 -0.00039098)
(-0.000750997 0.0012257 -0.000390982)
(-0.000854968 0.00115559 -0.000390982)
(-0.000952431 0.00107668 -0.000390978)
(-0.00104264 0.000989571 -0.000390971)
(-0.00112492 0.000894936 -0.000390967)
(-0.00119863 0.000793488 -0.000390965)
(-0.00126322 0.000686001 -0.000390968)
(-0.00131821 0.00057329 -0.000390974)
(-0.00136316 0.000456217 -0.000390979)
(-0.00139774 0.000335673 -0.000390978)
(-0.00142168 0.000212577 -0.000390975)
(-0.00143479 8.78623e-05 -0.000390973)
(-0.00143698 -3.75231e-05 -0.000390973)
(-0.00142825 -0.000162625 -0.000390979)
(-0.00140864 -0.000286486 -0.000390978)
(-0.00139728 -0.000235201 -0.000323701)
(-0.00137146 -0.000356087 -0.0003237)
(-0.00133521 -0.000474264 -0.000323701)
(-0.00128879 -0.000588833 -0.000323702)
(-0.00123257 -0.000698918 -0.000323701)
(-0.00116696 -0.000803684 -0.0003237)
(-0.00109248 -0.000902331 -0.000323698)
(-0.00100968 -0.000994111 -0.000323697)
(-0.000919194 -0.00107832 -0.000323696)
(-0.000821716 -0.00115433 -0.000323695)
(-0.000717983 -0.00122156 -0.000323696)
(-0.000608785 -0.00127949 -0.000323698)
(-0.000494951 -0.00132768 -0.000323698)
(-0.000377353 -0.00136577 -0.000323698)
(-0.000256882 -0.00139346 -0.000323698)
(-0.000134456 -0.00141054 -0.000323698)
(-1.10069e-05 -0.00141689 -0.0003237)
(0.000112526 -0.00141246 -0.0003237)
(0.000235202 -0.00139728 -0.000323701)
(0.000356087 -0.00137146 -0.0003237)
(0.000474264 -0.00133521 -0.000323702)
(0.000588833 -0.00128879 -0.000323702)
(0.000698919 -0.00123257 -0.000323702)
(0.000803684 -0.00116696 -0.000323701)
(0.000902331 -0.00109248 -0.000323699)
(0.000994111 -0.00100968 -0.000323697)
(0.00107832 -0.000919194 -0.000323696)
(0.00115433 -0.000821716 -0.000323696)
(0.00122156 -0.000717983 -0.000323697)
(0.00127949 -0.000608785 -0.000323698)
(0.00132768 -0.000494951 -0.000323699)
(0.00136577 -0.000377353 -0.000323699)
(0.00139346 -0.000256882 -0.000323699)
(0.00141054 -0.000134456 -0.000323699)
(0.00141689 -1.10068e-05 -0.0003237)
(0.00141246 0.000112526 -0.0003237)
(0.00139728 0.000235202 -0.000323701)
(0.00137146 0.000356087 -0.0003237)
(0.00133521 0.000474264 -0.000323702)
(0.00128879 0.000588833 -0.000323702)
(0.00123257 0.000698919 -0.000323702)
(0.00116696 0.000803684 -0.000323701)
(0.00109248 0.000902331 -0.000323699)
(0.00100968 0.000994111 -0.000323698)
(0.000919194 0.00107832 -0.000323697)
(0.000821716 0.00115433 -0.000323696)
(0.000717983 0.00122156 -0.000323697)
(0.000608785 0.00127949 -0.000323698)
(0.000494951 0.00132768 -0.000323699)
(0.000377353 0.00136577 -0.000323699)
(0.000256882 0.00139346 -0.000323699)
(0.000134456 0.00141054 -0.000323699)
(1.1007e-05 0.00141689 -0.0003237)
(-0.000112526 0.00141246 -0.0003237)
(-0.000235201 0.00139728 -0.000323701)
(-0.000356087 0.00137146 -0.0003237)
(-0.000474264 0.00133521 -0.000323702)
(-0.000588833 0.00128879 -0.000323702)
(-0.000698919 0.00123257 -0.000323702)
(-0.000803684 0.00116696 -0.000323701)
(-0.000902331 0.00109248 -0.000323699)
(-0.000994111 0.00100968 -0.000323697)
(-0.00107832 0.000919194 -0.000323696)
(-0.00115433 0.000821716 -0.000323696)
(-0.00122156 0.000717983 -0.000323696)
(-0.00127949 0.000608785 -0.000323698)
(-0.00132768 0.000494951 -0.000323698)
(-0.00136577 0.000377353 -0.000323698)
(-0.00139346 0.000256882 -0.000323698)
(-0.00141054 0.000134456 -0.000323698)
(-0.00141689 1.10071e-05 -0.0003237)
(-0.00141246 -0.000112526 -0.0003237)
(-0.00143591 0.000187393 -0.000207658)
(-0.00144678 6.15323e-05 -0.000207657)
(-0.00144664 -6.4798e-05 -0.000207657)
(-0.00143549 -0.000190637 -0.000207657)
(-0.00141341 -0.000315023 -0.000207657)
(-0.00138057 -0.00043701 -0.000207658)
(-0.00133723 -0.000555671 -0.000207659)
(-0.00128371 -0.000670101 -0.00020766)
(-0.00122043 -0.000779433 -0.000207659)
(-0.00114785 -0.000882836 -0.000207657)
(-0.00106654 -0.00097952 -0.000207655)
(-0.000977115 -0.00106875 -0.000207654)
(-0.000880248 -0.00114985 -0.000207654)
(-0.000776682 -0.00122219 -0.000207656)
(-0.000667205 -0.00128523 -0.000207657)
(-0.000552651 -0.00133848 -0.000207657)
(-0.00043389 -0.00138156 -0.000207657)
(-0.000311827 -0.00141412 -0.000207656)
(-0.000187392 -0.00143591 -0.000207658)
(-6.15321e-05 -0.00144678 -0.000207658)
(6.47982e-05 -0.00144664 -0.000207657)
(0.000190637 -0.00143549 -0.000207657)
(0.000315024 -0.00141341 -0.000207657)
(0.00043701 -0.00138057 -0.000207658)
(0.000555671 -0.00133723 -0.000207659)
(0.000670102 -0.00128371 -0.00020766)
(0.000779433 -0.00122043 -0.00020766)
(0.000882836 -0.00114785 -0.000207657)
(0.00097952 -0.00106654 -0.000207655)
(0.00106875 -0.000977115 -0.000207655)
(0.00114985 -0.000880248 -0.000207655)
(0.00122219 -0.000776682 -0.000207656)
(0.00128523 -0.000667205 -0.000207657)
(0.00133848 -0.000552651 -0.000207657)
(0.00138156 -0.00043389 -0.000207657)
(0.00141412 -0.000311827 -0.000207656)
(0.00143591 -0.000187392 -0.000207658)
(0.00144678 -6.1532e-05 -0.000207658)
(0.00144664 6.47983e-05 -0.000207657)
(0.00143549 0.000190637 -0.000207657)
(0.00141341 0.000315024 -0.000207657)
(0.00138057 0.00043701 -0.000207658)
(0.00133723 0.000555671 -0.000207659)
(0.00128371 0.000670102 -0.00020766)
(0.00122043 0.000779434 -0.00020766)
(0.00114785 0.000882836 -0.000207657)
(0.00106654 0.00097952 -0.000207655)
(0.000977115 0.00106875 -0.000207655)
(0.000880248 0.00114985 -0.000207655)
(0.000776682 0.00122219 -0.000207656)
(0.000667205 0.00128523 -0.000207657)
(0.000552652 0.00133848 -0.000207657)
(0.000433891 0.00138156 -0.000207657)
(0.000311827 0.00141412 -0.000207656)
(0.000187392 0.00143591 -0.000207658)
(6.15322e-05 0.00144678 -0.000207658)
(-6.47982e-05 0.00144664 -0.000207657)
(-0.000190637 0.00143549 -0.000207657)
(-0.000315024 0.00141341 -0.000207657)
(-0.00043701 0.00138057 -0.000207658)
(-0.000555671 0.00133723 -0.000207659)
(-0.000670101 0.00128371 -0.00020766)
(-0.000779433 0.00122043 -0.00020766)
(-0.000882836 0.00114785 -0.000207657)
(-0.00097952 0.00106654 -0.000207655)
(-0.00106875 0.000977115 -0.000207655)
(-0.00114985 0.000880248 -0.000207655)
(-0.00122219 0.000776682 -0.000207656)
(-0.00128523 0.000667205 -0.000207657)
(-0.00133848 0.000552652 -0.000207657)
(-0.00138156 0.000433891 -0.000207657)
(-0.00141412 0.000311828 -0.000207656)
(-0.0018406 -0.000529646 -0.000629886)
(-0.00178743 -0.00068805 -0.000629885)
(-0.00172066 -0.000841217 -0.000629887)
(-0.0016408 -0.000987982 -0.000629887)
(-0.00154844 -0.00112723 -0.000629888)
(-0.00144431 -0.0012579 -0.000629884)
(-0.00132918 -0.00137899 -0.000629878)
(-0.00120394 -0.00148959 -0.000629877)
(-0.00106953 -0.00158885 -0.000629876)
(-0.000926989 -0.00167602 -0.000629876)
(-0.000777386 -0.00175043 -0.000629876)
(-0.000621865 -0.00181152 -0.00062988)
(-0.000461614 -0.00185883 -0.00062988)
(-0.00029785 -0.00189199 -0.00062988)
(-0.00013182 -0.00191075 -0.00062988)
(3.52156e-05 -0.00191496 -0.000629879)
(0.000201984 -0.00190461 -0.000629884)
(0.000367213 -0.00187976 -0.000629886)
(0.000529647 -0.0018406 -0.000629886)
(0.00068805 -0.00178743 -0.000629886)
(0.000841218 -0.00172066 -0.000629888)
(0.000987983 -0.0016408 -0.000629887)
(0.00112723 -0.00154844 -0.000629888)
(0.0012579 -0.00144431 -0.000629884)
(0.00137899 -0.00132918 -0.000629878)
(0.00148959 -0.00120394 -0.000629878)
(0.00158885 -0.00106953 -0.000629876)
(0.00167602 -0.000926989 -0.000629877)
(0.00175043 -0.000777386 -0.000629876)
(0.00181152 -0.000621866 -0.00062988)
(0.00185883 -0.000461614 -0.00062988)
(0.00189199 -0.000297851 -0.00062988)
(0.00191075 -0.000131819 -0.00062988)
(0.00191496 3.52158e-05 -0.000629879)
(0.00190461 0.000201984 -0.000629884)
(0.00187976 0.000367213 -0.000629887)
(0.0018406 0.000529647 -0.000629886)
(0.00178743 0.000688051 -0.000629886)
(0.00172066 0.000841218 -0.000629888)
(0.0016408 0.000987983 -0.000629888)
(0.00154845 0.00112723 -0.000629889)
(0.00144431 0.0012579 -0.000629885)
(0.00132918 0.00137899 -0.000629878)
(0.00120394 0.00148959 -0.000629878)
(0.00106953 0.00158885 -0.000629876)
(0.000926989 0.00167602 -0.000629877)
(0.000777386 0.00175043 -0.000629877)
(0.000621866 0.00181152 -0.00062988)
(0.000461614 0.00185883 -0.00062988)
(0.000297851 0.00189199 -0.00062988)
(0.00013182 0.00191075 -0.00062988)
(-3.52154e-05 0.00191496 -0.000629879)
(-0.000201984 0.00190461 -0.000629884)
(-0.000367213 0.00187976 -0.000629887)
(-0.000529646 0.0018406 -0.000629886)
(-0.00068805 0.00178743 -0.000629886)
(-0.000841217 0.00172066 -0.000629888)
(-0.000987983 0.0016408 -0.000629887)
(-0.00112723 0.00154845 -0.000629889)
(-0.0012579 0.00144431 -0.000629884)
(-0.00137899 0.00132918 -0.000629878)
(-0.00148959 0.00120394 -0.000629878)
(-0.00158885 0.00106953 -0.000629876)
(-0.00167602 0.000926989 -0.000629877)
(-0.00175043 0.000777386 -0.000629876)
(-0.00181152 0.000621866 -0.00062988)
(-0.00185883 0.000461614 -0.00062988)
(-0.00189199 0.000297851 -0.00062988)
(-0.00191075 0.00013182 -0.00062988)
(-0.00191496 -3.52153e-05 -0.000629879)
(-0.00190461 -0.000201984 -0.000629884)
(-0.00187976 -0.000367213 -0.000629886)
(-0.00199192 -0.00013701 -0.000471864)
(-0.00197239 -0.000310095 -0.000471864)
(-0.00193786 -0.000480821 -0.000471865)
(-0.00188858 -0.000647887 -0.000471866)
(-0.00182493 -0.000810023 -0.000471865)
(-0.00174738 -0.000965994 -0.000471864)
(-0.00165654 -0.00111461 -0.000471862)
(-0.00155309 -0.00125475 -0.000471861)
(-0.00143783 -0.00138533 -0.000471861)
(-0.00131162 -0.00150537 -0.00047186)
(-0.00117543 -0.00161396 -0.00047186)
(-0.00103029 -0.00171027 -0.000471861)
(-0.000877305 -0.00179355 -0.000471861)
(-0.000717649 -0.00186319 -0.00047186)
(-0.00055253 -0.00191865 -0.000471861)
(-0.000383205 -0.0019595 -0.000471862)
(-0.000210965 -0.00198545 -0.000471863)
(-3.71187e-05 -0.00199628 -0.000471863)
(0.00013701 -0.00199192 -0.000471864)
(0.000310096 -0.00197239 -0.000471864)
(0.000480821 -0.00193786 -0.000471866)
(0.000647887 -0.00188858 -0.000471866)
(0.000810023 -0.00182493 -0.000471866)
(0.000965994 -0.00174738 -0.000471865)
(0.00111461 -0.00165654 -0.000471862)
(0.00125475 -0.00155309 -0.000471862)
(0.00138533 -0.00143783 -0.000471861)
(0.00150538 -0.00131162 -0.00047186)
(0.00161396 -0.00117543 -0.000471861)
(0.00171027 -0.00103029 -0.000471862)
(0.00179355 -0.000877305 -0.000471862)
(0.00186319 -0.000717649 -0.000471861)
(0.00191865 -0.00055253 -0.000471861)
(0.0019595 -0.000383205 -0.000471862)
(0.00198545 -0.000210964 -0.000471863)
(0.00199628 -3.71185e-05 -0.000471863)
(0.00199192 0.00013701 -0.000471865)
(0.00197239 0.000310096 -0.000471865)
(0.00193786 0.000480821 -0.000471866)
(0.00188858 0.000647888 -0.000471866)
(0.00182493 0.000810023 -0.000471866)
(0.00174738 0.000965994 -0.000471865)
(0.00165654 0.00111461 -0.000471863)
(0.00155309 0.00125475 -0.000471862)
(0.00143783 0.00138533 -0.000471861)
(0.00131162 0.00150538 -0.000471861)
(0.00117543 0.00161396 -0.000471861)
(0.00103029 0.00171027 -0.000471862)
(0.000877305 0.00179355 -0.000471862)
(0.00071765 0.00186319 -0.000471861)
(0.00055253 0.00191865 -0.000471861)
(0.000383205 0.0019595 -0.000471862)
(0.000210965 0.00198545 -0.000471863)
(3.71189e-05 0.00199628 -0.000471863)
(-0.00013701 0.00199192 -0.000471864)
(-0.000310095 0.00197239 -0.000471865)
(-0.000480821 0.00193786 -0.000471866)
(-0.000647887 0.00188858 -0.000471866)
(-0.000810023 0.00182493 -0.000471866)
(-0.000965994 0.00174738 -0.000471865)
(-0.00111461 0.00165654 -0.000471862)
(-0.00125475 0.00155309 -0.000471862)
(-0.00138533 0.00143783 -0.000471861)
(-0.00150537 0.00131162 -0.00047186)
(-0.00161396 0.00117543 -0.000471861)
(-0.00171027 0.00103029 -0.000471861)
(-0.00179355 0.000877305 -0.000471861)
(-0.00186319 0.00071765 -0.00047186)
(-0.00191865 0.00055253 -0.000471861)
(-0.0019595 0.000383205 -0.000471862)
(-0.00198545 0.000210965 -0.000471863)
(-0.00199628 3.71191e-05 -0.000471863)
(-0.0021978 0.000364861 -0.000333006)
(-0.00222124 0.000171922 -0.000333007)
(-0.00222777 -2.23254e-05 -0.000333007)
(-0.00221734 -0.000216404 -0.000333008)
(-0.00219004 -0.000408836 -0.000333008)
(-0.00214608 -0.000598154 -0.000333008)
(-0.00208578 -0.00078292 -0.000333008)
(-0.00200961 -0.000961728 -0.000333008)
(-0.00191814 -0.00113322 -0.000333009)
(-0.00181208 -0.00129608 -0.000333007)
(-0.00169222 -0.00144908 -0.000333007)
(-0.00155949 -0.00159106 -0.000333006)
(-0.00141488 -0.00172092 -0.000333006)
(-0.00125951 -0.00183769 -0.000333006)
(-0.00109455 -0.00194047 -0.000333007)
(-0.000921264 -0.00202848 -0.000333006)
(-0.000740964 -0.00210105 -0.000333006)
(-0.000555024 -0.00215764 -0.000333006)
(-0.000364861 -0.0021978 -0.000333007)
(-0.000171922 -0.00222124 -0.000333007)
(2.23257e-05 -0.00222777 -0.000333007)
(0.000216404 -0.00221734 -0.000333008)
(0.000408836 -0.00219004 -0.000333008)
(0.000598154 -0.00214608 -0.000333008)
(0.00078292 -0.00208578 -0.000333009)
(0.000961728 -0.00200961 -0.000333009)
(0.00113322 -0.00191814 -0.000333009)
(0.00129608 -0.00181208 -0.000333007)
(0.00144908 -0.00169222 -0.000333007)
(0.00159106 -0.00155949 -0.000333007)
(0.00172092 -0.00141488 -0.000333007)
(0.00183769 -0.00125951 -0.000333007)
(0.00194047 -0.00109455 -0.000333007)
(0.00202848 -0.000921264 -0.000333007)
(0.00210105 -0.000740963 -0.000333006)
(0.00215764 -0.000555024 -0.000333006)
(0.0021978 -0.000364861 -0.000333007)
(0.00222124 -0.000171922 -0.000333007)
(0.00222777 2.23259e-05 -0.000333008)
(0.00221734 0.000216405 -0.000333008)
(0.00219004 0.000408836 -0.000333009)
(0.00214608 0.000598154 -0.000333008)
(0.00208578 0.00078292 -0.000333009)
(0.00200961 0.000961728 -0.000333009)
(0.00191814 0.00113322 -0.000333009)
(0.00181208 0.00129608 -0.000333008)
(0.00169222 0.00144908 -0.000333007)
(0.00155949 0.00159106 -0.000333007)
(0.00141488 0.00172092 -0.000333007)
(0.00125951 0.00183769 -0.000333007)
(0.00109455 0.00194047 -0.000333007)
(0.000921264 0.00202848 -0.000333007)
(0.000740964 0.00210106 -0.000333006)
(0.000555024 0.00215764 -0.000333006)
(0.000364861 0.0021978 -0.000333007)
(0.000171922 0.00222124 -0.000333007)
(-2.23256e-05 0.00222777 -0.000333007)
(-0.000216404 0.00221734 -0.000333008)
(-0.000408836 0.00219004 -0.000333008)
(-0.000598154 0.00214608 -0.000333008)
(-0.00078292 0.00208578 -0.000333009)
(-0.000961728 0.00200961 -0.000333009)
(-0.00113322 0.00191814 -0.000333009)
(-0.00129608 0.00181208 -0.000333007)
(-0.00144908 0.00169222 -0.000333007)
(-0.00159106 0.00155949 -0.000333006)
(-0.00172092 0.00141488 -0.000333006)
(-0.00183769 0.00125951 -0.000333006)
(-0.00194047 0.00109455 -0.000333006)
(-0.00202848 0.000921265 -0.000333006)
(-0.00210105 0.000740964 -0.000333006)
(-0.00215764 0.000555025 -0.000333006)
(-0.00189785 -0.000360085 -0.000830173)
(-0.00185924 -0.000524123 -0.000830175)
(-0.00180649 -0.000684173 -0.000830178)
(-0.00173998 -0.000839015 -0.000830178)
(-0.00166024 -0.000987473 -0.000830177)
(-0.00156786 -0.00112842 -0.000830176)
(-0.00146354 -0.00126077 -0.000830171)
(-0.00134809 -0.00138353 -0.00083017)
(-0.00122238 -0.00149576 -0.00083017)
(-0.00108736 -0.0015966 -0.000830174)
(-0.000944074 -0.0016853 -0.000830172)
(-0.000793599 -0.00176117 -0.000830172)
(-0.000637082 -0.00182363 -0.00083017)
(-0.000475718 -0.00187222 -0.00083017)
(-0.000310734 -0.00190655 -0.00083017)
(-0.000143384 -0.00192638 -0.00083017)
(2.50576e-05 -0.00193155 -0.000830172)
(0.000193307 -0.00192201 -0.000830173)
(0.000360086 -0.00189785 -0.000830173)
(0.000524124 -0.00185924 -0.000830175)
(0.000684173 -0.00180649 -0.000830179)
(0.000839016 -0.00173998 -0.000830178)
(0.000987474 -0.00166024 -0.000830177)
(0.00112842 -0.00156785 -0.000830176)
(0.00126077 -0.00146354 -0.000830171)
(0.00138353 -0.00134809 -0.00083017)
(0.00149576 -0.00122238 -0.00083017)
(0.0015966 -0.00108736 -0.000830174)
(0.0016853 -0.000944073 -0.000830173)
(0.00176117 -0.000793599 -0.000830172)
(0.00182363 -0.000637082 -0.000830171)
(0.00187222 -0.000475718 -0.000830171)
(0.00190655 -0.000310734 -0.000830171)
(0.00192638 -0.000143384 -0.000830171)
(0.00193155 2.50577e-05 -0.000830173)
(0.00192201 0.000193307 -0.000830174)
(0.00189785 0.000360086 -0.000830173)
(0.00185925 0.000524124 -0.000830176)
(0.00180649 0.000684173 -0.000830179)
(0.00173998 0.000839016 -0.000830179)
(0.00166024 0.000987474 -0.000830178)
(0.00156786 0.00112842 -0.000830177)
(0.00146354 0.00126077 -0.000830172)
(0.00134809 0.00138353 -0.000830171)
(0.00122238 0.00149576 -0.000830171)
(0.00108736 0.0015966 -0.000830175)
(0.000944074 0.0016853 -0.000830173)
(0.000793599 0.00176117 -0.000830172)
(0.000637082 0.00182363 -0.000830171)
(0.000475718 0.00187222 -0.000830171)
(0.000310734 0.00190655 -0.000830171)
(0.000143384 0.00192638 -0.00083017)
(-2.50572e-05 0.00193155 -0.000830173)
(-0.000193307 0.00192201 -0.000830174)
(-0.000360085 0.00189785 -0.000830173)
(-0.000524123 0.00185925 -0.000830175)
(-0.000684173 0.00180649 -0.000830179)
(-0.000839015 0.00173999 -0.000830178)
(-0.000987473 0.00166024 -0.000830177)
(-0.00112842 0.00156786 -0.000830176)
(-0.00126077 0.00146354 -0.000830172)
(-0.00138353 0.00134809 -0.00083017)
(-0.00149576 0.00122238 -0.00083017)
(-0.0015966 0.00108736 -0.000830174)
(-0.0016853 0.000944074 -0.000830172)
(-0.00176117 0.000793599 -0.000830172)
(-0.00182363 0.000637083 -0.00083017)
(-0.00187222 0.000475718 -0.00083017)
(-0.00190655 0.000310734 -0.00083017)
(-0.00192638 0.000143384 -0.00083017)
(-0.00193155 -2.50571e-05 -0.000830172)
(-0.00192201 -0.000193307 -0.000830173)
(-0.00215891 0.000127499 -0.000660838)
(-0.00216181 -6.11482e-05 -0.000660839)
(-0.00214825 -0.000249329 -0.000660841)
(-0.00211834 -0.000435613 -0.000660842)
(-0.00207232 -0.000618582 -0.000660842)
(-0.00201052 -0.000796842 -0.00066084)
(-0.00193342 -0.000969039 -0.000660838)
(-0.0018416 -0.00113386 -0.000660837)
(-0.00173577 -0.00129005 -0.000660836)
(-0.00161673 -0.00143642 -0.000660838)
(-0.00148539 -0.00157187 -0.000660838)
(-0.00134274 -0.00169535 -0.000660838)
(-0.00118987 -0.00180592 -0.000660837)
(-0.00102795 -0.00190275 -0.000660837)
(-0.0008582 -0.0019851 -0.000660837)
(-0.000681921 -0.00205235 -0.000660838)
(-0.000500452 -0.00210397 -0.000660838)
(-0.000315175 -0.00213958 -0.000660838)
(-0.000127498 -0.00215891 -0.000660838)
(6.11487e-05 -0.00216181 -0.00066084)
(0.000249329 -0.00214825 -0.000660841)
(0.000435613 -0.00211834 -0.000660842)
(0.000618582 -0.00207232 -0.000660842)
(0.000796843 -0.00201052 -0.00066084)
(0.00096904 -0.00193342 -0.000660838)
(0.00113386 -0.0018416 -0.000660837)
(0.00129005 -0.00173577 -0.000660837)
(0.00143642 -0.00161673 -0.000660838)