/*--------------------------------*- C++ -*----------------------------------*\
| =========                 |                                                 |
| \\      /  F ield         | OpenFOAM: The Open Source CFD Toolbox           |
|  \\    /   O peration     | Version:  2312                                  |
|   \\  /    A nd           | Website:  www.openfoam.com                      |
|    \\/     M anipulation  |                                                 |
\*---------------------------------------------------------------------------*/
FoamFile
{
    version     2.0;
    format      ascii;
    arch        "LSB;label=32;scalar=64";
    class       volVectorField;
    location    "0.8";
    object      D_0_0_0;
}
// * * * * * * * * * * * * * * * * * * * * * * * * * * * * * * * * * * * * * //

dimensions      [0 1 0 0 0 0 0];

internalField   nonuniform List<vector> 
1620
(
(0.000164526 -0.000286094 4.98282e-05)
(0.000211706 -0.000253178 4.98286e-05)
(0.000252454 -0.000212569 4.98287e-05)
(0.000285531 -0.000165502 4.98285e-05)
(0.000309932 -0.000113405 4.98286e-05)
(0.000324916 -5.78632e-05 4.98285e-05)
(0.000330027 -5.63204e-07 4.9828e-05)
(0.000325111 5.67537e-05 4.98278e-05)
(0.000310317 0.000112347 4.98281e-05)
(0.000286094 0.000164526 4.98282e-05)
(0.000253178 0.000211706 4.98286e-05)
(0.000212569 0.000252454 4.98287e-05)
(0.000165502 0.000285531 4.98285e-05)
(0.000113405 0.000309932 4.98286e-05)
(5.78632e-05 0.000324916 4.98285e-05)
(5.63204e-07 0.000330027 4.9828e-05)
(-5.67537e-05 0.000325111 4.98278e-05)
(-0.000112347 0.000310317 4.98281e-05)
(-0.000164526 0.000286094 4.98282e-05)
(-0.000211706 0.000253178 4.98286e-05)
(-0.000252454 0.000212569 4.98287e-05)
(-0.000285531 0.000165502 4.98285e-05)
(-0.000309932 0.000113405 4.98286e-05)
(-0.000324916 5.78632e-05 4.98285e-05)
(-0.000330027 5.63204e-07 4.9828e-05)
(-0.000325111 -5.67537e-05 4.98278e-05)
(-0.000310317 -0.000112347 4.98281e-05)
(-0.000286094 -0.000164526 4.98282e-05)
(-0.000253178 -0.000211706 4.98286e-05)
(-0.000212569 -0.000252454 4.98287e-05)
(-0.000165502 -0.000285531 4.98285e-05)
(-0.000113405 -0.000309932 4.98286e-05)
(-5.78632e-05 -0.000324916 4.98285e-05)
(-5.63204e-07 -0.000330027 4.9828e-05)
(5.67537e-05 -0.000325111 4.98278e-05)
(0.000112347 -0.000310317 4.98281e-05)
(0.000104527 -0.000330666 7.69759e-05)
(0.000160359 -0.000307491 7.69761e-05)
(0.000211318 -0.000274974 7.69762e-05)
(0.000255856 -0.000234101 7.69761e-05)
(0.000292621 -0.000186116 7.69763e-05)
(0.000320493 -0.000132475 7.69762e-05)
(0.000338628 -7.48093e-05 7.6976e-05)
(0.000346475 -1.4871e-05 7.69759e-05)
(0.000343793 4.55196e-05 7.69759e-05)
(0.000330666 0.000104527 7.69759e-05)
(0.000307491 0.000160359 7.69761e-05)
(0.000274974 0.000211318 7.69762e-05)
(0.000234101 0.000255856 7.69761e-05)
(0.000186116 0.000292621 7.69763e-05)
(0.000132475 0.000320493 7.69762e-05)
(7.48093e-05 0.000338628 7.6976e-05)
(1.4871e-05 0.000346475 7.69759e-05)
(-4.55196e-05 0.000343793 7.69759e-05)
(-0.000104527 0.000330666 7.69759e-05)
(-0.000160359 0.000307491 7.69761e-05)
(-0.000211318 0.000274974 7.69762e-05)
(-0.000255856 0.000234101 7.69761e-05)
(-0.000292621 0.000186116 7.69763e-05)
(-0.000320493 0.000132475 7.69762e-05)
(-0.000338628 7.48093e-05 7.6976e-05)
(-0.000346475 1.4871e-05 7.69759e-05)
(-0.000343793 -4.55196e-05 7.69759e-05)
(-0.000330666 -0.000104527 7.69759e-05)
(-0.000307491 -0.000160359 7.69761e-05)
(-0.000274974 -0.000211318 7.69762e-05)
(-0.000234101 -0.000255856 7.69761e-05)
(-0.000186116 -0.000292621 7.69763e-05)
(-0.000132475 -0.000320493 7.69762e-05)
(-7.48093e-05 -0.000338628 7.6976e-05)
(-1.4871e-05 -0.000346475 7.69759e-05)
(4.55196e-05 -0.000343793 7.69759e-05)
(7.63206e-06 -0.000372882 9.13997e-05)
(7.22663e-05 -0.000365892 9.13996e-05)
(0.000134705 -0.000347784 9.13999e-05)
(0.00019305 -0.000319109 9.13999e-05)
(0.000245531 -0.000280738 9.14e-05)
(0.00029055 -0.000233837 9.13998e-05)
(0.000326742 -0.000179831 9.13998e-05)
(0.000353005 -0.000120361 9.14e-05)
(0.000368542 -5.7234e-05 9.13997e-05)
(0.000372882 7.63206e-06 9.13997e-05)
(0.000365892 7.22663e-05 9.13996e-05)
(0.000347784 0.000134705 9.13999e-05)
(0.000319109 0.00019305 9.13999e-05)
(0.000280738 0.000245531 9.14e-05)
(0.000233837 0.00029055 9.13998e-05)
(0.000179831 0.000326742 9.13998e-05)
(0.000120361 0.000353005 9.14e-05)
(5.7234e-05 0.000368542 9.13997e-05)
(-7.63206e-06 0.000372882 9.13997e-05)
(-7.22663e-05 0.000365892 9.13996e-05)
(-0.000134705 0.000347784 9.13999e-05)
(-0.00019305 0.000319109 9.13999e-05)
(-0.000245531 0.000280738 9.14e-05)
(-0.00029055 0.000233837 9.13998e-05)
(-0.000326742 0.000179831 9.13998e-05)
(-0.000353005 0.000120361 9.14e-05)
(-0.000368542 5.7234e-05 9.13997e-05)
(-0.000372882 -7.63206e-06 9.13997e-05)
(-0.000365892 -7.22663e-05 9.13996e-05)
(-0.000347784 -0.000134705 9.13999e-05)
(-0.000319109 -0.00019305 9.13999e-05)
(-0.000280738 -0.000245531 9.14e-05)
(-0.000233837 -0.00029055 9.13998e-05)
(-0.000179831 -0.000326742 9.13998e-05)
(-0.000120361 -0.000353005 9.14e-05)
(-5.7234e-05 -0.000368542 9.13997e-05)
(0.000366876 -0.000872508 0.000194499)
(0.000512812 -0.000795546 0.0001945)
(0.000643166 -0.00069441 0.000194501)
(0.000753978 -0.000572175 0.000194501)
(0.000841881 -0.000432556 0.000194501)
(0.000904203 -0.000279793 0.0001945)
(0.000939052 -0.00011853 0.000194499)
(0.000945368 4.63357e-05 0.000194499)
(0.00092296 0.000209793 0.000194499)
(0.000872508 0.000366876 0.000194499)
(0.000795546 0.000512812 0.0001945)
(0.00069441 0.000643166 0.000194501)
(0.000572175 0.000753978 0.000194501)
(0.000432556 0.000841881 0.000194501)
(0.000279793 0.000904203 0.0001945)
(0.00011853 0.000939052 0.000194499)
(-4.63357e-05 0.000945368 0.000194499)
(-0.000209793 0.00092296 0.000194499)
(-0.000366876 0.000872508 0.000194499)
(-0.000512812 0.000795546 0.0001945)
(-0.000643166 0.00069441 0.000194501)
(-0.000753978 0.000572175 0.000194501)
(-0.000841881 0.000432556 0.000194501)
(-0.000904203 0.000279793 0.0001945)
(-0.000939052 0.00011853 0.000194499)
(-0.000945368 -4.63357e-05 0.000194499)
(-0.00092296 -0.000209793 0.000194499)
(-0.000872508 -0.000366876 0.000194499)
(-0.000795546 -0.000512812 0.0001945)
(-0.00069441 -0.000643166 0.000194501)
(-0.000572175 -0.000753978 0.000194501)
(-0.000432556 -0.000841881 0.000194501)
(-0.000279793 -0.000904203 0.0001945)
(-0.00011853 -0.000939052 0.000194499)
(4.63357e-05 -0.000945368 0.000194499)
(0.000209793 -0.00092296 0.000194499)
(0.000267275 -0.000983506 0.000275645)
(0.000433998 -0.000922152 0.000275645)
(0.000587535 -0.000832779 0.000275646)
(0.00072322 -0.000718104 0.000275646)
(0.00083693 -0.000581608 0.000275647)
(0.000925211 -0.00042744 0.000275646)
(0.000985379 -0.000260285 0.000275645)
(0.00101561 -8.52222e-05 0.000275645)
(0.00101498 9.24302e-05 0.000275645)
(0.000983506 0.000267275 0.000275645)
(0.000922152 0.000433998 0.000275645)
(0.000832779 0.000587535 0.000275646)
(0.000718104 0.00072322 0.000275646)
(0.000581608 0.00083693 0.000275647)
(0.00042744 0.000925211 0.000275646)
(0.000260285 0.000985379 0.000275645)
(8.52222e-05 0.00101561 0.000275645)
(-9.24302e-05 0.00101498 0.000275645)
(-0.000267275 0.000983506 0.000275645)
(-0.000433998 0.000922152 0.000275645)
(-0.000587535 0.000832779 0.000275646)
(-0.00072322 0.000718104 0.000275646)
(-0.00083693 0.000581608 0.000275647)
(-0.000925211 0.00042744 0.000275646)
(-0.000985379 0.000260285 0.000275645)
(-0.00101561 8.52222e-05 0.000275645)
(-0.00101498 -9.24302e-05 0.000275645)
(-0.000983506 -0.000267275 0.000275645)
(-0.000922152 -0.000433998 0.000275645)
(-0.000832779 -0.000587535 0.000275646)
(-0.000718104 -0.00072322 0.000275646)
(-0.000581608 -0.00083693 0.000275647)
(-0.00042744 -0.000925211 0.000275646)
(-0.000260285 -0.000985379 0.000275645)
(-8.52222e-05 -0.00101561 0.000275645)
(9.24302e-05 -0.00101498 0.000275645)
(0.000124209 -0.00108764 0.000337645)
(0.000311188 -0.00104955 0.000337645)
(0.000488712 -0.000979563 0.000337645)
(0.000651387 -0.000879817 0.000337646)
(0.00079427 -0.000753338 0.000337646)
(0.000913019 -0.000603969 0.000337646)
(0.00100403 -0.00043625 0.000337646)
(0.00106453 -0.000255276 0.000337646)
(0.00109268 -6.65443e-05 0.000337645)
(0.00108764 0.000124209 0.000337645)
(0.00104955 0.000311188 0.000337645)
(0.000979563 0.000488712 0.000337645)
(0.000879817 0.000651387 0.000337646)
(0.000753338 0.00079427 0.000337646)
(0.000603969 0.000913019 0.000337646)
(0.00043625 0.00100403 0.000337646)
(0.000255276 0.00106453 0.000337646)
(6.65443e-05 0.00109268 0.000337645)
(-0.000124209 0.00108764 0.000337645)
(-0.000311188 0.00104955 0.000337645)
(-0.000488712 0.000979563 0.000337645)
(-0.000651387 0.000879817 0.000337646)
(-0.00079427 0.000753338 0.000337646)
(-0.000913019 0.000603969 0.000337646)
(-0.00100403 0.00043625 0.000337646)
(-0.00106453 0.000255276 0.000337646)
(-0.00109268 6.65443e-05 0.000337645)
(-0.00108764 -0.000124209 0.000337645)
(-0.00104955 -0.000311188 0.000337645)
(-0.000979563 -0.000488712 0.000337645)
(-0.000879817 -0.000651387 0.000337646)
(-0.000753338 -0.00079427 0.000337646)
(-0.000603969 -0.000913019 0.000337646)
(-0.00043625 -0.00100403 0.000337646)
(-0.000255276 -0.00106453 0.000337646)
(-6.65443e-05 -0.00109268 0.000337645)
(0.0005192 -0.00147668 0.000434836)
(0.000767735 -0.00136409 0.000434837)
(0.000992943 -0.00121005 0.000434838)
(0.00118798 -0.00101924 0.000434838)
(0.00134692 -0.000797465 0.000434838)
(0.00146494 -0.000551459 0.000434837)
(0.00153844 -0.000288697 0.000434835)
(0.0015652 -1.71641e-05 0.000434835)
(0.0015444 0.00025489 0.000434835)
(0.00147668 0.0005192 0.000434836)
(0.00136409 0.000767735 0.000434837)
(0.00121005 0.000992943 0.000434838)
(0.00101924 0.00118798 0.000434838)
(0.000797465 0.00134692 0.000434838)
(0.000551459 0.00146494 0.000434837)
(0.000288697 0.00153844 0.000434835)
(1.71641e-05 0.0015652 0.000434835)
(-0.00025489 0.0015444 0.000434835)
(-0.0005192 0.00147668 0.000434836)
(-0.000767735 0.00136409 0.000434837)
(-0.000992943 0.00121005 0.000434838)
(-0.00118798 0.00101924 0.000434838)
(-0.00134692 0.000797465 0.000434838)
(-0.00146494 0.000551459 0.000434837)
(-0.00153844 0.000288697 0.000434835)
(-0.0015652 1.71641e-05 0.000434835)
(-0.0015444 -0.00025489 0.000434835)
(-0.00147668 -0.0005192 0.000434836)
(-0.00136409 -0.000767735 0.000434837)
(-0.00121005 -0.000992943 0.000434838)
(-0.00101924 -0.00118798 0.000434838)
(-0.000797465 -0.00134692 0.000434838)
(-0.000551459 -0.00146494 0.000434837)
(-0.000288697 -0.00153844 0.000434835)
(-1.71641e-05 -0.0015652 0.000434835)
(0.00025489 -0.0015444 0.000434835)
(0.000381427 -0.00162025 0.000544269)
(0.000656986 -0.0015294 0.00054427)
(0.000912583 -0.00139208 0.00054427)
(0.00114045 -0.00121246 0.00054427)
(0.00133367 -0.000996007 0.00054427)
(0.00148636 -0.000749286 0.000544269)
(0.00159389 -0.000479799 0.000544269)
(0.00165299 -0.000195733 0.000544269)
(0.00166187 9.42789e-05 0.000544269)
(0.00162025 0.000381427 0.000544269)
(0.0015294 0.000656986 0.00054427)
(0.00139208 0.000912583 0.00054427)
(0.00121246 0.00114045 0.00054427)
(0.000996007 0.00133367 0.00054427)
(0.000749286 0.00148636 0.000544269)
(0.000479799 0.00159389 0.000544269)
(0.000195733 0.00165299 0.000544269)
(-9.42789e-05 0.00166187 0.000544269)
(-0.000381427 0.00162025 0.000544269)
(-0.000656986 0.0015294 0.00054427)
(-0.000912583 0.00139208 0.00054427)
(-0.00114045 0.00121246 0.00054427)
(-0.00133367 0.000996007 0.00054427)
(-0.00148636 0.000749286 0.000544269)
(-0.00159389 0.000479799 0.000544269)
(-0.00165299 0.000195733 0.000544269)
(-0.00166187 -9.42789e-05 0.000544269)
(-0.00162025 -0.000381427 0.000544269)
(-0.0015294 -0.000656986 0.00054427)
(-0.00139208 -0.000912583 0.00054427)
(-0.00121246 -0.00114045 0.00054427)
(-0.000996007 -0.00133367 0.00054427)
(-0.000749286 -0.00148636 0.000544269)
(-0.000479799 -0.00159389 0.000544269)
(-0.000195733 -0.00165299 0.000544269)
(9.42789e-05 -0.00166187 0.000544269)
(0.000204847 -0.00175172 0.000633502)
(0.000505918 -0.00168953 0.000633502)
(0.000791616 -0.00157601 0.000633502)
(0.00105326 -0.00141461 0.000633503)
(0.00128291 -0.00121022 0.000633503)
(0.00147357 -0.00096906 0.000633503)
(0.00161946 -0.000698455 0.000633502)
(0.00171614 -0.000406629 0.000633502)
(0.00176068 -0.000102448 0.000633502)
(0.00175172 0.000204847 0.000633502)
(0.00168953 0.000505918 0.000633502)
(0.00157601 0.000791616 0.000633502)
(0.00141461 0.00105326 0.000633503)
(0.00121022 0.00128291 0.000633503)
(0.00096906 0.00147357 0.000633503)
(0.000698455 0.00161946 0.000633502)
(0.000406629 0.00171614 0.000633502)
(0.000102448 0.00176068 0.000633502)
(-0.000204847 0.00175172 0.000633502)
(-0.000505918 0.00168953 0.000633502)
(-0.000791616 0.00157601 0.000633502)
(-0.00105326 0.00141461 0.000633503)
(-0.00128291 0.00121022 0.000633503)
(-0.00147357 0.00096906 0.000633503)
(-0.00161946 0.000698455 0.000633502)
(-0.00171614 0.000406629 0.000633502)
(-0.00176068 0.000102448 0.000633502)
(-0.00175172 -0.000204847 0.000633502)
(-0.00168953 -0.000505918 0.000633502)
(-0.00157601 -0.000791616 0.000633502)
(-0.00141461 -0.00105326 0.000633503)
(-0.00121022 -0.00128291 0.000633503)
(-0.00096906 -0.00147357 0.000633503)
(-0.000698455 -0.00161946 0.000633502)
(-0.000406629 -0.00171614 0.000633502)
(-0.000102448 -0.00176068 0.000633502)
(0.000589681 -0.00208509 0.000721119)
(0.000942794 -0.00195101 0.00072112)
(0.00126726 -0.00175766 0.00072112)
(0.00155322 -0.0015109 0.000721121)
(0.00179199 -0.00121823 0.00072112)
(0.00197631 -0.000888545 0.000721119)
(0.00210058 -0.000531864 0.000721118)
(0.00216102 -0.000159022 0.000721118)
(0.00215581 0.000218651 0.000721119)
(0.00208509 0.000589681 0.000721119)
(0.00195101 0.000942794 0.00072112)
(0.00175766 0.00126726 0.00072112)
(0.0015109 0.00155322 0.000721121)
(0.00121823 0.00179199 0.00072112)
(0.000888545 0.00197631 0.000721119)
(0.000531864 0.00210058 0.000721118)
(0.000159022 0.00216102 0.000721118)
(-0.000218651 0.00215581 0.000721119)
(-0.000589681 0.00208509 0.000721119)
(-0.000942794 0.00195101 0.00072112)
(-0.00126726 0.00175766 0.00072112)
(-0.00155322 0.0015109 0.000721121)
(-0.00179199 0.00121823 0.00072112)
(-0.00197631 0.000888545 0.000721119)
(-0.00210058 0.000531864 0.000721118)
(-0.00216102 0.000159022 0.000721118)
(-0.00215581 -0.000218651 0.000721119)
(-0.00208509 -0.000589681 0.000721119)
(-0.00195101 -0.000942794 0.00072112)
(-0.00175766 -0.00126726 0.00072112)
(-0.0015109 -0.00155322 0.000721121)
(-0.00121823 -0.00179199 0.00072112)
(-0.000888545 -0.00197631 0.000721119)
(-0.000531864 -0.00210058 0.000721118)
(-0.000159022 -0.00216102 0.000721118)
(0.000218651 -0.00215581 0.000721119)
(0.000432293 -0.00222283 0.000839074)
(0.000811716 -0.00211399 0.000839074)
(0.00116647 -0.00194092 0.000839074)
(0.00148579 -0.00170888 0.000839074)
(0.00175996 -0.00142491 0.000839074)
(0.00198066 -0.00109765 0.000839074)
(0.00214117 -0.000737037 0.000839074)
(0.00223663 -0.000354029 0.000839073)
(0.00226413 3.97354e-05 0.000839074)
(0.00222283 0.000432293 0.000839074)
(0.00211399 0.000811716 0.000839074)
(0.00194092 0.00116647 0.000839074)
(0.00170888 0.00148579 0.000839074)
(0.00142491 0.00175996 0.000839074)
(0.00109765 0.00198066 0.000839074)
(0.000737037 0.00214117 0.000839074)
(0.000354029 0.00223663 0.000839073)
(-3.97354e-05 0.00226413 0.000839074)
(-0.000432293 0.00222283 0.000839074)
(-0.000811716 0.00211399 0.000839074)
(-0.00116647 0.00194092 0.000839074)
(-0.00148579 0.00170888 0.000839074)
(-0.00175996 0.00142491 0.000839074)
(-0.00198066 0.00109765 0.000839074)
(-0.00214117 0.000737037 0.000839074)
(-0.00223663 0.000354029 0.000839073)
(-0.00226413 -3.97354e-05 0.000839074)
(-0.00222283 -0.000432293 0.000839074)
(-0.00211399 -0.000811716 0.000839074)
(-0.00194092 -0.00116647 0.000839074)
(-0.00170888 -0.00148579 0.000839074)
(-0.00142491 -0.00175996 0.000839074)
(-0.00109765 -0.00198066 0.000839074)
(-0.000737037 -0.00214117 0.000839074)
(-0.000354029 -0.00223663 0.000839073)
(3.97354e-05 -0.00226413 0.000839074)
(0.000241683 -0.00234697 0.000936731)
(0.000645559 -0.00226935 0.000936731)
(0.00102982 -0.00212277 0.000936731)
(0.00138279 -0.00191169 0.000936731)
(0.00169374 -0.00164253 0.000936731)
(0.00195323 -0.00132346 0.000936731)
(0.00215338 -0.000964181 0.000936732)
(0.00228809 -0.000575603 0.000936731)
(0.00235328 -0.000169536 0.000936731)
(0.00234697 0.000241683 0.000936731)
(0.00226935 0.000645559 0.000936731)
(0.00212277 0.00102982 0.000936731)
(0.00191169 0.00138279 0.000936731)
(0.00164253 0.00169374 0.000936731)
(0.00132346 0.00195323 0.000936731)
(0.000964181 0.00215338 0.000936732)
(0.000575603 0.00228809 0.000936731)
(0.000169536 0.00235328 0.000936731)
(-0.000241683 0.00234697 0.000936731)
(-0.000645559 0.00226935 0.000936731)
(-0.00102982 0.00212277 0.000936731)
(-0.00138279 0.00191169 0.000936731)
(-0.00169374 0.00164253 0.000936731)
(-0.00195323 0.00132346 0.000936731)
(-0.00215338 0.000964181 0.000936732)
(-0.00228809 0.000575603 0.000936731)
(-0.00235328 0.000169536 0.000936731)
(-0.00234697 -0.000241683 0.000936731)
(-0.00226935 -0.000645559 0.000936731)
(-0.00212277 -0.00102982 0.000936731)
(-0.00191169 -0.00138279 0.000936731)
(-0.00164253 -0.00169374 0.000936731)
(-0.00132346 -0.00195323 0.000936731)
(-0.000964181 -0.00215338 0.000936732)
(-0.000575603 -0.00228809 0.000936731)
(-0.000169536 -0.00235328 0.000936731)
(0.000583525 -0.00266572 0.00102652)
(0.00103756 -0.00252389 0.00102652)
(0.00146006 -0.00230538 0.00102652)
(0.00183821 -0.00201682 0.00102652)
(0.0021605 -0.00166697 0.00102652)
(0.00241714 -0.00126648 0.00102652)
(0.00260034 -0.000827512 0.00102652)
(0.00270453 -0.000363395 0.00102652)
(0.00272655 0.000111763 0.00102652)
(0.00266572 0.000583525 0.00102652)
(0.00252389 0.00103756 0.00102652)
(0.00230538 0.00146006 0.00102652)
(0.00201682 0.00183821 0.00102652)
(0.00166697 0.0021605 0.00102652)
(0.00126648 0.00241714 0.00102652)
(0.000827512 0.00260034 0.00102652)
(0.000363395 0.00270453 0.00102652)
(-0.000111763 0.00272655 0.00102652)
(-0.000583525 0.00266572 0.00102652)
(-0.00103756 0.00252389 0.00102652)
(-0.00146006 0.00230538 0.00102652)
(-0.00183821 0.00201682 0.00102652)
(-0.0021605 0.00166697 0.00102652)
(-0.00241714 0.00126648 0.00102652)
(-0.00260034 0.000827512 0.00102652)
(-0.00270453 0.000363395 0.00102652)
(-0.00272655 -0.000111763 0.00102652)
(-0.00266572 -0.000583525 0.00102652)
(-0.00252389 -0.00103756 0.00102652)
(-0.00230538 -0.00146006 0.00102652)
(-0.00201682 -0.00183821 0.00102652)
(-0.00166697 -0.0021605 0.00102652)
(-0.00126648 -0.00241714 0.00102652)
(-0.000827512 -0.00260034 0.00102652)
(-0.000363395 -0.00270453 0.00102652)
(0.000111763 -0.00272655 0.00102652)
(0.000419671 -0.00277081 0.00113992)
(0.000894442 -0.00265584 0.00113992)
(0.00134203 -0.00246017 0.00113992)
(0.00174885 -0.00218975 0.00113992)
(0.00210253 -0.0018528 0.00113992)
(0.00239232 -0.00145956 0.00113992)
(0.00260943 -0.00102196 0.00113992)
(0.00274724 -0.000553311 0.00113992)
(0.00280159 -6.7851e-05 0.00113992)
(0.00277081 0.000419671 0.00113992)
(0.00265584 0.000894442 0.00113992)
(0.00246017 0.00134203 0.00113992)
(0.00218975 0.00174885 0.00113992)
(0.0018528 0.00210253 0.00113992)
(0.00145956 0.00239232 0.00113992)
(0.00102196 0.00260943 0.00113992)
(0.000553311 0.00274724 0.00113992)
(6.7851e-05 0.00280159 0.00113992)
(-0.000419671 0.00277081 0.00113992)
(-0.000894442 0.00265584 0.00113992)
(-0.00134203 0.00246017 0.00113992)
(-0.00174885 0.00218975 0.00113992)
(-0.00210253 0.0018528 0.00113992)
(-0.00239232 0.00145956 0.00113992)
(-0.00260943 0.00102196 0.00113992)
(-0.00274724 0.000553311 0.00113992)
(-0.00280159 6.7851e-05 0.00113992)
(-0.00277081 -0.000419671 0.00113992)
(-0.00265584 -0.000894442 0.00113992)
(-0.00246017 -0.00134203 0.00113992)
(-0.00218975 -0.00174885 0.00113992)
(-0.0018528 -0.00210253 0.00113992)
(-0.00145956 -0.00239232 0.00113992)
(-0.00102196 -0.00260943 0.00113992)
(-0.000553311 -0.00274724 0.00113992)
(-6.7851e-05 -0.00280159 0.00113992)
(0.000228067 -0.00286307 0.00123325)
(0.00072177 -0.00277997 0.00123325)
(0.00119354 -0.00261241 0.00123325)
(0.00162905 -0.00236546 0.00123325)
(0.00201506 -0.00204664 0.00123325)
(0.00233984 -0.00166564 0.00123325)
(0.00259353 -0.00123403 0.00123325)
(0.00276841 -0.000764917 0.00123325)
(0.00285918 -0.000272566 0.00123325)
(0.00286307 0.000228067 0.00123325)
(0.00277997 0.00072177 0.00123325)
(0.00261241 0.00119354 0.00123325)
(0.00236546 0.00162905 0.00123325)
(0.00204664 0.00201506 0.00123325)
(0.00166564 0.00233984 0.00123325)
(0.00123403 0.00259353 0.00123325)
(0.000764917 0.00276841 0.00123325)
(0.000272566 0.00285918 0.00123325)
(-0.000228067 0.00286307 0.00123325)
(-0.00072177 0.00277997 0.00123325)
(-0.00119354 0.00261241 0.00123325)
(-0.00162905 0.00236546 0.00123325)
(-0.00201506 0.00204664 0.00123325)
(-0.00233984 0.00166564 0.00123325)
(-0.00259353 0.00123403 0.00123325)
(-0.00276841 0.000764917 0.00123325)
(-0.00285918 0.000272566 0.00123325)
(-0.00286307 -0.000228067 0.00123325)
(-0.00277997 -0.00072177 0.00123325)
(-0.00261241 -0.00119354 0.00123325)
(-0.00236546 -0.00162905 0.00123325)
(-0.00204664 -0.00201506 0.00123325)
(-0.00166564 -0.00233984 0.00123325)
(-0.00123403 -0.00259353 0.00123325)
(-0.000764917 -0.00276841 0.00123325)
(-0.000272566 -0.00285918 0.00123325)
(0.000517778 -0.00318414 0.00133878)
(0.00106283 -0.00304585 0.00133877)
(0.00157559 -0.00281502 0.00133877)
(0.00204048 -0.00249866 0.00133877)
(0.00244337 -0.00210637 0.00133877)
(0.00277201 -0.00165008 0.00133877)
(0.00301644 -0.00114366 0.00133877)
(0.0031692 -0.000602488 0.00133877)
(0.00322568 -4.30084e-05 0.00133877)
(0.00318414 0.000517778 0.00133878)
(0.00304585 0.00106283 0.00133877)
(0.00281502 0.00157559 0.00133877)
(0.00249866 0.00204048 0.00133877)
(0.00210637 0.00244337 0.00133877)
(0.00165008 0.00277201 0.00133877)
(0.00114366 0.00301644 0.00133877)
(0.000602488 0.0031692 0.00133877)
(4.30084e-05 0.00322568 0.00133877)
(-0.000517778 0.00318414 0.00133878)
(-0.00106283 0.00304585 0.00133877)
(-0.00157559 0.00281502 0.00133877)
(-0.00204048 0.00249866 0.00133877)
(-0.00244337 0.00210637 0.00133877)
(-0.00277201 0.00165008 0.00133877)
(-0.00301644 0.00114366 0.00133877)
(-0.0031692 0.000602488 0.00133877)
(-0.00322568 4.30084e-05 0.00133877)
(-0.00318414 -0.000517778 0.00133878)
(-0.00304585 -0.00106283 0.00133877)
(-0.00281502 -0.00157559 0.00133877)
(-0.00249866 -0.00204048 0.00133877)
(-0.00210637 -0.00244337 0.00133877)
(-0.00165008 -0.00277201 0.00133877)
(-0.00114366 -0.00301644 0.00133877)
(-0.000602488 -0.0031692 0.00133877)
(-4.30084e-05 -0.00322568 0.00133877)
(0.000352967 -0.00324151 0.00143874)
(0.000910487 -0.00313097 0.00143874)
(0.00144034 -0.0029253 0.00143874)
(0.00192643 -0.00263074 0.00143874)
(0.00235399 -0.00225626 0.00143874)
(0.00271002 -0.00181321 0.00143874)
(0.00298371 -0.00131508 0.00143874)
(0.00316674 -0.000776982 0.00143874)
(0.00325355 -0.000215278 0.00143874)
(0.00324151 0.000352967 0.00143874)
(0.00313097 0.000910487 0.00143874)
(0.0029253 0.00144034 0.00143874)
(0.00263074 0.00192643 0.00143874)
(0.00225626 0.00235399 0.00143874)
(0.00181321 0.00271002 0.00143874)
(0.00131508 0.00298371 0.00143874)
(0.000776982 0.00316674 0.00143874)
(0.000215278 0.00325355 0.00143874)
(-0.000352967 0.00324151 0.00143874)
(-0.000910487 0.00313097 0.00143874)
(-0.00144034 0.0029253 0.00143874)
(-0.00192643 0.00263074 0.00143874)
(-0.00235399 0.00225626 0.00143874)
(-0.00271002 0.00181321 0.00143874)
(-0.00298371 0.00131508 0.00143874)
(-0.00316674 0.000776982 0.00143874)
(-0.00325355 0.000215278 0.00143874)
(-0.00324151 -0.000352967 0.00143874)
(-0.00313097 -0.000910487 0.00143874)
(-0.0029253 -0.00144034 0.00143874)
(-0.00263074 -0.00192643 0.00143874)
(-0.00225626 -0.00235399 0.00143874)
(-0.00181321 -0.00271002 0.00143874)
(-0.00131508 -0.00298371 0.00143874)
(-0.000776982 -0.00316674 0.00143874)
(-0.000215278 -0.00325355 0.00143874)
(0.000166505 -0.00328846 0.00151861)
(0.000735011 -0.00320959 0.00151861)
(0.00128118 -0.00303319 0.00151861)
(0.00178843 -0.00276464 0.00151861)
(0.00224133 -0.00241208 0.00151861)
(0.00262613 -0.00198623 0.00151861)
(0.00293114 -0.00150003 0.00151861)
(0.00314709 -0.000968257 0.00151861)
(0.00326741 -0.00040706 0.00151861)
(0.00328846 0.000166505 0.00151861)
(0.00320959 0.000735011 0.00151861)
(0.00303319 0.00128118 0.00151861)
(0.00276464 0.00178843 0.00151861)
(0.00241208 0.00224133 0.00151861)
(0.00198623 0.00262613 0.00151861)
(0.00150003 0.00293114 0.00151861)
(0.000968257 0.00314709 0.00151861)
(0.00040706 0.00326741 0.00151861)
(-0.000166505 0.00328846 0.00151861)
(-0.000735011 0.00320959 0.00151861)
(-0.00128118 0.00303319 0.00151861)
(-0.00178843 0.00276464 0.00151861)
(-0.00224133 0.00241208 0.00151861)
(-0.00262613 0.00198623 0.00151861)
(-0.00293114 0.00150003 0.00151861)
(-0.00314709 0.000968257 0.00151861)
(-0.00326741 0.00040706 0.00151861)
(-0.00328846 -0.000166505 0.00151861)
(-0.00320959 -0.000735011 0.00151861)
(-0.00303319 -0.00128118 0.00151861)
(-0.00276464 -0.00178843 0.00151861)
(-0.00241208 -0.00224133 0.00151861)
(-0.00198623 -0.00262613 0.00151861)
(-0.00150003 -0.00293114 0.00151861)
(-0.000968257 -0.00314709 0.00151861)
(-0.00040706 -0.00326741 0.00151861)
(0.000415543 -0.00361039 0.0016601)
(0.00103617 -0.00348338 0.0016601)
(0.00162531 -0.00325053 0.0016601)
(0.00216507 -0.00291892 0.0016601)
(0.00263904 -0.00249861 0.0016601)
(0.00303283 -0.00200239 0.0016601)
(0.00333446 -0.00144532 0.0016601)
(0.00353478 -0.000844342 0.0016601)
(0.0036277 -0.000217706 0.0016601)
(0.00361039 0.000415543 0.0016601)
(0.00348338 0.00103617 0.0016601)
(0.00325053 0.00162531 0.0016601)
(0.00291892 0.00216507 0.0016601)
(0.00249861 0.00263904 0.0016601)
(0.00200239 0.00303283 0.0016601)
(0.00144532 0.00333446 0.0016601)
(0.000844342 0.00353478 0.0016601)
(0.000217706 0.0036277 0.0016601)
(-0.000415543 0.00361039 0.0016601)
(-0.00103617 0.00348338 0.0016601)
(-0.00162531 0.00325053 0.0016601)
(-0.00216507 0.00291892 0.0016601)
(-0.00263904 0.00249861 0.0016601)
(-0.00303283 0.00200239 0.0016601)
(-0.00333446 0.00144532 0.0016601)
(-0.00353478 0.000844342 0.0016601)
(-0.0036277 0.000217706 0.0016601)
(-0.00361039 -0.000415543 0.0016601)
(-0.00348338 -0.00103617 0.0016601)
(-0.00325053 -0.00162531 0.0016601)
(-0.00291892 -0.00216507 0.0016601)
(-0.00249861 -0.00263904 0.0016601)
(-0.00200239 -0.00303283 0.0016601)
(-0.00144532 -0.00333446 0.0016601)
(-0.000844342 -0.00353478 0.0016601)
(-0.000217706 -0.0036277 0.0016601)
(0.000249012 -0.00361173 0.00173902)
(0.0008724 -0.00351362 0.00173901)
(0.00146928 -0.00330875 0.00173901)
(0.00202152 -0.00300334 0.00173901)
(0.00251233 -0.00260668 0.00173901)
(0.00292681 -0.00213082 0.00173901)
(0.00325236 -0.00159021 0.00173901)
(0.00347908 -0.00100129 0.00173902)
(0.0036001 -0.000381941 0.00173902)
(0.00361173 0.000249012 0.00173902)
(0.00351362 0.0008724 0.00173901)
(0.00330875 0.00146928 0.00173901)
(0.00300334 0.00202152 0.00173901)
(0.00260668 0.00251233 0.00173901)
(0.00213082 0.00292681 0.00173901)
(0.00159021 0.00325236 0.00173901)
(0.00100129 0.00347908 0.00173902)
(0.000381941 0.0036001 0.00173902)
(-0.000249012 0.00361173 0.00173902)
(-0.0008724 0.00351362 0.00173901)
(-0.00146928 0.00330875 0.00173901)
(-0.00202152 0.00300334 0.00173901)
(-0.00251233 0.00260668 0.00173901)
(-0.00292681 0.00213082 0.00173901)
(-0.00325236 0.00159021 0.00173901)
(-0.00347908 0.00100129 0.00173902)
(-0.0036001 0.000381941 0.00173902)
(-0.00361173 -0.000249012 0.00173902)
(-0.00351362 -0.0008724 0.00173901)
(-0.00330875 -0.00146928 0.00173901)
(-0.00300334 -0.00202152 0.00173901)
(-0.00260668 -0.00251233 0.00173901)
(-0.00213082 -0.00292681 0.00173901)
(-0.00159021 -0.00325236 0.00173901)
(-0.00100129 -0.00347908 0.00173902)
(-0.000381941 -0.0036001 0.00173902)
(6.81634e-05 -0.00360706 0.00179723)
(0.000693486 -0.00354042 0.00179723)
(0.00129774 -0.00336621 0.00179723)
(0.00186256 -0.00308972 0.00179723)
(0.00237079 -0.00271935 0.00179723)
(0.00280698 -0.00226635 0.00179723)
(0.00315788 -0.0017445 0.00179723)
(0.00341284 -0.00116963 0.00179723)
(0.00356409 -0.000559232 0.00179723)
(0.00360706 6.81634e-05 0.00179723)
(0.00354042 0.000693486 0.00179723)
(0.00336621 0.00129774 0.00179723)
(0.00308972 0.00186256 0.00179723)
(0.00271935 0.00237079 0.00179723)
(0.00226635 0.00280698 0.00179723)
(0.0017445 0.00315788 0.00179723)
(0.00116963 0.00341284 0.00179723)
(0.000559232 0.00356409 0.00179723)
(-6.81634e-05 0.00360706 0.00179723)
(-0.000693486 0.00354042 0.00179723)
(-0.00129774 0.00336621 0.00179723)
(-0.00186256 0.00308972 0.00179723)
(-0.00237079 0.00271935 0.00179723)
(-0.00280698 0.00226635 0.00179723)
(-0.00315788 0.0017445 0.00179723)
(-0.00341284 0.00116963 0.00179723)
(-0.00356409 0.000559232 0.00179723)
(-0.00360706 -6.81634e-05 0.00179723)
(-0.00354042 -0.000693486 0.00179723)
(-0.00336621 -0.00129774 0.00179723)
(-0.00308972 -0.00186256 0.00179723)
(-0.00271935 -0.00237079 0.00179723)
(-0.00226635 -0.00280698 0.00179723)
(-0.0017445 -0.00315788 0.00179723)
(-0.00116963 -0.00341284 0.00179723)
(-0.000559232 -0.00356409 0.00179723)
(0.000302851 -0.00391924 0.00200204)
(0.000978818 -0.0038071 0.00200204)
(0.00162505 -0.00357929 0.00200204)
(0.0022219 -0.00324273 0.00200204)
(0.00275123 -0.00280764 0.00200204)
(0.00319698 -0.00228724 0.00200204)
(0.00354558 -0.00169734 0.00200204)
(0.00378646 -0.00105587 0.00200204)
(0.00391228 -0.000382316 0.00200204)
(0.00391924 0.000302851 0.00200204)
(0.0038071 0.000978818 0.00200204)
(0.00357929 0.00162505 0.00200204)
(0.00324273 0.0022219 0.00200204)
(0.00280764 0.00275123 0.00200204)
(0.00228724 0.00319698 0.00200204)
(0.00169734 0.00354558 0.00200204)
(0.00105587 0.00378646 0.00200204)
(0.000382316 0.00391228 0.00200204)
(-0.000302851 0.00391924 0.00200204)
(-0.000978818 0.0038071 0.00200204)
(-0.00162505 0.00357929 0.00200204)
(-0.0022219 0.00324273 0.00200204)
(-0.00275123 0.00280764 0.00200204)
(-0.00319698 0.00228724 0.00200204)
(-0.00354558 0.00169734 0.00200204)
(-0.00378646 0.00105587 0.00200204)
(-0.00391228 0.000382316 0.00200204)