/*--------------------------------*- C++ -*----------------------------------*\
| =========                 |                                                 |
| \\      /  F ield         | OpenFOAM: The Open Source CFD Toolbox           |
|  \\    /   O peration     | Version:  2312                                  |
|   \\  /    A nd           | Website:  www.openfoam.com                      |
|    \\/     M anipulation  |                                                 |
\*---------------------------------------------------------------------------*/
FoamFile
{
    version     2.0;
    format      ascii;
    arch        "LSB;label=32;scalar=64";
    class       volVectorField;
    location    "0.8";
    object      D_0_0;
}
// * * * * * * * * * * * * * * * * * * * * * * * * * * * * * * * * * * * * * //

dimensions      [0 1 0 0 0 0 0];

internalField   nonuniform List<vector> 
1620
(
(0.000165139 -0.000286679 4.98333e-05)
(0.000212411 -0.000253648 4.98337e-05)
(0.00025323 -0.000212909 4.98338e-05)
(0.000286354 -0.000165702 4.98336e-05)
(0.000310778 -0.00011346 4.98337e-05)
(0.000325758 -5.77698e-05 4.98336e-05)
(0.00033084 -3.25032e-07 4.98331e-05)
(0.00032587 5.71294e-05 4.98329e-05)
(0.000311 0.000112848 4.98332e-05)
(0.000286679 0.000165139 4.98333e-05)
(0.000253648 0.000212411 4.98337e-05)
(0.000212909 0.00025323 4.98338e-05)
(0.000165702 0.000286354 4.98336e-05)
(0.00011346 0.000310778 4.98337e-05)
(5.77698e-05 0.000325758 4.98336e-05)
(3.25031e-07 0.00033084 4.98331e-05)
(-5.71294e-05 0.00032587 4.98329e-05)
(-0.000112848 0.000311 4.98332e-05)
(-0.000165139 0.000286679 4.98333e-05)
(-0.000212411 0.000253648 4.98337e-05)
(-0.00025323 0.000212909 4.98338e-05)
(-0.000286354 0.000165702 4.98336e-05)
(-0.000310778 0.00011346 4.98337e-05)
(-0.000325758 5.77698e-05 4.98336e-05)
(-0.00033084 3.25031e-07 4.98331e-05)
(-0.00032587 -5.71294e-05 4.98329e-05)
(-0.000311 -0.000112848 4.98332e-05)
(-0.000286679 -0.000165139 4.98333e-05)
(-0.000253648 -0.000212411 4.98337e-05)
(-0.000212909 -0.00025323 4.98338e-05)
(-0.000165702 -0.000286354 4.98336e-05)
(-0.00011346 -0.000310778 4.98337e-05)
(-5.77698e-05 -0.000325758 4.98336e-05)
(-3.25032e-07 -0.00033084 4.98331e-05)
(5.71294e-05 -0.00032587 4.98329e-05)
(0.000112848 -0.000311 4.98332e-05)
(0.000104917 -0.000331892 7.7477e-05)
(0.000160956 -0.000308631 7.74772e-05)
(0.000212104 -0.000275992 7.74773e-05)
(0.000256807 -0.000234968 7.74773e-05)
(0.000293708 -0.000186804 7.74775e-05)
(0.000321683 -0.000132964 7.74773e-05)
(0.000339885 -7.50845e-05 7.74771e-05)
(0.00034776 -1.49236e-05 7.7477e-05)
(0.000345069 4.5691e-05 7.74771e-05)
(0.000331892 0.000104917 7.7477e-05)
(0.000308631 0.000160956 7.74772e-05)
(0.000275992 0.000212104 7.74773e-05)
(0.000234968 0.000256807 7.74773e-05)
(0.000186804 0.000293708 7.74775e-05)
(0.000132964 0.000321683 7.74773e-05)
(7.50845e-05 0.000339885 7.74771e-05)
(1.49236e-05 0.00034776 7.7477e-05)
(-4.5691e-05 0.000345069 7.74771e-05)
(-0.000104917 0.000331892 7.7477e-05)
(-0.000160956 0.000308631 7.74772e-05)
(-0.000212104 0.000275992 7.74773e-05)
(-0.000256807 0.000234968 7.74773e-05)
(-0.000293708 0.000186804 7.74775e-05)
(-0.000321683 0.000132964 7.74773e-05)
(-0.000339885 7.50845e-05 7.74771e-05)
(-0.00034776 1.49236e-05 7.7477e-05)
(-0.000345069 -4.5691e-05 7.74771e-05)
(-0.000331892 -0.000104917 7.7477e-05)
(-0.000308631 -0.000160956 7.74772e-05)
(-0.000275992 -0.000212104 7.74773e-05)
(-0.000234968 -0.000256807 7.74773e-05)
(-0.000186804 -0.000293708 7.74775e-05)
(-0.000132964 -0.000321683 7.74773e-05)
(-7.50845e-05 -0.000339885 7.74771e-05)
(-1.49236e-05 -0.00034776 7.7477e-05)
(4.5691e-05 -0.000345069 7.74771e-05)
(7.36552e-06 -0.0003747 9.22007e-05)
(7.23195e-05 -0.000367728 9.22006e-05)
(0.000135076 -0.000349584 9.2201e-05)
(0.000193729 -0.000320817 9.2201e-05)
(0.000246496 -0.000282303 9.2201e-05)
(0.000291771 -0.00023521 9.22008e-05)
(0.000328183 -0.000180971 9.22009e-05)
(0.000354622 -0.000121233 9.2201e-05)
(0.000370286 -5.78122e-05 9.22008e-05)
(0.0003747 7.36552e-06 9.22007e-05)
(0.000367728 7.23195e-05 9.22006e-05)
(0.000349584 0.000135076 9.2201e-05)
(0.000320817 0.000193729 9.2201e-05)
(0.000282303 0.000246496 9.2201e-05)
(0.00023521 0.000291771 9.22008e-05)
(0.000180971 0.000328183 9.22009e-05)
(0.000121233 0.000354622 9.2201e-05)
(5.78122e-05 0.000370286 9.22008e-05)
(-7.36552e-06 0.0003747 9.22007e-05)
(-7.23195e-05 0.000367728 9.22006e-05)
(-0.000135076 0.000349584 9.2201e-05)
(-0.000193729 0.000320817 9.2201e-05)
(-0.000246496 0.000282303 9.2201e-05)
(-0.000291771 0.00023521 9.22008e-05)
(-0.000328183 0.000180971 9.22009e-05)
(-0.000354622 0.000121233 9.2201e-05)
(-0.000370286 5.78122e-05 9.22008e-05)
(-0.0003747 -7.36552e-06 9.22007e-05)
(-0.000367728 -7.23195e-05 9.22006e-05)
(-0.000349584 -0.000135076 9.2201e-05)
(-0.000320817 -0.000193729 9.2201e-05)
(-0.000282303 -0.000246496 9.2201e-05)
(-0.00023521 -0.000291771 9.22008e-05)
(-0.000180971 -0.000328183 9.22009e-05)
(-0.000121233 -0.000354622 9.2201e-05)
(-5.78122e-05 -0.000370286 9.22008e-05)
(0.000368091 -0.000874523 0.000194791)
(0.000514358 -0.000797319 0.000194792)
(0.000644997 -0.000695888 0.000194792)
(0.000756038 -0.000573313 0.000194792)
(0.000844106 -0.000433318 0.000194792)
(0.000906527 -0.000280158 0.000194792)
(0.000941404 -0.000118485 0.00019479)
(0.000947677 4.67884e-05 0.00019479)
(0.000925155 0.000210639 0.00019479)
(0.000874523 0.000368091 0.000194791)
(0.000797319 0.000514358 0.000194792)
(0.000695888 0.000644997 0.000194792)
(0.000573313 0.000756038 0.000194792)
(0.000433318 0.000844106 0.000194792)
(0.000280158 0.000906527 0.000194792)
(0.000118485 0.000941404 0.00019479)
(-4.67884e-05 0.000947677 0.00019479)
(-0.000210639 0.000925155 0.00019479)
(-0.000368091 0.000874523 0.000194791)
(-0.000514358 0.000797319 0.000194792)
(-0.000644997 0.000695888 0.000194792)
(-0.000756038 0.000573313 0.000194792)
(-0.000844106 0.000433318 0.000194792)
(-0.000906527 0.000280158 0.000194792)
(-0.000941404 0.000118485 0.00019479)
(-0.000947677 -4.67884e-05 0.00019479)
(-0.000925155 -0.000210639 0.00019479)
(-0.000874523 -0.000368091 0.000194791)
(-0.000797319 -0.000514358 0.000194792)
(-0.000695888 -0.000644997 0.000194792)
(-0.000573313 -0.000756038 0.000194792)
(-0.000433318 -0.000844106 0.000194792)
(-0.000280158 -0.000906527 0.000194792)
(-0.000118485 -0.000941404 0.00019479)
(4.67884e-05 -0.000947677 0.00019479)
(0.000210639 -0.000925155 0.00019479)
(0.000267978 -0.000987162 0.000277176)
(0.000435325 -0.000925631 0.000277176)
(0.000589446 -0.000835975 0.000277177)
(0.000725657 -0.000720918 0.000277177)
(0.000839819 -0.000583957 0.000277178)
(0.000928464 -0.000429251 0.000277177)
(0.000988897 -0.000261505 0.000277176)
(0.00101928 -8.58119e-05 0.000277176)
(0.0010187 9.24878e-05 0.000277176)
(0.000987162 0.000267978 0.000277176)
(0.000925631 0.000435325 0.000277176)
(0.000835975 0.000589446 0.000277177)
(0.000720918 0.000725657 0.000277177)
(0.000583957 0.000839819 0.000277178)
(0.000429251 0.000928464 0.000277177)
(0.000261505 0.000988897 0.000277176)
(8.58119e-05 0.00101928 0.000277176)
(-9.24878e-05 0.0010187 0.000277176)
(-0.000267978 0.000987162 0.000277176)
(-0.000435325 0.000925631 0.000277176)
(-0.000589446 0.000835975 0.000277177)
(-0.000725657 0.000720918 0.000277177)
(-0.000839819 0.000583957 0.000277178)
(-0.000928464 0.000429251 0.000277177)
(-0.000988897 0.000261505 0.000277176)
(-0.00101928 8.58119e-05 0.000277176)
(-0.0010187 -9.24878e-05 0.000277176)
(-0.000987162 -0.000267978 0.000277176)
(-0.000925631 -0.000435325 0.000277176)
(-0.000835975 -0.000589446 0.000277177)
(-0.000720918 -0.000725657 0.000277177)
(-0.000583957 -0.000839819 0.000277178)
(-0.000429251 -0.000928464 0.000277177)
(-0.000261505 -0.000988897 0.000277176)
(-8.58119e-05 -0.00101928 0.000277176)
(9.24878e-05 -0.0010187 0.000277176)
(0.000123881 -0.00109283 0.000340118)
(0.000311766 -0.00105471 0.000340118)
(0.000490178 -0.000984551 0.000340118)
(0.000653697 -0.000884474 0.000340119)
(0.000797354 -0.000757524 0.000340118)
(0.000916783 -0.000607556 0.000340118)
(0.00100836 -0.000439129 0.000340118)
(0.00106929 -0.000257359 0.000340118)
(0.00109774 -6.77687e-05 0.000340118)
(0.00109283 0.000123881 0.000340118)
(0.00105471 0.000311766 0.000340118)
(0.000984551 0.000490178 0.000340118)
(0.000884474 0.000653697 0.000340119)
(0.000757524 0.000797354 0.000340118)
(0.000607556 0.000916783 0.000340118)
(0.000439129 0.00100836 0.000340118)
(0.000257359 0.00106929 0.000340118)
(6.77687e-05 0.00109774 0.000340118)
(-0.000123881 0.00109283 0.000340118)
(-0.000311766 0.00105471 0.000340118)
(-0.000490178 0.000984551 0.000340118)
(-0.000653697 0.000884474 0.000340119)
(-0.000797354 0.000757524 0.000340118)
(-0.000916783 0.000607556 0.000340118)
(-0.00100836 0.000439129 0.000340118)
(-0.00106929 0.000257359 0.000340118)
(-0.00109774 6.77687e-05 0.000340118)
(-0.00109283 -0.000123881 0.000340118)
(-0.00105471 -0.000311766 0.000340118)
(-0.000984551 -0.000490178 0.000340118)
(-0.000884474 -0.000653697 0.000340119)
(-0.000757524 -0.000797354 0.000340118)
(-0.000607556 -0.000916783 0.000340118)
(-0.000439129 -0.00100836 0.000340118)
(-0.000257359 -0.00106929 0.000340118)
(-6.77687e-05 -0.00109774 0.000340118)
(0.000520371 -0.00148058 0.000435737)
(0.000769565 -0.00136772 0.000435738)
(0.000995376 -0.00121331 0.000435739)
(0.00119094 -0.00102203 0.000435739)
(0.00135032 -0.000799698 0.000435739)
(0.00146867 -0.000553068 0.000435738)
(0.0015424 -0.000289633 0.000435737)
(0.00156926 -1.73973e-05 0.000435736)
(0.00154844 0.000255366 0.000435736)
(0.00148058 0.000520371 0.000435737)
(0.00136772 0.000769565 0.000435738)
(0.00121331 0.000995376 0.000435739)
(0.00102203 0.00119094 0.000435739)
(0.000799698 0.00135032 0.000435739)
(0.000553068 0.00146867 0.000435738)
(0.000289633 0.0015424 0.000435737)
(1.73973e-05 0.00156926 0.000435736)
(-0.000255366 0.00154844 0.000435736)
(-0.000520371 0.00148058 0.000435737)
(-0.000769565 0.00136772 0.000435738)
(-0.000995376 0.00121331 0.000435739)
(-0.00119094 0.00102203 0.000435739)
(-0.00135032 0.000799698 0.000435739)
(-0.00146867 0.000553068 0.000435738)
(-0.0015424 0.000289633 0.000435737)
(-0.00156926 1.73973e-05 0.000435736)
(-0.00154844 -0.000255366 0.000435736)
(-0.00148058 -0.000520371 0.000435737)
(-0.00136772 -0.000769565 0.000435738)
(-0.00121331 -0.000995376 0.000435739)
(-0.00102203 -0.00119094 0.000435739)
(-0.000799698 -0.00135032 0.000435739)
(-0.000553068 -0.00146867 0.000435738)
(-0.000289633 -0.0015424 0.000435737)
(-1.73973e-05 -0.00156926 0.000435736)
(0.000255366 -0.00154844 0.000435736)
(0.00038197 -0.00162634 0.00054678)
(0.000658577 -0.0015353 0.000546781)
(0.000915175 -0.00139762 0.000546781)
(0.00114397 -0.00121747 0.000546781)
(0.001338 -0.00100032 0.000546781)
(0.00149137 -0.000752783 0.00054678)
(0.00159944 -0.000482373 0.00054678)
(0.0016589 -0.000197306 0.00054678)
(0.00166796 9.37559e-05 0.00054678)
(0.00162634 0.00038197 0.00054678)
(0.0015353 0.000658577 0.000546781)
(0.00139762 0.000915175 0.000546781)
(0.00121747 0.00114397 0.000546781)
(0.00100032 0.001338 0.000546781)
(0.000752783 0.00149137 0.00054678)
(0.000482373 0.00159944 0.00054678)
(0.000197306 0.0016589 0.00054678)
(-9.37559e-05 0.00166796 0.00054678)
(-0.00038197 0.00162634 0.00054678)
(-0.000658577 0.0015353 0.000546781)
(-0.000915175 0.00139762 0.000546781)
(-0.00114397 0.00121747 0.000546781)
(-0.001338 0.00100032 0.000546781)
(-0.00149137 0.000752783 0.00054678)
(-0.00159944 0.000482373 0.00054678)
(-0.0016589 0.000197306 0.00054678)
(-0.00166796 -9.37559e-05 0.00054678)
(-0.00162634 -0.00038197 0.00054678)
(-0.0015353 -0.000658577 0.000546781)
(-0.00139762 -0.000915175 0.000546781)
(-0.00121747 -0.00114397 0.000546781)
(-0.00100032 -0.001338 0.000546781)
(-0.000752783 -0.00149137 0.00054678)
(-0.000482373 -0.00159944 0.00054678)
(-0.000197306 -0.0016589 0.00054678)
(9.37559e-05 -0.00166796 0.00054678)
(0.000204297 -0.00175983 0.000637322)
(0.000506784 -0.00169762 0.000637322)
(0.000793873 -0.00158382 0.000637323)
(0.00105684 -0.00142191 0.000637323)
(0.0012877 -0.00121679 0.000637323)
(0.00147943 -0.000974693 0.000637323)
(0.0016262 -0.000702986 0.000637323)
(0.00172357 -0.00040992 0.000637322)
(0.00176857 -0.000104398 0.000637322)
(0.00175983 0.000204297 0.000637322)
(0.00169762 0.000506784 0.000637322)
(0.00158382 0.000793873 0.000637323)
(0.00142191 0.00105684 0.000637323)
(0.00121679 0.0012877 0.000637323)
(0.000974693 0.00147943 0.000637323)
(0.000702986 0.0016262 0.000637323)
(0.00040992 0.00172357 0.000637322)
(0.000104398 0.00176857 0.000637322)
(-0.000204297 0.00175983 0.000637322)
(-0.000506784 0.00169762 0.000637322)
(-0.000793873 0.00158382 0.000637323)
(-0.00105684 0.00142191 0.000637323)
(-0.0012877 0.00121679 0.000637323)
(-0.00147943 0.000974693 0.000637323)
(-0.0016262 0.000702986 0.000637323)
(-0.00172357 0.00040992 0.000637322)
(-0.00176857 0.000104398 0.000637322)
(-0.00175983 -0.000204297 0.000637322)
(-0.00169762 -0.000506784 0.000637322)
(-0.00158382 -0.000793873 0.000637323)
(-0.00142191 -0.00105684 0.000637323)
(-0.00121679 -0.0012877 0.000637323)
(-0.000974693 -0.00147943 0.000637323)
(-0.000702986 -0.0016262 0.000637323)
(-0.00040992 -0.00172357 0.000637322)
(-0.000104398 -0.00176857 0.000637322)
(0.000589958 -0.00209116 0.000722375)
(0.000944121 -0.00195695 0.000722376)
(0.0012696 -0.00176327 0.000722376)
(0.0015565 -0.00151602 0.000722376)
(0.00179611 -0.0012227 0.000722376)
(0.00198114 -0.000892238 0.000722375)
(0.00210598 -0.000534661 0.000722374)
(0.00216683 -0.000160839 0.000722374)
(0.00216184 0.000217869 0.000722375)
(0.00209116 0.000589958 0.000722375)
(0.00195695 0.000944121 0.000722376)
(0.00176327 0.0012696 0.000722376)
(0.00151602 0.0015565 0.000722376)
(0.0012227 0.00179611 0.000722376)
(0.000892238 0.00198114 0.000722375)
(0.000534661 0.00210598 0.000722374)
(0.000160839 0.00216683 0.000722374)
(-0.000217869 0.00216184 0.000722375)
(-0.000589958 0.00209116 0.000722375)
(-0.000944121 0.00195695 0.000722376)
(-0.0012696 0.00176327 0.000722376)
(-0.0015565 0.00151602 0.000722376)
(-0.00179611 0.0012227 0.000722376)
(-0.00198114 0.000892238 0.000722375)
(-0.00210598 0.000534661 0.000722374)
(-0.00216683 0.000160839 0.000722374)
(-0.00216184 -0.000217869 0.000722375)
(-0.00209116 -0.000589958 0.000722375)
(-0.00195695 -0.000944121 0.000722376)
(-0.00176327 -0.0012696 0.000722376)
(-0.00151602 -0.0015565 0.000722376)
(-0.0012227 -0.00179611 0.000722376)
(-0.000892238 -0.00198114 0.000722375)
(-0.000534661 -0.00210598 0.000722374)
(-0.000160839 -0.00216683 0.000722374)
(0.000217869 -0.00216184 0.000722375)
(0.000432105 -0.00223125 0.000842089)
(0.000812993 -0.00212232 0.000842089)
(0.00116918 -0.0019489 0.000842089)
(0.00148984 -0.00171627 0.000842089)
(0.00176523 -0.00143148 0.000842089)
(0.00198699 -0.00110321 0.000842089)
(0.00214837 -0.000741411 0.000842088)
(0.00224448 -0.000357086 0.000842088)
(0.00227239 3.8088e-05 0.000842089)
(0.00223125 0.000432105 0.000842089)
(0.00212232 0.000812993 0.000842089)
(0.0019489 0.00116918 0.000842089)
(0.00171627 0.00148984 0.000842089)
(0.00143148 0.00176523 0.000842089)
(0.00110321 0.00198699 0.000842089)
(0.000741411 0.00214837 0.000842088)
(0.000357086 0.00224448 0.000842088)
(-3.80881e-05 0.00227239 0.000842089)
(-0.000432105 0.00223125 0.000842089)
(-0.000812993 0.00212232 0.000842089)
(-0.00116918 0.0019489 0.000842089)
(-0.00148984 0.00171627 0.000842089)
(-0.00176523 0.00143148 0.000842089)
(-0.00198699 0.00110321 0.000842089)
(-0.00214837 0.000741411 0.000842088)
(-0.00224448 0.000357086 0.000842088)
(-0.00227239 -3.80881e-05 0.000842089)
(-0.00223125 -0.000432105 0.000842089)
(-0.00212232 -0.000812993 0.000842089)
(-0.0019489 -0.00116918 0.000842089)
(-0.00171627 -0.00148984 0.000842089)
(-0.00143148 -0.00176523 0.000842089)
(-0.00110321 -0.00198699 0.000842089)
(-0.000741411 -0.00214837 0.000842088)
(-0.000357086 -0.00224448 0.000842088)
(3.8088e-05 -0.00227239 0.000842089)
(0.000240616 -0.00235755 0.000941221)
(0.000646346 -0.00227995 0.000941221)
(0.00103244 -0.00213308 0.00094122)
(0.00138716 -0.00192139 0.00094122)
(0.00169973 -0.00165132 0.00094122)
(0.00196066 -0.00133108 0.000941221)
(0.00216201 -0.000970397 0.000941221)
(0.00229767 -0.000580226 0.00094122)
(0.00236352 -0.000172424 0.000941221)
(0.00235755 0.000240616 0.000941221)
(0.00227995 0.000646346 0.000941221)
(0.00213308 0.00103244 0.00094122)
(0.00192139 0.00138716 0.00094122)
(0.00165132 0.00169973 0.00094122)
(0.00133108 0.00196066 0.000941221)
(0.000970397 0.00216201 0.000941221)
(0.000580226 0.00229767 0.00094122)
(0.000172424 0.00236352 0.000941221)
(-0.000240616 0.00235755 0.000941221)
(-0.000646346 0.00227995 0.000941221)
(-0.00103244 0.00213308 0.00094122)
(-0.00138716 0.00192139 0.00094122)
(-0.00169973 0.00165132 0.00094122)
(-0.00196066 0.00133108 0.000941221)
(-0.00216201 0.000970397 0.000941221)
(-0.00229767 0.000580226 0.00094122)
(-0.00236352 0.000172424 0.000941221)
(-0.00235755 -0.000240616 0.000941221)
(-0.00227995 -0.000646346 0.000941221)
(-0.00213308 -0.00103244 0.00094122)
(-0.00192139 -0.00138716 0.00094122)
(-0.00165132 -0.00169973 0.00094122)
(-0.00133108 -0.00196066 0.000941221)
(-0.000970397 -0.00216201 0.000941221)
(-0.000580226 -0.00229767 0.00094122)
(-0.000172424 -0.00236352 0.000941221)
(0.000582276 -0.00267385 0.00102755)
(0.00103774 -0.00253212 0.00102755)
(0.00146167 -0.00231345 0.00102755)
(0.00184119 -0.00202448 0.00102755)
(0.00216477 -0.00167401 0.00102755)
(0.00242257 -0.00127267 0.00102755)
(0.00260676 -0.00083266 0.00102755)
(0.00271175 -0.00036735 0.00102755)
(0.00273434 0.00010912 0.00102755)
(0.00267385 0.000582276 0.00102755)
(0.00253212 0.00103774 0.00102755)
(0.00231345 0.00146167 0.00102755)
(0.00202448 0.00184119 0.00102755)
(0.00167401 0.00216477 0.00102755)
(0.00127267 0.00242257 0.00102755)
(0.00083266 0.00260676 0.00102755)
(0.00036735 0.00271175 0.00102755)
(-0.00010912 0.00273434 0.00102755)
(-0.000582276 0.00267385 0.00102755)
(-0.00103774 0.00253212 0.00102755)
(-0.00146167 0.00231345 0.00102755)
(-0.00184119 0.00202448 0.00102755)
(-0.00216477 0.00167401 0.00102755)
(-0.00242257 0.00127267 0.00102755)
(-0.00260676 0.00083266 0.00102755)
(-0.00271175 0.00036735 0.00102755)
(-0.00273434 -0.00010912 0.00102755)
(-0.00267385 -0.000582276 0.00102755)
(-0.00253212 -0.00103774 0.00102755)
(-0.00231345 -0.00146167 0.00102755)
(-0.00202448 -0.00184119 0.00102755)
(-0.00167401 -0.00216477 0.00102755)
(-0.00127267 -0.00242257 0.00102755)
(-0.00083266 -0.00260676 0.00102755)
(-0.00036735 -0.00271175 0.00102755)
(0.00010912 -0.00273434 0.00102755)
(0.000418245 -0.00278132 0.00114277)
(0.000894863 -0.00266644 0.00114277)
(0.00134429 -0.00247054 0.00114277)
(0.00175287 -0.00219957 0.00114277)
(0.00210819 -0.00186177 0.00114277)
(0.00239946 -0.00146741 0.00114277)
(0.00261782 -0.00102845 0.00114277)
(0.00275664 -0.000558247 0.00114277)
(0.0028117 -7.10812e-05 0.00114277)
(0.00278132 0.000418245 0.00114277)
(0.00266644 0.000894863 0.00114277)
(0.00247054 0.00134429 0.00114277)
(0.00219957 0.00175287 0.00114277)
(0.00186177 0.00210819 0.00114277)
(0.00146741 0.00239946 0.00114277)
(0.00102845 0.00261782 0.00114277)
(0.000558247 0.00275664 0.00114277)
(7.10812e-05 0.0028117 0.00114277)
(-0.000418245 0.00278132 0.00114277)
(-0.000894863 0.00266644 0.00114277)
(-0.00134429 0.00247054 0.00114277)
(-0.00175287 0.00219957 0.00114277)
(-0.00210819 0.00186177 0.00114277)
(-0.00239946 0.00146741 0.00114277)
(-0.00261782 0.00102845 0.00114277)
(-0.00275664 0.000558247 0.00114277)
(-0.0028117 7.10812e-05 0.00114277)
(-0.00278132 -0.000418245 0.00114277)
(-0.00266644 -0.000894863 0.00114277)
(-0.00247054 -0.00134429 0.00114277)
(-0.00219957 -0.00175287 0.00114277)
(-0.00186177 -0.00210819 0.00114277)
(-0.00146741 -0.00239946 0.00114277)
(-0.00102845 -0.00261782 0.00114277)
(-0.000558247 -0.00275664 0.00114277)
(-7.10812e-05 -0.0028117 0.00114277)
(0.000226093 -0.00287578 0.00123766)
(0.000722032 -0.00279283 0.00123766)
(0.00119603 -0.00262502 0.00123766)
(0.00163369 -0.00237745 0.00123766)
(0.00202171 -0.00205765 0.00123766)
(0.00234831 -0.00167532 0.00123766)
(0.00260355 -0.00124209 0.00123766)
(0.00277968 -0.000771119 0.00123766)
(0.00287135 -0.000276717 0.00123766)
(0.00287578 0.000226093 0.00123766)
(0.00279283 0.000722032 0.00123766)
(0.00262502 0.00119603 0.00123766)
(0.00237745 0.00163369 0.00123766)
(0.00205765 0.00202171 0.00123766)
(0.00167532 0.00234831 0.00123766)
(0.00124209 0.00260355 0.00123766)
(0.000771119 0.00277968 0.00123766)
(0.000276717 0.00287135 0.00123766)
(-0.000226093 0.00287578 0.00123766)
(-0.000722032 0.00279283 0.00123766)
(-0.00119603 0.00262502 0.00123766)
(-0.00163369 0.00237745 0.00123766)
(-0.00202171 0.00205765 0.00123766)
(-0.00234831 0.00167532 0.00123766)
(-0.00260355 0.00124209 0.00123766)
(-0.00277968 0.000771119 0.00123766)
(-0.00287135 0.000276717 0.00123766)
(-0.00287578 -0.000226093 0.00123766)
(-0.00279283 -0.000722032 0.00123766)
(-0.00262502 -0.00119603 0.00123766)
(-0.00237745 -0.00163369 0.00123766)
(-0.00205765 -0.00202171 0.00123766)
(-0.00167532 -0.00234831 0.00123766)
(-0.00124209 -0.00260355 0.00123766)
(-0.000771119 -0.00277968 0.00123766)
(-0.000276717 -0.00287135 0.00123766)
(0.000514672 -0.00319386 0.00133893)
(0.00106146 -0.00305597 0.00133893)
(0.001576 -0.00282522 0.00133893)
(0.00204265 -0.00250863 0.00133893)
(0.00244724 -0.00211582 0.00133893)
(0.00277747 -0.00165872 0.00133893)
(0.00302331 -0.00115121 0.00133893)
(0.00317728 -0.000608733 0.00133893)
(0.00323472 -4.77562e-05 0.00133893)
(0.00319386 0.000514672 0.00133893)
(0.00305597 0.00106146 0.00133893)
(0.00282522 0.001576 0.00133893)
(0.00250863 0.00204265 0.00133893)
(0.00211582 0.00244724 0.00133893)
(0.00165872 0.00277747 0.00133893)
(0.00115121 0.00302331 0.00133893)
(0.000608733 0.00317728 0.00133893)
(4.77562e-05 0.00323472 0.00133893)
(-0.000514672 0.00319386 0.00133893)
(-0.00106146 0.00305597 0.00133893)
(-0.001576 0.00282522 0.00133893)
(-0.00204265 0.00250863 0.00133893)
(-0.00244724 0.00211582 0.00133893)
(-0.00277747 0.00165872 0.00133893)
(-0.00302331 0.00115121 0.00133893)
(-0.00317728 0.000608733 0.00133893)
(-0.00323472 4.77562e-05 0.00133893)
(-0.00319386 -0.000514672 0.00133893)
(-0.00305597 -0.00106146 0.00133893)
(-0.00282522 -0.001576 0.00133893)
(-0.00250863 -0.00204265 0.00133893)
(-0.00211582 -0.00244724 0.00133893)
(-0.00165872 -0.00277747 0.00133893)
(-0.00115121 -0.00302331 0.00133893)
(-0.000608733 -0.00317728 0.00133893)
(-4.77562e-05 -0.00323472 0.00133893)
(0.000349935 -0.0032537 0.00144074)
(0.000909618 -0.0031435 0.00144074)
(0.00144166 -0.00293779 0.00144074)
(0.0019299 -0.00264282 0.00144074)
(0.0023595 -0.00226754 0.00144074)
(0.00271741 -0.00182337 0.00144074)
(0.00299275 -0.0013238 0.00144074)
(0.00317716 -0.000784 0.00144074)
(0.00326503 -0.00022038 0.00144074)
(0.0032537 0.000349935 0.00144074)
(0.0031435 0.000909618 0.00144074)
(0.00293779 0.00144166 0.00144074)
(0.00264282 0.0019299 0.00144074)
(0.00226754 0.0023595 0.00144074)
(0.00182337 0.00271741 0.00144074)
(0.0013238 0.00299275 0.00144074)
(0.000784 0.00317716 0.00144074)
(0.00022038 0.00326503 0.00144074)
(-0.000349935 0.0032537 0.00144074)
(-0.000909618 0.0031435 0.00144074)
(-0.00144166 0.00293779 0.00144074)
(-0.0019299 0.00264282 0.00144074)
(-0.0023595 0.00226754 0.00144074)
(-0.00271741 0.00182337 0.00144074)
(-0.00299275 0.0013238 0.00144074)
(-0.00317716 0.000784 0.00144074)
(-0.00326503 0.00022038 0.00144074)
(-0.0032537 -0.000349935 0.00144074)
(-0.0031435 -0.000909618 0.00144074)
(-0.00293779 -0.00144166 0.00144074)
(-0.00264282 -0.0019299 0.00144074)
(-0.00226754 -0.0023595 0.00144074)
(-0.00182337 -0.00271741 0.00144074)
(-0.0013238 -0.00299275 0.00144074)
(-0.000784 -0.00317716 0.00144074)
(-0.00022038 -0.00326503 0.00144074)
(0.000163234 -0.00330293 0.00152221)
(0.000734302 -0.0032244 0.00152221)
(0.00128306 -0.00304791 0.00152221)
(0.00179283 -0.0027788 0.00152221)
(0.00224813 -0.00242527 0.00152221)
(0.00263512 -0.00199804 0.00152221)
(0.00294204 -0.0015101 0.00152221)
(0.00315957 -0.000976279 0.00152221)
(0.0032811 -0.000412794 0.00152221)
(0.00330293 0.000163234 0.00152221)
(0.0032244 0.000734302 0.00152221)
(0.00304791 0.00128306 0.00152221)
(0.0027788 0.00179283 0.00152221)
(0.00242527 0.00224813 0.00152221)
(0.00199804 0.00263512 0.00152221)
(0.0015101 0.00294204 0.00152221)
(0.000976279 0.00315957 0.00152221)
(0.000412794 0.0032811 0.00152221)
(-0.000163234 0.00330293 0.00152221)
(-0.000734302 0.0032244 0.00152221)
(-0.00128306 0.00304791 0.00152221)
(-0.00179283 0.0027788 0.00152221)
(-0.00224813 0.00242527 0.00152221)
(-0.00263512 0.00199804 0.00152221)
(-0.00294204 0.0015101 0.00152221)
(-0.00315957 0.000976279 0.00152221)
(-0.0032811 0.000412794 0.00152221)
(-0.00330293 -0.000163234 0.00152221)
(-0.0032244 -0.000734302 0.00152221)
(-0.00304791 -0.00128306 0.00152221)
(-0.0027788 -0.00179283 0.00152221)
(-0.00242527 -0.00224813 0.00152221)
(-0.00199804 -0.00263512 0.00152221)
(-0.0015101 -0.00294204 0.00152221)
(-0.000976279 -0.00315957 0.00152221)
(-0.000412794 -0.0032811 0.00152221)
(0.000410561 -0.00362104 0.00165883)
(0.00103311 -0.00349473 0.00165883)
(0.00162427 -0.00326224 0.00165883)
(0.00216608 -0.00293063 0.00165883)
(0.00264207 -0.00250997 0.00165883)
(0.00303778 -0.00201305 0.00165883)
(0.00334119 -0.00145496 0.00165883)
(0.00354309 -0.000852666 0.00165883)
(0.00363732 -0.000224462 0.00165883)
(0.00362104 0.000410561 0.00165883)
(0.00349473 0.00103311 0.00165883)
(0.00326224 0.00162427 0.00165883)
(0.00293063 0.00216608 0.00165883)
(0.00250997 0.00264207 0.00165883)
(0.00201305 0.00303778 0.00165883)
(0.00145496 0.00334119 0.00165883)
(0.000852666 0.00354309 0.00165883)
(0.000224462 0.00363732 0.00165883)
(-0.000410561 0.00362104 0.00165883)
(-0.00103311 0.00349473 0.00165883)
(-0.00162427 0.00326224 0.00165883)
(-0.00216608 0.00293063 0.00165883)
(-0.00264207 0.00250997 0.00165883)
(-0.00303778 0.00201305 0.00165883)
(-0.00334119 0.00145496 0.00165883)
(-0.00354309 0.000852666 0.00165883)
(-0.00363732 0.000224462 0.00165883)
(-0.00362104 -0.000410561 0.00165883)
(-0.00349473 -0.00103311 0.00165883)
(-0.00326224 -0.00162427 0.00165883)
(-0.00293063 -0.00216608 0.00165883)
(-0.00250997 -0.00264207 0.00165883)
(-0.00201305 -0.00303778 0.00165883)
(-0.00145496 -0.00334119 0.00165883)
(-0.000852666 -0.00354309 0.00165883)
(-0.000224462 -0.00363732 0.00165883)
(0.00024421 -0.003625 0.0017396)
(0.000869975 -0.00352752 0.0017396)
(0.0014693 -0.00332286 0.0017396)
(0.00202399 -0.00301723 0.0017396)
(0.00251718 -0.00261993 0.0017396)
(0.00293388 -0.00214303 0.0017396)
(0.00326145 -0.00160101 0.0017396)
(0.00348991 -0.00101034 0.0017396)
(0.00361233 -0.000388974 0.0017396)
(0.003625 0.00024421 0.0017396)
(0.00352752 0.000869975 0.0017396)
(0.00332286 0.0014693 0.0017396)
(0.00301723 0.00202399 0.0017396)
(0.00261993 0.00251718 0.0017396)
(0.00214303 0.00293388 0.0017396)
(0.00160101 0.00326145 0.0017396)
(0.00101034 0.00348991 0.0017396)
(0.000388974 0.00361233 0.0017396)
(-0.00024421 0.003625 0.0017396)
(-0.000869975 0.00352752 0.0017396)
(-0.0014693 0.00332286 0.0017396)
(-0.00202399 0.00301723 0.0017396)
(-0.00251718 0.00261993 0.0017396)
(-0.00293388 0.00214303 0.0017396)
(-0.00326145 0.00160101 0.0017396)
(-0.00348991 0.00101034 0.0017396)
(-0.00361233 0.000388974 0.0017396)
(-0.003625 -0.00024421 0.0017396)
(-0.00352752 -0.000869975 0.0017396)
(-0.00332286 -0.0014693 0.0017396)
(-0.00301723 -0.00202399 0.0017396)
(-0.00261993 -0.00251718 0.0017396)
(-0.00214303 -0.00293388 0.0017396)
(-0.00160101 -0.00326145 0.0017396)
(-0.00101034 -0.00348991 0.0017396)
(-0.000388974 -0.00361233 0.0017396)
(6.33162e-05 -0.00362279 0.00179941)
(0.000691444 -0.00355675 0.00179941)
(0.00129856 -0.00338265 0.00179941)
(0.00186623 -0.00310577 0.00179941)
(0.00237718 -0.00273452 0.00179941)
(0.00281591 -0.00228018 0.00179941)
(0.00316908 -0.00175656 0.00179941)
(0.00342596 -0.00117957 0.00179941)
(0.00357874 -0.000566737 0.00179941)
(0.00362279 6.33162e-05 0.00179941)
(0.00355675 0.000691444 0.00179941)
(0.00338265 0.00129856 0.00179941)
(0.00310577 0.00186623 0.00179941)
(0.00273452 0.00237718 0.00179941)
(0.00228018 0.00281591 0.00179941)
(0.00175656 0.00316908 0.00179941)
(0.00117957 0.00342596 0.00179941)
(0.000566737 0.00357874 0.00179941)
(-6.33162e-05 0.00362279 0.00179941)
(-0.000691444 0.00355675 0.00179941)
(-0.00129856 0.00338265 0.00179941)
(-0.00186623 0.00310577 0.00179941)
(-0.00237718 0.00273452 0.00179941)
(-0.00281591 0.00228018 0.00179941)
(-0.00316908 0.00175656 0.00179941)
(-0.00342596 0.00117957 0.00179941)
(-0.00357874 0.000566737 0.00179941)
(-0.00362279 -6.33162e-05 0.00179941)
(-0.00355675 -0.000691444 0.00179941)
(-0.00338265 -0.00129856 0.00179941)
(-0.00310577 -0.00186623 0.00179941)
(-0.00273452 -0.00237718 0.00179941)
(-0.00228018 -0.00281591 0.00179941)
(-0.00175656 -0.00316908 0.00179941)
(-0.00117957 -0.00342596 0.00179941)
(-0.000566737 -0.00357874 0.00179941)
(0.000296302 -0.00393004 0.0019991)
(0.000974246 -0.00381889 0.0019991)
(0.00162259 -0.00359169 0.0019991)
(0.00222163 -0.00325537 0.0019991)
(0.00275316 -0.00282013 0.0019991)
(0.00320105 -0.0022992 0.0019991)
(0.00355167 -0.00170842 0.0019991)
(0.00379438 -0.00106572 0.0019991)
(0.00392179 -0.000390642 0.0019991)
(0.00393004 0.000296302 0.0019991)
(0.00381889 0.000974246 0.0019991)
(0.00359169 0.00162259 0.0019991)
(0.00325537 0.00222163 0.0019991)
(0.00282013 0.00275316 0.0019991)
(0.0022992 0.00320105 0.0019991)
(0.00170842 0.00355167 0.0019991)
(0.00106572 0.00379438 0.0019991)
(0.000390642 0.00392179 0.0019991)
(-0.000296302 0.00393004 0.0019991)
(-0.000974246 0.00381889 0.0019991)
(-0.00162259 0.00359169 0.0019991)
(-0.00222163 0.00325537 0.0019991)
(-0.00275316 0.00282013 0.0019991)
(-0.00320105 0.0022992 0.0019991)
(-0.00355167 0.00170842 0.0019991)
(-0.00379438 0.00106572 0.0019991)
(-0.00392179 0.000390642 0.0019991)
(-0.00393004 -0.000296302 0.0019991)
(-0.00381889 -0.000974246 0.0019991)
(-0.00359169 -0.00162259 0.0019991)