/*--------------------------------*- C++ -*----------------------------------*\
| =========                 |                                                 |
| \\      /  F ield         | OpenFOAM: The Open Source CFD Toolbox           |
|  \\    /   O peration     | Version:  2312                                  |
|   \\  /    A nd           | Website:  www.openfoam.com                      |
|    \\/     M anipulation  |                                                 |
\*---------------------------------------------------------------------------*/
FoamFile
{
    version     2.0;
    format      ascii;
    arch        "LSB;label=32;scalar=64";
    class       volTensorField;
    location    "0.8";
    object      F;
}
// * * * * * * * * * * * * * * * * * * * * * * * * * * * * * * * * * * * * * //

dimensions      [0 0 0 0 0 0 0];

internalField   nonuniform List<tensor> 
1620
(
(1.05785 0.0362723 -0.100637 0.0437551 1.02187 0.308143 -0.0282981 -0.00247561 0.92277)
(1.04308 0.0400128 -0.152616 0.0474955 1.03664 0.285986 -0.0274381 -0.00735185 0.92277)
(1.02792 0.038476 -0.199959 0.0459586 1.0518 0.25514 -0.0257446 -0.012005 0.922769)
(1.0142 0.031847 -0.241226 0.0393298 1.06552 0.216541 -0.0232691 -0.0162933 0.922769)
(1.00358 0.0209253 -0.275163 0.0284085 1.07614 0.171363 -0.0200863 -0.0200863 0.922769)
(0.99733 0.00702855 -0.30074 0.0145118 1.08239 0.120978 -0.0162931 -0.0232692 0.922769)
(0.996211 -0.00816728 -0.317178 -0.000683946 1.08351 0.0669174 -0.012005 -0.0257452 0.92277)
(1.00036 -0.0228291 -0.32398 -0.0153458 1.07936 0.0108233 -0.00735219 -0.0274386 0.92277)
(1.00927 -0.0351886 -0.320937 -0.0277056 1.07045 -0.0455995 -0.0024759 -0.0282982 0.92277)
(1.02187 -0.0437551 -0.308143 -0.0362723 1.05785 -0.100637 0.00247561 -0.0282981 0.92277)
(1.03664 -0.0474955 -0.285986 -0.0400128 1.04308 -0.152616 0.00735185 -0.0274381 0.92277)
(1.0518 -0.0459586 -0.25514 -0.038476 1.02792 -0.199959 0.012005 -0.0257446 0.922769)
(1.06552 -0.0393298 -0.216541 -0.031847 1.0142 -0.241226 0.0162933 -0.0232691 0.922769)
(1.07614 -0.0284085 -0.171363 -0.0209253 1.00358 -0.275163 0.0200863 -0.0200863 0.922769)
(1.08239 -0.0145118 -0.120978 -0.00702855 0.99733 -0.30074 0.0232692 -0.0162931 0.922769)
(1.08351 0.000683946 -0.0669174 0.00816728 0.996211 -0.317178 0.0257452 -0.012005 0.92277)
(1.07936 0.0153458 -0.0108233 0.0228291 1.00036 -0.32398 0.0274386 -0.00735219 0.92277)
(1.07045 0.0277056 0.0455995 0.0351886 1.00927 -0.320937 0.0282982 -0.0024759 0.92277)
(1.05785 0.0362723 0.100637 0.0437551 1.02187 -0.308143 0.0282981 0.00247561 0.92277)
(1.04308 0.0400128 0.152616 0.0474955 1.03664 -0.285986 0.0274381 0.00735185 0.92277)
(1.02792 0.038476 0.199959 0.0459586 1.0518 -0.25514 0.0257446 0.012005 0.922769)
(1.0142 0.031847 0.241226 0.0393298 1.06552 -0.216541 0.0232691 0.0162933 0.922769)
(1.00358 0.0209253 0.275163 0.0284085 1.07614 -0.171363 0.0200863 0.0200863 0.922769)
(0.99733 0.00702855 0.30074 0.0145118 1.08239 -0.120978 0.0162931 0.0232692 0.922769)
(0.996211 -0.00816728 0.317178 -0.000683946 1.08351 -0.0669174 0.012005 0.0257452 0.92277)
(1.00036 -0.0228291 0.32398 -0.0153458 1.07936 -0.0108233 0.00735219 0.0274386 0.92277)
(1.00927 -0.0351886 0.320937 -0.0277056 1.07045 0.0455995 0.0024759 0.0282982 0.92277)
(1.02187 -0.0437551 0.308143 -0.0362723 1.05785 0.100637 -0.00247561 0.0282981 0.92277)
(1.03664 -0.0474955 0.285986 -0.0400128 1.04308 0.152616 -0.00735185 0.0274381 0.92277)
(1.0518 -0.0459586 0.25514 -0.038476 1.02792 0.199959 -0.012005 0.0257446 0.922769)
(1.06552 -0.0393298 0.216541 -0.031847 1.0142 0.241226 -0.0162933 0.0232691 0.922769)
(1.07614 -0.0284085 0.171363 -0.0209253 1.00358 0.275163 -0.0200863 0.0200863 0.922769)
(1.08239 -0.0145118 0.120978 -0.00702855 0.99733 0.30074 -0.0232692 0.0162931 0.922769)
(1.08351 0.000683946 0.0669174 0.00816728 0.996211 0.317178 -0.0257452 0.012005 0.92277)
(1.07936 0.0153458 0.0108233 0.0228291 1.00036 0.32398 -0.0274386 0.00735219 0.92277)
(1.07045 0.0277056 -0.0455995 0.0351886 1.00927 0.320937 -0.0282982 0.0024759 0.92277)
(1.07549 0.0472166 -0.0786987 0.0434721 1.01664 0.344667 -0.0220692 -0.00193075 0.894005)
(1.05821 0.0545461 -0.137354 0.0508014 1.03393 0.325765 -0.0213984 -0.00573353 0.894005)
(1.03946 0.0555222 -0.191835 0.0517776 1.05268 0.296964 -0.0200777 -0.00936235 0.894005)
(1.02151 0.0500273 -0.240488 0.0462829 1.07063 0.259141 -0.0181471 -0.0127068 0.894004)
(1.00652 0.038724 -0.281834 0.0349797 1.08562 0.213443 -0.0156649 -0.0156648 0.894004)
(0.996304 0.022976 -0.314617 0.0192316 1.09583 0.16126 -0.0127066 -0.0181471 0.894005)
(0.992087 0.00468258 -0.337839 0.000938411 1.10005 0.104178 -0.00936239 -0.0200781 0.894005)
(0.994382 -0.0139499 -0.350797 -0.017694 1.09776 0.0439302 -0.00573377 -0.0213989 0.894005)
(1.00291 -0.0306738 -0.353096 -0.0344182 1.08923 -0.0176524 -0.00193082 -0.0220693 0.894005)
(1.01664 -0.0434721 -0.344667 -0.0472166 1.07549 -0.0786987 0.00193075 -0.0220692 0.894005)
(1.03393 -0.0508014 -0.325765 -0.0545461 1.05821 -0.137354 0.00573353 -0.0213984 0.894005)
(1.05268 -0.0517776 -0.296964 -0.0555222 1.03946 -0.191835 0.00936235 -0.0200777 0.894005)
(1.07063 -0.0462829 -0.259141 -0.0500273 1.02151 -0.240488 0.0127068 -0.0181471 0.894004)
(1.08562 -0.0349797 -0.213443 -0.038724 1.00652 -0.281834 0.0156648 -0.0156649 0.894004)
(1.09583 -0.0192316 -0.16126 -0.022976 0.996304 -0.314617 0.0181471 -0.0127066 0.894005)
(1.10005 -0.000938411 -0.104178 -0.00468258 0.992087 -0.337839 0.0200781 -0.00936239 0.894005)
(1.09776 0.017694 -0.0439302 0.0139499 0.994382 -0.350797 0.0213989 -0.00573377 0.894005)
(1.08923 0.0344182 0.0176524 0.0306738 1.00291 -0.353096 0.0220693 -0.00193082 0.894005)
(1.07549 0.0472166 0.0786987 0.0434721 1.01664 -0.344667 0.0220692 0.00193075 0.894005)
(1.05821 0.0545461 0.137354 0.0508014 1.03393 -0.325765 0.0213984 0.00573353 0.894005)
(1.03946 0.0555222 0.191835 0.0517776 1.05268 -0.296964 0.0200777 0.00936235 0.894005)
(1.02151 0.0500273 0.240488 0.0462829 1.07063 -0.259141 0.0181471 0.0127068 0.894004)
(1.00652 0.038724 0.281834 0.0349797 1.08562 -0.213443 0.0156649 0.0156648 0.894004)
(0.996304 0.022976 0.314617 0.0192316 1.09583 -0.16126 0.0127066 0.0181471 0.894005)
(0.992087 0.00468258 0.337839 0.000938411 1.10005 -0.104178 0.00936239 0.0200781 0.894005)
(0.994382 -0.0139499 0.350797 -0.017694 1.09776 -0.0439302 0.00573377 0.0213989 0.894005)
(1.00291 -0.0306738 0.353096 -0.0344182 1.08923 0.0176524 0.00193082 0.0220693 0.894005)
(1.01664 -0.0434721 0.344667 -0.0472166 1.07549 0.0786987 -0.00193075 0.0220692 0.894005)
(1.03393 -0.0508014 0.325765 -0.0545461 1.05821 0.137354 -0.00573353 0.0213984 0.894005)
(1.05268 -0.0517776 0.296964 -0.0555222 1.03946 0.191835 -0.00936235 0.0200777 0.894005)
(1.07063 -0.0462829 0.259141 -0.0500273 1.02151 0.240488 -0.0127068 0.0181471 0.894004)
(1.08562 -0.0349797 0.213443 -0.038724 1.00652 0.281834 -0.0156648 0.0156649 0.894004)
(1.09583 -0.0192316 0.16126 -0.022976 0.996304 0.314617 -0.0181471 0.0127066 0.894005)
(1.10005 -0.000938411 0.104178 -0.00468258 0.992087 0.337839 -0.0200781 0.00936239 0.894005)
(1.09776 0.017694 0.0439302 0.0139499 0.994382 0.350797 -0.0213989 0.00573377 0.894005)
(1.08923 0.0344182 -0.0176524 0.0306738 1.00291 0.353096 -0.0220693 0.00193082 0.894005)
(1.09364 0.0604176 -0.0529681 0.0428123 1.00469 0.379436 -0.0151484 -0.00132541 0.868452)
(1.07331 0.0725161 -0.118052 0.0549108 1.02503 0.364474 -0.0146878 -0.00393553 0.868452)
(1.05006 0.0769301 -0.179548 0.0593247 1.04827 0.338437 -0.0137814 -0.00642617 0.868452)
(1.0267 0.0731269 -0.23559 0.0555211 1.07163 0.302117 -0.0124562 -0.0087219 0.868452)
(1.00606 0.0615647 -0.284473 0.0439594 1.09227 0.256617 -0.0107522 -0.0107523 0.868452)
(0.990613 0.0436388 -0.324712 0.0260337 1.10772 0.203321 -0.00872173 -0.012456 0.868452)
(0.982229 0.0215115 -0.355086 0.00390623 1.1161 0.143846 -0.00642643 -0.0137814 0.868452)
(0.98192 -0.00214899 -0.37467 -0.0197543 1.11641 0.080001 -0.00393575 -0.0146883 0.868452)
(0.989721 -0.0244883 -0.38287 -0.0420937 1.10861 0.013725 -0.00132523 -0.0151485 0.868452)
(1.00469 -0.0428123 -0.379436 -0.0604176 1.09364 -0.0529681 0.00132541 -0.0151484 0.868452)
(1.02503 -0.0549108 -0.364474 -0.0725161 1.07331 -0.118052 0.00393553 -0.0146878 0.868452)
(1.04827 -0.0593247 -0.338437 -0.0769301 1.05006 -0.179548 0.00642617 -0.0137814 0.868452)
(1.07163 -0.0555211 -0.302117 -0.0731269 1.0267 -0.23559 0.0087219 -0.0124562 0.868452)
(1.09227 -0.0439594 -0.256617 -0.0615647 1.00606 -0.284473 0.0107523 -0.0107522 0.868452)
(1.10772 -0.0260337 -0.203321 -0.0436388 0.990613 -0.324712 0.012456 -0.00872173 0.868452)
(1.1161 -0.00390623 -0.143846 -0.0215115 0.982229 -0.355086 0.0137814 -0.00642643 0.868452)
(1.11641 0.0197543 -0.080001 0.00214899 0.98192 -0.37467 0.0146883 -0.00393575 0.868452)
(1.10861 0.0420937 -0.013725 0.0244883 0.989721 -0.38287 0.0151485 -0.00132523 0.868452)
(1.09364 0.0604176 0.0529681 0.0428123 1.00469 -0.379436 0.0151484 0.00132541 0.868452)
(1.07331 0.0725161 0.118052 0.0549108 1.02503 -0.364474 0.0146878 0.00393553 0.868452)
(1.05006 0.0769301 0.179548 0.0593247 1.04827 -0.338437 0.0137814 0.00642617 0.868452)
(1.0267 0.0731269 0.23559 0.0555211 1.07163 -0.302117 0.0124562 0.0087219 0.868452)
(1.00606 0.0615647 0.284473 0.0439594 1.09227 -0.256617 0.0107522 0.0107523 0.868452)
(0.990613 0.0436388 0.324712 0.0260337 1.10772 -0.203321 0.00872173 0.012456 0.868452)
(0.982229 0.0215115 0.355086 0.00390623 1.1161 -0.143846 0.00642643 0.0137814 0.868452)
(0.98192 -0.00214899 0.37467 -0.0197543 1.11641 -0.080001 0.00393575 0.0146883 0.868452)
(0.989721 -0.0244883 0.38287 -0.0420937 1.10861 -0.013725 0.00132523 0.0151485 0.868452)
(1.00469 -0.0428123 0.379436 -0.0604176 1.09364 0.0529681 -0.00132541 0.0151484 0.868452)
(1.02503 -0.0549108 0.364474 -0.0725161 1.07331 0.118052 -0.00393553 0.0146878 0.868452)
(1.04827 -0.0593247 0.338437 -0.0769301 1.05006 0.179548 -0.00642617 0.0137814 0.868452)
(1.07163 -0.0555211 0.302117 -0.0731269 1.0267 0.23559 -0.0087219 0.0124562 0.868452)
(1.09227 -0.0439594 0.256617 -0.0615647 1.00606 0.284473 -0.0107523 0.0107522 0.868452)
(1.10772 -0.0260337 0.203321 -0.0436388 0.990613 0.324712 -0.012456 0.00872173 0.868452)
(1.1161 -0.00390623 0.143846 -0.0215115 0.982229 0.355086 -0.0137814 0.00642643 0.868452)
(1.11641 0.0197543 0.080001 0.00214899 0.98192 0.37467 -0.0146883 0.00393575 0.868452)
(1.10861 0.0420937 0.013725 0.0244883 0.989721 0.38287 -0.0151485 0.00132523 0.868452)
(1.09237 0.101834 -0.0865985 0.111425 1.04929 0.315866 -0.0849263 -0.00742978 0.895292)
(1.0546 0.10277 -0.140132 0.112361 1.08706 0.296029 -0.0823457 -0.0220641 0.895291)
(1.01879 0.0907317 -0.189408 0.100323 1.12287 0.267198 -0.0772632 -0.0360282 0.895291)
(0.989254 0.0671713 -0.232929 0.0767623 1.1524 0.230249 -0.0698332 -0.0488975 0.895291)
(0.969559 0.0349303 -0.269373 0.0445217 1.1721 0.186303 -0.0602808 -0.060281 0.895291)
(0.962079 -0.00210212 -0.297632 0.00748939 1.17958 0.136696 -0.0488971 -0.0698336 0.895291)
(0.967716 -0.0394594 -0.316847 -0.0298676 1.17394 0.0829365 -0.0360283 -0.0772644 0.895291)
(0.98579 -0.0726353 -0.326435 -0.0630436 1.15587 0.0266565 -0.0220648 -0.0823465 0.895291)
(1.01412 -0.097629 -0.326105 -0.0880374 1.12754 -0.0304334 -0.00743041 -0.0849266 0.895292)
(1.04929 -0.111425 -0.315866 -0.101834 1.09237 -0.0865985 0.00742978 -0.0849263 0.895292)
(1.08706 -0.112361 -0.296029 -0.10277 1.0546 -0.140132 0.0220641 -0.0823457 0.895291)
(1.12287 -0.100323 -0.267198 -0.0907317 1.01879 -0.189408 0.0360282 -0.0772632 0.895291)
(1.1524 -0.0767623 -0.230249 -0.0671713 0.989254 -0.232929 0.0488975 -0.0698332 0.895291)
(1.1721 -0.0445217 -0.186303 -0.0349303 0.969559 -0.269373 0.060281 -0.0602808 0.895291)
(1.17958 -0.00748939 -0.136696 0.00210212 0.962079 -0.297632 0.0698336 -0.0488971 0.895291)
(1.17394 0.0298676 -0.0829365 0.0394594 0.967716 -0.316847 0.0772644 -0.0360283 0.895291)
(1.15587 0.0630436 -0.0266565 0.0726353 0.98579 -0.326435 0.0823465 -0.0220648 0.895291)
(1.12754 0.0880374 0.0304334 0.097629 1.01412 -0.326105 0.0849266 -0.00743041 0.895292)
(1.09237 0.101834 0.0865985 0.111425 1.04929 -0.315866 0.0849263 0.00742978 0.895292)
(1.0546 0.10277 0.140132 0.112361 1.08706 -0.296029 0.0823457 0.0220641 0.895291)
(1.01879 0.0907317 0.189408 0.100323 1.12287 -0.267198 0.0772632 0.0360282 0.895291)
(0.989254 0.0671713 0.232929 0.0767623 1.1524 -0.230249 0.0698332 0.0488975 0.895291)
(0.969559 0.0349303 0.269373 0.0445217 1.1721 -0.186303 0.0602808 0.060281 0.895291)
(0.962079 -0.00210212 0.297632 0.00748939 1.17958 -0.136696 0.0488971 0.0698336 0.895291)
(0.967716 -0.0394594 0.316847 -0.0298676 1.17394 -0.0829365 0.0360283 0.0772644 0.895291)
(0.98579 -0.0726353 0.326435 -0.0630436 1.15587 -0.0266565 0.0220648 0.0823465 0.895291)
(1.01412 -0.097629 0.326105 -0.0880374 1.12754 0.0304334 0.00743041 0.0849266 0.895292)
(1.04929 -0.111425 0.315866 -0.101834 1.09237 0.0865985 -0.00742978 0.0849263 0.895292)
(1.08706 -0.112361 0.296029 -0.10277 1.0546 0.140132 -0.0220641 0.0823457 0.895291)
(1.12287 -0.100323 0.267198 -0.0907317 1.01879 0.189408 -0.0360282 0.0772632 0.895291)
(1.1524 -0.0767623 0.230249 -0.0671713 0.989254 0.232929 -0.0488975 0.0698332 0.895291)
(1.1721 -0.0445217 0.186303 -0.0349303 0.969559 0.269373 -0.060281 0.0602808 0.895291)
(1.17958 -0.00748939 0.136696 0.00210212 0.962079 0.297632 -0.0698336 0.0488971 0.895291)
(1.17394 0.0298676 0.0829365 0.0394594 0.967716 0.316847 -0.0772644 0.0360283 0.895291)
(1.15587 0.0630436 0.0266565 0.0726353 0.98579 0.326435 -0.0823465 0.0220648 0.895291)
(1.12754 0.0880374 -0.0304334 0.097629 1.01412 0.326105 -0.0849266 0.00743041 0.895292)
(1.112 0.128497 -0.0656652 0.110244 1.0418 0.344587 -0.0757844 -0.00663013 0.872789)
(1.06905 0.133302 -0.124504 0.115049 1.08475 0.327949 -0.0734815 -0.019689 0.872789)
(1.02706 0.123129 -0.179561 0.104876 1.12675 0.301346 -0.0689461 -0.0321498 0.872789)
(0.991072 0.0992063 -0.229161 0.0809535 1.16273 0.265588 -0.0623158 -0.0436338 0.872789)
(0.965439 0.0644182 -0.271799 0.0461655 1.18836 0.221759 -0.0537918 -0.0537919 0.872789)
(0.95325 0.022961 -0.306178 0.00470846 1.20055 0.171193 -0.0436337 -0.0623161 0.872789)
(0.955975 -0.0201649 -0.331253 -0.0384167 1.19783 0.115425 -0.0321501 -0.068947 0.872789)
(0.973286 -0.0597575 -0.346264 -0.0780095 1.18052 0.0561503 -0.0196895 -0.0734824 0.87279)
(1.00309 -0.0910416 -0.350754 -0.109294 1.15071 -0.00483088 -0.00663038 -0.0757846 0.87279)
(1.0418 -0.110244 -0.344587 -0.128497 1.112 -0.0656652 0.00663013 -0.0757844 0.872789)
(1.08475 -0.115049 -0.327949 -0.133302 1.06905 -0.124504 0.019689 -0.0734815 0.872789)
(1.12675 -0.104876 -0.301346 -0.123129 1.02706 -0.179561 0.0321498 -0.0689461 0.872789)
(1.16273 -0.0809535 -0.265588 -0.0992063 0.991072 -0.229161 0.0436338 -0.0623158 0.872789)
(1.18836 -0.0461655 -0.221759 -0.0644182 0.965439 -0.271799 0.0537919 -0.0537918 0.872789)
(1.20055 -0.00470846 -0.171193 -0.022961 0.95325 -0.306178 0.0623161 -0.0436337 0.872789)
(1.19783 0.0384167 -0.115425 0.0201649 0.955975 -0.331253 0.068947 -0.0321501 0.872789)
(1.18052 0.0780095 -0.0561503 0.0597575 0.973286 -0.346264 0.0734824 -0.0196895 0.87279)
(1.15071 0.109294 0.00483088 0.0910416 1.00309 -0.350754 0.0757846 -0.00663038 0.87279)
(1.112 0.128497 0.0656652 0.110244 1.0418 -0.344587 0.0757844 0.00663013 0.872789)
(1.06905 0.133302 0.124504 0.115049 1.08475 -0.327949 0.0734815 0.019689 0.872789)
(1.02706 0.123129 0.179561 0.104876 1.12675 -0.301346 0.0689461 0.0321498 0.872789)
(0.991072 0.0992063 0.229161 0.0809535 1.16273 -0.265588 0.0623158 0.0436338 0.872789)
(0.965439 0.0644182 0.271799 0.0461655 1.18836 -0.221759 0.0537918 0.0537919 0.872789)
(0.95325 0.022961 0.306178 0.00470846 1.20055 -0.171193 0.0436337 0.0623161 0.872789)
(0.955975 -0.0201649 0.331253 -0.0384167 1.19783 -0.115425 0.0321501 0.068947 0.872789)
(0.973286 -0.0597575 0.346264 -0.0780095 1.18052 -0.0561503 0.0196895 0.0734824 0.87279)
(1.00309 -0.0910416 0.350754 -0.109294 1.15071 0.00483088 0.00663038 0.0757846 0.87279)
(1.0418 -0.110244 0.344587 -0.128497 1.112 0.0656652 -0.00663013 0.0757844 0.872789)
(1.08475 -0.115049 0.327949 -0.133302 1.06905 0.124504 -0.019689 0.0734815 0.872789)
(1.12675 -0.104876 0.301346 -0.123129 1.02706 0.179561 -0.0321498 0.0689461 0.872789)
(1.16273 -0.0809535 0.265588 -0.0992063 0.991072 0.229161 -0.0436338 0.0623158 0.872789)
(1.18836 -0.0461655 0.221759 -0.0644182 0.965439 0.271799 -0.0537919 0.0537918 0.872789)
(1.20055 -0.00470846 0.171193 -0.022961 0.95325 0.306178 -0.0623161 0.0436337 0.872789)
(1.19783 0.0384167 0.115425 0.0201649 0.955975 0.331253 -0.068947 0.0321501 0.872789)
(1.18052 0.0780095 0.0561503 0.0597575 0.973286 0.346264 -0.0734824 0.0196895 0.87279)
(1.15071 0.109294 -0.00483088 0.0910416 1.00309 0.350754 -0.0757846 0.00663038 0.87279)
(1.13213 0.160851 -0.0437219 0.107061 1.02605 0.371366 -0.0656545 -0.00574404 0.851916)
(1.08311 0.170912 -0.107545 0.117122 1.07507 0.358132 -0.0636592 -0.0170573 0.851916)
(1.03361 0.163603 -0.1681 0.109813 1.12456 0.334016 -0.05973 -0.0278523 0.851916)
(0.989598 0.139805 -0.223548 0.0860143 1.16858 0.299752 -0.053986 -0.0378013 0.851916)
(0.956377 0.102388 -0.272203 0.0485974 1.2018 0.256379 -0.0466015 -0.0466016 0.851916)
(0.937957 0.0558647 -0.312588 0.00207509 1.22022 0.205217 -0.0378014 -0.0539861 0.851916)
(0.93656 0.00584792 -0.343474 -0.0479416 1.22162 0.147819 -0.0278528 -0.0597307 0.851916)
(0.952354 -0.0416303 -0.363924 -0.0954197 1.20582 0.0859295 -0.0170575 -0.06366 0.851916)
(0.983434 -0.0808429 -0.373317 -0.134633 1.17474 0.0214294 -0.00574395 -0.0656545 0.851916)
(1.02605 -0.107061 -0.371366 -0.160851 1.13213 -0.0437219 0.00574404 -0.0656545 0.851916)
(1.07507 -0.117122 -0.358132 -0.170912 1.08311 -0.107545 0.0170573 -0.0636592 0.851916)
(1.12456 -0.109813 -0.334016 -0.163603 1.03361 -0.1681 0.0278523 -0.05973 0.851916)
(1.16858 -0.0860143 -0.299752 -0.139805 0.989598 -0.223548 0.0378013 -0.053986 0.851916)
(1.2018 -0.0485974 -0.256379 -0.102388 0.956377 -0.272203 0.0466016 -0.0466015 0.851916)
(1.22022 -0.00207509 -0.205217 -0.0558647 0.937957 -0.312588 0.0539861 -0.0378014 0.851916)
(1.22162 0.0479416 -0.147819 -0.00584792 0.93656 -0.343474 0.0597307 -0.0278528 0.851916)
(1.20582 0.0954197 -0.0859295 0.0416303 0.952354 -0.363924 0.06366 -0.0170575 0.851916)
(1.17474 0.134633 -0.0214294 0.0808429 0.983434 -0.373317 0.0656545 -0.00574395 0.851916)
(1.13213 0.160851 0.0437219 0.107061 1.02605 -0.371366 0.0656545 0.00574404 0.851916)
(1.08311 0.170912 0.107545 0.117122 1.07507 -0.358132 0.0636592 0.0170573 0.851916)
(1.03361 0.163603 0.1681 0.109813 1.12456 -0.334016 0.05973 0.0278523 0.851916)
(0.989598 0.139805 0.223548 0.0860143 1.16858 -0.299752 0.053986 0.0378013 0.851916)
(0.956377 0.102388 0.272203 0.0485974 1.2018 -0.256379 0.0466015 0.0466016 0.851916)
(0.937957 0.0558647 0.312588 0.00207509 1.22022 -0.205217 0.0378014 0.0539861 0.851916)
(0.93656 0.00584792 0.343474 -0.0479416 1.22162 -0.147819 0.0278528 0.0597307 0.851916)
(0.952354 -0.0416303 0.363924 -0.0954197 1.20582 -0.0859295 0.0170575 0.06366 0.851916)
(0.983434 -0.0808429 0.373317 -0.134633 1.17474 -0.0214294 0.00574395 0.0656545 0.851916)
(1.02605 -0.107061 0.371366 -0.160851 1.13213 0.0437219 -0.00574404 0.0656545 0.851916)
(1.07507 -0.117122 0.358132 -0.170912 1.08311 0.107545 -0.0170573 0.0636592 0.851916)
(1.12456 -0.109813 0.334016 -0.163603 1.03361 0.1681 -0.0278523 0.05973 0.851916)
(1.16858 -0.0860143 0.299752 -0.139805 0.989598 0.223548 -0.0378013 0.053986 0.851916)
(1.2018 -0.0485974 0.256379 -0.102388 0.956377 0.272203 -0.0466016 0.0466015 0.851916)
(1.22022 -0.00207509 0.205217 -0.0558647 0.937957 0.312588 -0.0539861 0.0378014 0.851916)
(1.22162 0.0479416 0.147819 -0.00584792 0.93656 0.343474 -0.0597307 0.0278528 0.851916)
(1.20582 0.0954197 0.0859295 0.0416303 0.952354 0.363924 -0.06366 0.0170575 0.851916)
(1.17474 0.134633 0.0214294 0.0808429 0.983434 0.373317 -0.0656545 0.00574395 0.851916)
(1.12399 0.168774 -0.0563252 0.149631 1.06856 0.317462 -0.116496 -0.0101915 0.862517)
(1.06787 0.168652 -0.110596 0.149508 1.12468 0.302858 -0.112955 -0.0302657 0.862517)
(1.01517 0.149342 -0.161507 0.130199 1.17738 0.279053 -0.105983 -0.0494205 0.862517)
(0.972257 0.113174 -0.20751 0.0940309 1.22029 0.246768 -0.0957913 -0.0670738 0.862517)
(0.944302 0.0645099 -0.247208 0.045367 1.24824 0.206985 -0.0826885 -0.082689 0.862518)
(0.934677 0.00921943 -0.279395 -0.00992322 1.25787 0.160913 -0.0670735 -0.0957921 0.862518)
(0.944543 -0.0460284 -0.303093 -0.0651711 1.248 0.109952 -0.0494209 -0.105985 0.862517)
(0.972709 -0.0945698 -0.317582 -0.113713 1.21984 0.0556501 -0.0302665 -0.112956 0.862517)
(1.01578 -0.13055 -0.32242 -0.149694 1.17677 -0.000342747 -0.0101922 -0.116496 0.862517)
(1.06856 -0.149631 -0.317462 -0.168774 1.12399 -0.0563252 0.0101915 -0.116496 0.862517)
(1.12468 -0.149508 -0.302858 -0.168652 1.06787 -0.110596 0.0302657 -0.112955 0.862517)
(1.17738 -0.130199 -0.279053 -0.149342 1.01517 -0.161507 0.0494205 -0.105983 0.862517)
(1.22029 -0.0940309 -0.246768 -0.113174 0.972257 -0.20751 0.0670738 -0.0957913 0.862517)
(1.24824 -0.045367 -0.206985 -0.0645099 0.944302 -0.247208 0.082689 -0.0826885 0.862518)
(1.25787 0.00992322 -0.160913 -0.00921943 0.934677 -0.279395 0.0957921 -0.0670735 0.862518)
(1.248 0.0651711 -0.109952 0.0460284 0.944543 -0.303093 0.105985 -0.0494209 0.862517)
(1.21984 0.113713 -0.0556501 0.0945698 0.972709 -0.317582 0.112956 -0.0302665 0.862517)
(1.17677 0.149694 0.000342747 0.13055 1.01578 -0.32242 0.116496 -0.0101922 0.862517)
(1.12399 0.168774 0.0563252 0.149631 1.06856 -0.317462 0.116496 0.0101915 0.862517)
(1.06787 0.168652 0.110596 0.149508 1.12468 -0.302858 0.112955 0.0302657 0.862517)
(1.01517 0.149342 0.161507 0.130199 1.17738 -0.279053 0.105983 0.0494205 0.862517)
(0.972257 0.113174 0.20751 0.0940309 1.22029 -0.246768 0.0957913 0.0670738 0.862517)
(0.944302 0.0645099 0.247208 0.045367 1.24824 -0.206985 0.0826885 0.082689 0.862518)
(0.934677 0.00921943 0.279395 -0.00992322 1.25787 -0.160913 0.0670735 0.0957921 0.862518)
(0.944543 -0.0460284 0.303093 -0.0651711 1.248 -0.109952 0.0494209 0.105985 0.862517)
(0.972709 -0.0945698 0.317582 -0.113713 1.21984 -0.0556501 0.0302665 0.112956 0.862517)
(1.01578 -0.13055 0.32242 -0.149694 1.17677 0.000342747 0.0101922 0.116496 0.862517)
(1.06856 -0.149631 0.317462 -0.168774 1.12399 0.0563252 -0.0101915 0.116496 0.862517)
(1.12468 -0.149508 0.302858 -0.168652 1.06787 0.110596 -0.0302657 0.112955 0.862517)
(1.17738 -0.130199 0.279053 -0.149342 1.01517 0.161507 -0.0494205 0.105983 0.862517)
(1.22029 -0.0940309 0.246768 -0.113174 0.972257 0.20751 -0.0670738 0.0957913 0.862517)
(1.24824 -0.045367 0.206985 -0.0645099 0.944302 0.247208 -0.082689 0.0826885 0.862518)
(1.25787 0.00992322 0.160913 -0.00921943 0.934677 0.279395 -0.0957921 0.0670735 0.862518)
(1.248 0.0651711 0.109952 0.0460284 0.944543 0.303093 -0.105985 0.0494209 0.862517)
(1.21984 0.113713 0.0556501 0.0945698 0.972709 0.317582 -0.112956 0.0302665 0.862517)
(1.17677 0.149694 -0.000342747 0.13055 1.01578 0.32242 -0.116496 0.0101922 0.862517)
(1.14072 0.206668 -0.0419786 0.147297 1.05833 0.329798 -0.107811 -0.009432 0.850265)
(1.07771 0.210084 -0.0986098 0.150713 1.12135 0.317498 -0.104535 -0.0280097 0.850265)
(1.01732 0.191741 -0.152245 0.13237 1.18173 0.295551 -0.0980827 -0.0457366 0.850265)
(0.966852 0.153851 -0.201254 0.094481 1.2322 0.264624 -0.0886505 -0.0620737 0.850265)
(0.932386 0.100986 -0.244148 0.0416155 1.26667 0.225657 -0.0765245 -0.0765248 0.850266)
(0.91808 0.03952 -0.279623 -0.0198499 1.28097 0.179833 -0.0620737 -0.088651 0.850265)
(0.925659 -0.0231316 -0.306603 -0.0825013 1.2734 0.128545 -0.045737 -0.0980838 0.850265)
(0.954209 -0.0794126 -0.324267 -0.138783 1.24485 0.0733507 -0.0280102 -0.104536 0.850265)
(1.00029 -0.122535 -0.332077 -0.181905 1.19877 0.015928 -0.00943238 -0.107812 0.850265)
(1.05833 -0.147297 -0.329798 -0.206668 1.14072 -0.0419786 0.009432 -0.107811 0.850265)
(1.12135 -0.150713 -0.317498 -0.210084 1.07771 -0.0986098 0.0280097 -0.104535 0.850265)
(1.18173 -0.13237 -0.295551 -0.191741 1.01732 -0.152245 0.0457366 -0.0980827 0.850265)
(1.2322 -0.094481 -0.264624 -0.153851 0.966852 -0.201254 0.0620737 -0.0886505 0.850265)
(1.26667 -0.0416155 -0.225657 -0.100986 0.932386 -0.244148 0.0765248 -0.0765245 0.850266)
(1.28097 0.0198499 -0.179833 -0.03952 0.91808 -0.279623 0.088651 -0.0620737 0.850265)
(1.2734 0.0825013 -0.128545 0.0231316 0.925659 -0.306603 0.0980838 -0.045737 0.850265)
(1.24485 0.138783 -0.0733507 0.0794126 0.954209 -0.324267 0.104536 -0.0280102 0.850265)
(1.19877 0.181905 -0.015928 0.122535 1.00029 -0.332077 0.107812 -0.00943238 0.850265)
(1.14072 0.206668 0.0419786 0.147297 1.05833 -0.329798 0.107811 0.009432 0.850265)
(1.07771 0.210084 0.0986098 0.150713 1.12135 -0.317498 0.104535 0.0280097 0.850265)
(1.01732 0.191741 0.152245 0.13237 1.18173 -0.295551 0.0980827 0.0457366 0.850265)
(0.966852 0.153851 0.201254 0.094481 1.2322 -0.264624 0.0886505 0.0620737 0.850265)
(0.932386 0.100986 0.244148 0.0416155 1.26667 -0.225657 0.0765245 0.0765248 0.850266)
(0.91808 0.03952 0.279623 -0.0198499 1.28097 -0.179833 0.0620737 0.088651 0.850265)
(0.925659 -0.0231316 0.306603 -0.0825013 1.2734 -0.128545 0.045737 0.0980838 0.850265)
(0.954209 -0.0794126 0.324267 -0.138783 1.24485 -0.0733507 0.0280102 0.104536 0.850265)
(1.00029 -0.122535 0.332077 -0.181905 1.19877 -0.015928 0.00943238 0.107812 0.850265)
(1.05833 -0.147297 0.329798 -0.206668 1.14072 0.0419786 -0.009432 0.107811 0.850265)
(1.12135 -0.150713 0.317498 -0.210084 1.07771 0.0986098 -0.0280097 0.104535 0.850265)
(1.18173 -0.13237 0.295551 -0.191741 1.01732 0.152245 -0.0457366 0.0980827 0.850265)
(1.2322 -0.094481 0.264624 -0.153851 0.966852 0.201254 -0.0620737 0.0886505 0.850265)
(1.26667 -0.0416155 0.225657 -0.100986 0.932386 0.244148 -0.0765248 0.0765245 0.850266)
(1.28097 0.0198499 0.179833 -0.03952 0.91808 0.279623 -0.088651 0.0620737 0.850265)
(1.2734 0.0825013 0.128545 0.0231316 0.925659 0.306603 -0.0980838 0.045737 0.850265)
(1.24485 0.138783 0.0733507 0.0794126 0.954209 0.324267 -0.104536 0.0280102 0.850265)
(1.19877 0.181905 0.015928 0.122535 1.00029 0.332077 -0.107812 0.00943238 0.850265)
(1.15753 0.252412 -0.0296874 0.141432 1.03969 0.340948 -0.0974422 -0.00852504 0.837857)
(1.08662 0.260687 -0.0884414 0.149707 1.11059 0.330613 -0.0944811 -0.0253161 0.837857)
(1.01716 0.244213 -0.144508 0.133232 1.18005 0.310232 -0.0886493 -0.0413378 0.837857)
(0.957527 0.204975 -0.196184 0.093995 1.23969 0.280426 -0.0801243 -0.0561036 0.837857)
(0.914908 0.147707 -0.241899 0.0367275 1.28231 0.242098 -0.0691647 -0.0691648 0.837857)
(0.894446 0.0793168 -0.280264 -0.0316628 1.30277 0.196415 -0.0561038 -0.0801247 0.837857)
(0.89861 0.00805272 -0.310113 -0.102927 1.29861 0.144764 -0.0413382 -0.0886502 0.837857)
(0.926895 -0.0574898 -0.33054 -0.168469 1.27032 0.0887141 -0.0253163 -0.0944818 0.837857)
(0.975892 -0.109405 -0.340923 -0.220385 1.22132 0.0299687 -0.00852507 -0.0974425 0.837857)
(1.03969 -0.141432 -0.340948 -0.252412 1.15753 -0.0296874 0.00852504 -0.0974422 0.837857)
(1.11059 -0.149707 -0.330613 -0.260687 1.08662 -0.0884414 0.0253161 -0.0944811 0.837857)
(1.18005 -0.133232 -0.310232 -0.244213 1.01716 -0.144508 0.0413378 -0.0886493 0.837857)
(1.23969 -0.093995 -0.280426 -0.204975 0.957527 -0.196184 0.0561036 -0.0801243 0.837857)
(1.28231 -0.0367275 -0.242098 -0.147707 0.914908 -0.241899 0.0691648 -0.0691647 0.837857)
(1.30277 0.0316628 -0.196415 -0.0793168 0.894446 -0.280264 0.0801247 -0.0561038 0.837857)
(1.29861 0.102927 -0.144764 -0.00805272 0.89861 -0.310113 0.0886502 -0.0413382 0.837857)
(1.27032 0.168469 -0.0887141 0.0574898 0.926895 -0.33054 0.0944818 -0.0253163 0.837857)
(1.22132 0.220385 -0.0299687 0.109405 0.975892 -0.340923 0.0974425 -0.00852507 0.837857)
(1.15753 0.252412 0.0296874 0.141432 1.03969 -0.340948 0.0974422 0.00852504 0.837857)
(1.08662 0.260687 0.0884414 0.149707 1.11059 -0.330613 0.0944811 0.0253161 0.837857)
(1.01716 0.244213 0.144508 0.133232 1.18005 -0.310232 0.0886493 0.0413378 0.837857)
(0.957527 0.204975 0.196184 0.093995 1.23969 -0.280426 0.0801243 0.0561036 0.837857)
(0.914908 0.147707 0.241899 0.0367275 1.28231 -0.242098 0.0691647 0.0691648 0.837857)
(0.894446 0.0793168 0.280264 -0.0316628 1.30277 -0.196415 0.0561038 0.0801247 0.837857)
(0.89861 0.00805272 0.310113 -0.102927 1.29861 -0.144764 0.0413382 0.0886502 0.837857)
(0.926895 -0.0574898 0.33054 -0.168469 1.27032 -0.0887141 0.0253163 0.0944818 0.837857)
(0.975892 -0.109405 0.340923 -0.220385 1.22132 -0.0299687 0.00852507 0.0974425 0.837857)
(1.03969 -0.141432 0.340948 -0.252412 1.15753 0.0296874 -0.00852504 0.0974422 0.837857)
(1.11059 -0.149707 0.330613 -0.260687 1.08662 0.0884414 -0.0253161 0.0944811 0.837857)
(1.18005 -0.133232 0.310232 -0.244213 1.01716 0.144508 -0.0413378 0.0886493 0.837857)
(1.23969 -0.093995 0.280426 -0.204975 0.957527 0.196184 -0.0561036 0.0801243 0.837857)
(1.28231 -0.0367275 0.242098 -0.147707 0.914908 0.241899 -0.0691648 0.0691647 0.837857)
(1.30277 0.0316628 0.196415 -0.0793168 0.894446 0.280264 -0.0801247 0.0561038 0.837857)
(1.29861 0.102927 0.144764 -0.00805272 0.89861 0.310113 -0.0886502 0.0413382 0.837857)
(1.27032 0.168469 0.0887141 0.0574898 0.926895 0.33054 -0.0944818 0.0253163 0.837857)
(1.22132 0.220385 0.0299687 0.109405 0.975892 0.340923 -0.0974425 0.00852507 0.837857)
(1.13758 0.236135 -0.0218707 0.154085 1.0764 0.305249 -0.13117 -0.0114754 0.851934)
(1.069 0.23483 -0.0745442 0.15278 1.14498 0.296813 -0.127183 -0.0340784 0.851934)
(1.00501 0.210149 -0.124953 0.128099 1.20897 0.27936 -0.119334 -0.0556462 0.851934)
(0.953311 0.165069 -0.171565 0.0830194 1.26067 0.253418 -0.107858 -0.0755231 0.851934)
(0.920154 0.105028 -0.212964 0.022978 1.29382 0.219776 -0.0931049 -0.0931054 0.851934)
(0.909531 0.0372667 -0.247892 -0.0447827 1.30445 0.179456 -0.0755231 -0.107859 0.851934)
(0.922724 -0.0300407 -0.275289 -0.11209 1.29125 0.133684 -0.0556465 -0.119335 0.851934)