/*--------------------------------*- C++ -*----------------------------------*\
| =========                 |                                                 |
| \\      /  F ield         | OpenFOAM: The Open Source CFD Toolbox           |
|  \\    /   O peration     | Version:  2312                                  |
|   \\  /    A nd           | Website:  www.openfoam.com                      |
|    \\/     M anipulation  |                                                 |
\*---------------------------------------------------------------------------*/
FoamFile
{
    version     2.0;
    format      ascii;
    arch        "LSB;label=32;scalar=64";
    class       volSymmTensorField;
    location    "0.8";
    object      sigma;
}
// * * * * * * * * * * * * * * * * * * * * * * * * * * * * * * * * * * * * * //

dimensions      [1 -1 -2 0 0 0 0];

internalField   nonuniform List<symmTensor> 
1620
(
(-5645.5 1177.53 -2497.87 4782.06 -18602.6 29682.7)
(-5733.84 -676.697 770.395 4870.33 -18753.8 29682.6)
(-5182.64 -2449.32 4015.28 4319.15 -18335.1 29682.6)
(-4058.41 -3926.43 7138.02 3194.85 -17359.2 29682.8)
(-2496.87 -4930 10044 1633.13 -15856 29682.8)
(-686.149 -5338.97 12644.8 -177.56 -13871 29682.7)
(1155.52 -5104.04 14861.4 -2018.72 -11464.5 29682.7)
(2805.46 -4253.4 16626.4 -3668.69 -8709.71 29682.8)
(4064.93 -2889.74 17886.3 -4928.29 -5690.24 29682.7)
(4782.06 -1177.53 18602.6 -5645.5 -2497.87 29682.7)
(4870.33 676.697 18753.8 -5733.84 770.395 29682.6)
(4319.15 2449.32 18335.1 -5182.64 4015.28 29682.6)
(3194.85 3926.43 17359.2 -4058.41 7138.02 29682.8)
(1633.13 4930 15856 -2496.87 10044 29682.8)
(-177.56 5338.97 13871 -686.149 12644.8 29682.7)
(-2018.72 5104.04 11464.5 1155.52 14861.4 29682.7)
(-3668.69 4253.4 8709.71 2805.46 16626.4 29682.8)
(-4928.29 2889.74 5690.24 4064.93 17886.3 29682.7)
(-5645.5 1177.53 2497.87 4782.06 18602.6 29682.7)
(-5733.84 -676.697 -770.395 4870.33 18753.8 29682.6)
(-5182.64 -2449.32 -4015.28 4319.15 18335.1 29682.6)
(-4058.41 -3926.43 -7138.02 3194.85 17359.2 29682.8)
(-2496.87 -4930 -10044 1633.13 15856 29682.8)
(-686.149 -5338.97 -12644.8 -177.56 13871 29682.7)
(1155.52 -5104.04 -14861.4 -2018.72 11464.5 29682.7)
(2805.46 -4253.4 -16626.4 -3668.69 8709.71 29682.8)
(4064.93 -2889.74 -17886.3 -4928.29 5690.24 29682.7)
(4782.06 -1177.53 -18602.6 -5645.5 2497.87 29682.7)
(4870.33 676.697 -18753.8 -5733.84 -770.395 29682.6)
(4319.15 2449.32 -18335.1 -5182.64 -4015.28 29682.6)
(3194.85 3926.43 -17359.2 -4058.41 -7138.02 29682.8)
(1633.13 4930 -15856 -2496.87 -10044 29682.8)
(-177.56 5338.97 -13871 -686.149 -12644.8 29682.7)
(-2018.72 5104.04 -11464.5 1155.52 -14861.4 29682.7)
(-3668.69 4253.4 -8709.71 2805.46 -16626.4 29682.8)
(-4928.29 2889.74 -5690.24 4064.93 -17886.3 29682.7)
(-25713.1 -3086.67 254.73 21419.7 -5026.63 -25937.2)
(-23236.1 -10960.7 1123.73 18942.8 -4906.02 -25937.1)
(-18215.5 -17512.7 1958.56 13922.2 -4636.32 -25937.1)
(-11256.8 -21952.4 2733.99 6963.33 -4225.94 -25937.2)
(-3199.27 -23744.3 3426.38 -1094.25 -3687.09 -25937.1)
(4985.41 -22672.4 4014.47 -9278.68 -3036 -25937)
(12309.8 -18865.8 4480.51 -16602.9 -2292.69 -25937)
(17890.4 -12783.7 4810.61 -22183.6 -1479.84 -25937)
(21054.2 -5159.63 4994.49 -25347.6 -622.001 -25937.1)
(21419.7 3086.67 5026.63 -25713.1 254.73 -25937.2)
(18942.8 10960.7 4906.02 -23236.1 1123.73 -25937.1)
(13922.2 17512.7 4636.32 -18215.5 1958.56 -25937.1)
(6963.33 21952.4 4225.94 -11256.8 2733.99 -25937.2)
(-1094.25 23744.3 3687.09 -3199.27 3426.38 -25937.1)
(-9278.68 22672.4 3036 4985.41 4014.47 -25937)
(-16602.9 18865.8 2292.69 12309.8 4480.51 -25937)
(-22183.6 12783.7 1479.84 17890.4 4810.61 -25937)
(-25347.6 5159.63 622.001 21054.2 4994.49 -25937.1)
(-25713.1 -3086.67 -254.73 21419.7 5026.63 -25937.2)
(-23236.1 -10960.7 -1123.73 18942.8 4906.02 -25937.1)
(-18215.5 -17512.7 -1958.56 13922.2 4636.32 -25937.1)
(-11256.8 -21952.4 -2733.99 6963.33 4225.94 -25937.2)
(-3199.27 -23744.3 -3426.38 -1094.25 3687.09 -25937.1)
(4985.41 -22672.4 -4014.47 -9278.68 3036 -25937)
(12309.8 -18865.8 -4480.51 -16602.9 2292.69 -25937)
(17890.4 -12783.7 -4810.61 -22183.6 1479.84 -25937)
(21054.2 -5159.63 -4994.49 -25347.6 622.001 -25937.1)
(21419.7 3086.67 -5026.63 -25713.1 -254.73 -25937.2)
(18942.8 10960.7 -4906.02 -23236.1 -1123.73 -25937.1)
(13922.2 17512.7 -4636.32 -18215.5 -1958.56 -25937.1)
(6963.33 21952.4 -4225.94 -11256.8 -2733.99 -25937.2)
(-1094.25 23744.3 -3687.09 -3199.27 -3426.38 -25937.1)
(-9278.68 22672.4 -3036 4985.41 -4014.47 -25937)
(-16602.9 18865.8 -2292.69 12309.8 -4480.51 -25937)
(-22183.6 12783.7 -1479.84 17890.4 -4810.61 -25937)
(-25347.6 5159.63 -622.001 21054.2 -4994.49 -25937.1)
(-49782.2 -3689.79 -5313.62 -31965.9 24636.7 -19823.3)
(-47983.1 -6514.06 -9511.04 -33765.1 23339.7 -19823.3)
(-45326.3 -8552.6 -13419.4 -36421.7 21333.6 -19823.2)
(-42132.6 -9559.62 -16920.1 -39615.3 18679.2 -19823.2)
(-38787.2 -9413.66 -19906.7 -42960.9 15457.3 -19823.6)
(-35693.5 -8132.11 -22288.4 -46054.7 11765.7 -19823.3)
(-33224.7 -5869.8 -23992.8 -48523.7 7716.62 -19823.3)
(-31678.2 -2899.52 -24968.3 -50069.8 3433.06 -19823.3)
(-31241 420.503 -25185.2 -50506.9 -954.793 -19823.3)
(-31965.9 3689.79 -24636.7 -49782.2 -5313.62 -19823.3)
(-33765.1 6514.06 -23339.7 -47983.1 -9511.04 -19823.3)
(-36421.7 8552.6 -21333.6 -45326.3 -13419.4 -19823.2)
(-39615.3 9559.62 -18679.2 -42132.6 -16920.1 -19823.2)
(-42960.9 9413.66 -15457.3 -38787.2 -19906.7 -19823.6)
(-46054.7 8132.11 -11765.7 -35693.5 -22288.4 -19823.3)
(-48523.7 5869.8 -7716.62 -33224.7 -23992.8 -19823.3)
(-50069.8 2899.52 -3433.06 -31678.2 -24968.3 -19823.3)
(-50506.9 -420.503 954.793 -31241 -25185.2 -19823.3)
(-49782.2 -3689.79 5313.62 -31965.9 -24636.7 -19823.3)
(-47983.1 -6514.06 9511.04 -33765.1 -23339.7 -19823.3)
(-45326.3 -8552.6 13419.4 -36421.7 -21333.6 -19823.2)
(-42132.6 -9559.62 16920.1 -39615.3 -18679.2 -19823.2)
(-38787.2 -9413.66 19906.7 -42960.9 -15457.3 -19823.6)
(-35693.5 -8132.11 22288.4 -46054.7 -11765.7 -19823.3)
(-33224.7 -5869.8 23992.8 -48523.7 -7716.62 -19823.3)
(-31678.2 -2899.52 24968.3 -50069.8 -3433.06 -19823.3)
(-31241 420.503 25185.2 -50506.9 954.793 -19823.3)
(-31965.9 3689.79 24636.7 -49782.2 5313.62 -19823.3)
(-33765.1 6514.06 23339.7 -47983.1 9511.04 -19823.3)
(-36421.7 8552.6 21333.6 -45326.3 13419.4 -19823.2)
(-39615.3 9559.62 18679.2 -42132.6 16920.1 -19823.2)
(-42960.9 9413.66 15457.3 -38787.2 19906.7 -19823.6)
(-46054.7 8132.11 11765.7 -35693.5 22288.4 -19823.3)
(-48523.7 5869.8 7716.62 -33224.7 23992.8 -19823.3)
(-50069.8 2899.52 3433.06 -31678.2 24968.3 -19823.3)
(-50506.9 -420.503 -954.793 -31241 25185.2 -19823.3)
(9141.89 973.517 -1282.51 16528.4 -16200.5 46890.9)
(9031.6 -348.334 1550.12 16638.5 -16176.9 46891)
(9380.01 -1628.21 4335.72 16289.9 -15662.1 46890.8)
(10145.4 -2711.59 6989.41 15524.7 -14671.1 46891.2)
(11235 -3467.98 9430.83 14435.1 -13234.5 46891.2)
(12517.6 -3806.08 11585.7 13152.5 -11395.8 46891.2)
(13838.7 -3685.2 13388.7 11831.6 -9210.92 46891)
(15038.3 -3119.69 14784.7 10631.6 -6746.01 46890.9)
(15972.7 -2177.98 15731.7 9697.54 -4076.21 46890.8)
(16528.4 -973.517 16200.5 9141.89 -1282.51 46890.9)
(16638.5 348.334 16176.9 9031.6 1550.12 46891)
(16289.9 1628.21 15662.1 9380.01 4335.72 46890.8)
(15524.7 2711.59 14671.1 10145.4 6989.41 46891.2)
(14435.1 3467.98 13234.5 11235 9430.83 46891.2)
(13152.5 3806.08 11395.8 12517.6 11585.7 46891.2)
(11831.6 3685.2 9210.92 13838.7 13388.7 46891)
(10631.6 3119.69 6746.01 15038.3 14784.7 46890.9)
(9697.54 2177.98 4076.21 15972.7 15731.7 46890.8)
(9141.89 973.517 1282.51 16528.4 16200.5 46890.9)
(9031.6 -348.334 -1550.12 16638.5 16176.9 46891)
(9380.01 -1628.21 -4335.72 16289.9 15662.1 46890.8)
(10145.4 -2711.59 -6989.41 15524.7 14671.1 46891.2)
(11235 -3467.98 -9430.83 14435.1 13234.5 46891.2)
(12517.6 -3806.08 -11585.7 13152.5 11395.8 46891.2)
(13838.7 -3685.2 -13388.7 11831.6 9210.92 46891)
(15038.3 -3119.69 -14784.7 10631.6 6746.01 46890.9)
(15972.7 -2177.98 -15731.7 9697.54 4076.21 46890.8)
(16528.4 -973.517 -16200.5 9141.89 1282.51 46890.9)
(16638.5 348.334 -16176.9 9031.6 -1550.12 46891)
(16289.9 1628.21 -15662.1 9380.01 -4335.72 46890.8)
(15524.7 2711.59 -14671.1 10145.4 -6989.41 46891.2)
(14435.1 3467.98 -13234.5 11235 -9430.83 46891.2)
(13152.5 3806.08 -11395.8 12517.6 -11585.7 46891.2)
(11831.6 3685.2 -9210.92 13838.7 -13388.7 46891)
(10631.6 3119.69 -6746.01 15038.3 -14784.7 46890.9)
(9697.54 2177.98 -4076.21 15972.7 -15731.7 46890.8)
(-6580.07 -1878.24 341.586 40039.4 -6904.79 -7143.81)
(-4531.92 -9737.32 1535.44 37991.2 -6740.75 -7143.72)
(80.7166 -16422 2682.6 33378.6 -6371.63 -7143.74)
(6701.08 -21125.9 3748.34 26757.6 -5809.12 -7143.99)
(14531.5 -23281.7 4700.11 18927.5 -5069.95 -7143.83)
(22626.9 -22629.4 5509.13 10832.2 -4176.79 -7143.78)
(30011 -19247.7 6150.6 3448.11 -3156.62 -7143.83)
(35793.2 -13544.4 6605.39 -2333.89 -2040.65 -7143.7)
(39276 -6207.42 6859.21 -5816.74 -862.61 -7143.83)
(40039.4 1878.24 6904.79 -6580.07 341.586 -7143.81)
(37991.2 9737.32 6740.75 -4531.92 1535.44 -7143.72)
(33378.6 16422 6371.63 80.7166 2682.6 -7143.74)
(26757.6 21125.9 5809.12 6701.08 3748.34 -7143.99)
(18927.5 23281.7 5069.95 14531.5 4700.11 -7143.83)
(10832.2 22629.4 4176.79 22626.9 5509.13 -7143.78)
(3448.11 19247.7 3156.62 30011 6150.6 -7143.83)
(-2333.89 13544.4 2040.65 35793.2 6605.39 -7143.7)
(-5816.74 6207.42 862.61 39276 6859.21 -7143.83)
(-6580.07 -1878.24 -341.586 40039.4 6904.79 -7143.81)
(-4531.92 -9737.32 -1535.44 37991.2 6740.75 -7143.72)
(80.7166 -16422 -2682.6 33378.6 6371.63 -7143.74)
(6701.08 -21125.9 -3748.34 26757.6 5809.12 -7143.99)
(14531.5 -23281.7 -4700.11 18927.5 5069.95 -7143.83)
(22626.9 -22629.4 -5509.13 10832.2 4176.79 -7143.78)
(30011 -19247.7 -6150.6 3448.11 3156.62 -7143.83)
(35793.2 -13544.4 -6605.39 -2333.89 2040.65 -7143.7)
(39276 -6207.42 -6859.21 -5816.74 862.61 -7143.83)
(40039.4 1878.24 -6904.79 -6580.07 -341.586 -7143.81)
(37991.2 9737.32 -6740.75 -4531.92 -1535.44 -7143.72)
(33378.6 16422 -6371.63 80.7166 -2682.6 -7143.74)
(26757.6 21125.9 -5809.12 6701.08 -3748.34 -7143.99)
(18927.5 23281.7 -5069.95 14531.5 -4700.11 -7143.83)
(10832.2 22629.4 -4176.79 22626.9 -5509.13 -7143.78)
(3448.11 19247.7 -3156.62 30011 -6150.6 -7143.83)
(-2333.89 13544.4 -2040.65 35793.2 -6605.39 -7143.7)
(-5816.74 6207.42 -862.61 39276 -6859.21 -7143.83)
(-30039.1 -1235.99 -3409.88 -10738.5 25162.3 -1051.1)
(-29034.4 -4462.06 -7727.46 -11743.2 24187.9 -1051.08)
(-26986.9 -7149.91 -11810.2 -13790.7 22478.6 -1051.04)
(-24143.3 -8975.36 -15534.2 -16633.9 20086.2 -1050.75)
(-20847.3 -9718.34 -18786.1 -19930.2 17083.6 -1051.09)
(-17496 -9289.03 -21467.2 -23281.9 13561.9 -1051.07)
(-14493.4 -7739.41 -23496.1 -26284.5 9628.11 -1051.16)
(-12201.9 -5256.28 -24811 -28575.9 5401.78 -1051.15)
(-10897.8 -2139.15 -25372.1 -29879.9 1011.31 -1051.09)
(-10738.5 1235.99 -25162.3 -30039.1 -3409.88 -1051.1)
(-11743.2 4462.06 -24187.9 -29034.4 -7727.46 -1051.08)
(-13790.7 7149.91 -22478.6 -26986.9 -11810.2 -1051.04)
(-16633.9 8975.36 -20086.2 -24143.3 -15534.2 -1050.75)
(-19930.2 9718.34 -17083.6 -20847.3 -18786.1 -1051.09)
(-23281.9 9289.03 -13561.9 -17496 -21467.2 -1051.07)
(-26284.5 7739.41 -9628.11 -14493.4 -23496.1 -1051.16)
(-28575.9 5256.28 -5401.78 -12201.9 -24811 -1051.15)
(-29879.9 2139.15 -1011.31 -10897.8 -25372.1 -1051.09)
(-30039.1 -1235.99 3409.88 -10738.5 -25162.3 -1051.1)
(-29034.4 -4462.06 7727.46 -11743.2 -24187.9 -1051.08)
(-26986.9 -7149.91 11810.2 -13790.7 -22478.6 -1051.04)
(-24143.3 -8975.36 15534.2 -16633.9 -20086.2 -1050.75)
(-20847.3 -9718.34 18786.1 -19930.2 -17083.6 -1051.09)
(-17496 -9289.03 21467.2 -23281.9 -13561.9 -1051.07)
(-14493.4 -7739.41 23496.1 -26284.5 -9628.11 -1051.16)
(-12201.9 -5256.28 24811 -28575.9 -5401.78 -1051.15)
(-10897.8 -2139.15 25372.1 -29879.9 -1011.31 -1051.09)
(-10738.5 1235.99 25162.3 -30039.1 3409.88 -1051.1)
(-11743.2 4462.06 24187.9 -29034.4 7727.46 -1051.08)
(-13790.7 7149.91 22478.6 -26986.9 11810.2 -1051.04)
(-16633.9 8975.36 20086.2 -24143.3 15534.2 -1050.75)
(-19930.2 9718.34 17083.6 -20847.3 18786.1 -1051.09)
(-23281.9 9289.03 13561.9 -17496 21467.2 -1051.07)
(-26284.5 7739.41 9628.11 -14493.4 23496.1 -1051.16)
(-28575.9 5256.28 5401.78 -12201.9 24811 -1051.15)
(-29879.9 2139.15 1011.31 -10897.8 25372.1 -1051.09)
(6149.03 1107.99 538.519 13194.2 -16077.8 42459.7)
(5982.64 -163.61 3322.21 13360.8 -15740 42459.8)
(6260.96 -1415.49 6004.95 13082.3 -14924 42459.7)
(6950.93 -2496.58 8505.19 12392.5 -13654.4 42460.1)
(7969 -3276.69 10747.2 11374.7 -11970.2 42459.9)
(9192.11 -3661.37 12662.3 10151.1 -9921.97 42460)
(10473.5 -3604.63 14193 8869.99 -7572.52 42459.8)
(11657.8 -3113.03 15292.3 7685.38 -4992.89 42459.8)
(12602.9 -2245.96 15927 6740.57 -2261.54 42459.9)
(13194.2 -1107.99 16077.8 6149.03 538.519 42459.7)
(13360.8 163.61 15740 5982.64 3322.21 42459.8)
(13082.3 1415.49 14924 6260.96 6004.95 42459.7)
(12392.5 2496.58 13654.4 6950.93 8505.19 42460.1)
(11374.7 3276.69 11970.2 7969 10747.2 42459.9)
(10151.1 3661.37 9921.97 9192.11 12662.3 42460)
(8869.99 3604.63 7572.52 10473.5 14193 42459.8)
(7685.38 3113.03 4992.89 11657.8 15292.3 42459.8)
(6740.57 2245.96 2261.54 12602.9 15927 42459.9)
(6149.03 1107.99 -538.519 13194.2 16077.8 42459.7)
(5982.64 -163.61 -3322.21 13360.8 15740 42459.8)
(6260.96 -1415.49 -6004.95 13082.3 14924 42459.7)
(6950.93 -2496.58 -8505.19 12392.5 13654.4 42460.1)
(7969 -3276.69 -10747.2 11374.7 11970.2 42459.9)
(9192.11 -3661.37 -12662.3 10151.1 9921.97 42460)
(10473.5 -3604.63 -14193 8869.99 7572.52 42459.8)
(11657.8 -3113.03 -15292.3 7685.38 4992.89 42459.8)
(12602.9 -2245.96 -15927 6740.57 2261.54 42459.9)
(13194.2 -1107.99 -16077.8 6149.03 -538.519 42459.7)
(13360.8 163.61 -15740 5982.64 -3322.21 42459.8)
(13082.3 1415.49 -14924 6260.96 -6004.95 42459.7)
(12392.5 2496.58 -13654.4 6950.93 -8505.19 42460.1)
(11374.7 3276.69 -11970.2 7969 -10747.2 42459.9)
(10151.1 3661.37 -9921.97 9192.11 -12662.3 42460)
(8869.99 3604.63 -7572.52 10473.5 -14193 42459.8)
(7685.38 3113.03 -4992.89 11657.8 -15292.3 42459.8)
(6740.57 2245.96 -2261.54 12602.9 -15927 42459.9)
(-6737.36 -303.813 340.833 39655.9 -7372.92 -8775.61)
(-5234.72 -8219.21 1615.97 38152.9 -7201.81 -8775.77)
(-1115.08 -15143.2 2842.02 34033.7 -6811.83 -8775.53)
(5123.93 -20240.8 3981.71 27794.3 -6214.83 -8775.67)
(12730.5 -22897 5000.29 20188.2 -5428.87 -8775.55)
(20786.6 -22791.5 5867.18 12132.1 -4478.21 -8775.47)
(28320.6 -19937 6555.67 4597.77 -3391.36 -8775.64)
(34424.2 -14677.8 7044.94 -1505.68 -2201.44 -8775.59)
(38360.9 -7648.23 7320.1 -5442.4 -944.643 -8775.67)
(39655.9 303.813 7372.92 -6737.36 340.833 -8775.61)
(38152.9 8219.21 7201.81 -5234.72 1615.97 -8775.77)
(34033.7 15143.2 6811.83 -1115.08 2842.02 -8775.53)
(27794.3 20240.8 6214.83 5123.93 3981.71 -8775.67)
(20188.2 22897 5428.87 12730.5 5000.29 -8775.55)
(12132.1 22791.5 4478.21 20786.6 5867.18 -8775.47)
(4597.77 19937 3391.36 28320.6 6555.67 -8775.64)
(-1505.68 14677.8 2201.44 34424.2 7044.94 -8775.59)
(-5442.4 7648.23 944.643 38360.9 7320.1 -8775.67)
(-6737.36 -303.813 -340.833 39655.9 7372.92 -8775.61)
(-5234.72 -8219.21 -1615.97 38152.9 7201.81 -8775.77)
(-1115.08 -15143.2 -2842.02 34033.7 6811.83 -8775.53)
(5123.93 -20240.8 -3981.71 27794.3 6214.83 -8775.67)
(12730.5 -22897 -5000.29 20188.2 5428.87 -8775.55)
(20786.6 -22791.5 -5867.18 12132.1 4478.21 -8775.47)
(28320.6 -19937 -6555.67 4597.77 3391.36 -8775.64)
(34424.2 -14677.8 -7044.94 -1505.68 2201.44 -8775.59)
(38360.9 -7648.23 -7320.1 -5442.4 944.643 -8775.67)
(39655.9 303.813 -7372.92 -6737.36 -340.833 -8775.61)
(38152.9 8219.21 -7201.81 -5234.72 -1615.97 -8775.77)
(34033.7 15143.2 -6811.83 -1115.08 -2842.02 -8775.53)
(27794.3 20240.8 -6214.83 5123.93 -3981.71 -8775.67)
(20188.2 22897 -5428.87 12730.5 -5000.29 -8775.55)
(12132.1 22791.5 -4478.21 20786.6 -5867.18 -8775.47)
(4597.77 19937 -3391.36 28320.6 -6555.67 -8775.64)
(-1505.68 14677.8 -2201.44 34424.2 -7044.94 -8775.59)
(-5442.4 7648.23 -944.643 38360.9 -7320.1 -8775.67)
(-29681.7 1657 -1584.49 -9973.92 25295 -2405.09)
(-29654.1 -1813.16 -5952.85 -10001.4 24635.6 -2405.07)
(-28441.6 -5064.61 -10140.3 -11214.3 23227.7 -2405.3)
(-26189.9 -7705.21 -14019.7 -13466 21113.9 -2405.22)
(-23170.9 -9416.48 -17473.1 -16485 18358.7 -2405.28)
(-19748.6 -9991.91 -20395.6 -19907.2 15045.5 -2405.12)
(-16335.8 -9362.22 -22698.4 -23319.7 11275.3 -2405.06)
(-13344.4 -7603.3 -24311.5 -26311.3 7162.49 -2405.2)
(-11135 -4927.29 -25185.9 -28520.8 2832.02 -2405.14)
(-9973.92 -1657 -25295 -29681.7 -1584.49 -2405.09)
(-10001.4 1813.16 -24635.6 -29654.1 -5952.85 -2405.07)
(-11214.3 5064.61 -23227.7 -28441.6 -10140.3 -2405.3)
(-13466 7705.21 -21113.9 -26189.9 -14019.7 -2405.22)
(-16485 9416.48 -18358.7 -23170.9 -17473.1 -2405.28)
(-19907.2 9991.91 -15045.5 -19748.6 -20395.6 -2405.12)
(-23319.7 9362.22 -11275.3 -16335.8 -22698.4 -2405.06)
(-26311.3 7603.3 -7162.49 -13344.4 -24311.5 -2405.2)
(-28520.8 4927.29 -2832.02 -11135 -25185.9 -2405.14)
(-29681.7 1657 1584.49 -9973.92 -25295 -2405.09)
(-29654.1 -1813.16 5952.85 -10001.4 -24635.6 -2405.07)
(-28441.6 -5064.61 10140.3 -11214.3 -23227.7 -2405.3)
(-26189.9 -7705.21 14019.7 -13466 -21113.9 -2405.22)
(-23170.9 -9416.48 17473.1 -16485 -18358.7 -2405.28)
(-19748.6 -9991.91 20395.6 -19907.2 -15045.5 -2405.12)
(-16335.8 -9362.22 22698.4 -23319.7 -11275.3 -2405.06)
(-13344.4 -7603.3 24311.5 -26311.3 -7162.49 -2405.2)
(-11135 -4927.29 25185.9 -28520.8 -2832.02 -2405.14)
(-9973.92 -1657 25295 -29681.7 1584.49 -2405.09)
(-10001.4 1813.16 24635.6 -29654.1 5952.85 -2405.07)
(-11214.3 5064.61 23227.7 -28441.6 10140.3 -2405.3)
(-13466 7705.21 21113.9 -26189.9 14019.7 -2405.22)
(-16485 9416.48 18358.7 -23170.9 17473.1 -2405.28)
(-19907.2 9991.91 15045.5 -19748.6 20395.6 -2405.12)
(-23319.7 9362.22 11275.3 -16335.8 22698.4 -2405.06)
(-26311.3 7603.3 7162.49 -13344.4 24311.5 -2405.2)
(-28520.8 4927.29 2832.02 -11135 25185.9 -2405.14)
(5913.51 1169.96 2427.55 12555.3 -16095.1 40510.1)
(5713.54 -36.4462 5185.58 12755.2 -15429.1 40509.9)
(5938.55 -1238.46 7786.06 12530.6 -14294.2 40510)
(6560.8 -2291.04 10149.9 11908.1 -12725 40510)
(7505.65 -3067.32 12205.3 10963.4 -10769.2 40510.1)
(8658.94 -3473.64 13890 9809.95 -8486.11 40510)
(9881.63 -3461.02 15152.6 8587.07 -5945.28 40509.8)
(11026.4 -3030.9 15954.8 7442.45 -3223.72 40509.9)
(11954.8 -2235.22 16272.1 6513.88 -404.202 40510)
(12555.3 -1169.96 16095.1 5913.51 2427.55 40510.1)
(12755.2 36.4462 15429.1 5713.54 5185.58 40509.9)
(12530.6 1238.46 14294.2 5938.55 7786.06 40510)
(11908.1 2291.04 12725 6560.8 10149.9 40510)
(10963.4 3067.32 10769.2 7505.65 12205.3 40510.1)
(9809.95 3473.64 8486.11 8658.94 13890 40510)
(8587.07 3461.02 5945.28 9881.63 15152.6 40509.8)
(7442.45 3030.9 3223.72 11026.4 15954.8 40509.9)
(6513.88 2235.22 404.202 11954.8 16272.1 40510)
(5913.51 1169.96 -2427.55 12555.3 16095.1 40510.1)
(5713.54 -36.4462 -5185.58 12755.2 15429.1 40509.9)
(5938.55 -1238.46 -7786.06 12530.6 14294.2 40510)
(6560.8 -2291.04 -10149.9 11908.1 12725 40510)
(7505.65 -3067.32 -12205.3 10963.4 10769.2 40510.1)
(8658.94 -3473.64 -13890 9809.95 8486.11 40510)
(9881.63 -3461.02 -15152.6 8587.07 5945.28 40509.8)
(11026.4 -3030.9 -15954.8 7442.45 3223.72 40509.9)
(11954.8 -2235.22 -16272.1 6513.88 404.202 40510)
(12555.3 -1169.96 -16095.1 5913.51 -2427.55 40510.1)
(12755.2 36.4462 -15429.1 5713.54 -5185.58 40509.9)
(12530.6 1238.46 -14294.2 5938.55 -7786.06 40510)
(11908.1 2291.04 -12725 6560.8 -10149.9 40510)
(10963.4 3067.32 -10769.2 7505.65 -12205.3 40510.1)
(9809.95 3473.64 -8486.11 8658.94 -13890 40510)
(8587.07 3461.02 -5945.28 9881.63 -15152.6 40509.8)
(7442.45 3030.9 -3223.72 11026.4 -15954.8 40509.9)
(6513.88 2235.22 -404.202 11954.8 -16272.1 40510)
(-5376.15 1313.53 337.472 40508.2 -7623.16 -9196.94)
(-4441.8 -6612.4 1656.09 39573.9 -7448.7 -9196.94)
(-853.004 -13740.8 2924.39 35985.1 -7047.96 -9196.95)
(4957.48 -19211.8 4103.85 30174.8 -6433.11 -9196.86)
(12288.6 -22365.6 5158.63 22843.4 -5622.79 -9196.94)
(20256.4 -22821.7 6056.61 14875.8 -4641.56 -9196.87)
(27899.6 -20525.3 6770.55 7232.51 -3519.31 -9196.94)
(34296.5 -15753.2 7278.82 835.647 -2290.15 -9196.91)
(38675.5 -9080.99 7565.95 -3543.28 -991.402 -9196.89)
(40508.2 -1313.53 7623.16 -5376.15 337.472 -9196.94)
(39573.9 6612.4 7448.7 -4441.8 1656.09 -9196.94)
(35985.1 13740.8 7047.96 -853.004 2924.39 -9196.95)
(30174.8 19211.8 6433.11 4957.48 4103.85 -9196.86)
(22843.4 22365.6 5622.79 12288.6 5158.63 -9196.94)
(14875.8 22821.7 4641.56 20256.4 6056.61 -9196.87)
(7232.51 20525.3 3519.31 27899.6 6770.55 -9196.94)
(835.647 15753.2 2290.15 34296.5 7278.82 -9196.91)
(-3543.28 9080.99 991.402 38675.5 7565.95 -9196.89)
(-5376.15 1313.53 -337.472 40508.2 7623.16 -9196.94)
(-4441.8 -6612.4 -1656.09 39573.9 7448.7 -9196.94)
(-853.004 -13740.8 -2924.39 35985.1 7047.96 -9196.95)
(4957.48 -19211.8 -4103.85 30174.8 6433.11 -9196.86)
(12288.6 -22365.6 -5158.63 22843.4 5622.79 -9196.94)
(20256.4 -22821.7 -6056.61 14875.8 4641.56 -9196.87)
(27899.6 -20525.3 -6770.55 7232.51 3519.31 -9196.94)
(34296.5 -15753.2 -7278.82 835.647 2290.15 -9196.91)
(38675.5 -9080.99 -7565.95 -3543.28 991.402 -9196.89)
(40508.2 -1313.53 -7623.16 -5376.15 -337.472 -9196.94)
(39573.9 6612.4 -7448.7 -4441.8 -1656.09 -9196.94)
(35985.1 13740.8 -7047.96 -853.004 -2924.39 -9196.95)
(30174.8 19211.8 -6433.11 4957.48 -4103.85 -9196.86)
(22843.4 22365.6 -5622.79 12288.6 -5158.63 -9196.94)
(14875.8 22821.7 -4641.56 20256.4 -6056.61 -9196.87)
(7232.51 20525.3 -3519.31 27899.6 -6770.55 -9196.94)
(835.647 15753.2 -2290.15 34296.5 -7278.82 -9196.91)
(-3543.28 9080.99 -991.402 38675.5 -7565.95 -9196.89)
(-26599.4 4675.8 208.29 -7108.03 25414.7 -1561.91)
(-27610.9 1060.59 -4208.09 -6096.53 25064.8 -1561.98)
(-27325 -2682.54 -8496.6 -6382.61 23953.2 -1562.06)
(-25776 -6102.1 -12526.9 -7931.52 22113.9 -1561.91)
(-23150.9 -8785.73 -16176.7 -10556.7 19602.7 -1562.14)
(-19766.3 -10409.5 -19334.9 -13941.4 16495.8 -1561.96)
(-16030.2 -10777.9 -21905.6 -17677.2 12887.7 -1561.91)
(-12393.7 -9846.27 -23810.8 -21313.9 8888.05 -1561.98)
(-9294.97 -7727.03 -24992.4 -24412.4 4618.34 -1561.9)
(-7108.03 -4675.8 -25414.7 -26599.4 208.29 -1561.91)
(-6096.53 -1060.59 -25064.8 -27610.9 -4208.09 -1561.98)
(-6382.61 2682.54 -23953.2 -27325 -8496.6 -1562.06)
(-7931.52 6102.1 -22113.9 -25776 -12526.9 -1561.91)
(-10556.7 8785.73 -19602.7 -23150.9 -16176.7 -1562.14)
(-13941.4 10409.5 -16495.8 -19766.3 -19334.9 -1561.96)
(-17677.2 10777.9 -12887.7 -16030.2 -21905.6 -1561.91)
(-21313.9 9846.27 -8888.05 -12393.7 -23810.8 -1561.98)
(-24412.4 7727.03 -4618.34 -9294.97 -24992.4 -1561.9)
(-26599.4 4675.8 -208.29 -7108.03 -25414.7 -1561.91)
(-27610.9 1060.59 4208.09 -6096.53 -25064.8 -1561.98)
(-27325 -2682.54 8496.6 -6382.61 -23953.2 -1562.06)
(-25776 -6102.1 12526.9 -7931.52 -22113.9 -1561.91)
(-23150.9 -8785.73 16176.7 -10556.7 -19602.7 -1562.14)
(-19766.3 -10409.5 19334.9 -13941.4 -16495.8 -1561.96)
(-16030.2 -10777.9 21905.6 -17677.2 -12887.7 -1561.91)
(-12393.7 -9846.27 23810.8 -21313.9 -8888.05 -1561.98)
(-9294.97 -7727.03 24992.4 -24412.4 -4618.34 -1561.9)
(-7108.03 -4675.8 25414.7 -26599.4 -208.29 -1561.91)
(-6096.53 -1060.59 25064.8 -27610.9 4208.09 -1561.98)
(-6382.61 2682.54 23953.2 -27325 8496.6 -1562.06)
(-7931.52 6102.1 22113.9 -25776 12526.9 -1561.91)
(-10556.7 8785.73 19602.7 -23150.9 16176.7 -1562.14)
(-13941.4 10409.5 16495.8 -19766.3 19334.9 -1561.96)
(-17677.2 10777.9 12887.7 -16030.2 21905.6 -1561.91)
(-21313.9 9846.27 8888.05 -12393.7 23810.8 -1561.98)
(-24412.4 7727.03 4618.34 -9294.97 24992.4 -1561.9)
(5494.03 913.905 4339.42 11319.2 -16078.8 38442.8)
(5357 -137.409 7065.55 11456.1 -15081.1 38442.6)
(5588.16 -1172.12 9577.01 11225.4 -13625 38442.9)
(6158.88 -2065.49 11797.5 10654.4 -11755 38442.7)
(7000.77 -2709.61 13659.4 9812.31 -9527.67 38442.8)
(8012.45 -3027.08 15106.4 8800.91 -7011.11 38442.7)
(9071.35 -2979.34 16094.4 7741.65 -4281.37 38442.7)
(10050.5 -2572.28 16593.4 6762.97 -1421.58 38442.8)
(10831 -1854.94 16588 5982.23 1481.45 38442.8)
(11319.2 -913.905 16078.8 5494.03 4339.42 38442.8)
(11456.1 137.409 15081.1 5357 7065.55 38442.6)
(11225.4 1172.12 13625 5588.16 9577.01 38442.9)
(10654.4 2065.49 11755 6158.88 11797.5 38442.7)
(9812.31 2709.61 9527.67 7000.77 13659.4 38442.8)
(8800.91 3027.08 7011.11 8012.45 15106.4 38442.7)
(7741.65 2979.34 4281.37 9071.35 16094.4 38442.7)
(6762.97 2572.28 1421.58 10050.5 16593.4 38442.8)
(5982.23 1854.94 -1481.45 10831 16588 38442.8)
(5494.03 913.905 -4339.42 11319.2 16078.8 38442.8)
(5357 -137.409 -7065.55 11456.1 15081.1 38442.6)
(5588.16 -1172.12 -9577.01 11225.4 13625 38442.9)
(6158.88 -2065.49 -11797.5 10654.4 11755 38442.7)
(7000.77 -2709.61 -13659.4 9812.31 9527.67 38442.8)
(8012.45 -3027.08 -15106.4 8800.91 7011.11 38442.7)
(9071.35 -2979.34 -16094.4 7741.65 4281.37 38442.7)
(10050.5 -2572.28 -16593.4 6762.97 1421.58 38442.8)
(10831 -1854.94 -16588 5982.23 -1481.45 38442.8)
(11319.2 -913.905 -16078.8 5494.03 -4339.42 38442.8)
(11456.1 137.409 -15081.1 5357 -7065.55 38442.6)
(11225.4 1172.12 -13625 5588.16 -9577.01 38442.9)
(10654.4 2065.49 -11755 6158.88 -11797.5 38442.7)
(9812.31 2709.61 -9527.67 7000.77 -13659.4 38442.8)
(8800.91 3027.08 -7011.11 8012.45 -15106.4 38442.7)
(7741.65 2979.34 -4281.37 9071.35 -16094.4 38442.7)
(6762.97 2572.28 -1421.58 10050.5 -16593.4 38442.8)
(5982.23 1854.94 1481.45 10831 -16588 38442.8)
(-4569.05 2467.43 362.272 40222.6 -7963.45 -10051.7)
(-4062.21 -5341.23 1739.61 39716 -7779.56 -10051.6)
(-915.505 -12505.6 3064.05 36569 -7359.21 -10051.8)
(4492.09 -18161.7 4295.41 31161.7 -6715.34 -10051.7)
(11507.8 -21627.1 5396.35 24145.6 -5867.53 -10051.8)
(19285.8 -22484.1 6333.15 16367.7 -4841.24 -10051.8)
(26888 -20629.1 7077.61 8765.79 -3667.95 -10051.7)
(33396.8 -16285.9 7607.1 2256.47 -2383.24 -10051.9)
(38028.2 -9978.43 7905.38 -2374.43 -1026.07 -10051.7)
(40222.6 -2467.43 7963.45 -4569.05 362.272 -10051.7)
(39716 5341.23 7779.56 -4062.21 1739.61 -10051.6)
(36569 12505.6 7359.21 -915.505 3064.05 -10051.8)
(31161.7 18161.7 6715.34 4492.09 4295.41 -10051.7)
(24145.6 21627.1 5867.53 11507.8 5396.35 -10051.8)
(16367.7 22484.1 4841.24 19285.8 6333.15 -10051.8)
(8765.79 20629.1 3667.95 26888 7077.61 -10051.7)
(2256.47 16285.9 2383.24 33396.8 7607.1 -10051.9)
(-2374.43 9978.43 1026.07 38028.2 7905.38 -10051.7)
(-4569.05 2467.43 -362.272 40222.6 7963.45 -10051.7)
(-4062.21 -5341.23 -1739.61 39716 7779.56 -10051.6)
(-915.505 -12505.6 -3064.05 36569 7359.21 -10051.8)
(4492.09 -18161.7 -4295.41 31161.7 6715.34 -10051.7)
(11507.8 -21627.1 -5396.35 24145.6 5867.53 -10051.8)
(19285.8 -22484.1 -6333.15 16367.7 4841.24 -10051.8)
(26888 -20629.1 -7077.61 8765.79 3667.95 -10051.7)
(33396.8 -16285.9 -7607.1 2256.47 2383.24 -10051.9)
(38028.2 -9978.43 -7905.38 -2374.43 1026.07 -10051.7)
(40222.6 -2467.43 -7963.45 -4569.05 -362.272 -10051.7)
(39716 5341.23 -7779.56 -4062.21 -1739.61 -10051.6)
(36569 12505.6 -7359.21 -915.505 -3064.05 -10051.8)
(31161.7 18161.7 -6715.34 4492.09 -4295.41 -10051.7)
(24145.6 21627.1 -5867.53 11507.8 -5396.35 -10051.8)
(16367.7 22484.1 -4841.24 19285.8 -6333.15 -10051.8)
(8765.79 20629.1 -3667.95 26888 -7077.61 -10051.7)
(2256.47 16285.9 -2383.24 33396.8 -7607.1 -10051.9)
(-2374.43 9978.43 -1026.07 38028.2 -7905.38 -10051.7)
(-23568.8 7499.43 1964.9 -5014.48 25444.9 -1254.02)
(-25574.4 3874.21 -2483.4 -3009.25 25399.5 -1253.99)
(-26218.9 -218.316 -6856.26 -2364.5 24582.4 -1254.02)
(-25425 -4284.46 -11020.8 -3158.54 23018.4 -1253.93)
(-23288.2 -7833.88 -14850.5 -5295.32 20754.9 -1253.95)
(-20066.3 -10438.4 -18228.9 -8517.29 17860.9 -1253.97)
(-16147.9 -11783.9 -21053.5 -12435.6 14424.1 -1253.97)
(-12005.5 -11708.1 -23238.3 -16577.8 10549.1 -1253.81)
(-8139.07 -10220.1 -24717.1 -20444.5 6353.51 -1254.11)
(-5014.48 -7499.43 -25444.9 -23568.8 1964.9 -1254.02)
(-3009.25 -3874.21 -25399.5 -25574.4 -2483.4 -1253.99)
(-2364.5 218.316 -24582.4 -26218.9 -6856.26 -1254.02)
(-3158.54 4284.46 -23018.4 -25425 -11020.8 -1253.93)
(-5295.32 7833.88 -20754.9 -23288.2 -14850.5 -1253.95)
(-8517.29 10438.4 -17860.9 -20066.3 -18228.9 -1253.97)
(-12435.6 11783.9 -14424.1 -16147.9 -21053.5 -1253.97)
(-16577.8 11708.1 -10549.1 -12005.5 -23238.3 -1253.81)
(-20444.5 10220.1 -6353.51 -8139.07 -24717.1 -1254.11)
(-23568.8 7499.43 -1964.9 -5014.48 -25444.9 -1254.02)
(-25574.4 3874.21 2483.4 -3009.25 -25399.5 -1253.99)
(-26218.9 -218.316 6856.26 -2364.5 -24582.4 -1254.02)
(-25425 -4284.46 11020.8 -3158.54 -23018.4 -1253.93)
(-23288.2 -7833.88 14850.5 -5295.32 -20754.9 -1253.95)
(-20066.3 -10438.4 18228.9 -8517.29 -17860.9 -1253.97)
(-16147.9 -11783.9 21053.5 -12435.6 -14424.1 -1253.97)
(-12005.5 -11708.1 23238.3 -16577.8 -10549.1 -1253.81)
(-8139.07 -10220.1 24717.1 -20444.5 -6353.51 -1254.11)
(-5014.48 -7499.43 25444.9 -23568.8 -1964.9 -1254.02)
(-3009.25 -3874.21 25399.5 -25574.4 2483.4 -1253.99)
(-2364.5 218.316 24582.4 -26218.9 6856.26 -1254.02)
(-3158.54 4284.46 23018.4 -25425 11020.8 -1253.93)
(-5295.32 7833.88 20754.9 -23288.2 14850.5 -1253.95)
(-8517.29 10438.4 17860.9 -20066.3 18228.9 -1253.97)
(-12435.6 11783.9 14424.1 -16147.9 21053.5 -1253.97)
(-16577.8 11708.1 10549.1 -12005.5 23238.3 -1253.81)
(-20444.5 10220.1 6353.51 -8139.07 24717.1 -1254.11)
(5048.24 339.01 6246.27 9583.7 -16011.4 36246.6)
(5068.93 -457.048 8931.75 9562.72 -14683.5 36246.6)
(5360.88 -1197.94 11345.8 9271 -12909.4 36246.7)
(5888.53 -1794.44 13415.2 8743.42 -10743.2 36246.5)
(6588.27 -2174.4 15076.9 8043.56 -8250.44 36246.6)
(7375.99 -2292.15 16280.5 7256.08 -5507.05 36246.6)
(8156.09 -2133.37 16989.4 6475.6 -2596.23 36246.7)
(8835.22 -1717.35 17182.2 5796.72 393.363 36246.7)
(9330.93 -1094.17 16852.8 5300.89 3371.03 36246.6)
(9583.7 -339.01 16011.4 5048.24 6246.27 36246.6)
(9562.72 457.048 14683.5 5068.93 8931.75 36246.6)
(9271 1197.94 12909.4 5360.88 11345.8 36246.7)
(8743.42 1794.44 10743.2 5888.53 13415.2 36246.5)
(8043.56 2174.4 8250.44 6588.27 15076.9 36246.6)
(7256.08 2292.15 5507.05 7375.99 16280.5 36246.6)
(6475.6 2133.37 2596.23 8156.09 16989.4 36246.7)
(5796.72 1717.35 -393.363 8835.22 17182.2 36246.7)
(5300.89 1094.17 -3371.03 9330.93 16852.8 36246.6)