/*--------------------------------*- C++ -*----------------------------------*\
| =========                 |                                                 |
| \\      /  F ield         | OpenFOAM: The Open Source CFD Toolbox           |
|  \\    /   O peration     | Version:  2312                                  |
|   \\  /    A nd           | Website:  www.openfoam.com                      |
|    \\/     M anipulation  |                                                 |
\*---------------------------------------------------------------------------*/
FoamFile
{
    version     2.0;
    format      ascii;
    arch        "LSB;label=32;scalar=64";
    class       volVectorField;
    location    "0.8";
    object      U;
}
// * * * * * * * * * * * * * * * * * * * * * * * * * * * * * * * * * * * * * //

dimensions      [0 1 -1 0 0 0 0];

internalField   nonuniform List<vector> 
1620
(
(6.00783e-05 -5.45935e-05 -5.6285e-07)
(6.86457e-05 -4.33318e-05 -5.6232e-07)
(7.51274e-05 -3.07531e-05 -5.62379e-07)
(7.93265e-05 -1.724e-05 -5.62787e-07)
(8.11149e-05 -3.2029e-06 -5.62638e-07)
(8.04383e-05 1.09313e-05 -5.62767e-07)
(7.73179e-05 2.47329e-05 -5.63384e-07)
(7.18486e-05 3.77832e-05 -5.63482e-07)
(6.41964e-05 4.96856e-05 -5.63002e-07)
(5.45935e-05 6.00783e-05 -5.6285e-07)
(4.33318e-05 6.86457e-05 -5.6232e-07)
(3.07531e-05 7.51274e-05 -5.6238e-07)
(1.724e-05 7.93265e-05 -5.62787e-07)
(3.20291e-06 8.11149e-05 -5.62639e-07)
(-1.09313e-05 8.04383e-05 -5.62768e-07)
(-2.47329e-05 7.73179e-05 -5.63385e-07)
(-3.77832e-05 7.18486e-05 -5.63483e-07)
(-4.96856e-05 6.41964e-05 -5.63004e-07)
(-6.00783e-05 5.45935e-05 -5.62851e-07)
(-6.86457e-05 4.33318e-05 -5.62321e-07)
(-7.51274e-05 3.07531e-05 -5.62381e-07)
(-7.93265e-05 1.724e-05 -5.62788e-07)
(-8.11149e-05 3.2029e-06 -5.6264e-07)
(-8.04383e-05 -1.09313e-05 -5.62769e-07)
(-7.73179e-05 -2.47329e-05 -5.63386e-07)
(-7.18486e-05 -3.77832e-05 -5.63484e-07)
(-6.41964e-05 -4.96856e-05 -5.63004e-07)
(-5.45935e-05 -6.00783e-05 -5.62851e-07)
(-4.33318e-05 -6.86457e-05 -5.62321e-07)
(-3.07531e-05 -7.51274e-05 -5.62381e-07)
(-1.724e-05 -7.93265e-05 -5.62788e-07)
(-3.2029e-06 -8.11149e-05 -5.62639e-07)
(1.09313e-05 -8.04383e-05 -5.62768e-07)
(2.47329e-05 -7.73179e-05 -5.63385e-07)
(3.77832e-05 -7.18486e-05 -5.63482e-07)
(4.96856e-05 -6.41964e-05 -5.63003e-07)
(3.91019e-05 -0.000117596 4.9074e-05)
(5.89281e-05 -0.000109019 4.90743e-05)
(7.69639e-05 -9.713e-05 4.90743e-05)
(9.26612e-05 -8.22898e-05 4.90742e-05)
(0.000105543 -6.49491e-05 4.90743e-05)
(0.000115217 -4.56346e-05 4.90742e-05)
(0.000121392 -2.4934e-05 4.90739e-05)
(0.000123877 -3.47609e-06 4.90739e-05)
(0.000122599 1.80876e-05 4.9074e-05)
(0.000117596 3.91019e-05 4.9074e-05)
(0.000109019 5.89281e-05 4.90743e-05)
(9.713e-05 7.69639e-05 4.90743e-05)
(8.22898e-05 9.26612e-05 4.90742e-05)
(6.49491e-05 0.000105543 4.90743e-05)
(4.56346e-05 0.000115217 4.90742e-05)
(2.4934e-05 0.000121392 4.90739e-05)
(3.47609e-06 0.000123877 4.90739e-05)
(-1.80876e-05 0.000122599 4.9074e-05)
(-3.91019e-05 0.000117596 4.9074e-05)
(-5.89281e-05 0.000109019 4.90743e-05)
(-7.69639e-05 9.713e-05 4.90743e-05)
(-9.26612e-05 8.22898e-05 4.90742e-05)
(-0.000105543 6.49491e-05 4.90743e-05)
(-0.000115217 4.56346e-05 4.90742e-05)
(-0.000121392 2.4934e-05 4.90739e-05)
(-0.000123877 3.47609e-06 4.90739e-05)
(-0.000122599 -1.80876e-05 4.9074e-05)
(-0.000117596 -3.91019e-05 4.9074e-05)
(-0.000109019 -5.89281e-05 4.90743e-05)
(-9.713e-05 -7.69639e-05 4.90743e-05)
(-8.22898e-05 -9.26612e-05 4.90742e-05)
(-6.49491e-05 -0.000105543 4.90743e-05)
(-4.56346e-05 -0.000115217 4.90742e-05)
(-2.4934e-05 -0.000121392 4.90739e-05)
(-3.47608e-06 -0.000123877 4.90739e-05)
(1.80876e-05 -0.000122599 4.9074e-05)
(-2.4751e-05 -0.000175607 7.89961e-05)
(6.11869e-06 -0.000177237 7.8996e-05)
(3.68026e-05 -0.000173482 7.89963e-05)
(6.63683e-05 -0.000164455 7.89964e-05)
(9.39178e-05 -0.000150432 7.89964e-05)
(0.000118613 -0.000131838 7.89961e-05)
(0.000139705 -0.000109238 7.89962e-05)
(0.000156551 -8.33191e-05 7.89963e-05)
(0.000168641 -5.48686e-05 7.89962e-05)
(0.000175607 -2.4751e-05 7.89961e-05)
(0.000177237 6.11869e-06 7.8996e-05)
(0.000173482 3.68026e-05 7.89963e-05)
(0.000164455 6.63683e-05 7.89964e-05)
(0.000150432 9.39178e-05 7.89964e-05)
(0.000131838 0.000118613 7.89961e-05)
(0.000109238 0.000139705 7.89962e-05)
(8.33191e-05 0.000156551 7.89963e-05)
(5.48686e-05 0.000168641 7.89962e-05)
(2.4751e-05 0.000175607 7.89961e-05)
(-6.11869e-06 0.000177237 7.8996e-05)
(-3.68026e-05 0.000173482 7.89963e-05)
(-6.63683e-05 0.000164455 7.89964e-05)
(-9.39178e-05 0.000150432 7.89964e-05)
(-0.000118613 0.000131838 7.89961e-05)
(-0.000139705 0.000109238 7.89962e-05)
(-0.000156551 8.33191e-05 7.89963e-05)
(-0.000168641 5.48686e-05 7.89962e-05)
(-0.000175607 2.4751e-05 7.89961e-05)
(-0.000177237 -6.11869e-06 7.8996e-05)
(-0.000173482 -3.68026e-05 7.89963e-05)
(-0.000164455 -6.63683e-05 7.89964e-05)
(-0.000150432 -9.39178e-05 7.89964e-05)
(-0.000131838 -0.000118613 7.89961e-05)
(-0.000109238 -0.000139705 7.89962e-05)
(-8.33191e-05 -0.000156551 7.89963e-05)
(-5.48686e-05 -0.000168641 7.89962e-05)
(0.000119613 -0.000189929 2.51708e-05)
(0.000150777 -0.000166273 2.51718e-05)
(0.000177359 -0.000137565 2.51721e-05)
(0.000198553 -0.000104677 2.51721e-05)
(0.000213713 -6.86078e-05 2.51725e-05)
(0.000222379 -3.04545e-05 2.51716e-05)
(0.000224289 8.624e-06 2.51696e-05)
(0.000219384 4.74404e-05 2.51696e-05)
(0.000207814 8.48149e-05 2.51704e-05)
(0.000189929 0.000119613 2.51708e-05)
(0.000166273 0.000150777 2.51718e-05)
(0.000137565 0.000177359 2.51721e-05)
(0.000104677 0.000198553 2.51721e-05)
(6.86078e-05 0.000213713 2.51725e-05)
(3.04545e-05 0.000222379 2.51716e-05)
(-8.62398e-06 0.000224289 2.51696e-05)
(-4.74404e-05 0.000219384 2.51695e-05)
(-8.48149e-05 0.000207814 2.51704e-05)
(-0.000119613 0.000189929 2.51708e-05)
(-0.000150776 0.000166273 2.51718e-05)
(-0.000177359 0.000137565 2.51721e-05)
(-0.000198552 0.000104677 2.51721e-05)
(-0.000213713 6.86078e-05 2.51725e-05)
(-0.000222379 3.04545e-05 2.51716e-05)
(-0.000224289 -8.62399e-06 2.51696e-05)
(-0.000219384 -4.74404e-05 2.51695e-05)
(-0.000207814 -8.48149e-05 2.51704e-05)
(-0.000189929 -0.000119613 2.51708e-05)
(-0.000166273 -0.000150777 2.51718e-05)
(-0.000137565 -0.000177359 2.51721e-05)
(-0.000104677 -0.000198553 2.51721e-05)
(-6.86078e-05 -0.000213713 2.51725e-05)
(-3.04545e-05 -0.000222379 2.51716e-05)
(8.62401e-06 -0.000224289 2.51696e-05)
(4.74404e-05 -0.000219384 2.51696e-05)
(8.48149e-05 -0.000207814 2.51704e-05)
(7.09164e-05 -0.000350725 0.000148723)
(0.000130742 -0.000333082 0.000148723)
(0.000186595 -0.000305318 0.000148724)
(0.000236778 -0.000268278 0.000148724)
(0.000279767 -0.000223086 0.000148724)
(0.000314255 -0.000171115 0.000148724)
(0.000339195 -0.000113946 0.000148723)
(0.000353828 -5.33147e-05 0.000148722)
(0.000357711 8.93643e-06 0.000148723)
(0.000350725 7.09164e-05 0.000148723)
(0.000333082 0.000130742 0.000148723)
(0.000305319 0.000186595 0.000148724)
(0.000268278 0.000236778 0.000148724)
(0.000223086 0.000279767 0.000148724)
(0.000171115 0.000314255 0.000148724)
(0.000113946 0.000339195 0.000148723)
(5.33147e-05 0.000353828 0.000148722)
(-8.93641e-06 0.000357711 0.000148723)
(-7.09164e-05 0.000350725 0.000148723)
(-0.000130742 0.000333082 0.000148723)
(-0.000186595 0.000305318 0.000148724)
(-0.000236778 0.000268278 0.000148724)
(-0.000279767 0.000223086 0.000148724)
(-0.000314255 0.000171115 0.000148724)
(-0.000339195 0.000113946 0.000148723)
(-0.000353828 5.33147e-05 0.000148722)
(-0.000357711 -8.93642e-06 0.000148723)
(-0.000350725 -7.09164e-05 0.000148723)
(-0.000333082 -0.000130742 0.000148723)
(-0.000305318 -0.000186595 0.000148724)
(-0.000268278 -0.000236778 0.000148724)
(-0.000223086 -0.000279767 0.000148724)
(-0.000171115 -0.000314255 0.000148724)
(-0.000113946 -0.000339195 0.000148723)
(-5.33147e-05 -0.000353828 0.000148722)
(8.93644e-06 -0.000357711 0.000148723)
(-2.90591e-05 -0.000500573 0.000242451)
(5.83058e-05 -0.000498014 0.000242451)
(0.000143899 -0.000480323 0.000242451)
(0.00022512 -0.000448038 0.000242452)
(0.000299502 -0.000402139 0.000242451)
(0.000364783 -0.000344022 0.000242451)
(0.00041898 -0.000275451 0.000242451)
(0.000460446 -0.000198512 0.000242451)
(0.000487922 -0.000115541 0.000242451)
(0.000500573 -2.90591e-05 0.000242451)
(0.000498015 5.83058e-05 0.000242451)
(0.000480323 0.000143899 0.000242451)
(0.000448038 0.00022512 0.000242452)
(0.000402139 0.000299502 0.000242451)
(0.000344022 0.000364783 0.000242451)
(0.000275451 0.00041898 0.000242451)
(0.000198512 0.000460446 0.000242451)
(0.000115541 0.000487922 0.000242451)
(2.90591e-05 0.000500573 0.000242451)
(-5.83058e-05 0.000498015 0.000242451)
(-0.000143899 0.000480323 0.000242451)
(-0.00022512 0.000448038 0.000242452)
(-0.000299502 0.000402139 0.000242451)
(-0.000364783 0.000344022 0.000242451)
(-0.00041898 0.000275451 0.000242451)
(-0.000460446 0.000198512 0.000242451)
(-0.000487922 0.000115541 0.000242451)
(-0.000500573 2.90591e-05 0.000242451)
(-0.000498014 -5.83058e-05 0.000242451)
(-0.000480323 -0.000143899 0.000242451)
(-0.000448038 -0.00022512 0.000242452)
(-0.000402139 -0.000299502 0.000242451)
(-0.000344022 -0.000364783 0.000242451)
(-0.000275451 -0.00041898 0.000242451)
(-0.000198512 -0.000460446 0.000242451)
(-0.000115541 -0.000487922 0.000242451)
(0.000113905 -0.000370575 8.12629e-05)
(0.000176524 -0.000345165 8.12643e-05)
(0.000233779 -0.000309269 8.12651e-05)
(0.000283931 -0.000263975 8.12649e-05)
(0.000325457 -0.00021066 8.12648e-05)
(0.000357093 -0.000150944 8.12636e-05)
(0.000377879 -8.66422e-05 8.12619e-05)
(0.000387184 -1.97079e-05 8.12618e-05)
(0.000384724 4.78247e-05 8.12622e-05)
(0.000370575 0.000113905 8.12629e-05)
(0.000345165 0.000176524 8.12643e-05)
(0.000309269 0.000233779 8.12651e-05)
(0.000263975 0.000283931 8.12649e-05)
(0.00021066 0.000325457 8.12648e-05)
(0.000150944 0.000357093 8.12636e-05)
(8.66422e-05 0.000377879 8.12619e-05)
(1.97079e-05 0.000387184 8.12618e-05)
(-4.78247e-05 0.000384724 8.12622e-05)
(-0.000113905 0.000370575 8.12629e-05)
(-0.000176524 0.000345165 8.12642e-05)
(-0.000233779 0.000309269 8.12651e-05)
(-0.000283931 0.000263975 8.12649e-05)
(-0.000325457 0.00021066 8.12648e-05)
(-0.000357093 0.000150944 8.12636e-05)
(-0.000377879 8.66422e-05 8.12619e-05)
(-0.000387184 1.97079e-05 8.12618e-05)
(-0.000384724 -4.78247e-05 8.12622e-05)
(-0.000370575 -0.000113905 8.12629e-05)
(-0.000345165 -0.000176524 8.12642e-05)
(-0.000309269 -0.000233779 8.12651e-05)
(-0.000263974 -0.000283931 8.12649e-05)
(-0.00021066 -0.000325457 8.12648e-05)
(-0.000150944 -0.000357093 8.12636e-05)
(-8.66422e-05 -0.000377879 8.12619e-05)
(-1.97079e-05 -0.000387184 8.12618e-05)
(4.78247e-05 -0.000384724 8.12622e-05)
(5.53288e-05 -0.00058444 0.000241624)
(0.000155975 -0.000565953 0.000241624)
(0.000251883 -0.00053027 0.000241625)
(0.000340137 -0.000478475 0.000241624)
(0.000418056 -0.000412142 0.000241624)
(0.000483272 -0.000333285 0.000241624)
(0.000533805 -0.000244303 0.000241623)
(0.000568118 -0.000147898 0.000241623)
(0.000585169 -4.69985e-05 0.000241623)
(0.00058444 5.53288e-05 0.000241624)
(0.000565953 0.000155975 0.000241624)
(0.00053027 0.000251883 0.000241624)
(0.000478475 0.000340137 0.000241624)
(0.000412142 0.000418056 0.000241624)
(0.000333285 0.000483272 0.000241624)
(0.000244303 0.000533805 0.000241623)
(0.000147898 0.000568118 0.000241623)
(4.69986e-05 0.000585169 0.000241623)
(-5.53288e-05 0.00058444 0.000241624)
(-0.000155975 0.000565953 0.000241624)
(-0.000251883 0.00053027 0.000241624)
(-0.000340137 0.000478475 0.000241624)
(-0.000418056 0.000412142 0.000241624)
(-0.000483272 0.000333285 0.000241624)
(-0.000533805 0.000244303 0.000241623)
(-0.000568118 0.000147898 0.000241623)
(-0.000585169 4.69986e-05 0.000241623)
(-0.00058444 -5.53288e-05 0.000241624)
(-0.000565953 -0.000155975 0.000241624)
(-0.00053027 -0.000251883 0.000241624)
(-0.000478475 -0.000340137 0.000241624)
(-0.000412142 -0.000418056 0.000241624)
(-0.000333285 -0.000483272 0.000241624)
(-0.000244303 -0.000533805 0.000241623)
(-0.000147898 -0.000568118 0.000241623)
(-4.69985e-05 -0.000585169 0.000241623)
(-4.91085e-05 -0.000781494 0.000371958)
(8.73426e-05 -0.000778149 0.000371958)
(0.00022114 -0.00075116 0.000371958)
(0.000348218 -0.000701347 0.000371958)
(0.000464717 -0.000630224 0.000371958)
(0.000567094 -0.000539953 0.000371958)
(0.00065224 -0.000433275 0.000371958)
(0.000717568 -0.000313433 0.000371958)
(0.000761094 -0.000184067 0.000371958)
(0.000781494 -4.91085e-05 0.000371958)
(0.000778149 8.73426e-05 0.000371958)
(0.00075116 0.00022114 0.000371958)
(0.000701347 0.000348218 0.000371958)
(0.000630225 0.000464717 0.000371958)
(0.000539953 0.000567094 0.000371958)
(0.000433275 0.00065224 0.000371958)
(0.000313433 0.000717568 0.000371958)
(0.000184067 0.000761094 0.000371958)
(4.91086e-05 0.000781494 0.000371958)
(-8.73425e-05 0.000778149 0.000371958)
(-0.00022114 0.00075116 0.000371958)
(-0.000348218 0.000701347 0.000371958)
(-0.000464717 0.000630225 0.000371958)
(-0.000567094 0.000539953 0.000371958)
(-0.00065224 0.000433275 0.000371958)
(-0.000717568 0.000313433 0.000371958)
(-0.000761094 0.000184067 0.000371958)
(-0.000781494 4.91086e-05 0.000371958)
(-0.000778149 -8.73425e-05 0.000371958)
(-0.00075116 -0.00022114 0.000371958)
(-0.000701347 -0.000348218 0.000371958)
(-0.000630224 -0.000464717 0.000371958)
(-0.000539953 -0.000567094 0.000371958)
(-0.000433275 -0.00065224 0.000371958)
(-0.000313433 -0.000717568 0.000371958)
(-0.000184067 -0.000761094 0.000371958)
(2.33749e-05 -0.000580214 0.000110203)
(0.000123773 -0.00056734 0.000110204)
(0.00022041 -0.000537228 0.000110204)
(0.00031035 -0.000490793 0.000110203)
(0.000390861 -0.000429445 0.000110203)
(0.000459495 -0.000355048 0.000110202)
(0.000514168 -0.000269863 0.000110201)
(0.000553218 -0.000176479 0.000110201)
(0.000575459 -7.77332e-05 0.000110202)
(0.000580214 2.33749e-05 0.000110203)
(0.00056734 0.000123773 0.000110204)
(0.000537228 0.00022041 0.000110204)
(0.000490793 0.00031035 0.000110203)
(0.000429445 0.000390861 0.000110203)
(0.000355048 0.000459495 0.000110202)
(0.000269863 0.000514168 0.000110201)
(0.000176479 0.000553218 0.000110201)
(7.77333e-05 0.000575459 0.000110202)
(-2.33748e-05 0.000580214 0.000110203)
(-0.000123773 0.00056734 0.000110203)
(-0.00022041 0.000537228 0.000110204)
(-0.00031035 0.000490793 0.000110203)
(-0.000390861 0.000429445 0.000110203)
(-0.000459495 0.000355048 0.000110202)
(-0.000514168 0.000269863 0.000110201)
(-0.000553218 0.000176479 0.000110201)
(-0.000575459 7.77332e-05 0.000110202)
(-0.000580214 -2.33749e-05 0.000110203)
(-0.00056734 -0.000123773 0.000110203)
(-0.000537228 -0.00022041 0.000110204)
(-0.000490793 -0.00031035 0.000110203)
(-0.000429445 -0.000390861 0.000110203)
(-0.000355048 -0.000459495 0.000110202)
(-0.000269863 -0.000514168 0.000110201)
(-0.000176479 -0.000553218 0.000110201)
(-7.77332e-05 -0.000575459 0.000110202)
(-1.72329e-05 -0.000809147 0.000285711)
(0.000123536 -0.000799846 0.000285711)
(0.000260551 -0.000766243 0.000285712)
(0.00038965 -0.000709357 0.000285711)
(0.000506909 -0.000630918 0.000285711)
(0.000608766 -0.00053331 0.000285711)
(0.000692126 -0.000419497 0.00028571)
(0.000754456 -0.000292938 0.00028571)
(0.000793862 -0.000157478 0.000285711)
(0.000809147 -1.72329e-05 0.000285711)
(0.000799846 0.000123536 0.000285711)
(0.000766243 0.000260551 0.000285712)
(0.000709357 0.00038965 0.000285711)
(0.000630918 0.000506909 0.000285711)
(0.00053331 0.000608766 0.000285711)
(0.000419497 0.000692126 0.00028571)
(0.000292938 0.000754455 0.00028571)
(0.000157478 0.000793862 0.000285711)
(1.7233e-05 0.000809147 0.000285711)
(-0.000123536 0.000799846 0.000285711)
(-0.000260551 0.000766243 0.000285712)
(-0.00038965 0.000709357 0.000285711)
(-0.000506909 0.000630918 0.000285711)
(-0.000608766 0.00053331 0.000285711)
(-0.000692126 0.000419497 0.00028571)
(-0.000754455 0.000292938 0.00028571)
(-0.000793862 0.000157478 0.000285711)
(-0.000809147 1.7233e-05 0.000285711)
(-0.000799846 -0.000123536 0.000285711)
(-0.000766243 -0.000260551 0.000285712)
(-0.000709357 -0.00038965 0.000285711)
(-0.000630918 -0.000506909 0.000285711)
(-0.00053331 -0.000608766 0.000285711)
(-0.000419497 -0.000692126 0.00028571)
(-0.000292938 -0.000754455 0.00028571)
(-0.000157478 -0.000793862 0.000285711)
(-9.89908e-05 -0.00101978 0.000432976)
(7.95962e-05 -0.00102148 0.000432976)
(0.000255764 -0.000992135 0.000432976)
(0.000424162 -0.000932649 0.000432976)
(0.000579671 -0.000844825 0.000432976)
(0.000717567 -0.000731332 0.000432976)
(0.00083366 -0.000595617 0.000432976)
(0.000924422 -0.000441805 0.000432976)
(0.000987097 -0.00027457 0.000432976)
(0.00101978 -9.89908e-05 0.000432976)
(0.00102148 7.95962e-05 0.000432976)
(0.000992135 0.000255764 0.000432976)
(0.000932649 0.000424162 0.000432976)
(0.000844825 0.000579671 0.000432976)
(0.000731332 0.000717567 0.000432976)
(0.000595617 0.00083366 0.000432976)
(0.000441806 0.000924422 0.000432976)
(0.00027457 0.000987097 0.000432976)
(9.89908e-05 0.00101978 0.000432976)
(-7.95961e-05 0.00102148 0.000432976)
(-0.000255764 0.000992135 0.000432976)
(-0.000424162 0.000932649 0.000432976)
(-0.000579671 0.000844825 0.000432976)
(-0.000717566 0.000731332 0.000432976)
(-0.00083366 0.000595617 0.000432976)
(-0.000924422 0.000441806 0.000432976)
(-0.000987097 0.00027457 0.000432976)
(-0.00101978 9.89908e-05 0.000432976)
(-0.00102148 -7.95962e-05 0.000432976)
(-0.000992135 -0.000255764 0.000432976)
(-0.000932649 -0.000424162 0.000432976)
(-0.000844825 -0.000579671 0.000432976)
(-0.000731332 -0.000717566 0.000432976)
(-0.000595617 -0.00083366 0.000432976)
(-0.000441805 -0.000924422 0.000432976)
(-0.00027457 -0.000987097 0.000432976)
(-0.000130147 -0.000777664 7.9937e-05)
(6.87001e-06 -0.000788449 7.99373e-05)
(0.000143678 -0.000775277 7.9937e-05)
(0.000276121 -0.000738549 7.99367e-05)
(0.000400175 -0.000679381 7.99362e-05)
(0.000512069 -0.00059957 7.99358e-05)
(0.000608404 -0.000501542 7.99353e-05)
(0.000686253 -0.000388274 7.99351e-05)
(0.00074325 -0.00026321 7.99365e-05)
(0.000777664 -0.000130147 7.9937e-05)
(0.000788449 6.86999e-06 7.99373e-05)
(0.000775277 0.000143678 7.9937e-05)
(0.000738549 0.000276121 7.99367e-05)
(0.000679381 0.000400175 7.99362e-05)
(0.00059957 0.000512069 7.99358e-05)
(0.000501542 0.000608404 7.99353e-05)
(0.000388275 0.000686253 7.99351e-05)
(0.00026321 0.00074325 7.99364e-05)
(0.000130147 0.000777664 7.9937e-05)
(-6.86994e-06 0.000788449 7.99373e-05)
(-0.000143678 0.000775277 7.99369e-05)
(-0.000276121 0.000738549 7.99367e-05)
(-0.000400174 0.000679381 7.99362e-05)
(-0.000512068 0.00059957 7.99358e-05)
(-0.000608404 0.000501542 7.99353e-05)
(-0.000686253 0.000388275 7.99351e-05)
(-0.00074325 0.00026321 7.99364e-05)
(-0.000777664 0.000130147 7.9937e-05)
(-0.000788449 -6.86996e-06 7.99373e-05)
(-0.000775277 -0.000143678 7.99369e-05)
(-0.000738549 -0.000276121 7.99367e-05)
(-0.000679381 -0.000400174 7.99362e-05)
(-0.00059957 -0.000512068 7.99358e-05)
(-0.000501542 -0.000608404 7.99353e-05)
(-0.000388274 -0.000686253 7.99351e-05)
(-0.00026321 -0.00074325 7.99365e-05)
(-0.000140743 -0.00101082 0.000262268)
(3.69226e-05 -0.00101991 0.000262267)
(0.000213467 -0.000998001 0.000262268)
(0.000383525 -0.000945771 0.000262267)
(0.00054193 -0.000864804 0.000262267)
(0.000683868 -0.000757561 0.000262267)
(0.000805028 -0.0006273 0.000262267)
(0.000901727 -0.000477978 0.000262267)
(0.000971028 -0.000314133 0.000262267)
(0.00101082 -0.000140744 0.000262268)
(0.00101991 3.69226e-05 0.000262267)
(0.000998001 0.000213467 0.000262268)
(0.000945771 0.000383525 0.000262267)
(0.000864804 0.00054193 0.000262267)
(0.000757561 0.000683868 0.000262267)
(0.0006273 0.000805028 0.000262267)
(0.000477978 0.000901727 0.000262266)
(0.000314133 0.000971028 0.000262267)
(0.000140744 0.00101082 0.000262268)
(-3.69225e-05 0.00101991 0.000262267)
(-0.000213467 0.000998001 0.000262268)
(-0.000383525 0.000945771 0.000262267)
(-0.00054193 0.000864804 0.000262267)
(-0.000683868 0.000757561 0.000262267)
(-0.000805028 0.0006273 0.000262267)
(-0.000901727 0.000477978 0.000262266)
(-0.000971028 0.000314133 0.000262267)
(-0.00101082 0.000140744 0.000262268)
(-0.00101991 -3.69225e-05 0.000262267)
(-0.000998001 -0.000213467 0.000262268)
(-0.000945771 -0.000383525 0.000262267)
(-0.000864804 -0.00054193 0.000262267)
(-0.000757561 -0.000683868 0.000262267)
(-0.0006273 -0.000805028 0.000262267)
(-0.000477978 -0.000901727 0.000262267)
(-0.000314133 -0.000971028 0.000262267)
(-0.000188557 -0.0012252 0.000418359)
(2.70624e-05 -0.00123933 0.000418359)
(0.000241859 -0.00121581 0.000418359)
(0.000449308 -0.00115534 0.000418359)
(0.000643103 -0.00105976 0.000418359)
(0.000817359 -0.000931989 0.000418359)
(0.00096678 -0.000775897 0.000418359)
(0.00108683 -0.00059623 0.000418359)
(0.00117385 -0.000398447 0.000418359)
(0.0012252 -0.000188557 0.000418359)
(0.00123933 2.70624e-05 0.000418359)
(0.00121581 0.000241859 0.000418359)
(0.00115534 0.000449308 0.000418359)
(0.00105976 0.000643103 0.000418359)
(0.000931989 0.000817359 0.000418359)
(0.000775897 0.00096678 0.000418359)
(0.00059623 0.00108683 0.000418359)
(0.000398447 0.00117385 0.000418359)
(0.000188557 0.0012252 0.000418359)
(-2.70623e-05 0.00123933 0.000418359)
(-0.000241859 0.00121581 0.000418359)
(-0.000449307 0.00115534 0.000418359)
(-0.000643103 0.00105976 0.000418359)
(-0.000817359 0.000931989 0.000418359)
(-0.00096678 0.000775897 0.000418359)
(-0.00108683 0.00059623 0.000418359)
(-0.00117385 0.000398447 0.000418359)
(-0.0012252 0.000188557 0.000418359)
(-0.00123933 -2.70623e-05 0.000418359)
(-0.00121581 -0.000241859 0.000418359)
(-0.00115534 -0.000449307 0.000418359)
(-0.00105976 -0.000643103 0.000418359)
(-0.000931989 -0.000817359 0.000418359)
(-0.000775897 -0.00096678 0.000418359)
(-0.00059623 -0.00108683 0.000418359)
(-0.000398447 -0.00117385 0.000418359)
(-0.00031684 -0.000929171 -1.81265e-05)
(-0.000150678 -0.000970073 -1.81274e-05)
(2.0063e-05 -0.0009815 -1.81282e-05)
(0.000190194 -0.000963105 -1.81281e-05)
(0.000354546 -0.000915446 -1.81279e-05)
(0.000508126 -0.000839973 -1.81283e-05)
(0.000646267 -0.000738977 -1.81288e-05)
(0.00076477 -0.000615527 -1.81286e-05)
(0.000860037 -0.000473375 -1.81269e-05)
(0.000929171 -0.00031684 -1.81265e-05)
(0.000970073 -0.000150678 -1.81274e-05)
(0.0009815 2.00629e-05 -1.81282e-05)
(0.000963105 0.000190194 -1.81281e-05)
(0.000915446 0.000354546 -1.81279e-05)
(0.000839973 0.000508126 -1.81283e-05)
(0.000738977 0.000646267 -1.81288e-05)
(0.000615527 0.00076477 -1.81287e-05)
(0.000473375 0.000860037 -1.81269e-05)
(0.00031684 0.000929171 -1.81265e-05)
(0.000150678 0.000970073 -1.81274e-05)
(-2.00629e-05 0.0009815 -1.81282e-05)
(-0.000190194 0.000963105 -1.81282e-05)
(-0.000354546 0.000915446 -1.81279e-05)
(-0.000508126 0.000839973 -1.81283e-05)
(-0.000646267 0.000738977 -1.81288e-05)
(-0.00076477 0.000615527 -1.81287e-05)
(-0.000860037 0.000473375 -1.81269e-05)
(-0.000929171 0.00031684 -1.81265e-05)
(-0.000970073 0.000150678 -1.81274e-05)
(-0.0009815 -2.00629e-05 -1.81282e-05)
(-0.000963105 -0.000190194 -1.81282e-05)
(-0.000915446 -0.000354546 -1.81279e-05)
(-0.000839973 -0.000508126 -1.81283e-05)
(-0.000738977 -0.000646267 -1.81288e-05)
(-0.000615527 -0.00076477 -1.81286e-05)
(-0.000473375 -0.000860037 -1.81269e-05)
(-0.000301487 -0.00117208 0.000168697)
(-9.33777e-05 -0.00120662 0.000168696)
(0.000117569 -0.00120451 0.000168696)
(0.000324943 -0.00116579 0.000168696)
(0.000522444 -0.00109165 0.000168696)
(0.000704071 -0.000984349 0.000168696)
(0.000864305 -0.000847134 0.000168696)
(0.000998277 -0.000684179 0.000168696)
(0.00110192 -0.000500436 0.000168697)
(0.00117208 -0.000301487 0.000168697)
(0.00120662 -9.33778e-05 0.000168696)
(0.00120451 0.000117569 0.000168696)
(0.00116579 0.000324943 0.000168696)
(0.00109165 0.000522444 0.000168696)
(0.000984349 0.000704071 0.000168696)
(0.000847134 0.000864305 0.000168696)
(0.000684179 0.000998277 0.000168696)
(0.000500436 0.00110192 0.000168697)
(0.000301487 0.00117208 0.000168697)
(9.33778e-05 0.00120662 0.000168696)
(-0.000117569 0.00120451 0.000168696)
(-0.000324943 0.00116579 0.000168696)
(-0.000522444 0.00109165 0.000168696)
(-0.000704071 0.000984349 0.000168696)
(-0.000864305 0.000847134 0.000168696)
(-0.000998277 0.000684179 0.000168696)
(-0.00110192 0.000500436 0.000168697)
(-0.00117208 0.000301487 0.000168697)
(-0.00120662 9.33778e-05 0.000168696)
(-0.00120451 -0.000117569 0.000168696)
(-0.00116579 -0.000324943 0.000168696)
(-0.00109165 -0.000522444 0.000168696)
(-0.000984349 -0.000704071 0.000168696)
(-0.000847134 -0.000864305 0.000168696)
(-0.000684179 -0.000998277 0.000168696)
(-0.000500436 -0.00110192 0.000168697)
(-0.000317943 -0.00139626 0.000330404)
(-7.06544e-05 -0.00143026 0.000330403)
(0.000178781 -0.0014208 0.000330404)
(0.000422783 -0.00136817 0.000330404)
(0.00065394 -0.00127397 0.000330403)
(0.000865228 -0.00114106 0.000330404)
(0.00105023 -0.000973477 0.000330404)
(0.00120331 -0.000776318 0.000330404)
(0.00131984 -0.000555571 0.000330404)
(0.00139626 -0.000317943 0.000330404)
(0.00143026 -7.06545e-05 0.000330403)
(0.0014208 0.000178781 0.000330404)
(0.00136817 0.000422783 0.000330404)
(0.00127397 0.00065394 0.000330403)
(0.00114106 0.000865228 0.000330404)
(0.000973477 0.00105023 0.000330404)
(0.000776318 0.00120331 0.000330404)
(0.000555571 0.00131984 0.000330404)
(0.000317943 0.00139626 0.000330404)
(7.06545e-05 0.00143026 0.000330403)
(-0.000178781 0.0014208 0.000330404)
(-0.000422783 0.00136817 0.000330404)
(-0.00065394 0.00127397 0.000330403)
(-0.000865228 0.00114106 0.000330404)
(-0.00105023 0.000973477 0.000330404)
(-0.00120331 0.000776318 0.000330404)
(-0.00131984 0.000555571 0.000330404)
(-0.00139626 0.000317943 0.000330404)
(-0.00143026 7.06545e-05 0.000330403)
(-0.0014208 -0.000178781 0.000330404)
(-0.00136817 -0.000422783 0.000330404)
(-0.00127397 -0.00065394 0.000330403)
(-0.00114106 -0.000865228 0.000330404)
(-0.000973477 -0.00105023 0.000330404)
(-0.000776318 -0.00120331 0.000330404)
(-0.000555571 -0.00131984 0.000330404)
(-0.000506027 -0.00101554 -0.000171472)
(-0.000321993 -0.00108798 -0.000171473)
(-0.000128175 -0.00112737 -0.000171474)
(6.9538e-05 -0.0011325 -0.000171475)
(0.000265138 -0.00110322 -0.000171475)
(0.000452683 -0.00104042 -0.000171475)
(0.000626472 -0.000946003 -0.000171474)
(0.000781226 -0.000822845 -0.000171473)
(0.000912243 -0.000674686 -0.000171472)
(0.00101554 -0.000506027 -0.000171472)
(0.00108798 -0.000321993 -0.000171473)
(0.00112737 -0.000128175 -0.000171474)
(0.0011325 6.95379e-05 -0.000171475)
(0.00110322 0.000265138 -0.000171475)
(0.00104042 0.000452683 -0.000171475)
(0.000946003 0.000626472 -0.000171474)
(0.000822846 0.000781226 -0.000171473)
(0.000674686 0.000912243 -0.000171472)
(0.000506027 0.00101554 -0.000171472)
(0.000321993 0.00108798 -0.000171473)
(0.000128175 0.00112737 -0.000171474)
(-6.95379e-05 0.0011325 -0.000171475)
(-0.000265138 0.00110322 -0.000171475)
(-0.000452683 0.00104042 -0.000171475)
(-0.000626472 0.000946003 -0.000171474)
(-0.000781226 0.000822846 -0.000171473)
(-0.000912243 0.000674686 -0.000171472)
(-0.00101554 0.000506027 -0.000171472)
(-0.00108798 0.000321993 -0.000171473)
(-0.00112737 0.000128175 -0.000171474)
(-0.0011325 -6.95379e-05 -0.000171475)
(-0.00110322 -0.000265138 -0.000171475)
(-0.00104042 -0.000452683 -0.000171475)
(-0.000946003 -0.000626472 -0.000171474)
(-0.000822845 -0.000781226 -0.000171473)
(-0.000674686 -0.000912243 -0.000171472)
(-0.000479589 -0.00127561 1.68459e-05)
(-0.000250795 -0.00133951 1.68451e-05)
(-1.43813e-05 -0.00136271 1.68448e-05)
(0.00022247 -0.00134451 1.68446e-05)
(0.000452561 -0.00128545 1.68444e-05)
(0.000668901 -0.00118733 1.68447e-05)
(0.000864918 -0.00105314 1.68452e-05)
(0.00103465 -0.000886951 1.68455e-05)
(0.00117295 -0.00069381 1.68459e-05)
(0.00127561 -0.000479589 1.68459e-05)
(0.00133951 -0.000250795 1.68451e-05)
(0.00136271 -1.43813e-05 1.68448e-05)
(0.00134451 0.00022247 1.68446e-05)
(0.00128545 0.000452561 1.68444e-05)
(0.00118733 0.000668901 1.68447e-05)
(0.00105314 0.000864918 1.68451e-05)
(0.000886951 0.00103465 1.68455e-05)
(0.00069381 0.00117295 1.68459e-05)
(0.000479589 0.00127561 1.68459e-05)
(0.000250795 0.00133951 1.68451e-05)
(1.43814e-05 0.00136271 1.68448e-05)
(-0.00022247 0.00134451 1.68446e-05)
(-0.000452561 0.00128545 1.68444e-05)
(-0.000668901 0.00118733 1.68447e-05)
(-0.000864918 0.00105314 1.68451e-05)
(-0.00103465 0.000886951 1.68455e-05)
(-0.00117295 0.00069381 1.68459e-05)
(-0.00127561 0.000479589 1.68459e-05)
(-0.00133951 0.000250795 1.68451e-05)
(-0.00136271 1.43813e-05 1.68448e-05)
(-0.00134451 -0.00022247 1.68446e-05)
(-0.00128545 -0.000452561 1.68444e-05)
(-0.00118733 -0.000668901 1.68447e-05)
(-0.00105314 -0.000864918 1.68452e-05)
(-0.000886951 -0.00103465 1.68455e-05)
(-0.00069381 -0.00117295 1.68459e-05)
(-0.000476296 -0.00151968 0.000179749)
(-0.00020517 -0.0015793 0.000179749)
(7.21892e-05 -0.00159094 0.000179749)
(0.000347356 -0.00155423 0.000179749)
(0.000611967 -0.0014703 0.000179749)
(0.000857985 -0.0013417 0.000179749)
(0.00107793 -0.00117233 0.000179749)
(0.00126513 -0.000967334 0.00017975)
(0.00141389 -0.000732951 0.000179749)
(0.00151968 -0.000476296 0.000179749)
(0.0015793 -0.00020517 0.000179749)
(0.00159094 7.21892e-05 0.000179749)
(0.00155423 0.000347356 0.000179749)
(0.0014703 0.000611967 0.000179749)
(0.0013417 0.000857985 0.000179749)
(0.00117233 0.00107793 0.000179749)
(0.000967334 0.00126513 0.00017975)
(0.000732951 0.00141389 0.000179749)
(0.000476296 0.00151968 0.000179749)
(0.00020517 0.0015793 0.000179749)
(-7.21891e-05 0.00159094 0.000179749)
(-0.000347356 0.00155423 0.000179749)
(-0.000611967 0.0014703 0.000179749)
(-0.000857985 0.0013417 0.000179749)
(-0.00107793 0.00117233 0.000179749)
(-0.00126513 0.000967334 0.00017975)
(-0.00141389 0.000732951 0.000179749)
(-0.00151968 0.000476296 0.000179749)
(-0.0015793 0.00020517 0.000179749)
(-0.00159094 -7.21892e-05 0.000179749)
(-0.00155423 -0.000347356 0.000179749)
(-0.0014703 -0.000611967 0.000179749)
(-0.0013417 -0.000857985 0.000179749)
(-0.00117233 -0.00107793 0.000179749)