/*--------------------------------*- C++ -*----------------------------------*\
| =========                 |                                                 |
| \\      /  F ield         | OpenFOAM: The Open Source CFD Toolbox           |
|  \\    /   O peration     | Version:  2312                                  |
|   \\  /    A nd           | Website:  www.openfoam.com                      |
|    \\/     M anipulation  |                                                 |
\*---------------------------------------------------------------------------*/
FoamFile
{
    version     2.0;
    format      ascii;
    arch        "LSB;label=32;scalar=64";
    class       volVectorField;
    location    "0.5";
    object      D_0;
}
// * * * * * * * * * * * * * * * * * * * * * * * * * * * * * * * * * * * * * //

dimensions      [0 1 0 0 0 0 0];

internalField   nonuniform List<vector> 
1620
(
(0.000706314 0.000141283 -0.00184791)
(0.000914287 0.000320538 -0.00171713)
(0.00092505 0.00050998 -0.00137931)
(0.000778653 0.000607402 -0.000923815)
(0.000556891 0.000587647 -0.000460433)
(0.000322852 0.000480346 -6.59918e-05)
(0.000107249 0.000327389 0.000227065)
(-8.04153e-05 0.000161504 0.000419644)
(-0.000239695 3.26256e-06 0.00053185)
(-0.000371897 -0.00013615 0.000593026)
(-0.000476243 -0.000252194 0.000635245)
(-0.000548207 -0.000343647 0.000688326)
(-0.000579591 -0.00040696 0.000775823)
(-0.000559154 -0.000430025 0.000912336)
(-0.000471234 -0.00039344 0.00110185)
(-0.000293291 -0.000289796 0.00133421)
(-7.10344e-06 -0.000155556 0.00157759)
(0.000360291 -7.95311e-05 0.00177507)
(0.000706314 -0.000141283 0.00184791)
(0.000914287 -0.000320538 0.00171713)
(0.00092505 -0.00050998 0.00137931)
(0.000778653 -0.000607402 0.000923815)
(0.000556891 -0.000587647 0.000460433)
(0.000322852 -0.000480346 6.59918e-05)
(0.000107249 -0.000327389 -0.000227065)
(-8.04153e-05 -0.000161504 -0.000419644)
(-0.000239695 -3.26256e-06 -0.00053185)
(-0.000371897 0.00013615 -0.000593026)
(-0.000476243 0.000252194 -0.000635245)
(-0.000548207 0.000343647 -0.000688326)
(-0.000579591 0.00040696 -0.000775823)
(-0.000559154 0.000430025 -0.000912336)
(-0.000471234 0.00039344 -0.00110185)
(-0.000293291 0.000289796 -0.00133421)
(-7.10344e-06 0.000155556 -0.00157759)
(0.000360291 7.95311e-05 -0.00177507)
(0.000356742 0.000430527 -0.00155598)
(0.00043349 0.000440492 -0.00140475)
(0.000424918 0.000475054 -0.00117448)
(0.000334024 0.00051391 -0.000891121)
(0.000184877 0.000538158 -0.000589643)
(8.82957e-06 0.000540396 -0.000299736)
(-0.00016727 0.000520259 -3.91516e-05)
(-0.000324215 0.000479763 0.000186727)
(-0.000449467 0.00042109 0.000382515)
(-0.000535135 0.000345052 0.000559261)
(-0.000576031 0.000250031 0.0007299)
(-0.000568889 0.000132956 0.000904068)
(-0.000513545 -6.32531e-06 0.00108344)
(-0.000415203 -0.000158182 0.00125968)
(-0.000284254 -0.00029911 0.00141712)
(-0.000130636 -0.000398779 0.00153898)
(4.03558e-05 -0.000440175 0.00161111)
(0.000214947 -0.000438553 0.00162081)
(0.000356742 -0.000430527 0.00155598)
(0.00043349 -0.000440492 0.00140475)
(0.000424918 -0.000475054 0.00117448)
(0.000334024 -0.00051391 0.000891121)
(0.000184877 -0.000538158 0.000589643)
(8.82957e-06 -0.000540396 0.000299736)
(-0.00016727 -0.000520259 3.91516e-05)
(-0.000324215 -0.000479763 -0.000186727)
(-0.000449467 -0.00042109 -0.000382515)
(-0.000535135 -0.000345052 -0.000559261)
(-0.000576031 -0.000250031 -0.0007299)
(-0.000568889 -0.000132956 -0.000904068)
(-0.000513545 6.32531e-06 -0.00108344)
(-0.000415203 0.000158182 -0.00125968)
(-0.000284254 0.00029911 -0.00141712)
(-0.000130636 0.000398779 -0.00153898)
(4.03558e-05 0.000440175 -0.00161111)
(0.000214947 0.000438553 -0.00162081)
(8.79863e-05 0.000582079 -0.0013097)
(7.97081e-05 0.000483531 -0.0011596)
(5.67486e-05 0.00042009 -0.00101833)
(4.02572e-06 0.000431981 -0.000869769)
(-9.31768e-05 0.000512274 -0.000694607)
(-0.000230717 0.000628024 -0.000483951)
(-0.000387369 0.00074239 -0.000240286)
(-0.000535603 0.000826408 2.74489e-05)
(-0.000650665 0.000861393 0.000308965)
(-0.000714573 0.000836558 0.000594936)
(-0.000716653 0.000746076 0.000876118)
(-0.000653769 0.000588108 0.00114062)
(-0.000532374 0.000366933 0.0013713)
(-0.000371711 9.80335e-05 0.00154596)
(-0.000203532 -0.000186199 0.0016432)
(-6.22731e-05 -0.000435967 0.00165308)
(3.15772e-05 -0.000597093 0.00158445)
(7.76354e-05 -0.000639673 0.00146038)
(8.79863e-05 -0.000582079 0.0013097)
(7.97081e-05 -0.000483531 0.0011596)
(5.67486e-05 -0.00042009 0.00101833)
(4.02572e-06 -0.000431981 0.000869769)
(-9.31768e-05 -0.000512274 0.000694607)
(-0.000230717 -0.000628024 0.000483951)
(-0.000387369 -0.00074239 0.000240286)
(-0.000535603 -0.000826408 -2.74489e-05)
(-0.000650665 -0.000861393 -0.000308965)
(-0.000714573 -0.000836558 -0.000594936)
(-0.000716653 -0.000746076 -0.000876118)
(-0.000653769 -0.000588108 -0.00114062)
(-0.000532374 -0.000366933 -0.0013713)
(-0.000371711 -9.80335e-05 -0.00154596)
(-0.000203532 0.000186199 -0.0016432)
(-6.22731e-05 0.000435967 -0.00165308)
(3.15772e-05 0.000597093 -0.00158445)
(7.76354e-05 0.000639673 -0.00146038)
(0.00217211 0.000928234 -0.00479338)
(0.00266222 0.00114317 -0.0042841)
(0.00254697 0.00136859 -0.00340269)
(0.0019786 0.00147617 -0.00234644)
(0.00120203 0.00144235 -0.00129926)
(0.00040369 0.00129782 -0.000384326)
(-0.000317368 0.00108142 0.000344115)
(-0.000924861 0.000825278 0.000886386)
(-0.00141439 0.000553297 0.00127989)
(-0.00179031 0.000279334 0.00158354)
(-0.00205107 5.1691e-06 0.00186278)
(-0.00218186 -0.000276116 0.0021746)
(-0.00215422 -0.000567074 0.00255459)
(-0.00193216 -0.000844851 0.00301026)
(-0.00148214 -0.0010472 0.0035244)
(-0.000783233 -0.00109874 0.00406088)
(0.000154216 -0.000995747 0.00454633)
(0.00122913 -0.000874471 0.00483855)
(0.00217211 -0.000928234 0.00479338)
(0.00266222 -0.00114317 0.0042841)
(0.00254697 -0.00136859 0.00340269)
(0.0019786 -0.00147617 0.00234644)
(0.00120203 -0.00144235 0.00129926)
(0.00040369 -0.00129782 0.000384326)
(-0.000317368 -0.00108142 -0.000344115)
(-0.000924861 -0.000825278 -0.000886386)
(-0.00141439 -0.000553297 -0.00127989)
(-0.00179031 -0.000279334 -0.00158354)
(-0.00205107 -5.1691e-06 -0.00186278)
(-0.00218186 0.000276116 -0.0021746)
(-0.00215422 0.000567074 -0.00255459)
(-0.00193216 0.000844851 -0.00301026)
(-0.00148214 0.0010472 -0.0035244)
(-0.000783233 0.00109874 -0.00406088)
(0.000154216 0.000995747 -0.00454633)
(0.00122913 0.000874471 -0.00483855)
(0.00149148 0.00134882 -0.00443443)
(0.0017543 0.00130195 -0.00400838)
(0.00168921 0.00132961 -0.00336996)
(0.00132402 0.00139068 -0.00259101)
(0.000772151 0.00144631 -0.00175267)
(0.00015195 0.00146618 -0.000927498)
(-0.000446931 0.00142995 -0.00016625)
(-0.000966972 0.00132912 0.000508484)
(-0.0013754 0.0011643 0.001101)
(-0.00165398 0.000938538 0.00163463)
(-0.00179016 0.000651685 0.00213975)
(-0.00177239 0.000300691 0.00264057)
(-0.00159192 -0.000111738 0.00314344)
(-0.00125081 -0.00056134 0.00363039)
(-0.000772066 -0.000987887 0.00406262)
(-0.000200849 -0.00130328 0.00439584)
(0.00040968 -0.00144199 0.00459419)
(0.00100446 -0.00142131 0.00462028)
(0.00149148 -0.00134882 0.00443443)
(0.0017543 -0.00130195 0.00400838)
(0.00168921 -0.00132961 0.00336996)
(0.00132402 -0.00139068 0.00259101)
(0.000772151 -0.00144631 0.00175267)
(0.00015195 -0.00146618 0.000927498)
(-0.000446931 -0.00142995 0.00016625)
(-0.000966972 -0.00132912 -0.000508484)
(-0.0013754 -0.0011643 -0.001101)
(-0.00165398 -0.000938538 -0.00163463)
(-0.00179016 -0.000651685 -0.00213975)
(-0.00177239 -0.000300691 -0.00264057)
(-0.00159192 0.000111738 -0.00314344)
(-0.00125081 0.00056134 -0.00363039)
(-0.000772066 0.000987887 -0.00406262)
(-0.000200849 0.00130328 -0.00439584)
(0.00040968 0.00144199 -0.00459419)
(0.00100446 0.00142131 -0.00462028)
(0.000896918 0.00160205 -0.00401538)
(0.000981981 0.00136795 -0.00368382)
(0.000962336 0.00124743 -0.00328158)
(0.000780943 0.00128209 -0.00276752)
(0.000435446 0.00143323 -0.0021313)
(-2.34177e-05 0.00162244 -0.00139712)
(-0.00051836 0.00177321 -0.000608603)
(-0.000972399 0.00183313 0.000191805)
(-0.00132448 0.00177507 0.000975009)
(-0.00153296 0.00158871 0.00172534)
(-0.00157313 0.00127319 0.00243357)
(-0.00143579 0.000834881 0.00308826)
(-0.00113102 0.000290556 0.00366833)
(-0.000697436 -0.000324025 0.00413853)
(-0.00020998 -0.00094194 0.00445277)
(0.000231721 -0.00145951 0.00457376)
(0.000551986 -0.00176082 0.00450597)
(0.00075514 -0.00178358 0.00430315)
(0.000896918 -0.00160205 0.00401538)
(0.000981981 -0.00136795 0.00368382)
(0.000962336 -0.00124743 0.00328158)
(0.000780943 -0.00128209 0.00276752)
(0.000435446 -0.00143323 0.0021313)
(-2.34177e-05 -0.00162244 0.00139712)
(-0.00051836 -0.00177321 0.000608603)
(-0.000972399 -0.00183313 -0.000191805)
(-0.00132448 -0.00177507 -0.000975009)
(-0.00153296 -0.00158871 -0.00172534)
(-0.00157313 -0.00127319 -0.00243357)
(-0.00143579 -0.000834881 -0.00308826)
(-0.00113102 -0.000290556 -0.00366833)
(-0.000697436 0.000324025 -0.00413853)
(-0.00020998 0.00094194 -0.00445277)
(0.000231721 0.00145951 -0.00457376)
(0.000551986 0.00176082 -0.00450597)
(0.00075514 0.00178358 -0.00430315)
(0.00424289 0.0022699 -0.00717855)
(0.00472186 0.00232565 -0.0063654)
(0.00415572 0.00233812 -0.0050858)
(0.00292173 0.00226742 -0.00360574)
(0.00142332 0.00211503 -0.00214817)
(-4.84984e-05 0.0018892 -0.000850564)
(-0.00133714 0.00159919 0.000225608)
(-0.00238676 0.00125909 0.00107926)
(-0.00319496 0.000885175 0.0017542)
(-0.00377388 0.000487411 0.00232203)
(-0.0041254 6.28548e-05 0.00286216)
(-0.00422874 -0.000401276 0.00344082)
(-0.00403718 -0.000911415 0.00409407)
(-0.00348272 -0.00144166 0.0048216)
(-0.00249314 -0.00191329 0.00559444)
(-0.00103638 -0.00221472 0.00636317)
(0.000798432 -0.00229417 0.00703079)
(0.00271693 -0.00224909 0.00737855)
(0.00424289 -0.0022699 0.00717855)
(0.00472186 -0.00232565 0.0063654)
(0.00415572 -0.00233812 0.0050858)
(0.00292173 -0.00226742 0.00360574)
(0.00142332 -0.00211503 0.00214817)
(-4.84984e-05 -0.0018892 0.000850564)
(-0.00133714 -0.00159919 -0.000225608)
(-0.00238676 -0.00125909 -0.00107926)
(-0.00319496 -0.000885175 -0.0017542)
(-0.00377388 -0.000487411 -0.00232203)
(-0.0041254 -6.28548e-05 -0.00286216)
(-0.00422874 0.000401276 -0.00344082)
(-0.00403718 0.000911415 -0.00409407)
(-0.00348272 0.00144166 -0.0048216)
(-0.00249314 0.00191329 -0.00559444)
(-0.00103638 0.00221472 -0.00636317)
(0.000798432 0.00229417 -0.00703079)
(0.00271693 0.00224909 -0.00737855)
(0.00323397 0.0023612 -0.00672797)
(0.00353871 0.0022312 -0.00607452)
(0.00322985 0.00217366 -0.0051295)
(0.00244703 0.00218302 -0.00398038)
(0.00139888 0.00221594 -0.00273144)
(0.000279074 0.00221426 -0.00148387)
(-0.000768679 0.00213291 -0.000313888)
(-0.0016559 0.00195139 0.00074078)
(-0.0023368 0.00166826 0.00168037)
(-0.00278909 0.00128888 0.00253148)
(-0.00299747 0.000816609 0.00333043)
(-0.00294454 0.000252941 0.00410623)
(-0.00261064 -0.00039247 0.00486691)
(-0.00198237 -0.00108386 0.00559214)
(-0.00106915 -0.00174133 0.00623476)
(7.45993e-05 -0.00224526 0.00673233)
(0.0013236 -0.00249652 0.00702261)
(0.00245302 -0.00249743 0.00704262)
(0.00323397 -0.0023612 0.00672797)
(0.00353871 -0.0022312 0.00607452)
(0.00322985 -0.00217366 0.0051295)
(0.00244703 -0.00218302 0.00398038)
(0.00139888 -0.00221594 0.00273144)
(0.000279074 -0.00221426 0.00148387)
(-0.000768679 -0.00213291 0.000313888)
(-0.0016559 -0.00195139 -0.00074078)
(-0.0023368 -0.00166826 -0.00168037)
(-0.00278909 -0.00128888 -0.00253148)
(-0.00299747 -0.000816609 -0.00333043)
(-0.00294454 -0.000252941 -0.00410623)
(-0.00261064 0.00039247 -0.00486691)
(-0.00198237 0.00108386 -0.00559214)
(-0.00106915 0.00174133 -0.00623476)
(7.45993e-05 0.00224526 -0.00673233)
(0.0013236 0.00249652 -0.00702261)
(0.00245302 0.00249743 -0.00704262)
(0.00234061 0.00238213 -0.00617421)
(0.00250947 0.00210337 -0.00571251)
(0.00242983 0.00197376 -0.00507934)
(0.00206716 0.00202968 -0.00423799)
(0.00145001 0.00221492 -0.00319797)
(0.000669281 0.00242092 -0.00201995)
(-0.000150919 0.00254678 -0.000784265)
(-0.000892897 0.00252954 0.00044191)
(-0.00146824 0.00234225 0.00161748)
(-0.00181946 0.00198065 0.00272221)
(-0.00191271 0.0014538 0.00374555)
(-0.00173317 0.000781129 0.00467657)
(-0.00128829 -5.46671e-06 0.00549568)
(-0.000619828 -0.000853281 0.0061672)
(0.000181958 -0.00167349 0.00663668)
(0.000980576 -0.00233191 0.00684663)
(0.00163184 -0.00268388 0.00678376)
(0.0020533 -0.00266419 0.00652743)
(0.00234061 -0.00238213 0.00617421)
(0.00250947 -0.00210337 0.00571251)
(0.00242983 -0.00197376 0.00507934)
(0.00206716 -0.00202968 0.00423799)
(0.00145001 -0.00221492 0.00319797)
(0.000669281 -0.00242092 0.00201995)
(-0.000150919 -0.00254678 0.000784265)
(-0.000892897 -0.00252954 -0.00044191)
(-0.00146824 -0.00234225 -0.00161748)
(-0.00181946 -0.00198065 -0.00272221)
(-0.00191271 -0.0014538 -0.00374555)
(-0.00173317 -0.000781129 -0.00467657)
(-0.00128829 5.46671e-06 -0.00549568)
(-0.000619828 0.000853281 -0.0061672)
(0.000181958 0.00167349 -0.00663668)
(0.000980576 0.00233191 -0.00684663)
(0.00163184 0.00268388 -0.00678376)
(0.0020533 0.00266419 -0.00652743)
(0.00611443 0.00370514 -0.00867223)
(0.00637432 0.00333285 -0.00770084)
(0.00531802 0.00299697 -0.00626469)
(0.00344928 0.0026941 -0.00461102)
(0.00128973 0.00238873 -0.00294752)
(-0.000773949 0.00205075 -0.00141502)
(-0.00253569 0.0016645 -8.40563e-05)
(-0.00393059 0.0012263 0.00103638)
(-0.00496401 0.000739384 0.00198236)
(-0.00565622 0.000205742 0.00281703)
(-0.00601233 -0.000380599 0.00361073)
(-0.00600895 -0.00103081 0.00442051)
(-0.00558823 -0.00174631 0.00527524)
(-0.0046571 -0.00249631 0.00617311)
(-0.003107 -0.00320181 0.00708814)
(-0.000897798 -0.00374804 0.0079632)
(0.00178071 -0.00403223 0.00867488)
(0.00438605 -0.00400381 0.00899821)
(0.00611443 -0.00370514 0.00867223)
(0.00637432 -0.00333285 0.00770084)
(0.00531802 -0.00299697 0.00626469)
(0.00344928 -0.0026941 0.00461102)
(0.00128973 -0.00238873 0.00294752)
(-0.000773949 -0.00205075 0.00141502)
(-0.00253569 -0.0016645 8.40563e-05)
(-0.00393059 -0.0012263 -0.00103638)
(-0.00496401 -0.000739384 -0.00198236)
(-0.00565622 -0.000205742 -0.00281703)
(-0.00601233 0.0003806 -0.00361073)
(-0.00600895 0.00103081 -0.00442051)
(-0.00558823 0.00174631 -0.00527524)
(-0.0046571 0.00249631 -0.00617311)
(-0.003107 0.00320181 -0.00708814)
(-0.000897798 0.00374804 -0.0079632)
(0.00178071 0.00403223 -0.00867488)
(0.00438605 0.00400381 -0.00899821)
(0.00492937 0.0033166 -0.00824053)
(0.00510026 0.00302639 -0.0074532)
(0.00449112 0.00283746 -0.00632911)
(0.00331268 0.0027488 -0.00495399)
(0.00182775 0.0026955 -0.0034453)
(0.000285429 0.0026046 -0.00192332)
(-0.00112826 0.00242372 -0.000478113)
(-0.00230291 0.00212802 0.000845145)
(-0.00318524 0.00171355 0.00204144)
(-0.00375119 0.00118578 0.00313189)
(-0.00398389 0.000551656 0.00414733)
(-0.00386216 -0.000180552 0.0051128)
(-0.00335903 -0.000992795 0.00603588)
(-0.00244983 -0.00184237 0.00690068)
(-0.00113425 -0.00264614 0.00766647)
(0.000520843 -0.00328024 0.00826831)
(0.00232404 -0.00361807 0.00862121)
(0.00392707 -0.00359765 0.00863398)
(0.00492937 -0.0033166 0.00824053)
(0.00510026 -0.00302639 0.0074532)
(0.00449112 -0.00283746 0.00632911)
(0.00331268 -0.0027488 0.00495399)
(0.00182775 -0.0026955 0.0034453)
(0.000285429 -0.0026046 0.00192332)
(-0.00112826 -0.00242372 0.000478113)
(-0.00230291 -0.00212802 -0.000845145)
(-0.00318524 -0.00171355 -0.00204144)
(-0.00375119 -0.00118578 -0.00313189)
(-0.00398389 -0.000551656 -0.00414733)
(-0.00386216 0.000180552 -0.0051128)
(-0.00335903 0.000992795 -0.00603588)
(-0.00244983 0.00184237 -0.00690068)
(-0.00113425 0.00264614 -0.00766647)
(0.000520843 0.00328024 -0.00826831)
(0.00232404 0.00361807 -0.00862121)
(0.00392707 0.00359765 -0.00863398)
(0.00378547 0.00308971 -0.00782216)
(0.00393478 0.00285226 -0.00722736)
(0.00377009 0.00273953 -0.00636577)
(0.00325872 0.00278034 -0.00522897)
(0.00243038 0.00291382 -0.00386752)
(0.00139743 0.00303558 -0.0023735)
(0.000320408 0.00305004 -0.000843361)
(-0.000648548 0.00289966 0.000650741)
(-0.00139872 0.00256312 0.00206692)
(-0.00186092 0.00204291 0.00338406)
(-0.00199475 0.00135699 0.00459088)
(-0.0017805 0.000535083 0.00567817)
(-0.00122267 -0.000381533 0.00663186)
(-0.000366575 -0.00133396 0.00742495)
(0.000680867 -0.00223016 0.00801206)
(0.00175591 -0.00293632 0.00834163)
(0.00269061 -0.00331565 0.00839182)
(0.00337345 -0.00332472 0.00819897)
(0.00378547 -0.00308971 0.00782216)
(0.00393478 -0.00285226 0.00722736)
(0.00377009 -0.00273953 0.00636577)
(0.00325872 -0.00278034 0.00522897)
(0.00243038 -0.00291382 0.00386752)
(0.00139743 -0.00303558 0.0023735)
(0.000320408 -0.00305004 0.000843361)
(-0.000648548 -0.00289966 -0.000650741)
(-0.00139872 -0.00256312 -0.00206692)
(-0.00186092 -0.00204291 -0.00338406)
(-0.00199475 -0.00135699 -0.00459088)
(-0.0017805 -0.000535083 -0.00567817)
(-0.00122267 0.000381533 -0.00663186)
(-0.000366575 0.00133396 -0.00742495)
(0.000680867 0.00223016 -0.00801206)
(0.00175591 0.00293632 -0.00834163)
(0.00269061 0.00331565 -0.00839182)
(0.00337345 0.00332472 -0.00819897)
(0.00687709 0.00471887 -0.00923453)
(0.00701255 0.00403354 -0.00828326)
(0.00574368 0.0033697 -0.00690477)
(0.00353716 0.00278824 -0.00527708)
(0.000984307 0.00226575 -0.00357843)
(-0.00144234 0.00176019 -0.00194878)
(-0.00349123 0.00123901 -0.000467875)
(-0.00508889 0.000679683 0.000843224)
(-0.00624326 6.79368e-05 0.00200383)
(-0.00697429 -0.000604894 0.00305539)
(-0.00728347 -0.00134548 0.00404558)
(-0.00714275 -0.00215611 0.00501371)
(-0.0064876 -0.00302249 0.00598202)
(-0.0052142 -0.00389484 0.0069559)
(-0.00321241 -0.00467531 0.0079203)
(-0.00050261 -0.00523151 0.00880489)
(0.00255584 -0.00544163 0.00944533)
(0.00525844 -0.00524936 0.0096314)
(0.00687709 -0.00471887 0.00923453)
(0.00701255 -0.00403354 0.00828326)
(0.00574368 -0.0033697 0.00690477)
(0.00353716 -0.00278824 0.00527708)
(0.000984307 -0.00226575 0.00357843)
(-0.00144234 -0.00176019 0.00194878)
(-0.00349123 -0.00123901 0.000467875)
(-0.00508889 -0.000679683 -0.000843224)
(-0.00624326 -6.79368e-05 -0.00200383)
(-0.00697429 0.000604894 -0.00305539)
(-0.00728347 0.00134548 -0.00404558)
(-0.00714275 0.00215611 -0.00501371)
(-0.0064876 0.00302249 -0.00598202)
(-0.0052142 0.00389484 -0.0069559)
(-0.00321241 0.00467531 -0.0079203)
(-0.00050261 0.00523151 -0.00880489)
(0.00255584 0.00544163 -0.00944533)
(0.00525844 0.00524936 -0.0096314)
(0.00567321 0.00409419 -0.00896926)
(0.00581026 0.00368954 -0.00814955)
(0.00507899 0.00333624 -0.00696434)
(0.00369021 0.00307005 -0.00550354)
(0.00195071 0.00284427 -0.00388959)
(0.000155949 0.00259267 -0.00224676)
(-0.00147704 0.00226498 -0.000666515)
(-0.00282235 0.00183343 0.000804398)
(-0.00381913 0.00128841 0.00215463)
(-0.00443794 0.000632191 0.00339379)
(-0.00465732 -0.000125815 0.00453994)
(-0.00445246 -0.000969093 0.00560917)
(-0.00379351 -0.00186826 0.00660787)
(-0.00265503 -0.00276967 0.00752782)
(-0.00104777 -0.00358331 0.0083399)
(0.000914266 -0.00418778 0.00898194)
(0.00295024 -0.00447334 0.0093579)
(0.00465635 -0.00441065 0.00937193)
(0.00567321 -0.00409419 0.00896926)
(0.00581026 -0.00368954 0.00814955)
(0.00507899 -0.00333624 0.00696434)
(0.00369021 -0.00307005 0.00550354)
(0.00195071 -0.00284427 0.00388959)
(0.000155949 -0.00259267 0.00224676)
(-0.00147704 -0.00226498 0.000666515)
(-0.00282235 -0.00183343 -0.000804398)
(-0.00381913 -0.00128841 -0.00215463)
(-0.00443794 -0.000632191 -0.00339379)
(-0.00465732 0.000125815 -0.00453994)
(-0.00445246 0.000969093 -0.00560917)
(-0.00379351 0.00186826 -0.00660787)
(-0.00265503 0.00276967 -0.00752782)
(-0.00104777 0.00358331 -0.0083399)
(0.000914266 0.00418778 -0.00898194)
(0.00295024 0.00447334 -0.0093579)
(0.00465635 0.00441065 -0.00937193)
(0.00451099 0.00367746 -0.00884328)
(0.00468364 0.00354628 -0.00814565)
(0.00449151 0.00344794 -0.00709937)
(0.00390728 0.00341488 -0.00575539)
(0.00296737 0.00341251 -0.00420418)
(0.00179352 0.00336832 -0.00255103)
(0.000565434 0.00321275 -0.00088856)
(-0.000541117 0.00290323 0.000719798)
(-0.00139729 0.00242491 0.00223773)
(-0.00192343 0.00178376 0.00364474)
(-0.00207372 0.00100219 0.00492813)
(-0.00182599 0.000115961 0.00607911)
(-0.00118602 -0.000827738 0.00708843)
(-0.0002083 -0.00176745 0.00793961)
(0.000978979 -0.0026177 0.0086037)
(0.00218659 -0.00327168 0.00904762)
(0.00323596 -0.00364716 0.00925058)
(0.00402169 -0.00375035 0.00919563)
(0.00451099 -0.00367746 0.00884328)
(0.00468364 -0.00354628 0.00814565)
(0.00449151 -0.00344794 0.00709937)
(0.00390728 -0.00341488 0.00575539)
(0.00296737 -0.00341251 0.00420418)
(0.00179352 -0.00336832 0.00255103)
(0.000565434 -0.00321275 0.00088856)
(-0.000541117 -0.00290323 -0.000719798)
(-0.00139729 -0.00242491 -0.00223773)
(-0.00192343 -0.00178376 -0.00364474)
(-0.00207372 -0.00100219 -0.00492813)
(-0.00182599 -0.000115961 -0.00607911)
(-0.00118602 0.000827738 -0.00708843)
(-0.0002083 0.00176745 -0.00793961)
(0.000978979 0.0026177 -0.0086037)
(0.00218659 0.00327168 -0.00904762)
(0.00323596 0.00364716 -0.00925058)
(0.00402169 0.00375035 -0.00919563)
(0.00661035 0.00523956 -0.00912559)
(0.00664815 0.00432354 -0.00828396)
(0.00536089 0.00340247 -0.00706669)
(0.00313904 0.00256179 -0.0055884)
(0.000528836 0.00180516 -0.00398358)
(-0.00198735 0.00110202 -0.00237922)
(-0.00412815 0.000418984 -0.000860634)
(-0.0057986 -0.000276231 0.000538117)
(-0.00699302 -0.0010117 0.00181815)
(-0.0077192 -0.00180555 0.00299741)
(-0.00796798 -0.0026632 0.00409912)
(-0.00770492 -0.00357371 0.00514482)
(-0.00686617 -0.00450013 0.00615169)
(-0.00536346 -0.00536679 0.00713054)
(-0.00313852 -0.00605696 0.0080661)
(-0.000312316 -0.00643935 0.00887496)
(0.00267909 -0.0064207 0.00940392)
(0.00518411 -0.00599127 0.00950807)
(0.00661035 -0.00523956 0.00912559)
(0.00664815 -0.00432354 0.00828396)
(0.00536089 -0.00340247 0.00706669)
(0.00313904 -0.00256179 0.0055884)
(0.000528836 -0.00180516 0.00398358)
(-0.00198735 -0.00110202 0.00237922)
(-0.00412815 -0.000418984 0.000860634)
(-0.0057986 0.000276231 -0.000538117)
(-0.00699302 0.0010117 -0.00181815)
(-0.0077192 0.00180555 -0.00299741)
(-0.00796798 0.0026632 -0.00409912)
(-0.00770492 0.00357371 -0.00514482)
(-0.00686617 0.00450013 -0.00615169)
(-0.00536346 0.00536679 -0.00713054)
(-0.00313852 0.00605696 -0.0080661)
(-0.000312316 0.00643935 -0.00887496)
(0.00267909 0.0064207 -0.00940392)
(0.00518411 0.00599127 -0.00950807)
(0.00556129 0.00453465 -0.00900205)
(0.00564405 0.00403282 -0.00823422)
(0.00489227 0.00353152 -0.00710567)
(0.00348867 0.00307518 -0.00569423)
(0.00171586 0.00264598 -0.00411336)
(-0.000132628 0.00220261 -0.00248122)
(-0.00182769 0.00170842 -0.000886475)
(-0.00322908 0.00113763 0.000622961)
(-0.00426297 0.000475819 0.00202888)
(-0.00488881 -0.000278883 0.00332853)
(-0.00507731 -0.00111536 0.00452617)
(-0.00480067 -0.00200863 0.00562813)
(-0.00403259 -0.00291623 0.00663883)
(-0.00276216 -0.00377175 0.00755568)
(-0.00103431 -0.00448235 0.00835696)
(0.000986983 -0.00494604 0.00898524)
(0.00299661 -0.00509371 0.00935203)
(0.00462494 -0.00492917 0.00937335)
(0.00556129 -0.00453465 0.00900205)
(0.00564405 -0.00403282 0.00823422)
(0.00489227 -0.00353152 0.00710567)
(0.00348867 -0.00307518 0.00569423)
(0.00171586 -0.00264598 0.00411336)
(-0.000132628 -0.00220261 0.00248122)
(-0.00182769 -0.00170842 0.000886475)
(-0.00322908 -0.00113763 -0.000622961)
(-0.00426297 -0.000475819 -0.00202888)
(-0.00488881 0.000278883 -0.00332853)
(-0.00507731 0.00111536 -0.00452617)
(-0.00480067 0.00200863 -0.00562813)
(-0.00403259 0.00291623 -0.00663883)
(-0.00276216 0.00377175 -0.00755568)
(-0.00103431 0.00448235 -0.00835696)
(0.000986983 0.00494604 -0.00898524)
(0.00299661 0.00509371 -0.00935203)
(0.00462494 0.00492917 -0.00937335)
(0.00452956 0.00405766 -0.00911454)
(0.00468683 0.00398353 -0.00840316)
(0.00447692 0.0038692 -0.00730818)
(0.00388277 0.00373275 -0.00590923)
(0.00293556 0.0035633 -0.00431964)
(0.00174451 0.00332764 -0.00264878)
(0.000484434 0.00298988 -0.000981382)
(-0.000660805 0.00252655 0.000628082)
(-0.00154948 0.00192971 0.0021481)
(-0.00209206 0.00120681 0.00355849)
(-0.002238 0.000381348 0.0048448)
(-0.00196563 -0.000508253 0.00599756)
(-0.00128704 -0.00141148 0.00701063)
(-0.000269284 -0.00226746 0.00787653)
(0.000945707 -0.00300653 0.0085808)
(0.00216768 -0.00356295 0.0091007)
(0.00323068 -0.00390406 0.00940255)
(0.00403433 -0.00405024 0.00943095)
(0.00452956 -0.00405766 0.00911454)
(0.00468683 -0.00398353 0.00840316)
(0.00447692 -0.0038692 0.00730818)
(0.00388277 -0.00373275 0.00590923)
(0.00293556 -0.0035633 0.00431964)
(0.00174451 -0.00332764 0.00264878)
(0.000484434 -0.00298988 0.000981382)
(-0.000660805 -0.00252655 -0.000628082)
(-0.00154948 -0.00192971 -0.0021481)
(-0.00209206 -0.00120681 -0.00355849)
(-0.002238 -0.000381348 -0.0048448)
(-0.00196563 0.000508253 -0.00599756)
(-0.00128704 0.00141148 -0.00701063)
(-0.000269284 0.00226746 -0.00787653)
(0.000945707 0.00300653 -0.0085808)
(0.00216768 0.00356295 -0.0091007)
(0.00323068 0.00390406 -0.00940255)
(0.00403433 0.00405024 -0.00943095)
(0.00549403 0.00541082 -0.00855534)
(0.0055023 0.0042864 -0.00788513)
(0.00434429 0.00314578 -0.00688808)
(0.00232481 0.00207615 -0.00563068)
(-0.000102668 0.00109994 -0.0042056)
(-0.00250221 0.000201202 -0.00271951)
(-0.00458617 -0.000647739 -0.00125949)
(-0.00623188 -0.00147916 0.000127856)
(-0.00740801 -0.00232524 0.00142792)
(-0.00810345 -0.00320772 0.00264047)
(-0.00829698 -0.00412867 0.00377006)
(-0.00795112 -0.00506383 0.00482427)
(-0.00701385 -0.0059561 0.00581448)
(-0.00543465 -0.00671179 0.00674935)
(-0.00322648 -0.00721117 0.00760885)
(-0.000577115 -0.0073443 0.00831713)
(0.00210089 -0.00705855 0.00876224)
(0.00427843 -0.00638145 0.00885316)
(0.00549403 -0.00541082 0.00855534)
(0.0055023 -0.0042864 0.00788513)
(0.00434429 -0.00314578 0.00688808)
(0.00232481 -0.00207615 0.00563068)
(-0.000102668 -0.00109994 0.0042056)
(-0.00250221 -0.000201202 0.00271951)
(-0.00458617 0.000647739 0.00125949)
(-0.00623188 0.00147916 -0.000127856)
(-0.00740801 0.00232524 -0.00142792)
(-0.00810345 0.00320772 -0.00264047)
(-0.00829698 0.00412867 -0.00377006)
(-0.00795112 0.00506383 -0.00482427)
(-0.00701385 0.0059561 -0.00581448)
(-0.00543465 0.00671179 -0.00674935)
(-0.00322648 0.00721117 -0.00760885)
(-0.000577115 0.0073443 -0.00831713)
(0.00210089 0.00705855 -0.00876224)
(0.00427843 0.00638145 -0.00885316)
(0.00470509 0.00470724 -0.00851397)
(0.00475896 0.00406789 -0.00786101)
(0.00406889 0.00340407 -0.00687755)
(0.00278289 0.00275895 -0.00562052)
(0.00113654 0.00213263 -0.00418061)
(-0.000611353 0.00150424 -0.00266025)
(-0.00224169 0.000850861 -0.00114401)
(-0.00360586 0.000152751 0.000316207)
(-0.00461529 -0.000604461 0.00169454)
(-0.00521597 -0.0014241 0.00297814)
(-0.00537044 -0.00229323 0.0041605)
(-0.0050504 -0.00317981 0.00523984)
(-0.00423968 -0.00403095 0.00621764)
(-0.00295175 -0.00477276 0.00709243)
(-0.00126751 -0.00531822 0.00784573)
(0.000626541 -0.00559089 0.00842941)
(0.00244888 -0.00555582 0.00877411)
(0.00389175 -0.00523632 0.00881532)
(0.00470509 -0.00470724 0.00851397)
(0.00475896 -0.00406789 0.00786101)
(0.00406889 -0.00340407 0.00687755)
(0.00278289 -0.00275895 0.00562052)
(0.00113654 -0.00213263 0.00418061)
(-0.000611353 -0.00150424 0.00266025)
(-0.00224169 -0.000850861 0.00114401)
(-0.00360586 -0.000152751 -0.000316207)
(-0.00461529 0.000604461 -0.00169454)
(-0.00521597 0.0014241 -0.00297814)
(-0.00537044 0.00229323 -0.0041605)
(-0.0050504 0.00317981 -0.00523984)
(-0.00423968 0.00403095 -0.00621764)
(-0.00295175 0.00477276 -0.00709243)
(-0.00126751 0.00531822 -0.00784573)
(0.000626541 0.00559089 -0.00842941)
(0.00244888 0.00555582 -0.00877411)
(0.00389175 0.00523632 -0.00881532)
(0.00389735 0.00424519 -0.00879093)
(0.00402573 0.00412337 -0.00813641)
(0.00381616 0.00392388 -0.00710959)
(0.00326083 0.0036559 -0.00579207)
(0.00238647 0.00332032 -0.00429343)
(0.0012812 0.0029089 -0.00271508)
(9.53552e-05 0.00241068 -0.00113395)
(-0.000998059 0.00181883 0.000399399)
(-0.00185368 0.00113291 0.00185389)
(-0.00237426 0.000362403 0.00320821)
(-0.00250506 -0.000468982 0.0044464)
(-0.00222646 -0.0013226 0.0055583)
(-0.00155875 -0.00214799 0.0065393)
(-0.000579145 -0.00288887 0.00738655)
(0.000569934 -0.00349265 0.00809226)
(0.00171415 -0.00392405 0.00863657)
(0.00270511 -0.00417665 0.00897954)
(0.00344889 -0.00427234 0.00905613)
(0.00389735 -0.00424519 0.00879093)
(0.00402573 -0.00412337 0.00813641)
(0.00381616 -0.00392388 0.00710959)
(0.00326083 -0.0036559 0.00579207)
(0.00238647 -0.00332032 0.00429343)
(0.0012812 -0.0029089 0.00271508)
(9.53552e-05 -0.00241068 0.00113395)
(-0.000998059 -0.00181883 -0.000399399)
(-0.00185368 -0.00113291 -0.00185389)
(-0.00237426 -0.000362403 -0.00320821)
(-0.00250506 0.000468982 -0.0044464)
(-0.00222646 0.0013226 -0.0055583)
(-0.00155875 0.00214799 -0.0065393)
(-0.000579145 0.00288887 -0.00738655)
(0.000569934 0.00349265 -0.00809226)
(0.00171415 0.00392405 -0.00863657)
(0.00270511 0.00417665 -0.00897954)
(0.00344889 0.00427234 -0.00905613)
(0.00374359 0.00539108 -0.00771431)
(0.00378513 0.00407783 -0.00725164)
(0.00285491 0.00274172 -0.00650697)
(0.00116535 0.00147019 -0.00551091)
(-0.00093883 0.00029808 -0.00432008)
(-0.00309374 -0.000778999 -0.00301723)
(-0.00502324 -0.00178235 -0.00168643)
(-0.00657757 -0.0027389 -0.000385873)
(-0.00769493 -0.00367595 0.000855635)
(-0.00834467 -0.00461148 0.00202529)
(-0.00849743 -0.0055422 0.00311655)
(-0.00811962 -0.00643485 0.00412818)
(-0.00718008 -0.00722254 0.00506514)
(-0.00567205 -0.00780907 0.00593024)
(-0.00366367 -0.00808752 0.00670371)
(-0.00135819 -0.00797582 0.00733145)
(0.000902668 -0.00745107 0.00774219)
(0.00271835 -0.00655739 0.00787842)
(0.00374359 -0.00539108 0.00771431)
(0.00378513 -0.00407783 0.00725164)
(0.00285491 -0.00274172 0.00650697)
(0.00116535 -0.00147019 0.00551091)
(-0.00093883 -0.00029808 0.00432008)
(-0.00309374 0.000778999 0.00301723)
(-0.00502324 0.00178235 0.00168643)
(-0.00657757 0.0027389 0.000385873)
(-0.00769493 0.00367595 -0.000855635)
(-0.00834467 0.00461148 -0.00202529)
(-0.00849743 0.0055422 -0.00311655)
(-0.00811962 0.00643485 -0.00412818)