/*--------------------------------*- C++ -*----------------------------------*\
| =========                 |                                                 |
| \\      /  F ield         | OpenFOAM: The Open Source CFD Toolbox           |
|  \\    /   O peration     | Version:  2312                                  |
|   \\  /    A nd           | Website:  www.openfoam.com                      |
|    \\/     M anipulation  |                                                 |
\*---------------------------------------------------------------------------*/
FoamFile
{
    version     2.0;
    format      ascii;
    arch        "LSB;label=32;scalar=64";
    class       volVectorField;
    location    "0.5";
    object      D_0_0_0;
}
// * * * * * * * * * * * * * * * * * * * * * * * * * * * * * * * * * * * * * //

dimensions      [0 1 0 0 0 0 0];

internalField   nonuniform List<vector> 
1620
(
(0.000706249 0.000237165 -0.00180006)
(0.000903336 0.000409492 -0.00165269)
(0.000908449 0.000584992 -0.00130489)
(0.000760955 0.000665141 -0.000845867)
(0.000540955 0.000627456 -0.000383123)
(0.000310499 0.000502851 8.87794e-06)
(9.97842e-05 0.000333833 0.000299184)
(-8.21111e-05 0.000153362 0.000489294)
(-0.000235095 -1.81008e-05 0.000599234)
(-0.000360665 -0.000169604 0.000657812)
(-0.000458163 -0.000296641 0.000696337)
(-0.000523375 -0.000397653 0.000743888)
(-0.000548835 -0.000468601 0.000823536)
(-0.00052439 -0.000497422 0.000949766)
(-0.000435458 -0.000465984 0.00112666)
(-0.000260409 -0.000368881 0.001344)
(1.81723e-05 -0.000242983 0.00156973)
(0.000373599 -0.000174083 0.00174734)
(0.000706249 -0.000237165 0.00180006)
(0.000903336 -0.000409492 0.00165269)
(0.000908449 -0.000584992 0.00130489)
(0.000760955 -0.000665141 0.000845867)
(0.000540955 -0.000627456 0.000383123)
(0.000310499 -0.000502851 -8.87794e-06)
(9.97842e-05 -0.000333833 -0.000299184)
(-8.21111e-05 -0.000153362 -0.000489294)
(-0.000235095 1.81008e-05 -0.000599234)
(-0.000360665 0.000169604 -0.000657812)
(-0.000458163 0.000296641 -0.000696337)
(-0.000523375 0.000397653 -0.000743888)
(-0.000548835 0.000468601 -0.000823536)
(-0.00052439 0.000497422 -0.000949766)
(-0.000435458 0.000465984 -0.00112666)
(-0.000260409 0.000368881 -0.001344)
(1.81723e-05 0.000242983 -0.00156973)
(0.000373599 0.000174083 -0.00174734)
(0.00036171 0.000506865 -0.00150374)
(0.000433301 0.000512322 -0.00134051)
(0.00042146 0.000537396 -0.00110116)
(0.000329573 0.000562404 -0.000812294)
(0.00018167 0.000570027 -0.00050861)
(8.75984e-06 0.000554459 -0.000219067)
(-0.000162854 0.000516632 3.92526e-05)
(-0.000314613 0.000459456 0.000261359)
(-0.00043456 0.000385613 0.00045197)
(-0.000515229 0.000296178 0.000622019)
(-0.000551777 0.000189797 0.000784221)
(-0.000541349 6.38175e-05 0.000948029)
(-0.000484323 -8.13936e-05 0.00111517)
(-0.000386362 -0.000235985 0.00127776)
(-0.000257857 -0.0003771 0.00142092)
(-0.000108257 -0.000476004 0.00152854)
(5.75482e-05 -0.000517202 0.0015866)
(0.000226049 -0.000515893 0.00158224)
(0.00036171 -0.000506865 0.00150374)
(0.000433301 -0.000512322 0.00134051)
(0.00042146 -0.000537396 0.00110116)
(0.000329573 -0.000562404 0.000812294)
(0.00018167 -0.000570027 0.00050861)
(8.75984e-06 -0.000554459 0.000219067)
(-0.000162854 -0.000516632 -3.92526e-05)
(-0.000314613 -0.000459456 -0.000261359)
(-0.00043456 -0.000385613 -0.00045197)
(-0.000515229 -0.000296178 -0.000622019)
(-0.000551777 -0.000189797 -0.000784221)
(-0.000541349 -6.38175e-05 -0.000948029)
(-0.000484323 8.13936e-05 -0.00111517)
(-0.000386362 0.000235985 -0.00127776)
(-0.000257857 0.0003771 -0.00142092)
(-0.000108257 0.000476004 -0.00152854)
(5.75482e-05 0.000517202 -0.0015866)
(0.000226049 0.000515893 -0.00158224)
(9.56377e-05 0.000644327 -0.00125282)
(8.57374e-05 0.000542134 -0.00109414)
(6.12231e-05 0.000471721 -0.000944531)
(7.79649e-06 0.000471639 -0.000789039)
(-8.83163e-05 0.000535385 -0.000609537)
(-0.000222694 0.000631719 -0.000397814)
(-0.000374576 0.000725788 -0.000156543)
(-0.000517285 0.000790317 0.000105475)
(-0.000626939 0.000807845 0.000378282)
(-0.000686298 0.000768393 0.000652998)
(-0.000685325 0.000666651 0.000920879)
(-0.00062147 0.000501162 0.00117058)
(-0.000501615 0.000276531 0.00138561)
(-0.00034493 8.41847e-06 0.00154466)
(-0.000182216 -0.000271162 0.00162739)
(-4.62782e-05 -0.000513842 0.00162469)
(4.36078e-05 -0.000667852 0.00154546)
(8.70856e-05 -0.000705268 0.00141213)
(9.56377e-05 -0.000644327 0.00125282)
(8.57374e-05 -0.000542134 0.00109414)
(6.12231e-05 -0.000471721 0.000944531)
(7.79649e-06 -0.000471639 0.000789039)
(-8.83163e-05 -0.000535385 0.000609537)
(-0.000222694 -0.000631719 0.000397814)
(-0.000374576 -0.000725788 0.000156543)
(-0.000517285 -0.000790317 -0.000105475)
(-0.000626939 -0.000807845 -0.000378282)
(-0.000686298 -0.000768393 -0.000652998)
(-0.000685325 -0.000666651 -0.000920879)
(-0.00062147 -0.000501162 -0.00117058)
(-0.000501615 -0.000276531 -0.00138561)
(-0.00034493 -8.41846e-06 -0.00154466)
(-0.000182216 0.000271162 -0.00162739)
(-4.62782e-05 0.000513842 -0.00162469)
(4.36078e-05 0.000667852 -0.00154546)
(8.70856e-05 0.000705268 -0.00141213)
(0.00217373 0.00119123 -0.00464808)
(0.0026311 0.00138793 -0.00409969)
(0.00250015 0.00157903 -0.00319373)
(0.00193182 0.00164191 -0.0021246)
(0.00116559 0.0015572 -0.00107251)
(0.000383234 0.00135952 -0.000157743)
(-0.00031928 0.00109124 0.00056727)
(-0.000907513 0.000786679 0.00110373)
(-0.00137797 0.000470327 0.00148896)
(-0.00173521 0.000155896 0.00178094)
(-0.00197766 -0.000154597 0.00204358)
(-0.00209102 -0.000466771 0.00233244)
(-0.00204852 -0.000781027 0.00268246)
(-0.00181723 -0.00107302 0.00310192)
(-0.00136721 -0.00128226 0.00357537)
(-0.000680221 -0.00133968 0.00406765)
(0.000232272 -0.00124735 0.00450434)
(0.00127088 -0.00113765 0.00474408)
(0.00217373 -0.00119123 0.00464808)
(0.0026311 -0.00138793 0.00409969)
(0.00250015 -0.00157903 0.00319373)
(0.00193182 -0.00164191 0.0021246)
(0.00116559 -0.0015572 0.00107251)
(0.000383234 -0.00135952 0.000157743)
(-0.00031928 -0.00109124 -0.00056727)
(-0.000907513 -0.000786679 -0.00110373)
(-0.00137797 -0.000470327 -0.00148896)
(-0.00173521 -0.000155896 -0.00178094)
(-0.00197766 0.000154597 -0.00204358)
(-0.00209102 0.000466771 -0.00233244)
(-0.00204852 0.000781027 -0.00268246)
(-0.00181723 0.00107302 -0.00310192)
(-0.00136721 0.00128226 -0.00357537)
(-0.000680221 0.00133968 -0.00406765)
(0.000232272 0.00124735 -0.00450434)
(0.00127088 0.00113765 -0.00474408)
(0.0014973 0.00156945 -0.00428732)
(0.00174006 0.00150953 -0.00382606)
(0.00166356 0.00151017 -0.00316047)
(0.00129727 0.00153199 -0.00236394)
(0.000752965 0.00153975 -0.0015173)
(0.000146217 0.00150775 -0.000691759)
(-0.000436094 0.00141992 6.36203e-05)
(-0.000938641 0.00127065 0.000727543)
(-0.00133006 0.00106199 0.00130491)
(-0.00159291 0.000797598 0.00181903)
(-0.00171525 0.000477835 0.00229994)
(-0.00168648 0.000100587 0.0027715)
(-0.00149944 -0.000330105 0.00324011)
(-0.00115821 -0.000788945 0.00368861)
(-0.000687032 -0.00121653 0.00407997)
(-0.00013035 -0.00152879 0.00437185)
(0.000460903 -0.00166555 0.0045289)
(0.00103342 -0.00164522 0.00451343)
(0.0014973 -0.00156945 0.00428732)
(0.00174006 -0.00150953 0.00382606)
(0.00166356 -0.00151017 0.00316047)
(0.00129727 -0.00153199 0.00236394)
(0.000752965 -0.00153975 0.0015173)
(0.000146217 -0.00150775 0.000691759)
(-0.000436094 -0.00141992 -6.36203e-05)
(-0.000938641 -0.00127065 -0.000727543)
(-0.00133006 -0.00106199 -0.00130491)
(-0.00159291 -0.000797598 -0.00181903)
(-0.00171525 -0.000477835 -0.00229994)
(-0.00168648 -0.000100587 -0.0027715)
(-0.00149944 0.000330105 -0.00324011)
(-0.00115821 0.000788945 -0.00368861)
(-0.000687032 0.00121653 -0.00407997)
(-0.00013035 0.00152879 -0.00437185)
(0.000460903 0.00166555 -0.0045289)
(0.00103342 0.00164522 -0.00451343)
(0.000904336 0.00178622 -0.00386678)
(0.000979328 0.00154199 -0.00350329)
(0.000952153 0.00140012 -0.00307196)
(0.0007688 0.00140012 -0.00253636)
(0.000428406 0.00150568 -0.00188878)
(-1.91494e-05 0.0016433 -0.00115367)
(-0.000498891 0.00174162 -0.000373397)
(-0.000936326 0.00175215 0.00041109)
(-0.00127237 0.00165025 0.00117196)
(-0.00146683 0.00142711 0.00189466)
(-0.00149632 0.00108267 0.00257101)
(-0.00135308 0.000623709 0.00319059)
(-0.00104875 6.72848e-05 0.00373316)
(-0.000622895 -0.000550604 0.00416429)
(-0.000149484 -0.00116339 0.00443928)
(0.000275677 -0.00166985 0.00452287)
(0.000581517 -0.0019592 0.00442087)
(0.000773282 -0.0019738 0.004186)
(0.000904336 -0.00178622 0.00386678)
(0.000979328 -0.00154199 0.00350329)
(0.000952153 -0.00140012 0.00307196)
(0.0007688 -0.00140012 0.00253636)
(0.000428406 -0.00150568 0.00188878)
(-1.91494e-05 -0.0016433 0.00115367)
(-0.000498891 -0.00174162 0.000373397)
(-0.000936326 -0.00175215 -0.00041109)
(-0.00127237 -0.00165025 -0.00117196)
(-0.00146683 -0.00142711 -0.00189466)
(-0.00149632 -0.00108267 -0.00257101)
(-0.00135308 -0.000623709 -0.00319059)
(-0.00104875 -6.72848e-05 -0.00373316)
(-0.000622895 0.000550604 -0.00416429)
(-0.000149484 0.00116339 -0.00443928)
(0.000275677 0.00166985 -0.00452287)
(0.000581517 0.0019592 -0.00442087)
(0.000773282 0.0019738 -0.004186)
(0.00422518 0.00265935 -0.00695362)
(0.00465242 0.00268732 -0.00607975)
(0.0040709 0.00265193 -0.00475983)
(0.00284908 0.00251737 -0.00325491)
(0.00137835 0.00228935 -0.00178359)
(-5.96784e-05 0.00198243 -0.000480864)
(-0.00131399 0.00161201 0.000593251)
(-0.00233125 0.00119599 0.00143852)
(-0.00310971 0.000752082 0.00209881)
(-0.00366115 0.0002906 0.00264496)
(-0.0039869 -0.000190675 0.00315507)
(-0.00406598 -0.000702577 0.00369419)
(-0.00385277 -0.00124863 0.00429823)
(-0.00328287 -0.00180075 0.00496837)
(-0.00229127 -0.00228186 0.00567787)
(-0.000855561 -0.00258821 0.00637774)
(0.000929624 -0.00267725 0.00696851)
(0.00277618 -0.00264355 0.00723261)
(0.00422518 -0.00265935 0.00695362)
(0.00465242 -0.00268732 0.00607975)
(0.0040709 -0.00265193 0.00475983)
(0.00284908 -0.00251737 0.00325491)
(0.00137835 -0.00228935 0.00178359)
(-5.96784e-05 -0.00198243 0.000480864)
(-0.00131399 -0.00161201 -0.000593251)
(-0.00233125 -0.00119599 -0.00143852)
(-0.00310971 -0.000752082 -0.00209881)
(-0.00366115 -0.0002906 -0.00264496)
(-0.0039869 0.000190675 -0.00315507)
(-0.00406598 0.000702577 -0.00369419)
(-0.00385277 0.00124863 -0.00429823)
(-0.00328287 0.00180075 -0.00496837)
(-0.00229127 0.00228186 -0.00567787)
(-0.000855561 0.00258821 -0.00637774)
(0.000929624 0.00267725 -0.00696851)
(0.00277618 0.00264355 -0.00723261)
(0.00322057 0.00269995 -0.00650711)
(0.00349368 0.00254798 -0.0057968)
(0.00317239 0.0024495 -0.00480734)
(0.00239495 0.00239996 -0.0036281)
(0.00136531 0.00236051 -0.00236326)
(0.000271562 0.00228011 -0.00111223)
(-0.000747373 0.00212028 5.1021e-05)
(-0.00160615 0.00186487 0.00109047)
(-0.00226049 0.00151462 0.0020072)
(-0.00268873 0.00107592 0.00282806)
(-0.00287599 0.000553047 0.0035894)
(-0.00280583 -5.1289e-05 0.00432032)
(-0.00246058 -0.000725837 0.00502924)
(-0.00183012 -0.00143358 0.00569676)
(-0.000927836 -0.00209532 0.00627716)
(0.000189306 -0.00259612 0.00670981)
(0.0013979 -0.00284396 0.0069337)
(0.00248143 -0.00284315 0.00688643)
(0.00322057 -0.00269995 0.00650711)
(0.00349368 -0.00254798 0.0057968)
(0.00317239 -0.0024495 0.00480734)
(0.00239495 -0.00239996 0.0036281)
(0.00136531 -0.00236051 0.00236326)
(0.000271562 -0.00228011 0.00111223)
(-0.000747373 -0.00212028 -5.1021e-05)
(-0.00160615 -0.00186487 -0.00109047)
(-0.00226049 -0.00151462 -0.0020072)
(-0.00268873 -0.00107592 -0.00282806)
(-0.00287599 -0.000553047 -0.0035894)
(-0.00280583 5.1289e-05 -0.00432032)
(-0.00246058 0.000725837 -0.00502924)
(-0.00183012 0.00143358 -0.00569676)
(-0.000927836 0.00209532 -0.00627716)
(0.000189306 0.00259612 -0.00670981)
(0.0013979 0.00284396 -0.0069337)
(0.00248143 0.00284315 -0.00688643)
(0.00232727 0.00267197 -0.0059594)
(0.00248178 0.00237517 -0.0054431)
(0.00239334 0.00221117 -0.00476283)
(0.00203038 0.00221415 -0.00388789)
(0.0014232 0.0023312 -0.00283047)
(0.000661193 0.00246094 -0.00165028)
(-0.000135229 0.00250979 -0.00042523)
(-0.000851977 0.00242004 0.000779635)
(-0.00140306 0.00216797 0.00192464)
(-0.00173258 0.00175133 0.0029909)
(-0.00180826 0.0011803 0.00396942)
(-0.00161741 0.000474729 0.00485084)
(-0.00117039 -0.000333307 0.00561664)
(-0.000511759 -0.00119075 0.00623175)
(0.000267763 -0.00200868 0.00664264)
(0.00103626 -0.00265548 0.00679439)
(0.00165808 -0.00299315 0.00667655)
(0.00205745 -0.00296276 0.00636735)
(0.00232727 -0.00267197 0.0059594)
(0.00248178 -0.00237517 0.0054431)
(0.00239334 -0.00221117 0.00476283)
(0.00203038 -0.00221415 0.00388789)
(0.0014232 -0.0023312 0.00283047)
(0.000661193 -0.00246094 0.00165028)
(-0.000135229 -0.00250979 0.00042523)
(-0.000851977 -0.00242004 -0.000779635)
(-0.00140306 -0.00216797 -0.00192464)
(-0.00173258 -0.00175133 -0.0029909)
(-0.00180826 -0.0011803 -0.00396942)
(-0.00161741 -0.000474729 -0.00485084)
(-0.00117039 0.000333307 -0.00561664)
(-0.000511759 0.00119075 -0.00623175)
(0.000267763 0.00200868 -0.00664264)
(0.00103626 0.00265548 -0.00679439)
(0.00165808 0.00299315 -0.00667655)
(0.00205745 0.00296276 -0.00636735)
(0.00607246 0.00415846 -0.00840023)
(0.00626911 0.00376241 -0.00735014)
(0.00520004 0.00337778 -0.00585616)
(0.00335641 0.00300272 -0.0041619)
(0.00124147 0.00260848 -0.00247232)
(-0.000773213 0.00217349 -0.000926421)
(-0.0024893 0.00168926 0.00040638)
(-0.00384377 0.00115684 0.00151769)
(-0.00484142 0.000581956 0.00244386)
(-0.00550156 -3.20558e-05 0.00324796)
(-0.00582831 -0.000689646 0.00399999)
(-0.00579731 -0.0013995 0.00475685)
(-0.00535043 -0.00215983 0.00554826)
(-0.00439719 -0.00293746 0.00637432)
(-0.00283905 -0.00365452 0.00721018)
(-0.000654717 -0.00420277 0.00799678)
(0.00195197 -0.00448792 0.00860848)
(0.00444967 -0.00446156 0.00882478)
(0.00607246 -0.00415846 0.00840023)
(0.00626911 -0.00376241 0.00735014)
(0.00520004 -0.00337778 0.00585616)
(0.00335641 -0.00300272 0.0041619)
(0.00124147 -0.00260848 0.00247232)
(-0.000773213 -0.00217349 0.000926421)
(-0.0024893 -0.00168926 -0.00040638)
(-0.00384377 -0.00115684 -0.00151769)
(-0.00484142 -0.000581956 -0.00244386)
(-0.00550156 3.20558e-05 -0.00324796)
(-0.00582831 0.000689646 -0.00399999)
(-0.00579731 0.0013995 -0.00475685)
(-0.00535043 0.00215983 -0.00554826)
(-0.00439719 0.00293746 -0.00637432)
(-0.00283905 0.00365452 -0.00721018)
(-0.000654718 0.00420277 -0.00799678)
(0.00195197 0.00448792 -0.00860848)
(0.00444967 0.00446156 -0.00882478)
(0.00489166 0.00373395 -0.00797476)
(0.00502596 0.00341769 -0.0071129)
(0.00440623 0.00317985 -0.00592899)
(0.00324017 0.0030199 -0.00451166)
(0.0017836 0.00287944 -0.00297838)
(0.000277458 0.00269387 -0.00144718)
(-0.00109865 0.00241792 -5.85066e-06)
(-0.00223768 0.00203151 0.00130174)
(-0.00308752 0.00153352 0.00247127)
(-0.00362436 0.00093121 0.00352452)
(-0.00383154 0.000232994 0.00449305)
(-0.00368867 -0.000551282 0.00540282)
(-0.00317069 -0.0014019 0.00626245)
(-0.00225679 -0.00227483 0.00705695)
(-0.000952854 -0.00308721 0.0077459)
(0.000667822 -0.00371907 0.00826448)
(0.00241374 -0.00405068 0.00852912)
(0.00394871 -0.00402452 0.00845265)
(0.00489166 -0.00373395 0.00797476)
(0.00502596 -0.00341769 0.0071129)
(0.00440623 -0.00317985 0.00592899)
(0.00324017 -0.0030199 0.00451166)
(0.0017836 -0.00287944 0.00297838)
(0.000277458 -0.00269387 0.00144718)
(-0.00109865 -0.00241792 5.85066e-06)
(-0.00223768 -0.00203151 -0.00130174)
(-0.00308752 -0.00153352 -0.00247127)
(-0.00362436 -0.00093121 -0.00352452)
(-0.00383154 -0.000232994 -0.00449305)
(-0.00368867 0.000551282 -0.00540282)
(-0.00317069 0.0014019 -0.00626245)
(-0.00225679 0.00227483 -0.00705695)
(-0.000952854 0.00308721 -0.0077459)
(0.000667822 0.00371907 -0.00826448)
(0.00241374 0.00405068 -0.00852912)
(0.00394871 0.00402452 -0.00845265)
(0.00375022 0.00346428 -0.00756124)
(0.00388531 0.00319798 -0.00689399)
(0.003712 0.00303734 -0.00597309)
(0.00320127 0.00301047 -0.00479546)
(0.00238583 0.00306088 -0.00341233)
(0.00137667 0.00309159 -0.00191331)
(0.000329579 0.00301431 -0.000392109)
(-0.000608028 0.00277671 0.00108066)
(-0.00132824 0.00236101 0.00246393)
(-0.00176339 0.00177217 0.00373788)
(-0.00187467 0.00102964 0.00489317)
(-0.00164498 0.000163767 0.00592261)
(-0.00108297 -0.000784032 0.00681349)
(-0.000238749 -0.00175433 0.00753911)
(0.000779033 -0.00265445 0.00805426)
(0.00181273 -0.00335278 0.00830903)
(0.00270645 -0.00371894 0.00828379)
(0.00335832 -0.00371505 0.00801512)
(0.00375022 -0.00346428 0.00756124)
(0.00388531 -0.00319798 0.00689399)
(0.003712 -0.00303734 0.00597309)
(0.00320127 -0.00301047 0.00479546)
(0.00238583 -0.00306088 0.00341233)
(0.00137667 -0.00309159 0.00191331)
(0.000329579 -0.00301431 0.000392109)
(-0.000608028 -0.00277671 -0.00108066)
(-0.00132824 -0.00236101 -0.00246393)
(-0.00176339 -0.00177217 -0.00373788)
(-0.00187467 -0.00102964 -0.00489317)
(-0.00164498 -0.000163767 -0.00592261)
(-0.00108297 0.000784032 -0.00681349)
(-0.000238749 0.00175433 -0.00753911)
(0.000779033 0.00265445 -0.00805426)
(0.00181273 0.00335278 -0.00830903)
(0.00270645 0.00371894 -0.00828379)
(0.00335832 0.00371505 -0.00801512)
(0.00683758 0.00519745 -0.00895066)
(0.00689791 0.00448883 -0.00790542)
(0.0056093 0.00377853 -0.00645211)
(0.00342963 0.00312597 -0.00476819)
(0.000928022 0.00251374 -0.00303047)
(-0.00144308 0.00190769 -0.00137747)
(-0.00344163 0.00128187 0.00011179)
(-0.00499527 0.000618877 0.00141622)
(-0.00611049 -9.1732e-05 0.00255529)
(-0.00680616 -0.00085576 0.00357104)
(-0.00708301 -0.00167719 0.00451196)
(-0.00691186 -0.0025552 0.00541863)
(-0.006227 -0.00347201 0.00631522)
(-0.00492636 -0.00437547 0.007209)
(-0.00291178 -0.00516894 0.00808399)
(-0.000228311 -0.00572632 0.00886595)
(0.00274905 -0.00593346 0.009391)
(0.00533368 -0.00573706 0.00945804)
(0.00683758 -0.00519745 0.00895066)
(0.00689791 -0.00448883 0.00790542)
(0.0056093 -0.00377853 0.00645211)
(0.00342963 -0.00312597 0.00476819)
(0.000928022 -0.00251374 0.00303047)
(-0.00144308 -0.00190769 0.00137747)
(-0.00344163 -0.00128187 -0.00011179)
(-0.00499527 -0.000618877 -0.00141622)
(-0.00611049 9.1732e-05 -0.00255529)
(-0.00680616 0.00085576 -0.00357104)
(-0.00708301 0.00167719 -0.00451196)
(-0.00691186 0.0025552 -0.00541863)
(-0.006227 0.00347201 -0.00631522)
(-0.00492636 0.00437547 -0.007209)
(-0.00291178 0.00516894 -0.00808399)
(-0.000228311 0.00572632 -0.00886595)
(0.00274905 0.00593346 -0.009391)
(0.00533368 0.00573706 -0.00945804)
(0.0056329 0.00455219 -0.00868653)
(0.00572504 0.00411582 -0.00777887)
(0.00497903 0.00370964 -0.00652208)
(0.00360333 0.00336879 -0.00500892)
(0.00189575 0.00305229 -0.00336152)
(0.000141476 0.00270139 -0.00170188)
(-0.00144985 0.00227209 -0.000119754)
(-0.00275576 0.00174134 0.00133858)
(-0.00371639 0.00110313 0.00266208)
(-0.00430256 0.000362503 0.0038613)
(-0.00449314 -0.000468821 0.00495582)
(-0.00426413 -0.00137237 0.00596352)
(-0.00358752 -0.00231704 0.00689245)
(-0.00244195 -0.0032479 0.00773515)
(-0.000845733 -0.00407511 0.00846151)
(0.00107905 -0.00468043 0.00900792)
(0.00305215 -0.00495951 0.00928029)
(0.00468355 -0.00488617 0.00918898)
(0.0056329 -0.00455219 0.00868653)
(0.00572504 -0.00411582 0.00777887)
(0.00497903 -0.00370964 0.00652208)
(0.00360333 -0.00336879 0.00500892)
(0.00189575 -0.00305229 0.00336152)
(0.000141476 -0.00270139 0.00170188)
(-0.00144985 -0.00227209 0.000119754)
(-0.00275576 -0.00174134 -0.00133858)
(-0.00371639 -0.00110313 -0.00266208)
(-0.00430256 -0.000362503 -0.0038613)
(-0.00449314 0.000468821 -0.00495582)
(-0.00426413 0.00137237 -0.00596352)
(-0.00358752 0.00231704 -0.00689245)
(-0.00244195 0.0032479 -0.00773515)
(-0.000845733 0.00407511 -0.00846151)
(0.00107905 0.00468043 -0.00900792)
(0.00305215 0.00495951 -0.00928029)
(0.00468355 0.00488617 -0.00918898)
(0.0044682 0.00410797 -0.00855595)
(0.00462339 0.00393438 -0.00777398)
(0.00442089 0.00377636 -0.00666171)
(0.00383644 0.00366705 -0.00527275)
(0.00290966 0.00357566 -0.00369602)
(0.00176158 0.00343557 -0.00203353)
(0.000566848 0.00318291 -0.000375601)
(-0.000504389 0.00277956 0.0012149)
(-0.0013267 0.00221424 0.00270176)
(-0.00182212 0.00149592 0.00406553)
(-0.00194642 0.000649016 0.00529565)
(-0.00168028 -0.000289827 0.0063857)
(-0.00103438 -0.00127332 0.00732798)
(-6.92116e-05 -0.00223968 0.00810599)
(0.00108496 -0.00310271 0.00868988)
(0.002247 -0.00375661 0.00904651)
(0.00325217 -0.00412257 0.00915595)
(0.00400346 -0.00420855 0.00900361)
(0.0044682 -0.00410797 0.00855595)
(0.00462339 -0.00393438 0.00777398)
(0.00442089 -0.00377636 0.00666171)
(0.00383644 -0.00366705 0.00527275)
(0.00290966 -0.00357566 0.00369602)
(0.00176158 -0.00343557 0.00203353)
(0.000566848 -0.00318291 0.000375601)
(-0.000504389 -0.00277956 -0.0012149)
(-0.0013267 -0.00221424 -0.00270176)
(-0.00182212 -0.00149592 -0.00406553)
(-0.00194642 -0.000649016 -0.00529565)
(-0.00168028 0.000289827 -0.0063857)
(-0.00103438 0.00127332 -0.00732798)
(-6.92116e-05 0.00223968 -0.00810599)
(0.00108496 0.00310271 -0.00868988)
(0.002247 0.00375661 -0.00904651)
(0.00325217 0.00412257 -0.00915595)
(0.00400346 0.00420855 -0.00900361)
(0.00658818 0.00571815 -0.00885579)
(0.00654589 0.00477623 -0.00790895)
(0.00522977 0.00381052 -0.00660335)
(0.00302631 0.00290401 -0.00505555)
(0.000462269 0.00206383 -0.00340009)
(-0.00200055 0.00126495 -0.00176272)
(-0.00409151 0.000478907 -0.000228125)
(-0.00571705 -0.000321864 0.00116913)
(-0.00687003 -0.00116062 0.00242981)
(-0.00755758 -0.00205104 0.00357253)
(-0.00777043 -0.00299452 0.00462225)
(-0.00747346 -0.00397619 0.00560305)
(-0.00660172 -0.00495554 0.00653501)
(-0.00506903 -0.0058548 0.00743035)
(-0.00283017 -0.006559 0.00827128)
(-2.99772e-05 -0.00694317 0.0089706)
(0.00288347 -0.00692061 0.00937766)
(0.00527538 -0.00648366 0.00935676)
(0.00658818 -0.00571815 0.00885579)
(0.00654589 -0.00477623 0.00790895)
(0.00522977 -0.00381052 0.00660335)
(0.00302631 -0.00290401 0.00505555)
(0.000462269 -0.00206383 0.00340009)
(-0.00200055 -0.00126495 0.00176272)
(-0.00409151 -0.000478907 0.000228125)
(-0.00571705 0.000321864 -0.00116913)
(-0.00687003 0.00116062 -0.00242981)
(-0.00755758 0.00205104 -0.00357253)
(-0.00777043 0.00299452 -0.00462225)
(-0.00747346 0.00397619 -0.00560305)
(-0.00660172 0.00495554 -0.00653501)
(-0.00506903 0.0058548 -0.00743035)
(-0.00283017 0.006559 -0.00827128)
(-2.99772e-05 0.00694317 -0.0089706)
(0.00288347 0.00692061 -0.00937766)
(0.00527538 0.00648366 -0.00935676)
(0.00553153 0.0050037 -0.00872675)
(0.00556547 0.00446441 -0.0078612)
(0.00479303 0.0039081 -0.00665184)
(0.00339661 0.00337882 -0.00517939)
(0.00165154 0.00286259 -0.00355695)
(-0.000158482 0.0023233 -0.00190052)
(-0.00181203 0.00172884 -0.000297369)
(-0.00317271 0.00105756 0.00120449)
(-0.00416808 0.000299137 0.0025867)
(-0.00475834 -0.00054451 0.00384741)
(-0.004915 -0.00145909 0.00499285)
(-0.00461135 -0.00241712 0.00603179)
(-0.00382308 -0.00337435 0.00697074)
(-0.00254363 -0.00426328 0.00780759)
(-0.000825691 -0.00499136 0.00851882)
(0.00115958 -0.00545914 0.00904519)
(0.00310859 -0.0056009 0.00930052)
(0.00466377 -0.00542213 0.00920746)
(0.00553153 -0.0050037 0.00872675)
(0.00556547 -0.00446441 0.0078612)
(0.00479303 -0.0039081 0.00665184)
(0.00339661 -0.00337882 0.00517939)
(0.00165154 -0.00286259 0.00355695)
(-0.000158482 -0.0023233 0.00190052)
(-0.00181203 -0.00172884 0.000297369)
(-0.00317271 -0.00105756 -0.00120449)
(-0.00416808 -0.000299137 -0.0025867)
(-0.00475834 0.00054451 -0.00384741)
(-0.004915 0.00145909 -0.00499285)
(-0.00461135 0.00241712 -0.00603179)
(-0.00382308 0.00337435 -0.00697074)
(-0.00254363 0.00426328 -0.00780759)
(-0.000825691 0.00499136 -0.00851882)
(0.00115958 0.00545914 -0.00904519)
(0.00310859 0.0056009 -0.00930052)
(0.00466377 0.00542213 -0.00920746)
(0.00449226 0.00451117 -0.00882422)
(0.00462951 0.00438437 -0.00801977)
(0.00440601 0.0042029 -0.00685339)
(0.00380792 0.00398739 -0.00540567)
(0.00287033 0.00372997 -0.00378657)
(0.00170299 0.00340093 -0.00210178)
(0.000476321 0.00296792 -0.000434074)
(-0.00063196 0.00241082 0.0011621)
(-0.00148443 0.00172512 0.00265485)
(-0.0019938 0.000921634 0.00402476)
(-0.00211138 2.64182e-05 0.00525942)
(-0.0018185 -0.000920839 0.00635177)
(-0.00113235 -0.00186941 0.00729719)
(-0.000126078 -0.00275843 0.00808791)
(0.00105695 -0.00351767 0.00870776)
(0.00223507 -0.00408084 0.00913276)
(0.003255 -0.0044152 0.00932984)
(0.00402359 -0.0045404 0.00924782)
(0.00449226 -0.00451117 0.00882422)
(0.00462951 -0.00438437 0.00801977)
(0.00440601 -0.0042029 0.00685339)
(0.00380792 -0.00398739 0.00540567)
(0.00287033 -0.00372997 0.00378657)
(0.00170299 -0.00340093 0.00210178)
(0.000476321 -0.00296792 0.000434074)
(-0.00063196 -0.00241082 -0.0011621)
(-0.00148443 -0.00172512 -0.00265485)
(-0.0019938 -0.000921634 -0.00402476)
(-0.00211138 -2.64182e-05 -0.00525942)
(-0.0018185 0.000920839 -0.00635177)
(-0.00113235 0.00186941 -0.00729719)
(-0.000126078 0.00275843 -0.00808791)
(0.00105695 0.00351767 -0.00870776)
(0.00223507 0.00408084 -0.00913276)
(0.003255 0.0044152 -0.00932984)
(0.00402359 0.0045404 -0.00924782)
(0.00549645 0.00586619 -0.00831653)
(0.00542549 0.00471481 -0.00753378)
(0.00423054 0.00353291 -0.00643861)
(0.00221678 0.00240518 -0.00510116)
(-0.000176017 0.00135506 -0.00361588)
(-0.00252946 0.00036963 -0.00208878)
(-0.00456699 -0.000575449 -0.000605894)
(-0.00616848 -0.00150842 0.000785882)
(-0.00730188 -0.00245635 0.00207116)
(-0.00795597 -0.00343545 0.00325005)
(-0.00811009 -0.00444256 0.00432915)
(-0.00772691 -0.00544882 0.00531941)
(-0.00675427 -0.00639353 0.00623558)
(-0.00514505 -0.00718156 0.0070872)
(-0.00292495 -0.00769539 0.00785126)
(-0.000300585 -0.00783086 0.00844927)
(0.00230795 -0.00754061 0.00877225)
(0.00438495 -0.00685363 0.00873684)
(0.00549645 -0.00586619 0.00831653)
(0.00542549 -0.00471481 0.00753378)
(0.00423054 -0.00353291 0.00643861)
(0.00221678 -0.00240518 0.00510116)
(-0.000176017 -0.00135506 0.00361588)
(-0.00252946 -0.00036963 0.00208878)
(-0.00456699 0.000575449 0.000605894)
(-0.00616848 0.00150842 -0.000785882)
(-0.00730188 0.00245635 -0.00207116)
(-0.00795597 0.00343545 -0.00325005)
(-0.00811009 0.00444256 -0.00432915)
(-0.00772691 0.00544882 -0.00531941)
(-0.00675427 0.00639353 -0.00623558)
(-0.00514505 0.00718156 -0.0070872)
(-0.00292495 0.00769539 -0.00785126)
(-0.000300585 0.00783086 -0.00844927)
(0.00230795 0.00754061 -0.00877225)
(0.00438495 0.00685363 -0.00873684)
(0.00469431 0.00515969 -0.00826351)
(0.00469883 0.0044809 -0.00750727)
(0.00398267 0.00376372 -0.00643626)
(0.00269542 0.00305126 -0.00511079)
(0.0010683 0.00234574 -0.00362199)
(-0.000647399 0.00162932 -0.00207074)
(-0.00223956 0.000882111 -0.000540205)
(-0.00356382 8.77097e-05 0.00091779)
(-0.00453375 -0.000764113 0.00227703)
(-0.00509684 -0.00167227 0.0035253)
(-0.00521702 -0.00261987 0.0046581)
(-0.00486763 -0.00357189 0.00567636)
(-0.0040349 -0.00447347 0.00658374)
(-0.00273685 -0.00524983 0.00737903)
(-0.00106124 -0.00581446 0.00804182)
(0.00080037 -0.0060928 0.00852257)
(0.00256855 -0.00605186 0.00875424)
(0.00394528 -0.00571596 0.00867842)
(0.00469431 -0.00515969 0.00826351)
(0.00469883 -0.0044809 0.00750727)
(0.00398267 -0.00376372 0.00643626)
(0.00269542 -0.00305126 0.00511079)
(0.0010683 -0.00234574 0.00362199)
(-0.000647399 -0.00162932 0.00207074)
(-0.00223956 -0.000882111 0.000540205)
(-0.00356382 -8.77097e-05 -0.00091779)
(-0.00453375 0.000764113 -0.00227703)
(-0.00509684 0.00167227 -0.0035253)
(-0.00521702 0.00261987 -0.0046581)
(-0.00486763 0.00357189 -0.00567636)
(-0.0040349 0.00447347 -0.00658374)
(-0.00273685 0.00524983 -0.00737903)
(-0.00106124 0.00581446 -0.00804182)
(0.00080037 0.0060928 -0.00852257)
(0.00256855 0.00605186 -0.00875424)
(0.00394528 0.00571596 -0.00867842)
(0.00387558 0.00469013 -0.00851655)
(0.00398236 0.00451173 -0.00776429)
(0.00375596 0.00424391 -0.00666184)
(0.00319192 0.00389948 -0.00529131)
(0.00232139 0.00348156 -0.0037587)
(0.00123437 0.00298362 -0.00216184)
(7.84289e-05 0.00239652 -0.000575885)
(-0.000979194 0.00171569 0.000948673)
(-0.00179817 0.000943814 0.00238038)
(-0.00228438 9.38703e-05 0.00369847)
(-0.00238554 -0.000807526 0.00488872)
(-0.00208528 -0.00172004 0.0059431)
(-0.00140878 -0.00259271 0.00685828)
(-0.00043839 -0.00336928 0.00763096)
(0.000683223 -0.00399673 0.00825151)
(0.00178944 -0.00443824 0.00869858)
(0.00274214 -0.00468536 0.00893285)
(0.00345339 -0.00475812 0.00889408)
(0.00387558 -0.00469013 0.00851655)
(0.00398236 -0.00451173 0.00776429)
(0.00375596 -0.00424391 0.00666184)
(0.00319192 -0.00389948 0.00529131)
(0.00232139 -0.00348156 0.0037587)
(0.00123437 -0.00298362 0.00216184)
(7.84289e-05 -0.00239652 0.000575885)
(-0.000979194 -0.00171569 -0.000948673)
(-0.00179817 -0.000943814 -0.00238038)
(-0.00228438 -9.38703e-05 -0.00369847)
(-0.00238554 0.000807526 -0.00488872)
(-0.00208528 0.00172004 -0.0059431)
(-0.00140878 0.00259271 -0.00685828)
(-0.00043839 0.00336928 -0.00763096)
(0.000683223 0.00399673 -0.00825151)
(0.00178944 0.00443824 -0.00869858)
(0.00274214 0.00468536 -0.00893285)
(0.00345339 0.00475812 -0.00889408)
(0.00377332 0.00580358 -0.00751606)
(0.00374126 0.004465 -0.00693766)
(0.0027689 0.00309316 -0.00608888)
(0.00107237 0.00177284 -0.00500503)
(-0.00101087 0.000538026 -0.00374613)
(-0.00312954 -0.000614561 -0.00239556)
(-0.00501768 -0.00170397 -0.00103635)
(-0.0065297 -0.00275366 0.000273784)
(-0.00760432 -0.003786 0.00150558)
(-0.00821139 -0.00481306 0.00264639)
(-0.00832261 -0.00582574 0.00369162)
(-0.00790544 -0.00678578 0.00464349)
(-0.00693005 -0.00762293 0.00551016)
(-0.00539437 -0.00824 0.00629496)
(-0.00337742 -0.00853235 0.0069758)
(-0.00109519 -0.00842277 0.00749703)
(0.00110676 -0.00789258 0.00778984)
(0.00283799 -0.00698751 0.00780259)
(0.00377332 -0.00580358 0.00751606)
(0.00374126 -0.004465 0.00693766)
(0.0027689 -0.00309316 0.00608888)
(0.00107237 -0.00177284 0.00500503)
(-0.00101087 -0.000538026 0.00374613)
(-0.00312954 0.000614561 0.00239556)
(-0.00501768 0.00170397 0.00103635)
(-0.0065297 0.00275366 -0.000273784)
(-0.00760432 0.003786 -0.00150558)
(-0.00821139 0.00481306 -0.00264639)
(-0.00832261 0.00582574 -0.00369162)
(-0.00790544 0.00678578 -0.00464349)
(-0.00693005 0.00762293 -0.00551016)