/*--------------------------------*- C++ -*----------------------------------*\
| =========                 |                                                 |
| \\      /  F ield         | OpenFOAM: The Open Source CFD Toolbox           |
|  \\    /   O peration     | Version:  2312                                  |
|   \\  /    A nd           | Website:  www.openfoam.com                      |
|    \\/     M anipulation  |                                                 |
\*---------------------------------------------------------------------------*/
FoamFile
{
    version     2.0;
    format      ascii;
    arch        "LSB;label=32;scalar=64";
    class       pointVectorField;
    location    "0.5";
    object      pointD;
}
// * * * * * * * * * * * * * * * * * * * * * * * * * * * * * * * * * * * * * //

dimensions      [0 1 0 0 0 0 0];

internalField   nonuniform List<vector> 
2164
(
(0 0 0)
(0 0 0)
(0 0 0)
(0 0 0)
(0 0 0)
(0 0 0)
(0 0 0)
(0 0 0)
(0 0 0)
(0 0 0)
(0 0 0)
(0 0 0)
(0 0 0)
(0 0 0)
(0 0 0)
(0 0 0)
(0 0 0)
(0 0 0)
(0 0 0)
(0 0 0)
(0 0 0)
(0 0 0)
(0 0 0)
(0 0 0)
(0 0 0)
(0 0 0)
(0 0 0)
(0 0 0)
(0 0 0)
(0 0 0)
(0 0 0)
(0 0 0)
(0 0 0)
(0 0 0)
(0 0 0)
(0 0 0)
(0.001935 0.00032375 -0.00350312)
(0.00217809 0.000694817 -0.00295984)
(0.00194428 0.000969487 -0.00212399)
(0.00143436 0.00104013 -0.00121336)
(0.000849406 0.000932097 -0.000400356)
(0.000302056 0.00071583 0.000225039)
(-0.000169313 0.000453971 0.000645358)
(-0.000564507 0.000189921 0.00088971)
(-0.000895194 -4.96323e-05 0.00101286)
(-0.00116955 -0.000252774 0.00108077)
(-0.00138384 -0.000420223 0.00115877)
(-0.00151905 -0.000557639 0.00130073)
(-0.00154247 -0.000659576 0.00154085)
(-0.00141232 -0.000692599 0.00189122)
(-0.00108118 -0.000603126 0.00234372)
(-0.000502901 -0.000379094 0.0028582)
(0.000320228 -0.000133709 0.00332974)
(0.00123074 -8.43981e-05 0.00360501)
(0.001935 -0.00032375 0.00350312)
(0.00217809 -0.000694817 0.00295984)
(0.00194428 -0.000969487 0.00212399)
(0.00143436 -0.00104013 0.00121336)
(0.000849406 -0.000932097 0.000400356)
(0.000302056 -0.00071583 -0.000225039)
(-0.000169313 -0.000453971 -0.000645358)
(-0.000564507 -0.000189921 -0.00088971)
(-0.000895194 4.96323e-05 -0.00101286)
(-0.00116955 0.000252774 -0.00108077)
(-0.00138384 0.000420223 -0.00115877)
(-0.00151905 0.000557639 -0.00130073)
(-0.00154247 0.000659576 -0.00154085)
(-0.00141232 0.000692599 -0.00189122)
(-0.00108118 0.000603126 -0.00234372)
(-0.000502901 0.000379094 -0.0028582)
(0.000320228 0.000133709 -0.00332974)
(0.00123074 8.43981e-05 -0.00360501)
(0.00128064 0.00063684 -0.00317612)
(0.00142747 0.00077188 -0.00274758)
(0.00127239 0.000908133 -0.00213372)
(0.000910312 0.000980266 -0.00144721)
(0.000461884 0.000978137 -0.000785244)
(1.26508e-05 0.000914894 -0.00020868)
(-0.000391083 0.000806983 0.000259584)
(-0.000728715 0.000668987 0.000626696)
(-0.000992484 0.00051183 0.000920219)
(-0.00117807 0.000340007 0.0011781)
(-0.00127865 0.000150585 0.00143799)
(-0.00128324 -6.18017e-05 0.00172665)
(-0.00118014 -0.000292285 0.00205185)
(-0.000963448 -0.00051019 0.00240072)
(-0.000635631 -0.000658108 0.00274672)
(-0.000201724 -0.000688796 0.00305602)
(0.000324108 -0.000626558 0.00327754)
(0.000865796 -0.000581958 0.00334414)
(0.00128064 -0.00063684 0.00317612)
(0.00142747 -0.00077188 0.00274758)
(0.00127239 -0.000908133 0.00213372)
(0.000910312 -0.000980266 0.00144721)
(0.000461884 -0.000978137 0.000785244)
(1.26508e-05 -0.000914894 0.00020868)
(-0.000391083 -0.000806983 -0.000259584)
(-0.000728715 -0.000668987 -0.000626696)
(-0.000992484 -0.00051183 -0.000920219)
(-0.00117807 -0.000340007 -0.0011781)
(-0.00127865 -0.000150585 -0.00143799)
(-0.00128324 6.18017e-05 -0.00172665)
(-0.00118014 0.000292285 -0.00205185)
(-0.000963448 0.00051019 -0.00240072)
(-0.000635631 0.000658108 -0.00274672)
(-0.000201724 0.000688796 -0.00305602)
(0.000324108 0.000626558 -0.00327754)
(0.000865796 0.000581958 -0.00334414)
(0 0 0)
(0 0 0)
(0 0 0)
(0 0 0)
(0 0 0)
(0 0 0)
(0 0 0)
(0 0 0)
(0 0 0)
(0 0 0)
(0 0 0)
(0 0 0)
(0 0 0)
(0 0 0)
(0 0 0)
(0 0 0)
(0 0 0)
(0 0 0)
(0 0 0)
(0 0 0)
(0 0 0)
(0 0 0)
(0 0 0)
(0 0 0)
(0 0 0)
(0 0 0)
(0 0 0)
(0 0 0)
(0 0 0)
(0 0 0)
(0 0 0)
(0 0 0)
(0 0 0)
(0 0 0)
(0 0 0)
(0 0 0)
(0.000677807 0.000892987 -0.00284218)
(0.000736176 0.000816038 -0.0025355)
(0.000651657 0.000830042 -0.0021423)
(0.000424764 0.00091434 -0.00167457)
(9.90434e-05 0.00102779 -0.00115822)
(-0.000267095 0.00112767 -0.000625388)
(-0.000619368 0.00118246 -0.000103608)
(-0.000916048 0.00117512 0.000391976)
(-0.00112897 0.00109868 0.000859749)
(-0.00124037 0.000949989 0.00130656)
(-0.00123956 0.000726127 0.00173956)
(-0.00112295 0.000426496 0.00215758)
(-0.00089924 6.08763e-05 0.00254452)
(-0.000597417 -0.000338172 0.00286878)
(-0.000267717 -0.000707368 0.00309361)
(3.82044e-05 -0.000966076 0.00319728)
(0.000299645 -0.00105847 0.00318249)
(0.000518039 -0.00100712 0.00306032)
(0.000677807 -0.000892987 0.00284218)
(0.000736176 -0.000816038 0.0025355)
(0.000651657 -0.000830042 0.0021423)
(0.000424764 -0.00091434 0.00167457)
(9.90434e-05 -0.00102779 0.00115822)
(-0.000267095 -0.00112767 0.000625388)
(-0.000619368 -0.00118246 0.000103608)
(-0.000916048 -0.00117512 -0.000391976)
(-0.00112897 -0.00109868 -0.000859749)
(-0.00124037 -0.000949989 -0.00130656)
(-0.00123956 -0.000726127 -0.00173956)
(-0.00112295 -0.000426496 -0.00215758)
(-0.00089924 -6.08763e-05 -0.00254452)
(-0.000597417 0.000338172 -0.00286878)
(-0.000267717 0.000707368 -0.00309361)
(3.82044e-05 0.000966076 -0.00319728)
(0.000299645 0.00105847 -0.00318249)
(0.000518039 0.00100712 -0.00306032)
(0 0 0)
(0 0 0)
(0 0 0)
(0 0 0)
(0 0 0)
(0 0 0)
(0 0 0)
(0 0 0)
(0 0 0)
(0 0 0)
(0 0 0)
(0 0 0)
(0 0 0)
(0 0 0)
(0 0 0)
(0 0 0)
(0 0 0)
(0 0 0)
(0 0 0)
(0 0 0)
(0 0 0)
(0 0 0)
(0 0 0)
(0 0 0)
(0 0 0)
(0 0 0)
(0 0 0)
(0 0 0)
(0 0 0)
(0 0 0)
(0 0 0)
(0 0 0)
(0 0 0)
(0 0 0)
(0 0 0)
(0 0 0)
(0.000175962 0.00104138 -0.00252708)
(0.000167392 0.000824797 -0.00233141)
(0.000142084 0.000758468 -0.00212864)
(3.3916e-05 0.000865812 -0.00185066)
(-0.000179343 0.00109009 -0.00146286)
(-0.00046834 0.00134523 -0.000969161)
(-0.000775602 0.00155604 -0.000397627)
(-0.00104125 0.00167296 0.000217493)
(-0.00121765 0.00166936 0.000845853)
(-0.00127346 0.00153416 0.00146183)
(-0.00119373 0.00126665 0.00204072)
(-0.000981827 0.000875484 0.00255413)
(-0.000665788 0.00038164 0.0029667)
(-0.000306081 -0.000173401 0.00323728)
(8.3982e-06 -0.000715961 0.00333131)
(0.000195466 -0.00113803 0.00324716)
(0.000240314 -0.00133063 0.00303524)
(0.000208827 -0.00126774 0.00277013)
(0.000175962 -0.00104138 0.00252708)
(0.000167392 -0.000824797 0.00233141)
(0.000142084 -0.000758468 0.00212864)
(3.3916e-05 -0.000865812 0.00185066)
(-0.000179343 -0.00109009 0.00146286)
(-0.00046834 -0.00134523 0.000969161)
(-0.000775602 -0.00155604 0.000397627)
(-0.00104125 -0.00167296 -0.000217493)
(-0.00121765 -0.00166936 -0.000845853)
(-0.00127346 -0.00153416 -0.00146183)
(-0.00119373 -0.00126665 -0.00204072)
(-0.000981827 -0.000875484 -0.00255413)
(-0.000665788 -0.00038164 -0.0029667)
(-0.000306081 0.000173401 -0.00323728)
(8.3982e-06 0.000715961 -0.00333131)
(0.000195466 0.00113803 -0.00324716)
(0.000240314 0.00133063 -0.00303524)
(0.000208827 0.00126774 -0.00277013)
(0 0 0)
(0 0 0)
(0 0 0)
(0 0 0)
(0 0 0)
(0 0 0)
(0 0 0)
(0 0 0)
(0 0 0)
(0 0 0)
(0 0 0)
(0 0 0)
(0 0 0)
(0 0 0)
(0 0 0)
(0 0 0)
(0 0 0)
(0 0 0)
(0 0 0)
(0 0 0)
(0 0 0)
(0 0 0)
(0 0 0)
(0 0 0)
(0 0 0)
(0 0 0)
(0 0 0)
(0 0 0)
(0 0 0)
(0 0 0)
(0 0 0)
(0 0 0)
(0 0 0)
(0 0 0)
(0 0 0)
(0 0 0)
(0.00408814 0.00134656 -0.00621127)
(0.00421971 0.00165766 -0.00517345)
(0.00343953 0.0018332 -0.00375457)
(0.0021928 0.00181405 -0.0022797)
(0.000854492 0.0016386 -0.000969838)
(-0.000363237 0.0013624 6.96078e-05)
(-0.00138247 0.00103286 0.000821904)
(-0.00220078 0.000688129 0.00133049)
(-0.0028423 0.000354563 0.00167683)
(-0.00332572 4.04681e-05 0.00196034)
(-0.00364644 -0.000265624 0.00227699)
(-0.00376894 -0.000583911 0.00269836)
(-0.00362739 -0.000916514 0.00325749)
(-0.00313419 -0.0012141 0.00395006)
(-0.00220103 -0.0013715 0.00474887)
(-0.000785912 -0.00131046 0.00559335)
(0.00101444 -0.00112399 0.00630071)
(0.00286324 -0.00110025 0.00658723)
(0.00408814 -0.00134656 0.00621127)
(0.00421971 -0.00165766 0.00517345)
(0.00343953 -0.0018332 0.00375457)
(0.0021928 -0.00181405 0.0022797)
(0.000854492 -0.0016386 0.000969838)
(-0.000363237 -0.0013624 -6.96078e-05)
(-0.00138247 -0.00103286 -0.000821904)
(-0.00220078 -0.000688129 -0.00133049)
(-0.0028423 -0.000354563 -0.00167683)
(-0.00332572 -4.04681e-05 -0.00196034)
(-0.00364644 0.000265624 -0.00227699)
(-0.00376894 0.000583911 -0.00269836)
(-0.00362739 0.000916514 -0.00325749)
(-0.00313419 0.0012141 -0.00395006)
(-0.00220103 0.0013715 -0.00474887)
(-0.000785912 0.00131046 -0.00559335)
(0.00101444 0.00112399 -0.00630071)
(0.00286324 0.00110025 -0.00658723)
(0.00303588 0.00155769 -0.00583716)
(0.00314441 0.00164365 -0.00503322)
(0.00263089 0.00174083 -0.00394937)
(0.00173925 0.00179927 -0.00275691)
(0.000712696 0.00179771 -0.00159432)
(-0.000280458 0.00172393 -0.000551607)
(-0.00114853 0.00157579 0.000331577)
(-0.00185321 0.00136182 0.00106073)
(-0.00238369 0.00109393 0.00167522)
(-0.00273587 0.000777535 0.00223236)
(-0.00289883 0.000407418 0.0027888)
(-0.00284998 -2.52388e-05 0.00338248)
(-0.00255866 -0.000513207 0.00401986)
(-0.00199776 -0.00100684 0.00467415)
(-0.00116004 -0.00140387 0.0052976)
(-7.73936e-05 -0.00160029 0.00583269)
(0.00114148 -0.00159586 0.00618555)
(0.00228217 -0.00154011 0.00622355)
(0.00303588 -0.00155769 0.00583716)
(0.00314441 -0.00164365 0.00503322)
(0.00263089 -0.00174083 0.00394937)
(0.00173925 -0.00179927 0.00275691)
(0.000712696 -0.00179771 0.00159432)
(-0.000280458 -0.00172393 0.000551607)
(-0.00114853 -0.00157579 -0.000331577)
(-0.00185321 -0.00136182 -0.00106073)
(-0.00238369 -0.00109393 -0.00167522)
(-0.00273587 -0.000777535 -0.00223236)
(-0.00289883 -0.000407418 -0.0027888)
(-0.00284998 2.52388e-05 -0.00338248)
(-0.00255866 0.000513207 -0.00401986)
(-0.00199776 0.00100684 -0.00467415)
(-0.00116004 0.00140387 -0.0052976)
(-7.73936e-05 0.00160029 -0.00583269)
(0.00114148 0.00159586 -0.00618555)
(0.00228217 0.00154011 -0.00622355)
(0.00204046 0.00172009 -0.00539815)
(0.00212528 0.0015853 -0.00484621)
(0.00186508 0.00159955 -0.00410559)
(0.00131597 0.00173149 -0.0032029)
(0.000589014 0.00190739 -0.00219572)
(-0.000193087 0.00204623 -0.00115653)
(-0.000925021 0.00209131 -0.000146067)
(-0.00153175 0.00201646 0.000802935)
(-0.00196656 0.00181553 0.00168548)
(-0.00220138 0.00148989 0.00251295)
(-0.00221817 0.00104251 0.00329884)
(-0.00200686 0.000480484 0.00404565)
(-0.00157211 -0.000174219 0.00473479)
(-0.000947602 -0.00086676 0.00532201)
(-0.000207814 -0.00149376 0.00574611)
(0.000541785 -0.00192148 0.00595857)
(0.00119394 -0.00205685 0.00595693)
(0.00169646 -0.00193527 0.00576582)
(0.00204046 -0.00172009 0.00539815)
(0.00212528 -0.0015853 0.00484621)
(0.00186508 -0.00159955 0.00410559)
(0.00131597 -0.00173149 0.0032029)
(0.000589014 -0.00190739 0.00219572)
(-0.000193087 -0.00204623 0.00115653)
(-0.000925021 -0.00209131 0.000146067)
(-0.00153175 -0.00201646 -0.000802935)
(-0.00196656 -0.00181553 -0.00168548)
(-0.00220138 -0.00148989 -0.00251295)
(-0.00221817 -0.00104251 -0.00329884)
(-0.00200686 -0.000480484 -0.00404565)
(-0.00157211 0.000174219 -0.00473479)
(-0.000947602 0.00086676 -0.00532201)
(-0.000207814 0.00149376 -0.00574611)
(0.000541785 0.00192148 -0.00595857)
(0.00119394 0.00205685 -0.00595693)
(0.00169646 0.00193527 -0.00576582)
(0.0011892 0.00179876 -0.00494178)
(0.00125145 0.00151168 -0.00461577)
(0.00121255 0.00146375 -0.00417578)
(0.000980345 0.00165646 -0.00353598)
(0.000542357 0.00198805 -0.00268178)
(-3.09454e-05 0.00232288 -0.00166161)
(-0.000628919 0.00255214 -0.000548523)
(-0.00114483 0.00261215 0.000591907)
(-0.00149784 0.00247552 0.0017118)
(-0.00163612 0.00213818 0.00277611)
(-0.00153425 0.00161218 0.00375448)
(-0.00119464 0.000923361 0.00461455)
(-0.000656984 0.000113197 0.00531559)
(-1.2968e-05 -0.000751234 0.00580318)
(0.000591468 -0.00155799 0.00601696)
(0.000999364 -0.00214547 0.005933)
(0.00114084 -0.00235642 0.00563134)
(0.00114677 -0.00217251 0.00526785)
(0.0011892 -0.00179876 0.00494178)
(0.00125145 -0.00151168 0.00461577)
(0.00121255 -0.00146375 0.00417578)
(0.000980345 -0.00165646 0.00353598)
(0.000542357 -0.00198805 0.00268178)
(-3.09454e-05 -0.00232288 0.00166161)
(-0.000628919 -0.00255214 0.000548523)
(-0.00114483 -0.00261215 -0.000591907)
(-0.00149784 -0.00247552 -0.0017118)
(-0.00163612 -0.00213818 -0.00277611)
(-0.00153425 -0.00161218 -0.00375448)
(-0.00119464 -0.000923361 -0.00461455)
(-0.000656984 -0.000113197 -0.00531559)
(-1.2968e-05 0.000751234 -0.00580318)
(0.000591468 0.00155799 -0.00601696)
(0.000999364 0.00214547 -0.005933)
(0.00114084 0.00235642 -0.00563134)
(0.00114677 0.00217251 -0.00526785)
(0.00642111 0.00281536 -0.00813815)
(0.00608574 0.00269063 -0.00681386)
(0.00451139 0.00251949 -0.00509573)
(0.00237136 0.00228077 -0.00332684)
(0.00019197 0.00197731 -0.00172766)
(-0.00172681 0.00161898 -0.000402568)
(-0.00327976 0.00122056 0.000630581)
(-0.00447365 0.000800297 0.00141525)
(-0.00535101 0.000372386 0.00203522)
(-0.00594368 -6.37728e-05 0.00259325)
(-0.00625041 -0.000527325 0.00318611)
(-0.00622703 -0.0010442 0.00388065)
(-0.0057805 -0.00161964 0.00470106)
(-0.00476914 -0.0022058 0.00563616)
(-0.00304128 -0.00269354 0.00665446)
(-0.000566301 -0.00296977 0.00768334)
(0.002364 -0.00301241 0.00850544)
(0.00503503 -0.00292613 0.00873784)
(0.00642111 -0.00281536 0.00813815)
(0.00608574 -0.00269063 0.00681386)
(0.00451139 -0.00251949 0.00509573)
(0.00237136 -0.00228077 0.00332684)
(0.00019197 -0.00197731 0.00172766)
(-0.00172681 -0.00161898 0.000402568)
(-0.00327976 -0.00122056 -0.000630581)
(-0.00447365 -0.000800297 -0.00141525)
(-0.00535101 -0.000372386 -0.00203522)
(-0.00594368 6.37728e-05 -0.00259325)
(-0.00625041 0.000527325 -0.00318611)
(-0.00622703 0.0010442 -0.00388065)
(-0.0057805 0.00161964 -0.00470106)
(-0.00476914 0.0022058 -0.00563616)
(-0.00304128 0.00269354 -0.00665446)
(-0.000566301 0.00296977 -0.00768334)
(0.002364 0.00301241 -0.00850544)
(0.00503503 0.00292613 -0.00873784)
(0.00510504 0.00264393 -0.00773277)
(0.00490776 0.00250294 -0.00669469)
(0.00385461 0.00242922 -0.00533483)
(0.00233145 0.00238586 -0.0038335)
(0.000679807 0.00232112 -0.00234302)
(-0.000863514 0.00219111 -0.000969206)
(-0.00217283 0.00197376 0.000236696)
(-0.00320235 0.00166777 0.00127462)
(-0.0039452 0.00128116 0.00218257)
(-0.0044016 0.000818304 0.00301817)
(-0.00456044 0.000274772 0.00383781)
(-0.00439173 -0.000355397 0.00467749)
(-0.0038466 -0.00106051 0.0055413)
(-0.00286582 -0.00178618 0.00640173)
(-0.00140981 -0.00242216 0.00720789)
(0.000467977 -0.00283678 0.00788581)
(0.00250852 -0.00295672 0.00830868)
(0.0042309 -0.00283725 0.00829172)
(0.00510504 -0.00264393 0.00773277)
(0.00490776 -0.00250294 0.00669469)
(0.00385461 -0.00242922 0.00533483)
(0.00233145 -0.00238586 0.0038335)
(0.000679807 -0.00232112 0.00234302)
(-0.000863514 -0.00219111 0.000969206)
(-0.00217283 -0.00197376 -0.000236696)
(-0.00320235 -0.00166777 -0.00127462)
(-0.0039452 -0.00128116 -0.00218257)
(-0.0044016 -0.000818304 -0.00301817)
(-0.00456044 -0.000274772 -0.00383781)
(-0.00439173 0.000355397 -0.00467749)
(-0.0038466 0.00106051 -0.0055413)
(-0.00286582 0.00178618 -0.00640173)
(-0.00140981 0.00242216 -0.00720789)
(0.000467977 0.00283678 -0.00788581)
(0.00250852 0.00295672 -0.00830868)
(0.0042309 0.00283725 -0.00829172)
(0.00382873 0.00248991 -0.00728907)
(0.00378924 0.0023093 -0.00654904)
(0.00325986 0.00229876 -0.00553963)
(0.00235265 0.00242162 -0.00430289)
(0.00122527 0.00258251 -0.00292679)
(5.0047e-05 0.00268152 -0.00151435)
(-0.00102646 0.00265225 -0.000146206)
(-0.00190471 0.0024671 0.00113587)
(-0.00252731 0.00212323 0.00232348)
(-0.00286162 0.00162821 0.00342646)
(-0.00288555 0.000993722 0.00445771)
(-0.00258262 0.000237438 0.00542096)
(-0.00194853 -0.000608078 0.00630125)
(-0.00100853 -0.00147804 0.00705833)
(0.000160516 -0.0022563 0.00762846)
(0.00141851 -0.0027881 0.00794632)
(0.00256008 -0.00295397 0.00798501)
(0.00339367 -0.00277899 0.00776245)
(0.00382873 -0.00248991 0.00728907)
(0.00378924 -0.0023093 0.00654904)
(0.00325986 -0.00229876 0.00553963)
(0.00235265 -0.00242162 0.00430289)
(0.00122527 -0.00258251 0.00292679)
(5.0047e-05 -0.00268152 0.00151435)
(-0.00102646 -0.00265225 0.000146206)
(-0.00190471 -0.0024671 -0.00113587)
(-0.00252731 -0.00212323 -0.00232348)
(-0.00286162 -0.00162821 -0.00342646)
(-0.00288555 -0.000993722 -0.00445771)
(-0.00258262 -0.000237438 -0.00542096)
(-0.00194853 0.000608078 -0.00630125)
(-0.00100853 0.00147804 -0.00705833)
(0.000160516 0.0022563 -0.00762846)
(0.00141851 0.0027881 -0.00794632)
(0.00256008 0.00295397 -0.00798501)
(0.00339367 0.00277899 -0.00776245)
(0.0027072 0.00238722 -0.00685303)
(0.00280629 0.00217409 -0.00637119)
(0.00274194 0.00219486 -0.00565722)
(0.00240415 0.00243458 -0.00465809)
(0.00177955 0.00277863 -0.00340279)
(0.000967358 0.0030813 -0.00197901)
(0.0001228 0.00323019 -0.000484556)
(-0.00060863 0.00316555 0.0010039)
(-0.00112178 0.00286845 0.00243409)
(-0.00135145 0.00234659 0.00376845)
(-0.00126438 0.00162693 0.00497621)
(-0.000858602 0.000751299 0.00602864)
(-0.00017567 -0.000224814 0.00689208)
(0.000677404 -0.00122214 0.00751791)
(0.00152163 -0.00211507 0.00784429)
(0.00215833 -0.00273141 0.00783784)
(0.00247779 -0.0029285 0.0075719)
(0.00259425 -0.00272824 0.00722011)
(0.0027072 -0.00238722 0.00685303)
(0.00280629 -0.00217409 0.00637119)
(0.00274194 -0.00219486 0.00565722)
(0.00240415 -0.00243458 0.00465809)
(0.00177955 -0.00277863 0.00340279)
(0.000967358 -0.0030813 0.00197901)
(0.0001228 -0.00323019 0.000484556)
(-0.00060863 -0.00316555 -0.0010039)
(-0.00112178 -0.00286845 -0.00243409)
(-0.00135145 -0.00234659 -0.00376845)
(-0.00126438 -0.00162693 -0.00497621)
(-0.000858602 -0.000751299 -0.00602864)
(-0.00017567 0.000224814 -0.00689208)
(0.000677404 0.00122214 -0.00751791)
(0.00152163 0.00211507 -0.00784429)
(0.00215833 0.00273141 -0.00783784)
(0.00247779 0.0029285 -0.0075719)
(0.00259425 0.00272824 -0.00722011)
(0.00781142 0.00401584 -0.00907544)
(0.00712045 0.00336902 -0.00774335)
(0.00499114 0.00280118 -0.00603801)
(0.00218449 0.00230097 -0.00423176)
(-0.000632559 0.00182695 -0.00252323)
(-0.00306632 0.00135053 -0.00102342)
(-0.00498927 0.000857284 0.000237105)
(-0.00642213 0.000339894 0.00128685)
(-0.00742235 -0.000206808 0.00219008)
(-0.00802772 -0.000793373 0.00302671)
(-0.00823667 -0.00143889 0.00387109)
(-0.00799955 -0.00216099 0.00477301)
(-0.00720547 -0.00295202 0.0057521)
(-0.00567468 -0.00375262 0.00680725)
(-0.00322842 -0.00444589 0.00790979)
(7.43751e-05 -0.00489022 0.00894773)
(0.00367757 -0.00496622 0.00967495)
(0.00657643 -0.00462806 0.00976573)
(0.00781142 -0.00401584 0.00907544)
(0.00712045 -0.00336902 0.00774335)
(0.00499114 -0.00280118 0.00603801)
(0.00218449 -0.00230097 0.00423176)
(-0.000632559 -0.00182695 0.00252323)
(-0.00306632 -0.00135053 0.00102342)
(-0.00498927 -0.000857284 -0.000237105)
(-0.00642213 -0.000339894 -0.00128685)
(-0.00742235 0.000206808 -0.00219008)
(-0.00802772 0.000793373 -0.00302671)
(-0.00823667 0.00143889 -0.00387109)
(-0.00799955 0.00216099 -0.00477301)
(-0.00720547 0.00295202 -0.0057521)
(-0.00567468 0.00375262 -0.00680725)
(-0.00322842 0.00444589 -0.00790979)
(7.43751e-05 0.00489022 -0.00894773)
(0.00367757 0.00496622 -0.00967495)
(0.00657643 0.00462806 -0.00976573)
(0.00643154 0.00356688 -0.00875772)
(0.00599586 0.00314675 -0.00765943)
(0.00456308 0.00284432 -0.00622107)
(0.00257609 0.00262845 -0.00460097)
(0.00046278 0.00242604 -0.0029518)
(-0.00147606 0.00217759 -0.0013884)
(-0.00308968 0.00184963 3.06044e-05)
(-0.00433068 0.00142938 0.00129718)
(-0.00519538 0.000915718 0.00243711)
(-0.00568462 0.000309893 0.00349269)
(-0.00578537 -0.000388682 0.00450564)
(-0.00546297 -0.00117663 0.0055026)
(-0.00465783 -0.00203115 0.00648815)
(-0.00329203 -0.00288963 0.00744583)
(-0.00132174 -0.00363874 0.00833225)
(0.00113043 -0.0041359 0.00905387)
(0.00365043 -0.00426406 0.00945898)
(0.00560184 -0.00401499 0.0093815)
(0.00643154 -0.00356688 0.00875772)
(0.00599586 -0.00314675 0.00765943)
(0.00456308 -0.00284432 0.00622107)
(0.00257609 -0.00262845 0.00460097)
(0.00046278 -0.00242604 0.0029518)
(-0.00147606 -0.00217759 0.0013884)
(-0.00308968 -0.00184963 -3.06044e-05)
(-0.00433068 -0.00142938 -0.00129718)
(-0.00519538 -0.000915718 -0.00243711)
(-0.00568462 -0.000309893 -0.00349269)
(-0.00578537 0.000388682 -0.00450564)
(-0.00546297 0.00117663 -0.0055026)
(-0.00465783 0.00203115 -0.00648815)
(-0.00329203 0.00288963 -0.00744583)
(-0.00132174 0.00363874 -0.00833225)
(0.00113043 0.0041359 -0.00905387)
(0.00365043 0.00426406 -0.00945898)
(0.00560184 0.00401499 -0.0093815)
(0.0050652 0.00321833 -0.00849938)
(0.00491837 0.00299987 -0.00762331)
(0.00420212 0.0029176 -0.00642163)
(0.00304593 0.00294179 -0.00496674)
(0.00163886 0.00298314 -0.00337131)
(0.000189063 0.00295161 -0.00174916)
(-0.00112653 0.00278776 -0.000181468)
(-0.00218961 0.00246636 0.00129114)
(-0.00293367 0.00198528 0.00265749)
(-0.00332154 0.00135507 0.00392119)
(-0.00332734 0.000594277 0.00508958)
(-0.00293062 -0.000270304 0.00616534)
(-0.00212356 -0.00119782 0.00713933)
(-0.00093366 -0.00211928 0.00798398)
(0.000543444 -0.0029218 0.00865026)
(0.00212548 -0.00346364 0.00907676)
(0.0035605 -0.00364416 0.00921126)
(0.00459558 -0.00349825 0.00902544)
(0.0050652 -0.00321833 0.00849938)
(0.00491837 -0.00299987 0.00762331)
(0.00420212 -0.0029176 0.00642163)
(0.00304593 -0.00294179 0.00496674)
(0.00163886 -0.00298314 0.00337131)
(0.000189063 -0.00295161 0.00174916)
(-0.00112653 -0.00278776 0.000181468)
(-0.00218961 -0.00246636 -0.00129114)
(-0.00293367 -0.00198528 -0.00265749)
(-0.00332154 -0.00135507 -0.00392119)
(-0.00332734 -0.000594277 -0.00508958)
(-0.00293062 0.000270304 -0.00616534)
(-0.00212356 0.00119782 -0.00713933)
(-0.00093366 0.00211928 -0.00798398)
(0.000543444 0.0029218 -0.00865026)
(0.00212548 0.00346364 -0.00907676)
(0.0035605 0.00364416 -0.00921126)
(0.00459558 0.00349825 -0.00902544)
(0.00383039 0.00301306 -0.00829363)
(0.00395235 0.00296319 -0.00760185)
(0.00388853 0.00304434 -0.00659011)
(0.00350454 0.00324662 -0.00527751)
(0.00277299 0.00348326 -0.00374047)
(0.00180523 0.0036408 -0.00208148)
(0.000789591 0.00363083 -0.000394049)
(-9.57605e-05 0.00340857 0.00125476)
(-0.000725355 0.00296472 0.00281945)
(-0.00102399 0.00231529 0.0042658)
(-0.000953066 0.00149602 0.00556649)
(-0.00050809 0.000556578 0.00669942)
(0.000265035 -0.00044318 0.00764187)
(0.00123937 -0.00142557 0.00836089)
(0.00220482 -0.00227869 0.00881723)
(0.0029536 -0.00287105 0.00899766)
(0.00340721 -0.00313065 0.00894226)
(0.00365285 -0.00312076 0.0087128)
(0.00383039 -0.00301306 0.00829363)
(0.00395235 -0.00296319 0.00760185)
(0.00388853 -0.00304434 0.00659011)
(0.00350454 -0.00324662 0.00527751)
(0.00277299 -0.00348326 0.00374047)
(0.00180523 -0.0036408 0.00208148)
(0.000789591 -0.00363083 0.000394049)
(-9.57605e-05 -0.00340857 -0.00125476)
(-0.000725355 -0.00296472 -0.00281945)
(-0.00102399 -0.00231529 -0.0042658)
(-0.000953066 -0.00149602 -0.00556649)
(-0.00050809 -0.000556578 -0.00669942)
(0.000265035 0.00044318 -0.00764187)
(0.00123937 0.00142557 -0.00836089)
(0.00220482 0.00227869 -0.00881723)
(0.0029536 0.00287105 -0.00899766)
(0.00340721 0.00313065 -0.00894226)
(0.00365285 0.00312076 -0.0087128)
(0.00788601 0.00468787 -0.00920049)
(0.00708426 0.00367972 -0.00803885)
(0.00480729 0.00275954 -0.00652753)
(0.00176497 0.00196619 -0.00484952)
(-0.00132381 0.00126744 -0.00317258)
(-0.00399835 0.000622867 -0.00161261)
(-0.00609994 -2.19548e-06 -0.000216703)
(-0.00764505 -0.000639754 0.00102243)
(-0.0086889 -0.0013162 0.00214116)
(-0.00926159 -0.00205125 0.00318665)
(-0.00935288 -0.00285795 0.00420324)
(-0.00890609 -0.00373425 0.00522329)
(-0.00780466 -0.00464329 0.00626813)
(-0.00587558 -0.00549287 0.00734839)
(-0.00300551 -0.00613798 0.00842661)
(0.000585448 -0.00642328 0.00935388)
(0.00418639 -0.00624677 0.00989166)
(0.00685594 -0.00561871 0.0098511)
(0.00788601 -0.00468787 0.00920049)
(0.00708426 -0.00367972 0.00803885)
(0.00480729 -0.00275954 0.00652753)
(0.00176497 -0.00196619 0.00484952)
(-0.00132381 -0.00126744 0.00317258)
(-0.00399835 -0.000622867 0.00161261)
(-0.00609994 2.19548e-06 0.000216703)
(-0.00764505 0.000639754 -0.00102243)
(-0.0086889 0.0013162 -0.00214116)
(-0.00926159 0.00205125 -0.00318665)
(-0.00935288 0.00285795 -0.00420324)
(-0.00890609 0.00373425 -0.00522329)
(-0.00780466 0.00464329 -0.00626813)
(-0.00587558 0.00549287 -0.00734839)
(-0.00300551 0.00613798 -0.00842661)
(0.000585448 0.00642328 -0.00935388)
(0.00418639 0.00624677 -0.00989166)
(0.00685594 0.00561871 -0.0098511)
(0.00662053 0.00416318 -0.00902129)
(0.0061234 0.00353704 -0.00799357)
(0.00459049 0.00299572 -0.0066228)
(0.00244288 0.00254772 -0.0050367)
(0.000140188 0.00214078 -0.00337673)
(-0.00197667 0.00172106 -0.00175783)
(-0.00373372 0.00125055 -0.000242998)
(-0.0050744 0.00070463 0.00115063)
(-0.00598823 7.02503e-05 0.00243241)
(-0.00646824 -0.000655924 0.00362325)
(-0.00649474 -0.00146873 0.00474535)
(-0.00602921 -0.00235035 0.00581483)
(-0.00501148 -0.00325842 0.00683904)
(-0.00337505 -0.00411121 0.00781282)
(-0.00112612 -0.00478601 0.00869585)
(0.00151145 -0.00515179 0.00938282)
(0.00404404 -0.00513093 0.00972585)
(0.0058868 -0.00475485 0.00961391)
(0.00662053 -0.00416318 0.00902129)
(0.0061234 -0.00353704 0.00799357)
(0.00459049 -0.00299572 0.0066228)
(0.00244288 -0.00254772 0.0050367)
(0.000140188 -0.00214078 0.00337673)
(-0.00197667 -0.00172106 0.00175783)
(-0.00373372 -0.00125055 0.000242998)
(-0.0050744 -0.00070463 -0.00115063)
(-0.00598823 -7.02503e-05 -0.00243241)
(-0.00646824 0.000655924 -0.00362325)
(-0.00649474 0.00146873 -0.00474535)
(-0.00602921 0.00235035 -0.00581483)
(-0.00501148 0.00325842 -0.00683904)
(-0.00337505 0.00411121 -0.00781282)
(-0.00112612 0.00478601 -0.00869585)
(0.00151145 0.00515179 -0.00938282)
(0.00404404 0.00513093 -0.00972585)
(0.0058868 0.00475485 -0.00961391)
(0.00536832 0.00377062 -0.00898725)
(0.00520115 0.00352387 -0.00806778)
(0.00443299 0.00333073 -0.00679472)
(0.00319354 0.0031868 -0.00526668)
(0.00168021 0.00303754 -0.00360698)
(0.000113917 0.00282143 -0.00192612)
(-0.00131206 0.00249475 -0.000297414)
(-0.00246374 0.00203546 0.00124251)
(-0.00326282 0.00143917 0.00267917)
(-0.00366435 0.000715861 0.00400787)
(-0.00363834 -0.000111686 0.00522796)
(-0.0031638 -0.00100833 0.00633921)
(-0.00223789 -0.00192361 0.00733751)
(-0.000904108 -0.00278391 0.00820825)
(0.000710301 -0.00348935 0.00891826)
(0.00238601 -0.00394016 0.00941413)
(0.0038592 -0.00409343 0.00963125)
(0.00490131 -0.00399961 0.00950539)
(0.00536832 -0.00377062 0.00898725)
(0.00520115 -0.00352387 0.00806778)
(0.00443299 -0.00333073 0.00679472)
(0.00319354 -0.0031868 0.00526668)
(0.00168021 -0.00303754 0.00360698)
(0.000113917 -0.00282143 0.00192612)
(-0.00131206 -0.00249475 0.000297414)
(-0.00246374 -0.00203546 -0.00124251)
(-0.00326282 -0.00143917 -0.00267917)
(-0.00366435 -0.000715861 -0.00400787)
(-0.00363834 0.000111686 -0.00522796)
(-0.0031638 0.00100833 -0.00633921)
(-0.00223789 0.00192361 -0.00733751)
(-0.000904108 0.00278391 -0.00820825)
(0.000710301 0.00348935 -0.00891826)
(0.00238601 0.00394016 -0.00941413)
(0.0038592 0.00409343 -0.00963125)
(0.00490131 0.00399961 -0.00950539)
(0.00422178 0.00353414 -0.00904532)
(0.00436408 0.00363901 -0.00820794)
(0.00430384 0.0037441 -0.00700014)
(0.00391453 0.00384808 -0.0055105)
(0.00315729 0.00391018 -0.00384865)
(0.00213451 0.00386867 -0.00211578)
(0.00104426 0.00367257 -0.000389154)
(8.49388e-05 0.00329662 0.0012798)
(-0.000602094 0.0027392 0.00285545)
(-0.000933852 0.00201941 0.00430865)
(-0.000869715 0.00117515 0.00561576)
(-0.000407832 0.000258034 0.0067598)
(0.000396415 -0.00067241 0.00772738)
(0.00139951 -0.0015485 0.0085029)
(0.00238123 -0.00229332 0.00907209)
(0.00315041 -0.00284346 0.00943444)
(0.0036581 -0.00319328 0.00958819)
(0.00398482 -0.00340094 0.00948708)
(0.00422178 -0.00353414 0.00904532)
(0.00436408 -0.00363901 0.00820794)
(0.00430384 -0.0037441 0.00700014)
(0.00391453 -0.00384808 0.0055105)
(0.00315729 -0.00391018 0.00384865)
(0.00213451 -0.00386867 0.00211578)
(0.00104426 -0.00367257 0.000389154)
(8.49388e-05 -0.00329662 -0.0012798)
(-0.000602094 -0.0027392 -0.00285545)
(-0.000933852 -0.00201941 -0.00430865)
(-0.000869715 -0.00117515 -0.00561576)
(-0.000407832 -0.000258034 -0.0067598)
(0.000396415 0.00067241 -0.00772738)
(0.00139951 0.0015485 -0.0085029)
(0.00238123 0.00229332 -0.00907209)
(0.00315041 0.00284346 -0.00943444)
(0.0036581 0.00319328 -0.00958819)
(0.00398482 0.00340094 -0.00948708)
(0.00692555 0.00489576 -0.00881147)
(0.00614583 0.00362216 -0.00787914)
(0.00401163 0.00242206 -0.00662877)
(0.00110869 0.00136028 -0.005169)
(-0.00191208 0.000428074 -0.00362627)
(-0.00458288 -0.000408361 -0.00211253)
(-0.0067083 -0.00118866 -0.000690163)
(-0.0082742 -0.001957 0.000627553)
(-0.00931443 -0.00275341 0.00185255)
(-0.00984182 -0.00360318 0.00300364)
(-0.00983376 -0.00451011 0.0040993)
(-0.00923036 -0.00544804 0.0051577)
(-0.00793047 -0.00634751 0.0061993)
(-0.00581876 -0.00708768 0.00723266)
(-0.00289779 -0.00751572 0.00820696)
(0.000513714 -0.00750337 0.0089831)
(0.0037569 -0.00700657 0.00939328)
(0.00607703 -0.00608735 0.00933689)
(0.00692555 -0.00489576 0.00881147)
(0.00614583 -0.00362216 0.00787914)
(0.00401163 -0.00242206 0.00662877)
(0.00110869 -0.00136028 0.005169)
(-0.00191208 -0.000428074 0.00362627)
(-0.00458288 0.000408361 0.00211253)
(-0.0067083 0.00118866 0.000690163)
(-0.0082742 0.001957 -0.000627553)
(-0.00931443 0.00275341 -0.00185255)
(-0.00984182 0.00360318 -0.00300364)
(-0.00983376 0.00451011 -0.0040993)
(-0.00923036 0.00544804 -0.0051577)
(-0.00793047 0.00634751 -0.0061993)
(-0.00581876 0.00708768 -0.00723266)
(-0.00289779 0.00751572 -0.00820696)
(0.000513714 0.00750337 -0.0089831)
(0.0037569 0.00700657 -0.00939328)
(0.00607703 0.00608735 -0.00933689)
(0.00590347 0.0043857 -0.00871755)
(0.00541245 0.00358535 -0.00783785)