/*--------------------------------*- C++ -*----------------------------------*\
| =========                 |                                                 |
| \\      /  F ield         | OpenFOAM: The Open Source CFD Toolbox           |
|  \\    /   O peration     | Version:  2312                                  |
|   \\  /    A nd           | Website:  www.openfoam.com                      |
|    \\/     M anipulation  |                                                 |
\*---------------------------------------------------------------------------*/
FoamFile
{
    version     2.0;
    format      ascii;
    arch        "LSB;label=32;scalar=64";
    class       volScalarField;
    location    "0.5";
    object      sigmaEq;
}
// * * * * * * * * * * * * * * * * * * * * * * * * * * * * * * * * * * * * * //

dimensions      [1 -1 -2 0 0 0 0];

internalField   nonuniform List<scalar> 
1620
(
31051.9
31356.5
30889.7
30234.1
29778.1
29563.9
29536.1
29637.3
29807.6
29967.2
30015.7
29860.8
29483.4
29002
28656.2
28686.4
29204.5
30117.8
31051.9
31356.5
30889.7
30234.1
29778.1
29563.9
29536.1
29637.3
29807.6
29967.2
30015.7
29860.8
29483.4
29002
28656.2
28686.4
29204.5
30117.8
29847.5
29940.2
29984.5
29996.6
30050.4
30196.3
30439.9
30752.1
31076.3
31331
31423.4
31281.4
30899.6
30372.9
29880.5
29596.8
29573.9
29706.5
29847.5
29940.2
29984.5
29996.6
30050.4
30196.3
30439.9
30752.1
31076.3
31331
31423.4
31281.4
30899.6
30372.9
29880.5
29596.8
29573.9
29706.5
30897.5
30217.2
29863.2
29944
30350.8
30924.1
31516.1
31993
32244.2
32214.6
31930
31496.2
31070.4
30813.6
30839.8
31148
31503.3
31467
30897.5
30217.2
29863.2
29944
30350.8
30924.1
31516.1
31993
32244.2
32214.6
31930
31496.2
31070.4
30813.6
30839.8
31148
31503.3
31467
30080.2
29617.9
29101
28901.4
28976.7
29261.4
29682.2
30163.6
30636
31024.4
31236
31163
30722
29954.7
29147.5
28723.6
28902.2
29615.4
30080.2
29617.9
29101
28901.4
28976.7
29261.4
29682.2
30163.6
30636
31024.4
31236
31163
30722
29954.7
29147.5
28723.6
28902.2
29615.4
29323.9
28989.1
28982.5
29229.8
29631.2
30159.8
30790.3
31480.7
32178.2
32820.3
33338
33655.5
33667.3
33227.9
32284.1
31099.6
30139.3
29667.9
29323.9
28989.1
28982.5
29229.8
29631.2
30159.8
30790.3
31480.7
32178.2
32820.3
33338
33655.5
33667.3
33227.9
32284.1
31099.6
30139.3
29667.9
31804.3
30741.4
30350.2
30651.8
31620
33063.2
34484.6
35336.7
35403.9
34833.1
33938.1
33057.6
32486.6
32398.6
32742
33230.8
33472.1
33016.6
31804.3
30741.4
30350.2
30651.8
31620
33063.2
34484.6
35336.7
35403.9
34833.1
33938.1
33057.6
32486.6
32398.6
32742
33230.8
33472.1
33016.6
29307.7
28701.9
28544.6
28718.6
29188.5
29943.4
30840.4
31698.9
32386.5
32818.1
32918.6
32593.5
31730.6
30317.5
28788.5
28027.8
28328.3
29578
29307.7
28701.9
28544.6
28718.6
29188.5
29943.4
30840.4
31698.9
32386.5
32818.1
32918.6
32593.5
31730.6
30317.5
28788.5
28027.8
28328.3
29578
27604.1
27643.6
27967
28344.6
28936.1
29871.3
31042.6
32254.3
33387.7
34396.4
35241.7
35827
35894.9
34984.6
32903.3
30502.6
28862.6
28342.5
27604.1
27643.6
27967
28344.6
28936.1
29871.3
31042.6
32254.3
33387.7
34396.4
35241.7
35827
35894.9
34984.6
32903.3
30502.6
28862.6
28342.5
31009.1
30813.9
30074
29897.1
30957
33492.2
36573.8
38690.2
39244.5
38586.4
37341.2
36082.8
35238.4
34914.1
34659
33823.6
32450
31220.6
31009.1
30813.9
30074
29897.1
30957
33492.2
36573.8
38690.2
39244.5
38586.4
37341.2
36082.8
35238.4
34914.1
34659
33823.6
32450
31220.6
30429.9
29867.9
29340.9
29250.4
29660.5
30587.8
31714.2
32617.9
33080
33077.3
32626.6
31691.9
30147.6
27855.8
25434.5
24895.6
26553.4
28986.9
30429.9
29867.9
29340.9
29250.4
29660.5
30587.8
31714.2
32617.9
33080
33077.3
32626.6
31691.9
30147.6
27855.8
25434.5
24895.6
26553.4
28986.9
29259.3
28713.3
27950.6
27247.2
27024.9
27776.7
29357.8
31110.3
32583.1
33641.4
34239
34242.7
33305.6
31009.9
28056.7
26748.2
27443.1
28740.4
29259.3
28713.3
27950.6
27247.2
27024.9
27776.7
29357.8
31110.3
32583.1
33641.4
34239
34242.7
33305.6
31009.9
28056.7
26748.2
27443.1
28740.4
31078.9
31068.6
29462.5
28138.3
28314.2
31336.1
36188.7
40170
42140.8
42412.1
41608.4
40286.5
38813.4
37134.5
34973.7
32729.4
31161
30497
31078.9
31068.6
29462.5
28138.3
28314.2
31336.1
36188.7
40170
42140.8
42412.1
41608.4
40286.5
38813.4
37134.5
34973.7
32729.4
31161
30497
29063.1
29823.5
30316.2
30642.1
30951.7
31481.6
32113.1
32419.1
32210.2
31558.8
30547.7
29156.1
27192.6
24429.9
22070.9
22963.2
25712.3
27803.3
29063.1
29823.5
30316.2
30642.1
30951.7
31481.6
32113.1
32419.1
32210.2
31558.8
30547.7
29156.1
27192.6
24429.9
22070.9
22963.2
25712.3
27803.3
29095.3
28886.5
27948.2
26397.2
24839.6
24650.8
26401.8
28824.3
30757.6
31883.8
32193.5
31602.8
29809.7
26770.5
24592.3
25631.6
27544.1
28666.3
29095.3
28886.5
27948.2
26397.2
24839.6
24650.8
26401.8
28824.3
30757.6
31883.8
32193.5
31602.8
29809.7
26770.5
24592.3
25631.6
27544.1
28666.3
31318.7
30150.6
28401
26506.7
25775.4
28629.5
34461
39787.8
43102.1
44699.7
45116.2
44719.7
43593.2
41428
38357.4
35403.4
33296
32077.3
31318.7
30150.6
28401
26506.7
25775.4
28629.5
34461
39787.8
43102.1
44699.7
45116.2
44719.7
43593.2
41428
38357.4
35403.4
33296
32077.3
28109.5
29307.3
30569.5
31882.8
32784.4
32964.7
32628.4
31891.6
30815.8
29531.5
28101
26441.3
24305.2
21739.2
20626
22546.1
25035.1
26788.8
28109.5
29307.3
30569.5
31882.8
32784.4
32964.7
32628.4
31891.6
30815.8
29531.5
28101
26441.3
24305.2
21739.2
20626
22546.1
25035.1
26788.8
28625
28455.8
27585.6
25860.7
23585.5
22447.7
24145.3
27175.3
29557.3
30777.9
30893.7
29906.1
27673
24716.3
23704.8
25490.1
27288.6
28250.4
28625
28455.8
27585.6
25860.7
23585.5
22447.7
24145.3
27175.3
29557.3
30777.9
30893.7
29906.1
27673
24716.3
23704.8
25490.1
27288.6
28250.4
31309.5
29343.6
27364.4
25237.1
24109.8
26292.8
32068
38099.9
42438.6
45271.5
47109.1
48179.2
48252
46732.2
43640.8
39810.8
36241.6
33484.8
31309.5
29343.6
27364.4
25237.1
24109.8
26292.8
32068
38099.9
42438.6
45271.5
47109.1
48179.2
48252
46732.2
43640.8
39810.8
36241.6
33484.8
27324.7
28624.8
30071
31695.7
33042.6
33381.7
32626
31211.5
29528.8
27809.9
26114.4
24334
22301.5
20453
20511.7
22569.6
24584.3
26049.1
27324.7
28624.8
30071
31695.7
33042.6
33381.7
32626
31211.5
29528.8
27809.9
26114.4
24334
22301.5
20453
20511.7
22569.6
24584.3
26049.1
27798
27683.7
26959.1
25396.3
23068.7
21324.6
22427.2
25477
28054.5
29358
29418.6
28298.3
26074.7
23719.3
23485.3
25162.9
26653.8
27469
27798
27683.7
26959.1
25396.3
23068.7
21324.6
22427.2
25477
28054.5
29358
29418.6
28298.3
26074.7
23719.3
23485.3
25162.9
26653.8
27469
30951.3
28754.4
26720.1
24634.4
23373.1
24723.4
29667.6
35720.7
40622.3
44254.1
47038
49114.6
50142.8
49505.6
46893.5
42566.5
37752.4
33809.7
30951.3
28754.4
26720.1
24634.4
23373.1
24723.4
29667.6
35720.7
40622.3
44254.1
47038
49114.6
50142.8
49505.6
46893.5
42566.5
37752.4
33809.7
26618.8
27830.2
29139.5
30529.5
31747.2
32196.3
31534.4
30061.8
28264.8
26449.4
24709.6
22988.7
21285.4
20201.9
20801.5
22597.1
24240.4
25480.4
26618.8
27830.2
29139.5
30529.5
31747.2
32196.3
31534.4
30061.8
28264.8
26449.4
24709.6
22988.7
21285.4
20201.9
20801.5
22597.1
24240.4
25480.4
26697.3
26644.7
26094.8
24816.6
22770.1
20782
20861.2
23230.8
25752
27195.6
27389.6
26408.4
24532.6
22889.5
23020.6
24421.1
25671.3
26391.5
26697.3
26644.7
26094.8
24816.6
22770.1
20782
20861.2
23230.8
25752
27195.6
27389.6
26408.4
24532.6
22889.5
23020.6
24421.1
25671.3
26391.5
30460.2
28440.9
26613.9
24815.7
23597.4
24217.2
27804.5
33115.9
38058.9
42039.5
45236
47708.7
49129.2
48919.5
46556
42144.7
37150.7
33181.5
30460.2
28440.9
26613.9
24815.7
23597.4
24217.2
27804.5
33115.9
38058.9
42039.5
45236
47708.7
49129.2
48919.5
46556
42144.7
37150.7
33181.5
25888.1
26930.9
28031
29110.5
29996.6
30323.8
29782.5
28503.3
26890.8
25244.9
23673.4
22187.6
20917.1
20375.9
21052.6
22470.8
23820.5
24900.6
25888.1
26930.9
28031
29110.5
29996.6
30323.8
29782.5
28503.3
26890.8
25244.9
23673.4
22187.6
20917.1
20375.9
21052.6
22470.8
23820.5
24900.6
25408.5
25408.4
25012.1
24028.4
22381.6
20500.5
19682.8
20843.2
22888.6
24395.2
24824.8
24177.2
22852.1
21864.7
22158.3
23318.6
24415.6
25098.7
25408.5
25408.4
25012.1
24028.4
22381.6
20500.5
19682.8
20843.2
22888.6
24395.2
24824.8
24177.2
22852.1
21864.7
22158.3
23318.6
24415.6
25098.7
30049
28405.2
26972.9
25621.9
24634.8
24778.5
26943
30907.7
35320.1
39259.3
42511.9
44991.1
46395.8
46212.7
43972.5
39963.5
35636.8
32299.2
30049
28405.2
26972.9
25621.9
24634.8
24778.5
26943
30907.7
35320.1
39259.3
42511.9
44991.1
46395.8
46212.7
43972.5
39963.5
35636.8
32299.2
24973.1
25858.7
26780
27640
28275.6
28452.2
27971.1
26898.4
25543.2
24179
22913.6
21785.1
20933.3
20665.6
21163
22149.4
23192.7
24116.1
24973.1
25858.7
26780
27640
28275.6
28452.2
27971.1
26898.4
25543.2
24179
22913.6
21785.1
20933.3
20665.6
21163
22149.4
23192.7
24116.1
23936.7
23984.5
23699.1
22965.6
21723.6
20176.4
18982.1
18952
20020.5
21238.7
21843.6
21648
20984.3
20576.3
20964.1
21929.3
22909.7
23591.2
23936.7
23984.5
23699.1
22965.6
21723.6
20176.4
18982.1
18952
20020.5
21238.7
21843.6
21648
20984.3
20576.3
20964.1
21929.3
22909.7
23591.2
29809.6
28565.9
27575.9
26726.1
26121.5
26137.6
27296.7
29797.7
33150.2
36593.2
39600.5
41854.9
43036.9
42756.2
40773.5
37527.7
34166
31572.1
29809.6
28565.9
27575.9
26726.1
26121.5
26137.6
27296.7
29797.7
33150.2
36593.2
39600.5
41854.9
43036.9
42756.2
40773.5
37527.7
34166
31572.1
23735
24496.5
25300.2
26045.1
26574.8
26718.2
26353.6
25523.6
24454.6
23396.9
22473
21709.7
21162.9
20955.3
21157.9
21678.9
22340.4
23028.3
23735
24496.5
25300.2
26045.1
26574.8
26718.2
26353.6
25523.6
24454.6
23396.9
22473
21709.7
21162.9
20955.3
21157.9
21678.9
22340.4
23028.3
22171.6
22271.7
22078.1
21554.4
20687
19572.7
18492.2
17871
17963.2
18521.9
19030.6
19188
19094.8
19116.6
19538.1
20304.3
21134.3
21788.7
22171.6
22271.7
22078.1
21554.4
20687
19572.7
18492.2
17871
17963.2
18521.9
19030.6
19188
19094.8
19116.6
19538.1
20304.3
21134.3
21788.7
29748.5
28839.9
28228.6
27836.5
27665.8
27824.9
28524.5
29966
32129.9
34675.6
37092.3
38904.2
39748.8
39386.8
37811.5
35446.2
33027.8
31097.3
29748.5
28839.9
28228.6
27836.5
27665.8
27824.9
28524.5
29966
32129.9
34675.6
37092.3
38904.2
39748.8
39386.8
37811.5
35446.2
33027.8
31097.3
22222.1
22835.4
23553.4
24261.2
24803.2
25037.3
24879
24352.6
23613.2
22869.9
22254.3
21778
21413.3
21171.2
21088.1
21174.1
21403
21750
22222.1
22835.4
23553.4
24261.2
24803.2
25037.3
24879
24352.6
23613.2
22869.9
22254.3
21778
21413.3
21171.2
21088.1
21174.1
21403
21750
19961.2
20103.5
20012
19692.6
19168
18491.9
17769
17162.1
16840.5
16850
17050.1
17252.5
17401.7
17591.7
17940.1
18463.9
19063.5
19597.7
19961.2
20103.5
20012
19692.6
19168
18491.9
17769
17162.1
16840.5
16850
17050.1
17252.5
17401.7
17591.7
17940.1
18463.9
19063.5
19597.7
29801.4
29151.1
28805.9
28736.2
28910
29287.9
29872.3
30742.7
31983.3
33534.8
35113.9
36312.1
36794.5
36430.9
35320.6
33765.5
32158
30798.9
29801.4
29151.1
28805.9
28736.2
28910
29287.9
29872.3
30742.7
31983.3
33534.8
35113.9
36312.1
36794.5
36430.9
35320.6
33765.5
32158
30798.9
20740
21131.8
21720.2
22393.7
22994.2
23378
23455.3
23221.9
22782
22312.1
21944.4
21683.7
21454.9
21206.1
20947.9
20724.6
20583.2
20570.3
20740
21131.8
21720.2
22393.7
22994.2
23378
23455.3
23221.9
22782
22312.1
21944.4
21683.7
21454.9
21206.1
20947.9
20724.6
20583.2
20570.3
17289.5
17449.5
17479
17378.1
17163.2
16860.8
16511.3
16177.5
15933.8
15826.3
15834.9
15894.1
15958.6
16039.6
16180.8
16409.7
16709.6
17025.2
17289.5
17449.5
17479
17378.1
17163.2
16860.8
16511.3
16177.5
15933.8
15826.3
15834.9
15894.1
15958.6
16039.6
16180.8
16409.7
16709.6
17025.2
29629.8
29183.9
28976.5
29014.1
29277.2
29700.4
30200.5
30741.4
31353.5
32068.6
32823.1
33433.3
33692.9
33502.5
32909.4
32061.7
31139.3
30296.4
29629.8
29183.9
28976.5
29014.1
29277.2
29700.4
30200.5
30741.4
31353.5
32068.6
32823.1
33433.3
33692.9
33502.5
32909.4
32061.7
31139.3
30296.4
19767.3
19900.5
20249.5
20758.7
21312.8
21772.6
22014.6
21979.4
21723.3
21412.2
21201.6
21110.5
21043.3
20902.8
20661.3
20356.6
20057.8
19838.1
19767.3
19900.5
20249.5
20758.7
21312.8
21772.6
22014.6
21979.4
21723.3
21412.2
21201.6
21110.5
21043.3
20902.8
20661.3
20356.6
20057.8
19838.1
14696
14924.9
15137
15289
15351.7
15318.3
15213.7
15096
15027.9
15026.1
15039.8
14993.2
14851.7
14650.2
14465.2
14364.5
14378.1
14498.9
14696
14924.9
15137
15289
15351.7
15318.3
15213.7
15096
15027.9
15026.1
15039.8
14993.2
14851.7
14650.2
14465.2
14364.5
14378.1
14498.9
28163.6
27905.8
27744
27700.9
27781.2
27959.8
28182.5
28390.1
28556.5
28700.8
28858.3
29038
29204.4
29295.7
29261.2
29089.1
28810.3
28481.7
28163.6
27905.8
27744
27700.9
27781.2
27959.8
28182.5
28390.1
28556.5
28700.8
28858.3
29038
29204.4
29295.7
29261.2
29089.1
28810.3
28481.7
20399.7
20120.2
20061.1
20216.7
20510.1
20807.5
20970.4
20929.3
20731
20518.3
20450.9
20615.7
20970.5
21362.2
21608.6
21584.9
21286.7
20834.3
20399.7
20120.2
20061.1
20216.7
20510.1
20807.5
20970.4
20929.3
20731
20518.3
20450.9
20615.7
20970.5
21362.2
21608.6
21584.9
21286.7
20834.3
13205.8
13635.2
14101.6
14526.4
14857.4
15071.2
15168.3
15163.3
15073.7
14912.9
14689.8
14409
14071.8
13688.2
13295.6
12975.7
12826.6
12909.4
13205.8
13635.2
14101.6
14526.4
14857.4
15071.2
15168.3
15163.3
15073.7
14912.9
14689.8
14409
14071.8
13688.2
13295.6
12975.7
12826.6
12909.4
23282.2
23289.8
23284.4
23283.9
23303.6
23346.6
23396.2
23421.3
23393.3
23302.6
23165.3
23022.8
22926
22907.8
22966.6
23069.3
23172.4
23246
23282.2
23289.8
23284.4
23283.9
23303.6
23346.6
23396.2
23421.3
23393.3
23302.6
23165.3
23022.8
22926
22907.8
22966.6
23069.3
23172.4
23246
)
;

boundaryField
{
    fixed
    {
        type            calculated;
        value           nonuniform List<scalar> 
108
(
30999.8
31342.2
30970.8
30318.8
29801.3
29511
29413.2
29457.8
29589.1
29733.1
29797
29696.5
29414.6
29057.9
28837.2
28943.4
29428.1
30193.7
30999.8
31342.2
30970.8
30318.8
29801.3
29511
29413.2
29457.8
29589.1
29733.1
29797
29696.5
29414.6
29057.9
28837.2
28943.4
29428.1
30193.7
29822.5
29957.7
30101.9
30152.2
30148.1
30172.1
30262
30410.4
30580.7
30716.4
30753.6
30644.6
30390.9
30064.9
29792.8
29675.7
29695.5
29751.8
29822.5
29957.7
30101.9
30152.2
30148.1
30172.1
30262
30410.4
30580.7
30716.4
30753.6
30644.6
30390.9
30064.9
29792.8
29675.7
29695.5
29751.8
30922
30286
29976
30097.9
30514
31035.2
31502.1
31795.3
31844.7
31645.3
31261.2
30813.4
30453.1
30321.9
30502.8
30955.9
31412.5
31439.2
30922
30286
29976
30097.9
30514
31035.2
31502.1
31795.3
31844.7
31645.3
31261.2
30813.4
30453.1
30321.9
30502.8
30955.9
31412.5
31439.2
)
;
    }
    inside
    {
        type            calculated;
        value           nonuniform List<scalar> 
540
(
32222.3
31414.9
30630.3
30286.8
30421.3
30888.7
31492.9
32032.3
32336
32320.1
32015.3
31543.7
31072.7
30777.9
30812.3
31249.1
31948.7
32439.3
32222.3
31414.9
30630.3
30286.8
30421.3
30888.7
31492.9
32032.3
32336
32320.1
32015.3
31543.7
31072.7
30777.9
30812.3
31249.1
31948.7
32439.3
34307.2
32727.1
31553.1
31413.5
32350.5
34189.2
36295.6
37735.1
37943.6
37029.3
35477.5
33795.9
32397.8
31609.5
31617.8
32389.5
33669.9
34696.7
34307.2
32727.1
31553.1
31413.5
32350.5
34189.2
36295.6
37735.1
37943.6
37029.3
35477.5
33795.9
32397.8
31609.5
31617.8
32389.5
33669.9
34696.7
34619.4
33605.6
31938.4
31677.5
33535.9
37894.2
43429.2
47361.9
48101.9
46095.8
42674.5
39056.2
36082.1
34248.5
33583.5
33564.1
33759.3
34297.2
34619.4
33605.6
31938.4
31677.5
33535.9
37894.2
43429.2
47361.9
48101.9
46095.8
42674.5
39056.2
36082.1
34248.5
33583.5
33564.1
33759.3
34297.2
33391.6
32979.1
31236.7
30883.5
33319.9
39966.9
49314.9
57095.8
60447.6
59268.1
55033.2
49573.5
44289.2
39848.3
36331.5
33713.7
32223
32124.7
33391.6
32979.1
31236.7
30883.5
33319.9
39966.9
49314.9
57095.8
60447.6
59268.1
55033.2
49573.5
44289.2
39848.3
36331.5
33713.7
32223
32124.7
32147
31168.7
30210.8
30414.9
33537.1
41394.3
52928.9
63863.2
70715.7
72420.2
69669
64100.5
57205.9
49703.6
42477
37042.5
34006.9
32734.1
32147
31168.7
30210.8
30414.9
33537.1
41394.3
52928.9
63863.2
70715.7
72420.2
69669
64100.5
57205.9
49703.6
42477
37042.5
34006.9
32734.1
31428.3
30083.2
29509.1
30379.8
34236.9
42643.3
55023.3
67472
76473.1
80702.7
80349.8
76456.8
70015
61440.5
51641.6
42856.7
36898.5
33488
31428.3
30083.2
29509.1
30379.8
34236.9
42643.3
55023.3
67472
76473.1
80702.7
80349.8
76456.8
70015
61440.5
51641.6
42856.7
36898.5
33488
31054.7
29656.1
29324.2
30563.8
34622.2
42870.5
54875.5
67183.5
76626.4
82072.1
83638.2
81891.8
77167.5
69298.4
58541.4
47245.4
38741.2
33763.9
31054.7
29656.1
29324.2
30563.8
34622.2
42870.5
54875.5
67183.5
76626.4
82072.1
83638.2
81891.8
77167.5
69298.4
58541.4
47245.4
38741.2
33763.9
31075.9
29866.4
29757
31076.4
34766
41977.2
52435.7
63498.1
72479.6
78290.7
80946.2
80677.2
77315.5
70248.6
59503.5
47715.7
38784.6
33685.4
31075.9
29866.4
29757
31076.4
34766
41977.2
52435.7
63498.1
72479.6
78290.7
80946.2
80677.2
77315.5
70248.6
59503.5
47715.7
38784.6
33685.4
31473.5
30602.7
30760.3
32115.7
35280
41032.9
49283.2
58415.5
66421.3
72123.2
75193.3
75534.1
72755.8
66260.8
56403.2
45909.3
38099.2
33665.1
31473.5
30602.7
30760.3
32115.7
35280
41032.9
49283.2
58415.5
66421.3
72123.2
75193.3
75534.1
72755.8
66260.8
56403.2
45909.3
38099.2
33665.1
32206.9
31688.4
32172
33700.1
36546.7
41044.1
47138.2
54073.3
60662.3
65808.8
68782
69137.5
66495.9
60649.4
52360.9
43924.7
37638.4
33975
32206.9
31688.4
32172
33700.1
36546.7
41044.1
47138.2
54073.3
60662.3
65808.8
68782
69137.5
66495.9
60649.4
52360.9
43924.7
37638.4
33975
33391.1
33143.5
33949.7
35788.1
38635.8
42396.1
46898.1
51865.9
56803.2
60930.9
63353.3
63383.4
60753.4
55705.5
49182.5
42775.7
37867.8
34845.7
33391.1
33143.5
33949.7
35788.1
38635.8
42396.1
46898.1
51865.9
56803.2
60930.9
63353.3
63383.4
60753.4
55705.5
49182.5
42775.7
37867.8
34845.7
35418.9
35334.6
36365.3
38481.1
41489.8
44981.5
48564.5
52076.1
55418.2
58222.9
59780.2
59402.2
56903.8
52733.1
47763.4
42988.2
39178.8
36663.3
35418.9
35334.6
36365.3
38481.1
41489.8
44981.5
48564.5
52076.1
55418.2
58222.9
59780.2
59402.2
56903.8
52733.1
47763.4
42988.2
39178.8
36663.3
39169.5
39109.2
40140.3
42225.6
45131.8
48363.8
51369.8
53862.7
55853
57345.3
58069.2
57582.2
55674
52610.2
48982.8
45423.4
42425.9
40293.8
39169.5
39109.2
40140.3
42225.6
45131.8
48363.8
51369.8
53862.7
55853
57345.3
58069.2
57582.2
55674
52610.2
48982.8
45423.4
42425.9
40293.8
47090.7
46733.7
47266.6
48640.3
50635
52840.9
54773.9
56122.2
56913.3
57388.7
57698.7
57738.3
57260.7
56106.8
54335.3
52200.9
50058.2
48260.3
47090.7
46733.7
47266.6
48640.3
50635
52840.9
54773.9
56122.2
56913.3
57388.7
57698.7
57738.3
57260.7
56106.8
54335.3
52200.9
50058.2
48260.3
59418
57840.9
56507.1
55546.6
55023.9
54927.2
55187.4
55749.4
56603.9
57753.8
59157.4
60710.8
62199.1
63323.8
63807.9
63519.3
62522.7
61059.4
59418
57840.9
56507.1
55546.6
55023.9
54927.2
55187.4
55749.4
56603.9
57753.8
59157.4
60710.8
62199.1
63323.8
63807.9
63519.3
62522.7
61059.4
)
;
    }
    outside
    {
        type            calculated;
        value           nonuniform List<scalar> 
540
(
32158.7
32431.2
31687.1
30747.3
30084.8
29712.8
29542.9
29500.7
29522.2
29539.5
29484.7
29313.8
29047.6
28801.9
28763.8
29102.3
29883.1
31026.4
32158.7
32431.2
31687.1
30747.3
30084.8
29712.8
29542.9
29500.7
29522.2
29539.5
29484.7
29313.8
29047.6
28801.9
28763.8
29102.3
29883.1
31026.4
31369.7
31080.5
30282.6
29749.4
29550.4
29582.8
29738.3
29928.9
30092.4
30177.5
30130.1
29894.9
29449.1
28884
28481.4
28569.9
29242.2
30386.3
31369.7
31080.5
30282.6
29749.4
29550.4
29582.8
29738.3
29928.9
30092.4
30177.5
30130.1
29894.9
29449.1
28884
28481.4
28569.9
29242.2
30386.3
31610.2
31057.2
30368.5
30086.3
30172.9
30494.4
30867.7
31145.8
31259.4
31180.5
30874
30280.1
29355.9
28236.4
27462.8
27670.5
28771.9
30589.9
31610.2
31057.2
30368.5
30086.3
30172.9
30494.4
30867.7
31145.8
31259.4
31180.5
30874
30280.1
29355.9
28236.4
27462.8
27670.5
28771.9
30589.9
32231.3
32369
31961.3
31901.5
32193.8
32664.5
33036.4
33089.2
32778.1
32147.3
31209.6
29925.1
28277.5
26456.6
25255.9
25839.6
27799.5
30240.1
32231.3
32369
31961.3
31901.5
32193.8
32664.5
33036.4
33089.2
32778.1
32147.3
31209.6
29925.1
28277.5
26456.6
25255.9
25839.6
27799.5
30240.1
30813.6
32240
33677.4
35183.9
36377.7
36935.6
36758.8
35861.8
34453.7
32766.7
30889
28815.9
26583.7
24475.3
23590.9
25032.1
27335.4
29237.2
30813.6
32240
33677.4
35183.9
36377.7
36935.6
36758.8
35861.8
34453.7
32766.7
30889
28815.9
26583.7
24475.3
23590.9
25032.1
27335.4
29237.2
30008.9
31809.7
34319.4
37567.1
40477.5
41711.3
40977.2
38835.2
36072
33224.3
30472.2
27828.5
25347.7
23453.9
23368.6
25190
27080.6
28551.7
30008.9
31809.7
34319.4
37567.1
40477.5
41711.3
40977.2
38835.2
36072
33224.3
30472.2
27828.5
25347.7
23453.9
23368.6
25190
27080.6
28551.7
29603.8
31357.1
33883.2
37388.7
41120.8
43334.5
42941.5
40452.5
37052.8
33582.3
30372.3
27501
25066.8
23581.4
23951.8
25608.8
27097.1
28287.7
29603.8
31357.1
33883.2
37388.7
41120.8
43334.5
42941.5
40452.5
37052.8
33582.3
30372.3
27501
25066.8
23581.4
23951.8
25608.8
27097.1
28287.7
29441.1
30923.9
32963.3
35776.7
39081.1
41585
41887.9
39962.8
36847.5
33477
30316
27548
25357.3
24239.4
24684.6
26023.5
27259.1
28297.3
29441.1
30923.9
32963.3
35776.7
39081.1
41585
41887.9
39962.8
36847.5
33477
30316
27548
25357.3
24239.4
24684.6
26023.5
27259.1
28297.3
29334.2
30504.5
32016.2
34020.4
36417.9
38473.3
39098.8
37921.6
35539.1
32740.6
30021.8
27639.9
25837.8
25002.4
25336.4
26344
27394.5
28347.2
29334.2
30504.5
32016.2
34020.4
36417.9
38473.3
39098.8
37921.6
35539.1
32740.6
30021.8
27639.9
25837.8
25002.4
25336.4
26344
27394.5
28347.2
29061.8
29998.8
31118.6
32502.3
34072.8
35429.1
35935.6
35241.2
33596.1
31532.4
29470.5
27663.3
26325.4
25693.9
25843.9
26513.6
27352
28201.3
29061.8
29998.8
31118.6
32502.3
34072.8
35429.1
35935.6
35241.2
33596.1
31532.4
29470.5
27663.3
26325.4
25693.9
25843.9
26513.6
27352
28201.3
28415.2
29208.3
30093.2
31078.8
32079.9
32864.9
33112.3
32627.7
31522.2
30120.8
28728.2
27527.4
26635.3
26153.9
26122.1
26458.3
27016.3
27684.7
28415.2
29208.3
30093.2
31078.8
32079.9
32864.9
33112.3
32627.7
31522.2
30120.8
28728.2
27527.4
26635.3
26153.9
26122.1
26458.3
27016.3
27684.7
27253.9
27911.5
28655.9
29428.2
30128.8
30611.1
30714.4
30352.1
29598.4
28669.8
27789.1
27069.9
26531.8
26177.3
26022
26073.6
26314.3
26715.2
27253.9
27911.5
28655.9
29428.2
30128.8
30611.1
30714.4
30352.1
29598.4
28669.8
27789.1
27069.9
26531.8
26177.3
26022
26073.6
26314.3
26715.2
25582.9
26020.8
26610
27269.5
27884.7
28328.8
28484.8
28286.4
27780.7
27142.5
26571.1
26155.2
25861.2
25624.9
25424
25281.3
25236
25325.8
25582.9
26020.8
26610
27269.5
27884.7
28328.8
28484.8
28286.4
27780.7
27142.5
26571.1
26155.2
25861.2
25624.9
25424
25281.3
25236
25325.8
23904.9
24009.2
24307.8
24773
25319.6
25821.2
26134.6
26146.5
25855.7
25416.8
25040.4
24828.7
24736.5
24661.7
24534.3
24346.3
24136.8
23967.3
23904.9
24009.2
24307.8
24773
25319.6
25821.2
26134.6
26146.5
25855.7
25416.8
25040.4
24828.7
24736.5
24661.7
24534.3
24346.3
24136.8
23967.3
23794.7
23302.6
23068.8
23108.8
23355.1
23670.8
23903.1
23963.1
23884
23803.1
23876.2
24182.8
24670.9
25174.7
25490.2
25462.8
25070.3
24444.6
23794.7
23302.6
23068.8
23108.8
23355.1
23670.8
23903.1
23963.1
23884
23803.1
23876.2
24182.8
24670.9
25174.7
25490.2
25462.8
25070.3
24444.6
)
;
    }
}


// ************************************************************************* //
