/*--------------------------------*- C++ -*----------------------------------*\
| =========                 |                                                 |
| \\      /  F ield         | OpenFOAM: The Open Source CFD Toolbox           |
|  \\    /   O peration     | Version:  2312                                  |
|   \\  /    A nd           | Website:  www.openfoam.com                      |
|    \\/     M anipulation  |                                                 |
\*---------------------------------------------------------------------------*/
FoamFile
{
    version     2.0;
    format      ascii;
    arch        "LSB;label=32;scalar=64";
    class       volScalarField;
    location    "0.5";
    object      sigmaHyd;
}
// * * * * * * * * * * * * * * * * * * * * * * * * * * * * * * * * * * * * * //

dimensions      [1 -1 -2 0 0 0 0];

internalField   nonuniform List<scalar> 
1620
(
-24701.7
-32625.7
-32088.3
-25809.4
-17791
-10470.5
-4573.69
89.9364
3943.69
7316.32
10331.5
12870.5
14549.5
14713.2
12503.2
7146.26
-1491.5
-12922.8
-24701.7
-32625.7
-32088.3
-25809.4
-17791
-10470.5
-4573.69
89.9364
3943.69
7316.32
10331.5
12870.5
14549.5
14713.2
12503.2
7146.26
-1491.5
-12922.8
-19539.2
-22493.3
-22211.3
-18792.1
-13916.6
-8991.12
-4726.53
-1338.57
1160.04
2800.59
3602.2
3554.27
2606.71
646.688
-2515.4
-6905.59
-11787.7
-16114
-19539.2
-22493.3
-22211.3
-18792.1
-13916.6
-8991.12
-4726.53
-1338.57
1160.04
2800.59
3602.2
3554.27
2606.71
646.688
-2515.4
-6905.59
-11787.7
-16114
-13424.8
-12916.7
-12078.8
-9788.12
-6216.59
-2281.09
1088.49
3292.32
4011.2
3118.2
668.372
-3063.85
-7541.25
-11982.6
-15507.2
-17258
-16679
-14671.2
-13424.8
-12916.7
-12078.8
-9788.12
-6216.59
-2281.09
1088.49
3292.32
4011.2
3118.2
668.372
-3063.85
-7541.25
-11982.6
-15507.2
-17258
-16679
-14671.2
-5146.36
-6241.92
-5184.81
-3777.77
-2467.12
-1539.53
-854.004
-118.549
915.184
2377.57
4240.89
6290.85
8132.44
9270.51
9256.04
7617.64
3746.85
-1088.58
-5146.36
-6241.92
-5184.81
-3777.77
-2467.12
-1539.53
-854.004
-118.549
915.184
2377.57
4240.89
6290.85
8132.44
9270.51
9256.04
7617.64
3746.85
-1088.58
-10444.2
-9118.96
-6589.48
-5853.16
-5632.79
-5314.08
-4781.15
-4173.06
-3666.89
-3397.22
-3456.53
-3906.45
-4757.23
-5907.54
-7125.07
-8495.77
-11331.3
-13787.4
-10444.2
-9118.96
-6589.48
-5853.16
-5632.79
-5314.08
-4781.15
-4173.06
-3666.89
-3397.22
-3456.53
-3906.45
-4757.23
-5907.54
-7125.07
-8495.77
-11331.3
-13787.4
-14801.1
-13538
-10571.1
-8285.37
-6143
-3985.66
-2072.05
-876.953
-833.001
-2216.84
-5085.61
-9220.37
-14050.9
-18543.9
-21251.5
-21203.1
-19681.4
-17394.3
-14801.1
-13538
-10571.1
-8285.37
-6143
-3985.66
-2072.05
-876.953
-833.001
-2216.84
-5085.61
-9220.37
-14050.9
-18543.9
-21251.5
-21203.1
-19681.4
-17394.3
-4558.41
-3268.44
1853.18
6139.74
8499.43
9334.5
9360.43
9223.86
9352.11
9940.78
10966.2
12198
13235.9
13599.7
12911.1
10844.4
5601.47
-3012.26
-4558.41
-3268.44
1853.18
6139.74
8499.43
9334.5
9360.43
9223.86
9352.11
9940.78
10966.2
12198
13235.9
13599.7
12911.1
10844.4
5601.47
-3012.26
-22251.3
-14276.3
-8743.32
-6693.18
-5718.92
-4630.31
-3425.08
-2415.8
-1782.4
-1552.44
-1705.51
-2251.26
-3279.24
-4967.21
-7343.13
-10088.7
-14490.8
-22783.7
-22251.3
-14276.3
-8743.32
-6693.18
-5718.92
-4630.31
-3425.08
-2415.8
-1782.4
-1552.44
-1705.51
-2251.26
-3279.24
-4967.21
-7343.13
-10088.7
-14490.8
-22783.7
-28606.1
-23642.4
-21473
-20806.5
-19293.3
-16539.2
-13265.1
-10506.7
-9053.66
-9327.4
-11400.5
-15052.2
-19824
-24898.1
-28667.8
-29110.2
-27025.6
-27484.5
-28606.1
-23642.4
-21473
-20806.5
-19293.3
-16539.2
-13265.1
-10506.7
-9053.66
-9327.4
-11400.5
-15052.2
-19824
-24898.1
-28667.8
-29110.2
-27025.6
-27484.5
-10490.1
-6020.35
922.601
6480.56
9777.04
11050.4
11107.9
10763.6
10548.2
10703.9
11235.8
11948.8
12476
12283.7
10781.8
7666.28
1982.53
-6819.95
-10490.1
-6020.35
922.601
6480.56
9777.04
11050.4
11107.9
10763.6
10548.2
10703.9
11235.8
11948.8
12476
12283.7
10781.8
7666.28
1982.53
-6819.95
-20464.7
-11636.6
-8225.44
-7085.64
-5658.93
-3669.82
-1776.92
-432.033
300.694
547.227
425.676
-62.4649
-1119.64
-3202.94
-6671.28
-11089.7
-16078.6
-20613.8
-20464.7
-11636.6
-8225.44
-7085.64
-5658.93
-3669.82
-1776.92
-432.033
300.694
547.227
425.676
-62.4649
-1119.64
-3202.94
-6671.28
-11089.7
-16078.6
-20613.8
-12954.5
-13407.8
-17643.6
-20958.5
-21362.7
-18976
-15136.6
-11421.6
-8933.41
-8208.79
-9339.23
-12106.6
-16090.5
-20483.8
-23375.7
-22237.1
-17231.8
-13159.2
-12954.5
-13407.8
-17643.6
-20958.5
-21362.7
-18976
-15136.6
-11421.6
-8933.41
-8208.79
-9339.23
-12106.6
-16090.5
-20483.8
-23375.7
-22237.1
-17231.8
-13159.2
-11829.2
-10470.2
-5543.73
467.791
5077.68
7616.52
8554.56
8668.67
8587.14
8653.46
8948.56
9326.69
9392.33
8378.13
5312.06
80.7416
-6121.4
-10702.7
-11829.2
-10470.2
-5543.73
467.791
5077.68
7616.52
8554.56
8668.67
8587.14
8653.46
8948.56
9326.69
9392.33
8378.13
5312.06
80.7416
-6121.4
-10702.7
-11282.1
-9995.72
-8997.99
-7357.89
-4799.4
-1934.36
356.299
1711.53
2294.42
2394.75
2184.09
1628.93
430.156
-1973.46
-5904.14
-10390
-13366.5
-13108.7
-11282.1
-9995.72
-8997.99
-7357.89
-4799.4
-1934.36
356.299
1711.53
2294.42
2394.75
2184.09
1628.93
430.156
-1973.46
-5904.14
-10390
-13366.5
-13108.7
6611.15
1275
-6741.21
-12924.6
-15191.8
-13638.9
-9909.28
-5972.44
-3055.86
-1688.07
-1988.87
-3808.88
-6742.41
-9837.03
-10918.4
-7624.68
-688.383
5716.45
6611.15
1275
-6741.21
-12924.6
-15191.8
-13638.9
-9909.28
-5972.44
-3055.86
-1688.07
-1988.87
-3808.88
-6742.41
-9837.03
-10918.4
-7624.68
-688.383
5716.45
-16862.2
-15550.8
-11754.7
-6393.62
-1178.82
2670.64
4858.63
5790.77
6089.79
6193.06
6257.55
6168.76
5471.55
3287.34
-1053.85
-6698.26
-11975
-15621.7
-16862.2
-15550.8
-11754.7
-6393.62
-1178.82
2670.64
4858.63
5790.77
6089.79
6193.06
6257.55
6168.76
5471.55
3287.34
-1053.85
-6698.26
-11975
-15621.7
-10159.6
-8853.43
-7718.37
-5937.32
-3130.34
-54.5506
2240.97
3361.65
3619.6
3435.13
3017.6
2324.6
1060.96
-1240.96
-4616.4
-8036.21
-10310.9
-10928.3
-10159.6
-8853.43
-7718.37
-5937.32
-3130.34
-54.5506
2240.97
3361.65
3619.6
3435.13
3017.6
2324.6
1060.96
-1240.96
-4616.4
-8036.21
-10310.9
-10928.3
17212.2
12047.7
3593.31
-3800.42
-7322.62
-6686.71
-3506.39
96.6875
2898.8
4457.46
4653.61
3587.8
1680.8
-17.6479
487.622
4727.31
11365.7
16684.2
17212.2
12047.7
3593.31
-3800.42
-7322.62
-6686.71
-3506.39
96.6875
2898.8
4457.46
4653.61
3587.8
1680.8
-17.6479
487.622
4727.31
11365.7
16684.2
-22105
-21288.9
-18383.3
-13725.4
-8356.21
-3520.79
-76.464
1870.02
2758.35
3038.68
2917.4
2305.07
752.427
-2443.68
-7386.47
-12910
-17682.7
-20878.9
-22105
-21288.9
-18383.3
-13725.4
-8356.21
-3520.79
-76.464
1870.02
2758.35
3038.68
2917.4
2305.07
752.427
-2443.68
-7386.47
-12910
-17682.7
-20878.9
-8892.6
-7731.39
-6161.36
-4208.94
-1664.1
1100.17
3197.32
4109.72
4115.23
3711.23
3164.15
2460.68
1339.38
-560.106
-3132.32
-5723.15
-7837.04
-9020.48
-8892.6
-7731.39
-6161.36
-4208.94
-1664.1
1100.17
3197.32
4109.72
4115.23
3711.23
3164.15
2460.68
1339.38
-560.106
-3132.32
-5723.15
-7837.04
-9020.48
25767.5
20874.3
12474.5
4500.16
-112.974
-725.095
1404.81
4307.23
6751.69
8317.88
8884.43
8520.52
7641.41
7283.09
9077.22
13838.5
20188
25156.2
25767.5
20874.3
12474.5
4500.16
-112.974
-725.095
1404.81
4307.23
6751.69
8317.88
8884.43
8520.52
7641.41
7283.09
9077.22
13838.5
20188
25156.2
-27232.6
-26968.8
-25013.1
-21282.3
-16312.6
-11119.7
-6761.18
-3808.1
-2173.01
-1528.52
-1676.75
-2679.08
-4874.13
-8615.34
-13596
-18752.8
-23076.7
-25957.3
-27232.6
-26968.8
-25013.1
-21282.3
-16312.6
-11119.7
-6761.18
-3808.1
-2173.01
-1528.52
-1676.75
-2679.08
-4874.13
-8615.34
-13596
-18752.8
-23076.7
-25957.3
-8247.54
-7003.14
-5021.03
-2881.64
-635.602
1647.34
3453.8
4273.55
4216.42
3745.41
3176.04
2533.42
1591
86.2214
-1910.58
-4149.55
-6395.1
-8023.79
-8247.54
-7003.14
-5021.03
-2881.64
-635.602
1647.34
3453.8
4273.55
4216.42
3745.41
3176.04
2533.42
1591
86.2214
-1910.58
-4149.55
-6395.1
-8023.79
33173.4
28910.3
20887.1
12597.7
6945.08
4872.1
5634.92
7669.32
9734.46
11300.6
12203.7
12490.4
12554.8
13335.7
16055.1
21095.4
27273.3
32187.5
33173.4
28910.3
20887.1
12597.7
6945.08
4872.1
5634.92
7669.32
9734.46
11300.6
12203.7
12490.4
12554.8
13335.7
16055.1
21095.4
27273.3
32187.5
-31327.7
-31552.5
-30615.1
-28130.4
-24187.6
-19456.2
-14884.5
-11278.1
-8945.56
-7825.38
-7815.34
-8947.31
-11370.2
-15085.5
-19596.8
-24046.9
-27691.4
-30111.3
-31327.7
-31552.5
-30615.1
-28130.4
-24187.6
-19456.2
-14884.5
-11278.1
-8945.56
-7825.38
-7815.34
-8947.31
-11370.2
-15085.5
-19596.8
-24046.9
-27691.4
-30111.3
-8617.91
-7342.83
-5042.89
-2604.21
-377.048
1615.01
3182.91
4001.45
4048.55
3647.33
3108.55
2498.32
1646.63
355.736
-1416.54
-3657.19
-6154.76
-8136.92
-8617.91
-7342.83
-5042.89
-2604.21
-377.048
1615.01
3182.91
4001.45
4048.55
3647.33
3108.55
2498.32
1646.63
355.736
-1416.54
-3657.19
-6154.76
-8136.92
40097.5
36712.4
29498.3
21293
14818.6
11309.3
10559
11536.5
13128.6
14655.3
15842.2
16696
17573.4
19253.7
22602.2
27790.5
33825.1
38698
40097.5
36712.4
29498.3
21293
14818.6
11309.3
10559
11536.5
13128.6
14655.3
15842.2
16696
17573.4
19253.7
22602.2
27790.5
33825.1
38698
-33715.6
-34250.9
-34250.4
-33193.7
-30794
-27311.6
-23406.7
-19850
-17196.6
-15684.1
-15379.3
-16306.8
-18432.6
-21523
-25054.7
-28386.1
-31019.9
-32743.2
-33715.6
-34250.9
-34250.4
-33193.7
-30794
-27311.6
-23406.7
-19850
-17196.6
-15684.1
-15379.3
-16306.8
-18432.6
-21523
-25054.7
-28386.1
-31019.9
-32743.2
-10412.8
-9290.31
-6859.43
-4079.72
-1551.9
549.492
2141.73
3084.83
3343.82
3102.52
2609.64
1960.29
1051.78
-277.94
-2143.91
-4588.7
-7355.51
-9637.35
-10412.8
-9290.31
-6859.43
-4079.72
-1551.9
549.492
2141.73
3084.83
3343.82
3102.52
2609.64
1960.29
1051.78
-277.94
-2143.91
-4588.7
-7355.51
-9637.35
46263.6
43872.2
37969.7
30555.3
23877.3
19305
17112.2
16819.4
17647.3
18916.4
20238.9
21541
23086.1
25440.4
29168.4
34313.6
40019.4
44619.6
46263.6
43872.2
37969.7
30555.3
23877.3
19305
17112.2
16819.4
17647.3
18916.4
20238.9
21541
23086.1
25440.4
29168.4
34313.6
40019.4
44619.6
-34050.9
-34684.3
-35370.2
-35620.6
-34932.7
-33191.4
-30695.5
-27999.7
-25670.7
-24109.4
-23525.9
-23968.8
-25315.4
-27259.8
-29372.4
-31241.4
-32615.7
-33473.7
-34050.9
-34684.3
-35370.2
-35620.6
-34932.7
-33191.4
-30695.5
-27999.7
-25670.7
-24109.4
-23525.9
-23968.8
-25315.4
-27259.8
-29372.4
-31241.4
-32615.7
-33473.7
-13805.6
-13024
-10761
-7822.84
-4890.95
-2326.47
-310.076
1028.66
1643.71
1631.57
1173.91
383.611
-774.527
-2412.59
-4614.04
-7345.92
-10297.8
-12748.7
-13805.6
-13024
-10761
-7822.84
-4890.95
-2326.47
-310.076
1028.66
1643.71
1631.57
1173.91
383.611
-774.527
-2412.59
-4614.04
-7345.92
-10297.8
-12748.7
50788.1
49343.3
45102.6
39291
33440.3
28705.9
25602.8
24109.4
23889.8
24515.5
25645.7
27139.5
29096.9
31803.2
35534.2
40228.2
45190.4
49154.8
50788.1
49343.3
45102.6
39291
33440.3
28705.9
25602.8
24109.4
23889.8
24515.5
25645.7
27139.5
29096.9
31803.2
35534.2
40228.2
45190.4
49154.8
-32355.6
-32889.3
-33901.8
-35033.2
-35752.5
-35716.7
-34913.2
-33612.8
-32218
-31093.1
-30460.8
-30375.6
-30729.2
-31296
-31827.9
-32158.1
-32258.2
-32241.9
-32355.6
-32889.3
-33901.8
-35033.2
-35752.5
-35716.7
-34913.2
-33612.8
-32218
-31093.1
-30460.8
-30375.6
-30729.2
-31296
-31827.9
-32158.1
-32258.2
-32241.9
-18529.2
-18156.4
-16364.7
-13665.9
-10608.4
-7609.67
-4983.8
-2987.54
-1791.11
-1427.99
-1806.27
-2806.55
-4369.06
-6479.76
-9089.43
-12032.6
-14967.7
-17343.2
-18529.2
-18156.4
-16364.7
-13665.9
-10608.4
-7609.67
-4983.8
-2987.54
-1791.11
-1427.99
-1806.27
-2806.55
-4369.06
-6479.76
-9089.43
-12032.6
-14967.7
-17343.2
53087.2
52459.7
49957.4
46246.5
42183.3
38468.7
35513.5
33477.9
32368.8
32117.6
32638.1
33858.8
35735.7
38257.3
41411.3
45060.2
48748.3
51697.1
53087.2
52459.7
49957.4
46246.5
42183.3
38468.7
35513.5
33477.9
32368.8
32117.6
32638.1
33858.8
35735.7
38257.3
41411.3
45060.2
48748.3
51697.1
-29125.7
-29462.7
-30441
-31840.8
-33251.8
-34306.9
-34834.5
-34869.2
-34586.5
-34205.3
-33850.9
-33503.3
-33090.4
-32534.4
-31791.2
-30913.3
-30047.4
-29383.1
-29125.7
-29462.7
-30441
-31840.8
-33251.8
-34306.9
-34834.5
-34869.2
-34586.5
-34205.3
-33850.9
-33503.3
-33090.4
-32534.4
-31791.2
-30913.3
-30047.4
-29383.1
-24027.5
-24075.7
-23031
-21108.7
-18599.1
-15807.7
-13037.2
-10604.1
-8802.75
-7870.51
-7912.19
-8874.85
-10604
-12897.5
-15538.3
-18284.1
-20846.2
-22876.8
-24027.5
-24075.7
-23031
-21108.7
-18599.1
-15807.7
-13037.2
-10604.1
-8802.75
-7870.51
-7912.19
-8874.85
-10604
-12897.5
-15538.3
-18284.1
-20846.2
-22876.8
54132.4
53904.1
52795.5
51105.2
49198
47346.1
45695.8
44315.6
43266.1
42637.1
42555.1
43115.7
44298.6
45964.3
47920.3
49980.1
51913.2
53406.9
54132.4
53904.1
52795.5
51105.2
49198
47346.1
45695.8
44315.6
43266.1
42637.1
42555.1
43115.7
44298.6
45964.3
47920.3
49980.1
51913.2
53406.9
-24030.2
-23903.8
-24410.6
-25378.4
-26561.4
-27766.3
-28881.6
-29814
-30494.7
-30961.3
-31285.3
-31383.3
-31126.7
-30443.9
-29289.2
-27761.3
-26153.2
-24820.2
-24030.2
-23903.8
-24410.6
-25378.4
-26561.4
-27766.3
-28881.6
-29814
-30494.7
-30961.3
-31285.3
-31383.3
-31126.7
-30443.9
-29289.2
-27761.3
-26153.2
-24820.2
-30359.2
-30515.1
-30167.5
-29331.2
-28096.1
-26616.4
-25043.9
-23499.2
-22121.4
-21165.7
-20918.5
-21481.5
-22736.2
-24379.2
-26063.5
-27562.4
-28804.2
-29758.6
-30359.2
-30515.1
-30167.5
-29331.2
-28096.1
-26616.4
-25043.9
-23499.2
-22121.4
-21165.7
-20918.5
-21481.5
-22736.2
-24379.2
-26063.5
-27562.4
-28804.2
-29758.6
57098.9
57120.7
56819.4
56297.6
55648.5
54931.6
54206.4
53544.7
53003.6
52590.8
52312.4
52233
52443.2
53001.8
53880.2
54929.2
55932.5
56695
57098.9
57120.7
56819.4
56297.6
55648.5
54931.6
54206.4
53544.7
53003.6
52590.8
52312.4
52233
52443.2
53001.8
53880.2
54929.2
55932.5
56695
-22840.3
-23596.2
-24552.9
-25721.2
-27015.1
-28177.2
-28844
-28792.6
-28068
-26904.7
-25536.4
-24073.4
-22658.5
-21605
-21144.9
-21240.6
-21666.5
-22217.2
-22840.3
-23596.2
-24552.9
-25721.2
-27015.1
-28177.2
-28844
-28792.6
-28068
-26904.7
-25536.4
-24073.4
-22658.5
-21605
-21144.9
-21240.6
-21666.5
-22217.2
-32962.4
-33765
-34469.1
-35059.4
-35463
-35515.6
-35023.7
-33945.2
-32462.3
-30897.9
-29531.7
-28519.2
-27986.4
-28095.6
-28796.3
-29861.8
-31004.1
-32050.3
-32962.4
-33765
-34469.1
-35059.4
-35463
-35515.6
-35023.7
-33945.2
-32462.3
-30897.9
-29531.7
-28519.2
-27986.4
-28095.6
-28796.3
-29861.8
-31004.1
-32050.3
53686
53344.1
53022.8
52765.5
52693.3
52972.6
53702.8
54810
56052.6
57117.2
57795.4
58032
57784.6
57125.4
56216.9
55319.2
54595.3
54074.6
53686
53344.1
53022.8
52765.5
52693.3
52972.6
53702.8
54810
56052.6
57117.2
57795.4
58032
57784.6
57125.4
56216.9
55319.2
54595.3
54074.6
)
;

boundaryField
{
    fixed
    {
        type            zeroGradient;
    }
    inside
    {
        type            zeroGradient;
    }
    outside
    {
        type            zeroGradient;
    }
}


// ************************************************************************* //
