/*--------------------------------*- C++ -*----------------------------------*\
| =========                 |                                                 |
| \\      /  F ield         | OpenFOAM: The Open Source CFD Toolbox           |
|  \\    /   O peration     | Version:  2312                                  |
|   \\  /    A nd           | Website:  www.openfoam.com                      |
|    \\/     M anipulation  |                                                 |
\*---------------------------------------------------------------------------*/
FoamFile
{
    version     2.0;
    format      ascii;
    arch        "LSB;label=32;scalar=64";
    class       volVectorField;
    location    "0.5";
    object      U;
}
// * * * * * * * * * * * * * * * * * * * * * * * * * * * * * * * * * * * * * //

dimensions      [0 1 -1 0 0 0 0];

internalField   nonuniform List<vector> 
1620
(
(-0.0014223 -0.00489579 -0.00119536)
(-0.000778059 -0.00481679 -0.00199123)
(-0.000343581 -0.00430984 -0.00252081)
(-0.000162354 -0.00354041 -0.00277089)
(-0.000191139 -0.00267 -0.00284512)
(-0.000372659 -0.00180176 -0.00286005)
(-0.000650614 -0.000992586 -0.00288804)
(-0.000973159 -0.000260319 -0.00295183)
(-0.0013052 0.000407084 -0.00303531)
(-0.00163451 0.00102945 -0.00309769)
(-0.00196275 0.00161016 -0.0030901)
(-0.00228642 0.00212575 -0.00297181)
(-0.00258066 0.00253988 -0.0027221)
(-0.00280115 0.00284515 -0.00234468)
(-0.00290416 0.00311146 -0.00185695)
(-0.00285225 0.00347155 -0.00126344)
(-0.00259167 0.00399345 -0.000546769)
(-0.00208724 0.00455392 0.000294724)
(-0.0014223 0.00489579 0.00119536)
(-0.000778059 0.00481679 0.00199123)
(-0.000343581 0.00430984 0.00252081)
(-0.000162354 0.00354041 0.00277089)
(-0.000191139 0.00267 0.00284512)
(-0.000372659 0.00180176 0.00286005)
(-0.000650614 0.000992586 0.00288804)
(-0.000973159 0.000260319 0.00295183)
(-0.0013052 -0.000407084 0.00303531)
(-0.00163451 -0.00102945 0.00309769)
(-0.00196275 -0.00161016 0.0030901)
(-0.00228642 -0.00212575 0.00297181)
(-0.00258066 -0.00253988 0.0027221)
(-0.00280115 -0.00284515 0.00234468)
(-0.00290416 -0.00311146 0.00185695)
(-0.00285225 -0.00347155 0.00126344)
(-0.00259167 -0.00399345 0.000546769)
(-0.00208724 -0.00455392 -0.000294724)
(-0.00139648 -0.00377326 -0.00212932)
(-0.00110168 -0.00364577 -0.00268718)
(-0.000896908 -0.00324088 -0.00313486)
(-0.00083262 -0.00257162 -0.00343071)
(-0.000919196 -0.00172587 -0.00357812)
(-0.00112857 -0.000805738 -0.00360875)
(-0.00141043 0.000104762 -0.00355441)
(-0.00171213 0.000952005 -0.00343236)
(-0.00199515 0.00171097 -0.00324374)
(-0.00223954 0.00237257 -0.00297883)
(-0.00243571 0.00292791 -0.0026243)
(-0.00257134 0.00335794 -0.00217057)
(-0.00262523 0.00363568 -0.00162038)
(-0.00257806 0.00374729 -0.000998247)
(-0.00243587 0.00372636 -0.000348913)
(-0.00223331 0.00366516 0.000287744)
(-0.00199366 0.00366195 0.000905042)
(-0.00171006 0.00373093 0.00151945)
(-0.00139648 0.00377326 0.00212932)
(-0.00110168 0.00364577 0.00268718)
(-0.000896908 0.00324088 0.00313486)
(-0.00083262 0.00257162 0.00343071)
(-0.000919196 0.00172587 0.00357812)
(-0.00112857 0.000805738 0.00360875)
(-0.00141043 -0.000104762 0.00355441)
(-0.00171213 -0.000952005 0.00343236)
(-0.00199515 -0.00171097 0.00324374)
(-0.00223954 -0.00237257 0.00297883)
(-0.00243571 -0.00292791 0.0026243)
(-0.00257134 -0.00335794 0.00217057)
(-0.00262523 -0.00363568 0.00162038)
(-0.00257806 -0.00374729 0.000998247)
(-0.00243587 -0.00372636 0.000348913)
(-0.00223331 -0.00366516 -0.000287744)
(-0.00199366 -0.00366195 -0.000905042)
(-0.00171006 -0.00373093 -0.00151945)
(-0.00123334 -0.00291259 -0.0032162)
(-0.00117932 -0.00263726 -0.0036013)
(-0.0011557 -0.00220445 -0.00398132)
(-0.00120203 -0.00151789 -0.00429276)
(-0.00135864 -0.000597385 -0.00446475)
(-0.00162279 0.00045949 -0.00445572)
(-0.0019507 0.00153811 -0.00425735)
(-0.00228531 0.00254375 -0.00388271)
(-0.00257937 0.00341222 -0.00335566)
(-0.00280065 0.00410647 -0.00270538)
(-0.0029246 0.00460818 -0.00196296)
(-0.00292652 0.00490758 -0.00115878)
(-0.00278477 0.00499527 -0.000324631)
(-0.00250103 0.00486435 0.000497465)
(-0.00212723 0.00452983 0.00125179)
(-0.00176216 0.00405884 0.00188937)
(-0.00149027 0.00357516 0.00240356)
(-0.00132504 0.00319068 0.00283036)
(-0.00123334 0.00291259 0.0032162)
(-0.00117932 0.00263726 0.0036013)
(-0.0011557 0.00220445 0.00398132)
(-0.00120203 0.00151789 0.00429276)
(-0.00135864 0.000597385 0.00446475)
(-0.00162279 -0.00045949 0.00445572)
(-0.0019507 -0.00153811 0.00425735)
(-0.00228531 -0.00254375 0.00388271)
(-0.00257936 -0.00341222 0.00335566)
(-0.00280065 -0.00410647 0.00270538)
(-0.0029246 -0.00460818 0.00196296)
(-0.00292652 -0.00490758 0.00115878)
(-0.00278477 -0.00499527 0.000324631)
(-0.00250103 -0.00486435 -0.000497465)
(-0.00212723 -0.00452983 -0.00125179)
(-0.00176216 -0.00405884 -0.00188937)
(-0.00149027 -0.00357516 -0.00240356)
(-0.00132504 -0.00319068 -0.00283036)
(-0.0040728 -0.0132486 -0.00510486)
(-0.00224624 -0.0127568 -0.00691362)
(-0.00120875 -0.0113186 -0.00812067)
(-0.00103958 -0.00916084 -0.00885702)
(-0.00151911 -0.00654859 -0.00927991)
(-0.0023796 -0.00378186 -0.00950773)
(-0.00339796 -0.00111431 -0.00961804)
(-0.00442098 0.00132675 -0.00964413)
(-0.00537357 0.00353177 -0.00956631)
(-0.00624749 0.00553718 -0.00931801)
(-0.00706802 0.00735043 -0.00881005)
(-0.00784665 0.00890903 -0.00796451)
(-0.00853624 0.0100918 -0.00675146)
(-0.00901387 0.0108004 -0.00521818)
(-0.00911739 0.0111122 -0.00347344)
(-0.00871287 0.0113823 -0.0015828)
(-0.00770921 0.0119975 0.000517384)
(-0.00608093 0.0128409 0.00282601)
(-0.0040728 0.0132486 0.00510486)
(-0.00224624 0.0127568 0.00691362)
(-0.00120875 0.0113186 0.00812067)
(-0.00103958 0.00916084 0.00885702)
(-0.00151911 0.00654859 0.00927991)
(-0.0023796 0.00378186 0.00950773)
(-0.00339796 0.00111431 0.00961804)
(-0.00442098 -0.00132676 0.00964413)
(-0.00537357 -0.00353177 0.00956631)
(-0.0062475 -0.00553718 0.00931801)
(-0.00706802 -0.00735043 0.00881005)
(-0.00784665 -0.00890903 0.00796451)
(-0.00853624 -0.0100918 0.00675146)
(-0.00901387 -0.0108004 0.00521818)
(-0.00911739 -0.0111122 0.00347345)
(-0.00871287 -0.0113823 0.0015828)
(-0.00770921 -0.0119975 -0.000517384)
(-0.00608093 -0.0128409 -0.00282601)
(-0.004043 -0.010959 -0.00612645)
(-0.00299559 -0.010494 -0.00778967)
(-0.00235664 -0.00925251 -0.00911989)
(-0.00228361 -0.00728833 -0.0100211)
(-0.00272077 -0.00481684 -0.0104916)
(-0.00349708 -0.00213317 -0.0105988)
(-0.00442157 0.000501295 -0.0104302)
(-0.0053452 0.00292915 -0.0100466)
(-0.00618439 0.00509002 -0.00946662)
(-0.00690901 0.00697227 -0.0086776)
(-0.00751029 0.00856519 -0.00765567)
(-0.0079651 0.009831 -0.00638179)
(-0.00821262 0.0107031 -0.00485711)
(-0.00816446 0.0111218 -0.00312262)
(-0.00776512 0.0111197 -0.00127194)
(-0.00706448 0.0109129 0.000586467)
(-0.00618115 0.0108183 0.00242444)
(-0.00516457 0.0109366 0.00428485)
(-0.004043 0.010959 0.00612645)
(-0.00299559 0.010494 0.00778967)
(-0.00235664 0.00925251 0.00911989)
(-0.00228361 0.00728833 0.0100211)
(-0.00272077 0.00481684 0.0104916)
(-0.00349708 0.00213317 0.0105988)
(-0.00442157 -0.000501295 0.0104302)
(-0.0053452 -0.00292915 0.0100466)
(-0.00618439 -0.00509002 0.00946662)
(-0.00690901 -0.00697227 0.0086776)
(-0.00751029 -0.00856519 0.00765567)
(-0.0079651 -0.009831 0.00638179)
(-0.00821262 -0.0107031 0.00485711)
(-0.00816446 -0.0111218 0.00312262)
(-0.00776512 -0.0111197 0.00127194)
(-0.00706448 -0.0109129 -0.000586467)
(-0.00618115 -0.0108183 -0.00242444)
(-0.00516457 -0.0109366 -0.00428485)
(-0.00383447 -0.00894657 -0.00729118)
(-0.00343031 -0.0083797 -0.00882305)
(-0.00316435 -0.00722879 -0.0102292)
(-0.00320161 -0.00538009 -0.0112479)
(-0.00361563 -0.00297438 -0.0117411)
(-0.00433366 -0.00029294 -0.0117144)
(-0.00520236 0.00238509 -0.0112472)
(-0.00607672 0.00485893 -0.01042)
(-0.00686119 0.00700772 -0.0092912)
(-0.00749982 0.00876603 -0.00791181)
(-0.00794628 0.0101054 -0.00633736)
(-0.00814 0.0110203 -0.00462178)
(-0.00800471 0.0115106 -0.00280629)
(-0.00748587 0.0115697 -0.000925473)
(-0.0066323 0.0112087 0.000959826)
(-0.00566123 0.0105382 0.00274132)
(-0.00485508 0.00982237 0.00433907)
(-0.00429349 0.00931681 0.00581631)
(-0.00383447 0.00894657 0.00729118)
(-0.00343031 0.0083797 0.00882305)
(-0.00316435 0.00722879 0.0102292)
(-0.00320161 0.00538009 0.0112479)
(-0.00361563 0.00297438 0.0117411)
(-0.00433366 0.00029294 0.0117144)
(-0.00520236 -0.00238509 0.0112472)
(-0.00607672 -0.00485893 0.01042)
(-0.00686119 -0.00700772 0.0092912)
(-0.00749982 -0.00876603 0.00791181)
(-0.00794628 -0.0101054 0.00633736)
(-0.00814 -0.0110203 0.00462178)
(-0.00800471 -0.0115106 0.00280629)
(-0.00748587 -0.0115697 0.000925473)
(-0.0066323 -0.0112087 -0.000959826)
(-0.00566123 -0.0105382 -0.00274132)
(-0.00485508 -0.00982237 -0.00433907)
(-0.00429349 -0.00931681 -0.00581631)
(-0.00610968 -0.0193873 -0.00832052)
(-0.00349106 -0.0185409 -0.0111547)
(-0.00263296 -0.0165451 -0.0131452)
(-0.00316998 -0.0134666 -0.014526)
(-0.00452693 -0.00957488 -0.0154604)
(-0.00621056 -0.00534331 -0.0160244)
(-0.00789851 -0.00119843 -0.0162721)
(-0.00943079 0.00263464 -0.0162336)
(-0.0107637 0.00610735 -0.0158983)
(-0.0119254 0.00924165 -0.0152153)
(-0.0129789 0.0120311 -0.0141124)
(-0.0139836 0.0143906 -0.0125311)
(-0.014945 0.0161679 -0.01047)
(-0.0157393 0.0172307 -0.0080138)
(-0.0160274 0.01764 -0.00529405)
(-0.0152877 0.0178184 -0.00234671)
(-0.0131553 0.0183386 0.000982209)
(-0.00984479 0.0191658 0.00471561)
(-0.00610968 0.0193873 0.00832052)
(-0.00349106 0.0185409 0.0111547)
(-0.00263296 0.0165451 0.0131452)
(-0.00316998 0.0134666 0.014526)
(-0.00452693 0.00957488 0.0154604)
(-0.00621056 0.00534331 0.0160244)
(-0.00789851 0.00119843 0.0162721)
(-0.00943079 -0.00263464 0.0162336)
(-0.0107637 -0.00610735 0.0158983)
(-0.0119254 -0.00924165 0.0152153)
(-0.0129789 -0.0120311 0.0141124)
(-0.0139836 -0.0143906 0.0125311)
(-0.014945 -0.0161679 0.01047)
(-0.0157393 -0.0172307 0.0080138)
(-0.0160274 -0.01764 0.00529405)
(-0.0152877 -0.0178184 0.00234671)
(-0.0131553 -0.0183386 -0.000982209)
(-0.00984479 -0.0191658 -0.00471561)
(-0.0059849 -0.0167885 -0.00919824)
(-0.00448278 -0.0159433 -0.0119265)
(-0.00391778 -0.014043 -0.0141209)
(-0.00425634 -0.0110843 -0.0156525)
(-0.00526503 -0.0073463 -0.016511)
(-0.00663244 -0.00328474 -0.0167939)
(-0.0080809 0.0007029 -0.0166243)
(-0.00943572 0.00438779 -0.0160789)
(-0.0106261 0.00768123 -0.0151821)
(-0.0116448 0.0105582 -0.0139321)
(-0.0125014 0.012996 -0.0123245)
(-0.0131838 0.0149458 -0.0103653)
(-0.0136245 0.016332 -0.00807783)
(-0.0136816 0.0170861 -0.0055083)
(-0.0131608 0.0172331 -0.00272967)
(-0.0119227 0.0170184 0.000168129)
(-0.0100449 0.0168551 0.00313515)
(-0.00792288 0.0168985 0.00618464)
(-0.0059849 0.0167885 0.00919824)
(-0.00448278 0.0159433 0.0119265)
(-0.00391778 0.014043 0.0141209)
(-0.00425634 0.0110843 0.0156525)
(-0.00526503 0.0073463 0.016511)
(-0.00663244 0.00328474 0.0167939)
(-0.0080809 -0.0007029 0.0166243)
(-0.00943572 -0.00438779 0.0160789)
(-0.0106261 -0.00768123 0.0151821)
(-0.0116448 -0.0105582 0.0139321)
(-0.0125014 -0.012996 0.0123245)
(-0.0131838 -0.0149458 0.0103653)
(-0.0136245 -0.016332 0.00807783)
(-0.0136816 -0.0170861 0.0055083)
(-0.0131608 -0.0172331 0.00272967)
(-0.0119227 -0.0170184 -0.000168129)
(-0.0100449 -0.0168551 -0.00313515)
(-0.00792288 -0.0168985 -0.00618464)
(-0.00557185 -0.0142544 -0.0101291)
(-0.00505479 -0.013316 -0.0127942)
(-0.00482367 -0.0114884 -0.0150856)
(-0.00502309 -0.00867506 -0.016663)
(-0.00572014 -0.00509681 -0.0174136)
(-0.0067993 -0.00117143 -0.0174324)
(-0.00804132 0.00271303 -0.0168733)
(-0.0092606 0.00630315 -0.0158381)
(-0.0103588 0.00945442 -0.0143783)
(-0.0112899 0.012083 -0.0125466)
(-0.0120054 0.0141483 -0.0104198)
(-0.0124175 0.0156452 -0.00808037)
(-0.0123865 0.0165823 -0.00558529)
(-0.0117612 0.0169513 -0.00295513)
(-0.0105062 0.0167423 -0.000220433)
(-0.00886728 0.0160702 0.00250145)
(-0.00733061 0.0152778 0.00506111)
(-0.00628356 0.0147022 0.00752033)
(-0.00557185 0.0142544 0.0101291)
(-0.00505479 0.013316 0.0127942)
(-0.00482367 0.0114884 0.0150856)
(-0.00502309 0.00867506 0.016663)
(-0.00572014 0.00509681 0.0174136)
(-0.0067993 0.00117143 0.0174324)
(-0.00804132 -0.00271303 0.0168733)
(-0.0092606 -0.00630315 0.0158381)
(-0.0103588 -0.00945442 0.0143783)
(-0.0112899 -0.012083 0.0125466)
(-0.0120054 -0.0141483 0.0104198)
(-0.0124175 -0.0156452 0.00808037)
(-0.0123865 -0.0165823 0.00558529)
(-0.0117612 -0.0169513 0.00295513)
(-0.0105062 -0.0167423 0.000220433)
(-0.00886728 -0.0160702 -0.00250145)
(-0.00733061 -0.0152778 -0.00506111)
(-0.00628356 -0.0147022 -0.00752033)
(-0.00795989 -0.0224834 -0.01014)
(-0.00505672 -0.0219073 -0.0138897)
(-0.0046406 -0.0199073 -0.0168034)
(-0.00601893 -0.0164222 -0.0190232)
(-0.00822366 -0.011857 -0.0206079)
(-0.0105011 -0.00680875 -0.0215996)
(-0.0125083 -0.00176839 -0.0220411)
(-0.0141965 0.00298351 -0.0219562)
(-0.0156191 0.00734121 -0.0213539)
(-0.0168448 0.0112772 -0.0202287)
(-0.0179509 0.0147491 -0.0185648)
(-0.0190297 0.0176504 -0.0163619)
(-0.0201605 0.0198209 -0.0136724)
(-0.0212881 0.0211243 -0.0106107)
(-0.0219575 0.021604 -0.00725929)
(-0.0211554 0.0216268 -0.00351623)
(-0.0180002 0.0217378 0.00080374)
(-0.0129559 0.0221577 0.00558678)
(-0.00795989 0.0224834 0.01014)
(-0.00505672 0.0219073 0.0138897)
(-0.0046406 0.0199073 0.0168034)
(-0.00601893 0.0164222 0.0190232)
(-0.00822366 0.011857 0.0206079)
(-0.0105011 0.00680875 0.0215996)
(-0.0125083 0.00176839 0.0220411)
(-0.0141965 -0.00298351 0.0219562)
(-0.0156191 -0.00734121 0.0213539)
(-0.0168448 -0.0112772 0.0202287)
(-0.0179509 -0.0147491 0.0185648)
(-0.0190297 -0.0176504 0.0163619)
(-0.0201605 -0.0198209 0.0136724)
(-0.0212881 -0.0211243 0.0106107)
(-0.0219575 -0.021604 0.00725929)
(-0.0211554 -0.0216268 0.00351623)
(-0.0180002 -0.0217378 -0.00080374)
(-0.0129559 -0.0221577 -0.00558678)
(-0.00768766 -0.0206979 -0.0109146)
(-0.00613308 -0.0196865 -0.0145195)
(-0.00586519 -0.017395 -0.017492)
(-0.00668323 -0.0138066 -0.0196413)
(-0.00819797 -0.00931664 -0.0209531)
(-0.00997685 -0.00445348 -0.0215506)
(-0.0117068 0.000359353 -0.0215538)
(-0.0132473 0.00487223 -0.0210162)
(-0.0145761 0.00896565 -0.0199567)
(-0.0157163 0.0125796 -0.0183971)
(-0.0166914 0.0156633 -0.016374)
(-0.0174995 0.0181533 -0.0139385)
(-0.0180833 0.0199729 -0.0111513)
(-0.0182826 0.021055 -0.00806643)
(-0.0177925 0.021411 -0.00470076)
(-0.0162516 0.0212531 -0.00103739)
(-0.0135935 0.0209848 0.00289528)
(-0.0104054 0.0208812 0.00695593)
(-0.00768766 0.0206979 0.0109146)
(-0.00613308 0.0196865 0.0145195)
(-0.00586519 0.017395 0.017492)
(-0.00668323 0.0138066 0.0196413)
(-0.00819797 0.00931664 0.0209531)
(-0.00997685 0.00445348 0.0215506)
(-0.0117068 -0.000359353 0.0215538)
(-0.0132473 -0.00487223 0.0210162)
(-0.0145761 -0.00896565 0.0199567)
(-0.0157163 -0.0125796 0.0183971)
(-0.0166914 -0.0156633 0.016374)
(-0.0174995 -0.0181533 0.0139385)
(-0.0180833 -0.0199729 0.0111513)
(-0.0182826 -0.021055 0.00806643)
(-0.0177925 -0.021411 0.00470076)
(-0.0162516 -0.0212531 0.00103739)
(-0.0135935 -0.0209848 -0.00289528)
(-0.0104054 -0.0208812 -0.00695593)
(-0.00727268 -0.0185446 -0.0119657)
(-0.00684731 -0.017069 -0.0154763)
(-0.00672166 -0.014543 -0.0183225)
(-0.00703857 -0.0109663 -0.0202202)
(-0.00790749 -0.0066342 -0.0211798)
(-0.00921561 -0.00198252 -0.0213762)
(-0.0106948 0.00261018 -0.0209645)
(-0.0121214 0.00690273 -0.0200014)
(-0.0133993 0.0107451 -0.0185009)
(-0.0145018 0.0140327 -0.0165116)
(-0.0153913 0.016705 -0.0141304)
(-0.0159655 0.0187482 -0.0114658)
(-0.0160295 0.0201719 -0.00859102)
(-0.0153326 0.0209636 -0.00551683)
(-0.013757 0.021089 -0.00223204)
(-0.0116047 0.020643 0.00120802)
(-0.00953048 0.0199539 0.00470939)
(-0.00807006 0.0193132 0.00827687)
(-0.00727268 0.0185446 0.0119657)
(-0.00684731 0.017069 0.0154763)
(-0.00672166 0.014543 0.0183225)
(-0.00703857 0.0109663 0.0202202)
(-0.00790749 0.0066342 0.0211798)
(-0.00921561 0.00198252 0.0213762)
(-0.0106948 -0.00261018 0.0209645)
(-0.0121214 -0.00690273 0.0200014)
(-0.0133993 -0.0107451 0.0185009)
(-0.0145018 -0.0140327 0.0165116)
(-0.0153913 -0.016705 0.0141304)
(-0.0159655 -0.0187482 0.0114658)
(-0.0160295 -0.0201719 0.00859102)
(-0.0153326 -0.0209636 0.00551683)
(-0.013757 -0.021089 0.00223204)
(-0.0116047 -0.020643 -0.00120802)
(-0.00953048 -0.0199539 -0.00470939)
(-0.00807006 -0.0193132 -0.00827687)
(-0.011321 -0.0237214 -0.0103925)
(-0.00799897 -0.0231339 -0.0149351)
(-0.00737981 -0.021219 -0.0187491)
(-0.00890663 -0.0177991 -0.0217776)
(-0.0113718 -0.0132252 -0.0240059)
(-0.0137924 -0.00803479 -0.0254705)
(-0.0158112 -0.00268016 -0.0262005)
(-0.017482 0.00253037 -0.0261981)
(-0.0189275 0.00741483 -0.0254765)
(-0.0202192 0.0118645 -0.0240699)
(-0.02141 0.015778 -0.0220269)
(-0.0225855 0.0190198 -0.0194202)
(-0.0238617 0.0214242 -0.0163636)
(-0.025236 0.0228645 -0.0129794)
(-0.0261886 0.0234051 -0.00925069)
(-0.0254315 0.0234239 -0.0049524)
(-0.0219773 0.0234239 2.15992e-06)
(-0.0165975 0.0236121 0.00528696)
(-0.011321 0.0237214 0.0103925)
(-0.00799897 0.0231339 0.0149351)
(-0.00737981 0.021219 0.0187491)
(-0.00890663 0.0177991 0.0217776)
(-0.0113718 0.0132252 0.0240059)
(-0.0137924 0.00803479 0.0254705)
(-0.0158112 0.00268016 0.0262005)
(-0.017482 -0.00253037 0.0261981)
(-0.0189275 -0.00741483 0.0254765)
(-0.0202192 -0.0118645 0.0240699)
(-0.02141 -0.015778 0.0220269)
(-0.0225855 -0.0190198 0.0194202)
(-0.0238617 -0.0214242 0.0163636)
(-0.025236 -0.0228645 0.0129794)
(-0.0261886 -0.0234051 0.00925069)
(-0.0254315 -0.0234239 0.0049524)
(-0.0219773 -0.0234239 -2.15986e-06)
(-0.0165975 -0.0236121 -0.00528696)
(-0.0106714 -0.0227108 -0.0113984)
(-0.00880338 -0.0213966 -0.0156442)
(-0.00841258 -0.0188993 -0.0191886)
(-0.00929726 -0.0151641 -0.0218474)
(-0.0109432 -0.0105345 -0.023618)
(-0.0128225 -0.00547352 -0.0246165)
(-0.0146088 -0.000355305 -0.0249233)
(-0.0161964 0.004569 -0.0245481)
(-0.0175917 0.00913503 -0.0234966)
(-0.018822 0.0132271 -0.0218139)
(-0.0199026 0.0167527 -0.0195805)
(-0.0208276 0.0196297 -0.0168953)
(-0.0215445 0.0217835 -0.0138553)
(-0.0218885 0.0231589 -0.010515)
(-0.0214962 0.0237732 -0.00682564)
(-0.0199144 0.0238128 -0.00267329)
(-0.0170946 0.0235924 0.00192142)
(-0.0136917 0.0232863 0.0067202)
(-0.0106714 0.0227108 0.0113984)
(-0.00880338 0.0213966 0.0156442)
(-0.00841258 0.0188993 0.0191886)
(-0.00929726 0.0151641 0.0218474)
(-0.0109432 0.0105345 0.023618)
(-0.0128225 0.00547352 0.0246165)
(-0.0146088 0.000355305 0.0249233)
(-0.0161964 -0.004569 0.0245481)
(-0.0175917 -0.00913503 0.0234966)
(-0.018822 -0.0132271 0.0218139)
(-0.0199026 -0.0167527 0.0195805)
(-0.0208276 -0.0196297 0.0168953)
(-0.0215445 -0.0217835 0.0138553)
(-0.0218885 -0.0231589 0.010515)
(-0.0214962 -0.0237732 0.00682564)
(-0.0199144 -0.0238128 0.00267329)
(-0.0170946 -0.0235924 -0.00192142)
(-0.0136917 -0.0232863 -0.0067202)
(-0.00991388 -0.0213261 -0.0129296)
(-0.00935121 -0.0191474 -0.0169603)
(-0.00915445 -0.0160386 -0.0200608)
(-0.00943028 -0.0120714 -0.022126)
(-0.010291 -0.00749792 -0.0232933)
(-0.0116489 -0.00265394 -0.0237593)
(-0.0132236 0.00217113 -0.0236291)
(-0.0147584 0.00677486 -0.022896)
(-0.016143 0.0109986 -0.0215367)
(-0.0173548 0.0147087 -0.0195958)
(-0.0183632 0.0178173 -0.0171844)
(-0.0190633 0.0202946 -0.0144302)
(-0.0192326 0.0221531 -0.0114201)
(-0.0185627 0.0233989 -0.00815513)
(-0.0169012 0.0240042 -0.00456485)
(-0.0146255 0.0240029 -0.000597421)
(-0.0124689 0.0235467 0.0037452)
(-0.0108959 0.0227091 0.00836115)
(-0.00991388 0.0213261 0.0129296)
(-0.00935121 0.0191474 0.0169603)
(-0.00915445 0.0160386 0.0200608)
(-0.00943028 0.0120714 0.022126)
(-0.010291 0.00749792 0.0232933)
(-0.0116489 0.00265394 0.0237593)
(-0.0132236 -0.00217113 0.0236291)
(-0.0147584 -0.00677486 0.022896)
(-0.016143 -0.0109986 0.0215367)
(-0.0173548 -0.0147087 0.0195958)
(-0.0183632 -0.0178173 0.0171844)
(-0.0190633 -0.0202946 0.0144302)
(-0.0192326 -0.0221531 0.0114201)
(-0.0185627 -0.0233989 0.00815513)
(-0.0169012 -0.0240042 0.00456485)
(-0.0146255 -0.0240029 0.000597421)
(-0.0124689 -0.0235467 -0.0037452)
(-0.0108959 -0.0227091 -0.00836115)
(-0.0154696 -0.0236669 -0.00959895)
(-0.0119528 -0.0228734 -0.0146794)
(-0.0108299 -0.0209913 -0.0191525)
(-0.011822 -0.0178386 -0.0228196)
(-0.0138947 -0.0136309 -0.0255878)
(-0.0160643 -0.00874778 -0.0274865)
(-0.0179321 -0.00352993 -0.0285506)
(-0.0195539 0.00173745 -0.028765)
(-0.0210553 0.00681485 -0.0281211)
(-0.0224811 0.0115064 -0.0266617)
(-0.0238423 0.015639 -0.0244804)
(-0.025192 0.0190408 -0.0217165)
(-0.0266342 0.0215456 -0.0185366)
(-0.0281561 0.0230554 -0.0150461)
(-0.0292078 0.0236734 -0.0111401)
(-0.0285701 0.0237797 -0.00658185)
(-0.0254509 0.023793 -0.00137911)
(-0.0205247 0.02383 0.00414398)
(-0.0154696 0.0236669 0.00959895)
(-0.0119528 0.0228734 0.0146794)
(-0.0108299 0.0209913 0.0191525)
(-0.011822 0.0178386 0.0228196)
(-0.0138947 0.0136309 0.0255878)
(-0.0160643 0.00874778 0.0274865)
(-0.0179321 0.00352993 0.0285506)
(-0.0195539 -0.00173745 0.028765)
(-0.0210553 -0.00681485 0.0281211)
(-0.0224811 -0.0115064 0.0266617)
(-0.0238423 -0.015639 0.0244804)
(-0.025192 -0.0190408 0.0217165)
(-0.0266342 -0.0215456 0.0185366)
(-0.0281561 -0.0230554 0.0150461)
(-0.0292078 -0.0236734 0.0111401)
(-0.0285701 -0.0237797 0.00658185)
(-0.0254509 -0.023793 0.00137911)
(-0.0205247 -0.02383 -0.00414398)
(-0.014385 -0.0231986 -0.010871)
(-0.0123406 -0.0215587 -0.0155579)
(-0.0116079 -0.0189432 -0.0195236)
(-0.0121102 -0.0153291 -0.0225891)
(-0.0134386 -0.010949 -0.0247538)
(-0.0151061 -0.00611827 -0.0261181)
(-0.0167851 -0.00110829 -0.0267406)
(-0.0183597 0.0038564 -0.0266049)
(-0.0198185 0.00857726 -0.0256979)
(-0.0211625 0.0128823 -0.0240682)
(-0.0223814 0.0166317 -0.0218211)
(-0.0234522 0.0197184 -0.0190897)
(-0.024315 0.0220675 -0.0159953)
(-0.0247977 0.0236421 -0.0125816)
(-0.0245335 0.0244789 -0.00875338)
(-0.0231193 0.0247303 -0.00436451)
(-0.0205498 0.0245868 0.000558203)
(-0.0173659 0.0241178 0.00575668)
(-0.014385 0.0231986 0.010871)
(-0.0123406 0.0215587 0.0155579)
(-0.0116079 0.0189432 0.0195236)
(-0.0121102 0.0153291 0.0225891)
(-0.0134386 0.010949 0.0247538)
(-0.0151061 0.00611827 0.0261181)
(-0.0167851 0.00110829 0.0267406)
(-0.0183597 -0.0038564 0.0266049)
(-0.0198185 -0.00857726 0.0256979)
(-0.0211625 -0.0128823 0.0240682)
(-0.0223814 -0.0166317 0.0218211)
(-0.0234522 -0.0197184 0.0190897)
(-0.024315 -0.0220675 0.0159953)
(-0.0247977 -0.0236421 0.0125816)
(-0.0245335 -0.0244789 0.00875338)
(-0.0231193 -0.0247303 0.00436451)
(-0.0205498 -0.0245868 -0.000558203)
(-0.0173659 -0.0241178 -0.00575668)
(-0.0133019 -0.0223999 -0.012849)
(-0.012599 -0.0196999 -0.0172649)
(-0.0121944 -0.0162469 -0.0205815)
(-0.0122138 -0.0122124 -0.0228072)
(-0.0128183 -0.0077768 -0.0241749)
(-0.0139923 -0.00312659 -0.0248908)
(-0.0154944 0.00156774 -0.025026)
(-0.0170452 0.00615274 -0.0245425)
(-0.0184941 0.0104654 -0.023396)
(-0.0197933 0.0143462 -0.0216209)
(-0.0209024 0.0176781 -0.0193264)
(-0.0217136 0.0204097 -0.0166428)
(-0.0220017 0.0225483 -0.0136589)
(-0.0214585 0.0241212 -0.0103637)
(-0.0199557 0.0251222 -0.006641)
(-0.0178773 0.0255117 -0.00236581)
(-0.015879 0.025244 0.00248757)
(-0.0143494 0.0242406 0.00772171)
(-0.0133019 0.0223999 0.012849)
(-0.012599 0.0196999 0.0172649)
(-0.0121944 0.0162469 0.0205815)
(-0.0122138 0.0122124 0.0228072)
(-0.0128183 0.0077768 0.0241749)
(-0.0139923 0.00312659 0.0248908)
(-0.0154944 -0.00156774 0.025026)
(-0.0170452 -0.00615274 0.0245425)
(-0.0184941 -0.0104654 0.023396)
(-0.0197933 -0.0143462 0.0216209)
(-0.0209024 -0.0176781 0.0193264)
(-0.0217136 -0.0204097 0.0166428)
(-0.0220017 -0.0225483 0.0136589)
(-0.0214585 -0.0241212 0.0103637)
(-0.0199557 -0.0251222 0.006641)
(-0.0178773 -0.0255117 0.00236581)
(-0.015879 -0.025244 -0.00248757)
(-0.0143494 -0.0242406 -0.00772171)
(-0.0197594 -0.022383 -0.00821709)
(-0.0162611 -0.0214494 -0.0135913)
(-0.0146154 -0.0196841 -0.0184681)
(-0.0148159 -0.0169326 -0.0225782)
(-0.0161815 -0.0132766 -0.0257515)
(-0.0179046 -0.00893431 -0.0279866)
(-0.019558 -0.00413695 -0.0293412)
(-0.0211239 0.000877228 -0.0298135)
(-0.0226866 0.00584865 -0.0293735)
(-0.0242593 0.0105181 -0.0280453)
(-0.0258151 0.0146487 -0.0259373)
(-0.0273649 0.0180339 -0.0232289)
(-0.0289621 0.0205149 -0.0201124)
(-0.030533 0.0220316 -0.0166641)
(-0.0315422 0.0227134 -0.0127444)
(-0.0310299 0.0228954 -0.00816247)
(-0.0284475 0.0228939 -0.00295628)
(-0.0242743 0.0227752 0.00260915)
(-0.0197594 0.022383 0.00821709)
(-0.0162611 0.0214494 0.0135913)
(-0.0146154 0.0196841 0.0184681)
(-0.0148159 0.0169326 0.0225782)
(-0.0161815 0.0132766 0.0257515)
(-0.0179046 0.00893431 0.0279866)
(-0.019558 0.00413695 0.0293412)
(-0.0211239 -0.000877228 0.0298135)
(-0.0226866 -0.00584865 0.0293735)
(-0.0242593 -0.0105181 0.0280453)
(-0.0258151 -0.0146487 0.0259373)
(-0.0273649 -0.0180339 0.0232289)
(-0.0289621 -0.0205149 0.0201124)
(-0.030533 -0.0220316 0.0166641)
(-0.0315422 -0.0227134 0.0127444)
(-0.0310299 -0.0228954 0.00816247)
(-0.0284475 -0.0228939 0.00295628)
(-0.0242743 -0.0227752 -0.00260915)
(-0.0183521 -0.022248 -0.00967522)
(-0.0162518 -0.0204793 -0.0145851)
(-0.015151 -0.0179471 -0.0188302)
(-0.0151031 -0.0146549 -0.0222156)
(-0.0158851 -0.0107347 -0.0247003)
(-0.0171487 -0.00636928 -0.026353)
(-0.0186052 -0.00173471 -0.0272353)
(-0.0201106 0.00298575 -0.0273419)
(-0.0216087 0.00758528 -0.0266518)
(-0.0230595 0.0118542 -0.0252002)
(-0.0244187 0.0156116 -0.023093)
(-0.025637 0.0187245 -0.0204755)
(-0.0266343 0.0211132 -0.0174741)
(-0.0272304 0.0227561 -0.0141172)
(-0.0271034 0.0237036 -0.0102962)
(-0.025959 0.024068 -0.00588053)
(-0.0238169 0.023948 -0.000903077)
(-0.0210751 0.023363 0.00439758)
(-0.0183521 0.022248 0.00967522)
(-0.0162518 0.0204793 0.0145851)
(-0.015151 0.0179471 0.0188302)
(-0.0151031 0.0146549 0.0222156)
(-0.0158851 0.0107347 0.0247003)
(-0.0171487 0.00636928 0.026353)
(-0.0186052 0.00173471 0.0272353)
(-0.0201106 -0.00298575 0.0273419)
(-0.0216087 -0.00758528 0.0266518)
(-0.0230595 -0.0118542 0.0252002)
(-0.0244187 -0.0156116 0.023093)
(-0.025637 -0.0187245 0.0204755)
(-0.0266343 -0.0211132 0.0174741)
(-0.0272304 -0.0227561 0.0141172)
(-0.0271034 -0.0237036 0.0102962)
(-0.025959 -0.024068 0.00588053)
(-0.0238169 -0.023948 0.000903077)
(-0.0210751 -0.023363 -0.00439758)
(-0.0170665 -0.0218582 -0.0119523)
(-0.0162544 -0.0189905 -0.0165737)
(-0.015612 -0.0155298 -0.0200801)
(-0.0152868 -0.0116991 -0.0224987)
(-0.0154874 -0.00762307 -0.0240699)
(-0.0162908 -0.00337777 -0.0249931)
(-0.0175497 0.000961097 -0.0253358)
(-0.0190041 0.00528779 -0.0250674)
(-0.0204591 0.00944793 -0.0241464)
(-0.0218165 0.0132696 -0.0225955)
(-0.0230056 0.0166145 -0.0205075)
(-0.0239069 0.019409 -0.0179972)
(-0.0243068 0.0216455 -0.0151405)
(-0.0239463 0.0233535 -0.0119161)
(-0.0227585 0.0245378 -0.00819994)
(-0.021079 0.0251203 -0.0038517)
(-0.0194182 0.0249529 0.00115715)
(-0.0180793 0.0238847 0.00660126)
(-0.0170665 0.0218582 0.0119523)
(-0.0162544 0.0189905 0.0165737)
(-0.015612 0.0155298 0.0200801)
(-0.0152868 0.0116991 0.0224987)
(-0.0154874 0.00762307 0.0240699)
(-0.0162908 0.00337777 0.0249931)
(-0.0175497 -0.000961097 0.0253358)
(-0.0190041 -0.00528779 0.0250674)
(-0.0204591 -0.00944793 0.0241464)
(-0.0218165 -0.0132696 0.0225955)
(-0.0230056 -0.0166145 0.0205075)
(-0.0239069 -0.019409 0.0179972)
(-0.0243068 -0.0216455 0.0151405)
(-0.0239463 -0.0233535 0.0119161)
(-0.0227585 -0.0245378 0.00819994)
(-0.021079 -0.0251203 0.0038517)
(-0.0194182 -0.0249529 -0.00115715)
(-0.0180793 -0.0238847 -0.00660126)
(-0.0237712 -0.0200679 -0.00655357)
(-0.0204967 -0.0191388 -0.0119948)
(-0.0184948 -0.0176186 -0.0170474)
(-0.0179569 -0.0153596 -0.0214224)
(-0.0185619 -0.0123394 -0.0248919)
(-0.0197658 -0.00864911 -0.0273908)
(-0.0211682 -0.00443753 -0.028971)
(-0.0226528 9.93042e-05 -0.0296648)
(-0.024235 0.0047091 -0.0294552)
(-0.0259012 0.00910724 -0.0283538)
(-0.0276001 0.0130206 -0.0264621)
(-0.0292997 0.0162235 -0.0239621)
(-0.0309829 0.0185683 -0.0210348)
(-0.0325054 0.0200233 -0.0177304)
(-0.0333986 0.0207172 -0.0139266)
(-0.032996 0.0209149 -0.00948852)
(-0.0309536 0.0208502 -0.00444906)
(-0.0275917 0.020591 0.000987178)
(-0.0237712 0.0200679 0.00655357)
(-0.0204967 0.0191388 0.0119948)
(-0.0184948 0.0176186 0.0170474)
(-0.0179569 0.0153596 0.0214224)
(-0.0185619 0.0123394 0.0248919)
(-0.0197658 0.00864911 0.0273908)
(-0.0211682 0.00443753 0.028971)
(-0.0226528 -9.93042e-05 0.0296648)
(-0.024235 -0.0047091 0.0294552)
(-0.0259012 -0.00910724 0.0283538)
(-0.0276001 -0.0130206 0.0264621)
(-0.0292997 -0.0162235 0.0239621)
(-0.0309829 -0.0185683 0.0210348)
(-0.0325054 -0.0200233 0.0177304)
(-0.0333986 -0.0207172 0.0139266)
(-0.032996 -0.0209149 0.00948852)
(-0.0309536 -0.0208502 0.00444906)
(-0.0275917 -0.020591 -0.000987178)
(-0.0221616 -0.0201179 -0.0080839)
(-0.0201351 -0.0184531 -0.0130028)
(-0.0187779 -0.0162224 -0.0173686)
(-0.0182343 -0.013412 -0.0209698)
(-0.0184524 -0.0100705 -0.0237091)
(-0.019246 -0.00628907 -0.0256006)
(-0.0204027 -0.00218268 -0.0266975)
(-0.0217663 0.00209887 -0.0270209)
(-0.0232378 0.00635887 -0.0265655)
(-0.0247371 0.0103762 -0.0253582)
(-0.0261864 0.013948 -0.0234911)
(-0.0275057 0.0169229 -0.0210987)
(-0.0285903 0.019215 -0.0182933)
(-0.0292616 0.0208058 -0.0150902)
(-0.0292693 0.0217397 -0.0113957)
(-0.0284232 0.0220928 -0.00711339)
(-0.0267495 0.0219248 -0.00228204)
(-0.0245182 0.0212653 0.00288635)
(-0.0221616 0.0201179 0.0080839)
(-0.0201351 0.0184531 0.0130028)
(-0.0187779 0.0162224 0.0173686)
(-0.0182343 0.013412 0.0209698)
(-0.0184524 0.0100705 0.0237091)
(-0.019246 0.00628907 0.0256006)
(-0.0204027 0.00218268 0.0266975)
(-0.0217663 -0.00209887 0.0270209)
(-0.0232378 -0.00635887 0.0265655)
(-0.0247371 -0.0103762 0.0253582)
(-0.0261864 -0.013948 0.0234911)
(-0.0275057 -0.0169229 0.0210987)
(-0.0285903 -0.019215 0.0182933)
(-0.0292616 -0.0208058 0.0150902)
(-0.0292693 -0.0217397 0.0113957)
(-0.0284232 -0.0220928 0.00711339)
(-0.0267495 -0.0219248 0.00228204)
(-0.0245182 -0.0212653 -0.00288635)
(-0.0207816 -0.0200151 -0.0104986)
(-0.0199205 -0.017317 -0.0151229)
(-0.0191082 -0.0141614 -0.018738)