/*--------------------------------*- C++ -*----------------------------------*\
| =========                 |                                                 |
| \\      /  F ield         | OpenFOAM: The Open Source CFD Toolbox           |
|  \\    /   O peration     | Version:  2312                                  |
|   \\  /    A nd           | Website:  www.openfoam.com                      |
|    \\/     M anipulation  |                                                 |
\*---------------------------------------------------------------------------*/
FoamFile
{
    version     2.0;
    format      ascii;
    arch        "LSB;label=32;scalar=64";
    class       volVectorField;
    location    "0.4";
    object      D;
}
// * * * * * * * * * * * * * * * * * * * * * * * * * * * * * * * * * * * * * //

dimensions      [0 1 0 0 0 0 0];

internalField   nonuniform List<vector> 
1620
(
(9.52494e-05 0.000244575 1.11095e-05)
(5.13323e-05 0.000257399 1.11094e-05)
(5.85583e-06 0.000262402 1.11095e-05)
(-3.97987e-05 0.000259433 1.11097e-05)
(-8.42442e-05 0.000248581 1.11097e-05)
(-0.00012613 0.000230175 1.11096e-05)
(-0.000164183 0.000204776 1.11098e-05)
(-0.000197248 0.000173155 1.11097e-05)
(-0.000224319 0.000136272 1.11095e-05)
(-0.000244575 9.52493e-05 1.11094e-05)
(-0.000257399 5.13323e-05 1.11094e-05)
(-0.000262402 5.85581e-06 1.11095e-05)
(-0.000259433 -3.97987e-05 1.11096e-05)
(-0.000248581 -8.42442e-05 1.11096e-05)
(-0.000230175 -0.00012613 1.11096e-05)
(-0.000204776 -0.000164183 1.11098e-05)
(-0.000173155 -0.000197248 1.11097e-05)
(-0.000136272 -0.000224319 1.11095e-05)
(-9.52493e-05 -0.000244575 1.11094e-05)
(-5.13322e-05 -0.000257399 1.11094e-05)
(-5.85579e-06 -0.000262402 1.11095e-05)
(3.97987e-05 -0.000259433 1.11096e-05)
(8.42442e-05 -0.000248581 1.11096e-05)
(0.00012613 -0.000230175 1.11096e-05)
(0.000164183 -0.000204776 1.11098e-05)
(0.000197248 -0.000173155 1.11097e-05)
(0.000224319 -0.000136272 1.11095e-05)
(0.000244575 -9.52493e-05 1.11095e-05)
(0.000257399 -5.13323e-05 1.11094e-05)
(0.000262402 -5.85582e-06 1.11095e-05)
(0.000259433 3.97987e-05 1.11097e-05)
(0.000248581 8.42442e-05 1.11097e-05)
(0.000230176 0.00012613 1.11096e-05)
(0.000204776 0.000164183 1.11098e-05)
(0.000173155 0.000197248 1.11097e-05)
(0.000136272 0.000224319 1.11095e-05)
(4.68012e-05 0.000269479 3.49512e-05)
(-7.04388e-07 0.000273512 3.49512e-05)
(-4.81883e-05 0.000269234 3.49513e-05)
(-9.42081e-05 0.000256776 3.49514e-05)
(-0.000137366 0.000236517 3.49514e-05)
(-0.00017635 0.00020907 3.49513e-05)
(-0.000209975 0.00017527 3.49514e-05)
(-0.00023722 0.000136146 3.49513e-05)
(-0.000257258 9.28847e-05 3.49512e-05)
(-0.000269479 4.68012e-05 3.49512e-05)
(-0.000273512 -7.04409e-07 3.49512e-05)
(-0.000269234 -4.81883e-05 3.49513e-05)
(-0.000256776 -9.42081e-05 3.49513e-05)
(-0.000236516 -0.000137366 3.49514e-05)
(-0.00020907 -0.00017635 3.49513e-05)
(-0.00017527 -0.000209975 3.49514e-05)
(-0.000136146 -0.00023722 3.49513e-05)
(-9.28846e-05 -0.000257258 3.49512e-05)
(-4.68012e-05 -0.000269479 3.49512e-05)
(7.04422e-07 -0.000273512 3.49512e-05)
(4.81883e-05 -0.000269234 3.49513e-05)
(9.42081e-05 -0.000256776 3.49513e-05)
(0.000137366 -0.000236517 3.49514e-05)
(0.00017635 -0.00020907 3.49513e-05)
(0.000209975 -0.00017527 3.49514e-05)
(0.00023722 -0.000136146 3.49513e-05)
(0.000257258 -9.28847e-05 3.49512e-05)
(0.000269479 -4.68012e-05 3.49512e-05)
(0.000273512 7.04406e-07 3.49512e-05)
(0.000269234 4.81883e-05 3.49513e-05)
(0.000256776 9.42081e-05 3.49514e-05)
(0.000236517 0.000137366 3.49514e-05)
(0.00020907 0.00017635 3.49513e-05)
(0.00017527 0.000209975 3.49514e-05)
(0.000136146 0.00023722 3.49513e-05)
(9.28847e-05 0.000257258 3.49512e-05)
(-1.84628e-05 0.00029206 3.67274e-05)
(-6.8898e-05 0.000284417 3.67275e-05)
(-0.00011724 0.000268132 3.67274e-05)
(-0.000162019 0.0002437 3.67274e-05)
(-0.000201876 0.000211864 3.67276e-05)
(-0.000235599 0.000173589 3.67275e-05)
(-0.000262163 0.000130041 3.67275e-05)
(-0.000280761 8.2541e-05 3.67273e-05)
(-0.000290829 3.25333e-05 3.67273e-05)
(-0.00029206 -1.84628e-05 3.67274e-05)
(-0.000284417 -6.8898e-05 3.67275e-05)
(-0.000268132 -0.00011724 3.67274e-05)
(-0.0002437 -0.000162019 3.67274e-05)
(-0.000211864 -0.000201876 3.67276e-05)
(-0.000173589 -0.000235599 3.67275e-05)
(-0.000130041 -0.000262163 3.67275e-05)
(-8.25409e-05 -0.000280761 3.67273e-05)
(-3.25333e-05 -0.000290829 3.67273e-05)
(1.84628e-05 -0.00029206 3.67274e-05)
(6.8898e-05 -0.000284417 3.67275e-05)
(0.00011724 -0.000268132 3.67274e-05)
(0.000162019 -0.0002437 3.67274e-05)
(0.000201876 -0.000211864 3.67276e-05)
(0.000235599 -0.000173589 3.67275e-05)
(0.000262163 -0.000130041 3.67275e-05)
(0.000280761 -8.2541e-05 3.67273e-05)
(0.000290829 -3.25333e-05 3.67273e-05)
(0.00029206 1.84628e-05 3.67274e-05)
(0.000284417 6.8898e-05 3.67275e-05)
(0.000268132 0.00011724 3.67274e-05)
(0.0002437 0.000162019 3.67274e-05)
(0.000211864 0.000201876 3.67276e-05)
(0.000173589 0.000235599 3.67275e-05)
(0.000130041 0.000262163 3.67275e-05)
(8.2541e-05 0.000280761 3.67273e-05)
(3.25333e-05 0.000290829 3.67273e-05)
(0.000185215 0.000763961 0.000127426)
(4.97412e-05 0.000784517 0.000127426)
(-8.72442e-05 0.000781236 0.000127426)
(-0.000221579 0.000754217 0.000127427)
(-0.000349181 0.000704282 0.000127427)
(-0.000466173 0.000632948 0.000127427)
(-0.000569002 0.000542382 0.000127427)
(-0.000654541 0.000435336 0.000127427)
(-0.000720192 0.000315062 0.000127426)
(-0.00076396 0.000185215 0.000127426)
(-0.000784517 4.97411e-05 0.000127426)
(-0.000781236 -8.72443e-05 0.000127426)
(-0.000754217 -0.000221579 0.000127427)
(-0.000704282 -0.000349181 0.000127427)
(-0.000632948 -0.000466173 0.000127427)
(-0.000542382 -0.000569002 0.000127427)
(-0.000435336 -0.000654541 0.000127427)
(-0.000315062 -0.000720192 0.000127426)
(-0.000185215 -0.000763961 0.000127426)
(-4.9741e-05 -0.000784517 0.000127426)
(8.72443e-05 -0.000781236 0.000127426)
(0.000221579 -0.000754217 0.000127427)
(0.000349181 -0.000704282 0.000127427)
(0.000466173 -0.000632948 0.000127427)
(0.000569002 -0.000542382 0.000127427)
(0.000654541 -0.000435336 0.000127427)
(0.000720192 -0.000315062 0.000127426)
(0.000763961 -0.000185215 0.000127426)
(0.000784517 -4.97411e-05 0.000127426)
(0.000781236 8.72443e-05 0.000127426)
(0.000754217 0.000221579 0.000127427)
(0.000704282 0.000349181 0.000127427)
(0.000632948 0.000466173 0.000127427)
(0.000542382 0.000569002 0.000127427)
(0.000435336 0.000654541 0.000127427)
(0.000315062 0.000720192 0.000127426)
(0.000110172 0.000801093 0.000171244)
(-3.06101e-05 0.000808054 0.000171244)
(-0.000170462 0.000790463 0.000171245)
(-0.000305134 0.000748854 0.000171245)
(-0.000430536 0.000684491 0.000171245)
(-0.000542856 0.00059933 0.000171245)
(-0.000638681 0.000495959 0.000171245)
(-0.0007151 0.000377518 0.000171244)
(-0.000769792 0.000247606 0.000171244)
(-0.000801093 0.000110172 0.000171244)
(-0.000808054 -3.06102e-05 0.000171244)
(-0.000790463 -0.000170462 0.000171244)
(-0.000748854 -0.000305134 0.000171245)
(-0.000684491 -0.000430536 0.000171245)
(-0.00059933 -0.000542856 0.000171245)
(-0.000495959 -0.000638681 0.000171245)
(-0.000377517 -0.0007151 0.000171244)
(-0.000247606 -0.000769792 0.000171244)
(-0.000110172 -0.000801093 0.000171244)
(3.06102e-05 -0.000808054 0.000171244)
(0.000170462 -0.000790463 0.000171244)
(0.000305134 -0.000748854 0.000171245)
(0.000430536 -0.000684491 0.000171245)
(0.000542856 -0.00059933 0.000171245)
(0.000638681 -0.000495959 0.000171245)
(0.0007151 -0.000377518 0.000171244)
(0.000769792 -0.000247606 0.000171244)
(0.000801093 -0.000110172 0.000171244)
(0.000808054 3.06102e-05 0.000171244)
(0.000790463 0.000170462 0.000171245)
(0.000748854 0.000305134 0.000171245)
(0.000684491 0.000430536 0.000171245)
(0.00059933 0.000542856 0.000171245)
(0.000495959 0.000638681 0.000171245)
(0.000377518 0.0007151 0.000171244)
(0.000247606 0.000769792 0.000171244)
(1.53391e-05 0.000831471 0.000202738)
(-0.000129277 0.000821503 0.000202739)
(-0.000269965 0.000786574 0.000202739)
(-0.000402451 0.000727744 0.000202738)
(-0.000522708 0.000646803 0.000202738)
(-0.000627083 0.000546209 0.000202739)
(-0.000712405 0.000429019 0.000202738)
(-0.00077608 0.000298794 0.000202738)
(-0.000816175 0.00015949 0.000202738)
(-0.000831471 1.5339e-05 0.000202738)
(-0.000821503 -0.000129277 0.000202739)
(-0.000786573 -0.000269965 0.000202739)
(-0.000727744 -0.000402451 0.000202738)
(-0.000646803 -0.000522708 0.000202738)
(-0.000546209 -0.000627083 0.000202739)
(-0.000429019 -0.000712405 0.000202738)
(-0.000298794 -0.00077608 0.000202738)
(-0.00015949 -0.000816175 0.000202738)
(-1.5339e-05 -0.000831471 0.000202738)
(0.000129277 -0.000821503 0.000202739)
(0.000269965 -0.000786573 0.000202739)
(0.000402451 -0.000727744 0.000202738)
(0.000522708 -0.000646803 0.000202738)
(0.000627083 -0.000546209 0.000202739)
(0.000712405 -0.000429019 0.000202738)
(0.00077608 -0.000298794 0.000202738)
(0.000816175 -0.00015949 0.000202738)
(0.000831471 -1.5339e-05 0.000202738)
(0.000821503 0.000129277 0.000202739)
(0.000786574 0.000269965 0.000202739)
(0.000727744 0.000402451 0.000202738)
(0.000646803 0.000522708 0.000202739)
(0.000546209 0.000627083 0.000202739)
(0.000429019 0.000712405 0.000202738)
(0.000298794 0.00077608 0.000202738)
(0.00015949 0.000816175 0.000202738)
(0.000241803 0.00128008 0.000318893)
(1.58467e-05 0.00130262 0.000318893)
(-0.000210591 0.00128558 0.000318893)
(-0.00043063 0.00122948 0.000318894)
(-0.000637584 0.00113602 0.000318894)
(-0.000825166 0.00100805 0.000318894)
(-0.000987676 0.000849445 0.000318894)
(-0.00112018 0.000665032 0.000318894)
(-0.00121864 0.000460412 0.000318893)
(-0.00128008 0.000241803 0.000318893)
(-0.00130262 1.58466e-05 0.000318893)
(-0.00128558 -0.000210591 0.000318893)
(-0.00122948 -0.00043063 0.000318894)
(-0.00113602 -0.000637584 0.000318894)
(-0.00100805 -0.000825166 0.000318894)
(-0.000849445 -0.000987676 0.000318894)
(-0.000665032 -0.00112018 0.000318894)
(-0.000460412 -0.00121864 0.000318893)
(-0.000241803 -0.00128008 0.000318893)
(-1.58465e-05 -0.00130262 0.000318893)
(0.000210591 -0.00128558 0.000318893)
(0.00043063 -0.00122948 0.000318894)
(0.000637584 -0.00113602 0.000318894)
(0.000825166 -0.00100805 0.000318894)
(0.000987676 -0.000849445 0.000318894)
(0.00112018 -0.000665032 0.000318894)
(0.00121864 -0.000460412 0.000318893)
(0.00128008 -0.000241803 0.000318893)
(0.00130262 -1.58466e-05 0.000318893)
(0.00128558 0.000210591 0.000318893)
(0.00122948 0.00043063 0.000318894)
(0.00113602 0.000637584 0.000318894)
(0.00100805 0.000825166 0.000318894)
(0.000849445 0.000987676 0.000318894)
(0.000665032 0.00112018 0.000318894)
(0.000460412 0.00121864 0.000318893)
(0.000139247 0.00131348 0.000374805)
(-9.09518e-05 0.00131771 0.000374805)
(-0.000318388 0.0012819 0.000374805)
(-0.000536149 0.00120713 0.000374805)
(-0.000737621 0.00109569 0.000374805)
(-0.000916679 0.000950961 0.000374805)
(-0.00106789 0.000777334 0.000374805)
(-0.00118665 0.000580088 0.000374805)
(-0.00126935 0.000365216 0.000374805)
(-0.00131348 0.000139247 0.000374805)
(-0.00131771 -9.09519e-05 0.000374805)
(-0.0012819 -0.000318388 0.000374805)
(-0.00120713 -0.000536149 0.000374805)
(-0.00109569 -0.000737621 0.000374805)
(-0.000950961 -0.00091668 0.000374805)
(-0.000777334 -0.00106789 0.000374805)
(-0.000580088 -0.00118665 0.000374805)
(-0.000365216 -0.00126935 0.000374805)
(-0.000139247 -0.00131348 0.000374805)
(9.0952e-05 -0.00131771 0.000374805)
(0.000318388 -0.0012819 0.000374805)
(0.000536149 -0.00120713 0.000374805)
(0.000737621 -0.00109569 0.000374805)
(0.00091668 -0.000950961 0.000374805)
(0.00106789 -0.000777334 0.000374805)
(0.00118665 -0.000580088 0.000374805)
(0.00126935 -0.000365216 0.000374805)
(0.00131348 -0.000139247 0.000374805)
(0.00131771 9.09519e-05 0.000374805)
(0.0012819 0.000318388 0.000374805)
(0.00120713 0.000536149 0.000374805)
(0.00109569 0.000737621 0.000374805)
(0.000950961 0.00091668 0.000374805)
(0.000777334 0.00106789 0.000374805)
(0.000580088 0.00118665 0.000374805)
(0.000365216 0.00126935 0.000374805)
(1.92064e-05 0.00133826 0.000420732)
(-0.000213471 0.00132126 0.000420732)
(-0.000439662 0.00126412 0.000420732)
(-0.000652495 0.00116857 0.000420732)
(-0.000845502 0.00103751 0.000420732)
(-0.00101282 0.000874929 0.000420732)
(-0.00114936 0.000685762 0.000420732)
(-0.00125098 0.000475759 0.000420732)
(-0.00131459 0.000251301 0.000420732)
(-0.00133826 1.92063e-05 0.000420732)
(-0.00132126 -0.000213471 0.000420732)
(-0.00126412 -0.000439662 0.000420732)
(-0.00116857 -0.000652495 0.000420732)
(-0.00103751 -0.000845502 0.000420732)
(-0.000874929 -0.00101282 0.000420732)
(-0.000685762 -0.00114936 0.000420732)
(-0.000475759 -0.00125098 0.000420732)
(-0.000251301 -0.00131459 0.000420732)
(-1.92062e-05 -0.00133826 0.000420732)
(0.000213471 -0.00132126 0.000420732)
(0.000439662 -0.00126412 0.000420732)
(0.000652495 -0.00116857 0.000420732)
(0.000845502 -0.00103751 0.000420732)
(0.00101282 -0.000874929 0.000420732)
(0.00114936 -0.000685762 0.000420732)
(0.00125098 -0.000475759 0.000420732)
(0.00131459 -0.000251301 0.000420732)
(0.00133826 -1.92063e-05 0.000420732)
(0.00132126 0.000213471 0.000420732)
(0.00126412 0.000439662 0.000420732)
(0.00116857 0.000652495 0.000420732)
(0.00103751 0.000845502 0.000420732)
(0.000874929 0.00101282 0.000420732)
(0.000685762 0.00114936 0.000420732)
(0.00047576 0.00125098 0.000420732)
(0.000251301 0.00131459 0.000420732)
(0.000244673 0.00177968 0.000558805)
(-6.80813e-05 0.00179513 0.000558805)
(-0.000378767 0.00175603 0.000558806)
(-0.000677944 0.00166358 0.000558806)
(-0.000956522 0.00152058 0.000558807)
(-0.00120604 0.00133138 0.000558807)
(-0.00141891 0.00110173 0.000558807)
(-0.00158866 0.000838602 0.000558806)
(-0.00171015 0.000549993 0.000558806)
(-0.00177967 0.000244673 0.000558805)
(-0.00179513 -6.80815e-05 0.000558805)
(-0.00175603 -0.000378768 0.000558806)
(-0.00166358 -0.000677944 0.000558806)
(-0.00152058 -0.000956522 0.000558807)
(-0.00133138 -0.00120604 0.000558807)
(-0.00110173 -0.00141891 0.000558807)
(-0.000838602 -0.00158866 0.000558806)
(-0.000549993 -0.00171015 0.000558806)
(-0.000244673 -0.00177968 0.000558805)
(6.80816e-05 -0.00179513 0.000558805)
(0.000378768 -0.00175603 0.000558806)
(0.000677944 -0.00166358 0.000558806)
(0.000956522 -0.00152058 0.000558807)
(0.00120604 -0.00133138 0.000558807)
(0.00141891 -0.00110173 0.000558807)
(0.00158866 -0.000838602 0.000558806)
(0.00171015 -0.000549993 0.000558806)
(0.00177968 -0.000244673 0.000558805)
(0.00179513 6.80815e-05 0.000558805)
(0.00175603 0.000378768 0.000558806)
(0.00166358 0.000677944 0.000558806)
(0.00152058 0.000956522 0.000558807)
(0.00133138 0.00120604 0.000558807)
(0.00110173 0.00141891 0.000558807)
(0.000838602 0.00158866 0.000558807)
(0.000549993 0.00171015 0.000558806)
(0.000126233 0.00179279 0.000618195)
(-0.000186999 0.00178747 0.000618194)
(-0.00049455 0.00172785 0.000618194)
(-0.000787073 0.00161572 0.000618195)
(-0.00105568 0.0014545 0.000618195)
(-0.00129221 0.00124908 0.000618195)
(-0.00148948 0.00100572 0.000618195)
(-0.0016415 0.00073179 0.000618195)
(-0.00174363 0.00043563 0.000618195)
(-0.00179279 0.000126233 0.000618194)
(-0.00178747 -0.000186999 0.000618194)
(-0.00172785 -0.00049455 0.000618194)
(-0.00161572 -0.000787073 0.000618195)
(-0.0014545 -0.00105568 0.000618195)
(-0.00124908 -0.00129221 0.000618195)
(-0.00100572 -0.00148948 0.000618195)
(-0.00073179 -0.0016415 0.000618195)
(-0.00043563 -0.00174363 0.000618195)
(-0.000126233 -0.00179279 0.000618194)
(0.000186999 -0.00178747 0.000618194)
(0.00049455 -0.00172785 0.000618194)
(0.000787073 -0.00161572 0.000618195)
(0.00105568 -0.0014545 0.000618195)
(0.00129221 -0.00124908 0.000618195)
(0.00148948 -0.00100572 0.000618195)
(0.0016415 -0.00073179 0.000618195)
(0.00174363 -0.00043563 0.000618195)
(0.00179279 -0.000126233 0.000618194)
(0.00178747 0.000186999 0.000618194)
(0.00172785 0.00049455 0.000618194)
(0.00161572 0.000787073 0.000618195)
(0.0014545 0.00105568 0.000618195)
(0.00124908 0.00129221 0.000618195)
(0.00100572 0.00148948 0.000618195)
(0.000731791 0.0016415 0.000618195)
(0.00043563 0.00174363 0.000618195)
(-7.19002e-06 0.00179717 0.000668306)
(-0.000319156 0.00176862 0.000668306)
(-0.000621425 0.00168633 0.000668306)
(-0.000904813 0.0015528 0.000668306)
(-0.00116071 0.00137209 0.000668306)
(-0.00138133 0.00114969 0.000668306)
(-0.00155999 0.00089236 0.000668306)
(-0.00169125 0.000607913 0.000668306)
(-0.00177112 0.000304995 0.000668306)
(-0.00179717 -7.19014e-06 0.000668306)
(-0.00176862 -0.000319157 0.000668306)
(-0.00168633 -0.000621425 0.000668306)
(-0.0015528 -0.000904813 0.000668306)
(-0.00137209 -0.00116071 0.000668306)
(-0.00114969 -0.00138133 0.000668306)
(-0.00089236 -0.00155999 0.000668306)
(-0.000607913 -0.00169125 0.000668306)
(-0.000304995 -0.00177112 0.000668306)
(7.19023e-06 -0.00179717 0.000668306)
(0.000319157 -0.00176862 0.000668306)
(0.000621425 -0.00168633 0.000668306)
(0.000904813 -0.0015528 0.000668306)
(0.00116071 -0.00137209 0.000668306)
(0.00138133 -0.00114969 0.000668306)
(0.00155999 -0.00089236 0.000668306)
(0.00169125 -0.000607913 0.000668306)
(0.00177112 -0.000304995 0.000668306)
(0.00179717 7.19014e-06 0.000668306)
(0.00176862 0.000319157 0.000668306)
(0.00168633 0.000621425 0.000668306)
(0.0015528 0.000904813 0.000668306)
(0.00137209 0.00116071 0.000668306)
(0.00114969 0.00138133 0.000668306)
(0.00089236 0.00155999 0.000668306)
(0.000607913 0.00169125 0.000668306)
(0.000304995 0.00177112 0.000668306)
(0.00019681 0.00224628 0.000831525)
(-0.000196243 0.00224633 0.000831524)
(-0.000583333 0.00217813 0.000831524)
(-0.000952698 0.00204374 0.000831525)
(-0.00129312 0.00184726 0.000831525)
(-0.00159424 0.00159465 0.000831525)
(-0.00184693 0.00129358 0.000831525)
(-0.0020435 0.000953214 0.000831525)
(-0.00217798 0.000583882 0.000831525)
(-0.00224628 0.000196809 0.000831525)
(-0.00224633 -0.000196243 0.000831524)
(-0.00217813 -0.000583334 0.000831524)
(-0.00204374 -0.000952698 0.000831524)
(-0.00184726 -0.00129312 0.000831525)
(-0.00159465 -0.00159424 0.000831525)
(-0.00129358 -0.00184693 0.000831525)
(-0.000953214 -0.0020435 0.000831525)
(-0.000583882 -0.00217798 0.000831525)
(-0.000196809 -0.00224628 0.000831524)
(0.000196243 -0.00224633 0.000831524)
(0.000583334 -0.00217813 0.000831524)
(0.000952699 -0.00204374 0.000831524)
(0.00129312 -0.00184726 0.000831525)
(0.00159424 -0.00159465 0.000831525)
(0.00184693 -0.00129358 0.000831525)
(0.0020435 -0.000953214 0.000831525)
(0.00217798 -0.000583882 0.000831525)
(0.00224628 -0.000196809 0.000831525)
(0.00224633 0.000196243 0.000831524)
(0.00217813 0.000583334 0.000831524)
(0.00204374 0.000952698 0.000831525)
(0.00184726 0.00129312 0.000831525)
(0.00159465 0.00159424 0.000831525)
(0.00129358 0.00184693 0.000831525)
(0.000953214 0.0020435 0.000831525)
(0.000583882 0.00217798 0.000831525)
(7.26978e-05 0.00222525 0.000887184)
(-0.000314817 0.00220407 0.000887183)
(-0.000692767 0.00211592 0.000887184)
(-0.00104967 0.00196347 0.000887184)
(-0.00137467 0.00175137 0.000887184)
(-0.00165791 0.00148605 0.000887184)
(-0.00189077 0.00117558 0.000887184)
(-0.00206619 0.000829395 0.000887184)
(-0.00217882 0.000458004 0.000887184)
(-0.00222525 7.26976e-05 0.000887184)
(-0.00220407 -0.000314818 0.000887183)
(-0.00211592 -0.000692767 0.000887184)
(-0.00196347 -0.00104967 0.000887184)
(-0.00175137 -0.00137467 0.000887184)
(-0.00148605 -0.00165791 0.000887184)
(-0.00117558 -0.00189077 0.000887184)
(-0.000829394 -0.00206619 0.000887184)
(-0.000458004 -0.00217882 0.000887184)
(-7.26975e-05 -0.00222525 0.000887184)
(0.000314818 -0.00220407 0.000887183)
(0.000692767 -0.00211592 0.000887184)
(0.00104967 -0.00196347 0.000887184)
(0.00137467 -0.00175137 0.000887184)
(0.00165791 -0.00148605 0.000887184)
(0.00189077 -0.00117558 0.000887184)
(0.00206619 -0.000829395 0.000887184)
(0.00217882 -0.000458004 0.000887184)
(0.00222525 -7.26976e-05 0.000887184)
(0.00220407 0.000314817 0.000887183)
(0.00211592 0.000692767 0.000887184)
(0.00196347 0.00104967 0.000887184)
(0.00175137 0.00137467 0.000887184)
(0.00148605 0.00165791 0.000887184)
(0.00117558 0.00189077 0.000887184)
(0.000829395 0.00206619 0.000887184)
(0.000458004 0.00217882 0.000887184)
(-6.40194e-05 0.00219644 0.000933695)
(-0.000444455 0.00215196 0.000933695)
(-0.000811386 0.00204208 0.000933695)
(-0.00115366 0.00187016 0.000933695)
(-0.00146089 0.00164142 0.000933695)
(-0.00172372 0.0013628 0.000933695)
(-0.00193418 0.00104278 0.000933695)
(-0.00208588 0.000691069 0.000933695)
(-0.00217419 0.000318362 0.000933695)
(-0.00219644 -6.40196e-05 0.000933695)
(-0.00215196 -0.000444455 0.000933695)
(-0.00204208 -0.000811386 0.000933695)
(-0.00187016 -0.00115366 0.000933695)
(-0.00164142 -0.00146089 0.000933695)
(-0.0013628 -0.00172372 0.000933695)
(-0.00104278 -0.00193418 0.000933695)
(-0.000691069 -0.00208588 0.000933695)
(-0.000318361 -0.00217419 0.000933695)
(6.40197e-05 -0.00219644 0.000933695)
(0.000444455 -0.00215196 0.000933695)
(0.000811386 -0.00204208 0.000933695)
(0.00115366 -0.00187016 0.000933695)
(0.00146089 -0.00164142 0.000933695)
(0.00172372 -0.0013628 0.000933695)
(0.00193418 -0.00104278 0.000933695)
(0.00208588 -0.000691069 0.000933695)
(0.00217419 -0.000318362 0.000933695)
(0.00219644 6.40196e-05 0.000933695)
(0.00215196 0.000444455 0.000933695)
(0.00204208 0.000811386 0.000933695)
(0.00187016 0.00115366 0.000933695)
(0.00164142 0.00146089 0.000933695)
(0.0013628 0.00172372 0.000933695)
(0.00104278 0.00193418 0.000933695)
(0.000691069 0.00208588 0.000933695)
(0.000318362 0.00217419 0.000933695)
(0.000108616 0.00266239 0.00112744)
(-0.000355352 0.0026408 0.00112744)
(-0.000808524 0.00253898 0.00112744)
(-0.00123713 0.00236001 0.00112744)
(-0.00162814 0.00210933 0.00112744)
(-0.00196969 0.00179456 0.00112744)
(-0.00225139 0.00142526 0.00112744)
(-0.00246468 0.00101266 0.00112744)
(-0.00260308 0.000569285 0.00112744)
(-0.00266239 0.000108616 0.00112744)
(-0.0026408 -0.000355353 0.00112744)
(-0.00253898 -0.000808524 0.00112744)
(-0.00236001 -0.00123713 0.00112744)
(-0.00210933 -0.00162814 0.00112744)
(-0.00179456 -0.00196969 0.00112744)
(-0.00142526 -0.00225139 0.00112744)
(-0.00101266 -0.00246468 0.00112744)
(-0.000569285 -0.00260308 0.00112744)
(-0.000108616 -0.00266239 0.00112744)
(0.000355353 -0.0026408 0.00112744)
(0.000808525 -0.00253898 0.00112744)
(0.00123713 -0.00236001 0.00112744)
(0.00162814 -0.00210933 0.00112744)
(0.00196969 -0.00179456 0.00112744)
(0.00225139 -0.00142526 0.00112744)
(0.00246468 -0.00101266 0.00112744)
(0.00260308 -0.000569285 0.00112744)
(0.00266239 -0.000108616 0.00112744)
(0.0026408 0.000355353 0.00112744)
(0.00253898 0.000808524 0.00112744)
(0.00236001 0.00123713 0.00112744)
(0.00210933 0.00162814 0.00112744)
(0.00179456 0.00196969 0.00112744)
(0.00142526 0.00225139 0.00112744)
(0.00101266 0.00246468 0.00112744)
(0.000569285 0.00260308 0.00112744)
(-1.37787e-05 0.00259704 0.00117343)
(-0.000464541 0.00255519 0.00117343)
(-0.000901187 0.0024357 0.00117343)
(-0.00131045 0.00224221 0.00117343)
(-0.0016799 0.00198059 0.00117343)
(-0.0019983 0.00165879 0.00117343)
(-0.00225599 0.00128659 0.00117343)
(-0.00244513 0.000875292 0.00117343)
(-0.00255997 0.000437401 0.00117343)
(-0.00259704 -1.37789e-05 0.00117343)
(-0.00255519 -0.000464541 0.00117343)
(-0.0024357 -0.000901187 0.00117343)
(-0.00224221 -0.00131045 0.00117343)
(-0.00198059 -0.0016799 0.00117343)
(-0.00165879 -0.0019983 0.00117343)
(-0.00128659 -0.00225599 0.00117343)
(-0.000875292 -0.00244513 0.00117343)
(-0.000437401 -0.00255998 0.00117343)
(1.37791e-05 -0.00259704 0.00117343)
(0.000464541 -0.00255519 0.00117343)
(0.000901187 -0.0024357 0.00117343)
(0.00131045 -0.00224221 0.00117343)
(0.0016799 -0.00198059 0.00117343)
(0.0019983 -0.00165879 0.00117343)
(0.00225599 -0.00128659 0.00117343)
(0.00244513 -0.000875292 0.00117343)
(0.00255998 -0.000437401 0.00117343)
(0.00259704 1.37789e-05 0.00117343)
(0.00255519 0.000464541 0.00117343)
(0.00243571 0.000901187 0.00117343)
(0.00224221 0.00131045 0.00117343)
(0.00198059 0.0016799 0.00117343)
(0.00165879 0.0019983 0.00117343)
(0.00128659 0.00225599 0.00117343)
(0.000875292 0.00244513 0.00117343)
(0.000437402 0.00255998 0.00117343)
(-0.000146336 0.00252575 0.00121014)
(-0.000582704 0.00246196 0.00121014)
(-0.00100137 0.00232337 0.00121014)
(-0.0013896 0.00211419 0.00121014)
(-0.00173562 0.00184077 0.00121014)
(-0.0020289 0.00151142 0.00121014)
(-0.00226053 0.00113614 0.00121014)
(-0.00242347 0.000726345 0.00121014)
(-0.00251278 0.000294478 0.00121014)
(-0.00252574 -0.000146336 0.00121014)
(-0.00246196 -0.000582704 0.00121014)
(-0.00232337 -0.00100137 0.00121014)
(-0.00211419 -0.0013896 0.00121014)
(-0.00184077 -0.00173562 0.00121014)
(-0.00151142 -0.0020289 0.00121014)
(-0.00113614 -0.00226053 0.00121014)
(-0.000726345 -0.00242347 0.00121014)
(-0.000294478 -0.00251278 0.00121014)
(0.000146336 -0.00252575 0.00121014)
(0.000582704 -0.00246196 0.00121014)
(0.00100137 -0.00232337 0.00121014)
(0.0013896 -0.00211419 0.00121014)
(0.00173562 -0.00184077 0.00121014)
(0.0020289 -0.00151142 0.00121014)
(0.00226053 -0.00113614 0.00121014)
(0.00242347 -0.000726345 0.00121014)
(0.00251278 -0.000294478 0.00121014)
(0.00252575 0.000146336 0.00121014)
(0.00246196 0.000582704 0.00121014)
(0.00232337 0.00100137 0.00121014)
(0.00211419 0.0013896 0.00121014)
(0.00184077 0.00173562 0.00121014)
(0.00151142 0.0020289 0.00121014)
(0.00113614 0.00226053 0.00121014)
(0.000726346 0.00242347 0.00121014)
(0.000294479 0.00251278 0.00121014)
(-5.16059e-06 0.00301147 0.00144368)
(-0.000528018 0.00296482 0.00144368)
(-0.00103483 0.00282809 0.00144368)
(-0.0015102 0.00260543 0.00144368)
(-0.00193969 0.0023036 0.00144368)
(-0.00231024 0.00193178 0.00144368)
(-0.00261059 0.00150127 0.00144368)
(-0.00283162 0.00102513 0.00144368)
(-0.00296661 0.000517853 0.00144368)
(-0.00301147 -5.16084e-06 0.00144368)
(-0.00296482 -0.000528019 0.00144368)
(-0.00282809 -0.00103483 0.00144368)
(-0.00260543 -0.0015102 0.00144368)
(-0.0023036 -0.00193969 0.00144368)
(-0.00193178 -0.00231024 0.00144368)
(-0.00150127 -0.00261059 0.00144368)
(-0.00102513 -0.00283162 0.00144368)
(-0.000517853 -0.00296661 0.00144368)
(5.16107e-06 -0.00301147 0.00144368)
(0.000528019 -0.00296482 0.00144368)
(0.00103483 -0.00282809 0.00144368)
(0.0015102 -0.00260543 0.00144368)
(0.00193969 -0.0023036 0.00144368)
(0.00231024 -0.00193178 0.00144368)
(0.00261059 -0.00150127 0.00144368)
(0.00283162 -0.00102513 0.00144368)
(0.00296661 -0.000517853 0.00144368)
(0.00301147 5.16082e-06 0.00144368)
(0.00296482 0.000528018 0.00144368)
(0.00282809 0.00103483 0.00144368)
(0.00260543 0.0015102 0.00144368)
(0.0023036 0.00193969 0.00144368)
(0.00193178 0.00231024 0.00144368)
(0.00150127 0.00261059 0.00144368)
(0.00102513 0.00283162 0.00144368)
(0.000517853 0.00296661 0.00144368)
(-0.000121128 0.00289462 0.00147466)
(-0.000621933 0.00282961 0.00147466)
(-0.00110384 0.00267863 0.00147466)
(-0.00155221 0.00244625 0.00147466)
(-0.00195341 0.00213955 0.00147466)
(-0.00229527 0.00176784 0.00147466)
(-0.00256738 0.00134241 0.00147466)
(-0.00276148 0.000876196 0.00147466)
(-0.00287168 0.000383357 0.00147466)
(-0.00289462 -0.000121128 0.00147466)
(-0.00282961 -0.000621934 0.00147466)
(-0.00267863 -0.00110384 0.00147466)
(-0.00244625 -0.00155221 0.00147466)
(-0.00213955 -0.00195341 0.00147466)
(-0.00176784 -0.00229527 0.00147466)
(-0.00134241 -0.00256738 0.00147466)
(-0.000876195 -0.00276148 0.00147466)
(-0.000383357 -0.00287168 0.00147466)
(0.000121128 -0.00289462 0.00147466)
(0.000621934 -0.00282961 0.00147466)
(0.00110384 -0.00267863 0.00147466)
(0.00155221 -0.00244625 0.00147466)
(0.00195341 -0.00213955 0.00147466)
(0.00229527 -0.00176784 0.00147466)
(0.00256738 -0.00134241 0.00147466)
(0.00276148 -0.000876196 0.00147466)
(0.00287168 -0.000383357 0.00147466)
(0.00289462 0.000121128 0.00147466)
(0.00282961 0.000621934 0.00147466)
(0.00267863 0.00110384 0.00147466)
(0.00244625 0.00155221 0.00147466)
(0.00213955 0.00195341 0.00147466)
(0.00176784 0.00229527 0.00147466)
(0.00134241 0.00256738 0.00147466)
(0.000876196 0.00276148 0.00147466)
(0.000383357 0.00287168 0.00147466)
(-0.000244518 0.00277462 0.001496)
(-0.00072261 0.00269 0.001496)
(-0.00117875 0.00252366 0.001496)
(-0.00159907 0.00228063 0.001496)
(-0.0019708 0.00196831 0.001496)
(-0.00228265 0.00159618 0.001496)
(-0.00252515 0.00117555 0.001496)
(-0.00269092 0.000719204 0.001496)
(-0.00277492 0.000241005 0.001496)
(-0.00277462 -0.000244518 0.001496)
(-0.00269 -0.00072261 0.001496)
(-0.00252366 -0.00117875 0.001496)
(-0.00228063 -0.00159907 0.001496)
(-0.00196831 -0.0019708 0.001496)
(-0.00159618 -0.00228265 0.001496)
(-0.00117555 -0.00252515 0.001496)
(-0.000719204 -0.00269092 0.001496)
(-0.000241005 -0.00277492 0.001496)
(0.000244518 -0.00277462 0.001496)
(0.00072261 -0.00269 0.001496)
(0.00117875 -0.00252366 0.001496)
(0.00159907 -0.00228063 0.001496)
(0.0019708 -0.00196831 0.001496)
(0.00228265 -0.00159618 0.001496)
(0.00252515 -0.00117555 0.001496)
(0.00269092 -0.000719204 0.001496)
(0.00277492 -0.000241005 0.001496)
(0.00277462 0.000244518 0.001496)
(0.00269 0.00072261 0.001496)
(0.00252366 0.00117875 0.001496)
(0.00228063 0.00159907 0.001496)
(0.00196831 0.0019708 0.001496)
(0.00159618 0.00228265 0.001496)
(0.00117555 0.00252515 0.001496)
(0.000719204 0.00269092 0.001496)
(0.000241005 0.00277492 0.001496)
(-0.000127314 0.0032779 0.00178198)
(-0.000694581 0.00320599 0.00178198)
(-0.00124074 0.00303667 0.00178198)
(-0.00174921 0.00277509 0.00178198)
(-0.00220452 0.00242918 0.00178198)
(-0.00259285 0.00200946 0.00178198)
(-0.0029024 0.00152869 0.00178198)
(-0.00312376 0.00100147 0.00178198)
(-0.00325021 0.00044382 0.00178198)
(-0.0032779 -0.000127314 0.00178198)
(-0.00320599 -0.000694581 0.00178198)
(-0.00303667 -0.00124074 0.00178198)
(-0.00277509 -0.00174921 0.00178198)
(-0.00242918 -0.00220452 0.00178198)
(-0.00200946 -0.00259285 0.00178198)
(-0.00152869 -0.0029024 0.00178198)
(-0.00100147 -0.00312376 0.00178198)
(-0.000443819 -0.00325021 0.00178198)
(0.000127315 -0.0032779 0.00178198)
(0.000694581 -0.00320599 0.00178198)
(0.00124074 -0.00303667 0.00178198)