/*--------------------------------*- C++ -*----------------------------------*\
| =========                 |                                                 |
| \\      /  F ield         | OpenFOAM: The Open Source CFD Toolbox           |
|  \\    /   O peration     | Version:  2312                                  |
|   \\  /    A nd           | Website:  www.openfoam.com                      |
|    \\/     M anipulation  |                                                 |
\*---------------------------------------------------------------------------*/
FoamFile
{
    version     2.0;
    format      ascii;
    arch        "LSB;label=32;scalar=64";
    class       volVectorField;
    location    "0.4";
    object      D_0;
}
// * * * * * * * * * * * * * * * * * * * * * * * * * * * * * * * * * * * * * //

dimensions      [0 1 0 0 0 0 0];

internalField   nonuniform List<vector> 
1620
(
(9.41055e-05 0.000242955 1.16062e-05)
(5.04871e-05 0.000255605 1.16061e-05)
(5.3349e-06 0.000260489 1.16062e-05)
(-3.99795e-05 0.000257459 1.16064e-05)
(-8.40794e-05 0.000246605 1.16064e-05)
(-0.000125625 0.000228258 1.16063e-05)
(-0.000163352 0.000202976 1.16065e-05)
(-0.000196117 0.000171526 1.16064e-05)
(-0.000222923 0.000134865 1.16062e-05)
(-0.000242955 9.41055e-05 1.16062e-05)
(-0.000255605 5.0487e-05 1.16061e-05)
(-0.000260489 5.33487e-06 1.16062e-05)
(-0.000257459 -3.99795e-05 1.16064e-05)
(-0.000246605 -8.40794e-05 1.16064e-05)
(-0.000228258 -0.000125625 1.16063e-05)
(-0.000202976 -0.000163352 1.16065e-05)
(-0.000171526 -0.000196117 1.16064e-05)
(-0.000134865 -0.000222923 1.16062e-05)
(-9.41055e-05 -0.000242955 1.16062e-05)
(-5.0487e-05 -0.000255605 1.16061e-05)
(-5.33486e-06 -0.000260489 1.16062e-05)
(3.99795e-05 -0.000257459 1.16064e-05)
(8.40794e-05 -0.000246605 1.16064e-05)
(0.000125625 -0.000228258 1.16063e-05)
(0.000163352 -0.000202976 1.16065e-05)
(0.000196117 -0.000171526 1.16064e-05)
(0.000222923 -0.000134865 1.16062e-05)
(0.000242955 -9.41055e-05 1.16062e-05)
(0.000255605 -5.0487e-05 1.16061e-05)
(0.000260489 -5.33488e-06 1.16062e-05)
(0.000257459 3.99795e-05 1.16064e-05)
(0.000246605 8.40794e-05 1.16064e-05)
(0.000228258 0.000125625 1.16063e-05)
(0.000202976 0.000163352 1.16065e-05)
(0.000171526 0.000196117 1.16064e-05)
(0.000134865 0.000222923 1.16062e-05)
(4.63615e-05 0.000266707 3.46209e-05)
(-6.55928e-07 0.000270705 3.4621e-05)
(-4.76532e-05 0.000266479 3.4621e-05)
(-9.32026e-05 0.000254155 3.46211e-05)
(-0.000135921 0.00023411 3.46211e-05)
(-0.000174508 0.000206951 3.46211e-05)
(-0.000207794 0.000173503 3.46211e-05)
(-0.000234765 0.000134785 3.4621e-05)
(-0.000254604 9.19702e-05 3.46209e-05)
(-0.000266707 4.63615e-05 3.46209e-05)
(-0.000270705 -6.55949e-07 3.46209e-05)
(-0.000266479 -4.76532e-05 3.4621e-05)
(-0.000254155 -9.32026e-05 3.46211e-05)
(-0.00023411 -0.000135921 3.46211e-05)
(-0.000206951 -0.000174508 3.4621e-05)
(-0.000173503 -0.000207794 3.46211e-05)
(-0.000134785 -0.000234765 3.4621e-05)
(-9.19702e-05 -0.000254604 3.46209e-05)
(-4.63615e-05 -0.000266707 3.46209e-05)
(6.55961e-07 -0.000270705 3.46209e-05)
(4.76532e-05 -0.000266479 3.4621e-05)
(9.32026e-05 -0.000254155 3.46211e-05)
(0.000135921 -0.00023411 3.46211e-05)
(0.000174508 -0.000206951 3.4621e-05)
(0.000207794 -0.000173503 3.46211e-05)
(0.000234765 -0.000134785 3.4621e-05)
(0.000254604 -9.19702e-05 3.46209e-05)
(0.000266707 -4.63615e-05 3.46209e-05)
(0.000270705 6.55945e-07 3.4621e-05)
(0.000266479 4.76532e-05 3.4621e-05)
(0.000254155 9.32026e-05 3.46211e-05)
(0.00023411 0.000135921 3.46211e-05)
(0.000206951 0.000174508 3.46211e-05)
(0.000173503 0.000207794 3.46211e-05)
(0.000134785 0.000234765 3.4621e-05)
(9.19702e-05 0.000254604 3.46209e-05)
(-1.77442e-05 0.000288221 3.61859e-05)
(-6.75237e-05 0.000280762 3.61861e-05)
(-0.000115252 0.000264771 3.6186e-05)
(-0.000159478 0.000240735 3.6186e-05)
(-0.000198858 0.000209385 3.61862e-05)
(-0.000232196 0.000171672 3.6186e-05)
(-0.000258479 0.000128744 3.61861e-05)
(-0.000276908 8.19034e-05 3.61859e-05)
(-0.000286924 3.25744e-05 3.61859e-05)
(-0.000288221 -1.77442e-05 3.61859e-05)
(-0.000280762 -6.75238e-05 3.61861e-05)
(-0.000264771 -0.000115252 3.6186e-05)
(-0.000240735 -0.000159478 3.6186e-05)
(-0.000209385 -0.000198858 3.61862e-05)
(-0.000171672 -0.000232196 3.6186e-05)
(-0.000128744 -0.000258479 3.61861e-05)
(-8.19034e-05 -0.000276909 3.61859e-05)
(-3.25744e-05 -0.000286924 3.61859e-05)
(1.77442e-05 -0.000288221 3.61859e-05)
(6.75238e-05 -0.000280762 3.61861e-05)
(0.000115252 -0.000264771 3.6186e-05)
(0.000159478 -0.000240735 3.6186e-05)
(0.000198858 -0.000209385 3.61862e-05)
(0.000232196 -0.000171672 3.6186e-05)
(0.000258479 -0.000128744 3.61861e-05)
(0.000276909 -8.19034e-05 3.61859e-05)
(0.000286924 -3.25744e-05 3.61859e-05)
(0.000288221 1.77442e-05 3.61859e-05)
(0.000280762 6.75238e-05 3.61861e-05)
(0.000264771 0.000115252 3.6186e-05)
(0.000240735 0.000159478 3.6186e-05)
(0.000209385 0.000198858 3.61862e-05)
(0.000171672 0.000232196 3.6186e-05)
(0.000128744 0.000258479 3.61861e-05)
(8.19034e-05 0.000276909 3.61859e-05)
(3.25745e-05 0.000286924 3.61859e-05)
(0.000183132 0.000758054 0.000126856)
(4.87153e-05 0.000778338 0.000126856)
(-8.71816e-05 0.000774973 0.000126856)
(-0.000220429 0.00074806 0.000126857)
(-0.00034698 0.000698418 0.000126857)
(-0.000462987 0.000627556 0.000126857)
(-0.000564928 0.000537625 0.000126857)
(-0.000649703 0.000431358 0.000126856)
(-0.000714737 0.000311984 0.000126856)
(-0.000758054 0.000183132 0.000126856)
(-0.000778338 4.87152e-05 0.000126856)
(-0.000774973 -8.71816e-05 0.000126856)
(-0.00074806 -0.000220429 0.000126857)
(-0.000698418 -0.00034698 0.000126857)
(-0.000627555 -0.000462987 0.000126857)
(-0.000537625 -0.000564928 0.000126857)
(-0.000431358 -0.000649703 0.000126856)
(-0.000311984 -0.000714737 0.000126856)
(-0.000183132 -0.000758054 0.000126856)
(-4.87152e-05 -0.000778338 0.000126856)
(8.71817e-05 -0.000774973 0.000126856)
(0.00022043 -0.00074806 0.000126857)
(0.00034698 -0.000698418 0.000126857)
(0.000462987 -0.000627556 0.000126857)
(0.000564928 -0.000537625 0.000126857)
(0.000649703 -0.000431358 0.000126856)
(0.000714737 -0.000311984 0.000126856)
(0.000758054 -0.000183132 0.000126856)
(0.000778338 -4.87152e-05 0.000126856)
(0.000774973 8.71816e-05 0.000126856)
(0.00074806 0.000220429 0.000126857)
(0.000698418 0.00034698 0.000126857)
(0.000627556 0.000462987 0.000126857)
(0.000537625 0.000564928 0.000126857)
(0.000431358 0.000649703 0.000126856)
(0.000311985 0.000714737 0.000126856)
(0.000109504 0.000792836 0.000169189)
(-2.98339e-05 0.000799806 0.000169189)
(-0.000168265 0.000782475 0.00016919)
(-0.000301584 0.000741369 0.00016919)
(-0.00042574 0.000677736 0.00016919)
(-0.00053696 0.000593511 0.00016919)
(-0.000631864 0.000491252 0.00016919)
(-0.000707569 0.000374066 0.000169189)
(-0.000761776 0.000245515 0.000169189)
(-0.000792836 0.000109504 0.000169189)
(-0.000799806 -2.9834e-05 0.000169189)
(-0.000782475 -0.000168266 0.00016919)
(-0.000741369 -0.000301584 0.00016919)
(-0.000677736 -0.00042574 0.00016919)
(-0.000593511 -0.00053696 0.00016919)
(-0.000491252 -0.000631864 0.00016919)
(-0.000374066 -0.000707569 0.000169189)
(-0.000245515 -0.000761776 0.000169189)
(-0.000109504 -0.000792836 0.000169189)
(2.9834e-05 -0.000799806 0.000169189)
(0.000168266 -0.000782475 0.00016919)
(0.000301584 -0.000741369 0.00016919)
(0.00042574 -0.000677736 0.00016919)
(0.00053696 -0.000593511 0.00016919)
(0.000631864 -0.000491252 0.00016919)
(0.000707569 -0.000374066 0.000169189)
(0.000761776 -0.000245515 0.000169189)
(0.000792836 -0.000109504 0.000169189)
(0.000799806 2.9834e-05 0.000169189)
(0.000782475 0.000168265 0.00016919)
(0.000741369 0.000301584 0.00016919)
(0.000677736 0.00042574 0.00016919)
(0.000593511 0.00053696 0.00016919)
(0.000491252 0.000631864 0.00016919)
(0.000374066 0.000707569 0.000169189)
(0.000245515 0.000761776 0.000169189)
(1.66388e-05 0.000821081 0.00019959)
(-0.000126193 0.000811497 0.00019959)
(-0.00026519 0.000777255 0.00019959)
(-0.00039613 0.000719397 0.00019959)
(-0.000515034 0.00063968 0.00019959)
(-0.000618289 0.000540527 0.00019959)
(-0.000702757 0.00042495 0.00019959)
(-0.000765873 0.000296462 0.00019959)
(-0.000805718 0.000158965 0.00019959)
(-0.000821081 1.66388e-05 0.00019959)
(-0.000811497 -0.000126193 0.00019959)
(-0.000777255 -0.00026519 0.00019959)
(-0.000719397 -0.00039613 0.00019959)
(-0.00063968 -0.000515034 0.00019959)
(-0.000540527 -0.000618289 0.00019959)
(-0.00042495 -0.000702757 0.00019959)
(-0.000296462 -0.000765873 0.00019959)
(-0.000158965 -0.000805718 0.00019959)
(-1.66388e-05 -0.000821081 0.00019959)
(0.000126193 -0.000811497 0.00019959)
(0.00026519 -0.000777255 0.00019959)
(0.00039613 -0.000719397 0.00019959)
(0.000515034 -0.00063968 0.00019959)
(0.000618289 -0.000540527 0.00019959)
(0.000702757 -0.00042495 0.00019959)
(0.000765873 -0.000296462 0.00019959)
(0.000805718 -0.000158965 0.00019959)
(0.000821081 -1.66388e-05 0.00019959)
(0.000811497 0.000126193 0.00019959)
(0.000777255 0.00026519 0.00019959)
(0.000719397 0.00039613 0.00019959)
(0.00063968 0.000515034 0.00019959)
(0.000540527 0.000618289 0.00019959)
(0.00042495 0.000702757 0.00019959)
(0.000296462 0.000765873 0.00019959)
(0.000158966 0.000805718 0.00019959)
(0.000239556 0.0012696 0.000316304)
(1.5453e-05 0.00129191 0.000316304)
(-0.000209119 0.00127497 0.000316305)
(-0.000427338 0.00121928 0.000316305)
(-0.000632571 0.00112655 0.000316306)
(-0.000818585 0.000999593 0.000316306)
(-0.000979726 0.000842261 0.000316306)
(-0.0011111 0.000659337 0.000316305)
(-0.00120871 0.00045638 0.000316305)
(-0.0012696 0.000239556 0.000316304)
(-0.00129191 1.54529e-05 0.000316304)
(-0.00127497 -0.000209119 0.000316305)
(-0.00121928 -0.000427338 0.000316305)
(-0.00112655 -0.000632571 0.000316306)
(-0.000999593 -0.000818585 0.000316306)
(-0.000842261 -0.000979726 0.000316306)
(-0.000659337 -0.0011111 0.000316305)
(-0.00045638 -0.00120871 0.000316305)
(-0.000239556 -0.0012696 0.000316304)
(-1.54528e-05 -0.00129191 0.000316304)
(0.000209119 -0.00127497 0.000316305)
(0.000427338 -0.00121928 0.000316305)
(0.000632571 -0.00112655 0.000316306)
(0.000818585 -0.000999593 0.000316306)
(0.000979726 -0.000842261 0.000316306)
(0.0011111 -0.000659337 0.000316305)
(0.00120871 -0.00045638 0.000316305)
(0.0012696 -0.000239556 0.000316304)
(0.00129191 -1.54529e-05 0.000316304)
(0.00127497 0.000209119 0.000316305)
(0.00121928 0.000427338 0.000316305)
(0.00112655 0.000632571 0.000316306)
(0.000999593 0.000818585 0.000316306)
(0.000842261 0.000979726 0.000316306)
(0.000659337 0.0011111 0.000316305)
(0.00045638 0.00120871 0.000316305)
(0.000139031 0.00129994 0.000370384)
(-8.88134e-05 0.00130434 0.000370384)
(-0.000313959 0.0012691 0.000370384)
(-0.000529565 0.0011953 0.000370384)
(-0.000729082 0.00108518 0.000370384)
(-0.000906445 0.00094209 0.000370384)
(-0.00105627 0.000770375 0.000370384)
(-0.00117399 0.000575253 0.000370384)
(-0.00125605 0.000362651 0.000370384)
(-0.00129994 0.000139031 0.000370384)
(-0.00130434 -8.88135e-05 0.000370384)
(-0.0012691 -0.000313959 0.000370384)
(-0.0011953 -0.000529565 0.000370384)
(-0.00108518 -0.000729082 0.000370384)
(-0.00094209 -0.000906445 0.000370384)
(-0.000770375 -0.00105627 0.000370384)
(-0.000575252 -0.00117399 0.000370384)
(-0.000362651 -0.00125605 0.000370384)
(-0.000139031 -0.00129994 0.000370384)
(8.88136e-05 -0.00130434 0.000370384)
(0.00031396 -0.0012691 0.000370384)
(0.000529566 -0.0011953 0.000370384)
(0.000729082 -0.00108518 0.000370384)
(0.000906445 -0.00094209 0.000370384)
(0.00105627 -0.000770375 0.000370384)
(0.00117399 -0.000575253 0.000370384)
(0.00125605 -0.000362651 0.000370384)
(0.00129994 -0.000139031 0.000370384)
(0.00130434 8.88135e-05 0.000370384)
(0.0012691 0.000313959 0.000370384)
(0.0011953 0.000529565 0.000370384)
(0.00108518 0.000729082 0.000370384)
(0.00094209 0.000906445 0.000370384)
(0.000770375 0.00105627 0.000370384)
(0.000575253 0.00117399 0.000370384)
(0.000362651 0.00125605 0.000370384)
(2.14971e-05 0.00132192 0.000414807)
(-0.000208378 0.00130557 0.000414807)
(-0.000431921 0.00124955 0.000414807)
(-0.00064234 0.00115556 0.000414807)
(-0.000833243 0.00102647 0.000414807)
(-0.000998828 0.00086618 0.000414807)
(-0.00113406 0.000679575 0.000414807)
(-0.00123484 0.000472323 0.000414807)
(-0.0012981 0.000250719 0.000414807)
(-0.00132192 2.1497e-05 0.000414807)
(-0.00130557 -0.000208378 0.000414807)
(-0.00124955 -0.000431921 0.000414807)
(-0.00115556 -0.00064234 0.000414807)
(-0.00102647 -0.000833243 0.000414807)
(-0.00086618 -0.000998828 0.000414807)
(-0.000679575 -0.00113406 0.000414807)
(-0.000472323 -0.00123484 0.000414807)
(-0.000250719 -0.0012981 0.000414807)
(-2.14969e-05 -0.00132192 0.000414807)
(0.000208378 -0.00130557 0.000414807)
(0.000431921 -0.00124955 0.000414807)
(0.00064234 -0.00115556 0.000414807)
(0.000833243 -0.00102647 0.000414807)
(0.000998828 -0.00086618 0.000414807)
(0.00113406 -0.000679575 0.000414807)
(0.00123484 -0.000472323 0.000414807)
(0.0012981 -0.000250719 0.000414807)
(0.00132192 -2.1497e-05 0.000414807)
(0.00130557 0.000208378 0.000414807)
(0.00124955 0.000431921 0.000414807)
(0.00115556 0.00064234 0.000414807)
(0.00102647 0.000833243 0.000414807)
(0.00086618 0.000998828 0.000414807)
(0.000679575 0.00113406 0.000414807)
(0.000472323 0.00123484 0.000414807)
(0.000250719 0.0012981 0.000414807)
(0.000243356 0.00176453 0.000553875)
(-6.67492e-05 0.00177998 0.000553874)
(-0.000374826 0.00174135 0.000553875)
(-0.000671513 0.00164981 0.000553875)
(-0.000947797 0.00150814 0.000553876)
(-0.00119528 0.00132064 0.000553876)
(-0.00140645 0.00109302 0.000553876)
(-0.00157488 0.000832184 0.000553876)
(-0.00169547 0.000546066 0.000553875)
(-0.00176453 0.000243355 0.000553874)
(-0.00177998 -6.67494e-05 0.000553874)
(-0.00174135 -0.000374826 0.000553875)
(-0.00164981 -0.000671514 0.000553875)
(-0.00150814 -0.000947797 0.000553876)
(-0.00132064 -0.00119528 0.000553876)
(-0.00109302 -0.00140645 0.000553876)
(-0.000832184 -0.00157488 0.000553875)
(-0.000546066 -0.00169547 0.000553875)
(-0.000243355 -0.00176453 0.000553874)
(6.67495e-05 -0.00177998 0.000553874)
(0.000374826 -0.00174135 0.000553875)
(0.000671514 -0.00164981 0.000553875)
(0.000947797 -0.00150814 0.000553876)
(0.00119528 -0.00132064 0.000553876)
(0.00140645 -0.00109302 0.000553876)
(0.00157488 -0.000832184 0.000553876)
(0.00169547 -0.000546066 0.000553875)
(0.00176453 -0.000243355 0.000553875)
(0.00177998 6.67493e-05 0.000553874)
(0.00174135 0.000374826 0.000553875)
(0.00164981 0.000671513 0.000553875)
(0.00150814 0.000947797 0.000553876)
(0.00132064 0.00119528 0.000553876)
(0.00109302 0.00140645 0.000553876)
(0.000832185 0.00157488 0.000553876)
(0.000546066 0.00169547 0.000553875)
(0.000127217 0.00177435 0.00061135)
(-0.000182829 0.00176949 0.00061135)
(-0.000487319 0.00171086 0.00061135)
(-0.000777003 0.00160024 0.00061135)
(-0.00104308 0.00144101 0.000611351)
(-0.00127746 0.00123799 0.000611351)
(-0.00147303 0.000997351 0.000611351)
(-0.00162384 0.00072641 0.00061135)
(-0.00172531 0.000433398 0.00061135)
(-0.00177435 0.000127217 0.00061135)
(-0.00176949 -0.000182829 0.00061135)
(-0.00171086 -0.00048732 0.00061135)
(-0.00160024 -0.000777003 0.00061135)
(-0.00144101 -0.00104308 0.00061135)
(-0.00123799 -0.00127746 0.000611351)
(-0.000997351 -0.00147303 0.000611351)
(-0.00072641 -0.00162384 0.00061135)
(-0.000433398 -0.00172531 0.00061135)
(-0.000127217 -0.00177435 0.00061135)
(0.000182829 -0.00176949 0.00061135)
(0.00048732 -0.00171086 0.00061135)
(0.000777003 -0.00160024 0.00061135)
(0.00104308 -0.00144101 0.000611351)
(0.00127746 -0.00123799 0.000611351)
(0.00147303 -0.000997351 0.000611351)
(0.00162384 -0.00072641 0.00061135)
(0.00172531 -0.000433398 0.00061135)
(0.00177435 -0.000127217 0.00061135)
(0.00176949 0.000182829 0.00061135)
(0.00171086 0.000487319 0.00061135)
(0.00160024 0.000777003 0.00061135)
(0.00144101 0.00104308 0.000611351)
(0.00123799 0.00127746 0.000611351)
(0.000997351 0.00147303 0.000611351)
(0.00072641 0.00162384 0.000611351)
(0.000433398 0.00172531 0.00061135)
(-3.50519e-06 0.00177571 0.000659849)
(-0.000311801 0.00174812 0.000659849)
(-0.000610622 0.00166742 0.000659849)
(-0.00089089 0.00153606 0.000659849)
(-0.00114409 0.00135802 0.000659849)
(-0.00136252 0.00113872 0.000659849)
(-0.00153956 0.000884819 0.000659849)
(-0.00166982 0.000604035 0.000659849)
(-0.00174934 0.000304897 0.000659849)
(-0.00177571 -3.50531e-06 0.000659849)
(-0.00174812 -0.000311801 0.000659849)
(-0.00166742 -0.000610622 0.000659849)
(-0.00153606 -0.00089089 0.000659849)
(-0.00135802 -0.00114409 0.000659849)
(-0.00113872 -0.00136252 0.000659849)
(-0.000884819 -0.00153956 0.000659849)
(-0.000604035 -0.00166982 0.000659849)
(-0.000304897 -0.00174934 0.000659849)
(3.5054e-06 -0.00177571 0.000659849)
(0.000311801 -0.00174812 0.000659849)
(0.000610622 -0.00166742 0.000659849)
(0.00089089 -0.00153606 0.000659849)
(0.00114409 -0.00135802 0.000659849)
(0.00136252 -0.00113872 0.000659849)
(0.00153956 -0.000884819 0.000659849)
(0.00166982 -0.000604035 0.000659849)
(0.00174934 -0.000304897 0.000659849)
(0.00177571 3.50531e-06 0.000659849)
(0.00174812 0.000311801 0.000659849)
(0.00166742 0.000610622 0.000659849)
(0.00153606 0.00089089 0.000659849)
(0.00135802 0.00114409 0.000659849)
(0.00113872 0.00136252 0.000659849)
(0.000884819 0.00153956 0.000659849)
(0.000604035 0.00166982 0.000659849)
(0.000304897 0.00174934 0.000659849)
(0.000197285 0.00222673 0.00082429)
(-0.000192381 0.00222716 0.00082429)
(-0.000576201 0.00215992 0.00082429)
(-0.000942513 0.00202705 0.00082429)
(-0.00128019 0.00183259 0.000824291)
(-0.00157896 0.00158245 0.000824291)
(-0.00182976 0.00128422 0.000824291)
(-0.00202497 0.000946975 0.000824291)
(-0.00215865 0.000580956 0.000824291)
(-0.00222673 0.000197284 0.00082429)
(-0.00222716 -0.000192381 0.000824289)
(-0.00215992 -0.000576202 0.00082429)
(-0.00202705 -0.000942513 0.00082429)
(-0.00183259 -0.00128019 0.00082429)
(-0.00158245 -0.00157896 0.000824291)
(-0.00128422 -0.00182976 0.000824291)
(-0.000946975 -0.00202497 0.00082429)
(-0.000580956 -0.00215865 0.000824291)
(-0.000197284 -0.00222673 0.00082429)
(0.000192381 -0.00222716 0.000824289)
(0.000576202 -0.00215992 0.00082429)
(0.000942513 -0.00202705 0.00082429)
(0.00128019 -0.00183259 0.00082429)
(0.00157896 -0.00158245 0.000824291)
(0.00182976 -0.00128422 0.000824291)
(0.00202497 -0.000946975 0.000824291)
(0.00215865 -0.000580956 0.000824291)
(0.00222674 -0.000197284 0.00082429)
(0.00222716 0.000192381 0.00082429)
(0.00215992 0.000576201 0.00082429)
(0.00202705 0.000942513 0.00082429)
(0.00183259 0.00128019 0.000824291)
(0.00158245 0.00157896 0.000824291)
(0.00128422 0.00182976 0.000824291)
(0.000946975 0.00202497 0.000824291)
(0.000580956 0.00215865 0.000824291)
(7.55006e-05 0.00220253 0.000878129)
(-0.000308111 0.00218218 0.000878129)
(-0.000682361 0.00209552 0.000878129)
(-0.00103588 0.00194519 0.00087813)
(-0.00135792 0.00173576 0.00087813)
(-0.0016387 0.00147359 0.00087813)
(-0.00186969 0.00116665 0.00087813)
(-0.00204387 0.000824257 0.00087813)
(-0.00215595 0.000456818 0.000878129)
(-0.00220253 7.55004e-05 0.000878129)
(-0.00218218 -0.000308111 0.000878129)
(-0.00209552 -0.000682361 0.000878129)
(-0.00194519 -0.00103588 0.000878129)
(-0.00173576 -0.00135792 0.00087813)
(-0.00147359 -0.0016387 0.00087813)
(-0.00116665 -0.00186969 0.00087813)
(-0.000824256 -0.00204387 0.000878129)
(-0.000456818 -0.00215595 0.000878129)
(-7.55003e-05 -0.00220253 0.000878129)
(0.000308112 -0.00218218 0.000878129)
(0.000682361 -0.00209552 0.000878129)
(0.00103588 -0.00194519 0.000878129)
(0.00135792 -0.00173576 0.00087813)
(0.0016387 -0.00147359 0.00087813)
(0.00186969 -0.00116665 0.00087813)
(0.00204387 -0.000824257 0.00087813)
(0.00215595 -0.000456818 0.00087813)
(0.00220253 -7.55004e-05 0.000878129)
(0.00218218 0.000308111 0.000878129)
(0.00209552 0.000682361 0.000878129)
(0.00194519 0.00103588 0.00087813)
(0.00173576 0.00135792 0.00087813)
(0.00147359 0.0016387 0.00087813)
(0.00116665 0.00186969 0.00087813)
(0.000824257 0.00204387 0.00087813)
(0.000456819 0.00215595 0.00087813)
(-5.8563e-05 0.00217078 0.000923108)
(-0.000434625 0.00212763 0.000923108)
(-0.00079748 0.00201983 0.000923108)
(-0.0011361 0.00185067 0.000923108)
(-0.00144021 0.00162527 0.000923108)
(-0.00170055 0.00135049 0.000923108)
(-0.00190923 0.00103467 0.000923108)
(-0.00205989 0.000687418 0.000923108)
(-0.00214797 0.000319278 0.000923108)
(-0.00217078 -5.85632e-05 0.000923108)
(-0.00212763 -0.000434625 0.000923108)
(-0.00201983 -0.000797481 0.000923108)
(-0.00185067 -0.0011361 0.000923108)
(-0.00162527 -0.00144021 0.000923108)
(-0.00135049 -0.00170055 0.000923108)
(-0.00103467 -0.00190923 0.000923108)
(-0.000687418 -0.00205989 0.000923108)
(-0.000319278 -0.00214797 0.000923108)
(5.85633e-05 -0.00217078 0.000923108)
(0.000434625 -0.00212763 0.000923108)
(0.000797481 -0.00201983 0.000923108)
(0.0011361 -0.00185067 0.000923108)
(0.00144021 -0.00162527 0.000923108)
(0.00170055 -0.00135049 0.000923108)
(0.00190923 -0.00103467 0.000923108)
(0.00205989 -0.000687418 0.000923108)
(0.00214797 -0.000319278 0.000923108)
(0.00217078 5.85632e-05 0.000923108)
(0.00212763 0.000434625 0.000923108)
(0.00201983 0.00079748 0.000923108)
(0.00185067 0.0011361 0.000923108)
(0.00162527 0.00144021 0.000923108)
(0.00135049 0.00170055 0.000923108)
(0.00103467 0.00190923 0.000923108)
(0.000687418 0.00205989 0.000923108)
(0.000319278 0.00214797 0.000923108)
(0.000111357 0.00263908 0.00111809)
(-0.000348606 0.00261832 0.00111809)
(-0.000797976 0.00251801 0.00111809)
(-0.0012231 0.00234119 0.00111809)
(-0.00161106 0.00209323 0.00111809)
(-0.00195007 0.00178167 0.00111809)
(-0.00222983 0.00141598 0.00111809)
(-0.00244183 0.00100726 0.00111809)
(-0.00257965 0.000567936 0.0011181)
(-0.00263908 0.000111357 0.00111809)
(-0.00261832 -0.000348606 0.00111809)
(-0.00251801 -0.000797976 0.00111809)
(-0.00234119 -0.0012231 0.00111809)
(-0.00209323 -0.00161106 0.00111809)
(-0.00178167 -0.00195007 0.00111809)
(-0.00141598 -0.00222983 0.00111809)
(-0.00100726 -0.00244183 0.00111809)
(-0.000567936 -0.00257965 0.00111809)
(-0.000111357 -0.00263908 0.00111809)
(0.000348606 -0.00261832 0.00111809)
(0.000797976 -0.00251801 0.00111809)
(0.0012231 -0.00234119 0.00111809)
(0.00161106 -0.00209323 0.00111809)
(0.00195007 -0.00178167 0.00111809)
(0.00222983 -0.00141598 0.00111809)
(0.00244183 -0.00100726 0.00111809)
(0.00257965 -0.000567936 0.0011181)
(0.00263908 -0.000111357 0.00111809)
(0.00261832 0.000348606 0.00111809)
(0.00251801 0.000797976 0.00111809)
(0.00234119 0.0012231 0.00111809)
(0.00209323 0.00161106 0.00111809)
(0.00178167 0.00195007 0.00111809)
(0.00141598 0.00222983 0.00111809)
(0.00100726 0.00244183 0.00111809)
(0.000567937 0.00257965 0.0011181)
(-8.78487e-06 0.00257086 0.00116246)
(-0.000455076 0.00253027 0.00116246)
(-0.000887539 0.00241281 0.00116246)
(-0.00129304 0.00222203 0.00116246)
(-0.00165924 0.00196374 0.00116246)
(-0.00197504 0.00164578 0.00116246)
(-0.00223082 0.00127782 0.00116246)
(-0.00241882 0.00087103 0.00116246)
(-0.00253332 0.000437773 0.00116246)
(-0.00257086 -8.78507e-06 0.00116246)
(-0.00253027 -0.000455077 0.00116246)
(-0.00241281 -0.00088754 0.00116246)
(-0.00222203 -0.00129304 0.00116246)
(-0.00196374 -0.00165924 0.00116246)
(-0.00164578 -0.00197504 0.00116246)
(-0.00127782 -0.00223082 0.00116246)
(-0.00087103 -0.00241882 0.00116246)
(-0.000437773 -0.00253332 0.00116246)
(8.78524e-06 -0.00257086 0.00116246)
(0.000455077 -0.00253027 0.00116246)
(0.00088754 -0.00241281 0.00116246)
(0.00129304 -0.00222203 0.00116246)
(0.00165924 -0.00196374 0.00116246)
(0.00197504 -0.00164578 0.00116246)
(0.00223082 -0.00127782 0.00116246)
(0.00241882 -0.00087103 0.00116246)
(0.00253332 -0.000437773 0.00116246)
(0.00257086 8.78505e-06 0.00116246)
(0.00253027 0.000455077 0.00116246)
(0.00241281 0.00088754 0.00116246)
(0.00222203 0.00129304 0.00116246)
(0.00196374 0.00165924 0.00116246)
(0.00164579 0.00197504 0.00116246)
(0.00127782 0.00223082 0.00116246)
(0.00087103 0.00241882 0.00116246)
(0.000437773 0.00253332 0.00116246)
(-0.00013884 0.00249687 0.00119783)
(-0.000570308 0.00243483 0.00119784)
(-0.000984447 0.00229881 0.00119783)
(-0.00136867 0.00209293 0.00119784)
(-0.00171131 0.00182347 0.00119784)
(-0.00200196 0.0014986 0.00119784)
(-0.00223177 0.0011282 0.00119783)
(-0.00239378 0.000723514 0.00119784)
(-0.00248305 0.000296847 0.00119783)
(-0.00249687 -0.00013884 0.00119783)
(-0.00243483 -0.000570308 0.00119784)
(-0.00229881 -0.000984448 0.00119783)
(-0.00209293 -0.00136867 0.00119784)
(-0.00182347 -0.00171132 0.00119783)
(-0.0014986 -0.00200196 0.00119784)
(-0.0011282 -0.00223177 0.00119783)
(-0.000723514 -0.00239378 0.00119783)
(-0.000296847 -0.00248305 0.00119783)
(0.00013884 -0.00249687 0.00119783)
(0.000570308 -0.00243483 0.00119783)
(0.000984448 -0.00229881 0.00119783)
(0.00136867 -0.00209293 0.00119784)
(0.00171132 -0.00182347 0.00119784)
(0.00200196 -0.0014986 0.00119784)
(0.00223177 -0.0011282 0.00119783)
(0.00239378 -0.000723514 0.00119784)
(0.00248305 -0.000296847 0.00119783)
(0.00249687 0.00013884 0.00119783)
(0.00243483 0.000570308 0.00119784)
(0.00229881 0.000984448 0.00119783)
(0.00209293 0.00136867 0.00119784)
(0.00182347 0.00171132 0.00119784)
(0.0014986 0.00200196 0.00119784)
(0.0011282 0.00223177 0.00119783)
(0.000723514 0.00239378 0.00119784)
(0.000296847 0.00248305 0.00119783)
(-1.20822e-07 0.00298534 0.00143236)
(-0.000518517 0.00293996 0.00143236)
(-0.00102116 0.00280526 0.00143236)
(-0.00149277 0.00258532 0.00143236)
(-0.00191903 0.00228682 0.00143236)
(-0.00228698 0.00191884 0.00143236)
(-0.00258544 0.00149256 0.00143236)
(-0.00280534 0.00102093 0.00143236)
(-0.00294 0.000518278 0.00143236)
(-0.00298534 -1.2107e-07 0.00143236)
(-0.00293996 -0.000518517 0.00143236)
(-0.00280526 -0.00102116 0.00143236)
(-0.00258532 -0.00149277 0.00143236)
(-0.00228682 -0.00191903 0.00143236)
(-0.00191884 -0.00228698 0.00143236)
(-0.00149256 -0.00258544 0.00143236)
(-0.00102093 -0.00280534 0.00143236)
(-0.000518278 -0.00294 0.00143236)
(1.21298e-07 -0.00298534 0.00143236)
(0.000518517 -0.00293996 0.00143236)
(0.00102116 -0.00280526 0.00143236)
(0.00149277 -0.00258532 0.00143236)
(0.00191903 -0.00228682 0.00143236)
(0.00228698 -0.00191884 0.00143236)
(0.00258544 -0.00149256 0.00143236)
(0.00280534 -0.00102093 0.00143236)
(0.00294 -0.000518278 0.00143236)
(0.00298534 1.2105e-07 0.00143236)
(0.00293996 0.000518517 0.00143236)
(0.00280526 0.00102116 0.00143236)
(0.00258532 0.00149277 0.00143236)
(0.00228682 0.00191903 0.00143236)
(0.00191884 0.00228698 0.00143236)
(0.00149256 0.00258544 0.00143236)
(0.00102093 0.00280534 0.00143236)
(0.000518278 0.00294 0.00143236)
(-0.000113888 0.00286602 0.00146198)
(-0.000609837 0.0028027 0.00146198)
(-0.00108726 0.00265422 0.00146198)
(-0.00153164 0.0024251 0.00146198)
(-0.00192948 0.00212229 0.00146198)
(-0.0022687 0.001755 0.00146198)
(-0.00253899 0.00133438 0.00146198)
(-0.00273213 0.000873216 0.00146198)
(-0.00284225 0.00038552 0.00146198)
(-0.00286602 -0.000113888 0.00146198)
(-0.0028027 -0.000609837 0.00146198)
(-0.00265422 -0.00108726 0.00146198)
(-0.0024251 -0.00153164 0.00146198)
(-0.00212229 -0.00192948 0.00146198)
(-0.001755 -0.0022687 0.00146198)
(-0.00133438 -0.00253899 0.00146198)
(-0.000873216 -0.00273213 0.00146198)
(-0.00038552 -0.00284225 0.00146198)
(0.000113888 -0.00286602 0.00146198)
(0.000609837 -0.0028027 0.00146198)
(0.00108726 -0.00265422 0.00146198)
(0.00153164 -0.0024251 0.00146198)
(0.00192948 -0.00212229 0.00146198)
(0.0022687 -0.001755 0.00146198)
(0.00253899 -0.00133438 0.00146198)
(0.00273213 -0.000873216 0.00146198)
(0.00284225 -0.00038552 0.00146198)
(0.00286602 0.000113888 0.00146198)
(0.0028027 0.000609837 0.00146198)
(0.00265422 0.00108726 0.00146198)
(0.0024251 0.00153164 0.00146198)
(0.00212229 0.00192948 0.00146198)
(0.001755 0.0022687 0.00146198)
(0.00133438 0.00253899 0.00146198)
(0.000873217 0.00273213 0.00146198)
(0.00038552 0.00284225 0.00146198)
(-0.000234918 0.00274364 0.00148226)
(-0.000707777 0.00266117 0.00148226)
(-0.00115913 0.00249783 0.00148226)
(-0.00157527 0.0022586 0.00148226)
(-0.00194354 0.00195075 0.00148226)
(-0.00225275 0.00158362 0.00148226)
(-0.00249352 0.00116838 0.00148226)
(-0.00265853 0.000717631 0.00148226)
(-0.00274275 0.00024508 0.00148226)
(-0.00274364 -0.000234918 0.00148226)
(-0.00266117 -0.000707778 0.00148226)
(-0.00249783 -0.00115913 0.00148226)
(-0.0022586 -0.00157527 0.00148226)
(-0.00195075 -0.00194354 0.00148226)
(-0.00158362 -0.00225275 0.00148226)
(-0.00116838 -0.00249352 0.00148226)
(-0.000717631 -0.00265853 0.00148226)
(-0.00024508 -0.00274275 0.00148226)
(0.000234919 -0.00274364 0.00148226)
(0.000707778 -0.00266117 0.00148226)
(0.00115913 -0.00249783 0.00148226)
(0.00157527 -0.0022586 0.00148226)
(0.00194354 -0.00195075 0.00148226)
(0.00225275 -0.00158362 0.00148226)
(0.00249352 -0.00116838 0.00148226)
(0.00265853 -0.000717631 0.00148226)
(0.00274275 -0.00024508 0.00148226)
(0.00274364 0.000234918 0.00148226)
(0.00266117 0.000707778 0.00148226)
(0.00249783 0.00115913 0.00148226)
(0.0022586 0.00157527 0.00148226)
(0.00195075 0.00194354 0.00148226)
(0.00158362 0.00225275 0.00148226)
(0.00116838 0.00249352 0.00148226)
(0.000717631 0.00265853 0.00148226)
(0.00024508 0.00274275 0.00148226)
(-0.000120375 0.00325009 0.00176862)
(-0.000682919 0.00317981 0.00176862)
(-0.00122471 0.00301292 0.00176862)
(-0.00172929 0.00275448 0.00176862)
(-0.00218133 0.00241234 0.00176862)
(-0.00256709 0.00199691 0.00176862)
(-0.00287485 0.0015208 0.00176862)
(-0.00309526 0.000998481 0.00176862)
(-0.00322162 0.000445825 0.00176862)
(-0.00325009 -0.000120375 0.00176862)
(-0.00317981 -0.000682919 0.00176862)
(-0.00301292 -0.00122471 0.00176862)
(-0.00275448 -0.0017293 0.00176862)
(-0.00241234 -0.00218133 0.00176862)
(-0.00199691 -0.00256709 0.00176862)
(-0.0015208 -0.00287485 0.00176862)
(-0.00099848 -0.00309526 0.00176862)
(-0.000445825 -0.00322162 0.00176862)
(0.000120375 -0.00325009 0.00176862)
(0.000682919 -0.00317981 0.00176862)
(0.00122471 -0.00301292 0.00176862)
(0.0017293 -0.00275448 0.00176862)
(0.00218133 -0.00241234 0.00176862)