/*--------------------------------*- C++ -*----------------------------------*\
| =========                 |                                                 |
| \\      /  F ield         | OpenFOAM: The Open Source CFD Toolbox           |
|  \\    /   O peration     | Version:  2312                                  |
|   \\  /    A nd           | Website:  www.openfoam.com                      |
|    \\/     M anipulation  |                                                 |
\*---------------------------------------------------------------------------*/
FoamFile
{
    version     2.0;
    format      ascii;
    arch        "LSB;label=32;scalar=64";
    class       pointVectorField;
    location    "0.4";
    object      pointD;
}
// * * * * * * * * * * * * * * * * * * * * * * * * * * * * * * * * * * * * * //

dimensions      [0 1 0 0 0 0 0];

internalField   nonuniform List<vector> 
2164
(
(0 0 0)
(0 0 0)
(0 0 0)
(0 0 0)
(0 0 0)
(0 0 0)
(0 0 0)
(0 0 0)
(0 0 0)
(0 0 0)
(0 0 0)
(0 0 0)
(0 0 0)
(0 0 0)
(0 0 0)
(0 0 0)
(0 0 0)
(0 0 0)
(0 0 0)
(0 0 0)
(0 0 0)
(0 0 0)
(0 0 0)
(0 0 0)
(0 0 0)
(0 0 0)
(0 0 0)
(0 0 0)
(0 0 0)
(0 0 0)
(0 0 0)
(0 0 0)
(0 0 0)
(0 0 0)
(0 0 0)
(0 0 0)
(0.000132249 0.000503469 4.21988e-05)
(4.28137e-05 0.000518785 4.21989e-05)
(-4.79227e-05 0.000518339 4.21994e-05)
(-0.000137203 0.000502142 4.21998e-05)
(-0.000222314 0.000470689 4.21997e-05)
(-0.000300671 0.000424933 4.21998e-05)
(-0.000369893 0.000366266 4.21998e-05)
(-0.000427874 0.000296471 4.21992e-05)
(-0.000472856 0.000217667 4.21991e-05)
(-0.000503469 0.000132249 4.21988e-05)
(-0.000518785 4.28137e-05 4.21989e-05)
(-0.000518338 -4.79228e-05 4.21994e-05)
(-0.000502142 -0.000137203 4.21998e-05)
(-0.000470689 -0.000222314 4.21997e-05)
(-0.000424933 -0.000300671 4.21998e-05)
(-0.000366266 -0.000369893 4.21997e-05)
(-0.000296471 -0.000427874 4.21992e-05)
(-0.000217667 -0.000472856 4.21991e-05)
(-0.000132249 -0.000503469 4.21988e-05)
(-4.28136e-05 -0.000518785 4.21989e-05)
(4.79228e-05 -0.000518339 4.21994e-05)
(0.000137203 -0.000502142 4.21998e-05)
(0.000222314 -0.000470689 4.21997e-05)
(0.000300671 -0.000424933 4.21998e-05)
(0.000369893 -0.000366266 4.21998e-05)
(0.000427874 -0.000296471 4.21992e-05)
(0.000472856 -0.000217667 4.21991e-05)
(0.000503469 -0.000132249 4.21988e-05)
(0.000518785 -4.28137e-05 4.21989e-05)
(0.000518339 4.79228e-05 4.21994e-05)
(0.000502143 0.000137203 4.21998e-05)
(0.000470689 0.000222314 4.21997e-05)
(0.000424933 0.000300671 4.21998e-05)
(0.000366266 0.000369893 4.21998e-05)
(0.000296471 0.000427874 4.21992e-05)
(0.000217667 0.000472856 4.21991e-05)
(7.02767e-05 0.000531252 7.9012e-05)
(-2.30417e-05 0.000535384 7.90119e-05)
(-0.000115659 0.00052325 7.90123e-05)
(-0.000204764 0.000495216 7.90126e-05)
(-0.000287647 0.000452136 7.90126e-05)
(-0.000361789 0.000395317 7.90124e-05)
(-0.000424939 0.000326488 7.90123e-05)
(-0.000475178 0.000247737 7.90122e-05)
(-0.000510978 0.00016146 7.9012e-05)
(-0.000531252 7.02767e-05 7.9012e-05)
(-0.000535384 -2.30417e-05 7.90119e-05)
(-0.00052325 -0.000115659 7.90122e-05)
(-0.000495216 -0.000204764 7.90126e-05)
(-0.000452136 -0.000287647 7.90126e-05)
(-0.000395317 -0.000361789 7.90124e-05)
(-0.000326488 -0.000424939 7.90123e-05)
(-0.000247737 -0.000475178 7.90122e-05)
(-0.00016146 -0.000510978 7.9012e-05)
(-7.02766e-05 -0.000531252 7.9012e-05)
(2.30417e-05 -0.000535384 7.90119e-05)
(0.000115659 -0.00052325 7.90122e-05)
(0.000204764 -0.000495216 7.90126e-05)
(0.000287647 -0.000452136 7.90126e-05)
(0.00036179 -0.000395317 7.90124e-05)
(0.000424939 -0.000326488 7.90123e-05)
(0.000475178 -0.000247737 7.90122e-05)
(0.000510978 -0.00016146 7.9012e-05)
(0.000531252 -7.02767e-05 7.9012e-05)
(0.000535385 2.30417e-05 7.90119e-05)
(0.00052325 0.000115659 7.90123e-05)
(0.000495216 0.000204764 7.90126e-05)
(0.000452136 0.000287647 7.90126e-05)
(0.000395317 0.000361789 7.90125e-05)
(0.000326488 0.000424939 7.90123e-05)
(0.000247737 0.000475178 7.90122e-05)
(0.00016146 0.000510978 7.9012e-05)
(0 0 0)
(0 0 0)
(0 0 0)
(0 0 0)
(0 0 0)
(0 0 0)
(0 0 0)
(0 0 0)
(0 0 0)
(0 0 0)
(0 0 0)
(0 0 0)
(0 0 0)
(0 0 0)
(0 0 0)
(0 0 0)
(0 0 0)
(0 0 0)
(0 0 0)
(0 0 0)
(0 0 0)
(0 0 0)
(0 0 0)
(0 0 0)
(0 0 0)
(0 0 0)
(0 0 0)
(0 0 0)
(0 0 0)
(0 0 0)
(0 0 0)
(0 0 0)
(0 0 0)
(0 0 0)
(0 0 0)
(0 0 0)
(-3.53364e-06 0.000556585 0.00010601)
(-0.000100129 0.000547516 0.00010601)
(-0.000193684 0.00052181 0.00010601)
(-0.000281352 0.00048025 0.00010601)
(-0.000360472 0.000424098 0.00010601)
(-0.00042864 0.000355059 0.00010601)
(-0.000483783 0.000275233 0.00010601)
(-0.000524227 0.000187043 0.00010601)
(-0.000548743 9.31703e-05 0.00010601)
(-0.000556585 -3.53367e-06 0.00010601)
(-0.000547516 -0.000100129 0.00010601)
(-0.00052181 -0.000193684 0.00010601)
(-0.00048025 -0.000281352 0.00010601)
(-0.000424098 -0.000360472 0.00010601)
(-0.000355059 -0.00042864 0.00010601)
(-0.000275233 -0.000483783 0.00010601)
(-0.000187043 -0.000524227 0.00010601)
(-9.31703e-05 -0.000548743 0.00010601)
(3.5337e-06 -0.000556585 0.00010601)
(0.000100129 -0.000547516 0.00010601)
(0.000193684 -0.00052181 0.00010601)
(0.000281352 -0.00048025 0.00010601)
(0.000360472 -0.000424098 0.00010601)
(0.00042864 -0.000355059 0.00010601)
(0.000483783 -0.000275233 0.00010601)
(0.000524227 -0.000187043 0.00010601)
(0.000548743 -9.31703e-05 0.00010601)
(0.000556585 3.53367e-06 0.00010601)
(0.000547516 0.000100129 0.00010601)
(0.00052181 0.000193684 0.00010601)
(0.00048025 0.000281352 0.00010601)
(0.000424098 0.000360472 0.00010601)
(0.000355059 0.00042864 0.00010601)
(0.000275233 0.000483783 0.00010601)
(0.000187043 0.000524227 0.00010601)
(9.31704e-05 0.000548743 0.00010601)
(0 0 0)
(0 0 0)
(0 0 0)
(0 0 0)
(0 0 0)
(0 0 0)
(0 0 0)
(0 0 0)
(0 0 0)
(0 0 0)
(0 0 0)
(0 0 0)
(0 0 0)
(0 0 0)
(0 0 0)
(0 0 0)
(0 0 0)
(0 0 0)
(0 0 0)
(0 0 0)
(0 0 0)
(0 0 0)
(0 0 0)
(0 0 0)
(0 0 0)
(0 0 0)
(0 0 0)
(0 0 0)
(0 0 0)
(0 0 0)
(0 0 0)
(0 0 0)
(0 0 0)
(0 0 0)
(0 0 0)
(0 0 0)
(-8.77002e-05 0.000575429 0.000121721)
(-0.000186289 0.000551458 0.000121721)
(-0.000279219 0.000510731 0.000121721)
(-0.000363665 0.000454486 0.000121721)
(-0.00043706 0.000384431 0.000121721)
(-0.000497176 0.000302696 0.000121721)
(-0.000542186 0.000211763 0.00012172)
(-0.000570721 0.000114397 0.000121721)
(-0.000581915 1.35546e-05 0.000121721)
(-0.000575429 -8.77002e-05 0.000121721)
(-0.000551458 -0.000186289 0.000121721)
(-0.000510731 -0.000279219 0.000121721)
(-0.000454486 -0.000363665 0.000121721)
(-0.000384431 -0.00043706 0.000121721)
(-0.000302696 -0.000497176 0.000121721)
(-0.000211763 -0.000542186 0.00012172)
(-0.000114397 -0.000570721 0.000121721)
(-1.35546e-05 -0.000581915 0.000121721)
(8.77002e-05 -0.000575429 0.000121721)
(0.000186289 -0.000551458 0.000121721)
(0.000279219 -0.000510731 0.000121721)
(0.000363665 -0.000454486 0.000121721)
(0.00043706 -0.000384431 0.000121721)
(0.000497176 -0.000302696 0.000121721)
(0.000542186 -0.000211763 0.00012172)
(0.000570721 -0.000114397 0.000121721)
(0.000581915 -1.35546e-05 0.000121721)
(0.000575429 8.77002e-05 0.000121721)
(0.000551458 0.000186289 0.000121721)
(0.000510731 0.000279219 0.000121721)
(0.000454486 0.000363665 0.000121721)
(0.000384431 0.00043706 0.000121721)
(0.000302696 0.000497176 0.000121721)
(0.000211763 0.000542186 0.00012172)
(0.000114397 0.000570721 0.000121721)
(1.35546e-05 0.000581915 0.000121721)
(0 0 0)
(0 0 0)
(0 0 0)
(0 0 0)
(0 0 0)
(0 0 0)
(0 0 0)
(0 0 0)
(0 0 0)
(0 0 0)
(0 0 0)
(0 0 0)
(0 0 0)
(0 0 0)
(0 0 0)
(0 0 0)
(0 0 0)
(0 0 0)
(0 0 0)
(0 0 0)
(0 0 0)
(0 0 0)
(0 0 0)
(0 0 0)
(0 0 0)
(0 0 0)
(0 0 0)
(0 0 0)
(0 0 0)
(0 0 0)
(0 0 0)
(0 0 0)
(0 0 0)
(0 0 0)
(0 0 0)
(0 0 0)
(0.000179482 0.00103065 0.000182742)
(-2.21488e-06 0.00104616 0.000182742)
(-0.000183845 0.00102988 0.000182743)
(-0.000359888 0.000982311 0.000182744)
(-0.000524997 0.000904893 0.000182744)
(-0.000674154 0.000799981 0.000182744)
(-0.000802827 0.000670762 0.000182743)
(-0.000907107 0.000521162 0.000182742)
(-0.000983826 0.000355725 0.000182742)
(-0.00103065 0.000179482 0.000182742)
(-0.00104616 -2.21498e-06 0.000182742)
(-0.00102988 -0.000183845 0.000182743)
(-0.000982311 -0.000359888 0.000182744)
(-0.000904893 -0.000524997 0.000182744)
(-0.000799981 -0.000674154 0.000182744)
(-0.000670762 -0.000802828 0.000182743)
(-0.000521161 -0.000907108 0.000182742)
(-0.000355725 -0.000983826 0.000182742)
(-0.000179482 -0.00103065 0.000182742)
(2.21503e-06 -0.00104616 0.000182742)
(0.000183845 -0.00102988 0.000182743)
(0.000359888 -0.000982311 0.000182744)
(0.000524997 -0.000904893 0.000182744)
(0.000674154 -0.000799981 0.000182744)
(0.000802828 -0.000670762 0.000182743)
(0.000907108 -0.000521162 0.000182742)
(0.000983826 -0.000355725 0.000182742)
(0.00103065 -0.000179482 0.000182742)
(0.00104616 2.21496e-06 0.000182742)
(0.00102988 0.000183845 0.000182743)
(0.000982311 0.000359888 0.000182744)
(0.000904893 0.000524997 0.000182744)
(0.000799981 0.000674154 0.000182744)
(0.000670762 0.000802827 0.000182743)
(0.000521162 0.000907107 0.000182742)
(0.000355726 0.000983826 0.000182742)
(8.90819e-05 0.00106104 0.000235517)
(-9.65204e-05 0.00106039 0.000235517)
(-0.000279188 0.00102752 0.000235517)
(-0.000453375 0.000963432 0.000235518)
(-0.000613785 0.000870068 0.000235518)
(-0.000755545 0.000750267 0.000235518)
(-0.00087435 0.000607669 0.000235518)
(-0.000966587 0.000446607 0.000235517)
(-0.00102946 0.000271976 0.000235517)
(-0.00106104 8.90818e-05 0.000235517)
(-0.00106039 -9.65205e-05 0.000235517)
(-0.00102752 -0.000279188 0.000235517)
(-0.000963432 -0.000453375 0.000235518)
(-0.000870068 -0.000613785 0.000235518)
(-0.000750267 -0.000755545 0.000235518)
(-0.000607669 -0.00087435 0.000235518)
(-0.000446607 -0.000966587 0.000235517)
(-0.000271976 -0.00102946 0.000235517)
(-8.90818e-05 -0.00106104 0.000235517)
(9.65206e-05 -0.00106039 0.000235517)
(0.000279188 -0.00102752 0.000235517)
(0.000453375 -0.000963432 0.000235518)
(0.000613785 -0.000870068 0.000235518)
(0.000755545 -0.000750267 0.000235518)
(0.00087435 -0.000607669 0.000235518)
(0.000966587 -0.000446607 0.000235517)
(0.00102946 -0.000271976 0.000235517)
(0.00106104 -8.90818e-05 0.000235517)
(0.00106039 9.65205e-05 0.000235517)
(0.00102752 0.000279188 0.000235517)
(0.000963432 0.000453375 0.000235518)
(0.000870068 0.000613785 0.000235518)
(0.000750267 0.000755545 0.000235518)
(0.000607669 0.00087435 0.000235518)
(0.000446607 0.000966587 0.000235517)
(0.000271976 0.00102946 0.000235517)
(-1.40835e-05 0.00108808 0.000282594)
(-0.000202812 0.00106911 0.000282594)
(-0.000385379 0.00101765 0.000282594)
(-0.000556238 0.000935268 0.000282595)
(-0.000710195 0.000824468 0.000282595)
(-0.000842573 0.000688618 0.000282595)
(-0.00094935 0.000531845 0.000282594)
(-0.00102728 0.000358913 0.000282594)
(-0.001074 0.000175075 0.000282594)
(-0.00108808 -1.40835e-05 0.000282594)
(-0.00106911 -0.000202812 0.000282594)
(-0.00101765 -0.000385379 0.000282594)
(-0.000935268 -0.000556238 0.000282595)
(-0.000824468 -0.000710196 0.000282595)
(-0.000688618 -0.000842573 0.000282595)
(-0.000531845 -0.00094935 0.000282594)
(-0.000358913 -0.00102728 0.000282594)
(-0.000175075 -0.001074 0.000282594)
(1.40836e-05 -0.00108808 0.000282594)
(0.000202812 -0.00106911 0.000282594)
(0.00038538 -0.00101765 0.000282594)
(0.000556238 -0.000935268 0.000282595)
(0.000710196 -0.000824468 0.000282595)
(0.000842573 -0.000688618 0.000282595)
(0.00094935 -0.000531845 0.000282594)
(0.00102728 -0.000358913 0.000282594)
(0.001074 -0.000175075 0.000282594)
(0.00108808 1.40835e-05 0.000282594)
(0.00106911 0.000202812 0.000282594)
(0.00101765 0.000385379 0.000282594)
(0.000935268 0.000556238 0.000282595)
(0.000824468 0.000710196 0.000282595)
(0.000688618 0.000842573 0.000282595)
(0.000531845 0.00094935 0.000282594)
(0.000358913 0.00102728 0.000282594)
(0.000175075 0.001074 0.000282594)
(-0.000126202 0.00110466 0.00032136)
(-0.000316107 0.00106597 0.00032136)
(-0.000496407 0.000994882 0.00032136)
(-0.000661624 0.000893568 0.00032136)
(-0.000806739 0.000765102 0.00032136)
(-0.000927341 0.000613389 0.00032136)
(-0.00101977 0.000443039 0.00032136)
(-0.00108121 0.000259227 0.00032136)
(-0.0011098 6.75396e-05 0.00032136)
(-0.00110466 -0.000126202 0.00032136)
(-0.00106597 -0.000316107 0.00032136)
(-0.000994882 -0.000496407 0.00032136)
(-0.000893567 -0.000661624 0.00032136)
(-0.000765102 -0.000806739 0.00032136)
(-0.000613389 -0.000927341 0.00032136)
(-0.000443039 -0.00101977 0.00032136)
(-0.000259227 -0.00108121 0.00032136)
(-6.75396e-05 -0.0011098 0.00032136)
(0.000126202 -0.00110466 0.00032136)
(0.000316107 -0.00106597 0.00032136)
(0.000496407 -0.000994882 0.00032136)
(0.000661624 -0.000893568 0.00032136)
(0.000806739 -0.000765102 0.00032136)
(0.000927341 -0.000613389 0.00032136)
(0.00101977 -0.000443039 0.00032136)
(0.00108121 -0.000259227 0.00032136)
(0.0011098 -6.75396e-05 0.00032136)
(0.00110466 0.000126202 0.00032136)
(0.00106597 0.000316107 0.00032136)
(0.000994882 0.000496407 0.00032136)
(0.000893568 0.000661624 0.00032136)
(0.000765102 0.000806739 0.00032136)
(0.000613389 0.000927341 0.00032136)
(0.000443039 0.00101977 0.00032136)
(0.000259227 0.00108121 0.00032136)
(6.75397e-05 0.0011098 0.00032136)
(0.000176619 0.00155276 0.000400063)
(-9.56993e-05 0.00155984 0.000400063)
(-0.00036511 0.00151953 0.000400064)
(-0.000623426 0.00143304 0.000400065)
(-0.0008628 0.00130301 0.000400065)
(-0.00107596 0.00113339 0.000400065)
(-0.00125642 0.000929337 0.000400065)
(-0.00139871 0.000697043 0.000400064)
(-0.0014985 0.000443569 0.000400063)
(-0.00155276 0.000176619 0.000400063)
(-0.00155984 -9.56994e-05 0.000400063)
(-0.00151953 -0.000365111 0.000400064)
(-0.00143304 -0.000623426 0.000400065)
(-0.00130301 -0.0008628 0.000400065)
(-0.00113339 -0.00107596 0.000400065)
(-0.000929337 -0.00125642 0.000400065)
(-0.000697043 -0.00139871 0.000400064)
(-0.000443569 -0.0014985 0.000400063)
(-0.000176618 -0.00155276 0.000400063)
(9.56995e-05 -0.00155984 0.000400063)
(0.000365111 -0.00151953 0.000400064)
(0.000623426 -0.00143304 0.000400065)
(0.0008628 -0.00130301 0.000400065)
(0.00107596 -0.00113339 0.000400065)
(0.00125642 -0.000929337 0.000400065)
(0.00139871 -0.000697043 0.000400064)
(0.0014985 -0.000443569 0.000400063)
(0.00155276 -0.000176619 0.000400063)
(0.00155984 9.56994e-05 0.000400063)
(0.00151953 0.00036511 0.000400064)
(0.00143304 0.000623426 0.000400065)
(0.00130301 0.0008628 0.000400065)
(0.00113339 0.00107596 0.000400065)
(0.000929338 0.00125642 0.000400065)
(0.000697043 0.00139871 0.000400064)
(0.000443569 0.0014985 0.000400063)
(6.4451e-05 0.00156876 0.000460563)
(-0.000208941 0.00155612 0.000460564)
(-0.000475984 0.0014962 0.000460564)
(-0.000728566 0.00139082 0.000460564)
(-0.000959009 0.00124317 0.000460565)
(-0.00116031 0.00105776 0.000460564)
(-0.00132636 0.000840199 0.000460565)
(-0.00145211 0.000597114 0.000460564)
(-0.00153374 0.000335884 0.000460564)
(-0.00156876 6.44509e-05 0.000460563)
(-0.00155612 -0.000208941 0.000460564)
(-0.0014962 -0.000475985 0.000460564)
(-0.00139082 -0.000728566 0.000460564)
(-0.00124317 -0.000959009 0.000460564)
(-0.00105776 -0.00116031 0.000460564)
(-0.000840199 -0.00132636 0.000460564)
(-0.000597113 -0.00145211 0.000460564)
(-0.000335884 -0.00153374 0.000460564)
(-6.44508e-05 -0.00156876 0.000460563)
(0.000208942 -0.00155612 0.000460564)
(0.000475985 -0.0014962 0.000460564)
(0.000728566 -0.00139082 0.000460564)
(0.000959009 -0.00124317 0.000460565)
(0.00116031 -0.00105776 0.000460564)
(0.00132636 -0.000840199 0.000460565)
(0.00145211 -0.000597114 0.000460564)
(0.00153374 -0.000335884 0.000460564)
(0.00156876 -6.44509e-05 0.000460563)
(0.00155612 0.000208941 0.000460564)
(0.0014962 0.000475985 0.000460564)
(0.00139082 0.000728566 0.000460564)
(0.00124317 0.000959009 0.000460565)
(0.00105776 0.00116031 0.000460564)
(0.000840199 0.00132636 0.000460565)
(0.000597114 0.00145211 0.000460564)
(0.000335885 0.00153374 0.000460564)
(-5.92624e-05 0.00158136 0.000515744)
(-0.000332963 0.00154705 0.000515744)
(-0.000596545 0.00146573 0.000515744)
(-0.000842002 0.00133987 0.000515744)
(-0.00106188 0.0011733 0.000515744)
(-0.00124949 0.000971082 0.000515744)
(-0.00139913 0.000739358 0.000515744)
(-0.00150626 0.000485168 0.000515744)
(-0.00156763 0.000216238 0.000515744)
(-0.00158136 -5.92625e-05 0.000515744)
(-0.00154705 -0.000332963 0.000515744)
(-0.00146573 -0.000596545 0.000515744)
(-0.00133987 -0.000842002 0.000515744)
(-0.0011733 -0.00106188 0.000515744)
(-0.000971082 -0.00124949 0.000515744)
(-0.000739358 -0.00139913 0.000515744)
(-0.000485168 -0.00150626 0.000515744)
(-0.000216238 -0.00156763 0.000515743)
(5.92626e-05 -0.00158136 0.000515744)
(0.000332963 -0.00154705 0.000515744)
(0.000596546 -0.00146573 0.000515744)
(0.000842002 -0.00133987 0.000515744)
(0.00106188 -0.0011733 0.000515744)
(0.00124949 -0.000971082 0.000515744)
(0.00139913 -0.000739358 0.000515744)
(0.00150626 -0.000485168 0.000515744)
(0.00156763 -0.000216238 0.000515744)
(0.00158136 5.92625e-05 0.000515744)
(0.00154705 0.000332963 0.000515744)
(0.00146573 0.000596545 0.000515744)
(0.00133987 0.000842002 0.000515744)
(0.0011733 0.00106188 0.000515744)
(0.000971082 0.00124949 0.000515744)
(0.000739358 0.00139913 0.000515744)
(0.000485168 0.00150626 0.000515744)
(0.000216239 0.00156763 0.000515744)
(-0.000189174 0.00158215 0.000563278)
(-0.000461036 0.00152526 0.000563278)
(-0.000718892 0.00142203 0.000563278)
(-0.000954903 0.0012756 0.000563278)
(-0.0011619 0.0010904 0.000563278)
(-0.00133359 0.000872071 0.000563278)
(-0.00146477 0.000627246 0.000563277)
(-0.00155143 0.000363363 0.000563278)
(-0.00159096 8.84375e-05 0.000563278)
(-0.00158215 -0.000189174 0.000563278)
(-0.00152526 -0.000461036 0.000563277)
(-0.00142203 -0.000718892 0.000563278)
(-0.00127559 -0.000954903 0.000563278)
(-0.0010904 -0.0011619 0.000563277)
(-0.000872071 -0.00133359 0.000563278)
(-0.000627246 -0.00146477 0.000563277)
(-0.000363363 -0.00155143 0.000563277)
(-8.84374e-05 -0.00159096 0.000563278)
(0.000189174 -0.00158215 0.000563278)
(0.000461036 -0.00152526 0.000563277)
(0.000718892 -0.00142203 0.000563278)
(0.000954903 -0.0012756 0.000563278)
(0.0011619 -0.0010904 0.000563278)
(0.00133359 -0.000872071 0.000563278)
(0.00146477 -0.000627246 0.000563277)
(0.00155143 -0.000363363 0.000563278)
(0.00159096 -8.84375e-05 0.000563278)
(0.00158215 0.000189174 0.000563278)
(0.00152526 0.000461036 0.000563278)
(0.00142203 0.000718892 0.000563278)
(0.0012756 0.000954903 0.000563278)
(0.0010904 0.0011619 0.000563278)
(0.000872071 0.00133359 0.000563278)
(0.000627246 0.00146477 0.000563277)
(0.000363363 0.00155143 0.000563278)
(8.84376e-05 0.00159096 0.000563278)
(0.000113724 0.00205273 0.000659885)
(-0.00024446 0.00204129 0.000659886)
(-0.000595212 0.00196783 0.000659886)
(-0.000927878 0.00183458 0.000659886)
(-0.00123235 0.00164558 0.000659887)
(-0.00149938 0.00140659 0.000659887)
(-0.00172085 0.00112485 0.000659887)
(-0.00189004 0.000808939 0.000659886)
(-0.0020018 0.000468447 0.000659886)
(-0.00205273 0.000113723 0.000659885)
(-0.00204129 -0.00024446 0.000659886)
(-0.00196783 -0.000595212 0.000659886)
(-0.00183458 -0.000927878 0.000659886)
(-0.00164558 -0.00123235 0.000659887)
(-0.00140659 -0.00149938 0.000659887)
(-0.00112485 -0.00172085 0.000659887)
(-0.000808939 -0.00189004 0.000659886)
(-0.000468447 -0.0020018 0.000659886)
(-0.000113723 -0.00205273 0.000659885)
(0.00024446 -0.00204129 0.000659886)
(0.000595212 -0.00196783 0.000659886)
(0.000927878 -0.00183458 0.000659886)
(0.00123235 -0.00164558 0.000659887)
(0.00149938 -0.00140659 0.000659887)
(0.00172085 -0.00112485 0.000659887)
(0.00189004 -0.000808939 0.000659886)
(0.0020018 -0.000468447 0.000659886)
(0.00205273 -0.000113724 0.000659885)
(0.00204129 0.00024446 0.000659886)
(0.00196783 0.000595212 0.000659886)
(0.00183458 0.000927878 0.000659886)
(0.00164558 0.00123235 0.000659887)
(0.00140659 0.00149938 0.000659887)
(0.00112485 0.00172085 0.000659887)
(0.000808939 0.00189004 0.000659886)
(0.000468447 0.0020018 0.000659886)
(-6.89737e-06 0.00203959 0.000720151)
(-0.000360964 0.00200741 0.000720151)
(-0.000704063 0.00191423 0.000720152)
(-0.00102577 0.00176289 0.000720152)
(-0.00131631 0.00155799 0.000720152)
(-0.00156685 0.00130574 0.000720153)
(-0.00176979 0.00101382 0.000720152)
(-0.00191895 0.0006911 0.000720152)
(-0.00200981 0.000347379 0.000720152)
(-0.00203959 -6.89753e-06 0.000720151)
(-0.00200741 -0.000360965 0.000720151)
(-0.00191423 -0.000704063 0.000720152)
(-0.00176289 -0.00102577 0.000720152)
(-0.00155799 -0.00131631 0.000720152)
(-0.00130574 -0.00156685 0.000720152)
(-0.00101382 -0.00176979 0.000720152)
(-0.0006911 -0.00191895 0.000720152)
(-0.000347379 -0.00200981 0.000720151)
(6.89764e-06 -0.00203959 0.000720151)
(0.000360965 -0.00200741 0.000720151)
(0.000704063 -0.00191423 0.000720152)
(0.00102577 -0.00176289 0.000720152)
(0.00131631 -0.00155799 0.000720152)
(0.00156685 -0.00130574 0.000720153)
(0.00176979 -0.00101382 0.000720152)
(0.00191895 -0.0006911 0.000720152)
(0.00200981 -0.000347379 0.000720152)
(0.00203959 6.89751e-06 0.000720151)
(0.00200741 0.000360965 0.000720151)
(0.00191423 0.000704063 0.000720152)
(0.00176289 0.00102577 0.000720152)
(0.00155799 0.00131631 0.000720152)
(0.00130574 0.00156685 0.000720153)
(0.00101382 0.00176979 0.000720152)
(0.000691101 0.00191895 0.000720152)
(0.00034738 0.00200981 0.000720152)
(-0.000137296 0.00202368 0.000775008)
(-0.000486618 0.0019691 0.000775008)
(-0.000821155 0.00185468 0.000775008)
(-0.00113074 0.00168391 0.000775008)
(-0.00140597 0.00146198 0.000775008)
(-0.00163848 0.00119562 0.000775008)
(-0.00182121 0.000892939 0.000775008)
(-0.00194859 0.000563125 0.000775008)
(-0.00201678 0.000216198 0.000775008)
(-0.00202368 -0.000137296 0.000775008)
(-0.0019691 -0.000486618 0.000775008)
(-0.00185468 -0.000821156 0.000775008)
(-0.00168391 -0.00113074 0.000775008)
(-0.00146198 -0.00140597 0.000775008)
(-0.00119562 -0.00163848 0.000775008)
(-0.000892939 -0.00182121 0.000775008)
(-0.000563125 -0.00194859 0.000775008)
(-0.000216198 -0.00201678 0.000775008)
(0.000137296 -0.00202368 0.000775008)
(0.000486618 -0.0019691 0.000775008)
(0.000821156 -0.00185468 0.000775008)
(0.00113074 -0.00168391 0.000775008)
(0.00140597 -0.00146198 0.000775008)
(0.00163848 -0.00119562 0.000775008)
(0.00182121 -0.000892939 0.000775008)
(0.00194859 -0.000563125 0.000775008)
(0.00201678 -0.000216198 0.000775008)
(0.00202368 0.000137296 0.000775008)
(0.0019691 0.000486618 0.000775008)
(0.00185468 0.000821156 0.000775008)
(0.00168391 0.00113074 0.000775008)
(0.00146198 0.00140597 0.000775008)
(0.00119562 0.00163848 0.000775008)
(0.000892939 0.00182121 0.000775008)
(0.000563125 0.00194859 0.000775008)
(0.000216199 0.00201678 0.000775008)
(-0.000272256 0.00199598 0.000822394)
(-0.00061472 0.00191838 0.000822395)
(-0.000938503 0.0017825 0.000822394)
(-0.00123377 0.00159244 0.000822394)
(-0.00149155 0.00135401 0.000822394)
(-0.00170402 0.00107443 0.000822394)
(-0.0018647 0.000762211 0.000822394)
(-0.00196873 0.00042683 0.000822394)
(-0.00201294 7.84785e-05 0.000822394)
(-0.00199598 -0.000272257 0.000822394)
(-0.00191838 -0.00061472 0.000822394)
(-0.0017825 -0.000938503 0.000822394)
(-0.00159244 -0.00123377 0.000822394)
(-0.00135401 -0.00149155 0.000822394)
(-0.00107443 -0.00170402 0.000822394)
(-0.000762211 -0.0018647 0.000822394)
(-0.00042683 -0.00196873 0.000822394)
(-7.84784e-05 -0.00201294 0.000822394)
(0.000272257 -0.00199598 0.000822394)
(0.00061472 -0.00191838 0.000822394)
(0.000938503 -0.0017825 0.000822394)
(0.00123377 -0.00159244 0.000822394)
(0.00149155 -0.00135401 0.000822394)
(0.00170402 -0.00107443 0.000822394)
(0.0018647 -0.000762211 0.000822394)
(0.00196873 -0.00042683 0.000822394)
(0.00201294 -7.84785e-05 0.000822394)
(0.00199598 0.000272257 0.000822394)
(0.00191838 0.00061472 0.000822395)
(0.0017825 0.000938503 0.000822394)
(0.00159244 0.00123377 0.000822394)
(0.00135401 0.00149155 0.000822394)
(0.00107443 0.00170402 0.000822394)
(0.000762211 0.0018647 0.000822394)
(0.00042683 0.00196873 0.000822394)
(7.84786e-05 0.00201294 0.000822395)
(2.50334e-06 0.00251225 0.000949398)
(-0.000433783 0.00247452 0.000949398)
(-0.000856887 0.0023616 0.000949398)
(-0.00125396 0.00217693 0.000949398)
(-0.00161292 0.00192611 0.000949399)
(-0.00192289 0.00161676 0.000949399)
(-0.00217442 0.00125829 0.000949399)
(-0.00235989 0.000861592 0.000949399)
(-0.00247365 0.000438713 0.000949399)
(-0.00251225 2.50314e-06 0.000949398)
(-0.00247452 -0.000433783 0.000949398)
(-0.0023616 -0.000856887 0.000949398)
(-0.00217693 -0.00125396 0.000949398)
(-0.00192611 -0.00161293 0.000949399)
(-0.00161676 -0.00192289 0.000949399)
(-0.00125829 -0.00217442 0.000949399)
(-0.000861592 -0.00235989 0.000949399)
(-0.000438712 -0.00247365 0.000949399)
(-2.50297e-06 -0.00251225 0.000949398)
(0.000433784 -0.00247452 0.000949398)
(0.000856887 -0.0023616 0.000949398)
(0.00125396 -0.00217693 0.000949398)
(0.00161293 -0.00192611 0.000949399)
(0.00192289 -0.00161676 0.000949399)
(0.00217442 -0.00125829 0.000949399)
(0.00235989 -0.000861592 0.000949399)
(0.00247365 -0.000438713 0.000949399)
(0.00251225 -2.50316e-06 0.000949398)
(0.00247452 0.000433783 0.000949398)
(0.0023616 0.000856887 0.000949398)
(0.00217693 0.00125396 0.000949398)
(0.00192611 0.00161293 0.000949399)
(0.00161676 0.00192289 0.000949399)
(0.00125829 0.00217442 0.000949399)
(0.000861592 0.00235989 0.000949399)
(0.000438713 0.00247365 0.000949399)
(-0.000116491 0.00245851 0.00100293)
(-0.000541636 0.00240093 0.00100293)
(-0.000950325 0.0022704 0.00100293)
(-0.00133014 0.00207089 0.00100293)
(-0.00166954 0.00180845 0.00100293)
(-0.0019582 0.00149106 0.00100293)
(-0.00218738 0.00112837 0.00100293)
(-0.00235008 0.000731395 0.00100293)
(-0.00244139 0.000312195 0.00100293)
(-0.00245851 -0.000116491 0.00100293)
(-0.00240093 -0.000541636 0.00100293)
(-0.0022704 -0.000950325 0.00100293)
(-0.00207089 -0.00133014 0.00100293)
(-0.00180845 -0.00166954 0.00100293)
(-0.00149106 -0.0019582 0.00100293)
(-0.00112837 -0.00218738 0.00100293)
(-0.000731395 -0.00235008 0.00100293)
(-0.000312194 -0.00244139 0.00100293)
(0.000116491 -0.00245851 0.00100293)
(0.000541636 -0.00240093 0.00100293)
(0.000950325 -0.0022704 0.00100293)
(0.00133014 -0.00207089 0.00100293)
(0.00166954 -0.00180845 0.00100293)
(0.0019582 -0.00149106 0.00100293)
(0.00218738 -0.00112837 0.00100293)
(0.00235008 -0.000731395 0.00100293)
(0.00244139 -0.000312195 0.00100293)
(0.00245851 0.000116491 0.00100293)
(0.00240093 0.000541636 0.00100293)
(0.0022704 0.000950325 0.00100293)
(0.00207089 0.00133014 0.00100293)
(0.00180845 0.00166954 0.00100293)
(0.00149106 0.0019582 0.00100293)
(0.00112837 0.00218738 0.00100293)
(0.000731396 0.00235008 0.00100293)
(0.000312195 0.00244139 0.00100293)
(-0.000243625 0.0024032 0.00105082)
(-0.000657234 0.00232438 0.00105082)
(-0.00105087 0.00217494 0.00105082)
(-0.00141258 0.00195942 0.00105082)
(-0.00173137 0.00168436 0.00105082)
(-0.00199755 0.00135812 0.00105082)
(-0.00220304 0.000990613 0.00105082)
(-0.00234159 0.000593011 0.00105082)
(-0.00240899 0.000177387 0.00105082)
(-0.0024032 -0.000243626 0.00105082)
(-0.00232438 -0.000657234 0.00105082)
(-0.00217494 -0.00105087 0.00105082)
(-0.00195942 -0.00141258 0.00105082)
(-0.00168436 -0.00173137 0.00105082)
(-0.00135812 -0.00199755 0.00105082)
(-0.000990613 -0.00220304 0.00105082)
(-0.000593011 -0.00234159 0.00105082)
(-0.000177387 -0.00240899 0.00105082)
(0.000243626 -0.0024032 0.00105082)
(0.000657234 -0.00232438 0.00105082)
(0.00105087 -0.00217494 0.00105082)
(0.00141258 -0.00195942 0.00105082)
(0.00173137 -0.00168436 0.00105082)
(0.00199755 -0.00135812 0.00105082)
(0.00220304 -0.000990613 0.00105082)
(0.00234159 -0.000593011 0.00105082)
(0.00240899 -0.000177387 0.00105082)
(0.0024032 0.000243626 0.00105082)
(0.00232438 0.000657234 0.00105082)
(0.00217494 0.00105087 0.00105082)
(0.00195942 0.00141258 0.00105082)
(0.00168436 0.00173137 0.00105082)
(0.00135812 0.00199755 0.00105082)
(0.000990613 0.00220304 0.00105082)
(0.000593011 0.00234159 0.00105082)
(0.000177387 0.00240899 0.00105082)
(-0.000373882 0.00233703 0.0010912)
(-0.000774024 0.0022366 0.0010912)
(-0.00115065 0.00206821 0.0010912)
(-0.00149231 0.00183699 0.00109119)
(-0.00178862 0.00154994 0.00109119)
(-0.00203059 0.0012158 0.0010912)
(-0.00221087 0.000844723 0.00109119)
(-0.00232396 0.000447975 0.00109119)
(-0.00236645 3.76172e-05 0.0010912)
(-0.00233703 -0.000373883 0.0010912)
(-0.0022366 -0.000774025 0.0010912)
(-0.00206821 -0.00115065 0.0010912)
(-0.00183698 -0.00149231 0.00109119)
(-0.00154994 -0.00178862 0.00109119)
(-0.0012158 -0.00203059 0.0010912)
(-0.000844723 -0.00221087 0.00109119)
(-0.000447975 -0.00232396 0.00109119)
(-3.7617e-05 -0.00236645 0.0010912)
(0.000373883 -0.00233703 0.00109119)
(0.000774025 -0.0022366 0.0010912)
(0.00115065 -0.00206821 0.0010912)
(0.00149231 -0.00183699 0.00109119)
(0.00178862 -0.00154994 0.00109119)
(0.00203059 -0.0012158 0.0010912)
(0.00221087 -0.000844723 0.00109119)
(0.00232396 -0.000447975 0.00109119)
(0.00236645 -3.76172e-05 0.0010912)
(0.00233703 0.000373883 0.0010912)
(0.0022366 0.000774025 0.0010912)
(0.00206821 0.00115065 0.0010912)
(0.00183699 0.00149231 0.00109119)
(0.00154994 0.00178862 0.00109119)
(0.0012158 0.00203059 0.0010912)
(0.000844724 0.00221087 0.0010912)
(0.000447976 0.00232396 0.0010912)
(3.76173e-05 0.00236645 0.0010912)
(-0.000140865 0.00291371 0.00126211)
(-0.000644686 0.00284498 0.00126211)
(-0.00112892 0.00268981 0.00126211)
(-0.00157885 0.00245291 0.00126211)
(-0.0019808 0.00214148 0.00126211)
(-0.00232257 0.00176499 0.00126211)
(-0.00259378 0.00133486 0.00126211)
(-0.00278617 0.000864176 0.00126211)
(-0.0028939 0.000367234 0.00126211)
(-0.00291371 -0.000140865 0.00126211)
(-0.00284498 -0.000644686 0.00126211)
(-0.00268981 -0.00112892 0.00126211)
(-0.00245291 -0.00157885 0.00126211)
(-0.00214148 -0.0019808 0.00126211)
(-0.00176499 -0.00232257 0.00126211)
(-0.00133486 -0.00259378 0.00126211)
(-0.000864176 -0.00278617 0.00126211)
(-0.000367234 -0.0028939 0.00126211)
(0.000140866 -0.00291371 0.00126211)
(0.000644686 -0.00284498 0.00126211)
(0.00112892 -0.00268981 0.00126211)
(0.00157885 -0.00245291 0.00126211)
(0.0019808 -0.00214148 0.00126211)