/*--------------------------------*- C++ -*----------------------------------*\
| =========                 |                                                 |
| \\      /  F ield         | OpenFOAM: The Open Source CFD Toolbox           |
|  \\    /   O peration     | Version:  2312                                  |
|   \\  /    A nd           | Website:  www.openfoam.com                      |
|    \\/     M anipulation  |                                                 |
\*---------------------------------------------------------------------------*/
FoamFile
{
    version     2.0;
    format      ascii;
    arch        "LSB;label=32;scalar=64";
    class       volSymmTensorField;
    location    "0.4";
    object      sigma;
}
// * * * * * * * * * * * * * * * * * * * * * * * * * * * * * * * * * * * * * //

dimensions      [1 -1 -2 0 0 0 0];

internalField   nonuniform List<symmTensor> 
1620
(
(-8021.74 -638.048 -1322.47 -3125.52 8653.26 9267.84)
(-7655.84 -1436.87 -2805 -3491.36 8292.15 9267.89)
(-7038.82 -2062.4 -4202.32 -4108.35 7679.1 9267.86)
(-6245.22 -2439.11 -5471.9 -4902.26 6832.66 9267.84)
(-5370.52 -2521.67 -6575.23 -5776.99 5778.68 9267.84)
(-4520.28 -2300.1 -7478.79 -6627.14 4549.14 9267.86)
(-3797.03 -1801.11 -8155.18 -7350.27 3181.36 9267.78)
(-3288.18 -1084.85 -8583.7 -7859.14 1716.9 9267.82)
(-3054.94 -237.741 -8751.44 -8092.33 200.256 9267.82)
(-3125.52 638.048 -8653.26 -8021.74 -1322.47 9267.84)
(-3491.35 1436.87 -8292.15 -7655.84 -2805 9267.89)
(-4108.35 2062.4 -7679.1 -7038.82 -4202.32 9267.86)
(-4902.26 2439.11 -6832.66 -6245.22 -5471.9 9267.84)
(-5776.99 2521.67 -5778.68 -5370.52 -6575.23 9267.84)
(-6627.14 2300.1 -4549.14 -4520.28 -7478.79 9267.86)
(-7350.27 1801.11 -3181.36 -3797.03 -8155.18 9267.78)
(-7859.14 1084.85 -1716.9 -3288.18 -8583.7 9267.82)
(-8092.33 237.741 -200.256 -3054.94 -8751.44 9267.83)
(-8021.74 -638.048 1322.47 -3125.52 -8653.26 9267.84)
(-7655.84 -1436.87 2805 -3491.35 -8292.15 9267.89)
(-7038.82 -2062.4 4202.32 -4108.35 -7679.1 9267.86)
(-6245.22 -2439.11 5471.9 -4902.26 -6832.66 9267.84)
(-5370.52 -2521.67 6575.23 -5776.99 -5778.68 9267.84)
(-4520.28 -2300.1 7478.79 -6627.14 -4549.14 9267.86)
(-3797.03 -1801.11 8155.18 -7350.27 -3181.36 9267.78)
(-3288.18 -1084.85 8583.7 -7859.14 -1716.9 9267.82)
(-3054.94 -237.741 8751.44 -8092.33 -200.256 9267.82)
(-3125.52 638.048 8653.26 -8021.74 1322.47 9267.84)
(-3491.36 1436.87 8292.15 -7655.84 2805 9267.89)
(-4108.35 2062.4 7679.1 -7038.82 4202.32 9267.86)
(-4902.26 2439.11 6832.66 -6245.22 5471.9 9267.84)
(-5776.99 2521.67 5778.68 -5370.52 6575.23 9267.84)
(-6627.14 2300.1 4549.14 -4520.28 7478.79 9267.86)
(-7350.27 1801.11 3181.36 -3797.03 8155.18 9267.78)
(-7859.14 1084.85 1716.9 -3288.18 8583.7 9267.82)
(-8092.33 237.741 200.256 -3054.94 8751.44 9267.82)
(-14018.1 -2345.79 -302.984 9258.43 2136.64 -14393.5)
(-12513.9 -6184.83 -669.403 7754.3 2051.57 -14393.4)
(-9787.31 -9277.92 -1015.49 5027.82 1904.16 -14393.4)
(-6167.37 -11251.9 -1330.77 1407.78 1698.97 -14393.4)
(-2090.67 -11868.8 -1605.62 -2669.05 1442.12 -14393.4)
(1951.25 -11054.1 -1831.59 -6710.92 1141.36 -14393.4)
(5470.88 -8906.15 -2001.88 -10230.4 805.932 -14393.4)
(8043.46 -5683.94 -2111.41 -12803.1 446.062 -14393.4)
(9358.84 -1776.19 -2156.79 -14118.6 72.6433 -14393.5)
(9258.43 2345.79 -2136.64 -14018.1 -302.983 -14393.5)
(7754.3 6184.83 -2051.57 -12513.9 -669.403 -14393.4)
(5027.82 9277.92 -1904.16 -9787.31 -1015.49 -14393.4)
(1407.78 11251.9 -1698.97 -6167.37 -1330.77 -14393.4)
(-2669.05 11868.8 -1442.12 -2090.67 -1605.62 -14393.4)
(-6710.92 11054.1 -1141.36 1951.25 -1831.59 -14393.4)
(-10230.4 8906.15 -805.932 5470.88 -2001.88 -14393.4)
(-12803.1 5683.94 -446.062 8043.46 -2111.41 -14393.4)
(-14118.5 1776.19 -72.6433 9358.84 -2156.79 -14393.5)
(-14018.1 -2345.79 302.983 9258.43 -2136.64 -14393.5)
(-12513.9 -6184.83 669.403 7754.3 -2051.57 -14393.4)
(-9787.31 -9277.92 1015.49 5027.82 -1904.16 -14393.4)
(-6167.37 -11251.9 1330.77 1407.78 -1698.97 -14393.4)
(-2090.67 -11868.8 1605.62 -2669.05 -1442.12 -14393.4)
(1951.25 -11054.1 1831.59 -6710.92 -1141.36 -14393.4)
(5470.88 -8906.15 2001.88 -10230.4 -805.932 -14393.4)
(8043.46 -5683.94 2111.41 -12803.1 -446.062 -14393.4)
(9358.84 -1776.19 2156.79 -14118.6 -72.6433 -14393.5)
(9258.43 2345.79 2136.64 -14018.1 302.983 -14393.5)
(7754.3 6184.83 2051.57 -12513.9 669.403 -14393.4)
(5027.82 9277.92 1904.16 -9787.31 1015.49 -14393.4)
(1407.78 11251.9 1698.97 -6167.37 1330.77 -14393.4)
(-2669.05 11868.8 1442.12 -2090.67 1605.62 -14393.4)
(-6710.92 11054.1 1141.36 1951.25 1831.59 -14393.4)
(-10230.4 8906.15 805.932 5470.88 2001.88 -14393.4)
(-12803.1 5683.94 446.062 8043.46 2111.41 -14393.4)
(-14118.6 1776.19 72.6432 9358.84 2156.79 -14393.5)
(-29833.6 -646.849 621.819 -20218.6 -12872.2 -14280.2)
(-29322.4 -2252.1 2847.61 -20729.8 -12568.7 -14280.2)
(-28293.2 -3585.72 4986.89 -21759.2 -11883.2 -14280.2)
(-26869.7 -4486.85 6974.65 -23182.6 -10836.7 -14280.2)
(-25223.9 -4846.83 8750.47 -24828.3 -9461.01 -14280.3)
(-23554.3 -4622.14 10260.4 -26497.9 -7797.77 -14280.1)
(-22062.2 -3839.98 11458.6 -27990.1 -5897.59 -14280.1)
(-20927.6 -2594.66 12308.6 -29124.7 -3818.2 -14280.2)
(-20287.3 -1036.41 12784.6 -29764.9 -1622.86 -14280.2)
(-20218.6 646.849 12872.2 -29833.6 621.819 -14280.1)
(-20729.8 2252.1 12568.7 -29322.4 2847.61 -14280.2)
(-21759.2 3585.72 11883.2 -28293.2 4986.89 -14280.2)
(-23182.6 4486.85 10836.7 -26869.7 6974.65 -14280.2)
(-24828.3 4846.83 9461.01 -25223.9 8750.47 -14280.3)
(-26497.9 4622.14 7797.77 -23554.3 10260.4 -14280.1)
(-27990.1 3839.98 5897.59 -22062.2 11458.6 -14280.1)
(-29124.7 2594.66 3818.2 -20927.6 12308.6 -14280.2)
(-29764.9 1036.41 1622.86 -20287.3 12784.6 -14280.2)
(-29833.6 -646.849 -621.82 -20218.6 12872.2 -14280.1)
(-29322.4 -2252.1 -2847.61 -20729.8 12568.7 -14280.2)
(-28293.2 -3585.72 -4986.89 -21759.2 11883.2 -14280.2)
(-26869.7 -4486.85 -6974.65 -23182.6 10836.7 -14280.2)
(-25223.9 -4846.83 -8750.47 -24828.3 9461.01 -14280.3)
(-23554.3 -4622.14 -10260.4 -26497.9 7797.77 -14280.1)
(-22062.2 -3839.98 -11458.6 -27990.1 5897.59 -14280.1)
(-20927.6 -2594.66 -12308.6 -29124.7 3818.2 -14280.2)
(-20287.3 -1036.41 -12784.6 -29764.9 1622.86 -14280.2)
(-20218.6 646.849 -12872.2 -29833.6 -621.819 -14280.1)
(-20729.8 2252.1 -12568.7 -29322.4 -2847.61 -14280.2)
(-21759.2 3585.72 -11883.2 -28293.2 -4986.89 -14280.2)
(-23182.6 4486.85 -10836.7 -26869.7 -6974.65 -14280.2)
(-24828.3 4846.83 -9461.01 -25223.9 -8750.47 -14280.3)
(-26497.9 4622.14 -7797.77 -23554.3 -10260.4 -14280.1)
(-27990.1 3839.98 -5897.59 -22062.2 -11458.6 -14280.1)
(-29124.7 2594.66 -3818.2 -20927.6 -12308.6 -14280.2)
(-29764.9 1036.41 -1622.86 -20287.3 -12784.6 -14280.2)
(3975.8 -798.398 -1468.22 7278.44 7502.24 22216.8)
(4348.38 -1315 -2748.62 6905.68 7133.26 22216.8)
(4875.35 -1673.05 -3945.58 6378.93 6547.64 22216.8)
(5492.86 -1829.23 -5022.57 5761.29 5762.93 22216.9)
(6126.65 -1764.82 -5947.01 5127.61 4803.21 22216.9)
(6700.1 -1487.55 -6690.68 4554.16 3697.6 22216.9)
(7144.11 -1030.89 -7231.22 4109.95 2479.63 22216.7)
(7405.22 -449.841 -7551.91 3848.91 1186.26 22216.8)
(7451.95 185.45 -7643.22 3802.34 -143.133 22216.8)
(7278.44 798.398 -7502.24 3975.8 -1468.22 22216.8)
(6905.68 1315 -7133.26 4348.38 -2748.62 22216.8)
(6378.93 1673.05 -6547.64 4875.35 -3945.58 22216.8)
(5761.29 1829.23 -5762.93 5492.86 -5022.57 22216.9)
(5127.61 1764.82 -4803.21 6126.65 -5947.01 22216.9)
(4554.16 1487.55 -3697.6 6700.1 -6690.68 22216.9)
(4109.95 1030.89 -2479.63 7144.11 -7231.22 22216.7)
(3848.91 449.841 -1186.26 7405.22 -7551.91 22216.8)
(3802.34 -185.45 143.133 7451.95 -7643.22 22216.8)
(3975.8 -798.398 1468.22 7278.44 -7502.24 22216.8)
(4348.38 -1315 2748.62 6905.68 -7133.26 22216.8)
(4875.35 -1673.05 3945.58 6378.93 -6547.64 22216.8)
(5492.86 -1829.23 5022.57 5761.29 -5762.93 22216.9)
(6126.65 -1764.82 5947.01 5127.61 -4803.21 22216.9)
(6700.1 -1487.55 6690.68 4554.16 -3697.6 22216.9)
(7144.11 -1030.89 7231.22 4109.95 -2479.63 22216.7)
(7405.22 -449.841 7551.91 3848.91 -1186.26 22216.8)
(7451.95 185.45 7643.22 3802.34 143.133 22216.8)
(7278.44 798.398 7502.24 3975.8 1468.22 22216.8)
(6905.68 1315 7133.26 4348.38 2748.62 22216.8)
(6378.93 1673.05 6547.64 4875.35 3945.58 22216.8)
(5761.29 1829.23 5762.93 5492.86 5022.57 22216.9)
(5127.61 1764.82 4803.21 6126.65 5947.01 22216.9)
(4554.16 1487.55 3697.6 6700.1 6690.68 22216.9)
(4109.95 1030.89 2479.63 7144.11 7231.22 22216.7)
(3848.91 449.841 1186.26 7405.22 7551.91 22216.8)
(3802.34 -185.45 -143.133 7451.95 7643.22 22216.8)
(-1282.32 -2932.18 -427.271 21385.6 3151 -1894.83)
(404.123 -6631.75 -967.965 19699.3 3029.02 -1894.72)
(3254.05 -9531.5 -1479.22 16849.2 2814.87 -1894.85)
(6923.94 -11281.6 -1945.59 13179.3 2515.3 -1894.83)
(10971.1 -11670.9 -2352.79 9132.1 2139.22 -1894.84)
(14907.2 -10652.6 -2688.54 5195.8 1698.18 -1894.91)
(18258 -8349.43 -2942.52 1845.4 1205.49 -1894.77)
(20618.7 -5039.17 -3107.19 -515.392 676.226 -1894.76)
(21705 -1121.15 -3177.32 -1601.65 126.394 -1894.82)
(21385.6 2932.18 -3151 -1282.32 -427.271 -1894.83)
(19699.3 6631.75 -3029.02 404.123 -967.965 -1894.72)
(16849.2 9531.5 -2814.87 3254.05 -1479.22 -1894.85)
(13179.3 11281.6 -2515.3 6923.94 -1945.59 -1894.82)
(9132.1 11670.9 -2139.22 10971.1 -2352.79 -1894.84)
(5195.8 10652.6 -1698.18 14907.2 -2688.54 -1894.91)
(1845.4 8349.43 -1205.49 18258 -2942.52 -1894.77)
(-515.392 5039.17 -676.226 20618.7 -3107.19 -1894.76)
(-1601.65 1121.15 -126.394 21705 -3177.32 -1894.82)
(-1282.32 -2932.18 427.271 21385.6 -3151 -1894.83)
(404.123 -6631.75 967.965 19699.3 -3029.02 -1894.72)
(3254.05 -9531.5 1479.22 16849.2 -2814.87 -1894.85)
(6923.94 -11281.6 1945.59 13179.3 -2515.3 -1894.82)
(10971.1 -11670.9 2352.79 9132.1 -2139.22 -1894.84)
(14907.2 -10652.6 2688.54 5195.8 -1698.18 -1894.91)
(18258 -8349.43 2942.52 1845.4 -1205.49 -1894.77)
(20618.7 -5039.17 3107.19 -515.392 -676.226 -1894.76)
(21705 -1121.15 3177.32 -1601.65 -126.394 -1894.82)
(21385.6 2932.18 3151 -1282.32 427.271 -1894.83)
(19699.3 6631.75 3029.02 404.123 967.965 -1894.72)
(16849.2 9531.5 2814.87 3254.05 1479.22 -1894.85)
(13179.3 11281.6 2515.3 6923.94 1945.59 -1894.83)
(9132.1 11670.9 2139.22 10971.1 2352.79 -1894.84)
(5195.8 10652.6 1698.18 14907.2 2688.54 -1894.91)
(1845.4 8349.43 1205.49 18258 2942.52 -1894.77)
(-515.392 5039.17 676.226 20618.7 3107.19 -1894.76)
(-1601.65 1121.15 126.394 21705 3177.32 -1894.82)
(-14911.9 -849.676 411.959 -5125.84 -12944.3 -283.678)
(-14326.3 -2471.95 2653.44 -5711.51 -12676.1 -283.715)
(-13221 -3796.07 4814.3 -6816.72 -12022.8 -283.664)
(-11729.6 -4662.33 6828.88 -8308.14 -11004.1 -283.625)
(-10031.7 -4966.28 8635.99 -10005.8 -9651.11 -283.601)
(-8332.27 -4671.17 10180.7 -11705.1 -8004.86 -283.444)
(-6836.46 -3812.68 11416.1 -13201.2 -6115.37 -283.642)
(-5724.35 -2494.31 12304.6 -14313.3 -4040.08 -283.674)
(-5130.31 -875.109 12819.2 -14907.4 -1842.08 -283.668)
(-5125.84 849.676 12944.3 -14911.9 411.959 -283.678)
(-5711.51 2471.95 12676.1 -14326.3 2653.44 -283.714)
(-6816.72 3796.07 12022.8 -13221 4814.3 -283.663)
(-8308.14 4662.33 11004.1 -11729.6 6828.88 -283.624)
(-10005.8 4966.28 9651.11 -10031.7 8635.99 -283.6)
(-11705.1 4671.17 8004.86 -8332.27 10180.7 -283.443)
(-13201.2 3812.68 6115.37 -6836.46 11416.1 -283.641)
(-14313.3 2494.31 4040.08 -5724.35 12304.6 -283.673)
(-14907.4 875.109 1842.08 -5130.31 12819.2 -283.667)
(-14911.9 -849.676 -411.959 -5125.84 12944.3 -283.677)
(-14326.3 -2471.95 -2653.44 -5711.51 12676.1 -283.714)
(-13221 -3796.07 -4814.3 -6816.72 12022.8 -283.663)
(-11729.6 -4662.33 -6828.88 -8308.14 11004.1 -283.624)
(-10031.7 -4966.28 -8635.99 -10005.8 9651.11 -283.6)
(-8332.27 -4671.17 -10180.7 -11705.1 8004.86 -283.444)
(-6836.46 -3812.68 -11416.1 -13201.2 6115.37 -283.642)
(-5724.35 -2494.31 -12304.6 -14313.3 4040.08 -283.674)
(-5130.31 -875.109 -12819.2 -14907.4 1842.08 -283.668)
(-5125.84 849.676 -12944.3 -14911.9 -411.959 -283.678)
(-5711.51 2471.95 -12676.1 -14326.3 -2653.44 -283.715)
(-6816.72 3796.07 -12022.8 -13221 -4814.3 -283.664)
(-8308.14 4662.33 -11004.1 -11729.6 -6828.88 -283.625)
(-10005.8 4966.28 -9651.11 -10031.7 -8635.99 -283.601)
(-11705.1 4671.17 -8004.86 -8332.27 -10180.7 -283.445)
(-13201.2 3812.68 -6115.37 -6836.46 -11416.1 -283.642)
(-14313.3 2494.31 -4040.08 -5724.35 -12304.6 -283.674)
(-14907.4 875.109 -1842.08 -5130.31 -12819.2 -283.668)
(3027.02 -927.636 -1058.93 6082.6 7555.62 20505.3)
(3436.39 -1394.25 -2354.92 5673.12 7256.93 20505.2)
(3980.73 -1692.66 -3579.27 5128.86 6737.76 20505.3)
(4594.19 -1786.89 -4694.85 4515.23 6013.82 20505.3)
(5203.11 -1665.68 -5667.89 3906.58 5107.27 20505.3)
(5733.63 -1343.46 -6468.56 3375.95 4045.4 20505.4)
(6121.97 -859.275 -7072.82 2987.45 2860.72 20505.2)
(6321.45 -271.411 -7462.13 2788.18 1589.06 20505.3)
(6307.64 349.157 -7624.71 2801.79 269.183 20505.2)
(6082.6 927.636 -7555.62 3027.02 -1058.93 20505.3)
(5673.12 1394.25 -7256.93 3436.39 -2354.92 20505.2)
(5128.86 1692.66 -6737.76 3980.73 -3579.27 20505.3)
(4515.23 1786.89 -6013.82 4594.19 -4694.85 20505.3)
(3906.58 1665.68 -5107.27 5203.11 -5667.89 20505.3)
(3375.95 1343.46 -4045.4 5733.63 -6468.56 20505.4)
(2987.45 859.275 -2860.72 6121.97 -7072.82 20505.2)
(2788.18 271.411 -1589.06 6321.45 -7462.13 20505.3)
(2801.79 -349.157 -269.183 6307.64 -7624.71 20505.2)
(3027.02 -927.636 1058.93 6082.6 -7555.62 20505.3)
(3436.39 -1394.25 2354.92 5673.12 -7256.93 20505.2)
(3980.73 -1692.66 3579.27 5128.86 -6737.76 20505.3)
(4594.19 -1786.89 4694.85 4515.23 -6013.82 20505.3)
(5203.11 -1665.68 5667.89 3906.58 -5107.27 20505.3)
(5733.63 -1343.46 6468.56 3375.95 -4045.4 20505.4)
(6121.97 -859.275 7072.82 2987.45 -2860.72 20505.2)
(6321.45 -271.411 7462.13 2788.18 -1589.06 20505.3)
(6307.64 349.157 7624.71 2801.79 -269.183 20505.2)
(6082.6 927.636 7555.62 3027.02 1058.93 20505.3)
(5673.12 1394.25 7256.93 3436.39 2354.92 20505.2)
(5128.86 1692.66 6737.76 3980.73 3579.27 20505.3)
(4515.23 1786.89 6013.82 4594.19 4694.85 20505.3)
(3906.58 1665.68 5107.27 5203.11 5667.89 20505.3)
(3375.95 1343.46 4045.4 5733.63 6468.56 20505.4)
(2987.45 859.275 2860.72 6121.97 7072.82 20505.2)
(2788.18 271.411 1589.06 6321.45 7462.13 20505.3)
(2801.79 -349.157 269.183 6307.64 7624.71 20505.2)
(-2452.95 -3357.99 -415.925 19862.8 3390.3 -3684.87)
(-631.54 -6971.66 -998.333 18041.4 3266.61 -3684.82)
(2315.96 -9744.49 -1550.41 15093.8 3043.62 -3684.84)
(6034.14 -11341.9 -2055.38 11375.9 2728.18 -3684.72)
(10074.4 -11571.5 -2497.82 7335.58 2329.74 -3684.79)
(13949.4 -10405.2 -2864.53 3460.38 1860.66 -3684.83)
(17192 -7983.99 -3144.08 217.956 1334.97 -3684.77)
(19410.7 -4599.76 -3328.13 -2001.06 768.722 -3684.92)
(20338.4 -660.772 -3411.01 -2928.48 179.12 -3684.8)
(19862.8 3357.99 -3390.3 -2452.95 -415.925 -3684.87)
(18041.4 6971.66 -3266.61 -631.54 -998.332 -3684.82)
(15093.8 9744.49 -3043.62 2315.96 -1550.41 -3684.84)
(11375.9 11341.9 -2728.18 6034.14 -2055.38 -3684.72)
(7335.58 11571.5 -2329.74 10074.4 -2497.82 -3684.79)
(3460.38 10405.2 -1860.66 13949.4 -2864.53 -3684.83)
(217.956 7983.99 -1334.97 17192 -3144.08 -3684.77)
(-2001.06 4599.76 -768.722 19410.7 -3328.13 -3684.92)
(-2928.48 660.772 -179.12 20338.4 -3411.01 -3684.8)
(-2452.95 -3357.99 415.925 19862.8 -3390.3 -3684.87)
(-631.54 -6971.66 998.332 18041.4 -3266.61 -3684.82)
(2315.96 -9744.49 1550.41 15093.8 -3043.62 -3684.84)
(6034.14 -11341.9 2055.38 11375.9 -2728.18 -3684.72)
(10074.4 -11571.5 2497.82 7335.58 -2329.74 -3684.79)
(13949.4 -10405.2 2864.53 3460.38 -1860.66 -3684.83)
(17192 -7983.99 3144.08 217.956 -1334.97 -3684.77)
(19410.7 -4599.76 3328.13 -2001.06 -768.722 -3684.92)
(20338.4 -660.772 3411.01 -2928.48 -179.12 -3684.8)
(19862.8 3357.99 3390.3 -2452.95 415.925 -3684.87)
(18041.4 6971.66 3266.61 -631.54 998.332 -3684.82)
(15093.8 9744.49 3043.62 2315.96 1550.41 -3684.84)
(11375.9 11341.9 2728.18 6034.14 2055.38 -3684.72)
(7335.58 11571.5 2329.74 10074.4 2497.82 -3684.79)
(3460.38 10405.2 1860.66 13949.4 2864.53 -3684.83)
(217.956 7983.99 1334.97 17192 3144.08 -3684.77)
(-2001.06 4599.76 768.722 19410.7 3328.13 -3684.92)
(-2928.48 660.772 179.12 20338.4 3411.01 -3684.8)
(-13750.7 -1951.06 1289.01 -4514.65 -12755.1 -155.196)
(-12805 -3412.85 3484.32 -5460.43 -12337.5 -155.227)
(-11416.2 -4463.02 5573.78 -6849.09 -11545.1 -155.155)
(-9752.06 -4974.87 7493.89 -8513.33 -10401.8 -155.205)
(-8013.23 -4886.7 9186.3 -10252.2 -8942.44 -155.277)
(-6409.39 -4209.08 10599.6 -11856.1 -7211.39 -155.235)
(-5134.05 -3023.82 11690.8 -13131.5 -5261.25 -155.289)
(-4340.85 -1473.84 12426.8 -13924.3 -3151.26 -155.137)
(-4125.82 253.92 12785.2 -14139.5 -945.488 -155.159)
(-4514.65 1951.06 12755.1 -13750.7 1289.01 -155.195)
(-5460.43 3412.85 12337.5 -12805 3484.32 -155.226)
(-6849.08 4463.02 11545.1 -11416.1 5573.78 -155.154)
(-8513.33 4974.87 10401.8 -9752.06 7493.89 -155.204)
(-10252.2 4886.7 8942.44 -8013.23 9186.3 -155.276)
(-11856.1 4209.08 7211.39 -6409.39 10599.6 -155.234)
(-13131.5 3023.82 5261.25 -5134.05 11690.8 -155.288)
(-13924.3 1473.84 3151.26 -4340.85 12426.8 -155.137)
(-14139.5 -253.92 945.488 -4125.82 12785.2 -155.158)
(-13750.7 -1951.06 -1289.01 -4514.65 12755.1 -155.195)
(-12805 -3412.85 -3484.32 -5460.43 12337.5 -155.226)
(-11416.1 -4463.02 -5573.78 -6849.08 11545.1 -155.154)
(-9752.06 -4974.87 -7493.89 -8513.33 10401.8 -155.204)
(-8013.23 -4886.7 -9186.3 -10252.2 8942.44 -155.276)
(-6409.39 -4209.08 -10599.6 -11856.1 7211.39 -155.235)
(-5134.05 -3023.82 -11690.8 -13131.5 5261.25 -155.289)
(-4340.85 -1473.84 -12426.8 -13924.3 3151.26 -155.138)
(-4125.82 253.919 -12785.2 -14139.5 945.488 -155.159)
(-4514.65 1951.06 -12755.1 -13750.7 -1289.01 -155.196)
(-5460.43 3412.85 -12337.5 -12805 -3484.32 -155.227)
(-6849.09 4463.02 -11545.1 -11416.2 -5573.78 -155.155)
(-8513.33 4974.87 -10401.8 -9752.06 -7493.89 -155.205)
(-10252.2 4886.7 -8942.44 -8013.23 -9186.3 -155.277)
(-11856.1 4209.08 -7211.39 -6409.39 -10599.6 -155.235)
(-13131.5 3023.82 -5261.25 -5134.05 -11690.8 -155.29)
(-13924.3 1473.84 -3151.26 -4340.85 -12426.8 -155.138)
(-14139.5 -253.919 -945.488 -4125.82 -12785.2 -155.159)
(3026.68 -844.443 -172.679 5948.11 7727.68 19691.7)
(3403.58 -1293.13 -1511.99 5571.23 7580.33 19691.7)
(3911.19 -1585.84 -2805.35 5063.57 7202.62 19691.6)
(4488.37 -1687.25 -4013.44 4486.43 6606.01 19691.7)
(5065.39 -1585.17 -5099.55 3909.47 5808.78 19691.7)
(5572.68 -1291.88 -6030.77 3402.11 4834.95 19691.7)
(5949.17 -842.815 -6778.75 3025.8 3714.32 19691.7)
(6149.17 -292.046 -7320.76 2825.56 2480.73 19691.6)
(6148.85 293.933 -7640.26 2825.97 1171.82 19691.7)
(5948.11 844.443 -7727.68 3026.68 -172.678 19691.7)
(5571.23 1293.13 -7580.33 3403.58 -1511.99 19691.7)
(5063.57 1585.84 -7202.62 3911.19 -2805.34 19691.6)
(4486.43 1687.25 -6606.01 4488.37 -4013.44 19691.7)
(3909.47 1585.17 -5808.78 5065.39 -5099.55 19691.7)
(3402.11 1291.88 -4834.95 5572.68 -6030.77 19691.7)
(3025.8 842.815 -3714.32 5949.17 -6778.75 19691.7)
(2825.56 292.046 -2480.73 6149.17 -7320.76 19691.6)
(2825.97 -293.933 -1171.82 6148.85 -7640.26 19691.7)
(3026.68 -844.443 172.678 5948.11 -7727.68 19691.7)
(3403.58 -1293.13 1511.99 5571.23 -7580.33 19691.7)
(3911.19 -1585.84 2805.34 5063.57 -7202.62 19691.6)
(4488.37 -1687.25 4013.44 4486.43 -6606.01 19691.7)
(5065.39 -1585.17 5099.55 3909.47 -5808.78 19691.7)
(5572.68 -1291.88 6030.77 3402.11 -4834.95 19691.7)
(5949.17 -842.815 6778.75 3025.8 -3714.32 19691.7)
(6149.17 -292.046 7320.76 2825.56 -2480.73 19691.6)
(6148.85 293.933 7640.26 2825.97 -1171.82 19691.7)
(5948.11 844.443 7727.68 3026.68 172.678 19691.7)
(5571.23 1293.13 7580.33 3403.58 1511.99 19691.7)
(5063.57 1585.84 7202.62 3911.19 2805.35 19691.6)
(4486.43 1687.25 6606.01 4488.37 4013.44 19691.7)
(3909.47 1585.17 5808.78 5065.39 5099.55 19691.7)
(3402.11 1291.88 4834.95 5572.68 6030.77 19691.7)
(3025.8 842.815 3714.32 5949.17 6778.75 19691.7)
(2825.56 292.046 2480.73 6149.17 7320.76 19691.6)
(2825.97 -293.934 1171.82 6148.85 7640.26 19691.7)
(-2116.05 -3709.79 -383.427 19796.7 3520.53 -4018.15)
(-186.473 -7233.35 -988.93 17867.1 3400.45 -4018.15)
(2831.87 -9884.5 -1564.38 14848.7 3177.04 -4018.19)
(6574.96 -11343.4 -2092.33 11105.7 2857.16 -4018.11)
(10591.1 -11434.1 -2556.7 7089.39 2450.44 -4018.17)
(14396.3 -10145.7 -2943.35 3284.36 1969.24 -4018.12)
(17531.2 -7633.6 -3240.54 149.346 1428.2 -4018.19)
(19618 -4200.73 -3439.34 -1937.35 843.784 -4018.15)
(20404.7 -261.216 -3533.63 -2724.13 233.731 -4018.16)
(19796.7 3709.79 -3520.53 -2116.05 -383.427 -4018.15)
(17867.1 7233.35 -3400.45 -186.473 -988.93 -4018.15)
(14848.7 9884.5 -3177.04 2831.87 -1564.38 -4018.19)
(11105.7 11343.4 -2857.16 6574.96 -2092.33 -4018.11)
(7089.39 11434.1 -2450.44 10591.1 -2556.7 -4018.17)
(3284.36 10145.7 -1969.24 14396.3 -2943.35 -4018.12)
(149.346 7633.6 -1428.2 17531.2 -3240.54 -4018.19)
(-1937.35 4200.73 -843.784 19618 -3439.34 -4018.15)
(-2724.13 261.216 -233.731 20404.7 -3533.63 -4018.16)
(-2116.05 -3709.79 383.427 19796.7 -3520.53 -4018.15)
(-186.473 -7233.35 988.93 17867.1 -3400.45 -4018.15)
(2831.87 -9884.5 1564.38 14848.7 -3177.04 -4018.19)
(6574.96 -11343.4 2092.33 11105.7 -2857.16 -4018.11)
(10591.1 -11434.1 2556.7 7089.39 -2450.44 -4018.17)
(14396.3 -10145.7 2943.35 3284.36 -1969.24 -4018.12)
(17531.2 -7633.6 3240.54 149.346 -1428.2 -4018.19)
(19618 -4200.73 3439.34 -1937.35 -843.784 -4018.15)
(20404.7 -261.216 3533.63 -2724.13 -233.731 -4018.16)
(19796.7 3709.79 3520.53 -2116.05 383.427 -4018.15)
(17867.1 7233.35 3400.45 -186.473 988.93 -4018.15)
(14848.7 9884.5 3177.04 2831.87 1564.38 -4018.19)
(11105.7 11343.4 2857.16 6574.96 2092.33 -4018.11)
(7089.39 11434.1 2450.44 10591.1 2556.7 -4018.17)
(3284.36 10145.7 1969.24 14396.3 2943.35 -4018.12)
(149.346 7633.6 1428.2 17531.2 3240.54 -4018.19)
(-1937.35 4200.73 843.783 19618 3439.34 -4018.15)
(-2724.13 261.216 233.731 20404.7 3533.63 -4018.16)
(-12097.3 -3015.97 2126.15 -3643.51 -12561 320.933)
(-10810.9 -4279.77 4275.05 -4929.98 -12001 320.84)
(-9169.75 -5027.37 6294.06 -6571.04 -11076.3 320.926)
(-7372 -5168.57 8121.81 -8368.94 -9815.05 320.888)
(-5634.26 -4686.41 9702.79 -10106.6 -8255.62 320.861)
(-4166.27 -3638.96 10988.9 -11574.5 -6445.33 320.927)
(-3145.12 -2152.61 11941.2 -12595.8 -4439.19 320.858)
(-2693.79 -406.641 12530.7 -13047 -2298.19 320.861)
(-2866.89 1388.41 12739.4 -12873.9 -87.3284 320.929)
(-3643.51 3015.97 12561 -12097.3 2126.16 320.934)
(-4929.98 4279.77 12001 -10810.9 4275.05 320.841)
(-6571.04 5027.37 11076.3 -9169.75 6294.06 320.927)
(-8368.94 5168.57 9815.05 -7372 8121.81 320.889)
(-10106.6 4686.41 8255.62 -5634.26 9702.79 320.862)
(-11574.5 3638.96 6445.33 -4166.27 10988.9 320.928)
(-12595.8 2152.61 4439.19 -3145.12 11941.2 320.858)
(-13047 406.641 2298.19 -2693.79 12530.7 320.861)
(-12873.9 -1388.41 87.3283 -2866.89 12739.4 320.929)
(-12097.3 -3015.97 -2126.16 -3643.51 12561 320.934)
(-10810.9 -4279.77 -4275.05 -4929.98 12001 320.841)
(-9169.75 -5027.37 -6294.06 -6571.04 11076.3 320.927)
(-7372 -5168.57 -8121.81 -8368.94 9815.05 320.888)
(-5634.26 -4686.41 -9702.79 -10106.6 8255.62 320.862)
(-4166.27 -3638.96 -10988.9 -11574.5 6445.33 320.927)
(-3145.12 -2152.61 -11941.2 -12595.8 4439.19 320.857)
(-2693.79 -406.641 -12530.7 -13047 2298.19 320.86)
(-2866.89 1388.41 -12739.4 -12873.9 87.3284 320.928)
(-3643.51 3015.97 -12561 -12097.3 -2126.15 320.933)
(-4929.98 4279.77 -12001 -10810.9 -4275.05 320.84)
(-6571.04 5027.37 -11076.3 -9169.75 -6294.06 320.926)
(-8368.94 5168.57 -9815.05 -7372 -8121.81 320.888)
(-10106.6 4686.41 -8255.62 -5634.26 -9702.79 320.861)
(-11574.5 3638.96 -6445.33 -4166.28 -10988.9 320.927)
(-12595.8 2152.61 -4439.19 -3145.12 -11941.2 320.857)
(-13047 406.641 -2298.19 -2693.79 -12530.7 320.86)
(-12873.9 -1388.41 -87.3285 -2866.89 -12739.4 320.928)
(2779.74 -631.072 785.514 5451.08 7877.1 18603.9)
(3076.22 -1049.84 -594.271 5154.82 7893.86 18604)
(3497.83 -1341.99 -1955.99 4732.94 7670.75 18603.9)
(3994.15 -1472.29 -3258.35 4236.76 7214.54 18603.9)
(4504.94 -1424.95 -4461.56 3725.83 6539.11 18604)
(4968.87 -1205.82 -5529.35 3261.99 5665.04 18603.9)
(5329.9 -841.203 -6429.03 2901.17 4618.85 18604)
(5544.25 -375.136 -7133.44 2686.54 3432.27 18603.9)
(5586.39 136.202 -7621.03 2644.45 2141.4 18604)
(5451.08 631.072 -7877.1 2779.74 785.514 18603.9)
(5154.82 1049.84 -7893.86 3076.22 -594.271 18604)
(4732.94 1341.99 -7670.75 3497.83 -1955.99 18603.9)
(4236.76 1472.29 -7214.54 3994.15 -3258.35 18603.9)
(3725.83 1424.95 -6539.11 4504.94 -4461.56 18604)
(3261.99 1205.82 -5665.04 4968.87 -5529.35 18603.9)
(2901.17 841.203 -4618.85 5329.9 -6429.03 18604)
(2686.54 375.136 -3432.27 5544.25 -7133.44 18603.9)
(2644.45 -136.202 -2141.4 5586.39 -7621.03 18604)
(2779.74 -631.072 -785.514 5451.08 -7877.1 18604)
(3076.22 -1049.84 594.271 5154.82 -7893.86 18604)
(3497.83 -1341.99 1955.99 4732.94 -7670.75 18603.9)
(3994.15 -1472.29 3258.35 4236.76 -7214.54 18603.9)
(4504.94 -1424.95 4461.56 3725.83 -6539.11 18604)
(4968.87 -1205.82 5529.35 3261.99 -5665.04 18603.9)
(5329.9 -841.203 6429.03 2901.17 -4618.85 18604)
(5544.25 -375.136 7133.44 2686.54 -3432.27 18603.9)
(5586.39 136.202 7621.03 2644.45 -2141.4 18604)
(5451.08 631.072 7877.1 2779.74 -785.514 18603.9)
(5154.82 1049.84 7893.86 3076.22 594.271 18604)
(4732.94 1341.99 7670.75 3497.83 1955.99 18603.9)
(4236.76 1472.29 7214.54 3994.15 3258.35 18603.9)
(3725.83 1424.95 6539.11 4504.94 4461.56 18604)
(3261.99 1205.82 5665.04 4968.87 5529.35 18603.9)
(2901.17 841.203 4618.85 5329.9 6429.03 18604)
(2686.54 375.136 3432.27 5544.25 7133.44 18603.9)
(2644.45 -136.202 2141.4 5586.39 7621.03 18604)
(-1984.92 -3916.46 -355.704 19421.2 3688.36 -4499.93)
(-0.0555298 -7340.94 -990.782 17436 3570.56 -4500.05)
(3036.57 -9879.99 -1595.73 14399.7 3344.23 -4499.96)
(6758.32 -11227.4 -2152.21 10677.8 3016.32 -4500.05)
(10716.4 -11220.5 -2643.33 6719.65 2596.82 -4499.99)
(14433.6 -9860.37 -3054.05 3002.61 2098.33 -4499.97)
(17461.3 -7310.88 -3372.02 -25.267 1536.11 -4500.07)
(19434.6 -3879.6 -3587.58 -1998.34 927.243 -4499.94)
(20115.2 19.6391 -3694.09 -2679.01 290.174 -4499.99)
(19421.2 3916.46 -3688.36 -1984.92 -355.704 -4499.93)
(17436 7340.94 -3570.56 -0.0554854 -990.782 -4500.05)
(14399.7 9879.99 -3344.23 3036.57 -1595.73 -4499.96)
(10677.8 11227.4 -3016.32 6758.32 -2152.21 -4500.05)
(6719.65 11220.5 -2596.82 10716.4 -2643.33 -4499.99)
(3002.61 9860.37 -2098.33 14433.6 -3054.05 -4499.97)
(-25.2668 7310.88 -1536.11 17461.3 -3372.02 -4500.07)
(-1998.34 3879.6 -927.243 19434.6 -3587.58 -4499.94)
(-2679.01 -19.639 -290.174 20115.2 -3694.09 -4499.99)
(-1984.92 -3916.46 355.704 19421.2 -3688.36 -4499.93)
(-0.0555442 -7340.94 990.781 17436 -3570.56 -4500.05)
(3036.57 -9879.99 1595.73 14399.7 -3344.23 -4499.96)
(6758.32 -11227.4 2152.21 10677.8 -3016.32 -4500.05)
(10716.4 -11220.5 2643.33 6719.65 -2596.82 -4499.99)
(14433.6 -9860.37 3054.05 3002.61 -2098.33 -4499.97)
(17461.3 -7310.88 3372.02 -25.2668 -1536.11 -4500.07)
(19434.6 -3879.6 3587.58 -1998.34 -927.243 -4499.94)
(20115.2 19.6391 3694.09 -2679.01 -290.174 -4499.99)
(19421.2 3916.46 3688.36 -1984.92 355.704 -4499.93)
(17436 7340.94 3570.56 -0.0555392 990.782 -4500.05)
(14399.7 9879.99 3344.23 3036.57 1595.73 -4499.96)
(10677.8 11227.4 3016.32 6758.32 2152.21 -4500.05)
(6719.65 11220.5 2596.82 10716.4 2643.33 -4499.99)
(3002.61 9860.37 2098.33 14433.6 3054.05 -4499.97)
(-25.267 7310.88 1536.11 17461.3 3372.02 -4500.07)
(-1998.34 3879.6 927.243 19434.6 3587.58 -4499.94)
(-2679.01 -19.6391 290.174 20115.2 3694.09 -4499.99)
(-10713.1 -3971.98 2898.69 -3203.41 -12347.3 368.104)
(-9128.02 -5016.65 4998.76 -4788.32 -11656.4 368.264)
(-7281.41 -5456.27 6946.93 -6635.01 -10611.3 368.168)
(-5395.74 -5237.73 8684.02 -8520.65 -9243.71 368.231)
(-3698.56 -4387.48 10157.2 -10217.8 -7595.33 368.206)
(-2394.54 -3008.02 11321.8 -11521.8 -5716.16 368.226)
(-1640.97 -1265.77 12142.4 -12275.5 -3663.31 368.155)
(-1528.79 629.178 12594.1 -12387.7 -1499.14 368.159)
(-2071.29 2448.24 12663.1 -11845.1 710.594 368.161)
(-3203.41 3971.98 12347.3 -10713.1 2898.69 368.105)
(-4788.32 5016.65 11656.4 -9128.02 4998.76 368.264)
(-6635.01 5456.27 10611.3 -7281.41 6946.93 368.169)
(-8520.65 5237.73 9243.71 -5395.74 8684.02 368.232)
(-10217.8 4387.48 7595.33 -3698.56 10157.2 368.207)
(-11521.8 3008.02 5716.16 -2394.54 11321.8 368.226)
(-12275.5 1265.77 3663.31 -1640.97 12142.4 368.155)
(-12387.7 -629.178 1499.14 -1528.79 12594.1 368.159)
(-11845.1 -2448.24 -710.594 -2071.29 12663.1 368.161)
(-10713.1 -3971.98 -2898.69 -3203.41 12347.3 368.105)
(-9128.02 -5016.65 -4998.76 -4788.32 11656.4 368.264)
(-7281.41 -5456.27 -6946.93 -6635.01 10611.3 368.169)
(-5395.74 -5237.73 -8684.02 -8520.65 9243.71 368.232)
(-3698.56 -4387.48 -10157.2 -10217.8 7595.33 368.206)
(-2394.54 -3008.02 -11321.8 -11521.8 5716.16 368.226)
(-1640.97 -1265.77 -12142.4 -12275.5 3663.31 368.154)
(-1528.79 629.178 -12594.1 -12387.7 1499.14 368.159)
(-2071.29 2448.24 -12663.1 -11845.1 -710.594 368.16)
(-3203.41 3971.98 -12347.3 -10713.1 -2898.69 368.104)
(-4788.32 5016.65 -11656.4 -9128.02 -4998.76 368.263)
(-6635.01 5456.27 -10611.3 -7281.41 -6946.93 368.168)
(-8520.65 5237.73 -9243.71 -5395.74 -8684.02 368.231)
(-10217.8 4387.48 -7595.33 -3698.56 -10157.2 368.206)
(-11521.8 3008.02 -5716.16 -2394.54 -11321.8 368.225)
(-12275.5 1265.77 -3663.31 -1640.97 -12142.4 368.154)
(-12387.7 -629.178 -1499.14 -1528.79 -12594.1 368.158)
(-11845.1 -2448.24 710.594 -2071.29 -12663.1 368.16)
(2549.64 -278.499 1766.96 4827.14 7987.86 17467.1)
(2713.63 -651.164 353.063 4663.25 8173.32 17467.2)
(2995.04 -945.283 -1071.56 4381.65 8110.44 17467.1)
(3360.25 -1125.44 -2463.71 4016.66 7801.2 17467.1)
(3764.92 -1169.81 -3780.94 3611.85 7254.82 17467.1)
(4160.42 -1073.1 -4983.31 3216.39 6488.08 17467.1)
(4498.94 -846.914 -6034.16 2877.86 5524.17 17467.2)
(4739.67 -518.637 -6901.78 2637 4392.44 17467.1)
(4853.75 -127.766 -7559.67 2523.1 3127.19 17467.2)
(4827.14 278.499 -7987.86 2549.64 1766.96 17467.1)
(4663.25 651.164 -8173.32 2713.63 353.063 17467.2)
(4381.65 945.283 -8110.44 2995.04 -1071.56 17467.1)
(4016.66 1125.44 -7801.2 3360.25 -2463.71 17467.1)
(3611.85 1169.81 -7254.82 3764.92 -3780.94 17467.1)
(3216.39 1073.1 -6488.08 4160.42 -4983.31 17467.1)