/*--------------------------------*- C++ -*----------------------------------*\
| =========                 |                                                 |
| \\      /  F ield         | OpenFOAM: The Open Source CFD Toolbox           |
|  \\    /   O peration     | Version:  2312                                  |
|   \\  /    A nd           | Website:  www.openfoam.com                      |
|    \\/     M anipulation  |                                                 |
\*---------------------------------------------------------------------------*/
FoamFile
{
    version     2.0;
    format      ascii;
    arch        "LSB;label=32;scalar=64";
    class       volScalarField;
    location    "0.4";
    object      sigmaHyd;
}
// * * * * * * * * * * * * * * * * * * * * * * * * * * * * * * * * * * * * * //

dimensions      [1 -1 -2 0 0 0 0];

internalField   nonuniform List<scalar> 
1620
(
-8626.47
-8626.44
-8626.44
-8626.55
-8626.56
-8626.52
-8626.51
-8626.5
-8626.48
-8626.47
-8626.44
-8626.44
-8626.55
-8626.56
-8626.52
-8626.5
-8626.5
-8626.48
-8626.47
-8626.44
-8626.44
-8626.55
-8626.56
-8626.52
-8626.51
-8626.5
-8626.48
-8626.47
-8626.44
-8626.44
-8626.55
-8626.56
-8626.52
-8626.51
-8626.5
-8626.48
-14384.4
-14384.3
-14384.3
-14384.3
-14384.4
-14384.4
-14384.3
-14384.4
-14384.4
-14384.4
-14384.3
-14384.3
-14384.3
-14384.4
-14384.4
-14384.3
-14384.4
-14384.4
-14384.4
-14384.3
-14384.3
-14384.3
-14384.4
-14384.4
-14384.3
-14384.4
-14384.4
-14384.4
-14384.3
-14384.3
-14384.3
-14384.4
-14384.4
-14384.3
-14384.4
-14384.4
-29444.1
-29444.1
-29444.2
-29444.1
-29444.2
-29444.1
-29444.1
-29444.2
-29444.2
-29444.1
-29444.1
-29444.2
-29444.1
-29444.2
-29444.1
-29444.1
-29444.2
-29444.2
-29444.1
-29444.1
-29444.2
-29444.1
-29444.2
-29444.1
-29444.1
-29444.2
-29444.2
-29444.1
-29444.1
-29444.2
-29444.1
-29444.2
-29444.1
-29444.1
-29444.2
-29444.2
3157
3156.94
3157.02
3157.01
3157.06
3157.07
3156.91
3156.97
3157.02
3157
3156.94
3157.02
3157.01
3157.06
3157.07
3156.91
3156.97
3157.02
3157
3156.94
3157.02
3157.01
3157.06
3157.07
3156.91
3156.97
3157.02
3157
3156.94
3157.02
3157.01
3157.06
3157.07
3156.91
3156.97
3157.02
-1930.5
-1930.43
-1930.54
-1930.54
-1930.55
-1930.63
-1930.46
-1930.47
-1930.5
-1930.5
-1930.43
-1930.54
-1930.54
-1930.55
-1930.63
-1930.46
-1930.47
-1930.5
-1930.5
-1930.43
-1930.54
-1930.54
-1930.55
-1930.63
-1930.46
-1930.47
-1930.5
-1930.5
-1930.43
-1930.54
-1930.54
-1930.55
-1930.63
-1930.46
-1930.47
-1930.5
-14773.8
-14773.8
-14773.8
-14773.8
-14773.7
-14773.6
-14773.8
-14773.8
-14773.8
-14773.8
-14773.8
-14773.8
-14773.8
-14773.7
-14773.6
-14773.8
-14773.8
-14773.8
-14773.8
-14773.8
-14773.8
-14773.8
-14773.7
-14773.6
-14773.8
-14773.8
-14773.8
-14773.8
-14773.8
-14773.8
-14773.8
-14773.7
-14773.6
-14773.8
-14773.8
-14773.8
1871.63
1871.58
1871.62
1871.57
1871.65
1871.65
1871.53
1871.64
1871.53
1871.63
1871.58
1871.62
1871.57
1871.65
1871.65
1871.53
1871.64
1871.53
1871.63
1871.58
1871.62
1871.57
1871.65
1871.65
1871.53
1871.64
1871.53
1871.63
1871.58
1871.62
1871.57
1871.65
1871.65
1871.53
1871.64
1871.53
-3425.02
-3424.99
-3425.01
-3424.91
-3424.92
-3425.01
-3424.94
-3425.09
-3424.95
-3425.02
-3424.99
-3425.01
-3424.91
-3424.92
-3425.01
-3424.94
-3425.09
-3424.95
-3425.02
-3424.99
-3425.01
-3424.91
-3424.92
-3425.01
-3424.94
-3425.09
-3424.95
-3425.02
-3424.99
-3425.01
-3424.91
-3424.92
-3425.01
-3424.94
-3425.09
-3424.95
-14140.2
-14140.2
-14140.1
-14140.2
-14140.2
-14140.2
-14140.3
-14140.1
-14140.2
-14140.2
-14140.2
-14140.1
-14140.2
-14140.2
-14140.2
-14140.3
-14140.1
-14140.2
-14140.2
-14140.2
-14140.1
-14140.2
-14140.2
-14140.2
-14140.3
-14140.1
-14140.2
-14140.2
-14140.2
-14140.1
-14140.2
-14140.2
-14140.2
-14140.3
-14140.1
-14140.2
1555.5
1555.49
1555.45
1555.5
1555.52
1555.5
1555.56
1555.45
1555.52
1555.5
1555.49
1555.45
1555.5
1555.52
1555.5
1555.56
1555.45
1555.52
1555.5
1555.49
1555.45
1555.5
1555.52
1555.5
1555.56
1555.45
1555.52
1555.5
1555.49
1555.45
1555.5
1555.52
1555.5
1555.56
1555.45
1555.52
-3445.85
-3445.84
-3445.86
-3445.81
-3445.88
-3445.82
-3445.86
-3445.83
-3445.85
-3445.85
-3445.84
-3445.86
-3445.81
-3445.88
-3445.82
-3445.86
-3445.83
-3445.85
-3445.85
-3445.84
-3445.86
-3445.81
-3445.88
-3445.82
-3445.86
-3445.83
-3445.85
-3445.85
-3445.84
-3445.86
-3445.81
-3445.88
-3445.82
-3445.86
-3445.83
-3445.85
-13140
-13140
-13140
-13140
-13140
-13140
-13140
-13140
-13140
-13140
-13140
-13140
-13140
-13140
-13140
-13140
-13140
-13140
-13140
-13140
-13140
-13140
-13140
-13140
-13140
-13140
-13140
-13140
-13140
-13140
-13140
-13140
-13140
-13140
-13140
-13140
944.923
945.014
944.881
944.95
944.908
944.92
945.034
944.88
944.936
944.923
945.014
944.881
944.95
944.908
944.92
945.034
944.88
944.936
944.923
945.014
944.881
944.95
944.908
944.92
945.034
944.88
944.936
944.923
945.014
944.881
944.95
944.908
944.92
945.034
944.88
944.936
-3687.9
-3688.02
-3687.91
-3687.99
-3687.97
-3687.92
-3688.01
-3687.9
-3687.95
-3687.9
-3688.02
-3687.91
-3687.99
-3687.97
-3687.92
-3688.01
-3687.9
-3687.95
-3687.9
-3688.02
-3687.91
-3687.99
-3687.97
-3687.92
-3688.01
-3687.9
-3687.95
-3687.9
-3688.02
-3687.91
-3687.99
-3687.97
-3687.92
-3688.01
-3687.9
-3687.95
-12516.1
-12516
-12516.1
-12516.1
-12516.1
-12516.1
-12516.1
-12516.1
-12516.1
-12516.1
-12516
-12516.1
-12516.1
-12516.1
-12516.1
-12516.1
-12516.1
-12516.1
-12516.1
-12516
-12516.1
-12516.1
-12516.1
-12516.1
-12516.1
-12516.1
-12516.1
-12516.1
-12516
-12516.1
-12516.1
-12516.1
-12516.1
-12516.1
-12516.1
-12516.1
281.297
281.354
281.279
281.345
281.299
281.299
281.324
281.243
281.331
281.297
281.354
281.279
281.345
281.299
281.299
281.325
281.243
281.331
281.297
281.355
281.279
281.345
281.299
281.299
281.325
281.243
281.331
281.297
281.355
281.279
281.345
281.299
281.299
281.325
281.243
281.331
-3922.06
-3922.17
-3922.08
-3922.12
-3922.1
-3922.11
-3922.12
-3922.02
-3922.14
-3922.06
-3922.17
-3922.08
-3922.12
-3922.1
-3922.11
-3922.12
-3922.02
-3922.14
-3922.06
-3922.17
-3922.08
-3922.12
-3922.1
-3922.11
-3922.12
-3922.02
-3922.14
-3922.06
-3922.17
-3922.08
-3922.12
-3922.1
-3922.11
-3922.12
-3922.02
-3922.14
-11836.3
-11836.3
-11836.4
-11836.3
-11836.4
-11836.5
-11836.3
-11836.4
-11836.4
-11836.3
-11836.3
-11836.4
-11836.3
-11836.4
-11836.5
-11836.3
-11836.4
-11836.4
-11836.3
-11836.3
-11836.4
-11836.3
-11836.4
-11836.5
-11836.3
-11836.4
-11836.4
-11836.3
-11836.3
-11836.4
-11836.3
-11836.4
-11836.5
-11836.3
-11836.4
-11836.4
-544.086
-544.037
-544.182
-543.998
-544.092
-544.19
-544.049
-544.171
-544.095
-544.086
-544.037
-544.182
-543.998
-544.092
-544.19
-544.048
-544.171
-544.095
-544.086
-544.037
-544.181
-543.998
-544.092
-544.19
-544.048
-544.171
-544.095
-544.086
-544.037
-544.181
-543.998
-544.092
-544.19
-544.048
-544.171
-544.095
-4183.52
-4183.69
-4183.56
-4183.68
-4183.61
-4183.51
-4183.65
-4183.54
-4183.68
-4183.52
-4183.69
-4183.55
-4183.68
-4183.61
-4183.51
-4183.65
-4183.54
-4183.68
-4183.52
-4183.69
-4183.55
-4183.68
-4183.61
-4183.51
-4183.65
-4183.54
-4183.68
-4183.52
-4183.69
-4183.55
-4183.68
-4183.61
-4183.51
-4183.65
-4183.54
-4183.68
-10981.8
-10981.7
-10981.8
-10981.7
-10981.8
-10981.8
-10981.8
-10981.8
-10981.7
-10981.8
-10981.7
-10981.8
-10981.7
-10981.8
-10981.8
-10981.8
-10981.8
-10981.7
-10981.8
-10981.7
-10981.8
-10981.7
-10981.8
-10981.8
-10981.8
-10981.8
-10981.7
-10981.8
-10981.7
-10981.8
-10981.7
-10981.8
-10981.8
-10981.8
-10981.8
-10981.7
-1579.81
-1579.86
-1579.89
-1579.79
-1579.89
-1579.89
-1579.87
-1579.9
-1579.91
-1579.81
-1579.86
-1579.89
-1579.79
-1579.89
-1579.89
-1579.87
-1579.9
-1579.91
-1579.81
-1579.86
-1579.89
-1579.79
-1579.89
-1579.88
-1579.87
-1579.9
-1579.91
-1579.81
-1579.86
-1579.89
-1579.79
-1579.89
-1579.88
-1579.87
-1579.9
-1579.91
-4446.05
-4446.05
-4445.97
-4446.09
-4446.02
-4445.95
-4446.03
-4446.02
-4445.94
-4446.05
-4446.05
-4445.97
-4446.09
-4446.02
-4445.95
-4446.03
-4446.02
-4445.94
-4446.05
-4446.05
-4445.97
-4446.09
-4446.02
-4445.95
-4446.03
-4446.02
-4445.94
-4446.05
-4446.05
-4445.97
-4446.09
-4446.02
-4445.95
-4446.03
-4446.02
-4445.94
-9804.63
-9804.58
-9804.58
-9804.56
-9804.62
-9804.66
-9804.65
-9804.63
-9804.61
-9804.63
-9804.58
-9804.58
-9804.56
-9804.62
-9804.66
-9804.65
-9804.63
-9804.61
-9804.63
-9804.58
-9804.58
-9804.56
-9804.62
-9804.66
-9804.65
-9804.63
-9804.61
-9804.64
-9804.58
-9804.58
-9804.56
-9804.62
-9804.66
-9804.65
-9804.63
-9804.61
-2822.82
-2822.79
-2822.76
-2822.77
-2822.81
-2822.82
-2822.83
-2822.79
-2822.75
-2822.82
-2822.79
-2822.76
-2822.77
-2822.81
-2822.82
-2822.83
-2822.79
-2822.75
-2822.82
-2822.79
-2822.76
-2822.77
-2822.81
-2822.82
-2822.83
-2822.79
-2822.75
-2822.82
-2822.79
-2822.76
-2822.77
-2822.81
-2822.82
-2822.83
-2822.79
-2822.75
-4661.24
-4661.22
-4661.24
-4661.14
-4661.2
-4661.24
-4661.16
-4661.24
-4661.22
-4661.24
-4661.22
-4661.24
-4661.14
-4661.2
-4661.24
-4661.16
-4661.24
-4661.22
-4661.24
-4661.22
-4661.24
-4661.14
-4661.2
-4661.24
-4661.16
-4661.24
-4661.22
-4661.24
-4661.22
-4661.24
-4661.14
-4661.2
-4661.24
-4661.16
-4661.24
-4661.22
-8178.9
-8178.97
-8178.95
-8179
-8179.01
-8178.97
-8178.95
-8178.93
-8179.04
-8178.9
-8178.97
-8178.95
-8179
-8179.01
-8178.97
-8178.95
-8178.93
-8179.04
-8178.9
-8178.97
-8178.95
-8179
-8179.01
-8178.97
-8178.95
-8178.93
-8179.04
-8178.9
-8178.97
-8178.95
-8179
-8179.02
-8178.97
-8178.95
-8178.93
-8179.04
-4157.4
-4157.45
-4157.4
-4157.31
-4157.37
-4157.4
-4157.43
-4157.34
-4157.36
-4157.4
-4157.45
-4157.4
-4157.31
-4157.37
-4157.4
-4157.43
-4157.34
-4157.36
-4157.4
-4157.45
-4157.4
-4157.31
-4157.37
-4157.4
-4157.43
-4157.34
-4157.36
-4157.4
-4157.45
-4157.4
-4157.31
-4157.37
-4157.4
-4157.43
-4157.34
-4157.36
-4744.38
-4744.35
-4744.42
-4744.45
-4744.39
-4744.46
-4744.38
-4744.4
-4744.45
-4744.38
-4744.35
-4744.42
-4744.45
-4744.39
-4744.46
-4744.38
-4744.4
-4744.45
-4744.38
-4744.35
-4744.42
-4744.45
-4744.39
-4744.46
-4744.38
-4744.4
-4744.46
-4744.38
-4744.35
-4744.42
-4744.45
-4744.39
-4744.46
-4744.38
-4744.4
-4744.45
-6077.41
-6077.48
-6077.44
-6077.5
-6077.43
-6077.41
-6077.37
-6077.44
-6077.48
-6077.41
-6077.48
-6077.44
-6077.5
-6077.43
-6077.41
-6077.37
-6077.45
-6077.48
-6077.41
-6077.48
-6077.44
-6077.5
-6077.43
-6077.41
-6077.38
-6077.45
-6077.48
-6077.41
-6077.48
-6077.44
-6077.5
-6077.43
-6077.41
-6077.38
-6077.45
-6077.48
-5249.31
-5249.34
-5249.25
-5249.26
-5249.27
-5249.28
-5249.25
-5249.35
-5249.34
-5249.32
-5249.34
-5249.25
-5249.26
-5249.27
-5249.28
-5249.25
-5249.35
-5249.34
-5249.31
-5249.34
-5249.25
-5249.26
-5249.27
-5249.28
-5249.25
-5249.35
-5249.34
-5249.32
-5249.34
-5249.25
-5249.26
-5249.27
-5249.28
-5249.25
-5249.35
-5249.34
-4548.22
-4548.12
-4548.2
-4548.18
-4548.21
-4548.17
-4548.19
-4548.26
-4548.18
-4548.22
-4548.12
-4548.2
-4548.18
-4548.21
-4548.17
-4548.19
-4548.26
-4548.18
-4548.22
-4548.12
-4548.2
-4548.18
-4548.21
-4548.17
-4548.19
-4548.26
-4548.18
-4548.22
-4548.12
-4548.2
-4548.18
-4548.21
-4548.17
-4548.19
-4548.26
-4548.18
-3717.23
-3717.31
-3717.27
-3717.35
-3717.32
-3717.3
-3717.33
-3717.25
-3717.27
-3717.23
-3717.32
-3717.27
-3717.35
-3717.32
-3717.3
-3717.33
-3717.26
-3717.28
-3717.23
-3717.32
-3717.27
-3717.35
-3717.32
-3717.3
-3717.34
-3717.26
-3717.28
-3717.23
-3717.32
-3717.27
-3717.35
-3717.32
-3717.3
-3717.34
-3717.26
-3717.28
-5356.9
-5356.78
-5356.7
-5356.79
-5356.74
-5356.75
-5356.73
-5356.84
-5357.01
-5356.9
-5356.78
-5356.7
-5356.79
-5356.74
-5356.75
-5356.72
-5356.83
-5357.01
-5356.9
-5356.78
-5356.7
-5356.79
-5356.74
-5356.75
-5356.72
-5356.84
-5357.01
-5356.9
-5356.78
-5356.7
-5356.79
-5356.74
-5356.75
-5356.72
-5356.83
-5357
-3749.24
-3749.18
-3749.22
-3749.27
-3749.21
-3749.26
-3749.26
-3749.28
-3749.25
-3749.24
-3749.18
-3749.22
-3749.27
-3749.21
-3749.26
-3749.26
-3749.28
-3749.25
-3749.24
-3749.18
-3749.22
-3749.27
-3749.21
-3749.26
-3749.26
-3749.28
-3749.25
-3749.24
-3749.18
-3749.22
-3749.27
-3749.21
-3749.26
-3749.26
-3749.28
-3749.25
-1637.96
-1638.07
-1638.07
-1638.12
-1638.09
-1638.11
-1638.01
-1637.93
-1637.92
-1637.95
-1638.07
-1638.07
-1638.12
-1638.09
-1638.11
-1638.01
-1637.93
-1637.92
-1637.95
-1638.07
-1638.07
-1638.12
-1638.09
-1638.11
-1638.01
-1637.93
-1637.92
-1637.95
-1638.07
-1638.07
-1638.12
-1638.09
-1638.11
-1638.01
-1637.94
-1637.92
-3095.7
-3095.5
-3095.43
-3095.52
-3095.4
-3095.37
-3095.51
-3095.68
-3095.84
-3095.7
-3095.5
-3095.43
-3095.52
-3095.4
-3095.37
-3095.51
-3095.68
-3095.84
-3095.7
-3095.5
-3095.42
-3095.52
-3095.4
-3095.37
-3095.51
-3095.68
-3095.84
-3095.7
-3095.5
-3095.43
-3095.52
-3095.4
-3095.37
-3095.51
-3095.68
-3095.84
-1777.57
-1777.52
-1777.54
-1777.51
-1777.57
-1777.49
-1777.52
-1777.54
-1777.54
-1777.57
-1777.52
-1777.54
-1777.51
-1777.57
-1777.49
-1777.52
-1777.54
-1777.54
-1777.57
-1777.52
-1777.54
-1777.51
-1777.57
-1777.49
-1777.52
-1777.54
-1777.54
-1777.57
-1777.52
-1777.54
-1777.51
-1777.57
-1777.49
-1777.52
-1777.54
-1777.54
-1403.56
-1403.8
-1403.82
-1403.88
-1403.84
-1403.82
-1403.71
-1403.51
-1403.48
-1403.55
-1403.8
-1403.81
-1403.89
-1403.84
-1403.82
-1403.71
-1403.51
-1403.47
-1403.55
-1403.8
-1403.81
-1403.89
-1403.84
-1403.82
-1403.72
-1403.51
-1403.47
-1403.55
-1403.8
-1403.81
-1403.88
-1403.84
-1403.82
-1403.72
-1403.52
-1403.48
127.977
128.843
130.736
129.67
127.588
129.416
130.786
128.738
127.651
127.957
128.822
130.721
129.663
127.588
129.416
130.783
128.73
127.642
127.948
128.815
130.716
129.659
127.582
129.41
130.777
128.727
127.64
127.946
128.812
130.71
129.651
127.576
129.406
130.778
128.74
127.666
3027.31
3027.05
3026.63
3027.09
3027.1
3026.9
3026.62
3027.14
3027.25
3027.32
3027.06
3026.63
3027.09
3027.11
3026.9
3026.62
3027.14
3027.25
3027.32
3027.06
3026.63
3027.09
3027.11
3026.9
3026.62
3027.15
3027.25
3027.32
3027.06
3026.64
3027.09
3027.11
3026.9
3026.62
3027.14
3027.24
-4310.75
-4311
-4311.13
-4311.08
-4310.95
-4311.07
-4310.95
-4310.63
-4310.64
-4310.74
-4310.99
-4311.13
-4311.08
-4310.96
-4311.07
-4310.95
-4310.63
-4310.64
-4310.74
-4310.99
-4311.13
-4311.08
-4310.96
-4311.07
-4310.95
-4310.63
-4310.64
-4310.74
-4310.99
-4311.12
-4311.07
-4310.95
-4311.07
-4310.96
-4310.64
-4310.65
21995.6
21999.7
21979.7
21984.1
22003.2
21990.4
21977.9
21992
21991
21995.7
21999.8
21979.7
21984.2
22003.3
21990.4
21978
21992.1
21991
21995.7
21999.9
21979.8
21984.2
22003.3
21990.4
21978
21992.1
21991
21995.7
21999.8
21979.7
21984.2
22003.3
21990.4
21978
21992.1
21990.9
13470.1
13468.7
13468.4
13468.5
13470.6
13467.7
13468.8
13469.6
13470.3
13470.2
13468.7
13468.4
13468.5
13470.6
13467.7
13468.8
13469.6
13470.3
13470.2
13468.7
13468.4
13468.5
13470.6
13467.7
13468.8
13469.6
13470.3
13470.2
13468.7
13468.4
13468.5
13470.6
13467.7
13468.8
13469.6
13470.2
-36607.1
-36606.5
-36608.4
-36606.8
-36608
-36606.8
-36608.2
-36606.6
-36607.3
-36607.1
-36606.5
-36608.4
-36606.8
-36608
-36606.8
-36608.2
-36606.6
-36607.3
-36607.2
-36606.5
-36608.4
-36606.8
-36608
-36606.8
-36608.2
-36606.6
-36607.3
-36607.1
-36606.5
-36608.4
-36606.8
-36608
-36606.8
-36608.2
-36606.6
-36607.3
)
;

boundaryField
{
    fixed
    {
        type            zeroGradient;
    }
    inside
    {
        type            zeroGradient;
    }
    outside
    {
        type            zeroGradient;
    }
}


// ************************************************************************* //
