/*--------------------------------*- C++ -*----------------------------------*\
| =========                 |                                                 |
| \\      /  F ield         | OpenFOAM: The Open Source CFD Toolbox           |
|  \\    /   O peration     | Version:  2312                                  |
|   \\  /    A nd           | Website:  www.openfoam.com                      |
|    \\/     M anipulation  |                                                 |
\*---------------------------------------------------------------------------*/
FoamFile
{
    version     2.0;
    format      ascii;
    arch        "LSB;label=32;scalar=64";
    class       volVectorField;
    location    "0.4";
    object      traction;
}
// * * * * * * * * * * * * * * * * * * * * * * * * * * * * * * * * * * * * * //

dimensions      [1 -1 -2 0 0 0 0];

internalField   uniform (0 0 0);

boundaryField
{
    fixed
    {
        type            calculated;
        value           nonuniform List<vector> 
108
(
(-258.18 -1166.29 -9084.72)
(-51.734 -1193.41 -9084.68)
(156.285 -1184.26 -9084.68)
(359.554 -1139.13 -9084.79)
(551.898 -1059.39 -9084.8)
(727.473 -947.458 -9084.77)
(880.948 -806.737 -9084.75)
(1007.65 -641.504 -9084.75)
(1103.74 -456.783 -9084.73)
(1166.29 -258.18 -9084.72)
(1193.41 -51.7339 -9084.68)
(1184.26 156.285 -9084.68)
(1139.13 359.554 -9084.79)
(1059.39 551.898 -9084.8)
(947.458 727.473 -9084.77)
(806.737 880.948 -9084.75)
(641.504 1007.65 -9084.75)
(456.783 1103.74 -9084.73)
(258.18 1166.29 -9084.72)
(51.7339 1193.41 -9084.68)
(-156.286 1184.26 -9084.68)
(-359.554 1139.13 -9084.79)
(-551.898 1059.39 -9084.8)
(-727.473 947.458 -9084.77)
(-880.948 806.737 -9084.75)
(-1007.65 641.504 -9084.75)
(-1103.74 456.783 -9084.73)
(-1166.29 258.18 -9084.72)
(-1193.41 51.7339 -9084.68)
(-1184.26 -156.285 -9084.68)
(-1139.13 -359.554 -9084.79)
(-1059.39 -551.898 -9084.81)
(-947.458 -727.473 -9084.77)
(-806.737 -880.948 -9084.75)
(-641.504 -1007.65 -9084.75)
(-456.783 -1103.74 -9084.73)
(-174.797 -1173.53 -14865.3)
(31.6393 -1186.05 -14865.3)
(237.117 -1162.54 -14865.2)
(435.387 -1103.7 -14865.3)
(620.427 -1011.33 -14865.3)
(786.616 -888.233 -14865.3)
(928.907 -738.14 -14865.2)
(1042.97 -565.622 -14865.3)
(1125.35 -375.922 -14865.3)
(1173.53 -174.797 -14865.3)
(1186.05 31.6394 -14865.3)
(1162.54 237.117 -14865.2)
(1103.7 435.387 -14865.3)
(1011.33 620.427 -14865.3)
(888.233 786.616 -14865.3)
(738.14 928.907 -14865.2)
(565.622 1042.97 -14865.3)
(375.922 1125.35 -14865.3)
(174.797 1173.53 -14865.3)
(-31.6394 1186.05 -14865.3)
(-237.118 1162.54 -14865.2)
(-435.387 1103.7 -14865.3)
(-620.427 1011.33 -14865.3)
(-786.616 888.233 -14865.3)
(-928.908 738.14 -14865.2)
(-1042.97 565.622 -14865.3)
(-1125.35 375.922 -14865.3)
(-1173.53 174.797 -14865.3)
(-1186.05 -31.6394 -14865.3)
(-1162.54 -237.118 -14865.2)
(-1103.7 -435.387 -14865.3)
(-1011.33 -620.427 -14865.3)
(-888.233 -786.616 -14865.3)
(-738.14 -928.908 -14865.2)
(-565.622 -1042.97 -14865.3)
(-375.922 -1125.35 -14865.3)
(29.2725 -1130.36 -29931)
(225.111 -1108.11 -29931)
(414.119 -1052.18 -29931.1)
(590.535 -964.281 -29931)
(749.006 -847.089 -29931)
(884.723 -704.155 -29931)
(993.559 -539.824 -29931)
(1072.2 -359.092 -29931.1)
(1118.27 -167.456 -29931)
(1130.36 29.2726 -29931)
(1108.11 225.111 -29931)
(1052.18 414.119 -29931.1)
(964.281 590.535 -29931)
(847.089 749.006 -29931)
(704.155 884.723 -29931)
(539.824 993.559 -29931)
(359.092 1072.2 -29931.1)
(167.456 1118.27 -29931)
(-29.2726 1130.36 -29931)
(-225.111 1108.11 -29931)
(-414.119 1052.18 -29931.1)
(-590.535 964.281 -29931)
(-749.006 847.089 -29931)
(-884.723 704.155 -29931)
(-993.559 539.824 -29931)
(-1072.2 359.092 -29931.1)
(-1118.27 167.456 -29931)
(-1130.36 -29.2726 -29931)
(-1108.11 -225.111 -29931)
(-1052.18 -414.119 -29931.1)
(-964.281 -590.535 -29931)
(-847.089 -749.006 -29931)
(-704.155 -884.723 -29931)
(-539.824 -993.559 -29931)
(-359.092 -1072.2 -29931.1)
(-167.456 -1118.27 -29931)
)
;
    }
    inside
    {
        type            calculated;
        value           nonuniform List<vector> 
540
(
(28803.6 3207.91 5059.42)
(27809 8160.8 5059.25)
(25969.4 12866 5059.4)
(23340.7 17180 5059.33)
(20002.9 20972.1 5059.3)
(16057.2 24126.8 5059.35)
(11623.7 26548.6 5059.28)
(6836.9 28163.8 5059.39)
(1842.52 28923.1 5059.39)
(-3207.91 28803.6 5059.42)
(-8160.8 27809 5059.25)
(-12866 25969.4 5059.4)
(-17180 23340.7 5059.33)
(-20972.1 20002.9 5059.3)
(-24126.8 16057.2 5059.35)
(-26548.6 11623.7 5059.27)
(-28163.8 6836.9 5059.38)
(-28923.1 1842.52 5059.39)
(-28803.6 -3207.91 5059.42)
(-27809 -8160.8 5059.25)
(-25969.4 -12866 5059.4)
(-23340.7 -17180 5059.33)
(-20002.9 -20972.1 5059.3)
(-16057.2 -24126.8 5059.35)
(-11623.7 -26548.6 5059.27)
(-6836.9 -28163.8 5059.39)
(-1842.52 -28923.1 5059.39)
(3207.91 -28803.6 5059.42)
(8160.8 -27809 5059.25)
(12866 -25969.4 5059.4)
(17180 -23340.7 5059.33)
(20972.1 -20002.9 5059.31)
(24126.8 -16057.2 5059.35)
(26548.6 -11623.7 5059.28)
(28163.8 -6836.9 5059.39)
(28923.1 -1842.52 5059.39)
(14412.6 1240.84 2079.71)
(13978.2 3724.76 2079.64)
(13119 6095.4 2079.68)
(11861.2 8280.89 2079.74)
(10243 10214.7 2079.73)
(8313.56 11838.1 2079.71)
(6131.64 13102 2079.69)
(3763.38 13967.7 2079.66)
(1280.68 14409.1 2079.64)
(-1240.84 14412.6 2079.71)
(-3724.76 13978.2 2079.64)
(-6095.4 13119 2079.68)
(-8280.89 11861.2 2079.73)
(-10214.7 10243 2079.73)
(-11838.1 8313.56 2079.71)
(-13102 6131.64 2079.69)
(-13967.7 3763.38 2079.66)
(-14409.1 1280.68 2079.64)
(-14412.6 -1240.84 2079.7)
(-13978.2 -3724.76 2079.64)
(-13119 -6095.4 2079.68)
(-11861.2 -8280.89 2079.73)
(-10243 -10214.7 2079.73)
(-8313.56 -11838.1 2079.71)
(-6131.64 -13102 2079.69)
(-3763.38 -13967.7 2079.66)
(-1280.68 -14409.1 2079.64)
(1240.84 -14412.6 2079.71)
(3724.76 -13978.2 2079.64)
(6095.4 -13119 2079.68)
(8280.89 -11861.2 2079.74)
(10214.7 -10243 2079.73)
(11838.1 -8313.56 2079.71)
(13102 -6131.64 2079.69)
(13967.7 -3763.38 2079.66)
(14409.1 -1280.68 2079.64)
(13630.3 1072.74 1292.26)
(13237 3423.35 1292.31)
(12441.3 5669.85 1292.25)
(11267.8 7744.19 1292.19)
(9751.91 9583.21 1292.21)
(7939.65 11131 1292.21)
(5886.14 12340.6 1292.26)
(3653.79 13175.1 1292.32)
(1310.43 13609.5 1292.24)
(-1072.74 13630.3 1292.26)
(-3423.35 13237 1292.31)
(-5669.85 12441.3 1292.25)
(-7744.18 11267.8 1292.19)
(-9583.21 9751.91 1292.21)
(-11131 7939.65 1292.21)
(-12340.6 5886.14 1292.26)
(-13175.1 3653.79 1292.32)
(-13609.5 1310.43 1292.24)
(-13630.3 -1072.74 1292.26)
(-13237 -3423.35 1292.31)
(-12441.3 -5669.85 1292.25)
(-11267.8 -7744.18 1292.19)
(-9751.91 -9583.21 1292.21)
(-7939.65 -11131 1292.21)
(-5886.14 -12340.6 1292.26)
(-3653.79 -13175.1 1292.32)
(-1310.43 -13609.5 1292.24)
(1072.74 -13630.3 1292.26)
(3423.35 -13237 1292.31)
(5669.85 -12441.3 1292.25)
(7744.19 -11267.8 1292.19)
(9583.21 -9751.91 1292.21)
(11131 -7939.65 1292.21)
(12340.6 -5886.14 1292.26)
(13175.1 -3653.79 1292.32)
(13609.5 -1310.43 1292.24)
(12445.1 754.218 394.284)
(12125.1 2903.84 394.262)
(11436.6 4965.18 394.28)
(10400.7 6875.76 394.313)
(9048.74 8577.34 394.288)
(7421.82 10018.3 394.304)
(5569.41 11155 394.281)
(3547.77 11952.6 394.247)
(1418.36 12387 394.318)
(-754.218 12445.1 394.283)
(-2903.84 12125.1 394.262)
(-4965.18 11436.6 394.28)
(-6875.76 10400.7 394.313)
(-8577.34 9048.74 394.287)
(-10018.3 7421.82 394.304)
(-11155 5569.41 394.281)
(-11952.6 3547.77 394.246)
(-12387 1418.36 394.317)
(-12445.1 -754.218 394.283)
(-12125.1 -2903.84 394.261)
(-11436.6 -4965.18 394.28)
(-10400.7 -6875.76 394.313)
(-9048.74 -8577.34 394.287)
(-7421.82 -10018.3 394.304)
(-5569.41 -11155 394.281)
(-3547.77 -11952.6 394.247)
(-1418.36 -12387 394.318)
(754.218 -12445.1 394.284)
(2903.84 -12125.1 394.262)
(4965.18 -11436.6 394.28)
(6875.76 -10400.7 394.313)
(8577.34 -9048.74 394.288)
(10018.3 -7421.82 394.305)
(11155 -5569.41 394.282)
(11952.6 -3547.77 394.247)
(12387 -1418.36 394.318)
(11566.3 417.254 -552.449)
(11318.1 2419.29 -552.383)
(10726.1 4348 -552.426)
(9808.08 6144.46 -552.43)
(8592.1 7754.27 -552.417)
(7115.05 9128.46 -552.437)
(5421.85 10225.3 -552.422)
(3563.81 11011.5 -552.413)
(1597.6 11463 -552.413)
(-417.253 11566.3 -552.45)
(-2419.29 11318.1 -552.384)
(-4348 10726.1 -552.427)
(-6144.46 9808.08 -552.431)
(-7754.27 8592.1 -552.418)
(-9128.46 7115.05 -552.438)
(-10225.3 5421.85 -552.423)
(-11011.5 3563.81 -552.413)
(-11463 1597.6 -552.413)
(-11566.3 -417.253 -552.45)
(-11318.1 -2419.29 -552.384)
(-10726.1 -4348 -552.427)
(-9808.08 -6144.46 -552.431)
(-8592.1 -7754.27 -552.418)
(-7115.05 -9128.46 -552.438)
(-5421.85 -10225.3 -552.422)
(-3563.81 -11011.5 -552.413)
(-1597.6 -11463 -552.413)
(417.254 -11566.3 -552.449)
(2419.29 -11318.1 -552.383)
(4348 -10726.1 -552.427)
(6144.46 -9808.08 -552.43)
(7754.27 -8592.1 -552.417)
(9128.46 -7115.05 -552.437)
(10225.3 -5421.85 -552.422)
(11011.5 -3563.81 -552.413)
(11463 -1597.6 -552.412)
(10575.3 -111.384 -1512.89)
(10434 1726.66 -1512.91)
(9975.72 3512.34 -1512.92)
(9214.2 5191.21 -1512.96)
(8172.8 6712.39 -1512.97)
(6883.08 8029.68 -1512.96)
(5384.13 9102.83 -1512.94)
(3721.64 9899.58 -1512.94)
(1946.09 10395.4 -1512.88)
(111.384 10575.3 -1512.89)
(-1726.65 10434 -1512.91)
(-3512.34 9975.72 -1512.92)
(-5191.21 9214.2 -1512.96)
(-6712.39 8172.8 -1512.97)
(-8029.68 6883.08 -1512.96)
(-9102.83 5384.13 -1512.95)
(-9899.58 3721.64 -1512.94)
(-10395.4 1946.09 -1512.88)
(-10575.3 111.384 -1512.89)
(-10434 -1726.65 -1512.91)
(-9975.72 -3512.34 -1512.92)
(-9214.2 -5191.21 -1512.96)
(-8172.8 -6712.39 -1512.97)
(-6883.08 -8029.68 -1512.96)
(-5384.13 -9102.83 -1512.94)
(-3721.64 -9899.58 -1512.94)
(-1946.09 -10395.4 -1512.88)
(-111.384 -10575.3 -1512.89)
(1726.66 -10434 -1512.91)
(3512.34 -9975.72 -1512.92)
(5191.21 -9214.2 -1512.96)
(6712.39 -8172.8 -1512.97)
(8029.68 -6883.08 -1512.96)
(9102.83 -5384.13 -1512.94)
(9899.58 -3721.64 -1512.94)
(10395.4 -1946.09 -1512.88)
(9381.84 -918.735 -2402.09)
(9398.73 724.275 -2402.06)
(9130.24 2345.43 -2402.03)
(8584.24 3895.17 -2401.98)
(7777.43 5326.66 -2402)
(6734.3 6596.32 -2402)
(5486.58 7665.45 -2402.02)
(4072.11 8501.8 -2402.1)
(2533.97 9079.61 -2402.07)
(918.735 9381.84 -2402.09)
(-724.275 9398.73 -2402.06)
(-2345.43 9130.24 -2402.03)
(-3895.17 8584.24 -2401.98)
(-5326.66 7777.43 -2402)
(-6596.32 6734.3 -2402)
(-7665.45 5486.58 -2402.02)
(-8501.8 4072.11 -2402.1)
(-9079.61 2533.97 -2402.07)
(-9381.84 918.735 -2402.09)
(-9398.73 -724.275 -2402.06)
(-9130.24 -2345.43 -2402.03)
(-8584.24 -3895.17 -2401.98)
(-7777.43 -5326.66 -2402)
(-6734.3 -6596.32 -2402)
(-5486.58 -7665.45 -2402.02)
(-4072.11 -8501.8 -2402.1)
(-2533.97 -9079.61 -2402.07)
(-918.734 -9381.84 -2402.09)
(724.276 -9398.73 -2402.06)
(2345.43 -9130.24 -2402.03)
(3895.17 -8584.24 -2401.98)
(5326.67 -7777.43 -2402)
(6596.32 -6734.3 -2402)
(7665.45 -5486.58 -2402.02)
(8501.8 -4072.11 -2402.1)
(9079.61 -2533.97 -2402.07)
(7915.75 -2089.68 -3104.53)
(8158.34 -683.454 -3104.5)
(8153.03 743.63 -3104.57)
(7900.07 2148.04 -3104.55)
(7407.04 3487.32 -3104.56)
(6688.92 4720.62 -3104.59)
(5767.62 5810.4 -3104.58)
(4671 6723.65 -3104.53)
(3432.53 7432.6 -3104.52)
(2089.68 7915.75 -3104.53)
(683.454 8158.34 -3104.5)
(-743.629 8153.03 -3104.57)
(-2148.04 7900.07 -3104.55)
(-3487.32 7407.04 -3104.56)
(-4720.62 6688.92 -3104.59)
(-5810.4 5767.62 -3104.58)
(-6723.65 4671 -3104.53)
(-7432.6 3432.53 -3104.52)
(-7915.75 2089.68 -3104.53)
(-8158.34 683.454 -3104.5)
(-8153.03 -743.63 -3104.57)
(-7900.07 -2148.04 -3104.55)
(-7407.04 -3487.32 -3104.56)
(-6688.92 -4720.62 -3104.59)
(-5767.62 -5810.4 -3104.58)
(-4671 -6723.65 -3104.53)
(-3432.53 -7432.6 -3104.52)
(-2089.68 -7915.76 -3104.53)
(-683.453 -8158.34 -3104.5)
(743.631 -8153.03 -3104.57)
(2148.04 -7900.07 -3104.55)
(3487.32 -7407.04 -3104.56)
(4720.62 -6688.92 -3104.59)
(5810.4 -5767.62 -3104.58)
(6723.65 -4671 -3104.53)
(7432.6 -3432.53 -3104.52)
(6175.05 -3647.49 -3485.27)
(6714.73 -2519.86 -3485.23)
(7050.25 -1315.55 -3485.23)
(7171.6 -71.2509 -3485.27)
(7075.02 1175.16 -3485.29)
(6763.46 2385.81 -3485.27)
(6246.42 3524.03 -3485.23)
(5539.55 4555.17 -3485.23)
(4664.46 5447.99 -3485.29)
(3647.49 6175.05 -3485.27)
(2519.86 6714.73 -3485.23)
(1315.55 7050.25 -3485.23)
(71.2512 7171.6 -3485.28)
(-1175.16 7075.02 -3485.29)
(-2385.81 6763.46 -3485.27)
(-3524.03 6246.42 -3485.23)
(-4555.17 5539.55 -3485.23)
(-5447.99 4664.46 -3485.29)
(-6175.05 3647.49 -3485.27)
(-6714.73 2519.85 -3485.23)
(-7050.25 1315.55 -3485.23)
(-7171.6 71.2505 -3485.28)
(-7075.02 -1175.16 -3485.29)
(-6763.46 -2385.81 -3485.27)
(-6246.42 -3524.03 -3485.23)
(-5539.55 -4555.17 -3485.23)
(-4664.46 -5447.99 -3485.29)
(-3647.49 -6175.05 -3485.27)
(-2519.85 -6714.73 -3485.23)
(-1315.55 -7050.25 -3485.23)
(-71.2498 -7171.6 -3485.27)
(1175.16 -7075.02 -3485.29)
(2385.81 -6763.46 -3485.27)
(3524.03 -6246.42 -3485.23)
(4555.17 -5539.55 -3485.23)
(5447.99 -4664.46 -3485.29)
(4260.44 -5464.68 -3431.43)
(5144.73 -4641.85 -3431.47)
(5872.62 -3677.99 -3431.44)
(6422.08 -2602.28 -3431.44)
(6776.4 -1447.64 -3431.38)
(6924.83 -248.971 -3431.4)
(6862.81 957.263 -3431.41)
(6592.32 2134.51 -3431.46)
(6121.57 3246.87 -3431.45)
(5464.68 4260.44 -3431.43)
(4641.85 5144.73 -3431.47)
(3677.99 5872.62 -3431.44)
(2602.28 6422.08 -3431.44)
(1447.64 6776.4 -3431.38)
(248.971 6924.83 -3431.4)
(-957.263 6862.81 -3431.41)
(-2134.51 6592.32 -3431.46)
(-3246.87 6121.57 -3431.45)
(-4260.44 5464.68 -3431.43)
(-5144.73 4641.85 -3431.47)
(-5872.62 3677.99 -3431.44)
(-6422.08 2602.28 -3431.44)
(-6776.4 1447.64 -3431.38)
(-6924.83 248.97 -3431.4)
(-6862.81 -957.264 -3431.41)
(-6592.32 -2134.51 -3431.46)
(-6121.57 -3246.87 -3431.45)
(-5464.68 -4260.44 -3431.43)
(-4641.85 -5144.73 -3431.47)
(-3677.99 -5872.62 -3431.44)
(-2602.27 -6422.08 -3431.44)
(-1447.64 -6776.4 -3431.38)
(-248.97 -6924.83 -3431.4)
(957.265 -6862.81 -3431.41)
(2134.51 -6592.32 -3431.46)
(3246.87 -6121.57 -3431.45)
(2431.51 -7162.04 -2961.36)
(3638.31 -6630.99 -2961.41)
(4734.48 -5898.48 -2961.39)
(5686.8 -4986.64 -2961.44)
(6466.34 -3923.43 -2961.43)
(7049.43 -2740.99 -2961.41)
(7418.26 -1475.2 -2961.42)
(7561.74 -164.677 -2961.38)
(7475.5 1150.93 -2961.38)
(7162.04 2431.5 -2961.36)
(6630.99 3638.31 -2961.41)
(5898.48 4734.48 -2961.39)
(4986.65 5686.8 -2961.44)
(3923.43 6466.34 -2961.43)
(2740.99 7049.43 -2961.41)
(1475.19 7418.26 -2961.42)
(164.676 7561.74 -2961.38)
(-1150.93 7475.5 -2961.38)
(-2431.5 7162.04 -2961.36)
(-3638.31 6630.99 -2961.41)
(-4734.48 5898.48 -2961.39)
(-5686.8 4986.64 -2961.44)
(-6466.35 3923.43 -2961.43)
(-7049.43 2740.99 -2961.41)
(-7418.26 1475.19 -2961.42)
(-7561.74 164.676 -2961.38)
(-7475.5 -1150.93 -2961.38)
(-7162.04 -2431.5 -2961.36)
(-6630.99 -3638.31 -2961.41)
(-5898.48 -4734.48 -2961.39)
(-4986.64 -5686.8 -2961.44)
(-3923.42 -6466.35 -2961.43)
(-2740.99 -7049.43 -2961.41)
(-1475.19 -7418.26 -2961.42)
(-164.675 -7561.74 -2961.38)
(1150.93 -7475.5 -2961.38)
(1084.08 -8095.15 -2376.95)
(2473.34 -7783.74 -2377.03)
(3787.47 -7236.09 -2377.02)
(4986.43 -6468.35 -2377.07)
(6033.91 -5504.26 -2377.04)
(6898.07 -4372.88 -2377.05)
(7552.55 -3108.67 -2376.98)
(7977.74 -1750.02 -2376.93)
(8160.31 -338.136 -2376.92)
(8095.15 1084.08 -2376.95)
(7783.75 2473.34 -2377.03)
(7236.08 3787.47 -2377.03)
(6468.35 4986.43 -2377.07)
(5504.26 6033.91 -2377.04)
(4372.88 6898.07 -2377.05)
(3108.67 7552.55 -2376.98)
(1750.02 7977.74 -2376.93)
(338.135 8160.31 -2376.92)
(-1084.08 8095.15 -2376.95)
(-2473.34 7783.75 -2377.03)
(-3787.47 7236.08 -2377.03)
(-4986.43 6468.35 -2377.07)
(-6033.91 5504.26 -2377.04)
(-6898.07 4372.88 -2377.05)
(-7552.55 3108.67 -2376.98)
(-7977.74 1750.02 -2376.93)
(-8160.31 338.135 -2376.92)
(-8095.15 -1084.08 -2376.95)
(-7783.75 -2473.34 -2377.03)
(-7236.09 -3787.47 -2377.03)
(-6468.35 -4986.43 -2377.07)
(-5504.26 -6033.91 -2377.04)
(-4372.88 -6898.07 -2377.05)
(-3108.67 -7552.55 -2376.98)
(-1750.01 -7977.74 -2376.94)
(-338.132 -8160.31 -2376.92)
(939.146 -7224.03 -3036.88)
(2179.41 -6951.03 -3037.08)
(3353.39 -6466.99 -3037.1)
(4425.43 -5786.34 -3037.15)
(5363 -4930.03 -3037.12)
(6137.64 -3923.92 -3037.09)
(6725.72 -2798.55 -3037.01)
(7109.59 -1588.25 -3036.85)
(7277.34 -329.588 -3036.82)
(7224.03 939.142 -3036.88)
(6951.04 2179.41 -3037.07)
(6466.99 3353.38 -3037.1)
(5786.34 4425.43 -3037.16)
(4930.02 5363 -3037.12)
(3923.91 6137.64 -3037.09)
(2798.55 6725.72 -3037.01)
(1588.25 7109.59 -3036.85)
(329.588 7277.34 -3036.82)
(-939.142 7224.03 -3036.88)
(-2179.41 6951.04 -3037.07)
(-3353.38 6466.99 -3037.1)
(-4425.43 5786.34 -3037.16)
(-5363 4930.02 -3037.12)
(-6137.65 3923.91 -3037.09)
(-6725.72 2798.55 -3037.01)
(-7109.59 1588.25 -3036.85)
(-7277.34 329.589 -3036.82)
(-7224.03 -939.141 -3036.87)
(-6951.04 -2179.41 -3037.07)
(-6466.99 -3353.38 -3037.09)
(-5786.34 -4425.43 -3037.15)
(-4930.03 -5363 -3037.12)
(-3923.91 -6137.65 -3037.09)
(-2798.55 -6725.72 -3037.01)
(-1588.25 -7109.59 -3036.85)
(-329.584 -7277.34 -3036.82)
(1678.46 -4376.39 -6866.8)
(2413.06 -4018.53 -6867.03)
(3074.18 -3538.27 -6867.17)
(3641.95 -2950.73 -6867.14)
(4099 -2273.56 -6867.02)
(4431.54 -1527.22 -6867.11)
(4629.47 -734.542 -6866.99)
(4686.59 80.3949 -6866.69)
(4601.61 892.989 -6866.71)
(4376.39 1678.46 -6866.79)
(4018.53 2413.06 -6867.03)
(3538.27 3074.18 -6867.17)
(2950.72 3641.94 -6867.14)
(2273.55 4099 -6867.03)
(1527.21 4431.54 -6867.11)
(734.54 4629.47 -6867)
(-80.3961 4686.59 -6866.7)
(-892.99 4601.61 -6866.71)
(-1678.46 4376.39 -6866.79)
(-2413.06 4018.53 -6867.03)
(-3074.18 3538.27 -6867.17)
(-3641.95 2950.73 -6867.14)
(-4099 2273.56 -6867.03)
(-4431.54 1527.21 -6867.11)
(-4629.47 734.542 -6866.99)
(-4686.59 -80.3944 -6866.69)
(-4601.62 -892.987 -6866.7)
(-4376.4 -1678.46 -6866.79)
(-4018.54 -2413.06 -6867.02)
(-3538.28 -3074.18 -6867.16)
(-2950.73 -3641.94 -6867.13)
(-2273.56 -4099 -6867.02)
(-1527.22 -4431.54 -6867.11)
(-734.54 -4629.47 -6867)
(80.399 -4686.59 -6866.7)
(892.993 -4601.61 -6866.72)
(5013 1944.7 -39219.8)
(4598.95 2785.61 -39219.2)
(4045.63 3542.14 -39221)
(3368.92 4190.65 -39219.5)
(2590.1 4712.18 -39220.7)
(1732.56 5090.06 -39219.4)
(822.189 5313.94 -39220.9)
(-112.819 5375.72 -39219.3)
(-1044.73 5274.46 -39220)
(-1944.7 5013 -39219.8)
(-2785.61 4598.95 -39219.2)
(-3542.14 4045.63 -39221)
(-4190.66 3368.92 -39219.5)
(-4712.18 2590.1 -39220.7)
(-5090.06 1732.56 -39219.5)
(-5313.94 822.188 -39220.9)
(-5375.72 -112.822 -39219.3)
(-5274.46 -1044.73 -39220)
(-5013 -1944.7 -39219.8)
(-4598.95 -2785.61 -39219.2)
(-4045.63 -3542.14 -39221)
(-3368.92 -4190.66 -39219.5)
(-2590.09 -4712.18 -39220.7)
(-1732.56 -5090.06 -39219.5)
(-822.186 -5313.94 -39220.9)
(112.823 -5375.72 -39219.3)
(1044.73 -5274.46 -39220)
(1944.7 -5013 -39219.8)
(2785.61 -4598.95 -39219.2)
(3542.14 -4045.62 -39221)
(4190.65 -3368.92 -39219.5)
(4712.18 -2590.09 -39220.7)
(5090.06 -1732.56 -39219.4)
(5313.94 -822.185 -39220.9)
(5375.72 112.823 -39219.3)
(5274.46 1044.73 -39220)
)
;
    }
    outside
    {
        type            calculated;
        value           nonuniform List<vector> 
540
(
(-8563.39 -727.783 -1893.31)
(-8306.89 -2203.67 -1893.32)
(-7798.01 -3612.73 -1893.3)
(-7052.25 -4912.05 -1893.34)
(-6092.19 -6062 -1893.37)
(-4947.02 -7027.73 -1893.35)
(-3651.46 -7780.01 -1893.31)
(-2244.94 -8295.9 -1893.31)
(-770.331 -8559.67 -1893.31)
(727.783 -8563.39 -1893.31)
(2203.67 -8306.89 -1893.32)
(3612.73 -7798 -1893.3)
(4912.05 -7052.25 -1893.34)
(6062 -6092.19 -1893.37)
(7027.73 -4947.02 -1893.35)
(7780.01 -3651.46 -1893.31)
(8295.9 -2244.94 -1893.31)
(8559.67 -770.331 -1893.31)
(8563.39 727.783 -1893.31)
(8306.89 2203.67 -1893.32)
(7798 3612.73 -1893.3)
(7052.25 4912.05 -1893.34)
(6092.19 6062 -1893.37)
(4947.02 7027.73 -1893.35)
(3651.46 7780.01 -1893.31)
(2244.94 8295.9 -1893.31)
(770.331 8559.67 -1893.31)
(-727.783 8563.39 -1893.31)
(-2203.67 8306.89 -1893.32)
(-3612.73 7798.01 -1893.3)
(-4912.06 7052.25 -1893.34)
(-6062 6092.19 -1893.37)
(-7027.73 4947.02 -1893.35)
(-7780.01 3651.46 -1893.31)
(-8295.9 2244.94 -1893.31)
(-8559.67 770.331 -1893.31)
(2881.3 1566.47 124.878)
(2565.41 2043.16 124.872)
(2171.73 2457.59 124.887)
(1712.06 2797.24 124.884)
(1200.25 3052.19 124.884)
(651.9 3214.32 124.886)
(83.9199 3278.48 124.873)
(-486.601 3243.29 124.88)
(-1042.59 3109.58 124.877)
(-1566.47 2881.3 124.878)
(-2043.16 2565.41 124.872)
(-2457.59 2171.73 124.887)
(-2797.24 1712.06 124.884)
(-3052.19 1200.25 124.884)
(-3214.32 651.899 124.886)
(-3278.48 83.9198 124.873)
(-3243.29 -486.601 124.88)
(-3109.58 -1042.59 124.877)
(-2881.3 -1566.47 124.878)
(-2565.41 -2043.16 124.872)
(-2171.73 -2457.59 124.887)
(-1712.06 -2797.24 124.884)
(-1200.25 -3052.19 124.884)
(-651.9 -3214.32 124.886)
(-83.9199 -3278.48 124.873)
(486.601 -3243.29 124.88)
(1042.59 -3109.58 124.877)
(1566.47 -2881.3 124.878)
(2043.16 -2565.41 124.872)
(2457.59 -2171.73 124.887)
(2797.24 -1712.06 124.884)
(3052.19 -1200.25 124.884)
(3214.32 -651.9 124.886)
(3278.48 -83.92 124.873)
(3243.29 486.601 124.88)
(3109.58 1042.59 124.877)
(1619.02 2195.85 -156.699)
(1213.06 2443.67 -156.706)
(770.302 2617.25 -156.705)
(304.115 2711.18 -156.707)
(-171.251 2722.87 -156.7)
(-641.466 2651.77 -156.699)
(-1092.19 2499.96 -156.706)
(-1509.74 2272.44 -156.699)
(-1881.46 1975.64 -156.71)
(-2195.85 1619.02 -156.699)
(-2443.67 1213.06 -156.706)
(-2617.25 770.302 -156.705)
(-2711.18 304.115 -156.707)
(-2722.87 -171.251 -156.7)
(-2651.77 -641.466 -156.699)
(-2499.96 -1092.19 -156.706)
(-2272.44 -1509.74 -156.699)
(-1975.64 -1881.46 -156.71)
(-1619.02 -2195.85 -156.699)
(-1213.06 -2443.67 -156.706)
(-770.302 -2617.25 -156.705)
(-304.115 -2711.18 -156.707)
(171.251 -2722.87 -156.7)
(641.466 -2651.77 -156.699)
(1092.19 -2499.96 -156.706)
(1509.74 -2272.44 -156.699)
(1881.46 -1975.64 -156.71)
(2195.85 -1619.02 -156.699)
(2443.67 -1213.06 -156.706)
(2617.25 -770.302 -156.705)
(2711.18 -304.115 -156.707)
(2722.87 171.251 -156.7)
(2651.77 641.466 -156.699)
(2499.96 1092.19 -156.706)
(2272.44 1509.74 -156.699)
(1975.64 1881.46 -156.71)
(1291.75 2937.08 -202.757)
(762.065 3116.89 -202.762)
(209.253 3201.75 -202.76)
(-349.861 3189.47 -202.758)
(-898.384 3080.29 -202.757)
(-1419.64 2877.48 -202.756)
(-1897.72 2587.31 -202.755)
(-2318.08 2218.31 -202.753)
(-2668.2 1782.16 -202.759)
(-2937.08 1291.75 -202.757)
(-3116.89 762.065 -202.762)
(-3201.75 209.253 -202.76)
(-3189.47 -349.862 -202.758)
(-3080.29 -898.384 -202.757)
(-2877.48 -1419.64 -202.756)
(-2587.31 -1897.72 -202.755)
(-2218.31 -2318.08 -202.753)
(-1782.16 -2668.2 -202.759)
(-1291.75 -2937.08 -202.757)
(-762.065 -3116.89 -202.762)
(-209.253 -3201.75 -202.76)
(349.862 -3189.47 -202.758)
(898.384 -3080.29 -202.757)
(1419.64 -2877.48 -202.756)
(1897.72 -2587.31 -202.755)
(2318.08 -2218.31 -202.753)
(2668.2 -1782.16 -202.759)
(2937.08 -1291.75 -202.757)
(3116.89 -762.065 -202.762)
(3201.75 -209.253 -202.76)
(3189.47 349.861 -202.758)
(3080.29 898.384 -202.757)
(2877.48 1419.64 -202.756)
(2587.31 1897.72 -202.755)
(2218.31 2318.08 -202.753)
(1782.16 2668.2 -202.759)
(692.033 3597.89 -133.777)
(56.7863 3663.57 -133.792)
(-580.295 3617.57 -133.779)
(-1199.6 3461.87 -133.782)
(-1782.59 3200.99 -133.781)
(-2311.4 2842.87 -133.782)
(-2769.89 2398.39 -133.789)
(-3144.17 1880.78 -133.772)
(-3423.13 1306.28 -133.782)
(-3597.89 692.033 -133.777)
(-3663.57 56.7861 -133.791)
(-3617.57 -580.296 -133.779)
(-3461.87 -1199.6 -133.781)
(-3200.99 -1782.59 -133.781)
(-2842.87 -2311.4 -133.782)
(-2398.39 -2769.89 -133.789)
(-1880.78 -3144.17 -133.771)
(-1306.28 -3423.13 -133.782)
(-692.033 -3597.89 -133.777)
(-56.7861 -3663.57 -133.791)
(580.296 -3617.57 -133.779)
(1199.6 -3461.87 -133.781)
(1782.59 -3200.99 -133.781)
(2311.4 -2842.87 -133.782)
(2769.89 -2398.39 -133.789)
(3144.17 -1880.78 -133.772)
(3423.13 -1306.28 -133.782)
(3597.89 -692.033 -133.777)
(3663.57 -56.7863 -133.792)
(3617.57 580.295 -133.779)
(3461.87 1199.6 -133.782)
(3200.99 1782.59 -133.781)
(2842.87 2311.4 -133.783)
(2398.39 2769.89 -133.789)
(1880.78 3144.17 -133.772)
(1306.28 3423.13 -133.782)
(84.4554 4239.7 64.7848)
(-653.015 4190.05 64.767)
(-1370.75 4012.97 64.7769)
(-2046.7 3714 64.7737)
(-2660.57 3302.13 64.7814)
(-3193.57 2789.96 64.7802)
(-3629.47 2193.02 64.7766)
(-3955.16 1529.38 64.7864)
(-4160.72 819.419 64.7757)
(-4239.7 84.4551 64.785)
(-4190.05 -653.015 64.7671)
(-4012.97 -1370.75 64.7771)
(-3714 -2046.7 64.7738)
(-3302.13 -2660.57 64.7815)
(-2789.96 -3193.57 64.7803)
(-2193.02 -3629.47 64.7767)
(-1529.38 -3955.16 64.7865)
(-819.419 -4160.72 64.7757)
(-84.4552 -4239.7 64.785)
(653.015 -4190.05 64.7671)
(1370.75 -4012.97 64.777)
(2046.7 -3714 64.7738)
(2660.57 -3302.13 64.7815)
(3193.57 -2789.96 64.7802)
(3629.47 -2193.02 64.7766)
(3955.16 -1529.38 64.7864)
(4160.72 -819.419 64.7756)
(4239.7 -84.4554 64.7849)
(4190.05 653.014 64.767)
(4012.97 1370.75 64.7769)
(3714 2046.7 64.7737)
(3302.13 2660.57 64.7814)
(2789.96 3193.57 64.7801)
(2193.02 3629.47 64.7765)
(1529.38 3955.16 64.7863)
(819.419 4160.72 64.7755)
(-606.063 4810.96 409.988)
(-1432.23 4632.64 409.984)
(-2215.05 4313.54 410.005)
(-2930.33 3863.53 409.966)
(-3556.71 3295.86 409.993)
(-4074.98 2628.03 410.015)
(-4469.41 1880.64 409.983)
(-4728.16 1075.87 410.01)
(-4843.14 238.553 409.988)
(-4810.96 -606.064 409.988)
(-4632.64 -1432.23 409.985)
(-4313.54 -2215.05 410.006)
(-3863.53 -2930.33 409.966)
(-3295.86 -3556.71 409.993)
(-2628.03 -4074.98 410.015)
(-1880.64 -4469.41 409.983)
(-1075.87 -4728.16 410.01)
(-238.553 -4843.14 409.988)
(606.063 -4810.96 409.988)
(1432.23 -4632.64 409.985)
(2215.05 -4313.54 410.006)
(2930.33 -3863.53 409.966)
(3556.71 -3295.86 409.993)
(4074.98 -2628.03 410.015)
(4469.41 -1880.64 409.982)
(4728.16 -1075.87 410.01)
(4843.14 -238.554 409.988)
(4810.96 606.063 409.988)
(4632.64 1432.23 409.984)
(4313.54 2215.05 410.005)
(3863.53 2930.33 409.965)
(3295.86 3556.71 409.993)
(2628.03 4074.98 410.015)
(1880.64 4469.41 409.982)
(1075.87 4728.16 410.01)
(238.553 4843.14 409.988)
(-1400.4 5260.35 950.502)
(-2292.6 4937.23 950.505)
(-3115.15 4464.17 950.507)
(-3842.99 3855.51 950.465)
(-4454.11 3129.49 950.492)
(-4929.83 2308.46 950.499)
(-5255.81 1417.35 950.504)
(-5422.15 483.155 950.509)
(-5423.66 -465.736 950.527)
(-5260.35 -1400.4 950.502)
(-4937.23 -2292.6 950.505)
(-4464.17 -3115.15 950.507)
(-3855.51 -3842.99 950.465)
(-3129.49 -4454.11 950.493)
(-2308.46 -4929.83 950.499)
(-1417.35 -5255.81 950.504)
(-483.156 -5422.15 950.509)
(465.736 -5423.66 950.527)
(1400.4 -5260.35 950.502)
(2292.6 -4937.23 950.505)
(3115.15 -4464.17 950.507)
(3842.99 -3855.51 950.465)
(4454.11 -3129.49 950.492)
(4929.83 -2308.46 950.498)
(5255.81 -1417.35 950.504)
(5422.15 -483.156 950.509)
(5423.66 465.736 950.526)
(5260.35 1400.4 950.502)
(4937.23 2292.6 950.505)
(4464.17 3115.15 950.507)
(3855.51 3842.99 950.465)
(3129.49 4454.11 950.492)
(2308.46 4929.83 950.498)
(1417.35 5255.81 950.504)
(483.156 5422.15 950.509)
(-465.736 5423.66 950.526)
(-2271.42 5536.98 1764.2)
(-3198.37 5058.5 1764.19)
(-4028.18 4426.34 1764.18)
(-4735.59 3659.56 1764.19)
(-5299.14 2781.61 1764.21)
(-5701.66 1819.16 1764.21)
(-5930.9 801.412 1764.21)
(-5980.03 -240.61 1764.19)
(-5847.46 -1275.31 1764.16)
(-5536.98 -2271.42 1764.2)
(-5058.5 -3198.37 1764.19)
(-4426.34 -4028.18 1764.18)
(-3659.56 -4735.59 1764.19)
(-2781.61 -5299.14 1764.21)
(-1819.16 -5701.66 1764.21)
(-801.412 -5930.9 1764.21)
(240.61 -5980.03 1764.19)
(1275.31 -5847.46 1764.16)
(2271.42 -5536.98 1764.2)
(3198.37 -5058.5 1764.19)
(4028.18 -4426.34 1764.18)
(4735.59 -3659.56 1764.19)
(5299.14 -2781.61 1764.21)
(5701.66 -1819.16 1764.21)
(5930.9 -801.412 1764.21)
(5980.03 240.61 1764.19)
(5847.46 1275.31 1764.16)
(5536.98 2271.42 1764.2)
(5058.5 3198.37 1764.19)
(4426.34 4028.18 1764.18)
(3659.56 4735.59 1764.19)
(2781.61 5299.14 1764.21)
(1819.16 5701.66 1764.21)
(801.412 5930.9 1764.21)
(-240.61 5980.03 1764.19)
(-1275.31 5847.46 1764.16)
(-3087.54 5604.43 2929.38)
(-4013.85 4983.11 2929.41)
(-4818.16 4210.43 2929.38)
(-5476.07 3309.86 2929.33)
(-5967.64 2308.64 2929.36)
(-6277.88 1237.3 2929.36)
(-6397.35 128.316 2929.38)
(-6322.44 -984.469 2929.36)
(-6055.44 -2067.4 2929.36)
(-5604.43 -3087.54 2929.38)
(-4983.11 -4013.85 2929.41)
(-4210.43 -4818.16 2929.38)
(-3309.86 -5476.07 2929.33)
(-2308.64 -5967.64 2929.36)
(-1237.3 -6277.88 2929.36)
(-128.316 -6397.35 2929.38)
(984.468 -6322.44 2929.36)
(2067.4 -6055.44 2929.36)
(3087.54 -5604.43 2929.38)
(4013.85 -4983.11 2929.41)
(4818.16 -4210.43 2929.38)
(5476.07 -3309.86 2929.33)
(5967.64 -2308.64 2929.36)
(6277.88 -1237.3 2929.36)
(6397.35 -128.316 2929.38)
(6322.44 984.468 2929.36)
(6055.44 2067.4 2929.36)
(5604.43 3087.54 2929.38)
(4983.11 4013.85 2929.41)
(4210.43 4818.16 2929.38)
(3309.86 5476.07 2929.32)
(2308.64 5967.64 2929.36)
(1237.3 6277.88 2929.36)
(128.316 6397.35 2929.38)
(-984.468 6322.44 2929.36)
(-2067.4 6055.44 2929.36)
(-3550.42 5474.81 4414.27)
(-4447.18 4775.09 4414.29)
(-5208.74 3930.21 4414.26)
(-5812.12 2966.06 4414.27)
(-6238.88 1911.74 4414.26)
(-6476.06 799.335 4414.27)
(-6516.55 -337.298 4414.24)
(-6358.85 -1463.91 4414.3)
(-6008.03 -2545.87 4414.3)
(-5474.81 -3550.42 4414.27)
(-4775.09 -4447.18 4414.29)
(-3930.21 -5208.74 4414.26)
(-2966.06 -5812.12 4414.27)
(-1911.74 -6238.88 4414.26)
(-799.336 -6476.06 4414.27)
(337.297 -6516.55 4414.24)
(1463.91 -6358.85 4414.3)
(2545.87 -6008.03 4414.3)
(3550.42 -5474.81 4414.27)
(4447.18 -4775.09 4414.29)
(5208.74 -3930.21 4414.26)
(5812.12 -2966.06 4414.27)
(6238.88 -1911.74 4414.26)
(6476.06 -799.336 4414.27)
(6516.55 337.297 4414.24)
(6358.85 1463.91 4414.3)
(6008.03 2545.87 4414.3)
(5474.81 3550.42 4414.27)
(4775.09 4447.18 4414.29)
(3930.2 5208.74 4414.26)
(2966.06 5812.12 4414.27)
(1911.74 6238.88 4414.26)
(799.336 6476.06 4414.27)
(-337.297 6516.55 4414.24)
(-1463.91 6358.85 4414.3)
(-2545.87 6008.03 4414.3)
(-3198.39 5244.72 5784.47)
(-4060.47 4609.54 5784.4)
(-4799.22 3834.47 5784.35)
(-5392.2 2942.83 5784.41)
(-5821.28 1961.78 5784.37)
(-6073.49 921.093 5784.38)
(-6141.22 -147.474 5784.34)
(-6022.31 -1211.71 5784.41)
(-5720.22 -2239.2 5784.55)
(-5244.72 -3198.39 5784.47)
(-4609.54 -4060.47 5784.4)
(-3834.47 -4799.22 5784.35)
(-2942.83 -5392.19 5784.41)
(-1961.78 -5821.28 5784.37)
(-921.094 -6073.49 5784.38)
(147.473 -6141.22 5784.34)