/*--------------------------------*- C++ -*----------------------------------*\
| =========                 |                                                 |
| \\      /  F ield         | OpenFOAM: The Open Source CFD Toolbox           |
|  \\    /   O peration     | Version:  2312                                  |
|   \\  /    A nd           | Website:  www.openfoam.com                      |
|    \\/     M anipulation  |                                                 |
\*---------------------------------------------------------------------------*/
FoamFile
{
    version     2.0;
    format      ascii;
    arch        "LSB;label=32;scalar=64";
    class       volVectorField;
    location    "0.4";
    object      U;
}
// * * * * * * * * * * * * * * * * * * * * * * * * * * * * * * * * * * * * * //

dimensions      [0 1 -1 0 0 0 0];

internalField   nonuniform List<vector> 
1620
(
(0.000112549 0.000158321 -5.07423e-05)
(8.3347e-05 0.000175459 -5.07426e-05)
(5.16129e-05 0.000187267 -5.07425e-05)
(1.83107e-05 0.000193385 -5.07421e-05)
(-1.55485e-05 0.000193627 -5.07422e-05)
(-4.89355e-05 0.000187985 -5.07423e-05)
(-8.08352e-05 0.000176631 -5.07416e-05)
(-0.000110279 0.000159911 -5.07416e-05)
(-0.000136372 0.000138331 -5.07422e-05)
(-0.000158321 0.000112549 -5.07423e-05)
(-0.000175459 8.3347e-05 -5.07426e-05)
(-0.000187267 5.16129e-05 -5.07425e-05)
(-0.000193385 1.83107e-05 -5.07421e-05)
(-0.000193627 -1.55485e-05 -5.07422e-05)
(-0.000187985 -4.89355e-05 -5.07423e-05)
(-0.000176631 -8.08352e-05 -5.07416e-05)
(-0.000159911 -0.000110279 -5.07416e-05)
(-0.000138331 -0.000136372 -5.07422e-05)
(-0.000112549 -0.000158321 -5.07423e-05)
(-8.3347e-05 -0.000175459 -5.07426e-05)
(-5.16129e-05 -0.000187267 -5.07425e-05)
(-1.83107e-05 -0.000193385 -5.07421e-05)
(1.55485e-05 -0.000193627 -5.07422e-05)
(4.89355e-05 -0.000187985 -5.07423e-05)
(8.08352e-05 -0.000176631 -5.07416e-05)
(0.000110279 -0.000159911 -5.07416e-05)
(0.000136372 -0.000138331 -5.07422e-05)
(0.000158321 -0.000112549 -5.07423e-05)
(0.000175459 -8.3347e-05 -5.07426e-05)
(0.000187267 -5.16129e-05 -5.07425e-05)
(0.000193385 -1.83107e-05 -5.07421e-05)
(0.000193627 1.55485e-05 -5.07422e-05)
(0.000187985 4.89355e-05 -5.07423e-05)
(0.000176631 8.08352e-05 -5.07416e-05)
(0.000159911 0.000110279 -5.07416e-05)
(0.000138331 0.000136372 -5.07422e-05)
(4.30685e-05 0.000273517 3.22083e-05)
(-5.0814e-06 0.00027684 3.22083e-05)
(-5.30765e-05 0.000271752 3.22084e-05)
(-9.94591e-05 0.000258406 3.22084e-05)
(-0.00014282 0.00023721 3.22084e-05)
(-0.000181842 0.000208806 3.22085e-05)
(-0.000215338 0.000174057 3.22086e-05)
(-0.000242291 0.000134019 3.22085e-05)
(-0.000261883 8.99098e-05 3.22082e-05)
(-0.000273517 4.30685e-05 3.22083e-05)
(-0.00027684 -5.08143e-06 3.22082e-05)
(-0.000271752 -5.30766e-05 3.22084e-05)
(-0.000258406 -9.94591e-05 3.22084e-05)
(-0.00023721 -0.00014282 3.22084e-05)
(-0.000208806 -0.000181842 3.22084e-05)
(-0.000174057 -0.000215338 3.22086e-05)
(-0.000134019 -0.000242291 3.22085e-05)
(-8.99098e-05 -0.000261883 3.22082e-05)
(-4.30685e-05 -0.000273517 3.22083e-05)
(5.08143e-06 -0.00027684 3.22082e-05)
(5.30766e-05 -0.000271752 3.22084e-05)
(9.94591e-05 -0.000258406 3.22084e-05)
(0.00014282 -0.00023721 3.22084e-05)
(0.000181842 -0.000208806 3.22085e-05)
(0.000215338 -0.000174057 3.22086e-05)
(0.000242291 -0.000134019 3.22085e-05)
(0.000261883 -8.99098e-05 3.22082e-05)
(0.000273517 -4.30685e-05 3.22083e-05)
(0.00027684 5.08141e-06 3.22083e-05)
(0.000271752 5.30765e-05 3.22084e-05)
(0.000258406 9.94591e-05 3.22085e-05)
(0.00023721 0.00014282 3.22084e-05)
(0.000208806 0.000181842 3.22085e-05)
(0.000174057 0.000215338 3.22086e-05)
(0.000134019 0.000242291 3.22085e-05)
(8.99098e-05 0.000261883 3.22082e-05)
(-7.172e-05 0.000380015 5.35101e-05)
(-0.000136619 0.000361788 5.35104e-05)
(-0.000197368 0.000332568 5.35102e-05)
(-0.000252119 0.000293243 5.35102e-05)
(-0.00029921 0.000245008 5.35106e-05)
(-0.000337209 0.000189328 5.35104e-05)
(-0.000364963 0.000127896 5.35104e-05)
(-0.000381627 6.25778e-05 5.35099e-05)
(-0.000386696 -4.64162e-06 5.351e-05)
(-0.000380015 -7.172e-05 5.35101e-05)
(-0.000361788 -0.000136619 5.35103e-05)
(-0.000332568 -0.000197368 5.35102e-05)
(-0.000293243 -0.000252119 5.35102e-05)
(-0.000245008 -0.00029921 5.35106e-05)
(-0.000189328 -0.000337209 5.35104e-05)
(-0.000127896 -0.000364963 5.35104e-05)
(-6.25778e-05 -0.000381627 5.35099e-05)
(4.64162e-06 -0.000386696 5.351e-05)
(7.172e-05 -0.000380015 5.35101e-05)
(0.000136619 -0.000361788 5.35103e-05)
(0.000197368 -0.000332568 5.35102e-05)
(0.000252119 -0.000293243 5.35102e-05)
(0.00029921 -0.000245008 5.35106e-05)
(0.000337209 -0.000189328 5.35104e-05)
(0.000364963 -0.000127896 5.35104e-05)
(0.000381627 -6.25778e-05 5.35099e-05)
(0.000386696 4.64161e-06 5.351e-05)
(0.000380015 7.172e-05 5.35101e-05)
(0.000361788 0.000136619 5.35104e-05)
(0.000332568 0.000197368 5.35102e-05)
(0.000293243 0.000252119 5.35102e-05)
(0.000245008 0.00029921 5.35106e-05)
(0.000189328 0.000337209 5.35104e-05)
(0.000127896 0.000364963 5.35104e-05)
(6.25778e-05 0.000381627 5.351e-05)
(-4.6416e-06 0.000386696 5.351e-05)
(0.000204456 0.00058012 5.33513e-05)
(0.000100614 0.00060681 5.33508e-05)
(-6.28619e-06 0.000615063 5.3351e-05)
(-0.000112995 0.000604627 5.33528e-05)
(-0.00021627 0.00057582 5.33537e-05)
(-0.000312975 0.000529518 5.33529e-05)
(-0.00040017 0.000467125 5.33531e-05)
(-0.000475207 0.000390539 5.33528e-05)
(-0.000535803 0.000302087 5.33517e-05)
(-0.00058012 0.000204456 5.33513e-05)
(-0.00060681 0.000100613 5.33507e-05)
(-0.000615062 -6.28629e-06 5.33509e-05)
(-0.000604627 -0.000112995 5.33528e-05)
(-0.00057582 -0.00021627 5.33536e-05)
(-0.000529518 -0.000312975 5.33529e-05)
(-0.000467125 -0.00040017 5.33531e-05)
(-0.000390539 -0.000475207 5.33528e-05)
(-0.000302087 -0.000535803 5.33517e-05)
(-0.000204456 -0.00058012 5.33513e-05)
(-0.000100613 -0.00060681 5.33508e-05)
(6.28629e-06 -0.000615063 5.3351e-05)
(0.000112995 -0.000604627 5.33528e-05)
(0.00021627 -0.00057582 5.33537e-05)
(0.000312975 -0.000529518 5.3353e-05)
(0.00040017 -0.000467125 5.33532e-05)
(0.000475207 -0.000390539 5.33528e-05)
(0.000535803 -0.000302087 5.33517e-05)
(0.00058012 -0.000204456 5.33513e-05)
(0.00060681 -0.000100614 5.33508e-05)
(0.000615063 6.28621e-06 5.3351e-05)
(0.000604627 0.000112995 5.33528e-05)
(0.00057582 0.00021627 5.33537e-05)
(0.000529518 0.000312975 5.3353e-05)
(0.000467125 0.00040017 5.33532e-05)
(0.000390539 0.000475207 5.33528e-05)
(0.000302087 0.000535803 5.33517e-05)
(6.43129e-05 0.000814667 0.000202058)
(-7.8129e-05 0.000813458 0.000202057)
(-0.000218197 0.000787533 0.000202058)
(-0.000351635 0.000737679 0.000202058)
(-0.000474391 0.000665412 0.000202059)
(-0.000582731 0.000572925 0.000202059)
(-0.000673365 0.000463031 0.000202059)
(-0.00074354 0.000339067 0.000202058)
(-0.000791122 0.000204801 0.000202058)
(-0.000814667 6.43128e-05 0.000202057)
(-0.000813458 -7.81291e-05 0.000202057)
(-0.000787533 -0.000218197 0.000202057)
(-0.000737679 -0.000351635 0.000202058)
(-0.000665412 -0.000474391 0.000202059)
(-0.000572925 -0.000582731 0.000202059)
(-0.00046303 -0.000673365 0.000202058)
(-0.000339067 -0.00074354 0.000202058)
(-0.000204801 -0.000791122 0.000202058)
(-6.43128e-05 -0.000814667 0.000202058)
(7.81291e-05 -0.000813458 0.000202057)
(0.000218197 -0.000787533 0.000202058)
(0.000351635 -0.000737679 0.000202058)
(0.000474391 -0.000665412 0.000202059)
(0.000582731 -0.000572925 0.000202059)
(0.000673365 -0.000463031 0.000202059)
(0.00074354 -0.000339067 0.000202058)
(0.000791122 -0.000204801 0.000202058)
(0.000814667 -6.43128e-05 0.000202058)
(0.000813458 7.8129e-05 0.000202057)
(0.000787533 0.000218197 0.000202058)
(0.00073768 0.000351635 0.000202059)
(0.000665412 0.000474391 0.000202059)
(0.000572925 0.000582731 0.000202059)
(0.000463031 0.000673365 0.000202059)
(0.000339067 0.00074354 0.000202058)
(0.000204801 0.000791122 0.000202058)
(-0.000130952 0.00102738 0.000311566)
(-0.000307364 0.000989028 0.000311566)
(-0.000474437 0.000920629 0.000311566)
(-0.000627094 0.000824257 0.000311566)
(-0.000760698 0.000702841 0.000311566)
(-0.000871188 0.000560069 0.000311566)
(-0.000955208 0.000400279 0.000311566)
(-0.0010102 0.000228328 0.000311566)
(-0.00103451 4.94392e-05 0.000311566)
(-0.00102738 -0.000130952 0.000311566)
(-0.000989028 -0.000307364 0.000311566)
(-0.000920629 -0.000474437 0.000311566)
(-0.000824257 -0.000627094 0.000311566)
(-0.000702841 -0.000760698 0.000311566)
(-0.000560069 -0.000871188 0.000311566)
(-0.000400279 -0.000955208 0.000311566)
(-0.000228328 -0.0010102 0.000311566)
(-4.94392e-05 -0.00103451 0.000311566)
(0.000130952 -0.00102738 0.000311566)
(0.000307364 -0.000989028 0.000311566)
(0.000474437 -0.000920629 0.000311566)
(0.000627094 -0.000824257 0.000311566)
(0.000760698 -0.000702841 0.000311566)
(0.000871188 -0.000560069 0.000311566)
(0.000955208 -0.000400279 0.000311566)
(0.0010102 -0.000228328 0.000311566)
(0.00103451 -4.94392e-05 0.000311566)
(0.00102738 0.000130952 0.000311566)
(0.000989028 0.000307364 0.000311566)
(0.000920629 0.000474437 0.000311566)
(0.000824257 0.000627094 0.000311566)
(0.000702841 0.000760698 0.000311566)
(0.000560069 0.000871188 0.000311566)
(0.000400279 0.000955208 0.000311566)
(0.000228328 0.0010102 0.000311566)
(4.94392e-05 0.00103451 0.000311566)
(0.000218719 0.00103041 0.000250897)
(3.64673e-05 0.00105274 0.000250897)
(-0.000146893 0.00104308 0.000250898)
(-0.00032579 0.00100173 0.000250899)
(-0.000494788 0.000929934 0.000250901)
(-0.000648752 0.000829888 0.000250901)
(-0.000783005 0.000704625 0.000250901)
(-0.000893466 0.000557952 0.0002509)
(-0.00097678 0.000394326 0.000250898)
(-0.00103041 0.000218719 0.000250897)
(-0.00105274 3.64671e-05 0.000250897)
(-0.00104308 -0.000146893 0.000250897)
(-0.00100173 -0.00032579 0.000250899)
(-0.000929934 -0.000494788 0.000250901)
(-0.000829887 -0.000648752 0.000250901)
(-0.000704625 -0.000783005 0.000250901)
(-0.000557952 -0.000893466 0.0002509)
(-0.000394326 -0.00097678 0.000250898)
(-0.000218719 -0.00103041 0.000250897)
(-3.64671e-05 -0.00105274 0.000250897)
(0.000146893 -0.00104308 0.000250898)
(0.00032579 -0.00100173 0.000250899)
(0.000494789 -0.000929934 0.000250901)
(0.000648752 -0.000829888 0.000250901)
(0.000783005 -0.000704625 0.000250901)
(0.000893466 -0.000557952 0.0002509)
(0.00097678 -0.000394327 0.000250898)
(0.00103042 -0.000218719 0.000250897)
(0.00105274 -3.64672e-05 0.000250897)
(0.00104308 0.000146893 0.000250898)
(0.00100173 0.00032579 0.0002509)
(0.000929934 0.000494788 0.000250901)
(0.000829888 0.000648752 0.000250901)
(0.000704625 0.000783005 0.000250901)
(0.000557953 0.000893466 0.0002509)
(0.000394327 0.00097678 0.000250898)
(1.78211e-05 0.00133614 0.000434386)
(-0.000214468 0.00131894 0.000434386)
(-0.000440241 0.00126166 0.000434386)
(-0.000652637 0.00116605 0.000434387)
(-0.000845204 0.001035 0.000434388)
(-0.00101209 0.00087251 0.000434387)
(-0.00114822 0.000683506 0.000434388)
(-0.00124947 0.000473735 0.000434387)
(-0.00131275 0.00024957 0.000434386)
(-0.00133614 1.78209e-05 0.000434386)
(-0.00131894 -0.000214468 0.000434386)
(-0.00126166 -0.000440241 0.000434386)
(-0.00116605 -0.000652637 0.000434387)
(-0.001035 -0.000845204 0.000434388)
(-0.00087251 -0.00101209 0.000434387)
(-0.000683506 -0.00114822 0.000434388)
(-0.000473735 -0.00124947 0.000434387)
(-0.00024957 -0.00131275 0.000434386)
(-1.78209e-05 -0.00133614 0.000434386)
(0.000214468 -0.00131894 0.000434386)
(0.000440241 -0.00126166 0.000434386)
(0.000652637 -0.00116605 0.000434387)
(0.000845204 -0.001035 0.000434388)
(0.00101209 -0.00087251 0.000434388)
(0.00114822 -0.000683507 0.000434388)
(0.00124947 -0.000473735 0.000434387)
(0.00131275 -0.00024957 0.000434387)
(0.00133614 -1.7821e-05 0.000434386)
(0.00131894 0.000214468 0.000434386)
(0.00126166 0.000440241 0.000434386)
(0.00116605 0.000652637 0.000434387)
(0.001035 0.000845204 0.000434388)
(0.00087251 0.00101209 0.000434388)
(0.000683507 0.00114822 0.000434388)
(0.000473735 0.00124947 0.000434387)
(0.00024957 0.00131275 0.000434387)
(-0.000230672 0.0016152 0.000584932)
(-0.000507643 0.0015506 0.000584932)
(-0.000769189 0.0014389 0.000584932)
(-0.00100736 0.00128347 0.000584932)
(-0.00121493 0.00108904 0.000584932)
(-0.00138559 0.000861525 0.000584933)
(-0.00151414 0.000607831 0.000584932)
(-0.00159668 0.00033567 0.000584932)
(-0.00163071 5.33087e-05 0.000584932)
(-0.0016152 -0.000230672 0.000584932)
(-0.0015506 -0.000507643 0.000584932)
(-0.0014389 -0.000769189 0.000584932)
(-0.00128347 -0.00100737 0.000584932)
(-0.00108904 -0.00121493 0.000584932)
(-0.000861524 -0.00138559 0.000584933)
(-0.000607831 -0.00151414 0.000584932)
(-0.00033567 -0.00159668 0.000584932)
(-5.33087e-05 -0.00163071 0.000584932)
(0.000230672 -0.0016152 0.000584932)
(0.000507643 -0.0015506 0.000584932)
(0.000769189 -0.0014389 0.000584932)
(0.00100737 -0.00128347 0.000584932)
(0.00121493 -0.00108904 0.000584932)
(0.00138559 -0.000861525 0.000584933)
(0.00151414 -0.000607831 0.000584932)
(0.00159668 -0.00033567 0.000584932)
(0.00163071 -5.33087e-05 0.000584932)
(0.0016152 0.000230672 0.000584932)
(0.0015506 0.000507643 0.000584932)
(0.0014389 0.000769189 0.000584932)
(0.00128347 0.00100736 0.000584932)
(0.00108904 0.00121493 0.000584933)
(0.000861525 0.00138559 0.000584933)
(0.000607831 0.00151414 0.000584932)
(0.00033567 0.00159668 0.000584932)
(5.33088e-05 0.00163071 0.000584932)
(0.000123904 0.00149073 0.000479403)
(-0.000136841 0.0014896 0.000479402)
(-0.000393429 0.00144321 0.000479403)
(-0.000638061 0.00135296 0.000479404)
(-0.000863307 0.00122161 0.000479405)
(-0.00106232 0.00105314 0.000479406)
(-0.00122906 0.00085267 0.000479406)
(-0.00135845 0.000626292 0.000479405)
(-0.00144657 0.000380885 0.000479404)
(-0.00149073 0.000123904 0.000479403)
(-0.0014896 -0.000136841 0.000479402)
(-0.00144321 -0.000393429 0.000479403)
(-0.00135296 -0.000638061 0.000479404)
(-0.00122161 -0.000863307 0.000479405)
(-0.00105314 -0.00106232 0.000479406)
(-0.000852669 -0.00122906 0.000479406)
(-0.000626292 -0.00135845 0.000479405)
(-0.000380885 -0.00144657 0.000479404)
(-0.000123904 -0.00149073 0.000479403)
(0.000136841 -0.0014896 0.000479402)
(0.000393429 -0.00144321 0.000479403)
(0.000638061 -0.00135296 0.000479404)
(0.000863307 -0.00122161 0.000479405)
(0.00106232 -0.00105314 0.000479406)
(0.00122906 -0.00085267 0.000479406)
(0.00135845 -0.000626292 0.000479405)
(0.00144657 -0.000380885 0.000479404)
(0.00149073 -0.000123904 0.000479403)
(0.0014896 0.000136841 0.000479402)
(0.00144321 0.000393429 0.000479403)
(0.00135296 0.000638061 0.000479404)
(0.00122161 0.000863307 0.000479405)
(0.00105314 0.00106232 0.000479406)
(0.00085267 0.00122906 0.000479406)
(0.000626292 0.00135845 0.000479405)
(0.000380885 0.00144657 0.000479404)
(-0.000103298 0.00181894 0.000671009)
(-0.000417584 0.00177336 0.000671009)
(-0.000719181 0.00167391 0.000671009)
(-0.000998925 0.0015236 0.000671009)
(-0.00124832 0.00132699 0.00067101)
(-0.00145978 0.00109006 0.00067101)
(-0.00162689 0.000820009 0.00067101)
(-0.00174457 0.000525044 0.00067101)
(-0.00180924 0.000214126 0.00067101)
(-0.00181894 -0.000103298 0.000671009)
(-0.00177336 -0.000417584 0.000671008)
(-0.00167391 -0.000719181 0.000671009)
(-0.0015236 -0.000998926 0.000671009)
(-0.00132699 -0.00124832 0.00067101)
(-0.00109006 -0.00145978 0.00067101)
(-0.000820009 -0.00162689 0.00067101)
(-0.000525044 -0.00174457 0.00067101)
(-0.000214126 -0.00180924 0.00067101)
(0.000103298 -0.00181894 0.000671009)
(0.000417584 -0.00177336 0.000671008)
(0.000719181 -0.00167391 0.000671009)
(0.000998926 -0.0015236 0.000671009)
(0.00124832 -0.00132699 0.00067101)
(0.00145978 -0.00109006 0.00067101)
(0.00162689 -0.000820009 0.00067101)
(0.00174457 -0.000525044 0.00067101)
(0.00180924 -0.000214126 0.00067101)
(0.00181894 0.000103298 0.000671009)
(0.00177336 0.000417584 0.000671009)
(0.00167391 0.000719181 0.000671009)
(0.0015236 0.000998926 0.000671009)
(0.00132699 0.00124832 0.00067101)
(0.00109006 0.00145978 0.00067101)
(0.000820009 0.00162689 0.00067101)
(0.000525044 0.00174457 0.00067101)
(0.000214126 0.00180924 0.00067101)
(-0.000370337 0.0021208 0.000832542)
(-0.000732984 0.00202427 0.000832542)
(-0.00107336 0.00186624 0.000832542)
(-0.00138112 0.0016515 0.000832542)
(-0.00164692 0.00138658 0.000832541)
(-0.00186268 0.00107953 0.000832542)
(-0.00202184 0.000739681 0.000832542)
(-0.00211956 0.000377355 0.000832542)
(-0.00215289 3.56308e-06 0.000832542)
(-0.0021208 -0.000370337 0.000832542)
(-0.00202427 -0.000732984 0.000832541)
(-0.00186624 -0.00107336 0.000832542)
(-0.0016515 -0.00138112 0.000832542)
(-0.00138658 -0.00164692 0.000832541)
(-0.00107953 -0.00186268 0.000832542)
(-0.000739681 -0.00202184 0.000832542)
(-0.000377355 -0.00211956 0.000832542)
(-3.56306e-06 -0.00215289 0.000832542)
(0.000370337 -0.0021208 0.000832542)
(0.000732984 -0.00202427 0.000832541)
(0.00107336 -0.00186624 0.000832542)
(0.00138112 -0.0016515 0.000832542)
(0.00164692 -0.00138658 0.000832542)
(0.00186268 -0.00107953 0.000832542)
(0.00202184 -0.000739681 0.000832542)
(0.00211956 -0.000377355 0.000832542)
(0.00215289 -3.56317e-06 0.000832542)
(0.0021208 0.000370337 0.000832542)
(0.00202427 0.000732984 0.000832542)
(0.00186624 0.00107336 0.000832542)
(0.0016515 0.00138112 0.000832542)
(0.00138658 0.00164692 0.000832542)
(0.00107953 0.00186268 0.000832542)
(0.000739681 0.00202184 0.000832542)
(0.000377355 0.00211956 0.000832542)
(3.56326e-06 0.00215289 0.000832542)
(-5.66941e-05 0.00192502 0.000702549)
(-0.000390109 0.00188593 0.000702547)
(-0.000711672 0.00178954 0.000702548)
(-0.00101161 0.00163877 0.000702549)
(-0.00128081 0.00143821 0.00070255)
(-0.00151109 0.00119395 0.00070255)
(-0.00169546 0.000913413 0.00070255)
(-0.00182832 0.000605121 0.00070255)
(-0.00190562 0.000278444 0.00070255)
(-0.00192502 -5.66943e-05 0.000702549)
(-0.00188593 -0.00039011 0.000702547)
(-0.00178954 -0.000711673 0.000702548)
(-0.00163877 -0.00101161 0.000702549)
(-0.00143821 -0.00128081 0.00070255)
(-0.00119395 -0.00151109 0.00070255)
(-0.000913413 -0.00169546 0.00070255)
(-0.000605121 -0.00182832 0.00070255)
(-0.000278444 -0.00190562 0.00070255)
(5.66944e-05 -0.00192502 0.000702549)
(0.00039011 -0.00188593 0.000702547)
(0.000711673 -0.00178954 0.000702548)
(0.00101161 -0.00163877 0.000702549)
(0.00128081 -0.00143821 0.00070255)
(0.00151109 -0.00119395 0.00070255)
(0.00169546 -0.000913413 0.00070255)
(0.00182832 -0.000605121 0.00070255)
(0.00190562 -0.000278444 0.00070255)
(0.00192502 5.66942e-05 0.000702549)
(0.00188593 0.00039011 0.000702548)
(0.00178954 0.000711673 0.000702548)
(0.00163877 0.00101161 0.000702549)
(0.00143821 0.00128081 0.00070255)
(0.00119395 0.00151109 0.00070255)
(0.000913413 0.00169546 0.00070255)
(0.000605122 0.00182832 0.00070255)
(0.000278444 0.00190562 0.00070255)
(-0.000285785 0.00224193 0.000885042)
(-0.000670751 0.00215825 0.000885042)
(-0.00103534 0.00200898 0.000885042)
(-0.00136846 0.00179868 0.000885043)
(-0.00166001 0.00153372 0.000885043)
(-0.00190112 0.00122216 0.000885043)
(-0.00208446 0.000873469 0.000885043)
(-0.00220447 0.000498236 0.000885043)
(-0.0022575 0.000107864 0.000885043)
(-0.00224193 -0.000285785 0.000885042)
(-0.00215824 -0.000670751 0.000885042)
(-0.00200898 -0.00103534 0.000885042)
(-0.00179868 -0.00136846 0.000885043)
(-0.00153372 -0.00166001 0.000885043)
(-0.00122216 -0.00190112 0.000885043)
(-0.000873469 -0.00208446 0.000885043)
(-0.000498236 -0.00220447 0.000885043)
(-0.000107864 -0.0022575 0.000885043)
(0.000285785 -0.00224193 0.000885042)
(0.000670751 -0.00215825 0.000885042)
(0.00103534 -0.00200898 0.000885042)
(0.00136846 -0.00179868 0.000885043)
(0.00166001 -0.00153372 0.000885043)
(0.00190112 -0.00122216 0.000885043)
(0.00208446 -0.000873469 0.000885044)
(0.00220447 -0.000498236 0.000885043)
(0.0022575 -0.000107864 0.000885043)
(0.00224193 0.000285785 0.000885043)
(0.00215825 0.000670751 0.000885042)
(0.00200898 0.00103534 0.000885042)
(0.00179868 0.00136846 0.000885043)
(0.00153372 0.00166001 0.000885043)
(0.00122216 0.00190112 0.000885043)
(0.000873469 0.00208446 0.000885044)
(0.000498236 0.00220447 0.000885043)
(0.000107864 0.0022575 0.000885043)
(-0.000547472 0.00253553 0.00103877)
(-0.000979446 0.00240195 0.00103877)
(-0.00138166 0.00219538 0.00103877)
(-0.00174189 0.0019221 0.00103877)
(-0.0020492 0.00159042 0.00103877)
(-0.00229424 0.00121042 0.00103877)
(-0.00246957 0.000793643 0.00103877)
(-0.00256987 0.000352749 0.00103877)
(-0.00259208 -9.88636e-05 0.00103877)
(-0.00253553 -0.000547473 0.00103877)
(-0.00240195 -0.000979446 0.00103877)
(-0.00219538 -0.00138166 0.00103877)
(-0.0019221 -0.00174189 0.00103877)
(-0.00159042 -0.0020492 0.00103877)
(-0.00121042 -0.00229424 0.00103877)
(-0.000793643 -0.00246957 0.00103877)
(-0.000352749 -0.00256987 0.00103877)
(9.88637e-05 -0.00259208 0.00103877)
(0.000547473 -0.00253553 0.00103877)
(0.000979446 -0.00240195 0.00103877)
(0.00138166 -0.00219538 0.00103877)
(0.00174189 -0.0019221 0.00103877)
(0.0020492 -0.00159042 0.00103877)
(0.00229424 -0.00121042 0.00103877)
(0.00246957 -0.000793643 0.00103877)
(0.00256987 -0.000352749 0.00103877)
(0.00259208 9.88635e-05 0.00103877)
(0.00253554 0.000547472 0.00103877)
(0.00240195 0.000979446 0.00103877)
(0.00219538 0.00138166 0.00103877)
(0.0019221 0.00174189 0.00103877)
(0.00159042 0.0020492 0.00103877)
(0.00121042 0.00229424 0.00103877)
(0.000793644 0.00246957 0.00103877)
(0.000352749 0.00256987 0.00103877)
(-9.88634e-05 0.00259208 0.00103877)
(-0.000283905 0.00229561 0.000905343)
(-0.00067822 0.00221144 0.000905341)
(-0.00105193 0.00206007 0.000905341)
(-0.00139367 0.0018461 0.000905341)
(-0.00169307 0.00157605 0.000905342)
(-0.00194103 0.00125811 0.000905342)
(-0.00213001 0.000901936 0.000905342)
(-0.00225427 0.000518361 0.000905343)
(-0.00231003 0.000119037 0.000905344)
(-0.00229561 -0.000283905 0.000905343)
(-0.00221144 -0.00067822 0.000905341)
(-0.00206007 -0.00105193 0.000905341)
(-0.0018461 -0.00139367 0.000905341)
(-0.00157605 -0.00169307 0.000905342)
(-0.00125811 -0.00194103 0.000905342)
(-0.000901936 -0.00213001 0.000905342)
(-0.000518361 -0.00225427 0.000905343)
(-0.000119037 -0.00231003 0.000905344)
(0.000283905 -0.00229561 0.000905343)
(0.00067822 -0.00221144 0.000905341)
(0.00105193 -0.00206007 0.000905341)
(0.00139367 -0.0018461 0.000905341)
(0.00169307 -0.00157605 0.000905342)
(0.00194103 -0.00125811 0.000905342)
(0.00213001 -0.000901936 0.000905342)
(0.00225427 -0.000518361 0.000905343)
(0.00231003 -0.000119037 0.000905344)
(0.00229561 0.000283905 0.000905343)
(0.00221144 0.00067822 0.000905341)
(0.00206007 0.00105193 0.000905341)
(0.0018461 0.00139367 0.000905342)
(0.00157605 0.00169307 0.000905342)
(0.00125811 0.00194103 0.000905342)
(0.000901936 0.00213001 0.000905342)
(0.000518361 0.00225427 0.000905343)
(0.000119037 0.00231003 0.000905344)
(-0.000505117 0.00258287 0.00106858)
(-0.000945953 0.00245591 0.00106858)
(-0.00135805 0.00225434 0.00106858)
(-0.00172888 0.00198427 0.00106858)
(-0.00204718 0.00165391 0.00106858)
(-0.00230327 0.00127329 0.00106858)
(-0.00248938 0.00085399 0.00106858)
(-0.00259986 0.000408738 0.00106858)
(-0.00263134 -4.89331e-05 0.00106859)
(-0.00258287 -0.000505117 0.00106858)
(-0.00245591 -0.000945954 0.00106858)
(-0.00225434 -0.00135805 0.00106858)
(-0.00198427 -0.00172888 0.00106858)
(-0.00165391 -0.00204718 0.00106858)
(-0.00127329 -0.00230327 0.00106858)
(-0.00085399 -0.00248938 0.00106858)
(-0.000408738 -0.00259986 0.00106858)
(4.89331e-05 -0.00263134 0.00106859)
(0.000505117 -0.00258287 0.00106858)
(0.000945954 -0.00245591 0.00106858)
(0.00135805 -0.00225434 0.00106858)
(0.00172888 -0.00198427 0.00106858)
(0.00204718 -0.00165391 0.00106858)
(0.00230327 -0.00127329 0.00106858)
(0.00248938 -0.00085399 0.00106858)
(0.00259986 -0.000408738 0.00106859)
(0.00263134 4.89329e-05 0.00106859)
(0.00258287 0.000505117 0.00106859)
(0.00245591 0.000945954 0.00106858)
(0.00225434 0.00135805 0.00106858)
(0.00198427 0.00172888 0.00106858)
(0.00165391 0.00204718 0.00106858)
(0.00127329 0.00230327 0.00106858)
(0.00085399 0.00248938 0.00106858)
(0.000408739 0.00259986 0.00106859)
(-4.89327e-05 0.00263134 0.00106859)
(-0.000751264 0.00285217 0.00120334)
(-0.00123513 0.00267838 0.00120334)
(-0.00168146 0.00242321 0.00120334)
(-0.0020767 0.00209442 0.00120334)
(-0.00240884 0.00170198 0.00120334)
(-0.00266779 0.00125784 0.00120334)
(-0.00284568 0.000775471 0.00120334)
(-0.00293711 0.000269542 0.00120334)
(-0.00293929 -0.000244577 0.00120334)
(-0.00285217 -0.000751265 0.00120334)
(-0.00267838 -0.00123513 0.00120334)
(-0.00242321 -0.00168146 0.00120334)
(-0.00209442 -0.0020767 0.00120334)
(-0.00170198 -0.00240884 0.00120334)
(-0.00125784 -0.00266779 0.00120334)
(-0.00077547 -0.00284568 0.00120334)
(-0.000269541 -0.00293711 0.00120334)
(0.000244577 -0.00293929 0.00120334)
(0.000751265 -0.00285217 0.00120334)
(0.00123513 -0.00267838 0.00120334)
(0.00168146 -0.00242321 0.00120334)
(0.0020767 -0.00209442 0.00120334)
(0.00240884 -0.00170198 0.00120334)
(0.00266779 -0.00125784 0.00120334)
(0.00284568 -0.000775471 0.00120334)
(0.00293711 -0.000269542 0.00120334)
(0.00293929 0.000244577 0.00120334)
(0.00285217 0.000751264 0.00120334)
(0.00267838 0.00123513 0.00120334)
(0.00242321 0.00168146 0.00120334)
(0.00209442 0.0020767 0.00120334)
(0.00170198 0.00240884 0.00120334)
(0.00125784 0.00266779 0.00120334)
(0.000775471 0.00284568 0.00120334)
(0.000269542 0.00293711 0.00120334)
(-0.000244577 0.00293929 0.00120334)
(-0.000513769 0.00257278 0.00109357)
(-0.000952722 0.00244448 0.00109356)
(-0.00136273 0.00224191 0.00109356)
(-0.00173133 0.00197121 0.00109356)
(-0.00204732 0.00164062 0.00109356)
(-0.00230111 0.00126018 0.00109356)
(-0.00248498 0.000841453 0.00109356)
(-0.00259334 0.000397157 0.00109356)
(-0.00262291 -5.92059e-05 0.00109357)
(-0.00257278 -0.000513769 0.00109357)
(-0.00244448 -0.000952722 0.00109356)
(-0.00224191 -0.00136273 0.00109356)
(-0.00197121 -0.00173133 0.00109356)
(-0.00164062 -0.00204732 0.00109356)
(-0.00126018 -0.00230111 0.00109356)
(-0.000841453 -0.00248498 0.00109356)
(-0.000397157 -0.00259334 0.00109356)
(5.92061e-05 -0.00262291 0.00109357)
(0.000513769 -0.00257278 0.00109357)
(0.000952722 -0.00244448 0.00109356)
(0.00136273 -0.00224191 0.00109356)
(0.00173133 -0.00197121 0.00109356)
(0.00204732 -0.00164062 0.00109356)
(0.00230111 -0.00126018 0.00109356)
(0.00248498 -0.000841453 0.00109356)
(0.00259334 -0.000397157 0.00109356)
(0.00262291 5.92058e-05 0.00109357)
(0.00257278 0.000513769 0.00109357)
(0.00244448 0.000952722 0.00109356)
(0.00224191 0.00136273 0.00109356)
(0.00197121 0.00173133 0.00109356)
(0.00164062 0.00204732 0.00109356)
(0.00126018 0.00230111 0.00109356)
(0.000841454 0.00248498 0.00109356)
(0.000397158 0.00259334 0.00109356)
(-5.92055e-05 0.00262291 0.00109357)
(-0.000729566 0.0028209 0.00123051)
(-0.00120833 0.00265135 0.00123051)
(-0.00165037 0.00240125 0.00123051)
(-0.00204227 0.00207819 0.00123051)
(-0.00237212 0.00169198 0.00123051)
(-0.00262989 0.00125436 0.00123051)
(-0.00280775 0.000778626 0.00123051)
(-0.0029003 0.000279236 0.00123051)
(-0.00290473 -0.000228639 0.00123051)
(-0.0028209 -0.000729566 0.00123051)
(-0.00265135 -0.00120833 0.00123051)
(-0.00240125 -0.00165037 0.00123051)
(-0.00207819 -0.00204227 0.00123051)
(-0.00169198 -0.00237212 0.00123051)
(-0.00125436 -0.00262989 0.00123051)
(-0.000778626 -0.00280775 0.00123051)
(-0.000279236 -0.0029003 0.00123051)
(0.00022864 -0.00290473 0.00123051)
(0.000729566 -0.0028209 0.00123051)
(0.00120833 -0.00265135 0.00123051)
(0.00165037 -0.00240125 0.00123051)
(0.00204227 -0.00207819 0.00123051)
(0.00237212 -0.00169198 0.00123051)
(0.00262989 -0.00125436 0.00123051)
(0.00280775 -0.000778626 0.00123051)
(0.0029003 -0.000279236 0.00123051)
(0.00290473 0.000228639 0.00123051)
(0.0028209 0.000729566 0.00123051)
(0.00265135 0.00120833 0.00123051)
(0.00240125 0.00165037 0.00123051)
(0.00207819 0.00204227 0.00123051)
(0.00169198 0.00237212 0.00123051)
(0.00125436 0.00262989 0.00123051)
(0.000778626 0.00280775 0.00123051)
(0.000279237 0.0029003 0.00123051)
(-0.000228639 0.00290473 0.00123051)
(-0.000961417 0.00305948 0.00133807)
(-0.00147808 0.00284605 0.00133807)
(-0.00194984 0.00254615 0.00133807)
(-0.00236235 0.00216888 0.00133807)
(-0.00270308 0.00172571 0.00133807)
(-0.00296168 0.00123011 0.00133807)
(-0.00313029 0.000697129 0.00133807)
(-0.00320379 0.000142968 0.00133807)
(-0.00317995 -0.000415537 0.00133807)
(-0.00305948 -0.000961418 0.00133807)
(-0.00284605 -0.00147808 0.00133807)
(-0.00254615 -0.00194984 0.00133807)
(-0.00216888 -0.00236235 0.00133807)
(-0.00172571 -0.00270308 0.00133807)
(-0.00123011 -0.00296168 0.00133807)
(-0.000697128 -0.0031303 0.00133807)
(-0.000142968 -0.00320379 0.00133807)
(0.000415538 -0.00317995 0.00133807)
(0.000961418 -0.00305948 0.00133807)
(0.00147808 -0.00284605 0.00133807)
(0.00194984 -0.00254615 0.00133807)
(0.00236235 -0.00216888 0.00133807)
(0.00270308 -0.00172571 0.00133807)
(0.00296168 -0.00123011 0.00133807)
(0.0031303 -0.000697129 0.00133807)
(0.00320379 -0.000142968 0.00133807)
(0.00317995 0.000415537 0.00133807)
(0.00305948 0.000961418 0.00133807)
(0.00284605 0.00147808 0.00133807)
(0.00254615 0.00194984 0.00133807)
(0.00216888 0.00236235 0.00133807)
(0.00172571 0.00270308 0.00133807)
(0.00123011 0.00296168 0.00133807)
(0.000697129 0.0031303 0.00133807)
(0.000142968 0.00320379 0.00133807)
(-0.000415537 0.00317995 0.00133807)
(-0.000702996 0.00273568 0.00128665)
(-0.00116736 0.00257204 0.00128665)
(-0.00159626 0.00233026 0.00128665)
(-0.00197665 0.00201767 0.00128665)
(-0.00229699 0.00164377 0.00128665)
(-0.00254753 0.00121993 0.00128665)
(-0.00272066 0.000759026 0.00128665)
(-0.00281113 0.000275055 0.00128665)
(-0.00281619 -0.000217272 0.00128665)
(-0.00273568 -0.000702996 0.00128665)
(-0.00257204 -0.00116736 0.00128665)
(-0.00233026 -0.00159626 0.00128665)
(-0.00201767 -0.00197665 0.00128665)
(-0.00164377 -0.00229699 0.00128665)
(-0.00121993 -0.00254753 0.00128665)
(-0.000759026 -0.00272066 0.00128665)
(-0.000275055 -0.00281113 0.00128665)
(0.000217272 -0.00281619 0.00128665)
(0.000702996 -0.00273568 0.00128665)
(0.00116736 -0.00257204 0.00128665)