/*--------------------------------*- C++ -*----------------------------------*\
| =========                 |                                                 |
| \\      /  F ield         | OpenFOAM: The Open Source CFD Toolbox           |
|  \\    /   O peration     | Version:  2312                                  |
|   \\  /    A nd           | Website:  www.openfoam.com                      |
|    \\/     M anipulation  |                                                 |
\*---------------------------------------------------------------------------*/
FoamFile
{
    version     2.0;
    format      ascii;
    arch        "LSB;label=32;scalar=64";
    class       volVectorField;
    location    "0.7";
    object      D;
}
// * * * * * * * * * * * * * * * * * * * * * * * * * * * * * * * * * * * * * //

dimensions      [0 1 0 0 0 0 0];

internalField   nonuniform List<vector> 
3240
(
(-0.000474358 0.00015842 -0.000120276)
(-0.00048636 0.000116475 -0.000120275)
(-0.000494659 7.36418e-05 -0.000120277)
(-0.000499194 3.02471e-05 -0.000120278)
(-0.000499933 -1.33765e-05 -0.000120278)
(-0.000496865 -5.68977e-05 -0.000120277)
(-0.000490016 -9.99842e-05 -0.000120274)
(-0.000479437 -0.00014231 -0.000120274)
(-0.00046521 -0.000183552 -0.000120275)
(-0.000447441 -0.000223399 -0.000120277)
(-0.000426268 -0.000261546 -0.000120277)
(-0.00040185 -0.000297705 -0.000120278)
(-0.000374375 -0.000331597 -0.000120277)
(-0.00034405 -0.000362965 -0.000120276)
(-0.000311106 -0.000391566 -0.000120274)
(-0.000275795 -0.000417191 -0.000120276)
(-0.000238384 -0.000439642 -0.000120278)
(-0.00019916 -0.000458746 -0.000120276)
(-0.00015842 -0.000474358 -0.000120276)
(-0.000116475 -0.00048636 -0.000120275)
(-7.36418e-05 -0.000494659 -0.000120277)
(-3.02471e-05 -0.000499194 -0.000120278)
(1.33765e-05 -0.000499933 -0.000120278)
(5.68977e-05 -0.000496865 -0.000120277)
(9.99842e-05 -0.000490016 -0.000120274)
(0.00014231 -0.000479437 -0.000120274)
(0.000183552 -0.00046521 -0.000120275)
(0.000223399 -0.000447441 -0.000120277)
(0.000261546 -0.000426268 -0.000120277)
(0.000297705 -0.00040185 -0.000120278)
(0.000331597 -0.000374375 -0.000120277)
(0.000362965 -0.00034405 -0.000120276)
(0.000391566 -0.000311106 -0.000120274)
(0.000417191 -0.000275795 -0.000120276)
(0.000439642 -0.000238384 -0.000120278)
(0.000458746 -0.00019916 -0.000120276)
(0.000474358 -0.00015842 -0.000120276)
(0.00048636 -0.000116475 -0.000120275)
(0.000494659 -7.36418e-05 -0.000120277)
(0.000499194 -3.02471e-05 -0.000120278)
(0.000499933 1.33765e-05 -0.000120278)
(0.000496865 5.68977e-05 -0.000120277)
(0.000490016 9.99842e-05 -0.000120274)
(0.000479437 0.00014231 -0.000120274)
(0.00046521 0.000183552 -0.000120275)
(0.000447441 0.000223399 -0.000120277)
(0.000426268 0.000261546 -0.000120277)
(0.00040185 0.000297705 -0.000120278)
(0.000374375 0.000331597 -0.000120277)
(0.00034405 0.000362965 -0.000120276)
(0.000311106 0.000391566 -0.000120274)
(0.000275795 0.000417191 -0.000120276)
(0.000238384 0.000439642 -0.000120278)
(0.00019916 0.000458746 -0.000120276)
(0.00015842 0.000474358 -0.000120276)
(0.000116475 0.00048636 -0.000120275)
(7.36418e-05 0.000494659 -0.000120277)
(3.02471e-05 0.000499194 -0.000120278)
(-1.33765e-05 0.000499933 -0.000120278)
(-5.68977e-05 0.000496865 -0.000120277)
(-9.99842e-05 0.000490016 -0.000120274)
(-0.00014231 0.000479437 -0.000120274)
(-0.000183552 0.00046521 -0.000120275)
(-0.000223399 0.000447441 -0.000120277)
(-0.000261546 0.000426268 -0.000120278)
(-0.000297705 0.00040185 -0.000120278)
(-0.000331597 0.000374375 -0.000120277)
(-0.000362965 0.00034405 -0.000120276)
(-0.000391566 0.000311106 -0.000120274)
(-0.000417191 0.000275795 -0.000120276)
(-0.000439642 0.000238384 -0.000120278)
(-0.000458746 0.00019916 -0.000120276)
(-0.000419133 0.000142533 -0.000102078)
(-0.00042996 0.000105461 -0.000102078)
(-0.000437516 6.75859e-05 -0.000102079)
(-0.000441741 2.91957e-05 -0.000102078)
(-0.000442605 -9.41618e-06 -0.000102078)
(-0.0004401 -4.79557e-05 -0.000102078)
(-0.000434245 -8.61302e-05 -0.000102078)
(-0.000425086 -0.000123648 -0.000102077)
(-0.000412693 -0.000160225 -0.000102077)
(-0.000397158 -0.000195584 -0.000102078)
(-0.000378601 -0.000229455 -0.000102078)
(-0.000357162 -0.00026158 -0.000102078)
(-0.000333004 -0.000291714 -0.000102078)
(-0.000306313 -0.000319627 -0.000102078)
(-0.00027729 -0.000345107 -0.000102078)
(-0.000246157 -0.000367961 -0.000102078)
(-0.000213149 -0.000388014 -0.000102079)
(-0.000178521 -0.000405115 -0.000102078)
(-0.000142533 -0.000419133 -0.000102078)
(-0.000105461 -0.00042996 -0.000102078)
(-6.75859e-05 -0.000437516 -0.000102079)
(-2.91957e-05 -0.000441741 -0.000102078)
(9.41617e-06 -0.000442605 -0.000102079)
(4.79557e-05 -0.0004401 -0.000102078)
(8.61302e-05 -0.000434245 -0.000102078)
(0.000123648 -0.000425086 -0.000102077)
(0.000160225 -0.000412693 -0.000102077)
(0.000195584 -0.000397158 -0.000102078)
(0.000229455 -0.000378601 -0.000102078)
(0.00026158 -0.000357162 -0.000102078)
(0.000291714 -0.000333004 -0.000102078)
(0.000319627 -0.000306313 -0.000102078)
(0.000345107 -0.00027729 -0.000102078)
(0.000367961 -0.000246157 -0.000102078)
(0.000388014 -0.000213149 -0.000102079)
(0.000405115 -0.000178521 -0.000102078)
(0.000419133 -0.000142533 -0.000102078)
(0.00042996 -0.000105461 -0.000102078)
(0.000437516 -6.75859e-05 -0.000102079)
(0.000441741 -2.91957e-05 -0.000102078)
(0.000442605 9.41618e-06 -0.000102079)
(0.0004401 4.79557e-05 -0.000102078)
(0.000434245 8.61302e-05 -0.000102078)
(0.000425086 0.000123648 -0.000102077)
(0.000412693 0.000160225 -0.000102077)
(0.000397158 0.000195584 -0.000102078)
(0.000378601 0.000229455 -0.000102078)
(0.000357162 0.00026158 -0.000102078)
(0.000333004 0.000291714 -0.000102078)
(0.000306313 0.000319627 -0.000102078)
(0.00027729 0.000345107 -0.000102078)
(0.000246157 0.000367961 -0.000102078)
(0.000213149 0.000388014 -0.000102079)
(0.000178521 0.000405115 -0.000102078)
(0.000142533 0.000419133 -0.000102078)
(0.000105461 0.00042996 -0.000102078)
(6.75859e-05 0.000437516 -0.000102079)
(2.91957e-05 0.000441741 -0.000102078)
(-9.41618e-06 0.000442605 -0.000102079)
(-4.79557e-05 0.0004401 -0.000102078)
(-8.61302e-05 0.000434245 -0.000102078)
(-0.000123648 0.000425086 -0.000102077)
(-0.000160225 0.000412693 -0.000102077)
(-0.000195584 0.000397158 -0.000102078)
(-0.000229455 0.000378601 -0.000102078)
(-0.00026158 0.000357162 -0.000102078)
(-0.000291714 0.000333004 -0.000102078)
(-0.000319627 0.000306313 -0.000102078)
(-0.000345107 0.00027729 -0.000102078)
(-0.000367961 0.000246157 -0.000102078)
(-0.000388014 0.000213149 -0.000102079)
(-0.000405115 0.000178521 -0.000102078)
(-0.000371364 0.00025413 -6.25146e-05)
(-0.000392099 0.000220797 -6.25144e-05)
(-0.000409851 0.000185782 -6.25139e-05)
(-0.000424483 0.000149354 -6.2514e-05)
(-0.000435886 0.000111789 -6.25146e-05)
(-0.00044397 7.33745e-05 -6.25149e-05)
(-0.000448674 3.44004e-05 -6.25148e-05)
(-0.000449965 -4.83407e-06 -6.25154e-05)
(-0.000447834 -4.40316e-05 -6.25153e-05)
(-0.000442292 -8.28955e-05 -6.25156e-05)
(-0.000433384 -0.000121129 -6.25146e-05)
(-0.000421178 -0.00015844 -6.25139e-05)
(-0.000405766 -0.000194547 -6.25133e-05)
(-0.000387267 -0.000229172 -6.25141e-05)
(-0.000365819 -0.000262051 -6.25149e-05)
(-0.000341588 -0.000292936 -6.2515e-05)
(-0.000314756 -0.000321592 -6.25145e-05)
(-0.00028553 -0.000347802 -6.25143e-05)
(-0.00025413 -0.000371364 -6.25146e-05)
(-0.000220797 -0.000392099 -6.25144e-05)
(-0.000185782 -0.000409851 -6.25139e-05)
(-0.000149354 -0.000424483 -6.25141e-05)
(-0.000111789 -0.000435886 -6.25147e-05)
(-7.33745e-05 -0.00044397 -6.25149e-05)
(-3.44005e-05 -0.000448674 -6.25149e-05)
(4.83403e-06 -0.000449965 -6.25155e-05)
(4.40316e-05 -0.000447834 -6.25153e-05)
(8.28955e-05 -0.000442292 -6.25156e-05)
(0.000121129 -0.000433384 -6.25146e-05)
(0.00015844 -0.000421178 -6.25139e-05)
(0.000194547 -0.000405766 -6.25133e-05)
(0.000229172 -0.000387267 -6.25141e-05)
(0.000262051 -0.000365819 -6.25149e-05)
(0.000292936 -0.000341588 -6.2515e-05)
(0.000321592 -0.000314756 -6.25145e-05)
(0.000347802 -0.00028553 -6.25143e-05)
(0.000371364 -0.00025413 -6.25146e-05)
(0.000392099 -0.000220797 -6.25144e-05)
(0.000409851 -0.000185782 -6.25139e-05)
(0.000424483 -0.000149354 -6.25141e-05)
(0.000435886 -0.000111789 -6.25147e-05)
(0.00044397 -7.33745e-05 -6.25149e-05)
(0.000448674 -3.44005e-05 -6.25149e-05)
(0.000449965 4.83403e-06 -6.25155e-05)
(0.000447834 4.40316e-05 -6.25153e-05)
(0.000442292 8.28955e-05 -6.25156e-05)
(0.000433384 0.000121129 -6.25146e-05)
(0.000421178 0.00015844 -6.25139e-05)
(0.000405766 0.000194547 -6.25133e-05)
(0.000387267 0.000229172 -6.25141e-05)
(0.000365819 0.000262051 -6.25149e-05)
(0.000341588 0.000292936 -6.2515e-05)
(0.000314756 0.000321592 -6.25144e-05)
(0.00028553 0.000347802 -6.25143e-05)
(0.00025413 0.000371364 -6.25145e-05)
(0.000220797 0.000392099 -6.25144e-05)
(0.000185782 0.000409851 -6.25139e-05)
(0.000149354 0.000424483 -6.25141e-05)
(0.000111789 0.000435886 -6.25147e-05)
(7.33745e-05 0.00044397 -6.25149e-05)
(3.44005e-05 0.000448674 -6.25149e-05)
(-4.83403e-06 0.000449965 -6.25155e-05)
(-4.40316e-05 0.000447834 -6.25153e-05)
(-8.28955e-05 0.000442292 -6.25156e-05)
(-0.000121129 0.000433384 -6.25147e-05)
(-0.00015844 0.000421178 -6.2514e-05)
(-0.000194547 0.000405766 -6.25133e-05)
(-0.000229172 0.000387267 -6.25141e-05)
(-0.000262051 0.000365819 -6.25149e-05)
(-0.000292936 0.000341588 -6.2515e-05)
(-0.000321592 0.000314756 -6.25145e-05)
(-0.000347802 0.00028553 -6.25143e-05)
(-0.00119026 0.0004368 -0.000370227)
(-0.00122379 0.0003314 -0.000370226)
(-0.00124802 0.000223477 -0.00037023)
(-0.00126275 0.000113853 -0.000370231)
(-0.00126787 3.36189e-06 -0.000370231)
(-0.00126334 -0.000107153 -0.000370228)
(-0.00124919 -0.000216851 -0.000370223)
(-0.00122554 -0.000324897 -0.00037022)
(-0.00119256 -0.00043047 -0.00037022)
(-0.0011505 -0.000532768 -0.000370222)
(-0.00109969 -0.000631014 -0.000370226)
(-0.00104051 -0.000724459 -0.000370229)
(-0.000973407 -0.000812392 -0.000370228)
(-0.000898899 -0.00089414 -0.000370226)
(-0.00081755 -0.000969079 -0.000370225)
(-0.000729977 -0.00103664 -0.000370225)
(-0.000636848 -0.00109632 -0.00037023)
(-0.000538874 -0.00114766 -0.000370229)
(-0.0004368 -0.00119026 -0.000370227)
(-0.0003314 -0.00122379 -0.000370226)
(-0.000223477 -0.00124802 -0.00037023)
(-0.000113853 -0.00126275 -0.000370231)
(-3.36187e-06 -0.00126787 -0.000370231)
(0.000107153 -0.00126334 -0.000370228)
(0.000216851 -0.00124919 -0.000370223)
(0.000324897 -0.00122554 -0.000370221)
(0.00043047 -0.00119256 -0.00037022)
(0.000532768 -0.0011505 -0.000370222)
(0.000631014 -0.00109969 -0.000370226)
(0.000724459 -0.00104051 -0.000370229)
(0.000812392 -0.000973407 -0.000370228)
(0.00089414 -0.000898899 -0.000370226)
(0.000969079 -0.00081755 -0.000370225)
(0.00103664 -0.000729977 -0.000370225)
(0.00109632 -0.000636848 -0.00037023)
(0.00114766 -0.000538874 -0.000370229)
(0.00119026 -0.0004368 -0.000370227)
(0.00122379 -0.0003314 -0.000370226)
(0.00124802 -0.000223477 -0.00037023)
(0.00126275 -0.000113853 -0.000370231)
(0.00126787 -3.36185e-06 -0.000370231)
(0.00126334 0.000107153 -0.000370228)
(0.00124919 0.000216851 -0.000370223)
(0.00122554 0.000324897 -0.000370221)
(0.00119256 0.00043047 -0.00037022)
(0.0011505 0.000532768 -0.000370222)
(0.00109969 0.000631014 -0.000370226)
(0.00104051 0.000724459 -0.000370229)
(0.000973407 0.000812392 -0.000370228)
(0.000898899 0.00089414 -0.000370226)
(0.00081755 0.000969079 -0.000370225)
(0.000729977 0.00103664 -0.000370225)
(0.000636848 0.00109632 -0.00037023)
(0.000538874 0.00114766 -0.000370229)
(0.0004368 0.00119026 -0.000370227)
(0.0003314 0.00122379 -0.000370226)
(0.000223477 0.00124802 -0.00037023)
(0.000113853 0.00126275 -0.000370231)
(3.36186e-06 0.00126787 -0.000370231)
(-0.000107153 0.00126334 -0.000370228)
(-0.000216851 0.00124919 -0.000370223)
(-0.000324897 0.00122554 -0.000370221)
(-0.00043047 0.00119256 -0.00037022)
(-0.000532768 0.0011505 -0.000370222)
(-0.000631014 0.00109969 -0.000370226)
(-0.000724459 0.00104051 -0.000370229)
(-0.000812392 0.000973407 -0.000370228)
(-0.00089414 0.000898899 -0.000370226)
(-0.000969079 0.00081755 -0.000370225)
(-0.00103664 0.000729977 -0.000370225)
(-0.00109632 0.000636848 -0.00037023)
(-0.00114766 0.000538874 -0.000370229)
(-0.00119316 0.000541421 -0.000260073)
(-0.00123581 0.00043537 -0.000260072)
(-0.00126905 0.000326004 -0.000260073)
(-0.00129263 0.000214157 -0.000260073)
(-0.00130638 0.000100682 -0.000260073)
(-0.00131019 -1.356e-05 -0.000260072)
(-0.00130402 -0.000127697 -0.000260071)
(-0.00128793 -0.000240862 -0.00026007)
(-0.00126203 -0.000352194 -0.000260069)
(-0.00122654 -0.000460847 -0.000260069)
(-0.0011817 -0.000565994 -0.00026007)
(-0.00112788 -0.000666834 -0.000260071)
(-0.00106547 -0.000762599 -0.000260071)
(-0.000994948 -0.000852559 -0.000260071)
(-0.000916855 -0.000936028 -0.000260071)
(-0.000831786 -0.00101237 -0.000260071)
(-0.000740386 -0.00108102 -0.000260072)
(-0.000643351 -0.00114143 -0.000260072)
(-0.000541421 -0.00119316 -0.000260073)
(-0.00043537 -0.00123581 -0.000260072)
(-0.000326004 -0.00126905 -0.000260073)
(-0.000214157 -0.00129263 -0.000260073)
(-0.000100682 -0.00130638 -0.000260073)
(1.356e-05 -0.00131019 -0.000260072)
(0.000127697 -0.00130402 -0.000260071)
(0.000240862 -0.00128793 -0.00026007)
(0.000352194 -0.00126203 -0.000260069)
(0.000460847 -0.00122654 -0.000260069)
(0.000565994 -0.0011817 -0.00026007)
(0.000666834 -0.00112788 -0.000260071)
(0.000762599 -0.00106547 -0.000260071)
(0.000852559 -0.000994948 -0.000260071)
(0.000936028 -0.000916855 -0.000260071)
(0.00101237 -0.000831786 -0.000260071)
(0.00108102 -0.000740386 -0.000260072)
(0.00114143 -0.000643351 -0.000260072)
(0.00119316 -0.000541421 -0.000260073)
(0.00123581 -0.00043537 -0.000260072)
(0.00126905 -0.000326004 -0.000260073)
(0.00129263 -0.000214157 -0.000260073)
(0.00130638 -0.000100682 -0.000260073)
(0.00131019 1.356e-05 -0.000260072)
(0.00130402 0.000127697 -0.000260071)
(0.00128793 0.000240862 -0.00026007)
(0.00126203 0.000352194 -0.000260069)
(0.00122654 0.000460847 -0.000260069)
(0.0011817 0.000565994 -0.00026007)
(0.00112788 0.000666834 -0.000260071)
(0.00106547 0.000762599 -0.000260071)
(0.000994948 0.000852559 -0.000260071)
(0.000916855 0.000936028 -0.000260071)
(0.000831786 0.00101237 -0.000260071)
(0.000740386 0.00108102 -0.000260072)
(0.000643351 0.00114143 -0.000260072)
(0.000541421 0.00119316 -0.000260073)
(0.00043537 0.00123581 -0.000260072)
(0.000326004 0.00126905 -0.000260073)
(0.000214157 0.00129263 -0.000260073)
(0.000100682 0.00130638 -0.000260073)
(-1.356e-05 0.00131019 -0.000260072)
(-0.000127697 0.00130402 -0.000260071)
(-0.000240862 0.00128793 -0.00026007)
(-0.000352194 0.00126203 -0.000260069)
(-0.000460847 0.00122654 -0.000260069)
(-0.000565994 0.0011817 -0.00026007)
(-0.000666834 0.00112788 -0.000260071)
(-0.000762599 0.00106547 -0.000260071)
(-0.000852559 0.000994948 -0.000260071)
(-0.000936028 0.000916855 -0.000260071)
(-0.00101237 0.000831786 -0.000260071)
(-0.00108102 0.000740386 -0.000260072)
(-0.00114143 0.000643351 -0.000260072)
(-0.00122273 0.000798198 -0.000123875)
(-0.00128765 0.000688594 -0.000123874)
(-0.00134276 0.000573746 -0.000123873)
(-0.00138766 0.000454533 -0.000123873)
(-0.00142199 0.00033186 -0.000123873)
(-0.0014455 0.000206663 -0.000123874)
(-0.00145801 7.98936e-05 -0.000123875)
(-0.00145943 -4.74832e-05 -0.000123876)
(-0.00144974 -0.000174499 -0.000123875)
(-0.00142901 -0.000300189 -0.000123874)
(-0.00139741 -0.000423594 -0.000123873)
(-0.00135518 -0.000543776 -0.000123873)
(-0.00130263 -0.00065982 -0.000123873)
(-0.00124016 -0.00077084 -0.000123874)
(-0.00116826 -0.000875992 -0.000123874)
(-0.00108747 -0.000974478 -0.000123874)
(-0.000998398 -0.00106555 -0.000123874)
(-0.000901729 -0.00114851 -0.000123874)
(-0.000798198 -0.00122273 -0.000123875)
(-0.000688594 -0.00128765 -0.000123874)
(-0.000573746 -0.00134276 -0.000123873)
(-0.000454533 -0.00138766 -0.000123873)
(-0.00033186 -0.00142199 -0.000123873)
(-0.000206663 -0.0014455 -0.000123874)
(-7.98936e-05 -0.00145801 -0.000123875)
(4.74832e-05 -0.00145943 -0.000123876)
(0.000174499 -0.00144974 -0.000123875)
(0.000300188 -0.00142901 -0.000123874)
(0.000423594 -0.00139741 -0.000123873)
(0.000543776 -0.00135518 -0.000123873)
(0.00065982 -0.00130263 -0.000123873)
(0.00077084 -0.00124016 -0.000123874)
(0.000875992 -0.00116826 -0.000123874)
(0.000974478 -0.00108747 -0.000123874)
(0.00106555 -0.000998398 -0.000123874)
(0.00114851 -0.000901729 -0.000123873)
(0.00122273 -0.000798198 -0.000123875)
(0.00128765 -0.000688594 -0.000123874)
(0.00134276 -0.000573746 -0.000123873)
(0.00138766 -0.000454533 -0.000123873)
(0.00142199 -0.00033186 -0.000123873)
(0.0014455 -0.000206663 -0.000123874)
(0.00145801 -7.98936e-05 -0.000123875)
(0.00145943 4.74832e-05 -0.000123876)
(0.00144974 0.000174499 -0.000123875)
(0.00142901 0.000300188 -0.000123874)
(0.00139741 0.000423594 -0.000123873)
(0.00135518 0.000543776 -0.000123873)
(0.00130263 0.00065982 -0.000123873)
(0.00124016 0.00077084 -0.000123874)
(0.00116826 0.000875992 -0.000123874)
(0.00108747 0.000974478 -0.000123874)
(0.000998398 0.00106555 -0.000123874)
(0.000901729 0.00114851 -0.000123873)
(0.000798198 0.00122273 -0.000123875)
(0.000688594 0.00128765 -0.000123874)
(0.000573746 0.00134276 -0.000123873)
(0.000454533 0.00138766 -0.000123873)
(0.00033186 0.00142199 -0.000123873)
(0.000206663 0.0014455 -0.000123874)
(7.98936e-05 0.00145801 -0.000123875)
(-4.74832e-05 0.00145943 -0.000123876)
(-0.000174499 0.00144974 -0.000123875)
(-0.000300188 0.00142901 -0.000123874)
(-0.000423594 0.00139741 -0.000123873)
(-0.000543776 0.00135518 -0.000123873)
(-0.00065982 0.00130263 -0.000123873)
(-0.00077084 0.00124016 -0.000123874)
(-0.000875992 0.00116826 -0.000123874)
(-0.000974478 0.00108747 -0.000123874)
(-0.00106555 0.000998398 -0.000123874)
(-0.00114851 0.000901729 -0.000123874)
(-0.00169509 0.000785788 -0.000623656)
(-0.00175713 0.000635061 -0.000623655)
(-0.00180579 0.000479501 -0.000623657)
(-0.00184071 0.000320291 -0.000623656)
(-0.00186162 0.000158643 -0.000623657)
(-0.00186836 -4.21168e-06 -0.000623654)
(-0.00186088 -0.000167033 -0.000623649)
(-0.00183925 -0.000328583 -0.000623649)
(-0.00180361 -0.000487634 -0.000623648)
(-0.00175425 -0.000642972 -0.000623649)
(-0.00169153 -0.000793417 -0.000623648)
(-0.00161594 -0.000937824 -0.000623651)
(-0.00152806 -0.0010751 -0.000623651)
(-0.00142854 -0.00120418 -0.000623651)
(-0.00131816 -0.00132411 -0.000623651)
(-0.00119774 -0.00143395 -0.000623651)
(-0.0010682 -0.00153289 -0.000623654)
(-0.000930534 -0.00162015 -0.000623656)
(-0.000785788 -0.00169509 -0.000623656)
(-0.000635061 -0.00175713 -0.000623656)
(-0.000479501 -0.00180579 -0.000623657)
(-0.000320291 -0.00184071 -0.000623656)
(-0.000158643 -0.00186162 -0.000623657)
(4.21178e-06 -0.00186836 -0.000623654)
(0.000167033 -0.00186088 -0.000623649)
(0.000328583 -0.00183925 -0.000623649)
(0.000487634 -0.00180361 -0.000623648)
(0.000642972 -0.00175425 -0.000623649)
(0.000793417 -0.00169153 -0.000623649)
(0.000937824 -0.00161594 -0.000623651)
(0.0010751 -0.00152806 -0.000623651)
(0.00120418 -0.00142854 -0.000623651)
(0.00132411 -0.00131816 -0.000623651)
(0.00143395 -0.00119774 -0.000623651)
(0.00153289 -0.0010682 -0.000623654)
(0.00162015 -0.000930534 -0.000623656)
(0.00169509 -0.000785788 -0.000623656)
(0.00175713 -0.000635061 -0.000623656)
(0.00180579 -0.000479501 -0.000623657)
(0.00184071 -0.000320291 -0.000623656)
(0.00186162 -0.000158643 -0.000623657)
(0.00186836 4.21179e-06 -0.000623654)
(0.00186088 0.000167033 -0.000623649)
(0.00183925 0.000328583 -0.000623649)
(0.00180361 0.000487634 -0.000623648)
(0.00175425 0.000642972 -0.000623649)
(0.00169153 0.000793417 -0.000623649)
(0.00161594 0.000937824 -0.000623651)
(0.00152806 0.0010751 -0.000623651)
(0.00142854 0.00120418 -0.000623651)
(0.00131816 0.00132411 -0.000623651)
(0.00119774 0.00143395 -0.000623651)
(0.0010682 0.00153289 -0.000623654)
(0.000930534 0.00162015 -0.000623656)
(0.000785788 0.00169509 -0.000623655)
(0.000635061 0.00175713 -0.000623655)
(0.000479501 0.00180579 -0.000623657)
(0.000320291 0.00184071 -0.000623656)
(0.000158643 0.00186162 -0.000623657)
(-4.21179e-06 0.00186836 -0.000623654)
(-0.000167033 0.00186088 -0.000623649)
(-0.000328583 0.00183925 -0.000623649)
(-0.000487634 0.00180361 -0.000623648)
(-0.000642972 0.00175425 -0.000623649)
(-0.000793417 0.00169153 -0.000623649)
(-0.000937824 0.00161594 -0.000623651)
(-0.0010751 0.00152806 -0.000623651)
(-0.00120418 0.00142854 -0.000623651)
(-0.00132411 0.00131816 -0.000623651)
(-0.00143395 0.00119774 -0.000623651)
(-0.00153289 0.0010682 -0.000623654)
(-0.00162015 0.000930534 -0.000623656)
(-0.00178071 0.00105228 -0.000432715)
(-0.00186565 0.000893076 -0.000432715)
(-0.00193638 0.000727076 -0.000432715)
(-0.00199238 0.000555542 -0.000432716)
(-0.00203322 0.00037978 -0.000432715)
(-0.00205858 0.000201128 -0.000432715)
(-0.00206828 2.0946e-05 -0.000432713)
(-0.00206224 -0.000159396 -0.000432712)
(-0.0020405 -0.000338524 -0.000432712)
(-0.00200323 -0.000515077 -0.000432711)
(-0.00195071 -0.00068771 -0.000432712)
(-0.00188335 -0.000855109 -0.000432712)
(-0.00180166 -0.001016 -0.000432713)
(-0.00170625 -0.00116916 -0.000432712)
(-0.00159786 -0.00131342 -0.000432713)
(-0.00147731 -0.00144768 -0.000432713)
(-0.00134551 -0.00157093 -0.000432714)
(-0.00120347 -0.00168222 -0.000432714)
(-0.00105228 -0.00178071 -0.000432715)
(-0.000893076 -0.00186565 -0.000432715)
(-0.000727076 -0.00193638 -0.000432715)
(-0.000555542 -0.00199238 -0.000432716)
(-0.00037978 -0.00203322 -0.000432715)
(-0.000201128 -0.00205858 -0.000432715)
(-2.09461e-05 -0.00206828 -0.000432713)
(0.000159396 -0.00206224 -0.000432712)
(0.000338524 -0.0020405 -0.000432712)
(0.000515077 -0.00200323 -0.000432711)
(0.00068771 -0.00195071 -0.000432712)
(0.000855109 -0.00188335 -0.000432712)
(0.001016 -0.00180166 -0.000432713)
(0.00116916 -0.00170625 -0.000432712)
(0.00131342 -0.00159786 -0.000432712)
(0.00144768 -0.00147731 -0.000432713)
(0.00157093 -0.00134551 -0.000432714)
(0.00168222 -0.00120347 -0.000432714)
(0.00178071 -0.00105228 -0.000432715)
(0.00186565 -0.000893076 -0.000432715)
(0.00193638 -0.000727076 -0.000432715)
(0.00199238 -0.000555542 -0.000432716)
(0.00203322 -0.00037978 -0.000432715)
(0.00205858 -0.000201128 -0.000432715)
(0.00206828 -2.09461e-05 -0.000432713)
(0.00206224 0.000159396 -0.000432712)
(0.0020405 0.000338524 -0.000432712)
(0.00200323 0.000515077 -0.000432711)
(0.00195071 0.00068771 -0.000432712)
(0.00188335 0.000855109 -0.000432712)
(0.00180166 0.001016 -0.000432713)
(0.00170625 0.00116916 -0.000432712)
(0.00159786 0.00131342 -0.000432712)
(0.00147731 0.00144768 -0.000432713)
(0.00134551 0.00157093 -0.000432714)
(0.00120347 0.00168222 -0.000432714)
(0.00105228 0.00178071 -0.000432715)
(0.000893076 0.00186565 -0.000432715)
(0.000727076 0.00193638 -0.000432715)
(0.000555542 0.00199238 -0.000432716)
(0.00037978 0.00203322 -0.000432715)
(0.000201127 0.00205858 -0.000432715)
(2.09461e-05 0.00206828 -0.000432713)
(-0.000159396 0.00206224 -0.000432713)
(-0.000338524 0.0020405 -0.000432712)
(-0.000515077 0.00200323 -0.000432711)
(-0.00068771 0.00195071 -0.000432712)
(-0.000855109 0.00188335 -0.000432712)
(-0.001016 0.00180166 -0.000432713)
(-0.00116916 0.00170625 -0.000432712)
(-0.00131342 0.00159786 -0.000432713)
(-0.00144768 0.00147731 -0.000432713)
(-0.00157093 0.00134551 -0.000432714)
(-0.00168222 0.00120347 -0.000432714)
(-0.00191293 0.00138614 -0.000256406)
(-0.00202646 0.00121414 -0.000256405)
(-0.00212457 0.0010329 -0.000256405)
(-0.00220651 0.0008438 -0.000256406)
(-0.00227165 0.000648279 -0.000256406)
(-0.00231951 0.000447825 -0.000256406)
(-0.00234972 0.000243963 -0.000256406)
(-0.00236204 3.82444e-05 -0.000256406)
(-0.00235638 -0.000167766 -0.000256407)
(-0.00233279 -0.0003725 -0.000256405)
(-0.00229145 -0.0005744 -0.000256405)
(-0.00223267 -0.000771928 -0.000256405)
(-0.0021569 -0.000963581 -0.000256405)
(-0.00206471 -0.0011479 -0.000256405)
(-0.0019568 -0.00132348 -0.000256406)
(-0.00183401 -0.00148899 -0.000256406)
(-0.00169725 -0.00164317 -0.000256405)
(-0.00154758 -0.00178485 -0.000256405)
(-0.00138614 -0.00191293 -0.000256406)
(-0.00121414 -0.00202646 -0.000256405)
(-0.0010329 -0.00212457 -0.000256405)
(-0.0008438 -0.00220651 -0.000256406)
(-0.000648279 -0.00227165 -0.000256406)
(-0.000447825 -0.00231951 -0.000256406)
(-0.000243963 -0.00234972 -0.000256406)
(-3.82445e-05 -0.00236204 -0.000256406)
(0.000167766 -0.00235638 -0.000256407)
(0.0003725 -0.00233279 -0.000256406)
(0.0005744 -0.00229145 -0.000256406)
(0.000771928 -0.00223267 -0.000256405)
(0.000963581 -0.0021569 -0.000256406)
(0.0011479 -0.00206471 -0.000256405)
(0.00132348 -0.0019568 -0.000256406)
(0.00148899 -0.00183401 -0.000256405)
(0.00164317 -0.00169725 -0.000256405)
(0.00178485 -0.00154758 -0.000256405)
(0.00191293 -0.00138614 -0.000256406)
(0.00202646 -0.00121414 -0.000256405)
(0.00212457 -0.0010329 -0.000256405)
(0.00220651 -0.0008438 -0.000256406)
(0.00227165 -0.000648279 -0.000256406)
(0.00231951 -0.000447825 -0.000256406)
(0.00234972 -0.000243963 -0.000256406)
(0.00236204 -3.82444e-05 -0.000256406)
(0.00235638 0.000167766 -0.000256407)
(0.00233279 0.0003725 -0.000256406)
(0.00229145 0.0005744 -0.000256406)
(0.00223267 0.000771928 -0.000256405)
(0.0021569 0.000963581 -0.000256406)
(0.00206471 0.0011479 -0.000256405)
(0.0019568 0.00132348 -0.000256406)
(0.00183401 0.00148899 -0.000256405)
(0.00169725 0.00164317 -0.000256405)
(0.00154758 0.00178485 -0.000256405)
(0.00138614 0.00191293 -0.000256406)
(0.00121414 0.00202646 -0.000256405)
(0.0010329 0.00212457 -0.000256405)
(0.0008438 0.00220651 -0.000256406)
(0.000648279 0.00227165 -0.000256406)
(0.000447825 0.00231951 -0.000256406)
(0.000243963 0.00234972 -0.000256406)
(3.82444e-05 0.00236204 -0.000256406)
(-0.000167766 0.00235638 -0.000256407)
(-0.0003725 0.00233279 -0.000256406)
(-0.0005744 0.00229145 -0.000256406)
(-0.000771928 0.00223267 -0.000256405)
(-0.000963581 0.0021569 -0.000256406)
(-0.0011479 0.00206471 -0.000256406)
(-0.00132348 0.0019568 -0.000256406)
(-0.00148899 0.00183401 -0.000256405)
(-0.00164317 0.00169725 -0.000256405)
(-0.00178485 0.00154758 -0.000256405)
(-0.00194501 0.00129042 -0.000887409)
(-0.00205008 0.00111599 -0.000887411)
(-0.00213954 0.000933067 -0.000887413)
(-0.00221272 0.000743044 -0.000887412)
(-0.00226906 0.000547363 -0.000887412)
(-0.00230813 0.000347518 -0.000887411)
(-0.00232964 0.00014503 -0.000887407)
(-0.00233341 -5.85637e-05 -0.000887406)
(-0.00231943 -0.000261711 -0.000887407)
(-0.00228779 -0.000462867 -0.000887409)
(-0.00223875 -0.0006605 -0.000887408)
(-0.00217266 -0.000853106 -0.000887408)
(-0.00209004 -0.00103922 -0.000887407)
(-0.00199151 -0.00121742 -0.000887407)
(-0.00187783 -0.00138636 -0.000887407)
(-0.00174985 -0.00154475 -0.000887407)
(-0.00160856 -0.00169138 -0.000887409)
(-0.00145503 -0.00182514 -0.000887409)
(-0.00129042 -0.00194501 -0.000887409)
(-0.00111599 -0.00205008 -0.000887411)
(-0.000933067 -0.00213954 -0.000887413)
(-0.000743043 -0.00221272 -0.000887412)
(-0.000547363 -0.00226906 -0.000887412)
(-0.000347518 -0.00230813 -0.000887411)
(-0.00014503 -0.00232964 -0.000887407)
(5.85637e-05 -0.00233341 -0.000887406)
(0.000261711 -0.00231943 -0.000887407)
(0.000462867 -0.00228779 -0.000887409)
(0.0006605 -0.00223875 -0.000887408)
(0.000853106 -0.00217266 -0.000887408)
(0.00103922 -0.00209004 -0.000887407)
(0.00121742 -0.00199151 -0.000887407)
(0.00138636 -0.00187783 -0.000887407)
(0.00154475 -0.00174985 -0.000887407)
(0.00169138 -0.00160856 -0.000887409)
(0.00182514 -0.00145503 -0.000887409)
(0.00194501 -0.00129042 -0.000887409)
(0.00205008 -0.00111599 -0.000887411)
(0.00213954 -0.000933067 -0.000887413)
(0.00221272 -0.000743043 -0.000887412)
(0.00226906 -0.000547363 -0.000887412)
(0.00230813 -0.000347518 -0.000887411)
(0.00232964 -0.00014503 -0.000887407)
(0.00233341 5.85637e-05 -0.000887406)
(0.00231943 0.000261711 -0.000887407)
(0.00228779 0.000462867 -0.000887409)
(0.00223875 0.0006605 -0.000887408)
(0.00217266 0.000853106 -0.000887408)
(0.00209004 0.00103922 -0.000887407)
(0.00199151 0.00121742 -0.000887407)
(0.00187783 0.00138636 -0.000887407)
(0.00174985 0.00154475 -0.000887407)
(0.00160856 0.00169138 -0.000887408)
(0.00145503 0.00182514 -0.000887409)
(0.00129042 0.00194501 -0.000887409)
(0.00111599 0.00205008 -0.000887411)
(0.000933067 0.00213954 -0.000887413)
(0.000743044 0.00221272 -0.000887412)
(0.000547363 0.00226906 -0.000887412)
(0.000347518 0.00230813 -0.000887411)
(0.00014503 0.00232964 -0.000887407)
(-5.85637e-05 0.00233341 -0.000887406)
(-0.000261711 0.00231943 -0.000887407)
(-0.000462867 0.00228779 -0.00088741)
(-0.0006605 0.00223875 -0.000887408)
(-0.000853106 0.00217266 -0.000887408)
(-0.00103922 0.00209004 -0.000887407)
(-0.00121742 0.00199151 -0.000887407)
(-0.00138636 0.00187783 -0.000887407)
(-0.00154475 0.00174985 -0.000887407)
(-0.00169138 0.00160856 -0.000887409)
(-0.00182514 0.00145503 -0.000887409)
(-0.00209758 0.00164627 -0.000665971)
(-0.00223308 0.00145719 -0.000665972)
(-0.00235159 0.00125702 -0.000665973)
(-0.00245219 0.00104728 -0.000665974)
(-0.00253414 0.000829573 -0.000665974)
(-0.0025968 0.000605552 -0.000665972)
(-0.00263969 0.000376921 -0.00066597)
(-0.0026625 0.000145423 -0.00066597)
(-0.00266504 -8.71813e-05 -0.00066597)
(-0.0026473 -0.000319123 -0.00066597)
(-0.00260941 -0.000548637 -0.000665971)
(-0.00255167 -0.000773975 -0.000665971)
(-0.0024745 -0.000993422 -0.00066597)
(-0.0023785 -0.00120531 -0.00066597)
(-0.0022644 -0.00140802 -0.00066597)
(-0.00213307 -0.00160002 -0.000665971)
(-0.0019855 -0.00177984 -0.000665971)
(-0.00182282 -0.00194612 -0.000665971)
(-0.00164627 -0.00209758 -0.000665971)
(-0.00145719 -0.00223308 -0.000665972)
(-0.00125702 -0.00235158 -0.000665973)
(-0.00104728 -0.00245219 -0.000665974)
(-0.000829573 -0.00253414 -0.000665974)
(-0.000605552 -0.0025968 -0.000665972)
(-0.000376921 -0.00263969 -0.00066597)
(-0.000145423 -0.0026625 -0.00066597)
(8.71813e-05 -0.00266504 -0.00066597)
(0.000319123 -0.0026473 -0.000665971)
(0.000548637 -0.00260941 -0.000665971)