/*--------------------------------*- C++ -*----------------------------------*\
| =========                 |                                                 |
| \\      /  F ield         | OpenFOAM: The Open Source CFD Toolbox           |
|  \\    /   O peration     | Version:  2312                                  |
|   \\  /    A nd           | Website:  www.openfoam.com                      |
|    \\/     M anipulation  |                                                 |
\*---------------------------------------------------------------------------*/
FoamFile
{
    version     2.0;
    format      ascii;
    arch        "LSB;label=32;scalar=64";
    class       volVectorField;
    location    "0.7";
    object      D_0;
}
// * * * * * * * * * * * * * * * * * * * * * * * * * * * * * * * * * * * * * //

dimensions      [0 1 0 0 0 0 0];

internalField   nonuniform List<vector> 
3240
(
(-0.000469371 0.000158368 -0.00012067)
(-0.000481387 0.000116858 -0.000120668)
(-0.000489739 7.44565e-05 -0.000120671)
(-0.000494364 3.14875e-05 -0.000120671)
(-0.00049523 -1.17199e-05 -0.000120671)
(-0.000492324 -5.48374e-05 -0.00012067)
(-0.000485671 -9.75359e-05 -0.000120667)
(-0.000475322 -0.000139492 -0.000120667)
(-0.000461356 -0.000180387 -0.000120668)
(-0.000443879 -0.00021991 -0.00012067)
(-0.000423023 -0.00025776 -0.000120671)
(-0.000398947 -0.00029365 -0.000120672)
(-0.000371836 -0.000327305 -0.00012067)
(-0.000341895 -0.000358467 -0.000120669)
(-0.000309352 -0.000386898 -0.000120667)
(-0.000274454 -0.000412388 -0.000120669)
(-0.000237467 -0.00043474 -0.000120671)
(-0.000198674 -0.000453783 -0.00012067)
(-0.000158368 -0.000469371 -0.000120669)
(-0.000116858 -0.000481387 -0.000120668)
(-7.44565e-05 -0.000489739 -0.000120671)
(-3.14874e-05 -0.000494364 -0.000120671)
(1.17199e-05 -0.00049523 -0.000120671)
(5.48374e-05 -0.000492324 -0.00012067)
(9.75359e-05 -0.000485671 -0.000120667)
(0.000139492 -0.000475322 -0.000120667)
(0.000180387 -0.000461356 -0.000120668)
(0.00021991 -0.000443879 -0.00012067)
(0.00025776 -0.000423023 -0.000120671)
(0.00029365 -0.000398947 -0.000120672)
(0.000327305 -0.000371836 -0.00012067)
(0.000358467 -0.000341895 -0.000120669)
(0.000386898 -0.000309352 -0.000120667)
(0.000412388 -0.000274454 -0.000120669)
(0.00043474 -0.000237467 -0.000120671)
(0.000453783 -0.000198674 -0.00012067)
(0.000469371 -0.000158368 -0.00012067)
(0.000481387 -0.000116858 -0.000120668)
(0.000489739 -7.44564e-05 -0.000120671)
(0.000494364 -3.14874e-05 -0.000120671)
(0.00049523 1.17199e-05 -0.000120671)
(0.000492324 5.48374e-05 -0.00012067)
(0.000485671 9.75359e-05 -0.000120667)
(0.000475322 0.000139492 -0.000120667)
(0.000461356 0.000180387 -0.000120668)
(0.000443879 0.00021991 -0.00012067)
(0.000423023 0.00025776 -0.000120671)
(0.000398947 0.00029365 -0.000120672)
(0.000371836 0.000327305 -0.00012067)
(0.000341895 0.000358467 -0.000120669)
(0.000309352 0.000386898 -0.000120667)
(0.000274454 0.000412388 -0.000120669)
(0.000237467 0.00043474 -0.000120671)
(0.000198674 0.000453783 -0.00012067)
(0.000158368 0.000469371 -0.000120669)
(0.000116858 0.000481387 -0.000120668)
(7.44565e-05 0.000489739 -0.000120671)
(3.14874e-05 0.000494364 -0.000120671)
(-1.17199e-05 0.00049523 -0.000120671)
(-5.48374e-05 0.000492324 -0.00012067)
(-9.75359e-05 0.000485671 -0.000120667)
(-0.000139492 0.000475322 -0.000120667)
(-0.000180387 0.000461356 -0.000120668)
(-0.00021991 0.000443879 -0.00012067)
(-0.00025776 0.000423023 -0.000120671)
(-0.00029365 0.000398947 -0.000120672)
(-0.000327305 0.000371836 -0.00012067)
(-0.000358467 0.000341895 -0.000120669)
(-0.000386898 0.000309352 -0.000120667)
(-0.000412388 0.000274454 -0.000120669)
(-0.00043474 0.000237467 -0.000120671)
(-0.000453783 0.000198674 -0.00012067)
(-0.000413518 0.00014538 -0.000101102)
(-0.000424615 0.000108787 -0.000101101)
(-0.000432481 7.13647e-05 -0.000101102)
(-0.000437055 3.3399e-05 -0.000101102)
(-0.000438303 -4.82051e-06 -0.000101102)
(-0.000436215 -4.30025e-05 -0.000101102)
(-0.000430807 -8.08573e-05 -0.000101101)
(-0.00042212 -0.000118096 -0.0001011)
(-0.000410222 -0.000154435 -0.000101101)
(-0.000395201 -0.000189601 -0.000101102)
(-0.000377173 -0.000223324 -0.000101102)
(-0.000356274 -0.000255348 -0.000101101)
(-0.000332663 -0.000285428 -0.000101101)
(-0.00030652 -0.000313335 -0.000101101)
(-0.000278045 -0.000338857 -0.000101101)
(-0.000247454 -0.000361801 -0.000101101)
(-0.000214978 -0.000381991 -0.000101102)
(-0.000180868 -0.000399274 -0.000101101)
(-0.00014538 -0.000413518 -0.000101102)
(-0.000108787 -0.000424615 -0.000101101)
(-7.13647e-05 -0.000432481 -0.000101102)
(-3.3399e-05 -0.000437055 -0.000101102)
(4.82049e-06 -0.000438303 -0.000101102)
(4.30025e-05 -0.000436215 -0.000101102)
(8.08573e-05 -0.000430807 -0.000101101)
(0.000118096 -0.00042212 -0.0001011)
(0.000154435 -0.000410222 -0.000101101)
(0.000189601 -0.000395201 -0.000101102)
(0.000223324 -0.000377173 -0.000101102)
(0.000255348 -0.000356274 -0.000101101)
(0.000285428 -0.000332663 -0.000101101)
(0.000313335 -0.00030652 -0.000101101)
(0.000338857 -0.000278045 -0.000101101)
(0.000361801 -0.000247454 -0.000101101)
(0.000381991 -0.000214978 -0.000101102)
(0.000399274 -0.000180868 -0.000101101)
(0.000413518 -0.00014538 -0.000101102)
(0.000424615 -0.000108787 -0.000101101)
(0.000432481 -7.13647e-05 -0.000101102)
(0.000437055 -3.33989e-05 -0.000101102)
(0.000438303 4.82049e-06 -0.000101102)
(0.000436215 4.30025e-05 -0.000101102)
(0.000430807 8.08573e-05 -0.000101101)
(0.00042212 0.000118096 -0.0001011)
(0.000410222 0.000154435 -0.000101101)
(0.000395201 0.000189601 -0.000101102)
(0.000377173 0.000223324 -0.000101102)
(0.000356274 0.000255348 -0.000101101)
(0.000332663 0.000285428 -0.000101101)
(0.00030652 0.000313335 -0.000101101)
(0.000278045 0.000338857 -0.000101101)
(0.000247454 0.000361801 -0.000101101)
(0.000214978 0.000381991 -0.000101102)
(0.000180868 0.000399274 -0.000101101)
(0.00014538 0.000413518 -0.000101102)
(0.000108787 0.000424615 -0.000101101)
(7.13647e-05 0.000432481 -0.000101102)
(3.33989e-05 0.000437055 -0.000101102)
(-4.8205e-06 0.000438303 -0.000101102)
(-4.30025e-05 0.000436215 -0.000101102)
(-8.08573e-05 0.000430807 -0.000101101)
(-0.000118096 0.00042212 -0.0001011)
(-0.000154435 0.000410222 -0.000101101)
(-0.000189601 0.000395201 -0.000101102)
(-0.000223324 0.000377173 -0.000101102)
(-0.000255348 0.000356274 -0.000101101)
(-0.000285428 0.000332663 -0.000101101)
(-0.000313335 0.00030652 -0.000101101)
(-0.000338857 0.000278045 -0.000101101)
(-0.000361801 0.000247454 -0.000101101)
(-0.000381991 0.000214978 -0.000101102)
(-0.000399274 0.000180868 -0.000101101)
(-0.000365614 0.000256064 -6.08539e-05)
(-0.00038654 0.000223224 -6.08538e-05)
(-0.000404524 0.000188685 -6.08533e-05)
(-0.00041943 0.00015271 -6.08534e-05)
(-0.000431145 0.000115573 -6.0854e-05)
(-0.000439576 7.75571e-05 -6.08543e-05)
(-0.000444661 3.89501e-05 -6.08542e-05)
(-0.000446365 4.79825e-08 -6.08548e-05)
(-0.000444672 -3.88543e-05 -6.08546e-05)
(-0.000439594 -7.74624e-05 -6.08549e-05)
(-0.00043117 -0.000115481 -6.0854e-05)
(-0.000419465 -0.000152621 -6.08533e-05)
(-0.000404566 -0.0001886 -6.08527e-05)
(-0.00038659 -0.000223143 -6.08534e-05)
(-0.000365669 -0.000255987 -6.08543e-05)
(-0.000341968 -0.000286882 -6.08544e-05)
(-0.000315662 -0.000315594 -6.08538e-05)
(-0.000286955 -0.000341905 -6.08537e-05)
(-0.000256064 -0.000365614 -6.08539e-05)
(-0.000223224 -0.00038654 -6.08538e-05)
(-0.000188685 -0.000404524 -6.08533e-05)
(-0.00015271 -0.00041943 -6.08534e-05)
(-0.000115573 -0.000431145 -6.0854e-05)
(-7.75571e-05 -0.000439576 -6.08543e-05)
(-3.89501e-05 -0.000444661 -6.08542e-05)
(-4.80156e-08 -0.000446365 -6.08548e-05)
(3.88543e-05 -0.000444672 -6.08546e-05)
(7.74624e-05 -0.000439594 -6.08549e-05)
(0.000115481 -0.00043117 -6.0854e-05)
(0.000152621 -0.000419465 -6.08533e-05)
(0.0001886 -0.000404566 -6.08527e-05)
(0.000223143 -0.00038659 -6.08534e-05)
(0.000255987 -0.000365669 -6.08543e-05)
(0.000286882 -0.000341968 -6.08543e-05)
(0.000315594 -0.000315662 -6.08538e-05)
(0.000341905 -0.000286955 -6.08537e-05)
(0.000365614 -0.000256064 -6.08539e-05)
(0.00038654 -0.000223224 -6.08538e-05)
(0.000404524 -0.000188685 -6.08533e-05)
(0.00041943 -0.00015271 -6.08534e-05)
(0.000431145 -0.000115573 -6.0854e-05)
(0.000439576 -7.75571e-05 -6.08543e-05)
(0.000444661 -3.89501e-05 -6.08542e-05)
(0.000446365 -4.80153e-08 -6.08548e-05)
(0.000444672 3.88543e-05 -6.08546e-05)
(0.000439594 7.74623e-05 -6.08549e-05)
(0.00043117 0.000115481 -6.0854e-05)
(0.000419465 0.000152621 -6.08533e-05)
(0.000404566 0.0001886 -6.08527e-05)
(0.00038659 0.000223143 -6.08534e-05)
(0.000365669 0.000255987 -6.08543e-05)
(0.000341968 0.000286882 -6.08543e-05)
(0.000315662 0.000315594 -6.08538e-05)
(0.000286955 0.000341905 -6.08537e-05)
(0.000256064 0.000365614 -6.08539e-05)
(0.000223224 0.00038654 -6.08538e-05)
(0.000188685 0.000404524 -6.08533e-05)
(0.00015271 0.00041943 -6.08534e-05)
(0.000115573 0.000431145 -6.0854e-05)
(7.75571e-05 0.000439576 -6.08543e-05)
(3.89501e-05 0.000444661 -6.08542e-05)
(4.80151e-08 0.000446365 -6.08548e-05)
(-3.88543e-05 0.000444672 -6.08546e-05)
(-7.74623e-05 0.000439594 -6.08549e-05)
(-0.000115481 0.00043117 -6.0854e-05)
(-0.000152621 0.000419465 -6.08533e-05)
(-0.0001886 0.000404566 -6.08527e-05)
(-0.000223143 0.00038659 -6.08534e-05)
(-0.000255987 0.000365669 -6.08543e-05)
(-0.000286882 0.000341968 -6.08543e-05)
(-0.000315594 0.000315662 -6.08538e-05)
(-0.000341905 0.000286955 -6.08537e-05)
(-0.00117644 0.000438915 -0.000371147)
(-0.00121021 0.000334712 -0.000371146)
(-0.00123477 0.000227961 -0.000371149)
(-0.00124995 0.000119473 -0.000371151)
(-0.0012556 1.0077e-05 -0.000371151)
(-0.00125171 -9.93943e-05 -0.000371148)
(-0.00123828 -0.000208108 -0.000371143)
(-0.00121543 -0.000315236 -0.00037114)
(-0.00118333 -0.000419966 -0.000371139)
(-0.00114223 -0.0005215 -0.000371141)
(-0.00109243 -0.000619067 -0.000371146)
(-0.00103431 -0.000711924 -0.000371148)
(-0.000968328 -0.000799365 -0.000371148)
(-0.000894975 -0.00088072 -0.000371146)
(-0.000814811 -0.000955368 -0.000371145)
(-0.000728443 -0.00102275 -0.000371145)
(-0.000636532 -0.00108234 -0.000371149)
(-0.000539777 -0.0011337 -0.000371148)
(-0.000438915 -0.00117644 -0.000371147)
(-0.000334712 -0.00121021 -0.000371146)
(-0.000227961 -0.00123477 -0.000371149)
(-0.000119473 -0.00124995 -0.000371151)
(-1.0077e-05 -0.0012556 -0.000371151)
(9.93943e-05 -0.00125171 -0.000371148)
(0.000208108 -0.00123828 -0.000371143)
(0.000315236 -0.00121543 -0.00037114)
(0.000419966 -0.00118333 -0.000371139)
(0.000521499 -0.00114223 -0.000371141)
(0.000619067 -0.00109243 -0.000371146)
(0.000711924 -0.00103431 -0.000371148)
(0.000799365 -0.000968328 -0.000371148)
(0.00088072 -0.000894975 -0.000371146)
(0.000955368 -0.000814811 -0.000371145)
(0.00102275 -0.000728444 -0.000371145)
(0.00108234 -0.000636532 -0.000371149)
(0.0011337 -0.000539777 -0.000371148)
(0.00117644 -0.000438915 -0.000371147)
(0.00121021 -0.000334712 -0.000371146)
(0.00123477 -0.000227961 -0.000371149)
(0.00124995 -0.000119473 -0.000371151)
(0.0012556 -1.0077e-05 -0.000371151)
(0.00125171 9.93943e-05 -0.000371148)
(0.00123828 0.000208108 -0.000371143)
(0.00121543 0.000315236 -0.00037114)
(0.00118333 0.000419966 -0.000371139)
(0.00114223 0.000521499 -0.000371141)
(0.00109243 0.000619067 -0.000371146)
(0.00103431 0.000711924 -0.000371148)
(0.000968328 0.000799365 -0.000371148)
(0.000894975 0.00088072 -0.000371146)
(0.000814811 0.000955368 -0.000371145)
(0.000728444 0.00102275 -0.000371145)
(0.000636532 0.00108234 -0.000371149)
(0.000539777 0.0011337 -0.000371148)
(0.000438915 0.00117644 -0.000371147)
(0.000334712 0.00121021 -0.000371146)
(0.000227961 0.00123477 -0.000371149)
(0.000119473 0.00124995 -0.000371151)
(1.0077e-05 0.0012556 -0.000371151)
(-9.93943e-05 0.0012517 -0.000371148)
(-0.000208108 0.00123828 -0.000371143)
(-0.000315236 0.00121543 -0.00037114)
(-0.000419966 0.00118333 -0.000371139)
(-0.000521499 0.00114223 -0.000371141)
(-0.000619067 0.00109243 -0.000371146)
(-0.000711925 0.00103431 -0.000371148)
(-0.000799365 0.000968328 -0.000371148)
(-0.00088072 0.000894975 -0.000371146)
(-0.000955368 0.000814811 -0.000371145)
(-0.00102275 0.000728444 -0.000371145)
(-0.00108234 0.000636532 -0.000371149)
(-0.0011337 0.000539777 -0.000371148)
(-0.00117783 0.000546612 -0.000259652)
(-0.00122099 0.000441878 -0.000259651)
(-0.00125485 0.000333779 -0.000259652)
(-0.00127917 0.00022314 -0.000259653)
(-0.00129375 0.000110803 -0.000259652)
(-0.00129848 -2.37613e-06 -0.000259652)
(-0.00129334 -0.000115536 -0.00025965)
(-0.00127835 -0.000227817 -0.000259649)
(-0.00125363 -0.000338363 -0.000259649)
(-0.00121937 -0.000446336 -0.000259648)
(-0.00117583 -0.000550913 -0.000259649)
(-0.00112334 -0.000651298 -0.00025965)
(-0.0010623 -0.000746727 -0.000259651)
(-0.000993174 -0.00083647 -0.000259651)
(-0.00091649 -0.000919846 -0.000259651)
(-0.000832832 -0.000996222 -0.000259651)
(-0.000742836 -0.00106502 -0.000259652)
(-0.000647187 -0.00112571 -0.000259652)
(-0.000546612 -0.00117783 -0.000259652)
(-0.000441878 -0.00122099 -0.000259651)
(-0.000333779 -0.00125485 -0.000259652)
(-0.00022314 -0.00127917 -0.000259653)
(-0.000110803 -0.00129375 -0.000259652)
(2.37608e-06 -0.00129848 -0.000259652)
(0.000115536 -0.00129334 -0.00025965)
(0.000227816 -0.00127835 -0.00025965)
(0.000338363 -0.00125363 -0.000259649)
(0.000446336 -0.00121937 -0.000259648)
(0.000550913 -0.00117583 -0.000259649)
(0.000651298 -0.00112334 -0.00025965)
(0.000746727 -0.0010623 -0.000259651)
(0.00083647 -0.000993174 -0.000259651)
(0.000919846 -0.00091649 -0.000259651)
(0.000996222 -0.000832832 -0.000259651)
(0.00106502 -0.000742836 -0.000259652)
(0.00112571 -0.000647187 -0.000259652)
(0.00117783 -0.000546612 -0.000259652)
(0.00122099 -0.000441878 -0.000259651)
(0.00125485 -0.000333779 -0.000259652)
(0.00127917 -0.00022314 -0.000259653)
(0.00129375 -0.000110803 -0.000259652)
(0.00129848 2.37609e-06 -0.000259652)
(0.00129334 0.000115536 -0.00025965)
(0.00127835 0.000227816 -0.00025965)
(0.00125363 0.000338363 -0.000259649)
(0.00121937 0.000446336 -0.000259648)
(0.00117583 0.000550913 -0.000259649)
(0.00112334 0.000651298 -0.00025965)
(0.0010623 0.000746727 -0.000259651)
(0.000993174 0.00083647 -0.000259651)
(0.00091649 0.000919846 -0.000259651)
(0.000832832 0.000996222 -0.000259651)
(0.000742836 0.00106502 -0.000259652)
(0.000647187 0.00112571 -0.000259652)
(0.000546612 0.00117783 -0.000259652)
(0.000441878 0.00122099 -0.000259651)
(0.000333779 0.00125485 -0.000259652)
(0.00022314 0.00127917 -0.000259653)
(0.000110803 0.00129375 -0.000259652)
(-2.37612e-06 0.00129848 -0.000259652)
(-0.000115536 0.00129334 -0.00025965)
(-0.000227816 0.00127835 -0.00025965)
(-0.000338363 0.00125363 -0.000259649)
(-0.000446336 0.00121937 -0.000259648)
(-0.000550913 0.00117583 -0.000259649)
(-0.000651298 0.00112334 -0.00025965)
(-0.000746727 0.0010623 -0.000259651)
(-0.00083647 0.000993174 -0.000259651)
(-0.000919846 0.00091649 -0.000259651)
(-0.000996222 0.000832832 -0.000259651)
(-0.00106502 0.000742836 -0.000259652)
(-0.00112571 0.000647187 -0.000259652)
(-0.00120619 0.000802391 -0.000123264)
(-0.00127154 0.000694212 -0.000123263)
(-0.0013272 0.000580747 -0.000123263)
(-0.00137277 0.000462863 -0.000123263)
(-0.00140788 0.000341457 -0.000123263)
(-0.00143228 0.000217453 -0.000123264)
(-0.00144579 9.17945e-05 -0.000123264)
(-0.00144828 -3.4562e-05 -0.000123265)
(-0.00143976 -0.000160656 -0.000123265)
(-0.00142028 -0.000285529 -0.000123263)
(-0.00138999 -0.000408229 -0.000123262)
(-0.00134913 -0.000527823 -0.000123262)
(-0.00129799 -0.000643399 -0.000123262)
(-0.00123697 -0.000754078 -0.000123263)
(-0.00116654 -0.000859016 -0.000123263)
(-0.00108724 -0.000957416 -0.000123263)
(-0.000999655 -0.00104853 -0.000123263)
(-0.000904464 -0.00113167 -0.000123263)
(-0.000802391 -0.00120619 -0.000123264)
(-0.000694212 -0.00127154 -0.000123263)
(-0.000580747 -0.0013272 -0.000123263)
(-0.000462863 -0.00137277 -0.000123263)
(-0.000341457 -0.00140788 -0.000123263)
(-0.000217453 -0.00143228 -0.000123264)
(-9.17946e-05 -0.00144579 -0.000123264)
(3.45619e-05 -0.00144828 -0.000123265)
(0.000160656 -0.00143976 -0.000123265)
(0.000285528 -0.00142028 -0.000123263)
(0.000408229 -0.00138999 -0.000123262)
(0.000527823 -0.00134913 -0.000123262)
(0.000643399 -0.00129799 -0.000123262)
(0.000754078 -0.00123697 -0.000123263)
(0.000859016 -0.00116654 -0.000123263)
(0.000957416 -0.00108724 -0.000123263)
(0.00104853 -0.000999655 -0.000123263)
(0.00113167 -0.000904464 -0.000123263)
(0.00120619 -0.000802391 -0.000123264)
(0.00127154 -0.000694212 -0.000123263)
(0.0013272 -0.000580747 -0.000123263)
(0.00137277 -0.000462863 -0.000123263)
(0.00140788 -0.000341457 -0.000123263)
(0.00143228 -0.000217453 -0.000123264)
(0.00144579 -9.17946e-05 -0.000123264)
(0.00144828 3.45619e-05 -0.000123265)
(0.00143976 0.000160656 -0.000123265)
(0.00142028 0.000285528 -0.000123263)
(0.00138999 0.000408229 -0.000123262)
(0.00134913 0.000527823 -0.000123262)
(0.00129799 0.000643399 -0.000123262)
(0.00123697 0.000754078 -0.000123263)
(0.00116654 0.000859016 -0.000123263)
(0.00108724 0.000957416 -0.000123263)
(0.000999655 0.00104853 -0.000123263)
(0.000904464 0.00113167 -0.000123263)
(0.000802391 0.00120619 -0.000123264)
(0.000694212 0.00127154 -0.000123263)
(0.000580747 0.0013272 -0.000123263)
(0.000462863 0.00137277 -0.000123263)
(0.000341457 0.00140788 -0.000123263)
(0.000217453 0.00143228 -0.000123264)
(9.17945e-05 0.00144579 -0.000123264)
(-3.45619e-05 0.00144828 -0.000123265)
(-0.000160656 0.00143976 -0.000123265)
(-0.000285528 0.00142028 -0.000123263)
(-0.000408229 0.00138999 -0.000123262)
(-0.000527823 0.00134913 -0.000123262)
(-0.000643399 0.00129799 -0.000123262)
(-0.000754078 0.00123697 -0.000123263)
(-0.000859016 0.00116654 -0.000123263)
(-0.000957416 0.00108724 -0.000123263)
(-0.00104853 0.000999655 -0.000123263)
(-0.00113167 0.000904464 -0.000123263)
(-0.00167683 0.000790566 -0.000625223)
(-0.00173935 0.000641412 -0.000625223)
(-0.00178863 0.000487377 -0.000625224)
(-0.00182431 0.000329632 -0.000625224)
(-0.00184609 0.000169378 -0.000625224)
(-0.00185383 7.83555e-06 -0.000625221)
(-0.00184746 -0.000153765 -0.000625217)
(-0.00182703 -0.000314196 -0.000625217)
(-0.00179269 -0.000472236 -0.000625216)
(-0.00174472 -0.000626682 -0.000625217)
(-0.00168346 -0.000776358 -0.000625216)
(-0.00160938 -0.000920125 -0.000625219)
(-0.00152307 -0.00105689 -0.000625219)
(-0.00142516 -0.00118562 -0.000625219)
(-0.0013164 -0.00130531 -0.000625219)
(-0.00119762 -0.00141508 -0.000625219)
(-0.00106973 -0.00151407 -0.000625222)
(-0.000933703 -0.00160155 -0.000625224)
(-0.000790566 -0.00167683 -0.000625223)
(-0.000641412 -0.00173935 -0.000625223)
(-0.000487377 -0.00178863 -0.000625224)
(-0.000329632 -0.00182431 -0.000625224)
(-0.000169378 -0.00184609 -0.000625224)
(-7.83547e-06 -0.00185383 -0.000625221)
(0.000153765 -0.00184746 -0.000625217)
(0.000314196 -0.00182703 -0.000625217)
(0.000472236 -0.00179269 -0.000625216)
(0.000626682 -0.00174472 -0.000625217)
(0.000776358 -0.00168346 -0.000625216)
(0.000920125 -0.00160938 -0.000625219)
(0.00105689 -0.00152307 -0.000625219)
(0.00118562 -0.00142516 -0.000625219)
(0.00130531 -0.0013164 -0.000625219)
(0.00141508 -0.00119762 -0.000625219)
(0.00151407 -0.00106973 -0.000625222)
(0.00160155 -0.000933703 -0.000625224)
(0.00167683 -0.000790566 -0.000625223)
(0.00173935 -0.000641412 -0.000625223)
(0.00178863 -0.000487377 -0.000625224)
(0.00182431 -0.000329632 -0.000625224)
(0.00184609 -0.000169378 -0.000625224)
(0.00185383 -7.83546e-06 -0.000625221)
(0.00184746 0.000153765 -0.000625217)
(0.00182703 0.000314196 -0.000625217)
(0.00179269 0.000472236 -0.000625216)
(0.00174472 0.000626682 -0.000625217)
(0.00168346 0.000776358 -0.000625216)
(0.00160938 0.000920125 -0.000625219)
(0.00152307 0.00105689 -0.000625219)
(0.00142516 0.00118562 -0.000625219)
(0.0013164 0.00130531 -0.000625219)
(0.00119762 0.00141508 -0.000625219)
(0.00106973 0.00151407 -0.000625222)
(0.000933703 0.00160155 -0.000625224)
(0.000790566 0.00167683 -0.000625223)
(0.000641412 0.00173935 -0.000625223)
(0.000487377 0.00178863 -0.000625224)
(0.000329632 0.00182431 -0.000625224)
(0.000169378 0.00184609 -0.000625224)
(7.83544e-06 0.00185383 -0.000625221)
(-0.000153765 0.00184746 -0.000625217)
(-0.000314196 0.00182703 -0.000625217)
(-0.000472236 0.00179269 -0.000625216)
(-0.000626682 0.00174472 -0.000625217)
(-0.000776358 0.00168346 -0.000625216)
(-0.000920125 0.00160938 -0.000625219)
(-0.00105689 0.00152307 -0.000625219)
(-0.00118562 0.00142516 -0.000625219)
(-0.00130531 0.0013164 -0.000625219)
(-0.00141508 0.00119762 -0.000625219)
(-0.00151407 0.00106973 -0.000625222)
(-0.00160155 0.000933703 -0.000625224)
(-0.00176004 0.00105732 -0.000433909)
(-0.00184549 0.000899895 -0.000433909)
(-0.0019169 0.000735626 -0.00043391)
(-0.00197372 0.000565758 -0.00043391)
(-0.00201551 0.000391584 -0.00043391)
(-0.00204197 0.00021443 -0.000433909)
(-0.00205289 3.56455e-05 -0.000433907)
(-0.00204819 -0.000143411 -0.000433907)
(-0.00202789 -0.000321376 -0.000433906)
(-0.00199217 -0.000496896 -0.000433906)
(-0.00194128 -0.000668633 -0.000433907)
(-0.00187562 -0.000835283 -0.000433907)
(-0.00179568 -0.000995577 -0.000433907)
(-0.00170208 -0.00114829 -0.000433907)
(-0.00159552 -0.00129227 -0.000433907)
(-0.00147682 -0.00142641 -0.000433908)
(-0.00134688 -0.0015497 -0.000433909)
(-0.00120669 -0.00166119 -0.000433909)
(-0.00105732 -0.00176004 -0.000433909)
(-0.000899895 -0.00184549 -0.000433909)
(-0.000735625 -0.0019169 -0.00043391)
(-0.000565758 -0.00197372 -0.00043391)
(-0.000391584 -0.00201551 -0.00043391)
(-0.00021443 -0.00204197 -0.000433909)
(-3.56455e-05 -0.00205289 -0.000433907)
(0.000143411 -0.00204819 -0.000433907)
(0.000321376 -0.00202789 -0.000433906)
(0.000496896 -0.00199217 -0.000433906)
(0.000668633 -0.00194128 -0.000433907)
(0.000835283 -0.00187562 -0.000433907)
(0.000995577 -0.00179568 -0.000433907)
(0.00114829 -0.00170208 -0.000433906)
(0.00129227 -0.00159552 -0.000433907)
(0.00142641 -0.00147682 -0.000433908)
(0.0015497 -0.00134688 -0.000433909)
(0.00166119 -0.00120669 -0.000433909)
(0.00176004 -0.00105732 -0.000433909)
(0.00184549 -0.000899895 -0.000433909)
(0.0019169 -0.000735625 -0.00043391)
(0.00197372 -0.000565758 -0.00043391)
(0.00201551 -0.000391584 -0.00043391)
(0.00204197 -0.00021443 -0.000433909)
(0.00205289 -3.56455e-05 -0.000433907)
(0.00204819 0.000143411 -0.000433907)
(0.00202789 0.000321376 -0.000433906)
(0.00199217 0.000496896 -0.000433906)
(0.00194128 0.000668633 -0.000433907)
(0.00187562 0.000835283 -0.000433907)
(0.00179568 0.000995577 -0.000433907)
(0.00170208 0.00114829 -0.000433906)
(0.00159552 0.00129227 -0.000433907)
(0.00147682 0.00142641 -0.000433908)
(0.00134688 0.0015497 -0.000433909)
(0.00120669 0.00166119 -0.000433909)
(0.00105732 0.00176004 -0.000433909)
(0.000899895 0.00184549 -0.000433909)
(0.000735625 0.0019169 -0.00043391)
(0.000565758 0.00197372 -0.00043391)
(0.000391584 0.00201551 -0.00043391)
(0.00021443 0.00204197 -0.000433909)
(3.56455e-05 0.00205289 -0.000433907)
(-0.000143411 0.00204819 -0.000433907)
(-0.000321376 0.00202789 -0.000433906)
(-0.000496896 0.00199217 -0.000433906)
(-0.000668633 0.00194128 -0.000433907)
(-0.000835283 0.00187562 -0.000433907)
(-0.000995577 0.00179568 -0.000433907)
(-0.00114829 0.00170208 -0.000433907)
(-0.00129227 0.00159552 -0.000433907)
(-0.00142641 0.00147682 -0.000433908)
(-0.0015497 0.00134688 -0.000433909)
(-0.00166119 0.00120669 -0.000433909)
(-0.00188971 0.00138982 -0.000257263)
(-0.00200365 0.00121983 -0.000257263)
(-0.00210234 0.00104056 -0.000257263)
(-0.00218503 0.000853367 -0.000257263)
(-0.00225109 0.000659682 -0.000257264)
(-0.00230002 0.000460977 -0.000257263)
(-0.00233144 0.000258764 -0.000257264)
(-0.00234513 5.45812e-05 -0.000257264)
(-0.00234096 -0.000150018 -0.000257264)
(-0.00231898 -0.000353475 -0.000257263)
(-0.00227935 -0.000554243 -0.000257263)
(-0.00222237 -0.000750793 -0.000257263)
(-0.00214847 -0.000941628 -0.000257263)
(-0.00205823 -0.0011253 -0.000257263)
(-0.00195232 -0.0013004 -0.000257263)
(-0.00183155 -0.00146561 -0.000257263)
(-0.00169685 -0.00161966 -0.000257263)
(-0.00154923 -0.00176139 -0.000257263)
(-0.00138982 -0.00188971 -0.000257263)
(-0.00121983 -0.00200365 -0.000257263)
(-0.00104056 -0.00210234 -0.000257263)
(-0.000853367 -0.00218503 -0.000257263)
(-0.000659682 -0.00225109 -0.000257264)
(-0.000460977 -0.00230002 -0.000257263)
(-0.000258764 -0.00233144 -0.000257264)
(-5.45813e-05 -0.00234513 -0.000257264)
(0.000150018 -0.00234096 -0.000257264)
(0.000353475 -0.00231898 -0.000257263)
(0.000554243 -0.00227935 -0.000257263)
(0.000750793 -0.00222237 -0.000257263)
(0.000941628 -0.00214847 -0.000257263)
(0.0011253 -0.00205823 -0.000257263)
(0.0013004 -0.00195232 -0.000257263)
(0.00146561 -0.00183156 -0.000257263)
(0.00161966 -0.00169685 -0.000257263)
(0.00176139 -0.00154923 -0.000257263)
(0.00188971 -0.00138982 -0.000257263)
(0.00200365 -0.00121983 -0.000257263)
(0.00210234 -0.00104056 -0.000257263)
(0.00218503 -0.000853367 -0.000257263)
(0.00225109 -0.000659682 -0.000257264)
(0.00230002 -0.000460977 -0.000257263)
(0.00233144 -0.000258764 -0.000257264)
(0.00234513 -5.45813e-05 -0.000257264)
(0.00234096 0.000150018 -0.000257264)
(0.00231898 0.000353475 -0.000257263)
(0.00227935 0.000554243 -0.000257263)
(0.00222237 0.000750793 -0.000257263)
(0.00214847 0.000941628 -0.000257263)
(0.00205823 0.0011253 -0.000257263)
(0.00195232 0.0013004 -0.000257263)
(0.00183156 0.00146561 -0.000257263)
(0.00169685 0.00161966 -0.000257263)
(0.00154923 0.00176139 -0.000257263)
(0.00138982 0.00188971 -0.000257263)
(0.00121983 0.00200365 -0.000257263)
(0.00104056 0.00210234 -0.000257263)
(0.000853367 0.00218503 -0.000257263)
(0.000659682 0.00225109 -0.000257264)
(0.000460977 0.00230002 -0.000257263)
(0.000258764 0.00233144 -0.000257264)
(5.45813e-05 0.00234513 -0.000257264)
(-0.000150018 0.00234096 -0.000257264)
(-0.000353475 0.00231898 -0.000257263)
(-0.000554243 0.00227935 -0.000257263)
(-0.000750792 0.00222237 -0.000257263)
(-0.000941628 0.00214847 -0.000257263)
(-0.0011253 0.00205823 -0.000257263)
(-0.0013004 0.00195232 -0.000257263)
(-0.00146561 0.00183156 -0.000257263)
(-0.00161966 0.00169685 -0.000257263)
(-0.00176139 0.00154923 -0.000257263)
(-0.00192761 0.00129595 -0.000889265)
(-0.00203322 0.00112301 -0.000889267)
(-0.00212336 0.000941533 -0.000889269)
(-0.00219734 0.000752887 -0.000889269)
(-0.0022546 0.00055851 -0.000889268)
(-0.0022947 0.000359883 -0.000889267)
(-0.00231733 0.000158518 -0.000889264)
(-0.00232233 -4.40536e-05 -0.000889263)
(-0.00230965 -0.00024629 -0.000889263)
(-0.0022794 -0.000446652 -0.000889266)
(-0.00223179 -0.000643616 -0.000889264)
(-0.00216721 -0.000835679 -0.000889264)
(-0.00208613 -0.00102138 -0.000889263)
(-0.00198917 -0.00119931 -0.000889263)
(-0.00187707 -0.00136812 -0.000889263)
(-0.00175069 -0.00152651 -0.000889263)
(-0.00161098 -0.00167328 -0.000889265)
(-0.00145902 -0.00180732 -0.000889265)
(-0.00129595 -0.00192761 -0.000889265)
(-0.00112301 -0.00203322 -0.000889267)
(-0.000941533 -0.00212336 -0.000889269)
(-0.000752887 -0.00219734 -0.000889269)
(-0.00055851 -0.0022546 -0.000889268)
(-0.000359883 -0.0022947 -0.000889267)
(-0.000158518 -0.00231733 -0.000889263)
(4.40536e-05 -0.00232233 -0.000889263)
(0.00024629 -0.00230965 -0.000889263)
(0.000446652 -0.0022794 -0.000889266)
(0.000643616 -0.00223179 -0.000889264)
(0.000835679 -0.00216721 -0.000889264)
(0.00102138 -0.00208613 -0.000889263)
(0.00119931 -0.00198917 -0.000889263)
(0.00136812 -0.00187707 -0.000889263)
(0.00152651 -0.00175069 -0.000889263)
(0.00167328 -0.00161098 -0.000889265)
(0.00180732 -0.00145902 -0.000889265)
(0.00192761 -0.00129595 -0.000889265)
(0.00203322 -0.00112301 -0.000889267)
(0.00212336 -0.000941533 -0.000889269)
(0.00219734 -0.000752887 -0.000889269)
(0.0022546 -0.00055851 -0.000889268)
(0.0022947 -0.000359883 -0.000889267)
(0.00231733 -0.000158518 -0.000889263)
(0.00232233 4.40536e-05 -0.000889263)
(0.00230965 0.00024629 -0.000889263)
(0.0022794 0.000446652 -0.000889266)
(0.00223179 0.000643616 -0.000889264)
(0.00216721 0.000835679 -0.000889264)
(0.00208613 0.00102138 -0.000889263)
(0.00198917 0.00119931 -0.000889263)
(0.00187707 0.00136812 -0.000889263)
(0.00175069 0.00152651 -0.000889263)
(0.00161098 0.00167328 -0.000889265)
(0.00145902 0.00180732 -0.000889265)
(0.00129595 0.00192761 -0.000889265)
(0.00112301 0.00203322 -0.000889267)
(0.000941533 0.00212336 -0.000889269)
(0.000752887 0.00219734 -0.000889269)
(0.00055851 0.0022546 -0.000889268)
(0.000359883 0.0022947 -0.000889267)
(0.000158518 0.00231733 -0.000889264)
(-4.40536e-05 0.00232233 -0.000889263)
(-0.00024629 0.00230965 -0.000889263)
(-0.000446652 0.0022794 -0.000889266)
(-0.000643616 0.00223179 -0.000889264)
(-0.000835679 0.00216721 -0.000889264)
(-0.00102138 0.00208613 -0.000889263)
(-0.00119931 0.00198917 -0.000889263)
(-0.00136812 0.00187707 -0.000889263)
(-0.00152651 0.00175069 -0.000889263)
(-0.00167328 0.00161098 -0.000889265)
(-0.00180732 0.00145902 -0.000889265)
(-0.0020774 0.00164969 -0.000667586)
(-0.00221327 0.00146235 -0.000667587)
(-0.0023323 0.00126389 -0.000667588)
(-0.00243358 0.00105581 -0.000667589)
(-0.00251634 0.000839687 -0.000667589)
(-0.00257995 0.000617179 -0.000667587)
(-0.00262392 0.000389972 -0.000667585)
(-0.00264792 0.000159798 -0.000667585)
(-0.00265178 -7.15906e-05 -0.000667585)
(-0.00263545 -0.000302436 -0.000667585)
(-0.00259906 -0.000530979 -0.000667586)
(-0.00254289 -0.000755482 -0.000667586)
(-0.00246737 -0.000974235 -0.000667585)
(-0.00237307 -0.00118557 -0.000667585)
(-0.00226071 -0.00138789 -0.000667585)
(-0.00213115 -0.00157964 -0.000667586)
(-0.00198536 -0.00175937 -0.000667586)
(-0.00182447 -0.00192571 -0.000667586)
(-0.00164969 -0.0020774 -0.000667586)
(-0.00146235 -0.00221327 -0.000667587)
(-0.00126389 -0.0023323 -0.000667588)
(-0.00105581 -0.00243358 -0.000667589)
(-0.000839687 -0.00251634 -0.000667588)
(-0.000617179 -0.00257995 -0.000667587)
(-0.000389972 -0.00262392 -0.000667585)
(-0.000159798 -0.00264792 -0.000667585)
(7.15906e-05 -0.00265178 -0.000667585)
(0.000302436 -0.00263545 -0.000667585)