/*--------------------------------*- C++ -*----------------------------------*\
| =========                 |                                                 |
| \\      /  F ield         | OpenFOAM: The Open Source CFD Toolbox           |
|  \\    /   O peration     | Version:  2312                                  |
|   \\  /    A nd           | Website:  www.openfoam.com                      |
|    \\/     M anipulation  |                                                 |
\*---------------------------------------------------------------------------*/
FoamFile
{
    version     2.0;
    format      ascii;
    arch        "LSB;label=32;scalar=64";
    class       volVectorField;
    location    "0.7";
    object      D_0_0;
}
// * * * * * * * * * * * * * * * * * * * * * * * * * * * * * * * * * * * * * //

dimensions      [0 1 0 0 0 0 0];

internalField   nonuniform List<vector> 
3240
(
(-0.000464361 0.00015839 -0.000121028)
(-0.000476398 0.000117317 -0.000121027)
(-0.000484809 7.53482e-05 -0.00012103)
(-0.00048953 3.28056e-05 -0.00012103)
(-0.000490529 -9.98536e-06 -0.00012103)
(-0.000487792 -5.26998e-05 -0.000121029)
(-0.000481343 -9.50115e-05 -0.000121026)
(-0.00047123 -0.0001366 -0.000121026)
(-0.000457532 -0.000177149 -0.000121027)
(-0.000440351 -0.000216351 -0.000121029)
(-0.000419819 -0.000253907 -0.00012103)
(-0.000396091 -0.000289533 -0.00012103)
(-0.00036935 -0.000322954 -0.000121029)
(-0.000339798 -0.000353917 -0.000121028)
(-0.000307659 -0.000382182 -0.000121026)
(-0.000273179 -0.000407542 -0.000121028)
(-0.000236618 -0.000429801 -0.00012103)
(-0.000198259 -0.000448789 -0.000121028)
(-0.00015839 -0.000464361 -0.000121028)
(-0.000117317 -0.000476398 -0.000121027)
(-7.53482e-05 -0.000484809 -0.00012103)
(-3.28056e-05 -0.00048953 -0.00012103)
(9.98535e-06 -0.000490529 -0.00012103)
(5.26997e-05 -0.000487792 -0.000121029)
(9.50114e-05 -0.000481343 -0.000121026)
(0.0001366 -0.00047123 -0.000121026)
(0.000177149 -0.000457532 -0.000121027)
(0.000216351 -0.000440351 -0.000121029)
(0.000253907 -0.000419819 -0.00012103)
(0.000289533 -0.000396091 -0.00012103)
(0.000322954 -0.00036935 -0.000121029)
(0.000353917 -0.000339798 -0.000121028)
(0.000382182 -0.000307659 -0.000121026)
(0.000407542 -0.000273179 -0.000121028)
(0.000429801 -0.000236618 -0.00012103)
(0.000448789 -0.000198259 -0.000121028)
(0.000464361 -0.00015839 -0.000121028)
(0.000476398 -0.000117317 -0.000121027)
(0.000484809 -7.53482e-05 -0.00012103)
(0.00048953 -3.28056e-05 -0.00012103)
(0.000490529 9.98536e-06 -0.00012103)
(0.000487792 5.26997e-05 -0.000121029)
(0.000481343 9.50114e-05 -0.000121026)
(0.00047123 0.0001366 -0.000121026)
(0.000457532 0.000177149 -0.000121027)
(0.000440351 0.000216351 -0.000121029)
(0.000419819 0.000253907 -0.00012103)
(0.000396091 0.000289533 -0.00012103)
(0.00036935 0.000322954 -0.000121029)
(0.000339798 0.000353917 -0.000121028)
(0.000307659 0.000382182 -0.000121026)
(0.000273179 0.000407542 -0.000121028)
(0.000236618 0.000429801 -0.00012103)
(0.000198259 0.000448789 -0.000121028)
(0.00015839 0.000464361 -0.000121028)
(0.000117317 0.000476398 -0.000121027)
(7.53482e-05 0.000484809 -0.00012103)
(3.28056e-05 0.00048953 -0.00012103)
(-9.98537e-06 0.000490529 -0.00012103)
(-5.26998e-05 0.000487792 -0.000121029)
(-9.50115e-05 0.000481343 -0.000121026)
(-0.0001366 0.00047123 -0.000121026)
(-0.000177149 0.000457532 -0.000121027)
(-0.000216351 0.000440351 -0.000121029)
(-0.000253907 0.000419819 -0.00012103)
(-0.000289533 0.000396091 -0.00012103)
(-0.000322954 0.00036935 -0.000121029)
(-0.000353917 0.000339798 -0.000121028)
(-0.000382182 0.000307659 -0.000121026)
(-0.000407542 0.000273179 -0.000121028)
(-0.000429801 0.000236618 -0.00012103)
(-0.000448789 0.000198259 -0.000121028)
(-0.000407922 0.000148217 -0.0001001)
(-0.000419287 0.0001121 -0.0001001)
(-0.000427462 7.51301e-05 -0.000100101)
(-0.000432383 3.75874e-05 -0.0001001)
(-0.000434014 -2.40778e-07 -0.0001001)
(-0.000432342 -3.80664e-05 -0.0001001)
(-0.000427378 -7.56024e-05 -0.0001001)
(-0.000419163 -0.000112562 -0.000100099)
(-0.000407758 -0.000148665 -0.000100099)
(-0.00039325 -0.000183637 -0.0001001)
(-0.000375749 -0.000217213 -0.0001001)
(-0.000355388 -0.000249136 -0.0001001)
(-0.000332321 -0.000279163 -0.0001001)
(-0.000306726 -0.000307064 -0.0001001)
(-0.000278796 -0.000332628 -0.0001001)
(-0.000248745 -0.000355661 -0.0001001)
(-0.0002168 -0.000375987 -0.000100101)
(-0.000183206 -0.000393451 -0.0001001)
(-0.000148217 -0.000407922 -0.0001001)
(-0.0001121 -0.000419287 -0.0001001)
(-7.51301e-05 -0.000427462 -0.000100101)
(-3.75874e-05 -0.000432383 -0.0001001)
(2.4076e-07 -0.000434014 -0.0001001)
(3.80664e-05 -0.000432342 -0.0001001)
(7.56024e-05 -0.000427378 -0.0001001)
(0.000112562 -0.000419163 -0.000100099)
(0.000148665 -0.000407758 -0.000100099)
(0.000183637 -0.00039325 -0.0001001)
(0.000217213 -0.000375749 -0.0001001)
(0.000249136 -0.000355388 -0.0001001)
(0.000279163 -0.000332321 -0.0001001)
(0.000307064 -0.000306726 -0.0001001)
(0.000332628 -0.000278796 -0.0001001)
(0.000355661 -0.000248745 -0.0001001)
(0.000375987 -0.0002168 -0.000100101)
(0.000393451 -0.000183206 -0.0001001)
(0.000407922 -0.000148217 -0.0001001)
(0.000419287 -0.0001121 -0.0001001)
(0.000427462 -7.51301e-05 -0.000100101)
(0.000432383 -3.75874e-05 -0.0001001)
(0.000434014 2.40767e-07 -0.0001001)
(0.000432342 3.80664e-05 -0.0001001)
(0.000427378 7.56024e-05 -0.0001001)
(0.000419163 0.000112562 -0.000100099)
(0.000407758 0.000148665 -0.000100099)
(0.00039325 0.000183637 -0.0001001)
(0.000375749 0.000217213 -0.0001001)
(0.000355388 0.000249136 -0.0001001)
(0.000332321 0.000279163 -0.0001001)
(0.000306726 0.000307064 -0.0001001)
(0.000278796 0.000332628 -0.0001001)
(0.000248745 0.000355661 -0.0001001)
(0.0002168 0.000375987 -0.000100101)
(0.000183206 0.000393451 -0.0001001)
(0.000148217 0.000407922 -0.0001001)
(0.0001121 0.000419287 -0.0001001)
(7.51301e-05 0.000427462 -0.000100101)
(3.75874e-05 0.000432383 -0.0001001)
(-2.40776e-07 0.000434014 -0.0001001)
(-3.80664e-05 0.000432342 -0.0001001)
(-7.56024e-05 0.000427378 -0.0001001)
(-0.000112562 0.000419163 -0.000100099)
(-0.000148665 0.000407758 -0.000100099)
(-0.000183637 0.00039325 -0.0001001)
(-0.000217213 0.000375749 -0.0001001)
(-0.000249136 0.000355388 -0.0001001)
(-0.000279163 0.000332321 -0.0001001)
(-0.000307064 0.000306726 -0.0001001)
(-0.000332628 0.000278796 -0.0001001)
(-0.000355661 0.000248745 -0.0001001)
(-0.000375987 0.0002168 -0.000100101)
(-0.000393451 0.000183206 -0.0001001)
(-0.000359919 0.000257953 -5.91716e-05)
(-0.000381031 0.000225603 -5.91715e-05)
(-0.000399244 0.000191534 -5.9171e-05)
(-0.000414418 0.000156008 -5.91711e-05)
(-0.000426439 0.000119296 -5.91717e-05)
(-0.000435213 8.1676e-05 -5.91719e-05)
(-0.000440674 4.34335e-05 -5.91718e-05)
(-0.000442783 4.86188e-06 -5.91724e-05)
(-0.000441524 -3.37466e-05 -5.91722e-05)
(-0.000436903 -7.20997e-05 -5.91725e-05)
(-0.000428956 -0.000109904 -5.91716e-05)
(-0.000417745 -0.000146873 -5.9171e-05)
(-0.000403354 -0.000182724 -5.91704e-05)
(-0.000385895 -0.000217183 -5.91711e-05)
(-0.000365496 -0.000249989 -5.9172e-05)
(-0.000342319 -0.000280892 -5.9172e-05)
(-0.000316533 -0.000309657 -5.91715e-05)
(-0.000288341 -0.000336067 -5.91714e-05)
(-0.000257953 -0.000359919 -5.91716e-05)
(-0.000225603 -0.000381031 -5.91715e-05)
(-0.000191534 -0.000399244 -5.9171e-05)
(-0.000156008 -0.000414418 -5.91711e-05)
(-0.000119296 -0.000426439 -5.91717e-05)
(-8.1676e-05 -0.000435213 -5.91719e-05)
(-4.34336e-05 -0.000440674 -5.91718e-05)
(-4.86192e-06 -0.000442783 -5.91724e-05)
(3.37466e-05 -0.000441524 -5.91722e-05)
(7.20996e-05 -0.000436903 -5.91725e-05)
(0.000109904 -0.000428956 -5.91716e-05)
(0.000146873 -0.000417745 -5.9171e-05)
(0.000182724 -0.000403354 -5.91704e-05)
(0.000217183 -0.000385895 -5.91711e-05)
(0.000249989 -0.000365496 -5.91719e-05)
(0.000280892 -0.000342319 -5.9172e-05)
(0.000309658 -0.000316533 -5.91715e-05)
(0.000336067 -0.000288341 -5.91714e-05)
(0.000359919 -0.000257953 -5.91716e-05)
(0.000381031 -0.000225603 -5.91714e-05)
(0.000399244 -0.000191534 -5.9171e-05)
(0.000414418 -0.000156008 -5.91711e-05)
(0.000426439 -0.000119296 -5.91717e-05)
(0.000435213 -8.1676e-05 -5.9172e-05)
(0.000440674 -4.34336e-05 -5.91718e-05)
(0.000442783 -4.86192e-06 -5.91724e-05)
(0.000441524 3.37466e-05 -5.91722e-05)
(0.000436903 7.20996e-05 -5.91725e-05)
(0.000428956 0.000109904 -5.91716e-05)
(0.000417745 0.000146873 -5.9171e-05)
(0.000403354 0.000182724 -5.91704e-05)
(0.000385895 0.000217183 -5.91711e-05)
(0.000365496 0.000249989 -5.91719e-05)
(0.000342319 0.000280892 -5.9172e-05)
(0.000316533 0.000309658 -5.91715e-05)
(0.000288341 0.000336067 -5.91714e-05)
(0.000257953 0.000359919 -5.91716e-05)
(0.000225603 0.000381031 -5.91714e-05)
(0.000191534 0.000399244 -5.9171e-05)
(0.000156008 0.000414418 -5.91711e-05)
(0.000119296 0.000426439 -5.91717e-05)
(8.1676e-05 0.000435213 -5.9172e-05)
(4.34336e-05 0.000440674 -5.91719e-05)
(4.86192e-06 0.000442783 -5.91724e-05)
(-3.37466e-05 0.000441524 -5.91723e-05)
(-7.20996e-05 0.000436903 -5.91726e-05)
(-0.000109904 0.000428956 -5.91717e-05)
(-0.000146873 0.000417745 -5.9171e-05)
(-0.000182724 0.000403354 -5.91704e-05)
(-0.000217183 0.000385895 -5.91711e-05)
(-0.000249989 0.000365496 -5.9172e-05)
(-0.000280892 0.000342319 -5.9172e-05)
(-0.000309658 0.000316533 -5.91715e-05)
(-0.000336067 0.000288341 -5.91714e-05)
(-0.00116261 0.000441186 -0.000371924)
(-0.00119664 0.000338179 -0.000371923)
(-0.00122155 0.000232598 -0.000371926)
(-0.00123718 0.000125245 -0.000371928)
(-0.00124339 1.69392e-05 -0.000371928)
(-0.00124014 -9.14937e-05 -0.000371925)
(-0.00122744 -0.000199229 -0.00037192)
(-0.00120541 -0.000305447 -0.000371917)
(-0.0011742 -0.00040934 -0.000371917)
(-0.00113406 -0.000510119 -0.000371919)
(-0.00108528 -0.000607017 -0.000371923)
(-0.00102824 -0.000699298 -0.000371926)
(-0.000963383 -0.000786258 -0.000371925)
(-0.000891191 -0.000867231 -0.000371923)
(-0.000812217 -0.000941601 -0.000371922)
(-0.000727059 -0.0010088 -0.000371922)
(-0.000636368 -0.00106833 -0.000371926)
(-0.000540835 -0.00111974 -0.000371925)
(-0.000441186 -0.00116261 -0.000371924)
(-0.000338179 -0.00119664 -0.000371923)
(-0.000232598 -0.00122155 -0.000371926)
(-0.000125245 -0.00123718 -0.000371928)
(-1.69392e-05 -0.00124339 -0.000371928)
(9.14937e-05 -0.00124014 -0.000371925)
(0.000199229 -0.00122744 -0.00037192)
(0.000305447 -0.00120541 -0.000371917)
(0.00040934 -0.0011742 -0.000371917)
(0.000510119 -0.00113406 -0.000371919)
(0.000607017 -0.00108528 -0.000371923)
(0.000699298 -0.00102824 -0.000371926)
(0.000786258 -0.000963383 -0.000371925)
(0.000867231 -0.000891191 -0.000371923)
(0.000941601 -0.000812217 -0.000371922)
(0.0010088 -0.000727059 -0.000371922)
(0.00106833 -0.000636368 -0.000371926)
(0.00111974 -0.000540835 -0.000371925)
(0.00116261 -0.000441186 -0.000371924)
(0.00119664 -0.000338179 -0.000371923)
(0.00122155 -0.000232598 -0.000371926)
(0.00123718 -0.000125245 -0.000371928)
(0.00124339 -1.69392e-05 -0.000371928)
(0.00124014 9.14937e-05 -0.000371925)
(0.00122744 0.000199229 -0.00037192)
(0.00120541 0.000305447 -0.000371917)
(0.0011742 0.00040934 -0.000371917)
(0.00113406 0.000510119 -0.000371919)
(0.00108528 0.000607017 -0.000371923)
(0.00102824 0.000699298 -0.000371926)
(0.000963383 0.000786258 -0.000371925)
(0.000891191 0.000867231 -0.000371923)
(0.000812217 0.000941601 -0.000371922)
(0.000727059 0.0010088 -0.000371922)
(0.000636368 0.00106833 -0.000371926)
(0.000540835 0.00111974 -0.000371925)
(0.000441186 0.00116261 -0.000371924)
(0.000338179 0.00119664 -0.000371923)
(0.000232598 0.00122155 -0.000371926)
(0.000125245 0.00123718 -0.000371928)
(1.69392e-05 0.00124339 -0.000371928)
(-9.14937e-05 0.00124014 -0.000371925)
(-0.000199229 0.00122744 -0.00037192)
(-0.000305447 0.00120541 -0.000371918)
(-0.00040934 0.0011742 -0.000371917)
(-0.000510119 0.00113406 -0.000371919)
(-0.000607017 0.00108528 -0.000371923)
(-0.000699298 0.00102824 -0.000371926)
(-0.000786258 0.000963383 -0.000371925)
(-0.000867231 0.000891191 -0.000371923)
(-0.000941601 0.000812217 -0.000371922)
(-0.0010088 0.000727059 -0.000371922)
(-0.00106833 0.000636368 -0.000371926)
(-0.00111974 0.000540835 -0.000371926)
(-0.00116255 0.000551813 -0.000259117)
(-0.00120622 0.00044839 -0.000259116)
(-0.00124071 0.000341554 -0.000259117)
(-0.00126575 0.000232119 -0.000259118)
(-0.00128117 0.000120917 -0.000259117)
(-0.00128683 8.79619e-06 -0.000259117)
(-0.0012827 -0.000103391 -0.000259115)
(-0.00126881 -0.00021479 -0.000259114)
(-0.00124526 -0.000324556 -0.000259114)
(-0.00121224 -0.000431852 -0.000259113)
(-0.00116999 -0.000535863 -0.000259114)
(-0.00111883 -0.000635796 -0.000259115)
(-0.00105916 -0.000730891 -0.000259116)
(-0.000991428 -0.000820421 -0.000259116)
(-0.00091615 -0.000903706 -0.000259116)
(-0.0008339 -0.000980113 -0.000259116)
(-0.000745304 -0.00104906 -0.000259117)
(-0.000651035 -0.00111003 -0.000259117)
(-0.000551813 -0.00116255 -0.000259117)
(-0.00044839 -0.00120622 -0.000259116)
(-0.000341554 -0.00124071 -0.000259117)
(-0.000232119 -0.00126575 -0.000259118)
(-0.000120917 -0.00128117 -0.000259117)
(-8.79625e-06 -0.00128683 -0.000259117)
(0.00010339 -0.0012827 -0.000259115)
(0.00021479 -0.00126881 -0.000259114)
(0.000324555 -0.00124526 -0.000259114)
(0.000431852 -0.00121224 -0.000259113)
(0.000535863 -0.00116999 -0.000259114)
(0.000635796 -0.00111883 -0.000259115)
(0.000730891 -0.00105916 -0.000259116)
(0.000820421 -0.000991428 -0.000259115)
(0.000903706 -0.00091615 -0.000259116)
(0.000980113 -0.0008339 -0.000259116)
(0.00104906 -0.000745304 -0.000259117)
(0.00111003 -0.000651035 -0.000259116)
(0.00116255 -0.000551813 -0.000259117)
(0.00120622 -0.00044839 -0.000259116)
(0.00124071 -0.000341554 -0.000259117)
(0.00126575 -0.000232119 -0.000259118)
(0.00128117 -0.000120917 -0.000259117)
(0.00128683 -8.79623e-06 -0.000259117)
(0.0012827 0.00010339 -0.000259115)
(0.00126881 0.00021479 -0.000259115)
(0.00124526 0.000324556 -0.000259114)
(0.00121224 0.000431852 -0.000259113)
(0.00116999 0.000535863 -0.000259114)
(0.00111883 0.000635796 -0.000259115)
(0.00105916 0.000730891 -0.000259116)
(0.000991428 0.000820421 -0.000259115)
(0.00091615 0.000903706 -0.000259116)
(0.0008339 0.000980113 -0.000259116)
(0.000745304 0.00104906 -0.000259117)
(0.000651035 0.00111003 -0.000259116)
(0.000551813 0.00116255 -0.000259117)
(0.00044839 0.00120622 -0.000259116)
(0.000341554 0.00124071 -0.000259117)
(0.000232119 0.00126575 -0.000259118)
(0.000120917 0.00128117 -0.000259117)
(8.79619e-06 0.00128683 -0.000259117)
(-0.000103391 0.0012827 -0.000259115)
(-0.00021479 0.00126881 -0.000259115)
(-0.000324556 0.00124526 -0.000259114)
(-0.000431852 0.00121224 -0.000259113)
(-0.000535863 0.00116999 -0.000259114)
(-0.000635796 0.00111883 -0.000259115)
(-0.000730891 0.00105916 -0.000259116)
(-0.000820421 0.000991428 -0.000259116)
(-0.000903706 0.00091615 -0.000259116)
(-0.000980113 0.0008339 -0.000259116)
(-0.00104906 0.000745304 -0.000259117)
(-0.00111003 0.000651035 -0.000259117)
(-0.00118973 0.000806493 -0.00012255)
(-0.0012555 0.000699732 -0.000122549)
(-0.0013117 0.000587645 -0.000122549)
(-0.00135793 0.000471085 -0.000122549)
(-0.00139382 0.00035094 -0.000122549)
(-0.0014191 0.000228126 -0.000122549)
(-0.00143358 0.000103576 -0.00012255)
(-0.00143715 -2.1762e-05 -0.000122551)
(-0.00142979 -0.000146934 -0.00012255)
(-0.00141154 -0.00027099 -0.000122549)
(-0.00138256 -0.000392985 -0.000122548)
(-0.00134305 -0.000511989 -0.000122548)
(-0.00129331 -0.000627095 -0.000122548)
(-0.00123374 -0.000737428 -0.000122549)
(-0.00116477 -0.000842147 -0.000122549)
(-0.00108694 -0.000940457 -0.000122549)
(-0.00100084 -0.00103161 -0.000122549)
(-0.000907115 -0.00111492 -0.000122549)
(-0.000806493 -0.00118973 -0.00012255)
(-0.000699732 -0.0012555 -0.000122549)
(-0.000587645 -0.0013117 -0.000122549)
(-0.000471085 -0.00135793 -0.000122549)
(-0.00035094 -0.00139382 -0.000122549)
(-0.000228126 -0.0014191 -0.00012255)
(-0.000103576 -0.00143358 -0.00012255)
(2.17619e-05 -0.00143715 -0.000122551)
(0.000146934 -0.00142979 -0.000122551)
(0.00027099 -0.00141154 -0.000122549)
(0.000392985 -0.00138256 -0.000122548)
(0.000511989 -0.00134305 -0.000122548)
(0.000627095 -0.00129331 -0.000122548)
(0.000737428 -0.00123374 -0.000122549)
(0.000842147 -0.00116477 -0.000122549)
(0.000940457 -0.00108694 -0.000122549)
(0.00103161 -0.00100084 -0.000122549)
(0.00111492 -0.000907115 -0.000122549)
(0.00118973 -0.000806492 -0.00012255)
(0.0012555 -0.000699732 -0.000122549)
(0.0013117 -0.000587645 -0.000122549)
(0.00135793 -0.000471085 -0.000122549)
(0.00139382 -0.00035094 -0.000122549)
(0.0014191 -0.000228126 -0.00012255)
(0.00143358 -0.000103576 -0.00012255)
(0.00143715 2.17619e-05 -0.000122551)
(0.00142979 0.000146934 -0.000122551)
(0.00141154 0.00027099 -0.000122549)
(0.00138256 0.000392985 -0.000122548)
(0.00134305 0.000511989 -0.000122548)
(0.00129331 0.000627095 -0.000122548)
(0.00123374 0.000737428 -0.000122549)
(0.00116477 0.000842147 -0.000122549)
(0.00108694 0.000940457 -0.000122549)
(0.00100084 0.00103161 -0.000122549)
(0.000907115 0.00111492 -0.000122549)
(0.000806492 0.00118973 -0.00012255)
(0.000699732 0.0012555 -0.000122549)
(0.000587645 0.0013117 -0.000122549)
(0.000471085 0.00135793 -0.000122549)
(0.00035094 0.00139382 -0.000122549)
(0.000228126 0.0014191 -0.00012255)
(0.000103576 0.00143358 -0.00012255)
(-2.17619e-05 0.00143715 -0.000122551)
(-0.000146934 0.00142979 -0.000122551)
(-0.00027099 0.00141154 -0.000122549)
(-0.000392985 0.00138256 -0.000122548)
(-0.000511989 0.00134305 -0.000122548)
(-0.000627095 0.00129331 -0.000122548)
(-0.000737428 0.00123374 -0.000122549)
(-0.000842147 0.00116477 -0.000122549)
(-0.000940457 0.00108694 -0.000122549)
(-0.00103161 0.00100084 -0.000122549)
(-0.00111492 0.000907115 -0.000122549)
(-0.00165857 0.000795488 -0.000626543)
(-0.00172159 0.000647907 -0.000626543)
(-0.0017715 0.000495395 -0.000626544)
(-0.00180794 0.000339113 -0.000626544)
(-0.00183062 0.000180249 -0.000626544)
(-0.00183936 2.00138e-05 -0.000626541)
(-0.00183411 -0.000140372 -0.000626537)
(-0.00181489 -0.00029969 -0.000626537)
(-0.00178187 -0.000456728 -0.000626536)
(-0.00173528 -0.000610289 -0.000626537)
(-0.00167549 -0.000759205 -0.000626536)
(-0.00160294 -0.000902343 -0.000626539)
(-0.0015182 -0.00103862 -0.000626539)
(-0.0014219 -0.00116699 -0.000626539)
(-0.00131478 -0.00128647 -0.000626539)
(-0.00119765 -0.00139616 -0.000626539)
(-0.00107141 -0.00149523 -0.000626542)
(-0.000937014 -0.00158293 -0.000626544)
(-0.000795488 -0.00165857 -0.000626543)
(-0.000647907 -0.00172159 -0.000626543)
(-0.000495395 -0.0017715 -0.000626544)
(-0.000339112 -0.00180794 -0.000626544)
(-0.000180249 -0.00183062 -0.000626544)
(-2.00137e-05 -0.00183936 -0.000626541)
(0.000140372 -0.00183411 -0.000626537)
(0.00029969 -0.00181489 -0.000626537)
(0.000456728 -0.00178187 -0.000626536)
(0.000610289 -0.00173528 -0.000626537)
(0.000759205 -0.00167549 -0.000626536)
(0.000902343 -0.00160294 -0.000626539)
(0.00103862 -0.0015182 -0.000626539)
(0.00116699 -0.0014219 -0.000626539)
(0.00128647 -0.00131478 -0.000626539)
(0.00139616 -0.00119765 -0.000626539)
(0.00149523 -0.00107141 -0.000626542)
(0.00158293 -0.000937014 -0.000626544)
(0.00165857 -0.000795488 -0.000626543)
(0.00172159 -0.000647907 -0.000626543)
(0.0017715 -0.000495394 -0.000626544)
(0.00180794 -0.000339112 -0.000626544)
(0.00183062 -0.000180249 -0.000626544)
(0.00183936 -2.00137e-05 -0.000626541)
(0.00183411 0.000140372 -0.000626537)
(0.00181489 0.00029969 -0.000626537)
(0.00178187 0.000456728 -0.000626536)
(0.00173528 0.000610289 -0.000626537)
(0.00167549 0.000759205 -0.000626536)
(0.00160294 0.000902343 -0.000626539)
(0.0015182 0.00103862 -0.000626539)
(0.0014219 0.00116699 -0.000626539)
(0.00131478 0.00128647 -0.000626539)
(0.00119765 0.00139616 -0.000626539)
(0.00107141 0.00149523 -0.000626542)
(0.000937014 0.00158293 -0.000626544)
(0.000795488 0.00165857 -0.000626543)
(0.000647907 0.00172159 -0.000626543)
(0.000495394 0.0017715 -0.000626544)
(0.000339112 0.00180794 -0.000626544)
(0.000180249 0.00183062 -0.000626544)
(2.00136e-05 0.00183936 -0.000626541)
(-0.000140372 0.00183411 -0.000626537)
(-0.00029969 0.00181489 -0.000626537)
(-0.000456728 0.00178187 -0.000626536)
(-0.000610289 0.00173528 -0.000626537)
(-0.000759205 0.00167549 -0.000626536)
(-0.000902343 0.00160294 -0.000626539)
(-0.00103862 0.0015182 -0.000626539)
(-0.00116699 0.0014219 -0.000626539)
(-0.00128647 0.00131478 -0.000626539)
(-0.00139616 0.00119765 -0.000626539)
(-0.00149523 0.00107141 -0.000626542)
(-0.00158293 0.000937014 -0.000626544)
(-0.00173939 0.00106238 -0.000434891)
(-0.00182537 0.000906743 -0.000434891)
(-0.00189745 0.000744201 -0.000434892)
(-0.00195509 0.000575996 -0.000434892)
(-0.00199785 0.000403406 -0.000434891)
(-0.00202541 0.000227747 -0.000434891)
(-0.00203755 5.03553e-05 -0.000434889)
(-0.00203419 -0.00012742 -0.000434889)
(-0.00201534 -0.000304226 -0.000434888)
(-0.00198116 -0.000478717 -0.000434888)
(-0.0019319 -0.000649564 -0.000434888)
(-0.00186793 -0.000815468 -0.000434889)
(-0.00178975 -0.000975167 -0.000434889)
(-0.00169795 -0.00112744 -0.000434888)
(-0.00159322 -0.00127114 -0.000434889)
(-0.00147637 -0.00140516 -0.00043489)
(-0.00134829 -0.00152849 -0.000434891)
(-0.00120994 -0.00164018 -0.000434891)
(-0.00106238 -0.00173939 -0.000434891)
(-0.000906743 -0.00182537 -0.000434891)
(-0.000744201 -0.00189745 -0.000434892)
(-0.000575996 -0.00195509 -0.000434892)
(-0.000403406 -0.00199785 -0.000434891)
(-0.000227747 -0.00202541 -0.000434891)
(-5.03553e-05 -0.00203755 -0.000434889)
(0.00012742 -0.00203419 -0.000434889)
(0.000304226 -0.00201534 -0.000434888)
(0.000478716 -0.00198116 -0.000434888)
(0.000649564 -0.0019319 -0.000434888)
(0.000815468 -0.00186793 -0.000434889)
(0.000975167 -0.00178975 -0.000434889)
(0.00112744 -0.00169795 -0.000434888)
(0.00127114 -0.00159322 -0.000434889)
(0.00140516 -0.00147637 -0.00043489)
(0.00152849 -0.00134829 -0.00043489)
(0.00164018 -0.00120994 -0.00043489)
(0.00173939 -0.00106238 -0.000434891)
(0.00182537 -0.000906743 -0.000434891)
(0.00189745 -0.000744201 -0.000434892)
(0.00195509 -0.000575996 -0.000434892)
(0.00199785 -0.000403406 -0.000434891)
(0.00202541 -0.000227747 -0.000434891)
(0.00203755 -5.03553e-05 -0.000434889)
(0.00203419 0.00012742 -0.000434889)
(0.00201534 0.000304226 -0.000434888)
(0.00198116 0.000478716 -0.000434888)
(0.0019319 0.000649564 -0.000434889)
(0.00186793 0.000815468 -0.000434889)
(0.00178975 0.000975167 -0.000434889)
(0.00169795 0.00112744 -0.000434888)
(0.00159322 0.00127114 -0.000434889)
(0.00147637 0.00140516 -0.00043489)
(0.00134829 0.00152849 -0.00043489)
(0.00120994 0.00164018 -0.00043489)
(0.00106238 0.00173939 -0.000434891)
(0.000906743 0.00182537 -0.000434891)
(0.000744201 0.00189745 -0.000434892)
(0.000575996 0.00195509 -0.000434892)
(0.000403406 0.00199785 -0.000434891)
(0.000227747 0.00202541 -0.000434891)
(5.03553e-05 0.00203755 -0.000434889)
(-0.00012742 0.00203419 -0.000434889)
(-0.000304226 0.00201534 -0.000434888)
(-0.000478716 0.00198116 -0.000434888)
(-0.000649564 0.0019319 -0.000434889)
(-0.000815468 0.00186793 -0.000434889)
(-0.000975167 0.00178975 -0.000434889)
(-0.00112744 0.00169795 -0.000434888)
(-0.00127114 0.00159322 -0.000434889)
(-0.00140516 0.00147637 -0.00043489)
(-0.00152849 0.00134829 -0.000434891)
(-0.00164018 0.00120994 -0.000434891)
(-0.00186654 0.00139343 -0.000257942)
(-0.00198089 0.00122545 -0.000257941)
(-0.00208015 0.00104814 -0.000257941)
(-0.00216359 0.000862853 -0.000257942)
(-0.00223056 0.000671 -0.000257942)
(-0.00228055 0.000474042 -0.000257942)
(-0.00231319 0.000273476 -0.000257942)
(-0.00232822 7.08282e-05 -0.000257942)
(-0.00232553 -0.000132359 -0.000257943)
(-0.00230515 -0.00033454 -0.000257942)
(-0.00226722 -0.000534174 -0.000257942)
(-0.00221204 -0.000729744 -0.000257941)
(-0.00214002 -0.000919759 -0.000257942)
(-0.00205171 -0.00110277 -0.000257942)
(-0.00194779 -0.0012774 -0.000257942)
(-0.00182905 -0.0014423 -0.000257942)
(-0.00169638 -0.00159622 -0.000257941)
(-0.00155081 -0.001738 -0.000257942)
(-0.00139343 -0.00186654 -0.000257942)
(-0.00122545 -0.00198089 -0.000257941)
(-0.00104814 -0.00208015 -0.000257941)
(-0.000862853 -0.00216359 -0.000257942)
(-0.000671 -0.00223056 -0.000257942)
(-0.000474042 -0.00228055 -0.000257942)
(-0.000273476 -0.00231319 -0.000257942)
(-7.08283e-05 -0.00232822 -0.000257942)
(0.000132359 -0.00232553 -0.000257943)
(0.00033454 -0.00230515 -0.000257942)
(0.000534174 -0.00226722 -0.000257942)
(0.000729744 -0.00221204 -0.000257941)
(0.000919759 -0.00214002 -0.000257942)
(0.00110277 -0.00205171 -0.000257942)
(0.0012774 -0.00194779 -0.000257942)
(0.0014423 -0.00182905 -0.000257942)
(0.00159622 -0.00169638 -0.000257941)
(0.001738 -0.00155081 -0.000257941)
(0.00186654 -0.00139343 -0.000257942)
(0.00198089 -0.00122545 -0.000257941)
(0.00208015 -0.00104814 -0.000257941)
(0.00216359 -0.000862853 -0.000257942)
(0.00223056 -0.000671 -0.000257942)
(0.00228055 -0.000474042 -0.000257942)
(0.00231319 -0.000273476 -0.000257942)
(0.00232822 -7.08282e-05 -0.000257942)
(0.00232553 0.000132359 -0.000257943)
(0.00230515 0.00033454 -0.000257942)
(0.00226722 0.000534174 -0.000257942)
(0.00221204 0.000729744 -0.000257941)
(0.00214002 0.000919759 -0.000257942)
(0.00205171 0.00110277 -0.000257942)
(0.00194779 0.0012774 -0.000257942)
(0.00182905 0.0014423 -0.000257942)
(0.00169638 0.00159622 -0.000257941)
(0.00155081 0.001738 -0.000257941)
(0.00139343 0.00186654 -0.000257942)
(0.00122545 0.00198089 -0.000257941)
(0.00104814 0.00208015 -0.000257941)
(0.000862853 0.00216359 -0.000257942)
(0.000671 0.00223056 -0.000257942)
(0.000474042 0.00228055 -0.000257942)
(0.000273476 0.00231319 -0.000257942)
(7.08282e-05 0.00232822 -0.000257942)
(-0.000132359 0.00232553 -0.000257943)
(-0.00033454 0.00230515 -0.000257942)
(-0.000534174 0.00226722 -0.000257942)
(-0.000729744 0.00221204 -0.000257942)
(-0.000919759 0.00214002 -0.000257942)
(-0.00110277 0.00205171 -0.000257942)
(-0.0012774 0.00194779 -0.000257942)
(-0.0014423 0.00182905 -0.000257942)
(-0.00159622 0.00169638 -0.000257941)
(-0.001738 0.00155081 -0.000257942)
(-0.00191017 0.00130155 -0.000890816)
(-0.00201634 0.00113011 -0.000890818)
(-0.00210716 0.000950078 -0.00089082)
(-0.00218195 0.000762811 -0.000890819)
(-0.00224013 0.000569737 -0.000890818)
(-0.00228126 0.000372328 -0.000890818)
(-0.00230503 0.000172087 -0.000890814)
(-0.00231126 -2.94644e-05 -0.000890813)
(-0.0022999 -0.000230791 -0.000890813)
(-0.00227103 -0.000430363 -0.000890816)
(-0.00222488 -0.000626659 -0.000890815)
(-0.0021618 -0.000818184 -0.000890815)
(-0.00208226 -0.00100348 -0.000890814)
(-0.00198688 -0.00118115 -0.000890813)
(-0.00187637 -0.00134982 -0.000890814)
(-0.00175159 -0.00150822 -0.000890814)
(-0.00161347 -0.00165514 -0.000890815)
(-0.00146308 -0.00178947 -0.000890816)
(-0.00130155 -0.00191017 -0.000890816)
(-0.00113011 -0.00201634 -0.000890818)
(-0.000950078 -0.00210716 -0.00089082)
(-0.000762811 -0.00218195 -0.000890819)
(-0.000569737 -0.00224013 -0.000890818)
(-0.000372328 -0.00228126 -0.000890817)
(-0.000172087 -0.00230503 -0.000890814)
(2.94644e-05 -0.00231126 -0.000890813)
(0.000230791 -0.0022999 -0.000890813)
(0.000430363 -0.00227103 -0.000890816)
(0.000626659 -0.00222488 -0.000890815)
(0.000818184 -0.0021618 -0.000890815)
(0.00100348 -0.00208226 -0.000890814)
(0.00118115 -0.00198688 -0.000890813)
(0.00134982 -0.00187637 -0.000890814)
(0.00150822 -0.00175159 -0.000890814)
(0.00165514 -0.00161347 -0.000890815)
(0.00178947 -0.00146308 -0.000890816)
(0.00191017 -0.00130155 -0.000890816)
(0.00201634 -0.00113011 -0.000890817)
(0.00210716 -0.000950078 -0.00089082)
(0.00218195 -0.000762811 -0.000890819)
(0.00224013 -0.000569737 -0.000890818)
(0.00228126 -0.000372328 -0.000890817)
(0.00230503 -0.000172087 -0.000890814)
(0.00231126 2.94644e-05 -0.000890813)
(0.0022999 0.000230791 -0.000890813)
(0.00227103 0.000430363 -0.000890816)
(0.00222488 0.000626659 -0.000890815)
(0.0021618 0.000818184 -0.000890815)
(0.00208226 0.00100348 -0.000890814)
(0.00198688 0.00118115 -0.000890813)
(0.00187637 0.00134982 -0.000890814)
(0.00175159 0.00150822 -0.000890814)
(0.00161347 0.00165514 -0.000890815)
(0.00146308 0.00178947 -0.000890816)
(0.00130155 0.00191017 -0.000890816)
(0.00113011 0.00201634 -0.000890817)
(0.000950078 0.00210716 -0.00089082)
(0.000762811 0.00218195 -0.000890819)
(0.000569737 0.00224013 -0.000890818)
(0.000372328 0.00228126 -0.000890818)
(0.000172087 0.00230503 -0.000890814)
(-2.94644e-05 0.00231126 -0.000890813)
(-0.000230791 0.0022999 -0.000890814)
(-0.000430363 0.00227103 -0.000890816)
(-0.000626659 0.00222488 -0.000890815)
(-0.000818185 0.0021618 -0.000890815)
(-0.00100348 0.00208226 -0.000890814)
(-0.00118115 0.00198688 -0.000890813)
(-0.00134982 0.00187637 -0.000890814)
(-0.00150822 0.00175159 -0.000890814)
(-0.00165514 0.00161347 -0.000890815)
(-0.00178947 0.00146308 -0.000890816)
(-0.00205719 0.00165313 -0.000668936)
(-0.00219344 0.00146754 -0.000668937)
(-0.002313 0.00127078 -0.000668937)
(-0.00241495 0.00106436 -0.000668938)
(-0.00249853 0.000849829 -0.000668938)
(-0.00256309 0.000628834 -0.000668936)
(-0.00260814 0.000403053 -0.000668935)
(-0.00263334 0.000174205 -0.000668934)
(-0.00263851 -5.5968e-05 -0.000668934)
(-0.00262359 -0.000285716 -0.000668935)
(-0.0025887 -0.00051329 -0.000668935)
(-0.00253412 -0.000736957 -0.000668935)
(-0.00246024 -0.000955016 -0.000668935)
(-0.00236765 -0.00116581 -0.000668934)
(-0.00225703 -0.00136772 -0.000668934)
(-0.00212924 -0.00155923 -0.000668935)
(-0.00198524 -0.00173888 -0.000668935)
(-0.00182613 -0.00190528 -0.000668935)
(-0.00165313 -0.00205719 -0.000668936)
(-0.00146754 -0.00219344 -0.000668936)
(-0.00127078 -0.002313 -0.000668937)
(-0.00106436 -0.00241495 -0.000668938)
(-0.000849829 -0.00249853 -0.000668938)
(-0.000628834 -0.00256309 -0.000668936)
(-0.000403053 -0.00260814 -0.000668935)
(-0.000174205 -0.00263334 -0.000668934)
(5.59679e-05 -0.00263851 -0.000668934)
(0.000285716 -0.00262359 -0.000668935)
(0.00051329 -0.0025887 -0.000668935)
(0.000736957 -0.00253412 -0.000668935)
(0.000955016 -0.00246024 -0.000668935)
(0.00116581 -0.00236765 -0.000668934)