/*--------------------------------*- C++ -*----------------------------------*\
| =========                 |                                                 |
| \\      /  F ield         | OpenFOAM: The Open Source CFD Toolbox           |
|  \\    /   O peration     | Version:  2312                                  |
|   \\  /    A nd           | Website:  www.openfoam.com                      |
|    \\/     M anipulation  |                                                 |
\*---------------------------------------------------------------------------*/
FoamFile
{
    version     2.0;
    format      ascii;
    arch        "LSB;label=32;scalar=64";
    class       volTensorField;
    location    "0.7";
    object      F;
}
// * * * * * * * * * * * * * * * * * * * * * * * * * * * * * * * * * * * * * //

dimensions      [0 0 0 0 0 0 0];

internalField   nonuniform List<tensor> 
3240
(
(0.944773 -0.0194927 0.364963 0.0184062 0.949655 -0.142348 -0.0183754 -0.00080149 1.12751)
(0.944905 -0.0199077 0.37598 0.0179919 0.949524 -0.109997 -0.0182346 -0.00240133 1.12751)
(0.945107 -0.0202947 0.384135 0.0176051 0.94932 -0.0768096 -0.0179575 -0.00398328 1.12751)
(0.945373 -0.0206415 0.389368 0.0172586 0.949054 -0.0430376 -0.0175435 -0.00553171 1.12751)
(0.945694 -0.0209358 0.391637 0.0169639 0.948734 -0.00893774 -0.0169943 -0.00703806 1.12751)
(0.946061 -0.0211689 0.390927 0.016729 0.948367 0.0252296 -0.0163161 -0.00849094 1.12751)
(0.946464 -0.0213353 0.387241 0.0165634 0.947966 0.0592054 -0.0155116 -0.00987976 1.12751)
(0.94689 -0.0214293 0.380608 0.0164695 0.94754 0.0927297 -0.0145904 -0.0111963 1.12751)
(0.947325 -0.0214478 0.371078 0.0164513 0.947104 0.125548 -0.0135591 -0.012427 1.12751)
(0.947758 -0.0213901 0.358724 0.0165099 0.946672 0.157411 -0.012425 -0.0135619 1.12751)
(0.948174 -0.021258 0.343638 0.0166427 0.946255 0.188077 -0.0111965 -0.0145935 1.12751)
(0.948561 -0.021056 0.325938 0.0168443 0.945868 0.217311 -0.00988389 -0.0155141 1.12751)
(0.948906 -0.0207916 0.305757 0.0171087 0.945522 0.244892 -0.00849473 -0.0163151 1.12751)
(0.9492 -0.0204699 0.283251 0.017428 0.945229 0.27061 -0.00704013 -0.0169923 1.12751)
(0.949433 -0.0201029 0.258587 0.0177955 0.944996 0.294267 -0.0055305 -0.0175402 1.12751)
(0.949599 -0.0196991 0.231957 0.0182003 0.94483 0.315684 -0.00397883 -0.0179574 1.12751)
(0.949694 -0.0192733 0.20356 0.0186269 0.944734 0.334699 -0.00240063 -0.0182373 1.12751)
(0.949713 -0.0188387 0.173614 0.0190616 0.944716 0.351167 -0.000803361 -0.0183753 1.12751)
(0.949655 -0.0184062 0.142348 0.0194927 0.944773 0.364963 0.000801486 -0.0183754 1.12751)
(0.949524 -0.0179919 0.109997 0.0199077 0.944905 0.37598 0.00240133 -0.0182346 1.12751)
(0.94932 -0.0176051 0.0768096 0.0202947 0.945107 0.384135 0.00398329 -0.0179575 1.12751)
(0.949054 -0.0172585 0.0430376 0.0206415 0.945373 0.389368 0.00553171 -0.0175435 1.12751)
(0.948734 -0.0169639 0.00893772 0.0209358 0.945694 0.391637 0.00703807 -0.0169943 1.12752)
(0.948367 -0.016729 -0.0252296 0.0211689 0.946061 0.390927 0.00849094 -0.0163161 1.12751)
(0.947966 -0.0165634 -0.0592054 0.0213353 0.946464 0.387241 0.00987977 -0.0155116 1.12751)
(0.94754 -0.0164695 -0.0927297 0.0214293 0.94689 0.380608 0.0111963 -0.0145904 1.12751)
(0.947104 -0.0164513 -0.125548 0.0214478 0.947325 0.371078 0.012427 -0.0135591 1.12751)
(0.946672 -0.0165099 -0.157411 0.0213901 0.947758 0.358724 0.0135619 -0.012425 1.12751)
(0.946255 -0.0166427 -0.188077 0.021258 0.948174 0.343638 0.0145935 -0.0111966 1.12751)
(0.945868 -0.0168443 -0.217311 0.021056 0.948561 0.325938 0.0155141 -0.00988391 1.12751)
(0.945522 -0.0171087 -0.244892 0.0207916 0.948906 0.305757 0.016315 -0.00849475 1.12751)
(0.945229 -0.017428 -0.27061 0.0204699 0.9492 0.283251 0.0169923 -0.00704013 1.12751)
(0.944997 -0.0177955 -0.294267 0.0201029 0.949433 0.258587 0.0175402 -0.00553048 1.12751)
(0.94483 -0.0182004 -0.315684 0.0196991 0.949599 0.231957 0.0179574 -0.00397881 1.12751)
(0.944734 -0.0186269 -0.334699 0.0192733 0.949694 0.20356 0.0182373 -0.00240061 1.12751)
(0.944716 -0.0190616 -0.351167 0.0188387 0.949713 0.173614 0.0183753 -0.000803349 1.12751)
(0.944773 -0.0194927 -0.364963 0.0184062 0.949655 0.142348 0.0183754 0.00080149 1.12751)
(0.944905 -0.0199077 -0.37598 0.0179919 0.949524 0.109997 0.0182346 0.00240133 1.12751)
(0.945107 -0.0202947 -0.384135 0.0176051 0.94932 0.0768096 0.0179575 0.00398328 1.12751)
(0.945373 -0.0206415 -0.389368 0.0172585 0.949054 0.0430376 0.0175435 0.00553171 1.12751)
(0.945694 -0.0209358 -0.391637 0.0169639 0.948734 0.00893772 0.0169943 0.00703806 1.12752)
(0.946061 -0.0211689 -0.390927 0.016729 0.948367 -0.0252296 0.0163161 0.00849094 1.12751)
(0.946464 -0.0213353 -0.387241 0.0165634 0.947966 -0.0592054 0.0155116 0.00987977 1.12751)
(0.94689 -0.0214293 -0.380608 0.0164695 0.94754 -0.0927297 0.0145904 0.0111963 1.12751)
(0.947325 -0.0214478 -0.371078 0.0164513 0.947104 -0.125548 0.0135591 0.012427 1.12751)
(0.947758 -0.0213901 -0.358724 0.0165099 0.946672 -0.157411 0.012425 0.0135619 1.12751)
(0.948174 -0.021258 -0.343638 0.0166427 0.946255 -0.188077 0.0111966 0.0145935 1.12751)
(0.948561 -0.021056 -0.325938 0.0168443 0.945868 -0.217311 0.00988391 0.0155141 1.12751)
(0.948906 -0.0207916 -0.305757 0.0171087 0.945522 -0.244892 0.00849475 0.016315 1.12751)
(0.9492 -0.0204699 -0.283251 0.017428 0.945229 -0.27061 0.00704013 0.0169923 1.12751)
(0.949433 -0.0201029 -0.258587 0.0177955 0.944997 -0.294267 0.00553048 0.0175402 1.12751)
(0.949599 -0.0196991 -0.231957 0.0182004 0.94483 -0.315684 0.00397881 0.0179574 1.12751)
(0.949694 -0.0192733 -0.20356 0.0186269 0.944734 -0.334699 0.00240062 0.0182373 1.12751)
(0.949713 -0.0188387 -0.173614 0.0190616 0.944716 -0.351167 0.000803351 0.0183753 1.12751)
(0.949655 -0.0184063 -0.142348 0.0194927 0.944773 -0.364963 -0.000801492 0.0183754 1.12751)
(0.949524 -0.0179919 -0.109997 0.0199077 0.944905 -0.37598 -0.00240133 0.0182346 1.12751)
(0.94932 -0.0176051 -0.0768096 0.0202947 0.945107 -0.384135 -0.00398329 0.0179575 1.12751)
(0.949054 -0.0172586 -0.0430376 0.0206415 0.945373 -0.389368 -0.00553172 0.0175435 1.12751)
(0.948734 -0.0169639 -0.00893772 0.0209358 0.945694 -0.391637 -0.00703807 0.0169943 1.12752)
(0.948367 -0.016729 0.0252296 0.0211689 0.946061 -0.390927 -0.00849095 0.0163161 1.12751)
(0.947966 -0.0165634 0.0592054 0.0213353 0.946464 -0.387241 -0.00987977 0.0155116 1.12751)
(0.94754 -0.0164695 0.0927297 0.0214293 0.94689 -0.380608 -0.0111963 0.0145904 1.12751)
(0.947104 -0.0164513 0.125548 0.0214478 0.947325 -0.371078 -0.012427 0.0135591 1.12751)
(0.946672 -0.0165099 0.157411 0.0213901 0.947758 -0.358724 -0.0135619 0.012425 1.12751)
(0.946255 -0.0166427 0.188077 0.021258 0.948174 -0.343638 -0.0145935 0.0111966 1.12751)
(0.945868 -0.0168443 0.217311 0.021056 0.948561 -0.325938 -0.0155141 0.00988391 1.12751)
(0.945522 -0.0171087 0.244892 0.0207916 0.948906 -0.305757 -0.016315 0.00849476 1.12751)
(0.945229 -0.017428 0.27061 0.0204699 0.9492 -0.283251 -0.0169923 0.00704014 1.12751)
(0.944996 -0.0177955 0.294267 0.0201029 0.949433 -0.258587 -0.0175402 0.00553048 1.12751)
(0.94483 -0.0182004 0.315684 0.0196991 0.949599 -0.231957 -0.0179574 0.00397881 1.12751)
(0.944734 -0.0186269 0.334699 0.0192733 0.949694 -0.20356 -0.0182373 0.00240061 1.12751)
(0.944716 -0.0190616 0.351167 0.0188387 0.949713 -0.173614 -0.0183753 0.000803349 1.12751)
(0.948493 -0.0194659 0.39627 -0.0429631 0.947495 -0.20953 -0.0285828 -0.00124762 1.07956)
(0.953906 -0.0189048 0.413023 -0.0424017 0.942082 -0.174195 -0.0283646 -0.00373436 1.07956)
(0.95914 -0.0174131 0.426633 -0.0409094 0.936848 -0.137535 -0.0279326 -0.00619306 1.07956)
(0.964035 -0.0150349 0.436996 -0.0385319 0.931953 -0.0998272 -0.0272871 -0.00860369 1.07956)
(0.968441 -0.0118423 0.444035 -0.0353404 0.927546 -0.0613612 -0.026433 -0.0109489 1.07956)
(0.972227 -0.007933 0.447693 -0.0314317 0.923761 -0.0224271 -0.0253776 -0.0132101 1.07956)
(0.975276 -0.00342661 0.447944 -0.026924 0.920713 0.0166766 -0.0241287 -0.0153706 1.07955)
(0.977497 0.00154137 0.444786 -0.0219565 0.918493 0.0556537 -0.0226966 -0.0174153 1.07955)
(0.978821 0.00681964 0.438243 -0.0166774 0.917168 0.0942075 -0.0210922 -0.0193286 1.07955)
(0.97921 0.0122475 0.428365 -0.0112482 0.91678 0.132044 -0.0193278 -0.0210938 1.07955)
(0.978649 0.0176609 0.415227 -0.0058347 0.91734 0.168876 -0.0174171 -0.0226982 1.07955)
(0.977156 0.0228951 0.398928 -0.000601589 0.918832 0.204423 -0.0153732 -0.0241302 1.07955)
(0.974777 0.027789 0.379593 0.00429194 0.921211 0.238415 -0.0132113 -0.0253781 1.07956)
(0.971585 0.0321962 0.35737 0.00869775 0.924403 0.270591 -0.0109487 -0.0264323 1.07956)
(0.967676 0.0359814 0.332425 0.0124834 0.928313 0.300708 -0.00860291 -0.0272847 1.07956)
(0.963168 0.0390314 0.304952 0.0155336 0.93282 0.328536 -0.00619164 -0.0279314 1.07956)
(0.958201 0.0412518 0.275158 0.017755 0.937787 0.353865 -0.00373412 -0.0283662 1.07956)
(0.952923 0.0425757 0.243269 0.0190792 0.943065 0.3765 -0.00124815 -0.0285828 1.07956)
(0.947495 0.0429631 0.20953 0.0194659 0.948493 0.39627 0.00124761 -0.0285828 1.07956)
(0.942082 0.0424017 0.174195 0.0189048 0.953906 0.413023 0.00373436 -0.0283646 1.07956)
(0.936848 0.0409094 0.137535 0.0174131 0.95914 0.426633 0.00619306 -0.0279326 1.07956)
(0.931953 0.0385319 0.0998272 0.0150349 0.964035 0.436996 0.0086037 -0.0272871 1.07956)
(0.927546 0.0353404 0.0613612 0.0118423 0.968441 0.444035 0.0109489 -0.026433 1.07956)
(0.923761 0.0314317 0.0224271 0.00793301 0.972227 0.447693 0.0132101 -0.0253776 1.07956)
(0.920713 0.026924 -0.0166766 0.00342663 0.975276 0.447944 0.0153706 -0.0241286 1.07955)
(0.918493 0.0219565 -0.0556537 -0.00154136 0.977497 0.444786 0.0174153 -0.0226966 1.07956)
(0.917168 0.0166774 -0.0942075 -0.00681963 0.978821 0.438243 0.0193285 -0.0210922 1.07955)
(0.91678 0.0112482 -0.132044 -0.0122475 0.97921 0.428365 0.0210938 -0.0193279 1.07955)
(0.91734 0.0058347 -0.168876 -0.0176609 0.978649 0.415227 0.0226982 -0.0174171 1.07955)
(0.918832 0.000601585 -0.204423 -0.0228951 0.977156 0.398928 0.0241302 -0.0153732 1.07955)
(0.921211 -0.00429195 -0.238415 -0.027789 0.974777 0.379593 0.025378 -0.0132113 1.07956)
(0.924403 -0.00869776 -0.270591 -0.0321962 0.971585 0.35737 0.0264323 -0.0109487 1.07956)
(0.928313 -0.0124834 -0.300708 -0.0359814 0.967676 0.332425 0.0272847 -0.0086029 1.07956)
(0.93282 -0.0155336 -0.328536 -0.0390314 0.963168 0.304952 0.0279314 -0.00619163 1.07956)
(0.937787 -0.017755 -0.353865 -0.0412518 0.958201 0.275158 0.0283662 -0.0037341 1.07956)
(0.943065 -0.0190792 -0.3765 -0.0425757 0.952923 0.243269 0.0285828 -0.00124813 1.07956)
(0.948493 -0.0194659 -0.39627 -0.0429631 0.947495 0.20953 0.0285828 0.00124762 1.07956)
(0.953906 -0.0189048 -0.413023 -0.0424017 0.942082 0.174195 0.0283646 0.00373437 1.07956)
(0.95914 -0.0174131 -0.426633 -0.0409094 0.936848 0.137535 0.0279326 0.00619307 1.07956)
(0.964035 -0.0150349 -0.436996 -0.0385319 0.931953 0.0998272 0.0272871 0.0086037 1.07956)
(0.968441 -0.0118423 -0.444035 -0.0353404 0.927546 0.0613612 0.026433 0.0109489 1.07956)
(0.972227 -0.00793301 -0.447693 -0.0314317 0.923761 0.0224271 0.0253776 0.0132101 1.07956)
(0.975276 -0.00342663 -0.447944 -0.026924 0.920713 -0.0166766 0.0241286 0.0153706 1.07955)
(0.977497 0.00154135 -0.444786 -0.0219565 0.918493 -0.0556537 0.0226966 0.0174153 1.07956)
(0.978821 0.00681963 -0.438243 -0.0166774 0.917168 -0.0942075 0.0210922 0.0193285 1.07955)
(0.97921 0.0122475 -0.428365 -0.0112482 0.91678 -0.132044 0.0193279 0.0210938 1.07955)
(0.978649 0.0176609 -0.415227 -0.0058347 0.91734 -0.168876 0.0174171 0.0226982 1.07955)
(0.977156 0.0228951 -0.398928 -0.000601585 0.918832 -0.204423 0.0153732 0.0241302 1.07955)
(0.974777 0.027789 -0.379593 0.00429195 0.921211 -0.238415 0.0132113 0.025378 1.07956)
(0.971585 0.0321962 -0.35737 0.00869776 0.924403 -0.270591 0.0109487 0.0264323 1.07956)
(0.967676 0.0359814 -0.332425 0.0124834 0.928313 -0.300708 0.00860291 0.0272847 1.07956)
(0.963168 0.0390314 -0.304952 0.0155336 0.93282 -0.328536 0.00619163 0.0279314 1.07956)
(0.958201 0.0412518 -0.275158 0.017755 0.937787 -0.353865 0.00373411 0.0283662 1.07956)
(0.952923 0.0425756 -0.243269 0.0190792 0.943065 -0.3765 0.00124814 0.0285828 1.07956)
(0.947495 0.0429631 -0.20953 0.0194659 0.948493 -0.39627 -0.00124762 0.0285828 1.07956)
(0.942082 0.0424017 -0.174195 0.0189048 0.953906 -0.413023 -0.00373437 0.0283646 1.07956)
(0.936848 0.0409094 -0.137534 0.0174131 0.95914 -0.426633 -0.00619307 0.0279326 1.07956)
(0.931953 0.0385319 -0.0998272 0.0150349 0.964035 -0.436996 -0.00860371 0.0272871 1.07956)
(0.927546 0.0353404 -0.0613612 0.0118423 0.968441 -0.444035 -0.0109489 0.026433 1.07956)
(0.923761 0.0314317 -0.0224271 0.00793301 0.972227 -0.447693 -0.0132101 0.0253776 1.07956)
(0.920713 0.026924 0.0166766 0.00342663 0.975276 -0.447944 -0.0153706 0.0241286 1.07955)
(0.918493 0.0219565 0.0556537 -0.00154135 0.977497 -0.444786 -0.0174153 0.0226966 1.07956)
(0.917168 0.0166774 0.0942075 -0.00681963 0.978821 -0.438243 -0.0193285 0.0210922 1.07955)
(0.91678 0.0112482 0.132044 -0.0122475 0.97921 -0.428365 -0.0210938 0.0193279 1.07955)
(0.91734 0.00583471 0.168876 -0.0176609 0.978649 -0.415227 -0.0226982 0.0174171 1.07955)
(0.918832 0.000601594 0.204423 -0.0228951 0.977156 -0.398928 -0.0241302 0.0153732 1.07955)
(0.921211 -0.00429194 0.238415 -0.027789 0.974777 -0.379593 -0.025378 0.0132114 1.07956)
(0.924403 -0.00869775 0.270591 -0.0321962 0.971585 -0.35737 -0.0264323 0.0109487 1.07956)
(0.928313 -0.0124834 0.300708 -0.0359814 0.967676 -0.332425 -0.0272847 0.0086029 1.07956)
(0.93282 -0.0155336 0.328536 -0.0390314 0.963168 -0.304952 -0.0279314 0.00619163 1.07956)
(0.937787 -0.017755 0.353865 -0.0412518 0.958201 -0.275158 -0.0283662 0.0037341 1.07956)
(0.943065 -0.0190792 0.3765 -0.0425756 0.952923 -0.243269 -0.0285828 0.00124814 1.07956)
(0.953318 -0.0369247 0.438254 -0.108863 0.944266 -0.290845 -0.0395179 -0.00172547 1.02885)
(0.965907 -0.0350312 0.461934 -0.10697 0.931677 -0.251541 -0.0392168 -0.00516247 1.02885)
(0.977977 -0.0309812 0.4821 -0.102919 0.919608 -0.210324 -0.0386188 -0.00856121 1.02885)
(0.989159 -0.0248967 0.498596 -0.0968348 0.908426 -0.167505 -0.0377252 -0.0118953 1.02885)
(0.999115 -0.0169617 0.511297 -0.0889014 0.89847 -0.123412 -0.0365445 -0.0151381 1.02885)
(1.00754 -0.00741836 0.520108 -0.0793589 0.890043 -0.0783803 -0.0350859 -0.0182649 1.02885)
(1.01418 0.00344195 0.52496 -0.0684979 0.883402 -0.0327521 -0.0333598 -0.021253 1.02885)
(1.01884 0.0152903 0.525817 -0.0566491 0.878748 0.0131258 -0.0313798 -0.0240789 1.02885)
(1.02137 0.0277677 0.522672 -0.0441707 0.87622 0.0589036 -0.0291621 -0.0267223 1.02885)
(1.02169 0.0404941 0.51555 -0.0314427 0.875898 0.104234 -0.0267232 -0.0291626 1.02885)
(1.01979 0.0530831 0.504504 -0.018853 0.877791 0.14877 -0.0240808 -0.0313808 1.02885)
(1.01574 0.0651541 0.489618 -0.00678398 0.881842 0.192175 -0.0212542 -0.0333606 1.02885)
(1.00966 0.0763366 0.471006 0.00439772 0.887927 0.234117 -0.018265 -0.0350867 1.02885)
(1.00172 0.086292 0.448809 0.0143526 0.895861 0.274276 -0.0151361 -0.0365449 1.02885)
(0.992181 0.0947188 0.423196 0.0227791 0.905404 0.312348 -0.0118936 -0.0377242 1.02885)
(0.981319 0.101361 0.394363 0.0294209 0.916265 0.348044 -0.00856145 -0.0386169 1.02885)
(0.96947 0.106016 0.362528 0.0340767 0.928114 0.381091 -0.0051636 -0.0392174 1.02885)
(0.956993 0.108542 0.327934 0.0366036 0.940591 0.411237 -0.00172534 -0.0395179 1.02885)
(0.944266 0.108863 0.290845 0.0369247 0.953318 0.438254 0.00172547 -0.0395179 1.02885)
(0.931677 0.10697 0.251541 0.0350312 0.965907 0.461934 0.00516248 -0.0392168 1.02885)
(0.919608 0.102919 0.210324 0.0309812 0.977977 0.4821 0.00856122 -0.0386188 1.02885)
(0.908426 0.0968348 0.167505 0.0248967 0.989159 0.498596 0.0118953 -0.0377252 1.02885)
(0.89847 0.0889014 0.123412 0.0169617 0.999115 0.511297 0.0151381 -0.0365445 1.02885)
(0.890043 0.0793589 0.0783803 0.00741837 1.00754 0.520108 0.0182649 -0.0350858 1.02885)
(0.883402 0.0684979 0.0327521 -0.00344193 1.01418 0.52496 0.021253 -0.0333598 1.02885)
(0.878748 0.0566491 -0.0131258 -0.0152903 1.01884 0.525817 0.0240789 -0.0313798 1.02885)
(0.87622 0.0441707 -0.0589036 -0.0277677 1.02137 0.522672 0.0267223 -0.0291621 1.02885)
(0.875898 0.0314427 -0.104234 -0.0404941 1.02169 0.51555 0.0291626 -0.0267232 1.02885)
(0.877791 0.018853 -0.14877 -0.0530831 1.01979 0.504504 0.0313808 -0.0240808 1.02885)
(0.881842 0.00678397 -0.192175 -0.0651541 1.01574 0.489618 0.0333606 -0.0212542 1.02885)
(0.887927 -0.00439774 -0.234117 -0.0763366 1.00966 0.471006 0.0350867 -0.018265 1.02885)
(0.895861 -0.0143526 -0.274276 -0.086292 1.00172 0.448809 0.0365449 -0.0151361 1.02885)
(0.905404 -0.0227791 -0.312348 -0.0947188 0.992181 0.423196 0.0377242 -0.0118936 1.02885)
(0.916265 -0.0294209 -0.348044 -0.101361 0.981319 0.394363 0.0386169 -0.00856145 1.02885)
(0.928114 -0.0340767 -0.381091 -0.106016 0.96947 0.362528 0.0392174 -0.0051636 1.02885)
(0.940591 -0.0366036 -0.411237 -0.108542 0.956993 0.327934 0.0395179 -0.00172533 1.02885)
(0.953318 -0.0369247 -0.438254 -0.108863 0.944266 0.290845 0.0395179 0.00172548 1.02885)
(0.965907 -0.0350312 -0.461934 -0.10697 0.931677 0.251541 0.0392168 0.00516249 1.02885)
(0.977977 -0.0309812 -0.4821 -0.102919 0.919608 0.210324 0.0386188 0.00856122 1.02885)
(0.989159 -0.0248967 -0.498596 -0.0968348 0.908426 0.167505 0.0377252 0.0118953 1.02885)
(0.999115 -0.0169617 -0.511297 -0.0889014 0.89847 0.123412 0.0365445 0.0151381 1.02885)
(1.00754 -0.00741837 -0.520108 -0.0793589 0.890043 0.0783803 0.0350858 0.0182649 1.02885)
(1.01418 0.00344192 -0.52496 -0.0684979 0.883402 0.0327521 0.0333598 0.021253 1.02885)
(1.01884 0.0152903 -0.525817 -0.0566491 0.878748 -0.0131258 0.0313798 0.0240789 1.02885)
(1.02137 0.0277677 -0.522672 -0.0441707 0.87622 -0.0589036 0.0291621 0.0267223 1.02885)
(1.02169 0.040494 -0.51555 -0.0314427 0.875898 -0.104234 0.0267232 0.0291625 1.02885)
(1.01979 0.0530831 -0.504504 -0.018853 0.877791 -0.14877 0.0240808 0.0313808 1.02885)
(1.01574 0.0651541 -0.489618 -0.00678397 0.881842 -0.192175 0.0212542 0.0333606 1.02885)
(1.00966 0.0763366 -0.471006 0.00439774 0.887927 -0.234117 0.018265 0.0350867 1.02885)
(1.00172 0.086292 -0.448809 0.0143526 0.895861 -0.274276 0.0151361 0.0365449 1.02885)
(0.992181 0.0947188 -0.423196 0.0227791 0.905404 -0.312348 0.0118936 0.0377242 1.02885)
(0.981319 0.101361 -0.394363 0.0294209 0.916265 -0.348044 0.00856145 0.0386169 1.02885)
(0.96947 0.106016 -0.362528 0.0340767 0.928114 -0.381091 0.0051636 0.0392174 1.02885)
(0.956993 0.108542 -0.327934 0.0366036 0.940591 -0.411237 0.00172534 0.0395179 1.02885)
(0.944266 0.108863 -0.290845 0.0369247 0.953318 -0.438254 -0.00172548 0.0395179 1.02885)
(0.931677 0.10697 -0.251541 0.0350312 0.965907 -0.461935 -0.00516248 0.0392168 1.02885)
(0.919608 0.102919 -0.210324 0.0309812 0.977977 -0.4821 -0.00856123 0.0386188 1.02885)
(0.908426 0.0968348 -0.167505 0.0248967 0.989159 -0.498596 -0.0118953 0.0377252 1.02885)
(0.89847 0.0889014 -0.123412 0.0169617 0.999115 -0.511297 -0.0151381 0.0365445 1.02885)
(0.890043 0.0793589 -0.0783803 0.00741837 1.00754 -0.520108 -0.0182649 0.0350858 1.02885)
(0.883402 0.0684979 -0.0327521 -0.00344193 1.01418 -0.52496 -0.021253 0.0333598 1.02885)
(0.878748 0.0566491 0.0131258 -0.0152903 1.01884 -0.525817 -0.0240789 0.0313798 1.02885)
(0.87622 0.0441707 0.0589036 -0.0277677 1.02137 -0.522672 -0.0267223 0.0291621 1.02885)
(0.875898 0.0314427 0.104234 -0.040494 1.02169 -0.51555 -0.0291625 0.0267232 1.02885)
(0.877791 0.018853 0.14877 -0.0530831 1.01979 -0.504504 -0.0313808 0.0240808 1.02885)
(0.881842 0.00678398 0.192175 -0.0651541 1.01574 -0.489618 -0.0333606 0.0212542 1.02885)
(0.887927 -0.00439773 0.234117 -0.0763366 1.00966 -0.471006 -0.0350867 0.018265 1.02885)
(0.895861 -0.0143526 0.274276 -0.086292 1.00172 -0.448809 -0.0365449 0.0151361 1.02885)
(0.905404 -0.0227791 0.312348 -0.0947188 0.992181 -0.423196 -0.0377242 0.0118936 1.02885)
(0.916265 -0.0294209 0.348044 -0.101361 0.981319 -0.394363 -0.0386169 0.00856145 1.02885)
(0.928114 -0.0340767 0.381091 -0.106016 0.96947 -0.362528 -0.0392174 0.0051636 1.02885)
(0.940591 -0.0366036 0.411237 -0.108542 0.956993 -0.327934 -0.0395179 0.00172534 1.02885)
(1.00384 -0.046185 0.314685 -0.099274 0.869355 -0.167573 -0.109123 -0.0047628 1.12424)
(1.01544 -0.0334022 0.328092 -0.0864919 0.857746 -0.139508 -0.108292 -0.0142584 1.12424)
(1.02466 -0.0188008 0.339003 -0.0718892 0.848532 -0.110382 -0.10664 -0.0236445 1.12423)
(1.0312 -0.00282234 0.347333 -0.0559088 0.841995 -0.0804167 -0.104175 -0.0328471 1.12423)
(1.03486 0.0140499 0.35302 -0.0390376 0.838334 -0.0498386 -0.100917 -0.0417992 1.12423)
(1.03553 0.0313026 0.35602 -0.0217861 0.837659 -0.0188814 -0.0968891 -0.0504319 1.12423)
(1.0332 0.0484101 0.356311 -0.00467894 0.83999 0.01222 -0.092122 -0.0586828 1.12423)
(1.02794 0.0648525 0.35389 0.0117648 0.845256 0.0432283 -0.0866536 -0.0664889 1.12423)
(1.0199 0.0801326 0.348777 0.0270451 0.853296 0.0739081 -0.0805269 -0.0737904 1.12423)
(1.00932 0.0937854 0.341008 0.0406984 0.863868 0.104025 -0.0737887 -0.0805318 1.12423)
(0.996544 0.105396 0.330644 0.0523087 0.876648 0.133349 -0.0664909 -0.0866598 1.12423)
(0.981943 0.114608 0.317764 0.0615216 0.891249 0.161658 -0.0586886 -0.0921251 1.12423)
(0.965962 0.121143 0.302465 0.0680567 0.907229 0.188738 -0.050438 -0.0968872 1.12423)
(0.949089 0.124804 0.284864 0.0717154 0.924103 0.214381 -0.0418014 -0.100913 1.12423)
(0.931835 0.12548 0.265095 0.07239 0.941356 0.238393 -0.0328457 -0.104171 1.12423)
(0.914727 0.12315 0.243309 0.0700627 0.958465 0.260591 -0.0236383 -0.106638 1.12423)
(0.898284 0.117886 0.219671 0.0648007 0.974907 0.280805 -0.0142553 -0.108296 1.12423)
(0.883005 0.109846 0.194361 0.0567594 0.990185 0.298882 -0.00476585 -0.109125 1.12424)
(0.869355 0.099274 0.167573 0.046185 1.00384 0.314685 0.0047628 -0.109123 1.12424)
(0.857746 0.0864919 0.139508 0.0334021 1.01544 0.328092 0.0142584 -0.108292 1.12424)
(0.848532 0.0718893 0.110382 0.0188007 1.02466 0.339003 0.0236445 -0.10664 1.12423)
(0.841995 0.0559088 0.0804167 0.00282235 1.0312 0.347333 0.0328471 -0.104175 1.12423)
(0.838334 0.0390377 0.0498386 -0.0140499 1.03486 0.35302 0.0417992 -0.100917 1.12423)
(0.837659 0.0217862 0.0188813 -0.0313026 1.03553 0.35602 0.0504319 -0.0968891 1.12423)
(0.83999 0.00467895 -0.01222 -0.04841 1.0332 0.356311 0.0586828 -0.092122 1.12423)
(0.845256 -0.0117648 -0.0432283 -0.0648525 1.02794 0.35389 0.0664889 -0.0866536 1.12423)
(0.853296 -0.0270451 -0.0739081 -0.0801326 1.0199 0.348777 0.0737904 -0.0805269 1.12423)
(0.863868 -0.0406985 -0.104025 -0.0937854 1.00932 0.341008 0.0805318 -0.0737887 1.12423)
(0.876648 -0.0523087 -0.133349 -0.105396 0.996544 0.330644 0.0866598 -0.0664909 1.12423)
(0.891249 -0.0615216 -0.161658 -0.114608 0.981943 0.317764 0.0921251 -0.0586887 1.12423)
(0.907229 -0.0680567 -0.188738 -0.121143 0.965962 0.302465 0.096887 -0.0504381 1.12423)
(0.924103 -0.0717154 -0.214381 -0.124804 0.949089 0.284864 0.100913 -0.0418013 1.12423)
(0.941356 -0.07239 -0.238393 -0.12548 0.931835 0.265095 0.104171 -0.0328456 1.12423)
(0.958465 -0.0700627 -0.260591 -0.12315 0.914726 0.243309 0.106638 -0.0236382 1.12423)
(0.974907 -0.0648008 -0.280805 -0.117887 0.898284 0.219671 0.108296 -0.0142553 1.12423)
(0.990185 -0.0567594 -0.298882 -0.109846 0.883005 0.194361 0.109125 -0.00476583 1.12424)
(1.00384 -0.046185 -0.314685 -0.099274 0.869355 0.167573 0.109123 0.00476281 1.12424)
(1.01544 -0.0334021 -0.328092 -0.0864919 0.857746 0.139508 0.108292 0.0142584 1.12424)
(1.02466 -0.0188008 -0.339003 -0.0718893 0.848532 0.110382 0.10664 0.0236445 1.12423)
(1.0312 -0.00282236 -0.347333 -0.0559088 0.841995 0.0804167 0.104175 0.0328471 1.12423)
(1.03486 0.0140499 -0.35302 -0.0390377 0.838334 0.0498386 0.100917 0.0417992 1.12423)
(1.03553 0.0313026 -0.35602 -0.0217862 0.837659 0.0188813 0.0968891 0.0504319 1.12423)
(1.0332 0.04841 -0.356311 -0.00467895 0.83999 -0.01222 0.092122 0.0586828 1.12423)
(1.02794 0.0648525 -0.35389 0.0117648 0.845256 -0.0432283 0.0866536 0.0664889 1.12423)
(1.0199 0.0801326 -0.348777 0.0270451 0.853296 -0.0739081 0.0805269 0.0737904 1.12423)
(1.00932 0.0937854 -0.341008 0.0406985 0.863868 -0.104025 0.0737887 0.0805318 1.12423)
(0.996544 0.105396 -0.330644 0.0523087 0.876648 -0.133349 0.0664909 0.0866598 1.12423)
(0.981943 0.114608 -0.317764 0.0615216 0.891249 -0.161658 0.0586887 0.0921251 1.12423)
(0.965962 0.121143 -0.302465 0.0680567 0.907229 -0.188738 0.0504381 0.096887 1.12423)
(0.949089 0.124804 -0.284864 0.0717154 0.924103 -0.214381 0.0418013 0.100912 1.12423)
(0.931835 0.12548 -0.265095 0.07239 0.941356 -0.238393 0.0328456 0.104171 1.12423)
(0.914726 0.12315 -0.243309 0.0700627 0.958465 -0.260591 0.0236382 0.106638 1.12423)
(0.898284 0.117886 -0.219671 0.0648008 0.974907 -0.280805 0.0142553 0.108296 1.12423)
(0.883005 0.109846 -0.194361 0.0567594 0.990185 -0.298882 0.00476583 0.109125 1.12424)
(0.869355 0.099274 -0.167573 0.046185 1.00384 -0.314685 -0.00476281 0.109123 1.12424)
(0.857746 0.0864919 -0.139508 0.0334021 1.01544 -0.328092 -0.0142584 0.108292 1.12424)
(0.848532 0.0718892 -0.110382 0.0188007 1.02466 -0.339003 -0.0236445 0.10664 1.12423)
(0.841995 0.0559088 -0.0804167 0.00282234 1.0312 -0.347333 -0.0328471 0.104175 1.12423)
(0.838334 0.0390377 -0.0498386 -0.0140499 1.03486 -0.35302 -0.0417992 0.100917 1.12423)
(0.837659 0.0217861 -0.0188813 -0.0313026 1.03553 -0.35602 -0.050432 0.0968891 1.12423)
(0.83999 0.00467895 0.01222 -0.04841 1.0332 -0.356311 -0.0586828 0.092122 1.12423)
(0.845256 -0.0117648 0.0432283 -0.0648525 1.02794 -0.35389 -0.0664889 0.0866537 1.12423)
(0.853296 -0.0270451 0.0739081 -0.0801325 1.0199 -0.348777 -0.0737903 0.0805269 1.12423)
(0.863868 -0.0406984 0.104025 -0.0937854 1.00932 -0.341008 -0.0805318 0.0737887 1.12423)
(0.876648 -0.0523086 0.133349 -0.105396 0.996544 -0.330644 -0.0866598 0.0664909 1.12423)
(0.891249 -0.0615216 0.161658 -0.114608 0.981943 -0.317764 -0.0921251 0.0586887 1.12423)
(0.907229 -0.0680566 0.188738 -0.121143 0.965962 -0.302465 -0.096887 0.0504381 1.12423)
(0.924103 -0.0717154 0.214381 -0.124804 0.949089 -0.284864 -0.100912 0.0418013 1.12423)
(0.941356 -0.07239 0.238393 -0.12548 0.931835 -0.265095 -0.104171 0.0328456 1.12423)
(0.958465 -0.0700627 0.260591 -0.12315 0.914726 -0.243309 -0.106638 0.0236382 1.12423)
(0.974907 -0.0648008 0.280805 -0.117887 0.898284 -0.219671 -0.108296 0.0142553 1.12423)
(0.990185 -0.0567595 0.298882 -0.109846 0.883005 -0.194361 -0.109125 0.00476583 1.12424)
(1.01929 -0.0634223 0.353794 -0.172845 0.850827 -0.245811 -0.122098 -0.00533087 1.07977)
(1.03853 -0.047 0.373872 -0.156423 0.831593 -0.214041 -0.121168 -0.0159523 1.07977)
(1.05462 -0.0274892 0.391104 -0.13691 0.815501 -0.180641 -0.119319 -0.0264533 1.07977)
(1.06708 -0.0054808 0.40536 -0.114902 0.803044 -0.145867 -0.11656 -0.0367513 1.07977)
(1.07552 0.0183582 0.41653 -0.0910645 0.794598 -0.109983 -0.112914 -0.0467698 1.07977)
(1.0797 0.0433018 0.424531 -0.0661215 0.790421 -0.0732613 -0.108407 -0.0564312 1.07977)
(1.07948 0.0685909 0.4293 -0.0408322 0.790638 -0.0359824 -0.103074 -0.0656634 1.07977)
(1.07488 0.0934571 0.430802 -0.0159637 0.795243 0.00157081 -0.0969565 -0.0743962 1.07977)
(1.06603 0.117147 0.429027 0.00772774 0.804095 0.0391122 -0.0901033 -0.0825635 1.07977)
(1.05319 0.138942 0.423985 0.0295233 0.816927 0.0763555 -0.0825651 -0.0901044 1.07977)
(1.03677 0.158178 0.415717 0.0487589 0.833348 0.113017 -0.0743986 -0.0969603 1.07977)
(1.01726 0.17427 0.404285 0.0648493 0.85286 0.148819 -0.065666 -0.103077 1.07977)
(0.995251 0.186727 0.389776 0.0773054 0.874869 0.183489 -0.0564328 -0.108407 1.07977)
(0.971412 0.195173 0.372301 0.0857491 0.898708 0.216762 -0.0467695 -0.112912 1.07977)
(0.946468 0.19935 0.351992 0.0899272 0.923652 0.248385 -0.0367503 -0.116557 1.07977)
(0.921179 0.199134 0.329004 0.089713 0.948942 0.278118 -0.026451 -0.119317 1.07977)
(0.896311 0.19453 0.303513 0.0851099 0.973809 0.305735 -0.0159519 -0.12117 1.07977)
(0.872621 0.185677 0.275711 0.0762563 0.997499 0.331024 -0.00533082 -0.122099 1.07977)
(0.850827 0.172845 0.245811 0.0634223 1.01929 0.353794 0.00533086 -0.122098 1.07977)
(0.831593 0.156423 0.214041 0.047 1.03853 0.373872 0.0159523 -0.121168 1.07977)
(0.815501 0.13691 0.180641 0.0274892 1.05462 0.391104 0.0264533 -0.119319 1.07977)
(0.803044 0.114902 0.145867 0.00548079 1.06708 0.40536 0.0367513 -0.11656 1.07977)
(0.794598 0.0910645 0.109983 -0.0183582 1.07552 0.41653 0.0467698 -0.112914 1.07977)
(0.790421 0.0661215 0.0732613 -0.0433018 1.0797 0.424531 0.0564312 -0.108407 1.07977)
(0.790638 0.0408322 0.0359824 -0.0685908 1.07948 0.4293 0.0656634 -0.103074 1.07977)
(0.795243 0.0159637 -0.0015708 -0.093457 1.07488 0.430802 0.0743962 -0.0969565 1.07977)
(0.804095 -0.00772775 -0.0391122 -0.117147 1.06603 0.429027 0.0825635 -0.0901033 1.07977)
(0.816927 -0.0295233 -0.0763555 -0.138942 1.05319 0.423985 0.0901044 -0.0825652 1.07977)
(0.833348 -0.0487589 -0.113017 -0.158178 1.03677 0.415717 0.0969602 -0.0743986 1.07977)
(0.85286 -0.0648493 -0.148819 -0.17427 1.01726 0.404285 0.103077 -0.065666 1.07977)
(0.874869 -0.0773055 -0.183489 -0.186727 0.995251 0.389776 0.108407 -0.0564328 1.07977)
(0.898708 -0.0857491 -0.216762 -0.195173 0.971412 0.372301 0.112912 -0.0467695 1.07977)
(0.923652 -0.0899273 -0.248385 -0.19935 0.946468 0.351992 0.116557 -0.0367502 1.07977)
(0.948942 -0.089713 -0.278118 -0.199134 0.921179 0.329004 0.119317 -0.0264509 1.07977)
(0.973809 -0.0851099 -0.305735 -0.19453 0.896311 0.303513 0.12117 -0.0159519 1.07977)
(0.997499 -0.0762563 -0.331024 -0.185677 0.872621 0.275711 0.122099 -0.00533079 1.07977)
(1.01929 -0.0634223 -0.353794 -0.172845 0.850827 0.245811 0.122098 0.00533088 1.07977)
(1.03853 -0.047 -0.373872 -0.156423 0.831593 0.214041 0.121168 0.0159523 1.07977)
(1.05462 -0.0274892 -0.391104 -0.13691 0.815501 0.180641 0.119319 0.0264533 1.07977)
(1.06708 -0.00548079 -0.40536 -0.114902 0.803044 0.145867 0.11656 0.0367513 1.07977)
(1.07552 0.0183582 -0.41653 -0.0910645 0.794598 0.109983 0.112914 0.0467698 1.07977)
(1.0797 0.0433018 -0.424531 -0.0661215 0.790421 0.0732613 0.108407 0.0564312 1.07977)