/*--------------------------------*- C++ -*----------------------------------*\
| =========                 |                                                 |
| \\      /  F ield         | OpenFOAM: The Open Source CFD Toolbox           |
|  \\    /   O peration     | Version:  2312                                  |
|   \\  /    A nd           | Website:  www.openfoam.com                      |
|    \\/     M anipulation  |                                                 |
\*---------------------------------------------------------------------------*/
FoamFile
{
    version     2.0;
    format      ascii;
    arch        "LSB;label=32;scalar=64";
    class       volVectorField;
    location    "0.7";
    object      U;
}
// * * * * * * * * * * * * * * * * * * * * * * * * * * * * * * * * * * * * * //

dimensions      [0 1 -1 0 0 0 0];

internalField   nonuniform List<vector> 
3240
(
(-0.000497447 8.90711e-06 4.10347e-05)
(-0.000496329 -3.44801e-05 4.10366e-05)
(-0.000491434 -7.76087e-05 4.10328e-05)
(-0.000482799 -0.000120148 4.10306e-05)
(-0.000470492 -0.000161773 4.10309e-05)
(-0.000454601 -0.000202163 4.10322e-05)
(-0.000435252 -0.000241014 4.10358e-05)
(-0.000412591 -0.000278028 4.10369e-05)
(-0.000386791 -0.000312928 4.10359e-05)
(-0.000358047 -0.000345447 4.1034e-05)
(-0.000326576 -0.000375338 4.10325e-05)
(-0.000292618 -0.000402376 4.10304e-05)
(-0.000256435 -0.000426351 4.1032e-05)
(-0.000218301 -0.000447079 4.10335e-05)
(-0.000178507 -0.000464399 4.10357e-05)
(-0.000137352 -0.00047819 4.10341e-05)
(-9.5151e-05 -0.000488343 4.10312e-05)
(-5.22277e-05 -0.000494778 4.10339e-05)
(-8.90649e-06 -0.000497447 4.10343e-05)
(3.44808e-05 -0.000496329 4.10362e-05)
(7.76093e-05 -0.000491434 4.10323e-05)
(0.000120149 -0.000482799 4.103e-05)
(0.000161774 -0.000470492 4.10303e-05)
(0.000202164 -0.000454602 4.10315e-05)
(0.000241014 -0.000435252 4.10351e-05)
(0.000278029 -0.000412591 4.10361e-05)
(0.000312929 -0.000386791 4.10351e-05)
(0.000345448 -0.000358047 4.10332e-05)
(0.000375339 -0.000326576 4.10317e-05)
(0.000402377 -0.000292618 4.10296e-05)
(0.000426351 -0.000256435 4.10313e-05)
(0.00044708 -0.000218301 4.10328e-05)
(0.0004644 -0.000178507 4.10351e-05)
(0.00047819 -0.000137352 4.10334e-05)
(0.000488343 -9.5151e-05 4.10305e-05)
(0.000494778 -5.22276e-05 4.10332e-05)
(0.000497447 -8.90634e-06 4.10336e-05)
(0.00049633 3.44809e-05 4.10355e-05)
(0.000491435 7.76095e-05 4.10317e-05)
(0.0004828 0.000120149 4.10295e-05)
(0.000470492 0.000161774 4.10298e-05)
(0.000454602 0.000202164 4.10311e-05)
(0.000435253 0.000241014 4.10347e-05)
(0.000412592 0.000278029 4.10359e-05)
(0.000386792 0.000312929 4.10349e-05)
(0.000358047 0.000345448 4.10331e-05)
(0.000326577 0.000375339 4.10316e-05)
(0.000292619 0.000402377 4.10296e-05)
(0.000256436 0.000426352 4.10313e-05)
(0.000218301 0.00044708 4.10329e-05)
(0.000178507 0.0004644 4.10352e-05)
(0.000137353 0.00047819 4.10336e-05)
(9.51516e-05 0.000488343 4.10308e-05)
(5.22282e-05 0.000494778 4.10336e-05)
(8.90698e-06 0.000497447 4.1034e-05)
(-3.44803e-05 0.00049633 4.1036e-05)
(-7.76088e-05 0.000491435 4.10322e-05)
(-0.000120148 0.000482799 4.10301e-05)
(-0.000161773 0.000470492 4.10304e-05)
(-0.000202164 0.000454602 4.10318e-05)
(-0.000241014 0.000435252 4.10354e-05)
(-0.000278028 0.000412592 4.10366e-05)
(-0.000312928 0.000386792 4.10356e-05)
(-0.000345447 0.000358047 4.10338e-05)
(-0.000375338 0.000326577 4.10324e-05)
(-0.000402376 0.000292619 4.10304e-05)
(-0.000426351 0.000256436 4.10321e-05)
(-0.000447079 0.000218301 4.10337e-05)
(-0.000464399 0.000178507 4.1036e-05)
(-0.00047819 0.000137353 4.10344e-05)
(-0.000488343 9.51517e-05 4.10315e-05)
(-0.000494777 5.22283e-05 4.10342e-05)
(-0.000562329 -0.000285236 -9.64417e-05)
(-0.000535329 -0.00033316 -9.64407e-05)
(-0.000504255 -0.000378551 -9.64417e-05)
(-0.000469343 -0.00042106 -9.64418e-05)
(-0.000430858 -0.000460365 -9.64426e-05)
(-0.000389095 -0.000496166 -9.6443e-05)
(-0.00034437 -0.000528189 -9.64427e-05)
(-0.000297025 -0.00055619 -9.64421e-05)
(-0.000247422 -0.00057996 -9.64422e-05)
(-0.000195935 -0.000599317 -9.64431e-05)
(-0.000142957 -0.000614113 -9.64425e-05)
(-8.88889e-05 -0.000624237 -9.64421e-05)
(-3.4143e-05 -0.000629611 -9.64418e-05)
(2.08612e-05 -0.00063019 -9.64419e-05)
(7.57065e-05 -0.000625972 -9.64419e-05)
(0.000129976 -0.000616992 -9.64418e-05)
(0.000183256 -0.000603316 -9.64429e-05)
(0.000235141 -0.000585048 -9.64421e-05)
(0.000285236 -0.000562328 -9.64422e-05)
(0.000333161 -0.000535329 -9.64412e-05)
(0.000378551 -0.000504255 -9.64423e-05)
(0.000421061 -0.000469342 -9.64425e-05)
(0.000460366 -0.000430858 -9.64433e-05)
(0.000496166 -0.000389094 -9.64438e-05)
(0.000528189 -0.000344369 -9.64435e-05)
(0.00055619 -0.000297025 -9.64429e-05)
(0.00057996 -0.000247421 -9.64431e-05)
(0.000599318 -0.000195934 -9.6444e-05)
(0.000614113 -0.000142957 -9.64435e-05)
(0.000624237 -8.88885e-05 -9.6443e-05)
(0.000629611 -3.41426e-05 -9.64426e-05)
(0.00063019 2.08615e-05 -9.64427e-05)
(0.000625973 7.57067e-05 -9.64427e-05)
(0.000616992 0.000129976 -9.64427e-05)
(0.000603316 0.000183256 -9.64437e-05)
(0.000585049 0.000235141 -9.64429e-05)
(0.000562329 0.000285237 -9.64429e-05)
(0.000535329 0.000333161 -9.64419e-05)
(0.000504255 0.000378551 -9.6443e-05)
(0.000469343 0.000421061 -9.64431e-05)
(0.000430858 0.000460366 -9.64439e-05)
(0.000389095 0.000496166 -9.64443e-05)
(0.00034437 0.000528189 -9.6444e-05)
(0.000297025 0.000556191 -9.64433e-05)
(0.000247422 0.00057996 -9.64434e-05)
(0.000195935 0.000599318 -9.64443e-05)
(0.000142957 0.000614114 -9.64436e-05)
(8.88889e-05 0.000624237 -9.64431e-05)
(3.4143e-05 0.000629611 -9.64427e-05)
(-2.08611e-05 0.00063019 -9.64427e-05)
(-7.57063e-05 0.000625973 -9.64426e-05)
(-0.000129975 0.000616992 -9.64424e-05)
(-0.000183256 0.000603316 -9.64434e-05)
(-0.000235141 0.000585049 -9.64425e-05)
(-0.000285236 0.000562329 -9.64425e-05)
(-0.000333161 0.000535329 -9.64414e-05)
(-0.000378551 0.000504256 -9.64424e-05)
(-0.00042106 0.000469343 -9.64425e-05)
(-0.000460365 0.000430859 -9.64432e-05)
(-0.000496166 0.000389095 -9.64436e-05)
(-0.000528189 0.00034437 -9.64432e-05)
(-0.00055619 0.000297026 -9.64425e-05)
(-0.00057996 0.000247422 -9.64426e-05)
(-0.000599317 0.000195935 -9.64434e-05)
(-0.000614113 0.000142957 -9.64428e-05)
(-0.000624237 8.88892e-05 -9.64422e-05)
(-0.000629611 3.41433e-05 -9.64418e-05)
(-0.00063019 -2.08608e-05 -9.64418e-05)
(-0.000625972 -7.5706e-05 -9.64417e-05)
(-0.000616992 -0.000129975 -9.64416e-05)
(-0.000603316 -0.000183256 -9.64426e-05)
(-0.000585048 -0.00023514 -9.64417e-05)
(-0.000577715 -0.000195628 -0.000164979)
(-0.000558467 -0.000245234 -0.000164979)
(-0.000534969 -0.000292975 -0.000164978)
(-0.000507398 -0.000338487 -0.000164978)
(-0.000475967 -0.000381422 -0.000164979)
(-0.000440911 -0.000421453 -0.00016498)
(-0.000402499 -0.000458277 -0.000164982)
(-0.000361026 -0.000491612 -0.000164983)
(-0.000316808 -0.000521206 -0.000164983)
(-0.000270178 -0.000546834 -0.000164983)
(-0.000221492 -0.0005683 -0.000164981)
(-0.000171119 -0.000585442 -0.000164979)
(-0.000119441 -0.00059813 -0.000164977)
(-6.68561e-05 -0.000606266 -0.000164978)
(-1.37607e-05 -0.000609784 -0.00016498)
(3.94372e-05 -0.000608662 -0.000164981)
(9.23371e-05 -0.000602908 -0.00016498)
(0.000144532 -0.000592566 -0.00016498)
(0.000195628 -0.000577715 -0.00016498)
(0.000245234 -0.000558466 -0.00016498)
(0.000292976 -0.000534968 -0.000164979)
(0.000338487 -0.000507398 -0.000164979)
(0.000381423 -0.000475967 -0.00016498)
(0.000421453 -0.00044091 -0.000164981)
(0.000458277 -0.000402498 -0.000164983)
(0.000491612 -0.000361026 -0.000164984)
(0.000521206 -0.000316807 -0.000164984)
(0.000546834 -0.000270177 -0.000164984)
(0.0005683 -0.000221491 -0.000164982)
(0.000585442 -0.000171119 -0.00016498)
(0.00059813 -0.000119441 -0.000164978)
(0.000606265 -6.68555e-05 -0.000164979)
(0.000609784 -1.37603e-05 -0.000164981)
(0.000608662 3.94377e-05 -0.000164981)
(0.000602908 9.23374e-05 -0.000164981)
(0.000592566 0.000144532 -0.00016498)
(0.000577714 0.000195629 -0.000164981)
(0.000558466 0.000245234 -0.000164981)
(0.000534968 0.000292976 -0.00016498)
(0.000507398 0.000338487 -0.000164979)
(0.000475967 0.000381423 -0.000164981)
(0.00044091 0.000421453 -0.000164982)
(0.000402498 0.000458278 -0.000164983)
(0.000361026 0.000491612 -0.000164985)
(0.000316807 0.000521206 -0.000164985)
(0.000270177 0.000546834 -0.000164985)
(0.000221491 0.0005683 -0.000164982)
(0.000171119 0.000585442 -0.00016498)
(0.000119441 0.00059813 -0.000164978)
(6.68558e-05 0.000606265 -0.000164979)
(1.37606e-05 0.000609784 -0.00016498)
(-3.94373e-05 0.000608662 -0.000164981)
(-9.23371e-05 0.000602908 -0.00016498)
(-0.000144532 0.000592566 -0.00016498)
(-0.000195628 0.000577715 -0.00016498)
(-0.000245234 0.000558466 -0.00016498)
(-0.000292976 0.000534968 -0.000164979)
(-0.000338487 0.000507398 -0.000164979)
(-0.000381422 0.000475967 -0.00016498)
(-0.000421453 0.000440911 -0.000164981)
(-0.000458277 0.000402499 -0.000164982)
(-0.000491612 0.000361026 -0.000164984)
(-0.000521206 0.000316808 -0.000164984)
(-0.000546834 0.000270178 -0.000164984)
(-0.0005683 0.000221492 -0.000164981)
(-0.000585442 0.00017112 -0.000164979)
(-0.00059813 0.000119442 -0.000164977)
(-0.000606266 6.68564e-05 -0.000164978)
(-0.000609784 1.37611e-05 -0.000164979)
(-0.000608663 -3.94368e-05 -0.00016498)
(-0.000602908 -9.23366e-05 -0.000164979)
(-0.000592567 -0.000144532 -0.000164979)
(-0.00138192 -0.000203792 9.90787e-05)
(-0.0013589 -0.000323456 9.90812e-05)
(-0.00132553 -0.000440663 9.90744e-05)
(-0.00128208 -0.000554519 9.90706e-05)
(-0.00122887 -0.000664155 9.90687e-05)
(-0.00116631 -0.000768733 9.90725e-05)
(-0.00109487 -0.000867457 9.90796e-05)
(-0.00101511 -0.000959576 9.90853e-05)
(-0.000927615 -0.00104439 9.90877e-05)
(-0.000833063 -0.00112126 9.90851e-05)
(-0.000732166 -0.0011896 9.90777e-05)
(-0.000625696 -0.00124889 9.90716e-05)
(-0.000514466 -0.00129868 9.90723e-05)
(-0.000399323 -0.00133857 9.90757e-05)
(-0.000281141 -0.00136828 9.90785e-05)
(-0.000160818 -0.00138757 9.90782e-05)
(-3.92697e-05 -0.00139631 9.90724e-05)
(8.25777e-05 -0.00139442 9.90741e-05)
(0.000203794 -0.00138192 9.90774e-05)
(0.000323458 -0.0013589 9.90797e-05)
(0.000440665 -0.00132553 9.90727e-05)
(0.000554521 -0.00128208 9.90687e-05)
(0.000664157 -0.00122887 9.90667e-05)
(0.000768734 -0.00116631 9.90703e-05)
(0.000867459 -0.00109487 9.90772e-05)
(0.000959578 -0.00101511 9.90829e-05)
(0.00104439 -0.000927615 9.90851e-05)
(0.00112126 -0.000833062 9.90824e-05)
(0.0011896 -0.000732166 9.90751e-05)
(0.00124889 -0.000625696 9.9069e-05)
(0.00129868 -0.000514466 9.90699e-05)
(0.00133858 -0.000399322 9.90734e-05)
(0.00136828 -0.000281141 9.90763e-05)
(0.00138757 -0.000160818 9.90758e-05)
(0.00139631 -3.92692e-05 9.907e-05)
(0.00139442 8.25782e-05 9.90718e-05)
(0.00138192 0.000203795 9.90752e-05)
(0.0013589 0.000323458 9.90776e-05)
(0.00132553 0.000440665 9.90708e-05)
(0.00128208 0.000554522 9.9067e-05)
(0.00122887 0.000664157 9.90651e-05)
(0.00116631 0.000768735 9.9069e-05)
(0.00109488 0.000867459 9.90761e-05)
(0.00101511 0.000959578 9.90819e-05)
(0.000927616 0.00104439 9.90844e-05)
(0.000833063 0.00112126 9.90819e-05)
(0.000732167 0.0011896 9.90747e-05)
(0.000625697 0.00124889 9.9069e-05)
(0.000514467 0.00129868 9.90701e-05)
(0.000399324 0.00133858 9.90738e-05)
(0.000281143 0.00136828 9.90768e-05)
(0.00016082 0.00138757 9.90766e-05)
(3.92708e-05 0.00139631 9.90711e-05)
(-8.25766e-05 0.00139443 9.9073e-05)
(-0.000203793 0.00138192 9.90766e-05)
(-0.000323457 0.0013589 9.90792e-05)
(-0.000440664 0.00132553 9.90725e-05)
(-0.00055452 0.00128208 9.90689e-05)
(-0.000664156 0.00122887 9.90671e-05)
(-0.000768733 0.00116631 9.90711e-05)
(-0.000867458 0.00109488 9.90783e-05)
(-0.000959577 0.00101511 9.90842e-05)
(-0.00104439 0.000927617 9.90868e-05)
(-0.00112126 0.000833064 9.90844e-05)
(-0.0011896 0.000732168 9.90773e-05)
(-0.00124889 0.000625698 9.90715e-05)
(-0.00129868 0.000514468 9.90726e-05)
(-0.00133857 0.000399324 9.90763e-05)
(-0.00136828 0.000281143 9.90793e-05)
(-0.00138757 0.00016082 9.9079e-05)
(-0.00139631 3.92713e-05 9.90734e-05)
(-0.00139442 -8.2576e-05 9.90752e-05)
(-0.00153543 -0.000518657 -3.63256e-05)
(-0.00148438 -0.000650504 -3.63242e-05)
(-0.00142203 -0.000777402 -3.63257e-05)
(-0.00134887 -0.000898386 -3.63261e-05)
(-0.00126544 -0.00101253 -3.63269e-05)
(-0.00117237 -0.00111897 -3.63272e-05)
(-0.00107038 -0.00121689 -3.63264e-05)
(-0.000960253 -0.00130555 -3.63256e-05)
(-0.000842816 -0.00138427 -3.63244e-05)
(-0.000718966 -0.00145245 -3.63232e-05)
(-0.000589642 -0.00150959 -3.63236e-05)
(-0.000455829 -0.00155524 -3.63253e-05)
(-0.000318544 -0.00158905 -3.63257e-05)
(-0.000178837 -0.00161077 -3.6326e-05)
(-3.77683e-05 -0.00162022 -3.63261e-05)
(0.000103587 -0.00161734 -3.63258e-05)
(0.000244155 -0.00160216 -3.63268e-05)
(0.000382863 -0.00157479 -3.63259e-05)
(0.000518658 -0.00153543 -3.63269e-05)
(0.000650505 -0.00148438 -3.63258e-05)
(0.000777404 -0.00142203 -3.63275e-05)
(0.000898387 -0.00134887 -3.63281e-05)
(0.00101253 -0.00126544 -3.6329e-05)
(0.00111897 -0.00117237 -3.63295e-05)
(0.00121689 -0.00107038 -3.63288e-05)
(0.00130555 -0.000960252 -3.63281e-05)
(0.00138427 -0.000842815 -3.6327e-05)
(0.00145245 -0.000718965 -3.63259e-05)
(0.00150959 -0.000589641 -3.63263e-05)
(0.00155524 -0.000455828 -3.6328e-05)
(0.00158905 -0.000318543 -3.63283e-05)
(0.00161077 -0.000178836 -3.63286e-05)
(0.00162022 -3.77676e-05 -3.63286e-05)
(0.00161735 0.000103588 -3.63283e-05)
(0.00160216 0.000244155 -3.63292e-05)
(0.00157479 0.000382864 -3.63283e-05)
(0.00153543 0.000518659 -3.63292e-05)
(0.00148438 0.000650506 -3.6328e-05)
(0.00142203 0.000777404 -3.63296e-05)
(0.00134887 0.000898388 -3.633e-05)
(0.00126544 0.00101253 -3.63307e-05)
(0.00117237 0.00111897 -3.6331e-05)
(0.00107038 0.00121689 -3.63301e-05)
(0.000960253 0.00130555 -3.63292e-05)
(0.000842816 0.00138427 -3.63279e-05)
(0.000718966 0.00145245 -3.63266e-05)
(0.000589643 0.00150959 -3.63268e-05)
(0.000455829 0.00155524 -3.63282e-05)
(0.000318545 0.00158905 -3.63283e-05)
(0.000178837 0.00161077 -3.63284e-05)
(3.77689e-05 0.00162022 -3.63281e-05)
(-0.000103586 0.00161735 -3.63276e-05)
(-0.000244154 0.00160216 -3.63283e-05)
(-0.000382862 0.00157479 -3.63271e-05)
(-0.000518657 0.00153543 -3.63278e-05)
(-0.000650504 0.00148438 -3.63264e-05)
(-0.000777403 0.00142204 -3.63278e-05)
(-0.000898386 0.00134887 -3.6328e-05)
(-0.00101253 0.00126544 -3.63286e-05)
(-0.00111897 0.00117237 -3.63288e-05)
(-0.00121689 0.00107038 -3.63278e-05)
(-0.00130555 0.000960254 -3.63268e-05)
(-0.00138427 0.000842817 -3.63254e-05)
(-0.00145245 0.000718967 -3.6324e-05)
(-0.00150959 0.000589643 -3.63241e-05)
(-0.00155524 0.00045583 -3.63256e-05)
(-0.00158905 0.000318545 -3.63257e-05)
(-0.00161077 0.000178838 -3.63257e-05)
(-0.00162022 3.77697e-05 -3.63255e-05)
(-0.00161734 -0.000103585 -3.63251e-05)
(-0.00160216 -0.000244153 -3.63258e-05)
(-0.00157479 -0.000382862 -3.63247e-05)
(-0.00165804 -0.000423831 -5.5909e-05)
(-0.00161479 -0.000566726 -5.59084e-05)
(-0.00155925 -0.000705309 -5.59074e-05)
(-0.00149185 -0.000838525 -5.59057e-05)
(-0.00141309 -0.000965359 -5.59058e-05)
(-0.00132357 -0.00108484 -5.59088e-05)
(-0.00122398 -0.00119607 -5.59119e-05)
(-0.00111508 -0.00129819 -5.59153e-05)
(-0.000997692 -0.00139044 -5.59156e-05)
(-0.000872715 -0.0014721 -5.5913e-05)
(-0.000741096 -0.00154256 -5.59102e-05)
(-0.000603835 -0.00160129 -5.59078e-05)
(-0.000461974 -0.00164782 -5.59069e-05)
(-0.000316597 -0.00168181 -5.59081e-05)
(-0.000168811 -0.00170301 -5.59094e-05)
(-1.97423e-05 -0.00171124 -5.59105e-05)
(0.000129478 -0.00170645 -5.59093e-05)
(0.000277712 -0.00168867 -5.59084e-05)
(0.000423833 -0.00165804 -5.59103e-05)
(0.000566727 -0.00161479 -5.59099e-05)
(0.00070531 -0.00155925 -5.59091e-05)
(0.000838526 -0.00149185 -5.59076e-05)
(0.000965361 -0.00141309 -5.59079e-05)
(0.00108485 -0.00132357 -5.59111e-05)
(0.00119607 -0.00122398 -5.59143e-05)
(0.0012982 -0.00111508 -5.59178e-05)
(0.00139044 -0.000997691 -5.59182e-05)
(0.0014721 -0.000872713 -5.59156e-05)
(0.00154256 -0.000741095 -5.59129e-05)
(0.00160129 -0.000603834 -5.59105e-05)
(0.00164782 -0.000461973 -5.59096e-05)
(0.00168181 -0.000316596 -5.59107e-05)
(0.00170301 -0.00016881 -5.5912e-05)
(0.00171124 -1.97415e-05 -5.5913e-05)
(0.00170645 0.000129479 -5.59117e-05)
(0.00168867 0.000277713 -5.59107e-05)
(0.00165804 0.000423833 -5.59126e-05)
(0.00161479 0.000566728 -5.59121e-05)
(0.00155925 0.000705311 -5.59112e-05)
(0.00149185 0.000838527 -5.59095e-05)
(0.00141309 0.000965361 -5.59097e-05)
(0.00132357 0.00108485 -5.59127e-05)
(0.00122398 0.00119607 -5.59157e-05)
(0.00111508 0.0012982 -5.5919e-05)
(0.000997691 0.00139044 -5.59192e-05)
(0.000872714 0.0014721 -5.59164e-05)
(0.000741096 0.00154256 -5.59134e-05)
(0.000603835 0.00160129 -5.59108e-05)
(0.000461974 0.00164782 -5.59097e-05)
(0.000316597 0.00168181 -5.59106e-05)
(0.000168811 0.00170301 -5.59116e-05)
(1.97427e-05 0.00171124 -5.59124e-05)
(-0.000129477 0.00170645 -5.59109e-05)
(-0.000277711 0.00168867 -5.59097e-05)
(-0.000423832 0.00165804 -5.59113e-05)
(-0.000566727 0.00161479 -5.59106e-05)
(-0.000705309 0.00155925 -5.59095e-05)
(-0.000838526 0.00149185 -5.59076e-05)
(-0.00096536 0.00141309 -5.59076e-05)
(-0.00108484 0.00132357 -5.59105e-05)
(-0.00119607 0.00122398 -5.59134e-05)
(-0.00129819 0.00111508 -5.59166e-05)
(-0.00139044 0.000997692 -5.59168e-05)
(-0.0014721 0.000872715 -5.59139e-05)
(-0.00154256 0.000741097 -5.59108e-05)
(-0.00160129 0.000603836 -5.59082e-05)
(-0.00164782 0.000461975 -5.5907e-05)
(-0.00168181 0.000316599 -5.59079e-05)
(-0.00170301 0.000168812 -5.5909e-05)
(-0.00171124 1.97436e-05 -5.59098e-05)
(-0.00170645 -0.000129477 -5.59084e-05)
(-0.00168867 -0.000277711 -5.59073e-05)
(-0.00182591 -0.000470599 0.000169171)
(-0.00177795 -0.000627946 0.000169172)
(-0.00171645 -0.000780515 0.00016917)
(-0.00164189 -0.000927145 0.000169169)
(-0.00155483 -0.00106672 0.000169167)
(-0.00145595 -0.00119817 0.00016917)
(-0.00134598 -0.00132051 0.000169175)
(-0.00122577 -0.00143279 0.000169176)
(-0.00109623 -0.00153417 0.000169178)
(-0.000958349 -0.00162388 0.000169178)
(-0.000813172 -0.00170122 0.000169178)
(-0.000661805 -0.00176562 0.000169174)
(-0.000505402 -0.00181658 0.000169173)
(-0.000345154 -0.00185372 0.000169173)
(-0.000182279 -0.00187675 0.000169173)
(-1.80157e-05 -0.00188549 0.000169174)
(0.000146386 -0.00187989 0.00016917)
(0.000309673 -0.00185998 0.000169168)
(0.000470601 -0.00182591 0.000169169)
(0.000627948 -0.00177794 0.000169169)
(0.000780518 -0.00171645 0.000169167)
(0.000927147 -0.00164189 0.000169166)
(0.00106672 -0.00155483 0.000169163)
(0.00119818 -0.00145595 0.000169166)
(0.00132051 -0.00134598 0.000169172)
(0.0014328 -0.00122577 0.000169172)
(0.00153418 -0.00109623 0.000169174)
(0.00162388 -0.000958348 0.000169174)
(0.00170122 -0.000813171 0.000169174)
(0.00176562 -0.000661805 0.000169169)
(0.00181658 -0.000505402 0.000169169)
(0.00185372 -0.000345153 0.000169169)
(0.00187675 -0.000182278 0.000169169)
(0.00188549 -1.80147e-05 0.00016917)
(0.00187989 0.000146387 0.000169166)
(0.00185998 0.000309674 0.000169164)
(0.00182591 0.000470602 0.000169165)
(0.00177795 0.000627949 0.000169166)
(0.00171645 0.000780519 0.000169164)
(0.00164189 0.000927148 0.000169163)
(0.00155484 0.00106672 0.000169161)
(0.00145595 0.00119818 0.000169164)
(0.00134598 0.00132051 0.00016917)
(0.00122577 0.0014328 0.00016917)
(0.00109623 0.00153418 0.000169173)
(0.000958351 0.00162388 0.000169173)
(0.000813173 0.00170122 0.000169173)
(0.000661807 0.00176562 0.000169169)
(0.000505404 0.00181658 0.000169169)
(0.000345155 0.00185372 0.00016917)
(0.00018228 0.00187675 0.00016917)
(1.8017e-05 0.00188549 0.000169171)
(-0.000146385 0.00187989 0.000169168)
(-0.000309671 0.00185998 0.000169166)
(-0.0004706 0.00182591 0.000169168)
(-0.000627947 0.00177795 0.000169169)
(-0.000780516 0.00171645 0.000169167)
(-0.000927146 0.00164189 0.000169166)
(-0.00106672 0.00155484 0.000169164)
(-0.00119817 0.00145595 0.000169167)
(-0.00132051 0.00134598 0.000169173)
(-0.00143279 0.00122577 0.000169174)
(-0.00153417 0.00109623 0.000169177)
(-0.00162388 0.000958351 0.000169177)
(-0.00170122 0.000813174 0.000169178)
(-0.00176562 0.000661807 0.000169173)
(-0.00181658 0.000505405 0.000169173)
(-0.00185372 0.000345156 0.000169174)
(-0.00187675 0.000182281 0.000169174)
(-0.00188549 1.80179e-05 0.000169176)
(-0.00187989 -0.000146384 0.000169172)
(-0.00185998 -0.00030967 0.00016917)
(-0.00206949 -0.000501921 0.000130083)
(-0.00201787 -0.000680378 0.000130083)
(-0.00195089 -0.000853659 0.000130082)
(-0.00186906 -0.00102044 0.000130082)
(-0.00177301 -0.00117946 0.000130082)
(-0.00166347 -0.0013295 0.000130082)
(-0.00154126 -0.00146942 0.000130084)
(-0.00140733 -0.00159816 0.000130084)
(-0.00126269 -0.00171473 0.000130084)
(-0.00110843 -0.00181826 0.000130085)
(-0.000945746 -0.00190795 0.000130084)
(-0.000775859 -0.00198311 0.000130083)
(-0.000600066 -0.00204319 0.000130084)
(-0.000419707 -0.00208771 0.000130084)
(-0.000236154 -0.00211635 0.000130083)
(-5.08028e-05 -0.00212888 0.000130082)
(0.000134934 -0.0021252 0.000130082)
(0.000319645 -0.00210536 0.000130082)
(0.000501923 -0.00206949 0.000130081)
(0.000680381 -0.00201787 0.000130081)
(0.000853661 -0.00195089 0.000130079)
(0.00102044 -0.00186906 0.000130079)
(0.00117946 -0.00177301 0.000130078)
(0.0013295 -0.00166347 0.000130079)
(0.00146942 -0.00154126 0.00013008)
(0.00159816 -0.00140733 0.00013008)
(0.00171474 -0.00126269 0.00013008)
(0.00181826 -0.00110843 0.000130081)
(0.00190795 -0.000945745 0.00013008)
(0.00198312 -0.000775858 0.000130079)
(0.00204319 -0.000600065 0.000130079)
(0.00208772 -0.000419706 0.00013008)
(0.00211635 -0.000236153 0.000130079)
(0.00212888 -5.08017e-05 0.000130079)
(0.00212521 0.000134936 0.000130078)
(0.00210536 0.000319646 0.000130078)
(0.00206949 0.000501924 0.000130077)
(0.00201787 0.000680382 0.000130077)
(0.00195089 0.000853662 0.000130076)
(0.00186906 0.00102045 0.000130076)
(0.00177301 0.00117946 0.000130076)
(0.00166347 0.0013295 0.000130076)
(0.00154126 0.00146942 0.000130078)
(0.00140733 0.00159816 0.000130078)
(0.00126269 0.00171474 0.000130079)
(0.00110844 0.00181826 0.00013008)
(0.000945746 0.00190795 0.000130079)
(0.000775859 0.00198312 0.000130078)
(0.000600067 0.00204319 0.00013008)
(0.000419708 0.00208772 0.00013008)
(0.000236155 0.00211635 0.00013008)
(5.08039e-05 0.00212888 0.00013008)
(-0.000134933 0.00212521 0.000130079)
(-0.000319644 0.00210536 0.00013008)
(-0.000501922 0.00206949 0.00013008)
(-0.000680379 0.00201787 0.00013008)
(-0.00085366 0.00195089 0.000130079)
(-0.00102044 0.00186906 0.000130079)
(-0.00117946 0.00177301 0.000130079)
(-0.0013295 0.00166347 0.00013008)
(-0.00146942 0.00154126 0.000130081)
(-0.00159816 0.00140733 0.000130082)
(-0.00171474 0.00126269 0.000130083)
(-0.00181826 0.00110844 0.000130084)
(-0.00190795 0.000945747 0.000130083)
(-0.00198311 0.000775861 0.000130083)
(-0.00204319 0.000600068 0.000130084)
(-0.00208771 0.00041971 0.000130084)
(-0.00211635 0.000236156 0.000130084)
(-0.00212888 5.0805e-05 0.000130084)
(-0.00212521 -0.000134932 0.000130083)
(-0.00210536 -0.000319643 0.000130084)
(-0.00232526 -0.000371679 9.4681e-05)
(-0.00228402 -0.000572925 9.46805e-05)
(-0.00222539 -0.000769811 9.46804e-05)
(-0.00214983 -0.000960838 9.46807e-05)
(-0.0020579 -0.00114455 9.46808e-05)
(-0.00195032 -0.00131956 9.4681e-05)
(-0.00182789 -0.00148452 9.46802e-05)
(-0.00169155 -0.00163818 9.46794e-05)
(-0.00154234 -0.00177937 9.4678e-05)
(-0.00138139 -0.00190702 9.46787e-05)
(-0.00120992 -0.00202016 9.46781e-05)
(-0.00102925 -0.00211793 9.46786e-05)
(-0.000840746 -0.00219957 9.46785e-05)
(-0.000645841 -0.00226448 9.46787e-05)
(-0.00044602 -0.00231215 9.46782e-05)
(-0.000242806 -0.00234223 9.46783e-05)
(-3.77434e-05 -0.00235448 9.4679e-05)
(0.000167607 -0.00234881 9.46796e-05)
(0.000371681 -0.00232526 9.46791e-05)
(0.000572927 -0.00228402 9.46784e-05)
(0.000769813 -0.00222539 9.46781e-05)
(0.00096084 -0.00214983 9.4678e-05)
(0.00114455 -0.0020579 9.46779e-05)
(0.00131956 -0.00195032 9.46778e-05)
(0.00148452 -0.00182789 9.46769e-05)
(0.00163818 -0.00169155 9.46759e-05)
(0.00177937 -0.00154233 9.46743e-05)
(0.00190702 -0.00138138 9.4675e-05)
(0.00202016 -0.00120992 9.46743e-05)
(0.00211793 -0.00102925 9.46747e-05)
(0.00219958 -0.000840745 9.46747e-05)
(0.00226448 -0.00064584 9.46749e-05)
(0.00231215 -0.000446019 9.46745e-05)
(0.00234223 -0.000242805 9.46747e-05)
(0.00235448 -3.77424e-05 9.46755e-05)
(0.00234881 0.000167607 9.46762e-05)
(0.00232526 0.000371682 9.46759e-05)
(0.00228402 0.000572928 9.46753e-05)
(0.00222539 0.000769814 9.46752e-05)
(0.00214983 0.00096084 9.46753e-05)
(0.0020579 0.00114455 9.46754e-05)
(0.00195032 0.00131956 9.46756e-05)
(0.00182789 0.00148452 9.46749e-05)
(0.00169155 0.00163818 9.46742e-05)
(0.00154234 0.00177937 9.4673e-05)
(0.00138139 0.00190702 9.46739e-05)
(0.00120992 0.00202016 9.46736e-05)
(0.00102925 0.00211793 9.46743e-05)
(0.000840747 0.00219958 9.46746e-05)
(0.000645842 0.00226448 9.46752e-05)
(0.000446021 0.00231215 9.46751e-05)
(0.000242807 0.00234223 9.46756e-05)
(3.77445e-05 0.00235448 9.46767e-05)
(-0.000167605 0.00234881 9.46778e-05)
(-0.00037168 0.00232526 9.46777e-05)
(-0.000572926 0.00228402 9.46775e-05)
(-0.000769812 0.00222539 9.46776e-05)
(-0.000960838 0.00214983 9.46781e-05)
(-0.00114455 0.00205791 9.46784e-05)
(-0.00131956 0.00195032 9.46787e-05)
(-0.00148452 0.00182789 9.46782e-05)
(-0.00163818 0.00169155 9.46776e-05)
(-0.00177937 0.00154234 9.46765e-05)
(-0.00190702 0.00138139 9.46775e-05)
(-0.00202016 0.00120993 9.46773e-05)
(-0.00211793 0.00102925 9.46781e-05)
(-0.00219957 0.000840748 9.46784e-05)
(-0.00226448 0.000645843 9.46789e-05)
(-0.00231215 0.000446022 9.46788e-05)
(-0.00234223 0.000242808 9.46792e-05)
(-0.00235448 3.77455e-05 9.46802e-05)
(-0.00234881 -0.000167604 9.46811e-05)
(-0.00173879 -0.000549006 0.000200928)
(-0.00168433 -0.000698462 0.000200926)
(-0.00161704 -0.000842603 0.000200923)
(-0.00153745 -0.000980332 0.000200923)
(-0.00144615 -0.0011106 0.000200924)
(-0.00134386 -0.00123242 0.000200925)
(-0.00123133 -0.00134485 0.000200928)
(-0.00110943 -0.00144705 0.000200929)
(-0.000979091 -0.00153824 0.000200929)
(-0.0008413 -0.00161772 0.000200926)
(-0.000697106 -0.00168489 0.000200927)
(-0.000547607 -0.00173923 0.000200927)
(-0.000393938 -0.00178034 0.000200928)
(-0.000237272 -0.0018079 0.000200927)
(-7.8801e-05 -0.0018217 0.000200927)
(8.02708e-05 -0.00182164 0.000200927)
(0.000238731 -0.00180771 0.000200925)
(0.000395375 -0.00178002 0.000200924)
(0.000549009 -0.00173879 0.000200925)
(0.000698465 -0.00168432 0.000200923)
(0.000842606 -0.00161704 0.000200919)
(0.000980335 -0.00153745 0.000200919)
(0.0011106 -0.00144615 0.000200919)
(0.00123242 -0.00134386 0.00020092)
(0.00134485 -0.00123133 0.000200923)
(0.00144706 -0.00110943 0.000200924)
(0.00153824 -0.000979091 0.000200924)
(0.00161772 -0.000841299 0.00020092)
(0.00168489 -0.000697106 0.000200921)
(0.00173924 -0.000547606 0.000200921)
(0.00178035 -0.000393938 0.000200922)
(0.0018079 -0.000237272 0.000200922)
(0.0018217 -7.88002e-05 0.000200922)
(0.00182164 8.02716e-05 0.000200922)
(0.00180771 0.000238732 0.00020092)
(0.00178003 0.000395376 0.00020092)
(0.00173879 0.00054901 0.00020092)
(0.00168433 0.000698466 0.000200919)
(0.00161704 0.000842607 0.000200915)
(0.00153745 0.000980336 0.000200916)
(0.00144616 0.0011106 0.000200916)
(0.00134386 0.00123242 0.000200917)
(0.00123133 0.00134486 0.000200921)
(0.00110943 0.00144706 0.000200922)
(0.000979094 0.00153824 0.000200922)
(0.000841302 0.00161772 0.000200919)
(0.000697109 0.00168489 0.000200921)
(0.000547609 0.00173924 0.000200921)
(0.000393941 0.00178035 0.000200923)
(0.000237274 0.00180791 0.000200922)
(7.88031e-05 0.00182171 0.000200923)
(-8.02687e-05 0.00182164 0.000200924)
(-0.000238729 0.00180771 0.000200922)
(-0.000395373 0.00178003 0.000200922)
(-0.000549007 0.0017388 0.000200923)
(-0.000698463 0.00168433 0.000200922)
(-0.000842604 0.00161704 0.000200919)
(-0.000980333 0.00153745 0.00020092)
(-0.0011106 0.00144616 0.00020092)
(-0.00123242 0.00134386 0.000200922)
(-0.00134485 0.00123133 0.000200926)
(-0.00144705 0.00110944 0.000200927)
(-0.00153824 0.000979094 0.000200927)
(-0.00161772 0.000841303 0.000200924)
(-0.00168489 0.000697109 0.000200926)
(-0.00173923 0.00054761 0.000200926)
(-0.00178034 0.000393941 0.000200928)
(-0.0018079 0.000237275 0.000200928)
(-0.0018217 7.88039e-05 0.000200928)
(-0.00182164 -8.02679e-05 0.000200929)
(-0.00180771 -0.000238729 0.000200927)
(-0.00178002 -0.000395372 0.000200927)
(-0.00201705 -0.000340634 0.000174779)
(-0.00197968 -0.000515135 0.000174779)
(-0.00192725 -0.000685715 0.000174777)
(-0.00186015 -0.000851077 0.000174776)
(-0.0017789 -0.00100996 0.000174777)
(-0.0016841 -0.00116116 0.000174778)
(-0.00157649 -0.00130352 0.00017478)
(-0.00145688 -0.00143596 0.000174781)
(-0.00132619 -0.00155747 0.00017478)
(-0.0011854 -0.00166713 0.000174779)
(-0.00103559 -0.0017641 0.000174779)
(-0.000877896 -0.00184765 0.000174778)
(-0.000713523 -0.00191713 0.000174779)
(-0.000543718 -0.00197202 0.000174779)
(-0.000369776 -0.00201191 0.000174779)
(-0.00019302 -0.00203648 0.000174777)
(-1.47946e-05 -0.00204555 0.000174777)
(0.000163543 -0.00203906 0.000174777)
(0.000340637 -0.00201705 0.000174777)
(0.000515138 -0.00197968 0.000174776)
(0.000685718 -0.00192725 0.000174774)
(0.000851081 -0.00186015 0.000174772)
(0.00100997 -0.0017789 0.000174773)
(0.00116116 -0.0016841 0.000174774)
(0.00130353 -0.00157649 0.000174775)
(0.00143597 -0.00145688 0.000174776)
(0.00155748 -0.00132619 0.000174776)
(0.00166714 -0.0011854 0.000174774)
(0.00176411 -0.00103559 0.000174773)
(0.00184765 -0.000877895 0.000174773)
(0.00191713 -0.000713522 0.000174773)
(0.00197203 -0.000543717 0.000174774)
(0.00201191 -0.000369775 0.000174774)
(0.00203648 -0.000193019 0.000174773)
(0.00204556 -1.47936e-05 0.000174773)
(0.00203906 0.000163544 0.000174773)
(0.00201705 0.000340638 0.000174773)
(0.00197969 0.000515139 0.000174772)
(0.00192725 0.000685719 0.00017477)
(0.00186016 0.000851082 0.000174769)
(0.0017789 0.00100997 0.00017477)