/*--------------------------------*- C++ -*----------------------------------*\
| =========                 |                                                 |
| \\      /  F ield         | OpenFOAM: The Open Source CFD Toolbox           |
|  \\    /   O peration     | Version:  2312                                  |
|   \\  /    A nd           | Website:  www.openfoam.com                      |
|    \\/     M anipulation  |                                                 |
\*---------------------------------------------------------------------------*/
FoamFile
{
    version     2.0;
    format      ascii;
    arch        "LSB;label=32;scalar=64";
    class       volVectorField;
    location    "0.2";
    object      D;
}
// * * * * * * * * * * * * * * * * * * * * * * * * * * * * * * * * * * * * * //

dimensions      [0 1 0 0 0 0 0];

internalField   nonuniform List<vector> 
12960
(
(6.59524e-05 -8.77648e-05 7.74682e-06)
(7.33506e-05 -8.16827e-05 7.74683e-06)
(8.01907e-05 -7.49791e-05 7.74683e-06)
(8.64202e-05 -6.77044e-05 7.7468e-06)
(9.19924e-05 -5.99149e-05 7.74681e-06)
(9.6864e-05 -5.16692e-05 7.74683e-06)
(0.000100999 -4.30303e-05 7.74684e-06)
(0.000104365 -3.4064e-05 7.74676e-06)
(0.000106936 -2.48383e-05 7.74674e-06)
(0.000108694 -1.54237e-05 7.74678e-06)
(0.000109625 -5.89169e-06 7.74681e-06)
(0.000109721 3.68526e-06 7.74684e-06)
(0.000108982 1.32341e-05 7.74687e-06)
(0.000107415 2.26822e-05 7.74689e-06)
(0.000105029 3.19576e-05 7.74684e-06)
(0.000101844 4.099e-05 7.74682e-06)
(9.78839e-05 4.97102e-05 7.74681e-06)
(9.31789e-05 5.80522e-05 7.74679e-06)
(8.77648e-05 6.59524e-05 7.74682e-06)
(8.16827e-05 7.33506e-05 7.74683e-06)
(7.49791e-05 8.01907e-05 7.74683e-06)
(6.77044e-05 8.64202e-05 7.7468e-06)
(5.99149e-05 9.19924e-05 7.74681e-06)
(5.16692e-05 9.6864e-05 7.74683e-06)
(4.30303e-05 0.000100999 7.74684e-06)
(3.4064e-05 0.000104365 7.74676e-06)
(2.48383e-05 0.000106936 7.74674e-06)
(1.54237e-05 0.000108694 7.74678e-06)
(5.89169e-06 0.000109625 7.74681e-06)
(-3.68526e-06 0.000109721 7.74684e-06)
(-1.32341e-05 0.000108982 7.74687e-06)
(-2.26822e-05 0.000107415 7.74689e-06)
(-3.19576e-05 0.000105029 7.74684e-06)
(-4.099e-05 0.000101844 7.74682e-06)
(-4.97102e-05 9.78839e-05 7.74681e-06)
(-5.80522e-05 9.31789e-05 7.74679e-06)
(-6.59524e-05 8.77648e-05 7.74682e-06)
(-7.33506e-05 8.16827e-05 7.74683e-06)
(-8.01907e-05 7.49791e-05 7.74683e-06)
(-8.64202e-05 6.77044e-05 7.7468e-06)
(-9.19924e-05 5.99149e-05 7.74681e-06)
(-9.6864e-05 5.16692e-05 7.74683e-06)
(-0.000100999 4.30303e-05 7.74684e-06)
(-0.000104365 3.4064e-05 7.74676e-06)
(-0.000106936 2.48383e-05 7.74674e-06)
(-0.000108694 1.54237e-05 7.74678e-06)
(-0.000109625 5.89169e-06 7.74681e-06)
(-0.000109721 -3.68526e-06 7.74684e-06)
(-0.000108982 -1.32341e-05 7.74687e-06)
(-0.000107415 -2.26822e-05 7.74689e-06)
(-0.000105029 -3.19576e-05 7.74684e-06)
(-0.000101844 -4.099e-05 7.74682e-06)
(-9.78839e-05 -4.97102e-05 7.74681e-06)
(-9.31789e-05 -5.80522e-05 7.74679e-06)
(-8.77648e-05 -6.59524e-05 7.74682e-06)
(-8.16827e-05 -7.33506e-05 7.74683e-06)
(-7.49791e-05 -8.01907e-05 7.74683e-06)
(-6.77044e-05 -8.64202e-05 7.7468e-06)
(-5.99149e-05 -9.19924e-05 7.74681e-06)
(-5.16692e-05 -9.6864e-05 7.74683e-06)
(-4.30303e-05 -0.000100999 7.74684e-06)
(-3.4064e-05 -0.000104365 7.74676e-06)
(-2.48383e-05 -0.000106936 7.74674e-06)
(-1.54237e-05 -0.000108694 7.74678e-06)
(-5.89169e-06 -0.000109625 7.74681e-06)
(3.68526e-06 -0.000109721 7.74684e-06)
(1.32341e-05 -0.000108982 7.74687e-06)
(2.26822e-05 -0.000107415 7.74689e-06)
(3.19576e-05 -0.000105029 7.74684e-06)
(4.099e-05 -0.000101844 7.74682e-06)
(4.97102e-05 -9.78839e-05 7.74681e-06)
(5.80522e-05 -9.31789e-05 7.74679e-06)
(5.80139e-05 -9.1404e-05 8.90731e-06)
(6.57594e-05 -8.59997e-05 8.9073e-06)
(7.30046e-05 -7.99414e-05 8.9073e-06)
(7.96943e-05 -7.32745e-05 8.90732e-06)
(8.57773e-05 -6.60497e-05 8.90731e-06)
(9.12076e-05 -5.83225e-05 8.90731e-06)
(9.59437e-05 -5.01514e-05 8.90733e-06)
(9.99496e-05 -4.15984e-05 8.90731e-06)
(0.000103195 -3.27289e-05 8.90729e-06)
(0.000105654 -2.36104e-05 8.90731e-06)
(0.00010731 -1.43122e-05 8.90733e-06)
(0.000108149 -4.90494e-06 8.90733e-06)
(0.000108165 4.53953e-06 8.90734e-06)
(0.000107358 1.39495e-05 8.90734e-06)
(0.000105734 2.32532e-05 8.90734e-06)
(0.000103304 3.238e-05 8.90732e-06)
(0.000100089 4.12603e-05 8.90731e-06)
(9.61124e-05 4.98268e-05 8.90732e-06)
(9.1404e-05 5.80139e-05 8.90731e-06)
(8.59997e-05 6.57594e-05 8.9073e-06)
(7.99414e-05 7.30046e-05 8.9073e-06)
(7.32745e-05 7.96943e-05 8.90732e-06)
(6.60497e-05 8.57773e-05 8.90731e-06)
(5.83225e-05 9.12076e-05 8.90731e-06)
(5.01514e-05 9.59437e-05 8.90733e-06)
(4.15984e-05 9.99496e-05 8.90731e-06)
(3.27289e-05 0.000103195 8.90729e-06)
(2.36104e-05 0.000105654 8.90731e-06)
(1.43122e-05 0.00010731 8.90733e-06)
(4.90494e-06 0.000108149 8.90733e-06)
(-4.53953e-06 0.000108165 8.90734e-06)
(-1.39495e-05 0.000107358 8.90734e-06)
(-2.32532e-05 0.000105734 8.90734e-06)
(-3.238e-05 0.000103304 8.90732e-06)
(-4.12603e-05 0.000100089 8.90731e-06)
(-4.98268e-05 9.61124e-05 8.90732e-06)
(-5.80139e-05 9.1404e-05 8.90731e-06)
(-6.57594e-05 8.59997e-05 8.9073e-06)
(-7.30046e-05 7.99414e-05 8.9073e-06)
(-7.96943e-05 7.32745e-05 8.90732e-06)
(-8.57773e-05 6.60497e-05 8.90731e-06)
(-9.12076e-05 5.83225e-05 8.90731e-06)
(-9.59437e-05 5.01514e-05 8.90733e-06)
(-9.99496e-05 4.15984e-05 8.90731e-06)
(-0.000103195 3.27289e-05 8.90729e-06)
(-0.000105654 2.36104e-05 8.90731e-06)
(-0.00010731 1.43122e-05 8.90733e-06)
(-0.000108149 4.90494e-06 8.90733e-06)
(-0.000108165 -4.53953e-06 8.90734e-06)
(-0.000107358 -1.39495e-05 8.90734e-06)
(-0.000105734 -2.32532e-05 8.90734e-06)
(-0.000103304 -3.238e-05 8.90732e-06)
(-0.000100089 -4.12603e-05 8.90731e-06)
(-9.61124e-05 -4.98268e-05 8.90731e-06)
(-9.1404e-05 -5.80139e-05 8.90731e-06)
(-8.59997e-05 -6.57594e-05 8.9073e-06)
(-7.99414e-05 -7.30046e-05 8.9073e-06)
(-7.32745e-05 -7.96943e-05 8.90732e-06)
(-6.60497e-05 -8.57773e-05 8.90731e-06)
(-5.83225e-05 -9.12076e-05 8.90731e-06)
(-5.01514e-05 -9.59437e-05 8.90733e-06)
(-4.15984e-05 -9.99496e-05 8.9073e-06)
(-3.27289e-05 -0.000103195 8.90729e-06)
(-2.36104e-05 -0.000105654 8.90731e-06)
(-1.43122e-05 -0.00010731 8.90733e-06)
(-4.90494e-06 -0.000108149 8.90733e-06)
(4.53953e-06 -0.000108165 8.90734e-06)
(1.39495e-05 -0.000107358 8.90734e-06)
(2.32532e-05 -0.000105734 8.90734e-06)
(3.238e-05 -0.000103304 8.90732e-06)
(4.12603e-05 -0.000100089 8.90731e-06)
(4.98268e-05 -9.61124e-05 8.90731e-06)
(4.94237e-05 -9.49252e-05 9.28915e-06)
(5.75089e-05 -9.02565e-05 9.28916e-06)
(6.51565e-05 -8.49009e-05 9.28916e-06)
(7.23081e-05 -7.88989e-05 9.28915e-06)
(7.89096e-05 -7.22968e-05 9.2892e-06)
(8.49101e-05 -6.51441e-05 9.28914e-06)
(9.02645e-05 -5.74957e-05 9.28913e-06)
(9.49323e-05 -4.94099e-05 9.28914e-06)
(9.88773e-05 -4.0948e-05 9.28914e-06)
(0.00010207 -3.21744e-05 9.28913e-06)
(0.000104486 -2.3156e-05 9.28915e-06)
(0.000106106 -1.39613e-05 9.28913e-06)
(0.000106919 -4.66044e-06 9.28916e-06)
(0.000106919 4.67596e-06 9.28919e-06)
(0.000106104 1.39767e-05 9.28917e-06)
(0.000104483 2.31712e-05 9.28916e-06)
(0.000102065 3.21893e-05 9.28918e-06)
(9.88715e-05 4.09624e-05 9.28916e-06)
(9.49252e-05 4.94237e-05 9.28915e-06)
(9.02565e-05 5.75089e-05 9.28916e-06)
(8.49009e-05 6.51565e-05 9.28916e-06)
(7.88989e-05 7.23081e-05 9.28915e-06)
(7.22968e-05 7.89096e-05 9.2892e-06)
(6.51441e-05 8.49101e-05 9.28914e-06)
(5.74957e-05 9.02645e-05 9.28913e-06)
(4.94099e-05 9.49323e-05 9.28914e-06)
(4.0948e-05 9.88773e-05 9.28914e-06)
(3.21744e-05 0.00010207 9.28913e-06)
(2.3156e-05 0.000104486 9.28915e-06)
(1.39613e-05 0.000106106 9.28913e-06)
(4.66044e-06 0.000106919 9.28916e-06)
(-4.67596e-06 0.000106919 9.28919e-06)
(-1.39767e-05 0.000106104 9.28917e-06)
(-2.31712e-05 0.000104483 9.28916e-06)
(-3.21893e-05 0.000102065 9.28918e-06)
(-4.09624e-05 9.88715e-05 9.28916e-06)
(-4.94237e-05 9.49252e-05 9.28915e-06)
(-5.75089e-05 9.02565e-05 9.28916e-06)
(-6.51565e-05 8.49009e-05 9.28916e-06)
(-7.23081e-05 7.88989e-05 9.28915e-06)
(-7.89096e-05 7.22968e-05 9.2892e-06)
(-8.49101e-05 6.51441e-05 9.28914e-06)
(-9.02645e-05 5.74957e-05 9.28913e-06)
(-9.49323e-05 4.94099e-05 9.28914e-06)
(-9.88773e-05 4.0948e-05 9.28914e-06)
(-0.00010207 3.21744e-05 9.28913e-06)
(-0.000104486 2.3156e-05 9.28915e-06)
(-0.000106106 1.39613e-05 9.28913e-06)
(-0.000106919 4.66044e-06 9.28916e-06)
(-0.000106919 -4.67596e-06 9.28919e-06)
(-0.000106104 -1.39767e-05 9.28917e-06)
(-0.000104483 -2.31712e-05 9.28916e-06)
(-0.000102065 -3.21893e-05 9.28918e-06)
(-9.88715e-05 -4.09624e-05 9.28916e-06)
(-9.49252e-05 -4.94237e-05 9.28915e-06)
(-9.02565e-05 -5.75089e-05 9.28916e-06)
(-8.49009e-05 -6.51565e-05 9.28916e-06)
(-7.88989e-05 -7.23081e-05 9.28915e-06)
(-7.22968e-05 -7.89096e-05 9.2892e-06)
(-6.51441e-05 -8.49101e-05 9.28914e-06)
(-5.74957e-05 -9.02645e-05 9.28913e-06)
(-4.94099e-05 -9.49323e-05 9.28914e-06)
(-4.0948e-05 -9.88773e-05 9.28914e-06)
(-3.21744e-05 -0.00010207 9.28913e-06)
(-2.3156e-05 -0.000104486 9.28915e-06)
(-1.39613e-05 -0.000106106 9.28913e-06)
(-4.66044e-06 -0.000106919 9.28916e-06)
(4.67596e-06 -0.000106919 9.28919e-06)
(1.39767e-05 -0.000106104 9.28917e-06)
(2.31712e-05 -0.000104483 9.28916e-06)
(3.21893e-05 -0.000102065 9.28918e-06)
(4.09624e-05 -9.88715e-05 9.28916e-06)
(3.94681e-05 -9.79642e-05 9.72302e-06)
(4.7856e-05 -9.41516e-05 9.72302e-06)
(5.58799e-05 -8.96226e-05 9.72306e-06)
(6.34781e-05 -8.44109e-05 9.72303e-06)
(7.05934e-05 -7.85572e-05 9.72304e-06)
(7.71716e-05 -7.21058e-05 9.72305e-06)
(8.31623e-05 -6.51055e-05 9.72307e-06)
(8.85203e-05 -5.76097e-05 9.72307e-06)
(9.32046e-05 -4.96755e-05 9.72303e-06)
(9.71794e-05 -4.13632e-05 9.72304e-06)
(0.000100415 -3.27359e-05 9.72306e-06)
(0.000102885 -2.38597e-05 9.72306e-06)
(0.000104573 -1.48018e-05 9.72306e-06)
(0.000105465 -5.63124e-06 9.723e-06)
(0.000105555 3.58208e-06 9.72303e-06)
(0.000104841 1.27682e-05 9.72306e-06)
(0.000103329 2.18571e-05 9.72304e-06)
(0.000101031 3.07797e-05 9.72302e-06)
(9.79642e-05 3.94681e-05 9.72302e-06)
(9.41516e-05 4.7856e-05 9.72302e-06)
(8.96226e-05 5.58799e-05 9.72306e-06)
(8.44109e-05 6.34781e-05 9.72303e-06)
(7.85572e-05 7.05934e-05 9.72304e-06)
(7.21058e-05 7.71716e-05 9.72305e-06)
(6.51055e-05 8.31623e-05 9.72307e-06)
(5.76097e-05 8.85203e-05 9.72307e-06)
(4.96755e-05 9.32046e-05 9.72303e-06)
(4.13632e-05 9.71794e-05 9.72304e-06)
(3.27359e-05 0.000100415 9.72306e-06)
(2.38597e-05 0.000102885 9.72306e-06)
(1.48018e-05 0.000104573 9.72306e-06)
(5.63124e-06 0.000105465 9.723e-06)
(-3.58208e-06 0.000105555 9.72303e-06)
(-1.27682e-05 0.000104841 9.72306e-06)
(-2.18571e-05 0.000103329 9.72304e-06)
(-3.07797e-05 0.000101031 9.72302e-06)
(-3.94681e-05 9.79642e-05 9.72302e-06)
(-4.7856e-05 9.41516e-05 9.72302e-06)
(-5.58799e-05 8.96226e-05 9.72306e-06)
(-6.34781e-05 8.44109e-05 9.72303e-06)
(-7.05934e-05 7.85572e-05 9.72304e-06)
(-7.71716e-05 7.21058e-05 9.72305e-06)
(-8.31623e-05 6.51055e-05 9.72307e-06)
(-8.85203e-05 5.76097e-05 9.72307e-06)
(-9.32046e-05 4.96755e-05 9.72303e-06)
(-9.71794e-05 4.13632e-05 9.72304e-06)
(-0.000100415 3.27359e-05 9.72306e-06)
(-0.000102885 2.38597e-05 9.72306e-06)
(-0.000104573 1.48018e-05 9.72306e-06)
(-0.000105465 5.63124e-06 9.723e-06)
(-0.000105555 -3.58208e-06 9.72303e-06)
(-0.000104841 -1.27682e-05 9.72306e-06)
(-0.000103329 -2.18571e-05 9.72304e-06)
(-0.000101031 -3.07797e-05 9.72302e-06)
(-9.79642e-05 -3.94681e-05 9.72302e-06)
(-9.41516e-05 -4.7856e-05 9.72302e-06)
(-8.96226e-05 -5.58799e-05 9.72306e-06)
(-8.44109e-05 -6.34781e-05 9.72303e-06)
(-7.85572e-05 -7.05934e-05 9.72304e-06)
(-7.21058e-05 -7.71716e-05 9.72305e-06)
(-6.51055e-05 -8.31623e-05 9.72307e-06)
(-5.76097e-05 -8.85203e-05 9.72307e-06)
(-4.96755e-05 -9.32046e-05 9.72303e-06)
(-4.13632e-05 -9.71794e-05 9.72304e-06)
(-3.27359e-05 -0.000100415 9.72306e-06)
(-2.38597e-05 -0.000102885 9.72306e-06)
(-1.48018e-05 -0.000104573 9.72306e-06)
(-5.63124e-06 -0.000105465 9.723e-06)
(3.58208e-06 -0.000105555 9.72303e-06)
(1.27682e-05 -0.000104841 9.72306e-06)
(2.18571e-05 -0.000103329 9.72304e-06)
(3.07797e-05 -0.000101031 9.72302e-06)
(2.73083e-05 -0.000100264 1.09198e-05)
(3.5943e-05 -9.75024e-05 1.09199e-05)
(4.43039e-05 -9.39984e-05 1.09199e-05)
(5.23279e-05 -8.97795e-05 1.09199e-05)
(5.99535e-05 -8.48771e-05 1.09199e-05)
(6.71229e-05 -7.93288e-05 1.09199e-05)
(7.37813e-05 -7.31766e-05 1.09199e-05)
(7.98784e-05 -6.64677e-05 1.09198e-05)
(8.53679e-05 -5.92533e-05 1.09199e-05)
(9.02073e-05 -5.15875e-05 1.09199e-05)
(9.43597e-05 -4.35289e-05 1.09198e-05)
(9.77943e-05 -3.51392e-05 1.09199e-05)
(0.000100485 -2.64822e-05 1.09198e-05)
(0.000102411 -1.76236e-05 1.09198e-05)
(0.000103557 -8.6309e-06 1.09199e-05)
(0.000103915 4.27536e-07 1.09199e-05)
(0.000103483 9.4828e-06 1.09199e-05)
(0.000102262 1.84658e-05 1.09198e-05)
(0.000100264 2.73083e-05 1.09198e-05)
(9.75024e-05 3.5943e-05 1.09199e-05)
(9.39984e-05 4.43039e-05 1.09199e-05)
(8.97795e-05 5.23279e-05 1.09199e-05)
(8.48771e-05 5.99535e-05 1.09199e-05)
(7.93288e-05 6.71229e-05 1.09199e-05)
(7.31766e-05 7.37813e-05 1.09199e-05)
(6.64677e-05 7.98784e-05 1.09198e-05)
(5.92533e-05 8.53679e-05 1.09199e-05)
(5.15875e-05 9.02073e-05 1.09199e-05)
(4.35289e-05 9.43597e-05 1.09198e-05)
(3.51392e-05 9.77943e-05 1.09199e-05)
(2.64822e-05 0.000100485 1.09198e-05)
(1.76236e-05 0.000102411 1.09198e-05)
(8.6309e-06 0.000103557 1.09199e-05)
(-4.27536e-07 0.000103915 1.09199e-05)
(-9.4828e-06 0.000103483 1.09199e-05)
(-1.84658e-05 0.000102262 1.09198e-05)
(-2.73083e-05 0.000100264 1.09198e-05)
(-3.5943e-05 9.75024e-05 1.09199e-05)
(-4.43039e-05 9.39984e-05 1.09199e-05)
(-5.23279e-05 8.97795e-05 1.09199e-05)
(-5.99535e-05 8.48771e-05 1.09199e-05)
(-6.71229e-05 7.93288e-05 1.09199e-05)
(-7.37813e-05 7.31766e-05 1.09199e-05)
(-7.98784e-05 6.64677e-05 1.09198e-05)
(-8.53679e-05 5.92533e-05 1.09199e-05)
(-9.02073e-05 5.15875e-05 1.09199e-05)
(-9.43597e-05 4.35289e-05 1.09198e-05)
(-9.77943e-05 3.51392e-05 1.09199e-05)
(-0.000100485 2.64822e-05 1.09198e-05)
(-0.000102411 1.76236e-05 1.09198e-05)
(-0.000103557 8.6309e-06 1.09199e-05)
(-0.000103915 -4.27536e-07 1.09199e-05)
(-0.000103483 -9.4828e-06 1.09199e-05)
(-0.000102262 -1.84658e-05 1.09198e-05)
(-0.000100264 -2.73083e-05 1.09198e-05)
(-9.75024e-05 -3.5943e-05 1.09199e-05)
(-9.39984e-05 -4.43039e-05 1.09199e-05)
(-8.97795e-05 -5.23279e-05 1.09199e-05)
(-8.48771e-05 -5.99535e-05 1.09199e-05)
(-7.93288e-05 -6.71229e-05 1.09199e-05)
(-7.31766e-05 -7.37813e-05 1.09199e-05)
(-6.64677e-05 -7.98784e-05 1.09198e-05)
(-5.92533e-05 -8.53679e-05 1.09199e-05)
(-5.15875e-05 -9.02073e-05 1.09199e-05)
(-4.35289e-05 -9.43597e-05 1.09198e-05)
(-3.51392e-05 -9.77943e-05 1.09199e-05)
(-2.64822e-05 -0.000100485 1.09198e-05)
(-1.76236e-05 -0.000102411 1.09198e-05)
(-8.6309e-06 -0.000103557 1.09199e-05)
(4.27536e-07 -0.000103915 1.09199e-05)
(9.4828e-06 -0.000103483 1.09199e-05)
(1.84658e-05 -0.000102262 1.09198e-05)
(9.66126e-06 -0.00010213 1.20906e-05)
(1.85257e-05 -0.000100899 1.20906e-05)
(2.72492e-05 -9.8901e-05 1.20906e-05)
(3.57656e-05 -9.61504e-05 1.20907e-05)
(4.40095e-05 -9.26671e-05 1.20906e-05)
(5.19184e-05 -8.84787e-05 1.20906e-05)
(5.94322e-05 -8.36169e-05 1.20906e-05)
(6.64935e-05 -7.81187e-05 1.20906e-05)
(7.30491e-05 -7.20263e-05 1.20907e-05)
(7.90487e-05 -6.53856e-05 1.20907e-05)
(8.44465e-05 -5.82471e-05 1.20906e-05)
(8.92019e-05 -5.06655e-05 1.20906e-05)
(9.32782e-05 -4.26983e-05 1.20906e-05)
(9.66449e-05 -3.44061e-05 1.20906e-05)
(9.9276e-05 -2.58522e-05 1.20906e-05)
(0.000101151 -1.71013e-05 1.20906e-05)
(0.000102256 -8.22025e-06 1.20906e-05)
(0.000102584 7.23279e-07 1.20907e-05)
(0.00010213 9.66126e-06 1.20906e-05)
(0.000100899 1.85257e-05 1.20906e-05)
(9.8901e-05 2.72492e-05 1.20906e-05)
(9.61504e-05 3.57656e-05 1.20907e-05)
(9.26671e-05 4.40095e-05 1.20906e-05)
(8.84787e-05 5.19184e-05 1.20906e-05)
(8.36169e-05 5.94322e-05 1.20906e-05)
(7.81187e-05 6.64935e-05 1.20906e-05)
(7.20263e-05 7.30491e-05 1.20907e-05)
(6.53856e-05 7.90487e-05 1.20907e-05)
(5.82471e-05 8.44465e-05 1.20906e-05)
(5.06655e-05 8.92019e-05 1.20906e-05)
(4.26983e-05 9.32782e-05 1.20906e-05)
(3.44061e-05 9.66449e-05 1.20906e-05)
(2.58522e-05 9.9276e-05 1.20906e-05)
(1.71013e-05 0.000101151 1.20906e-05)
(8.22025e-06 0.000102256 1.20906e-05)
(-7.23279e-07 0.000102584 1.20907e-05)
(-9.66126e-06 0.00010213 1.20906e-05)
(-1.85257e-05 0.000100899 1.20906e-05)
(-2.72492e-05 9.8901e-05 1.20906e-05)
(-3.57656e-05 9.61504e-05 1.20907e-05)
(-4.40095e-05 9.26671e-05 1.20906e-05)
(-5.19184e-05 8.84787e-05 1.20906e-05)
(-5.94322e-05 8.36169e-05 1.20906e-05)
(-6.64935e-05 7.81187e-05 1.20906e-05)
(-7.30491e-05 7.20263e-05 1.20907e-05)
(-7.90487e-05 6.53856e-05 1.20907e-05)
(-8.44465e-05 5.82471e-05 1.20906e-05)
(-8.92019e-05 5.06655e-05 1.20906e-05)
(-9.32782e-05 4.26983e-05 1.20906e-05)
(-9.66449e-05 3.44061e-05 1.20906e-05)
(-9.9276e-05 2.58522e-05 1.20906e-05)
(-0.000101151 1.71013e-05 1.20906e-05)
(-0.000102256 8.22025e-06 1.20906e-05)
(-0.000102584 -7.23279e-07 1.20907e-05)
(-0.00010213 -9.66125e-06 1.20906e-05)
(-0.000100899 -1.85257e-05 1.20906e-05)
(-9.8901e-05 -2.72492e-05 1.20906e-05)
(-9.61504e-05 -3.57656e-05 1.20907e-05)
(-9.26671e-05 -4.40095e-05 1.20906e-05)
(-8.84787e-05 -5.19184e-05 1.20906e-05)
(-8.36169e-05 -5.94322e-05 1.20906e-05)
(-7.81187e-05 -6.64935e-05 1.20906e-05)
(-7.20263e-05 -7.30491e-05 1.20907e-05)
(-6.53856e-05 -7.90487e-05 1.20907e-05)
(-5.82471e-05 -8.44465e-05 1.20906e-05)
(-5.06655e-05 -8.92019e-05 1.20906e-05)
(-4.26983e-05 -9.32782e-05 1.20906e-05)
(-3.44061e-05 -9.66449e-05 1.20906e-05)
(-2.58522e-05 -9.9276e-05 1.20906e-05)
(-1.71013e-05 -0.000101151 1.20906e-05)
(-8.22025e-06 -0.000102256 1.20906e-05)
(7.23279e-07 -0.000102584 1.20907e-05)
(0.000170995 -0.000265061 3.30201e-05)
(0.000193446 -0.000249149 3.30201e-05)
(0.000214425 -0.000231341 3.30201e-05)
(0.000233771 -0.000211772 3.30201e-05)
(0.000251339 -0.000190592 3.30201e-05)
(0.000266994 -0.000167961 3.30201e-05)
(0.000280616 -0.000144052 3.30201e-05)
(0.000292103 -0.000119046 3.302e-05)
(0.000301368 -9.3135e-05 3.302e-05)
(0.000308338 -6.65147e-05 3.302e-05)
(0.000312962 -3.93881e-05 3.30201e-05)
(0.000315204 -1.19618e-05 3.30202e-05)
(0.000315047 1.55556e-05 3.30202e-05)
(0.000312492 4.29545e-05 3.30203e-05)
(0.000307559 7.00265e-05 3.30202e-05)
(0.000300286 9.65656e-05 3.30201e-05)
(0.000290727 0.00012237 3.30201e-05)
(0.000278955 0.000147243 3.30201e-05)
(0.000265061 0.000170995 3.30201e-05)
(0.000249149 0.000193446 3.30201e-05)
(0.000231341 0.000214425 3.30201e-05)
(0.000211772 0.000233771 3.30201e-05)
(0.000190592 0.000251339 3.30201e-05)
(0.000167961 0.000266994 3.30201e-05)
(0.000144052 0.000280616 3.30201e-05)
(0.000119046 0.000292103 3.302e-05)
(9.3135e-05 0.000301368 3.302e-05)
(6.65147e-05 0.000308338 3.302e-05)
(3.93881e-05 0.000312962 3.30201e-05)
(1.19618e-05 0.000315204 3.30202e-05)
(-1.55556e-05 0.000315047 3.30202e-05)
(-4.29545e-05 0.000312492 3.30203e-05)
(-7.00265e-05 0.000307559 3.30202e-05)
(-9.65656e-05 0.000300286 3.30201e-05)
(-0.00012237 0.000290727 3.30201e-05)
(-0.000147243 0.000278955 3.30201e-05)
(-0.000170995 0.000265061 3.30201e-05)
(-0.000193446 0.000249149 3.30201e-05)
(-0.000214425 0.000231341 3.30201e-05)
(-0.000233771 0.000211772 3.30201e-05)
(-0.000251339 0.000190592 3.30201e-05)
(-0.000266994 0.000167961 3.30201e-05)
(-0.000280616 0.000144052 3.30201e-05)
(-0.000292103 0.000119046 3.302e-05)
(-0.000301368 9.3135e-05 3.302e-05)
(-0.000308338 6.65147e-05 3.302e-05)
(-0.000312962 3.93881e-05 3.30201e-05)
(-0.000315204 1.19618e-05 3.30202e-05)
(-0.000315047 -1.55556e-05 3.30202e-05)
(-0.000312492 -4.29545e-05 3.30203e-05)
(-0.000307559 -7.00265e-05 3.30202e-05)
(-0.000300286 -9.65656e-05 3.30201e-05)
(-0.000290727 -0.00012237 3.30201e-05)
(-0.000278955 -0.000147243 3.30201e-05)
(-0.000265061 -0.000170995 3.30201e-05)
(-0.000249149 -0.000193446 3.30201e-05)
(-0.000231341 -0.000214425 3.30201e-05)
(-0.000211772 -0.000233771 3.30201e-05)
(-0.000190592 -0.000251339 3.30201e-05)
(-0.000167961 -0.000266994 3.30201e-05)
(-0.000144052 -0.000280616 3.30201e-05)
(-0.000119046 -0.000292103 3.302e-05)
(-9.3135e-05 -0.000301368 3.302e-05)
(-6.65147e-05 -0.000308338 3.302e-05)
(-3.93881e-05 -0.000312962 3.30201e-05)
(-1.19618e-05 -0.000315204 3.30202e-05)
(1.55556e-05 -0.000315047 3.30202e-05)
(4.29545e-05 -0.000312492 3.30203e-05)
(7.00265e-05 -0.000307559 3.30202e-05)
(9.65656e-05 -0.000300286 3.30201e-05)
(0.00012237 -0.000290727 3.30201e-05)
(0.000147243 -0.000278955 3.30201e-05)
(0.000156375 -0.000274539 4.0064e-05)
(0.000179707 -0.000259866 4.0064e-05)
(0.000201672 -0.000243214 4.0064e-05)
(0.000222102 -0.000224712 4.0064e-05)
(0.000240842 -0.000204499 4.00639e-05)
(0.000257749 -0.00018273 4.00639e-05)
(0.000272694 -0.000159571 4.0064e-05)
(0.000285564 -0.000135197 4.0064e-05)
(0.000296261 -0.000109794 4.0064e-05)
(0.000304702 -8.35553e-05 4.0064e-05)
(0.000310825 -5.66807e-05 4.0064e-05)
(0.000314582 -2.93747e-05 4.00641e-05)
(0.000315945 -1.84541e-06 4.0064e-05)
(0.000314904 2.56981e-05 4.0064e-05)
(0.000311466 5.3046e-05 4.00641e-05)
(0.000305657 7.99902e-05 4.00641e-05)
(0.000297523 0.000106326 4.0064e-05)
(0.000287124 0.000131852 4.0064e-05)
(0.000274539 0.000156375 4.0064e-05)
(0.000259866 0.000179707 4.0064e-05)
(0.000243214 0.000201672 4.0064e-05)
(0.000224712 0.000222102 4.0064e-05)
(0.000204499 0.000240842 4.00639e-05)
(0.00018273 0.000257749 4.00639e-05)
(0.000159571 0.000272694 4.0064e-05)
(0.000135197 0.000285564 4.0064e-05)
(0.000109794 0.000296261 4.0064e-05)
(8.35553e-05 0.000304702 4.0064e-05)
(5.66807e-05 0.000310825 4.0064e-05)
(2.93747e-05 0.000314582 4.00641e-05)
(1.84541e-06 0.000315945 4.0064e-05)
(-2.56981e-05 0.000314904 4.0064e-05)
(-5.3046e-05 0.000311466 4.00641e-05)
(-7.99902e-05 0.000305657 4.00641e-05)
(-0.000106326 0.000297523 4.0064e-05)
(-0.000131852 0.000287124 4.0064e-05)
(-0.000156375 0.000274539 4.0064e-05)
(-0.000179707 0.000259866 4.0064e-05)
(-0.000201672 0.000243214 4.0064e-05)
(-0.000222102 0.000224712 4.0064e-05)
(-0.000240842 0.000204499 4.00639e-05)
(-0.000257749 0.00018273 4.00639e-05)
(-0.000272694 0.000159571 4.0064e-05)
(-0.000285564 0.000135197 4.0064e-05)
(-0.000296261 0.000109794 4.0064e-05)
(-0.000304702 8.35553e-05 4.0064e-05)
(-0.000310825 5.66807e-05 4.0064e-05)
(-0.000314582 2.93747e-05 4.00641e-05)
(-0.000315945 1.84541e-06 4.0064e-05)
(-0.000314904 -2.56981e-05 4.0064e-05)
(-0.000311466 -5.3046e-05 4.00641e-05)
(-0.000305657 -7.99902e-05 4.00641e-05)
(-0.000297523 -0.000106326 4.0064e-05)
(-0.000287124 -0.000131852 4.0064e-05)
(-0.000274539 -0.000156375 4.0064e-05)
(-0.000259866 -0.000179707 4.0064e-05)
(-0.000243214 -0.000201672 4.0064e-05)
(-0.000224712 -0.000222102 4.0064e-05)
(-0.000204499 -0.000240842 4.00639e-05)
(-0.00018273 -0.000257749 4.00639e-05)
(-0.000159571 -0.000272694 4.0064e-05)
(-0.000135197 -0.000285564 4.0064e-05)
(-0.000109794 -0.000296261 4.0064e-05)
(-8.35553e-05 -0.000304702 4.0064e-05)
(-5.66807e-05 -0.000310825 4.0064e-05)
(-2.93747e-05 -0.000314582 4.00641e-05)
(-1.84541e-06 -0.000315945 4.0064e-05)
(2.56981e-05 -0.000314904 4.0064e-05)
(5.3046e-05 -0.000311466 4.00641e-05)
(7.99902e-05 -0.000305657 4.00641e-05)
(0.000106326 -0.000297523 4.0064e-05)
(0.000131852 -0.000287124 4.0064e-05)
(0.000137861 -0.000283803 4.52118e-05)
(0.000162072 -0.000270708 4.52118e-05)
(0.000185049 -0.000255552 4.52118e-05)
(0.000206617 -0.000238451 4.52119e-05)
(0.000226613 -0.000219536 4.52118e-05)
(0.000244885 -0.00019895 4.52119e-05)
(0.000261293 -0.00017685 4.52119e-05)
(0.000275712 -0.000153404 4.52119e-05)
(0.000288033 -0.00012879 4.52119e-05)
(0.000298161 -0.000103196 4.52119e-05)
(0.000306021 -7.68172e-05 4.52119e-05)
(0.000311552 -4.98534e-05 4.5212e-05)
(0.000314711 -2.25101e-05 4.5212e-05)
(0.000315475 5.00444e-06 4.52118e-05)
(0.000313839 3.24807e-05 4.52119e-05)
(0.000309813 5.97102e-05 4.52119e-05)
(0.00030343 8.6485e-05 4.52119e-05)
(0.000294738 0.000112602 4.52118e-05)
(0.000283803 0.000137861 4.52118e-05)
(0.000270708 0.000162072 4.52118e-05)
(0.000255552 0.000185049 4.52118e-05)
(0.000238451 0.000206617 4.52119e-05)
(0.000219536 0.000226613 4.52118e-05)
(0.00019895 0.000244885 4.52119e-05)
(0.00017685 0.000261293 4.52119e-05)
(0.000153404 0.000275712 4.52119e-05)
(0.00012879 0.000288033 4.52119e-05)
(0.000103196 0.000298161 4.52119e-05)
(7.68172e-05 0.000306021 4.52119e-05)
(4.98534e-05 0.000311552 4.5212e-05)
(2.25101e-05 0.000314711 4.5212e-05)
(-5.00444e-06 0.000315475 4.52118e-05)
(-3.24807e-05 0.000313839 4.52119e-05)
(-5.97102e-05 0.000309813 4.52119e-05)
(-8.6485e-05 0.00030343 4.52119e-05)
(-0.000112602 0.000294738 4.52118e-05)
(-0.000137861 0.000283803 4.52118e-05)
(-0.000162072 0.000270708 4.52118e-05)
(-0.000185049 0.000255552 4.52118e-05)
(-0.000206617 0.000238451 4.52119e-05)
(-0.000226613 0.000219536 4.52118e-05)
(-0.000244885 0.00019895 4.52119e-05)
(-0.000261293 0.00017685 4.52119e-05)
(-0.000275712 0.000153404 4.52119e-05)
(-0.000288033 0.00012879 4.52119e-05)
(-0.000298161 0.000103196 4.52119e-05)
(-0.000306021 7.68172e-05 4.52119e-05)
(-0.000311552 4.98534e-05 4.5212e-05)
(-0.000314711 2.25101e-05 4.5212e-05)
(-0.000315475 -5.00444e-06 4.52118e-05)
(-0.000313839 -3.24807e-05 4.52119e-05)
(-0.000309813 -5.97102e-05 4.52119e-05)
(-0.00030343 -8.6485e-05 4.52119e-05)
(-0.000294738 -0.000112602 4.52118e-05)
(-0.000283803 -0.000137861 4.52118e-05)
(-0.000270708 -0.000162072 4.52118e-05)
(-0.000255552 -0.000185049 4.52118e-05)
(-0.000238451 -0.000206617 4.52119e-05)
(-0.000219536 -0.000226613 4.52118e-05)
(-0.00019895 -0.000244885 4.52119e-05)
(-0.00017685 -0.000261293 4.52119e-05)
(-0.000153404 -0.000275712 4.52119e-05)
(-0.00012879 -0.000288033 4.52119e-05)
(-0.000103196 -0.000298161 4.52119e-05)
(-7.68172e-05 -0.000306021 4.52119e-05)
(-4.98534e-05 -0.000311552 4.5212e-05)
(-2.25101e-05 -0.000314711 4.5212e-05)
(5.00444e-06 -0.000315475 4.52118e-05)
(3.24807e-05 -0.000313839 4.52119e-05)
(5.97102e-05 -0.000309813 4.52119e-05)
(8.6485e-05 -0.00030343 4.52119e-05)
(0.000112602 -0.000294738 4.52118e-05)
(0.000116223 -0.000291999 4.96002e-05)
(0.00014123 -0.000280758 4.96002e-05)
(0.000165163 -0.000267381 4.96002e-05)
(0.000187838 -0.000251969 4.96002e-05)
(0.000209083 -0.000234639 4.96003e-05)
(0.000228738 -0.000215523 4.96002e-05)
(0.000246651 -0.000194767 4.96002e-05)
(0.000262688 -0.000172529 4.96003e-05)
(0.000276725 -0.000148977 4.96003e-05)
(0.000288657 -0.000124292 4.96002e-05)
(0.000298391 -9.86613e-05 4.96003e-05)
(0.000305854 -7.22794e-05 4.96002e-05)
(0.00031099 -4.53473e-05 4.96003e-05)
(0.000313759 -1.80703e-05 4.96002e-05)
(0.00031414 9.34444e-06 4.96002e-05)
(0.00031213 3.66879e-05 4.96002e-05)
(0.000307745 6.37523e-05 4.96003e-05)
(0.000301017 9.03314e-05 4.96002e-05)
(0.000291999 0.000116223 4.96002e-05)
(0.000280758 0.00014123 4.96002e-05)
(0.000267381 0.000165163 4.96002e-05)
(0.000251969 0.000187838 4.96002e-05)
(0.000234639 0.000209083 4.96003e-05)
(0.000215523 0.000228738 4.96002e-05)
(0.000194767 0.000246651 4.96002e-05)
(0.000172529 0.000262688 4.96003e-05)
(0.000148977 0.000276725 4.96003e-05)
(0.000124292 0.000288657 4.96002e-05)
(9.86613e-05 0.000298391 4.96003e-05)
(7.22794e-05 0.000305854 4.96002e-05)
(4.53473e-05 0.00031099 4.96003e-05)
(1.80703e-05 0.000313759 4.96002e-05)
(-9.34444e-06 0.00031414 4.96002e-05)
(-3.66879e-05 0.00031213 4.96002e-05)
(-6.37523e-05 0.000307745 4.96003e-05)
(-9.03314e-05 0.000301017 4.96002e-05)
(-0.000116223 0.000291999 4.96002e-05)
(-0.00014123 0.000280758 4.96002e-05)
(-0.000165163 0.000267381 4.96002e-05)
(-0.000187838 0.000251969 4.96002e-05)
(-0.000209083 0.000234639 4.96003e-05)
(-0.000228738 0.000215523 4.96002e-05)
(-0.000246651 0.000194767 4.96002e-05)
(-0.000262688 0.000172529 4.96003e-05)
(-0.000276725 0.000148977 4.96003e-05)
(-0.000288657 0.000124292 4.96002e-05)
(-0.000298391 9.86613e-05 4.96003e-05)
(-0.000305854 7.22794e-05 4.96002e-05)
(-0.00031099 4.53473e-05 4.96003e-05)
(-0.000313759 1.80703e-05 4.96002e-05)
(-0.00031414 -9.34444e-06 4.96002e-05)
(-0.00031213 -3.66879e-05 4.96002e-05)
(-0.000307745 -6.37523e-05 4.96003e-05)
(-0.000301017 -9.03314e-05 4.96002e-05)
(-0.000291999 -0.000116223 4.96002e-05)
(-0.000280758 -0.00014123 4.96002e-05)
(-0.000267381 -0.000165163 4.96002e-05)
(-0.000251969 -0.000187838 4.96002e-05)
(-0.000234639 -0.000209083 4.96003e-05)
(-0.000215523 -0.000228738 4.96002e-05)
(-0.000194767 -0.000246651 4.96002e-05)
(-0.000172529 -0.000262688 4.96003e-05)
(-0.000148977 -0.000276725 4.96003e-05)
(-0.000124292 -0.000288657 4.96002e-05)
(-9.86613e-05 -0.000298391 4.96003e-05)
(-7.22794e-05 -0.000305854 4.96002e-05)
(-4.53473e-05 -0.00031099 4.96003e-05)
(-1.80703e-05 -0.000313759 4.96002e-05)
(9.34444e-06 -0.00031414 4.96002e-05)
(3.66879e-05 -0.00031213 4.96002e-05)
(6.37523e-05 -0.000307745 4.96003e-05)
(9.03314e-05 -0.000301017 4.96002e-05)
(9.15576e-05 -0.000298445 5.44866e-05)
(0.00011722 -0.00028933 5.44866e-05)
(0.000141991 -0.000278013 5.44867e-05)
(0.000165681 -0.000264579 5.44867e-05)
(0.00018811 -0.000249132 5.44867e-05)
(0.000209108 -0.000231789 5.44867e-05)
(0.000228514 -0.000212683 5.44867e-05)
(0.000246181 -0.000191957 5.44866e-05)
(0.000261974 -0.00016977 5.44865e-05)
(0.000275773 -0.000146292 5.44865e-05)
(0.000287474 -0.0001217 5.44866e-05)
(0.000296988 -9.61818e-05 5.44867e-05)
(0.00030424 -6.99314e-05 5.44866e-05)
(0.000309177 -4.3149e-05 5.44866e-05)
(0.000311761 -1.60384e-05 5.44866e-05)
(0.000311973 1.11944e-05 5.44867e-05)
(0.00030981 3.8342e-05 5.44866e-05)
(0.00030529 6.51979e-05 5.44866e-05)
(0.000298445 9.15576e-05 5.44866e-05)
(0.00028933 0.00011722 5.44866e-05)
(0.000278013 0.000141991 5.44867e-05)
(0.000264579 0.000165681 5.44867e-05)
(0.000249132 0.00018811 5.44867e-05)
(0.000231789 0.000209108 5.44867e-05)
(0.000212683 0.000228514 5.44867e-05)
(0.000191957 0.000246181 5.44866e-05)
(0.00016977 0.000261974 5.44865e-05)
(0.000146292 0.000275773 5.44865e-05)
(0.0001217 0.000287474 5.44866e-05)
(9.61818e-05 0.000296988 5.44867e-05)
(6.99314e-05 0.00030424 5.44866e-05)
(4.3149e-05 0.000309177 5.44866e-05)
(1.60384e-05 0.000311761 5.44866e-05)