/*--------------------------------*- C++ -*----------------------------------*\
| =========                 |                                                 |
| \\      /  F ield         | OpenFOAM: The Open Source CFD Toolbox           |
|  \\    /   O peration     | Version:  2312                                  |
|   \\  /    A nd           | Website:  www.openfoam.com                      |
|    \\/     M anipulation  |                                                 |
\*---------------------------------------------------------------------------*/
FoamFile
{
    version     2.0;
    format      ascii;
    arch        "LSB;label=32;scalar=64";
    class       volVectorField;
    location    "0.2";
    object      D_0_0_0;
}
// * * * * * * * * * * * * * * * * * * * * * * * * * * * * * * * * * * * * * //

dimensions      [0 1 0 0 0 0 0];

internalField   nonuniform List<vector> 
12960
(
(5.94838e-05 -8.17929e-05 7.51367e-06)
(6.63862e-05 -7.62973e-05 7.51367e-06)
(7.27834e-05 -7.02211e-05 7.51368e-06)
(7.86264e-05 -6.36102e-05 7.51365e-06)
(8.38714e-05 -5.65155e-05 7.51365e-06)
(8.84776e-05 -4.89905e-05 7.51367e-06)
(9.24109e-05 -4.10928e-05 7.51368e-06)
(9.56408e-05 -3.28823e-05 7.51362e-06)
(9.81426e-05 -2.44215e-05 7.51359e-06)
(9.98976e-05 -1.57749e-05 7.51363e-06)
(0.000100892 -7.00823e-06 7.51366e-06)
(0.000101119 1.81187e-06 7.51368e-06)
(0.000100576 1.06181e-05 7.51371e-06)
(9.92685e-05 1.93435e-05 7.51373e-06)
(9.72046e-05 2.79217e-05 7.51369e-06)
(9.44014e-05 3.62874e-05 7.51367e-06)
(9.08794e-05 4.43769e-05 7.51365e-06)
(8.6666e-05 5.21288e-05 7.51364e-06)
(8.17929e-05 5.94838e-05 7.51367e-06)
(7.62973e-05 6.63862e-05 7.51367e-06)
(7.02211e-05 7.27834e-05 7.51368e-06)
(6.36102e-05 7.86264e-05 7.51365e-06)
(5.65155e-05 8.38714e-05 7.51365e-06)
(4.89905e-05 8.84776e-05 7.51367e-06)
(4.10928e-05 9.24109e-05 7.51368e-06)
(3.28823e-05 9.56408e-05 7.51362e-06)
(2.44215e-05 9.81426e-05 7.51359e-06)
(1.57749e-05 9.98976e-05 7.51363e-06)
(7.00823e-06 0.000100892 7.51366e-06)
(-1.81187e-06 0.000101119 7.51368e-06)
(-1.06181e-05 0.000100576 7.51371e-06)
(-1.93435e-05 9.92685e-05 7.51373e-06)
(-2.79217e-05 9.72046e-05 7.51369e-06)
(-3.62874e-05 9.44014e-05 7.51367e-06)
(-4.43769e-05 9.08794e-05 7.51365e-06)
(-5.21288e-05 8.6666e-05 7.51364e-06)
(-5.94838e-05 8.17929e-05 7.51367e-06)
(-6.63862e-05 7.62973e-05 7.51367e-06)
(-7.27834e-05 7.02211e-05 7.51368e-06)
(-7.86264e-05 6.36102e-05 7.51365e-06)
(-8.38714e-05 5.65155e-05 7.51365e-06)
(-8.84776e-05 4.89905e-05 7.51367e-06)
(-9.24109e-05 4.10928e-05 7.51368e-06)
(-9.56408e-05 3.28823e-05 7.51362e-06)
(-9.81426e-05 2.44215e-05 7.51359e-06)
(-9.98976e-05 1.57749e-05 7.51363e-06)
(-0.000100892 7.00823e-06 7.51366e-06)
(-0.000101119 -1.81187e-06 7.51368e-06)
(-0.000100576 -1.06181e-05 7.51371e-06)
(-9.92685e-05 -1.93435e-05 7.51373e-06)
(-9.72046e-05 -2.79217e-05 7.51369e-06)
(-9.44014e-05 -3.62874e-05 7.51367e-06)
(-9.08794e-05 -4.43769e-05 7.51365e-06)
(-8.6666e-05 -5.21288e-05 7.51364e-06)
(-8.17929e-05 -5.94838e-05 7.51367e-06)
(-7.62973e-05 -6.63862e-05 7.51367e-06)
(-7.02211e-05 -7.27834e-05 7.51368e-06)
(-6.36102e-05 -7.86264e-05 7.51365e-06)
(-5.65155e-05 -8.38714e-05 7.51365e-06)
(-4.89905e-05 -8.84776e-05 7.51367e-06)
(-4.10928e-05 -9.24109e-05 7.51368e-06)
(-3.28823e-05 -9.56408e-05 7.51362e-06)
(-2.44215e-05 -9.81426e-05 7.51359e-06)
(-1.57749e-05 -9.98976e-05 7.51363e-06)
(-7.00823e-06 -0.000100892 7.51366e-06)
(1.81187e-06 -0.000101119 7.51368e-06)
(1.06181e-05 -0.000100576 7.51371e-06)
(1.93435e-05 -9.92685e-05 7.51373e-06)
(2.79217e-05 -9.72046e-05 7.51369e-06)
(3.62874e-05 -9.44014e-05 7.51367e-06)
(4.43769e-05 -9.08794e-05 7.51365e-06)
(5.21288e-05 -8.6666e-05 7.51364e-06)
(5.21976e-05 -8.41452e-05 7.97227e-06)
(5.93325e-05 -7.92755e-05 7.97225e-06)
(6.60162e-05 -7.38029e-05 7.97226e-06)
(7.21975e-05 -6.77684e-05 7.97227e-06)
(7.78291e-05 -6.1218e-05 7.97226e-06)
(8.28686e-05 -5.4202e-05 7.97227e-06)
(8.72773e-05 -4.67733e-05 7.97228e-06)
(9.10217e-05 -3.89885e-05 7.97226e-06)
(9.40732e-05 -3.0907e-05 7.97225e-06)
(9.6409e-05 -2.25905e-05 7.97226e-06)
(9.80112e-05 -1.41019e-05 7.97228e-06)
(9.88673e-05 -5.50595e-06 7.97228e-06)
(9.89708e-05 3.13182e-06 7.97229e-06)
(9.83211e-05 1.17458e-05 7.97229e-06)
(9.69233e-05 2.02703e-05 7.97229e-06)
(9.47877e-05 2.86406e-05 7.97227e-06)
(9.19306e-05 3.67928e-05 7.97226e-06)
(8.83743e-05 4.46652e-05 7.97227e-06)
(8.41452e-05 5.21976e-05 7.97227e-06)
(7.92755e-05 5.93325e-05 7.97225e-06)
(7.38029e-05 6.60162e-05 7.97226e-06)
(6.77684e-05 7.21975e-05 7.97227e-06)
(6.1218e-05 7.78291e-05 7.97226e-06)
(5.4202e-05 8.28686e-05 7.97227e-06)
(4.67733e-05 8.72773e-05 7.97228e-06)
(3.89885e-05 9.10217e-05 7.97226e-06)
(3.0907e-05 9.40732e-05 7.97225e-06)
(2.25905e-05 9.6409e-05 7.97226e-06)
(1.41019e-05 9.80112e-05 7.97228e-06)
(5.50595e-06 9.88673e-05 7.97228e-06)
(-3.13182e-06 9.89708e-05 7.97229e-06)
(-1.17458e-05 9.83211e-05 7.97229e-06)
(-2.02703e-05 9.69233e-05 7.97229e-06)
(-2.86406e-05 9.47877e-05 7.97227e-06)
(-3.67928e-05 9.19306e-05 7.97226e-06)
(-4.46652e-05 8.83743e-05 7.97227e-06)
(-5.21976e-05 8.41452e-05 7.97227e-06)
(-5.93325e-05 7.92755e-05 7.97225e-06)
(-6.60162e-05 7.38029e-05 7.97226e-06)
(-7.21975e-05 6.77684e-05 7.97227e-06)
(-7.78291e-05 6.1218e-05 7.97226e-06)
(-8.28686e-05 5.4202e-05 7.97227e-06)
(-8.72773e-05 4.67733e-05 7.97228e-06)
(-9.10217e-05 3.89885e-05 7.97226e-06)
(-9.40732e-05 3.0907e-05 7.97225e-06)
(-9.6409e-05 2.25905e-05 7.97226e-06)
(-9.80112e-05 1.41019e-05 7.97228e-06)
(-9.88673e-05 5.50595e-06 7.97228e-06)
(-9.89708e-05 -3.13182e-06 7.97229e-06)
(-9.83211e-05 -1.17458e-05 7.97229e-06)
(-9.69233e-05 -2.02703e-05 7.97229e-06)
(-9.47877e-05 -2.86406e-05 7.97227e-06)
(-9.19306e-05 -3.67928e-05 7.97226e-06)
(-8.83743e-05 -4.46652e-05 7.97227e-06)
(-8.41452e-05 -5.21976e-05 7.97227e-06)
(-7.92755e-05 -5.93325e-05 7.97225e-06)
(-7.38029e-05 -6.60162e-05 7.97226e-06)
(-6.77684e-05 -7.21975e-05 7.97227e-06)
(-6.1218e-05 -7.78291e-05 7.97226e-06)
(-5.4202e-05 -8.28686e-05 7.97227e-06)
(-4.67733e-05 -8.72773e-05 7.97228e-06)
(-3.89885e-05 -9.10217e-05 7.97226e-06)
(-3.0907e-05 -9.40732e-05 7.97225e-06)
(-2.25905e-05 -9.6409e-05 7.97226e-06)
(-1.41019e-05 -9.80112e-05 7.97228e-06)
(-5.50595e-06 -9.88673e-05 7.97228e-06)
(3.13182e-06 -9.89708e-05 7.97229e-06)
(1.17458e-05 -9.83211e-05 7.97229e-06)
(2.02703e-05 -9.69233e-05 7.97229e-06)
(2.86406e-05 -9.47877e-05 7.97227e-06)
(3.67928e-05 -9.19306e-05 7.97226e-06)
(4.46652e-05 -8.83743e-05 7.97227e-06)
(4.4719e-05 -8.64265e-05 8.00328e-06)
(5.20815e-05 -8.22002e-05 8.00328e-06)
(5.90475e-05 -7.73482e-05 8.00328e-06)
(6.55641e-05 -7.19075e-05 8.00328e-06)
(7.15819e-05 -6.59197e-05 8.00331e-06)
(7.70546e-05 -5.943e-05 8.00327e-06)
(8.19409e-05 -5.2488e-05 8.00326e-06)
(8.62039e-05 -4.51467e-05 8.00327e-06)
(8.98105e-05 -3.74617e-05 8.00326e-06)
(9.27338e-05 -2.94917e-05 8.00326e-06)
(9.49514e-05 -2.12972e-05 8.00328e-06)
(9.6446e-05 -1.29405e-05 8.00326e-06)
(9.7207e-05 -4.48546e-06 8.00328e-06)
(9.72283e-05 4.00378e-06 8.00331e-06)
(9.65091e-05 1.24625e-05 8.00329e-06)
(9.50558e-05 2.08264e-05 8.00328e-06)
(9.28789e-05 2.90318e-05 8.0033e-06)
(8.99951e-05 3.70163e-05 8.00328e-06)
(8.64265e-05 4.4719e-05 8.00328e-06)
(8.22002e-05 5.20815e-05 8.00328e-06)
(7.73482e-05 5.90475e-05 8.00328e-06)
(7.19075e-05 6.55641e-05 8.00328e-06)
(6.59197e-05 7.15819e-05 8.00331e-06)
(5.943e-05 7.70546e-05 8.00327e-06)
(5.2488e-05 8.19409e-05 8.00326e-06)
(4.51467e-05 8.62039e-05 8.00327e-06)
(3.74617e-05 8.98105e-05 8.00326e-06)
(2.94917e-05 9.27338e-05 8.00326e-06)
(2.12972e-05 9.49514e-05 8.00328e-06)
(1.29405e-05 9.6446e-05 8.00326e-06)
(4.48546e-06 9.7207e-05 8.00328e-06)
(-4.00378e-06 9.72283e-05 8.00331e-06)
(-1.24625e-05 9.65091e-05 8.00329e-06)
(-2.08264e-05 9.50558e-05 8.00328e-06)
(-2.90318e-05 9.28789e-05 8.0033e-06)
(-3.70163e-05 8.99951e-05 8.00328e-06)
(-4.4719e-05 8.64265e-05 8.00328e-06)
(-5.20815e-05 8.22002e-05 8.00328e-06)
(-5.90475e-05 7.73482e-05 8.00328e-06)
(-6.55641e-05 7.19075e-05 8.00328e-06)
(-7.15819e-05 6.59197e-05 8.00331e-06)
(-7.70546e-05 5.943e-05 8.00327e-06)
(-8.19409e-05 5.2488e-05 8.00326e-06)
(-8.62039e-05 4.51467e-05 8.00327e-06)
(-8.98105e-05 3.74617e-05 8.00326e-06)
(-9.27338e-05 2.94917e-05 8.00326e-06)
(-9.49514e-05 2.12972e-05 8.00328e-06)
(-9.6446e-05 1.29405e-05 8.00326e-06)
(-9.7207e-05 4.48546e-06 8.00328e-06)
(-9.72283e-05 -4.00378e-06 8.00331e-06)
(-9.65091e-05 -1.24625e-05 8.00329e-06)
(-9.50558e-05 -2.08264e-05 8.00328e-06)
(-9.28789e-05 -2.90318e-05 8.0033e-06)
(-8.99951e-05 -3.70163e-05 8.00328e-06)
(-8.64265e-05 -4.4719e-05 8.00328e-06)
(-8.22002e-05 -5.20815e-05 8.00328e-06)
(-7.73482e-05 -5.90475e-05 8.00328e-06)
(-7.19075e-05 -6.55641e-05 8.00328e-06)
(-6.59197e-05 -7.15819e-05 8.00331e-06)
(-5.943e-05 -7.70546e-05 8.00327e-06)
(-5.2488e-05 -8.19409e-05 8.00326e-06)
(-4.51467e-05 -8.62039e-05 8.00327e-06)
(-3.74617e-05 -8.98105e-05 8.00326e-06)
(-2.94917e-05 -9.27338e-05 8.00326e-06)
(-2.12972e-05 -9.49514e-05 8.00328e-06)
(-1.29405e-05 -9.6446e-05 8.00326e-06)
(-4.48546e-06 -9.7207e-05 8.00328e-06)
(4.00378e-06 -9.72283e-05 8.00331e-06)
(1.24625e-05 -9.65091e-05 8.00329e-06)
(2.08264e-05 -9.50558e-05 8.00328e-06)
(2.90318e-05 -9.28789e-05 8.0033e-06)
(3.70163e-05 -8.99951e-05 8.00328e-06)
(3.62494e-05 -8.83804e-05 8.25272e-06)
(4.38143e-05 -8.48848e-05 8.25272e-06)
(5.10459e-05 -8.07433e-05 8.25276e-06)
(5.78886e-05 -7.59868e-05 8.25273e-06)
(6.42909e-05 -7.06522e-05 8.25274e-06)
(7.02042e-05 -6.47802e-05 8.25275e-06)
(7.5583e-05 -5.8415e-05 8.25276e-06)
(8.03867e-05 -5.16053e-05 8.25276e-06)
(8.45786e-05 -4.44028e-05 8.25273e-06)
(8.81267e-05 -3.68624e-05 8.25274e-06)
(9.1004e-05 -2.90413e-05 8.25275e-06)
(9.31887e-05 -2.09992e-05 8.25276e-06)
(9.46643e-05 -1.27974e-05 8.25275e-06)
(9.54192e-05 -4.4981e-06 8.25271e-06)
(9.54482e-05 3.83534e-06 8.25273e-06)
(9.47511e-05 1.21396e-05 8.25275e-06)
(9.33324e-05 2.03515e-05 8.25273e-06)
(9.12034e-05 2.84086e-05 8.25272e-06)
(8.83804e-05 3.62494e-05 8.25272e-06)
(8.48848e-05 4.38143e-05 8.25272e-06)
(8.07433e-05 5.10459e-05 8.25276e-06)
(7.59868e-05 5.78886e-05 8.25273e-06)
(7.06522e-05 6.42909e-05 8.25274e-06)
(6.47802e-05 7.02042e-05 8.25275e-06)
(5.8415e-05 7.5583e-05 8.25276e-06)
(5.16053e-05 8.03867e-05 8.25276e-06)
(4.44028e-05 8.45786e-05 8.25273e-06)
(3.68624e-05 8.81267e-05 8.25274e-06)
(2.90413e-05 9.1004e-05 8.25275e-06)
(2.09992e-05 9.31887e-05 8.25276e-06)
(1.27974e-05 9.46643e-05 8.25275e-06)
(4.4981e-06 9.54192e-05 8.25271e-06)
(-3.83534e-06 9.54482e-05 8.25273e-06)
(-1.21396e-05 9.47511e-05 8.25275e-06)
(-2.03515e-05 9.33324e-05 8.25273e-06)
(-2.84086e-05 9.12034e-05 8.25272e-06)
(-3.62494e-05 8.83804e-05 8.25272e-06)
(-4.38143e-05 8.48848e-05 8.25272e-06)
(-5.10459e-05 8.07433e-05 8.25276e-06)
(-5.78886e-05 7.59868e-05 8.25273e-06)
(-6.42909e-05 7.06522e-05 8.25274e-06)
(-7.02042e-05 6.47802e-05 8.25275e-06)
(-7.5583e-05 5.8415e-05 8.25276e-06)
(-8.03867e-05 5.16053e-05 8.25276e-06)
(-8.45786e-05 4.44028e-05 8.25273e-06)
(-8.81267e-05 3.68624e-05 8.25274e-06)
(-9.1004e-05 2.90413e-05 8.25275e-06)
(-9.31887e-05 2.09992e-05 8.25276e-06)
(-9.46643e-05 1.27974e-05 8.25275e-06)
(-9.54192e-05 4.4981e-06 8.25271e-06)
(-9.54482e-05 -3.83534e-06 8.25273e-06)
(-9.47511e-05 -1.21396e-05 8.25275e-06)
(-9.33324e-05 -2.03515e-05 8.25273e-06)
(-9.12034e-05 -2.84086e-05 8.25272e-06)
(-8.83804e-05 -3.62494e-05 8.25272e-06)
(-8.48848e-05 -4.38143e-05 8.25272e-06)
(-8.07433e-05 -5.10459e-05 8.25276e-06)
(-7.59868e-05 -5.78886e-05 8.25273e-06)
(-7.06522e-05 -6.42909e-05 8.25274e-06)
(-6.47802e-05 -7.02042e-05 8.25275e-06)
(-5.8415e-05 -7.5583e-05 8.25276e-06)
(-5.16053e-05 -8.03867e-05 8.25276e-06)
(-4.44028e-05 -8.45786e-05 8.25273e-06)
(-3.68624e-05 -8.81267e-05 8.25274e-06)
(-2.90413e-05 -9.1004e-05 8.25275e-06)
(-2.09992e-05 -9.31887e-05 8.25276e-06)
(-1.27974e-05 -9.46643e-05 8.25275e-06)
(-4.4981e-06 -9.54192e-05 8.25271e-06)
(3.83534e-06 -9.54482e-05 8.25273e-06)
(1.21396e-05 -9.47511e-05 8.25275e-06)
(2.03515e-05 -9.33324e-05 8.25273e-06)
(2.84086e-05 -9.12034e-05 8.25272e-06)
(2.60379e-05 -8.97965e-05 9.20026e-06)
(3.37652e-05 -8.71856e-05 9.20029e-06)
(4.12352e-05 -8.39108e-05 9.20027e-06)
(4.83917e-05 -7.99977e-05 9.20029e-06)
(5.51797e-05 -7.54755e-05 9.20029e-06)
(6.15479e-05 -7.03791e-05 9.20028e-06)
(6.74475e-05 -6.47469e-05 9.20028e-06)
(7.2834e-05 -5.86221e-05 9.20026e-06)
(7.76664e-05 -5.20515e-05 9.20028e-06)
(8.19075e-05 -4.50843e-05 9.20029e-06)
(8.55248e-05 -3.77738e-05 9.20025e-06)
(8.84914e-05 -3.01761e-05 9.20028e-06)
(9.07848e-05 -2.23487e-05 9.20026e-06)
(9.23872e-05 -1.43513e-05 9.20024e-06)
(9.32866e-05 -6.24465e-06 9.20027e-06)
(9.34757e-05 1.90957e-06 9.20027e-06)
(9.29539e-05 1.00493e-05 9.2003e-06)
(9.17242e-05 1.81125e-05 9.20026e-06)
(8.97965e-05 2.60379e-05 9.20026e-06)
(8.71856e-05 3.37652e-05 9.20029e-06)
(8.39108e-05 4.12352e-05 9.20027e-06)
(7.99977e-05 4.83917e-05 9.20029e-06)
(7.54755e-05 5.51797e-05 9.20029e-06)
(7.03791e-05 6.15479e-05 9.20028e-06)
(6.47469e-05 6.74475e-05 9.20028e-06)
(5.86221e-05 7.2834e-05 9.20026e-06)
(5.20515e-05 7.76664e-05 9.20028e-06)
(4.50843e-05 8.19075e-05 9.20029e-06)
(3.77738e-05 8.55248e-05 9.20025e-06)
(3.01761e-05 8.84914e-05 9.20028e-06)
(2.23487e-05 9.07848e-05 9.20026e-06)
(1.43513e-05 9.23872e-05 9.20024e-06)
(6.24465e-06 9.32866e-05 9.20027e-06)
(-1.90957e-06 9.34757e-05 9.20027e-06)
(-1.00493e-05 9.29539e-05 9.2003e-06)
(-1.81125e-05 9.17242e-05 9.20026e-06)
(-2.60379e-05 8.97965e-05 9.20026e-06)
(-3.37652e-05 8.71856e-05 9.20029e-06)
(-4.12352e-05 8.39108e-05 9.20027e-06)
(-4.83917e-05 7.99977e-05 9.20029e-06)
(-5.51797e-05 7.54755e-05 9.20029e-06)
(-6.15479e-05 7.03791e-05 9.20028e-06)
(-6.74475e-05 6.47469e-05 9.20028e-06)
(-7.2834e-05 5.86221e-05 9.20026e-06)
(-7.76664e-05 5.20515e-05 9.20028e-06)
(-8.19075e-05 4.50843e-05 9.20029e-06)
(-8.55248e-05 3.77738e-05 9.20025e-06)
(-8.84914e-05 3.01761e-05 9.20028e-06)
(-9.07848e-05 2.23487e-05 9.20026e-06)
(-9.23872e-05 1.43513e-05 9.20024e-06)
(-9.32866e-05 6.24465e-06 9.20027e-06)
(-9.34757e-05 -1.90957e-06 9.20027e-06)
(-9.29539e-05 -1.00493e-05 9.2003e-06)
(-9.17242e-05 -1.81125e-05 9.20026e-06)
(-8.97965e-05 -2.60379e-05 9.20026e-06)
(-8.71856e-05 -3.37652e-05 9.20029e-06)
(-8.39108e-05 -4.12352e-05 9.20027e-06)
(-7.99977e-05 -4.83917e-05 9.20029e-06)
(-7.54755e-05 -5.51797e-05 9.20029e-06)
(-7.03791e-05 -6.15479e-05 9.20028e-06)
(-6.47469e-05 -6.74475e-05 9.20028e-06)
(-5.86221e-05 -7.2834e-05 9.20026e-06)
(-5.20515e-05 -7.76664e-05 9.20028e-06)
(-4.50843e-05 -8.19075e-05 9.20029e-06)
(-3.77738e-05 -8.55248e-05 9.20025e-06)
(-3.01761e-05 -8.84914e-05 9.20028e-06)
(-2.23487e-05 -9.07848e-05 9.20026e-06)
(-1.43513e-05 -9.23872e-05 9.20024e-06)
(-6.24465e-06 -9.32866e-05 9.20027e-06)
(1.90957e-06 -9.34757e-05 9.20027e-06)
(1.00493e-05 -9.29539e-05 9.2003e-06)
(1.81125e-05 -9.17242e-05 9.20026e-06)
(1.13308e-05 -9.08935e-05 1.01072e-05)
(1.92095e-05 -8.95599e-05 1.01072e-05)
(2.69421e-05 -8.75449e-05 1.01072e-05)
(3.44699e-05 -8.48642e-05 1.01072e-05)
(4.17351e-05 -8.15369e-05 1.01072e-05)
(4.86826e-05 -7.75891e-05 1.01072e-05)
(5.52596e-05 -7.30508e-05 1.01072e-05)
(6.14159e-05 -6.79564e-05 1.01072e-05)
(6.71051e-05 -6.23452e-05 1.01072e-05)
(7.22836e-05 -5.62594e-05 1.01072e-05)
(7.69117e-05 -4.97453e-05 1.01072e-05)
(8.09548e-05 -4.28527e-05 1.01072e-05)
(8.43816e-05 -3.5634e-05 1.01071e-05)
(8.71664e-05 -2.81441e-05 1.01071e-05)
(8.92877e-05 -2.04401e-05 1.01071e-05)
(9.07289e-05 -1.25803e-05 1.01072e-05)
(9.148e-05 -4.62484e-06 1.01072e-05)
(9.15353e-05 3.3658e-06 1.01072e-05)
(9.08935e-05 1.13308e-05 1.01072e-05)
(8.95599e-05 1.92095e-05 1.01072e-05)
(8.75449e-05 2.69421e-05 1.01072e-05)
(8.48642e-05 3.44699e-05 1.01072e-05)
(8.15369e-05 4.17351e-05 1.01072e-05)
(7.75891e-05 4.86826e-05 1.01072e-05)
(7.30508e-05 5.52596e-05 1.01072e-05)
(6.79564e-05 6.14159e-05 1.01072e-05)
(6.23452e-05 6.71051e-05 1.01072e-05)
(5.62594e-05 7.22836e-05 1.01072e-05)
(4.97453e-05 7.69117e-05 1.01072e-05)
(4.28527e-05 8.09548e-05 1.01072e-05)
(3.5634e-05 8.43816e-05 1.01071e-05)
(2.81441e-05 8.71664e-05 1.01071e-05)
(2.04401e-05 8.92877e-05 1.01071e-05)
(1.25803e-05 9.07289e-05 1.01072e-05)
(4.62484e-06 9.148e-05 1.01072e-05)
(-3.3658e-06 9.15353e-05 1.01072e-05)
(-1.13308e-05 9.08935e-05 1.01072e-05)
(-1.92095e-05 8.95599e-05 1.01072e-05)
(-2.69421e-05 8.75449e-05 1.01072e-05)
(-3.44699e-05 8.48642e-05 1.01072e-05)
(-4.17351e-05 8.15369e-05 1.01072e-05)
(-4.86826e-05 7.75891e-05 1.01072e-05)
(-5.52596e-05 7.30508e-05 1.01072e-05)
(-6.14159e-05 6.79564e-05 1.01072e-05)
(-6.71051e-05 6.23452e-05 1.01072e-05)
(-7.22836e-05 5.62594e-05 1.01072e-05)
(-7.69117e-05 4.97453e-05 1.01072e-05)
(-8.09548e-05 4.28527e-05 1.01072e-05)
(-8.43816e-05 3.5634e-05 1.01071e-05)
(-8.71664e-05 2.81441e-05 1.01071e-05)
(-8.92877e-05 2.04401e-05 1.01071e-05)
(-9.07289e-05 1.25803e-05 1.01072e-05)
(-9.148e-05 4.62484e-06 1.01072e-05)
(-9.15353e-05 -3.3658e-06 1.01072e-05)
(-9.08935e-05 -1.13308e-05 1.01072e-05)
(-8.95599e-05 -1.92095e-05 1.01072e-05)
(-8.75449e-05 -2.69421e-05 1.01072e-05)
(-8.48642e-05 -3.44699e-05 1.01072e-05)
(-8.15369e-05 -4.17351e-05 1.01072e-05)
(-7.75891e-05 -4.86826e-05 1.01072e-05)
(-7.30508e-05 -5.52596e-05 1.01072e-05)
(-6.79564e-05 -6.14159e-05 1.01072e-05)
(-6.23452e-05 -6.71051e-05 1.01072e-05)
(-5.62594e-05 -7.22836e-05 1.01072e-05)
(-4.97453e-05 -7.69117e-05 1.01072e-05)
(-4.28527e-05 -8.09548e-05 1.01072e-05)
(-3.5634e-05 -8.43816e-05 1.01071e-05)
(-2.81441e-05 -8.71664e-05 1.01071e-05)
(-2.04401e-05 -8.92877e-05 1.01071e-05)
(-1.25803e-05 -9.07289e-05 1.01072e-05)
(-4.62484e-06 -9.148e-05 1.01072e-05)
(3.3658e-06 -9.15353e-05 1.01072e-05)
(0.000154294 -0.000246634 3.11042e-05)
(0.000175202 -0.000232248 3.11042e-05)
(0.000194777 -0.000216095 3.11042e-05)
(0.00021287 -0.000198296 3.11042e-05)
(0.000229343 -0.000178989 3.11041e-05)
(0.00024407 -0.000158319 3.11041e-05)
(0.00025694 -0.000136445 3.11042e-05)
(0.000267854 -0.000113532 3.11041e-05)
(0.00027673 -8.97547e-05 3.11041e-05)
(0.000283499 -6.52946e-05 3.11041e-05)
(0.000288111 -4.03374e-05 3.11042e-05)
(0.00029053 -1.50734e-05 3.11042e-05)
(0.000290739 1.03054e-05 3.11043e-05)
(0.000288734 3.56057e-05 3.11043e-05)
(0.000284532 6.06349e-05 3.11043e-05)
(0.000278164 8.52028e-05 3.11042e-05)
(0.00026968 0.000109122 3.11042e-05)
(0.000259143 0.000132211 3.11042e-05)
(0.000246634 0.000154294 3.11042e-05)
(0.000232248 0.000175202 3.11042e-05)
(0.000216095 0.000194777 3.11042e-05)
(0.000198296 0.00021287 3.11042e-05)
(0.000178989 0.000229343 3.11041e-05)
(0.000158319 0.00024407 3.11041e-05)
(0.000136445 0.00025694 3.11042e-05)
(0.000113532 0.000267854 3.11041e-05)
(8.97547e-05 0.00027673 3.11041e-05)
(6.52946e-05 0.000283499 3.11041e-05)
(4.03374e-05 0.000288111 3.11042e-05)
(1.50734e-05 0.00029053 3.11042e-05)
(-1.03054e-05 0.000290739 3.11043e-05)
(-3.56057e-05 0.000288734 3.11043e-05)
(-6.06349e-05 0.000284532 3.11043e-05)
(-8.52028e-05 0.000278164 3.11042e-05)
(-0.000109122 0.00026968 3.11042e-05)
(-0.000132211 0.000259143 3.11042e-05)
(-0.000154294 0.000246634 3.11042e-05)
(-0.000175202 0.000232248 3.11042e-05)
(-0.000194777 0.000216095 3.11042e-05)
(-0.00021287 0.000198296 3.11042e-05)
(-0.000229343 0.000178989 3.11041e-05)
(-0.00024407 0.000158319 3.11041e-05)
(-0.00025694 0.000136445 3.11042e-05)
(-0.000267854 0.000113532 3.11041e-05)
(-0.00027673 8.97547e-05 3.11041e-05)
(-0.000283499 6.52946e-05 3.11041e-05)
(-0.000288111 4.03374e-05 3.11042e-05)
(-0.00029053 1.50734e-05 3.11042e-05)
(-0.000290739 -1.03054e-05 3.11043e-05)
(-0.000288734 -3.56057e-05 3.11043e-05)
(-0.000284532 -6.06349e-05 3.11043e-05)
(-0.000278164 -8.52028e-05 3.11042e-05)
(-0.00026968 -0.000109122 3.11042e-05)
(-0.000259143 -0.000132211 3.11042e-05)
(-0.000246634 -0.000154294 3.11042e-05)
(-0.000232248 -0.000175202 3.11042e-05)
(-0.000216095 -0.000194777 3.11042e-05)
(-0.000198296 -0.00021287 3.11042e-05)
(-0.000178989 -0.000229343 3.11041e-05)
(-0.000158319 -0.00024407 3.11041e-05)
(-0.000136445 -0.00025694 3.11042e-05)
(-0.000113532 -0.000267854 3.11041e-05)
(-8.97547e-05 -0.00027673 3.11041e-05)
(-6.52946e-05 -0.000283499 3.11041e-05)
(-4.03374e-05 -0.000288111 3.11042e-05)
(-1.50734e-05 -0.00029053 3.11042e-05)
(1.03054e-05 -0.000290739 3.11043e-05)
(3.56057e-05 -0.000288734 3.11043e-05)
(6.06349e-05 -0.000284532 3.11043e-05)
(8.52028e-05 -0.000278164 3.11042e-05)
(0.000109122 -0.00026968 3.11042e-05)
(0.000132211 -0.000259143 3.11042e-05)
(0.000141434 -0.000252602 3.58865e-05)
(0.000162912 -0.000239314 3.58865e-05)
(0.00018315 -0.000224204 3.58866e-05)
(0.000201993 -0.000207388 3.58865e-05)
(0.0002193 -0.000188994 3.58865e-05)
(0.000234937 -0.000169162 3.58865e-05)
(0.000248787 -0.000148042 3.58866e-05)
(0.000260743 -0.000125796 3.58866e-05)
(0.000270714 -0.000102592 3.58865e-05)
(0.000278625 -7.86071e-05 3.58866e-05)
(0.000284416 -5.40241e-05 3.58866e-05)
(0.000288042 -2.90299e-05 3.58866e-05)
(0.000289476 -3.81501e-06 3.58866e-05)
(0.000288707 2.14291e-05 3.58866e-05)
(0.000285741 4.651e-05 3.58866e-05)
(0.0002806 7.1237e-05 3.58866e-05)
(0.000273324 9.5422e-05 3.58866e-05)
(0.000263967 0.000118881 3.58866e-05)
(0.000252602 0.000141434 3.58865e-05)
(0.000239314 0.000162912 3.58865e-05)
(0.000224204 0.00018315 3.58866e-05)
(0.000207388 0.000201993 3.58865e-05)
(0.000188994 0.0002193 3.58865e-05)
(0.000169162 0.000234937 3.58865e-05)
(0.000148042 0.000248787 3.58866e-05)
(0.000125796 0.000260743 3.58866e-05)
(0.000102592 0.000270714 3.58865e-05)
(7.86071e-05 0.000278625 3.58866e-05)
(5.40241e-05 0.000284416 3.58866e-05)
(2.90299e-05 0.000288042 3.58866e-05)
(3.81501e-06 0.000289476 3.58866e-05)
(-2.14291e-05 0.000288707 3.58866e-05)
(-4.651e-05 0.000285741 3.58866e-05)
(-7.1237e-05 0.0002806 3.58866e-05)
(-9.5422e-05 0.000273324 3.58866e-05)
(-0.000118881 0.000263967 3.58866e-05)
(-0.000141434 0.000252602 3.58865e-05)
(-0.000162912 0.000239314 3.58865e-05)
(-0.00018315 0.000224204 3.58866e-05)
(-0.000201993 0.000207388 3.58865e-05)
(-0.0002193 0.000188994 3.58865e-05)
(-0.000234937 0.000169162 3.58865e-05)
(-0.000248787 0.000148042 3.58866e-05)
(-0.000260743 0.000125796 3.58866e-05)
(-0.000270714 0.000102592 3.58865e-05)
(-0.000278625 7.86071e-05 3.58866e-05)
(-0.000284416 5.40241e-05 3.58866e-05)
(-0.000288042 2.90299e-05 3.58866e-05)
(-0.000289476 3.81501e-06 3.58866e-05)
(-0.000288707 -2.14291e-05 3.58866e-05)
(-0.000285741 -4.651e-05 3.58866e-05)
(-0.0002806 -7.1237e-05 3.58866e-05)
(-0.000273324 -9.5422e-05 3.58866e-05)
(-0.000263967 -0.000118881 3.58866e-05)
(-0.000252602 -0.000141434 3.58865e-05)
(-0.000239314 -0.000162912 3.58865e-05)
(-0.000224204 -0.00018315 3.58866e-05)
(-0.000207388 -0.000201993 3.58865e-05)
(-0.000188994 -0.0002193 3.58865e-05)
(-0.000169162 -0.000234937 3.58865e-05)
(-0.000148042 -0.000248787 3.58866e-05)
(-0.000125796 -0.000260743 3.58866e-05)
(-0.000102592 -0.000270714 3.58865e-05)
(-7.86071e-05 -0.000278625 3.58866e-05)
(-5.40241e-05 -0.000284416 3.58866e-05)
(-2.90299e-05 -0.000288042 3.58866e-05)
(-3.81501e-06 -0.000289476 3.58866e-05)
(2.14291e-05 -0.000288707 3.58866e-05)
(4.651e-05 -0.000285741 3.58866e-05)
(7.1237e-05 -0.0002806 3.58866e-05)
(9.5422e-05 -0.000273324 3.58866e-05)
(0.000118881 -0.000263967 3.58866e-05)
(0.000125581 -0.000258451 3.93913e-05)
(0.000147629 -0.000246523 3.93913e-05)
(0.000168553 -0.000232718 3.93913e-05)
(0.000188195 -0.000217142 3.93914e-05)
(0.000206404 -0.000199913 3.93913e-05)
(0.000223042 -0.000181164 3.93914e-05)
(0.000237982 -0.000161035 3.93914e-05)
(0.000251112 -0.00013968 3.93914e-05)
(0.00026233 -0.000117263 3.93914e-05)
(0.000271552 -9.39533e-05 3.93914e-05)
(0.000278707 -6.99284e-05 3.93914e-05)
(0.000283742 -4.53714e-05 3.93915e-05)
(0.000286616 -2.0469e-05 3.93915e-05)
(0.000287309 4.58918e-06 3.93914e-05)
(0.000285816 2.96122e-05 3.93914e-05)
(0.000282148 5.44103e-05 3.93914e-05)
(0.000276332 7.8794e-05 3.93914e-05)
(0.000268413 0.000102578 3.93913e-05)
(0.000258451 0.000125581 3.93913e-05)
(0.000246523 0.000147629 3.93913e-05)
(0.000232718 0.000168553 3.93913e-05)
(0.000217142 0.000188195 3.93914e-05)
(0.000199913 0.000206404 3.93913e-05)
(0.000181164 0.000223042 3.93914e-05)
(0.000161035 0.000237982 3.93914e-05)
(0.00013968 0.000251112 3.93914e-05)
(0.000117263 0.00026233 3.93914e-05)
(9.39533e-05 0.000271552 3.93914e-05)
(6.99284e-05 0.000278707 3.93914e-05)
(4.53714e-05 0.000283742 3.93915e-05)
(2.0469e-05 0.000286616 3.93915e-05)
(-4.58918e-06 0.000287309 3.93914e-05)
(-2.96122e-05 0.000285816 3.93914e-05)
(-5.44103e-05 0.000282148 3.93914e-05)
(-7.8794e-05 0.000276332 3.93914e-05)
(-0.000102578 0.000268413 3.93913e-05)
(-0.000125581 0.000258451 3.93913e-05)
(-0.000147629 0.000246523 3.93913e-05)
(-0.000168553 0.000232718 3.93913e-05)
(-0.000188195 0.000217142 3.93914e-05)
(-0.000206404 0.000199913 3.93913e-05)
(-0.000223042 0.000181164 3.93914e-05)
(-0.000237982 0.000161035 3.93914e-05)
(-0.000251112 0.00013968 3.93914e-05)
(-0.00026233 0.000117263 3.93914e-05)
(-0.000271552 9.39533e-05 3.93914e-05)
(-0.000278707 6.99284e-05 3.93914e-05)
(-0.000283742 4.53714e-05 3.93915e-05)
(-0.000286616 2.0469e-05 3.93915e-05)
(-0.000287309 -4.58918e-06 3.93914e-05)
(-0.000285816 -2.96122e-05 3.93914e-05)
(-0.000282148 -5.44103e-05 3.93914e-05)
(-0.000276332 -7.8794e-05 3.93914e-05)
(-0.000268413 -0.000102578 3.93913e-05)
(-0.000258451 -0.000125581 3.93913e-05)
(-0.000246523 -0.000147629 3.93913e-05)
(-0.000232718 -0.000168553 3.93913e-05)
(-0.000217142 -0.000188195 3.93914e-05)
(-0.000199913 -0.000206404 3.93913e-05)
(-0.000181164 -0.000223042 3.93914e-05)
(-0.000161035 -0.000237982 3.93914e-05)
(-0.00013968 -0.000251112 3.93914e-05)
(-0.000117263 -0.00026233 3.93914e-05)
(-9.39533e-05 -0.000271552 3.93914e-05)
(-6.99284e-05 -0.000278707 3.93914e-05)
(-4.53714e-05 -0.000283742 3.93915e-05)
(-2.0469e-05 -0.000286616 3.93915e-05)
(4.58918e-06 -0.000287309 3.93914e-05)
(2.96122e-05 -0.000285816 3.93914e-05)
(5.44103e-05 -0.000282148 3.93914e-05)
(7.8794e-05 -0.000276332 3.93914e-05)
(0.000102578 -0.000268413 3.93913e-05)
(0.000107306 -0.000263563 4.25887e-05)
(0.000129869 -0.000253207 4.25887e-05)
(0.000151443 -0.000240925 4.25887e-05)
(0.000171865 -0.000226809 4.25887e-05)
(0.000190979 -0.000210967 4.25888e-05)
(0.000208639 -0.000193519 4.25887e-05)
(0.000224711 -0.000174599 4.25887e-05)
(0.000239074 -0.00015435 4.25888e-05)
(0.000251616 -0.000132925 4.25887e-05)
(0.000262244 -0.00011049 4.25887e-05)
(0.000270876 -8.72133e-05 4.25888e-05)
(0.000277446 -6.32731e-05 4.25887e-05)
(0.000281905 -3.88512e-05 4.25888e-05)
(0.000284218 -1.41338e-05 4.25887e-05)
(0.000284369 1.06913e-05 4.25887e-05)
(0.000282355 3.54349e-05 4.25887e-05)
(0.000278192 5.9909e-05 4.25887e-05)
(0.000271912 8.39271e-05 4.25887e-05)
(0.000263563 0.000107306 4.25887e-05)
(0.000253207 0.000129869 4.25887e-05)
(0.000240925 0.000151443 4.25887e-05)
(0.000226809 0.000171865 4.25887e-05)
(0.000210967 0.000190979 4.25888e-05)
(0.000193519 0.000208639 4.25887e-05)
(0.000174599 0.000224711 4.25887e-05)
(0.00015435 0.000239074 4.25888e-05)
(0.000132925 0.000251616 4.25887e-05)
(0.00011049 0.000262244 4.25887e-05)
(8.72133e-05 0.000270876 4.25888e-05)
(6.32731e-05 0.000277446 4.25887e-05)
(3.88512e-05 0.000281905 4.25888e-05)
(1.41338e-05 0.000284218 4.25887e-05)
(-1.06913e-05 0.000284369 4.25887e-05)
(-3.54349e-05 0.000282355 4.25887e-05)
(-5.9909e-05 0.000278192 4.25887e-05)
(-8.39271e-05 0.000271912 4.25887e-05)
(-0.000107306 0.000263563 4.25887e-05)
(-0.000129869 0.000253207 4.25887e-05)
(-0.000151443 0.000240925 4.25887e-05)
(-0.000171865 0.000226809 4.25887e-05)
(-0.000190979 0.000210967 4.25888e-05)
(-0.000208639 0.000193519 4.25887e-05)
(-0.000224711 0.000174599 4.25887e-05)
(-0.000239074 0.00015435 4.25888e-05)
(-0.000251616 0.000132925 4.25887e-05)
(-0.000262244 0.00011049 4.25887e-05)
(-0.000270876 8.72133e-05 4.25888e-05)
(-0.000277446 6.32731e-05 4.25887e-05)
(-0.000281905 3.88512e-05 4.25888e-05)
(-0.000284218 1.41338e-05 4.25887e-05)
(-0.000284369 -1.06913e-05 4.25887e-05)
(-0.000282355 -3.54349e-05 4.25887e-05)
(-0.000278192 -5.9909e-05 4.25887e-05)
(-0.000271912 -8.39271e-05 4.25887e-05)
(-0.000263563 -0.000107306 4.25887e-05)
(-0.000253207 -0.000129869 4.25887e-05)
(-0.000240925 -0.000151443 4.25887e-05)
(-0.000226809 -0.000171865 4.25887e-05)
(-0.000210967 -0.000190979 4.25888e-05)
(-0.000193519 -0.000208639 4.25887e-05)
(-0.000174599 -0.000224711 4.25887e-05)
(-0.00015435 -0.000239074 4.25888e-05)
(-0.000132925 -0.000251616 4.25887e-05)
(-0.00011049 -0.000262244 4.25887e-05)
(-8.72133e-05 -0.000270876 4.25888e-05)
(-6.32731e-05 -0.000277446 4.25887e-05)
(-3.88512e-05 -0.000281905 4.25888e-05)
(-1.41338e-05 -0.000284218 4.25887e-05)
(1.06913e-05 -0.000284369 4.25887e-05)
(3.54349e-05 -0.000282355 4.25887e-05)
(5.9909e-05 -0.000278192 4.25887e-05)
(8.39271e-05 -0.000271912 4.25887e-05)
(8.66973e-05 -0.000267393 4.63827e-05)
(0.000109672 -0.00025882 4.63827e-05)
(0.000131812 -0.000248276 4.63828e-05)
(0.00015295 -0.000235843 4.63828e-05)
(0.000172923 -0.000221615 4.63828e-05)
(0.00019158 -0.000205701 4.63827e-05)
(0.000208779 -0.000188221 4.63828e-05)
(0.000224389 -0.000169308 4.63827e-05)
(0.000238291 -0.000149107 4.63827e-05)
(0.00025038 -0.000127771 4.63826e-05)
(0.000260563 -0.000105463 4.63827e-05)
(0.000268763 -8.23524e-05 4.63828e-05)
(0.000274918 -5.86146e-05 4.63827e-05)
(0.00027898 -3.44308e-05 4.63827e-05)
(0.00028092 -9.98514e-06 4.63827e-05)
(0.000280721 1.45366e-05 4.63828e-05)
(0.000278386 3.89477e-05 4.63827e-05)
(0.000273932 6.30624e-05 4.63827e-05)
(0.000267393 8.66973e-05 4.63827e-05)
(0.00025882 0.000109672 4.63827e-05)
(0.000248276 0.000131812 4.63828e-05)
(0.000235843 0.00015295 4.63828e-05)
(0.000221615 0.000172923 4.63828e-05)
(0.000205701 0.00019158 4.63827e-05)
(0.000188221 0.000208779 4.63828e-05)
(0.000169308 0.000224389 4.63827e-05)
(0.000149107 0.000238291 4.63827e-05)
(0.000127771 0.00025038 4.63826e-05)
(0.000105463 0.000260563 4.63827e-05)
(8.23524e-05 0.000268763 4.63828e-05)
(5.86146e-05 0.000274918 4.63827e-05)