/*--------------------------------*- C++ -*----------------------------------*\
| =========                 |                                                 |
| \\      /  F ield         | OpenFOAM: The Open Source CFD Toolbox           |
|  \\    /   O peration     | Version:  2312                                  |
|   \\  /    A nd           | Website:  www.openfoam.com                      |
|    \\/     M anipulation  |                                                 |
\*---------------------------------------------------------------------------*/
FoamFile
{
    version     2.0;
    format      ascii;
    arch        "LSB;label=32;scalar=64";
    class       volVectorField;
    location    "0.2";
    object      D_0_0;
}
// * * * * * * * * * * * * * * * * * * * * * * * * * * * * * * * * * * * * * //

dimensions      [0 1 0 0 0 0 0];

internalField   nonuniform List<vector> 
12960
(
(6.1664e-05 -8.38531e-05 7.59763e-06)
(6.87377e-05 -7.81597e-05 7.59763e-06)
(7.52882e-05 -7.18715e-05 7.59764e-06)
(8.12656e-05 -6.5036e-05 7.59761e-06)
(8.66247e-05 -5.77059e-05 7.59762e-06)
(9.13243e-05 -4.99363e-05 7.59763e-06)
(9.53291e-05 -4.17869e-05 7.59764e-06)
(9.86084e-05 -3.33194e-05 7.59758e-06)
(0.000101137 -2.45983e-05 7.59755e-06)
(0.000102896 -1.56901e-05 7.59759e-06)
(0.000103872 -6.66239e-06 7.59762e-06)
(0.000104057 2.41608e-06 7.59764e-06)
(0.000103451 1.14761e-05 7.59767e-06)
(0.000102057 2.04488e-05 7.59769e-06)
(9.98863e-05 2.92658e-05 7.59765e-06)
(9.69557e-05 3.78601e-05 7.59763e-06)
(9.3287e-05 4.61663e-05 7.59761e-06)
(8.89084e-05 5.41211e-05 7.5976e-06)
(8.38531e-05 6.1664e-05 7.59763e-06)
(7.81597e-05 6.87377e-05 7.59763e-06)
(7.18715e-05 7.52882e-05 7.59764e-06)
(6.5036e-05 8.12656e-05 7.59761e-06)
(5.77059e-05 8.66248e-05 7.59762e-06)
(4.99363e-05 9.13243e-05 7.59763e-06)
(4.17869e-05 9.53291e-05 7.59764e-06)
(3.33194e-05 9.86084e-05 7.59758e-06)
(2.45983e-05 0.000101137 7.59755e-06)
(1.56901e-05 0.000102896 7.59759e-06)
(6.66239e-06 0.000103872 7.59762e-06)
(-2.41608e-06 0.000104057 7.59764e-06)
(-1.14761e-05 0.000103451 7.59767e-06)
(-2.04488e-05 0.000102057 7.59769e-06)
(-2.92658e-05 9.98863e-05 7.59765e-06)
(-3.78601e-05 9.69557e-05 7.59763e-06)
(-4.61663e-05 9.3287e-05 7.59761e-06)
(-5.41211e-05 8.89084e-05 7.5976e-06)
(-6.1664e-05 8.38531e-05 7.59763e-06)
(-6.87377e-05 7.81597e-05 7.59763e-06)
(-7.52882e-05 7.18715e-05 7.59764e-06)
(-8.12656e-05 6.5036e-05 7.59761e-06)
(-8.66248e-05 5.77059e-05 7.59762e-06)
(-9.13243e-05 4.99363e-05 7.59763e-06)
(-9.53291e-05 4.17869e-05 7.59764e-06)
(-9.86084e-05 3.33194e-05 7.59758e-06)
(-0.000101137 2.45983e-05 7.59755e-06)
(-0.000102896 1.56901e-05 7.59759e-06)
(-0.000103872 6.66239e-06 7.59762e-06)
(-0.000104057 -2.41608e-06 7.59764e-06)
(-0.000103451 -1.14761e-05 7.59767e-06)
(-0.000102057 -2.04488e-05 7.59769e-06)
(-9.98863e-05 -2.92658e-05 7.59765e-06)
(-9.69557e-05 -3.78601e-05 7.59763e-06)
(-9.3287e-05 -4.61663e-05 7.59761e-06)
(-8.89084e-05 -5.41211e-05 7.5976e-06)
(-8.38531e-05 -6.1664e-05 7.59763e-06)
(-7.81597e-05 -6.87377e-05 7.59763e-06)
(-7.18715e-05 -7.52882e-05 7.59764e-06)
(-6.5036e-05 -8.12656e-05 7.59761e-06)
(-5.77059e-05 -8.66247e-05 7.59762e-06)
(-4.99363e-05 -9.13243e-05 7.59763e-06)
(-4.17869e-05 -9.53291e-05 7.59764e-06)
(-3.33194e-05 -9.86084e-05 7.59758e-06)
(-2.45983e-05 -0.000101137 7.59755e-06)
(-1.56901e-05 -0.000102896 7.59759e-06)
(-6.66239e-06 -0.000103872 7.59762e-06)
(2.41608e-06 -0.000104057 7.59764e-06)
(1.14761e-05 -0.000103451 7.59767e-06)
(2.04488e-05 -0.000102057 7.59769e-06)
(2.92658e-05 -9.98863e-05 7.59765e-06)
(3.78601e-05 -9.69557e-05 7.59763e-06)
(4.61663e-05 -9.3287e-05 7.59761e-06)
(5.41211e-05 -8.89084e-05 7.5976e-06)
(5.41625e-05 -8.663e-05 8.281e-06)
(6.15066e-05 -8.15796e-05 8.28099e-06)
(6.83828e-05 -7.59087e-05 8.281e-06)
(7.47386e-05 -6.966e-05 8.28101e-06)
(8.05254e-05 -6.28809e-05 8.281e-06)
(8.56995e-05 -5.56235e-05 8.28101e-06)
(9.02214e-05 -4.79427e-05 8.28102e-06)
(9.40565e-05 -3.98969e-05 8.281e-06)
(9.71757e-05 -3.15474e-05 8.28099e-06)
(9.95554e-05 -2.2958e-05 8.281e-06)
(0.000101178 -1.41939e-05 8.28102e-06)
(0.00010203 -5.32156e-06 8.28102e-06)
(0.000102105 3.59114e-06 8.28103e-06)
(0.000101404 1.24765e-05 8.28103e-06)
(9.99303e-05 2.12669e-05 8.28103e-06)
(9.76963e-05 2.98955e-05 8.28101e-06)
(9.47188e-05 3.82965e-05 8.281e-06)
(9.10209e-05 4.64061e-05 8.28101e-06)
(8.663e-05 5.41625e-05 8.28101e-06)
(8.15796e-05 6.15066e-05 8.28099e-06)
(7.59087e-05 6.83828e-05 8.281e-06)
(6.966e-05 7.47386e-05 8.28101e-06)
(6.28809e-05 8.05254e-05 8.281e-06)
(5.56235e-05 8.56995e-05 8.28101e-06)
(4.79427e-05 9.02214e-05 8.28102e-06)
(3.98969e-05 9.40565e-05 8.281e-06)
(3.15474e-05 9.71757e-05 8.28099e-06)
(2.2958e-05 9.95554e-05 8.281e-06)
(1.41939e-05 0.000101178 8.28102e-06)
(5.32156e-06 0.00010203 8.28102e-06)
(-3.59114e-06 0.000102105 8.28103e-06)
(-1.24765e-05 0.000101404 8.28103e-06)
(-2.12669e-05 9.99303e-05 8.28103e-06)
(-2.98955e-05 9.76963e-05 8.28101e-06)
(-3.82965e-05 9.47188e-05 8.281e-06)
(-4.64061e-05 9.10209e-05 8.28101e-06)
(-5.41625e-05 8.663e-05 8.28101e-06)
(-6.15066e-05 8.15796e-05 8.28099e-06)
(-6.83828e-05 7.59087e-05 8.281e-06)
(-7.47386e-05 6.966e-05 8.28101e-06)
(-8.05254e-05 6.28809e-05 8.281e-06)
(-8.56995e-05 5.56235e-05 8.28101e-06)
(-9.02214e-05 4.79427e-05 8.28102e-06)
(-9.40565e-05 3.98969e-05 8.281e-06)
(-9.71757e-05 3.15474e-05 8.28099e-06)
(-9.95554e-05 2.2958e-05 8.281e-06)
(-0.000101178 1.41939e-05 8.28102e-06)
(-0.00010203 5.32156e-06 8.28102e-06)
(-0.000102105 -3.59114e-06 8.28103e-06)
(-0.000101404 -1.24765e-05 8.28103e-06)
(-9.99303e-05 -2.12669e-05 8.28103e-06)
(-9.76963e-05 -2.98955e-05 8.28101e-06)
(-9.47188e-05 -3.82965e-05 8.281e-06)
(-9.10209e-05 -4.64061e-05 8.28101e-06)
(-8.663e-05 -5.41625e-05 8.28101e-06)
(-8.15796e-05 -6.15066e-05 8.28099e-06)
(-7.59087e-05 -6.83828e-05 8.281e-06)
(-6.966e-05 -7.47386e-05 8.28101e-06)
(-6.28809e-05 -8.05254e-05 8.281e-06)
(-5.56235e-05 -8.56995e-05 8.28101e-06)
(-4.79427e-05 -9.02214e-05 8.28102e-06)
(-3.98969e-05 -9.40565e-05 8.281e-06)
(-3.15474e-05 -9.71757e-05 8.28099e-06)
(-2.2958e-05 -9.95554e-05 8.281e-06)
(-1.41939e-05 -0.000101178 8.28102e-06)
(-5.32156e-06 -0.00010203 8.28102e-06)
(3.59114e-06 -0.000102105 8.28103e-06)
(1.24765e-05 -0.000101404 8.28103e-06)
(2.12669e-05 -9.99303e-05 8.28103e-06)
(2.98955e-05 -9.76963e-05 8.28101e-06)
(3.82965e-05 -9.47188e-05 8.281e-06)
(4.64061e-05 -9.10209e-05 8.28101e-06)
(4.63204e-05 -8.93215e-05 8.42591e-06)
(5.3929e-05 -8.49446e-05 8.42592e-06)
(6.11272e-05 -7.99212e-05 8.42592e-06)
(6.78602e-05 -7.42893e-05 8.42591e-06)
(7.40768e-05 -6.80924e-05 8.42595e-06)
(7.97294e-05 -6.1377e-05 8.4259e-06)
(8.47752e-05 -5.41944e-05 8.42589e-06)
(8.91761e-05 -4.65996e-05 8.4259e-06)
(9.28981e-05 -3.86501e-05 8.4259e-06)
(9.59132e-05 -3.04064e-05 8.42589e-06)
(9.81984e-05 -2.19313e-05 8.42591e-06)
(9.97359e-05 -1.32893e-05 8.42589e-06)
(0.000100515 -4.54615e-06 8.42592e-06)
(0.000100529 4.23162e-06 8.42594e-06)
(9.97772e-05 1.29771e-05 8.42593e-06)
(9.82666e-05 2.1624e-05 8.42592e-06)
(9.6008e-05 3.01062e-05 8.42594e-06)
(9.30187e-05 3.83592e-05 8.42591e-06)
(8.93215e-05 4.63204e-05 8.42591e-06)
(8.49446e-05 5.3929e-05 8.42592e-06)
(7.99212e-05 6.11272e-05 8.42592e-06)
(7.42893e-05 6.78602e-05 8.42591e-06)
(6.80924e-05 7.40768e-05 8.42595e-06)
(6.1377e-05 7.97294e-05 8.4259e-06)
(5.41944e-05 8.47752e-05 8.42589e-06)
(4.65996e-05 8.91761e-05 8.4259e-06)
(3.86501e-05 9.28981e-05 8.4259e-06)
(3.04064e-05 9.59132e-05 8.42589e-06)
(2.19313e-05 9.81984e-05 8.42591e-06)
(1.32893e-05 9.97359e-05 8.42589e-06)
(4.54615e-06 0.000100515 8.42592e-06)
(-4.23162e-06 0.000100529 8.42594e-06)
(-1.29771e-05 9.97772e-05 8.42593e-06)
(-2.1624e-05 9.82666e-05 8.42592e-06)
(-3.01062e-05 9.6008e-05 8.42594e-06)
(-3.83592e-05 9.30187e-05 8.42591e-06)
(-4.63204e-05 8.93215e-05 8.42591e-06)
(-5.3929e-05 8.49446e-05 8.42592e-06)
(-6.11272e-05 7.99212e-05 8.42592e-06)
(-6.78602e-05 7.42893e-05 8.42591e-06)
(-7.40768e-05 6.80924e-05 8.42595e-06)
(-7.97294e-05 6.1377e-05 8.4259e-06)
(-8.47752e-05 5.41944e-05 8.42589e-06)
(-8.91761e-05 4.65996e-05 8.4259e-06)
(-9.28981e-05 3.86501e-05 8.4259e-06)
(-9.59132e-05 3.04064e-05 8.42589e-06)
(-9.81984e-05 2.19313e-05 8.42591e-06)
(-9.97359e-05 1.32893e-05 8.42589e-06)
(-0.000100515 4.54615e-06 8.42592e-06)
(-0.000100529 -4.23162e-06 8.42594e-06)
(-9.97772e-05 -1.29771e-05 8.42593e-06)
(-9.82666e-05 -2.1624e-05 8.42592e-06)
(-9.6008e-05 -3.01062e-05 8.42594e-06)
(-9.30187e-05 -3.83592e-05 8.42591e-06)
(-8.93215e-05 -4.63204e-05 8.42591e-06)
(-8.49446e-05 -5.3929e-05 8.42592e-06)
(-7.99212e-05 -6.11272e-05 8.42592e-06)
(-7.42893e-05 -6.78602e-05 8.42591e-06)
(-6.80924e-05 -7.40768e-05 8.42595e-06)
(-6.1377e-05 -7.97294e-05 8.4259e-06)
(-5.41944e-05 -8.47752e-05 8.42589e-06)
(-4.65996e-05 -8.91761e-05 8.4259e-06)
(-3.86501e-05 -9.28981e-05 8.4259e-06)
(-3.04064e-05 -9.59132e-05 8.42589e-06)
(-2.19313e-05 -9.81984e-05 8.42591e-06)
(-1.32893e-05 -9.97359e-05 8.42589e-06)
(-4.54615e-06 -0.000100515 8.42592e-06)
(4.23162e-06 -0.000100529 8.42594e-06)
(1.29771e-05 -9.97772e-05 8.42593e-06)
(2.1624e-05 -9.82666e-05 8.42592e-06)
(3.01062e-05 -9.6008e-05 8.42594e-06)
(3.83592e-05 -9.30187e-05 8.42591e-06)
(3.73646e-05 -9.16367e-05 8.73745e-06)
(4.5209e-05 -8.80314e-05 8.73744e-06)
(5.27096e-05 -8.37564e-05 8.73749e-06)
(5.98086e-05 -7.88434e-05 8.73745e-06)
(6.64526e-05 -7.33307e-05 8.73747e-06)
(7.2591e-05 -6.72601e-05 8.73748e-06)
(7.81768e-05 -6.06774e-05 8.73749e-06)
(8.31679e-05 -5.3633e-05 8.73749e-06)
(8.75259e-05 -4.61804e-05 8.73746e-06)
(9.12177e-05 -3.83763e-05 8.73746e-06)
(9.42153e-05 -3.028e-05 8.73748e-06)
(9.64956e-05 -2.19534e-05 8.73749e-06)
(9.80418e-05 -1.34597e-05 8.73748e-06)
(9.88416e-05 -4.86354e-06 8.73744e-06)
(9.88895e-05 3.76957e-06 8.73746e-06)
(9.81851e-05 1.2374e-05 8.73748e-06)
(9.67328e-05 2.08843e-05 8.73746e-06)
(9.45445e-05 2.92357e-05 8.73745e-06)
(9.16367e-05 3.73646e-05 8.73745e-06)
(8.80314e-05 4.5209e-05 8.73744e-06)
(8.37564e-05 5.27096e-05 8.73749e-06)
(7.88434e-05 5.98086e-05 8.73745e-06)
(7.33307e-05 6.64526e-05 8.73747e-06)
(6.72601e-05 7.2591e-05 8.73748e-06)
(6.06774e-05 7.81768e-05 8.73749e-06)
(5.3633e-05 8.31679e-05 8.73749e-06)
(4.61804e-05 8.75259e-05 8.73746e-06)
(3.83763e-05 9.12177e-05 8.73746e-06)
(3.028e-05 9.42153e-05 8.73748e-06)
(2.19534e-05 9.64956e-05 8.73749e-06)
(1.34597e-05 9.80418e-05 8.73748e-06)
(4.86354e-06 9.88416e-05 8.73744e-06)
(-3.76957e-06 9.88895e-05 8.73746e-06)
(-1.2374e-05 9.81851e-05 8.73748e-06)
(-2.08843e-05 9.67328e-05 8.73746e-06)
(-2.92357e-05 9.45445e-05 8.73745e-06)
(-3.73646e-05 9.16367e-05 8.73745e-06)
(-4.5209e-05 8.80314e-05 8.73744e-06)
(-5.27096e-05 8.37564e-05 8.73749e-06)
(-5.98086e-05 7.88434e-05 8.73745e-06)
(-6.64526e-05 7.33307e-05 8.73747e-06)
(-7.2591e-05 6.72601e-05 8.73748e-06)
(-7.81768e-05 6.06774e-05 8.73749e-06)
(-8.31679e-05 5.3633e-05 8.73749e-06)
(-8.75259e-05 4.61804e-05 8.73746e-06)
(-9.12177e-05 3.83763e-05 8.73746e-06)
(-9.42153e-05 3.028e-05 8.73748e-06)
(-9.64956e-05 2.19534e-05 8.73749e-06)
(-9.80418e-05 1.34597e-05 8.73748e-06)
(-9.88416e-05 4.86354e-06 8.73744e-06)
(-9.88895e-05 -3.76957e-06 8.73746e-06)
(-9.81851e-05 -1.2374e-05 8.73748e-06)
(-9.67328e-05 -2.08843e-05 8.73746e-06)
(-9.45445e-05 -2.92357e-05 8.73745e-06)
(-9.16367e-05 -3.73646e-05 8.73745e-06)
(-8.80314e-05 -4.5209e-05 8.73744e-06)
(-8.37564e-05 -5.27096e-05 8.73749e-06)
(-7.88434e-05 -5.98086e-05 8.73745e-06)
(-7.33307e-05 -6.64526e-05 8.73747e-06)
(-6.72601e-05 -7.2591e-05 8.73748e-06)
(-6.06774e-05 -7.81768e-05 8.73749e-06)
(-5.3633e-05 -8.31679e-05 8.73749e-06)
(-4.61804e-05 -8.75259e-05 8.73746e-06)
(-3.83763e-05 -9.12177e-05 8.73746e-06)
(-3.028e-05 -9.42153e-05 8.73748e-06)
(-2.19534e-05 -9.64956e-05 8.73749e-06)
(-1.34597e-05 -9.80418e-05 8.73748e-06)
(-4.86354e-06 -9.88416e-05 8.73744e-06)
(3.76957e-06 -9.88895e-05 8.73746e-06)
(1.2374e-05 -9.81851e-05 8.73748e-06)
(2.08843e-05 -9.67328e-05 8.73746e-06)
(2.92357e-05 -9.45445e-05 8.73745e-06)
(2.65148e-05 -9.33493e-05 9.76891e-06)
(3.45499e-05 -9.06833e-05 9.76894e-06)
(4.23218e-05 -8.73268e-05 9.76892e-06)
(4.97718e-05 -8.3306e-05 9.76894e-06)
(5.6843e-05 -7.8651e-05 9.76894e-06)
(6.34815e-05 -7.33975e-05 9.76893e-06)
(6.96368e-05 -6.75853e-05 9.76893e-06)
(7.52624e-05 -6.12588e-05 9.76891e-06)
(8.03154e-05 -5.44666e-05 9.76893e-06)
(8.47569e-05 -4.72593e-05 9.76894e-06)
(8.85528e-05 -3.96922e-05 9.7689e-06)
(9.16752e-05 -3.18232e-05 9.76893e-06)
(9.41e-05 -2.37121e-05 9.76891e-06)
(9.58086e-05 -1.54206e-05 9.76889e-06)
(9.67882e-05 -7.01167e-06 9.76892e-06)
(9.70309e-05 1.45065e-06 9.76892e-06)
(9.65355e-05 9.90201e-06 9.76895e-06)
(9.5305e-05 1.82779e-05 9.76891e-06)
(9.33493e-05 2.65148e-05 9.76891e-06)
(9.06833e-05 3.45499e-05 9.76894e-06)
(8.73268e-05 4.23218e-05 9.76892e-06)
(8.3306e-05 4.97718e-05 9.76894e-06)
(7.8651e-05 5.6843e-05 9.76894e-06)
(7.33975e-05 6.34815e-05 9.76893e-06)
(6.75853e-05 6.96368e-05 9.76893e-06)
(6.12588e-05 7.52624e-05 9.76891e-06)
(5.44666e-05 8.03154e-05 9.76893e-06)
(4.72593e-05 8.47569e-05 9.76894e-06)
(3.96922e-05 8.85528e-05 9.7689e-06)
(3.18232e-05 9.16752e-05 9.76893e-06)
(2.37121e-05 9.41e-05 9.76891e-06)
(1.54206e-05 9.58086e-05 9.76889e-06)
(7.01167e-06 9.67882e-05 9.76892e-06)
(-1.45065e-06 9.70309e-05 9.76892e-06)
(-9.90201e-06 9.65355e-05 9.76895e-06)
(-1.82779e-05 9.5305e-05 9.76891e-06)
(-2.65148e-05 9.33493e-05 9.76891e-06)
(-3.45499e-05 9.06833e-05 9.76894e-06)
(-4.23218e-05 8.73268e-05 9.76892e-06)
(-4.97718e-05 8.3306e-05 9.76894e-06)
(-5.6843e-05 7.8651e-05 9.76894e-06)
(-6.34815e-05 7.33975e-05 9.76893e-06)
(-6.96368e-05 6.75853e-05 9.76893e-06)
(-7.52624e-05 6.12588e-05 9.76891e-06)
(-8.03154e-05 5.44666e-05 9.76893e-06)
(-8.47569e-05 4.72593e-05 9.76894e-06)
(-8.85528e-05 3.96922e-05 9.7689e-06)
(-9.16752e-05 3.18232e-05 9.76893e-06)
(-9.41e-05 2.37121e-05 9.76891e-06)
(-9.58086e-05 1.54206e-05 9.76889e-06)
(-9.67882e-05 7.01167e-06 9.76892e-06)
(-9.70309e-05 -1.45065e-06 9.76892e-06)
(-9.65355e-05 -9.90201e-06 9.76895e-06)
(-9.5305e-05 -1.82779e-05 9.76891e-06)
(-9.33493e-05 -2.65148e-05 9.76891e-06)
(-9.06833e-05 -3.45499e-05 9.76894e-06)
(-8.73268e-05 -4.23218e-05 9.76892e-06)
(-8.3306e-05 -4.97718e-05 9.76894e-06)
(-7.8651e-05 -5.6843e-05 9.76894e-06)
(-7.33975e-05 -6.34815e-05 9.76893e-06)
(-6.75853e-05 -6.96368e-05 9.76893e-06)
(-6.12588e-05 -7.52624e-05 9.76891e-06)
(-5.44666e-05 -8.03154e-05 9.76893e-06)
(-4.72593e-05 -8.47569e-05 9.76894e-06)
(-3.96922e-05 -8.85528e-05 9.7689e-06)
(-3.18232e-05 -9.16752e-05 9.76893e-06)
(-2.37121e-05 -9.41e-05 9.76891e-06)
(-1.54206e-05 -9.58086e-05 9.76889e-06)
(-7.01167e-06 -9.67882e-05 9.76892e-06)
(1.45065e-06 -9.70309e-05 9.76892e-06)
(9.90201e-06 -9.65355e-05 9.76895e-06)
(1.82779e-05 -9.5305e-05 9.76891e-06)
(1.08424e-05 -9.47062e-05 1.07639e-05)
(1.90553e-05 -9.34006e-05 1.07639e-05)
(2.71231e-05 -9.13844e-05 1.07639e-05)
(3.49849e-05 -8.86734e-05 1.0764e-05)
(4.25801e-05 -8.52866e-05 1.07639e-05)
(4.98512e-05 -8.12509e-05 1.07639e-05)
(5.6743e-05 -7.65968e-05 1.07639e-05)
(6.32027e-05 -7.13597e-05 1.07639e-05)
(6.91817e-05 -6.55798e-05 1.07639e-05)
(7.46342e-05 -5.93007e-05 1.0764e-05)
(7.95184e-05 -5.25701e-05 1.07639e-05)
(8.37978e-05 -4.54397e-05 1.07639e-05)
(8.74392e-05 -3.79633e-05 1.07639e-05)
(9.04154e-05 -3.01981e-05 1.07639e-05)
(9.27034e-05 -2.2203e-05 1.07639e-05)
(9.42852e-05 -1.40389e-05 1.07639e-05)
(9.51498e-05 -5.76788e-06 1.07639e-05)
(9.52908e-05 2.54697e-06 1.0764e-05)
(9.47062e-05 1.08424e-05 1.07639e-05)
(9.34006e-05 1.90553e-05 1.07639e-05)
(9.13844e-05 2.71231e-05 1.07639e-05)
(8.86734e-05 3.49849e-05 1.0764e-05)
(8.52866e-05 4.25801e-05 1.07639e-05)
(8.12509e-05 4.98512e-05 1.07639e-05)
(7.65968e-05 5.6743e-05 1.07639e-05)
(7.13597e-05 6.32027e-05 1.07639e-05)
(6.55798e-05 6.91817e-05 1.07639e-05)
(5.93007e-05 7.46342e-05 1.0764e-05)
(5.25701e-05 7.95184e-05 1.07639e-05)
(4.54397e-05 8.37978e-05 1.07639e-05)
(3.79633e-05 8.74392e-05 1.07639e-05)
(3.01981e-05 9.04154e-05 1.07639e-05)
(2.2203e-05 9.27034e-05 1.07639e-05)
(1.40389e-05 9.42852e-05 1.07639e-05)
(5.76788e-06 9.51498e-05 1.07639e-05)
(-2.54697e-06 9.52908e-05 1.0764e-05)
(-1.08424e-05 9.47062e-05 1.07639e-05)
(-1.90553e-05 9.34006e-05 1.07639e-05)
(-2.71231e-05 9.13844e-05 1.07639e-05)
(-3.49849e-05 8.86734e-05 1.0764e-05)
(-4.25801e-05 8.52866e-05 1.07639e-05)
(-4.98512e-05 8.12509e-05 1.07639e-05)
(-5.6743e-05 7.65968e-05 1.07639e-05)
(-6.32027e-05 7.13597e-05 1.07639e-05)
(-6.91817e-05 6.55798e-05 1.07639e-05)
(-7.46342e-05 5.93007e-05 1.0764e-05)
(-7.95184e-05 5.25701e-05 1.07639e-05)
(-8.37978e-05 4.54397e-05 1.07639e-05)
(-8.74392e-05 3.79633e-05 1.07639e-05)
(-9.04154e-05 3.01981e-05 1.07639e-05)
(-9.27034e-05 2.2203e-05 1.07639e-05)
(-9.42852e-05 1.40389e-05 1.07639e-05)
(-9.51499e-05 5.76788e-06 1.07639e-05)
(-9.52908e-05 -2.54697e-06 1.0764e-05)
(-9.47062e-05 -1.08424e-05 1.07639e-05)
(-9.34006e-05 -1.90553e-05 1.07639e-05)
(-9.13844e-05 -2.71231e-05 1.07639e-05)
(-8.86734e-05 -3.49849e-05 1.0764e-05)
(-8.52866e-05 -4.25801e-05 1.07639e-05)
(-8.12509e-05 -4.98512e-05 1.07639e-05)
(-7.65968e-05 -5.6743e-05 1.07639e-05)
(-7.13597e-05 -6.32027e-05 1.07639e-05)
(-6.55798e-05 -6.91817e-05 1.07639e-05)
(-5.93007e-05 -7.46342e-05 1.0764e-05)
(-5.25701e-05 -7.95184e-05 1.07639e-05)
(-4.54397e-05 -8.37978e-05 1.07639e-05)
(-3.79633e-05 -8.74392e-05 1.07639e-05)
(-3.01981e-05 -9.04154e-05 1.07639e-05)
(-2.2203e-05 -9.27034e-05 1.07639e-05)
(-1.40389e-05 -9.42852e-05 1.07639e-05)
(-5.76788e-06 -9.51498e-05 1.07639e-05)
(2.54697e-06 -9.52908e-05 1.0764e-05)
(0.000159934 -0.000252977 3.17589e-05)
(0.000181374 -0.000238076 3.17589e-05)
(0.000201433 -0.000221362 3.17589e-05)
(0.00021996 -0.000202963 3.17589e-05)
(0.000236812 -0.00018302 3.17589e-05)
(0.000251862 -0.000161685 3.17589e-05)
(0.000264996 -0.000139118 3.17589e-05)
(0.000276112 -0.000115492 3.17588e-05)
(0.000285128 -9.09883e-05 3.17588e-05)
(0.000291973 -6.57916e-05 3.17588e-05)
(0.000296595 -4.00941e-05 3.17589e-05)
(0.000298961 -1.40915e-05 3.17589e-05)
(0.000299052 1.20183e-05 3.1759e-05)
(0.000296866 3.80366e-05 3.17591e-05)
(0.000292421 6.37655e-05 3.1759e-05)
(0.000285751 8.90091e-05 3.17589e-05)
(0.000276906 0.000113575 3.17589e-05)
(0.000265954 0.000137277 3.17589e-05)
(0.000252977 0.000159934 3.17589e-05)
(0.000238076 0.000181374 3.17589e-05)
(0.000221362 0.000201433 3.17589e-05)
(0.000202963 0.00021996 3.17589e-05)
(0.00018302 0.000236812 3.17589e-05)
(0.000161685 0.000251862 3.17589e-05)
(0.000139118 0.000264996 3.17589e-05)
(0.000115492 0.000276112 3.17588e-05)
(9.09883e-05 0.000285128 3.17588e-05)
(6.57916e-05 0.000291973 3.17588e-05)
(4.00941e-05 0.000296595 3.17589e-05)
(1.40915e-05 0.000298961 3.17589e-05)
(-1.20183e-05 0.000299052 3.1759e-05)
(-3.80366e-05 0.000296866 3.17591e-05)
(-6.37655e-05 0.000292421 3.1759e-05)
(-8.90091e-05 0.000285751 3.17589e-05)
(-0.000113575 0.000276906 3.17589e-05)
(-0.000137277 0.000265954 3.17589e-05)
(-0.000159934 0.000252977 3.17589e-05)
(-0.000181374 0.000238076 3.17589e-05)
(-0.000201433 0.000221362 3.17589e-05)
(-0.00021996 0.000202963 3.17589e-05)
(-0.000236812 0.00018302 3.17589e-05)
(-0.000251862 0.000161685 3.17589e-05)
(-0.000264996 0.000139118 3.17589e-05)
(-0.000276112 0.000115492 3.17588e-05)
(-0.000285128 9.09883e-05 3.17588e-05)
(-0.000291973 6.57916e-05 3.17588e-05)
(-0.000296595 4.00941e-05 3.17589e-05)
(-0.000298961 1.40915e-05 3.17589e-05)
(-0.000299052 -1.20183e-05 3.1759e-05)
(-0.000296866 -3.80366e-05 3.17591e-05)
(-0.000292421 -6.37655e-05 3.1759e-05)
(-0.000285751 -8.90091e-05 3.17589e-05)
(-0.000276906 -0.000113575 3.17589e-05)
(-0.000265954 -0.000137277 3.17589e-05)
(-0.000252977 -0.000159934 3.17589e-05)
(-0.000238076 -0.000181374 3.17589e-05)
(-0.000221362 -0.000201433 3.17589e-05)
(-0.000202963 -0.00021996 3.17589e-05)
(-0.00018302 -0.000236812 3.17589e-05)
(-0.000161685 -0.000251862 3.17589e-05)
(-0.000139118 -0.000264996 3.17589e-05)
(-0.000115492 -0.000276112 3.17588e-05)
(-9.09883e-05 -0.000285128 3.17588e-05)
(-6.57916e-05 -0.000291973 3.17588e-05)
(-4.00941e-05 -0.000296595 3.17589e-05)
(-1.40915e-05 -0.000298961 3.17589e-05)
(1.20183e-05 -0.000299052 3.1759e-05)
(3.80366e-05 -0.000296866 3.17591e-05)
(6.37655e-05 -0.000292421 3.1759e-05)
(8.90091e-05 -0.000285751 3.17589e-05)
(0.000113575 -0.000276906 3.17589e-05)
(0.000137277 -0.000265954 3.17589e-05)
(0.000146501 -0.000260107 3.72732e-05)
(0.000168614 -0.000246349 3.72732e-05)
(0.000189443 -0.000230716 3.72732e-05)
(0.00020883 -0.000213327 3.72732e-05)
(0.000226628 -0.000194314 3.72731e-05)
(0.000242701 -0.000173823 3.72731e-05)
(0.000256928 -0.000152009 3.72732e-05)
(0.000269198 -0.000129038 3.72732e-05)
(0.00027942 -0.000105084 3.72732e-05)
(0.000287516 -8.03316e-05 3.72732e-05)
(0.000293423 -5.49672e-05 3.72732e-05)
(0.000297097 -2.91844e-05 3.72732e-05)
(0.00029851 -3.17975e-06 3.72732e-05)
(0.000297651 2.28493e-05 3.72732e-05)
(0.000294527 4.87043e-05 3.72733e-05)
(0.000289161 7.41887e-05 3.72732e-05)
(0.000281595 9.91086e-05 3.72732e-05)
(0.000271886 0.000123274 3.72732e-05)
(0.000260107 0.000146501 3.72732e-05)
(0.000246349 0.000168614 3.72732e-05)
(0.000230716 0.000189443 3.72732e-05)
(0.000213327 0.00020883 3.72732e-05)
(0.000194314 0.000226628 3.72731e-05)
(0.000173823 0.000242701 3.72731e-05)
(0.000152009 0.000256928 3.72732e-05)
(0.000129038 0.000269198 3.72732e-05)
(0.000105084 0.00027942 3.72732e-05)
(8.03316e-05 0.000287516 3.72732e-05)
(5.49672e-05 0.000293423 3.72732e-05)
(2.91844e-05 0.000297097 3.72732e-05)
(3.17975e-06 0.00029851 3.72732e-05)
(-2.28493e-05 0.000297651 3.72732e-05)
(-4.87043e-05 0.000294527 3.72733e-05)
(-7.41887e-05 0.000289161 3.72732e-05)
(-9.91086e-05 0.000281595 3.72732e-05)
(-0.000123274 0.000271886 3.72732e-05)
(-0.000146501 0.000260107 3.72732e-05)
(-0.000168614 0.000246349 3.72732e-05)
(-0.000189443 0.000230716 3.72732e-05)
(-0.00020883 0.000213327 3.72732e-05)
(-0.000226628 0.000194314 3.72731e-05)
(-0.000242701 0.000173823 3.72731e-05)
(-0.000256928 0.000152009 3.72732e-05)
(-0.000269198 0.000129038 3.72732e-05)
(-0.00027942 0.000105084 3.72732e-05)
(-0.000287516 8.03316e-05 3.72732e-05)
(-0.000293423 5.49672e-05 3.72732e-05)
(-0.000297097 2.91844e-05 3.72732e-05)
(-0.00029851 3.17975e-06 3.72732e-05)
(-0.000297651 -2.28493e-05 3.72732e-05)
(-0.000294527 -4.87043e-05 3.72733e-05)
(-0.000289161 -7.41887e-05 3.72732e-05)
(-0.000281595 -9.91086e-05 3.72732e-05)
(-0.000271886 -0.000123274 3.72732e-05)
(-0.000260107 -0.000146501 3.72732e-05)
(-0.000246349 -0.000168614 3.72732e-05)
(-0.000230716 -0.000189443 3.72732e-05)
(-0.000213327 -0.00020883 3.72732e-05)
(-0.000194314 -0.000226628 3.72731e-05)
(-0.000173823 -0.000242701 3.72731e-05)
(-0.000152009 -0.000256928 3.72732e-05)
(-0.000129038 -0.000269198 3.72732e-05)
(-0.000105084 -0.00027942 3.72732e-05)
(-8.03316e-05 -0.000287516 3.72732e-05)
(-5.49672e-05 -0.000293423 3.72732e-05)
(-2.91844e-05 -0.000297097 3.72732e-05)
(-3.17976e-06 -0.00029851 3.72732e-05)
(2.28493e-05 -0.000297651 3.72732e-05)
(4.87043e-05 -0.000294527 3.72733e-05)
(7.41887e-05 -0.000289161 3.72732e-05)
(9.91086e-05 -0.000281595 3.72732e-05)
(0.000123274 -0.000271886 3.72732e-05)
(0.000129781 -0.000267089 4.13133e-05)
(0.000152566 -0.000254762 4.13133e-05)
(0.000174189 -0.000240496 4.13133e-05)
(0.000194487 -0.000224399 4.13134e-05)
(0.000213304 -0.000206594 4.13133e-05)
(0.000230498 -0.000187218 4.13134e-05)
(0.000245938 -0.000166416 4.13134e-05)
(0.000259507 -0.000144348 4.13134e-05)
(0.0002711 -0.000121181 4.13134e-05)
(0.00028063 -9.70918e-05 4.13134e-05)
(0.000288024 -7.22638e-05 4.13134e-05)
(0.000293226 -4.68859e-05 4.13134e-05)
(0.000296197 -2.11511e-05 4.13134e-05)
(0.000296913 4.74468e-06 4.13133e-05)
(0.00029537 3.06041e-05 4.13134e-05)
(0.000291578 5.62311e-05 4.13134e-05)
(0.000285568 8.14298e-05 4.13134e-05)
(0.000277384 0.000106009 4.13133e-05)
(0.000267089 0.000129781 4.13133e-05)
(0.000254762 0.000152566 4.13133e-05)
(0.000240496 0.000174189 4.13133e-05)
(0.000224399 0.000194487 4.13134e-05)
(0.000206594 0.000213304 4.13133e-05)
(0.000187218 0.000230498 4.13134e-05)
(0.000166416 0.000245938 4.13134e-05)
(0.000144348 0.000259507 4.13134e-05)
(0.000121181 0.0002711 4.13134e-05)
(9.70918e-05 0.00028063 4.13134e-05)
(7.22638e-05 0.000288024 4.13134e-05)
(4.68859e-05 0.000293226 4.13134e-05)
(2.11511e-05 0.000296197 4.13134e-05)
(-4.74468e-06 0.000296913 4.13133e-05)
(-3.06041e-05 0.00029537 4.13134e-05)
(-5.62311e-05 0.000291578 4.13134e-05)
(-8.14298e-05 0.000285568 4.13134e-05)
(-0.000106009 0.000277384 4.13133e-05)
(-0.000129781 0.000267089 4.13133e-05)
(-0.000152566 0.000254762 4.13133e-05)
(-0.000174189 0.000240496 4.13133e-05)
(-0.000194487 0.000224399 4.13134e-05)
(-0.000213304 0.000206594 4.13133e-05)
(-0.000230498 0.000187218 4.13134e-05)
(-0.000245938 0.000166416 4.13134e-05)
(-0.000259507 0.000144348 4.13134e-05)
(-0.0002711 0.000121181 4.13134e-05)
(-0.00028063 9.70918e-05 4.13134e-05)
(-0.000288024 7.22638e-05 4.13134e-05)
(-0.000293226 4.68859e-05 4.13134e-05)
(-0.000296197 2.11511e-05 4.13134e-05)
(-0.000296913 -4.74468e-06 4.13133e-05)
(-0.00029537 -3.06041e-05 4.13134e-05)
(-0.000291578 -5.62311e-05 4.13134e-05)
(-0.000285568 -8.14298e-05 4.13134e-05)
(-0.000277384 -0.000106009 4.13133e-05)
(-0.000267089 -0.000129781 4.13133e-05)
(-0.000254762 -0.000152566 4.13133e-05)
(-0.000240496 -0.000174189 4.13133e-05)
(-0.000224399 -0.000194487 4.13134e-05)
(-0.000206594 -0.000213304 4.13133e-05)
(-0.000187218 -0.000230498 4.13134e-05)
(-0.000166416 -0.000245938 4.13134e-05)
(-0.000144348 -0.000259507 4.13134e-05)
(-0.000121181 -0.0002711 4.13134e-05)
(-9.70918e-05 -0.00028063 4.13134e-05)
(-7.22638e-05 -0.000288024 4.13134e-05)
(-4.68859e-05 -0.000293226 4.13134e-05)
(-2.11511e-05 -0.000296197 4.13134e-05)
(4.74468e-06 -0.000296913 4.13133e-05)
(3.06041e-05 -0.00029537 4.13134e-05)
(5.62311e-05 -0.000291578 4.13134e-05)
(8.14298e-05 -0.000285568 4.13134e-05)
(0.000106009 -0.000277384 4.13133e-05)
(0.000110408 -0.000273229 4.49039e-05)
(0.000133802 -0.000262566 4.49039e-05)
(0.000156177 -0.000249906 4.49039e-05)
(0.000177363 -0.000235343 4.49039e-05)
(0.0001972 -0.000218989 4.4904e-05)
(0.000215535 -0.000200969 4.49039e-05)
(0.000232231 -0.000181419 4.49039e-05)
(0.000247159 -0.000160488 4.4904e-05)
(0.000260206 -0.000138336 4.49039e-05)
(0.000271272 -0.000115131 4.49039e-05)
(0.000280275 -9.10503e-05 4.4904e-05)
(0.000287143 -6.62763e-05 4.49039e-05)
(0.000291827 -4.09978e-05 4.49039e-05)
(0.00029429 -1.54074e-05 4.49039e-05)
(0.000294513 1.03003e-05 4.49039e-05)
(0.000292494 3.59295e-05 4.49039e-05)
(0.00028825 6.12854e-05 4.49039e-05)
(0.000281812 8.61749e-05 4.49039e-05)
(0.000273229 0.000110408 4.49039e-05)
(0.000262566 0.000133802 4.49039e-05)
(0.000249906 0.000156177 4.49039e-05)
(0.000235343 0.000177363 4.49039e-05)
(0.000218989 0.0001972 4.4904e-05)
(0.000200969 0.000215535 4.49039e-05)
(0.000181419 0.000232231 4.49039e-05)
(0.000160488 0.000247159 4.4904e-05)
(0.000138336 0.000260206 4.49039e-05)
(0.000115131 0.000271272 4.49039e-05)
(9.10503e-05 0.000280275 4.4904e-05)
(6.62763e-05 0.000287143 4.49039e-05)
(4.09978e-05 0.000291827 4.49039e-05)
(1.54074e-05 0.00029429 4.49039e-05)
(-1.03003e-05 0.000294513 4.49039e-05)
(-3.59295e-05 0.000292494 4.49039e-05)
(-6.12854e-05 0.00028825 4.49039e-05)
(-8.61749e-05 0.000281812 4.49039e-05)
(-0.000110408 0.000273229 4.49039e-05)
(-0.000133802 0.000262566 4.49039e-05)
(-0.000156177 0.000249906 4.49039e-05)
(-0.000177363 0.000235343 4.49039e-05)
(-0.0001972 0.000218989 4.4904e-05)
(-0.000215535 0.000200969 4.49039e-05)
(-0.000232231 0.000181419 4.49039e-05)
(-0.000247159 0.000160488 4.4904e-05)
(-0.000260206 0.000138336 4.49039e-05)
(-0.000271272 0.000115131 4.49039e-05)
(-0.000280275 9.10503e-05 4.4904e-05)
(-0.000287143 6.62763e-05 4.49039e-05)
(-0.000291827 4.09978e-05 4.49039e-05)
(-0.00029429 1.54074e-05 4.49039e-05)
(-0.000294513 -1.03003e-05 4.49039e-05)
(-0.000292494 -3.59295e-05 4.49039e-05)
(-0.00028825 -6.12854e-05 4.49039e-05)
(-0.000281812 -8.61749e-05 4.49039e-05)
(-0.000273229 -0.000110408 4.49039e-05)
(-0.000262566 -0.000133802 4.49039e-05)
(-0.000249906 -0.000156177 4.49039e-05)
(-0.000235343 -0.000177363 4.49039e-05)
(-0.000218989 -0.0001972 4.4904e-05)
(-0.000200969 -0.000215535 4.49039e-05)
(-0.000181419 -0.000232231 4.49039e-05)
(-0.000160488 -0.000247159 4.4904e-05)
(-0.000138336 -0.000260206 4.49039e-05)
(-0.000115131 -0.000271272 4.49039e-05)
(-9.10503e-05 -0.000280275 4.4904e-05)
(-6.62763e-05 -0.000287143 4.49039e-05)
(-4.09978e-05 -0.000291827 4.49039e-05)
(-1.54074e-05 -0.00029429 4.49039e-05)
(1.03003e-05 -0.000294513 4.49039e-05)
(3.59295e-05 -0.000292494 4.49039e-05)
(6.12854e-05 -0.00028825 4.49039e-05)
(8.61749e-05 -0.000281812 4.49039e-05)
(8.84748e-05 -0.000277937 4.90621e-05)
(0.000112362 -0.000269168 4.90621e-05)
(0.000135394 -0.000258351 4.90622e-05)
(0.000157396 -0.000245568 4.90622e-05)
(0.000178199 -0.000230915 4.90622e-05)
(0.000197647 -0.000214505 4.90622e-05)
(0.00021559 -0.000196463 4.90622e-05)
(0.000231892 -0.000176926 4.90621e-05)
(0.00024643 -0.000156041 4.90621e-05)
(0.000259092 -0.00013397 4.9062e-05)
(0.000269783 -0.000110879 4.90621e-05)
(0.00027842 -8.6944e-05 4.90622e-05)
(0.000284938 -6.23471e-05 4.90621e-05)
(0.000289287 -3.72757e-05 4.90621e-05)
(0.000291435 -1.1921e-05 4.90621e-05)
(0.000291366 1.35246e-05 4.90622e-05)
(0.000289078 3.88673e-05 4.90621e-05)
(0.000284591 6.39143e-05 4.90621e-05)
(0.000277937 8.84749e-05 4.90621e-05)
(0.000269168 0.000112362 4.90621e-05)
(0.000258351 0.000135394 4.90622e-05)
(0.000245568 0.000157396 4.90622e-05)
(0.000230915 0.000178199 4.90622e-05)
(0.000214505 0.000197647 4.90622e-05)
(0.000196463 0.00021559 4.90622e-05)
(0.000176926 0.000231892 4.90621e-05)
(0.000156041 0.00024643 4.90621e-05)
(0.00013397 0.000259092 4.9062e-05)
(0.000110879 0.000269783 4.90621e-05)
(8.6944e-05 0.00027842 4.90622e-05)
(6.23471e-05 0.000284938 4.90621e-05)
(3.72757e-05 0.000289287 4.90621e-05)
(1.1921e-05 0.000291435 4.90621e-05)