/*--------------------------------*- C++ -*----------------------------------*\
| =========                 |                                                 |
| \\      /  F ield         | OpenFOAM: The Open Source CFD Toolbox           |
|  \\    /   O peration     | Version:  2312                                  |
|   \\  /    A nd           | Website:  www.openfoam.com                      |
|    \\/     M anipulation  |                                                 |
\*---------------------------------------------------------------------------*/
FoamFile
{
    version     2.0;
    format      ascii;
    arch        "LSB;label=32;scalar=64";
    class       volTensorField;
    location    "0.2";
    object      F;
}
// * * * * * * * * * * * * * * * * * * * * * * * * * * * * * * * * * * * * * //

dimensions      [0 0 0 0 0 0 0];

internalField   nonuniform List<tensor> 
12960
(
(1.01562 0.00994668 -0.106739 0.00671032 1.00725 0.183648 -0.00228558 -9.97702e-05 0.97369)
(1.01411 0.0105466 -0.122339 0.00731021 1.00876 0.173647 -0.00226821 -0.00029861 0.97369)
(1.01252 0.0108752 -0.137008 0.00763881 1.01036 0.162323 -0.0022335 -0.000495155 0.97369)
(1.0109 0.0109226 -0.150634 0.00768619 1.01198 0.149765 -0.00218184 -0.000687949 0.973689)
(1.00929 0.0106873 -0.163114 0.0074509 1.01359 0.136066 -0.00211365 -0.000875482 0.97369)
(1.00775 0.0101764 -0.174352 0.00694002 1.01513 0.121332 -0.00202918 -0.00105628 0.97369)
(1.00632 0.00940549 -0.184263 0.00616903 1.01656 0.105675 -0.00192936 -0.0012292 0.97369)
(1.00504 0.00839795 -0.192772 0.00516152 1.01783 0.0892128 -0.00181498 -0.00139276 0.97369)
(1.00396 0.00718444 -0.199814 0.00394801 1.01891 0.0720721 -0.00168678 -0.00154562 0.97369)
(1.00311 0.00580177 -0.205335 0.00256533 1.01977 0.0543828 -0.00154562 -0.00168669 0.97369)
(1.00251 0.00429194 -0.209294 0.00105551 1.02037 0.0362797 -0.00139272 -0.00181496 0.973689)
(1.00218 0.00270085 -0.211659 -0.000535464 1.0207 0.0179006 -0.0012292 -0.00192936 0.97369)
(1.00213 0.00107701 -0.212414 -0.0021594 1.02074 -0.000614904 -0.00105631 -0.00202913 0.97369)
(1.00237 -0.000530457 -0.211552 -0.00376684 1.02051 -0.0191256 -0.000875442 -0.00211355 0.973689)
(1.00288 -0.00207272 -0.20908 -0.00530907 1.02 -0.0374908 -0.000687879 -0.00218181 0.973689)
(1.00365 -0.00350275 -0.205017 -0.0067391 1.01923 -0.0555707 -0.000495128 -0.00223356 0.973689)
(1.00466 -0.00477718 -0.199393 -0.00801356 1.01822 -0.0732276 -0.000298608 -0.00226826 0.97369)
(1.00587 -0.00585729 -0.192252 -0.00909369 1.017 -0.0903273 -9.98008e-05 -0.00228564 0.97369)
(1.00725 -0.00671032 -0.183648 -0.00994668 1.01562 -0.106739 9.97702e-05 -0.00228558 0.97369)
(1.00876 -0.00731021 -0.173647 -0.0105466 1.01411 -0.122339 0.00029861 -0.00226821 0.97369)
(1.01036 -0.00763881 -0.162323 -0.0108752 1.01252 -0.137008 0.000495155 -0.0022335 0.97369)
(1.01198 -0.00768619 -0.149765 -0.0109226 1.0109 -0.150634 0.000687949 -0.00218184 0.973689)
(1.01359 -0.0074509 -0.136066 -0.0106873 1.00929 -0.163114 0.000875482 -0.00211365 0.97369)
(1.01513 -0.00694002 -0.121332 -0.0101764 1.00775 -0.174352 0.00105628 -0.00202918 0.97369)
(1.01656 -0.00616903 -0.105675 -0.00940549 1.00632 -0.184263 0.0012292 -0.00192936 0.97369)
(1.01783 -0.00516152 -0.0892128 -0.00839795 1.00504 -0.192772 0.00139276 -0.00181498 0.97369)
(1.01891 -0.00394801 -0.0720721 -0.00718444 1.00396 -0.199814 0.00154562 -0.00168678 0.97369)
(1.01977 -0.00256533 -0.0543828 -0.00580177 1.00311 -0.205335 0.00168669 -0.00154562 0.97369)
(1.02037 -0.00105551 -0.0362797 -0.00429194 1.00251 -0.209294 0.00181496 -0.00139272 0.973689)
(1.0207 0.000535464 -0.0179006 -0.00270085 1.00218 -0.211659 0.00192936 -0.0012292 0.97369)
(1.02074 0.0021594 0.000614904 -0.00107701 1.00213 -0.212414 0.00202913 -0.00105631 0.97369)
(1.02051 0.00376684 0.0191256 0.000530457 1.00237 -0.211552 0.00211355 -0.000875442 0.973689)
(1.02 0.00530907 0.0374908 0.00207272 1.00288 -0.20908 0.00218181 -0.000687879 0.973689)
(1.01923 0.0067391 0.0555707 0.00350275 1.00365 -0.205017 0.00223356 -0.000495128 0.973689)
(1.01822 0.00801356 0.0732276 0.00477718 1.00466 -0.199393 0.00226826 -0.000298608 0.97369)
(1.017 0.00909369 0.0903273 0.00585729 1.00587 -0.192252 0.00228564 -9.98008e-05 0.97369)
(1.01562 0.00994668 0.106739 0.00671032 1.00725 -0.183648 0.00228558 9.97702e-05 0.97369)
(1.01411 0.0105466 0.122339 0.00731021 1.00876 -0.173647 0.00226821 0.00029861 0.97369)
(1.01252 0.0108752 0.137008 0.00763881 1.01036 -0.162323 0.0022335 0.000495155 0.97369)
(1.0109 0.0109226 0.150634 0.00768619 1.01198 -0.149765 0.00218184 0.000687949 0.973689)
(1.00929 0.0106873 0.163114 0.0074509 1.01359 -0.136066 0.00211365 0.000875482 0.97369)
(1.00775 0.0101764 0.174352 0.00694002 1.01513 -0.121332 0.00202918 0.00105628 0.97369)
(1.00632 0.00940549 0.184263 0.00616903 1.01656 -0.105675 0.00192936 0.0012292 0.97369)
(1.00504 0.00839795 0.192772 0.00516152 1.01783 -0.0892128 0.00181498 0.00139276 0.97369)
(1.00396 0.00718444 0.199814 0.00394801 1.01891 -0.0720721 0.00168678 0.00154562 0.97369)
(1.00311 0.00580177 0.205335 0.00256533 1.01977 -0.0543828 0.00154562 0.00168669 0.97369)
(1.00251 0.00429194 0.209294 0.00105551 1.02037 -0.0362797 0.00139272 0.00181496 0.973689)
(1.00218 0.00270085 0.211659 -0.000535464 1.0207 -0.0179006 0.0012292 0.00192936 0.97369)
(1.00213 0.00107701 0.212414 -0.0021594 1.02074 0.000614904 0.00105631 0.00202913 0.97369)
(1.00237 -0.000530457 0.211552 -0.00376684 1.02051 0.0191256 0.000875442 0.00211355 0.973689)
(1.00288 -0.00207272 0.20908 -0.00530907 1.02 0.0374908 0.000687879 0.00218181 0.973689)
(1.00365 -0.00350275 0.205017 -0.0067391 1.01923 0.0555707 0.000495128 0.00223356 0.973689)
(1.00466 -0.00477718 0.199393 -0.00801356 1.01822 0.0732276 0.000298608 0.00226826 0.97369)
(1.00587 -0.00585729 0.192252 -0.00909369 1.017 0.0903273 9.98008e-05 0.00228564 0.97369)
(1.00725 -0.00671032 0.183648 -0.00994668 1.01562 0.106739 -9.97702e-05 0.00228558 0.97369)
(1.00876 -0.00731021 0.173647 -0.0105466 1.01411 0.122339 -0.00029861 0.00226821 0.97369)
(1.01036 -0.00763881 0.162323 -0.0108752 1.01252 0.137008 -0.000495155 0.0022335 0.97369)
(1.01198 -0.00768619 0.149765 -0.0109226 1.0109 0.150634 -0.000687949 0.00218184 0.973689)
(1.01359 -0.0074509 0.136066 -0.0106873 1.00929 0.163114 -0.000875482 0.00211365 0.97369)
(1.01513 -0.00694002 0.121332 -0.0101764 1.00775 0.174352 -0.00105628 0.00202918 0.97369)
(1.01656 -0.00616903 0.105675 -0.00940549 1.00632 0.184263 -0.0012292 0.00192936 0.97369)
(1.01783 -0.00516152 0.0892128 -0.00839795 1.00504 0.192772 -0.00139276 0.00181498 0.97369)
(1.01891 -0.00394801 0.0720721 -0.00718444 1.00396 0.199814 -0.00154562 0.00168678 0.97369)
(1.01977 -0.00256533 0.0543828 -0.00580177 1.00311 0.205335 -0.00168669 0.00154562 0.97369)
(1.02037 -0.00105551 0.0362797 -0.00429194 1.00251 0.209294 -0.00181496 0.00139272 0.973689)
(1.0207 0.000535464 0.0179006 -0.00270085 1.00218 0.211659 -0.00192936 0.0012292 0.97369)
(1.02074 0.0021594 -0.000614904 -0.00107701 1.00213 0.212414 -0.00202913 0.00105631 0.97369)
(1.02051 0.00376684 -0.0191256 0.000530457 1.00237 0.211552 -0.00211355 0.000875442 0.973689)
(1.02 0.00530907 -0.0374908 0.00207272 1.00288 0.20908 -0.00218181 0.000687879 0.973689)
(1.01923 0.0067391 -0.0555707 0.00350275 1.00365 0.205017 -0.00223356 0.000495128 0.973689)
(1.01822 0.00801356 -0.0732276 0.00477718 1.00466 0.199393 -0.00226826 0.000298608 0.97369)
(1.017 0.00909369 -0.0903273 0.00585729 1.00587 0.192252 -0.00228564 9.98008e-05 0.97369)
(1.01621 0.010892 -0.0997679 0.00665677 1.00675 0.189597 -0.00152039 -6.63689e-05 0.967709)
(1.01461 0.0115797 -0.115913 0.0073444 1.00835 0.18018 -0.00150881 -0.000198643 0.967709)
(1.01292 0.0119799 -0.131175 0.00774454 1.01004 0.169392 -0.00148574 -0.000329402 0.967709)
(1.01119 0.0120804 -0.14544 0.00784505 1.01178 0.157315 -0.00145139 -0.000457623 0.967709)
(1.00946 0.0118782 -0.158597 0.00764289 1.0135 0.14404 -0.00140602 -0.000582403 0.967709)
(1.0078 0.0113794 -0.170548 0.0071441 1.01516 0.12967 -0.00134984 -0.00070269 0.967709)
(1.00625 0.0105993 -0.1812 0.00636389 1.01672 0.114312 -0.00128347 -0.000817684 0.967709)
(1.00485 0.00956138 -0.190474 0.00532603 1.01811 0.0980844 -0.00120739 -0.000926468 0.967709)
(1.00366 0.00829733 -0.198297 0.004062 1.0193 0.0811104 -0.00112207 -0.00102816 0.967709)
(1.00271 0.0068455 -0.204612 0.00261015 1.02026 0.063519 -0.00102815 -0.00112202 0.967709)
(1.00202 0.00524999 -0.209369 0.00101466 1.02094 0.0454441 -0.000926437 -0.00120736 0.967709)
(1.00162 0.00355929 -0.212533 -0.000675991 1.02134 0.0270234 -0.00081768 -0.00128347 0.967709)
(1.00152 0.00182487 -0.21408 -0.00241043 1.02145 0.00839712 -0.000702694 -0.00134981 0.967709)
(1.00172 9.93049e-05 -0.213997 -0.00413599 1.02124 -0.0102932 -0.000582363 -0.00140593 0.967709)
(1.00222 -0.00156497 -0.212286 -0.00580021 1.02074 -0.0289051 -0.000457603 -0.00145136 0.967709)
(1.003 -0.00311733 -0.208958 -0.00735255 1.01996 -0.047297 -0.000329398 -0.00148576 0.967709)
(1.00404 -0.0045106 -0.204041 -0.00874585 1.01893 -0.065329 -0.000198641 -0.00150885 0.967709)
(1.0053 -0.00570247 -0.197571 -0.00993772 1.01766 -0.0828637 -6.63625e-05 -0.00152042 0.967709)
(1.00675 -0.00665677 -0.189597 -0.010892 1.01621 -0.0997679 6.63689e-05 -0.00152039 0.967709)
(1.00835 -0.0073444 -0.18018 -0.0115797 1.01461 -0.115913 0.000198643 -0.00150881 0.967709)
(1.01004 -0.00774454 -0.169392 -0.0119799 1.01292 -0.131175 0.000329402 -0.00148574 0.967709)
(1.01178 -0.00784505 -0.157315 -0.0120804 1.01119 -0.14544 0.000457623 -0.00145139 0.967709)
(1.0135 -0.00764289 -0.14404 -0.0118782 1.00946 -0.158597 0.000582403 -0.00140602 0.967709)
(1.01516 -0.0071441 -0.12967 -0.0113794 1.0078 -0.170548 0.00070269 -0.00134984 0.967709)
(1.01672 -0.00636389 -0.114312 -0.0105993 1.00625 -0.1812 0.000817684 -0.00128347 0.967709)
(1.01811 -0.00532603 -0.0980844 -0.00956138 1.00485 -0.190474 0.000926468 -0.00120739 0.967709)
(1.0193 -0.004062 -0.0811104 -0.00829733 1.00366 -0.198297 0.00102816 -0.00112207 0.967709)
(1.02026 -0.00261015 -0.063519 -0.0068455 1.00271 -0.204612 0.00112202 -0.00102815 0.967709)
(1.02094 -0.00101466 -0.0454441 -0.00524999 1.00202 -0.209369 0.00120736 -0.000926437 0.967709)
(1.02134 0.000675991 -0.0270234 -0.00355929 1.00162 -0.212533 0.00128347 -0.00081768 0.967709)
(1.02145 0.00241043 -0.00839712 -0.00182487 1.00152 -0.21408 0.00134981 -0.000702694 0.967709)
(1.02124 0.00413599 0.0102932 -9.93049e-05 1.00172 -0.213997 0.00140593 -0.000582363 0.967709)
(1.02074 0.00580021 0.0289051 0.00156497 1.00222 -0.212286 0.00145136 -0.000457603 0.967709)
(1.01996 0.00735255 0.047297 0.00311733 1.003 -0.208958 0.00148576 -0.000329398 0.967709)
(1.01893 0.00874585 0.065329 0.0045106 1.00404 -0.204041 0.00150885 -0.000198641 0.967709)
(1.01766 0.00993772 0.0828637 0.00570247 1.0053 -0.197571 0.00152042 -6.63625e-05 0.967709)
(1.01621 0.010892 0.0997679 0.00665677 1.00675 -0.189597 0.00152039 6.63689e-05 0.967709)
(1.01461 0.0115797 0.115913 0.0073444 1.00835 -0.18018 0.00150881 0.000198643 0.967709)
(1.01292 0.0119799 0.131175 0.00774454 1.01004 -0.169392 0.00148574 0.000329402 0.967709)
(1.01119 0.0120804 0.14544 0.00784505 1.01178 -0.157315 0.00145139 0.000457623 0.967709)
(1.00946 0.0118782 0.158597 0.00764289 1.0135 -0.14404 0.00140602 0.000582403 0.967709)
(1.0078 0.0113794 0.170548 0.0071441 1.01516 -0.12967 0.00134984 0.00070269 0.967709)
(1.00625 0.0105993 0.1812 0.00636389 1.01672 -0.114312 0.00128347 0.000817684 0.967709)
(1.00485 0.00956138 0.190474 0.00532603 1.01811 -0.0980844 0.00120739 0.000926468 0.967709)
(1.00366 0.00829733 0.198297 0.004062 1.0193 -0.0811104 0.00112207 0.00102816 0.967709)
(1.00271 0.0068455 0.204612 0.00261015 1.02026 -0.063519 0.00102815 0.00112202 0.967709)
(1.00202 0.00524999 0.209369 0.00101466 1.02094 -0.0454441 0.000926437 0.00120736 0.967709)
(1.00162 0.00355929 0.212533 -0.000675991 1.02134 -0.0270234 0.00081768 0.00128347 0.967709)
(1.00152 0.00182487 0.21408 -0.00241043 1.02145 -0.00839712 0.000702694 0.00134981 0.967709)
(1.00172 9.93049e-05 0.213997 -0.00413599 1.02124 0.0102932 0.000582363 0.00140593 0.967709)
(1.00222 -0.00156497 0.212286 -0.00580021 1.02074 0.0289051 0.000457603 0.00145136 0.967709)
(1.003 -0.00311733 0.208958 -0.00735255 1.01996 0.047297 0.000329398 0.00148576 0.967709)
(1.00404 -0.0045106 0.204041 -0.00874585 1.01893 0.065329 0.000198641 0.00150885 0.967709)
(1.0053 -0.00570247 0.197571 -0.00993772 1.01766 0.0828637 6.63625e-05 0.00152042 0.967709)
(1.00675 -0.00665677 0.189597 -0.010892 1.01621 0.0997679 -6.63689e-05 0.00152039 0.967709)
(1.00835 -0.0073444 0.18018 -0.0115797 1.01461 0.115913 -0.000198643 0.00150881 0.967709)
(1.01004 -0.00774454 0.169392 -0.0119799 1.01292 0.131175 -0.000329402 0.00148574 0.967709)
(1.01178 -0.00784505 0.157315 -0.0120804 1.01119 0.14544 -0.000457623 0.00145139 0.967709)
(1.0135 -0.00764289 0.14404 -0.0118782 1.00946 0.158597 -0.000582403 0.00140602 0.967709)
(1.01516 -0.0071441 0.12967 -0.0113794 1.0078 0.170548 -0.00070269 0.00134984 0.967709)
(1.01672 -0.00636389 0.114312 -0.0105993 1.00625 0.1812 -0.000817684 0.00128347 0.967709)
(1.01811 -0.00532603 0.0980844 -0.00956138 1.00485 0.190474 -0.000926468 0.00120739 0.967709)
(1.0193 -0.004062 0.0811104 -0.00829733 1.00366 0.198297 -0.00102816 0.00112207 0.967709)
(1.02026 -0.00261015 0.063519 -0.0068455 1.00271 0.204612 -0.00112202 0.00102815 0.967709)
(1.02094 -0.00101466 0.0454441 -0.00524999 1.00202 0.209369 -0.00120736 0.000926437 0.967709)
(1.02134 0.000675991 0.0270234 -0.00355929 1.00162 0.212533 -0.00128347 0.00081768 0.967709)
(1.02145 0.00241043 0.00839712 -0.00182487 1.00152 0.21408 -0.00134981 0.000702694 0.967709)
(1.02124 0.00413599 -0.0102932 -9.93049e-05 1.00172 0.213997 -0.00140593 0.000582363 0.967709)
(1.02074 0.00580021 -0.0289051 0.00156497 1.00222 0.212286 -0.00145136 0.000457603 0.967709)
(1.01996 0.00735255 -0.047297 0.00311733 1.003 0.208958 -0.00148576 0.000329398 0.967709)
(1.01893 0.00874585 -0.065329 0.0045106 1.00404 0.204041 -0.00150885 0.000198641 0.967709)
(1.01766 0.00993772 -0.0828637 0.00570247 1.0053 0.197571 -0.00152042 6.63625e-05 0.967709)
(1.01813 0.0119896 -0.0893507 0.00614831 1.0061 0.195467 -0.000785176 -3.4291e-05 0.962868)
(1.01647 0.0128969 -0.106047 0.0070555 1.00776 0.186935 -0.000779166 -0.000102588 0.962868)
(1.01467 0.013501 -0.121936 0.00765961 1.00956 0.176981 -0.000767302 -0.000170099 0.962868)
(1.01279 0.0137836 -0.136897 0.00794225 1.01144 0.165681 -0.000749611 -0.000236341 0.962868)
(1.0109 0.0137362 -0.150816 0.00789486 1.01334 0.153119 -0.000726174 -0.000300796 0.962868)
(1.00904 0.0133601 -0.163587 0.00751881 1.0152 0.139392 -0.000697198 -0.000362924 0.962868)
(1.00727 0.0126669 -0.175113 0.00682555 1.01696 0.124604 -0.000662915 -0.000422326 0.962868)
(1.00565 0.0116776 -0.185307 0.00583621 1.01858 0.108867 -0.000623579 -0.000478506 0.962868)
(1.00423 0.0104221 -0.19409 0.00458076 1.02 0.0923027 -0.000579456 -0.000530969 0.962868)
(1.00305 0.00893871 -0.201396 0.00309737 1.02119 0.0750353 -0.000530966 -0.00057945 0.962868)
(1.00214 0.00727244 -0.20717 0.00143115 1.02209 0.0571969 -0.000478486 -0.000623548 0.962868)
(1.00154 0.00547397 -0.211366 -0.000367326 1.0227 0.0389233 -0.000422328 -0.000662906 0.962868)
(1.00125 0.00359794 -0.213954 -0.0022434 1.02298 0.0203533 -0.000362909 -0.00069718 0.962868)
(1.0013 0.00170132 -0.214914 -0.00414001 1.02293 0.00162852 -0.000300768 -0.000726112 0.962868)
(1.00168 -0.000158283 -0.214238 -0.00599958 1.02256 -0.0171086 -0.000236343 -0.00074959 0.962868)
(1.00237 -0.00192435 -0.211932 -0.00776564 1.02186 -0.0357157 -0.000170103 -0.000767281 0.962868)
(1.00336 -0.00354313 -0.208013 -0.00938443 1.02087 -0.0540509 -0.000102591 -0.000779174 0.962868)
(1.00462 -0.00496552 -0.20251 -0.0108068 1.01962 -0.0719747 -3.42689e-05 -0.000785175 0.962868)
(1.0061 -0.00614831 -0.195467 -0.0119896 1.01813 -0.0893507 3.4291e-05 -0.000785176 0.962868)
(1.00776 -0.0070555 -0.186935 -0.0128969 1.01647 -0.106047 0.000102588 -0.000779166 0.962868)
(1.00956 -0.00765961 -0.176981 -0.013501 1.01467 -0.121936 0.000170099 -0.000767302 0.962868)
(1.01144 -0.00794225 -0.165681 -0.0137836 1.01279 -0.136897 0.000236341 -0.000749611 0.962868)
(1.01334 -0.00789486 -0.153119 -0.0137362 1.0109 -0.150816 0.000300796 -0.000726174 0.962868)
(1.0152 -0.00751881 -0.139392 -0.0133601 1.00904 -0.163587 0.000362924 -0.000697198 0.962868)
(1.01696 -0.00682555 -0.124604 -0.0126669 1.00727 -0.175113 0.000422326 -0.000662915 0.962868)
(1.01858 -0.00583621 -0.108867 -0.0116776 1.00565 -0.185307 0.000478506 -0.000623579 0.962868)
(1.02 -0.00458076 -0.0923027 -0.0104221 1.00423 -0.19409 0.000530969 -0.000579456 0.962868)
(1.02119 -0.00309737 -0.0750353 -0.00893871 1.00305 -0.201396 0.00057945 -0.000530966 0.962868)
(1.02209 -0.00143115 -0.0571969 -0.00727244 1.00214 -0.20717 0.000623548 -0.000478486 0.962868)
(1.0227 0.000367326 -0.0389233 -0.00547397 1.00154 -0.211366 0.000662906 -0.000422328 0.962868)
(1.02298 0.0022434 -0.0203533 -0.00359794 1.00125 -0.213954 0.00069718 -0.000362909 0.962868)
(1.02293 0.00414001 -0.00162852 -0.00170132 1.0013 -0.214914 0.000726112 -0.000300768 0.962868)
(1.02256 0.00599958 0.0171086 0.000158283 1.00168 -0.214238 0.00074959 -0.000236343 0.962868)
(1.02186 0.00776564 0.0357157 0.00192435 1.00237 -0.211932 0.000767281 -0.000170103 0.962868)
(1.02087 0.00938443 0.0540509 0.00354313 1.00336 -0.208013 0.000779174 -0.000102591 0.962868)
(1.01962 0.0108068 0.0719747 0.00496552 1.00462 -0.20251 0.000785175 -3.42689e-05 0.962868)
(1.01813 0.0119896 0.0893507 0.00614831 1.0061 -0.195467 0.000785176 3.4291e-05 0.962868)
(1.01647 0.0128969 0.106047 0.0070555 1.00776 -0.186935 0.000779166 0.000102588 0.962868)
(1.01467 0.013501 0.121936 0.00765961 1.00956 -0.176981 0.000767302 0.000170099 0.962868)
(1.01279 0.0137836 0.136897 0.00794225 1.01144 -0.165681 0.000749611 0.000236341 0.962868)
(1.0109 0.0137362 0.150816 0.00789486 1.01334 -0.153119 0.000726174 0.000300796 0.962868)
(1.00904 0.0133601 0.163587 0.00751881 1.0152 -0.139392 0.000697198 0.000362924 0.962868)
(1.00727 0.0126669 0.175113 0.00682555 1.01696 -0.124604 0.000662915 0.000422326 0.962868)
(1.00565 0.0116776 0.185307 0.00583621 1.01858 -0.108867 0.000623579 0.000478506 0.962868)
(1.00423 0.0104221 0.19409 0.00458076 1.02 -0.0923027 0.000579456 0.000530969 0.962868)
(1.00305 0.00893871 0.201396 0.00309737 1.02119 -0.0750353 0.000530966 0.00057945 0.962868)
(1.00214 0.00727244 0.20717 0.00143115 1.02209 -0.0571969 0.000478486 0.000623548 0.962868)
(1.00154 0.00547397 0.211366 -0.000367326 1.0227 -0.0389233 0.000422328 0.000662906 0.962868)
(1.00125 0.00359794 0.213954 -0.0022434 1.02298 -0.0203533 0.000362909 0.00069718 0.962868)
(1.0013 0.00170132 0.214914 -0.00414001 1.02293 -0.00162852 0.000300768 0.000726112 0.962868)
(1.00168 -0.000158283 0.214238 -0.00599958 1.02256 0.0171086 0.000236343 0.00074959 0.962868)
(1.00237 -0.00192435 0.211932 -0.00776564 1.02186 0.0357157 0.000170103 0.000767281 0.962868)
(1.00336 -0.00354313 0.208013 -0.00938443 1.02087 0.0540509 0.000102591 0.000779174 0.962868)
(1.00462 -0.00496552 0.20251 -0.0108068 1.01962 0.0719747 3.42689e-05 0.000785175 0.962868)
(1.0061 -0.00614831 0.195467 -0.0119896 1.01813 0.0893507 -3.4291e-05 0.000785176 0.962868)
(1.00776 -0.0070555 0.186935 -0.0128969 1.01647 0.106047 -0.000102588 0.000779166 0.962868)
(1.00956 -0.00765961 0.176981 -0.013501 1.01467 0.121936 -0.000170099 0.000767302 0.962868)
(1.01144 -0.00794225 0.165681 -0.0137836 1.01279 0.136897 -0.000236341 0.000749611 0.962868)
(1.01334 -0.00789486 0.153119 -0.0137362 1.0109 0.150816 -0.000300796 0.000726174 0.962868)
(1.0152 -0.00751881 0.139392 -0.0133601 1.00904 0.163587 -0.000362924 0.000697198 0.962868)
(1.01696 -0.00682555 0.124604 -0.0126669 1.00727 0.175113 -0.000422326 0.000662915 0.962868)
(1.01858 -0.00583621 0.108867 -0.0116776 1.00565 0.185307 -0.000478506 0.000623579 0.962868)
(1.02 -0.00458076 0.0923027 -0.0104221 1.00423 0.19409 -0.000530969 0.000579456 0.962868)
(1.02119 -0.00309737 0.0750353 -0.00893871 1.00305 0.201396 -0.00057945 0.000530966 0.962868)
(1.02209 -0.00143115 0.0571969 -0.00727244 1.00214 0.20717 -0.000623548 0.000478486 0.962868)
(1.0227 0.000367326 0.0389233 -0.00547397 1.00154 0.211366 -0.000662906 0.000422328 0.962868)
(1.02298 0.0022434 0.0203533 -0.00359794 1.00125 0.213954 -0.00069718 0.000362909 0.962868)
(1.02293 0.00414001 0.00162852 -0.00170132 1.0013 0.214914 -0.000726112 0.000300768 0.962868)
(1.02256 0.00599958 -0.0171086 0.000158283 1.00168 0.214238 -0.00074959 0.000236343 0.962868)
(1.02186 0.00776564 -0.0357157 0.00192435 1.00237 0.211932 -0.000767281 0.000170103 0.962868)
(1.02087 0.00938443 -0.0540509 0.00354313 1.00336 0.208013 -0.000779174 0.000102591 0.962868)
(1.01962 0.0108068 -0.0719747 0.00496552 1.00462 0.20251 -0.000785175 3.42689e-05 0.962868)
(1.02161 0.0132208 -0.076985 0.00503123 1.00517 0.200743 -0.00159742 -6.97493e-05 0.958693)
(1.0199 0.0145102 -0.0941879 0.00632059 1.00688 0.193269 -0.00158528 -0.000208711 0.958693)
(1.018 0.0154831 -0.110674 0.00729345 1.00878 0.184325 -0.00156111 -0.000346052 0.958693)
(1.01595 0.0161099 -0.126318 0.00792037 1.01083 0.173978 -0.001525 -0.000480763 0.958693)
(1.01382 0.0163717 -0.141 0.00818217 1.01296 0.162306 -0.0014773 -0.000611924 0.958693)
(1.01168 0.0162605 -0.15461 0.00807091 1.01509 0.1494 -0.00141834 -0.000738356 0.958693)
(1.0096 0.0157796 -0.167042 0.00758998 1.01718 0.135356 -0.00134859 -0.000859155 0.958693)
(1.00763 0.0149437 -0.178204 0.00675406 1.01915 0.120282 -0.00126854 -0.000973466 0.958693)
(1.00583 0.0137782 -0.188009 0.00558854 1.02095 0.104293 -0.00117881 -0.00108023 0.958693)
(1.00426 0.0123184 -0.196383 0.00412879 1.02252 0.0875101 -0.00108025 -0.00117883 0.958693)
(1.00297 0.0106087 -0.203263 0.0024191 1.0238 0.0700611 -0.00097345 -0.00126854 0.958693)
(1.002 0.00870111 -0.208596 0.000511505 1.02478 0.052079 -0.000859165 -0.00134858 0.958693)
(1.00137 0.0066536 -0.212341 -0.00153602 1.0254 0.0337005 -0.000738315 -0.00141831 0.958693)
(1.00111 0.00452832 -0.21447 -0.00366127 1.02567 0.0150656 -0.000611903 -0.00147725 0.958693)
(1.00122 0.00238986 -0.214967 -0.00579973 1.02556 -0.00368411 -0.000480772 -0.00152495 0.958693)
(1.0017 0.000303154 -0.213828 -0.00788637 1.02507 -0.0224056 -0.000346063 -0.00156111 0.958693)
(1.00254 -0.00166829 -0.211061 -0.00985788 1.02424 -0.0409567 -0.000208712 -0.00158526 0.958693)
(1.00371 -0.0034646 -0.206689 -0.0116542 1.02307 -0.0591961 -6.97361e-05 -0.00159742 0.958693)
(1.00517 -0.00503123 -0.200743 -0.0132208 1.02161 -0.076985 6.97493e-05 -0.00159742 0.958693)
(1.00688 -0.00632059 -0.193269 -0.0145102 1.0199 -0.0941879 0.000208711 -0.00158528 0.958693)
(1.00878 -0.00729345 -0.184325 -0.0154831 1.018 -0.110674 0.000346052 -0.00156111 0.958693)
(1.01083 -0.00792037 -0.173978 -0.0161099 1.01595 -0.126318 0.000480763 -0.001525 0.958693)
(1.01296 -0.00818217 -0.162306 -0.0163717 1.01382 -0.141 0.000611924 -0.0014773 0.958693)
(1.01509 -0.00807091 -0.1494 -0.0162605 1.01168 -0.15461 0.000738356 -0.00141834 0.958693)
(1.01718 -0.00758998 -0.135356 -0.0157796 1.0096 -0.167042 0.000859155 -0.00134859 0.958693)
(1.01915 -0.00675406 -0.120282 -0.0149437 1.00763 -0.178204 0.000973466 -0.00126854 0.958693)
(1.02095 -0.00558854 -0.104293 -0.0137782 1.00583 -0.188009 0.00108023 -0.00117881 0.958693)
(1.02252 -0.00412879 -0.0875101 -0.0123184 1.00426 -0.196383 0.00117883 -0.00108025 0.958693)
(1.0238 -0.0024191 -0.0700611 -0.0106087 1.00297 -0.203263 0.00126854 -0.00097345 0.958693)
(1.02478 -0.000511505 -0.052079 -0.00870111 1.002 -0.208596 0.00134858 -0.000859165 0.958693)
(1.0254 0.00153602 -0.0337005 -0.0066536 1.00137 -0.212341 0.00141831 -0.000738315 0.958693)
(1.02567 0.00366127 -0.0150656 -0.00452832 1.00111 -0.21447 0.00147725 -0.000611903 0.958693)
(1.02556 0.00579973 0.00368411 -0.00238986 1.00122 -0.214967 0.00152495 -0.000480772 0.958693)
(1.02507 0.00788637 0.0224056 -0.000303154 1.0017 -0.213828 0.00156111 -0.000346063 0.958693)
(1.02424 0.00985788 0.0409567 0.00166829 1.00254 -0.211061 0.00158526 -0.000208712 0.958693)
(1.02307 0.0116542 0.0591961 0.0034646 1.00371 -0.206689 0.00159742 -6.97361e-05 0.958693)
(1.02161 0.0132208 0.076985 0.00503123 1.00517 -0.200743 0.00159742 6.97493e-05 0.958693)
(1.0199 0.0145102 0.0941879 0.00632059 1.00688 -0.193269 0.00158528 0.000208711 0.958693)
(1.018 0.0154831 0.110674 0.00729345 1.00878 -0.184325 0.00156111 0.000346052 0.958693)
(1.01595 0.0161099 0.126318 0.00792037 1.01083 -0.173978 0.001525 0.000480763 0.958693)
(1.01382 0.0163717 0.141 0.00818217 1.01296 -0.162306 0.0014773 0.000611924 0.958693)
(1.01168 0.0162605 0.15461 0.00807091 1.01509 -0.1494 0.00141834 0.000738356 0.958693)
(1.0096 0.0157796 0.167042 0.00758998 1.01718 -0.135356 0.00134859 0.000859155 0.958693)
(1.00763 0.0149437 0.178204 0.00675406 1.01915 -0.120282 0.00126854 0.000973466 0.958693)
(1.00583 0.0137782 0.188009 0.00558854 1.02095 -0.104293 0.00117881 0.00108023 0.958693)
(1.00426 0.0123184 0.196383 0.00412879 1.02252 -0.0875101 0.00108025 0.00117883 0.958693)
(1.00297 0.0106087 0.203263 0.0024191 1.0238 -0.0700611 0.00097345 0.00126854 0.958693)
(1.002 0.00870111 0.208596 0.000511505 1.02478 -0.052079 0.000859165 0.00134858 0.958693)
(1.00137 0.0066536 0.212341 -0.00153602 1.0254 -0.0337005 0.000738315 0.00141831 0.958693)
(1.00111 0.00452832 0.21447 -0.00366127 1.02567 -0.0150656 0.000611903 0.00147725 0.958693)
(1.00122 0.00238986 0.214967 -0.00579973 1.02556 0.00368411 0.000480772 0.00152495 0.958693)
(1.0017 0.000303154 0.213828 -0.00788637 1.02507 0.0224056 0.000346063 0.00156111 0.958693)
(1.00254 -0.00166829 0.211061 -0.00985788 1.02424 0.0409567 0.000208712 0.00158526 0.958693)
(1.00371 -0.0034646 0.206689 -0.0116542 1.02307 0.0591961 6.97361e-05 0.00159742 0.958693)
(1.00517 -0.00503123 0.200743 -0.0132208 1.02161 0.076985 -6.97493e-05 0.00159742 0.958693)
(1.00688 -0.00632059 0.193269 -0.0145102 1.0199 0.0941879 -0.000208711 0.00158528 0.958693)
(1.00878 -0.00729345 0.184325 -0.0154831 1.018 0.110674 -0.000346052 0.00156111 0.958693)
(1.01083 -0.00792037 0.173978 -0.0161099 1.01595 0.126318 -0.000480763 0.001525 0.958693)
(1.01296 -0.00818217 0.162306 -0.0163717 1.01382 0.141 -0.000611924 0.0014773 0.958693)
(1.01509 -0.00807091 0.1494 -0.0162605 1.01168 0.15461 -0.000738356 0.00141834 0.958693)
(1.01718 -0.00758998 0.135356 -0.0157796 1.0096 0.167042 -0.000859155 0.00134859 0.958693)
(1.01915 -0.00675406 0.120282 -0.0149437 1.00763 0.178204 -0.000973466 0.00126854 0.958693)
(1.02095 -0.00558854 0.104293 -0.0137782 1.00583 0.188009 -0.00108023 0.00117881 0.958693)
(1.02252 -0.00412879 0.0875101 -0.0123184 1.00426 0.196383 -0.00117883 0.00108025 0.958693)
(1.0238 -0.0024191 0.0700611 -0.0106087 1.00297 0.203263 -0.00126854 0.00097345 0.958693)
(1.02478 -0.000511505 0.052079 -0.00870111 1.002 0.208596 -0.00134858 0.000859165 0.958693)
(1.0254 0.00153602 0.0337005 -0.0066536 1.00137 0.212341 -0.00141831 0.000738315 0.958693)
(1.02567 0.00366127 0.0150656 -0.00452832 1.00111 0.21447 -0.00147725 0.000611903 0.958693)
(1.02556 0.00579973 -0.00368411 -0.00238986 1.00122 0.214967 -0.00152495 0.000480772 0.958693)
(1.02507 0.00788637 -0.0224056 -0.000303154 1.0017 0.213828 -0.00156111 0.000346063 0.958693)
(1.02424 0.00985788 -0.0409567 0.00166829 1.00254 0.211061 -0.00158526 0.000208712 0.958693)
(1.02307 0.0116542 -0.0591961 0.0034646 1.00371 0.206689 -0.00159742 6.97361e-05 0.958693)
(1.02917 0.0146747 -0.0633695 0.00397081 1.00382 0.205058 -0.00236495 -0.000103252 0.954776)
(1.02736 0.0167339 -0.0810004 0.00603019 1.00563 0.198755 -0.00234704 -0.000308956 0.954776)
(1.02522 0.0184474 -0.0980147 0.00774364 1.00778 0.190939 -0.00231115 -0.000512342 0.954776)
(1.02281 0.019763 -0.114283 0.00905931 1.01018 0.18167 -0.00225757 -0.00071179 0.954776)
(1.02021 0.0206407 -0.129682 0.00993695 1.01278 0.171018 -0.0021869 -0.000905829 0.954776)
(1.0175 0.0210538 -0.144094 0.0103501 1.01549 0.159065 -0.0020997 -0.00109302 0.954776)
(1.01476 0.0209898 -0.157409 0.0102861 1.01823 0.145901 -0.00199642 -0.00127186 0.954776)
(1.01207 0.0204508 -0.169526 0.00974692 1.02092 0.131626 -0.00187796 -0.00144115 0.954776)
(1.00952 0.019453 -0.180353 0.00874922 1.02348 0.11635 -0.00174528 -0.00159935 0.954776)
(1.00718 0.0180267 -0.189807 0.00732285 1.02582 0.100189 -0.00159936 -0.00174528 0.954776)
(1.00512 0.0162151 -0.197817 0.00551136 1.02788 0.0832649 -0.00144117 -0.001878 0.954776)
(1.0034 0.0140736 -0.204321 0.00336983 1.02959 0.0657073 -0.00127187 -0.00199645 0.954776)
(1.00209 0.0116671 -0.20927 0.000963317 1.03091 0.0476494 -0.00109294 -0.00209965 0.954776)
(1.00121 0.00906875 -0.212627 -0.00163499 1.03179 0.029229 -0.000905811 -0.00218687 0.954776)
(1.0008 0.00635744 -0.214365 -0.00434632 1.0322 0.0105861 -0.000711807 -0.00225748 0.954776)
(1.00086 0.00361549 -0.214472 -0.00708832 1.03214 -0.00813731 -0.000512369 -0.00231115 0.954776)
(1.0014 0.000926378 -0.212947 -0.00977748 1.0316 -0.0267989 -0.000308954 -0.00234701 0.954776)
(1.0024 -0.00162836 -0.209801 -0.0123321 1.0306 -0.0452564 -0.000103246 -0.00236499 0.954776)
(1.00382 -0.00397081 -0.205058 -0.0146747 1.02917 -0.0633695 0.000103252 -0.00236495 0.954776)
(1.00563 -0.00603019 -0.198755 -0.0167339 1.02736 -0.0810004 0.000308956 -0.00234704 0.954776)
(1.00778 -0.00774364 -0.190939 -0.0184474 1.02522 -0.0980147 0.000512342 -0.00231115 0.954776)
(1.01018 -0.00905931 -0.18167 -0.019763 1.02281 -0.114283 0.00071179 -0.00225757 0.954776)
(1.01278 -0.00993695 -0.171018 -0.0206407 1.02021 -0.129682 0.000905829 -0.0021869 0.954776)
(1.01549 -0.0103501 -0.159065 -0.0210538 1.0175 -0.144094 0.00109302 -0.0020997 0.954776)
(1.01823 -0.0102861 -0.145901 -0.0209898 1.01476 -0.157409 0.00127186 -0.00199642 0.954776)
(1.02092 -0.00974692 -0.131626 -0.0204508 1.01207 -0.169526 0.00144115 -0.00187796 0.954776)
(1.02348 -0.00874922 -0.11635 -0.019453 1.00952 -0.180353 0.00159935 -0.00174528 0.954776)
(1.02582 -0.00732285 -0.100189 -0.0180267 1.00718 -0.189807 0.00174528 -0.00159936 0.954776)