/*--------------------------------*- C++ -*----------------------------------*\
| =========                 |                                                 |
| \\      /  F ield         | OpenFOAM: The Open Source CFD Toolbox           |
|  \\    /   O peration     | Version:  2312                                  |
|   \\  /    A nd           | Website:  www.openfoam.com                      |
|    \\/     M anipulation  |                                                 |
\*---------------------------------------------------------------------------*/
FoamFile
{
    version     2.0;
    format      ascii;
    arch        "LSB;label=32;scalar=64";
    class       pointVectorField;
    location    "0.2";
    object      pointD;
}
// * * * * * * * * * * * * * * * * * * * * * * * * * * * * * * * * * * * * * //

dimensions      [0 1 0 0 0 0 0];

internalField   nonuniform List<vector> 
15127
(
(0 0 0)
(0 0 0)
(0 0 0)
(0 0 0)
(0 0 0)
(0 0 0)
(0 0 0)
(0 0 0)
(0 0 0)
(0 0 0)
(0 0 0)
(0 0 0)
(0 0 0)
(0 0 0)
(0 0 0)
(0 0 0)
(0 0 0)
(0 0 0)
(0 0 0)
(0 0 0)
(0 0 0)
(0 0 0)
(0 0 0)
(0 0 0)
(0 0 0)
(0 0 0)
(0 0 0)
(0 0 0)
(0 0 0)
(0 0 0)
(0 0 0)
(0 0 0)
(0 0 0)
(0 0 0)
(0 0 0)
(0 0 0)
(0 0 0)
(0 0 0)
(0 0 0)
(0 0 0)
(0 0 0)
(0 0 0)
(0 0 0)
(0 0 0)
(0 0 0)
(0 0 0)
(0 0 0)
(0 0 0)
(0 0 0)
(0 0 0)
(0 0 0)
(0 0 0)
(0 0 0)
(0 0 0)
(0 0 0)
(0 0 0)
(0 0 0)
(0 0 0)
(0 0 0)
(0 0 0)
(0 0 0)
(0 0 0)
(0 0 0)
(0 0 0)
(0 0 0)
(0 0 0)
(0 0 0)
(0 0 0)
(0 0 0)
(0 0 0)
(0 0 0)
(0 0 0)
(0.000132115 -0.000167039 1.48564e-05)
(0.00014617 -0.000154889 1.48564e-05)
(0.000159114 -0.00014156 1.48564e-05)
(0.000170846 -0.000127154 1.48564e-05)
(0.000181278 -0.00011178 1.48563e-05)
(0.00019033 -9.55553e-05 1.48564e-05)
(0.000197934 -7.86032e-05 1.48564e-05)
(0.000204032 -6.10529e-05 1.48562e-05)
(0.000208577 -4.30381e-05 1.48562e-05)
(0.000211534 -2.46956e-05 1.48563e-05)
(0.000212881 -6.16527e-06 1.48564e-05)
(0.000212608 1.24121e-05 1.48565e-05)
(0.000210718 3.08948e-05 1.48565e-05)
(0.000207223 4.91427e-05 1.48565e-05)
(0.000202151 6.70162e-05 1.48565e-05)
(0.000195541 8.43798e-05 1.48563e-05)
(0.000187443 0.000101101 1.48563e-05)
(0.000177918 0.000117054 1.48563e-05)
(0.000167039 0.000132115 1.48564e-05)
(0.000154889 0.00014617 1.48564e-05)
(0.00014156 0.000159114 1.48564e-05)
(0.000127154 0.000170846 1.48564e-05)
(0.00011178 0.000181278 1.48563e-05)
(9.55553e-05 0.00019033 1.48564e-05)
(7.86032e-05 0.000197934 1.48564e-05)
(6.10529e-05 0.000204032 1.48562e-05)
(4.30381e-05 0.000208577 1.48562e-05)
(2.46956e-05 0.000211534 1.48563e-05)
(6.16527e-06 0.000212881 1.48564e-05)
(-1.24121e-05 0.000212608 1.48565e-05)
(-3.08948e-05 0.000210718 1.48565e-05)
(-4.91427e-05 0.000207223 1.48565e-05)
(-6.70162e-05 0.000202151 1.48565e-05)
(-8.43798e-05 0.000195541 1.48563e-05)
(-0.000101101 0.000187443 1.48563e-05)
(-0.000117054 0.000177918 1.48563e-05)
(-0.000132115 0.000167039 1.48564e-05)
(-0.00014617 0.000154889 1.48564e-05)
(-0.000159114 0.00014156 1.48564e-05)
(-0.000170846 0.000127154 1.48564e-05)
(-0.000181278 0.00011178 1.48563e-05)
(-0.00019033 9.55553e-05 1.48564e-05)
(-0.000197934 7.86032e-05 1.48564e-05)
(-0.000204032 6.10529e-05 1.48562e-05)
(-0.000208577 4.30381e-05 1.48562e-05)
(-0.000211534 2.46956e-05 1.48563e-05)
(-0.000212881 6.16527e-06 1.48564e-05)
(-0.000212608 -1.24121e-05 1.48565e-05)
(-0.000210718 -3.08948e-05 1.48565e-05)
(-0.000207223 -4.91427e-05 1.48565e-05)
(-0.000202151 -6.70162e-05 1.48565e-05)
(-0.000195541 -8.43798e-05 1.48563e-05)
(-0.000187443 -0.000101101 1.48563e-05)
(-0.000177918 -0.000117054 1.48563e-05)
(-0.000167039 -0.000132115 1.48564e-05)
(-0.000154889 -0.00014617 1.48564e-05)
(-0.00014156 -0.000159114 1.48564e-05)
(-0.000127154 -0.000170846 1.48564e-05)
(-0.00011178 -0.000181278 1.48563e-05)
(-9.55553e-05 -0.00019033 1.48564e-05)
(-7.86032e-05 -0.000197934 1.48564e-05)
(-6.10529e-05 -0.000204032 1.48562e-05)
(-4.30381e-05 -0.000208577 1.48562e-05)
(-2.46956e-05 -0.000211534 1.48563e-05)
(-6.16527e-06 -0.000212881 1.48564e-05)
(1.24121e-05 -0.000212608 1.48565e-05)
(3.08948e-05 -0.000210718 1.48565e-05)
(4.91427e-05 -0.000207223 1.48565e-05)
(6.70162e-05 -0.000202151 1.48565e-05)
(8.43798e-05 -0.000195541 1.48563e-05)
(0.000101101 -0.000187443 1.48563e-05)
(0.000117054 -0.000177918 1.48563e-05)
(0.000121624 -0.000174251 1.91873e-05)
(0.000136349 -0.000162988 1.91873e-05)
(0.000150035 -0.000150484 1.91873e-05)
(0.00016258 -0.000136834 1.91873e-05)
(0.000173887 -0.000122144 1.91873e-05)
(0.000183871 -0.000106524 1.91873e-05)
(0.000192455 -9.00935e-05 1.91873e-05)
(0.000199575 -7.29768e-05 1.91872e-05)
(0.000205176 -5.53051e-05 1.91872e-05)
(0.000209215 -3.72125e-05 1.91873e-05)
(0.000211663 -1.88363e-05 1.91873e-05)
(0.000212499 -3.17029e-07 1.91873e-05)
(0.000211718 1.82045e-05 1.91874e-05)
(0.000209325 3.65877e-05 1.91874e-05)
(0.00020534 5.46924e-05 1.91874e-05)
(0.000199792 7.23808e-05 1.91873e-05)
(0.000192723 8.95184e-05 1.91873e-05)
(0.000184188 0.000105975 1.91873e-05)
(0.000174251 0.000121624 1.91873e-05)
(0.000162988 0.000136349 1.91873e-05)
(0.000150484 0.000150035 1.91873e-05)
(0.000136834 0.00016258 1.91873e-05)
(0.000122144 0.000173887 1.91873e-05)
(0.000106524 0.000183871 1.91873e-05)
(9.00935e-05 0.000192455 1.91873e-05)
(7.29768e-05 0.000199575 1.91872e-05)
(5.53051e-05 0.000205176 1.91872e-05)
(3.72125e-05 0.000209215 1.91873e-05)
(1.88363e-05 0.000211663 1.91873e-05)
(3.17029e-07 0.000212499 1.91873e-05)
(-1.82045e-05 0.000211718 1.91874e-05)
(-3.65877e-05 0.000209325 1.91874e-05)
(-5.46924e-05 0.00020534 1.91874e-05)
(-7.23808e-05 0.000199792 1.91873e-05)
(-8.95184e-05 0.000192723 1.91873e-05)
(-0.000105975 0.000184188 1.91873e-05)
(-0.000121624 0.000174251 1.91873e-05)
(-0.000136349 0.000162988 1.91873e-05)
(-0.000150035 0.000150484 1.91873e-05)
(-0.00016258 0.000136834 1.91873e-05)
(-0.000173887 0.000122144 1.91873e-05)
(-0.000183871 0.000106524 1.91873e-05)
(-0.000192455 9.00935e-05 1.91873e-05)
(-0.000199575 7.29768e-05 1.91872e-05)
(-0.000205176 5.53051e-05 1.91872e-05)
(-0.000209215 3.72125e-05 1.91873e-05)
(-0.000211663 1.88363e-05 1.91873e-05)
(-0.000212499 3.1703e-07 1.91873e-05)
(-0.000211718 -1.82045e-05 1.91874e-05)
(-0.000209325 -3.65877e-05 1.91874e-05)
(-0.00020534 -5.46924e-05 1.91874e-05)
(-0.000199792 -7.23808e-05 1.91873e-05)
(-0.000192723 -8.95184e-05 1.91873e-05)
(-0.000184188 -0.000105975 1.91873e-05)
(-0.000174251 -0.000121624 1.91873e-05)
(-0.000162988 -0.000136349 1.91873e-05)
(-0.000150484 -0.000150035 1.91873e-05)
(-0.000136834 -0.00016258 1.91873e-05)
(-0.000122144 -0.000173887 1.91873e-05)
(-0.000106524 -0.000183871 1.91873e-05)
(-9.00935e-05 -0.000192455 1.91873e-05)
(-7.29768e-05 -0.000199575 1.91872e-05)
(-5.53051e-05 -0.000205176 1.91872e-05)
(-3.72125e-05 -0.000209215 1.91873e-05)
(-1.88363e-05 -0.000211663 1.91873e-05)
(-3.1703e-07 -0.000212499 1.91873e-05)
(1.82045e-05 -0.000211718 1.91874e-05)
(3.65877e-05 -0.000209325 1.91874e-05)
(5.46924e-05 -0.00020534 1.91874e-05)
(7.23808e-05 -0.000199792 1.91873e-05)
(8.95184e-05 -0.000192723 1.91873e-05)
(0.000105975 -0.000184188 1.91873e-05)
(0 0 0)
(0 0 0)
(0 0 0)
(0 0 0)
(0 0 0)
(0 0 0)
(0 0 0)
(0 0 0)
(0 0 0)
(0 0 0)
(0 0 0)
(0 0 0)
(0 0 0)
(0 0 0)
(0 0 0)
(0 0 0)
(0 0 0)
(0 0 0)
(0 0 0)
(0 0 0)
(0 0 0)
(0 0 0)
(0 0 0)
(0 0 0)
(0 0 0)
(0 0 0)
(0 0 0)
(0 0 0)
(0 0 0)
(0 0 0)
(0 0 0)
(0 0 0)
(0 0 0)
(0 0 0)
(0 0 0)
(0 0 0)
(0 0 0)
(0 0 0)
(0 0 0)
(0 0 0)
(0 0 0)
(0 0 0)
(0 0 0)
(0 0 0)
(0 0 0)
(0 0 0)
(0 0 0)
(0 0 0)
(0 0 0)
(0 0 0)
(0 0 0)
(0 0 0)
(0 0 0)
(0 0 0)
(0 0 0)
(0 0 0)
(0 0 0)
(0 0 0)
(0 0 0)
(0 0 0)
(0 0 0)
(0 0 0)
(0 0 0)
(0 0 0)
(0 0 0)
(0 0 0)
(0 0 0)
(0 0 0)
(0 0 0)
(0 0 0)
(0 0 0)
(0 0 0)
(0.000109958 -0.00018159 2.25234e-05)
(0.000125366 -0.000171315 2.25234e-05)
(0.00013982 -0.000159737 2.25234e-05)
(0.00015321 -0.000146943 2.25234e-05)
(0.000165434 -0.000133031 2.25234e-05)
(0.000176399 -0.000118106 2.25234e-05)
(0.000186022 -0.000102282 2.25234e-05)
(0.000194228 -8.56803e-05 2.25234e-05)
(0.000200957 -6.84263e-05 2.25234e-05)
(0.000206156 -5.06515e-05 2.25234e-05)
(0.000209786 -3.24909e-05 2.25234e-05)
(0.000211819 -1.40834e-05 2.25235e-05)
(0.00021224 4.43165e-06 2.25234e-05)
(0.000211047 2.29128e-05 2.25234e-05)
(0.000208246 4.12193e-05 2.25235e-05)
(0.000203861 5.92126e-05 2.25234e-05)
(0.000197925 7.67549e-05 2.25234e-05)
(0.000190482 9.37132e-05 2.25234e-05)
(0.00018159 0.000109958 2.25234e-05)
(0.000171315 0.000125366 2.25234e-05)
(0.000159737 0.00013982 2.25234e-05)
(0.000146943 0.00015321 2.25234e-05)
(0.000133031 0.000165434 2.25234e-05)
(0.000118106 0.000176399 2.25234e-05)
(0.000102282 0.000186022 2.25234e-05)
(8.56803e-05 0.000194228 2.25234e-05)
(6.84263e-05 0.000200957 2.25234e-05)
(5.06515e-05 0.000206156 2.25234e-05)
(3.24909e-05 0.000209786 2.25234e-05)
(1.40834e-05 0.000211819 2.25235e-05)
(-4.43165e-06 0.00021224 2.25234e-05)
(-2.29128e-05 0.000211047 2.25234e-05)
(-4.12193e-05 0.000208246 2.25235e-05)
(-5.92126e-05 0.000203861 2.25234e-05)
(-7.67549e-05 0.000197925 2.25234e-05)
(-9.37132e-05 0.000190482 2.25234e-05)
(-0.000109958 0.00018159 2.25234e-05)
(-0.000125366 0.000171315 2.25234e-05)
(-0.00013982 0.000159737 2.25234e-05)
(-0.00015321 0.000146943 2.25234e-05)
(-0.000165434 0.000133031 2.25234e-05)
(-0.000176399 0.000118106 2.25234e-05)
(-0.000186022 0.000102282 2.25234e-05)
(-0.000194228 8.56803e-05 2.25234e-05)
(-0.000200957 6.84263e-05 2.25234e-05)
(-0.000206156 5.06515e-05 2.25234e-05)
(-0.000209786 3.24909e-05 2.25234e-05)
(-0.000211819 1.40834e-05 2.25235e-05)
(-0.00021224 -4.43165e-06 2.25234e-05)
(-0.000211047 -2.29128e-05 2.25234e-05)
(-0.000208246 -4.12193e-05 2.25235e-05)
(-0.000203861 -5.92126e-05 2.25234e-05)
(-0.000197925 -7.67549e-05 2.25234e-05)
(-0.000190482 -9.37132e-05 2.25234e-05)
(-0.00018159 -0.000109958 2.25234e-05)
(-0.000171315 -0.000125366 2.25234e-05)
(-0.000159737 -0.00013982 2.25234e-05)
(-0.000146943 -0.00015321 2.25234e-05)
(-0.000133031 -0.000165434 2.25234e-05)
(-0.000118106 -0.000176399 2.25234e-05)
(-0.000102282 -0.000186022 2.25234e-05)
(-8.56803e-05 -0.000194228 2.25234e-05)
(-6.84263e-05 -0.000200957 2.25234e-05)
(-5.06515e-05 -0.000206156 2.25234e-05)
(-3.24909e-05 -0.000209786 2.25234e-05)
(-1.40834e-05 -0.000211819 2.25235e-05)
(4.43165e-06 -0.00021224 2.25234e-05)
(2.29128e-05 -0.000211047 2.25234e-05)
(4.12193e-05 -0.000208246 2.25235e-05)
(5.92126e-05 -0.000203861 2.25234e-05)
(7.67549e-05 -0.000197925 2.25234e-05)
(9.37132e-05 -0.000190482 2.25234e-05)
(0 0 0)
(0 0 0)
(0 0 0)
(0 0 0)
(0 0 0)
(0 0 0)
(0 0 0)
(0 0 0)
(0 0 0)
(0 0 0)
(0 0 0)
(0 0 0)
(0 0 0)
(0 0 0)
(0 0 0)
(0 0 0)
(0 0 0)
(0 0 0)
(0 0 0)
(0 0 0)
(0 0 0)
(0 0 0)
(0 0 0)
(0 0 0)
(0 0 0)
(0 0 0)
(0 0 0)
(0 0 0)
(0 0 0)
(0 0 0)
(0 0 0)
(0 0 0)
(0 0 0)
(0 0 0)
(0 0 0)
(0 0 0)
(0 0 0)
(0 0 0)
(0 0 0)
(0 0 0)
(0 0 0)
(0 0 0)
(0 0 0)
(0 0 0)
(0 0 0)
(0 0 0)
(0 0 0)
(0 0 0)
(0 0 0)
(0 0 0)
(0 0 0)
(0 0 0)
(0 0 0)
(0 0 0)
(0 0 0)
(0 0 0)
(0 0 0)
(0 0 0)
(0 0 0)
(0 0 0)
(0 0 0)
(0 0 0)
(0 0 0)
(0 0 0)
(0 0 0)
(0 0 0)
(0 0 0)
(0 0 0)
(0 0 0)
(0 0 0)
(0 0 0)
(0 0 0)
(9.55151e-05 -0.00018863 2.47211e-05)
(0.000111592 -0.000179587 2.47211e-05)
(0.000126819 -0.000169178 2.47211e-05)
(0.000141081 -0.000157481 2.47211e-05)
(0.00015427 -0.000144586 2.47211e-05)
(0.000166284 -0.00013059 2.47211e-05)
(0.000177033 -0.000115601 2.47211e-05)
(0.000186435 -9.97313e-05 2.47211e-05)
(0.000194418 -8.31028e-05 2.47211e-05)
(0.000200921 -6.58421e-05 2.47211e-05)
(0.000205895 -4.808e-05 2.47211e-05)
(0.000209301 -2.99523e-05 2.47212e-05)
(0.000211116 -1.15964e-05 2.47211e-05)
(0.000211323 6.84756e-06 2.47211e-05)
(0.000209922 2.52397e-05 2.47211e-05)
(0.000206923 4.34394e-05 2.47211e-05)
(0.00020235 6.13088e-05 2.47211e-05)
(0.000196237 7.87115e-05 2.47211e-05)
(0.00018863 9.55151e-05 2.47211e-05)
(0.000179587 0.000111592 2.47211e-05)
(0.000169178 0.000126819 2.47211e-05)
(0.000157481 0.000141081 2.47211e-05)
(0.000144586 0.00015427 2.47211e-05)
(0.00013059 0.000166284 2.47211e-05)
(0.000115601 0.000177033 2.47211e-05)
(9.97313e-05 0.000186435 2.47211e-05)
(8.31028e-05 0.000194418 2.47211e-05)
(6.58421e-05 0.000200921 2.47211e-05)
(4.808e-05 0.000205895 2.47211e-05)
(2.99523e-05 0.000209301 2.47212e-05)
(1.15964e-05 0.000211116 2.47211e-05)
(-6.84756e-06 0.000211323 2.47211e-05)
(-2.52397e-05 0.000209922 2.47211e-05)
(-4.34394e-05 0.000206923 2.47211e-05)
(-6.13088e-05 0.00020235 2.47211e-05)
(-7.87115e-05 0.000196237 2.47211e-05)
(-9.55151e-05 0.00018863 2.47211e-05)
(-0.000111592 0.000179587 2.47211e-05)
(-0.000126819 0.000169178 2.47211e-05)
(-0.000141081 0.000157481 2.47211e-05)
(-0.00015427 0.000144586 2.47211e-05)
(-0.000166284 0.00013059 2.47211e-05)
(-0.000177033 0.000115601 2.47211e-05)
(-0.000186435 9.97313e-05 2.47211e-05)
(-0.000194418 8.31028e-05 2.47211e-05)
(-0.000200921 6.58421e-05 2.47211e-05)
(-0.000205895 4.808e-05 2.47211e-05)
(-0.000209301 2.99523e-05 2.47212e-05)
(-0.000211116 1.15964e-05 2.47211e-05)
(-0.000211323 -6.84756e-06 2.47211e-05)
(-0.000209922 -2.52397e-05 2.47211e-05)
(-0.000206923 -4.34394e-05 2.47211e-05)
(-0.00020235 -6.13088e-05 2.47211e-05)
(-0.000196237 -7.87115e-05 2.47211e-05)
(-0.00018863 -9.55151e-05 2.47211e-05)
(-0.000179587 -0.000111592 2.47211e-05)
(-0.000169178 -0.000126819 2.47211e-05)
(-0.000157481 -0.000141081 2.47211e-05)
(-0.000144586 -0.00015427 2.47211e-05)
(-0.00013059 -0.000166284 2.47211e-05)
(-0.000115601 -0.000177033 2.47211e-05)
(-9.97313e-05 -0.000186435 2.47211e-05)
(-8.31028e-05 -0.000194418 2.47211e-05)
(-6.58421e-05 -0.000200921 2.47211e-05)
(-4.808e-05 -0.000205895 2.47211e-05)
(-2.99523e-05 -0.000209301 2.47212e-05)
(-1.15964e-05 -0.000211116 2.47211e-05)
(6.84756e-06 -0.000211323 2.47211e-05)
(2.52397e-05 -0.000209922 2.47211e-05)
(4.34394e-05 -0.000206923 2.47211e-05)
(6.13088e-05 -0.00020235 2.47211e-05)
(7.87115e-05 -0.000196237 2.47211e-05)
(0 0 0)
(0 0 0)
(0 0 0)
(0 0 0)
(0 0 0)
(0 0 0)
(0 0 0)
(0 0 0)
(0 0 0)
(0 0 0)
(0 0 0)
(0 0 0)
(0 0 0)
(0 0 0)
(0 0 0)
(0 0 0)
(0 0 0)
(0 0 0)
(0 0 0)
(0 0 0)
(0 0 0)
(0 0 0)
(0 0 0)
(0 0 0)
(0 0 0)
(0 0 0)
(0 0 0)
(0 0 0)
(0 0 0)
(0 0 0)
(0 0 0)
(0 0 0)
(0 0 0)
(0 0 0)
(0 0 0)
(0 0 0)
(0 0 0)
(0 0 0)
(0 0 0)
(0 0 0)
(0 0 0)
(0 0 0)
(0 0 0)
(0 0 0)
(0 0 0)
(0 0 0)
(0 0 0)
(0 0 0)
(0 0 0)
(0 0 0)
(0 0 0)
(0 0 0)
(0 0 0)
(0 0 0)
(0 0 0)
(0 0 0)
(0 0 0)
(0 0 0)
(0 0 0)
(0 0 0)
(0 0 0)
(0 0 0)
(0 0 0)
(0 0 0)
(0 0 0)
(0 0 0)
(0 0 0)
(0 0 0)
(0 0 0)
(0 0 0)
(0 0 0)
(0 0 0)
(7.87224e-05 -0.000194619 2.73538e-05)
(9.53849e-05 -0.000187017 2.73538e-05)
(0.000111321 -0.000177992 2.73539e-05)
(0.000126411 -0.000167612 2.73539e-05)
(0.000140538 -0.000155957 2.73539e-05)
(0.000153596 -0.000143115 2.73539e-05)
(0.000165485 -0.000129184 2.73539e-05)
(0.000176114 -0.000114269 2.73538e-05)
(0.000185403 -9.8485e-05 2.73538e-05)
(0.000193281 -8.1951e-05 2.73538e-05)
(0.000199688 -6.47937e-05 2.73539e-05)
(0.000204575 -4.71434e-05 2.73539e-05)
(0.000207906 -2.91337e-05 2.73538e-05)
(0.000209654 -1.09027e-05 2.73538e-05)
(0.000209806 7.41104e-06 2.73539e-05)
(0.000208362 2.56688e-05 2.73538e-05)
(0.000205332 4.37312e-05 2.73538e-05)
(0.000200739 6.14607e-05 2.73538e-05)
(0.000194619 7.87224e-05 2.73538e-05)
(0.000187017 9.53849e-05 2.73538e-05)
(0.000177992 0.000111321 2.73539e-05)
(0.000167612 0.000126411 2.73539e-05)
(0.000155957 0.000140538 2.73539e-05)
(0.000143115 0.000153596 2.73539e-05)
(0.000129184 0.000165485 2.73539e-05)
(0.000114269 0.000176114 2.73538e-05)
(9.8485e-05 0.000185403 2.73538e-05)
(8.1951e-05 0.000193281 2.73538e-05)
(6.47937e-05 0.000199688 2.73539e-05)
(4.71434e-05 0.000204575 2.73539e-05)
(2.91337e-05 0.000207906 2.73538e-05)
(1.09027e-05 0.000209654 2.73538e-05)
(-7.41104e-06 0.000209806 2.73539e-05)
(-2.56688e-05 0.000208362 2.73538e-05)
(-4.37312e-05 0.000205332 2.73538e-05)
(-6.14607e-05 0.000200739 2.73538e-05)
(-7.87224e-05 0.000194619 2.73538e-05)
(-9.53849e-05 0.000187017 2.73538e-05)
(-0.000111321 0.000177992 2.73539e-05)
(-0.000126411 0.000167612 2.73539e-05)
(-0.000140538 0.000155957 2.73539e-05)
(-0.000153596 0.000143115 2.73539e-05)
(-0.000165485 0.000129184 2.73539e-05)
(-0.000176114 0.000114269 2.73538e-05)
(-0.000185403 9.8485e-05 2.73538e-05)
(-0.000193281 8.1951e-05 2.73538e-05)
(-0.000199688 6.47937e-05 2.73539e-05)
(-0.000204575 4.71434e-05 2.73539e-05)
(-0.000207906 2.91337e-05 2.73538e-05)
(-0.000209654 1.09027e-05 2.73538e-05)
(-0.000209806 -7.41104e-06 2.73539e-05)
(-0.000208362 -2.56688e-05 2.73538e-05)
(-0.000205332 -4.37312e-05 2.73538e-05)
(-0.000200739 -6.14607e-05 2.73538e-05)
(-0.000194619 -7.87224e-05 2.73538e-05)
(-0.000187017 -9.53849e-05 2.73538e-05)
(-0.000177992 -0.000111321 2.73539e-05)
(-0.000167612 -0.000126411 2.73539e-05)
(-0.000155957 -0.000140538 2.73539e-05)
(-0.000143115 -0.000153596 2.73539e-05)
(-0.000129184 -0.000165485 2.73539e-05)
(-0.000114269 -0.000176114 2.73538e-05)
(-9.8485e-05 -0.000185403 2.73538e-05)
(-8.1951e-05 -0.000193281 2.73538e-05)
(-6.47937e-05 -0.000199688 2.73539e-05)
(-4.71434e-05 -0.000204575 2.73539e-05)
(-2.91337e-05 -0.000207906 2.73538e-05)
(-1.09027e-05 -0.000209654 2.73538e-05)
(7.41104e-06 -0.000209806 2.73539e-05)
(2.56688e-05 -0.000208362 2.73538e-05)
(4.37312e-05 -0.000205332 2.73538e-05)
(6.14607e-05 -0.000200739 2.73538e-05)
(0 0 0)
(0 0 0)
(0 0 0)
(0 0 0)
(0 0 0)
(0 0 0)
(0 0 0)
(0 0 0)
(0 0 0)
(0 0 0)
(0 0 0)
(0 0 0)
(0 0 0)
(0 0 0)
(0 0 0)
(0 0 0)
(0 0 0)
(0 0 0)
(0 0 0)
(0 0 0)
(0 0 0)
(0 0 0)
(0 0 0)
(0 0 0)
(0 0 0)
(0 0 0)
(0 0 0)
(0 0 0)
(0 0 0)
(0 0 0)
(0 0 0)
(0 0 0)
(0 0 0)
(0 0 0)
(0 0 0)
(0 0 0)
(0 0 0)
(0 0 0)
(0 0 0)
(0 0 0)
(0 0 0)
(0 0 0)
(0 0 0)
(0 0 0)
(0 0 0)
(0 0 0)
(0 0 0)
(0 0 0)
(0 0 0)
(0 0 0)
(0 0 0)
(0 0 0)
(0 0 0)
(0 0 0)
(0 0 0)
(0 0 0)
(0 0 0)
(0 0 0)
(0 0 0)
(0 0 0)
(0 0 0)
(0 0 0)
(0 0 0)
(0 0 0)
(0 0 0)
(0 0 0)
(0 0 0)
(0 0 0)
(0 0 0)
(0 0 0)
(0 0 0)
(0 0 0)
(5.77647e-05 -0.000199511 3.07386e-05)
(7.49334e-05 -0.000193717 3.07387e-05)
(9.15319e-05 -0.000186449 3.07387e-05)
(0.000107434 -0.000177762 3.07387e-05)
(0.000122518 -0.000167722 3.07386e-05)
(0.00013667 -0.000156406 3.07386e-05)
(0.000149781 -0.000143899 3.07386e-05)
(0.000161753 -0.000130297 3.07386e-05)
(0.000172493 -0.000115704 3.07386e-05)
(0.000181921 -0.000100229 3.07386e-05)
(0.000189965 -8.39925e-05 3.07386e-05)
(0.000196562 -6.71162e-05 3.07386e-05)
(0.000201664 -4.97294e-05 3.07385e-05)
(0.00020523 -3.1964e-05 3.07385e-05)
(0.000207235 -1.39554e-05 3.07386e-05)
(0.000207663 4.15922e-06 3.07386e-05)
(0.00020651 2.22424e-05 3.07386e-05)
(0.000203786 4.01567e-05 3.07386e-05)
(0.000199511 5.77647e-05 3.07386e-05)
(0.000193717 7.49334e-05 3.07387e-05)
(0.000186449 9.15319e-05 3.07387e-05)
(0.000177762 0.000107434 3.07387e-05)
(0.000167722 0.000122518 3.07386e-05)
(0.000156406 0.00013667 3.07386e-05)
(0.000143899 0.000149781 3.07386e-05)
(0.000130297 0.000161753 3.07386e-05)
(0.000115704 0.000172493 3.07386e-05)
(0.000100229 0.000181921 3.07386e-05)
(8.39925e-05 0.000189965 3.07386e-05)
(6.71162e-05 0.000196562 3.07386e-05)
(4.97294e-05 0.000201664 3.07385e-05)
(3.1964e-05 0.00020523 3.07385e-05)
(1.39554e-05 0.000207235 3.07386e-05)
(-4.15921e-06 0.000207663 3.07386e-05)
(-2.22424e-05 0.00020651 3.07386e-05)
(-4.01567e-05 0.000203786 3.07386e-05)
(-5.77647e-05 0.000199511 3.07386e-05)
(-7.49334e-05 0.000193717 3.07387e-05)
(-9.15319e-05 0.000186449 3.07387e-05)
(-0.000107434 0.000177762 3.07387e-05)
(-0.000122518 0.000167722 3.07386e-05)
(-0.00013667 0.000156406 3.07386e-05)
(-0.000149781 0.000143899 3.07386e-05)
(-0.000161753 0.000130297 3.07386e-05)
(-0.000172493 0.000115704 3.07386e-05)
(-0.000181921 0.000100229 3.07386e-05)
(-0.000189965 8.39925e-05 3.07386e-05)
(-0.000196562 6.71162e-05 3.07386e-05)
(-0.000201664 4.97294e-05 3.07385e-05)
(-0.00020523 3.1964e-05 3.07385e-05)
(-0.000207235 1.39554e-05 3.07386e-05)
(-0.000207663 -4.15921e-06 3.07386e-05)
(-0.00020651 -2.22424e-05 3.07386e-05)
(-0.000203786 -4.01567e-05 3.07386e-05)
(-0.000199511 -5.77647e-05 3.07386e-05)
(-0.000193717 -7.49334e-05 3.07387e-05)
(-0.000186449 -9.15319e-05 3.07387e-05)
(-0.000177762 -0.000107434 3.07387e-05)
(-0.000167722 -0.000122518 3.07386e-05)
(-0.000156406 -0.00013667 3.07386e-05)
(-0.000143899 -0.000149781 3.07386e-05)
(-0.000130297 -0.000161753 3.07386e-05)
(-0.000115704 -0.000172493 3.07386e-05)
(-0.000100229 -0.000181921 3.07386e-05)
(-8.39925e-05 -0.000189965 3.07386e-05)
(-6.71162e-05 -0.000196562 3.07386e-05)
(-4.97294e-05 -0.000201664 3.07385e-05)
(-3.1964e-05 -0.00020523 3.07385e-05)
(-1.39554e-05 -0.000207235 3.07386e-05)
(4.15921e-06 -0.000207663 3.07386e-05)
(2.22424e-05 -0.00020651 3.07386e-05)
(4.01567e-05 -0.000203786 3.07386e-05)
(0 0 0)
(0 0 0)
(0 0 0)
(0 0 0)
(0 0 0)
(0 0 0)
(0 0 0)
(0 0 0)
(0 0 0)
(0 0 0)
(0 0 0)
(0 0 0)
(0 0 0)
(0 0 0)
(0 0 0)
(0 0 0)
(0 0 0)
(0 0 0)
(0 0 0)
(0 0 0)
(0 0 0)
(0 0 0)
(0 0 0)
(0 0 0)
(0 0 0)
(0 0 0)
(0 0 0)
(0 0 0)
(0 0 0)
(0 0 0)
(0 0 0)
(0 0 0)
(0 0 0)
(0 0 0)
(0 0 0)
(0 0 0)
(0 0 0)
(0 0 0)
(0 0 0)
(0 0 0)
(0 0 0)
(0 0 0)
(0 0 0)
(0 0 0)
(0 0 0)
(0 0 0)
(0 0 0)
(0 0 0)
(0 0 0)
(0 0 0)
(0 0 0)
(0 0 0)
(0 0 0)
(0 0 0)
(0 0 0)
(0 0 0)
(0 0 0)
(0 0 0)
(0 0 0)
(0 0 0)
(0 0 0)
(0 0 0)
(0 0 0)
(0 0 0)
(0 0 0)
(0 0 0)
(0 0 0)
(0 0 0)
(0 0 0)
(0 0 0)
(0 0 0)
(0 0 0)
(3.43799e-05 -0.000203918 3.42922e-05)
(5.20217e-05 -0.000200145 3.42922e-05)
(6.92676e-05 -0.00019485 3.42922e-05)
(8.59861e-05 -0.000188071 3.42922e-05)
(0.000102051 -0.000179861 3.42921e-05)
(0.000117338 -0.000170283 3.42921e-05)
(0.000131733 -0.000159408 3.42921e-05)
(0.000145125 -0.00014732 3.42921e-05)
(0.000157412 -0.000134111 3.42922e-05)
(0.000168502 -0.000119881 3.42921e-05)
(0.000178309 -0.000104739 3.42921e-05)
(0.000186759 -8.88001e-05 3.42921e-05)
(0.000193788 -7.21849e-05 3.42919e-05)
(0.000199342 -5.5021e-05 3.4292e-05)
(0.000203379 -3.74376e-05 3.42921e-05)
(0.000205868 -1.95694e-05 3.42921e-05)
(0.00020679 -1.55227e-06 3.42922e-05)
(0.000206138 1.64762e-05 3.42922e-05)
(0.000203918 3.43799e-05 3.42922e-05)
(0.000200145 5.20217e-05 3.42922e-05)
(0.00019485 6.92676e-05 3.42922e-05)
(0.000188071 8.59861e-05 3.42922e-05)
(0.000179861 0.000102051 3.42921e-05)
(0.000170283 0.000117338 3.42921e-05)
(0.000159408 0.000131733 3.42921e-05)
(0.00014732 0.000145125 3.42921e-05)
(0.000134111 0.000157412 3.42922e-05)
(0.000119881 0.000168502 3.42921e-05)
(0.000104739 0.000178309 3.42921e-05)
(8.88001e-05 0.000186759 3.42921e-05)
(7.21849e-05 0.000193788 3.42919e-05)
(5.5021e-05 0.000199342 3.4292e-05)
(3.74376e-05 0.000203379 3.42921e-05)
(1.95694e-05 0.000205868 3.42921e-05)
(1.55227e-06 0.00020679 3.42922e-05)
(-1.64762e-05 0.000206138 3.42922e-05)
(-3.43799e-05 0.000203918 3.42922e-05)
(-5.20217e-05 0.000200145 3.42922e-05)
(-6.92676e-05 0.00019485 3.42922e-05)
(-8.59861e-05 0.000188071 3.42922e-05)
(-0.000102051 0.000179861 3.42921e-05)
(-0.000117338 0.000170283 3.42921e-05)
(-0.000131733 0.000159408 3.42921e-05)
(-0.000145125 0.00014732 3.42921e-05)
(-0.000157412 0.000134111 3.42922e-05)
(-0.000168502 0.000119881 3.42921e-05)
(-0.000178309 0.000104739 3.42921e-05)
(-0.000186759 8.88001e-05 3.42921e-05)
(-0.000193788 7.21849e-05 3.42919e-05)
(-0.000199342 5.5021e-05 3.4292e-05)
(-0.000203379 3.74376e-05 3.42921e-05)
(-0.000205868 1.95694e-05 3.42921e-05)
(-0.00020679 1.55227e-06 3.42922e-05)
(-0.000206138 -1.64762e-05 3.42922e-05)
(-0.000203918 -3.43799e-05 3.42922e-05)
(-0.000200145 -5.20217e-05 3.42922e-05)
(-0.00019485 -6.92676e-05 3.42922e-05)
(-0.000188071 -8.59861e-05 3.42922e-05)
(-0.000179861 -0.000102051 3.42921e-05)
(-0.000170283 -0.000117338 3.42921e-05)
(-0.000159408 -0.000131733 3.42921e-05)
(-0.00014732 -0.000145125 3.42921e-05)
(-0.000134111 -0.000157412 3.42922e-05)
(-0.000119881 -0.000168502 3.42921e-05)
(-0.000104739 -0.000178309 3.42921e-05)
(-8.88001e-05 -0.000186759 3.42921e-05)
(-7.21849e-05 -0.000193788 3.42919e-05)
(-5.5021e-05 -0.000199342 3.4292e-05)
(-3.74376e-05 -0.000203379 3.42921e-05)
(-1.95694e-05 -0.000205868 3.42921e-05)
(-1.55227e-06 -0.00020679 3.42922e-05)
(1.64762e-05 -0.000206138 3.42922e-05)
(0 0 0)
(0 0 0)
(0 0 0)
(0 0 0)
(0 0 0)
(0 0 0)
(0 0 0)
(0 0 0)
(0 0 0)
(0 0 0)
(0 0 0)
(0 0 0)
(0 0 0)
(0 0 0)
(0 0 0)
(0 0 0)
(0 0 0)
(0 0 0)
(0 0 0)
(0 0 0)
(0 0 0)
(0 0 0)
(0 0 0)
(0 0 0)
(0 0 0)
(0 0 0)
(0 0 0)
(0 0 0)
(0 0 0)
(0 0 0)
(0 0 0)
(0 0 0)
(0 0 0)
(0 0 0)
(0 0 0)
(0 0 0)
(0 0 0)
(0 0 0)
(0 0 0)
(0 0 0)
(0 0 0)
(0 0 0)
(0 0 0)
(0 0 0)
(0 0 0)
(0 0 0)
(0 0 0)
(0 0 0)
(0 0 0)
(0 0 0)
(0 0 0)
(0 0 0)
(0 0 0)
(0 0 0)
(0 0 0)
(0 0 0)
(0 0 0)
(0 0 0)
(0 0 0)
(0 0 0)
(0 0 0)
(0 0 0)
(0 0 0)
(0 0 0)
(0 0 0)
(0 0 0)
(0 0 0)
(0 0 0)
(0 0 0)
(0 0 0)
(0 0 0)
(0 0 0)
(0.000248197 -0.000338056 4.7709e-05)
(0.000276716 -0.000315137 4.77089e-05)
(0.000303129 -0.000289821 4.7709e-05)
(0.000327235 -0.000262299 4.7709e-05)
(0.000348851 -0.00023278 4.77088e-05)
(0.000367812 -0.00020149 4.77089e-05)
(0.000383973 -0.000168667 4.7709e-05)
(0.000397212 -0.000134559 4.77088e-05)
(0.000407428 -9.94276e-05 4.77088e-05)
(0.000414543 -6.35395e-05 4.77089e-05)
(0.000418504 -2.71683e-05 4.77091e-05)
(0.000419279 9.41014e-06 4.7709e-05)
(0.000416863 4.59172e-05 4.77091e-05)
(0.000411275 8.20743e-05 4.77092e-05)
(0.000402557 0.000117607 4.77091e-05)
(0.000390775 0.000152245 4.77089e-05)
(0.000376019 0.000185724 4.7709e-05)
(0.000358401 0.000217789 4.77089e-05)
(0.000338056 0.000248197 4.7709e-05)
(0.000315137 0.000276716 4.77089e-05)
(0.000289821 0.000303129 4.7709e-05)
(0.000262299 0.000327235 4.7709e-05)
(0.00023278 0.000348851 4.77088e-05)
(0.00020149 0.000367812 4.77089e-05)
(0.000168667 0.000383973 4.7709e-05)
(0.000134559 0.000397212 4.77088e-05)
(9.94276e-05 0.000407428 4.77088e-05)
(6.35395e-05 0.000414543 4.77089e-05)
(2.71683e-05 0.000418504 4.77091e-05)
(-9.41014e-06 0.000419279 4.7709e-05)
(-4.59172e-05 0.000416863 4.77091e-05)
(-8.20743e-05 0.000411275 4.77092e-05)
(-0.000117607 0.000402557 4.77091e-05)
(-0.000152245 0.000390775 4.77089e-05)
(-0.000185724 0.000376019 4.7709e-05)
(-0.000217789 0.000358401 4.77089e-05)
(-0.000248197 0.000338056 4.7709e-05)
(-0.000276716 0.000315137 4.77089e-05)
(-0.000303129 0.000289821 4.7709e-05)
(-0.000327235 0.000262299 4.7709e-05)
(-0.000348851 0.00023278 4.77088e-05)
(-0.000367812 0.00020149 4.77089e-05)
(-0.000383973 0.000168667 4.7709e-05)
(-0.000397212 0.000134559 4.77088e-05)
(-0.000407428 9.94276e-05 4.77088e-05)
(-0.000414543 6.35395e-05 4.77089e-05)
(-0.000418504 2.71683e-05 4.77091e-05)
(-0.000419279 -9.41014e-06 4.7709e-05)
(-0.000416863 -4.59172e-05 4.77091e-05)
(-0.000411275 -8.20743e-05 4.77092e-05)
(-0.000402557 -0.000117607 4.77091e-05)
(-0.000390775 -0.000152245 4.77089e-05)
(-0.000376019 -0.000185724 4.7709e-05)
(-0.000358401 -0.000217789 4.77089e-05)
(-0.000338056 -0.000248197 4.7709e-05)
(-0.000315137 -0.000276716 4.77089e-05)
(-0.000289821 -0.000303129 4.7709e-05)
(-0.000262299 -0.000327235 4.7709e-05)
(-0.00023278 -0.000348851 4.77088e-05)
(-0.00020149 -0.000367812 4.77089e-05)
(-0.000168667 -0.000383973 4.7709e-05)
(-0.000134559 -0.000397212 4.77088e-05)
(-9.94276e-05 -0.000407428 4.77088e-05)
(-6.35395e-05 -0.000414543 4.77089e-05)
(-2.71683e-05 -0.000418504 4.77091e-05)
(9.41014e-06 -0.000419279 4.7709e-05)
(4.59172e-05 -0.000416863 4.77091e-05)
(8.20743e-05 -0.000411275 4.77092e-05)
(0.000117607 -0.000402557 4.77091e-05)
(0.000152245 -0.000390775 4.77089e-05)
(0.000185724 -0.000376019 4.7709e-05)
(0.000217789 -0.000358401 4.77089e-05)
(0.000230069 -0.000350849 5.83993e-05)
(0.000259772 -0.000329462 5.83993e-05)
(0.000287498 -0.000305567 5.83993e-05)
(0.000313035 -0.000279348 5.83993e-05)
(0.000336191 -0.000251002 5.83994e-05)
(0.000356788 -0.000220746 5.83992e-05)
(0.00037467 -0.00018881 5.83993e-05)
(0.0003897 -0.000155436 5.83992e-05)
(0.000401764 -0.000120881 5.83994e-05)
(0.000410771 -8.54042e-05 5.83993e-05)
(0.000416651 -4.92782e-05 5.83994e-05)
(0.00041936 -1.2777e-05 5.83993e-05)
(0.000418878 2.38208e-05 5.83995e-05)
(0.000415208 6.02383e-05 5.83995e-05)
(0.000408378 9.61965e-05 5.83995e-05)
(0.00039844 0.000131423 5.83994e-05)
(0.000385469 0.000165649 5.83993e-05)
(0.000369565 0.000198615 5.83993e-05)
(0.000350849 0.000230069 5.83993e-05)
(0.000329462 0.000259772 5.83993e-05)
(0.000305567 0.000287498 5.83993e-05)
(0.000279348 0.000313036 5.83993e-05)
(0.000251002 0.000336191 5.83994e-05)
(0.000220746 0.000356788 5.83992e-05)
(0.00018881 0.00037467 5.83993e-05)
(0.000155436 0.0003897 5.83992e-05)
(0.000120881 0.000401764 5.83994e-05)
(8.54042e-05 0.000410771 5.83993e-05)
(4.92782e-05 0.000416651 5.83994e-05)
(1.2777e-05 0.00041936 5.83993e-05)
(-2.38208e-05 0.000418878 5.83995e-05)
(-6.02383e-05 0.000415208 5.83995e-05)
(-9.61964e-05 0.000408378 5.83995e-05)
(-0.000131423 0.00039844 5.83994e-05)
(-0.000165649 0.000385469 5.83993e-05)
(-0.000198615 0.000369565 5.83993e-05)
(-0.000230069 0.000350849 5.83993e-05)
(-0.000259772 0.000329462 5.83993e-05)
(-0.000287498 0.000305567 5.83993e-05)
(-0.000313036 0.000279348 5.83993e-05)
(-0.000336191 0.000251002 5.83994e-05)
(-0.000356788 0.000220746 5.83992e-05)
(-0.00037467 0.00018881 5.83993e-05)
(-0.0003897 0.000155436 5.83992e-05)
(-0.000401764 0.000120881 5.83994e-05)
(-0.000410771 8.54042e-05 5.83993e-05)
(-0.000416651 4.92782e-05 5.83994e-05)
(-0.00041936 1.2777e-05 5.83993e-05)
(-0.000418878 -2.38208e-05 5.83995e-05)
(-0.000415208 -6.02383e-05 5.83995e-05)
(-0.000408378 -9.61964e-05 5.83995e-05)
(-0.00039844 -0.000131423 5.83994e-05)
(-0.000385469 -0.000165649 5.83993e-05)
(-0.000369565 -0.000198615 5.83993e-05)
(-0.000350849 -0.000230069 5.83993e-05)
(-0.000329462 -0.000259772 5.83993e-05)
(-0.000305567 -0.000287498 5.83993e-05)
(-0.000279348 -0.000313035 5.83993e-05)
(-0.000251002 -0.000336191 5.83994e-05)
(-0.000220746 -0.000356788 5.83992e-05)
(-0.00018881 -0.00037467 5.83993e-05)
(-0.000155436 -0.0003897 5.83992e-05)
(-0.000120881 -0.000401764 5.83994e-05)
(-8.54042e-05 -0.000410771 5.83993e-05)
(-4.92782e-05 -0.000416651 5.83994e-05)
(-1.2777e-05 -0.00041936 5.83993e-05)
(2.38208e-05 -0.000418878 5.83995e-05)
(6.02383e-05 -0.000415208 5.83995e-05)
(9.61964e-05 -0.000408378 5.83995e-05)
(0.000131423 -0.00039844 5.83994e-05)
(0.000165649 -0.000385469 5.83993e-05)