/*--------------------------------*- C++ -*----------------------------------*\
| =========                 |                                                 |
| \\      /  F ield         | OpenFOAM: The Open Source CFD Toolbox           |
|  \\    /   O peration     | Version:  2312                                  |
|   \\  /    A nd           | Website:  www.openfoam.com                      |
|    \\/     M anipulation  |                                                 |
\*---------------------------------------------------------------------------*/
FoamFile
{
    version     2.0;
    format      ascii;
    arch        "LSB;label=32;scalar=64";
    class       volSymmTensorField;
    location    "0.2";
    object      sigma;
}
// * * * * * * * * * * * * * * * * * * * * * * * * * * * * * * * * * * * * * //

dimensions      [1 -1 -2 0 0 0 0];

internalField   nonuniform List<symmTensor> 
12960
(
(-3881.9 252.407 -1497.66 -3053.22 -2641.38 6244.91)
(-3919.41 176.625 -1261.74 -3015.62 -2761.9 6244.91)
(-3943.25 95.4712 -1016.26 -2991.92 -2861.26 6244.96)
(-3952.59 11.421 -763.004 -2982.55 -2938.96 6244.94)
(-3947.22 -72.9771 -503.948 -2987.93 -2994.29 6244.92)
(-3927.22 -155.169 -241.025 -3007.82 -3026.87 6244.91)
(-3893.29 -232.622 23.6584 -3041.78 -3036.31 6244.97)
(-3846.43 -303.015 288.188 -3088.65 -3022.68 6244.99)
(-3788.01 -364.241 550.624 -3146.94 -2986.14 6244.92)
(-3719.88 -414.368 808.79 -3215.05 -2926.79 6244.92)
(-3644.18 -451.861 1060.69 -3290.94 -2845.09 6244.97)
(-3563.01 -475.673 1304.64 -3372.07 -2741.83 6244.97)
(-3478.94 -485.051 1538.71 -3456.11 -2617.72 6244.9)
(-3394.62 -479.641 1760.94 -3540.57 -2473.63 6244.9)
(-3312.45 -459.678 1969.82 -3622.75 -2310.74 6244.91)
(-3234.95 -425.747 2163.69 -3700.17 -2130.27 6244.98)
(-3164.49 -378.907 2341.23 -3770.57 -1933.58 6244.9)
(-3103.34 -320.522 2500.8 -3831.78 -1722.17 6244.91)
(-3053.22 -252.407 2641.38 -3881.9 -1497.66 6244.91)
(-3015.62 -176.625 2761.9 -3919.41 -1261.74 6244.91)
(-2991.92 -95.4712 2861.26 -3943.25 -1016.26 6244.96)
(-2982.55 -11.421 2938.96 -3952.59 -763.004 6244.94)
(-2987.93 72.9771 2994.29 -3947.22 -503.948 6244.92)
(-3007.82 155.169 3026.87 -3927.22 -241.025 6244.91)
(-3041.78 232.622 3036.31 -3893.29 23.6584 6244.97)
(-3088.65 303.015 3022.68 -3846.43 288.188 6244.99)
(-3146.94 364.241 2986.14 -3788.01 550.624 6244.92)
(-3215.05 414.368 2926.79 -3719.88 808.79 6244.92)
(-3290.94 451.861 2845.09 -3644.18 1060.69 6244.97)
(-3372.07 475.673 2741.83 -3563.01 1304.64 6244.97)
(-3456.11 485.051 2617.72 -3478.94 1538.71 6244.9)
(-3540.57 479.641 2473.63 -3394.62 1760.94 6244.9)
(-3622.75 459.678 2310.74 -3312.45 1969.82 6244.91)
(-3700.17 425.747 2130.27 -3234.95 2163.69 6244.98)
(-3770.57 378.907 1933.58 -3164.49 2341.23 6244.9)
(-3831.78 320.522 1722.17 -3103.34 2500.8 6244.91)
(-3881.9 252.407 1497.66 -3053.22 2641.38 6244.91)
(-3919.41 176.625 1261.74 -3015.62 2761.9 6244.91)
(-3943.25 95.4712 1016.26 -2991.92 2861.26 6244.96)
(-3952.59 11.421 763.004 -2982.55 2938.96 6244.94)
(-3947.22 -72.9771 503.948 -2987.93 2994.29 6244.92)
(-3927.22 -155.169 241.025 -3007.82 3026.87 6244.91)
(-3893.29 -232.622 -23.6584 -3041.78 3036.31 6244.97)
(-3846.43 -303.015 -288.188 -3088.65 3022.68 6244.99)
(-3788.01 -364.241 -550.624 -3146.94 2986.14 6244.92)
(-3719.88 -414.368 -808.79 -3215.05 2926.79 6244.92)
(-3644.18 -451.861 -1060.69 -3290.94 2845.09 6244.97)
(-3563.01 -475.673 -1304.64 -3372.07 2741.83 6244.97)
(-3478.94 -485.051 -1538.71 -3456.11 2617.72 6244.9)
(-3394.62 -479.641 -1760.94 -3540.57 2473.63 6244.9)
(-3312.45 -459.678 -1969.82 -3622.75 2310.74 6244.91)
(-3234.95 -425.747 -2163.69 -3700.17 2130.27 6244.98)
(-3164.49 -378.907 -2341.23 -3770.57 1933.58 6244.9)
(-3103.34 -320.522 -2500.8 -3831.78 1722.17 6244.91)
(-3053.22 -252.407 -2641.38 -3881.9 1497.66 6244.91)
(-3015.62 -176.625 -2761.9 -3919.41 1261.74 6244.91)
(-2991.92 -95.4712 -2861.26 -3943.25 1016.26 6244.96)
(-2982.55 -11.421 -2938.96 -3952.59 763.004 6244.94)
(-2987.93 72.9771 -2994.29 -3947.22 503.948 6244.92)
(-3007.82 155.169 -3026.87 -3927.22 241.025 6244.91)
(-3041.78 232.622 -3036.31 -3893.29 -23.6584 6244.97)
(-3088.65 303.015 -3022.68 -3846.43 -288.188 6244.99)
(-3146.94 364.241 -2986.14 -3788.01 -550.624 6244.92)
(-3215.05 414.368 -2926.79 -3719.88 -808.79 6244.92)
(-3290.94 451.861 -2845.09 -3644.18 -1060.69 6244.97)
(-3372.07 475.673 -2741.83 -3563.01 -1304.64 6244.97)
(-3456.11 485.051 -2617.72 -3478.94 -1538.71 6244.9)
(-3540.57 479.641 -2473.63 -3394.62 -1760.94 6244.9)
(-3622.75 459.678 -2310.74 -3312.45 -1969.82 6244.91)
(-3700.17 425.747 -2130.27 -3234.95 -2163.69 6244.98)
(-3770.57 378.907 -1933.58 -3164.49 -2341.23 6244.9)
(-3831.78 320.522 -1722.17 -3103.34 -2500.8 6244.91)
(-9808.59 439.945 -754.426 -4788.14 -5080.68 -4084.84)
(-9846.81 -2.63554 -308.743 -4749.83 -5127.1 -4084.81)
(-9807.65 -445.128 139.282 -4789.07 -5134.5 -4084.78)
(-9692.29 -874.101 586.252 -4904.52 -5102.82 -4084.84)
(-9504.07 -1276.52 1028.76 -5092.6 -5032.31 -4084.8)
(-9248.92 -1640.16 1463.45 -5347.79 -4923.5 -4084.85)
(-8934.52 -1953.94 1886.98 -5662.28 -4777.21 -4084.86)
(-8570.34 -2208.36 2296.17 -6026.44 -4594.57 -4084.83)
(-8167.51 -2395.72 2687.89 -6429.19 -4376.96 -4084.9)
(-7738.29 -2510.25 3059.13 -6858.4 -4126.04 -4084.9)
(-7295.77 -2548.47 3407.09 -7301.03 -3843.73 -4084.84)
(-6853.26 -2509.31 3729.13 -7743.53 -3532.14 -4084.87)
(-6424.29 -2393.9 4022.79 -8172.51 -3193.69 -4084.91)
(-6021.82 -2205.73 4285.83 -8574.86 -2830.93 -4084.8)
(-5658.26 -1950.56 4516.25 -8938.55 -2446.63 -4084.86)
(-5344.46 -1636.11 4712.3 -9252.33 -2043.7 -4084.82)
(-5089.95 -1271.96 4872.49 -9506.71 -1625.21 -4084.83)
(-4902.66 -869.156 4995.6 -9694.05 -1194.36 -4084.83)
(-4788.14 -439.945 5080.68 -9808.59 -754.426 -4084.84)
(-4749.83 2.63554 5127.1 -9846.81 -308.743 -4084.81)
(-4789.07 445.128 5134.5 -9807.65 139.282 -4084.78)
(-4904.52 874.101 5102.82 -9692.29 586.252 -4084.84)
(-5092.6 1276.52 5032.31 -9504.07 1028.76 -4084.8)
(-5347.79 1640.16 4923.5 -9248.92 1463.45 -4084.85)
(-5662.28 1953.94 4777.21 -8934.52 1886.98 -4084.86)
(-6026.44 2208.36 4594.57 -8570.34 2296.17 -4084.83)
(-6429.19 2395.72 4376.96 -8167.51 2687.89 -4084.9)
(-6858.4 2510.25 4126.04 -7738.29 3059.13 -4084.9)
(-7301.03 2548.47 3843.73 -7295.77 3407.09 -4084.84)
(-7743.53 2509.31 3532.14 -6853.26 3729.13 -4084.87)
(-8172.51 2393.9 3193.69 -6424.29 4022.79 -4084.91)
(-8574.86 2205.73 2830.93 -6021.82 4285.83 -4084.8)
(-8938.55 1950.56 2446.63 -5658.26 4516.25 -4084.86)
(-9252.33 1636.11 2043.7 -5344.46 4712.3 -4084.82)
(-9506.71 1271.96 1625.21 -5089.95 4872.49 -4084.83)
(-9694.05 869.156 1194.36 -4902.66 4995.6 -4084.83)
(-9808.59 439.945 754.426 -4788.14 5080.68 -4084.84)
(-9846.81 -2.63554 308.743 -4749.83 5127.1 -4084.81)
(-9807.65 -445.128 -139.282 -4789.07 5134.5 -4084.78)
(-9692.29 -874.101 -586.252 -4904.52 5102.82 -4084.84)
(-9504.07 -1276.52 -1028.76 -5092.6 5032.31 -4084.8)
(-9248.92 -1640.16 -1463.45 -5347.79 4923.5 -4084.85)
(-8934.52 -1953.94 -1886.98 -5662.28 4777.21 -4084.86)
(-8570.34 -2208.36 -2296.17 -6026.44 4594.57 -4084.83)
(-8167.51 -2395.72 -2687.89 -6429.19 4376.96 -4084.9)
(-7738.29 -2510.25 -3059.13 -6858.4 4126.04 -4084.9)
(-7295.77 -2548.47 -3407.09 -7301.03 3843.73 -4084.84)
(-6853.26 -2509.31 -3729.13 -7743.53 3532.14 -4084.87)
(-6424.29 -2393.9 -4022.79 -8172.51 3193.69 -4084.91)
(-6021.82 -2205.73 -4285.83 -8574.86 2830.93 -4084.8)
(-5658.26 -1950.56 -4516.25 -8938.55 2446.63 -4084.86)
(-5344.46 -1636.11 -4712.3 -9252.33 2043.7 -4084.82)
(-5089.95 -1271.96 -4872.49 -9506.71 1625.21 -4084.83)
(-4902.66 -869.156 -4995.6 -9694.05 1194.36 -4084.83)
(-4788.14 -439.945 -5080.68 -9808.59 754.426 -4084.84)
(-4749.83 2.63554 -5127.1 -9846.81 308.743 -4084.81)
(-4789.07 445.128 -5134.5 -9807.65 -139.282 -4084.78)
(-4904.52 874.101 -5102.82 -9692.29 -586.252 -4084.84)
(-5092.6 1276.52 -5032.31 -9504.07 -1028.76 -4084.8)
(-5347.79 1640.16 -4923.5 -9248.92 -1463.45 -4084.85)
(-5662.28 1953.94 -4777.21 -8934.52 -1886.98 -4084.86)
(-6026.44 2208.36 -4594.57 -8570.34 -2296.17 -4084.83)
(-6429.19 2395.72 -4376.96 -8167.51 -2687.89 -4084.9)
(-6858.4 2510.25 -4126.04 -7738.29 -3059.13 -4084.9)
(-7301.03 2548.47 -3843.73 -7295.77 -3407.09 -4084.84)
(-7743.53 2509.31 -3532.14 -6853.26 -3729.13 -4084.87)
(-8172.51 2393.9 -3193.69 -6424.29 -4022.79 -4084.91)
(-8574.86 2205.73 -2830.93 -6021.82 -4285.83 -4084.8)
(-8938.55 1950.56 -2446.63 -5658.26 -4516.25 -4084.86)
(-9252.33 1636.11 -2043.7 -5344.46 -4712.3 -4084.82)
(-9506.71 1271.96 -1625.21 -5089.95 -4872.49 -4084.83)
(-9694.05 869.156 -1194.36 -4902.66 -4995.6 -4084.83)
(-13690.9 27.3105 -190.413 -3462.78 -3184.78 -12623.6)
(-13618 -861.154 87.8837 -3535.73 -3189.25 -12623.6)
(-13391.8 -1723.45 365.513 -3761.88 -3169.47 -12623.6)
(-13019.4 -2533.38 640.359 -4134.3 -3125.54 -12623.6)
(-12512 -3266.34 910.328 -4641.73 -3057.83 -12623.6)
(-11885 -3900.05 1173.37 -5268.67 -2966.85 -12623.6)
(-11157.5 -4415.26 1427.48 -5996.16 -2853.29 -12623.6)
(-10351.6 -4796.31 1670.73 -6802.06 -2718.03 -12623.6)
(-9491.75 -5031.64 1901.25 -7661.88 -2562.05 -12623.6)
(-8604.13 -5114.08 2117.32 -8549.52 -2386.6 -12623.6)
(-7715.69 -5041.11 2317.28 -9438 -2193 -12623.6)
(-6853.4 -4814.99 2499.59 -10300.3 -1982.68 -12623.6)
(-6043.49 -4442.57 2662.88 -11110.3 -1757.28 -12623.6)
(-5310.53 -3935.15 2805.91 -11843.2 -1518.51 -12623.6)
(-4676.84 -3308.17 2927.59 -12476.9 -1268.19 -12623.6)
(-4161.62 -2580.68 3026.99 -12992.1 -1008.21 -12623.6)
(-3780.55 -1774.77 3103.32 -13373.2 -740.549 -12623.6)
(-3545.21 -914.942 3156.07 -13608.5 -467.26 -12623.6)
(-3462.78 -27.3105 3184.78 -13690.9 -190.413 -12623.6)
(-3535.73 861.154 3189.25 -13618 87.8837 -12623.6)
(-3761.88 1723.45 3169.47 -13391.8 365.513 -12623.6)
(-4134.3 2533.38 3125.54 -13019.4 640.359 -12623.6)
(-4641.73 3266.34 3057.83 -12512 910.328 -12623.6)
(-5268.67 3900.05 2966.85 -11885 1173.37 -12623.6)
(-5996.16 4415.26 2853.29 -11157.5 1427.48 -12623.6)
(-6802.06 4796.31 2718.03 -10351.6 1670.73 -12623.6)
(-7661.88 5031.64 2562.05 -9491.75 1901.25 -12623.6)
(-8549.52 5114.08 2386.6 -8604.13 2117.32 -12623.6)
(-9438 5041.11 2193 -7715.69 2317.28 -12623.6)
(-10300.3 4814.99 1982.68 -6853.4 2499.59 -12623.6)
(-11110.3 4442.57 1757.28 -6043.49 2662.88 -12623.6)
(-11843.2 3935.15 1518.51 -5310.53 2805.91 -12623.6)
(-12476.9 3308.17 1268.19 -4676.84 2927.59 -12623.6)
(-12992.1 2580.68 1008.21 -4161.62 3026.99 -12623.6)
(-13373.2 1774.77 740.549 -3780.55 3103.32 -12623.6)
(-13608.5 914.942 467.26 -3545.21 3156.07 -12623.6)
(-13690.9 27.3105 190.413 -3462.78 3184.78 -12623.6)
(-13618 -861.154 -87.8837 -3535.73 3189.25 -12623.6)
(-13391.8 -1723.45 -365.513 -3761.88 3169.47 -12623.6)
(-13019.4 -2533.38 -640.359 -4134.3 3125.54 -12623.6)
(-12512 -3266.34 -910.328 -4641.73 3057.83 -12623.6)
(-11885 -3900.05 -1173.37 -5268.67 2966.85 -12623.6)
(-11157.5 -4415.26 -1427.48 -5996.16 2853.29 -12623.6)
(-10351.6 -4796.31 -1670.73 -6802.06 2718.03 -12623.6)
(-9491.75 -5031.64 -1901.25 -7661.88 2562.05 -12623.6)
(-8604.13 -5114.08 -2117.32 -8549.52 2386.6 -12623.6)
(-7715.69 -5041.11 -2317.28 -9438 2193 -12623.6)
(-6853.4 -4814.99 -2499.59 -10300.3 1982.68 -12623.6)
(-6043.49 -4442.57 -2662.88 -11110.3 1757.28 -12623.6)
(-5310.53 -3935.15 -2805.91 -11843.2 1518.51 -12623.6)
(-4676.84 -3308.17 -2927.59 -12476.9 1268.19 -12623.6)
(-4161.62 -2580.68 -3026.99 -12992.1 1008.21 -12623.6)
(-3780.55 -1774.77 -3103.32 -13373.2 740.549 -12623.6)
(-3545.21 -914.942 -3156.07 -13608.5 467.26 -12623.6)
(-3462.78 -27.3105 -3184.78 -13690.9 190.413 -12623.6)
(-3535.73 861.154 -3189.25 -13618 -87.8837 -12623.6)
(-3761.88 1723.45 -3169.47 -13391.8 -365.513 -12623.6)
(-4134.3 2533.38 -3125.54 -13019.4 -640.359 -12623.6)
(-4641.73 3266.34 -3057.83 -12512 -910.328 -12623.6)
(-5268.67 3900.05 -2966.85 -11885 -1173.37 -12623.6)
(-5996.16 4415.26 -2853.29 -11157.5 -1427.48 -12623.6)
(-6802.06 4796.31 -2718.03 -10351.6 -1670.73 -12623.6)
(-7661.88 5031.64 -2562.05 -9491.75 -1901.25 -12623.6)
(-8549.52 5114.08 -2386.6 -8604.13 -2117.32 -12623.6)
(-9438 5041.11 -2193 -7715.69 -2317.28 -12623.6)
(-10300.3 4814.99 -1982.68 -6853.4 -2499.59 -12623.6)
(-11110.3 4442.57 -1757.28 -6043.49 -2662.88 -12623.6)
(-11843.2 3935.15 -1518.51 -5310.53 -2805.91 -12623.6)
(-12476.9 3308.17 -1268.19 -4676.84 -2927.59 -12623.6)
(-12992.1 2580.68 -1008.21 -4161.62 -3026.99 -12623.6)
(-13373.2 1774.77 -740.549 -3780.55 -3103.32 -12623.6)
(-13608.5 914.942 -467.26 -3545.21 -3156.07 -12623.6)
(-15939 -756.769 -276.357 -3691.97 2432.73 -15858.8)
(-15714.5 -1808.61 -487.333 -3916.4 2399.38 -15858.8)
(-15310.9 -2805.49 -694.598 -4320.11 2347.78 -15858.8)
(-14740.2 -3717.13 -896.577 -4890.74 2278.31 -15858.8)
(-14019.9 -4515.82 -1091.74 -5611.04 2191.51 -15858.8)
(-13171.9 -5177.31 -1278.6 -6459.12 2088.04 -15858.8)
(-12221.9 -5681.49 -1455.7 -7409.14 1968.63 -15858.8)
(-11198.7 -6013.04 -1621.75 -8432.28 1834.28 -15858.8)
(-10133.5 -6161.88 -1775.45 -9497.43 1685.96 -15858.8)
(-9058.7 -6123.5 -1915.64 -10572.2 1524.81 -15858.8)
(-8006.9 -5899.06 -2041.24 -11624.1 1352.04 -15858.8)
(-7010.01 -5495.37 -2151.3 -12621 1168.98 -15858.8)
(-6098.38 -4924.72 -2245.01 -13532.7 977.046 -15858.8)
(-5299.66 -4204.43 -2321.6 -14331.3 777.654 -15858.8)
(-4638.13 -3356.39 -2380.53 -14992.8 572.349 -15858.8)
(-4134.01 -2406.37 -2421.36 -15497 362.695 -15858.8)
(-3802.44 -1383.23 -2443.76 -15828.5 150.28 -15858.8)
(-3653.59 -318.062 -2447.56 -15977.4 -63.2798 -15858.8)
(-3691.97 756.769 -2432.73 -15939 -276.357 -15858.8)
(-3916.4 1808.61 -2399.38 -15714.5 -487.333 -15858.8)
(-4320.11 2805.49 -2347.78 -15310.9 -694.598 -15858.8)
(-4890.74 3717.13 -2278.31 -14740.2 -896.577 -15858.8)
(-5611.04 4515.82 -2191.51 -14019.9 -1091.74 -15858.8)
(-6459.12 5177.31 -2088.04 -13171.9 -1278.6 -15858.8)
(-7409.14 5681.49 -1968.63 -12221.9 -1455.7 -15858.8)
(-8432.28 6013.04 -1834.28 -11198.7 -1621.75 -15858.8)
(-9497.43 6161.88 -1685.96 -10133.5 -1775.45 -15858.8)
(-10572.2 6123.5 -1524.81 -9058.7 -1915.64 -15858.8)
(-11624.1 5899.06 -1352.04 -8006.9 -2041.24 -15858.8)
(-12621 5495.37 -1168.98 -7010.01 -2151.3 -15858.8)
(-13532.7 4924.72 -977.046 -6098.38 -2245.01 -15858.8)
(-14331.3 4204.43 -777.654 -5299.66 -2321.6 -15858.8)
(-14992.8 3356.39 -572.349 -4638.13 -2380.53 -15858.8)
(-15497 2406.37 -362.695 -4134.01 -2421.36 -15858.8)
(-15828.5 1383.23 -150.28 -3802.44 -2443.76 -15858.8)
(-15977.4 318.062 63.2798 -3653.59 -2447.56 -15858.8)
(-15939 -756.769 276.357 -3691.97 -2432.73 -15858.8)
(-15714.5 -1808.61 487.333 -3916.4 -2399.38 -15858.8)
(-15310.9 -2805.49 694.598 -4320.11 -2347.78 -15858.8)
(-14740.2 -3717.13 896.577 -4890.74 -2278.31 -15858.8)
(-14019.9 -4515.82 1091.74 -5611.04 -2191.51 -15858.8)
(-13171.9 -5177.31 1278.6 -6459.12 -2088.04 -15858.8)
(-12221.9 -5681.49 1455.7 -7409.14 -1968.63 -15858.8)
(-11198.7 -6013.04 1621.75 -8432.28 -1834.28 -15858.8)
(-10133.5 -6161.88 1775.45 -9497.43 -1685.96 -15858.8)
(-9058.7 -6123.5 1915.64 -10572.2 -1524.81 -15858.8)
(-8006.9 -5899.06 2041.24 -11624.1 -1352.04 -15858.8)
(-7010.01 -5495.37 2151.3 -12621 -1168.98 -15858.8)
(-6098.38 -4924.72 2245.01 -13532.7 -977.046 -15858.8)
(-5299.66 -4204.43 2321.6 -14331.3 -777.654 -15858.8)
(-4638.13 -3356.39 2380.53 -14992.8 -572.349 -15858.8)
(-4134.01 -2406.37 2421.36 -15497 -362.695 -15858.8)
(-3802.44 -1383.23 2443.76 -15828.5 -150.28 -15858.8)
(-3653.59 -318.062 2447.56 -15977.4 63.2798 -15858.8)
(-3691.97 756.769 2432.73 -15939 276.357 -15858.8)
(-3916.4 1808.61 2399.38 -15714.5 487.333 -15858.8)
(-4320.11 2805.49 2347.78 -15310.9 694.598 -15858.8)
(-4890.74 3717.13 2278.31 -14740.2 896.577 -15858.8)
(-5611.04 4515.82 2191.51 -14019.9 1091.74 -15858.8)
(-6459.12 5177.31 2088.04 -13171.9 1278.6 -15858.8)
(-7409.14 5681.49 1968.63 -12221.9 1455.7 -15858.8)
(-8432.28 6013.04 1834.28 -11198.7 1621.75 -15858.8)
(-9497.43 6161.88 1685.96 -10133.5 1775.45 -15858.8)
(-10572.2 6123.5 1524.81 -9058.7 1915.64 -15858.8)
(-11624.1 5899.06 1352.04 -8006.9 2041.24 -15858.8)
(-12621 5495.37 1168.98 -7010.01 2151.3 -15858.8)
(-13532.7 4924.72 977.046 -6098.38 2245.01 -15858.8)
(-14331.3 4204.43 777.654 -5299.66 2321.6 -15858.8)
(-14992.8 3356.39 572.349 -4638.13 2380.53 -15858.8)
(-15497 2406.37 362.695 -4134.01 2421.36 -15858.8)
(-15828.5 1383.23 150.28 -3802.44 2443.76 -15858.8)
(-15977.4 318.062 -63.2798 -3653.59 2447.56 -15858.8)
(-14174.2 -1175.64 -1043.45 -6070.33 6899.14 -9461.23)
(-13908.5 -1861.39 -1640.78 -6336.08 6781.94 -9461.25)
(-13527.7 -2490.58 -2225.62 -6716.77 6613.13 -9461.21)
(-13043.4 -3044.09 -2793.52 -7200.95 6393.99 -9461.17)
(-12470.4 -3505.11 -3340.17 -7773.92 6126.19 -9461.13)
(-11826.2 -3859.64 -3861.38 -8418.32 5811.76 -9461.26)
(-11130.1 -4096.88 -4353.22 -9114.42 5453.1 -9461.22)
(-10403.3 -4209.65 -4811.92 -9841.15 5052.94 -9461.25)
(-9668.07 -4194.49 -5234.01 -10576.4 4614.33 -9461.2)
(-8946.58 -4051.9 -5616.26 -11297.9 4140.6 -9461.18)
(-8260.89 -3786.21 -5955.76 -11983.7 3635.35 -9461.28)
(-7631.66 -3405.46 -6249.94 -12612.8 3102.44 -9461.23)
(-7078.13 -2921.24 -6496.55 -13166.3 2545.91 -9461.24)
(-6617.09 -2348.25 -6693.72 -13627.3 1970.02 -9461.14)
(-6262.53 -1703.92 -6839.95 -13981.8 1379.13 -9461.14)
(-6025.35 -1007.82 -6934.12 -14219.1 777.736 -9461.21)
(-5912.64 -281.093 -6975.52 -14331.9 170.427 -9461.26)
(-5927.75 454.172 -6963.83 -14316.8 -438.175 -9461.24)
(-6070.33 1175.64 -6899.14 -14174.2 -1043.45 -9461.23)
(-6336.08 1861.39 -6781.94 -13908.5 -1640.78 -9461.26)
(-6716.77 2490.58 -6613.13 -13527.7 -2225.62 -9461.21)
(-7200.95 3044.09 -6393.99 -13043.4 -2793.52 -9461.17)
(-7773.92 3505.11 -6126.19 -12470.4 -3340.17 -9461.13)
(-8418.32 3859.64 -5811.76 -11826.2 -3861.38 -9461.26)
(-9114.42 4096.88 -5453.1 -11130.1 -4353.22 -9461.22)
(-9841.15 4209.65 -5052.94 -10403.3 -4811.92 -9461.25)
(-10576.4 4194.49 -4614.33 -9668.07 -5234.01 -9461.2)
(-11297.9 4051.9 -4140.6 -8946.58 -5616.26 -9461.18)
(-11983.7 3786.21 -3635.35 -8260.89 -5955.76 -9461.28)
(-12612.8 3405.46 -3102.44 -7631.66 -6249.94 -9461.23)
(-13166.3 2921.24 -2545.91 -7078.13 -6496.55 -9461.24)
(-13627.3 2348.25 -1970.02 -6617.09 -6693.72 -9461.14)
(-13981.8 1703.92 -1379.13 -6262.53 -6839.95 -9461.14)
(-14219.1 1007.82 -777.736 -6025.35 -6934.12 -9461.21)
(-14331.9 281.093 -170.427 -5912.64 -6975.52 -9461.26)
(-14316.8 -454.172 438.175 -5927.75 -6963.83 -9461.24)
(-14174.2 -1175.64 1043.45 -6070.33 -6899.14 -9461.23)
(-13908.5 -1861.39 1640.78 -6336.08 -6781.94 -9461.25)
(-13527.7 -2490.58 2225.62 -6716.77 -6613.13 -9461.21)
(-13043.4 -3044.09 2793.52 -7200.95 -6393.99 -9461.17)
(-12470.4 -3505.11 3340.17 -7773.92 -6126.19 -9461.13)
(-11826.2 -3859.64 3861.38 -8418.32 -5811.76 -9461.26)
(-11130.1 -4096.88 4353.22 -9114.42 -5453.1 -9461.22)
(-10403.3 -4209.65 4811.92 -9841.15 -5052.94 -9461.25)
(-9668.07 -4194.49 5234.01 -10576.4 -4614.33 -9461.2)
(-8946.58 -4051.9 5616.26 -11297.9 -4140.6 -9461.18)
(-8260.89 -3786.21 5955.76 -11983.7 -3635.35 -9461.28)
(-7631.66 -3405.46 6249.94 -12612.8 -3102.44 -9461.23)
(-7078.13 -2921.24 6496.55 -13166.3 -2545.91 -9461.24)
(-6617.09 -2348.25 6693.72 -13627.3 -1970.02 -9461.14)
(-6262.53 -1703.92 6839.95 -13981.8 -1379.13 -9461.14)
(-6025.35 -1007.82 6934.12 -14219.1 -777.736 -9461.21)
(-5912.64 -281.093 6975.52 -14331.9 -170.427 -9461.26)
(-5927.75 454.172 6963.83 -14316.8 438.175 -9461.24)
(-6070.33 1175.64 6899.14 -14174.2 1043.45 -9461.23)
(-6336.08 1861.39 6781.94 -13908.5 1640.78 -9461.25)
(-6716.77 2490.58 6613.13 -13527.7 2225.62 -9461.21)
(-7200.95 3044.09 6393.99 -13043.4 2793.52 -9461.17)
(-7773.92 3505.11 6126.19 -12470.4 3340.17 -9461.13)
(-8418.32 3859.64 5811.76 -11826.2 3861.38 -9461.26)
(-9114.42 4096.88 5453.1 -11130.1 4353.22 -9461.22)
(-9841.15 4209.65 5052.94 -10403.3 4811.92 -9461.25)
(-10576.4 4194.49 4614.33 -9668.07 5234.01 -9461.2)
(-11297.9 4051.9 4140.6 -8946.58 5616.26 -9461.18)
(-11983.7 3786.21 3635.35 -8260.89 5955.76 -9461.28)
(-12612.8 3405.46 3102.44 -7631.66 6249.94 -9461.23)
(-13166.3 2921.24 2545.91 -7078.13 6496.55 -9461.24)
(-13627.3 2348.25 1970.02 -6617.09 6693.72 -9461.14)
(-13981.8 1703.92 1379.13 -6262.53 6839.95 -9461.14)
(-14219.1 1007.82 777.736 -6025.35 6934.12 -9461.21)
(-14331.9 281.093 170.427 -5912.64 6975.52 -9461.26)
(-14316.8 -454.172 -438.175 -5927.75 6963.83 -9461.24)
(-15375.5 -592.554 -1620.37 -13980.1 4366.41 -4932.78)
(-15262 -704.706 -1994.77 -14093.6 4208.57 -4932.8)
(-15130.7 -795.441 -2353.97 -14224.8 4018.69 -4932.77)
(-14985.7 -862.01 -2695.27 -14369.8 3798.24 -4932.75)
(-14831.4 -902.395 -3016.06 -14524.2 3548.9 -4932.8)
(-14672.3 -915.352 -3313.88 -14683.2 3272.52 -4932.78)
(-14513.4 -900.502 -3586.5 -14842.1 2971.25 -4932.79)
(-14359.6 -858.283 -3831.81 -14996 2647.35 -4932.82)
(-14215.3 -789.985 -4047.95 -15140.1 2303.31 -4932.73)
(-14085.2 -697.692 -4233.3 -15270.3 1941.75 -4932.73)
(-13973.1 -584.196 -4386.42 -15382.5 1565.4 -4932.79)
(-13882.3 -452.952 -4506.17 -15473.2 1177.15 -4932.77)
(-13815.7 -307.941 -4591.62 -15539.8 779.927 -4932.78)
(-13775.3 -153.577 -4642.13 -15580.1 376.776 -4932.76)
(-13762.4 5.45936 -4657.27 -15593.1 -29.2538 -4932.72)
(-13777.2 164.325 -4637 -15578.2 -435.055 -4932.73)
(-13819.5 318.197 -4581.45 -15536.1 -837.538 -4932.78)
(-13887.8 462.402 -4491.02 -15467.7 -1233.65 -4932.75)
(-13980.1 592.554 -4366.41 -15375.5 -1620.37 -4932.78)
(-14093.6 704.706 -4208.57 -15262 -1994.77 -4932.8)
(-14224.8 795.441 -4018.69 -15130.7 -2353.97 -4932.77)
(-14369.8 862.01 -3798.24 -14985.7 -2695.27 -4932.75)
(-14524.2 902.395 -3548.9 -14831.4 -3016.06 -4932.8)
(-14683.2 915.352 -3272.52 -14672.3 -3313.88 -4932.78)
(-14842.1 900.502 -2971.25 -14513.4 -3586.5 -4932.79)
(-14996 858.283 -2647.35 -14359.6 -3831.81 -4932.82)
(-15140.1 789.985 -2303.31 -14215.3 -4047.95 -4932.73)
(-15270.3 697.692 -1941.75 -14085.2 -4233.3 -4932.73)
(-15382.5 584.196 -1565.4 -13973.1 -4386.42 -4932.79)
(-15473.2 452.952 -1177.15 -13882.3 -4506.17 -4932.77)
(-15539.8 307.941 -779.927 -13815.7 -4591.62 -4932.78)
(-15580.1 153.577 -376.776 -13775.3 -4642.13 -4932.76)
(-15593.1 -5.45936 29.2538 -13762.4 -4657.27 -4932.72)
(-15578.2 -164.325 435.055 -13777.2 -4637 -4932.73)
(-15536.1 -318.197 837.538 -13819.5 -4581.45 -4932.78)
(-15467.7 -462.402 1233.65 -13887.8 -4491.02 -4932.75)
(-15375.5 -592.554 1620.37 -13980.1 -4366.41 -4932.78)
(-15262 -704.706 1994.77 -14093.6 -4208.57 -4932.8)
(-15130.7 -795.441 2353.97 -14224.8 -4018.69 -4932.77)
(-14985.7 -862.01 2695.27 -14369.8 -3798.24 -4932.75)
(-14831.4 -902.395 3016.06 -14524.2 -3548.9 -4932.8)
(-14672.3 -915.352 3313.88 -14683.2 -3272.52 -4932.78)
(-14513.4 -900.502 3586.5 -14842.1 -2971.25 -4932.79)
(-14359.6 -858.283 3831.81 -14996 -2647.35 -4932.82)
(-14215.3 -789.985 4047.95 -15140.1 -2303.31 -4932.73)
(-14085.2 -697.692 4233.3 -15270.3 -1941.75 -4932.73)
(-13973.1 -584.196 4386.42 -15382.5 -1565.4 -4932.79)
(-13882.3 -452.952 4506.17 -15473.2 -1177.15 -4932.77)
(-13815.7 -307.941 4591.62 -15539.8 -779.927 -4932.78)
(-13775.3 -153.577 4642.13 -15580.1 -376.776 -4932.76)
(-13762.4 5.45936 4657.27 -15593.1 29.2538 -4932.72)
(-13777.2 164.325 4637 -15578.2 435.055 -4932.73)
(-13819.5 318.197 4581.45 -15536.1 837.538 -4932.78)
(-13887.8 462.402 4491.02 -15467.7 1233.65 -4932.75)
(-13980.1 592.554 4366.41 -15375.5 1620.37 -4932.78)
(-14093.6 704.706 4208.57 -15262 1994.77 -4932.8)
(-14224.8 795.441 4018.69 -15130.7 2353.97 -4932.77)
(-14369.8 862.01 3798.24 -14985.7 2695.27 -4932.75)
(-14524.2 902.395 3548.9 -14831.4 3016.06 -4932.8)
(-14683.2 915.352 3272.52 -14672.3 3313.88 -4932.78)
(-14842.1 900.502 2971.25 -14513.4 3586.5 -4932.79)
(-14996 858.283 2647.35 -14359.6 3831.81 -4932.82)
(-15140.1 789.985 2303.31 -14215.3 4047.95 -4932.73)
(-15270.3 697.692 1941.75 -14085.2 4233.3 -4932.73)
(-15382.5 584.196 1565.4 -13973.1 4386.42 -4932.79)
(-15473.2 452.952 1177.15 -13882.3 4506.17 -4932.77)
(-15539.8 307.941 779.927 -13815.7 4591.62 -4932.78)
(-15580.1 153.577 376.776 -13775.3 4642.13 -4932.76)
(-15593.1 -5.45936 -29.2538 -13762.4 4657.27 -4932.72)
(-15578.2 -164.325 -435.055 -13777.2 4637 -4932.73)
(-15536.1 -318.197 -837.538 -13819.5 4581.45 -4932.78)
(-15467.7 -462.402 -1233.65 -13887.8 4491.02 -4932.75)
(2913.36 168.073 -1350.35 3303.17 -1733.84 13459.3)
(2887.1 131.68 -1194.08 3329.4 -1845.03 13459.2)
(2867.59 91.2737 -1028.77 3348.85 -1941.94 13459.3)
(2855.45 48.1032 -855.618 3361.08 -2024.18 13459.3)
(2850.9 3.46858 -675.917 3365.58 -2091.1 13459.3)
(2854.11 -41.2773 -491.056 3362.2 -2142.13 13459.1)
(2865.26 -84.7595 -302.514 3351.29 -2176.73 13459.3)
(2883.71 -125.655 -111.71 3332.89 -2194.75 13459.4)
(2908.85 -162.763 80.0744 3307.58 -2196.2 13459.2)
(2940.13 -194.911 271.18 3276.28 -2180.87 13459.2)
(2976.61 -221.112 460.133 3239.95 -2148.87 13459.4)
(3017 -240.64 645.759 3199.55 -2100.64 13459.3)
(3060.1 -252.844 826.428 3156.3 -2036.38 13459.2)
(3104.76 -257.339 1000.69 3111.7 -1956.58 13459.3)
(3149.52 -254.02 1167.36 3066.99 -1861.9 13459.3)
(3192.99 -243.001 1325.22 3023.49 -1753.09 13459.3)
(3233.9 -224.613 1473.1 2982.54 -1630.92 13459.2)
(3271.03 -199.366 1609.56 2945.5 -1496.33 13459.3)
(3303.17 -168.073 1733.84 2913.36 -1350.35 13459.3)
(3329.4 -131.68 1845.03 2887.1 -1194.08 13459.2)
(3348.85 -91.2737 1941.94 2867.59 -1028.77 13459.3)
(3361.08 -48.1032 2024.18 2855.45 -855.618 13459.3)
(3365.58 -3.46858 2091.1 2850.9 -675.917 13459.3)
(3362.2 41.2773 2142.13 2854.11 -491.056 13459.1)
(3351.29 84.7595 2176.73 2865.26 -302.514 13459.3)
(3332.89 125.655 2194.75 2883.71 -111.71 13459.4)
(3307.58 162.763 2196.2 2908.85 80.0744 13459.2)
(3276.28 194.911 2180.87 2940.13 271.18 13459.2)
(3239.95 221.112 2148.87 2976.61 460.133 13459.4)
(3199.55 240.64 2100.64 3017 645.759 13459.3)
(3156.3 252.844 2036.38 3060.1 826.428 13459.2)
(3111.7 257.339 1956.58 3104.76 1000.69 13459.3)
(3066.99 254.02 1861.9 3149.52 1167.36 13459.3)
(3023.49 243.001 1753.09 3192.99 1325.22 13459.3)
(2982.54 224.613 1630.92 3233.9 1473.1 13459.2)
(2945.5 199.366 1496.33 3271.03 1609.56 13459.3)
(2913.36 168.073 1350.35 3303.17 1733.84 13459.3)
(2887.1 131.68 1194.08 3329.4 1845.03 13459.2)
(2867.59 91.2737 1028.77 3348.85 1941.94 13459.3)
(2855.45 48.1032 855.618 3361.08 2024.18 13459.3)
(2850.9 3.46858 675.917 3365.58 2091.1 13459.3)
(2854.11 -41.2773 491.056 3362.2 2142.13 13459.1)
(2865.26 -84.7595 302.514 3351.29 2176.73 13459.3)
(2883.71 -125.655 111.71 3332.89 2194.75 13459.4)
(2908.85 -162.763 -80.0744 3307.58 2196.2 13459.2)
(2940.13 -194.911 -271.18 3276.28 2180.87 13459.2)
(2976.61 -221.112 -460.133 3239.95 2148.87 13459.4)
(3017 -240.64 -645.759 3199.55 2100.64 13459.3)
(3060.1 -252.844 -826.428 3156.3 2036.38 13459.2)
(3104.76 -257.339 -1000.69 3111.7 1956.58 13459.3)
(3149.52 -254.02 -1167.36 3066.99 1861.9 13459.3)
(3192.99 -243.001 -1325.22 3023.49 1753.09 13459.3)
(3233.9 -224.613 -1473.1 2982.54 1630.92 13459.2)
(3271.03 -199.366 -1609.56 2945.5 1496.33 13459.3)
(3303.17 -168.073 -1733.84 2913.36 1350.35 13459.3)
(3329.4 -131.68 -1845.03 2887.1 1194.08 13459.2)
(3348.85 -91.2737 -1941.94 2867.59 1028.77 13459.3)
(3361.08 -48.1032 -2024.18 2855.45 855.618 13459.3)
(3365.58 -3.46858 -2091.1 2850.9 675.917 13459.3)
(3362.2 41.2773 -2142.13 2854.11 491.056 13459.1)
(3351.29 84.7595 -2176.73 2865.26 302.514 13459.3)
(3332.89 125.655 -2194.75 2883.71 111.71 13459.4)
(3307.58 162.763 -2196.2 2908.85 -80.0744 13459.2)
(3276.28 194.911 -2180.87 2940.13 -271.18 13459.2)
(3239.95 221.112 -2148.87 2976.61 -460.133 13459.4)
(3199.55 240.64 -2100.64 3017 -645.759 13459.3)
(3156.3 252.844 -2036.38 3060.1 -826.428 13459.2)
(3111.7 257.339 -1956.58 3104.76 -1000.69 13459.3)
(3066.99 254.02 -1861.9 3149.52 -1167.36 13459.3)
(3023.49 243.001 -1753.09 3192.99 -1325.22 13459.3)
(2982.54 224.613 -1630.92 3233.9 -1473.1 13459.2)
(2945.5 199.366 -1496.33 3271.03 -1609.56 13459.3)
(-367.945 417.969 -689.092 4085.01 -4999.48 5721.62)
(-406.697 24.9934 -250.735 4123.78 -5040.51 5721.6)
(-376.58 -368.734 189.524 4093.72 -5043.18 5721.69)
(-278.593 -751.26 628.342 3995.73 -5007.47 5721.69)
(-115.717 -1110.96 1062.38 3832.75 -4933.65 5721.65)
(107.343 -1436.92 1488.34 3610.01 -4822.29 5721.77)
(383.32 -1719.2 1902.96 3333.75 -4674.22 5721.62)
(704.291 -1949.23 2303.1 3012.8 -4490.57 5721.69)
(1060.34 -2120.08 2685.73 2656.83 -4272.76 5721.65)
(1440.6 -2226.48 3047.9 2276.54 -4022.42 5721.64)
(1833.51 -2265.21 3386.87 1883.52 -3741.48 5721.66)
(2227.29 -2235.16 3700.08 1489.81 -3432.05 5721.63)
(2609.9 -2137.17 3985.13 1107.37 -3096.51 5721.72)
(2969.49 -1974.24 4239.83 747.576 -2737.4 5721.67)
(3295.5 -1751.33 4462.28 421.684 -2357.45 5721.71)
(3577.73 -1475.21 4650.77 139.348 -1959.57 5721.66)
(3807.82 -1154.26 4803.87 -90.7005 -1546.77 5721.62)
(3978.6 -798.243 4920.39 -261.539 -1122.2 5721.62)
(4085.01 -417.969 4999.48 -367.945 -689.092 5721.62)
(4123.78 -24.9934 5040.51 -406.697 -250.735 5721.6)
(4093.72 368.734 5043.18 -376.58 189.524 5721.69)
(3995.73 751.26 5007.47 -278.593 628.342 5721.69)
(3832.75 1110.96 4933.65 -115.717 1062.38 5721.65)
(3610.01 1436.92 4822.29 107.343 1488.34 5721.77)
(3333.75 1719.2 4674.22 383.32 1902.96 5721.62)
(3012.8 1949.23 4490.57 704.291 2303.1 5721.69)
(2656.83 2120.08 4272.76 1060.34 2685.73 5721.65)
(2276.54 2226.48 4022.42 1440.6 3047.9 5721.64)
(1883.52 2265.21 3741.48 1833.51 3386.87 5721.66)
(1489.81 2235.16 3432.05 2227.29 3700.08 5721.63)
(1107.37 2137.17 3096.51 2609.9 3985.13 5721.72)
(747.576 1974.24 2737.4 2969.49 4239.83 5721.67)
(421.684 1751.33 2357.45 3295.5 4462.28 5721.71)
(139.348 1475.21 1959.57 3577.73 4650.77 5721.66)
(-90.7005 1154.26 1546.77 3807.82 4803.87 5721.62)
(-261.539 798.243 1122.2 3978.6 4920.39 5721.62)
(-367.945 417.969 689.092 4085.01 4999.48 5721.62)
(-406.697 24.9934 250.735 4123.78 5040.51 5721.6)
(-376.58 -368.734 -189.524 4093.72 5043.18 5721.69)
(-278.593 -751.26 -628.342 3995.73 5007.47 5721.69)
(-115.717 -1110.96 -1062.38 3832.75 4933.65 5721.65)
(107.343 -1436.92 -1488.34 3610.01 4822.29 5721.77)
(383.32 -1719.2 -1902.96 3333.75 4674.22 5721.62)
(704.291 -1949.23 -2303.1 3012.8 4490.57 5721.69)