/*--------------------------------*- C++ -*----------------------------------*\
| =========                 |                                                 |
| \\      /  F ield         | OpenFOAM: The Open Source CFD Toolbox           |
|  \\    /   O peration     | Version:  2312                                  |
|   \\  /    A nd           | Website:  www.openfoam.com                      |
|    \\/     M anipulation  |                                                 |
\*---------------------------------------------------------------------------*/
FoamFile
{
    version     2.0;
    format      ascii;
    arch        "LSB;label=32;scalar=64";
    class       volVectorField;
    location    "0.2";
    object      U;
}
// * * * * * * * * * * * * * * * * * * * * * * * * * * * * * * * * * * * * * //

dimensions      [0 1 -1 0 0 0 0];

internalField   nonuniform List<vector> 
12960
(
(0.000196059 -0.000217341 3.44709e-06)
(0.000214255 -0.000199427 3.4471e-06)
(0.000230821 -0.000179994 3.44714e-06)
(0.00024563 -0.000159191 3.44699e-06)
(0.00025857 -0.000137178 3.44698e-06)
(0.000269541 -0.00011412 3.44715e-06)
(0.000278462 -9.01935e-05 3.44708e-06)
(0.000285263 -6.55808e-05 3.4468e-06)
(0.000289893 -4.04688e-05 3.44667e-06)
(0.000292318 -1.50492e-05 3.44688e-06)
(0.000292517 1.04854e-05 3.4471e-06)
(0.000290489 3.59401e-05 3.44728e-06)
(0.000286251 6.11211e-05 3.44732e-06)
(0.000279836 8.58371e-05 3.44729e-06)
(0.000271289 0.0001099 3.44711e-06)
(0.000260679 0.000133126 3.4471e-06)
(0.000248084 0.000155339 3.44708e-06)
(0.000233601 0.00017637 3.44689e-06)
(0.000217341 0.000196059 3.44709e-06)
(0.000199427 0.000214255 3.4471e-06)
(0.000179994 0.000230821 3.44714e-06)
(0.000159191 0.00024563 3.44699e-06)
(0.000137178 0.00025857 3.44698e-06)
(0.00011412 0.000269541 3.44714e-06)
(9.01935e-05 0.000278462 3.44708e-06)
(6.55808e-05 0.000285263 3.4468e-06)
(4.04688e-05 0.000289893 3.44666e-06)
(1.50492e-05 0.000292318 3.44688e-06)
(-1.04853e-05 0.000292517 3.4471e-06)
(-3.59401e-05 0.000290489 3.44728e-06)
(-6.11211e-05 0.000286251 3.44732e-06)
(-8.58371e-05 0.000279836 3.44729e-06)
(-0.0001099 0.000271289 3.4471e-06)
(-0.000133126 0.000260679 3.4471e-06)
(-0.000155339 0.000248084 3.44707e-06)
(-0.00017637 0.000233601 3.44689e-06)
(-0.000196059 0.000217341 3.44709e-06)
(-0.000214255 0.000199427 3.4471e-06)
(-0.000230821 0.000179994 3.44714e-06)
(-0.00024563 0.000159191 3.44699e-06)
(-0.00025857 0.000137178 3.44698e-06)
(-0.000269541 0.00011412 3.44714e-06)
(-0.000278462 9.01935e-05 3.44708e-06)
(-0.000285263 6.55808e-05 3.4468e-06)
(-0.000289893 4.04688e-05 3.44666e-06)
(-0.000292318 1.50492e-05 3.44688e-06)
(-0.000292517 -1.04853e-05 3.4471e-06)
(-0.000290489 -3.59401e-05 3.44728e-06)
(-0.000286251 -6.11211e-05 3.44732e-06)
(-0.000279836 -8.58371e-05 3.44729e-06)
(-0.000271289 -0.0001099 3.4471e-06)
(-0.000260679 -0.000133126 3.4471e-06)
(-0.000248084 -0.000155339 3.44708e-06)
(-0.000233601 -0.00017637 3.44689e-06)
(-0.000217341 -0.000196059 3.44709e-06)
(-0.000199427 -0.000214255 3.4471e-06)
(-0.000179994 -0.000230821 3.44714e-06)
(-0.000159191 -0.00024563 3.44699e-06)
(-0.000137178 -0.00025857 3.44698e-06)
(-0.00011412 -0.000269541 3.44714e-06)
(-9.01935e-05 -0.000278462 3.44708e-06)
(-6.55808e-05 -0.000285263 3.4468e-06)
(-4.04688e-05 -0.000289893 3.44667e-06)
(-1.50491e-05 -0.000292318 3.44688e-06)
(1.04854e-05 -0.000292517 3.4471e-06)
(3.59401e-05 -0.000290489 3.44728e-06)
(6.11211e-05 -0.000286251 3.44732e-06)
(8.58372e-05 -0.000279836 3.44729e-06)
(0.0001099 -0.000271289 3.44711e-06)
(0.000133126 -0.000260679 3.4471e-06)
(0.000155339 -0.000248084 3.44708e-06)
(0.00017637 -0.000233601 3.44689e-06)
(0.000176415 -0.000260205 2.90657e-05)
(0.000198422 -0.000243839 2.90657e-05)
(0.000218919 -0.000225618 2.90658e-05)
(0.00023775 -0.000205679 2.90659e-05)
(0.000254772 -0.000184175 2.90658e-05)
(0.000269854 -0.00016127 2.90658e-05)
(0.000282883 -0.000137137 2.90658e-05)
(0.000293759 -0.00011196 2.90657e-05)
(0.000302399 -8.5931e-05 2.90657e-05)
(0.000308737 -5.92485e-05 2.90657e-05)
(0.000312727 -3.21148e-05 2.90659e-05)
(0.000314336 -4.73639e-06 2.90659e-05)
(0.000313552 2.26777e-05 2.90659e-05)
(0.000310382 4.99192e-05 2.90659e-05)
(0.00030485 7.67809e-05 2.90659e-05)
(0.000296998 0.000103058 2.90658e-05)
(0.000286885 0.000128551 2.90658e-05)
(0.00027459 0.000153066 2.90657e-05)
(0.000260205 0.000176415 2.90657e-05)
(0.000243839 0.000198422 2.90657e-05)
(0.000225618 0.000218919 2.90658e-05)
(0.000205679 0.00023775 2.90659e-05)
(0.000184175 0.000254772 2.90658e-05)
(0.00016127 0.000269854 2.90658e-05)
(0.000137137 0.000282883 2.90658e-05)
(0.00011196 0.000293759 2.90657e-05)
(8.5931e-05 0.000302399 2.90657e-05)
(5.92485e-05 0.000308737 2.90657e-05)
(3.21148e-05 0.000312727 2.90659e-05)
(4.73641e-06 0.000314336 2.90659e-05)
(-2.26777e-05 0.000313552 2.90659e-05)
(-4.99192e-05 0.000310382 2.90659e-05)
(-7.67808e-05 0.00030485 2.90659e-05)
(-0.000103058 0.000296998 2.90658e-05)
(-0.000128551 0.000286885 2.90658e-05)
(-0.000153066 0.00027459 2.90657e-05)
(-0.000176415 0.000260205 2.90657e-05)
(-0.000198422 0.000243839 2.90657e-05)
(-0.000218919 0.000225618 2.90658e-05)
(-0.00023775 0.000205679 2.90659e-05)
(-0.000254772 0.000184175 2.90658e-05)
(-0.000269854 0.00016127 2.90658e-05)
(-0.000282883 0.000137137 2.90658e-05)
(-0.000293759 0.00011196 2.90657e-05)
(-0.000302399 8.5931e-05 2.90657e-05)
(-0.000308737 5.92485e-05 2.90657e-05)
(-0.000312727 3.21148e-05 2.90659e-05)
(-0.000314336 4.7364e-06 2.90659e-05)
(-0.000313552 -2.26777e-05 2.90659e-05)
(-0.000310382 -4.99192e-05 2.90659e-05)
(-0.00030485 -7.67809e-05 2.90659e-05)
(-0.000296998 -0.000103058 2.90658e-05)
(-0.000286885 -0.000128551 2.90658e-05)
(-0.00027459 -0.000153066 2.90657e-05)
(-0.000260205 -0.000176415 2.90657e-05)
(-0.000243839 -0.000198422 2.90657e-05)
(-0.000225618 -0.000218919 2.90658e-05)
(-0.000205679 -0.00023775 2.90659e-05)
(-0.000184175 -0.000254772 2.90658e-05)
(-0.00016127 -0.000269854 2.90658e-05)
(-0.000137137 -0.000282883 2.90658e-05)
(-0.00011196 -0.000293759 2.90657e-05)
(-8.5931e-05 -0.000302399 2.90657e-05)
(-5.92485e-05 -0.000308737 2.90657e-05)
(-3.21148e-05 -0.000312727 2.90659e-05)
(-4.73638e-06 -0.000314336 2.90659e-05)
(2.26777e-05 -0.000313552 2.90659e-05)
(4.99192e-05 -0.000310382 2.90659e-05)
(7.67809e-05 -0.00030485 2.90659e-05)
(0.000103058 -0.000296998 2.90658e-05)
(0.000128551 -0.000286885 2.90658e-05)
(0.000153066 -0.00027459 2.90657e-05)
(0.000140127 -0.000301426 4.20085e-05)
(0.000165865 -0.000288066 4.20086e-05)
(0.000190341 -0.000272514 4.20086e-05)
(0.000213367 -0.000254887 4.20086e-05)
(0.000234771 -0.000235322 4.20088e-05)
(0.000254386 -0.000213964 4.20085e-05)
(0.000272066 -0.000190978 4.20085e-05)
(0.000287676 -0.00016654 4.20085e-05)
(0.000301096 -0.000140833 4.20085e-05)
(0.000312225 -0.000114055 4.20084e-05)
(0.000320977 -8.64091e-05 4.20086e-05)
(0.000327286 -5.81052e-05 4.20085e-05)
(0.000331105 -2.93592e-05 4.20086e-05)
(0.000332405 -3.89587e-07 4.20087e-05)
(0.000331173 2.85827e-05 4.20086e-05)
(0.000327422 5.73379e-05 4.20086e-05)
(0.000321179 8.56564e-05 4.20087e-05)
(0.000312491 0.000113323 4.20085e-05)
(0.000301426 0.000140127 4.20085e-05)
(0.000288066 0.000165865 4.20086e-05)
(0.000272514 0.000190341 4.20086e-05)
(0.000254887 0.000213367 4.20086e-05)
(0.000235322 0.000234771 4.20088e-05)
(0.000213964 0.000254386 4.20085e-05)
(0.000190978 0.000272066 4.20085e-05)
(0.00016654 0.000287676 4.20085e-05)
(0.000140833 0.000301096 4.20085e-05)
(0.000114055 0.000312225 4.20084e-05)
(8.64092e-05 0.000320977 4.20086e-05)
(5.81052e-05 0.000327286 4.20085e-05)
(2.93593e-05 0.000331105 4.20086e-05)
(3.89599e-07 0.000332405 4.20087e-05)
(-2.85827e-05 0.000331173 4.20086e-05)
(-5.73379e-05 0.000327422 4.20086e-05)
(-8.56564e-05 0.000321179 4.20087e-05)
(-0.000113323 0.000312491 4.20085e-05)
(-0.000140127 0.000301426 4.20085e-05)
(-0.000165865 0.000288066 4.20086e-05)
(-0.000190341 0.000272514 4.20086e-05)
(-0.000213367 0.000254887 4.20086e-05)
(-0.000234771 0.000235322 4.20088e-05)
(-0.000254386 0.000213964 4.20085e-05)
(-0.000272066 0.000190978 4.20085e-05)
(-0.000287676 0.00016654 4.20085e-05)
(-0.000301096 0.000140833 4.20085e-05)
(-0.000312225 0.000114055 4.20084e-05)
(-0.000320977 8.64091e-05 4.20086e-05)
(-0.000327286 5.81052e-05 4.20085e-05)
(-0.000331105 2.93592e-05 4.20086e-05)
(-0.000332405 3.89588e-07 4.20087e-05)
(-0.000331173 -2.85827e-05 4.20086e-05)
(-0.000327422 -5.73379e-05 4.20086e-05)
(-0.000321179 -8.56564e-05 4.20087e-05)
(-0.000312491 -0.000113323 4.20085e-05)
(-0.000301425 -0.000140127 4.20085e-05)
(-0.000288066 -0.000165865 4.20086e-05)
(-0.000272514 -0.000190341 4.20086e-05)
(-0.000254887 -0.000213367 4.20086e-05)
(-0.000235322 -0.000234771 4.20088e-05)
(-0.000213964 -0.000254386 4.20085e-05)
(-0.000190978 -0.000272066 4.20085e-05)
(-0.00016654 -0.000287676 4.20085e-05)
(-0.000140833 -0.000301096 4.20085e-05)
(-0.000114055 -0.000312225 4.20084e-05)
(-8.64091e-05 -0.000320977 4.20086e-05)
(-5.81052e-05 -0.000327286 4.20085e-05)
(-2.93592e-05 -0.000331105 4.20086e-05)
(-3.89578e-07 -0.000332405 4.20087e-05)
(2.85827e-05 -0.000331173 4.20086e-05)
(5.73379e-05 -0.000327422 4.20086e-05)
(8.56564e-05 -0.000321179 4.20087e-05)
(0.000113323 -0.000312491 4.20085e-05)
(9.07738e-05 -0.00033728 4.86328e-05)
(0.000119824 -0.000328085 4.86328e-05)
(0.000147963 -0.000316394 4.8633e-05)
(0.000174975 -0.000302293 4.86328e-05)
(0.000200655 -0.000285892 4.86329e-05)
(0.000224809 -0.000267317 4.86329e-05)
(0.000247252 -0.000246706 4.8633e-05)
(0.000267813 -0.000224218 4.8633e-05)
(0.000286336 -0.000200024 4.86329e-05)
(0.00030268 -0.000174307 4.86329e-05)
(0.00031672 -0.000147263 4.8633e-05)
(0.000328349 -0.000119099 4.86329e-05)
(0.00033748 -9.0028e-05 4.86329e-05)
(0.000344041 -6.02717e-05 4.86327e-05)
(0.000347985 -3.00573e-05 4.86328e-05)
(0.000349282 3.85976e-07 4.8633e-05)
(0.000347919 3.08265e-05 4.86329e-05)
(0.000343908 6.10324e-05 4.86328e-05)
(0.00033728 9.07738e-05 4.86328e-05)
(0.000328085 0.000119824 4.86328e-05)
(0.000316394 0.000147963 4.8633e-05)
(0.000302293 0.000174975 4.86328e-05)
(0.000285892 0.000200655 4.86329e-05)
(0.000267317 0.000224809 4.86329e-05)
(0.000246706 0.000247252 4.8633e-05)
(0.000224218 0.000267813 4.8633e-05)
(0.000200024 0.000286336 4.86329e-05)
(0.000174307 0.00030268 4.86329e-05)
(0.000147263 0.00031672 4.8633e-05)
(0.000119099 0.000328349 4.86329e-05)
(9.0028e-05 0.00033748 4.86329e-05)
(6.02717e-05 0.000344041 4.86327e-05)
(3.00573e-05 0.000347985 4.86328e-05)
(-3.85965e-07 0.000349282 4.8633e-05)
(-3.08265e-05 0.000347919 4.86329e-05)
(-6.10324e-05 0.000343908 4.86328e-05)
(-9.07738e-05 0.00033728 4.86328e-05)
(-0.000119824 0.000328085 4.86328e-05)
(-0.000147963 0.000316394 4.8633e-05)
(-0.000174975 0.000302293 4.86328e-05)
(-0.000200655 0.000285892 4.86329e-05)
(-0.000224809 0.000267317 4.86329e-05)
(-0.000247252 0.000246706 4.8633e-05)
(-0.000267813 0.000224218 4.8633e-05)
(-0.000286336 0.000200024 4.86329e-05)
(-0.00030268 0.000174307 4.86329e-05)
(-0.00031672 0.000147263 4.8633e-05)
(-0.000328349 0.000119099 4.86329e-05)
(-0.00033748 9.00279e-05 4.86329e-05)
(-0.000344041 6.02717e-05 4.86327e-05)
(-0.000347985 3.00573e-05 4.86328e-05)
(-0.000349282 -3.85976e-07 4.8633e-05)
(-0.000347919 -3.08265e-05 4.86329e-05)
(-0.000343908 -6.10324e-05 4.86328e-05)
(-0.00033728 -9.07738e-05 4.86328e-05)
(-0.000328085 -0.000119824 4.86328e-05)
(-0.000316394 -0.000147963 4.8633e-05)
(-0.000302293 -0.000174975 4.86328e-05)
(-0.000285892 -0.000200655 4.86329e-05)
(-0.000267317 -0.000224809 4.86329e-05)
(-0.000246706 -0.000247252 4.8633e-05)
(-0.000224218 -0.000267813 4.8633e-05)
(-0.000200024 -0.000286336 4.86329e-05)
(-0.000174307 -0.00030268 4.86329e-05)
(-0.000147263 -0.00031672 4.8633e-05)
(-0.000119099 -0.000328349 4.86329e-05)
(-9.00279e-05 -0.00033748 4.86329e-05)
(-6.02717e-05 -0.000344041 4.86327e-05)
(-3.00572e-05 -0.000347985 4.86328e-05)
(3.85984e-07 -0.000349282 4.8633e-05)
(3.08265e-05 -0.000347919 4.86329e-05)
(6.10324e-05 -0.000343908 4.86328e-05)
(2.56514e-05 -0.00036619 5.70499e-05)
(5.74694e-05 -0.000362561 5.70501e-05)
(8.88495e-05 -0.000356172 5.705e-05)
(0.000119554 -0.000347073 5.70501e-05)
(0.000149348 -0.000335332 5.70501e-05)
(0.000178006 -0.00032104 5.705e-05)
(0.000205309 -0.000304303 5.70499e-05)
(0.000231049 -0.000285251 5.70498e-05)
(0.000255033 -0.00026403 5.705e-05)
(0.000277074 -0.000240798 5.70501e-05)
(0.000297005 -0.000215732 5.70498e-05)
(0.000314677 -0.000189025 5.70499e-05)
(0.000329954 -0.00016088 5.70499e-05)
(0.00034272 -0.00013151 5.70498e-05)
(0.000352879 -0.00010114 5.705e-05)
(0.000360351 -6.99998e-05 5.705e-05)
(0.000365081 -3.83267e-05 5.70501e-05)
(0.000367032 -6.36188e-06 5.70499e-05)
(0.00036619 2.56514e-05 5.70499e-05)
(0.000362561 5.74694e-05 5.70501e-05)
(0.000356172 8.88495e-05 5.705e-05)
(0.000347073 0.000119554 5.70501e-05)
(0.000335332 0.000149348 5.70501e-05)
(0.00032104 0.000178006 5.705e-05)
(0.000304303 0.000205309 5.70499e-05)
(0.000285251 0.000231049 5.70498e-05)
(0.00026403 0.000255033 5.705e-05)
(0.000240798 0.000277074 5.70501e-05)
(0.000215732 0.000297005 5.70498e-05)
(0.000189025 0.000314677 5.70499e-05)
(0.00016088 0.000329954 5.70499e-05)
(0.00013151 0.00034272 5.70498e-05)
(0.00010114 0.000352879 5.705e-05)
(6.99999e-05 0.000360351 5.705e-05)
(3.83267e-05 0.000365081 5.70501e-05)
(6.36188e-06 0.000367032 5.70499e-05)
(-2.56514e-05 0.00036619 5.70499e-05)
(-5.74694e-05 0.000362561 5.70501e-05)
(-8.88495e-05 0.000356172 5.705e-05)
(-0.000119554 0.000347073 5.70501e-05)
(-0.000149348 0.000335332 5.70501e-05)
(-0.000178006 0.00032104 5.705e-05)
(-0.000205309 0.000304303 5.70499e-05)
(-0.000231049 0.000285251 5.70498e-05)
(-0.000255033 0.00026403 5.705e-05)
(-0.000277074 0.000240798 5.70501e-05)
(-0.000297005 0.000215732 5.70498e-05)
(-0.000314677 0.000189025 5.70499e-05)
(-0.000329954 0.00016088 5.70499e-05)
(-0.00034272 0.00013151 5.70498e-05)
(-0.000352879 0.00010114 5.705e-05)
(-0.000360351 6.99998e-05 5.705e-05)
(-0.000365081 3.83267e-05 5.70501e-05)
(-0.000367032 6.36187e-06 5.70499e-05)
(-0.00036619 -2.56514e-05 5.70499e-05)
(-0.000362561 -5.74694e-05 5.70501e-05)
(-0.000356172 -8.88495e-05 5.705e-05)
(-0.000347073 -0.000119554 5.70501e-05)
(-0.000335332 -0.000149348 5.70501e-05)
(-0.00032104 -0.000178006 5.705e-05)
(-0.000304303 -0.000205309 5.70499e-05)
(-0.000285251 -0.000231049 5.70498e-05)
(-0.00026403 -0.000255033 5.705e-05)
(-0.000240798 -0.000277074 5.70501e-05)
(-0.000215732 -0.000297005 5.70498e-05)
(-0.000189025 -0.000314677 5.70499e-05)
(-0.00016088 -0.000329954 5.70499e-05)
(-0.00013151 -0.00034272 5.70498e-05)
(-0.00010114 -0.000352879 5.705e-05)
(-6.99998e-05 -0.000360351 5.705e-05)
(-3.83267e-05 -0.000365081 5.70501e-05)
(-6.36187e-06 -0.000367032 5.70499e-05)
(-7.26045e-05 -0.000391119 6.59905e-05)
(-3.82397e-05 -0.000395958 6.59904e-05)
(-3.58432e-06 -0.000397784 6.59904e-05)
(3.10992e-05 -0.000396586 6.59908e-05)
(6.55457e-05 -0.000392365 6.59905e-05)
(9.9493e-05 -0.000385159 6.59905e-05)
(0.000132683 -0.000375021 6.59904e-05)
(0.000164863 -0.000362029 6.59903e-05)
(0.000195789 -0.000346284 6.59905e-05)
(0.000225224 -0.000327902 6.59906e-05)
(0.000252946 -0.000307024 6.59905e-05)
(0.000278742 -0.00028381 6.59905e-05)
(0.000302417 -0.000258437 6.59901e-05)
(0.000323791 -0.000231096 6.59901e-05)
(0.000342701 -0.000201997 6.59904e-05)
(0.000359 -0.000171359 6.59904e-05)
(0.000372568 -0.000139418 6.59903e-05)
(0.000383303 -0.000106416 6.59906e-05)
(0.000391119 -7.26045e-05 6.59905e-05)
(0.000395958 -3.82397e-05 6.59904e-05)
(0.000397784 -3.58433e-06 6.59904e-05)
(0.000396586 3.10992e-05 6.59908e-05)
(0.000392365 6.55457e-05 6.59905e-05)
(0.000385159 9.9493e-05 6.59905e-05)
(0.000375021 0.000132683 6.59904e-05)
(0.000362029 0.000164863 6.59903e-05)
(0.000346284 0.000195789 6.59905e-05)
(0.000327902 0.000225224 6.59906e-05)
(0.000307024 0.000252946 6.59905e-05)
(0.000283811 0.000278742 6.59905e-05)
(0.000258437 0.000302417 6.59901e-05)
(0.000231096 0.000323791 6.59901e-05)
(0.000201997 0.000342701 6.59904e-05)
(0.000171359 0.000359 6.59904e-05)
(0.000139418 0.000372568 6.59903e-05)
(0.000106416 0.000383303 6.59906e-05)
(7.26045e-05 0.000391119 6.59905e-05)
(3.82397e-05 0.000395958 6.59904e-05)
(3.58433e-06 0.000397784 6.59904e-05)
(-3.10992e-05 0.000396586 6.59908e-05)
(-6.55457e-05 0.000392365 6.59905e-05)
(-9.9493e-05 0.000385159 6.59905e-05)
(-0.000132683 0.000375021 6.59904e-05)
(-0.000164862 0.000362029 6.59903e-05)
(-0.000195789 0.000346284 6.59905e-05)
(-0.000225224 0.000327902 6.59906e-05)
(-0.000252946 0.000307024 6.59905e-05)
(-0.000278742 0.00028381 6.59905e-05)
(-0.000302417 0.000258437 6.59901e-05)
(-0.000323791 0.000231096 6.59901e-05)
(-0.000342701 0.000201997 6.59904e-05)
(-0.000359 0.000171359 6.59904e-05)
(-0.000372568 0.000139418 6.59903e-05)
(-0.000383303 0.000106416 6.59906e-05)
(-0.000391119 7.26045e-05 6.59905e-05)
(-0.000395958 3.82397e-05 6.59904e-05)
(-0.000397784 3.58432e-06 6.59904e-05)
(-0.000396586 -3.10992e-05 6.59908e-05)
(-0.000392365 -6.55457e-05 6.59905e-05)
(-0.000385159 -9.9493e-05 6.59905e-05)
(-0.000375021 -0.000132683 6.59904e-05)
(-0.000362029 -0.000164863 6.59903e-05)
(-0.000346284 -0.000195789 6.59905e-05)
(-0.000327902 -0.000225224 6.59906e-05)
(-0.000307024 -0.000252946 6.59905e-05)
(-0.00028381 -0.000278742 6.59905e-05)
(-0.000258437 -0.000302417 6.59901e-05)
(-0.000231096 -0.000323791 6.59901e-05)
(-0.000201997 -0.000342701 6.59904e-05)
(-0.000171359 -0.000359 6.59904e-05)
(-0.000139418 -0.000372568 6.59903e-05)
(-0.000106416 -0.000383303 6.59906e-05)
(0.000504265 -0.000669085 4.98137e-05)
(0.000560662 -0.000622591 4.98134e-05)
(0.00061279 -0.000571357 4.98138e-05)
(0.000660255 -0.000515773 4.98138e-05)
(0.000702695 -0.000456267 4.98136e-05)
(0.000739788 -0.000393287 4.98133e-05)
(0.000771249 -0.000327313 4.98134e-05)
(0.000796841 -0.000258848 4.9813e-05)
(0.000816371 -0.000188414 4.98126e-05)
(0.000829686 -0.000116546 4.98129e-05)
(0.000836684 -4.37905e-05 4.98137e-05)
(0.000837317 2.92979e-05 4.98138e-05)
(0.000831577 0.000102163 4.98139e-05)
(0.000819508 0.000174251 4.98142e-05)
(0.000801202 0.000245013 4.98142e-05)
(0.000776799 0.000313911 4.98138e-05)
(0.000746485 0.000380419 4.98136e-05)
(0.000710488 0.000444032 4.98135e-05)
(0.000669085 0.000504265 4.98137e-05)
(0.000622591 0.000560661 4.98134e-05)
(0.000571357 0.00061279 4.98138e-05)
(0.000515774 0.000660255 4.98138e-05)
(0.000456267 0.000702695 4.98136e-05)
(0.000393287 0.000739788 4.98133e-05)
(0.000327313 0.000771249 4.98134e-05)
(0.000258848 0.000796841 4.9813e-05)
(0.000188414 0.000816371 4.98126e-05)
(0.000116546 0.000829686 4.98129e-05)
(4.37905e-05 0.000836684 4.98137e-05)
(-2.92979e-05 0.000837317 4.98138e-05)
(-0.000102163 0.000831577 4.98139e-05)
(-0.000174251 0.000819508 4.98142e-05)
(-0.000245013 0.000801202 4.98142e-05)
(-0.000313911 0.000776799 4.98138e-05)
(-0.000380419 0.000746485 4.98136e-05)
(-0.000444032 0.000710488 4.98135e-05)
(-0.000504265 0.000669085 4.98137e-05)
(-0.000560661 0.000622591 4.98134e-05)
(-0.00061279 0.000571357 4.98138e-05)
(-0.000660255 0.000515773 4.98138e-05)
(-0.000702695 0.000456267 4.98135e-05)
(-0.000739788 0.000393287 4.98133e-05)
(-0.000771249 0.000327313 4.98134e-05)
(-0.000796841 0.000258848 4.9813e-05)
(-0.000816371 0.000188414 4.98126e-05)
(-0.000829685 0.000116546 4.98129e-05)
(-0.000836684 4.37905e-05 4.98137e-05)
(-0.000837317 -2.92979e-05 4.98138e-05)
(-0.000831577 -0.000102163 4.98139e-05)
(-0.000819508 -0.000174251 4.98142e-05)
(-0.000801202 -0.000245013 4.98142e-05)
(-0.000776799 -0.000313911 4.98138e-05)
(-0.000746485 -0.000380419 4.98136e-05)
(-0.000710488 -0.000444032 4.98135e-05)
(-0.000669085 -0.000504265 4.98137e-05)
(-0.000622591 -0.000560661 4.98134e-05)
(-0.000571357 -0.00061279 4.98138e-05)
(-0.000515773 -0.000660255 4.98138e-05)
(-0.000456267 -0.000702695 4.98136e-05)
(-0.000393287 -0.000739788 4.98133e-05)
(-0.000327313 -0.000771249 4.98134e-05)
(-0.000258848 -0.000796841 4.9813e-05)
(-0.000188414 -0.000816371 4.98126e-05)
(-0.000116546 -0.000829686 4.98129e-05)
(-4.37904e-05 -0.000836684 4.98137e-05)
(2.9298e-05 -0.000837317 4.98138e-05)
(0.000102163 -0.000831577 4.98139e-05)
(0.000174252 -0.000819508 4.98142e-05)
(0.000245013 -0.000801202 4.98142e-05)
(0.000313911 -0.000776799 4.98138e-05)
(0.000380419 -0.000746485 4.98136e-05)
(0.000444032 -0.000710488 4.98135e-05)
(0.000447082 -0.000785752 0.000129731)
(0.000513863 -0.000743797 0.000129731)
(0.000576734 -0.00069618 0.000129731)
(0.000635215 -0.000643265 0.000129731)
(0.000688862 -0.000585455 0.000129731)
(0.000737266 -0.000523188 0.000129731)
(0.00078006 -0.000456941 0.000129731)
(0.000816917 -0.000387215 0.000129731)
(0.000847556 -0.000314543 0.000129731)
(0.000871745 -0.000239477 0.000129731)
(0.000889299 -0.000162587 0.000129731)
(0.000900086 -8.4461e-05 0.000129731)
(0.000904021 -5.6923e-06 0.000129731)
(0.000901077 7.31204e-05 0.000129731)
(0.000891275 0.000151376 0.000129731)
(0.000874691 0.00022848 0.000129731)
(0.000851449 0.000303845 0.000129731)
(0.000821727 0.000376898 0.000129731)
(0.000785752 0.000447082 0.000129731)
(0.000743797 0.000513863 0.000129731)
(0.00069618 0.000576734 0.000129731)
(0.000643265 0.000635215 0.000129731)
(0.000585455 0.000688862 0.000129731)
(0.000523188 0.000737266 0.000129731)
(0.000456941 0.00078006 0.000129731)
(0.000387215 0.000816917 0.000129731)
(0.000314543 0.000847556 0.000129731)
(0.000239477 0.000871745 0.000129731)
(0.000162587 0.000889299 0.000129731)
(8.4461e-05 0.000900086 0.000129731)
(5.69233e-06 0.000904021 0.000129731)
(-7.31204e-05 0.000901077 0.000129731)
(-0.000151376 0.000891275 0.000129731)
(-0.00022848 0.000874691 0.000129731)
(-0.000303845 0.000851449 0.000129731)
(-0.000376898 0.000821727 0.000129731)
(-0.000447082 0.000785752 0.000129731)
(-0.000513863 0.000743797 0.000129731)
(-0.000576734 0.00069618 0.000129731)
(-0.000635215 0.000643265 0.000129731)
(-0.000688862 0.000585455 0.000129731)
(-0.000737266 0.000523188 0.000129731)
(-0.00078006 0.000456941 0.000129731)
(-0.000816917 0.000387215 0.000129731)
(-0.000847556 0.000314543 0.000129731)
(-0.000871745 0.000239477 0.000129731)
(-0.000889299 0.000162587 0.000129731)
(-0.000900086 8.4461e-05 0.000129731)
(-0.00090402 5.6923e-06 0.000129731)
(-0.000901077 -7.31204e-05 0.000129731)
(-0.000891275 -0.000151376 0.000129731)
(-0.000874691 -0.00022848 0.000129731)
(-0.000851449 -0.000303845 0.000129731)
(-0.000821727 -0.000376898 0.000129731)
(-0.000785752 -0.000447082 0.000129731)
(-0.000743797 -0.000513863 0.000129731)
(-0.00069618 -0.000576734 0.000129731)
(-0.000643265 -0.000635215 0.000129731)
(-0.000585454 -0.000688862 0.000129731)
(-0.000523188 -0.000737266 0.000129731)
(-0.000456941 -0.00078006 0.000129731)
(-0.000387215 -0.000816917 0.000129731)
(-0.000314543 -0.000847556 0.000129731)
(-0.000239477 -0.000871745 0.000129731)
(-0.000162587 -0.000889299 0.000129731)
(-8.4461e-05 -0.000900086 0.000129731)
(-5.69227e-06 -0.000904021 0.000129731)
(7.31205e-05 -0.000901077 0.000129731)
(0.000151376 -0.000891275 0.000129731)
(0.00022848 -0.000874691 0.000129731)
(0.000303845 -0.000851449 0.000129731)
(0.000376898 -0.000821727 0.000129731)
(0.000358929 -0.000898967 0.000187738)
(0.000435913 -0.000864264 0.000187738)
(0.00050958 -0.000822983 0.000187738)
(0.000579369 -0.000775439 0.000187739)
(0.000644747 -0.000721992 0.000187739)
(0.00070522 -0.000663053 0.000187739)
(0.000760325 -0.000599066 0.000187739)
(0.000809643 -0.000530519 0.000187739)
(0.0008528 -0.000457935 0.000187739)
(0.000889466 -0.000381866 0.000187739)
(0.000919363 -0.00030289 0.000187739)
(0.000942264 -0.000221611 0.000187739)
(0.000957993 -0.000138643 0.000187739)
(0.00096643 -5.46204e-05 0.000187739)
(0.000967513 2.98168e-05 0.000187739)
(0.000961232 0.000114029 0.000187739)
(0.000947637 0.000197372 0.000187739)
(0.000926829 0.000279213 0.000187738)
(0.000898967 0.000358929 0.000187738)
(0.000864264 0.000435913 0.000187738)
(0.000822983 0.00050958 0.000187738)
(0.000775439 0.000579369 0.000187739)
(0.000721992 0.000644747 0.000187739)
(0.000663053 0.00070522 0.000187739)
(0.000599066 0.000760325 0.000187739)
(0.000530519 0.000809643 0.000187739)
(0.000457935 0.0008528 0.000187739)
(0.000381866 0.000889466 0.000187739)
(0.00030289 0.000919363 0.000187739)
(0.000221611 0.000942264 0.000187739)
(0.000138643 0.000957993 0.000187739)
(5.46204e-05 0.00096643 0.000187739)
(-2.98167e-05 0.000967513 0.000187739)
(-0.000114029 0.000961232 0.000187739)
(-0.000197372 0.000947637 0.000187739)
(-0.000279213 0.000926829 0.000187738)
(-0.000358929 0.000898967 0.000187738)
(-0.000435913 0.000864264 0.000187738)
(-0.00050958 0.000822983 0.000187738)
(-0.000579369 0.000775439 0.000187739)
(-0.000644747 0.000721992 0.000187739)
(-0.00070522 0.000663053 0.000187739)
(-0.000760325 0.000599066 0.000187739)
(-0.000809643 0.000530519 0.000187739)
(-0.0008528 0.000457935 0.000187739)
(-0.000889466 0.000381866 0.000187739)
(-0.000919363 0.00030289 0.000187739)
(-0.000942264 0.000221611 0.000187739)
(-0.000957993 0.000138643 0.000187739)
(-0.00096643 5.46204e-05 0.000187739)
(-0.000967513 -2.98168e-05 0.000187739)
(-0.000961232 -0.000114029 0.000187739)
(-0.000947637 -0.000197372 0.000187739)
(-0.000926829 -0.000279213 0.000187738)
(-0.000898967 -0.000358929 0.000187738)
(-0.000864264 -0.000435913 0.000187738)
(-0.000822983 -0.00050958 0.000187738)
(-0.000775439 -0.000579369 0.000187739)
(-0.000721992 -0.000644747 0.000187739)
(-0.000663053 -0.00070522 0.000187739)
(-0.000599066 -0.000760325 0.000187739)
(-0.000530519 -0.000809643 0.000187739)
(-0.000457935 -0.0008528 0.000187739)
(-0.000381866 -0.000889466 0.000187739)
(-0.00030289 -0.000919363 0.000187739)
(-0.000221611 -0.000942264 0.000187739)
(-0.000138643 -0.000957993 0.000187739)
(-5.46204e-05 -0.00096643 0.000187739)
(2.98168e-05 -0.000967513 0.000187739)
(0.000114029 -0.000961232 0.000187739)
(0.000197372 -0.000947637 0.000187739)
(0.000279213 -0.000926829 0.000187738)
(0.00024658 -0.00100079 0.000229128)
(0.000332867 -0.000975496 0.000229128)
(0.00041662 -0.000942773 0.000229128)
(0.000497203 -0.000902874 0.000229128)
(0.000574001 -0.000856105 0.000229128)
(0.000646431 -0.00080282 0.000229128)
(0.000713941 -0.000743425 0.000229128)
(0.000776019 -0.000678372 0.000229128)
(0.000832189 -0.000608155 0.000229128)
(0.000882027 -0.000533311 0.000229128)
(0.000925152 -0.000454408 0.000229128)
(0.000961235 -0.000372047 0.000229128)
(0.000990003 -0.000286854 0.000229128)
(0.00101124 -0.000199477 0.000229128)
(0.00102477 -0.000110583 0.000229128)
(0.00103051 -2.08475e-05 0.000229128)
(0.00102841 6.90473e-05 0.000229128)
(0.00101848 0.000158417 0.000229128)
(0.00100079 0.00024658 0.000229128)
(0.000975496 0.000332867 0.000229128)
(0.000942773 0.00041662 0.000229128)
(0.000902874 0.000497203 0.000229128)
(0.000856105 0.000574001 0.000229128)
(0.00080282 0.000646431 0.000229128)
(0.000743425 0.000713941 0.000229128)
(0.000678372 0.000776019 0.000229128)
(0.000608155 0.000832189 0.000229128)
(0.000533311 0.000882027 0.000229128)
(0.000454408 0.000925152 0.000229128)
(0.000372047 0.000961235 0.000229128)
(0.000286854 0.000990003 0.000229128)
(0.000199477 0.00101124 0.000229128)
(0.000110583 0.00102477 0.000229128)
(2.08475e-05 0.00103051 0.000229128)
(-6.90473e-05 0.00102841 0.000229128)
(-0.000158417 0.00101848 0.000229128)
(-0.00024658 0.00100079 0.000229128)
(-0.000332867 0.000975496 0.000229128)
(-0.00041662 0.000942773 0.000229128)
(-0.000497203 0.000902874 0.000229128)
(-0.000574001 0.000856105 0.000229128)
(-0.000646431 0.00080282 0.000229128)
(-0.000713941 0.000743425 0.000229128)
(-0.000776018 0.000678372 0.000229128)
(-0.000832189 0.000608155 0.000229128)
(-0.000882027 0.000533311 0.000229128)
(-0.000925152 0.000454408 0.000229128)
(-0.000961235 0.000372047 0.000229128)
(-0.000990003 0.000286854 0.000229128)
(-0.00101124 0.000199477 0.000229128)
(-0.00102477 0.000110583 0.000229128)
(-0.00103051 2.08475e-05 0.000229128)
(-0.00102841 -6.90473e-05 0.000229128)
(-0.00101848 -0.000158417 0.000229128)
(-0.00100079 -0.00024658 0.000229128)
(-0.000975496 -0.000332867 0.000229128)
(-0.000942773 -0.00041662 0.000229128)
(-0.000902874 -0.000497203 0.000229128)
(-0.000856105 -0.000574001 0.000229128)
(-0.00080282 -0.000646431 0.000229128)
(-0.000743425 -0.000713941 0.000229128)
(-0.000678372 -0.000776019 0.000229128)
(-0.000608155 -0.000832189 0.000229128)
(-0.000533311 -0.000882027 0.000229128)
(-0.000454408 -0.000925152 0.000229128)
(-0.000372047 -0.000961235 0.000229128)
(-0.000286854 -0.000990003 0.000229128)
(-0.000199477 -0.00101124 0.000229128)
(-0.000110583 -0.00102477 0.000229128)
(-2.08475e-05 -0.00103051 0.000229128)
(6.90473e-05 -0.00102841 0.000229128)
(0.000158417 -0.00101848 0.000229128)
(0.000110346 -0.00108636 0.000266101)
(0.000204608 -0.00107261 0.000266101)
(0.000297313 -0.00105069 0.000266102)
(0.000387756 -0.00102078 0.000266102)
(0.000475247 -0.000983099 0.000266101)
(0.000559122 -0.000937938 0.000266101)
(0.000638741 -0.000885639 0.000266102)
(0.000713498 -0.000826598 0.000266101)
(0.000782825 -0.000761267 0.000266101)
(0.000846195 -0.000690142 0.000266101)
(0.000903125 -0.000613766 0.000266101)
(0.000953183 -0.000532718 0.000266101)
(0.000995984 -0.000447615 0.000266101)
(0.00103121 -0.000359105 0.000266101)
(0.00105858 -0.000267864 0.000266101)
(0.0010779 -0.000174584 0.000266101)
(0.00108901 -7.99746e-05 0.000266101)
(0.00109184 1.52439e-05 0.000266101)
(0.00108636 0.000110346 0.000266101)
(0.00107261 0.000204608 0.000266101)
(0.00105069 0.000297313 0.000266102)
(0.00102078 0.000387756 0.000266102)
(0.000983099 0.000475247 0.000266101)
(0.000937938 0.000559122 0.000266101)
(0.000885639 0.000638741 0.000266102)
(0.000826598 0.000713497 0.000266101)
(0.000761267 0.000782825 0.000266101)
(0.000690142 0.000846195 0.000266101)
(0.000613766 0.000903125 0.000266101)
(0.000532718 0.000953183 0.000266101)
(0.000447615 0.000995984 0.000266101)
(0.000359105 0.00103121 0.000266101)
(0.000267864 0.00105858 0.000266101)
(0.000174584 0.0010779 0.000266101)