/*--------------------------------*- C++ -*----------------------------------*\
| =========                 |                                                 |
| \\      /  F ield         | OpenFOAM: The Open Source CFD Toolbox           |
|  \\    /   O peration     | Version:  2312                                  |
|   \\  /    A nd           | Website:  www.openfoam.com                      |
|    \\/     M anipulation  |                                                 |
\*---------------------------------------------------------------------------*/
FoamFile
{
    version     2.0;
    format      ascii;
    arch        "LSB;label=32;scalar=64";
    class       volVectorField;
    location    "0.3";
    object      traction;
}
// * * * * * * * * * * * * * * * * * * * * * * * * * * * * * * * * * * * * * //

dimensions      [1 -1 -2 0 0 0 0];

internalField   uniform (0 0 0);

boundaryField
{
    fixed
    {
        type            calculated;
        value           nonuniform List<vector> 
108
(
(16.6927 7354.43 21722.1)
(-1260.64 7245.6 21722.1)
(-2499.67 6916.61 21722.1)
(-3662.77 6377.47 21722)
(-4714.55 5644.56 21722)
(-5623.08 4740.15 21722.1)
(-6360.77 3691.68 21722)
(-6905.2 2531.06 21722.1)
(-7239.8 1293.54 21722.1)
(-7354.43 16.6927 21722.1)
(-7245.6 -1260.64 21722.1)
(-6916.61 -2499.67 21722.1)
(-6377.47 -3662.77 21722)
(-5644.56 -4714.55 21722)
(-4740.15 -5623.08 21722.1)
(-3691.68 -6360.77 21722)
(-2531.06 -6905.2 21722.1)
(-1293.54 -7239.8 21722.1)
(-16.6927 -7354.43 21722.1)
(1260.64 -7245.6 21722.1)
(2499.67 -6916.61 21722.1)
(3662.77 -6377.47 21722)
(4714.55 -5644.56 21722)
(5623.08 -4740.15 21722.1)
(6360.77 -3691.68 21722)
(6905.2 -2531.06 21722.1)
(7239.8 -1293.54 21722.1)
(7354.43 -16.6927 21722.1)
(7245.6 1260.64 21722.1)
(6916.61 2499.67 21722.1)
(6377.47 3662.77 21722)
(5644.56 4714.55 21722)
(4740.15 5623.08 21722.1)
(3691.68 6360.77 21722)
(2531.06 6905.2 21722.1)
(1293.54 7239.8 21722.1)
(533.127 -58.0592 8514.41)
(535.111 35.3994 8514.42)
(520.836 127.773 8514.35)
(490.707 216.313 8514.42)
(445.66 298.268 8514.4)
(387.128 371.104 8514.35)
(316.853 432.668 8514.4)
(236.899 481.118 8514.41)
(149.754 514.945 8514.38)
(58.0591 533.127 8514.41)
(-35.3995 535.111 8514.42)
(-127.773 520.836 8514.35)
(-216.313 490.707 8514.42)
(-298.268 445.66 8514.4)
(-371.104 387.128 8514.35)
(-432.668 316.853 8514.4)
(-481.118 236.899 8514.41)
(-514.945 149.754 8514.38)
(-533.127 58.0592 8514.41)
(-535.111 -35.3994 8514.42)
(-520.836 -127.773 8514.35)
(-490.707 -216.313 8514.42)
(-445.66 -298.268 8514.4)
(-387.128 -371.104 8514.35)
(-316.853 -432.668 8514.39)
(-236.899 -481.118 8514.41)
(-149.754 -514.945 8514.38)
(-58.0592 -533.127 8514.41)
(35.3994 -535.111 8514.42)
(127.773 -520.836 8514.35)
(216.313 -490.707 8514.41)
(298.268 -445.66 8514.4)
(371.103 -387.128 8514.35)
(432.668 -316.853 8514.39)
(481.117 -236.899 8514.41)
(514.945 -149.754 8514.38)
(2022.81 -12080.3 9391)
(4089.8 -11545.5 9391)
(6032.54 -10659.9 9390.93)
(7791.98 -9450.45 9390.91)
(9314.63 -7953.81 9390.93)
(10554.3 -6215.52 9390.96)
(11473.3 -4288.35 9391)
(12043.6 -2230.87 9390.93)
(12248 -105.634 9390.98)
(12080.3 2022.81 9391)
(11545.5 4089.8 9391)
(10659.9 6032.54 9390.93)
(9450.45 7791.98 9390.91)
(7953.81 9314.63 9390.93)
(6215.52 10554.3 9390.96)
(4288.35 11473.3 9391)
(2230.87 12043.6 9390.93)
(105.633 12248 9390.98)
(-2022.81 12080.3 9391)
(-4089.8 11545.5 9391)
(-6032.54 10659.9 9390.93)
(-7791.98 9450.45 9390.91)
(-9314.63 7953.81 9390.93)
(-10554.3 6215.52 9390.96)
(-11473.3 4288.35 9391)
(-12043.6 2230.87 9390.93)
(-12248 105.633 9390.98)
(-12080.3 -2022.81 9391)
(-11545.5 -4089.8 9391)
(-10659.9 -6032.54 9390.92)
(-9450.45 -7791.98 9390.9)
(-7953.81 -9314.63 9390.93)
(-6215.52 -10554.3 9390.96)
(-4288.35 -11473.3 9390.99)
(-2230.87 -12043.6 9390.93)
(-105.634 -12248 9390.98)
)
;
    }
    inside
    {
        type            calculated;
        value           nonuniform List<vector> 
540
(
(-331.811 277.599 11.9733)
(-374.982 215.761 11.9736)
(-406.659 147.381 12.0177)
(-426.078 74.5582 11.9757)
(-432.578 -0.623121 12.0085)
(-425.898 -75.7251 12.0054)
(-406.312 -148.553 11.9725)
(-374.298 -216.79 12.0142)
(-331.016 -278.545 11.9476)
(-277.599 -331.813 11.9734)
(-215.761 -374.983 11.9737)
(-147.38 -406.66 12.0178)
(-74.5574 -426.079 11.9758)
(0.623938 -432.579 12.0086)
(75.7259 -425.899 12.0055)
(148.554 -406.312 11.9726)
(216.791 -374.298 12.0143)
(278.546 -331.016 11.9477)
(331.813 -277.599 11.9734)
(374.984 -215.761 11.9738)
(406.66 -147.38 12.0178)
(426.079 -74.5577 11.9758)
(432.579 0.623433 12.0086)
(425.898 75.7251 12.0055)
(406.312 148.553 11.9726)
(374.298 216.789 12.0143)
(331.016 278.544 11.9477)
(277.599 331.811 11.9734)
(215.761 374.982 11.9737)
(147.381 406.659 12.0178)
(74.5587 426.078 11.9758)
(-0.622168 432.577 12.0085)
(-75.7238 425.897 12.0054)
(-148.552 406.311 11.9725)
(-216.788 374.298 12.0142)
(-278.544 331.016 11.9476)
(11152.4 2296.69 974.251)
(10584.2 4198.33 974.176)
(9694.34 5972.48 974.192)
(8510 7565.25 974.192)
(7066.97 8927.99 974.202)
(5409.24 10019.4 974.207)
(3587.22 10806.6 974.201)
(1656.18 11265.3 974.222)
(-325.108 11381.7 974.162)
(-2296.69 11152.4 974.25)
(-4198.33 10584.2 974.176)
(-5972.48 9694.34 974.192)
(-7565.25 8510 974.192)
(-8927.99 7066.97 974.202)
(-10019.4 5409.24 974.207)
(-10806.6 3587.22 974.201)
(-11265.3 1656.18 974.222)
(-11381.7 -325.108 974.162)
(-11152.4 -2296.69 974.25)
(-10584.2 -4198.33 974.176)
(-9694.34 -5972.48 974.192)
(-8510 -7565.25 974.192)
(-7066.97 -8927.99 974.202)
(-5409.24 -10019.4 974.207)
(-3587.22 -10806.6 974.201)
(-1656.18 -11265.3 974.222)
(325.108 -11381.7 974.162)
(2296.69 -11152.4 974.25)
(4198.33 -10584.2 974.176)
(5972.48 -9694.34 974.192)
(7565.25 -8510 974.192)
(8927.99 -7066.97 974.202)
(10019.4 -5409.24 974.207)
(10806.6 -3587.22 974.201)
(11265.3 -1656.18 974.222)
(11381.7 325.108 974.162)
(12163 3884.08 957.621)
(11303.8 5937.19 957.581)
(10101 7809.76 957.612)
(8591.4 9445.12 957.604)
(6820.75 10793.5 957.613)
(4842.84 11814 957.623)
(2717.79 12475.5 957.599)
(510.101 12757.8 957.614)
(-1712.96 12652.6 957.596)
(-3884.08 12163 957.621)
(-5937.19 11303.8 957.581)
(-7809.76 10101 957.612)
(-9445.12 8591.4 957.604)
(-10793.5 6820.75 957.613)
(-11814 4842.84 957.623)
(-12475.5 2717.79 957.599)
(-12757.8 510.101 957.614)
(-12652.6 -1712.96 957.596)
(-12163 -3884.08 957.621)
(-11303.8 -5937.19 957.581)
(-10101 -7809.76 957.612)
(-8591.4 -9445.12 957.604)
(-6820.75 -10793.5 957.613)
(-4842.84 -11814 957.623)
(-2717.79 -12475.5 957.599)
(-510.101 -12757.8 957.614)
(1712.96 -12652.6 957.596)
(3884.08 -12163 957.621)
(5937.19 -11303.8 957.581)
(7809.76 -10101 957.612)
(9445.12 -8591.4 957.604)
(10793.5 -6820.75 957.613)
(11814 -4842.84 957.623)
(12475.5 -2717.79 957.599)
(12757.8 -510.101 957.614)
(12652.6 1712.96 957.596)
(13801.4 6001.26 881.093)
(12549.6 8306.7 881.165)
(10916.4 10359.7 881.134)
(8951.68 12098 881.132)
(6714.93 13468.7 881.125)
(4274.07 14430 881.124)
(1703.41 14953 881.12)
(-918.988 15021.6 881.127)
(-3513.59 14633.8 881.159)
(-6001.26 13801.4 881.093)
(-8306.7 12549.6 881.165)
(-10359.7 10916.4 881.134)
(-12098 8951.68 881.131)
(-13468.7 6714.93 881.125)
(-14430 4274.07 881.124)
(-14953 1703.41 881.119)
(-15021.6 -918.988 881.127)
(-14633.8 -3513.59 881.159)
(-13801.4 -6001.26 881.092)
(-12549.6 -8306.7 881.165)
(-10916.4 -10359.7 881.134)
(-8951.68 -12098 881.131)
(-6714.93 -13468.7 881.125)
(-4274.07 -14430 881.124)
(-1703.41 -14953 881.119)
(918.988 -15021.6 881.127)
(3513.59 -14633.8 881.159)
(6001.26 -13801.4 881.093)
(8306.7 -12549.6 881.165)
(10359.7 -10916.4 881.134)
(12098 -8951.68 881.131)
(13468.7 -6714.93 881.125)
(14430 -4274.07 881.124)
(14953 -1703.41 881.12)
(15021.6 918.988 881.127)
(14633.8 3513.59 881.159)
(14892.6 8218.61 814.752)
(13239 10679.8 814.821)
(11183.4 12816.5 814.765)
(8787.97 14563.8 814.782)
(6125.45 15868.5 814.785)
(3276.89 16691.2 814.77)
(328.693 17006.6 814.796)
(-2629.45 16805.4 814.748)
(-5507.76 16093.4 814.827)
(-8218.61 14892.6 814.752)
(-10679.8 13239 814.821)
(-12816.5 11183.4 814.765)
(-14563.8 8787.97 814.782)
(-15868.5 6125.45 814.785)
(-16691.2 3276.89 814.77)
(-17006.6 328.693 814.796)
(-16805.4 -2629.45 814.748)
(-16093.4 -5507.76 814.827)
(-14892.6 -8218.61 814.752)
(-13239 -10679.8 814.821)
(-11183.4 -12816.5 814.765)
(-8787.97 -14563.8 814.782)
(-6125.45 -15868.5 814.785)
(-3276.89 -16691.2 814.77)
(-328.693 -17006.6 814.796)
(2629.45 -16805.4 814.748)
(5507.76 -16093.4 814.827)
(8218.61 -14892.6 814.752)
(10679.8 -13239 814.821)
(12816.5 -11183.4 814.765)
(14563.8 -8787.97 814.782)
(15868.5 -6125.45 814.785)
(16691.2 -3276.89 814.77)
(17006.6 -328.693 814.796)
(16805.4 2629.45 814.748)
(16093.4 5507.76 814.827)
(15338.9 10259.4 784.41)
(13324.2 12767.1 784.454)
(10904.9 14887.1 784.45)
(8154.13 16554.3 784.43)
(5155.65 17718.9 784.42)
(2000.47 18345 784.419)
(-1215.45 18413.6 784.387)
(-4394.52 17922.9 784.395)
(-7440.08 16887.4 784.452)
(-10259.4 15338.9 784.41)
(-12767.1 13324.2 784.453)
(-14887.1 10904.9 784.45)
(-16554.3 8154.13 784.43)
(-17718.9 5155.65 784.42)
(-18345 2000.47 784.419)
(-18413.6 -1215.45 784.387)
(-17922.9 -4394.52 784.395)
(-16887.4 -7440.08 784.451)
(-15338.9 -10259.4 784.41)
(-13324.2 -12767.1 784.453)
(-10904.9 -14887.1 784.45)
(-8154.13 -16554.3 784.43)
(-5155.65 -17718.9 784.42)
(-2000.47 -18345 784.419)
(1215.45 -18413.6 784.387)
(4394.52 -17922.9 784.395)
(7440.08 -16887.4 784.452)
(10259.4 -15338.9 784.41)
(12767.1 -13324.2 784.453)
(14887.1 -10904.9 784.45)
(16554.3 -8154.13 784.43)
(17718.9 -5155.65 784.42)
(18345 -2000.47 784.419)
(18413.6 1215.45 784.387)
(17922.9 4394.52 784.395)
(16887.4 7440.08 784.452)
(14939.9 11668.3 854.518)
(12686.6 14085.1 854.531)
(10048 16074.2 854.523)
(7104.06 17574.8 854.546)
(3944.33 18541.5 854.528)
(664.736 18944.8 854.495)
(-2635.09 18772.3 854.533)
(-5854.83 18029.7 854.481)
(-8896.54 16738.8 854.54)
(-11668.3 14939.9 854.518)
(-14085.1 12686.6 854.531)
(-16074.2 10048 854.523)
(-17574.8 7104.06 854.546)
(-18541.5 3944.34 854.528)
(-18944.8 664.736 854.495)
(-18772.3 -2635.09 854.533)
(-18029.7 -5854.83 854.481)
(-16738.8 -8896.54 854.54)
(-14939.9 -11668.3 854.517)
(-12686.6 -14085.1 854.531)
(-10048 -16074.2 854.523)
(-7104.06 -17574.8 854.546)
(-3944.34 -18541.5 854.528)
(-664.736 -18944.8 854.495)
(2635.09 -18772.3 854.533)
(5854.83 -18029.7 854.481)
(8896.54 -16738.8 854.54)
(11668.3 -14939.9 854.518)
(14085.1 -12686.6 854.531)
(16074.2 -10048 854.523)
(17574.8 -7104.06 854.546)
(18541.5 -3944.33 854.529)
(18944.8 -664.736 854.496)
(18772.3 2635.09 854.533)
(18029.7 5854.83 854.481)
(16738.8 8896.54 854.54)
(13584.8 11889.5 1136.61)
(11313.8 14067.8 1136.66)
(8699.16 15818.6 1136.62)
(5820.06 17088.9 1136.66)
(2764.2 17840 1136.63)
(-375.648 18049 1136.6)
(-3504.18 17709.6 1136.66)
(-6526.12 16832 1136.6)
(-9349.89 15443.1 1136.63)
(-11889.5 13584.8 1136.61)
(-14067.8 11313.8 1136.66)
(-15818.6 8699.16 1136.62)
(-17088.9 5820.06 1136.66)
(-17840 2764.2 1136.63)
(-18049 -375.647 1136.6)
(-17709.6 -3504.18 1136.66)
(-16832 -6526.12 1136.6)
(-15443.1 -9349.89 1136.63)
(-13584.8 -11889.5 1136.61)
(-11313.8 -14067.8 1136.66)
(-8699.16 -15818.6 1136.62)
(-5820.06 -17088.9 1136.66)
(-2764.2 -17840 1136.63)
(375.648 -18049 1136.6)
(3504.18 -17709.6 1136.66)
(6526.12 -16832 1136.6)
(9349.89 -15443.1 1136.63)
(11889.5 -13584.8 1136.61)
(14067.8 -11313.8 1136.66)
(15818.6 -8699.16 1136.62)
(17088.9 -5820.06 1136.66)
(17840 -2764.2 1136.63)
(18049 375.648 1136.6)
(17709.6 3504.18 1136.66)
(16832 6526.12 1136.6)
(15443.1 9349.89 1136.63)
(11324.9 10413.4 1763.02)
(9344.57 12221.9 1763.1)
(7080.29 13658.9 1763.07)
(4600.92 14681 1763.03)
(1981.74 15256.8 1763.04)
(-697.669 15369.1 1763.03)
(-3355.91 15014.5 1763.05)
(-5912.13 14203.6 1763.04)
(-8288.93 12961.3 1763.07)
(-10413.4 11324.9 1763.02)
(-12221.9 9344.57 1763.1)
(-13658.9 7080.29 1763.07)
(-14681 4600.92 1763.04)
(-15256.8 1981.74 1763.04)
(-15369.1 -697.669 1763.03)
(-15014.5 -3355.91 1763.05)
(-14203.6 -5912.13 1763.04)
(-12961.3 -8288.93 1763.07)
(-11324.9 -10413.4 1763.02)
(-9344.57 -12221.9 1763.1)
(-7080.29 -13658.9 1763.07)
(-4600.92 -14681 1763.03)
(-1981.74 -15256.8 1763.04)
(697.669 -15369.1 1763.03)
(3355.91 -15014.5 1763.05)
(5912.14 -14203.6 1763.04)
(8288.93 -12961.3 1763.07)
(10413.4 -11324.9 1763.02)
(12221.9 -9344.57 1763.1)
(13658.9 -7080.29 1763.07)
(14681 -4600.92 1763.04)
(15256.8 -1981.74 1763.04)
(15369.1 697.669 1763.03)
(15014.5 3355.91 1763.05)
(14203.6 5912.13 1763.04)
(12961.3 8288.93 1763.07)
(8422.7 7005.67 2858.58)
(7078.24 8361.92 2858.61)
(5518.63 9463.99 2858.64)
(3791.4 10278.5 2858.6)
(1948.93 10780.8 2858.6)
(47.2947 10955.3 2858.63)
(-1855.76 10797.1 2858.6)
(-3702.49 10310.9 2858.62)
(-5436.82 9511.33 2858.63)
(-7005.67 8422.7 2858.58)
(-8361.92 7078.24 2858.61)
(-9463.99 5518.63 2858.64)
(-10278.5 3791.4 2858.6)
(-10780.8 1948.93 2858.6)
(-10955.3 47.2947 2858.63)
(-10797.1 -1855.76 2858.6)
(-10310.9 -3702.49 2858.62)
(-9511.33 -5436.82 2858.63)
(-8422.7 -7005.67 2858.58)
(-7078.24 -8361.92 2858.61)
(-5518.63 -9463.99 2858.64)
(-3791.4 -10278.5 2858.6)
(-1948.93 -10780.8 2858.6)
(-47.2944 -10955.3 2858.63)
(1855.76 -10797.1 2858.6)
(3702.49 -10310.9 2858.62)
(5436.82 -9511.33 2858.63)
(7005.67 -8422.7 2858.58)
(8361.92 -7078.24 2858.61)
(9463.99 -5518.63 2858.64)
(10278.5 -3791.4 2858.6)
(10780.8 -1948.93 2858.6)
(10955.3 -47.2946 2858.63)
(10797.1 1855.76 2858.6)
(10310.9 3702.49 2858.62)
(9511.33 5436.82 2858.63)
(5308.9 1755.43 4627.62)
(4923.48 2650.77 4627.6)
(4388.35 3465.33 4627.64)
(3719.95 4174.8 4627.6)
(2938.5 4757.32 4627.63)
(2067.75 5195.31 4627.64)
(1134.13 5475.51 4627.58)
(166.196 5589.11 4627.63)
(-806.953 5533.14 4627.62)
(-1755.43 5308.9 4627.62)
(-2650.77 4923.48 4627.6)
(-3465.33 4388.35 4627.64)
(-4174.8 3719.95 4627.6)
(-4757.32 2938.5 4627.63)
(-5195.32 2067.75 4627.64)
(-5475.52 1134.13 4627.58)
(-5589.11 166.195 4627.63)
(-5533.14 -806.954 4627.62)
(-5308.9 -1755.43 4627.62)
(-4923.48 -2650.77 4627.6)
(-4388.35 -3465.33 4627.64)
(-3719.95 -4174.8 4627.6)
(-2938.5 -4757.32 4627.63)
(-2067.75 -5195.32 4627.64)
(-1134.13 -5475.52 4627.58)
(-166.195 -5589.11 4627.63)
(806.954 -5533.14 4627.62)
(1755.43 -5308.9 4627.62)
(2650.77 -4923.48 4627.6)
(3465.33 -4388.35 4627.64)
(4174.8 -3719.95 4627.6)
(4757.32 -2938.5 4627.63)
(5195.32 -2067.75 4627.64)
(5475.52 -1134.13 4627.58)
(5589.11 -166.195 4627.63)
(5533.14 806.954 4627.62)
(2629.94 -4821.85 7463.86)
(3427.27 -4291.8 7463.78)
(4120.51 -3631.5 7463.82)
(4688.48 -2860.76 7463.78)
(5114.03 -2003.17 7463.8)
(5384.19 -1084.65 7463.79)
(5490.74 -133.339 7463.79)
(5430.58 822.128 7463.88)
(5205.29 1752.59 7463.84)
(4821.85 2629.94 7463.86)
(4291.8 3427.27 7463.78)
(3631.5 4120.51 7463.82)
(2860.76 4688.48 7463.78)
(2003.17 5114.03 7463.8)
(1084.65 5384.18 7463.79)
(133.337 5490.74 7463.79)
(-822.129 5430.58 7463.88)
(-1752.59 5205.29 7463.84)
(-2629.94 4821.85 7463.86)
(-3427.27 4291.8 7463.78)
(-4120.51 3631.5 7463.82)
(-4688.48 2860.76 7463.78)
(-5114.03 2003.17 7463.8)
(-5384.18 1084.65 7463.79)
(-5490.74 133.337 7463.79)
(-5430.58 -822.129 7463.88)
(-5205.29 -1752.59 7463.84)
(-4821.85 -2629.93 7463.86)
(-4291.8 -3427.27 7463.78)
(-3631.5 -4120.51 7463.82)
(-2860.76 -4688.48 7463.78)
(-2003.17 -5114.03 7463.8)
(-1084.65 -5384.18 7463.79)
(-133.337 -5490.74 7463.79)
(822.13 -5430.58 7463.88)
(1752.59 -5205.29 7463.84)
(1032.17 -11849.2 12285.9)
(3074.1 -11489.8 12285.7)
(5022.62 -10781.5 12285.8)
(6818.45 -9745.43 12285.7)
(8407.16 -8413.37 12285.7)
(9740.52 -6825.84 12285.8)
(10777.7 -5030.62 12285.7)
(11487.8 -3082.83 12286)
(11848.5 -1041.13 12285.9)
(11849.3 1032.17 12285.9)
(11489.8 3074.1 12285.7)
(10781.5 5022.62 12285.8)
(9745.43 6818.45 12285.7)
(8413.37 8407.16 12285.7)
(6825.84 9740.51 12285.8)
(5030.61 10777.7 12285.7)
(3082.83 11487.8 12285.9)
(1041.13 11848.5 12285.9)
(-1032.17 11849.3 12285.9)
(-3074.1 11489.8 12285.7)
(-5022.62 10781.5 12285.8)
(-6818.45 9745.43 12285.7)
(-8407.16 8413.37 12285.7)
(-9740.51 6825.84 12285.8)
(-10777.7 5030.62 12285.7)
(-11487.8 3082.83 12285.9)
(-11848.5 1041.13 12285.9)
(-11849.3 -1032.17 12285.9)
(-11489.8 -3074.1 12285.7)
(-10781.5 -5022.62 12285.8)
(-9745.43 -6818.45 12285.7)
(-8413.37 -8407.16 12285.7)
(-6825.84 -9740.51 12285.8)
(-5030.61 -10777.7 12285.7)
(-3082.83 -11487.8 12285.9)
(-1041.13 -11848.5 12285.9)
(2406.3 -13381 16241.2)
(4693.77 -12759.9 16241.2)
(6837.85 -11750.9 16241.1)
(8774.66 -10385 16241.1)
(10444.7 -8703.65 16241.3)
(11797.3 -6757.56 16241.1)
(12791.8 -4606.38 16241.4)
(13397.1 -2315.37 16241.3)
(13595.9 46.5737 16241.3)
(13381 2406.3 16241.2)
(12759.9 4693.77 16241.2)
(11750.9 6837.85 16241.1)
(10385 8774.66 16241.1)
(8703.65 10444.7 16241.3)
(6757.56 11797.3 16241.1)
(4606.38 12791.8 16241.4)
(2315.37 13397.1 16241.3)
(-46.5745 13595.9 16241.3)
(-2406.3 13381 16241.2)
(-4693.77 12759.9 16241.2)
(-6837.85 11750.9 16241.1)
(-8774.66 10385 16241.1)
(-10444.7 8703.65 16241.3)
(-11797.3 6757.56 16241.1)
(-12791.8 4606.38 16241.4)
(-13397.1 2315.37 16241.3)
(-13595.9 -46.5727 16241.3)
(-13381 -2406.3 16241.2)
(-12759.9 -4693.77 16241.2)
(-11750.9 -6837.86 16241.1)
(-10385 -8774.66 16241.1)
(-8703.65 -10444.7 16241.3)
(-6757.56 -11797.3 16241.1)
(-4606.38 -12791.8 16241.4)
(-2315.37 -13397.1 16241.3)
(46.5743 -13595.9 16241.3)
(5126.65 -6179.51 10300.5)
(6122.07 -5195.12 10299.8)
(6931.01 -4052.58 10298)
(7530.01 -2789.73 10304.9)
(7898.26 -1435.73 10292.7)
(8030.77 -46.7853 10307.1)
(7913.58 1351.51 10295.3)
(7560.79 2703.79 10301.9)
(6975.72 3976.05 10299.8)
(6179.51 5126.65 10300.4)
(5195.11 6122.07 10299.8)
(4052.58 6931.01 10298)
(2789.73 7530.01 10304.9)
(1435.73 7898.26 10292.6)
(46.784 8030.77 10307.1)
(-1351.51 7913.58 10295.3)
(-2703.79 7560.79 10301.9)
(-3976.05 6975.72 10299.8)
(-5126.65 6179.51 10300.5)
(-6122.07 5195.12 10299.8)
(-6931.01 4052.58 10298)
(-7530.01 2789.73 10304.9)
(-7898.27 1435.73 10292.6)
(-8030.78 46.7854 10307.1)
(-7913.59 -1351.51 10295.3)
(-7560.79 -2703.79 10301.9)
(-6975.72 -3976.05 10299.8)
(-6179.51 -5126.65 10300.5)
(-5195.12 -6122.07 10299.8)
(-4052.58 -6931.01 10298)
(-2789.73 -7530.01 10304.9)
(-1435.73 -7898.27 10292.6)
(-46.785 -8030.77 10307.1)
(1351.51 -7913.59 10295.3)
(2703.79 -7560.79 10301.9)
(3976.05 -6975.72 10299.8)
)
;
    }
    outside
    {
        type            calculated;
        value           nonuniform List<vector> 
540
(
(12930.1 1223.97 295.919)
(12521.1 3450.75 295.991)
(11731.7 5572.53 295.901)
(10585.8 7524.99 295.944)
(9118.21 9248.9 296.041)
(7373.63 10691.8 296.024)
(5405.06 11809.8 295.909)
(3272.24 12568.9 295.913)
(1039.9 12946.2 295.935)
(-1223.97 12930.1 295.919)
(-3450.75 12521.1 295.991)
(-5572.53 11731.7 295.901)
(-7524.99 10585.8 295.944)
(-9248.9 9118.21 296.041)
(-10691.8 7373.64 296.024)
(-11809.8 5405.06 295.908)
(-12568.9 3272.24 295.912)
(-12946.2 1039.9 295.935)
(-12930.1 -1223.97 295.918)
(-12521.1 -3450.75 295.99)
(-11731.7 -5572.53 295.901)
(-10585.8 -7524.99 295.943)
(-9118.21 -9248.9 296.04)
(-7373.63 -10691.8 296.024)
(-5405.06 -11809.8 295.908)
(-3272.24 -12568.9 295.912)
(-1039.9 -12946.2 295.935)
(1223.97 -12930.1 295.919)
(3450.75 -12521.1 295.991)
(5572.53 -11731.7 295.901)
(7524.99 -10585.8 295.944)
(9248.9 -9118.2 296.041)
(10691.8 -7373.63 296.024)
(11809.8 -5405.06 295.909)
(12568.9 -3272.24 295.913)
(12946.2 -1039.9 295.935)
(3017.23 148.817 118.733)
(2945.54 670.565 118.852)
(2784.41 1171.89 118.841)
(2538.54 1637.47 118.762)
(2215.64 2053.43 118.748)
(1825.39 2407.05 118.846)
(1379.68 2687.38 118.835)
(892.087 2886.22 118.805)
(377.317 2997.25 118.821)
(-148.817 3017.23 118.733)
(-670.565 2945.54 118.851)
(-1171.89 2784.41 118.841)
(-1637.47 2538.54 118.762)
(-2053.43 2215.64 118.748)
(-2407.05 1825.39 118.846)
(-2687.38 1379.68 118.835)
(-2886.22 892.087 118.805)
(-2997.25 377.317 118.821)
(-3017.23 -148.816 118.733)
(-2945.54 -670.565 118.851)
(-2784.41 -1171.89 118.84)
(-2538.54 -1637.47 118.762)
(-2215.64 -2053.43 118.748)
(-1825.39 -2407.05 118.846)
(-1379.68 -2687.38 118.835)
(-892.087 -2886.22 118.805)
(-377.317 -2997.25 118.821)
(148.816 -3017.23 118.733)
(670.565 -2945.54 118.851)
(1171.89 -2784.41 118.841)
(1637.47 -2538.54 118.762)
(2053.43 -2215.64 118.748)
(2407.05 -1825.39 118.846)
(2687.39 -1379.68 118.835)
(2886.22 -892.087 118.805)
(2997.25 -377.317 118.821)
(2980.41 450.326 244.401)
(2856.79 960.947 244.354)
(2646.62 1442.53 244.384)
(2355.86 1880.1 244.349)
(1993.65 2260.68 244.318)
(1570.82 2572.58 244.329)
(1100.19 2806.12 244.353)
(596.194 2954.61 244.364)
(74.0336 3013.19 244.453)
(-450.326 2980.41 244.401)
(-960.947 2856.79 244.353)
(-1442.53 2646.62 244.384)
(-1880.1 2355.86 244.349)
(-2260.68 1993.65 244.318)
(-2572.58 1570.82 244.329)
(-2806.12 1100.19 244.353)
(-2954.61 596.194 244.364)
(-3013.19 74.0337 244.453)
(-2980.41 -450.326 244.4)
(-2856.79 -960.947 244.353)
(-2646.62 -1442.53 244.384)
(-2355.86 -1880.1 244.349)
(-1993.65 -2260.68 244.318)
(-1570.82 -2572.58 244.329)
(-1100.19 -2806.12 244.353)
(-596.194 -2954.61 244.364)
(-74.0337 -3013.19 244.453)
(450.326 -2980.41 244.401)
(960.947 -2856.79 244.354)
(1442.53 -2646.62 244.384)
(1880.1 -2355.86 244.349)
(2260.68 -1993.65 244.318)
(2572.58 -1570.82 244.329)
(2806.12 -1100.19 244.353)
(2954.61 -596.194 244.364)
(3013.19 -74.0336 244.453)
(2588.48 805.389 721.593)
(2409.32 1242.68 721.619)
(2156.88 1642.13 721.615)
(1839.01 1991.76 721.607)
(1465.19 2280.87 721.685)
(1046.89 2500.64 721.625)
(596.761 2644.43 721.594)
(128.514 2707.79 721.553)
(-343.695 2689.01 721.619)
(-805.389 2588.48 721.593)
(-1242.68 2409.32 721.619)
(-1642.13 2156.88 721.615)
(-1991.76 1839.01 721.606)
(-2280.87 1465.19 721.685)
(-2500.64 1046.89 721.625)
(-2644.43 596.761 721.593)
(-2707.79 128.514 721.553)
(-2689.01 -343.695 721.619)
(-2588.48 -805.389 721.593)
(-2409.32 -1242.68 721.619)
(-2156.88 -1642.13 721.614)
(-1839.01 -1991.76 721.606)
(-1465.19 -2280.87 721.685)
(-1046.89 -2500.64 721.625)
(-596.761 -2644.43 721.594)
(-128.514 -2707.79 721.553)
(343.695 -2689.01 721.619)
(805.389 -2588.48 721.593)
(1242.68 -2409.32 721.619)
(1642.13 -2156.88 721.615)
(1991.76 -1839.01 721.607)
(2280.87 -1465.19 721.685)
(2500.64 -1046.89 721.625)
(2644.43 -596.761 721.594)
(2707.79 -128.514 721.553)
(2689.01 343.695 721.619)
(2256.39 1101.48 1205.36)
(2030.91 1476.66 1205.41)
(1743.54 1806.77 1205.41)
(1403.4 2082.17 1205.34)
(1020.47 2294.19 1205.39)
(606.569 2436.5 1205.4)
(174.281 2504.97 1205.39)
(-263.314 2496.95 1205.36)
(-692.966 2413.44 1205.38)
(-1101.48 2256.39 1205.36)
(-1476.66 2030.91 1205.41)
(-1806.77 1743.54 1205.41)
(-2082.17 1403.4 1205.34)
(-2294.19 1020.47 1205.39)
(-2436.5 606.569 1205.4)
(-2504.97 174.281 1205.39)
(-2496.95 -263.314 1205.36)
(-2413.44 -692.966 1205.38)
(-2256.39 -1101.48 1205.36)
(-2030.91 -1476.66 1205.41)
(-1743.54 -1806.77 1205.41)
(-1403.4 -2082.17 1205.34)
(-1020.47 -2294.19 1205.39)
(-606.569 -2436.5 1205.4)
(-174.281 -2504.97 1205.39)
(263.314 -2496.95 1205.36)
(692.966 -2413.44 1205.38)
(1101.48 -2256.39 1205.36)
(1476.66 -2030.91 1205.41)
(1806.77 -1743.54 1205.41)
(2082.17 -1403.4 1205.34)
(2294.19 -1020.47 1205.39)
(2436.5 -606.569 1205.4)
(2504.97 -174.281 1205.39)
(2496.95 263.314 1205.36)
(2413.44 692.966 1205.38)
(1830.6 1236.04 1672.38)
(1588.26 1535.26 1672.43)
(1297.45 1787.64 1672.44)
(967.372 1985.82 1672.38)
(607.813 2123.58 1672.37)
(229.806 2196.85 1672.41)
(-155.151 2203.44 1672.41)
(-535.414 2142.92 1672.45)
(-899.433 2017.52 1672.39)
(-1236.04 1830.6 1672.38)
(-1535.26 1588.26 1672.43)
(-1787.64 1297.45 1672.44)
(-1985.82 967.372 1672.38)
(-2123.58 607.813 1672.37)
(-2196.85 229.807 1672.41)
(-2203.44 -155.151 1672.41)
(-2142.92 -535.414 1672.45)
(-2017.52 -899.433 1672.39)
(-1830.6 -1236.04 1672.38)
(-1588.26 -1535.26 1672.43)
(-1297.45 -1787.64 1672.44)
(-967.372 -1985.82 1672.38)
(-607.813 -2123.58 1672.37)
(-229.807 -2196.85 1672.41)
(155.151 -2203.44 1672.41)
(535.414 -2142.92 1672.45)
(899.433 -2017.52 1672.39)
(1236.05 -1830.6 1672.38)
(1535.26 -1588.26 1672.43)
(1787.64 -1297.45 1672.44)
(1985.82 -967.372 1672.38)
(2123.58 -607.813 1672.37)
(2196.85 -229.806 1672.41)
(2203.44 155.151 1672.41)
(2142.92 535.415 1672.45)
(2017.52 899.433 1672.39)
(1282.92 1145.48 2144.76)
(1064.62 1350.94 2144.73)
(813.695 1515.1 2144.79)
(538.384 1633.64 2144.74)
(246.459 1702.08 2144.74)
(-52.8581 1718.96 2144.75)
(-350.55 1683.88 2144.72)
(-637.606 1597.22 2144.8)
(-905.327 1462.4 2144.77)
(-1145.48 1282.92 2144.76)
(-1350.94 1064.62 2144.73)
(-1515.1 813.695 2144.79)
(-1633.64 538.384 2144.74)
(-1702.08 246.459 2144.74)
(-1718.96 -52.8581 2144.75)
(-1683.88 -350.55 2144.72)
(-1597.22 -637.606 2144.8)
(-1462.4 -905.327 2144.77)
(-1282.92 -1145.48 2144.76)
(-1064.62 -1350.94 2144.73)
(-813.695 -1515.1 2144.79)
(-538.384 -1633.64 2144.74)
(-246.459 -1702.08 2144.74)
(52.8581 -1718.96 2144.75)
(350.55 -1683.88 2144.72)
(637.606 -1597.22 2144.8)
(905.327 -1462.4 2144.77)
(1145.48 -1282.92 2144.76)
(1350.94 -1064.62 2144.73)
(1515.1 -813.695 2144.79)
(1633.64 -538.384 2144.75)
(1702.08 -246.459 2144.74)
(1718.96 52.8582 2144.75)
(1683.88 350.55 2144.72)
(1597.22 637.606 2144.8)
(1462.4 905.327 2144.77)
(594.057 745.908 2670.26)
(455.488 837.726 2670.32)
(303.045 904.002 2670.32)
(141.508 943.023 2670.36)
(-24.4199 953.155 2670.36)
(-189.566 934.42 2670.35)
(-348.948 887.368 2670.3)
(-497.727 813.239 2670.36)
(-631.348 714.408 2670.31)
(-745.908 594.057 2670.26)
(-837.726 455.488 2670.32)
(-904.002 303.045 2670.32)
(-943.023 141.508 2670.36)
(-953.155 -24.4199 2670.36)
(-934.419 -189.566 2670.35)
(-887.368 -348.948 2670.3)
(-813.239 -497.727 2670.36)
(-714.408 -631.348 2670.31)
(-594.057 -745.908 2670.26)
(-455.488 -837.726 2670.32)
(-303.045 -904.002 2670.32)
(-141.508 -943.023 2670.36)
(24.42 -953.155 2670.36)
(189.566 -934.42 2670.35)
(348.948 -887.368 2670.3)
(497.727 -813.239 2670.36)
(631.348 -714.408 2670.31)
(745.908 -594.057 2670.26)
(837.726 -455.488 2670.32)
(904.002 -303.045 2670.32)
(943.023 -141.508 2670.36)
(953.155 24.42 2670.36)
(934.42 189.566 2670.35)
(887.368 348.948 2670.3)
(813.239 497.727 2670.36)
(714.408 631.349 2670.31)
(-235.307 -86.5911 3333.88)
(-216.656 -126.103 3333.87)
(-191.476 -161.828 3333.87)
(-160.471 -192.635 3333.86)
(-124.582 -217.578 3333.86)
(-84.906 -235.914 3333.86)
(-42.6497 -247.115 3333.86)
(0.892106 -250.709 3333.89)
(44.3842 -246.696 3333.9)
(86.5915 -235.307 3333.88)
(126.103 -216.656 3333.87)
(161.829 -191.476 3333.87)
(192.635 -160.471 3333.86)
(217.578 -124.582 3333.86)
(235.914 -84.9059 3333.86)
(247.115 -42.6496 3333.86)
(250.709 0.892192 3333.89)
(246.696 44.3843 3333.9)
(235.307 86.5914 3333.88)
(216.656 126.103 3333.87)
(191.476 161.829 3333.87)
(160.471 192.635 3333.86)
(124.582 217.578 3333.86)
(84.906 235.914 3333.86)
(42.6498 247.115 3333.86)
(-0.891914 250.708 3333.89)
(-44.384 246.695 3333.9)
(-86.5912 235.307 3333.88)
(-126.103 216.656 3333.87)
(-161.829 191.476 3333.87)
(-192.635 160.471 3333.86)
(-217.578 124.582 3333.86)
(-235.914 84.906 3333.86)
(-247.115 42.6497 3333.86)
(-250.708 -0.891948 3333.89)
(-246.695 -44.384 3333.9)
(-1121.84 -1486.21 4267.08)
(-846.774 -1658.51 4267.07)
(-545.887 -1780.31 4267.07)
(-228.417 -1847.97 4267.06)
(95.9386 -1859.62 4267.07)
(417.402 -1814.75 4267.1)
(726.187 -1714.7 4267.07)
(1012.87 -1562.46 4267.03)
(1268.83 -1362.88 4267.08)
(1486.21 -1121.84 4267.08)
(1658.51 -846.775 4267.07)
(1780.31 -545.887 4267.07)
(1847.97 -228.417 4267.06)
(1859.62 95.9387 4267.07)
(1814.75 417.402 4267.1)
(1714.7 726.187 4267.07)
(1562.46 1012.87 4267.03)
(1362.88 1268.83 4267.08)
(1121.84 1486.21 4267.08)
(846.775 1658.51 4267.07)
(545.887 1780.31 4267.07)
(228.417 1847.97 4267.06)
(-95.9386 1859.61 4267.07)
(-417.402 1814.75 4267.1)
(-726.187 1714.7 4267.07)
(-1012.87 1562.46 4267.03)
(-1268.83 1362.87 4267.08)
(-1486.21 1121.84 4267.08)
(-1658.51 846.775 4267.07)
(-1780.31 545.887 4267.07)
(-1847.97 228.417 4267.06)
(-1859.62 -95.9388 4267.07)
(-1814.75 -417.402 4267.1)
(-1714.7 -726.187 4267.07)
(-1562.46 -1012.87 4267.03)
(-1362.87 -1268.83 4267.08)
(-1754.58 -3350.42 5591.41)
(-1146.21 -3604.31 5591.42)
(-502.908 -3748.51 5591.4)
(155.689 -3778.82 5591.38)
(809.495 -3694.38 5591.38)
(1438.72 -3497.73 5591.4)
(2024.24 -3194.69 5591.38)
(2548.25 -2794.73 5591.38)
(2994.86 -2309.78 5591.43)
(3350.43 -1754.58 5591.41)
(3604.31 -1146.21 5591.42)
(3748.51 -502.907 5591.4)
(3778.82 155.689 5591.38)
(3694.38 809.495 5591.38)
(3497.73 1438.73 5591.4)
(3194.69 2024.24 5591.38)
(2794.73 2548.25 5591.38)
(2309.78 2994.86 5591.43)
(1754.58 3350.42 5591.41)
(1146.21 3604.31 5591.42)
(502.908 3748.51 5591.4)
(-155.689 3778.82 5591.38)
(-809.495 3694.38 5591.38)
(-1438.72 3497.73 5591.4)
(-2024.24 3194.69 5591.38)
(-2548.25 2794.73 5591.38)
(-2994.86 2309.78 5591.43)
(-3350.42 1754.58 5591.41)
(-3604.31 1146.21 5591.42)
(-3748.51 502.907 5591.4)
(-3778.82 -155.689 5591.38)
(-3694.38 -809.496 5591.38)
(-3497.73 -1438.73 5591.4)
(-3194.69 -2024.24 5591.38)
(-2794.73 -2548.25 5591.38)
(-2309.78 -2994.86 5591.43)
(-1545.63 -4831.8 7181.35)
(-683.173 -5026.79 7181.36)
(200.178 -5068.9 7181.34)
(1077.3 -4957.27 7181.36)
(1921.73 -4694.77 7181.32)
(2707.76 -4289.75 7181.32)
(3411.53 -3754.31 7181.33)
(4011.68 -3104.94 7181.3)
(4490.01 -2361.29 7181.43)
(4831.8 -1545.63 7181.35)
(5026.79 -683.172 7181.36)
(5068.9 200.179 7181.34)
(4957.27 1077.3 7181.36)
(4694.77 1921.74 7181.32)
(4289.75 2707.76 7181.32)
(3754.31 3411.53 7181.33)
(3104.94 4011.68 7181.3)
(2361.29 4490.01 7181.43)
(1545.63 4831.8 7181.35)
(683.173 5026.79 7181.36)
(-200.179 5068.9 7181.34)
(-1077.3 4957.27 7181.36)
(-1921.74 4694.77 7181.32)
(-2707.76 4289.75 7181.32)
(-3411.53 3754.31 7181.33)
(-4011.68 3104.94 7181.3)
(-4490.01 2361.29 7181.43)
(-4831.8 1545.63 7181.35)
(-5026.79 683.172 7181.36)
(-5068.9 -200.179 7181.34)
(-4957.27 -1077.3 7181.36)
(-4694.77 -1921.74 7181.32)
(-4289.75 -2707.76 7181.32)
(-3754.31 -3411.53 7181.33)
(-3104.94 -4011.68 7181.3)
(-2361.28 -4490 7181.42)
(143.508 -4003.06 7974.43)