# Probe 0 (0 0 0.007)
# Probe 1 (0 0 0)
# Probe 2 (0.019999 0 0.007)
# Probe 3 (0.019999 0 0)
# Probe 4 (0 0.003 0.007)
# Probe 5 (0 0.003 0)
# Probe 6 (0.019999 0.003 0.007)
# Probe 7 (0.019999 0.003 0)
# Probe 8 (0.01 0.0015 0.0035)
# Time        0             1             2             3             4             5             6             7             8            
0.00499484    0.0012048     0             0             0             0             0             0             0             0            
0.00998968    0.0012048     0             0             0             0             0             0             0             0            
0.0149845     0.0012048     0             0             0             0.0105765     0             0             0             0            
0.0199794     0.0012048     0             0             0             0.0105765     0             0             0             0            
0.0250162     0.0012048     0             0             0             0.0105765     0             0             0             0.0218436    
0.030011      0.0012048     0             0             0             0.0105765     0             0             0             0.0218436    
0.0350058     0.0012048     0             0.0327112     0             0.0105765     0             0.0339942     0             0.0218436    
0.0400007     0.0012048     0.0368943     0.0327112     0             0.0105765     0.0382965     0.0339942     0             0.0218436    
