/*--------------------------------*- C++ -*----------------------------------*\
| =========                 |                                                 |
| \\      /  F ield         | OpenFOAM: The Open Source CFD Toolbox           |
|  \\    /   O peration     | Version:  2312                                  |
|   \\  /    A nd           | Website:  www.openfoam.com                      |
|    \\/     M anipulation  |                                                 |
\*---------------------------------------------------------------------------*/
FoamFile
{
    version     2.0;
    format      ascii;
    arch        "LSB;label=32;scalar=64";
    class       volVectorField;
    location    "0.8";
    object      D;
}
// * * * * * * * * * * * * * * * * * * * * * * * * * * * * * * * * * * * * * //

dimensions      [0 1 0 0 0 0 0];

internalField   nonuniform List<vector> 
1620
(
(0.000838053 -5.11374e-05 -0.00226842)
(0.00114108 0.000215028 -0.00211627)
(0.00116615 0.000508165 -0.00170088)
(0.000983155 0.000695925 -0.00113884)
(0.000707679 0.000752766 -0.000574185)
(0.000417551 0.000712752 -0.000100823)
(0.000147826 0.000614474 0.00024706)
(-9.06323e-05 0.000486756 0.000474986)
(-0.00029789 0.000351828 0.000610293)
(-0.000477443 0.000225427 0.000691274)
(-0.00063099 0.000113694 0.000758793)
(-0.000754408 1.36981e-05 0.000848541)
(-0.000835333 -7.79661e-05 0.000984346)
(-0.000852539 -0.000149713 0.00117411)
(-0.000775367 -0.000165414 0.00141093)
(-0.00056271 -8.77551e-05 0.00167825)
(-0.000179357 5.81541e-05 0.00194901)
(0.000339827 0.000147611 0.00217517)
(0.000838053 5.11374e-05 0.00226842)
(0.00114108 -0.000215028 0.00211627)
(0.00116615 -0.000508165 0.00170088)
(0.000983155 -0.000695925 0.00113884)
(0.000707679 -0.000752766 0.000574185)
(0.000417551 -0.000712752 0.000100823)
(0.000147826 -0.000614474 -0.00024706)
(-9.06323e-05 -0.000486756 -0.000474986)
(-0.00029789 -0.000351828 -0.000610293)
(-0.000477443 -0.000225427 -0.000691274)
(-0.00063099 -0.000113694 -0.000758793)
(-0.000754408 -1.36981e-05 -0.000848541)
(-0.000835333 7.79661e-05 -0.000984346)
(-0.000852539 0.000149713 -0.00117411)
(-0.000775367 0.000165414 -0.00141093)
(-0.00056271 8.77551e-05 -0.00167825)
(-0.000179357 -5.81541e-05 -0.00194901)
(0.000339827 -0.000147611 -0.00217517)
(0.000385623 0.000387472 -0.00199429)
(0.000503788 0.000435308 -0.00180573)
(0.000505825 0.000537118 -0.00152371)
(0.000395535 0.000666021 -0.00117404)
(0.000205444 0.000789798 -0.000797985)
(-2.17687e-05 0.000886903 -0.000432123)
(-0.000248665 0.000944945 -9.79372e-05)
(-0.000448914 0.000959329 0.000198816)
(-0.000607599 0.000931403 0.000464575)
(-0.000717956 0.000863739 0.000712801)
(-0.000776831 0.000755516 0.000957708)
(-0.000781614 0.000602116 0.0012078)
(-0.000730463 0.00040112 0.00146033)
(-0.000625468 0.000164104 0.00169878)
(-0.000474529 -7.29575e-05 0.00189758)
(-0.000285839 -0.000256688 0.00203415)
(-6.17343e-05 -0.000350658 0.00209798)
(0.000180705 -0.000374176 0.00208624)
(0.000385623 -0.000387472 0.00199429)
(0.000503788 -0.000435308 0.00180573)
(0.000505825 -0.000537118 0.00152371)
(0.000395535 -0.000666021 0.00117404)
(0.000205444 -0.000789798 0.000797985)
(-2.17687e-05 -0.000886903 0.000432123)
(-0.000248665 -0.000944945 9.79372e-05)
(-0.000448914 -0.000959329 -0.000198816)
(-0.000607599 -0.000931403 -0.000464575)
(-0.000717956 -0.000863739 -0.000712801)
(-0.000776831 -0.000755516 -0.000957708)
(-0.000781614 -0.000602116 -0.0012078)
(-0.000730463 -0.00040112 -0.00146033)
(-0.000625468 -0.000164104 -0.00169878)
(-0.000474529 7.29575e-05 -0.00189758)
(-0.000285839 0.000256688 -0.00203415)
(-6.17343e-05 0.000350658 -0.00209798)
(0.000180705 0.000374176 -0.00208624)
(4.39804e-05 0.000612846 -0.00175296)
(4.91759e-05 0.000522715 -0.00155808)
(3.80401e-05 0.000505929 -0.00138342)
(-1.88988e-05 0.000615761 -0.00119788)
(-0.000146555 0.000826954 -0.000969198)
(-0.000335659 0.00107685 -0.000684208)
(-0.000550033 0.00130504 -0.000347613)
(-0.000748324 0.00147014 2.73509e-05)
(-0.000898804 0.00154899 0.000425877)
(-0.000982165 0.00153018 0.000832999)
(-0.000988241 0.00140919 0.00123187)
(-0.000913716 0.0011868 0.00160164)
(-0.000764478 0.000871194 0.0019161)
(-0.000561856 0.000483744 0.00214492)
(-0.000345745 6.7176e-05 0.00226103)
(-0.000162971 -0.000310065 0.0022546)
(-4.13541e-05 -0.000567873 0.0021426)
(2.13444e-05 -0.000659142 0.00196093)
(4.39804e-05 -0.000612846 0.00175296)
(4.91759e-05 -0.000522715 0.00155808)
(3.80401e-05 -0.000505929 0.00138342)
(-1.88988e-05 -0.000615761 0.00119788)
(-0.000146555 -0.000826954 0.000969198)
(-0.000335659 -0.00107685 0.000684208)
(-0.000550033 -0.00130504 0.000347613)
(-0.000748324 -0.00147014 -2.73509e-05)
(-0.000898804 -0.00154899 -0.000425877)
(-0.000982165 -0.00153018 -0.000832999)
(-0.000988241 -0.00140919 -0.00123187)
(-0.000913716 -0.0011868 -0.00160164)
(-0.000764478 -0.000871194 -0.0019161)
(-0.000561856 -0.000483744 -0.00214492)
(-0.000345745 -6.7176e-05 -0.00226103)
(-0.000162971 0.000310065 -0.0022546)
(-4.13541e-05 0.000567873 -0.0021426)
(2.13444e-05 0.000659142 -0.00196093)
(0.00257108 0.000580642 -0.00595078)
(0.00327388 0.000959763 -0.00532297)
(0.00311635 0.00140042 -0.00424341)
(0.00235838 0.00174825 -0.00296695)
(0.00135631 0.0019769 -0.0017182)
(0.000351306 0.00208884 -0.000630904)
(-0.000542906 0.00208427 0.000242974)
(-0.00129273 0.00197782 0.000909089)
(-0.00190192 0.00179999 0.00141516)
(-0.00238353 0.00157799 0.00183543)
(-0.0027425 0.00131758 0.00225029)
(-0.00296549 0.00100078 0.00272446)
(-0.00301662 0.000604585 0.00328774)
(-0.00283909 0.000140158 0.00392441)
(-0.00236274 -0.000303245 0.00458241)
(-0.00151906 -0.00056602 0.00520288)
(-0.00028055 -0.000559135 0.00572346)
(0.00122421 -0.000452587 0.00602005)
(0.00257108 -0.000580642 0.00595078)
(0.00327388 -0.000959763 0.00532297)
(0.00311635 -0.00140042 0.00424341)
(0.00235838 -0.00174825 0.00296695)
(0.00135631 -0.0019769 0.0017182)
(0.000351306 -0.00208884 0.000630904)
(-0.000542906 -0.00208427 -0.000242974)
(-0.00129273 -0.00197782 -0.000909089)
(-0.00190192 -0.00179999 -0.00141516)
(-0.00238353 -0.00157799 -0.00183543)
(-0.0027425 -0.00131758 -0.00225029)
(-0.00296549 -0.00100078 -0.00272446)
(-0.00301662 -0.000604585 -0.00328774)
(-0.00283909 -0.000140158 -0.00392441)
(-0.00236274 0.000303245 -0.00458241)
(-0.00151906 0.00056602 -0.00520288)
(-0.00028055 0.000559135 -0.00572346)
(0.00122421 0.000452587 -0.00602005)
(0.0017462 0.00124448 -0.00562598)
(0.00215455 0.00128198 -0.00509457)
(0.00209561 0.00148203 -0.0043172)
(0.00161538 0.00179209 -0.00336597)
(0.000883645 0.00213759 -0.00232999)
(7.18843e-05 0.00243527 -0.00129598)
(-0.00069603 0.0026213 -0.000326899)
(-0.00134976 0.00266969 0.000550305)
(-0.00185849 0.00258376 0.00134227)
(-0.00221151 0.0023751 0.00207628)
(-0.00240242 0.00204826 0.00278369)
(-0.00242046 0.00159852 0.0034844)
(-0.00225012 0.00102368 0.00417447)
(-0.00187989 0.000348467 0.00481945)
(-0.00131832 -0.000345526 0.00535968)
(-0.000605424 -0.000913629 0.00573525)
(0.000201318 -0.00122064 0.00591685)
(0.00103391 -0.00127043 0.00588894)
(0.0017462 -0.00124448 0.00562598)
(0.00215455 -0.00128198 0.00509457)
(0.00209561 -0.00148203 0.0043172)
(0.00161538 -0.00179209 0.00336597)
(0.000883645 -0.00213759 0.00232999)
(7.18843e-05 -0.00243527 0.00129598)
(-0.00069603 -0.0026213 0.000326899)
(-0.00134976 -0.00266969 -0.000550305)
(-0.00185849 -0.00258376 -0.00134227)
(-0.00221151 -0.0023751 -0.00207628)
(-0.00240242 -0.00204826 -0.00278369)
(-0.00242046 -0.00159852 -0.0034844)
(-0.00225012 -0.00102368 -0.00417447)
(-0.00187989 -0.000348467 -0.00481945)
(-0.00131832 0.000345526 -0.00535968)
(-0.000605424 0.000913629 -0.00573525)
(0.000201318 0.00122064 -0.00591685)
(0.00103391 0.00127043 -0.00588894)
(0.00103296 0.0016553 -0.00518874)
(0.00122751 0.00145425 -0.00478039)
(0.0012662 0.00147503 -0.00429657)
(0.0010435 0.00176895 -0.00365416)
(0.000562385 0.0022428 -0.00282698)
(-7.81345e-05 0.00274211 -0.00185418)
(-0.000748315 0.00313795 -0.000802536)
(-0.00134196 0.00335783 0.000272671)
(-0.00179233 0.0033715 0.00133684)
(-0.00206277 0.0031711 0.0023657)
(-0.00213338 0.00276179 0.0033349)
(-0.00199412 0.00215984 0.00421507)
(-0.00164818 0.00139488 0.00496989)
(-0.00112722 0.000516731 0.00555473)
(-0.00051292 -0.000389874 0.0059186)
(6.3049e-05 -0.00118671 0.00602208)
(0.000489886 -0.0016986 0.00588032)
(0.000782991 -0.00181705 0.00557757)
(0.00103296 -0.0016553 0.00518874)
(0.00122751 -0.00145425 0.00478039)
(0.0012662 -0.00147503 0.00429657)
(0.0010435 -0.00176895 0.00365416)
(0.000562385 -0.0022428 0.00282698)
(-7.81345e-05 -0.00274211 0.00185418)
(-0.000748315 -0.00313795 0.000802536)
(-0.00134196 -0.00335783 -0.000272671)
(-0.00179233 -0.0033715 -0.00133684)
(-0.00206277 -0.0031711 -0.0023657)
(-0.00213338 -0.00276179 -0.0033349)
(-0.00199412 -0.00215984 -0.00421507)
(-0.00164818 -0.00139488 -0.00496989)
(-0.00112722 -0.000516731 -0.00555473)
(-0.00051292 0.000389874 -0.0059186)
(6.3049e-05 0.00118671 -0.00602208)
(0.000489886 0.0016986 -0.00588032)
(0.000782991 0.00181705 -0.00557757)
(0.00517805 0.00206791 -0.0088896)
(0.00582601 0.0022833 -0.00790468)
(0.00498092 0.00252755 -0.0063663)
(0.00328457 0.00277124 -0.00461827)
(0.00134039 0.00300079 -0.00291408)
(-0.000481913 0.00315347 -0.00138464)
(-0.00202791 0.00317115 -8.26445e-05)
(-0.00326856 0.00304302 0.000994175)
(-0.00422341 0.00279411 0.00189474)
(-0.00491704 0.00244966 0.00269969)
(-0.00535839 0.00201046 0.00349599)
(-0.0055316 0.00145208 0.004349)
(-0.00539118 0.000748309 0.00527979)
(-0.00485505 -8.59367e-05 0.00625735)
(-0.00379658 -0.000944948 0.00721608)
(-0.0020744 -0.00162064 0.00809096)
(0.000312549 -0.00192991 0.00880786)
(0.00298563 -0.00195566 0.00915592)
(0.00517805 -0.00206791 0.0088896)
(0.00582601 -0.0022833 0.00790468)
(0.00498092 -0.00252755 0.0063663)
(0.00328457 -0.00277124 0.00461827)
(0.00134039 -0.00300079 0.00291408)
(-0.000481913 -0.00315347 0.00138464)
(-0.00202791 -0.00317115 8.26445e-05)
(-0.00326856 -0.00304302 -0.000994175)
(-0.00422341 -0.00279411 -0.00189474)
(-0.00491704 -0.00244966 -0.00269969)
(-0.00535839 -0.00201046 -0.00349599)
(-0.0055316 -0.00145208 -0.004349)
(-0.00539118 -0.000748309 -0.00527979)
(-0.00485505 8.59367e-05 -0.00625735)
(-0.00379658 0.000944948 -0.00721608)
(-0.0020744 0.00162064 -0.00809096)
(0.000312549 0.00192991 -0.00880786)
(0.00298563 0.00195566 -0.00915592)
(0.00399576 0.00230568 -0.00844705)
(0.00446382 0.00229847 -0.0076459)
(0.00404375 0.00248082 -0.00650674)
(0.00296614 0.00284599 -0.00511467)
(0.00155786 0.00329168 -0.00358769)
(0.000103863 0.003675 -0.00204825)
(-0.00120994 0.00389208 -0.000584333)
(-0.00229296 0.00390468 0.000765965)
(-0.00311372 0.00371762 0.00200529)
(-0.0036642 0.00334694 0.00315957)
(-0.00393766 0.00280172 0.00425919)
(-0.00391843 0.00208324 0.00532173)
(-0.00357995 0.00119877 0.00633912)
(-0.00288961 0.000187126 0.00727243)
(-0.00182258 -0.000848624 0.00805734)
(-0.00039547 -0.00172357 0.00862112)
(0.00126801 -0.00224351 0.00890712)
(0.00285469 -0.00237354 0.00887037)
(0.00399576 -0.00230568 0.00844705)
(0.00446382 -0.00229847 0.0076459)
(0.00404375 -0.00248082 0.00650674)
(0.00296614 -0.00284599 0.00511467)
(0.00155786 -0.00329168 0.00358769)
(0.000103863 -0.003675 0.00204825)
(-0.00120994 -0.00389208 0.000584333)
(-0.00229296 -0.00390468 -0.000765965)
(-0.00311372 -0.00371762 -0.00200529)
(-0.0036642 -0.00334694 -0.00315957)
(-0.00393766 -0.00280172 -0.00425919)
(-0.00391843 -0.00208324 -0.00532173)
(-0.00357995 -0.00119877 -0.00633912)
(-0.00288961 -0.000187126 -0.00727243)
(-0.00182258 0.000848624 -0.00805734)
(-0.00039547 0.00172357 -0.00862112)
(0.00126801 0.00224351 -0.00890712)
(0.00285469 0.00237354 -0.00887037)
(0.00297602 0.00243011 -0.00784361)
(0.00332523 0.00225499 -0.00728773)
(0.00328888 0.00236236 -0.00650743)
(0.00279035 0.0027952 -0.00543611)
(0.00189628 0.00341844 -0.00409191)
(0.000793677 0.0040212 -0.00257513)
(-0.000309349 0.00444522 -0.000992958)
(-0.00126413 0.00461468 0.00058626)
(-0.00198802 0.00450366 0.00212319)
(-0.00243796 0.00411172 0.00358666)
(-0.00258872 0.00345619 0.00494485)
(-0.00242288 0.00256999 0.00616374)
(-0.00193283 0.00150153 0.0072061)
(-0.00113776 0.000319266 0.00802822)
(-0.000117146 -0.00087121 0.00857427)
(0.00095938 -0.00189705 0.00878331)
(0.00187265 -0.00253771 0.00864571)
(0.0024926 -0.00266596 0.00828479)
(0.00297602 -0.00243011 0.00784361)
(0.00332523 -0.00225499 0.00728773)
(0.00328888 -0.00236236 0.00650743)
(0.00279035 -0.0027952 0.00543611)
(0.00189628 -0.00341844 0.00409191)
(0.000793677 -0.0040212 0.00257513)
(-0.000309349 -0.00444522 0.000992958)
(-0.00126413 -0.00461468 -0.00058626)
(-0.00198802 -0.00450366 -0.00212319)
(-0.00243796 -0.00411172 -0.00358666)
(-0.00258872 -0.00345619 -0.00494485)
(-0.00242288 -0.00256999 -0.00616374)
(-0.00193283 -0.00150153 -0.0072061)
(-0.00113776 -0.000319266 -0.00802822)
(-0.000117146 0.00087121 -0.00857427)
(0.00095938 0.00189705 -0.00878331)
(0.00187265 0.00253771 -0.00864571)
(0.0024926 0.00266596 -0.00828479)
(0.00756019 0.00376777 -0.010664)
(0.00783297 0.0034394 -0.00948929)
(0.00627013 0.00331478 -0.00779367)
(0.00372849 0.0033711 -0.00587986)
(0.000995671 0.00348935 -0.0039677)
(-0.00146451 0.00355124 -0.00218274)
(-0.00349285 0.00348153 -0.000577913)
(-0.00508199 0.00325482 0.000841508)
(-0.00626333 0.00288002 0.00210615)
(-0.00706211 0.00237064 0.00327285)
(-0.00748417 0.00172403 0.00440517)
(-0.00751099 0.000921507 0.00554899)
(-0.00709288 -5.09341e-05 0.00671332)
(-0.00613246 -0.00116771 0.00786867)
(-0.00446086 -0.00232623 0.00896848)
(-0.00187777 -0.00333508 0.00996428)
(0.00156452 -0.00396868 0.0107518)
(0.00514396 -0.00408097 0.0110906)
(0.00756019 -0.00376777 0.010664)
(0.00783297 -0.0034394 0.00948929)
(0.00627013 -0.00331478 0.00779367)
(0.00372849 -0.0033711 0.00587986)
(0.000995671 -0.00348935 0.0039677)
(-0.00146451 -0.00355124 0.00218274)
(-0.00349285 -0.00348153 0.000577913)
(-0.00508199 -0.00325482 -0.000841508)
(-0.00626333 -0.00288002 -0.00210615)
(-0.00706211 -0.00237064 -0.00327285)
(-0.00748417 -0.00172403 -0.00440517)
(-0.00751099 -0.000921507 -0.00554899)
(-0.00709288 5.09341e-05 -0.00671332)
(-0.00613246 0.00116771 -0.00786867)
(-0.00446086 0.00232623 -0.00896848)
(-0.00187777 0.00333508 -0.00996428)
(0.00156452 0.00396868 -0.0107518)
(0.00514396 0.00408097 -0.0110906)
(0.00623543 0.00334064 -0.0102443)
(0.00648246 0.00319219 -0.00929093)
(0.00562555 0.00329681 -0.00793416)
(0.00400457 0.00362356 -0.00626937)
(0.00203604 0.00401628 -0.00444756)
(7.80643e-05 0.00432019 -0.0026117)
(-0.00164985 0.00443906 -0.000846651)
(-0.00305049 0.00433623 0.000813605)
(-0.00409192 0.00401159 0.00236373)
(-0.00476408 0.00347801 0.00381421)
(-0.00505673 0.00274778 0.00518054)
(-0.00494983 0.00183147 0.00647041)
(-0.00441032 0.000748617 0.00767272)
(-0.00339346 -0.000452327 0.00875466)
(-0.0018543 -0.00166798 0.00966908)
(0.00020185 -0.00272086 0.0103599)
(0.0025873 -0.00339344 0.0107491)
(0.00480839 -0.00355167 0.0107369)
(0.00623543 -0.00334064 0.0102443)
(0.00648246 -0.00319219 0.00929093)
(0.00562555 -0.00329681 0.00793416)
(0.00400457 -0.00362356 0.00626937)
(0.00203604 -0.00401628 0.00444756)
(7.80643e-05 -0.00432019 0.0026117)
(-0.00164985 -0.00443906 0.000846651)
(-0.00305049 -0.00433623 -0.000813605)
(-0.00409192 -0.00401159 -0.00236373)
(-0.00476408 -0.00347801 -0.00381421)
(-0.00505673 -0.00274778 -0.00518054)
(-0.00494983 -0.00183147 -0.00647041)
(-0.00441032 -0.000748617 -0.00767272)
(-0.00339346 0.000452327 -0.00875466)
(-0.0018543 0.00166798 -0.00966908)
(0.00020185 0.00272086 -0.0103599)
(0.0025873 0.00339344 -0.0107491)
(0.00480839 0.00355167 -0.0107369)
(0.00497674 0.00316936 -0.00986001)
(0.00529583 0.00314951 -0.00913708)
(0.00513564 0.00336284 -0.00803212)
(0.0044053 0.00383199 -0.00655706)
(0.0031824 0.00441577 -0.00482005)
(0.00171248 0.00492331 -0.00296123)
(0.000266926 0.00522155 -0.00107984)
(-0.000971068 0.00524866 0.000774001)
(-0.00190601 0.00498314 0.00256599)
(-0.00248952 0.00442935 0.00426034)
(-0.00269205 0.00361302 0.00582117)
(-0.00249023 0.00257692 0.00721537)
(-0.00186812 0.00137795 0.00841148)
(-0.000836966 8.91934e-05 0.00937571)
(0.000519441 -0.00118514 0.0100674)
(0.00199743 -0.00228046 0.0104443)
(0.00332558 -0.00299495 0.0104972)
(0.00432144 -0.00323717 0.0102816)
(0.00497674 -0.00316936 0.00986001)
(0.00529583 -0.00314951 0.00913708)
(0.00513564 -0.00336284 0.00803212)
(0.0044053 -0.00383199 0.00655706)
(0.0031824 -0.00441577 0.00482005)
(0.00171248 -0.00492331 0.00296123)
(0.000266926 -0.00522155 0.00107984)
(-0.000971068 -0.00524866 -0.000774001)
(-0.00190601 -0.00498314 -0.00256599)
(-0.00248952 -0.00442935 -0.00426034)
(-0.00269205 -0.00361302 -0.00582117)
(-0.00249023 -0.00257692 -0.00721537)
(-0.00186812 -0.00137795 -0.00841148)
(-0.000836966 -8.91934e-05 -0.00937571)
(0.000519441 0.00118514 -0.0100674)
(0.00199743 0.00228046 -0.0104443)
(0.00332558 0.00299495 -0.0104972)
(0.00432144 0.00323717 -0.0102816)
(0.00845626 0.00485584 -0.0112259)
(0.00852724 0.00424152 -0.0100809)
(0.00671076 0.00381245 -0.0084671)
(0.00380942 0.00358974 -0.00659939)
(0.000704707 0.00344917 -0.0046743)
(-0.00207309 0.00328551 -0.00281307)
(-0.00435864 0.00303217 -0.00106324)
(-0.00614805 0.00264864 0.000564993)
(-0.0074624 0.00211844 0.00207878)
(-0.0083095 0.00143794 0.00349913)
(-0.0086801 0.000603741 0.00485383)
(-0.0085458 -0.00038793 0.0061631)
(-0.00784996 -0.00152579 0.0074285)
(-0.00648754 -0.00275553 0.00863775)
(-0.00428937 -0.00395101 0.00977911)
(-0.00111982 -0.00491182 0.0108084)
(0.00273953 -0.00542106 0.0115502)
(0.00631711 -0.00536348 0.0117376)
(0.00845626 -0.00485584 0.0112259)
(0.00852724 -0.00424152 0.0100809)
(0.00671076 -0.00381245 0.0084671)
(0.00380942 -0.00358974 0.00659939)
(0.000704707 -0.00344917 0.0046743)
(-0.00207309 -0.00328551 0.00281307)
(-0.00435864 -0.00303217 0.00106324)
(-0.00614805 -0.00264864 -0.000564993)
(-0.0074624 -0.00211844 -0.00207878)
(-0.0083095 -0.00143794 -0.00349913)
(-0.0086801 -0.000603741 -0.00485383)
(-0.0085458 0.00038793 -0.0061631)
(-0.00784996 0.00152579 -0.0074285)
(-0.00648754 0.00275553 -0.00863775)
(-0.00428937 0.00395101 -0.00977911)
(-0.00111982 0.00491182 -0.0108084)
(0.00273953 0.00542106 -0.0115502)
(0.00631711 0.00536348 -0.0117376)
(0.00722374 0.00413418 -0.0110634)
(0.00740068 0.00396863 -0.0100765)
(0.00639111 0.0039641 -0.00862801)
(0.00453152 0.00411164 -0.00685146)
(0.00229321 0.00428454 -0.00492448)
(7.74482e-05 0.00436877 -0.00298646)
(-0.00187837 0.00429545 -0.00110306)
(-0.0034661 0.00402845 0.000701669)
(-0.00464021 0.00355516 0.0024138)
(-0.00537686 0.00287975 0.00402383)
(-0.00565527 0.00201656 0.00552707)
(-0.00544887 0.000987913 0.00691859)
(-0.00472105 -0.000169533 0.00818645)
(-0.00342634 -0.00139035 0.00931114)
(-0.00153049 -0.00256317 0.0102709)
(0.000903282 -0.00352614 0.0110272)
(0.00355391 -0.00411351 0.0114866)
(0.00584327 -0.00426857 0.011527)
(0.00722374 -0.00413418 0.0110634)
(0.00740068 -0.00396863 0.0100765)
(0.00639111 -0.0039641 0.00862801)
(0.00453152 -0.00411164 0.00685146)
(0.00229321 -0.00428454 0.00492448)
(7.74482e-05 -0.00436877 0.00298646)
(-0.00187837 -0.00429545 0.00110306)
(-0.0034661 -0.00402845 -0.000701669)
(-0.00464021 -0.00355516 -0.0024138)
(-0.00537686 -0.00287975 -0.00402383)
(-0.00565527 -0.00201656 -0.00552707)
(-0.00544887 -0.000987913 -0.00691859)
(-0.00472105 0.000169533 -0.00818645)
(-0.00342634 0.00139035 -0.00931114)
(-0.00153049 0.00256317 -0.0102709)
(0.000903282 0.00352614 -0.0110272)
(0.00355391 0.00411351 -0.0114866)
(0.00584327 0.00426857 -0.011527)
(0.00605994 0.00374436 -0.0111268)
(0.00638857 0.00400326 -0.0102633)
(0.00618221 0.00432317 -0.00888159)
(0.00534979 0.00471487 -0.00712355)
(0.00396923 0.00510115 -0.00517084)
(0.00230398 0.00537217 -0.003166)
(0.000659529 0.00544868 -0.00117904)
(-0.000751832 0.00528732 0.000764724)
(-0.00181702 0.00486808 0.0026397)
(-0.00247757 0.00419503 0.00440896)
(-0.00269795 0.00329658 0.00603446)
(-0.00245172 0.00222058 0.00748437)
(-0.00172292 0.00103028 0.00873303)
(-0.000528388 -0.000195505 0.00975993)
(0.00102823 -0.00135837 0.0105518)
(0.0027031 -0.00233869 0.0111038)
(0.00419336 -0.00303782 0.0114185)
(0.00532027 -0.00346511 0.0114662)
(0.00605994 -0.00374436 0.0111268)
(0.00638857 -0.00400326 0.0102633)
(0.00618221 -0.00432317 0.00888159)
(0.00534979 -0.00471487 0.00712355)
(0.00396923 -0.00510115 0.00517084)
(0.00230398 -0.00537217 0.003166)
(0.000659529 -0.00544868 0.00117904)
(-0.000751832 -0.00528732 -0.000764724)
(-0.00181702 -0.00486808 -0.0026397)
(-0.00247757 -0.00419503 -0.00440896)
(-0.00269795 -0.00329658 -0.00603446)
(-0.00245172 -0.00222058 -0.00748437)
(-0.00172292 -0.00103028 -0.00873303)
(-0.000528388 0.000195505 -0.00975993)
(0.00102823 0.00135837 -0.0105518)
(0.0027031 0.00233869 -0.0111038)
(0.00419336 0.00303782 -0.0114185)
(0.00532027 0.00346511 -0.0114662)
(0.00818541 0.00526642 -0.0109695)
(0.00811679 0.00451373 -0.00997129)
(0.00632795 0.00387364 -0.00854718)
(0.00349886 0.00337439 -0.00684652)
(0.000426563 0.00293738 -0.00503715)
(-0.00236957 0.00250075 -0.00323725)
(-0.00470905 0.00202314 -0.00149233)
(-0.00656707 0.00146159 0.00018764)
(-0.00793714 0.000780613 0.00179645)
(-0.00879825 -3.86894e-05 0.00332723)
(-0.00911822 -0.000998793 0.0047756)
(-0.00885524 -0.00208433 0.00613814)
(-0.00795025 -0.00325115 0.00741176)
(-0.0063136 -0.0044085 0.00860024)
(-0.00383685 -0.00540874 0.00970712)
(-0.00053302 -0.00606859 0.0106708)
(0.00316633 -0.00624507 0.0113104)
(0.00637551 -0.00592736 0.0114329)
(0.00818541 -0.00526642 0.0109695)
(0.00811679 -0.00451373 0.00997129)
(0.00632795 -0.00387364 0.00854718)
(0.00349886 -0.00337439 0.00684652)
(0.000426563 -0.00293738 0.00503715)
(-0.00236957 -0.00250075 0.00323725)
(-0.00470905 -0.00202314 0.00149233)
(-0.00656707 -0.00146159 -0.00018764)
(-0.00793714 -0.000780613 -0.00179645)
(-0.00879825 3.86894e-05 -0.00332723)
(-0.00911822 0.000998793 -0.0047756)
(-0.00885524 0.00208433 -0.00613814)
(-0.00795025 0.00325115 -0.00741176)
(-0.0063136 0.0044085 -0.00860024)
(-0.00383685 0.00540874 -0.00970712)
(-0.00053302 0.00606859 -0.0106708)
(0.00316633 0.00624507 -0.0113104)
(0.00637551 0.00592736 -0.0114329)
(0.00720374 0.00448546 -0.0110387)
(0.00729348 0.00433565 -0.0101252)
(0.00628557 0.00424171 -0.00873677)
(0.00446956 0.00418283 -0.00701157)
(0.00225874 0.00408789 -0.0051297)
(2.99827e-05 0.00390575 -0.00322664)
(-0.00197396 0.00360585 -0.00136072)
(-0.00362493 0.00316044 0.000450361)
(-0.00485253 0.00254871 0.00218995)
(-0.00561094 0.00176647 0.0038355)
(-0.00586422 0.000828841 0.00536582)
(-0.00557891 -0.000230184 0.00676459)
(-0.00472095 -0.00135475 0.00801993)
(-0.00326155 -0.00246037 0.00912579)
(-0.00121181 -0.00343301 0.0100785)
(0.0012825 -0.00414963 0.010846)
(0.00384996 -0.00453215 0.0113365)
(0.00597574 -0.00460249 0.0114311)
(0.00720374 -0.00448546 0.0110387)
(0.00729348 -0.00433565 0.0101252)
(0.00628557 -0.00424171 0.00873677)
(0.00446956 -0.00418283 0.00701157)
(0.00225874 -0.00408789 0.0051297)
(2.99827e-05 -0.00390575 0.00322664)
(-0.00197396 -0.00360585 0.00136072)
(-0.00362493 -0.00316044 -0.000450361)
(-0.00485253 -0.00254871 -0.00218995)
(-0.00561094 -0.00176647 -0.0038355)
(-0.00586422 -0.000828841 -0.00536582)
(-0.00557891 0.000230184 -0.00676459)
(-0.00472095 0.00135475 -0.00801993)
(-0.00326155 0.00246037 -0.00912579)
(-0.00121181 0.00343301 -0.0100785)
(0.0012825 0.00414963 -0.010846)
(0.00384996 0.00453215 -0.0113365)
(0.00597574 0.00460249 -0.0114311)
(0.00624461 0.00406706 -0.0114654)
(0.00653825 0.00452177 -0.0105854)
(0.00631891 0.00490024 -0.00912887)
(0.00550809 0.00517222 -0.00729741)
(0.00415413 0.00531896 -0.00530616)
(0.00248352 0.00531783 -0.00329699)
(0.000797911 0.00514974 -0.00132815)
(-0.000669305 0.00479543 0.000587172)
(-0.00178304 0.00423941 0.00243201)
(-0.00247003 0.0034843 0.00417305)
(-0.00268716 0.00255753 0.00577307)
(-0.00240718 0.00150899 0.00720177)
(-0.00162119 0.000406575 0.00843958)
(-0.000363541 -0.000668424 0.00948073)
(0.00123484 -0.00163369 0.0103358)
(0.00291602 -0.00243128 0.011019)
(0.0043983 -0.00305941 0.0115151)
(0.00552156 -0.00358071 0.0117267)
(0.00624461 -0.00406706 0.0114654)
(0.00653825 -0.00452177 0.0105854)
(0.00631891 -0.00490024 0.00912887)
(0.00550809 -0.00517222 0.00729741)
(0.00415413 -0.00531896 0.00530616)
(0.00248352 -0.00531783 0.00329699)
(0.000797911 -0.00514974 0.00132815)
(-0.000669305 -0.00479543 -0.000587172)
(-0.00178304 -0.00423941 -0.00243201)
(-0.00247003 -0.0034843 -0.00417305)
(-0.00268716 -0.00255753 -0.00577307)
(-0.00240718 -0.00150899 -0.00720177)
(-0.00162119 -0.000406575 -0.00843958)
(-0.000363541 0.000668424 -0.00948073)
(0.00123484 0.00163369 -0.0103358)
(0.00291602 0.00243128 -0.011019)
(0.0043983 0.00305941 -0.0115151)
(0.00552156 0.00358071 -0.0117267)
(0.00704116 0.00528448 -0.010199)
(0.00696624 0.00437495 -0.00943347)
(0.00540194 0.00352716 -0.00827669)
(0.00287702 0.00276554 -0.00682271)
(5.30063e-05 0.00205209 -0.00520695)
(-0.00258892 0.00135775 -0.00355108)
(-0.0048471 0.000662346 -0.00191278)
(-0.00666998 -6.84509e-05 -0.000304164)
(-0.00802574 -0.00087504 0.00126669)
(-0.00886815 -0.00178363 0.00278111)
(-0.00914486 -0.00279426 0.00421523)
(-0.00880528 -0.00387446 0.00554872)
(-0.00779899 -0.00495268 0.00677346)
(-0.00607271 -0.00591396 0.00789827)
(-0.00359981 -0.00660943 0.00892607)
(-0.000505266 -0.00689664 0.0097953)
(0.00276988 -0.00671439 0.0103683)
(0.00551677 -0.00612529 0.010518)
(0.00704116 -0.00528448 0.010199)
(0.00696624 -0.00437495 0.00943347)
(0.00540194 -0.00352716 0.00827669)
(0.00287702 -0.00276554 0.00682271)
(5.30063e-05 -0.00205209 0.00520695)
(-0.00258892 -0.00135775 0.00355108)
(-0.0048471 -0.000662346 0.00191278)
(-0.00666998 6.84509e-05 0.000304164)
(-0.00802574 0.00087504 -0.00126669)
(-0.00886815 0.00178363 -0.00278111)
(-0.00914486 0.00279426 -0.00421523)
(-0.00880528 0.00387446 -0.00554872)
(-0.00779899 0.00495268 -0.00677346)
(-0.00607271 0.00591396 -0.00789827)
(-0.00359981 0.00660943 -0.00892607)
(-0.000505266 0.00689664 -0.0097953)
(0.00276988 0.00671439 -0.0103683)
(0.00551677 0.00612529 -0.010518)
(0.00634636 0.00455533 -0.0104043)
(0.00641351 0.00431755 -0.00964709)
(0.0055283 0.00407699 -0.00844165)
(0.0039163 0.00380292 -0.0068996)
(0.00190862 0.00345761 -0.00517662)
(-0.000170883 0.00302913 -0.00340381)
(-0.00208802 0.00251657 -0.00164791)
(-0.00369869 0.00190737 6.97756e-05)
(-0.00490967 0.00118243 0.00173328)
(-0.00565404 0.00033427 0.00331655)
(-0.00588171 -0.000621299 0.00479004)
(-0.00555536 -0.00164158 0.00613017)
(-0.00465079 -0.0026566 0.00732517)
(-0.00316806 -0.00357209 0.00837687)
(-0.00116997 -0.00428431 0.0092887)
(0.00114996 -0.00471497 0.010033)
(0.00344369 -0.00485334 0.0105323)
(0.00529427 -0.00476433 0.010685)
(0.00634636 -0.00455533 0.0104043)
(0.00641351 -0.00431755 0.00964709)
(0.0055283 -0.00407699 0.00844165)
(0.0039163 -0.00380292 0.0068996)
(0.00190862 -0.00345761 0.00517662)
(-0.000170883 -0.00302913 0.00340381)
(-0.00208802 -0.00251657 0.00164791)
(-0.00369869 -0.00190737 -6.97756e-05)
(-0.00490967 -0.00118243 -0.00173328)
(-0.00565404 -0.00033427 -0.00331655)
(-0.00588171 0.000621299 -0.00479004)
(-0.00555536 0.00164158 -0.00613017)
(-0.00465079 0.0026566 -0.00732517)
(-0.00316806 0.00357209 -0.00837687)
(-0.00116997 0.00428431 -0.0092887)
(0.00114996 0.00471497 -0.010033)
(0.00344369 0.00485334 -0.0105323)
(0.00529427 0.00476433 -0.010685)
(0.00561629 0.00420457 -0.0110712)
(0.00587453 0.00466706 -0.0102725)
(0.00568968 0.00498479 -0.00891145)
(0.0049914 0.005104 -0.00718732)
(0.00379746 0.00502961 -0.0053046)
(0.00227409 0.00478774 -0.00339904)
(0.000684801 0.00440273 -0.00153254)
(-0.000732685 0.00388059 0.000278077)
(-0.00182321 0.00321563 0.00201936)
(-0.00249708 0.00241164 0.00366376)
(-0.00270291 0.00149461 0.005178)
(-0.00241407 0.000514033 0.0065353)
(-0.00163254 -0.00046192 0.00772247)
(-0.000414401 -0.00135753 0.0087444)
(0.00108883 -0.00211307 0.0096212)
(0.00263102 -0.00271695 0.0103668)
(0.00397134 -0.00321918 0.0109508)
(0.0049768 -0.00370186 0.0112517)
(0.00561629 -0.00420457 0.0110712)
(0.00587453 -0.00466706 0.0102725)
(0.00568968 -0.00498479 0.00891145)
(0.0049914 -0.005104 0.00718732)
(0.00379746 -0.00502961 0.0053046)
(0.00227409 -0.00478774 0.00339904)
(0.000684801 -0.00440273 0.00153254)
(-0.000732685 -0.00388059 -0.000278077)
(-0.00182321 -0.00321563 -0.00201936)
(-0.00249708 -0.00241164 -0.00366376)
(-0.00270291 -0.00149461 -0.005178)
(-0.00241407 -0.000514033 -0.0065353)
(-0.00163254 0.00046192 -0.00772247)
(-0.000414401 0.00135753 -0.0087444)
(0.00108883 0.00211307 -0.0096212)
(0.00263102 0.00271695 -0.0103668)
(0.00397134 0.00321918 -0.0109508)
(0.0049768 0.00370186 -0.0112517)
(0.00526432 0.00516594 -0.00912868)
(0.00529338 0.00404865 -0.00864509)
(0.00407822 0.00296351 -0.00781236)
(0.0019818 0.00194355 -0.00667362)
(-0.000484359 0.00097877 -0.0053209)
(-0.00288626 5.70454e-05 -0.00386867)
(-0.00499098 -0.000831104 -0.0023956)
(-0.00671231 -0.00170905 -0.000929405)
(-0.00800061 -0.00261117 0.000519398)
(-0.00879768 -0.00356202 0.00193106)
(-0.00904262 -0.00455781 0.00327582)
(-0.00868558 -0.00555611 0.00452579)
(-0.00769347 -0.00647327 0.00566854)
(-0.00605387 -0.00719101 0.00671023)
(-0.00380351 -0.00757809 0.00765137)
(-0.00110962 -0.00753552 0.00844731)
(0.00165273 -0.00705221 0.00900806)
(0.00395 -0.0062151 0.00924864)
(0.00526432 -0.00516594 0.00912868)
(0.00529338 -0.00404865 0.00864509)
(0.00407822 -0.00296351 0.00781236)
(0.0019818 -0.00194355 0.00667362)
(-0.000484359 -0.00097877 0.0053209)
(-0.00288626 -5.70454e-05 0.00386867)
(-0.00499098 0.000831104 0.0023956)
(-0.00671231 0.00170905 0.000929405)
(-0.00800061 0.00261117 -0.000519398)
(-0.00879768 0.00356202 -0.00193106)
(-0.00904262 0.00455781 -0.00327582)
(-0.00868558 0.00555611 -0.00452579)
(-0.00769347 0.00647327 -0.00566854)
(-0.00605387 0.00719101 -0.00671023)
(-0.00380351 0.00757809 -0.00765137)
(-0.00110962 0.00753552 -0.00844731)
(0.00165273 0.00705221 -0.00900806)
(0.00395 0.0062151 -0.00924864)