/*--------------------------------*- C++ -*----------------------------------*\
| =========                 |                                                 |
| \\      /  F ield         | OpenFOAM: The Open Source CFD Toolbox           |
|  \\    /   O peration     | Version:  2312                                  |
|   \\  /    A nd           | Website:  www.openfoam.com                      |
|    \\/     M anipulation  |                                                 |
\*---------------------------------------------------------------------------*/
FoamFile
{
    version     2.0;
    format      ascii;
    arch        "LSB;label=32;scalar=64";
    class       volVectorField;
    location    "0.8";
    object      D_0;
}
// * * * * * * * * * * * * * * * * * * * * * * * * * * * * * * * * * * * * * //

dimensions      [0 1 0 0 0 0 0];

internalField   nonuniform List<vector> 
1620
(
(0.000819584 -6.75571e-05 -0.00225463)
(0.00112205 0.000194598 -0.00210676)
(0.00114985 0.000485848 -0.00169712)
(0.000970394 0.000674349 -0.00114086)
(0.000697502 0.000733135 -0.000580996)
(0.000408788 0.000695147 -0.000111395)
(0.000139787 0.000598829 0.000233483)
(-9.81229e-05 0.000473247 0.000458986)
(-0.000304695 0.000340756 0.000592382)
(-0.000483328 0.000217055 0.000671864)
(-0.000635772 0.000108244 0.000738151)
(-0.000758032 1.14323e-05 0.000826834)
(-0.000837939 -7.67498e-05 0.000961788)
(-0.000854568 -0.000144909 0.00115118)
(-0.00077777 -0.000157505 0.00138848)
(-0.000567175 -7.78775e-05 0.00165726)
(-0.000188093 6.91093e-05 0.00193017)
(0.000325497 0.000160364 0.00215864)
(0.000819584 6.75571e-05 0.00225463)
(0.00112205 -0.000194598 0.00210676)
(0.00114985 -0.000485848 0.00169712)
(0.000970394 -0.000674349 0.00114086)
(0.000697502 -0.000733135 0.000580996)
(0.000408788 -0.000695147 0.000111395)
(0.000139787 -0.000598829 -0.000233483)
(-9.81229e-05 -0.000473247 -0.000458986)
(-0.000304695 -0.000340756 -0.000592382)
(-0.000483328 -0.000217055 -0.000671864)
(-0.000635772 -0.000108244 -0.000738151)
(-0.000758032 -1.14323e-05 -0.000826834)
(-0.000837939 7.67498e-05 -0.000961788)
(-0.000854568 0.000144909 -0.00115118)
(-0.00077777 0.000157505 -0.00138848)
(-0.000567175 7.78775e-05 -0.00165726)
(-0.000188093 -6.91093e-05 -0.00193017)
(0.000325497 -0.000160364 -0.00215864)
(0.000373277 0.000370441 -0.00198698)
(0.000491196 0.000417437 -0.00180253)
(0.00049424 0.000518623 -0.00152469)
(0.000385572 0.000647494 -0.00117915)
(0.00019707 0.000771827 -0.000806903)
(-2.89233e-05 0.000869979 -0.000444418)
(-0.000255027 0.000929574 -0.000113165)
(-0.000454818 0.000946042 0.000181079)
(-0.000613241 0.000920685 0.00044472)
(-0.000723428 0.000856007 0.000691179)
(-0.000782181 0.000751167 0.00093467)
(-0.000786888 0.000601558 0.00118379)
(-0.000735724 0.000404709 0.00143599)
(-0.000630816 0.000171925 0.00167506)
(-0.000480204 -6.13724e-05 0.00187563)
(-0.000292412 -0.000242447 0.00201511)
(-7.01074e-05 -0.000335065 0.00208262)
(0.000169998 -0.000357907 0.00207491)
(0.000373277 -0.000370441 0.00198698)
(0.000491196 -0.000417437 0.00180253)
(0.00049424 -0.000518623 0.00152469)
(0.000385572 -0.000647494 0.00117915)
(0.00019707 -0.000771827 0.000806903)
(-2.89233e-05 -0.000869979 0.000444418)
(-0.000255027 -0.000929574 0.000113165)
(-0.000454818 -0.000946042 -0.000181079)
(-0.000613241 -0.000920685 -0.00044472)
(-0.000723428 -0.000856007 -0.000691179)
(-0.000782181 -0.000751167 -0.00093467)
(-0.000786888 -0.000601558 -0.00118379)
(-0.000735724 -0.000404709 -0.00143599)
(-0.000630816 -0.000171925 -0.00167506)
(-0.000480204 6.13724e-05 -0.00187563)
(-0.000292412 0.000242447 -0.00201511)
(-7.01074e-05 0.000335065 -0.00208262)
(0.000169998 0.000357907 -0.00207491)
(3.71904e-05 0.000597428 -0.00175395)
(4.18243e-05 0.000509245 -0.001563)
(3.01295e-05 0.000493205 -0.00139153)
(-2.69035e-05 0.000602663 -0.00120886)
(-0.000153944 0.000813237 -0.000982951)
(-0.000341959 0.00106309 -0.000700625)
(-0.000555243 0.00129216 -0.000366484)
(-0.00075279 0.00145902 6.29899e-06)
(-0.000902964 0.00154037 0.000402941)
(-0.000986396 0.00152469 0.000808537)
(-0.000992818 0.00140739 0.00120641)
(-0.000918821 0.0011892 0.00157598)
(-0.000770176 0.000878076 0.00189137)
(-0.000568047 0.000495049 0.00212248)
(-0.000352164 8.23154e-05 0.00224224)
(-0.00016935 -0.000292327 0.00224048)
(-4.76675e-05 -0.000549333 0.00213365)
(1.49071e-05 -0.000641633 0.00195717)
(3.71904e-05 -0.000597428 0.00175395)
(4.18243e-05 -0.000509245 0.001563)
(3.01295e-05 -0.000493205 0.00139153)
(-2.69035e-05 -0.000602663 0.00120886)
(-0.000153944 -0.000813237 0.000982951)
(-0.000341959 -0.00106309 0.000700625)
(-0.000555243 -0.00129216 0.000366484)
(-0.00075279 -0.00145902 -6.29899e-06)
(-0.000902964 -0.00154037 -0.000402941)
(-0.000986396 -0.00152469 -0.000808537)
(-0.000992818 -0.00140739 -0.00120641)
(-0.000918821 -0.0011892 -0.00157598)
(-0.000770176 -0.000878076 -0.00189137)
(-0.000568047 -0.000495049 -0.00212248)
(-0.000352164 -8.23154e-05 -0.00224224)
(-0.00016935 0.000292327 -0.00224048)
(-4.76675e-05 0.000549333 -0.00213365)
(1.49071e-05 0.000641633 -0.00195717)
(0.0025181 0.000528166 -0.00592587)
(0.00322184 0.000902934 -0.00531034)
(0.00307426 0.00134297 -0.00424385)
(0.00232775 0.00169383 -0.00297964)
(0.00133394 0.00192667 -0.0017414)
(0.000333429 0.00204289 -0.000663023)
(-0.000558611 0.00204309 0.000203247)
(-0.00130704 0.00194238 0.00086298)
(-0.00191473 0.00177126 0.0013638)
(-0.00239454 0.00155681 0.00177969)
(-0.00275163 0.00130485 0.0021908)
(-0.00297307 0.000997639 0.00266184)
(-0.00302344 0.000612401 0.00322304)
(-0.00284654 0.000159962 0.00385959)
(-0.00237314 -0.000271824 0.00452043)
(-0.00153626 -0.00052572 0.00514716)
(-0.000309554 -0.000514082 0.00567687)
(0.00118073 -0.00040473 0.0059843)
(0.0025181 -0.000528166 0.00592587)
(0.00322184 -0.000902934 0.00531034)
(0.00307426 -0.00134297 0.00424385)
(0.00232775 -0.00169383 0.00297964)
(0.00133394 -0.00192667 0.0017414)
(0.000333429 -0.00204289 0.000663023)
(-0.000558611 -0.00204309 -0.000203247)
(-0.00130704 -0.00194238 -0.00086298)
(-0.00191473 -0.00177126 -0.0013638)
(-0.00239454 -0.00155681 -0.00177969)
(-0.00275163 -0.00130485 -0.0021908)
(-0.00297307 -0.000997639 -0.00266184)
(-0.00302344 -0.000612401 -0.00322304)
(-0.00284654 -0.000159962 -0.00385959)
(-0.00237314 0.000271824 -0.00452043)
(-0.00153626 0.00052572 -0.00514716)
(-0.000309554 0.000514082 -0.00567687)
(0.00118073 0.00040473 -0.0059843)
(0.00170156 0.00119319 -0.00560848)
(0.00210879 0.00123076 -0.00508932)
(0.00205409 0.00143118 -0.00432375)
(0.0015807 0.00174225 -0.00338355)
(0.000855529 0.00208943 -0.00235768)
(4.86491e-05 0.00238986 -0.00133277)
(-0.000716189 0.00258023 -0.000371677)
(-0.00136813 0.00263465 0.000498657)
(-0.00187577 0.00255618 0.00128484)
(-0.00222807 0.00235616 0.00201415)
(-0.00241857 0.00203904 0.00271799)
(-0.00243658 0.00160005 0.00341654)
(-0.00226678 0.00103686 0.00410635)
(-0.00189789 0.00037365 0.00475358)
(-0.00133881 -0.000309184 0.0052991)
(-0.000630041 -0.000868746 0.00568298)
(0.000170396 -0.00117115 0.00587513)
(0.000995149 -0.00121959 0.00585912)
(0.00170156 -0.00119319 0.00560848)
(0.00210879 -0.00123076 0.00508932)
(0.00205409 -0.00143118 0.00432375)
(0.0015807 -0.00174225 0.00338355)
(0.000855529 -0.00208943 0.00235768)
(4.86491e-05 -0.00238986 0.00133277)
(-0.000716189 -0.00258023 0.000371677)
(-0.00136813 -0.00263465 -0.000498657)
(-0.00187577 -0.00255618 -0.00128484)
(-0.00222807 -0.00235616 -0.00201415)
(-0.00241857 -0.00203904 -0.00271799)
(-0.00243658 -0.00160005 -0.00341654)
(-0.00226678 -0.00103686 -0.00410635)
(-0.00189789 -0.00037365 -0.00475358)
(-0.00133881 0.000309184 -0.0052991)
(-0.000630041 0.000868746 -0.00568298)
(0.000170396 0.00117115 -0.00587513)
(0.000995149 0.00121959 -0.00585912)
(0.000996726 0.00160784 -0.00518252)
(0.00118734 0.00141058 -0.00478555)
(0.00122452 0.0014329 -0.00431207)
(0.00100398 0.0017264 -0.00367946)
(0.000527661 0.0021997 -0.00286179)
(-0.000107506 0.00270025 -0.00189786)
(-0.000773426 0.00309984 -0.000854055)
(-0.00136444 0.00332577 0.000214412)
(-0.00181359 0.00334738 0.00127294)
(-0.00208382 0.00315648 0.00229744)
(-0.00215488 0.00275793 0.003264)
(-0.00201654 0.00216761 0.00414377)
(-0.00167192 0.0014146 0.00490095)
(-0.00115259 0.000547967 0.00549122)
(-0.00053998 -0.000348518 0.00586361)
(3.45963e-05 -0.0011379 0.00597818)
(0.000460133 -0.00164638 0.00584888)
(0.000750801 -0.0017659 0.00555881)
(0.000996726 -0.00160784 0.00518252)
(0.00118734 -0.00141058 0.00478555)
(0.00122452 -0.0014329 0.00431207)
(0.00100398 -0.0017264 0.00367946)
(0.000527661 -0.0021997 0.00286179)
(-0.000107506 -0.00270025 0.00189786)
(-0.000773426 -0.00309984 0.000854055)
(-0.00136444 -0.00332577 -0.000214412)
(-0.00181359 -0.00334738 -0.00127294)
(-0.00208382 -0.00315648 -0.00229744)
(-0.00215488 -0.00275793 -0.003264)
(-0.00201654 -0.00216761 -0.00414377)
(-0.00167192 -0.0014146 -0.00490095)
(-0.00115259 -0.000547967 -0.00549122)
(-0.00053998 0.000348518 -0.00586361)
(3.45963e-05 0.0011379 -0.00597818)
(0.000460133 0.00164638 -0.00584888)
(0.000750801 0.0017659 -0.00555881)
(0.00508134 0.0019769 -0.00885791)
(0.0057364 0.00219146 -0.0078919)
(0.00491108 0.00243868 -0.00637239)
(0.00323485 0.00268843 -0.00464134)
(0.00130452 0.00292477 -0.00295178)
(-0.00051037 0.0030846 -0.00143532)
(-0.00205268 0.00311059 -0.000145013)
(-0.00329102 0.00299241 0.000921536)
(-0.00424386 0.00275498 0.00181334)
(-0.00493577 0.00242344 0.00261095)
(-0.00537607 0.00199866 0.0034013)
(-0.00554936 0.00145642 0.00425002)
(-0.00541053 0.000770543 0.00517889)
(-0.00487796 -4.46371e-05 0.00615794)
(-0.00382621 -0.000884988 0.00712248)
(-0.00211624 -0.00154525 0.00800768)
(0.000251399 -0.00184514 0.00873893)
(0.00290228 -0.00186727 0.00910512)
(0.00508134 -0.0019769 0.00885791)
(0.0057364 -0.00219146 0.0078919)
(0.00491108 -0.00243868 0.00637239)
(0.00323485 -0.00268843 0.00464134)
(0.00130452 -0.00292477 0.00295178)
(-0.00051037 -0.0030846 0.00143532)
(-0.00205268 -0.00311059 0.000145013)
(-0.00329102 -0.00299241 -0.000921536)
(-0.00424386 -0.00275498 -0.00181334)
(-0.00493577 -0.00242344 -0.00261095)
(-0.00537607 -0.00199866 -0.0034013)
(-0.00554936 -0.00145642 -0.00425002)
(-0.00541053 -0.000770543 -0.00517889)
(-0.00487796 4.46371e-05 -0.00615794)
(-0.00382621 0.000884988 -0.00712248)
(-0.00211624 0.00154525 -0.00800768)
(0.000251399 0.00184514 -0.00873893)
(0.00290228 0.00186727 -0.00910512)
(0.00391004 0.0022214 -0.00842376)
(0.00437801 0.00221604 -0.00764209)
(0.00396705 0.00240079 -0.00652113)
(0.00290257 0.00276894 -0.00514565)
(0.00150657 0.00321857 -0.00363338)
(6.15765e-05 0.00360762 -0.00210681)
(-0.00124654 0.00383272 -0.000654214)
(-0.00232616 0.00385559 0.000686156)
(-0.00314489 0.00368074 0.00191703)
(-0.0036943 0.00332392 0.00306457)
(-0.0039676 0.00279403 0.00415941)
(-0.00394922 0.00209217 0.00521961)
(-0.00361282 0.00122529 0.00623766)
(-0.00292611 0.000231466 0.00717528)
(-0.00186489 -0.000787586 0.00796855)
(-0.000446701 -0.0016491 0.00854465)
(0.00120447 -0.002161 0.00884614)
(0.00277788 -0.00228856 0.00882727)
(0.00391004 -0.0022214 0.00842376)
(0.00437801 -0.00221604 0.00764209)
(0.00396705 -0.00240079 0.00652113)
(0.00290257 -0.00276894 0.00514565)
(0.00150657 -0.00321857 0.00363338)
(6.15765e-05 -0.00360762 0.00210681)
(-0.00124654 -0.00383272 0.000654214)
(-0.00232616 -0.00385559 -0.000686156)
(-0.00314489 -0.00368074 -0.00191703)
(-0.0036943 -0.00332392 -0.00306457)
(-0.0039676 -0.00279403 -0.00415941)
(-0.00394922 -0.00209217 -0.00521961)
(-0.00361282 -0.00122529 -0.00623766)
(-0.00292611 -0.000231466 -0.00717528)
(-0.00186489 0.000787586 -0.00796855)
(-0.000446701 0.0016491 -0.00854465)
(0.00120447 0.002161 -0.00884614)
(0.00277788 0.00228856 -0.00882727)
(0.00290123 0.00235455 -0.00783244)
(0.0032427 0.00218351 -0.00729495)
(0.00320505 0.00229341 -0.00653226)
(0.00271261 0.00272713 -0.00547719)
(0.0018291 0.00335188 -0.00414751)
(0.000737094 0.00395904 -0.00264305)
(-0.000358054 0.00439072 -0.00107118)
(-0.00130797 0.00457054 0.00049919)
(-0.0020293 0.00447216 0.00202872)
(-0.00247827 0.00409473 0.00348673)
(-0.00262919 0.00345509 0.00484203)
(-0.00246446 0.00258556 0.00606115)
(-0.0019765 0.00153386 0.00710731)
(-0.00118462 0.00036762 0.00793712)
(-0.000168345 -0.000808603 0.00849477)
(0.000903182 -0.00182349 0.00871891)
(0.00181136 -0.00245825 0.00859874)
(0.00242575 -0.00258637 0.00825567)
(0.00290123 -0.00235455 0.00783244)
(0.0032427 -0.00218351 0.00729495)
(0.00320505 -0.00229341 0.00653226)
(0.00271261 -0.00272713 0.00547719)
(0.0018291 -0.00335188 0.00414751)
(0.000737094 -0.00395904 0.00264305)
(-0.000358054 -0.00439072 0.00107118)
(-0.00130797 -0.00457054 -0.00049919)
(-0.0020293 -0.00447216 -0.00202872)
(-0.00247827 -0.00409473 -0.00348673)
(-0.00262919 -0.00345509 -0.00484203)
(-0.00246446 -0.00258556 -0.00606115)
(-0.0019765 -0.00153386 -0.00710731)
(-0.00118462 -0.00036762 -0.00793712)
(-0.000168345 0.000808603 -0.00849477)
(0.000903182 0.00182349 -0.00871891)
(0.00181136 0.00245825 -0.00859874)
(0.00242575 0.00258637 -0.00825567)
(0.00742454 0.00364821 -0.0106286)
(0.00771256 0.00332456 -0.00947932)
(0.00617592 0.00320535 -0.00780757)
(0.00365792 0.00326898 -0.00591438)
(0.000939961 0.0033964 -0.00401954)
(-0.00151251 0.00346902 -0.00224988)
(-0.00353631 0.00341182 -0.000659212)
(-0.00512194 0.00319956 0.000747317)
(-0.00630053 0.00284108 0.00200081)
(-0.00709777 0.00234977 0.00315847)
(-0.00751999 0.00172289 0.00428422)
(-0.00754905 0.00094168 0.00542438)
(-0.00713555 -8.23107e-06 0.00658862)
(-0.00618262 -0.0011021 0.00774806)
(-0.0045227 -0.00223885 0.00885633)
(-0.00195795 -0.00322921 0.00986476)
(0.00145929 -0.00385021 0.0106694)
(0.00501552 -0.00395832 0.0110299)
(0.00742454 -0.00364821 0.0106286)
(0.00771256 -0.00332456 0.00947932)
(0.00617592 -0.00320535 0.00780757)
(0.00365792 -0.00326898 0.00591438)
(0.000939961 -0.0033964 0.00401954)
(-0.00151251 -0.00346902 0.00224988)
(-0.00353631 -0.00341182 0.000659212)
(-0.00512194 -0.00319956 -0.000747317)
(-0.00630053 -0.00284108 -0.00200081)
(-0.00709777 -0.00234977 -0.00315847)
(-0.00751999 -0.00172289 -0.00428422)
(-0.00754905 -0.00094168 -0.00542438)
(-0.00713555 8.23107e-06 -0.00658862)
(-0.00618262 0.0011021 -0.00774806)
(-0.0045227 0.00223885 -0.00885633)
(-0.00195795 0.00322921 -0.00986476)
(0.00145929 0.00385021 -0.0106694)
(0.00501552 0.00395832 -0.0110299)
(0.00611009 0.00323118 -0.0102172)
(0.00636067 0.0030863 -0.00928869)
(0.00551663 0.00319478 -0.00795571)
(0.00391241 0.00352663 -0.0063122)
(0.00195922 0.00392666 -0.00450812)
(1.25973e-05 0.00424029 -0.00268698)
(-0.00170771 0.00437118 -0.000934802)
(-0.00310338 0.00428256 0.000713938)
(-0.00414179 0.00397416 0.00225425)
(-0.00481265 0.00345859 0.00369718)
(-0.00510572 0.00274781 0.00505875)
(-0.00500107 0.00185201 0.00634709)
(-0.00446583 0.000790203 0.00755158)
(-0.00345563 -0.000389999 0.00863985)
(-0.00192623 -0.00158646 0.0095648)
(0.000116257 -0.00262344 0.01027)
(0.00248502 -0.0032855 0.010677)
(0.0046909 -0.00344008 0.0106859)
(0.00611009 -0.00323118 0.0102172)
(0.00636067 -0.0030863 0.00928869)
(0.00551663 -0.00319478 0.00795571)
(0.00391241 -0.00352663 0.0063122)
(0.00195922 -0.00392666 0.00450812)
(1.25973e-05 -0.00424029 0.00268698)
(-0.00170771 -0.00437118 0.000934802)
(-0.00310338 -0.00428256 -0.000713938)
(-0.00414179 -0.00397416 -0.00225425)
(-0.00481265 -0.00345859 -0.00369718)
(-0.00510572 -0.00274781 -0.00505875)
(-0.00500107 -0.00185201 -0.00634709)
(-0.00446583 -0.000790203 -0.00755158)
(-0.00345563 0.000389999 -0.00863985)
(-0.00192623 0.00158646 -0.0095648)
(0.000116257 0.00262344 -0.01027)
(0.00248502 0.0032855 -0.010677)
(0.0046909 0.00344008 -0.0106859)
(0.00486176 0.00306779 -0.00984284)
(0.00517261 0.00305164 -0.00914397)
(0.00501214 0.00326946 -0.00806309)
(0.00429138 0.00374301 -0.0066097)
(0.00308397 0.00433272 -0.00489032)
(0.001629 0.00484906 -0.00304508)
(0.000194304 0.00515886 -0.00117465)
(-0.00103687 0.00519984 0.00066972)
(-0.00196801 0.00495031 0.00245386)
(-0.00254994 0.00441423 0.00414271)
(-0.00275266 0.00361676 0.00570104)
(-0.00255267 0.00260001 0.0070962)
(-0.00193408 0.00142021 0.00829703)
(-0.000908351 0.000149714 0.00926995)
(0.000440751 -0.00110815 0.00997431)
(0.00191029 -0.00219008 0.0103672)
(0.00322985 -0.00289577 0.0104384)
(0.00421667 -0.00313442 0.0102427)
(0.00486176 -0.00306779 0.00984284)
(0.00517261 -0.00305164 0.00914397)
(0.00501214 -0.00326946 0.00806309)
(0.00429138 -0.00374301 0.0066097)
(0.00308397 -0.00433272 0.00489032)
(0.001629 -0.00484906 0.00304508)
(0.000194304 -0.00515886 0.00117465)
(-0.00103687 -0.00519984 -0.00066972)
(-0.00196801 -0.00495031 -0.00245386)
(-0.00254994 -0.00441423 -0.00414271)
(-0.00275266 -0.00361676 -0.00570104)
(-0.00255267 -0.00260001 -0.0070962)
(-0.00193408 -0.00142021 -0.00829703)
(-0.000908351 -0.000149714 -0.00926995)
(0.000440751 0.00110815 -0.00997431)
(0.00191029 0.00219008 -0.0103672)
(0.00322985 0.00289577 -0.0104384)
(0.00421667 0.00313442 -0.0102427)
(0.0082927 0.004727 -0.0111902)
(0.00838451 0.00411749 -0.0100749)
(0.00659584 0.00369335 -0.00848899)
(0.00371675 0.00347817 -0.00664487)
(0.000623972 0.00334876 -0.00473854)
(-0.00214803 0.00319887 -0.00289318)
(-0.00442898 0.00296143 -0.00115806)
(-0.00621377 0.00259593 0.00045652)
(-0.00752444 0.0020858 0.00195848)
(-0.0083699 0.00142714 0.00336967)
(-0.00874156 0.000616167 0.00471854)
(-0.00861138 -0.00035142 0.00602579)
(-0.00792305 -0.00146518 0.00729332)
(-0.00657217 -0.00267203 0.00850878)
(-0.00439081 -0.00384746 0.00965989)
(-0.0012444 -0.00479259 0.0107021)
(0.00258941 -0.00529196 0.0114617)
(0.00615071 -0.00523154 0.0116732)
(0.0082927 -0.004727 0.0111902)
(0.00838451 -0.00411749 0.0100749)
(0.00659584 -0.00369335 0.00848899)
(0.00371675 -0.00347817 0.00664487)
(0.000623972 -0.00334876 0.00473854)
(-0.00214803 -0.00319887 0.00289318)
(-0.00442898 -0.00296143 0.00115806)
(-0.00621377 -0.00259593 -0.00045652)
(-0.00752444 -0.0020858 -0.00195848)
(-0.0083699 -0.00142714 -0.00336967)
(-0.00874156 -0.000616167 -0.00471854)
(-0.00861138 0.00035142 -0.00602579)
(-0.00792305 0.00146518 -0.00729332)
(-0.00657217 0.00267203 -0.00850878)
(-0.00439081 0.00384746 -0.00965989)
(-0.0012444 0.00479259 -0.0107021)
(0.00258941 0.00529196 -0.0114617)
(0.00615071 0.00523154 -0.0116732)
(0.00706666 0.0040132 -0.0110338)
(0.0072504 0.00384957 -0.0100749)
(0.00625513 0.00384881 -0.00865435)
(0.00441264 0.0040033 -0.00690236)
(0.00218952 0.00418672 -0.00499484)
(-1.47508e-05 0.00428413 -0.00307222)
(-0.00196213 0.00422602 -0.00120213)
(-0.00354376 0.00397617 0.000590655)
(-0.00471399 0.00352196 0.00229271)
(-0.00544918 0.00286727 0.00389536)
(-0.00572865 0.00202593 0.00539453)
(-0.00552597 0.00101961 0.00678572)
(-0.00480474 -0.000115841 0.00805724)
(-0.00351986 -0.001316 0.00918965)
(-0.00163764 -0.0024707 0.0101609)
(0.000778902 -0.00341933 0.0109319)
(0.00341193 -0.00399718 0.0114095)
(0.0056891 -0.00414792 0.0114719)
(0.00706666 -0.0040132 0.0110338)
(0.0072504 -0.00384957 0.0100749)
(0.00625513 -0.00384881 0.00865435)
(0.00441264 -0.0040033 0.00690236)
(0.00218952 -0.00418672 0.00499484)
(-1.47508e-05 -0.00428413 0.00307222)
(-0.00196213 -0.00422602 0.00120213)
(-0.00354376 -0.00397617 -0.000590655)
(-0.00471399 -0.00352196 -0.00229271)
(-0.00544918 -0.00286727 -0.00389536)
(-0.00572865 -0.00202593 -0.00539453)
(-0.00552597 -0.00101961 -0.00678572)
(-0.00480474 0.000115841 -0.00805724)
(-0.00351986 0.001316 -0.00918965)
(-0.00163764 0.0024707 -0.0101609)
(0.000778902 0.00341933 -0.0109319)
(0.00341193 0.00399718 -0.0114095)
(0.0056891 0.00414792 -0.0114719)
(0.00590877 0.00362754 -0.0111034)
(0.0062307 0.00388755 -0.0102678)
(0.00602553 0.00421258 -0.00891475)
(0.0052046 0.00461218 -0.00718166)
(0.00384194 0.00500882 -0.00524813)
(0.00219388 0.00529252 -0.00325733)
(0.000561975 0.00538358 -0.0012815)
(-0.000841373 0.00523849 0.000652724)
(-0.00190201 0.00483728 0.00251993)
(-0.00256075 0.00418369 0.00428399)
(-0.00278173 0.00330549 0.00590747)
(-0.00253843 0.00224982 0.00735886)
(-0.00181494 0.00107923 0.00861271)
(-0.000628237 -0.000128218 0.00964856)
(0.000918202 -0.00127486 0.0104528)
(0.00258182 -0.00224177 0.0110199)
(0.00406142 -0.00293085 0.0113518)
(0.0051785 -0.00335147 0.0114191)
(0.00590877 -0.00362754 0.0111034)
(0.0062307 -0.00388755 0.0102678)
(0.00602553 -0.00421258 0.00891475)
(0.0052046 -0.00461218 0.00718166)
(0.00384194 -0.00500882 0.00524813)
(0.00219388 -0.00529252 0.00325733)
(0.000561975 -0.00538358 0.0012815)
(-0.000841373 -0.00523849 -0.000652724)
(-0.00190201 -0.00483728 -0.00251993)
(-0.00256075 -0.00418369 -0.00428399)
(-0.00278173 -0.00330549 -0.00590747)
(-0.00253843 -0.00224982 -0.00735886)
(-0.00181494 -0.00107923 -0.00861271)
(-0.000628237 0.000128218 -0.00964856)
(0.000918202 0.00127486 -0.0104528)
(0.00258182 0.00224177 -0.0110199)
(0.00406142 0.00293085 -0.0113518)
(0.0051785 0.00335147 -0.0114191)
(0.00799665 0.00514424 -0.0109345)
(0.00795189 0.00439365 -0.00996711)
(0.00619123 0.00375667 -0.0085731)
(0.0033827 0.00326441 -0.0068983)
(0.000319795 0.00283913 -0.00510884)
(-0.00247253 0.00241749 -0.00332465)
(-0.00480808 0.00195728 -0.00159367)
(-0.00666124 0.00141544 7.34294e-05)
(-0.00802726 0.000756285 0.00167114)
(-0.00888681 -3.95376e-05 0.00319362)
(-0.00920863 -0.000975247 0.00463734)
(-0.00895133 -0.00203648 0.00599935)
(-0.00805614 -0.0031804 0.00727656)
(-0.00643396 -0.0043178 0.00847219)
(-0.00397703 -0.00530246 0.00958895)
(-0.000697415 -0.00595182 0.0105654)
(0.00297958 -0.00612276 0.0112228)
(0.00617851 -0.00580376 0.0113692)
(0.00799665 -0.00514424 0.0109345)
(0.00795189 -0.00439365 0.00996711)
(0.00619123 -0.00375667 0.0085731)
(0.0033827 -0.00326441 0.0068983)
(0.000319795 -0.00283913 0.00510884)
(-0.00247253 -0.00241749 0.00332465)
(-0.00480808 -0.00195728 0.00159367)
(-0.00666124 -0.00141544 -7.34294e-05)
(-0.00802726 -0.000756285 -0.00167114)
(-0.00888681 3.95376e-05 -0.00319362)
(-0.00920863 0.000975247 -0.00463734)
(-0.00895133 0.00203648 -0.00599935)
(-0.00805614 0.0031804 -0.00727656)
(-0.00643396 0.0043178 -0.00847219)
(-0.00397703 0.00530246 -0.00958895)
(-0.000697415 0.00595182 -0.0105654)
(0.00297958 0.00612276 -0.0112228)
(0.00617851 0.00580376 -0.0113692)
(0.00701794 0.00436658 -0.0110074)
(0.0071173 0.00421576 -0.010123)
(0.00612475 0.00412419 -0.00876419)
(0.00432523 0.00407269 -0.00706525)
(0.00212846 0.00398977 -0.00520392)
(-8.9544e-05 0.00382257 -0.00331662)
(-0.00208508 0.0035395 -0.00146386)
(-0.00372956 0.00311273 0.00033568)
(-0.00495299 0.00252141 0.00206572)
(-0.00571003 0.00176096 0.00370456)
(-0.00596504 0.000845818 0.00523168)
(-0.00568475 -0.000190966 0.00663111)
(-0.00483529 -0.00129462 0.00789102)
(-0.0033881 -0.00238186 0.00900505)
(-0.00135432 -0.00333963 0.00996893)
(0.00112181 -0.00404533 0.0107503)
(0.00367306 -0.00442056 0.0112581)
(0.00578953 -0.00448638 0.011374)
(0.00701794 -0.00436658 0.0110074)
(0.0071173 -0.00421576 0.010123)
(0.00612475 -0.00412419 0.00876419)
(0.00432523 -0.00407269 0.00706525)
(0.00212846 -0.00398977 0.00520392)
(-8.9544e-05 -0.00382257 0.00331662)
(-0.00208508 -0.0035395 0.00146386)
(-0.00372956 -0.00311273 -0.00033568)
(-0.00495299 -0.00252141 -0.00206572)
(-0.00571003 -0.00176096 -0.00370456)
(-0.00596504 -0.000845818 -0.00523168)
(-0.00568475 0.000190966 -0.00663111)
(-0.00483529 0.00129462 -0.00789102)
(-0.0033881 0.00238186 -0.00900505)
(-0.00135432 0.00333963 -0.00996893)
(0.00112181 0.00404533 -0.0107503)
(0.00367306 0.00442056 -0.0112581)
(0.00578953 0.00448638 -0.011374)
(0.00606147 0.00394695 -0.0114368)
(0.00635055 0.00439995 -0.0105867)
(0.00613406 0.00478287 -0.0091607)
(0.00533534 0.00506436 -0.00735532)
(0.00399958 0.00522398 -0.00538398)
(0.00234674 0.00523777 -0.00338938)
(0.000674303 0.00508587 -0.00143185)
(-0.000784429 0.00474904 0.000474024)
(-0.00189338 0.00421193 0.00231137)
(-0.00257867 0.00347683 0.00404757)
(-0.00279697 0.00257051 0.00564592)
(-0.00252099 0.00154205 0.0070764)
(-0.0017419 0.000458542 0.00831949)
(-0.000494019 -0.000599547 0.00936921)
(0.00109236 -0.00155041 0.0102355)
(0.00276118 -0.00233606 0.0109319)
(0.00423254 -0.00295422 0.0114433)
(0.00534643 -0.00346698 0.0116735)
(0.00606147 -0.00394695 0.0114368)
(0.00635055 -0.00439995 0.0105867)
(0.00613406 -0.00478287 0.0091607)
(0.00533534 -0.00506436 0.00735532)
(0.00399958 -0.00522398 0.00538398)
(0.00234674 -0.00523777 0.00338938)
(0.000674303 -0.00508587 0.00143185)
(-0.000784429 -0.00474904 -0.000474024)
(-0.00189338 -0.00421193 -0.00231137)
(-0.00257867 -0.00347683 -0.00404757)
(-0.00279697 -0.00257051 -0.00564592)
(-0.00252099 -0.00154205 -0.0070764)
(-0.0017419 -0.000458542 -0.00831949)
(-0.000494019 0.000599547 -0.00936921)
(0.00109236 0.00155041 -0.0102355)
(0.00276118 0.00233606 -0.0109319)
(0.00423254 0.00295422 -0.0114433)
(0.00534643 0.00346698 -0.0116735)
(0.00682822 0.00517764 -0.010164)
(0.00677614 0.00426818 -0.00942768)
(0.00523887 0.00342201 -0.00830076)
(0.00273441 0.00266627 -0.00687373)
(-7.98088e-05 0.00196368 -0.00527911)
(-0.00271819 0.00128382 -0.00363898)
(-0.00497318 0.000605504 -0.00201353)
(-0.00679183 -0.000105837 -0.000416304)
(-0.00814402 -0.000890866 0.00114486)
(-0.00898538 -0.00177645 0.0026522)
(-0.00926468 -0.00276364 0.00408275)
(-0.00893178 -0.00382134 0.00541657)
(-0.00793644 -0.00487956 0.00664538)
(-0.00622561 -0.00582491 0.00777723)
(-0.00377269 -0.00650961 0.00881435)
(-0.000700695 -0.00679128 0.00969568)
(0.00255542 -0.0066073 0.0102852)
(0.00529488 -0.00601822 0.0104567)
(0.00682822 -0.00517764 0.010164)
(0.00677614 -0.00426818 0.00942768)
(0.00523887 -0.00342201 0.00830076)
(0.00273441 -0.00266627 0.00687373)
(-7.98088e-05 -0.00196368 0.00527911)
(-0.00271819 -0.00128382 0.00363898)
(-0.00497318 -0.000605504 0.00201353)
(-0.00679183 0.000105837 0.000416304)
(-0.00814402 0.000890866 -0.00114486)
(-0.00898538 0.00177645 -0.0026522)
(-0.00926468 0.00276364 -0.00408275)
(-0.00893178 0.00382134 -0.00541657)
(-0.00793644 0.00487956 -0.00664538)
(-0.00622561 0.00582491 -0.00777723)
(-0.00377269 0.00650961 -0.00881435)
(-0.000700695 0.00679128 -0.00969568)
(0.00255542 0.0066073 -0.0102852)
(0.00529488 0.00601822 -0.0104567)
(0.00613532 0.00444717 -0.0103713)
(0.00621238 0.00420649 -0.00964212)
(0.00534217 0.00396693 -0.00846597)
(0.00374607 0.00369949 -0.00695054)
(0.001752 0.00336589 -0.00524886)
(-0.000317035 0.00295234 -0.00349216)
(-0.002226 0.00245669 -0.00174903)
(-0.00383037 0.00186611 -4.20312e-05)
(-0.00503738 0.00116136 0.00161288)
(-0.00578073 0.000334489 0.0031903)
(-0.00601074 -0.000599554 0.00466134)
(-0.00569028 -0.0015992 0.00600268)
(-0.00479524 -0.00259575 0.00720244)
(-0.00332568 -0.00349612 0.00826189)
(-0.00134381 -0.00419721 0.00918382)
(0.000958969 -0.00462042 0.00994054)
(0.00323849 -0.00475367 0.0104554)
(0.00508168 -0.00466035 0.0106277)
(0.00613532 -0.00444717 0.0103713)
(0.00621238 -0.00420649 0.00964212)
(0.00534217 -0.00396693 0.00846597)
(0.00374607 -0.00369949 0.00695054)
(0.001752 -0.00336589 0.00524886)
(-0.000317035 -0.00295234 0.00349216)
(-0.002226 -0.00245669 0.00174903)
(-0.00383037 -0.00186611 4.20312e-05)
(-0.00503738 -0.00116136 -0.00161288)
(-0.00578073 -0.000334489 -0.0031903)
(-0.00601074 0.000599554 -0.00466134)
(-0.00569028 0.0015992 -0.00600268)
(-0.00479524 0.00259575 -0.00720244)
(-0.00332568 0.00349612 -0.00826189)
(-0.00134381 0.00419721 -0.00918382)
(0.000958969 0.00462042 -0.00994054)
(0.00323849 0.00475367 -0.0104554)
(0.00508168 0.00466035 -0.0106277)
(0.00540712 0.00408992 -0.0110385)
(0.00566193 0.00454886 -0.0102697)
(0.00548016 0.00486996 -0.00893887)
(0.0047931 0.00499855 -0.00724065)
(0.00361623 0.00493754 -0.00537811)
(0.00211031 0.00471117 -0.00348761)
(0.000534482 0.0043427 -0.0016326)
(-0.000874266 0.00383811 0.00016882)
(-0.00195998 0.00319182 0.00190305)
(-0.00263237 0.00240728 0.003543)
(-0.00283986 0.0015098 0.00505585)
(-0.0025558 0.000547992 0.00641497)
(-0.00178216 -0.000410908 0.0076071)
(-0.000574729 -0.00129193 0.00863667)
(0.000916146 -0.00203553 0.00952304)
(0.00244647 -0.00262941 0.0102797)
(0.00377689 -0.0031223 0.0108766)
(0.00477426 -0.0035955 0.0111949)
(0.00540712 -0.00408992 0.0110385)
(0.00566193 -0.00454886 0.0102697)
(0.00548016 -0.00486996 0.00893887)
(0.0047931 -0.00499855 0.00724065)
(0.00361623 -0.00493754 0.00537811)
(0.00211031 -0.00471117 0.00348761)
(0.000534482 -0.0043427 0.0016326)
(-0.000874266 -0.00383811 -0.00016882)
(-0.00195998 -0.00319182 -0.00190305)
(-0.00263237 -0.00240728 -0.003543)
(-0.00283986 -0.0015098 -0.00505585)
(-0.0025558 -0.000547992 -0.00641497)
(-0.00178216 0.000410908 -0.0076071)
(-0.000574729 0.00129193 -0.00863667)
(0.000916146 0.00203553 -0.00952304)
(0.00244647 0.00262941 -0.0102797)
(0.00377689 0.0031223 -0.0108766)
(0.00477426 0.0035955 -0.0111949)
(0.00502939 0.00507752 -0.00909377)
(0.00507691 0.00396004 -0.00863572)
(0.00388563 0.002876 -0.00783016)
(0.00180979 0.00186084 -0.00671746)
(-0.000644126 0.000905344 -0.00538642)
(-0.00304065 -3.50777e-06 -0.00395032)
(-0.00514219 -0.000876164 -0.00248936)
(-0.0068602 -0.00173636 -0.00103311)
(-0.00814585 -0.00261877 0.000407501)
(-0.00894257 -0.00354873 0.00181331)
(-0.00919059 -0.00452358 0.00315528)
(-0.00884047 -0.00550241 0.00440587)
(-0.00785912 -0.00640311 0.00555245)
(-0.00623405 -0.00710878 0.00660045)
(-0.00400168 -0.00748895 0.00754992)
(-0.00132734 -0.00744428 0.00835669)
(0.00141863 -0.00696185 0.00893192)
(0.0037088 -0.00612619 0.00919121)
(0.00502939 -0.00507752 0.00909377)
(0.00507691 -0.00396004 0.00863572)
(0.00388563 -0.002876 0.00783016)
(0.00180979 -0.00186084 0.00671746)
(-0.000644126 -0.000905344 0.00538642)
(-0.00304065 3.50777e-06 0.00395032)
(-0.00514219 0.000876164 0.00248936)
(-0.0068602 0.00173636 0.00103311)
(-0.00814585 0.00261877 -0.000407501)
(-0.00894257 0.00354873 -0.00181331)
(-0.00919059 0.00452358 -0.00315528)
(-0.00884047 0.00550241 -0.00440587)
(-0.00785912 0.00640311 -0.00555245)
(-0.00623405 0.00710878 -0.00660045)
(-0.00400168 0.00748895 -0.00754992)
(-0.00132734 0.00744428 -0.00835669)
(0.00141863 0.00696185 -0.00893192)
(0.0037088 0.00612619 -0.00919121)