/*--------------------------------*- C++ -*----------------------------------*\
| =========                 |                                                 |
| \\      /  F ield         | OpenFOAM: The Open Source CFD Toolbox           |
|  \\    /   O peration     | Version:  2312                                  |
|   \\  /    A nd           | Website:  www.openfoam.com                      |
|    \\/     M anipulation  |                                                 |
\*---------------------------------------------------------------------------*/
FoamFile
{
    version     2.0;
    format      ascii;
    arch        "LSB;label=32;scalar=64";
    class       volTensorField;
    location    "0.8";
    object      F;
}
// * * * * * * * * * * * * * * * * * * * * * * * * * * * * * * * * * * * * * //

dimensions      [0 0 0 0 0 0 0];

internalField   nonuniform List<tensor> 
1620
(
(0.826129 0.082314 -0.124361 -0.072854 1.02108 0.128606 0.380177 -0.0018765 1.08147)
(0.787286 0.0759151 -0.170733 -0.0811984 1.03174 0.0734623 0.329931 0.0249465 1.10165)
(0.806678 0.0677505 -0.178479 -0.0935761 1.03576 0.0243793 0.262696 0.0564958 1.08425)
(0.865541 0.0632542 -0.161327 -0.109368 1.02356 0.00422673 0.19145 0.0874308 1.0496)
(0.940057 0.0657351 -0.136776 -0.128363 0.994495 0.007619 0.122979 0.110635 1.01974)
(1.01372 0.0736884 -0.112297 -0.146375 0.953121 0.0178316 0.0605498 0.119937 1.00506)
(1.07826 0.0827251 -0.0883749 -0.158597 0.906905 0.0212646 0.00583099 0.111628 1.00437)
(1.13107 0.0876249 -0.0644611 -0.163031 0.864529 0.0121498 -0.0410078 0.0852225 1.01056)
(1.17229 0.0841086 -0.0418439 -0.160217 0.833997 -0.00877481 -0.0817665 0.0437056 1.01546)
(1.20276 0.0700094 -0.0235718 -0.151147 0.821132 -0.0368793 -0.11981 -0.0068297 1.01264)
(1.22275 0.0456422 -0.0132363 -0.135675 0.828673 -0.0653748 -0.158847 -0.0581213 0.998887)
(1.2313 0.0137995 -0.0135897 -0.112204 0.855625 -0.086105 -0.201489 -0.101075 0.974971)
(1.22613 -0.0204047 -0.0249269 -0.0787137 0.896655 -0.0900804 -0.247943 -0.127465 0.946046)
(1.20389 -0.0504552 -0.0429232 -0.0351618 0.942025 -0.0689582 -0.295364 -0.132171 0.921408)
(1.16104 -0.0711667 -0.0567592 0.0129166 0.979863 -0.0191649 -0.338749 -0.115799 0.912685)
(1.0955 -0.0820703 -0.0507483 0.0525311 1.00198 0.0512376 -0.373589 -0.0857399 0.929208)
(1.00868 -0.0864369 -0.0128809 0.0708261 1.01001 0.118136 -0.396446 -0.0532376 0.971833)
(0.910122 -0.0860331 0.0534021 0.0708531 1.0137 0.149484 -0.400072 -0.0258572 1.02994)
(0.826129 -0.082314 0.124361 0.072854 1.02108 0.128606 -0.380177 -0.0018765 1.08147)
(0.787286 -0.0759151 0.170733 0.0811984 1.03174 0.0734623 -0.329931 0.0249465 1.10165)
(0.806678 -0.0677505 0.178479 0.0935761 1.03576 0.0243793 -0.262696 0.0564958 1.08425)
(0.865541 -0.0632542 0.161327 0.109368 1.02356 0.00422673 -0.19145 0.0874308 1.0496)
(0.940057 -0.0657351 0.136776 0.128363 0.994495 0.007619 -0.122979 0.110635 1.01974)
(1.01372 -0.0736884 0.112297 0.146375 0.953121 0.0178316 -0.0605498 0.119937 1.00506)
(1.07826 -0.0827251 0.0883749 0.158597 0.906905 0.0212646 -0.00583099 0.111628 1.00437)
(1.13107 -0.0876249 0.0644611 0.163031 0.864529 0.0121498 0.0410078 0.0852225 1.01056)
(1.17229 -0.0841086 0.0418439 0.160217 0.833997 -0.00877481 0.0817665 0.0437056 1.01546)
(1.20276 -0.0700094 0.0235718 0.151147 0.821132 -0.0368793 0.11981 -0.0068297 1.01264)
(1.22275 -0.0456422 0.0132363 0.135675 0.828673 -0.0653748 0.158847 -0.0581213 0.998887)
(1.2313 -0.0137995 0.0135897 0.112204 0.855625 -0.086105 0.201489 -0.101075 0.974971)
(1.22613 0.0204047 0.0249269 0.0787137 0.896655 -0.0900804 0.247943 -0.127465 0.946046)
(1.20389 0.0504552 0.0429232 0.0351618 0.942025 -0.0689582 0.295364 -0.132171 0.921408)
(1.16104 0.0711667 0.0567592 -0.0129166 0.979863 -0.0191649 0.338749 -0.115799 0.912685)
(1.0955 0.0820703 0.0507483 -0.0525311 1.00198 0.0512376 0.373589 -0.0857399 0.929208)
(1.00868 0.0864369 0.0128809 -0.0708261 1.01001 0.118136 0.396446 -0.0532376 0.971833)
(0.910122 0.0860331 -0.0534021 -0.0708531 1.0137 0.149484 0.400072 -0.0258572 1.02994)
(0.86378 0.0420377 -0.111666 -0.0950255 0.997677 0.0963402 0.376188 0.0212598 1.07722)
(0.835762 0.0524743 -0.149628 -0.0911396 1.00276 0.0472259 0.33994 0.0241898 1.09062)
(0.842431 0.0592563 -0.152561 -0.0989705 1.0208 0.00970929 0.289959 0.0373225 1.06868)
(0.880167 0.0586426 -0.135856 -0.117291 1.02723 0.00493956 0.229927 0.0637241 1.03488)
(0.935704 0.0578377 -0.116556 -0.14166 1.00831 0.0227689 0.163464 0.0922034 1.01219)
(0.996091 0.0628904 -0.0991932 -0.16486 0.966676 0.0421782 0.0949928 0.108679 1.00893)
(1.05227 0.0727456 -0.0808144 -0.180746 0.91418 0.0479695 0.0286303 0.104241 1.02066)
(1.0994 0.0815318 -0.0588185 -0.186543 0.864535 0.0349027 -0.0332554 0.0771049 1.03728)
(1.13556 0.0828798 -0.0341218 -0.18211 0.829339 0.00538375 -0.0903613 0.0315614 1.04857)
(1.16019 0.0726882 -0.0105428 -0.168183 0.816292 -0.0336391 -0.143729 -0.0236824 1.04718)
(1.17284 0.0500681 0.0068586 -0.14524 0.828317 -0.0729509 -0.194712 -0.0774308 1.03024)
(1.17267 0.0176289 0.0133108 -0.113294 0.863248 -0.102675 -0.244071 -0.118236 1.00004)
(1.1584 -0.0183025 0.00615022 -0.072448 0.914028 -0.1134 -0.291296 -0.136816 0.963836)
(1.12892 -0.0483722 -0.0123603 -0.0241497 0.969342 -0.0973646 -0.334204 -0.128696 0.932828)
(1.08486 -0.063668 -0.0320135 0.0267848 1.01516 -0.0513441 -0.369061 -0.0969025 0.919785)
(1.03023 -0.0618485 -0.0354517 0.0705672 1.03847 0.0171245 -0.391992 -0.0527693 0.934014)
(0.971304 -0.050099 -0.0076226 0.0960443 1.03459 0.0839137 -0.401358 -0.0120357 0.975106)
(0.91313 -0.0403394 0.0496147 0.10024 1.0138 0.115688 -0.396472 0.0130272 1.03054)
(0.86378 -0.0420377 0.111666 0.0950255 0.997677 0.0963402 -0.376188 0.0212598 1.07722)
(0.835762 -0.0524743 0.149628 0.0911396 1.00276 0.0472259 -0.33994 0.0241898 1.09062)
(0.842431 -0.0592563 0.152561 0.0989705 1.0208 0.00970929 -0.289959 0.0373225 1.06868)
(0.880167 -0.0586426 0.135856 0.117291 1.02723 0.00493956 -0.229927 0.0637241 1.03488)
(0.935704 -0.0578377 0.116556 0.14166 1.00831 0.0227689 -0.163464 0.0922034 1.01219)
(0.996091 -0.0628904 0.0991932 0.16486 0.966676 0.0421782 -0.0949928 0.108679 1.00893)
(1.05227 -0.0727456 0.0808144 0.180746 0.91418 0.0479695 -0.0286303 0.104241 1.02066)
(1.0994 -0.0815318 0.0588185 0.186543 0.864535 0.0349027 0.0332554 0.0771049 1.03728)
(1.13556 -0.0828798 0.0341218 0.18211 0.829339 0.00538375 0.0903613 0.0315614 1.04857)
(1.16019 -0.0726882 0.0105428 0.168183 0.816292 -0.0336391 0.143729 -0.0236824 1.04718)
(1.17284 -0.0500681 -0.0068586 0.14524 0.828317 -0.0729509 0.194712 -0.0774308 1.03024)
(1.17267 -0.0176289 -0.0133108 0.113294 0.863248 -0.102675 0.244071 -0.118236 1.00004)
(1.1584 0.0183025 -0.00615022 0.072448 0.914028 -0.1134 0.291296 -0.136816 0.963836)
(1.12892 0.0483722 0.0123603 0.0241497 0.969342 -0.0973646 0.334204 -0.128696 0.932828)
(1.08486 0.063668 0.0320135 -0.0267848 1.01516 -0.0513441 0.369061 -0.0969025 0.919785)
(1.03023 0.0618485 0.0354517 -0.0705672 1.03847 0.0171245 0.391992 -0.0527693 0.934014)
(0.971304 0.050099 0.0076226 -0.0960443 1.03459 0.0839137 0.401358 -0.0120357 0.975106)
(0.91313 0.0403394 -0.0496147 -0.10024 1.0138 0.115688 0.396472 0.0130272 1.03054)
(0.901296 0.0116359 -0.0968926 -0.112966 0.979106 0.0618282 0.357404 0.0393869 1.07244)
(0.88312 0.0329149 -0.125436 -0.0992898 0.981627 0.0218585 0.334878 0.0221374 1.07883)
(0.878107 0.0495962 -0.124573 -0.101466 1.01254 -0.00199308 0.304005 0.0198854 1.05373)
(0.894731 0.0511752 -0.109476 -0.120503 1.03714 0.0102431 0.258473 0.0417936 1.02197)
(0.930917 0.0461655 -0.0968179 -0.149394 1.02907 0.0446658 0.197816 0.0748422 1.0073)
(0.977749 0.0473115 -0.0888219 -0.177895 0.987092 0.0750307 0.126769 0.0983841 1.01691)
(1.02543 0.0577726 -0.0784244 -0.198082 0.926887 0.08316 0.051595 0.0978535 1.04314)
(1.06693 0.0713711 -0.0599512 -0.206123 0.868092 0.0639016 -0.0231804 0.0694497 1.07194)
(1.0983 0.0792023 -0.0334712 -0.200896 0.82708 0.0219443 -0.0951527 0.0188511 1.0898)
(1.11754 0.074575 -0.00362692 -0.182555 0.814069 -0.0321347 -0.162908 -0.0417821 1.08783)
(1.12352 0.0548883 0.02272 -0.15206 0.831911 -0.0852362 -0.225182 -0.0972878 1.06391)
(1.11551 0.0223171 0.0383234 -0.111122 0.876223 -0.124839 -0.280632 -0.133356 1.02318)
(1.09335 -0.0155809 0.0376593 -0.0621624 0.936918 -0.141217 -0.327835 -0.140261 0.976779)
(1.05844 -0.0464463 0.0205124 -0.00832743 1.00027 -0.128296 -0.365083 -0.116005 0.939153)
(1.01563 -0.0576934 -0.00376057 0.0458633 1.05031 -0.0846414 -0.389849 -0.0682999 0.92408)
(0.974416 -0.0455857 -0.0163187 0.0928562 1.07074 -0.0182143 -0.39923 -0.013605 0.939136)
(0.943903 -0.0213998 0.000658128 0.122026 1.05347 0.0470649 -0.393443 0.0291214 0.980387)
(0.92242 -0.00560457 0.0466495 0.125939 1.01195 0.0782551 -0.378155 0.0470536 1.03233)
(0.901296 -0.0116359 0.0968926 0.112966 0.979106 0.0618282 -0.357404 0.0393869 1.07244)
(0.88312 -0.0329149 0.125436 0.0992898 0.981627 0.0218585 -0.334878 0.0221374 1.07883)
(0.878107 -0.0495962 0.124573 0.101466 1.01254 -0.00199308 -0.304005 0.0198854 1.05373)
(0.894731 -0.0511752 0.109476 0.120503 1.03714 0.0102431 -0.258473 0.0417936 1.02197)
(0.930917 -0.0461655 0.0968179 0.149394 1.02907 0.0446658 -0.197816 0.0748422 1.0073)
(0.977749 -0.0473115 0.0888219 0.177895 0.987092 0.0750307 -0.126769 0.0983841 1.01691)
(1.02543 -0.0577726 0.0784244 0.198082 0.926887 0.08316 -0.051595 0.0978535 1.04314)
(1.06693 -0.0713711 0.0599512 0.206123 0.868092 0.0639016 0.0231804 0.0694497 1.07194)
(1.0983 -0.0792023 0.0334712 0.200896 0.82708 0.0219443 0.0951527 0.0188511 1.0898)
(1.11754 -0.074575 0.00362692 0.182555 0.814069 -0.0321347 0.162908 -0.0417821 1.08783)
(1.12352 -0.0548883 -0.02272 0.15206 0.831911 -0.0852362 0.225182 -0.0972878 1.06391)
(1.11551 -0.0223171 -0.0383234 0.111122 0.876223 -0.124839 0.280632 -0.133356 1.02318)
(1.09335 0.0155809 -0.0376593 0.0621624 0.936918 -0.141217 0.327835 -0.140261 0.976779)
(1.05844 0.0464463 -0.0205124 0.00832743 1.00027 -0.128296 0.365083 -0.116005 0.939153)
(1.01563 0.0576934 0.00376057 -0.0458633 1.05031 -0.0846414 0.389849 -0.0682999 0.92408)
(0.974416 0.0455857 0.0163187 -0.0928562 1.07074 -0.0182143 0.39923 -0.013605 0.939136)
(0.943903 0.0213998 -0.000658128 -0.122026 1.05347 0.0470649 0.393443 0.0291214 0.980387)
(0.92242 0.00560457 -0.0466495 -0.125939 1.01195 0.0782551 0.378155 0.0470536 1.03233)
(0.781665 0.199275 -0.222112 -0.118186 1.02745 0.194942 0.34214 0.0522871 1.10146)
(0.767002 0.130018 -0.301082 -0.111759 1.04518 0.108251 0.299715 0.12649 1.10455)
(0.811568 0.0519648 -0.300788 -0.106472 1.05279 0.049865 0.244372 0.195014 1.06908)
(0.887777 -0.00387695 -0.26268 -0.108875 1.03454 0.0385226 0.185982 0.246274 1.03311)
(0.972166 -0.0289709 -0.219133 -0.119053 0.989339 0.0527628 0.128799 0.268615 1.02015)
(1.05023 -0.0305412 -0.181274 -0.131021 0.925499 0.063623 0.0742512 0.254936 1.03076)
(1.11562 -0.0216691 -0.148454 -0.139052 0.858391 0.0553256 0.0234234 0.205499 1.0527)
(1.16699 -0.0152149 -0.118903 -0.140645 0.804323 0.0267061 -0.0231656 0.126446 1.07219)
(1.20499 -0.0204424 -0.0939216 -0.135648 0.775586 -0.0154488 -0.0661987 0.0284147 1.07879)
(1.23048 -0.0419804 -0.0774281 -0.124381 0.778547 -0.0617022 -0.107377 -0.0746447 1.06675)
(1.24371 -0.079954 -0.0740864 -0.106549 0.813235 -0.102277 -0.148575 -0.16728 1.03563)
(1.24408 -0.130345 -0.0872177 -0.081177 0.873341 -0.127827 -0.190852 -0.235072 0.990441)
(1.2301 -0.185351 -0.116297 -0.0473153 0.946416 -0.129354 -0.233701 -0.267449 0.940773)
(1.19906 -0.234245 -0.153416 -0.00529887 1.01441 -0.0978101 -0.274899 -0.260344 0.899696)
(1.14677 -0.266182 -0.178985 0.0413347 1.05676 -0.0265611 -0.311324 -0.218366 0.88297)
(1.06912 -0.276075 -0.161392 0.0839046 1.06118 0.0782831 -0.340449 -0.15425 0.905208)
(0.968834 -0.267811 -0.0730215 0.111129 1.03901 0.183885 -0.360147 -0.082917 0.966526)
(0.863379 -0.243575 0.0758361 0.118987 1.02239 0.234322 -0.363056 -0.0163419 1.0412)
(0.781665 -0.199275 0.222112 0.118186 1.02745 0.194942 -0.34214 0.0522871 1.10146)
(0.767002 -0.130018 0.301082 0.111759 1.04518 0.108251 -0.299715 0.12649 1.10455)
(0.811568 -0.0519648 0.300788 0.106472 1.05279 0.049865 -0.244372 0.195014 1.06908)
(0.887777 0.00387695 0.26268 0.108875 1.03454 0.0385226 -0.185982 0.246274 1.03311)
(0.972166 0.0289709 0.219133 0.119053 0.989339 0.0527628 -0.128799 0.268615 1.02015)
(1.05023 0.0305412 0.181274 0.131021 0.925499 0.063623 -0.0742512 0.254936 1.03076)
(1.11562 0.0216691 0.148454 0.139052 0.858391 0.0553256 -0.0234234 0.205499 1.0527)
(1.16699 0.0152149 0.118903 0.140645 0.804323 0.0267061 0.0231656 0.126446 1.07219)
(1.20499 0.0204424 0.0939216 0.135648 0.775586 -0.0154488 0.0661987 0.0284147 1.07879)
(1.23048 0.0419804 0.0774281 0.124381 0.778547 -0.0617022 0.107377 -0.0746447 1.06675)
(1.24371 0.079954 0.0740864 0.106549 0.813235 -0.102277 0.148575 -0.16728 1.03563)
(1.24408 0.130345 0.0872177 0.081177 0.873341 -0.127827 0.190852 -0.235072 0.990441)
(1.2301 0.185351 0.116297 0.0473153 0.946416 -0.129354 0.233701 -0.267449 0.940773)
(1.19906 0.234245 0.153416 0.00529887 1.01441 -0.0978101 0.274899 -0.260344 0.899696)
(1.14677 0.266182 0.178985 -0.0413347 1.05676 -0.0265611 0.311324 -0.218366 0.88297)
(1.06912 0.276075 0.161392 -0.0839046 1.06118 0.0782831 0.340449 -0.15425 0.905208)
(0.968834 0.267811 0.0730215 -0.111129 1.03901 0.183885 0.360147 -0.082917 0.966526)
(0.863379 0.243575 -0.0758361 -0.118987 1.02239 0.234322 0.363056 -0.0163419 1.0412)
(0.817439 0.128358 -0.210041 -0.107024 0.98753 0.155493 0.335034 0.0679816 1.11406)
(0.802002 0.109179 -0.275472 -0.100999 1.00351 0.0766243 0.303964 0.103779 1.10708)
(0.823441 0.064769 -0.263631 -0.102874 1.03992 0.0323974 0.26208 0.15685 1.06353)
(0.871696 0.0114546 -0.222942 -0.114872 1.05004 0.0402756 0.210683 0.216247 1.02989)
(0.93315 -0.0259653 -0.187445 -0.132938 1.017 0.0719326 0.152466 0.256182 1.03002)
(0.995812 -0.037994 -0.161935 -0.149866 0.9503 0.0925321 0.0914416 0.256676 1.05935)
(1.0518 -0.0319145 -0.138478 -0.160191 0.873062 0.0844811 0.031177 0.212731 1.09997)
(1.09738 -0.0224282 -0.111651 -0.161705 0.80851 0.0475102 -0.0263129 0.130779 1.13391)
(1.13131 -0.0227964 -0.0825785 -0.154278 0.773778 -0.00911949 -0.0803954 0.0243562 1.14763)
(1.15328 -0.0410044 -0.0569698 -0.138432 0.77784 -0.071991 -0.131205 -0.0881076 1.13375)
(1.16298 -0.0789981 -0.0423168 -0.114682 0.820456 -0.126711 -0.179039 -0.186178 1.09264)
(1.15974 -0.132606 -0.0454051 -0.0835155 0.892439 -0.160683 -0.22388 -0.251726 1.03265)
(1.14246 -0.191291 -0.0694246 -0.0457154 0.977783 -0.164754 -0.265099 -0.273166 0.968069)
(1.10978 -0.238348 -0.109514 -0.00291059 1.05662 -0.132689 -0.301369 -0.248047 0.915825)
(1.06074 -0.254633 -0.146417 0.0414233 1.10796 -0.0609476 -0.330669 -0.184079 0.89321)
(0.9968 -0.230996 -0.143821 0.0805512 1.11479 0.0437221 -0.350461 -0.0998048 0.914864)
(0.925099 -0.183796 -0.0666858 0.105791 1.07588 0.148418 -0.358694 -0.0208918 0.980087)
(0.860693 -0.145054 0.0750161 0.112775 1.01947 0.195757 -0.354214 0.0336796 1.05867)
(0.817439 -0.128358 0.210041 0.107024 0.98753 0.155493 -0.335034 0.0679816 1.11406)
(0.802002 -0.109179 0.275472 0.100999 1.00351 0.0766243 -0.303964 0.103779 1.10708)
(0.823441 -0.064769 0.263631 0.102874 1.03992 0.0323974 -0.26208 0.15685 1.06353)
(0.871696 -0.0114546 0.222942 0.114872 1.05004 0.0402756 -0.210683 0.216247 1.02989)
(0.93315 0.0259653 0.187445 0.132938 1.017 0.0719326 -0.152466 0.256182 1.03002)
(0.995812 0.037994 0.161935 0.149866 0.9503 0.0925321 -0.0914416 0.256676 1.05935)
(1.0518 0.0319145 0.138478 0.160191 0.873062 0.0844811 -0.031177 0.212731 1.09997)
(1.09738 0.0224282 0.111651 0.161705 0.80851 0.0475102 0.0263129 0.130779 1.13391)
(1.13131 0.0227964 0.0825785 0.154278 0.773778 -0.00911949 0.0803954 0.0243562 1.14763)
(1.15328 0.0410044 0.0569698 0.138432 0.77784 -0.071991 0.131205 -0.0881076 1.13375)
(1.16298 0.0789981 0.0423168 0.114682 0.820456 -0.126711 0.179039 -0.186178 1.09264)
(1.15974 0.132606 0.0454051 0.0835155 0.892439 -0.160683 0.22388 -0.251726 1.03265)
(1.14246 0.191291 0.0694246 0.0457154 0.977783 -0.164754 0.265099 -0.273166 0.968069)
(1.10978 0.238348 0.109514 0.00291059 1.05662 -0.132689 0.301369 -0.248047 0.915825)
(1.06074 0.254633 0.146417 -0.0414233 1.10796 -0.0609476 0.330669 -0.184079 0.89321)
(0.9968 0.230996 0.143821 -0.0805512 1.11479 0.0437221 0.350461 -0.0998048 0.914864)
(0.925099 0.183796 0.0666858 -0.105791 1.07588 0.148418 0.358694 -0.0208918 0.980087)
(0.860693 0.145054 -0.0750161 -0.112775 1.01947 0.195757 0.354214 0.0336796 1.05867)
(0.850599 0.0666607 -0.19657 -0.100316 0.949729 0.113185 0.317645 0.0773943 1.12928)
(0.834676 0.0932304 -0.248047 -0.0936964 0.966995 0.0459673 0.29981 0.0727618 1.11055)
(0.835239 0.0818893 -0.223877 -0.0985266 1.03046 0.0172242 0.270671 0.11066 1.05809)
(0.856144 0.0304307 -0.179478 -0.115376 1.07145 0.0463415 0.226885 0.180015 1.02692)
(0.894225 -0.0227201 -0.153113 -0.138315 1.05401 0.0985431 0.169986 0.240536 1.04164)
(0.940848 -0.048821 -0.143182 -0.158849 0.985519 0.131273 0.105489 0.258507 1.09294)
(0.986888 -0.0471706 -0.132581 -0.171183 0.896647 0.123501 0.0388144 0.222167 1.15653)
(1.02632 -0.0341867 -0.11065 -0.173033 0.81914 0.0752636 -0.0268629 0.137525 1.20867)
(1.05608 -0.0281071 -0.0777483 -0.163907 0.776765 -0.00124635 -0.0898263 0.0214538 1.23102)
(1.07465 -0.0413509 -0.0415682 -0.144183 0.782243 -0.0868955 -0.148677 -0.101747 1.21343)
(1.0811 -0.0783832 -0.0131234 -0.115029 0.834854 -0.160304 -0.202041 -0.204932 1.15732)
(1.07467 -0.134981 -0.00359784 -0.0783702 0.921001 -0.204023 -0.248711 -0.265224 1.0763)
(1.05486 -0.197262 -0.0208144 -0.0366743 1.01918 -0.208917 -0.287779 -0.270477 0.991895)
(1.02197 -0.241407 -0.0634375 0.00730394 1.10648 -0.173308 -0.318449 -0.221874 0.92685)
(0.978819 -0.239512 -0.112027 0.0502097 1.16132 -0.098814 -0.339323 -0.133093 0.900244)
(0.932749 -0.180687 -0.124457 0.0866273 1.16294 0.00616095 -0.347943 -0.0303611 0.92485)
(0.89443 -0.0982528 -0.0583409 0.108827 1.10149 0.108791 -0.343337 0.0501561 0.996806)
(0.870259 -0.0538579 0.0751097 0.111558 1.00851 0.152321 -0.331111 0.083963 1.08011)
(0.850599 -0.0666607 0.19657 0.100316 0.949729 0.113185 -0.317645 0.0773943 1.12928)
(0.834676 -0.0932304 0.248047 0.0936964 0.966995 0.0459673 -0.29981 0.0727618 1.11055)
(0.835239 -0.0818893 0.223877 0.0985266 1.03046 0.0172242 -0.270671 0.11066 1.05809)
(0.856144 -0.0304307 0.179478 0.115376 1.07145 0.0463415 -0.226885 0.180015 1.02692)
(0.894225 0.0227201 0.153113 0.138315 1.05401 0.0985431 -0.169986 0.240536 1.04164)
(0.940848 0.048821 0.143182 0.158849 0.985519 0.131273 -0.105489 0.258507 1.09294)
(0.986888 0.0471706 0.132581 0.171183 0.896647 0.123501 -0.0388144 0.222167 1.15653)
(1.02632 0.0341867 0.11065 0.173033 0.81914 0.0752636 0.0268629 0.137525 1.20867)
(1.05608 0.0281071 0.0777483 0.163907 0.776765 -0.00124635 0.0898263 0.0214538 1.23102)
(1.07465 0.0413509 0.0415682 0.144183 0.782243 -0.0868955 0.148677 -0.101747 1.21343)
(1.0811 0.0783832 0.0131234 0.115029 0.834854 -0.160304 0.202041 -0.204932 1.15732)
(1.07467 0.134981 0.00359784 0.0783702 0.921001 -0.204023 0.248711 -0.265224 1.0763)
(1.05486 0.197262 0.0208144 0.0366743 1.01918 -0.208917 0.287779 -0.270477 0.991895)
(1.02197 0.241407 0.0634375 -0.00730394 1.10648 -0.173308 0.318449 -0.221874 0.92685)
(0.978819 0.239512 0.112027 -0.0502097 1.16132 -0.098814 0.339323 -0.133093 0.900244)
(0.932749 0.180687 0.124457 -0.0866273 1.16294 0.00616095 0.347943 -0.0303611 0.92485)
(0.89443 0.0982528 0.0583409 -0.108827 1.10149 0.108791 0.343337 0.0501561 0.996806)
(0.870259 0.0538579 -0.0751097 -0.111558 1.00851 0.152321 0.331111 0.083963 1.08011)
(0.740013 0.275639 -0.318148 -0.167289 1.02191 0.0763391 0.246098 0.0974687 1.13366)
(0.762728 0.0850198 -0.383495 -0.129933 1.0363 0.0188832 0.217672 0.193229 1.12619)
(0.835835 -0.0867421 -0.336627 -0.100208 1.0427 0.00877712 0.18587 0.277301 1.08118)
(0.928635 -0.207283 -0.255602 -0.0849767 1.02014 0.0429509 0.152887 0.329501 1.05253)
(1.0188 -0.275252 -0.187693 -0.079267 0.964087 0.0828941 0.118355 0.337614 1.05984)
(1.09472 -0.303307 -0.144997 -0.0767261 0.886734 0.0973839 0.0818593 0.299225 1.09089)
(1.15395 -0.310321 -0.122524 -0.0734022 0.810286 0.0778735 0.0434829 0.219571 1.12573)
(1.19781 -0.312659 -0.113769 -0.067177 0.755161 0.0316794 0.00382853 0.108828 1.14876)
(1.22769 -0.320701 -0.115762 -0.0568887 0.734425 -0.028532 -0.0361671 -0.0184233 1.15041)
(1.2442 -0.339457 -0.128718 -0.0418 0.752792 -0.0899959 -0.0755377 -0.144204 1.12708)
(1.24737 -0.369708 -0.154359 -0.0214742 0.806908 -0.141499 -0.113346 -0.249976 1.08142)
(1.23692 -0.408843 -0.193791 0.00409472 0.886252 -0.174077 -0.148558 -0.320269 1.02172)
(1.21214 -0.45168 -0.244489 0.0343913 0.974603 -0.180966 -0.180063 -0.34604 0.960174)
(1.17094 -0.491541 -0.295546 0.0686199 1.05157 -0.156556 -0.207145 -0.326852 0.911141)
(1.10822 -0.520579 -0.322123 0.106085 1.09496 -0.0969372 -0.230118 -0.270925 0.890919)
(1.01725 -0.52734 -0.285839 0.145208 1.09071 -0.0080364 -0.249525 -0.191509 0.916658)
(0.902395 -0.496527 -0.153904 0.178946 1.05211 0.081978 -0.263119 -0.0978817 0.992315)
(0.794755 -0.418258 0.0711648 0.190633 1.02294 0.124556 -0.264962 -0.000229194 1.07889)
(0.740013 -0.275639 0.318148 0.167289 1.02191 0.0763391 -0.246098 0.0974687 1.13366)
(0.762728 -0.0850198 0.383495 0.129933 1.0363 0.0188832 -0.217672 0.193229 1.12619)
(0.835835 0.0867421 0.336627 0.100208 1.0427 0.00877712 -0.18587 0.277301 1.08118)
(0.928635 0.207283 0.255602 0.0849767 1.02014 0.0429509 -0.152887 0.329501 1.05253)
(1.0188 0.275252 0.187693 0.079267 0.964087 0.0828941 -0.118355 0.337614 1.05984)
(1.09472 0.303307 0.144997 0.0767261 0.886734 0.0973839 -0.0818593 0.299225 1.09089)
(1.15395 0.310321 0.122524 0.0734022 0.810286 0.0778735 -0.0434829 0.219571 1.12573)
(1.19781 0.312659 0.113769 0.067177 0.755161 0.0316794 -0.00382853 0.108828 1.14876)
(1.22769 0.320701 0.115762 0.0568887 0.734425 -0.028532 0.0361671 -0.0184233 1.15041)
(1.2442 0.339457 0.128718 0.0418 0.752792 -0.0899959 0.0755377 -0.144204 1.12708)
(1.24737 0.369708 0.154359 0.0214742 0.806908 -0.141499 0.113346 -0.249976 1.08142)
(1.23692 0.408843 0.193791 -0.00409472 0.886252 -0.174077 0.148558 -0.320269 1.02172)
(1.21214 0.45168 0.244489 -0.0343913 0.974603 -0.180966 0.180063 -0.34604 0.960174)
(1.17094 0.491541 0.295546 -0.0686199 1.05157 -0.156556 0.207145 -0.326852 0.911141)
(1.10822 0.520579 0.322123 -0.106085 1.09496 -0.0969372 0.230118 -0.270925 0.890919)
(1.01725 0.52734 0.285839 -0.145208 1.09071 -0.0080364 0.249525 -0.191509 0.916658)
(0.902395 0.496527 0.153904 -0.178946 1.05211 0.081978 0.263119 -0.0978817 0.992315)
(0.794755 0.418258 -0.0711648 -0.190633 1.02294 0.124556 0.264962 -0.000229194 1.07889)
(0.762505 0.182768 -0.295201 -0.111864 0.987772 0.056078 0.244742 0.10618 1.15141)
(0.771614 0.0962948 -0.34136 -0.101763 1.01613 0.0055631 0.222429 0.161069 1.12728)
(0.813664 -0.0307526 -0.278372 -0.0966181 1.05604 0.00569635 0.192058 0.234118 1.07987)
(0.873684 -0.158561 -0.19465 -0.0975304 1.05983 0.0519059 0.154551 0.302673 1.06221)
(0.938876 -0.253707 -0.139589 -0.100039 1.01181 0.102101 0.113051 0.333131 1.08822)
(0.999403 -0.303594 -0.115715 -0.100354 0.928999 0.120931 0.0705313 0.309706 1.13937)
(1.05016 -0.319822 -0.107817 -0.0967814 0.841679 0.0984487 0.0281733 0.235356 1.19195)
(1.08967 -0.322171 -0.105174 -0.0887478 0.776175 0.0424247 -0.0136148 0.121786 1.22785)
(1.11781 -0.326556 -0.10517 -0.0760492 0.749834 -0.0325111 -0.0541479 -0.0136553 1.23465)
(1.13459 -0.342282 -0.110307 -0.0587414 0.769701 -0.109479 -0.092479 -0.148465 1.20684)
(1.13978 -0.372478 -0.125378 -0.0372399 0.831537 -0.172254 -0.127716 -0.25889 1.14812)
(1.13289 -0.414658 -0.15501 -0.0123769 0.921113 -0.208631 -0.159173 -0.325909 1.07101)
(1.11302 -0.460717 -0.200568 0.0146625 1.01814 -0.212199 -0.186446 -0.340043 0.993276)
(1.07842 -0.496308 -0.254834 0.0425934 1.10057 -0.180758 -0.209626 -0.302643 0.933451)
(1.02636 -0.501309 -0.293447 0.070269 1.14673 -0.114111 -0.229394 -0.223668 0.909031)
(0.955123 -0.457275 -0.270093 0.0960497 1.14006 -0.0203223 -0.245957 -0.120596 0.93675)
(0.871819 -0.364344 -0.139632 0.115696 1.08406 0.0697272 -0.256693 -0.019879 1.01938)
(0.799092 -0.258452 0.0867884 0.121758 1.01522 0.104701 -0.257185 0.054593 1.11112)
(0.762505 -0.182768 0.295201 0.111864 0.987772 0.056078 -0.244742 0.10618 1.15141)
(0.771614 -0.0962948 0.34136 0.101763 1.01613 0.0055631 -0.222429 0.161069 1.12728)
(0.813664 0.0307526 0.278372 0.0966181 1.05604 0.00569635 -0.192058 0.234118 1.07987)
(0.873684 0.158561 0.19465 0.0975304 1.05983 0.0519059 -0.154551 0.302673 1.06221)
(0.938876 0.253707 0.139589 0.100039 1.01181 0.102101 -0.113051 0.333131 1.08822)
(0.999403 0.303594 0.115715 0.100354 0.928999 0.120931 -0.0705313 0.309706 1.13937)
(1.05016 0.319822 0.107817 0.0967814 0.841679 0.0984487 -0.0281733 0.235356 1.19195)
(1.08967 0.322171 0.105174 0.0887478 0.776175 0.0424247 0.0136148 0.121786 1.22785)
(1.11781 0.326556 0.10517 0.0760492 0.749834 -0.0325111 0.0541479 -0.0136553 1.23465)
(1.13459 0.342282 0.110307 0.0587414 0.769701 -0.109479 0.092479 -0.148465 1.20684)
(1.13978 0.372478 0.125378 0.0372399 0.831537 -0.172254 0.127716 -0.25889 1.14812)
(1.13289 0.414658 0.15501 0.0123769 0.921113 -0.208631 0.159173 -0.325909 1.07101)
(1.11302 0.460717 0.200568 -0.0146625 1.01814 -0.212199 0.186446 -0.340043 0.993276)
(1.07842 0.496308 0.254834 -0.0425934 1.10057 -0.180758 0.209626 -0.302643 0.933451)
(1.02636 0.501309 0.293447 -0.070269 1.14673 -0.114111 0.229394 -0.223668 0.909031)
(0.955123 0.457275 0.270093 -0.0960497 1.14006 -0.0203223 0.245957 -0.120596 0.93675)
(0.871819 0.364344 0.139632 -0.115696 1.08406 0.0697272 0.256693 -0.019879 1.01938)
(0.799092 0.258452 -0.0867884 -0.121758 1.01522 0.104701 0.257185 0.054593 1.11112)
(0.787541 0.115967 -0.274075 -0.0820344 0.951479 0.0356385 0.251386 0.0951008 1.17206)
(0.781336 0.116157 -0.300467 -0.092038 0.993967 -0.00629308 0.234456 0.117327 1.13032)
(0.791893 0.0364828 -0.217532 -0.102452 1.06437 0.00263059 0.201063 0.186516 1.08222)
(0.818759 -0.0980876 -0.127131 -0.111754 1.09927 0.0608655 0.156331 0.271688 1.07548)
(0.858196 -0.225735 -0.0850408 -0.117451 1.06664 0.124186 0.107491 0.325486 1.11982)
(0.902481 -0.303544 -0.0837977 -0.117715 0.982179 0.150433 0.0598993 0.319697 1.19251)
(0.944019 -0.332204 -0.0949833 -0.112366 0.884009 0.126158 0.0152331 0.253061 1.2659)
(0.97861 -0.334862 -0.101545 -0.101941 0.806309 0.0585579 -0.0267894 0.137727 1.31815)
(1.00464 -0.334302 -0.100437 -0.0868655 0.772792 -0.0356878 -0.0661415 -0.00624329 1.33203)
(1.02141 -0.345463 -0.0965881 -0.0677763 0.794245 -0.133725 -0.102147 -0.150753 1.29855)
(1.0284 -0.374694 -0.0986803 -0.0457887 0.865425 -0.211727 -0.134131 -0.265206 1.22257)
(1.02487 -0.419741 -0.11608 -0.0223548 0.966947 -0.25278 -0.161854 -0.325993 1.12259)
(1.00983 -0.468583 -0.15544 0.00102378 1.0729 -0.251354 -0.185557 -0.323369 1.02408)
(0.982253 -0.496888 -0.214282 0.0230642 1.15884 -0.210472 -0.205831 -0.26165 0.951301)
(0.94237 -0.469529 -0.268154 0.0427095 1.20318 -0.135097 -0.223272 -0.154868 0.923714)
(0.894171 -0.362501 -0.2592 0.0586103 1.18583 -0.0354785 -0.237825 -0.0286102 0.957251)
(0.846238 -0.208212 -0.125076 0.0695002 1.1023 0.0548221 -0.248323 0.0704732 1.05102)
(0.808844 -0.112539 0.106998 0.076445 0.99529 0.0820481 -0.253118 0.101672 1.14923)
(0.787541 -0.115967 0.274075 0.0820344 0.951479 0.0356385 -0.251386 0.0951008 1.17206)
(0.781336 -0.116157 0.300467 0.092038 0.993967 -0.00629308 -0.234456 0.117327 1.13032)
(0.791893 -0.0364828 0.217532 0.102452 1.06437 0.00263059 -0.201063 0.186516 1.08222)
(0.818759 0.0980876 0.127131 0.111754 1.09927 0.0608655 -0.156331 0.271688 1.07548)
(0.858196 0.225735 0.0850408 0.117451 1.06664 0.124186 -0.107491 0.325486 1.11982)
(0.902481 0.303544 0.0837977 0.117715 0.982179 0.150433 -0.0598993 0.319697 1.19251)
(0.944019 0.332204 0.0949833 0.112366 0.884009 0.126158 -0.0152331 0.253061 1.2659)
(0.97861 0.334862 0.101545 0.101941 0.806309 0.0585579 0.0267894 0.137727 1.31815)
(1.00464 0.334302 0.100437 0.0868655 0.772792 -0.0356878 0.0661415 -0.00624329 1.33203)
(1.02141 0.345463 0.0965881 0.0677763 0.794245 -0.133725 0.102147 -0.150753 1.29855)
(1.0284 0.374694 0.0986803 0.0457887 0.865425 -0.211727 0.134131 -0.265206 1.22257)
(1.02487 0.419741 0.11608 0.0223548 0.966947 -0.25278 0.161854 -0.325993 1.12259)
(1.00983 0.468583 0.15544 -0.00102378 1.0729 -0.251354 0.185557 -0.323369 1.02408)
(0.982253 0.496888 0.214282 -0.0230642 1.15884 -0.210472 0.205831 -0.26165 0.951301)
(0.94237 0.469529 0.268154 -0.0427095 1.20318 -0.135097 0.223272 -0.154868 0.923714)
(0.894171 0.362501 0.2592 -0.0586103 1.18583 -0.0354785 0.237825 -0.0286102 0.957251)
(0.846238 0.208212 0.125076 -0.0695002 1.1023 0.0548221 0.248323 0.0704732 1.05102)
(0.808844 0.112539 -0.106998 -0.076445 0.99529 0.0820481 0.253118 0.101672 1.14923)
(0.817423 0.267091 -0.360301 -0.150287 0.953722 -0.113467 0.125853 0.129069 1.12817)
(0.847232 -0.00806652 -0.404886 -0.105247 0.977209 -0.0676869 0.115606 0.228471 1.11517)
(0.904052 -0.246528 -0.318898 -0.0677565 0.993651 -0.000487694 0.108781 0.305187 1.09088)
(0.975176 -0.422066 -0.199751 -0.0406586 0.969161 0.0706039 0.100393 0.341701 1.09413)
(1.04278 -0.528692 -0.112229 -0.0185734 0.904801 0.117432 0.0880788 0.330558 1.12574)
(1.09744 -0.580348 -0.0718358 0.000352299 0.822134 0.123711 0.0711853 0.275807 1.16802)
(1.13902 -0.601242 -0.0679738 0.0163608 0.745692 0.0900425 0.0491667 0.186147 1.20441)
(1.16959 -0.610164 -0.0868185 0.0309206 0.694203 0.0275911 0.0224207 0.0716549 1.2233)
(1.18977 -0.617494 -0.119444 0.0461515 0.678905 -0.0493655 -0.0071823 -0.053902 1.21771)
(1.199 -0.628168 -0.161909 0.0635826 0.70279 -0.127272 -0.0369215 -0.173254 1.18625)
(1.19646 -0.643855 -0.213077 0.0835701 0.760784 -0.195027 -0.0641117 -0.269248 1.1335)
(1.1815 -0.664086 -0.27199 0.105282 0.841368 -0.244888 -0.0867186 -0.328875 1.0689)
(1.15337 -0.687173 -0.334298 0.127031 0.928989 -0.272304 -0.103903 -0.346156 1.00475)