/*--------------------------------*- C++ -*----------------------------------*\
| =========                 |                                                 |
| \\      /  F ield         | OpenFOAM: The Open Source CFD Toolbox           |
|  \\    /   O peration     | Version:  2312                                  |
|   \\  /    A nd           | Website:  www.openfoam.com                      |
|    \\/     M anipulation  |                                                 |
\*---------------------------------------------------------------------------*/
FoamFile
{
    version     2.0;
    format      ascii;
    arch        "LSB;label=32;scalar=64";
    class       pointVectorField;
    location    "0.8";
    object      pointD;
}
// * * * * * * * * * * * * * * * * * * * * * * * * * * * * * * * * * * * * * //

dimensions      [0 1 0 0 0 0 0];

internalField   nonuniform List<vector> 
2164
(
(0 0 0)
(0 0 0)
(0 0 0)
(0 0 0)
(0 0 0)
(0 0 0)
(0 0 0)
(0 0 0)
(0 0 0)
(0 0 0)
(0 0 0)
(0 0 0)
(0 0 0)
(0 0 0)
(0 0 0)
(0 0 0)
(0 0 0)
(0 0 0)
(0 0 0)
(0 0 0)
(0 0 0)
(0 0 0)
(0 0 0)
(0 0 0)
(0 0 0)
(0 0 0)
(0 0 0)
(0 0 0)
(0 0 0)
(0 0 0)
(0 0 0)
(0 0 0)
(0 0 0)
(0 0 0)
(0 0 0)
(0 0 0)
(0.0023836 9.06702e-05 -0.00424123)
(0.00271165 0.000642309 -0.00355962)
(0.00239117 0.00108823 -0.00252629)
(0.00173256 0.00131133 -0.00142603)
(0.0010033 0.00134992 -0.000466354)
(0.000332689 0.00126425 0.000260295)
(-0.000243584 0.00110006 0.000745017)
(-0.000731963 0.000899241 0.00102817)
(-0.00115111 0.000699877 0.00118023)
(-0.00151545 0.000523071 0.00128598)
(-0.00182479 0.00036415 0.00142699)
(-0.00205747 0.000199821 0.00166383)
(-0.00216756 1.58851e-05 0.00202161)
(-0.0020863 -0.000150903 0.00248672)
(-0.00172612 -0.000195708 0.00302289)
(-0.000994277 -3.09101e-05 0.0035846)
(0.000127205 0.000233732 0.00408372)
(0.00140069 0.000270077 0.00437924)
(0.0023836 -9.06702e-05 0.00424123)
(0.00271165 -0.000642309 0.00355962)
(0.00239117 -0.00108823 0.00252629)
(0.00173256 -0.00131133 0.00142603)
(0.0010033 -0.00134992 0.000466354)
(0.000332689 -0.00126425 -0.000260295)
(-0.000243584 -0.00110006 -0.000745017)
(-0.000731963 -0.000899241 -0.00102817)
(-0.00115111 -0.000699877 -0.00118023)
(-0.00151545 -0.000523071 -0.00128598)
(-0.00182479 -0.00036415 -0.00142699)
(-0.00205747 -0.000199821 -0.00166383)
(-0.00216756 -1.58851e-05 -0.00202161)
(-0.0020863 0.000150903 -0.00248672)
(-0.00172612 0.000195708 -0.00302289)
(-0.000994277 3.09101e-05 -0.0035846)
(0.000127205 -0.000233732 -0.00408372)
(0.00140069 -0.000270077 -0.00437924)
(0.00155685 0.000570713 -0.00393181)
(0.0017712 0.000822473 -0.00339109)
(0.00157046 0.0011107 -0.00263068)
(0.00110037 0.00135314 -0.00178782)
(0.000526987 0.00152398 -0.000977623)
(-3.92128e-05 0.00161138 -0.000268691)
(-0.000541476 0.00161251 0.000315038)
(-0.000958346 0.00153897 0.000784723)
(-0.00128667 0.00140922 0.00117593)
(-0.001528 0.00123455 0.00153547)
(-0.00167893 0.00101099 0.00190673)
(-0.00172658 0.000724462 0.00231574)
(-0.00165026 0.000370609 0.00276035)
(-0.00142915 -1.42121e-05 0.00320822)
(-0.0010495 -0.000334991 0.00361194)
(-0.000501249 -0.000485389 0.00393256)
(0.000208965 -0.000467864 0.00413342)
(0.000967391 -0.000449246 0.00416422)
(0.00155685 -0.000570713 0.00393181)
(0.0017712 -0.000822473 0.00339109)
(0.00157046 -0.0011107 0.00263068)
(0.00110037 -0.00135314 0.00178782)
(0.000526987 -0.00152398 0.000977623)
(-3.92128e-05 -0.00161138 0.000268691)
(-0.000541476 -0.00161251 -0.000315038)
(-0.000958346 -0.00153897 -0.000784723)
(-0.00128667 -0.00140922 -0.00117593)
(-0.001528 -0.00123455 -0.00153547)
(-0.00167893 -0.00101099 -0.00190673)
(-0.00172658 -0.000724462 -0.00231574)
(-0.00165026 -0.000370609 -0.00276035)
(-0.00142915 1.42121e-05 -0.00320822)
(-0.0010495 0.000334991 -0.00361194)
(-0.000501249 0.000485389 -0.00393256)
(0.000208965 0.000467864 -0.00413342)
(0.000967391 0.000449246 -0.00416422)
(0 0 0)
(0 0 0)
(0 0 0)
(0 0 0)
(0 0 0)
(0 0 0)
(0 0 0)
(0 0 0)
(0 0 0)
(0 0 0)
(0 0 0)
(0 0 0)
(0 0 0)
(0 0 0)
(0 0 0)
(0 0 0)
(0 0 0)
(0 0 0)
(0 0 0)
(0 0 0)
(0 0 0)
(0 0 0)
(0 0 0)
(0 0 0)
(0 0 0)
(0 0 0)
(0 0 0)
(0 0 0)
(0 0 0)
(0 0 0)
(0 0 0)
(0 0 0)
(0 0 0)
(0 0 0)
(0 0 0)
(0 0 0)
(0.000799025 0.00095853 -0.00359816)
(0.000915499 0.000940267 -0.00321115)
(0.000827353 0.0010907 -0.00272328)
(0.000532356 0.00136875 -0.00213258)
(9.83013e-05 0.00169024 -0.00146673)
(-0.000383894 0.00197013 -0.000769881)
(-0.000835821 0.00215311 -7.9917e-05)
(-0.00120648 0.00221659 0.000584445)
(-0.00146924 0.0021567 0.00122104)
(-0.0016113 0.00197458 0.00183408)
(-0.00162475 0.00167036 0.00242426)
(-0.00150428 0.00124552 0.00298121)
(-0.00125334 0.000712939 0.00347824)
(-0.000897632 0.000114413 0.00387222)
(-0.000494366 -0.000462124 0.00411604)
(-0.000109228 -0.000892178 0.00418756)
(0.000235965 -0.00108025 0.00410489)
(0.000548091 -0.00105888 0.00389912)
(0.000799025 -0.00095853 0.00359816)
(0.000915499 -0.000940267 0.00321115)
(0.000827353 -0.0010907 0.00272328)
(0.000532356 -0.00136875 0.00213258)
(9.83013e-05 -0.00169024 0.00146673)
(-0.000383894 -0.00197013 0.000769881)
(-0.000835821 -0.00215311 7.9917e-05)
(-0.00120648 -0.00221659 -0.000584445)
(-0.00146924 -0.0021567 -0.00122104)
(-0.0016113 -0.00197458 -0.00183408)
(-0.00162475 -0.00167036 -0.00242426)
(-0.00150428 -0.00124552 -0.00298121)
(-0.00125334 -0.000712939 -0.00347824)
(-0.000897632 -0.000114413 -0.00387222)
(-0.000494366 0.000462124 -0.00411604)
(-0.000109228 0.000892178 -0.00418756)
(0.000235965 0.00108025 -0.00410489)
(0.000548091 0.00105888 -0.00389912)
(0 0 0)
(0 0 0)
(0 0 0)
(0 0 0)
(0 0 0)
(0 0 0)
(0 0 0)
(0 0 0)
(0 0 0)
(0 0 0)
(0 0 0)
(0 0 0)
(0 0 0)
(0 0 0)
(0 0 0)
(0 0 0)
(0 0 0)
(0 0 0)
(0 0 0)
(0 0 0)
(0 0 0)
(0 0 0)
(0 0 0)
(0 0 0)
(0 0 0)
(0 0 0)
(0 0 0)
(0 0 0)
(0 0 0)
(0 0 0)
(0 0 0)
(0 0 0)
(0 0 0)
(0 0 0)
(0 0 0)
(0 0 0)
(0.000182043 0.00118763 -0.00326795)
(0.000231361 0.000995188 -0.00302017)
(0.00024065 0.00105645 -0.00276304)
(0.000102178 0.00137883 -0.00238902)
(-0.000202733 0.00184588 -0.00185219)
(-0.000609162 0.00231417 -0.00116873)
(-0.00102378 0.00267757 -0.000383177)
(-0.00136825 0.00287645 0.000459585)
(-0.00159194 0.00288247 0.0013197)
(-0.00166639 0.00268699 0.00215723)
(-0.00157811 0.00229707 0.00292913)
(-0.00132846 0.00173424 0.0035899)
(-0.000943523 0.00103429 0.00409323)
(-0.000491323 0.000252028 0.00439445)
(-8.7592e-05 -0.000522737 0.00446061)
(0.000149868 -0.00114832 0.00429829)
(0.000202718 -0.00146551 0.00397808)
(0.000177906 -0.00143203 0.00359878)
(0.000182043 -0.00118763 0.00326795)
(0.000231361 -0.000995188 0.00302017)
(0.00024065 -0.00105645 0.00276304)
(0.000102178 -0.00137883 0.00238902)
(-0.000202733 -0.00184588 0.00185219)
(-0.000609162 -0.00231417 0.00116873)
(-0.00102378 -0.00267757 0.000383177)
(-0.00136825 -0.00287645 -0.000459585)
(-0.00159194 -0.00288247 -0.0013197)
(-0.00166639 -0.00268699 -0.00215723)
(-0.00157811 -0.00229707 -0.00292913)
(-0.00132846 -0.00173424 -0.0035899)
(-0.000943523 -0.00103429 -0.00409323)
(-0.000491323 -0.000252028 -0.00439445)
(-8.7592e-05 0.000522737 -0.00446061)
(0.000149868 0.00114832 -0.00429829)
(0.000202718 0.00146551 -0.00397808)
(0.000177906 0.00143203 -0.00359878)
(0 0 0)
(0 0 0)
(0 0 0)
(0 0 0)
(0 0 0)
(0 0 0)
(0 0 0)
(0 0 0)
(0 0 0)
(0 0 0)
(0 0 0)
(0 0 0)
(0 0 0)
(0 0 0)
(0 0 0)
(0 0 0)
(0 0 0)
(0 0 0)
(0 0 0)
(0 0 0)
(0 0 0)
(0 0 0)
(0 0 0)
(0 0 0)
(0 0 0)
(0 0 0)
(0 0 0)
(0 0 0)
(0 0 0)
(0 0 0)
(0 0 0)
(0 0 0)
(0 0 0)
(0 0 0)
(0 0 0)
(0 0 0)
(0.00504478 0.00119615 -0.00754856)
(0.00515583 0.00172721 -0.00626032)
(0.00403779 0.0021429 -0.00453933)
(0.00239076 0.00240113 -0.00279832)
(0.000718565 0.00253196 -0.00127545)
(-0.000746637 0.00253373 -6.08974e-05)
(-0.00195003 0.00240975 0.000840172)
(-0.00291445 0.00219506 0.00148019)
(-0.00368025 0.00193538 0.00195667)
(-0.00427551 0.00165249 0.0023899)
(-0.00470134 0.00132792 0.00289192)
(-0.00492443 0.000915298 0.00353533)
(-0.00487136 0.000382497 0.00433102)
(-0.00442047 -0.000222648 0.00522983)
(-0.00340081 -0.000722677 0.00616135)
(-0.00165482 -0.000897431 0.00706511)
(0.000762465 -0.000771311 0.00778329)
(0.00334954 -0.000790836 0.00804313)
(0.00504478 -0.00119615 0.00754856)
(0.00515583 -0.00172721 0.00626032)
(0.00403779 -0.0021429 0.00453933)
(0.00239076 -0.00240113 0.00279832)
(0.000718565 -0.00253196 0.00127545)
(-0.000746637 -0.00253373 6.08974e-05)
(-0.00195003 -0.00240975 -0.000840172)
(-0.00291445 -0.00219506 -0.00148019)
(-0.00368025 -0.00193538 -0.00195667)
(-0.00427551 -0.00165249 -0.0023899)
(-0.00470134 -0.00132792 -0.00289192)
(-0.00492443 -0.000915298 -0.00353533)
(-0.00487136 -0.000382497 -0.00433102)
(-0.00442047 0.000222648 -0.00522983)
(-0.00340081 0.000722677 -0.00616135)
(-0.00165482 0.000897431 -0.00706511)
(0.000762465 0.000771311 -0.00778329)
(0.00334954 0.000790836 -0.00804313)
(0.00377394 0.00156728 -0.00719524)
(0.00391507 0.00182256 -0.00619029)
(0.00319702 0.00216624 -0.00486448)
(0.00200514 0.002535 -0.00341959)
(0.000684057 0.00286248 -0.00200958)
(-0.000552381 0.00307242 -0.000731149)
(-0.00160551 0.00312422 0.00037416)
(-0.00244776 0.0030239 0.00131541)
(-0.00308226 0.00279786 0.00214009)
(-0.00351558 0.00246264 0.00291366)
(-0.00374248 0.00201201 0.00369551)
(-0.00373972 0.00142561 0.00451697)
(-0.00346649 0.000697886 0.00536616)
(-0.00287022 -0.000116232 0.00618722)
(-0.00189979 -0.000861159 0.00690384)
(-0.000539447 -0.00132844 0.00745444)
(0.00110216 -0.00145013 0.00776511)
(0.00270552 -0.00145234 0.00771884)
(0.00377394 -0.00156728 0.00719524)
(0.00391507 -0.00182256 0.00619029)
(0.00319702 -0.00216624 0.00486448)
(0.00200514 -0.002535 0.00341959)
(0.000684057 -0.00286248 0.00200958)
(-0.000552381 -0.00307242 0.000731149)
(-0.00160551 -0.00312422 -0.00037416)
(-0.00244776 -0.0030239 -0.00131541)
(-0.00308226 -0.00279786 -0.00214009)
(-0.00351558 -0.00246264 -0.00291366)
(-0.00374248 -0.00201201 -0.00369551)
(-0.00373972 -0.00142561 -0.00451697)
(-0.00346649 -0.000697886 -0.00536616)
(-0.00287022 0.000116232 -0.00618722)
(-0.00189979 0.000861159 -0.00690384)
(-0.000539447 0.00132844 -0.00745444)
(0.00110216 0.00145013 -0.00776511)
(0.00270552 0.00145234 -0.00771884)
(0.00258108 0.00185806 -0.00674517)
(0.00275817 0.0018421 -0.0060526)
(0.00242682 0.00210599 -0.00513103)
(0.00167687 0.00258321 -0.00399091)
(0.000692092 0.0031183 -0.00270446)
(-0.000333788 0.00355448 -0.00137166)
(-0.00125777 0.00380056 -6.8058e-05)
(-0.00200103 0.00382803 0.00117276)
(-0.00252824 0.00363877 0.00234585)
(-0.00282277 0.00324219 0.00345602)
(-0.00287152 0.00264764 0.00450386)
(-0.00266035 0.00186787 0.00547638)
(-0.00218077 0.000931355 0.00634033)
(-0.00144965 -9.5007e-05 0.00703888)
(-0.000536853 -0.00107418 0.00749873)
(0.000431913 -0.00180169 0.00766692)
(0.00131509 -0.00211076 0.0075625)
(0.00204058 -0.00204208 0.00724367)
(0.00258108 -0.00185806 0.00674517)
(0.00275817 -0.0018421 0.0060526)
(0.00242682 -0.00210599 0.00513103)
(0.00167687 -0.00258321 0.00399091)
(0.000692092 -0.0031183 0.00270446)
(-0.000333788 -0.00355448 0.00137166)
(-0.00125777 -0.00380056 6.8058e-05)
(-0.00200103 -0.00382803 -0.00117276)
(-0.00252824 -0.00363877 -0.00234585)
(-0.00282277 -0.00324219 -0.00345602)
(-0.00287152 -0.00264764 -0.00450386)
(-0.00266035 -0.00186787 -0.00547638)
(-0.00218077 -0.000931355 -0.00634033)
(-0.00144965 9.5007e-05 -0.00703888)
(-0.000536853 0.00107418 -0.00749873)
(0.000431913 0.00180169 -0.00766692)
(0.00131509 0.00211076 -0.0075625)
(0.00204058 0.00204208 -0.00724367)
(0.00158933 0.00202567 -0.00625384)
(0.00179718 0.00182867 -0.00584083)
(0.00180449 0.00202875 -0.0052647)
(0.00146615 0.00258934 -0.00439967)
(0.000809193 0.00330586 -0.00324382)
(-8.68864e-06 0.00395501 -0.00188522)
(-0.000811808 0.00439281 -0.000421148)
(-0.00147372 0.0045507 0.00107751)
(-0.0019201 0.00440237 0.00255496)
(-0.00210963 0.00394905 0.00395549)
(-0.00202025 0.00321698 0.00522122)
(-0.00164693 0.00225434 0.00629617)
(-0.00101485 0.00112634 0.00712816)
(-0.000210315 -8.23481e-05 0.00766366)
(0.000587972 -0.00124114 0.0078451)
(0.0011485 -0.0021405 0.00765084)
(0.00135601 -0.00254429 0.00719178)
(0.00141746 -0.00240418 0.0066821)
(0.00158933 -0.00202567 0.00625384)
(0.00179718 -0.00182867 0.00584083)
(0.00180449 -0.00202875 0.0052647)
(0.00146615 -0.00258934 0.00439967)
(0.000809193 -0.00330586 0.00324382)
(-8.68864e-06 -0.00395501 0.00188522)
(-0.000811808 -0.00439281 0.000421148)
(-0.00147372 -0.0045507 -0.00107751)
(-0.0019201 -0.00440237 -0.00255496)
(-0.00210963 -0.00394905 -0.00395549)
(-0.00202025 -0.00321698 -0.00522122)
(-0.00164693 -0.00225434 -0.00629617)
(-0.00101485 -0.00112634 -0.00712816)
(-0.000210315 8.23481e-05 -0.00766366)
(0.000587972 0.00124114 -0.0078451)
(0.0011485 0.0021405 -0.00765084)
(0.00135601 0.00254429 -0.00719178)
(0.00141746 0.00240418 -0.0066821)
(0.00795869 0.00297625 -0.00985162)
(0.00732287 0.00296927 -0.00823197)
(0.00506633 0.00303704 -0.00619886)
(0.00226103 0.00314171 -0.00416129)
(-0.000392013 0.00322094 -0.00232712)
(-0.00260797 0.00319896 -0.000770049)
(-0.00435779 0.00303978 0.000503924)
(-0.00569904 0.00275825 0.00153713)
(-0.00669128 0.00238738 0.00241525)
(-0.00736923 0.00193868 0.00324755)
(-0.00773555 0.00138668 0.00413366)
(-0.00775651 0.000683905 0.00513055)
(-0.0073494 -0.000198477 0.0062337)
(-0.00634821 -0.00121366 0.00738982)
(-0.00447318 -0.00219194 0.00854162)
(-0.00147566 -0.00288051 0.00963514)
(0.00240596 -0.00312212 0.0104736)
(0.00610451 -0.0030641 0.0106405)
(0.00795869 -0.00297625 0.00985162)
(0.00732287 -0.00296927 0.00823197)
(0.00506633 -0.00303704 0.00619886)
(0.00226103 -0.00314171 0.00416129)
(-0.000392013 -0.00322094 0.00232712)
(-0.00260797 -0.00319896 0.000770049)
(-0.00435779 -0.00303978 -0.000503924)
(-0.00569904 -0.00275825 -0.00153713)
(-0.00669128 -0.00238738 -0.00241525)
(-0.00736923 -0.00193868 -0.00324755)
(-0.00773555 -0.00138668 -0.00413366)
(-0.00775651 -0.000683905 -0.00513055)
(-0.0073494 0.000198477 -0.0062337)
(-0.00634821 0.00121366 -0.00738982)
(-0.00447318 0.00219194 -0.00854162)
(-0.00147566 0.00288051 -0.00963514)
(0.00240596 0.00312212 -0.0104736)
(0.00610451 0.0030641 -0.0106405)
(0.00644206 0.00284581 -0.00945466)
(0.00610519 0.0028622 -0.00817071)
(0.004611 0.00308153 -0.00652654)
(0.00257655 0.0034239 -0.00473013)
(0.000488235 0.0037545 -0.00294679)
(-0.00137572 0.00395203 -0.0012818)
(-0.00290942 0.00395714 0.000219164)
(-0.00409718 0.00376831 0.00155856)
(-0.00495144 0.00340787 0.00277373)
(-0.00548188 0.00289046 0.0039192)
(-0.0056824 0.00221175 0.00504402)
(-0.00552601 0.0013581 0.0061699)
(-0.00496038 0.000333408 0.00727864)
(-0.00389902 -0.000801849 0.00831747)
(-0.00222384 -0.0018913 0.00922211)
(0.000115445 -0.00269944 0.0099274)
(0.00284234 -0.00304406 0.0103183)
(0.00523877 -0.00299011 0.0101967)
(0.00644206 -0.00284581 0.00945466)
(0.00610519 -0.0028622 0.00817071)
(0.004611 -0.00308153 0.00652654)
(0.00257655 -0.0034239 0.00473013)
(0.000488235 -0.0037545 0.00294679)
(-0.00137572 -0.00395203 0.0012818)
(-0.00290942 -0.00395714 -0.000219164)
(-0.00409718 -0.00376831 -0.00155856)
(-0.00495144 -0.00340787 -0.00277373)
(-0.00548188 -0.00289046 -0.0039192)
(-0.0056824 -0.00221175 -0.00504402)
(-0.00552601 -0.0013581 -0.0061699)
(-0.00496038 -0.000333408 -0.00727864)
(-0.00389902 0.000801849 -0.00831747)
(-0.00222384 0.0018913 -0.00922211)
(0.000115445 0.00269944 -0.0099274)
(0.00284234 0.00304406 -0.0103183)
(0.00523877 0.00299011 -0.0101967)
(0.00498692 0.00274136 -0.00900911)
(0.00498397 0.00274452 -0.00807252)
(0.00426019 0.00306293 -0.00679631)
(0.00299658 0.00360554 -0.00523272)
(0.00146587 0.00417506 -0.00350833)
(-5.92767e-05 0.00459515 -0.00175286)
(-0.00139399 0.00477431 -4.46478e-05)
(-0.00244892 0.00468782 0.00158406)
(-0.0031887 0.00434089 0.00312236)
(-0.00359608 0.00374887 0.00456595)
(-0.00365442 0.00293112 0.00590867)
(-0.00334177 0.00191321 0.00713502)
(-0.00263522 0.000736209 0.00821426)
(-0.00152913 -0.000524018 0.00909721)
(-7.47001e-05 -0.00172177 0.00971775)
(0.00157275 -0.00262998 0.0100126)
(0.00313065 -0.00303975 0.00996939)
(0.00431851 -0.00295986 0.00962955)
(0.00498692 -0.00274136 0.00900911)
(0.00498397 -0.00274452 0.00807252)
(0.00426019 -0.00306293 0.00679631)
(0.00299658 -0.00360554 0.00523272)
(0.00146587 -0.00417506 0.00350833)
(-5.92767e-05 -0.00459515 0.00175286)
(-0.00139399 -0.00477431 4.46478e-05)
(-0.00244892 -0.00468782 -0.00158406)
(-0.0031887 -0.00434089 -0.00312236)
(-0.00359608 -0.00374887 -0.00456595)
(-0.00365442 -0.00293112 -0.00590867)
(-0.00334177 -0.00191321 -0.00713502)
(-0.00263522 -0.000736209 -0.00821426)
(-0.00152913 0.000524018 -0.00909721)
(-7.47001e-05 0.00172177 -0.00971775)
(0.00157275 0.00262998 -0.0100126)
(0.00313065 0.00303975 -0.00996939)
(0.00431851 0.00295986 -0.00962955)
(0.00374905 0.00271089 -0.00856869)
(0.00403445 0.00269963 -0.00792641)
(0.00398951 0.0030595 -0.00694608)
(0.0034412 0.0037308 -0.00559027)
(0.00245348 0.00448947 -0.00394283)
(0.00126749 0.00510913 -0.00213518)
(0.000127989 0.0054577 -0.000265755)
(-0.00080726 0.00547862 0.00160376)
(-0.00145365 0.00515461 0.00341736)
(-0.00176469 0.00449903 0.00511349)
(-0.00171187 0.00355424 0.00663168)
(-0.00127994 0.00238483 0.00791973)
(-0.00048092 0.00106882 0.00893383)
(0.000604437 -0.000301104 0.00962886)
(0.00176862 -0.00158523 0.00994892)
(0.00270311 -0.00256372 0.00986482)
(0.00320243 -0.00301939 0.0094806)
(0.00344586 -0.00294849 0.00902875)
(0.00374905 -0.00271089 0.00856869)
(0.00403445 -0.00269963 0.00792641)
(0.00398951 -0.0030595 0.00694608)
(0.0034412 -0.0037308 0.00559027)
(0.00245348 -0.00448947 0.00394283)
(0.00126749 -0.00510913 0.00213518)
(0.000127989 -0.0054577 0.000265755)
(-0.00080726 -0.00547862 -0.00160376)
(-0.00145365 -0.00515461 -0.00341736)
(-0.00176469 -0.00449903 -0.00511349)
(-0.00171187 -0.00355424 -0.00663168)
(-0.00127994 -0.00238483 -0.00791973)
(-0.00048092 -0.00106882 -0.00893383)
(0.000604437 0.000301104 -0.00962886)
(0.00176862 0.00158523 -0.00994892)
(0.00270311 0.00256372 -0.00986482)
(0.00320243 0.00301939 -0.0094806)
(0.00344586 0.00294849 -0.00902875)
(0.00959168 0.00439901 -0.0108635)
(0.0084246 0.00379593 -0.00924191)
(0.00545382 0.00347098 -0.00725814)
(0.00189609 0.00332476 -0.00521317)
(-0.00138615 0.00321184 -0.00328203)
(-0.00407056 0.00303635 -0.00153517)
(-0.00615971 0.00274817 1.56972e-05)
(-0.00773232 0.00233374 0.00139059)
(-0.00884509 0.00179899 0.00263727)
(-0.00952177 0.00114227 0.00382247)
(-0.00975659 0.000342154 0.00500866)
(-0.0095111 -0.000630692 0.00622839)
(-0.00869332 -0.0017803 0.00747508)
(-0.00710722 -0.00304074 0.0087246)
(-0.00442599 -0.00424311 0.00995567)
(-0.00046339 -0.00513305 0.0110762)
(0.00420177 -0.00545306 0.0118153)
(0.00806605 -0.00510773 0.0117904)
(0.00959168 -0.00439901 0.0108635)
(0.0084246 -0.00379593 0.00924191)
(0.00545382 -0.00347098 0.00725814)
(0.00189609 -0.00332476 0.00521317)
(-0.00138615 -0.00321184 0.00328203)
(-0.00407056 -0.00303635 0.00153517)
(-0.00615971 -0.00274817 -1.56972e-05)
(-0.00773232 -0.00233374 -0.00139059)
(-0.00884509 -0.00179899 -0.00263727)
(-0.00952177 -0.00114227 -0.00382247)
(-0.00975659 -0.000342154 -0.00500866)
(-0.0095111 0.000630692 -0.00622839)
(-0.00869332 0.0017803 -0.00747508)
(-0.00710722 0.00304074 -0.0087246)
(-0.00442599 0.00424311 -0.00995567)
(-0.00046339 0.00513305 -0.0110762)
(0.00420177 0.00545306 -0.0118153)
(0.00806605 0.00510773 -0.0117904)
(0.00811794 0.00391567 -0.0106046)
(0.00742402 0.003665 -0.00924258)
(0.0054333 0.00368507 -0.00750219)
(0.00285157 0.00385983 -0.00557628)
(0.00027038 0.00402361 -0.00363447)
(-0.00199156 0.00406471 -0.00177657)
(-0.00383231 0.00392805 -3.96203e-05)
(-0.00524085 0.00359841 0.0015711)
(-0.00622424 0.0030819 0.00306845)
(-0.00678331 0.00238713 0.0044776)
(-0.00690519 0.00151631 0.00582325)
(-0.00655802 0.000471805 0.00711354)
(-0.00568216 -0.000723607 0.00833238)
(-0.00417366 -0.0019967 0.00945004)
(-0.0018973 -0.00319574 0.0104335)
(0.00113258 -0.00409681 0.011206)
(0.00443113 -0.00448322 0.0116025)
(0.0070508 -0.00431968 0.0114239)
(0.00811794 -0.00391567 0.0106046)
(0.00742402 -0.003665 0.00924258)
(0.0054333 -0.00368507 0.00750219)
(0.00285157 -0.00385983 0.00557628)
(0.00027038 -0.00402361 0.00363447)
(-0.00199156 -0.00406471 0.00177657)
(-0.00383231 -0.00392805 3.96203e-05)
(-0.00524085 -0.00359841 -0.0015711)
(-0.00622424 -0.0030819 -0.00306845)
(-0.00678331 -0.00238713 -0.0044776)
(-0.00690519 -0.00151631 -0.00582325)
(-0.00655802 -0.000471805 -0.00711354)
(-0.00568216 0.000723607 -0.00833238)
(-0.00417366 0.0019967 -0.00945004)
(-0.0018973 0.00319574 -0.0104335)
(0.00113258 0.00409681 -0.011206)
(0.00443113 0.00448322 -0.0116025)
(0.0070508 0.00431968 -0.0114239)
(0.00667698 0.00359067 -0.0104419)
(0.00650798 0.00364873 -0.00930741)
(0.00552681 0.0039407 -0.00775413)
(0.0039335 0.00437382 -0.00591525)
(0.00204878 0.00477858 -0.00395865)
(0.000193514 0.00502117 -0.00200366)
(-0.00141853 0.00503302 -0.000102518)
(-0.00268501 0.00478972 0.00172248)
(-0.00356286 0.00429125 0.00345207)
(-0.00402877 0.00355348 0.00506816)
(-0.00406076 0.0026032 0.00655524)
(-0.00363192 0.001477 0.00789597)
(-0.00271339 0.000227076 0.00906609)
(-0.00129527 -0.00106459 0.010035)
(0.000557039 -0.00226198 0.0107679)
(0.00263027 -0.00317282 0.0112225)
(0.00456619 -0.0036362 0.0113519)
(0.00599593 -0.00368233 0.0111113)
(0.00667698 -0.00359067 0.0104419)
(0.00650798 -0.00364873 0.00930741)
(0.00552681 -0.0039407 0.00775413)
(0.0039335 -0.00437382 0.00591525)
(0.00204878 -0.00477858 0.00395865)
(0.000193514 -0.00502117 0.00200366)
(-0.00141853 -0.00503302 0.000102518)
(-0.00268501 -0.00478972 -0.00172248)
(-0.00356286 -0.00429125 -0.00345207)
(-0.00402877 -0.00355348 -0.00506816)
(-0.00406076 -0.0026032 -0.00655524)
(-0.00363192 -0.001477 -0.00789597)
(-0.00271339 -0.000227076 -0.00906609)
(-0.00129527 0.00106459 -0.010035)
(0.000557039 0.00226198 -0.0107679)
(0.00263027 0.00317282 -0.0112225)
(0.00456619 0.0036362 -0.0113519)
(0.00599593 0.00368233 -0.0111113)
(0.00541208 0.00347745 -0.0103502)
(0.00571826 0.0037801 -0.00938803)
(0.00564835 0.00425453 -0.00796528)
(0.00498038 0.00486147 -0.0061958)
(0.00377859 0.0054493 -0.00423706)
(0.00233642 0.00586354 -0.00221158)
(0.00095496 0.00601326 -0.000179661)
(-0.000178057 0.00585631 0.00182337)
(-0.00096671 0.00538099 0.00374994)
(-0.00135985 0.00460697 0.00554125)
(-0.00132515 0.0035832 0.0071424)
(-0.000842961 0.00237881 0.00851018)
(7.80164e-05 0.00107402 0.00961226)
(0.00134866 -0.000240717 0.0104222)
(0.00272671 -0.00144615 0.01092)
(0.00386907 -0.00238966 0.0111194)
(0.0045904 -0.00297407 0.0110851)
(0.00502525 -0.00326836 0.0108639)
(0.00541208 -0.00347745 0.0103502)
(0.00571826 -0.0037801 0.00938803)
(0.00564835 -0.00425453 0.00796528)
(0.00498038 -0.00486147 0.0061958)
(0.00377859 -0.0054493 0.00423706)
(0.00233642 -0.00586354 0.00221158)
(0.00095496 -0.00601326 0.000179661)
(-0.000178057 -0.00585631 -0.00182337)
(-0.00096671 -0.00538099 -0.00374994)
(-0.00135985 -0.00460697 -0.00554125)
(-0.00132515 -0.0035832 -0.0071424)
(-0.000842961 -0.00237881 -0.00851018)
(7.80164e-05 -0.00107402 -0.00961226)
(0.00134866 0.000240717 -0.0104222)
(0.00272671 0.00144615 -0.01092)
(0.00386907 0.00238966 -0.0111194)
(0.0045904 0.00297407 -0.0110851)
(0.00502525 0.00326836 -0.0108639)
(0.0096108 0.00507729 -0.0108569)
(0.00831261 0.00416948 -0.00943887)
(0.00523937 0.00350851 -0.00767959)
(0.00152761 0.00303122 -0.00578658)
(-0.00192587 0.00261829 -0.00391802)
(-0.0047718 0.00219862 -0.00214374)
(-0.00700802 0.00172059 -0.000475698)
(-0.00869956 0.00114224 0.00109052)
(-0.00987579 0.000438783 0.00256587)
(-0.0105325 -0.000404003 0.00396985)
(-0.0106437 -0.00139662 0.0053232)
(-0.0101586 -0.00253748 0.00663622)
(-0.0089783 -0.00378711 0.00791062)
(-0.00691403 -0.00503474 0.00915627)
(-0.00372144 -0.0060822 0.0103628)
(0.000546304 -0.00668509 0.0113821)
(0.00506422 -0.00666412 0.0119147)
(0.00845122 -0.00603688 0.0117352)
(0.0096108 -0.00507729 0.0108569)
(0.00831261 -0.00416948 0.00943887)
(0.00523937 -0.00350851 0.00767959)
(0.00152761 -0.00303122 0.00578658)
(-0.00192587 -0.00261829 0.00391802)
(-0.0047718 -0.00219862 0.00214374)
(-0.00700802 -0.00172059 0.000475698)
(-0.00869956 -0.00114224 -0.00109052)
(-0.00987579 -0.000438783 -0.00256587)
(-0.0105325 0.000404003 -0.00396985)
(-0.0106437 0.00139662 -0.0053232)
(-0.0101586 0.00253748 -0.00663622)
(-0.0089783 0.00378711 -0.00791062)
(-0.00691403 0.00503474 -0.00915627)
(-0.00372144 0.0060822 -0.0103628)
(0.000546304 0.00668509 -0.0113821)
(0.00506422 0.00666412 -0.0119147)
(0.00845122 0.00603688 -0.0117352)
(0.00838343 0.00453218 -0.0108254)
(0.00761218 0.00416042 -0.00953889)
(0.00554849 0.0039629 -0.00786077)
(0.00285599 0.00386231 -0.0059718)
(0.000141317 0.00374491 -0.00404015)
(-0.00226038 0.00354207 -0.00215591)
(-0.00423644 0.00321064 -0.000345383)
(-0.00575826 0.00272021 0.00138253)
(-0.00680925 0.00205713 0.003019)
(-0.00736931 0.00122238 0.00455885)
(-0.00741151 0.000227082 0.00600053)
(-0.00689684 -0.0009043 0.00733976)
(-0.00576431 -0.00211948 0.00856836)
(-0.00392277 -0.00331821 0.0096826)
(-0.00130359 -0.00434254 0.010667)
(0.00192295 -0.00500924 0.0114275)
(0.00514407 -0.0052008 0.0117848)
(0.00750866 -0.00496729 0.0115939)
(0.00838343 -0.00453218 0.0108254)
(0.00761218 -0.00416042 0.00953889)
(0.00554849 -0.0039629 0.00786077)
(0.00285599 -0.00386231 0.0059718)
(0.000141317 -0.00374491 0.00404015)
(-0.00226038 -0.00354207 0.00215591)
(-0.00423644 -0.00321064 0.000345383)
(-0.00575826 -0.00272021 -0.00138253)
(-0.00680925 -0.00205713 -0.003019)
(-0.00736931 -0.00122238 -0.00455885)
(-0.00741151 -0.000227082 -0.00600053)
(-0.00689684 0.0009043 -0.00733976)
(-0.00576431 0.00211948 -0.00856836)
(-0.00392277 0.00331821 -0.0096826)
(-0.00130359 0.00434254 -0.010667)
(0.00192295 0.00500924 -0.0114275)
(0.00514407 0.0052008 -0.0117848)
(0.00750866 0.00496729 -0.0115939)
(0.00719104 0.0041932 -0.0110095)
(0.00698542 0.0043422 -0.00979642)
(0.0059593 0.00455032 -0.00812482)
(0.0042991 0.00476154 -0.0061924)
(0.00231701 0.00489075 -0.00418198)
(0.000339735 0.00487448 -0.00219417)
(-0.001399 0.00467392 -0.000258886)
(-0.00277382 0.00426412 0.00161119)
(-0.00372256 0.0036366 0.0033923)
(-0.00420853 0.00280386 0.00505517)
(-0.00420235 0.00179741 0.0065749)
(-0.00367529 0.000665186 0.0079318)
(-0.00260326 -0.000525568 0.00910996)
(-0.000994866 -0.00168256 0.0101007)
(0.00103804 -0.00268858 0.0108984)
(0.00321766 -0.00342967 0.011477)
(0.00516365 -0.00386403 0.0117681)
(0.00655247 -0.00407139 0.0116546)
(0.00719104 -0.0041932 0.0110095)
(0.00698542 -0.0043422 0.00979642)
(0.0059593 -0.00455032 0.00812482)
(0.0042991 -0.00476154 0.0061924)
(0.00231701 -0.00489075 0.00418198)
(0.000339735 -0.00487448 0.00219417)
(-0.001399 -0.00467392 0.000258886)
(-0.00277382 -0.00426412 -0.00161119)
(-0.00372256 -0.0036366 -0.0033923)
(-0.00420853 -0.00280386 -0.00505517)
(-0.00420235 -0.00179741 -0.0065749)
(-0.00367529 -0.000665186 -0.0079318)
(-0.00260326 0.000525568 -0.00910996)
(-0.000994866 0.00168256 -0.0101007)
(0.00103804 0.00268858 -0.0108984)
(0.00321766 0.00342967 -0.011477)
(0.00516365 0.00386403 -0.0117681)
(0.00655247 0.00407139 -0.0116546)
(0.00612472 0.00408399 -0.0113125)
(0.00643884 0.00469465 -0.0101299)
(0.00636645 0.00522965 -0.00842591)
(0.00568311 0.00567678 -0.00643471)
(0.00442575 0.00599504 -0.00434941)
(0.00288516 0.00613 -0.00227214)
(0.00139 0.00604224 -0.00023241)
(0.000156272 0.00570572 0.00175669)
(-0.000704476 0.00511195 0.00366045)
(-0.00113436 0.00428092 0.00542833)
(-0.00109944 0.00326107 0.00701275)
(-0.000583066 0.00212126 0.00837841)
(0.000396247 0.000942404 0.00950438)
(0.00172945 -0.000191063 0.0103879)
(0.00315368 -0.00120245 0.0110495)
(0.00433878 -0.00204852 0.0115316)
(0.00513881 -0.00276018 0.0118418)
(0.00567755 -0.00342623 0.0118471)
(0.00612472 -0.00408399 0.0113125)
(0.00643884 -0.00469465 0.0101299)
(0.00636645 -0.00522965 0.00842591)
(0.00568311 -0.00567678 0.00643471)
(0.00442575 -0.00599504 0.00434941)
(0.00288516 -0.00613 0.00227214)
(0.00139 -0.00604224 0.00023241)
(0.000156272 -0.00570572 -0.00175669)
(-0.000704476 -0.00511195 -0.00366045)
(-0.00113436 -0.00428092 -0.00542833)
(-0.00109944 -0.00326107 -0.00701275)
(-0.000583066 -0.00212126 -0.00837841)
(0.000396247 -0.000942404 -0.00950438)
(0.00172945 0.000191063 -0.0103879)
(0.00315368 0.00120245 -0.0110495)
(0.00433878 0.00204852 -0.0115316)
(0.00513881 0.00276018 -0.0118418)
(0.00567755 0.00342623 -0.0118471)
(0.0085976 0.00514017 -0.0102872)
(0.00737027 0.00403701 -0.00914707)
(0.00455205 0.00310201 -0.00767284)
(0.00108522 0.00231043 -0.00600617)
(-0.00222429 0.00159517 -0.00429134)
(-0.00501465 0.000916817 -0.0026089)
(-0.00724956 0.000234667 -0.000973755)
(-0.00896352 -0.000504371 0.000616561)
(-0.0101529 -0.00134491 0.0021555)
(-0.0107818 -0.00230984 0.00363032)
(-0.0108013 -0.00339671 0.00502853)
(-0.0101516 -0.0045699 0.00634221)
(-0.0087448 -0.00574467 0.00757789)
(-0.0064487 -0.00677303 0.00875664)
(-0.0031708 -0.00745511 0.00985445)
(0.000851204 -0.00760947 0.0107204)
(0.0048312 -0.00717852 0.0111358)
(0.00769075 -0.0062749 0.0109818)
(0.0085976 -0.00514017 0.0102872)
(0.00737027 -0.00403701 0.00914707)
(0.00455205 -0.00310201 0.00767284)
(0.00108522 -0.00231043 0.00600617)
(-0.00222429 -0.00159517 0.00429134)
(-0.00501465 -0.000916817 0.0026089)
(-0.00724956 -0.000234667 0.000973755)
(-0.00896352 0.000504371 -0.000616561)
(-0.0101529 0.00134491 -0.0021555)
(-0.0107818 0.00230984 -0.00363032)
(-0.0108013 0.00339671 -0.00502853)
(-0.0101516 0.0045699 -0.00634221)
(-0.0087448 0.00574467 -0.00757789)
(-0.0064487 0.00677303 -0.00875664)
(-0.0031708 0.00745511 -0.00985445)
(0.000851204 0.00760947 -0.0107204)
(0.0048312 0.00717852 -0.0111358)
(0.00769075 0.0062749 -0.0109818)
(0.00767952 0.0046584 -0.0104011)
(0.00694098 0.00418601 -0.00929454)
(0.00504919 0.00378706 -0.00779959)
(0.0025468 0.00341395 -0.00606714)
(-3.84376e-05 0.00301178 -0.00425523)
(-0.00238245 0.00255554 -0.00245768)
(-0.00435247 0.00202188 -0.000701703)
(-0.0058924 0.00137815 0.00100477)
(-0.00695695 0.000598936 0.00264453)