/*--------------------------------*- C++ -*----------------------------------*\
| =========                 |                                                 |
| \\      /  F ield         | OpenFOAM: The Open Source CFD Toolbox           |
|  \\    /   O peration     | Version:  2312                                  |
|   \\  /    A nd           | Website:  www.openfoam.com                      |
|    \\/     M anipulation  |                                                 |
\*---------------------------------------------------------------------------*/
FoamFile
{
    version     2.0;
    format      ascii;
    arch        "LSB;label=32;scalar=64";
    class       volScalarField;
    location    "0.8";
    object      sigmaEq;
}
// * * * * * * * * * * * * * * * * * * * * * * * * * * * * * * * * * * * * * //

dimensions      [1 -1 -2 0 0 0 0];

internalField   nonuniform List<scalar> 
1620
(
48842.1
49189.2
48654.3
47994.2
47620
47520
47620.5
47867.4
48196
48495
48597.3
48326.8
47622.5
46686.4
45981.4
45949.8
46655
47769.1
48842.1
49189.2
48654.3
47994.2
47620
47520
47620.5
47867.4
48196
48495
48597.3
48326.8
47622.5
46686.4
45981.4
45949.8
46655
47769.1
47758.7
47846.9
47970.9
48099.6
48317.1
48692.8
49234.8
49904.9
50621.2
51249.2
51609.8
51526
50908.9
49869.2
48764.5
48007.7
47724.8
47711.8
47758.7
47846.9
47970.9
48099.6
48317.1
48692.8
49234.8
49904.9
50621.2
51249.2
51609.8
51526
50908.9
49869.2
48764.5
48007.7
47724.8
47711.8
49334.1
48411.7
48026.8
48275.8
49005.4
50020.6
51112.2
52036
52568.2
52587.5
52124.8
51364.2
50584.7
50051.1
49920.8
50178.3
50487.4
50243.7
49334.1
48411.7
48026.8
48275.8
49005.4
50020.6
51112.2
52036
52568.2
52587.5
52124.8
51364.2
50584.7
50051.1
49920.8
50178.3
50487.4
50243.7
47498.2
47027.2
46583.4
46474.1
46691
47201.1
47895
48669.4
49451.8
50154.7
50631.4
50672.5
50046.2
48659.6
46971.2
46021.4
46223.9
47051.4
47498.2
47027.2
46583.4
46474.1
46691
47201.1
47895
48669.4
49451.8
50154.7
50631.4
50672.5
50046.2
48659.6
46971.2
46021.4
46223.9
47051.4
47233.4
46801.1
46928.2
47347.4
47983.7
48834.7
49851
50990.5
52228.6
53526.8
54830.4
56060.9
56992.4
56985.4
55197.6
52086.8
49479.8
48092.8
47233.4
46801.1
46928.2
47347.4
47983.7
48834.7
49851
50990.5
52228.6
53526.8
54830.4
56060.9
56992.4
56985.4
55197.6
52086.8
49479.8
48092.8
51057.4
49248.4
48845.3
49806.7
52375.4
56068.2
59105.4
60206.4
59501.5
57692.1
55511.7
53660.1
52750.4
53117.3
54454.5
55599
55435.9
53719.1
51057.4
49248.4
48845.3
49806.7
52375.4
56068.2
59105.4
60206.4
59501.5
57692.1
55511.7
53660.1
52750.4
53117.3
54454.5
55599
55435.9
53719.1
46956
46263.6
46043
46206.8
47040.8
48497.4
50144.3
51683.1
53003.4
54010.2
54534.4
54333.1
53114.7
50611.6
47132.6
44799.9
45172.6
47027.9
46956
46263.6
46043
46206.8
47040.8
48497.4
50144.3
51683.1
53003.4
54010.2
54534.4
54333.1
53114.7
50611.6
47132.6
44799.9
45172.6
47027.9
44930.8
44999.7
45277.5
45595
46517.9
48220.3
50217
52187.2
54118
56054.7
57991.2
59831.3
61200.5
60910.4
57102.4
50965
47019
46135.5
44930.8
44999.7
45277.5
45595
46517.9
48220.3
50217
52187.2
54118
56054.7
57991.2
59831.3
61200.5
60910.4
57102.4
50965
47019
46135.5
49026.6
48456.8
47582.5
48093.2
52341.3
60772.5
67945.1
70482
69335
66135.9
62208.2
58758
56851.2
56941.8
57679.7
56126.9
52678.3
50397.9
49026.6
48456.8
47582.5
48093.2
52341.3
60772.5
67945.1
70482
69335
66135.9
62208.2
58758
56851.2
56941.8
57679.7
56126.9
52678.3
50397.9
48680.5
48363.2
47528.4
47267.9
48482.5
50803.5
53002.4
54463.5
55208.7
55341.7
54815.1
53455.6
51036.5
47188
41619.8
37972
41371.9
46182.1
48680.5
48363.2
47528.4
47267.9
48482.5
50803.5
53002.4
54463.5
55208.7
55341.7
54815.1
53455.6
51036.5
47188
41619.8
37972
41371.9
46182.1
47820.1
46571.5
44586.3
42426.6
41864.8
44119.2
47513.5
50611
53096.3
54944.9
56084
56345.2
55321.8
51987.7
45720
41726.1
43779.8
46705.7
47820.1
46571.5
44586.3
42426.6
41864.8
44119.2
47513.5
50611
53096.3
54944.9
56084
56345.2
55321.8
51987.7
45720
41726.1
43779.8
46705.7
49224.4
47989.5
45457.1
43354.8
47027.6
59487.9
71184.4
77338.3
79094.7
77752.6
74191.4
69521.2
65028.8
61150.5
56859.8
52478.8
49917.6
49110.1
49224.4
47989.5
45457.1
43354.8
47027.6
59487.9
71184.4
77338.3
79094.7
77752.6
74191.4
69521.2
65028.8
61150.5
56859.8
52478.8
49917.6
49110.1
47005.2
48661.1
50473
52593.5
54075.6
55187.6
55737.3
55387.3
54425.2
53097.9
51366.2
49015.5
45730.4
40982.2
34953.3
33966.3
40274.3
44706.5
47005.2
48661.1
50473
52593.5
54075.6
55187.6
55737.3
55387.3
54425.2
53097.9
51366.2
49015.5
45730.4
40982.2
34953.3
33966.3
40274.3
44706.5
48079.2
47494
45142.3
40897.5
37633.4
39302.3
43771.4
47978.5
51066.3
52891.3
53398.4
52544.1
50110.4
45452.8
39554.8
39849.3
44541.1
47175.8
48079.2
47494
45142.3
40897.5
37633.4
39302.3
43771.4
47978.5
51066.3
52891.3
53398.4
52544.1
50110.4
45452.8
39554.8
39849.3
44541.1
47175.8
49862.9
46916.7
43313.1
39205.8
41846.1
55617.7
69672.4
78768
84021.1
86375.9
86143.8
83811.5
80167.7
75282.5
68554.7
61876
56796.9
53020.7
49862.9
46916.7
43313.1
39205.8
41846.1
55617.7
69672.4
78768
84021.1
86375.9
86143.8
83811.5
80167.7
75282.5
68554.7
61876
56796.9
53020.7
46065.4
48204.5
51475.9
56377.7
59421.6
59500.9
57904.4
55373.5
52596
49926.1
47290.9
44374.6
40716.3
35885.8
31667.1
34214.4
39914.8
43570.8
46065.4
48204.5
51475.9
56377.7
59421.6
59500.9
57904.4
55373.5
52596
49926.1
47290.9
44374.6
40716.3
35885.8
31667.1
34214.4
39914.8
43570.8
47937.4
47596.7
45659.5
41483.9
36920.7
37216.5
41794.3
46485.8
49876
51703.9
51892.9
50473.7
47424.9
42714
38809.3
40974.2
44957.3
47122.7
47937.4
47596.7
45659.5
41483.9
36920.7
37216.5
41794.3
46485.8
49876
51703.9
51892.9
50473.7
47424.9
42714
38809.3
40974.2
44957.3
47122.7
50373.1
45984
41373.9
36604.1
37731.6
49682.6
64321.1
75170.1
82807.1
88124.9
91375.2
92781.9
92628.5
90534.6
85635.7
78171.5
68111.5
57634.1
50373.1
45984
41373.9
36604.1
37731.6
49682.6
64321.1
75170.1
82807.1
88124.9
91375.2
92781.9
92628.5
90534.6
85635.7
78171.5
68111.5
57634.1
45245.2
47407
50331.8
54733.6
58451.8
59227.2
57429.2
54247.6
50705.9
47367.6
44299.5
41230.7
37718.4
33695.1
31805.9
35415.1
39873.1
42826.7
45245.2
47407
50331.8
54733.6
58451.8
59227.2
57429.2
54247.6
50705.9
47367.6
44299.5
41230.7
37718.4
33695.1
31805.9
35415.1
39873.1
42826.7
47141
47000.5
45502.5
41975.6
37079.4
35657.6
39595.6
44412.6
47949
49846.6
50017.4
48492.9
45352.3
41084.6
38790.2
41246.5
44428.3
46300
47141
47000.5
45502.5
41975.6
37079.4
35657.6
39595.6
44412.6
47949
49846.6
50017.4
48492.9
45352.3
41084.6
38790.2
41246.5
44428.3
46300
50175.4
45299.8
40460.3
35670.9
35063.1
43703.4
57436.3
68823.8
77398.9
84028.8
89071.3
92730.2
95064.7
95496.7
92923.6
85639.3
72462.7
58728.1
50175.4
45299.8
40460.3
35670.9
35063.1
43703.4
57436.3
68823.8
77398.9
84028.8
89071.3
92730.2
95064.7
95496.7
92923.6
85639.3
72462.7
58728.1
44346.1
46363.6
48560.9
51454.9
54400
55684.7
54597.6
51892.5
48588.5
45323.4
42296.9
39371.3
36266.2
33280.4
32836.2
36223.1
39766.7
42187.8
44346.1
46363.6
48560.9
51454.9
54400
55684.7
54597.6
51892.5
48588.5
45323.4
42296.9
39371.3
36266.2
33280.4
32836.2
36223.1
39766.7
42187.8
45813
45829.4
44714.6
41955.6
37550.2
34622.4
36974.1
41591.3
45287.6
47354.4
47699.3
46343.2
43413.9
39751.6
38323
40514
43206.1
44939.6
45813
45829.4
44714.6
41955.6
37550.2
34622.4
36974.1
41591.3
45287.6
47354.4
47699.3
46343.2
43413.9
39751.6
38323
40514
43206.1
44939.6
49434
45039
40770.9
36496.7
34824.6
39689.4
50771.4
61694.3
70343.2
77197.3
82693.8
87057.4
90212.3
91453.9
89389.8
81751.5
68688
56615.5
49434
45039
40770.9
36496.7
34824.6
39689.4
50771.4
61694.3
70343.2
77197.3
82693.8
87057.4
90212.3
91453.9
89389.8
81751.5
68688
56615.5
43275.5
45088.8
46813.4
48622
50409.7
51371.1
50751.5
48746.3
46080
43307.3
40647.2
38063
35480.8
33426.3
33640.6
36437.6
39343
41422.6
43275.5
45088.8
46813.4
48622
50409.7
51371.1
50751.5
48746.3
46080
43307.3
40647.2
38063
35480.8
33426.3
33640.6
36437.6
39343
41422.6
44147.8
44297.3
43529.4
41476.4
37974.5
34468.8
34477.1
37955.1
41635.4
43950.6
44588.9
43551
41054.1
38142.2
37256.2
39152.3
41582.3
43260.5
44147.8
44297.3
43529.4
41476.4
37974.5
34468.8
34477.1
37955.1
41635.4
43950.6
44588.9
43551
41054.1
38142.2
37256.2
39152.3
41582.3
43260.5
48686
45240.6
41993.3
38718.1
36794.3
38684.7
45785.7
54933.1
63085.6
69732.7
75121.3
79431.7
82517.2
83656.4
81386.2
73988.5
63055
53991.9
48686
45240.6
41993.3
38718.1
36794.3
38684.7
45785.7
54933.1
63085.6
69732.7
75121.3
79431.7
82517.2
83656.4
81386.2
73988.5
63055
53991.9
41911.2
43507.8
44992.8
46282.9
47290
47652.8
46970.4
45341.2
43248.3
41081
38976
36921.1
34990.3
33724.2
34119.4
36160.4
38460.6
40297.8
41911.2
43507.8
44992.8
46282.9
47290
47652.8
46970.4
45341.2
43248.3
41081
38976
36921.1
34990.3
33724.2
34119.4
36160.4
38460.6
40297.8
42226.3
42490.8
42001.5
40504.7
37856.2
34641.3
32812.9
33932.7
36663.7
38990.5
39999.3
39505
37796.8
35928.5
35627.9
37333.8
39594.5
41287
42226.3
42490.8
42001.5
40504.7
37856.2
34641.3
32812.9
33932.7
36663.7
38990.5
39999.3
39505
37796.8
35928.5
35627.9
37333.8
39594.5
41287
48207.6
45726.6
43557.2
41457.8
39994.3
40429.1
43959.3
50041.4
56740.4
62793.3
67847.1
71822.9
74499.1
75228.6
72833.6
66550.3
58400.9
52007.2
48207.6
45726.6
43557.2
41457.8
39994.3
40429.1
43959.3
50041.4
56740.4
62793.3
67847.1
71822.9
74499.1
75228.6
72833.6
66550.3
58400.9
52007.2
39964.3
41394.2
42764.9
43898.1
44622.9
44711.3
43951.7
42461.4
40685.5
38997.1
37487.8
36101
34885.1
34168
34390.9
35544.4
37074.4
38552.9
39964.3
41394.2
42764.9
43898.1
44622.9
44711.3
43951.7
42461.4
40685.5
38997.1
37487.8
36101
34885.1
34168
34390.9
35544.4
37074.4
38552.9
39940.1
40335.1
40054.7
38981.5
37050.2
34523.8
32228.2
31294.9
32018.9
33451.3
34498.7
34641.5
34008
33344.3
33643.1
35175.9
37198.4
38891.1
39940.1
40335.1
40054.7
38981.5
37050.2
34523.8
32228.2
31294.9
32018.9
33451.3
34498.7
34641.5
34008
33344.3
33643.1
35175.9
37198.4
38891.1
48062.3
46317
45000.5
43922.3
43269.9
43532.2
45227.8
48504.5
52895.6
57596.1
61896.7
65295.2
67378.3
67627.8
65409.1
60724.8
55179.3
50802.8
48062.3
46317
45000.5
43922.3
43269.9
43532.2
45227.8
48504.5
52895.6
57596.1
61896.7
65295.2
67378.3
67627.8
65409.1
60724.8
55179.3
50802.8
37164.2
38391.3
39721.7
40920.7
41739.8
41970.2
41473.7
40321.8
38872.5
37546.9
36525
35732
35070.5
34595.4
34460.9
34735.4
35333.8
36148.5
37164.2
38391.3
39721.7
40920.7
41739.8
41970.2
41473.7
40321.8
38872.5
37546.9
36525
35732
35070.5
34595.4
34460.9
34735.4
35333.8
36148.5
36947.5
37490.1
37425.6
36730.5
35435.4
33700.2
31865.6
30415.3
29755.7
29874.7
30336.5
30686.7
30802.9
30951.5
31548.2
32764.6
34347.4
35851.3
36947.5
37490.1
37425.6
36730.5
35435.4
33700.2
31865.6
30415.3
29755.7
29874.7
30336.5
30686.7
30802.9
30951.5
31548.2
32764.6
34347.4
35851.3
48248.6
46986.7
46204.7
45805.5
45846.4
46430
47606.2
49404.1
51842.3
54783.6
57815
60328.2
61738
61628.7
59835.9
56697.1
53171.1
50244.5
48248.6
46986.7
46204.7
45805.5
45846.4
46430
47606.2
49404.1
51842.3
54783.6
57815
60328.2
61738
61628.7
59835.9
56697.1
53171.1
50244.5
33817.7
34592.8
35766.6
37081.2
38194.5
38828
38825
38197.2
37190.9
36215.4
35555.2
35177.2
34875.1
34515.7
34111.5
33747.4
33510.2
33491.9
33817.7
34592.8
35766.6
37081.2
38194.5
38828
38825
38197.2
37190.9
36215.4
35555.2
35177.2
34875.1
34515.7
34111.5
33747.4
33510.2
33491.9
32951.1
33562.8
33760.4
33508.6
32844.3
31868.2
30740
29669.8
28875.2
28478.6
28423.3
28537.9
28701.2
28936.3
29361.5
30064
31008.7
32039.5
32951.1
33562.8
33760.4
33508.6
32844.3
31868.2
30740
29669.8
28875.2
28478.6
28423.3
28537.9
28701.2
28936.3
29361.5
30064
31008.7
32039.5
48550.1
47619.3
47098
46964.5
47237.7
47896.5
48821.4
49887.1
51096.4
52536
54171.2
55695.6
56631.2
56609.5
55572.6
53798.4
51770.8
49942.6
48550.1
47619.3
47098
46964.5
47237.7
47896.5
48821.4
49887.1
51096.4
52536
54171.2
55695.6
56631.2
56609.5
55572.6
53798.4
51770.8
49942.6
31230.8
31444.8
32126.8
33155.7
34261.2
35138.7
35542.3
35357
34698.6
33947.5
33500.6
33417.8
33446.3
33328.8
32978.5
32455.7
31889.8
31428.7
31230.8
31444.8
32126.8
33155.7
34261.2
35138.7
35542.3
35357
34698.6
33947.5
33500.6
33417.8
33446.3
33328.8
32978.5
32455.7
31889.8
31428.7
28414.3
29040.7
29553.7
29842.7
29846.6
29564.9
29064
28481.7
27988.5
27693.5
27567.7
27484.5
27345.4
27162.5
27037.2
27077.6
27338.6
27808
28414.3
29040.7
29553.7
29842.7
29846.6
29564.9
29064
28481.7
27988.5
27693.5
27567.7
27484.5
27345.4
27162.5
27037.2
27077.6
27338.6
27808
47771
47185.5
46772.4
46555.4
46544
46716.8
47002.2
47305.9
47589
47908.4
48357.7
48957
49586.4
50034.4
50124.1
49816.2
49212.2
48479.5
47771
47185.5
46772.4
46555.4
46544
46716.8
47002.2
47305.9
47589
47908.4
48357.7
48957
49586.4
50034.4
50124.1
49816.2
49212.2
48479.5
32626.7
32202.1
32093.7
32336.4
32824.9
33326.6
33565.2
33351.5
32702.3
31874.8
31270.6
31218.4
31745.4
32573.4
33332.7
33732.8
33654.8
33200.3
32626.7
32202.1
32093.7
32336.4
32824.9
33326.6
33565.2
33351.5
32702.3
31874.8
31270.6
31218.4
31745.4
32573.4
33332.7
33732.8
33654.8
33200.3
24640.4
25571.8
26554.5
27421.3
28064.3
28441.4
28564.8
28470.5
28189.8
27746.9
27175
26519
25813.7
25087.6
24397.9
23877.1
23694.7
23960.7
24640.4
25571.8
26554.5
27421.3
28064.3
28441.4
28564.8
28470.5
28189.8
27746.9
27175
26519
25813.7
25087.6
24397.9
23877.1
23694.7
23960.7
41760.8
41774.6
41733.9
41656.3
41555.5
41434.7
41285.8
41097.8
40871.3
40627
40407
40275.2
40297.7
40495.3
40820
41176.9
41475
41669
41760.8
41774.6
41733.9
41656.3
41555.5
41434.7
41285.8
41097.8
40871.3
40627
40407
40275.2
40297.7
40495.3
40820
41176.9
41475
41669
)
;

boundaryField
{
    fixed
    {
        type            calculated;
        value           nonuniform List<scalar> 
108
(
48785
49179.9
48738.6
48059.7
47607.7
47421.3
47440.9
47616.9
47889.5
48156.6
48267.3
48063.6
47492.3
46737.1
46211.1
46279.5
46929.5
47856.3
48785
49179.9
48738.6
48059.7
47607.7
47421.3
47440.9
47616.9
47889.5
48156.6
48267.3
48063.6
47492.3
46737.1
46211.1
46279.5
46929.5
47856.3
47737.5
47886.4
48127.8
48289.5
48423.7
48637.5
48965.7
49387.1
49844.3
50243.5
50461.9
50380.8
49944.2
49233.2
48501
48024.6
47836.1
47755.8
47737.5
47886.4
48127.8
48289.5
48423.7
48637.5
48965.7
49387.1
49844.3
50243.5
50461.9
50380.8
49944.2
49233.2
48501
48024.6
47836.1
47755.8
49374.6
48514.5
48190.6
48501.5
49249.7
50186.2
51066.8
51666.2
51841.1
51570.3
50953.3
50190.4
49536.2
49212.7
49328.7
49819.5
50308
50191.1
49374.6
48514.5
48190.6
48501.5
49249.7
50186.2
51066.8
51666.2
51841.1
51570.3
50953.3
50190.4
49536.2
49212.7
49328.7
49819.5
50308
50191.1
)
;
    }
    inside
    {
        type            calculated;
        value           nonuniform List<scalar> 
540
(
51093.3
49951.3
48929.9
48579
48910.1
49733.4
50793.7
51771.4
52350.7
52358
51838.1
51013.6
50181.8
49624.2
49547.4
50031.5
50884.6
51469.4
51093.3
49951.3
48929.9
48579
48910.1
49733.4
50793.7
51771.4
52350.7
52358
51838.1
51013.6
50181.8
49624.2
49547.4
50031.5
50884.6
51469.4
54635.6
51795.9
50258.7
50753
53648.9
58809.9
64048.1
66721.5
66068.8
62951.8
58780.2
54812.5
51923.7
50630
51020.7
52615.8
54603.2
55830.9
54635.6
51795.9
50258.7
50753
53648.9
58809.9
64048.1
66721.5
66068.8
62951.8
58780.2
54812.5
51923.7
50630
51020.7
52615.8
54603.2
55830.9
53998.7
51980.6
50230
51613.9
59761.2
76517
93093.1
100808
98600
89288.4
77152.9
66083.7
58323
54565.8
54178.2
54741.6
54543.4
55023.6
53998.7
51980.6
50230
51613.9
59761.2
76517
93093.1
100808
98600
89288.4
77152.9
66083.7
58323
54565.8
54178.2
54741.6
54543.4
55023.6
51097.2
49734.4
48259.1
50057
62659.9
89695.4
118517
138231
144571
136484
118209
97494.4
80318.8
68468.5
60572.4
54858.1
51538.4
50715.7
51097.2
49734.4
48259.1
50057
62659.9
89695.4
118517
138231
144571
136484
118209
97494.4
80318.8
68468.5
60572.4
54858.1
51538.4
50715.7
49099.2
47232
46252.7
49432.6
64902.9
95556.7
130824
161234
180521
182815
168338
144757
120715
99926.8
81640.5
66728.9
57254.9
52090.3
49099.2
47232
46252.7
49432.6
64902.9
95556.7
130824
161234
180521
182815
168338
144757
120715
99926.8
81640.5
66728.9
57254.9
52090.3
47971.4
45563.9
44649.6
49182.9
65604.5
96808.9
133652
166921
191306
201281
195275
178045
156813
135663
113346
88778.6
67053.7
53747.5
47971.4
45563.9
44649.6
49182.9
65604.5
96808.9
133652
166921
191306
201281
195275
178045
156813
135663
113346
88778.6
67053.7
53747.5
47325.1
44656.9
43932.3
48413.7
63363.3
92149.9
126731
157544
180446
192396
192581
183737
170119
153600
131122
100349
70875
53965.3
47325.1
44656.9
43932.3
48413.7
63363.3
92149.9
126731
157544
180446
192396
192581
183737
170119
153600
131122
100349
70875
53965.3
47322
44829.5
44417.1
48065.4
60033.8
83704.2
113298
139796
159248
170380
173436
170165
162362
149415
127415
96135.9
68158.6
53283
47322
44829.5
44417.1
48065.4
60033.8
83704.2
113298
139796
159248
170380
173436
170165
162362
149415
127415
96135.9
68158.6
53283
47959.5
46003.4
45992.5
48965.1
57870.8
75462.2
98485.1
120010
136153
146051
150201
149631
144692
133687
113575
86614.9
64293.7
52762.5
47959.5
46003.4
45992.5
48965.1
57870.8
75462.2
98485.1
120010
136153
146051
150201
149631
144692
133687
113575
86614.9
64293.7
52762.5
49023
47699.7
48147.6
50946.5
57805.6
70275.8
86721.5
103005
116114
124920
129328
129588
125461
115549
98584.2
77881.6
61486
52773.8
49023
47699.7
48147.6
50946.5
57805.6
70275.8
86721.5
103005
116114
124920
129328
129588
125461
115549
98584.2
77881.6
61486
52773.8
50534
49667.2
50547.5
53573.9
59626.4
69071.5
80663.1
92254.3
102241
109623
113611
113646
109345
100305
86883.9
72034.5
60326.2
53594.9
50534
49667.2
50547.5
53573.9
59626.4
69071.5
80663.1
92254.3
102241
109623
113611
113646
109345
100305
86883.9
72034.5
60326.2
53594.9
53179.8
52492.5
53664.5
57021.5
62991
71203.3
80206.4
88571.4
95692.8
101196
104244
103793
99348.5
91274.6
80806.6
70099.8
61463.6
55944.5
53179.8
52492.5
53664.5
57021.5
62991
71203.3
80206.4
88571.4
95692.8
101196
104244
103793
99348.5
91274.6
80806.6
70099.8
61463.6
55944.5
59021.4
58201.5
59385.2
62771.4
68465.8
75834.3
83376.2
89747.9
94656.7
98347.4
100551
100303
96823.7
90371.1
82189
73896.4
66871.9
61868.1
59021.4
58201.5
59385.2
62771.4
68465.8
75834.3
83376.2
89747.9
94656.7
98347.4
100551
100303
96823.7
90371.1
82189
73896.4
66871.9
61868.1
75122.6
73430.5
73662.8
75835.9
79718.8
84622.5
89451.3
93300.3
96091.7
98387.2
100505
101961
101797
99384.2
94911.1
89251.1
83501.2
78588.9
75122.6
73430.5
73662.8
75835.9
79718.8
84622.5
89451.3
93300.3
96091.7
98387.2
100505
101961
101797
99384.2
94911.1
89251.1
83501.2
78588.9
109032
103515
98201.3
93539.7
90023.9
88046.3
87820.3
89472.9
93055
98422.3
105055
112069
118278
122489
123971
122685
119203
114408
109032
103515
98201.3
93539.7
90023.9
88046.3
87820.3
89472.9
93055
98422.3
105055
112069
118278
122489
123971
122685
119203
114408
)
;
    }
    outside
    {
        type            calculated;
        value           nonuniform List<scalar> 
540
(
50225.5
50561.3
49621.5
48566.4
47908.5
47570.1
47430.6
47414.5
47452.1
47453.1
47316.1
46972.5
46457
45969.2
45847.3
46357.9
47447.6
48850.4
50225.5
50561.3
49621.5
48566.4
47908.5
47570.1
47430.6
47414.5
47452.1
47453.1
47316.1
46972.5
46457
45969.2
45847.3
46357.9
47447.6
48850.4
48967.5
48772.3
47940.2
47428.1
47309.3
47471.3
47760.8
48060.4
48303.5
48429.5
48351.4
47955.5
47144.4
46000.6
45086
45189.1
46269.3
47726.2
48967.5
48772.3
47940.2
47428.1
47309.3
47471.3
47760.8
48060.4
48303.5
48429.5
48351.4
47955.5
47144.4
46000.6
45086
45189.1
46269.3
47726.2
49806.5
49347.6
48502
48191.6
48560
49343
50092.4
50607.1
50876.5
50889.5
50546.9
49644.2
47929.5
45407
43108.4
43097
45253.8
47898.3
49806.5
49347.6
48502
48191.6
48560
49343
50092.4
50607.1
50876.5
50889.5
50546.9
49644.2
47929.5
45407
43108.4
43097
45253.8
47898.3
50553.7
51742
52091
53009.7
54529
55886
56460
56220.5
55445.1
54297.6
52705.3
50425.8
47222.2
43183.8
39342.7
39003.7
43253.8
47483.3
50553.7
51742
52091
53009.7
54529
55886
56460
56220.5
55445.1
54297.6
52705.3
50425.8
47222.2
43183.8
39342.7
39003.7
43253.8
47483.3
48376.2
51184.6
56137
63260.3
68217.5
69458.5
67887
64581.4
60697.6
56826.9
52956.9
48825.8
44267.9
39495.2
35906.6
37543.6
42704.3
46053.6
48376.2
51184.6
56137
63260.3
68217.5
69458.5
67887
64581.4
60697.6
56826.9
52956.9
48825.8
44267.9
39495.2
35906.6
37543.6
42704.3
46053.6
47252.8
50209.8
56489.4
67317.5
76723.5
80034.3
77646
71819.8
64958.8
58434.8
52554.5
47142.8
42042.8
37479.3
35347.4
38462.5
42550.7
45032.7
47252.8
50209.8
56489.4
67317.5
76723.5
80034.3
77646
71819.8
64958.8
58434.8
52554.5
47142.8
42042.8
37479.3
35347.4
38462.5
42550.7
45032.7
46625.2
49312.2
54424.1
63617.8
73952.6
79785.2
79001.6
73600.6
66337.4
58993.4
52323.6
46477.1
41426.5
37480.8
36551.9
39686
42753.8
44630.1
46625.2
49312.2
54424.1
63617.8
73952.6
79785.2
79001.6
73600.6
66337.4
58993.4
52323.6
46477.1
41426.5
37480.8
36551.9
39686
42753.8
44630.1
46253.7
48528.8
52161.8
58429.2
66806
73285.9
74280.4
70537.1
64517.5
57931.1
51665
46121.2
41475.6
38204.5
37906
40596.6
43057.7
44579.5
46253.7
48528.8
52161.8
58429.2
66806
73285.9
74280.4
70537.1
64517.5
57931.1
51665
46121.2
41475.6
38204.5
37906
40596.6
43057.7
44579.5
45991.9
47823.9
50383.3
54351.8
59980.5
65339.8
67285.7
65202.2
60775.6
55541.2
50338.6
45619.5
41691.6
39137.9
39081.9
41185.7
43242.4
44608.8
45991.9
47823.9
50383.3
54351.8
59980.5
65339.8
67285.7
65202.2
60775.6
55541.2
50338.6
45619.5
41691.6
39137.9
39081.9
41185.7
43242.4
44608.8
45621.6
47082.7
48961.3
51512.5
54908.4
58367.5
60098
59121
56157
52367.5
48489.1
44914.2
41958.7
40136.7
40083.2
41500.3
43134.6
44416.1
45621.6
47082.7
48961.3
51512.5
54908.4
58367.5
60098
59121
56157
52367.5
48489.1
44914.2
41958.7
40136.7
40083.2
41500.3
43134.6
44416.1
44737.8
45996.5
47494.3
49270.9
51294
53174.6
54094
53455.6
51497.7
48943.5
46360.3
44025.2
42126.2
40945.1
40761.8
41465.9
42545
43634.4
44737.8
45996.5
47494.3
49270.9
51294
53174.6
54094
53455.6
51497.7
48943.5
46360.3
44025.2
42126.2
40945.1
40761.8
41465.9
42545
43634.4
42869.6
44001.6
45339.4
46773.8
48145.5
49196.2
49557.7
48970.2
47568.1
45829.9
44202.1
42862.6
41818
41093.7
40769.2
40868.3
41304.7
41978.1
42869.6
44001.6
45339.4
46773.8
48145.5
49196.2
49557.7
48970.2
47568.1
45829.9
44202.1
42862.6
41818
41093.7
40769.2
40868.3
41304.7
41978.1
39851.9
40659
41817.5
43141.7
44376.5
45273.4
45606.7
45230
44222.6
42955.2
41857
41097.8
40580.1
40157.6
39780.5
39487.7
39347.8
39438.3
39851.9
40659
41817.5
43141.7
44376.5
45273.4
45606.7
45230
44222.6
42955.2
41857
41097.8
40580.1
40157.6
39780.5
39487.7
39347.8
39438.3
36706.8
36917.7
37535.7
38489.3
39579.3
40550.4
41145.6
41154.9
40546.2
39608
38807.6
38390.1
38245.4
38138.6
37920.9
37574.2
37172.9
36837
36706.8
36917.7
37535.7
38489.3
39579.3
40550.4
41145.6
41154.9
40546.2
39608
38807.6
38390.1
38245.4
38138.6
37920.9
37574.2
37172.9
36837
37232
36412.5
35978.9
36001
36389.8
36914.9
37285.2
37285.8
36907.4
36384.6
36088.3
36307.1
37046
38029.1
38875.1
39247.6
38987.1
38207.2
37232
36412.5
35978.9
36001
36389.8
36914.9
37285.2
37285.8
36907.4
36384.6
36088.3
36307.1
37046
38029.1
38875.1
39247.6
38987.1
38207.2
)
;
    }
}


// ************************************************************************* //
