/*--------------------------------*- C++ -*----------------------------------*\
| =========                 |                                                 |
| \\      /  F ield         | OpenFOAM: The Open Source CFD Toolbox           |
|  \\    /   O peration     | Version:  2312                                  |
|   \\  /    A nd           | Website:  www.openfoam.com                      |
|    \\/     M anipulation  |                                                 |
\*---------------------------------------------------------------------------*/
FoamFile
{
    version     2.0;
    format      ascii;
    arch        "LSB;label=32;scalar=64";
    class       volVectorField;
    location    "0.8";
    object      U;
}
// * * * * * * * * * * * * * * * * * * * * * * * * * * * * * * * * * * * * * //

dimensions      [0 1 -1 0 0 0 0];

internalField   nonuniform List<vector> 
1620
(
(0.00217364 0.00254688 -0.00132832)
(0.00216751 0.00297838 -0.00072901)
(0.00179696 0.00310689 6.53453e-06)
(0.00135481 0.00289365 0.000704205)
(0.00104462 0.00252891 0.00126156)
(0.00089116 0.00216125 0.00168799)
(0.000833697 0.00181671 0.00202571)
(0.000804259 0.00146761 0.00229748)
(0.000760119 0.00109484 0.00250981)
(0.000687815 0.000696967 0.00266982)
(0.000594325 0.000275915 0.00278901)
(0.000496663 -0.000170641 0.00287474)
(0.000416596 -0.000639566 0.00291796)
(0.000383941 -0.00109958 0.00288821)
(0.000449121 -0.00148091 0.00274795)
(0.00069053 -0.00172203 0.00248551)
(0.00116311 -0.00186964 0.00213722)
(0.00176205 -0.00210861 0.00176112)
(0.00217364 -0.00254688 0.00132832)
(0.00216751 -0.00297838 0.00072901)
(0.00179696 -0.00310689 -6.53452e-06)
(0.00135481 -0.00289365 -0.000704205)
(0.00104462 -0.00252891 -0.00126156)
(0.00089116 -0.00216125 -0.00168799)
(0.000833697 -0.00181671 -0.00202571)
(0.000804259 -0.00146761 -0.00229748)
(0.000760119 -0.00109484 -0.00250981)
(0.000687815 -0.000696967 -0.00266982)
(0.000594325 -0.000275915 -0.00278901)
(0.000496663 0.000170641 -0.00287474)
(0.000416596 0.000639566 -0.00291796)
(0.000383941 0.00109958 -0.00288821)
(0.000449121 0.00148091 -0.00274795)
(0.00069053 0.00172203 -0.00248551)
(0.00116311 0.00186964 -0.00213722)
(0.00176205 0.00210861 -0.00176112)
(0.00147406 0.00251482 -0.000547667)
(0.001468 0.00258631 6.48019e-06)
(0.00131971 0.00259427 0.000556538)
(0.00110926 0.00249703 0.00107723)
(0.000916674 0.00230942 0.00154111)
(0.00078227 0.0020581 0.00193894)
(0.000709329 0.00175262 0.00227274)
(0.000681393 0.00139599 0.00254584)
(0.000677804 0.000995424 0.00276187)
(0.000684066 0.000558358 0.00292514)
(0.000694439 8.68314e-05 0.00303594)
(0.000708355 -0.000419408 0.00308386)
(0.000725637 -0.000950357 0.0030446)
(0.000746901 -0.00146978 0.00288609)
(0.000784939 -0.00191161 0.00258757)
(0.000878884 -0.00220963 0.00216035)
(0.00107012 -0.002356 0.00164723)
(0.00131562 -0.00243122 0.00109749)
(0.00147406 -0.00251482 0.000547667)
(0.001468 -0.00258631 -6.48018e-06)
(0.00131971 -0.00259427 -0.000556538)
(0.00110926 -0.00249703 -0.00107723)
(0.000916674 -0.00230942 -0.00154111)
(0.00078227 -0.0020581 -0.00193894)
(0.000709329 -0.00175262 -0.00227274)
(0.000681393 -0.00139599 -0.00254584)
(0.000677804 -0.000995424 -0.00276187)
(0.000684066 -0.000558358 -0.00292514)
(0.000694439 -8.68314e-05 -0.00303594)
(0.000708355 0.000419408 -0.00308386)
(0.000725637 0.000950357 -0.0030446)
(0.000746901 0.00146978 -0.00288609)
(0.000784939 0.00191161 -0.00258757)
(0.000878884 0.00220963 -0.00216035)
(0.00107012 0.002356 -0.00164723)
(0.00131562 0.00243122 -0.00109749)
(0.000829012 0.00226687 0.000437585)
(0.000879853 0.00201703 0.000952713)
(0.000928235 0.00188134 0.00138508)
(0.000924764 0.0018396 0.00177344)
(0.0008472 0.00179455 0.0021355)
(0.000726492 0.00166385 0.00246421)
(0.000616397 0.00142152 0.00274446)
(0.00055361 0.00108366 0.00296786)
(0.000545113 0.000675724 0.0031337)
(0.000580152 0.000214428 0.00323918)
(0.000644122 -0.000291838 0.0032706)
(0.000722781 -0.000833363 0.00320132)
(0.000798945 -0.00138799 0.00299816)
(0.000850157 -0.00191358 0.00263674)
(0.000858113 -0.0023482 0.00212229)
(0.000830125 -0.00262036 0.00149949)
(0.000802379 -0.00267724 0.000831452)
(0.000801433 -0.00252917 0.000169126)
(0.000829012 -0.00226687 -0.000437585)
(0.000879853 -0.00201703 -0.000952713)
(0.000928235 -0.00188134 -0.00138508)
(0.000924764 -0.0018396 -0.00177344)
(0.0008472 -0.00179455 -0.0021355)
(0.000726492 -0.00166385 -0.00246421)
(0.000616397 -0.00142152 -0.00274446)
(0.00055361 -0.00108366 -0.00296786)
(0.000545113 -0.000675724 -0.0031337)
(0.000580152 -0.000214428 -0.00323918)
(0.000644122 0.000291838 -0.0032706)
(0.000722781 0.000833363 -0.00320132)
(0.000798945 0.00138799 -0.00299816)
(0.000850157 0.00191358 -0.00263674)
(0.000858113 0.0023482 -0.00212229)
(0.000830125 0.00262036 -0.00149949)
(0.000802379 0.00267724 -0.000831452)
(0.000801433 0.00252917 -0.000169126)
(0.00623888 0.0078768 -0.00206077)
(0.00590269 0.00827181 -0.000399636)
(0.00459582 0.00810936 0.00126823)
(0.00320185 0.00743075 0.00278158)
(0.00225696 0.0065641 0.00405312)
(0.00180426 0.00568261 0.00511051)
(0.00165303 0.00477212 0.00599504)
(0.00160122 0.0037883 0.00671763)
(0.00153142 0.00272329 0.00728801)
(0.00141611 0.00158212 0.00773013)
(0.00128531 0.000353787 0.00806602)
(0.00119195 -0.000987223 0.00828892)
(0.00119165 -0.00244901 0.00834262)
(0.00134447 -0.00396945 0.00812456)
(0.00174277 -0.00537074 0.00753078)
(0.00253714 -0.00640326 0.00652962)
(0.00383521 -0.00696929 0.00518303)
(0.00535773 -0.0073399 0.00362049)
(0.00623888 -0.0078768 0.00206077)
(0.00590269 -0.00827181 0.000399636)
(0.00459582 -0.00810936 -0.00126823)
(0.00320185 -0.00743075 -0.00278158)
(0.00225696 -0.0065641 -0.00405312)
(0.00180426 -0.00568261 -0.00511051)
(0.00165303 -0.00477212 -0.00599504)
(0.00160122 -0.0037883 -0.00671763)
(0.00153142 -0.00272329 -0.00728801)
(0.00141611 -0.00158212 -0.00773013)
(0.00128531 -0.000353787 -0.00806602)
(0.00119195 0.000987223 -0.00828892)
(0.00119165 0.00244901 -0.00834262)
(0.00134447 0.00396945 -0.00812456)
(0.00174277 0.00537074 -0.00753078)
(0.00253714 0.00640326 -0.00652962)
(0.00383521 0.00696929 -0.00518303)
(0.00535773 0.0073399 -0.00362049)
(0.00524261 0.00751738 -0.001211)
(0.0052303 0.00742395 0.000439253)
(0.00462822 0.00718977 0.00199722)
(0.00378155 0.0067841 0.00341159)
(0.00302753 0.00623892 0.00466381)
(0.0025147 0.00554888 0.0057476)
(0.0022377 0.00468945 0.00666237)
(0.00211878 0.00366619 0.00740998)
(0.00208037 0.00251011 0.00799528)
(0.00207949 0.00124905 0.00842283)
(0.00210734 -0.000105011 0.00868622)
(0.00217459 -0.00154611 0.00875641)
(0.00229772 -0.00304918 0.00857735)
(0.00249381 -0.00453857 0.00807854)
(0.00278732 -0.00586607 0.00721006)
(0.0032283 -0.00683791 0.00599035)
(0.00388637 -0.00734359 0.00451695)
(0.00469188 -0.00748972 0.00288923)
(0.00524261 -0.00751738 0.001211)
(0.0052303 -0.00742395 -0.000439253)
(0.00462822 -0.00718977 -0.00199722)
(0.00378155 -0.0067841 -0.00341159)
(0.00302753 -0.00623892 -0.00466381)
(0.0025147 -0.00554888 -0.0057476)
(0.0022377 -0.00468945 -0.00666237)
(0.00211878 -0.00366619 -0.00740998)
(0.00208037 -0.00251011 -0.00799528)
(0.00207949 -0.00124905 -0.00842283)
(0.00210734 0.000105011 -0.00868622)
(0.00217459 0.00154611 -0.00875641)
(0.00229772 0.00304918 -0.00857735)
(0.00249381 0.00453857 -0.00807854)
(0.00278732 0.00586607 -0.00721006)
(0.0032283 0.00683791 -0.00599035)
(0.00388637 0.00734359 -0.00451695)
(0.00469188 0.00748972 -0.00288923)
(0.00422485 0.00689522 8.28377e-05)
(0.00460069 0.00638324 0.00162737)
(0.00470083 0.00604778 0.00304658)
(0.00440932 0.00584225 0.00435662)
(0.00385505 0.00557644 0.00556518)
(0.0032743 0.00506883 0.00663188)
(0.00284411 0.00427059 0.007517)
(0.00261484 0.00323099 0.00821835)
(0.00255416 0.00201132 0.00874201)
(0.00260904 0.000656591 0.00907396)
(0.00273622 -0.000795277 0.00917817)
(0.00290764 -0.00229944 0.00900507)
(0.00310369 -0.00379324 0.00850386)
(0.0033005 -0.00518991 0.00763941)
(0.00345937 -0.00637444 0.00641516)
(0.00354729 -0.00720156 0.00490195)
(0.0036192 -0.00753602 0.00324588)
(0.00383161 -0.00736363 0.00157643)
(0.00422485 -0.00689522 -8.28376e-05)
(0.00460069 -0.00638324 -0.00162737)
(0.00470083 -0.00604778 -0.00304658)
(0.00440932 -0.00584225 -0.00435662)
(0.00385505 -0.00557644 -0.00556518)
(0.0032743 -0.00506883 -0.00663188)
(0.00284411 -0.00427059 -0.007517)
(0.00261484 -0.00323099 -0.00821835)
(0.00255416 -0.00201132 -0.00874201)
(0.00260904 -0.000656591 -0.00907396)
(0.00273622 0.000795277 -0.00917817)
(0.00290764 0.00229944 -0.00900507)
(0.00310369 0.00379324 -0.00850386)
(0.0033005 0.00518991 -0.00763941)
(0.00345937 0.00637444 -0.00641516)
(0.00354729 0.00720156 -0.00490195)
(0.0036192 0.00753602 -0.00324588)
(0.00383161 0.00736363 -0.00157643)
(0.0111906 0.0132275 -0.0024313)
(0.00998481 0.0131356 0.000135093)
(0.00751867 0.012448 0.00257997)
(0.00518181 0.0112748 0.00472673)
(0.00367922 0.00993613 0.00654935)
(0.0029775 0.00854255 0.00812905)
(0.0027273 0.00704601 0.0095078)
(0.00263152 0.00540858 0.0106708)
(0.00255666 0.0036352 0.0116085)
(0.00249476 0.00173123 0.0123314)
(0.00249618 -0.000317408 0.0128419)
(0.002621 -0.00252773 0.013103)
(0.00292052 -0.00488329 0.0130276)
(0.00345367 -0.0072932 0.0125011)
(0.00434153 -0.00955641 0.0114365)
(0.0057941 -0.0113678 0.00982807)
(0.0078914 -0.012477 0.00772012)
(0.010118 -0.0129534 0.00512798)
(0.0111906 -0.0132275 0.0024313)
(0.00998481 -0.0131356 -0.000135093)
(0.00751867 -0.012448 -0.00257997)
(0.00518181 -0.0112748 -0.00472673)
(0.00367922 -0.00993613 -0.00654935)
(0.0029775 -0.00854255 -0.00812905)
(0.0027273 -0.00704601 -0.0095078)
(0.00263152 -0.00540858 -0.0106708)
(0.00255666 -0.0036352 -0.0116085)
(0.00249476 -0.00173123 -0.0123314)
(0.00249618 0.000317408 -0.0128419)
(0.002621 0.00252773 -0.013103)
(0.00292052 0.00488329 -0.0130276)
(0.00345367 0.0072932 -0.0125011)
(0.00434153 0.00955641 -0.0114365)
(0.0057941 0.0113678 -0.00982807)
(0.0078914 0.012477 -0.00772012)
(0.010118 0.0129534 -0.00512797)
(0.0098674 0.0121664 -0.00151942)
(0.00964675 0.0117989 0.00111696)
(0.00845804 0.0112257 0.00353804)
(0.00691077 0.0104527 0.00568704)
(0.00554859 0.00947689 0.00753324)
(0.00461996 0.00827017 0.0090914)
(0.0040986 0.00681729 0.0104041)
(0.00384531 0.00514337 0.0114928)
(0.00374553 0.0032892 0.0123494)
(0.00374713 0.0012882 0.012954)
(0.00384295 -0.000836514 0.0132785)
(0.00404652 -0.00305993 0.0132783)
(0.00437857 -0.00533334 0.0128892)
(0.00486751 -0.00755985 0.0120433)
(0.00556207 -0.00957114 0.0107016)
(0.00653201 -0.0111274 0.00888979)
(0.00779009 -0.0120312 0.0067024)
(0.00908893 -0.0122964 0.00422339)
(0.0098674 -0.0121664 0.00151942)
(0.00964675 -0.0117989 -0.00111696)
(0.00845804 -0.0112257 -0.00353804)
(0.00691077 -0.0104527 -0.00568704)
(0.00554859 -0.00947689 -0.00753324)
(0.00461996 -0.00827017 -0.0090914)
(0.0040986 -0.00681729 -0.0104041)
(0.00384531 -0.00514337 -0.0114928)
(0.00374553 -0.0032892 -0.0123494)
(0.00374713 -0.0012882 -0.012954)
(0.00384295 0.000836513 -0.0132785)
(0.00404652 0.00305993 -0.0132783)
(0.00437857 0.00533334 -0.0128892)
(0.00486751 0.00755985 -0.0120433)
(0.00556207 0.00957114 -0.0107016)
(0.00653201 0.0111274 -0.00888979)
(0.00779009 0.0120312 -0.0067024)
(0.00908893 0.0122964 -0.00422339)
(0.00852273 0.0108863 -0.000195647)
(0.00931428 0.0102821 0.00232995)
(0.00937758 0.00973907 0.00472373)
(0.00863244 0.00925795 0.00686726)
(0.0074317 0.00860079 0.00870454)
(0.0062793 0.00756901 0.0101937)
(0.00546888 0.00616656 0.0113721)
(0.00501942 0.00448109 0.0123062)
(0.00484213 0.00257867 0.0130003)
(0.00485015 0.000516252 0.0134069)
(0.00498508 -0.00164164 0.0134693)
(0.00521661 -0.00382336 0.0131388)
(0.00553347 -0.00594941 0.0123761)
(0.00592727 -0.00792512 0.0111539)
(0.0063694 -0.00962334 0.00947103)
(0.00680319 -0.010864 0.00738293)
(0.00721498 -0.0114733 0.00503902)
(0.00771843 -0.0114165 0.00264333)
(0.00852273 -0.0108863 0.000195647)
(0.00931428 -0.0102821 -0.00232995)
(0.00937758 -0.00973907 -0.00472373)
(0.00863244 -0.00925795 -0.00686726)
(0.0074317 -0.00860079 -0.00870454)
(0.0062793 -0.00756901 -0.0101937)
(0.00546888 -0.00616656 -0.0113721)
(0.00501942 -0.00448109 -0.0123062)
(0.00484213 -0.00257867 -0.0130003)
(0.00485015 -0.000516252 -0.0134069)
(0.00498508 0.00164164 -0.0134693)
(0.00521661 0.00382336 -0.0131388)
(0.00553347 0.00594941 -0.0123761)
(0.00592727 0.00792512 -0.0111539)
(0.0063694 0.00962334 -0.00947103)
(0.00680319 0.010864 -0.00738293)
(0.00721498 0.0114733 -0.00503902)
(0.00771843 0.0114165 -0.00264333)
(0.0155041 0.0169276 -0.00266472)
(0.0132424 0.0162195 0.000761584)
(0.0100312 0.0152385 0.00390189)
(0.00736411 0.0138626 0.00657908)
(0.00583838 0.0121774 0.00880133)
(0.00517205 0.0102922 0.0107139)
(0.00486805 0.00822119 0.0124126)
(0.00467023 0.00595929 0.0138815)
(0.00454282 0.0035199 0.0150714)
(0.00453587 0.000917345 0.0159439)
(0.00470926 -0.00183792 0.0164632)
(0.00511077 -0.00472253 0.016576)
(0.00578366 -0.00767434 0.0162107)
(0.00679928 -0.0105713 0.0153072)
(0.0083121 -0.0132233 0.01386)
(0.0105204 -0.0153943 0.011894)
(0.013229 -0.0168388 0.00935042)
(0.0153629 -0.0173157 0.00619534)
(0.0155041 -0.0169276 0.00266472)
(0.0132424 -0.0162195 -0.000761584)
(0.0100312 -0.0152385 -0.00390189)
(0.00736411 -0.0138626 -0.00657908)
(0.00583838 -0.0121774 -0.00880133)
(0.00517205 -0.0102922 -0.0107139)
(0.00486805 -0.00822119 -0.0124126)
(0.00467024 -0.00595929 -0.0138815)
(0.00454282 -0.0035199 -0.0150714)
(0.00453587 -0.000917346 -0.0159439)
(0.00470926 0.00183792 -0.0164632)
(0.00511077 0.00472253 -0.016576)
(0.00578366 0.00767434 -0.0162107)
(0.00679928 0.0105713 -0.0153072)
(0.0083121 0.0132233 -0.01386)
(0.0105204 0.0153943 -0.011894)
(0.013229 0.0168388 -0.00935042)
(0.0153629 0.0173157 -0.00619534)
(0.014253 0.0156057 -0.00177975)
(0.0135652 0.0150059 0.00159299)
(0.011942 0.0142026 0.00476433)
(0.0100109 0.0130951 0.00753502)
(0.00834588 0.0116419 0.00979284)
(0.007194 0.00988851 0.011612)
(0.00648952 0.00788373 0.0131361)
(0.00608871 0.00565848 0.0144177)
(0.00590525 0.00323963 0.0154203)
(0.00591072 0.000662633 0.0160855)
(0.0061046 -0.00202816 0.0163633)
(0.00649722 -0.00477869 0.0162093)
(0.00710685 -0.00751548 0.0155781)
(0.00796602 -0.0101316 0.0144335)
(0.00913046 -0.0124739 0.0127749)
(0.0106385 -0.0143429 0.0106428)
(0.0123307 -0.0155345 0.00806936)
(0.0137219 -0.0159174 0.00508814)
(0.014253 -0.0156057 0.00177975)
(0.0135652 -0.0150059 -0.00159299)
(0.011942 -0.0142026 -0.00476433)
(0.0100109 -0.0130951 -0.00753502)
(0.00834588 -0.0116419 -0.00979284)
(0.007194 -0.00988851 -0.011612)
(0.00648952 -0.00788373 -0.0131361)
(0.00608871 -0.00565848 -0.0144177)
(0.00590525 -0.00323963 -0.0154203)
(0.00591072 -0.000662633 -0.0160855)
(0.0061046 0.00202816 -0.0163633)
(0.00649722 0.00477869 -0.0162093)
(0.00710685 0.00751548 -0.0155781)
(0.00796602 0.0101316 -0.0144335)
(0.00913046 0.0124739 -0.0127749)
(0.0106385 0.0143429 -0.0106428)
(0.0123307 0.0155345 -0.00806936)
(0.0137219 0.0159174 -0.00508814)
(0.0129859 0.0144844 -0.000709057)
(0.0138432 0.0138403 0.00260884)
(0.0137857 0.0129663 0.00583265)
(0.0126312 0.0119699 0.00864338)
(0.0108722 0.0107106 0.0108676)
(0.00924474 0.00908773 0.0125304)
(0.00812059 0.00715578 0.0138106)
(0.00747591 0.00498226 0.0148346)
(0.00718447 0.00260556 0.0155845)
(0.00714943 8.40853e-05 0.0159839)
(0.00731482 -0.00250217 0.0159725)
(0.00765425 -0.00507125 0.0155177)
(0.00815808 -0.0075448 0.0145999)
(0.0088142 -0.00983913 0.0132065)
(0.00957451 -0.0118465 0.011348)
(0.0103387 -0.0134124 0.0090886)
(0.0110735 -0.0143857 0.00653951)
(0.0119226 -0.0147294 0.00375827)
(0.0129859 -0.0144844 0.000709057)
(0.0138432 -0.0138403 -0.00260884)
(0.0137857 -0.0129663 -0.00583265)
(0.0126312 -0.0119699 -0.00864338)
(0.0108722 -0.0107106 -0.0108676)
(0.00924474 -0.00908773 -0.0125304)
(0.00812059 -0.00715578 -0.0138106)
(0.00747591 -0.00498226 -0.0148346)
(0.00718447 -0.00260556 -0.0155845)
(0.00714943 -8.40854e-05 -0.0159839)
(0.00731482 0.00250217 -0.0159725)
(0.00765425 0.00507125 -0.0155177)
(0.00815809 0.0075448 -0.0145999)
(0.0088142 0.00983913 -0.0132065)
(0.00957451 0.0118465 -0.011348)
(0.0103387 0.0134124 -0.0090886)
(0.0110735 0.0143857 -0.00653951)
(0.0119226 0.0147294 -0.00375827)
(0.0186597 0.0181261 -0.00272877)
(0.0156486 0.0173955 0.00129021)
(0.0121894 0.0164711 0.00500594)
(0.00969567 0.0150761 0.00812153)
(0.00854572 0.0131762 0.0105876)
(0.00812868 0.0109469 0.01263)
(0.00783607 0.00846624 0.0144374)
(0.00753121 0.00574853 0.0160186)
(0.00732415 0.00281806 0.017289)
(0.00733958 -0.000283935 0.0181588)
(0.00765208 -0.00350061 0.0185592)
(0.00830307 -0.00675129 0.0184397)
(0.00933756 -0.00991684 0.0177745)
(0.0108451 -0.0128299 0.0165877)
(0.012976 -0.0152931 0.0149601)
(0.0157524 -0.0171416 0.012901)
(0.0184833 -0.0182658 0.0101987)
(0.0197547 -0.0185561 0.00671449)
(0.0186597 -0.0181261 0.00272877)
(0.0156486 -0.0173955 -0.00129021)
(0.0121894 -0.0164711 -0.00500594)
(0.00969567 -0.0150761 -0.00812153)
(0.00854572 -0.0131762 -0.0105876)
(0.00812868 -0.0109469 -0.01263)
(0.00783607 -0.00846624 -0.0144374)
(0.00753121 -0.00574853 -0.0160186)
(0.00732415 -0.00281806 -0.017289)
(0.00733958 0.000283935 -0.0181588)
(0.00765208 0.00350061 -0.0185592)
(0.00830307 0.00675129 -0.0184397)
(0.00933756 0.00991684 -0.0177745)
(0.0108451 0.0128299 -0.0165877)
(0.012976 0.0152931 -0.0149601)
(0.0157524 0.0171416 -0.012901)
(0.0184833 0.0182658 -0.0101987)
(0.0197547 0.0185561 -0.00671449)
(0.0178221 0.0171962 -0.00204848)
(0.0166873 0.0167358 0.00178167)
(0.0148626 0.0158961 0.00550136)
(0.0128927 0.0145489 0.00870918)
(0.0112634 0.0127139 0.0112145)
(0.0101165 0.0105513 0.0131597)
(0.0093383 0.00815833 0.0147726)
(0.00883121 0.00555541 0.016129)
(0.00857853 0.00275795 0.0171721)
(0.00859401 -0.000187826 0.0178159)
(0.00889079 -0.00320884 0.0179972)
(0.00947922 -0.00621572 0.0176802)
(0.0103767 -0.00910315 0.0168495)
(0.0116177 -0.0117443 0.0155154)
(0.0132393 -0.0139966 0.0137241)
(0.0151531 -0.0157247 0.0115088)
(0.0169247 -0.0168264 0.00882163)
(0.0179264 -0.0172761 0.00564213)
(0.0178221 -0.0171962 0.00204848)
(0.0166873 -0.0167358 -0.00178167)
(0.0148626 -0.0158961 -0.00550136)
(0.0128927 -0.0145489 -0.00870918)
(0.0112634 -0.0127139 -0.0112145)
(0.0101165 -0.0105513 -0.0131597)
(0.0093383 -0.00815833 -0.0147726)
(0.00883121 -0.00555541 -0.016129)
(0.00857853 -0.00275795 -0.0171721)
(0.00859401 0.000187826 -0.0178159)
(0.00889079 0.00320884 -0.0179972)
(0.00947922 0.00621572 -0.0176802)
(0.0103767 0.00910315 -0.0168495)
(0.0116177 0.0117443 -0.0155154)
(0.0132393 0.0139966 -0.0137241)
(0.0151531 0.0157247 -0.0115088)
(0.0169247 0.0168264 -0.00882163)
(0.0179264 0.0172761 -0.00564213)
(0.0170399 0.0166445 -0.00134233)
(0.0176951 0.0161913 0.00251862)
(0.0174499 0.0151392 0.00630817)
(0.0160612 0.0136728 0.00951031)
(0.0140204 0.0118698 0.0119247)
(0.0121464 0.00978424 0.0136654)
(0.0108546 0.00749092 0.014992)
(0.0101018 0.00501346 0.0160513)
(0.0097514 0.00236302 0.0168122)
(0.00971501 -0.00040423 0.0171904)
(0.009949 -0.00320045 0.0171293)
(0.0104334 -0.00593406 0.0166074)
(0.0111567 -0.00851867 0.0156216)
(0.0120968 -0.0108701 0.0141838)
(0.0131781 -0.0129082 0.0123354)
(0.0142408 -0.0145514 0.0101391)
(0.0151878 -0.0157367 0.00763427)
(0.0161018 -0.016451 0.00475359)
(0.0170399 -0.0166445 0.00134233)
(0.0176951 -0.0161913 -0.00251862)
(0.0174499 -0.0151392 -0.00630817)
(0.0160612 -0.0136728 -0.00951031)
(0.0140204 -0.0118698 -0.0119247)
(0.0121464 -0.00978424 -0.0136654)
(0.0108546 -0.00749092 -0.014992)
(0.0101018 -0.00501346 -0.0160513)
(0.0097514 -0.00236302 -0.0168122)
(0.00971501 0.00040423 -0.0171904)
(0.009949 0.00320045 -0.0171293)
(0.0104334 0.00593406 -0.0166074)
(0.0111567 0.00851867 -0.0156216)
(0.0120968 0.0108701 -0.0141838)
(0.0131781 0.0129082 -0.0123354)
(0.0142408 0.0145514 -0.0101391)
(0.0151878 0.0157367 -0.00763427)
(0.0161018 0.016451 -0.00475359)
(0.021522 0.0173179 -0.00279712)
(0.018123 0.0168619 0.00142579)
(0.0145659 0.0161411 0.00547458)
(0.0122277 0.0148407 0.00892146)
(0.0113558 0.0129257 0.0115717)
(0.0111641 0.0106039 0.0136393)
(0.0109501 0.00798012 0.0154014)
(0.0106278 0.00507534 0.0169298)
(0.010402 0.0019281 0.0181423)
(0.0104597 -0.00138594 0.0189229)
(0.0108984 -0.00475851 0.0191825)
(0.0117609 -0.00804825 0.0188797)
(0.0130877 -0.0110785 0.0180348)
(0.0149558 -0.0136501 0.0167389)
(0.0174408 -0.0155934 0.015094)
(0.0203198 -0.0168479 0.0130365)
(0.0226629 -0.0174801 0.010313)
(0.0232453 -0.0175869 0.00682531)
(0.021522 -0.0173179 0.00279712)
(0.018123 -0.0168619 -0.00142579)
(0.0145659 -0.0161411 -0.00547458)
(0.0122277 -0.0148407 -0.00892146)
(0.0113558 -0.0129257 -0.0115717)
(0.0111641 -0.0106039 -0.0136393)
(0.0109501 -0.00798012 -0.0154014)
(0.0106278 -0.00507534 -0.0169298)
(0.010402 -0.00192811 -0.0181423)
(0.0104597 0.00138594 -0.0189229)
(0.0108984 0.00475851 -0.0191825)
(0.0117609 0.00804825 -0.0188797)
(0.0130877 0.0110785 -0.0180348)
(0.0149558 0.0136501 -0.0167389)
(0.0174408 0.0155934 -0.0150939)
(0.0203198 0.0168479 -0.0130365)
(0.0226629 0.0174801 -0.010313)
(0.0232453 0.0175869 -0.00682531)
(0.0210717 0.0170094 -0.00234457)
(0.0195785 0.0168328 0.00167582)
(0.01759 0.016119 0.00565448)
(0.0156547 0.0147219 0.0090966)
(0.0141381 0.0127438 0.011758)
(0.0130726 0.0104162 0.013773)
(0.0123063 0.00786066 0.0153977)
(0.0117741 0.00509612 0.0167385)
(0.0115109 0.00214066 0.0177462)
(0.0115657 -0.000943463 0.018329)
(0.0119679 -0.00405495 0.0184191)
(0.0127308 -0.00706833 0.0179895)
(0.0138676 -0.00984284 0.0170543)
(0.0153967 -0.012234 0.0156694)
(0.0172904 -0.0141289 0.0139089)
(0.0193074 -0.015491 0.0117746)
(0.0209148 -0.0163667 0.00916669)
(0.0215778 -0.0168433 0.00601374)
(0.0210717 -0.0170094 0.00234457)
(0.0195785 -0.0168328 -0.00167582)
(0.01759 -0.016119 -0.00565448)
(0.0156547 -0.0147219 -0.0090966)
(0.0141381 -0.0127438 -0.011758)
(0.0130726 -0.0104162 -0.013773)
(0.0123063 -0.00786066 -0.0153977)
(0.0117741 -0.00509612 -0.0167385)
(0.0115109 -0.00214066 -0.0177462)
(0.0115657 0.000943463 -0.018329)
(0.0119679 0.00405495 -0.0184191)
(0.0127308 0.00706833 -0.0179895)
(0.0138676 0.00984284 -0.0170543)
(0.0153967 0.012234 -0.0156694)
(0.0172904 0.0141289 -0.0139089)
(0.0193074 0.015491 -0.0117746)
(0.0209148 0.0163667 -0.00916669)
(0.0215778 0.0168433 -0.00601374)
(0.0206605 0.0171858 -0.00195248)
(0.0210438 0.0169743 0.00220743)
(0.0205767 0.0159237 0.00623749)
(0.0190824 0.0142397 0.00957683)
(0.0169794 0.0121555 0.0120795)
(0.0150334 0.00983973 0.0138875)
(0.0136841 0.00738326 0.0152527)
(0.0129014 0.00478277 0.0163236)
(0.0125497 0.00203665 0.0170777)
(0.0125495 -0.000799423 0.0174387)
(0.0128683 -0.00363133 0.0173562)
(0.0134929 -0.00635416 0.0168156)
(0.0144094 -0.00886504 0.0158299)
(0.0155763 -0.0110751 0.0144429)
(0.0168668 -0.0129385 0.0127282)
(0.0180617 -0.0144678 0.0107337)
(0.0190452 -0.0157048 0.0084136)
(0.0198997 -0.0166605 0.00556271)
(0.0206605 -0.0171858 0.00195248)
(0.0210438 -0.0169743 -0.00220743)
(0.0205767 -0.0159237 -0.00623749)
(0.0190824 -0.0142397 -0.00957683)
(0.0169794 -0.0121555 -0.0120795)
(0.0150334 -0.00983973 -0.0138875)
(0.0136841 -0.00738326 -0.0152527)
(0.0129014 -0.00478277 -0.0163236)
(0.0125497 -0.00203666 -0.0170777)
(0.0125495 0.000799423 -0.0174387)
(0.0128683 0.00363133 -0.0173562)
(0.0134929 0.00635416 -0.0168156)
(0.0144094 0.00886504 -0.0158299)
(0.0155763 0.0110751 -0.0144429)
(0.0168668 0.0129385 -0.0127282)
(0.0180617 0.0144678 -0.0107337)
(0.0190452 0.0157048 -0.0084136)
(0.0198997 0.0166605 -0.00556271)
(0.0242661 0.0153375 -0.00298875)
(0.020998 0.0151002 0.00107583)
(0.0175351 0.0145657 0.00514138)
(0.0151477 0.0134421 0.00876213)
(0.0141882 0.0116912 0.0115883)
(0.0140096 0.00949241 0.0136843)
(0.0138762 0.00696101 0.0153483)
(0.0136312 0.00412603 0.0167403)
(0.0134733 0.00103541 0.017824)
(0.0136133 -0.00220864 0.0184892)
(0.0141653 -0.00545681 0.0186428)
(0.0151709 -0.00852207 0.0182529)
(0.0166523 -0.0111952 0.017369)
(0.0186456 -0.0132798 0.0161057)
(0.0211356 -0.0146519 0.0145401)
(0.0237824 -0.0153363 0.012573)
(0.0257304 -0.0155348 0.00999716)
(0.0260246 -0.015486 0.00675359)
(0.0242661 -0.0153375 0.00298875)
(0.020998 -0.0151002 -0.00107583)
(0.0175351 -0.0145657 -0.00514138)
(0.0151477 -0.0134421 -0.00876213)
(0.0141882 -0.0116912 -0.0115883)
(0.0140096 -0.00949241 -0.0136843)
(0.0138762 -0.00696101 -0.0153483)
(0.0136312 -0.00412603 -0.0167403)
(0.0134733 -0.00103541 -0.017824)
(0.0136133 0.00220864 -0.0184892)
(0.0141653 0.00545681 -0.0186428)
(0.0151709 0.00852207 -0.0182529)
(0.0166523 0.0111952 -0.017369)
(0.0186456 0.0132798 -0.0161057)
(0.0211356 0.0146519 -0.0145401)
(0.0237824 0.0153363 -0.012573)
(0.0257304 0.0155348 -0.00999716)
(0.0260246 0.015486 -0.00675359)
(0.0239361 0.0156213 -0.00268595)
(0.0224088 0.0156394 0.0012418)
(0.0204307 0.0150815 0.00520269)
(0.0185176 0.013801 0.00871512)
(0.0170132 0.0119087 0.0114847)
(0.0159597 0.00963829 0.0135547)
(0.0152167 0.00712757 0.0151523)
(0.0147142 0.00440823 0.0164215)
(0.014491 0.0015078 0.0173494)
(0.0146076 -0.00149701 0.0178582)
(0.0151011 -0.00448284 0.0178845)
(0.0159837 -0.00729677 0.017411)
(0.0172549 -0.00977617 0.0164751)
(0.0188982 -0.0117802 0.0151593)
(0.0208153 -0.0132415 0.0135366)
(0.022704 -0.0142142 0.0115809)
(0.0240899 -0.0148529 0.00917066)
(0.0245556 -0.0153075 0.00620611)
(0.0239361 -0.0156213 0.00268595)
(0.0224088 -0.0156394 -0.0012418)
(0.0204307 -0.0150815 -0.00520269)
(0.0185176 -0.013801 -0.00871512)
(0.0170132 -0.0119087 -0.0114847)
(0.0159597 -0.00963829 -0.0135547)
(0.0152167 -0.00712757 -0.0151523)
(0.0147142 -0.00440823 -0.0164215)
(0.014491 -0.0015078 -0.0173494)
(0.0146076 0.00149701 -0.0178582)
(0.0151011 0.00448284 -0.0178845)
(0.0159837 0.00729677 -0.017411)
(0.0172549 0.00977617 -0.0164751)
(0.0188982 0.0117802 -0.0151593)
(0.0208153 0.0132415 -0.0135366)
(0.022704 0.0142142 -0.0115809)
(0.0240899 0.0148529 -0.00917066)
(0.0245556 0.0153075 -0.00620611)
(0.0236264 0.0164762 -0.00251749)
(0.0238689 0.0164418 0.00166574)
(0.0233497 0.0154895 0.00568503)
(0.0219221 0.0138239 0.00901481)
(0.0199114 0.0117181 0.0115517)
(0.0179756 0.00938609 0.0134181)
(0.0165886 0.00694047 0.0148109)
(0.0157875 0.00437763 0.0158696)
(0.01545 0.00169466 0.016598)
(0.0154929 -0.00105221 0.0169396)
(0.0158833 -0.00376342 0.0168535)
(0.0166076 -0.00632217 0.0163333)
(0.0176425 -0.0086138 0.0154087)
(0.0189147 -0.0105554 0.0141489)
(0.0202473 -0.012144 0.0126393)
(0.0214053 -0.0134735 0.0109053)
(0.0222972 -0.014666 0.00883253)
(0.0230214 -0.0157458 0.00611888)
(0.0236264 -0.0164762 0.00251749)
(0.0238689 -0.0164418 -0.00166574)
(0.0233497 -0.0154895 -0.00568503)
(0.0219221 -0.0138239 -0.00901481)
(0.0199114 -0.0117181 -0.0115517)
(0.0179756 -0.00938609 -0.0134181)
(0.0165886 -0.00694047 -0.0148109)
(0.0157875 -0.00437763 -0.0158696)
(0.01545 -0.00169466 -0.016598)
(0.0154929 0.00105221 -0.0169396)
(0.0158833 0.00376342 -0.0168535)
(0.0166076 0.00632217 -0.0163333)
(0.0176425 0.0086138 -0.0154087)
(0.0189147 0.0105554 -0.0141489)
(0.0202473 0.012144 -0.0126393)
(0.0214053 0.0134735 -0.0109053)
(0.0222972 0.014666 -0.00883253)
(0.0230214 0.0157458 -0.00611887)
(0.0267658 0.0128511 -0.00320428)
(0.0240541 0.0126603 0.000431112)
(0.0209376 0.0122267 0.00419975)
(0.0184711 0.0112947 0.00774581)
(0.0171705 0.00980029 0.0106666)
(0.0167537 0.00786019 0.0128279)
(0.0166117 0.00558246 0.0144247)
(0.0164687 0.0030076 0.015673)
(0.0164212 0.000187577 0.016612)
(0.0166522 -0.00276425 0.0171676)
(0.0172746 -0.00567857 0.0172598)
(0.0183222 -0.00835124 0.016866)
(0.0197912 -0.0105745 0.0160429)
(0.0216728 -0.0121792 0.0148938)
(0.0239005 -0.0130837 0.0134664)
(0.0261625 -0.0133588 0.011671)
(0.0278095 -0.013249 0.0093645)
(0.0281265 -0.0130309 0.00651228)
(0.0267658 -0.0128511 0.00320428)
(0.0240541 -0.0126603 -0.000431112)
(0.0209376 -0.0122267 -0.00419975)
(0.0184711 -0.0112947 -0.00774581)
(0.0171705 -0.00980029 -0.0106666)
(0.0167537 -0.00786019 -0.0128279)
(0.0166117 -0.00558246 -0.0144247)
(0.0164687 -0.0030076 -0.015673)
(0.0164212 -0.000187577 -0.016612)
(0.0166522 0.00276425 -0.0171676)
(0.0172746 0.00567857 -0.0172598)
(0.0183222 0.00835124 -0.016866)
(0.0197912 0.0105745 -0.0160429)
(0.0216728 0.0121792 -0.0148938)
(0.0239005 0.0130837 -0.0134664)
(0.0261625 0.0133588 -0.011671)
(0.0278095 0.013249 -0.0093645)
(0.0281265 0.0130309 -0.00651228)
(0.0263422 0.0135194 -0.00297075)
(0.025054 0.0136013 0.000615253)
(0.0232962 0.0131804 0.00430796)
(0.0214815 0.0121069 0.00770587)
(0.0199485 0.0104458 0.0104958)
(0.0188289 0.00838563 0.0126053)
(0.0180663 0.00607202 0.0141722)
(0.0175913 0.0035594 0.015352)
(0.0174141 0.00088674 0.0161831)
(0.0175803 -0.00186227 0.0166204)
(0.0181204 -0.00455467 0.0166146)
(0.0190361 -0.00702826 0.0161587)
(0.0203057 -0.00912179 0.0153015)
(0.0218767 -0.0107168 0.0141277)
(0.0236174 -0.0117879 0.0126955)
(0.0252564 -0.012439 0.0109664)
(0.0264337 -0.0128603 0.00881999)
(0.0268394 -0.0132125 0.00615625)
(0.0263422 -0.0135194 0.00297075)
(0.025054 -0.0136013 -0.000615253)
(0.0232962 -0.0131804 -0.00430796)
(0.0214815 -0.0121069 -0.00770587)
(0.0199485 -0.0104458 -0.0104958)
(0.0188289 -0.00838563 -0.0126053)
(0.0180663 -0.00607202 -0.0141722)
(0.0175913 -0.0035594 -0.015352)
(0.0174141 -0.000886741 -0.0161831)
(0.0175803 0.00186227 -0.0166204)
(0.0181204 0.00455467 -0.0166146)
(0.0190361 0.00702826 -0.0161587)
(0.0203057 0.00912179 -0.0153015)
(0.0218767 0.0107168 -0.0141277)
(0.0236174 0.0117879 -0.0126955)
(0.0252564 0.012439 -0.0109664)
(0.0264337 0.0128603 -0.00881999)
(0.0268394 0.0132125 -0.00615625)
(0.0259087 0.0148328 -0.00296214)
(0.0261218 0.0149174 0.000981631)
(0.0257215 0.0141427 0.00479534)
(0.0245454 0.0126685 0.00800307)
(0.0227946 0.0107334 0.0105038)
(0.020971 0.00854458 0.012385)
(0.0195546 0.00623627 0.0137812)
(0.0187029 0.00383391 0.0148065)
(0.0183478 0.00134347 0.0154925)
(0.0184022 -0.00118123 0.0158117)
(0.018819 -0.0036416 0.0157368)
(0.0195714 -0.00591823 0.0152714)
(0.0206169 -0.00789817 0.0144573)
(0.0218529 -0.00951649 0.0133734)
(0.0230844 -0.0108081 0.0120986)