/*--------------------------------*- C++ -*----------------------------------*\
| =========                 |                                                 |
| \\      /  F ield         | OpenFOAM: The Open Source CFD Toolbox           |
|  \\    /   O peration     | Version:  2412                                  |
|   \\  /    A nd           | Website:  www.openfoam.com                      |
|    \\/     M anipulation  |                                                 |
\*---------------------------------------------------------------------------*/
FoamFile
{
    version     2.0;
    format      ascii;
    arch        "LSB;label=32;scalar=64";
    class       volScalarField;
    location    "0.0199794";
    object      ionicCurrent;
}
// * * * * * * * * * * * * * * * * * * * * * * * * * * * * * * * * * * * * * //

dimensions      [1 2 -4 0 0 -1 0];

internalField   nonuniform List<scalar> 
8796
(
1.54514e-12
1.5306e-12
1.50188e-12
1.45993e-12
1.40584e-12
1.34093e-12
1.26686e-12
1.18557e-12
1.09911e-12
1.00942e-12
9.17864e-13
8.26791e-13
7.37487e-13
6.51306e-13
5.6967e-13
4.93446e-13
4.23121e-13
3.58867e-13
3.01551e-13
2.50828e-13
2.06384e-13
1.68151e-13
1.35365e-13
1.08026e-13
8.54047e-14
6.67738e-14
5.15429e-14
3.94346e-14
2.97895e-14
2.21914e-14
1.62587e-14
1.17831e-14
8.27893e-15
5.78093e-15
1.51822e-12
1.50385e-12
1.47585e-12
1.43464e-12
1.38135e-12
1.31744e-12
1.24462e-12
1.16489e-12
1.07971e-12
9.91243e-13
9.01523e-13
8.11976e-13
7.23991e-13
6.39371e-13
5.59123e-13
4.84252e-13
4.14968e-13
3.52171e-13
2.95792e-13
2.46005e-13
2.02152e-13
1.64508e-13
1.32485e-13
1.05701e-13
8.31496e-14
6.48309e-14
5.01552e-14
3.81509e-14
2.86793e-14
2.122e-14
1.58423e-14
1.14014e-14
8.00138e-15
5.53807e-15
1.46257e-12
1.44886e-12
1.42194e-12
1.38197e-12
1.33059e-12
1.26908e-12
1.19882e-12
1.12159e-12
1.03936e-12
9.54015e-13
8.6721e-13
7.80786e-13
6.96374e-13
6.14877e-13
5.37751e-13
4.65483e-13
3.99216e-13
3.38848e-13
2.84759e-13
2.36707e-13
1.94588e-13
1.58228e-13
1.27073e-13
1.00983e-13
7.96455e-14
6.20207e-14
4.77612e-14
3.6208e-14
2.70833e-14
1.99363e-14
1.46974e-14
1.07075e-14
7.55035e-15
5.05235e-15
1.37548e-12
1.36258e-12
1.33708e-12
1.29978e-12
1.25135e-12
1.19337e-12
1.12704e-12
1.05404e-12
9.76671e-13
8.96319e-13
8.14474e-13
7.33116e-13
6.53735e-13
5.77164e-13
5.04618e-13
4.3679e-13
3.74375e-13
3.17858e-13
2.66926e-13
2.21997e-13
1.82584e-13
1.48167e-13
1.19267e-13
9.50151e-14
7.45454e-14
5.79267e-14
4.47081e-14
3.37447e-14
2.53139e-14
1.87914e-14
1.36566e-14
9.7361e-15
6.75238e-15
4.42785e-15
1.25575e-12
1.24371e-12
1.2205e-12
1.18591e-12
1.14154e-12
1.08832e-12
1.02764e-12
9.61093e-13
8.90108e-13
8.16764e-13
7.42206e-13
6.6796e-13
5.95275e-13
5.254e-13
4.59203e-13
3.97065e-13
3.40201e-13
2.88541e-13
2.4212e-13
2.0118e-13
1.65271e-13
1.34324e-13
1.07956e-13
8.58558e-14
6.76065e-14
5.25144e-14
4.03019e-14
3.06222e-14
2.29547e-14
1.69872e-14
1.2477e-14
9.00752e-15
6.19726e-15
4.42785e-15
1.10445e-12
1.09401e-12
1.07343e-12
1.04318e-12
1.00384e-12
9.56999e-13
9.03674e-13
8.44797e-13
7.82243e-13
7.17642e-13
6.5207e-13
5.86462e-13
5.22416e-13
4.6066e-13
4.02304e-13
3.47799e-13
2.97596e-13
2.52216e-13
2.1145e-13
1.75402e-13
1.44212e-13
1.17393e-13
9.43906e-14
7.52393e-14
5.92451e-14
4.60612e-14
3.52365e-14
2.67017e-14
2.00751e-14
1.45586e-14
1.043e-14
7.34218e-15
5.39929e-15
3.76865e-15
9.28203e-13
9.19356e-13
9.01974e-13
8.76543e-13
8.43375e-13
8.03719e-13
7.58686e-13
7.09419e-13
6.56823e-13
6.02387e-13
5.47015e-13
4.9192e-13
4.37901e-13
3.85789e-13
3.36593e-13
2.90796e-13
2.4885e-13
2.10825e-13
1.76721e-13
1.46328e-13
1.20099e-13
9.72702e-14
7.81883e-14
6.20554e-14
4.8698e-14
3.78733e-14
2.92344e-14
2.22261e-14
1.67097e-14
1.23035e-14
8.86874e-15
6.33604e-15
4.25437e-15
3.00537e-15
7.40159e-13
7.3315e-13
7.18995e-13
6.98387e-13
6.71949e-13
6.40239e-13
6.04365e-13
5.64674e-13
5.22382e-13
4.78632e-13
4.34605e-13
3.90439e-13
3.47383e-13
3.062e-13
2.66926e-13
2.3067e-13
1.97052e-13
1.66729e-13
1.39459e-13
1.1545e-13
9.48416e-14
7.72862e-14
6.20554e-14
4.92531e-14
3.88795e-14
3.0414e-14
2.34057e-14
1.77505e-14
1.32402e-14
9.90957e-15
7.02993e-15
4.87888e-15
3.28293e-15
2.13801e-15
5.55203e-13
5.49998e-13
5.39451e-13
5.23943e-13
5.0382e-13
4.79811e-13
4.52438e-13
4.2267e-13
3.9089e-13
3.58173e-13
3.25109e-13
2.91976e-13
2.59814e-13
2.28589e-13
1.9948e-13
1.72141e-13
1.47057e-13
1.24263e-13
1.04036e-13
8.61333e-14
7.06943e-14
5.75451e-14
4.62694e-14
3.66243e-14
2.86793e-14
2.22261e-14
1.67444e-14
1.2477e-14
9.28507e-15
6.6136e-15
4.80949e-15
3.10946e-15
2.27679e-15
1.5829e-15
3.88981e-13
3.85096e-13
3.77532e-13
3.66673e-13
3.52587e-13
3.35899e-13
3.16852e-13
2.95931e-13
2.73483e-13
2.50377e-13
2.26715e-13
2.03574e-13
1.80884e-13
1.59026e-13
1.38661e-13
1.1944e-13
1.01642e-13
8.58905e-14
7.19086e-14
5.97308e-14
4.89409e-14
3.95387e-14
3.15242e-14
2.46547e-14
1.93465e-14
1.46627e-14
1.0881e-14
7.93199e-15
5.78093e-15
4.04621e-15
2.8666e-15
1.96454e-15
1.09718e-15
6.4615e-16
2.52528e-13
2.5003e-13
2.45207e-13
2.38303e-13
2.29421e-13
2.18701e-13
2.05968e-13
1.92402e-13
1.779e-13
1.62531e-13
1.47092e-13
1.31895e-13
1.16838e-13
1.0244e-13
8.89783e-14
7.6627e-14
6.51085e-14
5.50124e-14
4.59918e-14
3.7908e-14
3.10038e-14
2.4967e-14
1.97975e-14
1.52525e-14
1.18178e-14
9.04221e-15
6.64829e-15
4.53193e-15
2.93598e-15
1.96454e-15
1.13187e-15
8.19622e-16
5.07372e-16
4.37983e-16
1.5233e-13
1.50839e-13
1.47647e-13
1.43414e-13
1.38071e-13
1.31514e-13
1.23846e-13
1.15415e-13
1.06534e-13
9.72702e-14
8.7868e-14
7.8674e-14
6.948e-14
6.09104e-14
5.28266e-14
4.52285e-14
3.82896e-14
3.201e-14
2.6667e-14
2.18098e-14
1.76117e-14
1.42811e-14
1.14708e-14
8.66057e-15
6.71768e-15
5.08704e-15
3.66457e-15
2.41557e-15
1.96454e-15
1.13187e-15
6.80844e-16
5.76761e-16
3.68594e-16
9.10383e-17
8.55435e-14
8.46762e-14
8.30108e-14
8.06863e-14
7.75638e-14
7.38515e-14
6.93412e-14
6.45534e-14
5.93839e-14
5.40409e-14
4.86633e-14
4.36673e-14
3.86713e-14
3.36406e-14
2.93385e-14
2.4967e-14
2.11159e-14
1.77158e-14
1.49056e-14
1.23382e-14
1.01177e-14
8.03607e-15
6.23196e-15
4.63601e-15
3.62987e-15
2.58904e-15
1.92985e-15
1.13187e-15
7.50233e-16
3.339e-16
2.29816e-16
-8.24341e-17
-4.77396e-17
-1.30451e-17
4.58183e-14
4.5402e-14
4.44306e-14
4.31469e-14
4.15162e-14
3.9504e-14
3.70406e-14
3.45426e-14
3.17671e-14
2.91303e-14
2.63201e-14
2.35792e-14
2.05955e-14
1.78546e-14
1.52525e-14
1.29974e-14
1.0881e-14
9.31977e-15
7.75852e-15
6.30135e-15
5.01765e-15
3.97682e-15
2.93598e-15
1.89515e-15
1.40943e-15
9.23706e-16
6.11455e-16
-4.77396e-17
-2.90601e-16
-3.5999e-16
-1.17129e-16
-1.30451e-17
-8.24341e-17
-1.30451e-17
2.88181e-14
2.85405e-14
2.78466e-14
2.70139e-14
2.59384e-14
2.44813e-14
2.28159e-14
2.09771e-14
1.92771e-14
1.76117e-14
1.57382e-14
1.40035e-14
1.23382e-14
1.07769e-14
9.35446e-15
7.96668e-15
6.6136e-15
5.64215e-15
4.87888e-15
4.15029e-15
3.42171e-15
2.69312e-15
1.99923e-15
1.20126e-15
8.54317e-16
4.37983e-16
2.99205e-16
-1.51823e-16
2.16493e-17
9.10383e-17
-1.30451e-17
-1.30451e-17
-4.77396e-17
-1.30451e-17
9.45017e-12
9.36173e-12
9.18715e-12
8.93138e-12
8.60134e-12
8.20571e-12
7.75479e-12
7.25956e-12
6.73182e-12
6.18355e-12
5.62601e-12
5.07024e-12
4.52553e-12
4.00064e-12
3.50243e-12
3.03659e-12
2.60689e-12
2.21568e-12
1.86464e-12
1.55333e-12
1.28111e-12
1.04578e-12
8.44763e-13
6.7528e-13
5.34074e-13
4.18159e-13
3.2379e-13
2.47948e-13
1.87823e-13
1.40569e-13
1.03862e-13
7.57597e-14
5.45614e-14
3.86713e-14
9.28385e-12
9.19683e-12
9.02537e-12
8.77394e-12
8.44944e-12
8.06048e-12
7.61716e-12
7.13032e-12
6.61164e-12
6.0727e-12
5.52487e-12
4.97833e-12
4.4431e-12
3.92716e-12
3.43758e-12
2.97996e-12
2.55798e-12
2.17387e-12
1.82925e-12
1.52373e-12
1.25627e-12
1.02524e-12
8.28075e-13
6.61957e-13
5.23492e-13
4.09555e-13
3.1706e-13
2.42571e-13
1.83417e-13
1.37238e-13
1.01642e-13
7.40596e-14
5.33817e-14
3.78386e-14
8.94072e-12
8.85676e-12
8.69126e-12
8.44875e-12
8.13587e-12
7.76079e-12
7.33318e-12
6.86398e-12
6.3641e-12
5.84427e-12
5.31605e-12
4.78956e-12
4.27393e-12
3.77697e-12
3.3055e-12
2.86495e-12
2.45861e-12
2.08908e-12
1.75744e-12
1.46375e-12
1.20666e-12
9.84616e-13
7.94698e-13
6.3493e-13
5.02085e-13
3.92624e-13
3.03806e-13
2.32197e-13
1.75576e-13
1.3141e-13
9.70274e-14
7.08678e-14
5.10225e-14
3.62427e-14
8.40549e-12
8.32642e-12
8.17036e-12
7.94207e-12
7.64717e-12
7.29391e-12
6.89118e-12
6.44899e-12
5.97816e-12
5.48896e-12
4.99176e-12
4.49618e-12
4.01129e-12
3.54396e-12
3.10084e-12
2.68673e-12
2.30502e-12
1.95828e-12
1.64707e-12
1.37132e-12
1.1303e-12
9.21992e-13
7.44149e-13
5.94581e-13
4.69819e-13
3.67193e-13
2.841e-13
2.17105e-13
1.643e-13
1.22875e-13
9.05742e-14
6.58371e-14
4.74143e-14
3.32936e-14
7.66823e-12
7.59575e-12
7.4533e-12
7.24454e-12
6.97472e-12
6.65168e-12
6.28347e-12
5.87917e-12
5.44861e-12
5.00172e-12
4.54729e-12
4.09484e-12
3.65189e-12
3.22539e-12
2.8212e-12
2.44348e-12
2.0956e-12
1.77964e-12
1.49591e-12
1.24493e-12
1.02559e-12
8.36124e-13
6.74725e-13
5.38688e-13
4.25515e-13
3.32395e-13
2.56865e-13
1.96358e-13
1.48236e-13
1.10662e-13
8.15537e-14
5.93145e-14
4.25918e-14
3.0414e-14
6.74102e-12
6.67735e-12
6.55162e-12
6.36722e-12
6.12963e-12
5.84493e-12
5.52047e-12
5.16405e-12
4.78474e-12
4.39085e-12
3.99082e-12
3.5925e-12
3.2027e-12
2.82748e-12
2.47204e-12
2.14032e-12
1.83449e-12
1.55687e-12
1.30811e-12
1.08818e-12
8.95729e-13
7.29646e-13
5.88475e-13
4.69438e-13
3.70559e-13
2.89547e-13
2.23697e-13
1.70961e-13
1.28842e-13
9.59866e-14
7.05555e-14
5.10919e-14
3.68325e-14
2.60772e-14
5.66459e-12
5.61092e-12
5.50499e-12
5.34942e-12
5.14899e-12
4.90877e-12
4.6352e-12
4.33523e-12
4.01563e-12
3.68405e-12
3.34745e-12
3.0123e-12
2.68454e-12
2.36906e-12
2.07038e-12
1.79157e-12
1.53487e-12
1.30193e-12
1.09324e-12
9.08635e-13
7.47306e-13
6.08389e-13
4.90185e-13
3.90681e-13
3.08109e-13
2.4042e-13
1.85637e-13
1.41679e-13
1.06846e-13
7.95067e-14
5.85859e-14
4.23142e-14
3.03099e-14
2.14628e-14
4.51388e-12
4.47106e-12
4.3862e-12
4.26189e-12
4.1015e-12
3.90939e-12
3.69054e-12
3.45077e-12
3.19542e-12
2.93056e-12
2.66164e-12
2.39408e-12
2.13262e-12
1.88109e-12
1.64301e-12
1.42083e-12
1.21658e-12
1.03125e-12
8.6551e-13
7.18856e-13
5.90973e-13
4.80887e-13
3.87316e-13
3.08629e-13
2.4316e-13
1.89488e-13
1.46155e-13
1.11426e-13
8.41557e-14
6.26105e-14
4.59571e-14
3.31202e-14
2.35098e-14
1.66056e-14
3.38464e-12
3.35237e-12
3.28868e-12
3.19497e-12
3.07426e-12
2.92973e-12
2.76503e-12
2.58431e-12
2.39221e-12
2.19295e-12
1.99076e-12
1.78974e-12
1.59326e-12
1.40445e-12
1.22578e-12
1.05963e-12
9.06553e-13
7.67776e-13
6.43778e-13
5.34386e-13
4.38976e-13
3.56854e-13
2.87049e-13
2.28311e-13
1.79566e-13
1.3991e-13
1.07609e-13
8.17965e-14
6.15349e-14
4.56102e-14
3.34671e-14
2.42037e-14
1.73342e-14
1.22341e-14
2.37184e-12
2.34894e-12
2.30391e-12
2.23813e-12
2.15302e-12
2.05126e-12
1.93552e-12
1.80851e-12
1.67334e-12
1.53324e-12
1.39117e-12
1.25006e-12
1.11201e-12
9.79308e-13
8.53957e-13
7.36932e-13
6.29518e-13
5.32686e-13
4.46227e-13
3.69899e-13
3.03494e-13
2.46422e-13
1.98092e-13
1.57188e-13
1.23465e-13
9.58478e-14
7.34698e-14
5.55328e-14
4.14468e-14
3.0414e-14
2.20179e-14
1.59811e-14
1.1332e-14
8.07077e-15
1.5449e-12
1.52984e-12
1.50014e-12
1.45677e-12
1.4013e-12
1.33472e-12
1.25867e-12
1.17557e-12
1.08717e-12
9.95337e-13
9.0239e-13
8.10103e-13
7.19724e-13
6.33161e-13
5.51525e-13
4.7544e-13
4.05843e-13
3.43046e-13
2.86841e-13
2.37297e-13
1.94276e-13
1.57569e-13
1.2624e-13
9.98376e-14
7.82924e-14
6.06329e-14
4.61653e-14
3.47161e-14
2.57996e-14
1.88261e-14
1.36913e-14
9.84018e-15
6.99524e-15
4.84418e-15
9.31187e-13
9.22027e-13
9.03951e-13
8.77653e-13
8.43861e-13
8.03303e-13
7.57437e-13
7.06887e-13
6.53284e-13
5.97634e-13
5.41568e-13
4.8564e-13
4.31031e-13
3.78816e-13
3.29272e-13
2.83441e-13
2.41495e-13
2.03678e-13
1.70094e-13
1.40326e-13
1.14687e-13
9.25518e-14
7.38168e-14
5.83431e-14
4.54367e-14
3.47161e-14
2.63894e-14
1.98669e-14
1.46627e-14
1.06729e-14
7.8626e-15
5.57276e-15
3.90743e-15
2.8319e-15
5.21341e-13
5.16345e-13
5.0611e-13
4.91399e-13
4.72352e-13
4.49246e-13
4.23225e-13
3.94359e-13
3.64105e-13
3.32811e-13
3.01066e-13
2.69667e-13
2.39136e-13
2.09715e-13
1.82272e-13
1.56667e-13
1.33179e-13
1.12258e-13
9.35579e-14
7.71475e-14
6.29574e-14
5.08144e-14
4.04754e-14
3.15242e-14
2.45506e-14
1.86526e-14
1.37954e-14
1.02218e-14
7.75852e-15
5.50338e-15
4.1156e-15
2.8319e-15
1.65229e-15
1.02779e-15
2.81082e-13
2.78375e-13
2.73171e-13
2.65053e-13
2.54679e-13
2.42154e-13
2.27791e-13
2.12109e-13
1.95629e-13
1.7849e-13
1.61282e-13
1.44351e-13
1.27697e-13
1.11668e-13
9.68539e-14
8.28373e-14
7.02086e-14
5.92104e-14
4.93919e-14
4.05795e-14
3.28079e-14
2.63548e-14
2.08036e-14
1.60852e-14
1.25117e-14
9.45855e-15
6.92585e-15
4.91357e-15
3.4911e-15
2.51965e-15
1.79107e-15
1.27065e-15
7.50233e-16
5.76761e-16
1.73078e-13
1.71447e-13
1.68151e-13
1.63155e-13
1.56598e-13
1.48583e-13
1.39563e-13
1.29918e-13
1.19752e-13
1.0924e-13
9.8658e-14
8.80068e-14
7.77373e-14
6.80922e-14
5.87594e-14
5.03633e-14
4.26958e-14
3.60345e-14
2.99283e-14
2.462e-14
1.98669e-14
1.60852e-14
1.28239e-14
9.7708e-15
7.61974e-15
5.81563e-15
4.32376e-15
3.24824e-15
2.27679e-15
1.61759e-15
7.84928e-16
2.29816e-16
5.63438e-17
5.63438e-17
6.5451e-11
6.48402e-11
6.36357e-11
6.18703e-11
5.95919e-11
5.68613e-11
5.37482e-11
5.033e-11
4.66872e-11
4.29012e-11
3.90512e-11
3.52116e-11
3.14492e-11
2.78219e-11
2.43784e-11
2.11563e-11
1.81833e-11
1.54767e-11
1.30441e-11
1.08855e-11
8.99397e-12
7.35639e-12
5.95578e-12
4.77242e-12
3.78425e-12
2.96924e-12
2.30471e-12
1.76937e-12
1.34325e-12
1.00817e-12
7.4793e-13
5.48125e-13
3.96857e-13
2.83788e-13
6.42902e-11
6.36899e-11
6.25059e-11
6.07708e-11
5.85316e-11
5.58481e-11
5.27886e-11
4.9429e-11
4.58489e-11
4.21284e-11
3.83454e-11
3.45726e-11
3.08759e-11
2.73125e-11
2.39298e-11
2.07649e-11
1.7845e-11
1.51871e-11
1.27987e-11
1.06793e-11
8.82217e-12
7.21477e-12
5.84028e-12
4.67947e-12
3.71025e-12
2.9104e-12
2.25867e-12
1.73363e-12
1.31567e-12
9.87565e-13
7.32595e-13
5.36884e-13
3.886e-13
2.77994e-13
6.18973e-11
6.13186e-11
6.01771e-11
5.85044e-11
5.6346e-11
5.37592e-11
5.08098e-11
4.75721e-11
4.41219e-11
4.05368e-11
3.68921e-11
3.32576e-11
2.96969e-11
2.6265e-11
2.30079e-11
1.99615e-11
1.71512e-11
1.45935e-11
1.22955e-11
1.02571e-11
8.47147e-12
6.9266e-12
5.60585e-12
4.49039e-12
3.55912e-12
2.79119e-12
2.16541e-12
1.66126e-12
1.26051e-12
9.4555e-13
7.0137e-13
5.14124e-13
3.72259e-13
2.66198e-13
5.81691e-11
5.76243e-11
5.65496e-11
5.49745e-11
5.2942e-11
5.05061e-11
4.77299e-11
4.46824e-11
4.14354e-11
3.80622e-11
3.46335e-11
3.1215e-11
2.78668e-11
2.46406e-11
2.15795e-11
1.8717e-11
1.60771e-11
1.36755e-11
1.15183e-11
9.60595e-12
7.93139e-12
6.48265e-12
5.24475e-12
4.19947e-12
3.32729e-12
2.60804e-12
2.02236e-12
1.55121e-12
1.1763e-12
8.81747e-13
6.53492e-13
4.78667e-13
3.46307e-13
2.4715e-13
5.3048e-11
5.25497e-11
5.15669e-11
5.01269e-11
4.82692e-11
4.60427e-11
4.35054e-11
4.07207e-11
3.77545e-11
3.46733e-11
3.15423e-11
2.84216e-11
2.53659e-11
2.24225e-11
1.96308e-11
1.70212e-11
1.46154e-11
1.24275e-11
1.04631e-11
8.72207e-12
7.19836e-12
5.88073e-12
4.75535e-12
3.80562e-12
3.01369e-12
2.36129e-12
1.82981e-12
1.40258e-12
1.06299e-12
7.96503e-13
5.89758e-13
4.31343e-13
3.11647e-13
2.22413e-13
4.66152e-11
4.6176e-11
4.53102e-11
4.40413e-11
4.24044e-11
4.0443e-11
3.82083e-11
3.57555e-11
3.31438e-11
3.04315e-11
2.7676e-11
2.49307e-11
2.22433e-11
1.96553e-11
1.72015e-11
1.49087e-11
1.27959e-11
1.08755e-11
9.15204e-12
7.62531e-12
6.28968e-12
5.1355e-12
4.15028e-12
3.31921e-12
2.62674e-12
2.05688e-12
1.59312e-12
1.22036e-12
9.24039e-13
6.91587e-13
5.11349e-13
3.73681e-13
2.6932e-13
1.91709e-13
3.91628e-11
3.87928e-11
3.80633e-11
3.6994e-11
3.56149e-11
3.3963e-11
3.20805e-11
3.0015e-11
2.78161e-11
2.55331e-11
2.32143e-11
2.09047e-11
1.86443e-11
1.64687e-11
1.44068e-11
1.24807e-11
1.07068e-11
9.09469e-12
7.64922e-12
6.36906e-12
5.24988e-12
4.28364e-12
3.45899e-12
2.76423e-12
2.18602e-12
1.7099e-12
1.32296e-12
1.0123e-12
7.66006e-13
5.72689e-13
4.23051e-13
3.0849e-13
2.22205e-13
1.58228e-13
3.12079e-11
3.09122e-11
3.03289e-11
2.94742e-11
2.83716e-11
2.70512e-11
2.5547e-11
2.38966e-11
2.214e-11
2.03166e-11
1.84655e-11
1.6622e-11
1.48183e-11
1.30831e-11
1.14393e-11
9.90446e-12
8.49139e-12
7.20846e-12
6.05865e-12
5.04148e-12
4.15257e-12
3.38565e-12
2.73179e-12
2.18095e-12
1.72264e-12
1.34599e-12
1.0402e-12
7.95254e-13
6.00791e-13
4.48274e-13
3.30729e-13
2.41183e-13
1.73737e-13
1.23222e-13
2.34112e-11
2.31886e-11
2.27492e-11
2.21058e-11
2.12756e-11
2.02813e-11
1.91488e-11
1.79069e-11
1.65853e-11
1.52137e-11
1.38213e-11
1.24355e-11
1.10804e-11
9.7771e-12
8.54308e-12
7.39164e-12
6.3326e-12
5.37166e-12
4.51086e-12
3.7498e-12
3.08575e-12
2.51308e-12
2.02542e-12
1.61526e-12
1.27421e-12
9.94261e-13
7.67325e-13
5.85664e-13
4.41578e-13
3.29099e-13
2.42224e-13
1.76235e-13
1.26587e-13
8.97069e-14
1.64212e-11
1.62642e-11
1.59545e-11
1.55009e-11
1.49156e-11
1.42147e-11
1.34167e-11
1.25418e-11
1.16111e-11
1.06457e-11
9.66625e-12
8.69192e-12
7.73966e-12
6.82429e-12
5.95789e-12
5.15024e-12
4.40809e-12
3.73526e-12
3.13314e-12
2.60134e-12
2.13762e-12
1.73839e-12
1.39915e-12
1.11403e-12
8.77237e-13
6.83225e-13
5.26129e-13
4.00639e-13
3.01517e-13
2.24252e-13
1.64543e-13
1.19579e-13
8.54741e-14
6.03206e-14
1.07062e-11
1.06032e-11
1.03999e-11
1.0102e-11
9.71773e-12
9.25776e-12
8.73446e-12
8.16089e-12
7.551e-12
6.91855e-12
6.27743e-12
5.64013e-12
5.01792e-12
4.42013e-12
3.85489e-12
3.32837e-12
2.84514e-12
2.40754e-12
2.01657e-12
1.67177e-12
1.37184e-12
1.11371e-12
8.94306e-13
7.10322e-13
5.58152e-13
4.33772e-13
3.33401e-13
2.53048e-13
1.90009e-13
1.40812e-13
1.03134e-13
7.4476e-14
5.31389e-14
3.73529e-14
6.4602e-12
6.39723e-12
6.27351e-12
6.09216e-12
5.85839e-12
5.57882e-12
5.26061e-12
4.91203e-12
4.54149e-12
4.15781e-12
3.76909e-12
3.38298e-12
3.00619e-12
2.64485e-12
2.30353e-12
1.98607e-12
1.69485e-12
1.43165e-12
1.19688e-12
9.90237e-13
8.10658e-13
6.56823e-13
5.26233e-13
4.17014e-13
3.27052e-13
2.53361e-13
1.93964e-13
1.46814e-13
1.09968e-13
8.11026e-14
5.92451e-14
4.27305e-14
3.01711e-14
2.10812e-14
3.61702e-12
3.58153e-12
3.51131e-12
3.40861e-12
3.27626e-12
3.11798e-12
2.93802e-12
2.7413e-12
2.53223e-12
2.31557e-12
2.09657e-12
1.87953e-12
1.66782e-12
1.46503e-12
1.27393e-12
1.09647e-12
9.33927e-13
7.87274e-13
6.56719e-13
5.41984e-13
4.4255e-13
3.57583e-13
2.85904e-13
2.26091e-13
1.76582e-13
1.36197e-13
1.03723e-13
7.83618e-14
5.83084e-14
4.30428e-14
3.13161e-14
2.24343e-14
1.55995e-14
1.08116e-14
1.94628e-12
1.92699e-12
1.88875e-12
1.83293e-12
1.76101e-12
1.67479e-12
1.57671e-12
1.46971e-12
1.35581e-12
1.23823e-12
1.11961e-12
1.0021e-12
8.88061e-13
7.78566e-13
6.75454e-13
5.80044e-13
4.92995e-13
4.1469e-13
3.45128e-13
2.83892e-13
2.30983e-13
1.85949e-13
1.48271e-13
1.16803e-13
9.11293e-14
7.01739e-14
5.34164e-14
4.01285e-14
2.9963e-14
2.19832e-14
1.57729e-14
1.10198e-14
7.55035e-15
5.3299e-15
1.19351e-12
1.18119e-12
1.15743e-12
1.12249e-12
1.0777e-12
1.02434e-12
9.63799e-13
8.97394e-13
8.27381e-13
7.54557e-13
6.81039e-13
6.08528e-13
5.38202e-13
4.70999e-13
4.07925e-13
3.49499e-13
2.96451e-13
2.48712e-13
2.06627e-13
1.69678e-13
1.37446e-13
1.10489e-13
8.78334e-14
6.91677e-14
5.37287e-14
4.0857e-14
3.08303e-14
2.32322e-14
1.71607e-14
1.25117e-14
8.83404e-15
6.02379e-15
4.15029e-15
2.69312e-15
4.53705e-10
4.49483e-10
4.41158e-10
4.28957e-10
4.13214e-10
3.94344e-10
3.72833e-10
3.49214e-10
3.24044e-10
2.97884e-10
2.7128e-10
2.44743e-10
2.18733e-10
1.93652e-10
1.69832e-10
1.47533e-10
1.26944e-10
1.08185e-10
9.13106e-11
7.63217e-11
6.31699e-11
5.17682e-11
4.20013e-11
3.3733e-11
2.68151e-11
2.10948e-11
1.64197e-11
1.26431e-11
9.62881e-12
7.25099e-12
5.39803e-12
3.97181e-12
2.88723e-12
2.07281e-12
4.45608e-10
4.4146e-10
4.33279e-10
4.2129e-10
4.05819e-10
3.87276e-10
3.66138e-10
3.42929e-10
3.18197e-10
2.92494e-10
2.66355e-10
2.40284e-10
2.14733e-10
1.90096e-10
1.66699e-10
1.44798e-10
1.24579e-10
1.06159e-10
8.95915e-11
7.48765e-11
6.19664e-11
5.07756e-11
4.11906e-11
3.30776e-11
2.62905e-11
2.0679e-11
1.60934e-11
1.23901e-11
9.43459e-12
7.10344e-12
5.28739e-12
3.88948e-12
2.82686e-12
2.02927e-12
4.28922e-10
4.24924e-10
4.17041e-10
4.05489e-10
3.90581e-10
3.72713e-10
3.52345e-10
3.29983e-10
3.06155e-10
2.81394e-10
2.56217e-10
2.31108e-10
2.06504e-10
1.82783e-10
1.60261e-10
1.39183e-10
1.19726e-10
1.02004e-10
8.60679e-11
7.19167e-11
5.95042e-11
4.87473e-11
3.95359e-11
3.17411e-11
2.52215e-11
1.98328e-11
1.54303e-11
1.18761e-11
9.03998e-12
6.8042e-12
5.06299e-12
3.72315e-12
2.70501e-12
1.94132e-12
4.02955e-10
3.99193e-10
3.91773e-10
3.80901e-10
3.66871e-10
3.50058e-10
3.30894e-10
3.09855e-10
2.87441e-10
2.64152e-10
2.40477e-10
2.1687e-10
1.93743e-10
1.71451e-10
1.50291e-10
1.30492e-10
1.12221e-10
9.55843e-11
8.06283e-11
6.73514e-11
5.57096e-11
4.5624e-11
3.69903e-11
2.96868e-11
2.35806e-11
1.85354e-11
1.44151e-11
1.10896e-11
8.43706e-12
6.34706e-12
4.72e-12
3.46881e-12
2.51867e-12
1.80656e-12
3.67338e-10
3.639e-10
3.57121e-10
3.47188e-10
3.34371e-10
3.19012e-10
3.01509e-10
2.82297e-10
2.61832e-10
2.40572e-10
2.18964e-10
1.97424e-10
1.76327e-10
1.55997e-10
1.36705e-10
1.18659e-10
1.02013e-10
8.68591e-11
7.32419e-11
6.11582e-11
5.05667e-11
4.1395e-11
3.35471e-11
2.6911e-11
2.13655e-11
1.67856e-11
1.3047e-11
1.00315e-11
7.62784e-12
5.73453e-12
4.26151e-12
3.1295e-12
2.27036e-12
1.62691e-12
3.22684e-10
3.19657e-10
3.13687e-10
3.0494e-10
2.93656e-10
2.80135e-10
2.64727e-10
2.47818e-10
2.29809e-10
2.11105e-10
1.92098e-10
1.73155e-10
1.54607e-10
1.36739e-10
1.19788e-10
1.03938e-10
8.93223e-11
7.60225e-11
6.40764e-11
5.348e-11
4.41964e-11
3.61612e-11
2.92894e-11
2.34818e-11
1.86313e-11
1.46279e-11
1.13623e-11
8.72967e-12
6.63267e-12
4.98225e-12
3.69911e-12
2.714e-12
1.96692e-12
1.40768e-12
2.71058e-10
2.68509e-10
2.63482e-10
2.56118e-10
2.46617e-10
2.35233e-10
2.22263e-10
2.0803e-10
1.92873e-10
1.77134e-10
1.61144e-10
1.45211e-10
1.29615e-10
1.14595e-10
1.0035e-10
8.70356e-11
7.47625e-11
6.35994e-11
5.35773e-11
4.46918e-11
3.69113e-11
3.0181e-11
2.44285e-11
1.95702e-11
1.55156e-11
1.21716e-11
9.44615e-12
7.25075e-12
5.50333e-12
4.1297e-12
3.06275e-12
2.24441e-12
1.62466e-12
1.16128e-12
2.16036e-10
2.14e-10
2.09983e-10
2.04099e-10
1.96507e-10
1.87412e-10
1.77051e-10
1.65681e-10
1.53575e-10
1.41007e-10
1.2824e-10
1.15521e-10
1.03075e-10
9.10921e-11
7.97317e-11
6.91178e-11
5.93385e-11
5.04483e-11
4.24707e-11
3.54022e-11
2.92169e-11
2.38701e-11
1.93035e-11
1.545e-11
1.22369e-11
9.58916e-12
7.43293e-12
5.69835e-12
4.31945e-12
3.23667e-12
2.39689e-12
1.75386e-12
1.26741e-12
9.04229e-13
1.62175e-10
1.6064e-10
1.57615e-10
1.53182e-10
1.47465e-10
1.40616e-10
1.32814e-10
1.24254e-10
1.15142e-10
1.05684e-10
9.60785e-11
8.6513e-11
7.7155e-11
6.81492e-11
5.96151e-11
5.16458e-11
4.43071e-11
3.76397e-11
3.1661e-11
2.63674e-11
2.17393e-11
1.77421e-11
1.43316e-11
1.14566e-11
9.0619e-12
7.09109e-12
5.48848e-12
4.20079e-12
3.17897e-12
2.37781e-12
1.75744e-12
1.2833e-12
9.25288e-13
6.58627e-13
1.139e-10
1.12817e-10
1.10681e-10
1.07553e-10
1.03518e-10
9.86854e-11
9.31819e-11
8.71461e-11
8.07226e-11
7.40576e-11
6.72921e-11
6.05574e-11
5.39722e-11
4.76382e-11
4.16399e-11
3.60424e-11
3.08916e-11
2.62162e-11
2.20274e-11
1.83227e-11
1.50867e-11
1.22956e-11
9.91723e-12
7.91498e-12
6.24968e-12
4.88129e-12
3.77089e-12
2.88022e-12
2.1745e-12
1.62279e-12
1.19653e-12
8.71408e-13
6.26638e-13
4.44944e-13
7.4387e-11
7.36747e-11
7.22702e-11
7.02127e-11
6.75599e-11
6.43837e-11
6.07677e-11
5.68035e-11
5.25869e-11
4.82144e-11
4.37782e-11
3.93654e-11
3.50538e-11
3.09101e-11
2.69894e-11
2.33342e-11
1.99743e-11
1.69282e-11
1.42024e-11
1.17949e-11
9.69522e-12
7.88718e-12
6.34904e-12
5.05678e-12
3.98402e-12
3.10462e-12
2.39224e-12
1.82242e-12
1.37219e-12
1.02098e-12
7.50532e-13
5.44968e-13
3.90543e-13
2.76467e-13
4.49597e-11
4.45249e-11
4.36678e-11
4.24129e-11
4.07953e-11
3.88593e-11
3.66564e-11
3.42427e-11
3.16771e-11
2.90184e-11
2.63235e-11
2.36449e-11
2.10304e-11
1.85204e-11
1.61486e-11
1.39404e-11
1.19138e-11
1.0079e-11
8.44001e-12
6.99505e-12
5.73738e-12
4.65671e-12
3.73957e-12
2.97053e-12
2.33402e-12
1.81336e-12
1.3928e-12
1.05772e-12
7.93762e-13
5.88544e-13
4.31031e-13
3.11578e-13
2.22552e-13
1.57014e-13
2.51875e-11
2.49408e-11
2.44547e-11
2.3743e-11
2.28264e-11
2.17301e-11
2.04835e-11
1.91187e-11
1.76689e-11
1.61681e-11
1.46487e-11
1.31403e-11
1.16695e-11
1.02601e-11
8.93041e-12
7.69446e-12
6.5622e-12
5.53903e-12
4.62726e-12
3.82543e-12
3.12925e-12
2.53279e-12
2.02771e-12
1.60572e-12
1.25749e-12
9.73618e-13
7.44981e-13
5.63564e-13
4.21317e-13
3.11196e-13
2.26854e-13
1.63363e-13
1.15901e-13
8.1172e-14
1.35341e-11
1.33995e-11
1.31343e-11
1.27467e-11
1.2247e-11
1.16497e-11
1.09714e-11
1.02292e-11
9.44198e-12
8.62788e-12
7.80479e-12
6.98915e-12
6.19552e-12
5.43592e-12
4.72107e-12
4.05813e-12
3.45223e-12
2.9061e-12
2.42072e-12
1.99495e-12
1.6265e-12
1.31192e-12
1.04651e-12
8.25715e-13
6.4402e-13
4.96465e-13
3.78434e-13
2.85002e-13
2.12282e-13
1.55939e-13
1.13056e-13
8.10332e-14
5.71981e-14
3.9608e-14
8.26452e-12
8.18129e-12
8.01673e-12
7.77623e-12
7.46672e-12
7.09723e-12
6.67763e-12
6.21918e-12
5.73311e-12
5.23132e-12
4.72458e-12
4.22341e-12
3.73669e-12
3.27192e-12
2.83515e-12
2.43099e-12
2.06292e-12
1.73211e-12
1.43863e-12
1.18196e-12
9.60503e-13
7.72216e-13
6.13836e-13
4.82275e-13
3.74653e-13
2.875e-13
2.18146e-13
1.63814e-13
1.21071e-13
8.85966e-14
6.39983e-14
4.54367e-14
3.18018e-14
2.21567e-14
3.14188e-09
3.11273e-09
3.05522e-09
2.97097e-09
2.86225e-09
2.73195e-09
2.58344e-09
2.42038e-09
2.24662e-09
2.06602e-09
1.88235e-09
1.69912e-09
1.5195e-09
1.34625e-09
1.18165e-09
1.0275e-09
8.85086e-10
7.5524e-10
6.38344e-10
5.34403e-10
4.4309e-10
3.63822e-10
2.9581e-10
2.38131e-10
1.89775e-10
1.49697e-10
1.16861e-10
9.02641e-11
6.89703e-11
5.21197e-11
3.89427e-11
2.87611e-11
2.09896e-11
1.51314e-11
3.08547e-09
3.05683e-09
3.00033e-09
2.91755e-09
2.81073e-09
2.68271e-09
2.53679e-09
2.37657e-09
2.20585e-09
2.02843e-09
1.84799e-09
1.668e-09
1.49157e-09
1.32141e-09
1.15977e-09
1.00839e-09
8.68556e-10
7.41068e-10
6.26307e-10
5.24272e-10
4.34645e-10
3.56848e-10
2.90106e-10
2.33511e-10
1.86069e-10
1.46754e-10
1.14546e-10
8.84634e-11
6.75833e-11
5.10629e-11
3.81459e-11
2.81671e-11
2.05519e-11
1.48127e-11
2.96925e-09
2.94165e-09
2.88723e-09
2.80749e-09
2.70459e-09
2.58127e-09
2.4407e-09
2.28637e-09
2.12194e-09
1.95106e-09
1.7773e-09
1.604e-09
1.43416e-09
1.27038e-09
1.11482e-09
9.69172e-10
8.34646e-10
7.1202e-10
6.01654e-10
5.03545e-10
4.17382e-10
3.42605e-10
2.78468e-10
2.24092e-10
1.7852e-10
1.40765e-10
1.09842e-10
8.4805e-11
6.47683e-11
4.89201e-11
3.65323e-11
2.69658e-11
1.96677e-11
1.41696e-11
2.7886e-09
2.76265e-09
2.71146e-09
2.63645e-09
2.53967e-09
2.42368e-09
2.29148e-09
2.14635e-09
1.99173e-09
1.83108e-09
1.66775e-09
1.50488e-09
1.34529e-09
1.19143e-09
1.04533e-09
9.08557e-10
7.82267e-10
6.67177e-10
5.6362e-10
4.71588e-10
3.90785e-10
3.20681e-10
2.60569e-10
2.09621e-10
1.66936e-10
1.31583e-10
1.02637e-10
7.92101e-11
6.04687e-11
4.56509e-11
3.40738e-11
2.51371e-11
1.83231e-11
1.31926e-11
2.54122e-09
2.51752e-09
2.47078e-09
2.4023e-09
2.31394e-09
2.20806e-09
2.08739e-09
1.95493e-09
1.81383e-09
1.66725e-09
1.51826e-09
1.36971e-09
1.22419e-09
1.08392e-09
9.50752e-10
8.26129e-10
7.11088e-10
6.06282e-10
5.1201e-10
4.28259e-10
3.54753e-10
2.91004e-10
2.36362e-10
1.90068e-10
1.51297e-10
1.192e-10
9.29313e-11
7.16809e-11
5.46892e-11
4.12621e-11
3.07774e-11
2.26892e-11
1.65263e-11
1.18893e-11
2.23165e-09
2.2108e-09
2.16967e-09
2.10942e-09
2.03167e-09
1.93852e-09
1.83236e-09
1.71584e-09
1.59174e-09
1.46284e-09
1.33185e-09
1.20126e-09
1.07337e-09
9.50121e-10
8.33146e-10
7.23707e-10
6.22715e-10
5.30739e-10
4.48038e-10
3.74595e-10
3.10162e-10
2.54306e-10
2.0645e-10
1.65926e-10
1.32004e-10
1.03936e-10
8.09788e-11
6.24176e-11
4.75859e-11
3.58736e-11
2.67349e-11
1.96906e-11
1.43279e-11
1.02968e-11
1.87445e-09
1.8569e-09
1.8223e-09
1.77159e-09
1.70618e-09
1.62779e-09
1.53847e-09
1.44044e-09
1.33604e-09
1.22761e-09
1.11743e-09
1.00762e-09
9.00091e-10
7.96494e-10
6.98195e-10
6.06257e-10
5.21444e-10
4.4423e-10
3.74831e-10
3.13227e-10
2.59206e-10
2.12398e-10
1.72319e-10
1.38398e-10
1.10022e-10
8.65592e-11
6.73822e-11
5.189e-11
3.95212e-11
2.97627e-11
2.2156e-11
1.62985e-11
1.18442e-11
8.5002e-12
1.49438e-09
1.48036e-09
1.45272e-09
1.41223e-09
1.35998e-09
1.29737e-09
1.22603e-09
1.14773e-09
1.06436e-09
9.77769e-10
8.89791e-10
8.02122e-10
7.16289e-10
6.33616e-10
5.55192e-10
4.81867e-10
4.14248e-10
3.52715e-10
2.97433e-10
2.48387e-10
2.05402e-10
1.6818e-10
1.3633e-10
1.09394e-10
8.68806e-11
6.82809e-11
5.30936e-11
4.08373e-11
3.10629e-11
2.33609e-11
1.7365e-11
1.27541e-11
9.25324e-12
6.62882e-12
1.12276e-09
1.1122e-09
1.09137e-09
1.06086e-09
1.02149e-09
9.7433e-10
9.20593e-10
8.61627e-10
7.98839e-10
7.33644e-10
6.67415e-10
6.01431e-10
5.36846e-10
4.74657e-10
4.15686e-10
3.60571e-10
3.0977e-10
2.63565e-10
2.2208e-10
1.85299e-10
1.53087e-10
1.25217e-10
1.01391e-10
8.12607e-11
6.44534e-11
5.05842e-11
3.92741e-11
3.01597e-11
2.29017e-11
1.71918e-11
1.27542e-11
9.34831e-12
6.76763e-12
4.83726e-12
7.89789e-10
7.82323e-10
7.67603e-10
7.46039e-10
7.18225e-10
6.84908e-10
6.46956e-10
6.05322e-10
5.61003e-10
5.15001e-10
4.68285e-10
4.2176e-10
3.76242e-10
3.32433e-10
2.90914e-10
2.52135e-10
2.16415e-10
1.83952e-10
1.54831e-10
1.29035e-10
1.06468e-10
8.69644e-11
7.0311e-11
5.62605e-11
4.45467e-11
3.48962e-11
2.70399e-11
2.07204e-11
1.56984e-11
1.17563e-11
8.69994e-12
6.35969e-12
4.5909e-12
3.27171e-12
5.16953e-10
5.12031e-10
5.02327e-10
4.88114e-10
4.69787e-10
4.47841e-10
4.22851e-10
3.95449e-10
3.66294e-10
3.36048e-10
3.05351e-10
2.74799e-10
2.44929e-10
2.16204e-10
1.89002e-10
1.63619e-10
1.40263e-10
1.1906e-10
1.00063e-10
8.32576e-11
6.85774e-11
5.59105e-11
4.51134e-11
3.60207e-11
2.84555e-11
2.22365e-11
1.71857e-11
1.31331e-11
9.92132e-12
7.40719e-12
5.46374e-12
3.98062e-12
2.86322e-12
2.03312e-12
3.13204e-10
3.10192e-10
3.04256e-10
2.95563e-10
2.84357e-10
2.70944e-10
2.5568e-10
2.38951e-10
2.21165e-10
2.02726e-10
1.84028e-10
1.65436e-10
1.47277e-10
1.29834e-10
1.13336e-10
9.79614e-11
8.3835e-11
7.10315e-11
5.95797e-11
4.94682e-11
4.06531e-11
3.30635e-11
2.6609e-11
2.11873e-11
1.66887e-11
1.3001e-11
1.00149e-11
7.62698e-12
5.74095e-12
4.26984e-12