/*--------------------------------*- C++ -*----------------------------------*\
| =========                 |                                                 |
| \\      /  F ield         | OpenFOAM: The Open Source CFD Toolbox           |
|  \\    /   O peration     | Version:  2412                                  |
|   \\  /    A nd           | Website:  www.openfoam.com                      |
|    \\/     M anipulation  |                                                 |
\*---------------------------------------------------------------------------*/
FoamFile
{
    version     2.0;
    format      ascii;
    arch        "LSB;label=32;scalar=64";
    class       volScalarField;
    location    "0.0350058";
    object      ionicCurrent;
}
// * * * * * * * * * * * * * * * * * * * * * * * * * * * * * * * * * * * * * //

dimensions      [1 2 -4 0 0 -1 0];

internalField   nonuniform List<scalar> 
8796
(
0.461466
0.458375
0.45246
0.443852
0.432528
0.418725
0.402552
0.384506
0.364668
0.343271
0.321258
0.299264
0.277625
0.256654
0.236253
0.216757
0.198448
0.181225
0.165093
0.149913
0.13558
0.121997
0.109125
0.0970387
0.00127686
0.00110639
0.000953488
0.00081862
0.000701172
0.000599907
0.000512753
0.000437352
0.000371513
0.000313717
0.449864
0.447225
0.441858
0.433493
0.422305
0.408697
0.392924
0.375487
0.356609
0.336402
0.315298
0.293788
0.27234
0.251398
0.231307
0.212383
0.19454
0.177798
0.162004
0.14708
0.132931
0.119513
0.106818
0.0949209
0.00124851
0.00108179
0.000932528
0.000800871
0.000686269
0.000587513
0.000502452
0.000428742
0.000364219
0.000307407
0.429444
0.426653
0.421293
0.413408
0.402876
0.389952
0.374754
0.357867
0.339395
0.319559
0.299286
0.279106
0.259298
0.240127
0.221504
0.203692
0.186874
0.170935
0.155859
0.141553
0.127965
0.115055
0.102852
0.0913086
0.00119426
0.00103444
0.000891767
0.000766384
0.000657408
0.000563386
0.000482177
0.000411521
0.000349509
0.000294956
0.398409
0.395809
0.390797
0.383554
0.373898
0.361991
0.347893
0.332197
0.315062
0.296743
0.278193
0.259896
0.242079
0.224579
0.207587
0.191307
0.175824
0.161018
0.146893
0.133396
0.120513
0.108276
0.0967564
0.00127987
0.00111495
0.000965831
0.000833246
0.000717095
0.000616233
0.000529003
0.000453269
0.000386964
0.000328496
0.000276999
0.360898
0.358388
0.353505
0.346526
0.33768
0.32681
0.314244
0.300125
0.285107
0.2694
0.253276
0.237059
0.221053
0.205449
0.190384
0.175931
0.161985
0.148551
0.13561
0.123093
0.110921
0.0994447
0.0886689
0.00116569
0.00101545
0.000880611
0.000761126
0.000656436
0.000565426
0.000486378
0.000417174
0.000356114
0.000302076
0.000254251
0.316463
0.314304
0.309994
0.30368
0.295736
0.286499
0.275927
0.264034
0.251422
0.23827
0.224735
0.211073
0.197511
0.184178
0.171129
0.15841
0.145988
0.133882
0.122092
0.110578
0.0996733
0.0893893
0.00118199
0.00103528
0.000902283
0.000783519
0.000678776
0.000587033
0.000506887
0.000436615
0.000374539
0.000319448
0.000270466
0.00022729
0.270512
0.268677
0.265077
0.259923
0.253491
0.245708
0.236921
0.227226
0.21682
0.206088
0.195098
0.183941
0.172715
0.161484
0.150294
0.139206
0.12825
0.117478
0.107079
0.097196
0.0871398
0.00115788
0.00101981
0.000893864
0.000780519
0.00067978
0.000590877
0.000512658
0.000443645
0.00038234
0.000327615
0.000278912
0.000235592
0.000197546
0.225958
0.224589
0.221883
0.217943
0.212946
0.206847
0.199887
0.192153
0.18391
0.175256
0.166278
0.157066
0.14769
0.138243
0.128721
0.119095
0.10948
0.100287
0.0914543
0.00122994
0.00109559
0.000970751
0.000856168
0.000752182
0.000658859
0.000575861
0.000502272
0.000436796
0.000378144
0.000325473
0.000278381
0.000236289
0.000199091
0.000166932
0.18528
0.184299
0.182337
0.179425
0.175642
0.171003
0.165663
0.159679
0.153162
0.14614
0.138694
0.130966
0.123138
0.115291
0.107221
0.0989884
0.0911587
0.00123934
0.00111593
0.000999267
0.000890664
0.00079073
0.000699585
0.000617053
0.000542768
0.0004761
0.00041614
0.000361956
0.00031287
0.000268585
0.000229014
0.000193869
0.000163376
0.000137219
0.149875
0.149094
0.147582
0.145343
0.142352
0.138694
0.134476
0.129684
0.12431
0.118554
0.11251
0.1062
0.0996778
0.0930051
0.0861505
0.00118381
0.00107785
0.000975998
0.000879544
0.000789463
0.000706196
0.000629672
0.000559623
0.000495742
0.000437438
0.000384105
0.000335335
0.000290892
0.000250758
0.000214493
0.000182465
0.000154593
0.000130548
0.000109929
0.118357
0.117698
0.11649
0.114825
0.112411
0.109417
0.106172
0.102515
0.0979743
0.0934208
0.0885269
0.00124497
0.00116018
0.00107489
0.000990282
0.000907314
0.000827115
0.000750744
0.000678816
0.000611792
0.000549652
0.000492098
0.000438759
0.000389287
0.00034338
0.000300913
0.000261889
0.00022633
0.000194403
0.000166248
0.000141653
0.000120319
0.000101891
8.59995e-05
0.0912339
0.0911171
0.0900964
0.088576
0.0865567
0.00126129
0.00121819
0.00116942
0.00111549
0.00105753
0.000996737
0.000934313
0.000871262
0.000808448
0.000746422
0.000685877
0.000627557
0.000571872
0.00051912
0.000469318
0.000422428
0.000378345
0.000337018
0.000298366
0.000262368
0.000229064
0.000198706
0.000171575
0.000147581
0.000126511
0.000108099
9.20538e-05
7.80869e-05
6.59331e-05
0.00103133
0.00102536
0.00101347
0.000995948
0.000973154
0.000945401
0.000913117
0.000876838
0.000837265
0.000795015
0.000750795
0.000705336
0.000659327
0.000613372
0.000567948
0.000523484
0.000480334
0.000438644
0.000398614
0.000360346
0.000323888
0.000289212
0.000256719
0.000226403
0.000198413
0.00017304
0.000150281
0.000130036
0.00011213
9.63468e-05
8.24603e-05
7.02539e-05
5.95446e-05
5.01827e-05
0.000803124
0.000798571
0.000789499
0.000776099
0.000758712
0.000737695
0.000713265
0.000685908
0.000656038
0.000624072
0.000590538
0.000556059
0.000520999
0.0004857
0.000450473
0.000415589
0.000381263
0.000347789
0.000315501
0.000284546
0.000254838
0.000226852
0.000200739
0.000176786
0.000155018
0.00013539
0.000117806
0.000102127
8.8185e-05
7.58084e-05
6.48411e-05
5.51533e-05
4.66464e-05
3.92279e-05
0.000692179
0.000688203
0.00068038
0.000669001
0.000654394
0.000636679
0.000616155
0.000593054
0.000567777
0.000540642
0.000512044
0.000482403
0.000452087
0.000421462
0.000390798
0.000360253
0.000330101
0.00030075
0.000272217
0.000244927
0.000218914
0.000194593
0.00017218
0.000151719
0.000133171
0.000116447
0.000101431
8.7986e-05
7.59727e-05
6.52638e-05
5.57493e-05
4.73448e-05
3.99863e-05
3.35974e-05
2.24347
2.24237
2.23311
2.22995
2.22556
2.21279
2.20615
2.19144
2.17574
2.15916
2.14964
2.13335
2.11072
1.83138
1.64522
1.46295
1.29749
1.14887
1.02404
0.919672
0.831414
0.754443
0.682352
0.611172
0.540629
0.471898
0.406462
0.345769
0.291042
0.243656
0.20414
0.172387
0.146839
0.12561
2.23143
2.23057
2.22861
2.22538
2.21367
2.20813
2.19438
2.18729
2.17241
2.15688
2.14095
2.12501
2.10947
1.78474
1.59741
1.42322
1.26165
1.12137
1.00109
0.901388
0.816546
0.741094
0.669782
0.599048
0.529167
0.461388
0.397051
0.337345
0.283726
0.237611
0.199449
0.168855
0.144081
0.123269
2.22319
2.22216
2.21306
2.21013
2.20604
2.19356
2.18723
2.17294
2.15781
2.14192
2.13334
2.11822
1.84955
1.6797
1.50737
1.34272
1.19639
1.06713
0.958853
0.86728
0.787897
0.715873
0.646003
0.576421
0.507833
0.44146
0.378823
0.321388
0.270278
0.226687
0.190832
0.162075
0.138645
0.118786
2.2033
2.19507
2.19322
2.19044
2.18661
2.17451
2.16857
2.15478
2.14028
2.12522
2.11056
1.85348
1.69696
1.53635
1.37838
1.23233
1.10523
0.994006
0.900239
0.819151
0.74641
0.677688
0.609448
0.541682
0.475334
0.411636
0.352094
0.298181
0.250881
0.211129
0.17873
0.152602
0.13095
0.112245
2.17447
2.17324
2.17094
2.16786
2.157
2.1525
2.14001
2.13404
2.12098
2.10799
1.80202
1.65274
1.50286
1.35767
1.22341
1.10564
1.00091
0.910633
0.831362
0.760419
0.693223
0.626824
0.56068
0.49568
0.432943
0.373652
0.318804
0.269614
0.227286
0.192444
0.164201
0.141091
0.12138
0.103875
2.14157
2.14045
2.13829
2.13529
2.12472
2.12133
2.11025
2.10589
1.78326
1.66423
1.53933
1.41237
1.28858
1.17257
1.06755
0.975617
0.893903
0.821422
0.755078
0.691578
0.628377
0.565121
0.502544
0.441533
0.383223
0.329003
0.280093
0.237245
0.20119
0.171844
0.14785
0.127598
0.109761
0.0940412
2.10845
2.10762
2.10609
2.10405
1.79987
1.72781
1.64831
1.55864
1.45879
1.36035
1.26313
1.16845
1.0789
0.996322
0.92163
0.853231
0.790005
0.730225
0.67135
0.611795
0.551855
0.492479
0.434575
0.379102
0.327241
0.280241
0.238797
0.203562
0.174517
0.150675
0.130523
0.112847
0.0968646
0.00123443
1.55324
1.53915
1.51155
1.47291
1.42798
1.37063
1.30825
1.23842
1.16905
1.10008
1.0323
0.967253
0.905826
0.847952
0.792806
0.739278
0.686091
0.632054
0.57711
0.521843
0.467126
0.413787
0.362643
0.314582
0.270655
0.231905
0.198996
0.171779
0.149092
0.129718
0.112632
0.0971285
0.00124381
0.00104025
1.18412
1.17515
1.15758
1.13279
1.1037
1.06719
1.02753
0.983605
0.939575
0.895101
0.850558
0.806355
0.762369
0.717979
0.67228
0.624744
0.575697
0.525703
0.475472
0.425834
0.377816
0.332198
0.289717
0.251084
0.217018
0.187965
0.163634
0.143086
0.12514
0.108981
0.0946546
0.00121139
0.00101725
0.000848051
0.921164
0.916101
0.906151
0.891612
0.873051
0.851516
0.826303
0.798817
0.768935
0.736995
0.703112
0.667108
0.628876
0.588724
0.546912
0.503693
0.459717
0.415808
0.372744
0.331488
0.292777
0.257
0.224607
0.196391
0.172281
0.151541
0.133429
0.117263
0.102789
0.0892997
0.00113965
0.000960853
0.000804991
0.000671929
0.73674
0.73322
0.726314
0.716207
0.703021
0.686869
0.667612
0.645207
0.61975
0.591618
0.561137
0.528592
0.494351
0.458893
0.422592
0.385728
0.349056
0.313448
0.279587
0.248338
0.220123
0.195017
0.17292
0.153657
0.136586
0.121109
0.106855
0.0937157
0.00121534
0.001036
0.000876933
0.000738737
0.000620829
0.000521552
0.579059
0.576261
0.570571
0.561845
0.550162
0.535689
0.518507
0.498698
0.47629
0.451545
0.425081
0.39744
0.369109
0.340476
0.311635
0.283167
0.255851
0.230102
0.206531
0.185267
0.166397
0.149529
0.134257
0.120201
0.107088
0.0948454
0.00124213
0.00106979
0.000915005
0.000778524
0.000660177
0.000559009
0.000473406
0.000400926
0.441115
0.438467
0.433188
0.425452
0.415447
0.403167
0.388695
0.372225
0.35413
0.334601
0.313957
0.292576
0.270882
0.249328
0.228337
0.208424
0.190005
0.172971
0.157383
0.143012
0.129588
0.116905
0.104959
0.0938059
0.00124068
0.00107928
0.000932293
0.000801079
0.000685774
0.000585826
0.000500133
0.000426778
0.00036358
0.000308529
0.338441
0.336188
0.3317
0.325159
0.316815
0.306935
0.295426
0.282694
0.268849
0.253987
0.23837
0.222754
0.207414
0.19254
0.178103
0.164282
0.151171
0.138726
0.126902
0.115605
0.104535
0.0941421
0.00125651
0.00110393
0.000963204
0.000835586
0.000721749
0.000621807
0.000535096
0.00046011
0.00039504
0.000338101
0.000287857
0.000243256
0.285395
0.283444
0.279606
0.274179
0.267439
0.259233
0.249791
0.239178
0.227867
0.215967
0.203647
0.1912
0.178865
0.166805
0.155067
0.143644
0.132556
0.121781
0.11123
0.101147
0.0914322
0.00121757
0.00107292
0.000939818
0.000819161
0.000711316
0.000616218
0.000533232
0.000460939
0.000397664
0.000341764
0.000292018
0.000247836
0.000208559
-31.6962
-31.8342
-31.9673
-33.4727
-34.0361
-36.4363
-38.2636
-42.3904
-48.4978
-56.1149
-68.6281
-85.3433
-106.613
-135.234
-164.9
-189.513
-204.579
-190.956
-162.351
-120.175
-72.2605
-36.3663
-10.4023
2.36814
2.32636
2.28436
2.23573
2.19536
2.15695
2.11502
1.62004
1.28805
1.03864
0.867583
-32.6029
-32.5591
-33.8712
-34.3353
-35.3017
-38.0368
-40.1965
-44.5342
-50.3778
-58.9378
-71.3164
-88.9425
-112.77
-141.755
-171.071
-197.513
-202.218
-190.749
-151.985
-109.358
-66.6621
-31.3291
-6.50404
2.35586
2.31438
2.27286
2.23162
2.19134
2.14602
2.11222
1.56656
1.2487
1.01396
0.850782
-34.9146
-35.1425
-35.4301
-37.2191
-38.2263
-41.39
-44.277
-49.9591
-58.3286
-68.9837
-85.2769
-105.883
-130.199
-160.244
-185.69
-199.559
-200.54
-173.127
-136.517
-93.3553
-50.8732
-21.1415
-0.545563
2.34757
2.30606
2.2645
2.21657
2.1773
2.14052
1.84874
1.47956
1.18264
0.968028
0.819962
-39.4975
-39.9217
-40.5573
-42.8508
-44.4769
-48.7482
-53.1435
-61.0972
-72.5123
-86.7789
-106.845
-129.643
-157.649
-182.495
-199.29
-198.994
-185.774
-148.4
-108.542
-68.0951
-32.3543
-8.78545
2.36732
2.32673
2.28566
2.24475
2.1977
2.15977
2.12492
1.69175
1.3517
1.09089
0.906926
0.77687
-48.1512
-49.145
-51.0375
-53.538
-58.4598
-63.3495
-72.3592
-82.6647
-97.7419
-116.401
-138.927
-163.641
-186.081
-199.587
-197.741
-185.802
-151.765
-114.692
-72.0888
-39.0943
-13.6659
2.37329
2.33363
2.29364
2.25381
2.21448
2.17611
2.13985
1.84813
1.49296
1.19985
0.986746
0.836745
0.723816
-68.9853
-70.8223
-74.5863
-80.1296
-86.7221
-96.3922
-108.878
-122.842
-141.628
-161.833
-181.975
-197.95
-204.18
-196.116
-173.074
-145.12
-104.843
-69.2673
-36.5132
-13.1931
2.37388
2.3353
2.30336
2.26407
2.22514
2.18018
2.14454
2.11196
1.58483
1.27885
1.04544
0.881115
0.760965
0.660549
-113.746
-116.508
-121.778
-128.601
-139.605
-149.648
-164.19
-180.019
-189.843
-199.577
-202.187
-195.074
-176.926
-149.193
-120.752
-84.8106
-51.9035
-26.8857
-6.83813
2.36755
2.3301
2.29206
2.25382
2.21592
2.17914
2.14437
2.11245
1.60858
1.3026
1.07005
0.902393
0.780085
0.679714
0.585916
-180.056
-181.851
-185.036
-188.62
-197.154
-199.424
-205.037
-199.693
-195.116
-184.029
-165.602
-140.673
-111.656
-81.6372
-53.4855
-30.6305
-11.577
2.37547
2.3473
2.31133
2.27483
2.24553
2.2093
2.17382
2.14003
2.10937
1.55832
1.27571
1.05581
0.896434
0.778877
0.681395
0.589904
0.502305
-198.415
-196.575
-192.63
-186.494
-185.019
-172.695
-163.197
-142.603
-125.147
-105.011
-82.9796
-60.8149
-40.224
-22.3508
-7.47484
2.37279
2.34678
2.31282
2.28527
2.25034
2.21548
2.18846
2.1554
2.12438
1.74687
1.44309
1.19092
1.00196
0.862937
0.756254
0.664276
0.576395
0.491953
0.412646
-120.643
-117.731
-111.896
-103.215
-92.3253
-83.6189
-69.0519
-56.7572
-43.5184
-30.0486
-17.4394
-6.38817
2.3748
2.3523
2.32887
2.30438
2.27205
2.24635
2.21343
2.18821
2.1569
2.1269
1.82034
1.5298
1.28097
1.07832
0.92471
0.809224
0.715357
0.629371
0.546171
0.466421
0.391674
0.323704
-30.2973
-28.8967
-26.1406
-22.0994
-17.7413
-12.6861
-6.87227
-1.12952
2.37192
2.35372
2.33457
2.31451
2.29368
2.27219
2.24987
2.22674
2.1962
2.17308
2.14351
2.12292
1.77854
1.52031
1.28599
1.09593
0.948638
0.834735
0.741937
0.658714
0.578404
0.500647
0.4267
0.358236
0.296828
0.243709
2.34962
2.34862
2.34646
2.33604
2.33153
2.32572
2.31177
2.29641
2.2871
2.26947
2.25091
2.23181
2.21247
2.19281
2.1727
2.14543
2.12641
2.10844
1.63721
1.41237
1.21946
1.06031
0.932289
0.829811
0.744011
0.66581
0.589727
0.515718
0.444871
0.378328
0.317473
0.263616
0.218177
0.181506
2.26719
2.25871
2.25633
2.25298
2.24859
2.23607
2.22967
2.21513
2.19972
2.19105
2.17451
2.15752
2.1404
2.12355
1.85491
1.65014
1.45949
1.28274
1.13091
1.00286
0.896912
0.809326
0.732663
0.660785
0.590031
0.520454
0.453181
0.389522
0.330585
0.27761
0.231975
0.194163
0.163896
0.139582
2.19457
2.19323
2.19068
2.18007
2.17601
2.16396
2.15869
2.14561
2.13949
2.12564
2.11134
1.79251
1.63582
1.48458
1.33467
1.19534
1.07427
0.969172
0.879828
0.80228
0.732
0.664988
0.598639
0.533007
0.468815
0.407066
0.349054
0.296264
0.249968
0.210646
0.178452
0.152488
0.130998
0.112421
2.15493
2.14664
2.14464
2.14197
2.13884
2.12786
2.12361
2.11164
1.84547
1.72577
1.59813
1.46746
1.33904
1.21773
1.10663
1.00783
0.921966
0.845748
0.776692
0.711759
0.647737
0.583421
0.519733
0.457709
0.398335
0.34272
0.292184
0.247956
0.210368
0.179371
0.154038
0.132851
0.11447
0.0979618
-0.0823369
-0.119636
-0.163818
-0.170148
-0.849303
-0.846687
-1.56442
-2.31995
-3.30314
-3.78846
-5.0887
-6.34705
-8.47048
-9.90285
-11.502
-14.0177
-15.4461
-17.7349
-18.682
-20.3406
-21.6597
-22.8251
-24.0508
-25.5884
-27.7743
-31.1694
-36.874
-49.2058
-71.0175
-114.071
-172.286
-211.201
-174.203
-99.7548
-0.244563
-0.177288
-0.778544
-0.765813
-0.826383
-1.61367
-1.70945
-2.5154
-3.36725
-4.38688
-5.57485
-6.94773
-8.4957
-10.1963
-11.8735
-14.3135
-15.692
-17.7786
-19.6851
-20.2664
-21.6571
-22.8565
-24.1323
-25.7555
-28.0454
-31.5421
-39.1099
-51.6467
-76.2121
-122.432
-179.276
-208.652
-170.145
-89.2425
-0.861795
-0.880675
-0.853435
-1.52369
-1.58727
-1.70275
-2.53348
-3.38773
-4.47485
-5.05538
-6.45786
-7.79094
-9.98659
-11.4271
-12.9776
-15.4014
-16.6592
-18.7657
-19.5212
-21.0382
-22.2702
-23.4333
-24.7677
-26.5462
-29.2011
-33.5243
-41.07
-57.2149
-85.8925
-137.558
-192.753
-207.46
-148.128
-73.4124
-1.75019
-1.78904
-1.79002
-2.47875
-2.48633
-3.35052
-3.55379
-4.58795
-5.80577
-6.48686
-7.97252
-9.31515
-11.472
-12.9224
-14.3894
-16.692
-17.7477
-19.6804
-20.2576
-21.6488
-22.8623
-24.0949
-25.608
-27.7143
-30.9979
-36.5731
-46.677
-67.9157
-104.699
-162.651
-205.582
-192.657
-119.356
-50.2469
-3.24013
-3.32263
-3.47519
-3.60962
-4.50131
-4.68971
-5.80109
-6.23217
-7.47813
-8.76508
-10.1582
-11.6526
-13.1717
-14.5785
-16.7864
-17.7612
-19.6563
-20.2285
-21.6748
-23.0428
-23.3528
-24.9342
-26.8339
-29.529
-33.7249
-42.6665
-57.8136
-87.239
-135.518
-191.839
-202.932
-156.9
-83.4641
-24.8262
-4.99117
-5.76804
-5.91022
-6.22728
-6.52625
-7.60561
-7.89787
-9.13455
-10.3284
-11.5741
-12.9134
-14.3117
-15.6745
-16.829
-18.8146
-19.6369
-20.2598
-21.6986
-23.0348
-23.327
-24.911
-26.755
-29.3535
-33.475
-40.5286
-53.1414
-78.9455
-121.994
-176.946
-210.719
-176.407
-107.607
-41.2565
-3.44283
-8.64008
-8.77595
-9.03559
-9.2894
-10.3568
-10.6434
-11.8814
-12.2688
-13.6016
-14.8014
-15.9556
-17.0515
-17.9614
-19.7438
-20.3734
-20.919
-22.4359
-22.7047
-24.1195
-25.8124
-26.7979
-29.6718
-33.9475
-41.1439
-53.7901
-78.8898
-119.999
-174.045
-205.144
-185.061
-115.851
-51.5004
-8.66379
2.35147
-12.7855
-12.9025
-13.1146
-13.2909
-14.3536
-14.552
-15.7411
-15.9818
-17.0877
-18.0394
-18.9247
-19.7419
-20.4474
-20.9311
-22.4399
-22.8762
-23.3058
-24.8715
-26.6942
-27.9075
-31.1385
-35.9569
-44.1855
-59.0851
-85.9639
-129.462
-180.214
-210.507
-180.1
-112.103
-50.7095
-9.28816
2.35302
2.29776
-16.9267
-16.974
-16.9773
-17.9739
-17.9664
-18.0103
-18.9209
-19.857
-19.6971
-20.5076
-21.161
-21.7258
-22.1326
-23.6065
-24.0507
-24.6705
-26.657
-27.8209
-31.0102
-34.2207
-40.9439
-52.1027
-71.6892
-104.618
-151.861
-195.979
-201.262
-163.475
-95.7667
-38.4711
-4.45926
2.34785
2.29361
2.24725
-20.3942
-20.4198
-20.4353
-20.3236
-21.2294
-20.9865
-21.8475
-21.5388
-22.2875
-22.8905
-23.478
-24.1089
-24.8035
-25.4913
-27.5625
-29.0132
-31.2084
-35.8831
-41.3974
-51.9079
-69.1261
-98.2918
-138.789
-183.314
-210.788
-188.175
-128.868
-66.0742
-20.975
2.37573
2.32942
2.27648
2.23155
2.18106
-22.8657
-22.8707
-22.8427
-22.6985
-23.577
-23.2502
-24.0224
-24.8408
-24.6228
-25.5994
-26.5775
-27.7125
-29.1365
-30.9112
-34.8083
-39.1621
-46.0914
-58.9512
-77.2033
-106.787
-146.438
-188.615
-204.487
-186.173
-136.316
-81.4488
-32.9979
-3.15981
2.34913
2.29725
2.25327
2.2105
2.16274
2.12568
-25.5085
-25.3786
-26.3679
-26.2845
-26.2202
-27.3618
-27.332
-28.6044
-30.1657
-30.9367
-33.3784
-36.442
-40.54
-48.0697
-57.9279
-73.1685
-97.8883
-129.809
-169.85
-197.761
-205.327
-181.23
-132.824
-78.593
-34.2041
-5.32463
2.35416
2.31108
2.26839
2.21928
2.17902
2.14131
1.78887
1.40732
-30.8847
-31.0601
-31.3977
-31.783
-33.4919
-34.1424
-36.6234
-38.3145
-42.0631
-47.1219
-54.4869
-65.1776
-80.8397
-103.106
-132.401
-164.233
-194.739
-204.178
-195.475
-163.011
-111.285
-66.0616
-29.5412
-4.50511
2.35615
2.31438
2.27292
2.23203
2.18483
2.14728
2.11371
1.53817
1.22123
0.98782
-42.5544
-43.3225
-44.8962
-47.2083
-49.9999
-55.2022
-60.2761
-68.7136
-79.8015
-95.8425
-115.29
-140.24
-165.453
-192.198
-205.707
-201.584
-184.928
-145.533
-104.708
-62.1135
-29.8581
-6.4366
2.3635
2.3229
2.28206
2.24128
2.2013
2.16326
2.12844
1.70393
1.36462
1.10162
0.914094
0.781865
-62.9467
-64.5909
-67.7232
-71.7895
-78.6937
-86.0687
-98.3013
-111.792
-130.005
-150.737
-173.151
-193.354
-205.708
-204.77
-187.768
-156.853
-123.751
-83.4333
-49.9198
-21.8581
-2.58077
2.36055
2.32018
2.27956
2.23911
2.19948
2.16177
2.12746
1.69502
1.36701
1.11173
0.927721
0.795866
0.691049
5.31254
5.32808
5.37187
5.47105
5.20587
5.39898
5.21044
5.03838
5.30059
5.16254
5.09013
5.09049
4.67557
4.72566
4.8026
4.42801
4.59171
4.27409
3.95
4.16103
3.85419
3.56429
3.27797
2.30296
1.73737
0.884111
-0.241465
-2.50634
-4.67531
-8.34012
-11.7209
-15.8825
-19.4626
-21.1792
5.36559
5.3982
5.48282
5.18992
5.35235
5.10977
5.33398
5.17642
5.05768
4.96555
4.89476
4.84702
4.83155
4.86468
4.45662
4.59466
4.22785
4.42543
4.12445
3.83804
3.55664
3.24504
2.86915
2.39174
1.73988
0.898679
-0.947423
-2.65049
-4.99579
-8.68112
-12.9343
-16.067
-19.4672
-22.1777
5.24808
5.2666
5.31677
5.4245
5.1494
5.34179
5.14815
4.97424
5.24405
5.10131
5.02869
5.03295
4.60944
4.65975
4.73873
4.35483
4.51628
4.18875
3.85286
4.05485
3.71351
3.38146
3.04322
1.98896
1.32228
0.324372
-0.994377
-3.52102
-5.97357
-9.89019
-13.2935
-17.2246
-20.4484
-21.9008
5.18756
5.20841
5.26314
5.36818
5.09813
5.30473
5.11586
4.96206
4.79908
5.10053
5.02949
4.56268
4.59018
4.60761
4.67633
4.28163
4.4438
4.11591
3.80604
3.4438
3.61457
3.19017
2.77577
1.62247
0.836171
-0.326026
-1.86011
-4.66168
-7.37261
-11.4742
-14.7826
-18.4271
-21.3252
-22.5918
5.24699
5.29944
4.96273
5.08129
5.23699
5.00126
4.78934
5.05276
4.90022
4.79356
4.71791
4.66777
4.64657
4.68314
4.27301
4.40576
4.00831
4.17287
3.82063
3.4727
3.07031
2.60167
2.01697
1.25086
0.229365
-1.08023
-3.60639
-6.03699
-9.97134
-13.245
-17.2756
-19.4912
-22.0252
-24.3041
5.08564
5.15478
4.80301
4.91686
5.05741
4.78371
5.02055
4.84063
4.71687
4.62511
4.55222
4.4965
4.47282
4.51843
4.0833
4.19941
3.76041
3.90301
3.49255
3.07315
2.60337
2.02614
1.27461
0.269136
-1.07645
-2.79195
-5.79386
-8.74831
-12.1026
-16.1694
-18.6164
-21.3265
-23.5947
-24.8595
4.75212
4.77731
4.82987
4.93703
4.62757
4.83982
4.61211
4.39553
4.69974
4.55373
4.46561
4.42016
4.44395
3.98372
4.07932
3.59814
3.68946
3.15696
3.21541
2.6462
2.0044
1.2153
0.183727
-1.19125
-2.98885
-5.21258
-8.82511
-12.0934
-15.2491
-18.6459
-21.419
-22.6749
-25.1008
-26.9623
4.90224
4.4845
4.58104
4.71204
4.38894
4.59645
4.32235
4.59308
4.40152
4.26928
4.17471
4.11554
4.11981
3.58794
3.59809
3.59358
2.98391
2.97926
2.33093
1.61968
0.76577
-0.318759
-1.75003
-3.66419
-6.15685
-9.18127
-12.3788
-16.2576
-18.6322
-21.4201
-22.6596
-25.0588
-26.8532
-31.1766
4.36276
4.40227
4.50368
4.13406
4.29213
4.47423
4.22782
4.02573
3.79835
4.13138
3.96335
3.89373
3.29246
3.26468
3.19887
2.49566
2.38003
1.50961
1.20115
0.0973045
-1.19123
-2.81827
-4.91285
-7.54102
-10.6292
-13.8575
-16.6669
-19.8072
-21.2914
-23.5898
-24.8452
-28.0289
-31.5288
-39.6264
3.97223
4.00327
4.10078
3.69894
3.86081
4.04663
3.74525
3.4618
3.75813
3.50258
3.29273
3.11326
2.96989
2.19427
1.96968
1.66149
0.588196
0.077902
-1.29882
-2.86588
-4.77723
-7.16447
-10.0572
-13.1221
-16.0207
-18.5794
-20.5835
-21.9897
-24.2907
-25.7079
-29.2635
-33.4476
-43.11
-59.9615
3.47257
3.49931
3.58647
3.1578
3.36444
2.96502
3.21302
2.88652
2.56588
2.21246
2.49268
1.53461
1.17726
0.72158
0.211522
-1.15178
-2.00132
-3.89421
-5.31719
-7.75792
-10.3797
-13.1708
-15.9775
-18.4188
-20.4165
-22.0384
-23.4515
-24.8566
-27.9388
-31.184
-36.8888
-49.0399
-72.6585
-114.878
2.26349
2.28456
2.32711
2.4091
1.90711
2.08787
1.63007
1.15731
1.27785
0.689675
0.0825872
-0.56976
-1.32137
-2.14958
-3.90364
-5.14296
-7.46078
-9.24759
-12.0864
-14.0245
-16.5968
-18.7455
-20.5367
-22.0417
-23.4189
-24.9204
-26.8625
-29.6014
-35.41
-43.8607
-61.9864
-93.961
-150.175
-203.44
0.805369
0.213355
0.238753
0.19234
0.182219
-0.496622
-0.491327
-1.1874
-1.91523
-2.80595
-3.05345
-4.89772
-6.16751
-7.74998
-9.55217
-11.3758
-13.9797
-15.5473
-17.7831
-19.8022
-20.529
-22.0167
-23.3057
-24.7116
-26.5364
-29.1562
-33.1813
-41.626
-55.3932
-81.5365
-129.404
-186.748
-213.484
-161.323
-2.0264
-2.70941
-2.7735
-2.98172
-3.17669
-4.10596
-4.33151
-5.3516
-6.48602
-7.03084
-8.55805
-9.96961
-12.2668
-13.72
-15.311
-16.6997
-18.8088
-19.6133
-21.1894
-22.6102
-22.9105
-24.3433
-25.9176
-28.0625
-31.3997
-37.1413
-47.6478
-67.1256
-105.241
-160.775
-205.298
-196.797
-125.872
-55.2194
-5.13952
-5.25278
-5.46579
-5.65883
-6.60926
-6.84308
-8.01447
-8.47949
-9.77152
-11.0746
-12.4654
-13.9189
-15.3679
-16.7381
-17.8595
-19.7595
-20.3515
-21.9046
-22.1985
-23.5061
-24.9709
-25.6366
-27.9238
-31.2124
-36.8463
-47.3116
-66.9996
-105.334
-160.778
-205.199
-198.981
-131.843
-59.364
-13.8552
5.55631
5.57393
5.61448
5.68761
5.56931
5.70416
5.64109
5.59531
5.79702
5.79979
5.84417
5.66976
5.75469
5.85008
5.97454
5.86984
5.76945
5.97955
5.90788
5.85467
5.81783
5.79154
5.7804
5.80059
5.42927
5.43389
5.4459
5.03342
5.08799
4.69868
4.29701
4.41455
4.01152
3.59914
5.615
5.63763
5.6897
5.54665
5.65029
5.77552
5.71956
5.68968
5.68078
5.69228
5.72343
5.77433
5.84462
5.94694
5.80768
5.97201
5.87307
5.77512
6.00295
5.94121
5.90279
5.88144
5.88765
5.52648
5.53934
5.55263
5.14697
5.18257
4.74608
4.81976
4.42517
4.01244
4.13457
3.68255
5.59035
5.6086
5.64993
5.72449
5.60316
5.74065
5.67637
5.63029
5.83658
5.83754
5.88179
5.7023
5.79172
5.90054
5.75479
5.91223
5.78953
5.99175
5.91092
5.85022
5.80401
5.76829
5.74816
5.76005
5.37312
5.36875
5.37131
4.94054
4.97735
4.5377
4.6228
4.24694
3.87396
3.4503
5.62441
5.64369
5.68714
5.76477
5.6431
5.78656
5.72506
5.68923
5.66514
5.91299
5.6958
5.75691
5.83095
5.93354
5.7779
5.93379
5.80244
6.00464
5.91984
5.85271
5.79401
5.74875
5.72108
5.72197
5.3168
5.30296
5.29857
4.85647
4.89347
4.44763
4.53448
4.1475
3.75311
3.29286
5.73296
5.76104
5.8181
5.67576
5.79477
5.6939
5.8649
5.81733
5.79954
5.80378
5.82922
5.87697
5.95765
5.7838
5.92268
5.77281
5.95399
5.83627
5.72433
5.95922
5.88846
5.85836
5.45919
5.4354
5.39362
5.37193
4.92296
4.95079
4.49622
4.56953
4.15119
3.69615
3.76469
3.18887
5.78139
5.81002
5.86823
5.71668
5.83672
5.72516
5.89589
5.84194
5.81779
5.81703
5.83661
5.87941
5.95706
5.76318
5.88274
6.02935
5.89529
5.78141
5.66172
5.8998
5.80099
5.73265
5.69812
5.25148
5.19998
5.13697
5.1198
4.64101
4.69198
4.26268
3.81268
3.88259
3.33416
2.68671
5.76233
5.78128
5.82479
5.90505
5.75683
5.90397
5.81086
5.73342
5.95265
5.92566
5.93855
5.99326
5.77398
5.87337
5.99
5.80471
5.97921
5.84525
5.73069
5.625
5.5227
5.42552
5.33102
5.23127
5.13282
5.07561
4.57928
4.60119
4.10579
4.16257
3.62651
3.61262
2.94678
2.12934
5.79289
5.81615
5.86308
5.94705
5.78386
5.92945
5.8091
6.0063
5.94616
5.92417
5.93478
5.9846
5.73939
5.82852
5.93546
5.71763
5.88227
5.71344
5.56908
5.41422
5.67082
5.56369
5.04831
4.95441
4.834
4.72697
4.68677
4.16772
4.19368
3.63725
3.61101
2.91784
2.06995
0.894942
5.90143
5.9298
5.99786
5.80452
5.93806
5.78561
5.97301
5.88623
5.83305
5.79985
5.78683
5.79575
5.83231
5.90267
5.63998
5.77187
5.53072
5.70857
5.52097
5.36196
5.20871
5.05758
4.91439
4.77567
4.6469
4.56729
3.99571
3.9603
3.91183
3.28729
2.52335
2.19709
0.950357
-0.746317
5.89382
5.92312
5.99496
5.78117
5.92147
5.7495
5.9437
5.83836
5.76804
5.72225
5.69271
5.67726
5.67934
5.7096
5.78162
5.48873
5.63025
5.40236
5.20821
5.02257
4.81031
5.07181
4.92478
4.3251
4.21974
4.09205
3.99753
3.32168
3.18547
2.30509
1.86482
0.428323
-0.747883
-3.23916
5.68778
5.71047
5.76461
5.86435
5.64059
5.81076
5.63229
5.85942
5.75505
5.68446
5.63379
5.60729
5.59998
5.62934
5.28923
5.39539
5.06935
5.22925
4.97185
4.75908
4.57052
4.39059
4.21758
4.04359
3.84852
3.634
3.4279
2.55932
2.19141
0.918681
-0.0316682
-2.19032
-4.29236
-8.01825
5.72515
5.77019
5.47521
5.58334
5.71888
5.49378
5.69985
5.55947
5.45103
5.3686
5.30332
5.25409
5.22453
5.24211
4.84164
4.91044
5.00677
4.68477
4.37476
4.58309
4.32694
4.10838
3.89027
3.64549
3.35193
3.01761
1.97031
1.35587
0.486895
-1.47937
-3.28548
-6.67492
-9.9563
-14.4323
5.38179
5.42463
5.50949
5.21414
5.37393
5.12909
5.35095
5.19064
5.07798
4.98301
4.89853
4.83627
4.78525
4.75452
4.78264
4.36058
4.49072
4.11228
4.30572
3.99118
3.70658
3.42034
3.09101
2.67858
2.14104
1.43089
0.492138
-0.724434
-3.13073
-5.44776
-9.30411
-12.8092
-17.1192
-19.6575
5.1367
5.20494
4.85837
4.97257
5.10744
4.83573
5.06149
4.88275
4.75681
4.64585
4.55667
4.48975
4.44791
4.42992
4.47042
4.03761
4.17501
3.76184
3.93129
3.55532
3.17557
2.75786
2.25355
1.59862
0.71363
-0.510232
-2.17213
-4.31031
-7.84475
-11.2545
-14.7435
-18.6408
-20.6561
-23.0764
4.77953
4.79959
4.85071
4.96077
4.65229
4.86828
4.64315
4.43837
4.73842
4.59031
4.49338
4.4235
4.3834
4.40718
3.9476
4.08356
3.65258
3.80199
3.37158
2.90118
2.9509
2.31581
1.59274
0.659179
-0.60503
-2.31288
-4.49588
-8.04252
-11.3954
-14.8121
-18.621
-20.605
-23.0796
-24.2004
4.28339
4.30151
4.22828
4.28086
4.34761
4.3316
4.32697
4.44907
4.48316
4.53177
4.59627
4.56159
4.66116
4.77788
4.77502
4.93188
4.96346
5.00784
5.06304
5.29926
5.2198
5.31795
5.4243
5.54552
5.69104
5.62853
5.80474
5.74552
5.95269
5.90914
5.86518
5.79358
6.03563
5.95434
4.23863
4.25443
4.28747
4.33943
4.29914
4.39007
4.38862
4.40464
4.43635
4.48357
4.54677
4.62695
4.72571
4.70767
4.84388
4.85338
5.02932
5.07348
5.13127
5.20244
5.28621
5.38133
5.49137
5.62445
5.55967
5.72521
5.66272
5.85079
5.78416
6.0031
5.956
5.90857
5.84708
5.77771
4.35578
4.26248
4.29632
4.34773
4.41479
4.39817
4.39419
4.40441
4.54959
4.5946
4.6566
4.61794
4.71779
4.83612
4.83238
4.99001
5.02016
5.06567
5.12544
5.19649
5.27671
5.36574
5.46581
5.58268
5.72513
5.65529
5.82921
5.76202
5.96567
5.91185
5.85709
5.78027
6.02225
5.93261
4.4148
4.32476
4.36108
4.4162
4.37452
4.46734
4.46052
4.46882
4.61154
4.65544
4.72154
4.67817
4.77705
4.89553
4.88955
5.04896
5.07726
5.11991
5.17679
5.24498
5.32253
5.4096
5.50846
5.62407
5.76367
5.68586
5.85739
5.78249
5.98409
5.92221
5.85917
5.7731
6.01128
5.91025
4.43295
4.45251
4.49248
4.43328
4.51028
4.48302
4.59506
4.60309
4.62933
4.6728
4.73347
4.81271
4.91368
4.89118
5.0331
5.04085
5.05688
5.25402
5.30032
5.36032
5.43564
5.52839
5.64397
5.55241
5.6864
5.83659
5.74909
5.92865
5.83713
6.04607
5.97196
5.89863
5.8098
5.70631
4.54104
4.56019
4.60003
4.53561
4.61376
4.58209
4.69606
4.70084
4.72427
4.76568
4.82491
4.90344
5.00385
4.97311
5.11168
5.10614
5.28527
5.31484
5.35822
5.4132
5.48197
5.56601
5.66874
5.79523
5.6952
5.84672
5.74403
5.91852
5.80737
6.00753
5.90843
5.80314
5.67093
5.88637
4.63424
4.64937
4.68219
4.7368
4.68036
4.77704
4.75778
4.75337
4.90677
4.94266
5.00507
4.93794
5.03913
5.1583
5.12991
5.28783
5.28924
5.30101
5.51962
5.56696
5.63518
5.72695
5.60322
5.71042
5.8221
5.95493
5.83296
5.99934
5.86868
6.05788
5.9373
5.81468
5.67726
5.51136
4.78301
4.79844