/*--------------------------------*- C++ -*----------------------------------*\
| =========                 |                                                 |
| \\      /  F ield         | OpenFOAM: The Open Source CFD Toolbox           |
|  \\    /   O peration     | Version:  2412                                  |
|   \\  /    A nd           | Website:  www.openfoam.com                      |
|    \\/     M anipulation  |                                                 |
\*---------------------------------------------------------------------------*/
FoamFile
{
    version     2.0;
    format      ascii;
    arch        "LSB;label=32;scalar=64";
    class       volScalarField;
    location    "0.0350058";
    object      Jsi;
}
// * * * * * * * * * * * * * * * * * * * * * * * * * * * * * * * * * * * * * //

dimensions      [0 0 0 0 0 0 0];

internalField   nonuniform List<scalar> 
8796
(
0
0
0
0
0
0
0
0
0
0
0
0
0
0
0
0
0
0
0
0
0
0
0
0
0
0
0
0
0
0
0
0
0
0
0
0
0
0
0
0
0
0
0
0
0
0
0
0
0
0
0
0
0
0
0
0
0
0
0
0
0
0
0
0
0
0
0
0
0
0
0
0
0
0
0
0
0
0
0
0
0
0
0
0
0
0
0
0
0
0
0
0
0
0
0
0
0
0
0
0
0
0
0
0
0
0
0
0
0
0
0
0
0
0
0
0
0
0
0
0
0
0
0
0
0
0
0
0
0
0
0
0
0
0
0
0
0
0
0
0
0
0
0
0
0
0
0
0
0
0
0
0
0
0
0
0
0
0
0
0
0
0
0
0
0
0
0
0
0
0
0
0
0
0
0
0
0
0
0
0
0
0
0
0
0
0
0
0
0
0
0
0
0
0
0
0
0
0
0
0
0
0
0
0
0
0
0
0
0
0
0
0
0
0
0
0
0
0
0
0
0
0
0
0
0
0
0
0
0
0
0
0
0
0
0
0
0
0
0
0
0
0
0
0
0
0
0
0
0
0
0
0
0
0
0
0
0
0
0
0
0
0
0
0
0
0
0
0
0
0
0
0
0
0
0
0
0
0
0
0
0
0
0
0
0
0
0
0
0
0
0
0
0
0
0
0
0
0
0
0
0
0
0
0
0
0
0
0
0
0
0
0
0
0
0
0
0
0
0
0
0
0
0
0
0
0
0
0
0
0
0
0
0
0
0
0
0
0
0
0
0
0
0
0
0
0
0
0
0
0
0
0
0
0
0
0
0
0
0
0
0
0
0
0
0
0
0
0
0
0
0
0
0
0
0
0
0
0
0
0
0
0
0
0
0
0
0
0
0
0
0
0
0
0
0
0
0
0
0
0
0
0
0
0
0
0
0
0
0
0
0
0
0
0
0
0
0
0
0
0
0
0
0
0
0
0
0
0
0
0
0
0
0
0
0
0
0
0
0
0
0
0
0
0
0
0
0
0
0
0
0
0
0
0
0
0
0
0
0
0
0
0
0
0
0
0
0
0
0
0
0
0
0
0
0
0
0
0
0
0
0
0
0
0
0
0
0
0
0
0
0
0
0
0
0
0
0
0
0
0
0
0
0
0
0
0
0
0
0
0
-0.0128332
-0.0128198
-0.0128784
-0.0128434
-0.0127967
-0.0128246
-0.0127563
-0.0127641
-0.0127624
-0.0127489
-0.0126448
-0.0126208
-0.0126775
0
0
0
0
0
0
0
0
0
0
0
0
0
0
0
0
0
0
0
0
0
-0.012869
-0.012858
-0.0128377
-0.0128032
-0.0128405
-0.0127838
-0.012801
-0.0127259
-0.0127271
-0.0127193
-0.0127033
-0.01268
-0.0126498
0
0
0
0
0
0
0
0
0
0
0
0
0
0
0
0
0
0
0
0
0
-0.0127889
-0.0127768
-0.0128376
-0.012805
-0.0127599
-0.0127895
-0.0127228
-0.0127327
-0.0127335
-0.012723
-0.0126218
-0.0126008
0
0
0
0
0
0
0
0
0
0
0
0
0
0
0
0
0
0
0
0
0
0
-0.0127437
-0.0128164
-0.0127937
-0.0127634
-0.0127211
-0.0127533
-0.0126888
-0.0127006
-0.0127033
-0.0126949
-0.0126818
0
0
0
0
0
0
0
0
0
0
0
0
0
0
0
0
0
0
0
0
0
0
0
-0.0127491
-0.0127377
-0.0127154
-0.0126837
-0.012728
-0.0126758
-0.0127004
-0.0126292
-0.0126356
-0.0126354
0
0
0
0
0
0
0
0
0
0
0
0
0
0
0
0
0
0
0
0
0
0
0
0
-0.0127121
-0.0127016
-0.0126802
-0.012648
-0.012692
-0.0126435
-0.0126727
-0.0126049
0
0
0
0
0
0
0
0
0
0
0
0
0
0
0
0
0
0
0
0
0
0
0
0
0
0
-0.0126451
-0.0126344
-0.0126131
-0.0125835
0
0
0
0
0
0
0
0
0
0
0
0
0
0
0
0
0
0
0
0
0
0
0
0
0
0
0
0
0
0
0
0
0
0
0
0
0
0
0
0
0
0
0
0
0
0
0
0
0
0
0
0
0
0
0
0
0
0
0
0
0
0
0
0
0
0
0
0
0
0
0
0
0
0
0
0
0
0
0
0
0
0
0
0
0
0
0
0
0
0
0
0
0
0
0
0
0
0
0
0
0
0
0
0
0
0
0
0
0
0
0
0
0
0
0
0
0
0
0
0
0
0
0
0
0
0
0
0
0
0
0
0
0
0
0
0
0
0
0
0
0
0
0
0
0
0
0
0
0
0
0
0
0
0
0
0
0
0
0
0
0
0
0
0
0
0
0
0
0
0
0
0
0
0
0
0
0
0
0
0
0
0
0
0
0
0
0
0
0
0
0
0
0
0
0
0
0
0
0
0
0
0
0
0
0
0
0
0
0
0
0
0
0
0
0
0
0
0
0
0
0
0
0
0
0
0
0
0
0
0
0
0
0
0
0
0
0
0
0
0
0
0
0
0
0
0
0
0
0
0
0
0
0
0
0
0
0
0
0
0
0
0
0
0
0
0
0
0
0
0
0
0
0
0
0
0
0
0
0
0
0
0
0
0
0
0
0
0
0
0
0
0
0
0
0
0
0
0
0
0
0
0
-0.0284933
-0.0283426
-0.0280797
-0.027879
-0.0273966
-0.0269459
-0.0262121
-0.0255285
-0.0247004
-0.0236294
-0.0225553
-0.0214252
-0.0202486
-0.0191075
-0.0178407
-0.0166018
-0.0156315
-0.0147601
-0.0142257
-0.0138722
-0.0136338
-0.0133799
-0.0132379
-0.0131076
-0.0129812
-0.0128595
-0.0128285
-0.0127243
-0.0126281
-0.0126285
0
0
0
0
-0.0280315
-0.0279326
-0.0278171
-0.0274584
-0.0269453
-0.0264901
-0.0258267
-0.0250825
-0.0243159
-0.0234117
-0.0223886
-0.0212581
-0.0200369
-0.0187574
-0.0174768
-0.0164196
-0.0153878
-0.0146871
-0.0141104
-0.013789
-0.01357
-0.0134069
-0.0132703
-0.0131421
-0.0130171
-0.0128976
-0.0127882
-0.0126856
-0.0126764
-0.0125914
0
0
0
0
-0.0272912
-0.0271529
-0.026912
-0.0267327
-0.0262531
-0.0257991
-0.0250617
-0.0243775
-0.023554
-0.0224939
-0.0214363
-0.0203321
-0.0191962
-0.0181072
-0.0169378
-0.015851
-0.0150613
-0.014379
-0.0139819
-0.0137154
-0.0135274
-0.0132991
-0.0131706
-0.013048
-0.0129289
-0.0128149
-0.0127916
-0.0126947
-0.0126054
0
0
0
0
0
-0.0260383
-0.0259004
-0.0257403
-0.0254997
-0.0250438
-0.0246063
-0.0238732
-0.0231851
-0.0223614
-0.0213075
-0.0202716
-0.0192266
-0.0182417
-0.017161
-0.0161085
-0.0152019
-0.014598
-0.0140786
-0.0137875
-0.0135848
-0.0134321
-0.013222
-0.013103
-0.0129878
-0.0128766
-0.0127705
-0.0127552
-0.0126661
-0.0125843
0
0
0
0
0
-0.0245823
-0.0244472
-0.0241806
-0.0238102
-0.0234967
-0.0229046
-0.0223354
-0.0214877
-0.0207126
-0.0198562
-0.0189164
-0.0179188
-0.0169132
-0.0159615
-0.0152256
-0.0146035
-0.0141169
-0.0138389
-0.0135609
-0.013414
-0.0132893
-0.013177
-0.0130688
-0.0129636
-0.0128632
-0.0127708
-0.0126842
-0.0126039
0
0
0
0
0
0
-0.0224929
-0.0223714
-0.0221081
-0.0217041
-0.0212821
-0.020795
-0.0202794
-0.0194916
-0.0187844
-0.0180198
-0.0172007
-0.0163709
-0.0155922
-0.0149223
-0.0143922
-0.0140759
-0.0137633
-0.0136003
-0.0133935
-0.013285
-0.0131866
-0.0130913
-0.0129133
-0.012821
-0.0127327
-0.0127353
-0.0126613
-0.0125923
0
0
0
0
0
0
-0.0199886
-0.0198538
-0.0195873
-0.0192206
-0.0189257
-0.0183831
-0.0179067
-0.017344
-0.0165985
-0.0159929
-0.0154192
-0.0148983
-0.0144561
-0.014101
-0.0139005
-0.013665
-0.013467
-0.0133698
-0.0132863
-0.0131207
-0.0130357
-0.0129542
-0.0128757
-0.0127999
-0.0127278
-0.0126629
-0.0126023
0
0
0
0
0
0
0
-0.0173259
-0.0172204
-0.0170124
-0.0167231
-0.016504
-0.0160852
-0.015744
-0.0152623
-0.0149094
-0.0145851
-0.0142938
-0.0140417
-0.0138274
-0.013644
-0.0134831
-0.013413
-0.0132661
-0.0132059
-0.0130609
-0.0129957
-0.0129334
-0.0127877
-0.0127274
-0.0126691
-0.0126134
-0.0125614
0
0
0
0
0
0
0
0
-0.0150101
-0.0149526
-0.0148425
-0.0146936
-0.0146113
-0.014401
-0.0142724
-0.0141256
-0.0139083
-0.0137792
-0.0136573
-0.0135422
-0.0134322
-0.0133255
-0.0132147
-0.0131793
-0.0130581
-0.0130148
-0.0128867
-0.0128399
-0.0127971
-0.0126714
-0.0126307
-0.0125915
0
0
0
0
0
0
0
0
0
0
-0.0139054
-0.0138804
-0.0138324
-0.0137647
-0.0137626
-0.0136644
-0.0136344
-0.013511
-0.0134619
-0.0134066
-0.0133446
-0.013275
-0.0131973
-0.0131122
-0.0130219
-0.0129236
-0.0129028
-0.0127978
-0.0127741
-0.0126685
-0.0126471
-0.0126264
0
0
0
0
0
0
0
0
0
0
0
0
-0.0134058
-0.0133899
-0.0133592
-0.0133162
-0.0133441
-0.0132753
-0.0132784
-0.0131852
-0.0131601
-0.0131262
-0.0130831
-0.0130307
-0.0129693
-0.012901
-0.0128289
-0.0127506
-0.0127511
-0.0126661
-0.0126634
-0.0125768
0
0
0
0
0
0
0
0
0
0
0
0
0
0
-0.0130729
-0.0130612
-0.0130392
-0.0130851
-0.0130349
-0.012976
-0.0129861
-0.0129884
-0.0128935
-0.0128699
-0.01284
-0.012803
-0.0127593
-0.0127122
-0.0126581
-0.0126838
-0.0126199
-0.012553
0
0
0
0
0
0
0
0
0
0
0
0
0
0
0
0
-0.0128249
-0.0128981
-0.0128747
-0.01284
-0.0127977
-0.0128274
-0.0127637
-0.0127734
-0.012777
-0.012685
-0.0126697
-0.0126475
-0.0126184
-0.012583
0
0
0
0
0
0
0
0
0
0
0
0
0
0
0
0
0
0
0
0
-0.0127
-0.0126904
-0.0126704
-0.0127231
-0.0126818
-0.0127202
-0.0126603
-0.0126808
-0.0126065
-0.0126083
-0.012601
0
0
0
0
0
0
0
0
0
0
0
0
0
0
0
0
0
0
0
0
0
0
0
-0.0126088
-0.0126838
-0.0126627
-0.0126332
-0.012598
-0.0126374
-0.0125837
-0.0126056
0
0
0
0
0
0
0
0
0
0
0
0
0
0
0
0
0
0
0
0
0
0
0
0
0
0
-0.0617803
-0.0616267
-0.0613348
-0.0610168
-0.0606486
-0.0601376
-0.0595576
-0.0589446
-0.0581592
-0.0571191
-0.0561003
-0.0550477
-0.0540311
-0.0527706
-0.0513678
-0.0500417
-0.0484232
-0.0468522
-0.0449869
-0.0431878
-0.0413166
-0.0393459
-0.0372659
-0.03507
-0.0327419
-0.0302824
-0.0277297
-0.0252809
-0.0226028
-0.0200629
-0.0174896
-0.0155063
-0.0142075
-0.0136435
-0.0612674
-0.0611636
-0.0611308
-0.0607838
-0.0602974
-0.059877
-0.0591726
-0.0585544
-0.0578363
-0.0569832
-0.0560099
-0.0549185
-0.0537111
-0.0523742
-0.0510177
-0.0496049
-0.0479862
-0.0464406
-0.0447762
-0.0428064
-0.0409094
-0.0389299
-0.0368365
-0.0346175
-0.0322703
-0.0299012
-0.0274674
-0.0248498
-0.022221
-0.0196177
-0.0171099
-0.0152513
-0.0141688
-0.0135732
-0.06069
-0.0605465
-0.0602973
-0.0601213
-0.0596292
-0.0590867
-0.0585013
-0.0578948
-0.0571179
-0.0560841
-0.0550695
-0.054019
-0.0530009
-0.0517374
-0.0503308
-0.0489993
-0.047375
-0.0457987
-0.0439279
-0.042122
-0.0402403
-0.0382578
-0.0361662
-0.03396
-0.0316231
-0.0291574
-0.0266027
-0.024157
-0.0214986
-0.0190172
-0.0166089
-0.0149351
-0.0139416
-0.0135207
-0.0595265
-0.0593842
-0.0591379
-0.0589802
-0.0585365
-0.0581303
-0.057443
-0.0568135
-0.0560406
-0.0550036
-0.0539873
-0.0529371
-0.0519096
-0.0506345
-0.0492225
-0.0478839
-0.0462605
-0.0446827
-0.0428146
-0.0410154
-0.0391212
-0.037124
-0.0350197
-0.0328038
-0.0304614
-0.0279971
-0.0254448
-0.023016
-0.0203995
-0.0180142
-0.015835
-0.0144929
-0.0137419
-0.0134199
-0.0580954
-0.057979
-0.0577405
-0.0573963
-0.0571194
-0.0565611
-0.0560334
-0.05521
-0.0544623
-0.053614
-0.0526433
-0.0515453
-0.0503282
-0.0490151
-0.0477954
-0.0462945
-0.0448323
-0.0430878
-0.0414093
-0.0396166
-0.0375184
-0.0354833
-0.0333591
-0.031121
-0.0287872
-0.0265432
-0.0240512
-0.0214677
-0.0189021
-0.016716
-0.0149547
-0.0140382
-0.0136001
-0.0132813
-0.0560009
-0.0560427
-0.0558415
-0.0554654
-0.054978
-0.0545658
-0.053939
-0.0532446
-0.0525443
-0.051718
-0.0507553
-0.0496588
-0.0484377
-0.047127
-0.0459017
-0.0443661
-0.0427055
-0.0411332
-0.0394646
-0.0374912
-0.0355767
-0.0335792
-0.0314654
-0.0292261
-0.0268707
-0.0244428
-0.0221321
-0.0196388
-0.0172589
-0.0154621
-0.0142545
-0.0137153
-0.0133594
-0.0131826
-0.0538298
-0.0537
-0.0534313
-0.0530563
-0.0527653
-0.0521773
-0.0516242
-0.0508442
-0.0499932
-0.049137
-0.0481675
-0.0470814
-0.0459073
-0.0448221
-0.0434363
-0.0419045
-0.0404234
-0.0386691
-0.0369794
-0.0351736
-0.0330697
-0.0310326
-0.0289075
-0.0266704
-0.0243461
-0.0221344
-0.0197475
-0.017438
-0.0155179
-0.0143904
-0.013732
-0.0134426
-0.013183
-0.0130408
-0.0509538
-0.0508344
-0.0505822
-0.0502237
-0.0499362
-0.0493434
-0.0487889
-0.0479305
-0.047157
-0.046306
-0.0453436
-0.0442624
-0.0430666
-0.0417819
-0.040552
-0.0390047
-0.0373283
-0.0357422
-0.0340646
-0.0320902
-0.030182
-0.0281933
-0.0260929
-0.0238781
-0.0215753
-0.0192569
-0.0170807
-0.0154511
-0.0143179
-0.0137076
-0.0134394
-0.0131918
-0.0130594
-0.0129474
-0.0473804
-0.0472561
-0.0470328
-0.0468807
-0.0464138
-0.0458094
-0.0453038
-0.0446677
-0.043713
-0.0428213
-0.0418466
-0.0407674
-0.0395994
-0.0384991
-0.0370959
-0.0355461
-0.034046
-0.0322758
-0.0305488
-0.0286303
-0.0266478
-0.0246773
-0.0226115
-0.0204715
-0.0183351
-0.016384
-0.0149087
-0.0141251
-0.0136399
-0.0133445
-0.0132032
-0.0130058
-0.012904
-0.012736
-0.0434868
-0.0433589
-0.0431106
-0.0427728
-0.0424968
-0.0419267
-0.0414024
-0.040583
-0.0398158
-0.0389616
-0.0379914
-0.0368987
-0.0356865
-0.0343793
-0.0331278
-0.0315719
-0.029891
-0.028279
-0.0264143
-0.0246411
-0.0228106
-0.0208875
-0.018838
-0.0169798
-0.0154972
-0.0144452
-0.0138371
-0.0134873
-0.013253
-0.0131417
-0.0129642
-0.0128821
-0.0127294
-0.0126752
-0.0389635
-0.0388315
-0.0385788
-0.0383146
-0.0379799
-0.0374361
-0.0369444
-0.0363212
-0.0353893
-0.0345108
-0.033531
-0.0324363
-0.0312136
-0.0298894
-0.0286366
-0.0270916
-0.025419
-0.0238263
-0.0220705
-0.0202847
-0.0185927
-0.0169611
-0.0155142
-0.0144546
-0.0138673
-0.0135994
-0.0133637
-0.0131783
-0.0130141
-0.0129429
-0.0127965
-0.0126656
-0.0126314
-0.0125236
-0.0340905
-0.033995
-0.0338883
-0.0335544
-0.0331022
-0.0327056
-0.0320373
-0.0314185
-0.0306556
-0.02966
-0.0286478
-0.0275462
-0.0263528
-0.0251581
-0.0237669
-0.0222493
-0.0208142
-0.0191743
-0.017685
-0.0161838
-0.0150935
-0.0143415
-0.0138683
-0.013573
-0.0133693
-0.0132058
-0.0130573
-0.0129176
-0.0127899
-0.012755
-0.0126457
-0.0125466
0
0
-0.0293244
-0.0292119
-0.0289746
-0.0287013
-0.0283362
-0.0277856
-0.0272627
-0.0265526
-0.0257416
-0.0248968
-0.0239303
-0.0228583
-0.0216757
-0.0203952
-0.0190319
-0.017739
-0.0165204
-0.0154822
-0.0146437
-0.0141201
-0.0137777
-0.0134745
-0.0133131
-0.0131792
-0.0130546
-0.0129345
-0.0128209
-0.0127176
-0.0127079
-0.0126187
-0.0125399
0
0
0
-0.0251068
-0.024997
-0.0247561
-0.0244606
-0.0239895
-0.023513
-0.022924
-0.0223228
-0.0215435
-0.0207023
-0.0196726
-0.0186658
-0.0176562
-0.0167123
-0.0157565
-0.0150124
-0.0143978
-0.0139372
-0.0136854
-0.0135117
-0.0132941
-0.0131813
-0.0130781
-0.0129783
-0.0128818
-0.0127896
-0.0127032
-0.0126241
-0.0125549
0
0
0
0
0
-0.0225197
-0.0223912
-0.0221371
-0.0217883
-0.0214417
-0.02099
-0.0204165
-0.0197437
-0.0190718
-0.0182487
-0.0174332
-0.016593
-0.0157837
-0.0151468
-0.0145579
-0.0141095
-0.0137791
-0.0135995
-0.0133839
-0.0132763
-0.0131811
-0.013003
-0.012912
-0.0128263
-0.0127456
-0.0126702
-0.0126015
-0.0125418
0
0
0
0
0
0
-0.0912764
-0.0911376
-0.0908707
-0.0905192
-0.0902687
-0.089733
-0.089281
-0.0887
-0.0878538
-0.0870329
-0.0861597
-0.0852272
-0.0843155
-0.0831439
-0.0818421
-0.0806303
-0.0791385
-0.0777188
-0.0761839
-0.0743966
-0.0725447
-0.0706911
-0.06876
-0.0669263
-0.0647903
-0.0624956
-0.0600988
-0.0578043
-0.0552433
-0.0527643
-0.0500195
-0.0473594
-0.0446162
-0.0415861
-0.090843
-0.0907129
-0.0904907
-0.0903602
-0.0899474
-0.0895784
-0.0889408
-0.0883948
-0.0877501
-0.0869935
-0.086118
-0.0851226
-0.0840121
-0.0828033
-0.0816884
-0.0803043
-0.0789654
-0.0773459
-0.0758002
-0.0741641
-0.0724271
-0.0705795
-0.0686218
-0.0665607
-0.064375
-0.062089
-0.0598973
-0.05742
-0.0548977
-0.0523496
-0.0497991
-0.0469708
-0.0442185
-0.0413683
-0.09036
-0.0902203
-0.0899532
-0.0896043
-0.0893531
-0.0888197
-0.0883733
-0.0877998
-0.0869605
-0.0861345
-0.0852574
-0.0843257
-0.0834114
-0.082243
-0.0809451
-0.0797199
-0.0782109
-0.0767763
-0.0752315
-0.0734389
-0.0715731
-0.0697064
-0.067764
-0.0659212
-0.0637776
-0.0614768
-0.0590747
-0.056773
-0.0542013
-0.0517101
-0.0489561
-0.046304
-0.043575
-0.0405608
-0.0893542
-0.0892171
-0.088956
-0.0886776
-0.088366
-0.0878458
-0.0874188
-0.0868889
-0.0861931
-0.0852452
-0.0843595
-0.0835373
-0.0824845
-0.0812652
-0.079946
-0.0787114
-0.0771959
-0.0757628
-0.0742458
-0.0725795
-0.0705872
-0.0686722
-0.0667119
-0.0648634
-0.0627165
-0.060412
-0.0580063
-0.0557076
-0.0531429
-0.050654
-0.0479031
-0.0452548
-0.0425282
-0.0395152
-0.0877688
-0.087761
-0.0877046
-0.0873998
-0.0869702
-0.0866464
-0.0862034
-0.0854519
-0.0847792
-0.0840097
-0.0831255
-0.0821212
-0.0809959
-0.0798576
-0.0786765
-0.0772833
-0.0759294
-0.0742808
-0.0727199
-0.0710704
-0.0693089
-0.0674454
-0.0654778
-0.0633953
-0.0611879
-0.058889
-0.0566992
-0.0542489
-0.051865
-0.0492224
-0.0466473
-0.0438157
-0.0410618
-0.0382099
-0.086108
-0.0860344
-0.0860487
-0.0857421
-0.0852996
-0.0849379
-0.0842867
-0.0837263
-0.0830861
-0.0823277
-0.0814409
-0.0804248
-0.0792903
-0.0780742
-0.0769499
-0.0755392
-0.0741827
-0.0725385
-0.0709749
-0.0693215
-0.0675626
-0.065695
-0.0637192
-0.0616321
-0.0594245
-0.0571223
-0.0549252
-0.0524517
-0.0498694
-0.0473919
-0.0446596
-0.0420029
-0.0392583
-0.0362241
-0.0843188
-0.0841927
-0.0839423
-0.0835943
-0.0833415
-0.0828013
-0.0823324
-0.0817308
-0.0808115
-0.0799795
-0.0790727
-0.0780654
-0.0769812
-0.0759908
-0.074708
-0.0734634
-0.0719311
-0.070445
-0.0686845
-0.0670129
-0.0652606
-0.0633987
-0.061417
-0.0593114
-0.0570867
-0.0547793
-0.0525902
-0.0501218
-0.047541
-0.0450798
-0.0424543
-0.0396932
-0.0369059
-0.0338473
-0.081529
-0.0815715
-0.081366
-0.0810316
-0.0807761
-0.0802168
-0.0797067
-0.078895
-0.0781738
-0.0773842
-0.0764951
-0.0754982
-0.0744187
-0.0734156
-0.0720916
-0.0706335
-0.0692411
-0.067578
-0.0660034
-0.0643577
-0.0626027
-0.0607406
-0.0587697
-0.0566772
-0.0544608
-0.0521316
-0.0497297
-0.0474445
-0.0448979
-0.042424
-0.0396771
-0.0369843
-0.0340223
-0.0311292
-0.0783868
-0.0782764
-0.0780759
-0.0779641
-0.077527
-0.07703
-0.0765056
-0.0759612
-0.0752656
-0.0742496
-0.0733129
-0.0723224
-0.071427
-0.0702318
-0.068894
-0.0676196
-0.0660683
-0.0645618
-0.0627871
-0.0611086
-0.0593555
-0.0574917
-0.0555091
-0.0534072
-0.0511883
-0.0488595
-0.0464578
-0.0441714
-0.041628
-0.0391525
-0.0364033
-0.0336995
-0.0307254
-0.0278283
-0.0747977
-0.0746792
-0.0744761
-0.0743672
-0.073934
-0.0733742
-0.0729186
-0.0723517
-0.0714676
-0.070648
-0.069736
-0.0687108
-0.0675903
-0.0665478
-0.0651952
-0.0637208
-0.0623265
-0.0606691
-0.0591034
-0.0574681
-0.0557174
-0.0538412
-0.0518569
-0.049774
-0.0475809
-0.0452752
-0.0428632
-0.0403769
-0.0379829
-0.035332
-0.0327251
-0.0298579
-0.0270449
-0.0240028
-0.0706444
-0.0705159
-0.0703708
-0.070183
-0.0697794
-0.0694084
-0.0687589
-0.0681821
-0.0675007
-0.066681
-0.0656422
-0.0647313
-0.0636153
-0.0623605
-0.061005
-0.0597252
-0.058175
-0.0566763
-0.0549168
-0.0532506
-0.0515084
-0.0496548
-0.0476842
-0.0455998
-0.0434027
-0.0410942
-0.0386802
-0.036184
-0.0337803
-0.0311012
-0.0283046
-0.0256123
-0.022867
-0.0199404
-0.066264
-0.0661447
-0.0659082
-0.0656514
-0.0653279
-0.0648009
-0.064338
-0.0637668
-0.0628883
-0.0620741
-0.0611596
-0.0601376
-0.0589871
-0.0578138
-0.0565798
-0.0551422
-0.0537531
-0.0520907
-0.0504803
-0.048596
-0.0468064
-0.0449503
-0.0429901
-0.0409136
-0.0387193
-0.0364099
-0.0339919
-0.0315641
-0.0290808
-0.0264274
-0.0238415
-0.02106
-0.0184754
-0.0160578
-0.0615978
-0.0616442
-0.0614513
-0.0611068
-0.0607342
-0.0602937
-0.0597201
-0.0590893
-0.058431
-0.0576225
-0.0565927
-0.0556824
-0.0545675
-0.0533
-0.0519098
-0.0505019
-0.0490405
-0.0474553
-0.0458024
-0.0441183
-0.0422149
-0.0403211
-0.0382719
-0.0361887
-0.0339833
-0.0317375
-0.0293215
-0.0269279
-0.0243779
-0.0218264
-0.0192859
-0.0168452
-0.0150546
-0.0139499
-0.0574999
-0.0575578
-0.0573809
-0.0570373
-0.0566619
-0.056226
-0.0556553
-0.0550965
-0.0543399
-0.0534079
-0.0524663
-0.0514724
-0.0504809
-0.0492576
-0.0479602
-0.0464882
-0.045027
-0.0434452
-0.0417822
-0.040091
-0.0381814
-0.0362678
-0.0341983
-0.0320995
-0.0298851
-0.0275573
-0.0252096
-0.0227284
-0.0203139
-0.0178835
-0.0158415
-0.0144322
-0.0137563
-0.013358
-0.0551422
-0.0550233
-0.0547789
-0.0544459
-0.0542165
-0.0537032
-0.0531606
-0.0524769
-0.0517914
-0.0510069
-0.050103
-0.0490752
-0.0479281
-0.0466609
-0.0453082
-0.0439699
-0.0425153
-0.0409442
-0.0392502
-0.0375382
-0.0356196
-0.0335654
-0.0315117
-0.0293853
-0.0271598
-0.0248369
-0.0224542
-0.0201459
-0.0178213
-0.0158552
-0.0144755
-0.0138017
-0.0133969
-0.0132134
-0.116004
-0.115895
-0.11568
-0.115384
-0.115178
-0.114706
-0.114323
-0.113813
-0.113059
-0.112355
-0.11164
-0.110982
-0.110078
-0.109009
-0.107924
-0.106839
-0.105731
-0.104314
-0.102975
-0.101558
-0.100047
-0.0984165
-0.0966688
-0.0948369
-0.0930967
-0.0910679
-0.0889191
-0.0868693
-0.0845506
-0.0823284
-0.0800123
-0.0773868
-0.0748282
-0.0721984
-0.115699
-0.115584
-0.115385
-0.115275
-0.114879
-0.114437
-0.11401
-0.113583
-0.113036
-0.11238
-0.111619
-0.110755
-0.109771
-0.108709
-0.107751
-0.106533
-0.105402
-0.104158
-0.102617
-0.101164
-0.0996357
-0.0980006
-0.0962784
-0.0946553
-0.0927554
-0.0907271
-0.0887839
-0.086571
-0.0844129
-0.0819902
-0.079655
-0.0772215
-0.0744955
-0.07185
-0.115269
-0.115159
-0.114932
-0.114627
-0.11442
-0.113954
-0.113583
-0.113088
-0.112333
-0.111614
-0.110889
-0.110218
-0.109311
-0.108273
-0.107326
-0.1061
-0.104941
-0.10351
-0.102172
-0.100759
-0.099235
-0.0975865
-0.0958214
-0.0939751
-0.0922241
-0.0901871
-0.088032
-0.0859761
-0.0836472
-0.0813896
-0.0789298
-0.0764191
-0.0739023
-0.071288
-0.114441
-0.114334
-0.114113
-0.113816
-0.113623
-0.113156
-0.112785
-0.112322
-0.111705
-0.110887
-0.110252
-0.109444
-0.108486
-0.107435
-0.106479
-0.105249
-0.104081
-0.102642
-0.101303
-0.099882
-0.0983449
-0.0966896
-0.0949205
-0.0930639
-0.0913049
-0.0892601
-0.0870977
-0.0850377
-0.0827053
-0.0804456
-0.0779833
-0.075471
-0.0729539
-0.0703386
-0.113153
-0.113042
-0.112926
-0.112787
-0.112434
-0.112131
-0.111547
-0.111067
-0.110516
-0.109852
-0.109079
-0.108194
-0.107233
-0.106386
-0.10527
-0.104207
-0.102874
-0.101609
-0.100238
-0.0986194
-0.0969509
-0.0953139
-0.0937905
-0.091978
-0.0900157
-0.0879498
-0.0859857
-0.0837572
-0.0815913
-0.0791538
-0.0768063
-0.0743654
-0.0716339
-0.068982
-0.111753
-0.111639
-0.11152
-0.11138
-0.111025
-0.110721
-0.110133
-0.109654
-0.109099
-0.108437
-0.107658
-0.106764
-0.105798
-0.104933
-0.103762
-0.102479
-0.101319
-0.100096
-0.0987373
-0.0970513
-0.0954437
-0.0937691
-0.0920319
-0.0903948
-0.0884654
-0.0863864
-0.0842209
-0.0821469
-0.0798095
-0.0775558
-0.0752144
-0.0725706
-0.0699986
-0.0673448
-0.110219
-0.110097
-0.109863
-0.109559
-0.109359
-0.108884
-0.108491
-0.107973
-0.10714
-0.106407
-0.105621
-0.10478
-0.104039
-0.102992
-0.101812
-0.100711
-0.0993405
-0.0980719
-0.0967221
-0.0952657
-0.0937032
-0.0920418
-0.0902813
-0.0884067
-0.0864089
-0.0843202
-0.0823447
-0.0801039
-0.077922
-0.0754664
-0.0730751
-0.0704064
-0.0678336
-0.0651854
-0.108006
-0.107892
-0.107666
-0.107362
-0.107161
-0.106672
-0.106235
-0.105507
-0.104868
-0.104177
-0.103405
-0.102568
-0.101826
-0.100771
-0.0995847
-0.0984695
-0.0970778
-0.095778
-0.0944111
-0.0929139
-0.0911075
-0.08942
-0.0878762
-0.0860466
-0.0840609
-0.0819483
-0.0797569
-0.0776641
-0.0753026
-0.0730018
-0.0704283
-0.0679366
-0.0653693
-0.0626839
-0.105067
-0.10496
-0.104784
-0.104719
-0.104365
-0.104057
-0.103465
-0.102967
-0.102398
-0.101722
-0.100934
-0.100039
-0.099045
-0.097961
-0.0969598
-0.0956898
-0.09446
-0.0929652
-0.0915689
-0.0901006
-0.0885191
-0.0868273
-0.0850333
-0.0831242
-0.0810951
-0.0789762
-0.0769641
-0.0746709
-0.0722593
-0.0699665
-0.0675818
-0.0649054
-0.0622969
-0.0595983
-0.101946
-0.101842
-0.101671
-0.101599
-0.101239
-0.100928
-0.100333
-0.0998373
-0.0992676
-0.0985905
-0.0977982
-0.0968908
-0.0958687
-0.094737
-0.0935216
-0.0923974
-0.0910732
-0.0897001
-0.0883328
-0.0868498
-0.085214
-0.0833422
-0.0815196
-0.0797578
-0.0777744
-0.0756444
-0.0734276
-0.0713022
-0.0689114
-0.0665955
-0.0640107
-0.06148
-0.0586888
-0.055997
-0.0986029
-0.0984852
-0.0982623
-0.097966
-0.0977589
-0.0972816
-0.0968508
-0.096149
-0.0955365
-0.0948372
-0.0940345
-0.0931275
-0.0921002
-0.0910527
-0.0899682
-0.0886767
-0.0874326
-0.0859178
-0.0845042
-0.0830191
-0.081424
-0.0797056
-0.0778784
-0.0759472
-0.0738996
-0.0717445
-0.0695152
-0.0673909
-0.0650041
-0.0626768
-0.0600738
-0.0575376
-0.0547389
-0.05204
-0.0944318
-0.0944186
-0.0943531
-0.0940557
-0.0936492
-0.0933236
-0.0927961
-0.0922162
-0.0916213
-0.0909244
-0.0901225
-0.0892137
-0.0881829
-0.0870548
-0.0860162
-0.0846815
-0.0832992
-0.0818935
-0.0804632
-0.0787934
-0.0770573
-0.0753255
-0.0734996
-0.0715698
-0.0695241
-0.0674604
-0.065351
-0.0630408
-0.0606104
-0.0582686
-0.0556563
-0.0531115
-0.0503804
-0.0476127
-0.0904175
-0.0903057
-0.0901824
-0.090008
-0.0896288
-0.0893078
-0.0887087
-0.0882009
-0.0876027
-0.086883
-0.0860548
-0.0851291
-0.0840954
-0.0829426
-0.0817011
-0.0805488
-0.0791192
-0.0777512
-0.0761052
-0.0745299
-0.0728815
-0.0711379
-0.0692915
-0.0673418
-0.0652882
-0.0631309
-0.0608702
-0.0585966
-0.056276
-0.0537721
-0.0513306
-0.0486315
-0.0459996
-0.0431974
-0.0866482
-0.0865849
-0.0865453
-0.0862629
-0.0859212
-0.0855223
-0.0849853
-0.0844812
-0.0838205
-0.0831127
-0.0822874
-0.0813471
-0.0802937
-0.0791268
-0.0779479
-0.0767177
-0.0753559
-0.0738931
-0.0722929
-0.0707039
-0.068954
-0.0671859
-0.0653224
-0.0633631
-0.0613074
-0.0591428
-0.0568697
-0.0545888
-0.0522637
-0.0497372
-0.0471801
-0.044555
-0.0418289
-0.0391115
-0.0844093
-0.0842962
-0.0840791
-0.0837864
-0.083594
-0.0831224
-0.0827259
-0.0821439
-0.0813995
-0.0806617
-0.079831
-0.0788753
-0.0777941
-0.0766246
-0.0755635
-0.0742402
-0.0728921
-0.071413
-0.0699258
-0.0682488
-0.0664214
-0.0646065
-0.0627245
-0.0607467
-0.0586662
-0.0564857
-0.0542318
-0.052007
-0.0496628
-0.0471259
-0.044602
-0.0419741
-0.0392507
-0.0364217
-0.135983
-0.135927
-0.135972
-0.135729
-0.135445
-0.135158
-0.134831
-0.134259
-0.133661
-0.133093
-0.132557
-0.132017
-0.131241
-0.130354
-0.129562
-0.128526
-0.127578
-0.126561
-0.125421
-0.124072
-0.12289
-0.121524
-0.120023
-0.118408
-0.11672
-0.115146
-0.113314
-0.111558
-0.109531
-0.107602
-0.105616
-0.103502
-0.101074
-0.0987273
-0.136031
-0.135944
-0.135755
-0.135488
-0.135323
-0.134919
-0.134628
-0.134262
-0.133796
-0.133233
-0.132576
-0.131829
-0.131009
-0.130295
-0.129337
-0.128436
-0.127285
-0.126225
-0.125106
-0.123901
-0.122609
-0.121202
-0.119688
-0.1181
-0.116624
-0.114901
-0.113241
-0.111313
-0.109447
-0.107318
-0.105288
-0.103187
-0.100979
-0.0986794
-0.135408
-0.135541
-0.135388
-0.1351
-0.13481
-0.134534
-0.134257
-0.133832
-0.133104
-0.132489
-0.131937
-0.13139
-0.130609
-0.129716
-0.128918
-0.127866
-0.126905
-0.125888
-0.124781
-0.123571
-0.122256
-0.120836
-0.119312
-0.117685
-0.115989
-0.114411
-0.112574
-0.110814
-0.108783
-0.106847
-0.104852
-0.102737
-0.100309
-0.0979614
-0.134797
-0.134879
-0.134742
-0.134492
-0.134328
-0.133927
-0.133612
-0.133184
-0.132514
-0.131895
-0.131284
-0.130728
-0.12994
-0.129042
-0.128229
-0.127161
-0.126194
-0.125168
-0.124056
-0.12284
-0.121517
-0.120089
-0.118559
-0.116926
-0.115217
-0.113629
-0.111786
-0.110021
-0.107986
-0.106049
-0.104052
-0.101934
-0.0995028
-0.0971516
-0.134008
-0.133905
-0.133729
-0.133658
-0.13334
-0.133083
-0.132576
-0.132179
-0.131711
-0.131147
-0.130479
-0.129721
-0.1289
-0.128189
-0.12723
-0.126353
-0.125381
-0.124129
-0.122967
-0.121728
-0.120391
-0.118952
-0.11744
-0.116028
-0.114349
-0.11256
-0.110876
-0.108927
-0.10705
-0.104907
-0.102863
-0.10075
-0.098533
-0.0962147
-0.132842
-0.132731
-0.132548
-0.132481
-0.132165
-0.13191
-0.131404
-0.131009
-0.130544
-0.12998
-0.129307
-0.128539
-0.127707
-0.126986
-0.126007
-0.125086
-0.123914
-0.122847
-0.121716
-0.120485
-0.119144
-0.117695
-0.116148
-0.114538
-0.113038
-0.111282
-0.109604
-0.107652
-0.10577
-0.103613
-0.101549
-0.0994119
-0.0970822
-0.0945824
-0.13148
-0.131381
-0.13119
-0.130932
-0.130775
-0.130374
-0.130058
-0.129629
-0.128893
-0.12827
-0.127636
-0.127114
-0.126299
-0.125375
-0.124543
-0.123461
-0.122459
-0.121368
-0.11999
-0.118701
-0.117352
-0.11594
-0.114631
-0.113041
-0.111311
-0.10949
-0.107794
-0.105832
-0.103936
-0.101761
-0.099685
-0.0975385
-0.0952932
-0.0929339
-0.129639
-0.12955
-0.129363
-0.129107
-0.128957
-0.128543
-0.128215
-0.127708
-0.127029
-0.126403
-0.125772
-0.125257
-0.124449
-0.123526
-0.122681
-0.121574
-0.120519
-0.119208
-0.117999
-0.116738
-0.115384
-0.11394
-0.112433
-0.110953
-0.109311
-0.107484
-0.105766
-0.103784
-0.101875
-0.0996912
-0.0975937
-0.0954059
-0.0929205
-0.0905209
-0.127154
-0.12707
-0.126933
-0.126894
-0.126582
-0.126323
-0.125791
-0.125369
-0.124882
-0.124307
-0.123636
-0.122874
-0.122041
-0.121305
-0.12031
-0.119358
-0.11814
-0.117013
-0.115822
-0.114548
-0.11318
-0.111724
-0.11017
-0.108507
-0.106727
-0.104874
-0.103138
-0.101139
-0.0992058
-0.0970083
-0.0949033
-0.0926901
-0.0901778
-0.0877613
-0.124527
-0.124481
-0.124535
-0.124299
-0.123948
-0.123671
-0.123131
-0.122701
-0.122219
-0.121642
-0.120966
-0.120194
-0.11934
-0.11859
-0.117576
-0.116622
-0.115397
-0.114268
-0.113063
-0.111722
-0.110087
-0.108585
-0.107242
-0.105619
-0.103846
-0.101978
-0.100224
-0.0981821
-0.0960362
-0.094011
-0.0918996
-0.089496
-0.0871784
-0.0848002
-0.121671
-0.121567
-0.121369
-0.121167
-0.120944
-0.120526
-0.120204
-0.119808
-0.119276
-0.118446
-0.117809
-0.117184
-0.116338
-0.115383
-0.11451
-0.113373
-0.112288
-0.110953
-0.109726
-0.108432
-0.10703
-0.10553
-0.103936
-0.102233
-0.100423
-0.0985428
-0.0967781
-0.0947585
-0.0927945
-0.090569
-0.0884022
-0.0859571
-0.0836114
-0.0812071
-0.118338
-0.118232
-0.118031
-0.11782
-0.117593
-0.117173
-0.116845
-0.116403
-0.115718
-0.114993
-0.114387
-0.113772
-0.112926
-0.111921
-0.110825
-0.109829
-0.10864
-0.107428
-0.106225
-0.104885
-0.103308
-0.101684
-0.100091
-0.0986059
-0.0968373
-0.0949391
-0.0929501
-0.0910525
-0.0888982
-0.0868011
-0.0844394
-0.0821317
-0.0795568
-0.07709
-0.114857
-0.114742
-0.114523
-0.114298
-0.114061
-0.113693
-0.113293
-0.112872
-0.112296
-0.111495
-0.110742
-0.109978
-0.109246
-0.108273
-0.107252
-0.106193
-0.104937
-0.103767
-0.102503
-0.101014
-0.0994665
-0.0979257
-0.0962932
-0.0945674
-0.0928321
-0.0910528
-0.0890631
-0.0869619
-0.0849485
-0.0826652
-0.0804428
-0.0779482
-0.0755406
-0.0730483
-0.111404
-0.111347
-0.111324
-0.111066
-0.110759
-0.110411
-0.109931
-0.109486
-0.108899
-0.108272
-0.107547
-0.106726
-0.105881
-0.104886
-0.103919
-0.102829
-0.101644
-0.10033
-0.0989538
-0.0975421
-0.095915
-0.0943159
-0.0926582
-0.090938
-0.089253
-0.0873627
-0.0853276
-0.0832637
-0.0811596
-0.0789332
-0.0766223
-0.0741856
-0.0716613
-0.0690226
-0.109281
-0.109188
-0.10904
-0.108987
-0.108658
-0.108329
-0.107859
-0.107413
-0.106824
-0.106201
-0.10547
-0.104633
-0.103762
-0.102723
-0.101606
-0.100586
-0.0993052
-0.0981062
-0.0967284
-0.0951959
-0.0936814
-0.0921097
-0.0904446
-0.0886755
-0.0868094
-0.0848655
-0.0829559
-0.0809094
-0.0786715
-0.0764404
-0.07409
-0.0716513
-0.0690994
-0.0665629
-0.15266
-0.152576
-0.152492
-0.152395
-0.152118
-0.151925
-0.151632
-0.151065
-0.150605
-0.150117
-0.149658
-0.1492
-0.148523
-0.147756
-0.147112
-0.146397
-0.145417
-0.144523
-0.143573
-0.142531
-0.141406
-0.14021
-0.139118
-0.137772
-0.136332
-0.135009
-0.133444
-0.131976
-0.130428
-0.128605
-0.126885
-0.125105
-0.123241
-0.121279
-0.152481
-0.152554
-0.152432
-0.152216
-0.152079
-0.151727
-0.151471
-0.151147
-0.150742
-0.15026
-0.14969
-0.149036
-0.148319
-0.147714
-0.146893
-0.146159
-0.14533
-0.144298
-0.143247
-0.142236
-0.141334
-0.140168
-0.138888
-0.137531
-0.136285
-0.134806
-0.133399
-0.131745
-0.130187
-0.128563
-0.126838
-0.124825
-0.122898
-0.120913
-0.152124
-0.152045
-0.151961
-0.15186
-0.151583
-0.151398
-0.151117
-0.150622
-0.150101
-0.149617
-0.14917
-0.148702
-0.148014
-0.147241
-0.146584
-0.145857
-0.144862
-0.143961
-0.143006
-0.14196
-0.140826