/*--------------------------------*- C++ -*----------------------------------*\
| =========                 |                                                 |
| \\      /  F ield         | OpenFOAM: The Open Source CFD Toolbox           |
|  \\    /   O peration     | Version:  2412                                  |
|   \\  /    A nd           | Website:  www.openfoam.com                      |
|    \\/     M anipulation  |                                                 |
\*---------------------------------------------------------------------------*/
FoamFile
{
    version     2.0;
    format      ascii;
    arch        "LSB;label=32;scalar=64";
    class       volScalarField;
    location    "0.0350058";
    object      Vm_0;
}
// * * * * * * * * * * * * * * * * * * * * * * * * * * * * * * * * * * * * * //

dimensions      [1 2 -3 0 0 -1 0];

internalField   nonuniform List<scalar> 
8796
(
-0.0812312
-0.0812498
-0.0812852
-0.0813369
-0.0814048
-0.0814877
-0.0815847
-0.081693
-0.081812
-0.0819404
-0.0820725
-0.0822044
-0.0823343
-0.0824601
-0.0825825
-0.0826995
-0.0828093
-0.0829127
-0.0830094
-0.0831005
-0.0831865
-0.083268
-0.0833452
-0.0834178
-0.0834893
-0.0835574
-0.0836186
-0.0836726
-0.0837195
-0.08376
-0.0837949
-0.0838251
-0.0838514
-0.0838745
-0.0813008
-0.0813166
-0.0813488
-0.081399
-0.0814662
-0.0815478
-0.0816425
-0.0817471
-0.0818603
-0.0819816
-0.0821082
-0.0822373
-0.082366
-0.0824916
-0.0826122
-0.0827257
-0.0828328
-0.0829332
-0.083028
-0.0831175
-0.0832024
-0.0832829
-0.0833591
-0.0834305
-0.0835006
-0.0835673
-0.083627
-0.0836797
-0.0837255
-0.083765
-0.083799
-0.0838285
-0.0838543
-0.083877
-0.0814233
-0.0814401
-0.0814722
-0.0815195
-0.0815827
-0.0816603
-0.0817515
-0.0818528
-0.0819636
-0.0820826
-0.0822043
-0.0823254
-0.0824442
-0.0825592
-0.082671
-0.0827778
-0.0828788
-0.0829744
-0.0830648
-0.0831507
-0.0832322
-0.0833097
-0.0833829
-0.0834521
-0.0835223
-0.0835862
-0.0836433
-0.0836934
-0.083737
-0.0837746
-0.0838071
-0.0838354
-0.0838602
-0.083882
-0.0816095
-0.0816251
-0.0816552
-0.0816987
-0.0817566
-0.0818281
-0.0819126
-0.0820068
-0.0821096
-0.0822195
-0.0823308
-0.0824406
-0.0825475
-0.0826525
-0.0827545
-0.0828522
-0.0829451
-0.0830339
-0.0831186
-0.0831996
-0.0832769
-0.0833503
-0.0834195
-0.0834881
-0.083554
-0.0836137
-0.0836667
-0.0837132
-0.0837535
-0.0837884
-0.0838187
-0.0838452
-0.0838686
-0.0838892
-0.0818346
-0.0818497
-0.081879
-0.0819208
-0.0819739
-0.0820391
-0.0821145
-0.0821992
-0.0822894
-0.0823836
-0.0824803
-0.0825776
-0.0826737
-0.0827673
-0.0828577
-0.0829444
-0.0830281
-0.0831087
-0.0831863
-0.0832614
-0.0833345
-0.0834033
-0.083468
-0.0835337
-0.0835938
-0.0836478
-0.0836955
-0.0837374
-0.0837738
-0.0838054
-0.0838331
-0.0838576
-0.0838792
-0.0838983
-0.0821012
-0.0821142
-0.08214
-0.0821779
-0.0822256
-0.082281
-0.0823444
-0.0824158
-0.0824915
-0.0825704
-0.0826516
-0.0827336
-0.0828149
-0.0828949
-0.0829732
-0.0830495
-0.0831241
-0.0831967
-0.0832674
-0.0833365
-0.083402
-0.0834637
-0.0835272
-0.0835859
-0.0836391
-0.0836866
-0.0837285
-0.0837652
-0.0837972
-0.0838254
-0.0838502
-0.0838722
-0.0838918
-0.0839091
-0.0823769
-0.0823879
-0.0824095
-0.0824405
-0.0824791
-0.0825258
-0.0825785
-0.0826366
-0.0826991
-0.0827635
-0.0828294
-0.0828964
-0.0829637
-0.0830311
-0.0830982
-0.0831648
-0.0832305
-0.0832951
-0.0833575
-0.0834168
-0.0834772
-0.0835368
-0.0835921
-0.0836425
-0.0836878
-0.0837281
-0.0837636
-0.0837949
-0.0838225
-0.0838471
-0.083869
-0.0838884
-0.0839058
-0.083921
-0.0826442
-0.0826525
-0.0826687
-0.0826923
-0.0827223
-0.0827589
-0.0828007
-0.0828471
-0.0828965
-0.0829485
-0.0830023
-0.0830576
-0.0831139
-0.0831705
-0.0832277
-0.0832854
-0.0833431
-0.0833983
-0.0834513
-0.083508
-0.0835618
-0.0836117
-0.0836575
-0.0836991
-0.0837365
-0.0837697
-0.0837991
-0.0838253
-0.0838487
-0.0838698
-0.0838886
-0.0839055
-0.0839204
-0.0839332
-0.0828883
-0.0828942
-0.082906
-0.0829234
-0.0829461
-0.082974
-0.083006
-0.0830419
-0.083081
-0.0831232
-0.0831678
-0.0832142
-0.0832612
-0.0833083
-0.0833567
-0.0834061
-0.083453
-0.0835043
-0.0835536
-0.0836003
-0.0836437
-0.0836837
-0.0837202
-0.0837532
-0.0837829
-0.0838096
-0.0838335
-0.0838552
-0.0838749
-0.0838926
-0.0839084
-0.0839225
-0.0839346
-0.0839451
-0.0831008
-0.0831054
-0.0831145
-0.0831279
-0.0831459
-0.0831678
-0.0831931
-0.0832219
-0.0832541
-0.0832887
-0.0833249
-0.0833628
-0.0834019
-0.083442
-0.0834831
-0.0835265
-0.0835689
-0.0836096
-0.0836482
-0.0836842
-0.0837175
-0.0837481
-0.0837762
-0.0838017
-0.083825
-0.0838464
-0.0838659
-0.0838836
-0.0838997
-0.0839142
-0.083927
-0.0839382
-0.0839478
-0.083956
-0.0832899
-0.0832938
-0.0833011
-0.083311
-0.0833255
-0.0833435
-0.083363
-0.0833849
-0.0834122
-0.0834395
-0.0834688
-0.083502
-0.0835359
-0.08357
-0.0836039
-0.0836371
-0.0836692
-0.0836997
-0.0837285
-0.0837553
-0.0837801
-0.0838032
-0.0838245
-0.0838443
-0.0838626
-0.0838796
-0.0838952
-0.0839095
-0.0839222
-0.0839335
-0.0839433
-0.0839519
-0.0839592
-0.0839656
-0.0834526
-0.0834533
-0.0834594
-0.0834685
-0.0834807
-0.0834955
-0.0835127
-0.0835322
-0.0835538
-0.083577
-0.0836013
-0.0836263
-0.0836515
-0.0836766
-0.0837014
-0.0837256
-0.083749
-0.0837713
-0.0837924
-0.0838123
-0.083831
-0.0838487
-0.0838652
-0.0838807
-0.0838951
-0.0839084
-0.0839205
-0.0839314
-0.083941
-0.0839494
-0.0839568
-0.0839632
-0.0839688
-0.0839736
-0.0835875
-0.0835899
-0.0835946
-0.0836016
-0.0836107
-0.0836218
-0.0836348
-0.0836493
-0.0836651
-0.083682
-0.0836997
-0.0837179
-0.0837363
-0.0837547
-0.0837728
-0.0837906
-0.0838079
-0.0838245
-0.0838406
-0.0838559
-0.0838704
-0.0838843
-0.0838973
-0.0839094
-0.0839206
-0.0839308
-0.0839399
-0.083948
-0.0839551
-0.0839615
-0.083967
-0.0839719
-0.0839762
-0.0839799
-0.0836788
-0.0836806
-0.0836842
-0.0836896
-0.0836965
-0.0837049
-0.0837147
-0.0837256
-0.0837376
-0.0837504
-0.0837638
-0.0837776
-0.0837916
-0.0838057
-0.0838198
-0.0838338
-0.0838475
-0.0838609
-0.0838738
-0.0838862
-0.0838981
-0.0839093
-0.0839197
-0.0839293
-0.083938
-0.0839458
-0.0839529
-0.0839591
-0.0839647
-0.0839697
-0.0839741
-0.0839779
-0.0839813
-0.0839843
-0.0837231
-0.0837247
-0.0837278
-0.0837324
-0.0837382
-0.0837453
-0.0837535
-0.0837628
-0.0837729
-0.0837837
-0.0837952
-0.083807
-0.0838192
-0.0838314
-0.0838437
-0.0838559
-0.083868
-0.0838797
-0.0838911
-0.083902
-0.0839124
-0.0839222
-0.0839311
-0.0839393
-0.0839467
-0.0839534
-0.0839594
-0.0839648
-0.0839696
-0.0839739
-0.0839777
-0.0839811
-0.083984
-0.0839866
-0.0644509
-0.064548
-0.0647325
-0.0650035
-0.0653784
-0.0658515
-0.0664354
-0.0671113
-0.0679012
-0.0688219
-0.0698231
-0.0708689
-0.0719337
-0.0730117
-0.0741287
-0.0752223
-0.0762151
-0.0771068
-0.0778557
-0.078482
-0.0790115
-0.0794733
-0.0799059
-0.080333
-0.0807562
-0.0811686
-0.0815612
-0.0819254
-0.0822537
-0.0825381
-0.0827752
-0.0829657
-0.083119
-0.0832463
-0.0648414
-0.0649205
-0.0650846
-0.0653616
-0.0657483
-0.0662307
-0.0668149
-0.0674777
-0.0682267
-0.0690787
-0.070028
-0.0710609
-0.0721576
-0.0732916
-0.0744155
-0.0754607
-0.0764301
-0.0772718
-0.0779935
-0.0785917
-0.0791007
-0.0795534
-0.0799813
-0.0804057
-0.080825
-0.0812317
-0.0816177
-0.0819759
-0.0822976
-0.0825743
-0.0828033
-0.0829869
-0.0831355
-0.0832604
-0.0655159
-0.0656097
-0.065788
-0.0660523
-0.0664262
-0.0669021
-0.067494
-0.068174
-0.0689637
-0.06988
-0.0708645
-0.0718769
-0.0729027
-0.0739218
-0.0749558
-0.0759437
-0.0768217
-0.0775972
-0.0782469
-0.0787963
-0.0792726
-0.0797048
-0.080124
-0.0805415
-0.080953
-0.0813512
-0.0817271
-0.0820717
-0.0823783
-0.0826399
-0.082855
-0.0830276
-0.0831681
-0.0832873
-0.0666225
-0.0667181
-0.0669012
-0.0671637
-0.067532
-0.0680033
-0.0685966
-0.0692784
-0.0700659
-0.0709732
-0.0719211
-0.0728791
-0.0738182
-0.0747819
-0.0757297
-0.076606
-0.0773686
-0.078036
-0.0785986
-0.0790851
-0.0795215
-0.0799339
-0.0803433
-0.0807499
-0.081148
-0.0815302
-0.0818874
-0.0822109
-0.0824947
-0.0827332
-0.0829276
-0.0830844
-0.0832143
-0.0833265
-0.0680237
-0.0681367
-0.0683541
-0.0686572
-0.0690323
-0.0695182
-0.0700951
-0.0707868
-0.0715275
-0.0723272
-0.0731879
-0.0740836
-0.0749828
-0.075854
-0.0766595
-0.0773662
-0.0779945
-0.0785362
-0.0790118
-0.0794375
-0.0798407
-0.0802391
-0.0806359
-0.0810259
-0.0814023
-0.0817581
-0.0820872
-0.0823823
-0.0826363
-0.0828453
-0.0830148
-0.0831535
-0.0832717
-0.0833767
-0.0699516
-0.0700646
-0.0702911
-0.0706208
-0.0710168
-0.0714661
-0.0719878
-0.0726239
-0.0733004
-0.0740146
-0.074764
-0.0755258
-0.0762685
-0.0769646
-0.0775947
-0.0781463
-0.0786366
-0.0790715
-0.0794695
-0.0798505
-0.0802297
-0.0806093
-0.0809847
-0.0813508
-0.0817007
-0.082026
-0.0823194
-0.0825765
-0.0827929
-0.0829689
-0.0831129
-0.0832344
-0.0833414
-0.0834358
-0.0722461
-0.0723552
-0.0725669
-0.0728588
-0.0732008
-0.0736332
-0.0741101
-0.0746481
-0.0752473
-0.0758379
-0.0764212
-0.0769893
-0.0775266
-0.0780221
-0.0784702
-0.0788806
-0.07926
-0.0796187
-0.0799719
-0.0803292
-0.0806889
-0.0810451
-0.0813925
-0.0817254
-0.0820366
-0.0823186
-0.0825672
-0.0827786
-0.0829529
-0.0830959
-0.0832169
-0.0833229
-0.0834188
-0.0835062
-0.0746806
-0.0747651
-0.0749307
-0.0751625
-0.0754321
-0.0757762
-0.0761505
-0.0765695
-0.0769857
-0.0773995
-0.0778062
-0.0781965
-0.078565
-0.0789123
-0.0792432
-0.0795643
-0.0798835
-0.0802077
-0.0805373
-0.0808689
-0.0811972
-0.0815173
-0.0818241
-0.0821125
-0.0823761
-0.0826086
-0.082806
-0.0829693
-0.0831054
-0.0832217
-0.0833242
-0.0834172
-0.0835025
-0.0835839
-0.0768953
-0.0769491
-0.0770545
-0.0772033
-0.0773778
-0.0775968
-0.0778348
-0.0780984
-0.0783626
-0.0786294
-0.0788967
-0.0791619
-0.0794258
-0.0796921
-0.0799663
-0.0802515
-0.0805458
-0.0808458
-0.0811472
-0.081445
-0.0817331
-0.0820068
-0.0822617
-0.0824935
-0.0826979
-0.0828722
-0.0830182
-0.0831415
-0.0832492
-0.0833461
-0.0834321
-0.0835154
-0.0835931
-0.0836608
-0.078473
-0.0785034
-0.0785631
-0.0786503
-0.0787617
-0.0788909
-0.0790422
-0.0792071
-0.0793864
-0.079578
-0.0797813
-0.0799973
-0.0802267
-0.0804677
-0.0807185
-0.0809778
-0.0812417
-0.0815052
-0.0817635
-0.0820111
-0.0822433
-0.082458
-0.0826524
-0.0828217
-0.0829663
-0.0830908
-0.0831994
-0.0832964
-0.0833833
-0.0834642
-0.0835441
-0.0836157
-0.083678
-0.0837312
-0.0795796
-0.0796007
-0.0796421
-0.0797028
-0.0797819
-0.0798788
-0.0799943
-0.0801288
-0.0802815
-0.0804503
-0.0806332
-0.0808284
-0.0810339
-0.0812466
-0.0814644
-0.0816856
-0.0819057
-0.0821193
-0.0823225
-0.08251
-0.0826793
-0.0828299
-0.0829625
-0.0830781
-0.0831805
-0.0832733
-0.0833589
-0.0834377
-0.0835139
-0.0835856
-0.0836492
-0.0837045
-0.0837517
-0.0837914
-0.0805256
-0.0805424
-0.0805766
-0.0806289
-0.080699
-0.0807859
-0.080889
-0.0810078
-0.0811423
-0.0812907
-0.0814495
-0.0816154
-0.0817853
-0.0819571
-0.0821302
-0.082301
-0.0824649
-0.0826194
-0.0827608
-0.0828884
-0.0830016
-0.0831028
-0.0831945
-0.0832788
-0.0833575
-0.0834309
-0.0835031
-0.0835721
-0.083634
-0.0836886
-0.0837359
-0.0837764
-0.0838106
-0.0838396
-0.0813533
-0.0813692
-0.0814009
-0.0814473
-0.0815073
-0.081581
-0.0816678
-0.0817667
-0.0818752
-0.0819924
-0.0821163
-0.0822445
-0.0823747
-0.082504
-0.08263
-0.0827495
-0.08286
-0.0829622
-0.0830557
-0.0831419
-0.0832225
-0.0832986
-0.0833702
-0.0834372
-0.0835037
-0.0835683
-0.0836271
-0.0836796
-0.0837257
-0.0837657
-0.0837999
-0.0838293
-0.0838546
-0.0838766
-0.0819694
-0.0819829
-0.0820098
-0.082049
-0.0820991
-0.0821584
-0.0822274
-0.0823038
-0.0823869
-0.0824761
-0.0825698
-0.0826635
-0.0827555
-0.0828448
-0.0829314
-0.0830143
-0.083093
-0.0831676
-0.0832386
-0.0833064
-0.0833728
-0.0834351
-0.0834974
-0.0835584
-0.0836147
-0.0836658
-0.0837113
-0.0837513
-0.083786
-0.083816
-0.083842
-0.0838648
-0.0838849
-0.0839027
-0.0822876
-0.0822993
-0.0823224
-0.0823549
-0.0823954
-0.0824446
-0.0825013
-0.0825649
-0.0826328
-0.0827042
-0.0827781
-0.0828528
-0.0829268
-0.0829992
-0.0830696
-0.0831381
-0.0832047
-0.0832693
-0.0833326
-0.0833931
-0.0834514
-0.083513
-0.0835708
-0.0836241
-0.0836723
-0.0837155
-0.0837535
-0.0837867
-0.0838156
-0.0838409
-0.0838633
-0.0838832
-0.0839009
-0.0839166
0.035088
0.0350581
0.0350277
0.0351085
0.0349913
0.0349088
0.0345491
0.0341607
0.0334278
0.0319598
0.0300139
0.0272058
0.0232825
0.0182471
0.0105303
0.00048391
-0.0104884
-0.0226999
-0.0335895
-0.042721
-0.0497477
-0.0542925
-0.0570787
-0.0588622
-0.0606829
-0.0626666
-0.0648048
-0.0670867
-0.0694984
-0.0719275
-0.0742798
-0.0762717
-0.0777681
-0.0787945
0.0349006
0.0349076
0.0350303
0.0349343
0.0347381
0.0345965
0.0341714
0.033748
0.0330682
0.0319091
0.0300505
0.0271439
0.0227508
0.0164477
0.00802042
-0.00165754
-0.0133292
-0.0247805
-0.0357504
-0.0443473
-0.0506877
-0.0549332
-0.0574757
-0.0591738
-0.0610066
-0.0629958
-0.0651394
-0.0674482
-0.069874
-0.0722979
-0.0746006
-0.0765078
-0.0779162
-0.0788953
0.0348188
0.0347721
0.0347125
0.0347565
0.0345564
0.0343532
0.0337965
0.0331481
0.0320267
0.029942
0.02722
0.0234525
0.0184094
0.0122018
0.00330884
-0.00748569
-0.0184882
-0.0298762
-0.0394326
-0.0470153
-0.0525352
-0.0559709
-0.058023
-0.0597314
-0.0615973
-0.0636274
-0.0658077
-0.0681176
-0.0705298
-0.0729075
-0.0751226
-0.0769041
-0.0781918
-0.0790802
0.034309
0.0342256
0.0341003
0.0340733
0.0337577
0.0333794
0.032536
0.0314938
0.0298172
0.0269011
0.0232291
0.0185594
0.0130731
0.00516579
-0.00481887
-0.0158872
-0.0263508
-0.0364622
-0.0444673
-0.0505164
-0.0547221
-0.0572334
-0.0589027
-0.0606487
-0.0625573
-0.0646283
-0.066844
-0.0691686
-0.0715554
-0.0738495
-0.0758898
-0.0774547
-0.0785584
-0.0793388
0.0334908
0.0333024
0.0329412
0.0324595
0.032001
0.0310553
0.0298467
0.0277647
0.025278
0.0219
0.0172438
0.0109988
0.00305756
-0.00642767
-0.0167115
-0.0263424
-0.0357947
-0.0435542
-0.0497685
-0.0539987
-0.0567651
-0.0584972
-0.0601555
-0.0619566
-0.0639012
-0.0659866
-0.0682252
-0.0705754
-0.0729112
-0.0750422
-0.0768009
-0.0780795
-0.0789795
-0.0796571
0.0305021
0.030146
0.0294057
0.0282875
0.0269127
0.0255703
0.0236373
0.020326
0.0164829
0.0116476
0.00543726
-0.00223541
-0.0111013
-0.0205903
-0.0298902
-0.0379038
-0.0450064
-0.0503759
-0.0542767
-0.0568107
-0.0584515
-0.0600292
-0.0617502
-0.0636235
-0.0656461
-0.0677935
-0.0700289
-0.072309
-0.074491
-0.0763269
-0.0777274
-0.0787133
-0.0794342
-0.0800367
0.0225245
0.0218747
0.0205931
0.0188368
0.0170561
0.014061
0.0107942
0.00642286
0.000189019
-0.00626459
-0.0133616
-0.0210412
-0.0288755
-0.0363065
-0.0426326
-0.0481429
-0.0524161
-0.0553885
-0.0574198
-0.0588445
-0.060381
-0.0620484
-0.0638555
-0.0658053
-0.0678788
-0.0700309
-0.0722256
-0.0743485
-0.0761844
-0.0775797
-0.0785856
-0.0793195
-0.0799217
-0.0804845
0.0064039
0.00550291
0.0037127
0.00123654
-0.00123781
-0.00530095
-0.00962226
-0.0153984
-0.0210238
-0.0268737
-0.0328764
-0.0387031
-0.0440079
-0.0485541
-0.0522339
-0.0550051
-0.0569661
-0.0583463
-0.0597023
-0.0611867
-0.0627937
-0.0645305
-0.0664035
-0.0684107
-0.0705183
-0.0726395
-0.0746501
-0.0763457
-0.0776651
-0.0786214
-0.0793267
-0.0799116
-0.0804606
-0.0809862
-0.0195413
-0.0203876
-0.0220481
-0.0243264
-0.0265772
-0.0299882
-0.0334062
-0.0375809
-0.0413527
-0.0449823
-0.0483807
-0.0513804
-0.0538766
-0.0558489
-0.0573585
-0.0585074
-0.0597288
-0.0610715
-0.0625384
-0.0641323
-0.0658364
-0.0676528
-0.0695712
-0.0715505
-0.0735188
-0.0753415
-0.0768545
-0.0779882
-0.0788224
-0.0794625
-0.0800143
-0.0805416
-0.0810483
-0.0815241
-0.0426487
-0.0430949
-0.0439722
-0.0452415
-0.0467792
-0.0482979
-0.0501484
-0.0518549
-0.0535186
-0.0550649
-0.0564001
-0.0574864
-0.0583918
-0.0593809
-0.0604672
-0.0616779
-0.0630103
-0.0644575
-0.0660222
-0.0676778
-0.0694123
-0.0712205
-0.073078
-0.0748212
-0.0763142
-0.0775301
-0.0784517
-0.0791447
-0.0797079
-0.0802238
-0.080723
-0.0812015
-0.08165
-0.0820578
-0.0550393
-0.0551829
-0.0554644
-0.0558742
-0.0563707
-0.0568594
-0.0574417
-0.0579696
-0.0585896
-0.0592919
-0.0600795
-0.0609595
-0.0619364
-0.0630109
-0.0641922
-0.0655039
-0.0669339
-0.0684627
-0.0700771
-0.0717155
-0.0733288
-0.0748781
-0.0762841
-0.0774244
-0.0783082
-0.0789916
-0.0795484
-0.0800477
-0.0805296
-0.0809961
-0.0814398
-0.0818506
-0.082219
-0.0825377
-0.0595873
-0.0596559
-0.0597957
-0.0600219
-0.0603325
-0.0607219
-0.0612007
-0.0617696
-0.0624436
-0.063229
-0.0641077
-0.0650748
-0.0661257
-0.0672626
-0.0685182
-0.0698712
-0.0712828
-0.072745
-0.0741767
-0.0755258
-0.0766833
-0.0776381
-0.0784063
-0.0790211
-0.0795359
-0.0800051
-0.0804616
-0.0809057
-0.0813308
-0.08173
-0.0820952
-0.0824183
-0.0826909
-0.082911
-0.0634808
-0.0635718
-0.0637539
-0.0640195
-0.0643613
-0.0647942
-0.0653208
-0.0659463
-0.0666574
-0.0674649
-0.0683722
-0.0693767
-0.0704727
-0.0716453
-0.0728705
-0.0740992
-0.0752431
-0.0763036
-0.0772145
-0.0779829
-0.0786185
-0.079144
-0.079604
-0.0800353
-0.0804598
-0.0808773
-0.0812809
-0.0816629
-0.0820165
-0.0823343
-0.0826082
-0.082835
-0.0830166
-0.0831625
-0.0672276
-0.0673342
-0.0675461
-0.0678524
-0.0682407
-0.0686978
-0.0692536
-0.0698756
-0.0705835
-0.0713882
-0.0723017
-0.0732449
-0.0741851
-0.0750925
-0.075992
-0.076828
-0.0775544
-0.078185
-0.078721
-0.0791863
-0.079608
-0.0800101
-0.0804082
-0.080802
-0.0811871
-0.0815576
-0.0819057
-0.0822224
-0.0825002
-0.0827361
-0.0829293
-0.0830851
-0.083214
-0.0833255
-0.0697005
-0.069804
-0.0700168
-0.0703106
-0.0706632
-0.0711074
-0.0716375
-0.0722583
-0.0729272
-0.0736454
-0.0744112
-0.0751953
-0.0759658
-0.0766936
-0.0773602
-0.077953
-0.0784682
-0.0789255
-0.0793398
-0.0797294
-0.0801136
-0.0804995
-0.0808816
-0.0812537
-0.08161
-0.0819437
-0.0822469
-0.0825123
-0.0827378
-0.0829238
-0.0830758
-0.0832029
-0.0833132
-0.0834122
0.0333197
0.0332998
0.0332724
0.0332596
0.0333234
0.0333079
0.0333578
0.033401
0.0333637
0.0331535
0.0330098
0.0328953
0.0328764
0.0327381
0.032556
0.0325028
0.0324166
0.0325014
0.0325893
0.0329005
0.0333179
0.0337781
0.0342224
0.0345957
0.0348346
0.034845
0.0344446
0.0333055
0.0301135
0.0233569
0.00974379
-0.0097801
-0.0308893
-0.04615
0.0332383
0.0332618
0.0333668
0.0333602
0.0333211
0.0333495
0.0332906
0.0333156
0.0333301
0.0332897
0.0331979
0.0330519
0.0328589
0.0326277
0.0324228
0.032397
0.0323279
0.0324777
0.0327097
0.0329125
0.0333099
0.0337618
0.0341949
0.0345494
0.0347681
0.0347623
0.0344081
0.0328377
0.0290875
0.0214486
0.00677645
-0.0130541
-0.0329684
-0.0475614
0.03332
0.0333079
0.0333106
0.0333916
0.0333515
0.0332903
0.0333072
0.0333245
0.0332622
0.0330213
0.0328565
0.0327313
0.032716
0.0325912
0.032442
0.0324455
0.032426
0.0325851
0.0327362
0.0330949
0.0335387
0.0340002
0.0344198
0.0347432
0.0348929
0.0347366
0.0340159
0.0322477
0.0277704
0.0188248
0.00249386
-0.0180449
-0.0373512
-0.0498745
0.0332862
0.0332667
0.0332588
0.0333429
0.0333259
0.0333455
0.0332494
0.0332121
0.0331171
0.0328442
0.0326667
0.0325546
0.0325808
0.0324685
0.0323623
0.0324293
0.0324823
0.0327087
0.0329152
0.033314
0.033764
0.0342091
0.0345898
0.0348486
0.0348831
0.0345076
0.0333453
0.0307167
0.0245609
0.0131141
-0.00549998
-0.0259646
-0.0428464
-0.0527784
0.0333848
0.033351
0.0332876
0.0332275
0.0332528
0.0331677
0.0331186
0.0329411
0.032854
0.0327632
0.0326479
0.0325111
0.0323787
0.0322961
0.0323981
0.0324792
0.0327193
0.0329293
0.033316
0.0337294
0.0340049
0.0343683
0.0346688
0.0348155
0.0346902
0.0341261
0.0321332
0.0274973
0.0181714
0.00309077
-0.0171792
-0.0356832
-0.0486354
-0.0555977
0.033042
0.0331306
0.0330741
0.0329502
0.0328294
0.0328121
0.0326915
0.0326259
0.0325876
0.0325415
0.0324743
0.0323985
0.0323456
0.0323674
0.0325729
0.0327134
0.0329115
0.0333035
0.0337282
0.0340106
0.0343755
0.0346903
0.0348583
0.0347477
0.0341251
0.0325463
0.0291553
0.0215517
0.00783398
-0.0106144
-0.0303545
-0.0450624
-0.0537643
-0.0577573
0.0328124
0.032762
0.0326649
0.032567
0.0325844
0.0324709
0.0324369
0.0322863
0.032229
0.0322281
0.0322501
0.032298
0.0324092
0.0326935
0.0328973
0.0331222
0.0335001
0.0337938
0.0342003
0.0345468
0.0346713
0.0347841
0.0346478
0.0340027
0.0324205
0.0291662
0.022017
0.00904856
-0.00938701
-0.0281257
-0.0433795
-0.0526394
-0.0572448
-0.0596182
0.0325214
0.03248
0.0324039
0.032337
0.0323927
0.0323136
0.0323336
0.0322355
0.0322888
0.032396
0.0325271
0.0326808
0.0328678
0.0331161
0.0335019
0.033758
0.0340124
0.0343874
0.0347122
0.0347942
0.0348495
0.0346315
0.0338313
0.03189
0.0277574
0.0197384
0.00632779
-0.0109306
-0.0294287
-0.0439411
-0.0527273
-0.0571851
-0.0595106
-0.0618521
0.0323441
0.0323263
0.0323195
0.03243
0.0324207
0.032392
0.0325272
0.0326573
0.0326802
0.0328452
0.0330551
0.033288
0.03356
0.033963
0.034219
0.03443
0.03472
0.0348161
0.0348816
0.0345883
0.0340411
0.0327482
0.0299833
0.0245799
0.0148878
-3.9408e-05
-0.0181092
-0.0343679
-0.0466914
-0.0540657
-0.0576639
-0.0598469
-0.0621545
-0.0646481
0.0328927
0.0328825
0.0328722
0.0328953
0.0330517
0.0331044
0.0332702
0.0333332
0.0335249
0.0337535
0.0339838
0.0342012
0.034402
0.0346037
0.0348864
0.0349307
0.0348302
0.0346469
0.0339493
0.0327847
0.0304817
0.0259293
0.0172848
0.00472034
-0.0105099
-0.027267
-0.0413595
-0.0507576
-0.0559874
-0.0585166
-0.0606252
-0.0629036
-0.0653685
-0.0680107
0.0337598
0.0337557
0.0337573
0.0337882
0.0339594
0.0340277
0.0342227
0.034406
0.0344384
0.034582
0.0347278
0.0348418
0.034899
0.0348908
0.0348625
0.0343919
0.0334567
0.0319145
0.0288862
0.0241029
0.0164597
0.00496194
-0.0106482
-0.0262298
-0.0394674
-0.0488867
-0.0547607
-0.0577833
-0.0597778
-0.0618863
-0.0641656
-0.0665985
-0.0691682
-0.0718255
0.0345948
0.0346221
0.0347804
0.0347924
0.0347984
0.0349215
0.0349162
0.0350135
0.0350552
0.0348816
0.0347571
0.0345257
0.0341143
0.0335163
0.0321071
0.0296884
0.0260117
0.0196497
0.010658
-0.00197554
-0.0156852
-0.0291385
-0.0407229
-0.0492402
-0.0546359
-0.0575841
-0.0594778
-0.0614451
-0.0635549
-0.0658276
-0.0682451
-0.0707757
-0.0732668
-0.0755561
0.0352635
0.035227
0.0351562
0.0350753
0.0351133
0.0349781
0.0348794
0.0345455
0.0342268
0.0336889
0.0327539
0.031233
0.0287782
0.0249044
0.0189893
0.0107802
0.00103316
-0.0111125
-0.0231544
-0.0344625
-0.0440635
-0.050759
-0.0551164
-0.0576595
-0.0594178
-0.0612681
-0.0632596
-0.0653927
-0.0676782
-0.0700802
-0.0724815
-0.074771
-0.0766726
-0.0780731
0.0345338
0.0343917
0.0340988
0.0336664
0.0331359
0.0326141
0.0316484
0.0305535
0.028979
0.0264312
0.0221618
0.0168773
0.0103205
0.00286553
-0.0069756
-0.0179401
-0.0281638
-0.0378285
-0.0454678
-0.0512279
-0.0550837
-0.0574812
-0.0591015
-0.0608172
-0.0626822
-0.0647079
-0.0668855
-0.0691742
-0.0714949
-0.0737764
-0.0758123
-0.0773903
-0.0785154
-0.0793088
0.0316461
0.0313365
0.0307397
0.0299507
0.0291935
0.0277269
0.0259199
0.0229724
0.0195996
0.0152212
0.00940601
0.00208008
-0.00657259
-0.0160588
-0.0257392
-0.0347586
-0.0421672
-0.0483224
-0.0528143
-0.0558985
-0.0578365
-0.0594185
-0.0611249
-0.0629722
-0.0649692
-0.0671118
-0.0693597
-0.0716215
-0.0738299
-0.0757979
-0.0773296
-0.0784337
-0.0792248
-0.0798537
0.0268392
0.0268418
0.0268567
0.0269065
0.0270343
0.0271383
0.0273119
0.0274944
0.0276239
0.0278179
0.0280563
0.0283408
0.028704
0.0290128
0.02933
0.0297259
0.0300846
0.0305156
0.0309475
0.0313136
0.0317473
0.032196
0.0326481
0.0331392
0.0334856
0.0337243
0.0338762
0.033987
0.0338464
0.0336308
0.0332294
0.0330666
0.0331793
0.0334519
0.0268505
0.0268659
0.0269132
0.0270285
0.027118
0.0272598
0.0273775
0.0275706
0.0277885
0.028021
0.0282634
0.0285163
0.0287854
0.0290798
0.0294556
0.0298059
0.0302105
0.0305805
0.0310215
0.0314738
0.0319305
0.0323736
0.0327889
0.0331641
0.0334721
0.0337164
0.0339406
0.0339242
0.0337265
0.0335093
0.0332321
0.0330021
0.0331686
0.0335884
0.0270695
0.0270741
0.0270933
0.0271484
0.0272739
0.0273758
0.0275501
0.0277355
0.0278682
0.0280622
0.0283026
0.0285912
0.0289553
0.029265
0.029584
0.0299788
0.0303347
0.0307633
0.031192
0.0315518
0.0319712
0.0324025
0.0328339
0.0333001
0.0336117
0.033804
0.0338974
0.0339419
0.0337296
0.0334742
0.0330999
0.0330475
0.0332894
0.0336417
0.0273004
0.0273067
0.0273291
0.0273856
0.0275156
0.0276262
0.0278084
0.0280128
0.0282057
0.0283483
0.0285908
0.0289333
0.0292353
0.0295231
0.0298353
0.0302283
0.0305835
0.0310154
0.0314613
0.0318824
0.0322155
0.032605
0.0330059
0.0334409
0.0337129
0.0338545
0.0338855
0.0338642
0.0335934
0.0333232
0.0330118
0.0330804
0.0334346
0.0338412
0.0275825
0.0276177
0.0277224
0.0277842
0.0278641
0.0280249
0.0282
0.0283289
0.0285313
0.0287612
0.0290066
0.0292636
0.0295325
0.0298348
0.0302219
0.0305669
0.0309666
0.0313145
0.0317378
0.0321677
0.032575
0.0329572
0.0332963
0.0335701
0.033758
0.0338598
0.03391
0.0337092
0.0334526
0.0331218
0.0330408
0.0331524
0.0336208
0.0341825
0.0280504
0.0280917
0.0282003
0.0282569
0.0283235
0.0284661
0.0285812
0.0287758
0.0290039
0.0292482
0.029499
0.0297553
0.0300248
0.0303294
0.0307149
0.031049
0.0314356
0.0317711
0.0321732
0.0325768
0.0329623
0.0333075
0.0335902
0.0337879
0.0338781
0.0338649
0.0338103
0.0334898
0.0331056
0.032982
0.0330122
0.0334224
0.0339828
0.0344007
0.0287519
0.0287608
0.0287802
0.0288287
0.0289627
0.0290645
0.0292406
0.0294213
0.0295544
0.0297663
0.0300101
0.0302745
0.0305735
0.0309565
0.031285
0.0316597
0.031974
0.0323275
0.0326169
0.0329608
0.0332833
0.033556
0.0337481
0.0338322
0.0337938
0.0336487
0.0334688
0.0331148
0.0328611
0.0330141
0.0334077
0.0338242
0.0343585
0.0346508
0.0293736
0.0294657
0.0295121
0.0295727
0.0297101
0.0298026
0.0299593
0.0300736
0.0302693
0.0304973
0.0307429
0.0310033
0.031293
0.0316527
0.0319366
0.0322071
0.0325333
0.0327985
0.0331179
0.0334221
0.0336811
0.0338674
0.0339485
0.0338892
0.033675
0.0333402
0.0330149
0.0329572
0.0330135
0.0334067
0.0338277
0.0343697
0.0346775
0.0348588
0.0302579
0.0302746
0.0303213
0.0304504
0.0305164
0.0305923
0.0307717
0.0309771
0.0311651
0.0312915
0.0315001
0.031757
0.0320971
0.0323689
0.0326171
0.0329176
0.0331412
0.0333843
0.0335294
0.0337047
0.0338336
0.0338668
0.0337725
0.0335448
0.0332241
0.0329233
0.032811
0.0330727
0.0334232
0.0339813
0.0344076
0.0347983
0.0347804
0.0343153
0.0312341
0.0312448
0.0312858
0.0314123
0.0314754
0.0315445
0.0317091
0.0318816
0.0319879
0.0321647
0.0323622
0.0325713
0.0327948
0.0330792
0.0332661
0.0334173
0.0336023
0.0336828
0.0337858
0.0338492
0.033825
0.0336814
0.033425
0.0331737
0.0330308
0.0330372
0.0332364
0.0336148
0.0341811
0.0345744
0.0349001
0.0347644
0.034051
0.0317267
0.0321504
0.0321579
0.0321935
0.0323175
0.0323971
0.0325312
0.0326183
0.0327799
0.0329437
0.0330918
0.0331735
0.0334004
0.0335478
0.0336557
0.0337452
0.0338594
0.0338391
0.033809
0.0336164
0.0334685
0.0333126
0.0331556
0.0330462
0.0330906
0.0332935
0.0336181
0.0340056
0.0344006
0.034819
0.0348568
0.0344519
0.0333425
0.0303687
0.0231789
0.0330983
0.0331029
0.0331128
0.0331383
0.0332448
0.0333017
0.0334256
0.033545
0.0335635
0.033634
0.0337007
0.0337539
0.0337738
0.0337741
0.0338028
0.0336828
0.0335811
0.0333174
0.0331266
0.0328646
0.0328408
0.0329827
0.033252
0.0336133
0.0340144
0.0343903
0.0346749
0.0348093
0.0347537
0.0338994
0.0318457
0.0268221
0.0167675
-0.00146354
0.0336633
0.0337665
0.0337703
0.0337412
0.033725
0.0337865
0.0337704
0.0338266
0.0338782
0.0338752
0.0337562
0.0337827
0.0336745
0.0334725
0.0332135
0.0329662
0.0328903
0.0327684
0.0328729
0.0330734
0.0332366
0.0336067
0.0340326
0.0344342
0.0347467
0.0349053
0.0348089
0.0343286
0.0325935
0.0286454
0.0208181
0.00591574
-0.0143079
-0.0348056
0.0338095
0.0339075
0.0338794
0.0337953
0.0337144
0.033722
0.033626
0.0336103
0.033561
0.0333499
0.0331807
0.0330647
0.0330704
0.0329763
0.0328533
0.0328026
0.0329665
0.0331103
0.0334536
0.0338489
0.0341274
0.0345211
0.0348861
0.0351391
0.0351722
0.0347867
0.033597
0.0308645
0.025248
0.0137038
-0.00447191
-0.0246838
-0.0418359
-0.0522238
0.0336844
0.0336421
0.0335617
0.0334858
0.0335159
0.033422
0.0333813
0.0332077
0.0331385
0.0330769
0.0329977
0.03291
0.0328352
0.0327956
0.0328389
0.0330817
0.0332916
0.0336492
0.0339342
0.0343584
0.0347458
0.034936
0.0351578
0.0352012
0.0348368
0.0336542
0.030884
0.0252258
0.0137031
-0.00422109
-0.0239692
-0.0408834
-0.0515506
-0.0567464
0.0196999
0.019709
0.0197334
0.0197858
0.0198903
0.0199929
0.0201454
0.02031
0.0204559
0.0206571
0.0209046
0.0212089
0.0214922
0.0217741
0.0220849
0.0224638
0.022863
0.0232391
0.0236669
0.0241208
0.0245959
0.0250844
0.0255884
0.0261212
0.0267072
0.0272435
0.0277851
0.0283951
0.028974
0.029631
0.0302991
0.0309122
0.0315902
0.0322737
0.0197357
0.0197498
0.0197882
0.0198747
0.0199505
0.0200456
0.0202009
0.0203893
0.0205932
0.0208126
0.0210466
0.0212951
0.021556
0.0218442
0.0221925
0.0225357
0.0229326
0.023339
0.0237242
0.0241665
0.0246377
0.0251283
0.0256463
0.0262251
0.0267658
0.0273062
0.0279081
0.0284746
0.029092
0.029685
0.0303536
0.0310275
0.0316375
0.0322989
0.0199216
0.0199313
0.0199551
0.0200076
0.0201136
0.0202184
0.0203751
0.0205448
0.0206936
0.0208954
0.0211449
0.0214517
0.0217418
0.022042
0.022394
0.022733
0.0231147
0.0234839
0.0239108
0.0243653
0.0248381
0.0253239
0.0258255
0.0263564
0.0269414
0.0274757
0.028015
0.0286226
0.0291933
0.0298275
0.0304286
0.031114
0.0318146
0.0324972
0.0201384
0.0201493
0.0201757
0.0202319
0.0203434
0.0204535
0.020617
0.0208043
0.0209944
0.0211766
0.0214482
0.0217187
0.0219922
0.0222873
0.0226373
0.0229766
0.0233576
0.0237275
0.024158
0.0246132
0.0250815
0.0255649
0.0260662
0.0265933
0.0271756
0.0277077
0.0282463
0.0288559
0.0294294
0.0300674
0.0306701
0.0313541
0.0320476
0.0327164
0.0203961
0.0204158
0.020466
0.0205655
0.0206586
0.0207921
0.0209178
0.0210943
0.0212998
0.0215218
0.0217595
0.0220126
0.0222939
0.0226354
0.022968
0.0233407
0.0237
0.0241088
0.0245315
0.0249227
0.0253763
0.025877
0.0264451
0.0269707
0.0274827
0.0280103
0.028612
0.0291829
0.0298132
0.0304097
0.0310813
0.0317468
0.0323288
0.0329449
0.0208492
0.0208688
0.0209189
0.0210187
0.0211105
0.0212424
0.0213644
0.021543
0.0217496
0.0219742
0.0222123
0.0224669
0.0227507
0.0230897
0.0234051
0.023737
0.0241381
0.024569
0.0250011
0.0253922
0.0258413
0.0263227
0.0268359
0.0274071
0.0279253
0.0284351
0.0289762
0.0295876
0.0301745
0.0308391
0.0315067
0.032094
0.0327218
0.0333181
0.0215118
0.0215203
0.0215438
0.0215981
0.0217115
0.0218167
0.0219726
0.022139
0.0222814
0.0224816
0.0227192
0.0229943
0.0233284
0.0236377
0.0239528
0.0243233
0.0246804
0.0251036
0.0255525
0.0260152