/*--------------------------------*- C++ -*----------------------------------*\
| =========                 |                                                 |
| \\      /  F ield         | OpenFOAM: The Open Source CFD Toolbox           |
|  \\    /   O peration     | Version:  2412                                  |
|   \\  /    A nd           | Website:  www.openfoam.com                      |
|    \\/     M anipulation  |                                                 |
\*---------------------------------------------------------------------------*/
FoamFile
{
    version     2.0;
    format      ascii;
    arch        "LSB;label=32;scalar=64";
    class       volScalarField;
    location    "0.0250162";
    object      ionicCurrent;
}
// * * * * * * * * * * * * * * * * * * * * * * * * * * * * * * * * * * * * * //

dimensions      [1 2 -4 0 0 -1 0];

internalField   nonuniform List<scalar> 
8796
(
2.60377e-09
2.58383e-09
2.54441e-09
2.48641e-09
2.41113e-09
2.32026e-09
2.21575e-09
2.09981e-09
1.9748e-09
1.84315e-09
1.70727e-09
1.5695e-09
1.43204e-09
1.29686e-09
1.1657e-09
1.04003e-09
9.21049e-10
8.09655e-10
7.06487e-10
6.11924e-10
5.26116e-10
4.4901e-10
3.80382e-10
3.19865e-10
2.66989e-10
2.21201e-10
1.81901e-10
1.48465e-10
1.20263e-10
9.66782e-11
7.71237e-11
6.10481e-11
4.79442e-11
3.73535e-11
2.55195e-09
2.53239e-09
2.49372e-09
2.43682e-09
2.36299e-09
2.27387e-09
2.17138e-09
2.05771e-09
1.93515e-09
1.80609e-09
1.6729e-09
1.53788e-09
1.40315e-09
1.27067e-09
1.14214e-09
1.019e-09
9.02404e-10
7.9325e-10
6.92158e-10
5.995e-10
5.15423e-10
4.39874e-10
3.72633e-10
3.13342e-10
2.61537e-10
2.16679e-10
1.78179e-10
1.45423e-10
1.17795e-10
9.46919e-11
7.55366e-11
5.97893e-11
4.69534e-11
3.65795e-11
2.44788e-09
2.42909e-09
2.39195e-09
2.33731e-09
2.26642e-09
2.18085e-09
2.08248e-09
1.97338e-09
1.85577e-09
1.73194e-09
1.60416e-09
1.47463e-09
1.34541e-09
1.21834e-09
1.09507e-09
9.76974e-10
8.65161e-10
7.60485e-10
6.63544e-10
5.74692e-10
4.94072e-10
4.21633e-10
3.57163e-10
3.00319e-10
2.50655e-10
2.07652e-10
1.70746e-10
1.39349e-10
1.12868e-10
9.07246e-11
7.23661e-11
5.72746e-11
4.49739e-11
3.50332e-11
2.29177e-09
2.27416e-09
2.23935e-09
2.18815e-09
2.12173e-09
2.04157e-09
1.94941e-09
1.84723e-09
1.73708e-09
1.62113e-09
1.50149e-09
1.38022e-09
1.25924e-09
1.14028e-09
1.02488e-09
9.14319e-10
8.09642e-10
7.11647e-10
6.20895e-10
5.3772e-10
4.62254e-10
3.94451e-10
3.34111e-10
2.80913e-10
2.34438e-10
1.942e-10
1.59671e-10
1.30297e-10
1.05525e-10
8.48123e-11
6.76414e-11
5.35275e-11
4.20248e-11
3.27301e-11
2.08653e-09
2.07049e-09
2.03879e-09
1.99217e-09
1.93168e-09
1.85869e-09
1.77478e-09
1.68175e-09
1.58147e-09
1.4759e-09
1.36698e-09
1.25656e-09
1.14641e-09
1.03809e-09
9.32994e-10
8.32306e-10
7.36975e-10
6.47731e-10
5.65085e-10
4.89343e-10
4.20627e-10
3.58894e-10
3.03961e-10
2.55534e-10
2.13233e-10
1.76613e-10
1.45191e-10
1.18464e-10
9.59261e-11
7.70845e-11
6.14667e-11
4.86313e-11
3.81721e-11
2.97224e-11
1.83974e-09
1.8256e-09
1.79766e-09
1.75656e-09
1.70325e-09
1.63891e-09
1.56495e-09
1.48295e-09
1.39455e-09
1.30148e-09
1.20545e-09
1.10808e-09
1.01093e-09
9.15386e-10
8.22681e-10
7.33855e-10
6.49754e-10
5.71023e-10
4.98116e-10
4.31305e-10
3.70696e-10
3.16252e-10
2.67811e-10
2.25112e-10
1.87818e-10
1.55537e-10
1.27841e-10
1.04286e-10
8.44278e-11
6.78281e-11
5.40716e-11
4.2768e-11
3.35596e-11
2.61218e-11
1.56412e-09
1.55211e-09
1.52837e-09
1.49345e-09
1.44814e-09
1.39347e-09
1.33062e-09
1.26092e-09
1.18578e-09
1.10667e-09
1.02501e-09
9.42218e-10
8.59593e-10
7.78326e-10
6.99467e-10
6.23903e-10
5.52358e-10
4.85382e-10
4.23363e-10
3.66534e-10
3.14985e-10
2.68683e-10
2.27491e-10
1.91186e-10
1.59481e-10
1.32041e-10
1.08503e-10
8.84876e-11
7.16161e-11
5.75169e-11
4.58351e-11
3.62393e-11
2.84241e-11
2.2114e-11
1.27667e-09
1.26688e-09
1.24751e-09
1.21903e-09
1.18207e-09
1.13746e-09
1.08618e-09
1.0293e-09
9.67976e-10
9.03391e-10
8.36727e-10
7.69124e-10
7.01652e-10
6.35285e-10
5.70879e-10
5.09165e-10
4.50733e-10
3.96034e-10
3.45386e-10
2.9898e-10
2.56888e-10
2.19085e-10
1.85457e-10
1.55823e-10
1.29947e-10
1.07556e-10
8.83534e-11
7.20285e-11
5.82713e-11
4.67783e-11
3.72592e-11
2.94428e-11
2.30797e-11
1.79445e-11
9.96315e-10
9.88676e-10
9.73574e-10
9.51357e-10
9.22526e-10
8.87724e-10
8.47705e-10
8.03311e-10
7.5544e-10
7.05017e-10
6.52965e-10
6.00175e-10
5.47484e-10
4.95654e-10
4.45357e-10
3.97163e-10
3.51534e-10
3.08824e-10
2.6928e-10
2.33051e-10
2.00194e-10
1.70688e-10
1.44445e-10
1.21323e-10
1.01138e-10
8.36755e-11
6.87034e-11
5.59802e-11
4.52623e-11
3.63121e-11
2.89029e-11
2.28224e-11
1.78757e-11
1.38862e-11
7.4079e-10
7.35107e-10
7.23873e-10
7.07345e-10
6.85896e-10
6.60002e-10
6.30224e-10
5.97188e-10
5.61562e-10
5.24035e-10
4.85294e-10
4.46004e-10
4.0679e-10
3.6822e-10
3.30794e-10
2.94937e-10
2.60993e-10
2.29225e-10
1.99817e-10
1.72879e-10
1.48453e-10
1.26522e-10
1.07022e-10
8.98457e-11
7.48562e-11
6.18936e-11
5.07848e-11
4.13491e-11
3.34055e-11
2.6776e-11
2.1292e-11
1.6795e-11
1.31395e-11
1.01944e-11
5.23373e-10
5.19348e-10
5.11392e-10
4.99687e-10
4.84499e-10
4.66164e-10
4.4508e-10
4.21692e-10
3.96473e-10
3.69911e-10
3.42495e-10
3.14694e-10
2.86953e-10
2.59672e-10
2.33207e-10
2.07858e-10
1.83867e-10
1.61421e-10
1.40648e-10
1.21625e-10
1.04382e-10
8.89076e-11
7.51537e-11
6.3045e-11
5.24839e-11
4.33564e-11
3.55397e-11
2.89055e-11
2.3325e-11
1.86725e-11
1.48281e-11
1.16793e-11
9.12297e-12
7.06649e-12
3.51348e-10
3.48633e-10
3.43265e-10
3.35371e-10
3.25128e-10
3.12767e-10
2.98557e-10
2.82798e-10
2.6581e-10
2.47924e-10
2.29468e-10
2.1076e-10
1.92099e-10
1.73755e-10
1.55966e-10
1.38934e-10
1.22823e-10
1.07756e-10
9.382e-11
8.10655e-11
6.9512e-11
5.91503e-11
4.99481e-11
4.18531e-11
3.47995e-11
2.87098e-11
2.35e-11
1.9084e-11
1.53745e-11
1.2286e-11
9.738e-12
7.6548e-12
5.9665e-12
4.61067e-12
2.26309e-10
2.24547e-10
2.21064e-10
2.15941e-10
2.09297e-10
2.01281e-10
1.9207e-10
1.81858e-10
1.70856e-10
1.59278e-10
1.47337e-10
1.3524e-10
1.2318e-10
1.11333e-10
9.98519e-11
8.88675e-11
7.84845e-11
6.8783e-11
5.98179e-11
5.16211e-11
4.42041e-11
3.75598e-11
3.16661e-11
2.6489e-11
2.19846e-11
1.81019e-11
1.47865e-11
1.1981e-11
9.62937e-12
7.67579e-12
6.06795e-12
4.75604e-12
3.69599e-12
2.84729e-12
1.46041e-10
1.44892e-10
1.4262e-10
1.39281e-10
1.3495e-10
1.29728e-10
1.2373e-10
1.17084e-10
1.09929e-10
1.02403e-10
9.46476e-11
8.6797e-11
7.89767e-11
7.13013e-11
6.38706e-11
5.67692e-11
5.00643e-11
4.38076e-11
3.80336e-11
3.27622e-11
2.8e-11
2.37414e-11
1.99711e-11
1.66658e-11
1.37966e-11
1.13291e-11
9.22722e-12
7.45333e-12
5.9708e-12
4.74296e-12
3.73589e-12
2.91731e-12
2.25808e-12
1.73252e-12
1.07094e-10
1.06242e-10
1.0456e-10
1.02087e-10
9.88811e-11
9.50162e-11
9.05791e-11
8.56657e-11
8.03782e-11
7.4821e-11
6.90978e-11
6.33088e-11
5.7547e-11
5.18971e-11
4.64328e-11
4.12158e-11
3.62958e-11
3.17104e-11
2.7485e-11
2.3633e-11
2.01587e-11
1.70571e-11
1.43163e-11
1.19185e-11
9.84163e-12
8.05965e-12
6.54579e-12
5.27153e-12
4.20988e-12
3.33298e-12
2.61574e-12
2.03496e-12
1.56894e-12
1.19892e-12
1.58032e-08
1.56825e-08
1.54437e-08
1.50924e-08
1.46364e-08
1.40858e-08
1.34525e-08
1.27499e-08
1.19922e-08
1.11942e-08
1.03706e-08
9.53563e-09
8.70256e-09
7.88342e-09
7.08871e-09
6.32731e-09
5.60636e-09
4.93132e-09
4.30598e-09
3.73261e-09
3.2121e-09
2.74413e-09
2.32732e-09
1.9595e-09
1.63783e-09
1.359e-09
1.11941e-09
9.15313e-10
7.42912e-10
5.9851e-10
4.78567e-10
3.79766e-10
2.99054e-10
2.33666e-10
1.54875e-08
1.5369e-08
1.51347e-08
1.479e-08
1.43427e-08
1.38026e-08
1.31815e-08
1.24926e-08
1.17498e-08
1.09676e-08
1.01605e-08
9.34225e-09
8.52596e-09
7.72335e-09
6.94471e-09
6.19871e-09
5.49235e-09
4.83098e-09
4.2183e-09
3.65655e-09
3.14659e-09
2.6881e-09
2.27976e-09
1.91942e-09
1.6043e-09
1.33116e-09
1.09646e-09
8.96534e-10
7.27659e-10
5.86212e-10
4.68724e-10
3.71945e-10
2.92885e-10
2.28837e-10
1.48535e-08
1.47397e-08
1.45146e-08
1.41836e-08
1.3754e-08
1.32356e-08
1.26394e-08
1.19783e-08
1.12656e-08
1.05152e-08
9.74103e-09
8.95635e-09
8.1736e-09
7.40403e-09
6.65748e-09
5.94224e-09
5.26502e-09
4.63092e-09
4.0435e-09
3.50491e-09
3.01599e-09
2.57643e-09
2.18496e-09
1.83953e-09
1.53746e-09
1.27566e-09
1.05071e-09
8.59089e-10
6.97239e-10
5.6168e-10
4.49084e-10
3.56337e-10
2.80574e-10
2.19198e-10
1.39026e-08
1.3796e-08
1.35851e-08
1.3275e-08
1.28726e-08
1.23869e-08
1.18286e-08
1.12096e-08
1.05423e-08
9.83998e-09
9.11539e-09
8.38105e-09
7.64856e-09
6.92842e-09
6.2298e-09
5.56045e-09
4.92665e-09
4.33317e-09
3.78337e-09
3.27927e-09
2.82167e-09
2.41028e-09
2.04393e-09
1.72069e-09
1.43805e-09
1.19309e-09
9.82637e-10
8.03375e-10
6.51972e-10
5.25167e-10
4.1985e-10
3.33104e-10
2.62247e-10
2.0485e-10
1.26534e-08
1.25563e-08
1.23643e-08
1.2082e-08
1.17158e-08
1.12738e-08
1.07658e-08
1.02025e-08
9.59543e-09
8.95637e-09
8.29708e-09
7.62884e-09
6.96222e-09
6.30674e-09
5.67078e-09
5.06141e-09
4.48435e-09
3.94398e-09
3.44338e-09
2.9844e-09
2.56776e-09
2.19323e-09
1.85973e-09
1.56548e-09
1.30822e-09
1.08528e-09
8.93754e-10
7.30627e-10
5.92861e-10
4.77489e-10
3.81675e-10
3.02765e-10
2.38317e-10
1.86119e-10
1.11537e-08
1.10681e-08
1.0899e-08
1.06502e-08
1.03276e-08
9.93831e-09
9.49084e-09
8.99468e-09
8.45991e-09
7.89691e-09
7.31597e-09
6.72704e-09
6.13939e-09
5.56144e-09
5.0006e-09
4.46313e-09
3.95411e-09
3.47745e-09
3.03586e-09
2.63099e-09
2.26351e-09
1.93319e-09
1.63907e-09
1.3796e-09
1.15276e-09
9.56193e-10
7.8734e-10
6.43535e-10
5.221e-10
4.20415e-10
3.3598e-10
2.66452e-10
2.09678e-10
1.63703e-10
9.48223e-09
9.40955e-09
9.2659e-09
9.05463e-09
8.78057e-09
8.44988e-09
8.06978e-09
7.64829e-09
7.19395e-09
6.71555e-09
6.22181e-09
5.72117e-09
5.22151e-09
4.73e-09
4.25296e-09
3.79573e-09
3.36268e-09
2.95713e-09
2.58143e-09
2.23698e-09
1.92435e-09
1.64336e-09
1.39318e-09
1.17248e-09
9.79553e-10
8.12385e-10
6.68799e-10
5.46525e-10
4.43286e-10
3.56852e-10
2.85095e-10
2.26021e-10
1.77794e-10
1.38753e-10
7.74223e-09
7.68296e-09
7.56582e-09
7.39351e-09
7.16997e-09
6.90021e-09
6.59008e-09
6.24613e-09
5.87532e-09
5.48479e-09
5.08167e-09
4.67283e-09
4.26472e-09
3.86321e-09
3.47348e-09
3.09991e-09
2.74608e-09
2.41472e-09
2.10775e-09
1.82632e-09
1.5709e-09
1.34134e-09
1.13696e-09
9.56681e-10
7.99094e-10
6.62563e-10
5.45307e-10
4.45473e-10
3.61196e-10
2.90656e-10
2.32109e-10
1.83926e-10
1.44604e-10
1.12785e-10
6.0471e-09
6.00089e-09
5.90954e-09
5.77514e-09
5.60074e-09
5.39021e-09
5.14812e-09
4.87956e-09
4.58995e-09
4.28488e-09
3.96992e-09
3.65043e-09
3.33147e-09
3.01765e-09
2.71302e-09
2.42104e-09
2.14448e-09
1.8855e-09
1.64559e-09
1.42566e-09
1.22606e-09
1.04668e-09
8.86988e-10
7.46142e-10
6.2304e-10
5.16406e-10
4.24844e-10
3.46906e-10
2.81135e-10
2.26102e-10
1.80446e-10
1.4289e-10
1.12256e-10
8.74821e-11
4.50317e-09
4.46877e-09
4.40075e-09
4.30069e-09
4.17082e-09
4.01402e-09
3.83369e-09
3.63361e-09
3.41781e-09
3.19045e-09
2.9557e-09
2.71757e-09
2.47984e-09
2.24595e-09
2.01892e-09
1.80134e-09
1.59529e-09
1.40236e-09
1.22365e-09
1.05985e-09
9.11209e-10
7.7764e-10
6.58752e-10
5.53914e-10
4.62305e-10
3.82974e-10
3.1488e-10
2.56942e-10
2.08071e-10
1.67203e-10
1.33319e-10
1.05466e-10
8.27662e-11
6.44241e-11
3.18914e-09
3.16473e-09
3.11647e-09
3.04547e-09
2.95333e-09
2.84209e-09
2.71415e-09
2.57221e-09
2.41912e-09
2.25784e-09
2.09134e-09
1.92246e-09
1.75389e-09
1.58809e-09
1.42719e-09
1.27301e-09
1.12704e-09
9.90387e-10
8.63846e-10
7.47885e-10
6.42684e-10
5.48179e-10
4.6409e-10
3.89967e-10
3.25227e-10
2.69194e-10
2.21127e-10
1.80257e-10
1.45811e-10
1.17031e-10
9.3192e-11
7.36175e-11
5.76832e-11
4.48251e-11
2.14819e-09
2.13167e-09
2.09901e-09
2.05097e-09
1.98864e-09
1.9134e-09
1.8269e-09
1.73096e-09
1.62751e-09
1.51857e-09
1.40613e-09
1.29213e-09
1.17837e-09
1.06652e-09
9.58014e-10
8.54085e-10
7.55724e-10
6.63685e-10
5.78494e-10
5.00463e-10
4.29714e-10
3.66195e-10
3.09716e-10
2.59969e-10
2.16556e-10
1.79016e-10
1.46847e-10
1.19526e-10
9.65275e-11
7.73384e-11
6.14687e-11
4.8459e-11
3.78877e-11
2.93743e-11
1.38998e-09
1.37921e-09
1.35792e-09
1.32661e-09
1.286e-09
1.23699e-09
1.18068e-09
1.11824e-09
1.05095e-09
9.80126e-10
9.07063e-10
8.33023e-10
7.59187e-10
6.86626e-10
6.1628e-10
5.48945e-10
4.85263e-10
4.2572e-10
3.70654e-10
3.20263e-10
2.74622e-10
2.33691e-10
1.9734e-10
1.65364e-10
1.375e-10
1.13443e-10
9.2863e-11
7.54165e-11
6.07598e-11
4.85569e-11
3.84884e-11
3.02549e-11
2.35825e-11
1.82245e-11
9.01992e-10
8.94928e-10
8.80969e-10
8.60443e-10
8.33828e-10
8.01729e-10
7.64856e-10
7.23997e-10
6.79994e-10
6.33706e-10
5.8599e-10
5.37674e-10
4.89528e-10
4.42255e-10
3.96468e-10
3.52685e-10
3.11323e-10
2.72697e-10
2.37023e-10
2.04426e-10
1.74948e-10
1.48558e-10
1.25165e-10
1.04628e-10
8.67723e-11
7.13917e-11
5.82672e-11
4.71713e-11
3.7877e-11
3.0163e-11
2.38191e-11
1.86502e-11
1.44772e-11
1.11394e-11
6.64646e-10
6.59388e-10
6.48999e-10
6.33725e-10
6.13927e-10
5.90058e-10
5.62651e-10
5.32297e-10
4.99626e-10
4.6528e-10
4.29898e-10
3.94097e-10
3.58451e-10
3.23481e-10
2.89641e-10
2.57316e-10
2.26812e-10
1.98361e-10
1.72119e-10
1.48177e-10
1.26559e-10
1.07241e-10
9.01485e-11
7.51742e-11
6.21828e-11
5.10192e-11
4.15177e-11
3.35067e-11
2.68157e-11
2.12797e-11
1.67418e-11
1.30574e-11
1.0094e-11
7.73342e-12
1.09128e-07
1.08296e-07
1.06651e-07
1.0423e-07
1.01087e-07
9.7291e-08
9.29246e-08
8.8079e-08
8.28526e-08
7.73473e-08
7.16652e-08
6.59047e-08
6.01579e-08
5.45076e-08
4.90265e-08
4.37754e-08
3.88036e-08
3.41482e-08
2.98351e-08
2.58798e-08
2.2288e-08
1.90574e-08
1.61784e-08
1.36362e-08
1.14111e-08
9.48078e-09
7.82051e-09
6.40463e-09
5.20725e-09
4.20299e-09
3.36758e-09
2.67825e-09
2.11406e-09
1.65604e-09
1.06943e-07
1.06126e-07
1.04511e-07
1.02135e-07
9.90503e-08
9.53258e-08
9.10424e-08
8.62904e-08
8.11666e-08
7.57711e-08
7.02034e-08
6.45597e-08
5.89298e-08
5.33948e-08
4.80255e-08
4.28816e-08
3.8011e-08
3.34505e-08
2.92253e-08
2.53505e-08
2.18318e-08
1.86669e-08
1.58466e-08
1.33562e-08
1.11767e-08
9.28586e-09
7.65966e-09
6.27287e-09
5.10009e-09
4.11648e-09
3.29823e-09
2.62307e-09
2.07047e-09
1.62185e-09
1.02553e-07
1.01768e-07
1.00217e-07
9.79341e-08
9.49722e-08
9.13967e-08
8.72855e-08
8.27254e-08
7.78094e-08
7.26336e-08
6.72938e-08
6.18823e-08
5.64849e-08
5.11791e-08
4.60325e-08
4.1102e-08
3.64335e-08
3.2062e-08
2.80117e-08
2.42971e-08
2.09239e-08
1.789e-08
1.51865e-08
1.27993e-08
1.07103e-08
8.89809e-09
7.33961e-09
6.01063e-09
4.88679e-09
3.94422e-09
3.16013e-09
2.51314e-09
1.9836e-09
1.55371e-09
9.59683e-08
9.5233e-08
9.37794e-08
9.16411e-08
8.88666e-08
8.5518e-08
8.16683e-08
7.7399e-08
7.27975e-08
6.79538e-08
6.29575e-08
5.78949e-08
5.2846e-08
4.78829e-08
4.30686e-08
3.84562e-08
3.40885e-08
2.99981e-08
2.6208e-08
2.27319e-08
1.95751e-08
1.67359e-08
1.4206e-08
1.19724e-08
1.00178e-08
8.3224e-09
6.86445e-09
5.62126e-09
4.56999e-09
3.68833e-09
2.9549e-09
2.34974e-09
1.85445e-09
1.45238e-09
8.73204e-08
8.66509e-08
8.53277e-08
8.33818e-08
8.08576e-08
7.78116e-08
7.431e-08
7.04272e-08
6.62425e-08
6.18377e-08
5.72939e-08
5.26892e-08
4.80962e-08
4.35807e-08
3.91998e-08
3.50021e-08
3.10266e-08
2.73032e-08
2.3853e-08
2.06885e-08
1.78147e-08
1.523e-08
1.29271e-08
1.08939e-08
9.11484e-09
7.5718e-09
6.24492e-09
5.11355e-09
4.15688e-09
3.35457e-09
2.6872e-09
2.13657e-09
1.68595e-09
1.32018e-09
7.69485e-08
7.63587e-08
7.5193e-08
7.34792e-08
7.12565e-08
6.85748e-08
6.54924e-08
6.20746e-08
5.8391e-08
5.4513e-08
5.05119e-08
4.6456e-08
4.24092e-08
3.84294e-08
3.45674e-08
3.0866e-08
2.73601e-08
2.40762e-08
2.1033e-08
1.82419e-08
1.57072e-08
1.34275e-08
1.13965e-08
9.6034e-09
8.03453e-09
6.67384e-09
5.50381e-09
4.5062e-09
3.66268e-09
2.95529e-09
2.36693e-09
1.88154e-09
1.48436e-09
1.16202e-09
6.54096e-08
6.49088e-08
6.3919e-08
6.24636e-08
6.0576e-08
5.82987e-08
5.56814e-08
5.27794e-08
4.96515e-08
4.63581e-08
4.29593e-08
3.9513e-08
3.60735e-08
3.269e-08
2.94058e-08
2.62575e-08
2.32749e-08
2.04809e-08
1.78916e-08
1.55166e-08
1.33599e-08
1.14202e-08
9.69209e-09
8.1665e-09
6.83171e-09
5.67407e-09
4.67867e-09
3.82999e-09
3.11244e-09
2.51075e-09
2.01037e-09
1.59763e-09
1.25997e-09
9.86001e-10
5.34189e-08
5.30105e-08
5.22034e-08
5.10165e-08
4.9477e-08
4.76194e-08
4.54841e-08
4.31163e-08
4.05638e-08
3.78757e-08
3.5101e-08
3.22869e-08
2.94776e-08
2.67134e-08
2.40298e-08
2.1457e-08
1.90193e-08
1.67357e-08
1.46192e-08
1.26779e-08
1.09149e-08
9.32946e-09
7.9169e-09
6.66992e-09
5.57893e-09
4.63275e-09
3.81922e-09
3.12566e-09
2.53933e-09
2.04775e-09
1.63902e-09
1.30197e-09
1.02632e-09
8.02733e-10
4.17515e-08
4.14332e-08
4.0804e-08
3.98783e-08
3.86772e-08
3.72273e-08
3.55601e-08
3.37108e-08
3.17166e-08
2.9616e-08
2.74471e-08
2.52469e-08
2.305e-08
2.0888e-08
1.87889e-08
1.67763e-08
1.48695e-08
1.30831e-08
1.14276e-08
9.9091e-09
8.53017e-09
7.29005e-09
6.18524e-09
5.20996e-09
4.35672e-09
3.61681e-09
2.98069e-09
2.43846e-09
1.98015e-09
1.59602e-09
1.27673e-09
1.01355e-09
7.98407e-10
6.23991e-10
3.11348e-08
3.08977e-08
3.0429e-08
2.97394e-08
2.88443e-08
2.77636e-08
2.65206e-08
2.51415e-08
2.36539e-08
2.20866e-08
2.0468e-08
1.88259e-08
1.71861e-08
1.55724e-08
1.40058e-08
1.25039e-08
1.10811e-08
9.74832e-09
8.51335e-09
7.38073e-09
6.35229e-09
5.42746e-09
4.60359e-09
3.87638e-09
3.24025e-09
2.6887e-09
2.21462e-09
1.81065e-09
1.46933e-09
1.18338e-09
9.45843e-10
7.50166e-10
5.90322e-10
4.60841e-10
2.20988e-08
2.19303e-08
2.15972e-08
2.11071e-08
2.0471e-08
1.9703e-08
1.88196e-08
1.78393e-08
1.67819e-08
1.56677e-08
1.45171e-08
1.33499e-08
1.21847e-08
1.10382e-08
9.92541e-09
8.85887e-09
7.84873e-09
6.90274e-09
6.02631e-09
5.22268e-09
4.49311e-09
3.83718e-09
3.25298e-09
2.73747e-09
2.28668e-09
1.89598e-09
1.56034e-09
1.2745e-09
1.03316e-09
8.3114e-10
6.63469e-10
5.25485e-10
4.12894e-10
3.21804e-10
1.49332e-08
1.48189e-08
1.45928e-08
1.42602e-08
1.38286e-08
1.33076e-08
1.27086e-08
1.2044e-08
1.13273e-08
1.05724e-08
9.79308e-09
9.00278e-09
8.21404e-09
7.43831e-09
6.68563e-09
5.96448e-09
5.28171e-09
4.64254e-09
4.0506e-09
3.50805e-09
3.01573e-09
2.57332e-09
2.17952e-09
1.83225e-09
1.5288e-09
1.26603e-09
1.04051e-09
8.48651e-10
6.86858e-10
5.51598e-10
4.39497e-10
3.47389e-10
2.72364e-10
2.11782e-10
9.704e-09
9.62911e-09
9.4811e-09
9.26341e-09
8.98103e-09
8.64031e-09
8.24868e-09
7.81443e-09
7.34639e-09
6.85364e-09
6.34522e-09
5.8299e-09
5.31586e-09
4.81057e-09
4.32056e-09
3.85135e-09
3.40739e-09
2.99207e-09
2.60772e-09
2.25574e-09
1.93665e-09
1.65021e-09
1.39554e-09
1.17124e-09
9.75522e-10
8.06294e-10
6.6129e-10
5.38152e-10
4.3451e-10
3.48046e-10
2.7655e-10
2.17951e-10
1.70347e-10
1.32019e-10
6.3304e-09
6.28104e-09
6.18349e-09
6.04006e-09
5.85407e-09
5.62975e-09
5.37205e-09
5.08647e-09
4.77884e-09
4.45519e-09
4.12147e-09
3.78346e-09
3.44655e-09
3.11563e-09
2.79499e-09
2.48824e-09
2.1983e-09
1.92737e-09
1.67697e-09
1.44799e-09
1.24072e-09
1.05498e-09
8.90143e-10
7.45254e-10
6.19095e-10
5.10265e-10
4.17246e-10
3.38466e-10
2.72351e-10
2.17367e-10
1.72052e-10
1.35046e-10
1.05098e-10
8.10833e-11
4.68598e-09
4.64907e-09
4.57615e-09
4.46895e-09
4.32999e-09
4.16245e-09
3.97007e-09
3.75698e-09
3.52758e-09
3.28637e-09
3.03781e-09
2.78623e-09
2.53565e-09
2.28971e-09
2.05162e-09
1.82407e-09
1.60922e-09
1.40869e-09
1.22361e-09
1.05459e-09
9.01851e-10
7.65207e-10
6.44168e-10
5.37992e-10
4.45743e-10
3.66353e-10
2.9867e-10
2.41504e-10
1.9367e-10
1.54013e-10
1.21441e-10
9.49354e-11
7.35673e-11
5.65022e-11
7.55671e-07
7.49925e-07
7.3856e-07
7.21834e-07
7.00119e-07
6.73894e-07
6.4372e-07
6.10226e-07
5.7409e-07
5.36015e-07
4.96709e-07
4.56857e-07
4.17097e-07
3.78003e-07
3.40078e-07
3.03742e-07
2.69337e-07
2.3712e-07
2.07271e-07
1.79895e-07
1.55034e-07
1.32667e-07
1.12729e-07
9.51131e-08
7.96846e-08
6.6288e-08
5.47542e-08
4.49076e-08
3.65709e-08
2.95703e-08
2.37389e-08
1.89199e-08
1.49688e-08
1.17549e-08
7.40534e-07
7.34889e-07
7.23726e-07
7.07297e-07
6.85973e-07
6.60223e-07
6.30608e-07
5.97751e-07
5.62322e-07
5.25011e-07
4.86507e-07
4.47474e-07
4.08534e-07
3.70247e-07
3.33101e-07
2.97511e-07
2.63809e-07
2.32252e-07
2.03014e-07
1.76199e-07
1.51846e-07
1.29937e-07
1.10407e-07
9.31523e-08
7.80406e-08
6.49195e-08
5.36234e-08
4.398e-08
3.58155e-08
2.89596e-08
2.32486e-08
1.85292e-08
1.46597e-08
1.15121e-08
7.10069e-07
7.04647e-07
6.93925e-07
6.78149e-07
6.57675e-07
6.32959e-07
6.04537e-07
5.73007e-07
5.39012e-07
5.03216e-07
4.66283e-07
4.28854e-07
3.91525e-07
3.54828e-07
3.1923e-07
2.85124e-07
2.52829e-07
2.22586e-07
1.94563e-07
1.68861e-07
1.45519e-07
1.24518e-07
1.05798e-07
8.92596e-08
7.47763e-08
6.22019e-08
5.13775e-08
4.21375e-08
3.4315e-08
2.77464e-08
2.22747e-08
1.77529e-08
1.40453e-08
1.10293e-08
6.64392e-07
6.59312e-07
6.49269e-07
6.34493e-07
6.15318e-07
5.92171e-07
5.65556e-07
5.36035e-07
5.04211e-07
4.7071e-07
4.36155e-07
4.01143e-07
3.6623e-07
3.31912e-07
2.98623e-07
2.66727e-07
2.36522e-07
2.08233e-07
1.82018e-07
1.57972e-07
1.36131e-07
1.16481e-07
9.89657e-08
8.34917e-08
6.99413e-08
5.81778e-08
4.80521e-08
3.94092e-08
3.20926e-08
2.59489e-08
2.08311e-08
1.66016e-08
1.31336e-08
1.03125e-08
6.0442e-07
5.99791e-07
5.90646e-07
5.77199e-07
5.59759e-07
5.3871e-07
5.1451e-07
4.87667e-07
4.58732e-07
4.28274e-07
3.96854e-07
3.65015e-07
3.3326e-07
3.02043e-07
2.71759e-07
2.4274e-07
2.15256e-07
1.89513e-07
1.65656e-07
1.43772e-07
1.23894e-07
1.06009e-07
9.0066e-08
7.59812e-08
6.36475e-08
5.29405e-08
4.37247e-08
3.58586e-08
2.91997e-08
2.36083e-08
1.89507e-08
1.51014e-08
1.19453e-08
9.37804e-09
5.32496e-07
5.28417e-07
5.2036e-07
5.08517e-07
4.93163e-07
4.74639e-07
4.53345e-07
4.2973e-07
4.04273e-07
3.77472e-07
3.49819e-07
3.21787e-07
2.93818e-07
2.66314e-07
2.39625e-07
2.14046e-07
1.89817e-07
1.67121e-07
1.46085e-07
1.26788e-07
1.09259e-07
9.34857e-08
7.94245e-08
6.70018e-08
5.61235e-08
4.66801e-08
3.8552e-08
3.16145e-08
2.57416e-08
2.08102e-08
1.67024e-08
1.33076e-08
1.05243e-08
8.26057e-09
4.5259e-07
4.49127e-07
4.42286e-07
4.32229e-07
4.19189e-07
4.03458e-07
3.8538e-07
3.65334e-07
3.43726e-07
3.20974e-07
2.97494e-07
2.73686e-07
2.49926e-07
2.26552e-07
2.03864e-07
1.82115e-07
1.6151e-07
1.42205e-07
1.2431e-07
1.07892e-07
9.29751e-08
7.95519e-08
6.75842e-08
5.70106e-08
4.77514e-08
3.97137e-08
3.27957e-08
2.68911e-08
2.18928e-08
1.76959e-08
1.42e-08
1.13111e-08
8.94288e-09
7.01704e-09
3.6969e-07
3.66866e-07
3.61285e-07
3.5308e-07
3.4244e-07
3.29605e-07
3.14853e-07
2.98495e-07
2.80863e-07
2.62296e-07
2.43131e-07
2.23694e-07
2.0429e-07
1.85199e-07
1.66664e-07
1.48892e-07
1.32053e-07
1.16274e-07
1.01644e-07
8.82196e-08
7.60213e-08
6.50431e-08
5.52547e-08
4.66064e-08
3.90332e-08
3.24592e-08
2.68011e-08
2.1972e-08
1.78843e-08
1.4452e-08
1.15933e-08
9.2313e-09
7.29549e-09
5.72175e-09
2.89107e-07
2.86907e-07
2.82557e-07
2.76158e-07
2.67856e-07
2.57835e-07
2.46313e-07
2.33533e-07
2.19755e-07
2.05242e-07
1.90259e-07
1.75059e-07
1.59881e-07
1.44945e-07
1.30441e-07
1.16533e-07
1.03353e-07
9.10012e-08
7.95488e-08
6.90384e-08
5.94877e-08
5.0892e-08
4.32281e-08
3.64571e-08
3.05282e-08
2.53817e-08
2.09523e-08
1.71719e-08
1.3972e-08
1.12856e-08
9.04855e-09
7.20089e-09
5.68723e-09
4.45727e-09
2.15866e-07
2.14227e-07
2.10985e-07
2.06216e-07
2.00025e-07
1.9255e-07
1.83954e-07
1.74416e-07
1.6413e-07
1.53292e-07
1.421e-07
1.30743e-07
1.19402e-07
1.0824e-07
9.74008e-08
8.70068e-08
7.71573e-08
6.79279e-08
5.93713e-08
5.15195e-08
4.43852e-08
3.7965e-08
3.2241e-08
2.71844e-08
2.27567e-08
1.89135e-08
1.5606e-08
1.27834e-08
1.03948e-08
8.39014e-09
6.72165e-09
5.3444e-09
4.21688e-09
3.30138e-09
1.5355e-07
1.52383e-07
1.50077e-07
1.46684e-07
1.42279e-07
1.36961e-07
1.30843e-07
1.24052e-07
1.16727e-07
1.09007e-07
1.01034e-07
9.29448e-08
8.48671e-08
7.69182e-08
6.92011e-08
6.18027e-08
5.47934e-08
4.82266e-08
4.21399e-08
3.65557e-08
3.14829e-08
2.69188e-08
2.28504e-08
1.92569e-08
1.6111e-08
1.3381e-08
1.10322e-08
9.0288e-09
7.33438e-09
5.9134e-09
4.73173e-09
3.75724e-09
2.96029e-09
2.31394e-09
1.04102e-07
1.03308e-07
1.01738e-07
9.94291e-08
9.64322e-08
9.2814e-08
8.86526e-08
8.40353e-08
7.90552e-08
7.38084e-08
6.83908e-08
6.28956e-08
5.74101e-08
5.2014e-08
4.67772e-08
4.17586e-08
3.70057e-08
3.25545e-08
2.84303e-08
2.4648e-08
2.12135e-08
1.81247e-08
1.53725e-08
1.29427e-08
1.08168e-08
8.97326e-09
7.38858e-09
6.03822e-09
4.89745e-09
3.94197e-09
3.14849e-09
2.49511e-09
1.96163e-09
1.52976e-09
6.79463e-08
6.74241e-08
6.63919e-08
6.48737e-08
6.29043e-08
6.05276e-08
5.77954e-08
5.47655e-08
5.14993e-08
4.80602e-08
4.45112e-08
4.09133e-08
3.73236e-08
3.37942e-08
3.03708e-08
2.70918e-08
2.39881e-08
2.10833e-08
1.83936e-08
1.59287e-08
1.36922e-08
1.16825e-08
9.89383e-09
8.31648e-09
6.93823e-09
5.74478e-09
4.72056e-09
3.84932e-09
3.11468e-09
2.50061e-09
1.99176e-09
1.57376e-09
1.23337e-09
9.58588e-10
4.45597e-08
4.42137e-08
4.35298e-08
4.25242e-08
4.12203e-08
3.96477e-08
3.78409e-08
3.58385e-08
3.36813e-08
3.14112e-08
2.90702e-08
2.66985e-08
2.43339e-08
2.20107e-08
1.97589e-08
1.76038e-08
1.55657e-08
1.36602e-08
1.18979e-08
1.0285e-08
8.82379e-09
7.51292e-09
6.34825e-09
5.32323e-09
4.42948e-09
3.65734e-09
2.99631e-09
2.43548e-09
1.96392e-09
1.57095e-09
1.2464e-09
9.8074e-10
7.65235e-10
5.91989e-10
3.31328e-08
3.28729e-08
3.23595e-08
3.16048e-08
3.06265e-08
2.94471e-08
2.80929e-08
2.65928e-08
2.49775e-08
2.32787e-08
2.15277e-08
1.97549e-08
1.79884e-08
1.6254e-08
1.45742e-08
1.29679e-08
1.14503e-08
1.00331e-08
8.724e-09
7.52763e-09
6.44544e-09
5.47629e-09
4.61682e-09
3.86191e-09
3.20509e-09
2.63895e-09
2.15547e-09
1.74637e-09
1.40339e-09
1.11847e-09
8.83938e-10
6.92659e-10
5.38089e-10
4.14339e-10
5.23127e-06
5.19155e-06
5.11298e-06
4.99729e-06
4.84712e-06
4.6658e-06
4.45724e-06
4.22579e-06
3.9761e-06
3.71302e-06
3.44144e-06
3.16612e-06
2.89145e-06
2.62136e-06
2.35927e-06
2.10805e-06
1.87003e-06
1.64701e-06
1.44025e-06
1.25056e-06
1.07825e-06
9.23235e-07
7.85067e-07
6.63005e-07
5.56082e-07
4.63188e-07
3.83136e-07
3.14707e-07
2.56689e-07
2.07899e-07
1.67201e-07
1.33525e-07
1.05875e-07
8.33455e-08
5.12661e-06
5.08749e-06
5.01015e-06
4.89637e-06
4.74876e-06
4.5706e-06
4.36577e-06
4.13865e-06
3.89388e-06
3.63619e-06
3.37031e-06
3.10079e-06
2.83189e-06
2.56744e-06
2.31075e-06
2.06465e-06
1.83147e-06
1.61299e-06
1.41049e-06
1.22471e-06
1.05595e-06
9.04137e-07
7.68823e-07
6.49281e-07
5.44566e-07
4.5359e-07
3.75191e-07
3.08177e-07
2.51361e-07
2.03583e-07
1.63732e-07
1.30756e-07
1.03681e-07
8.16198e-08
4.91486e-06
4.87739e-06
4.80326e-06
4.69414e-06
4.55253e-06
4.38163e-06
4.18517e-06
3.96729e-06
3.73242e-06
3.48515e-06
3.23007e-06
2.97159e-06
2.71379e-06
2.46032e-06
2.21432e-06
1.9785e-06
1.75506e-06
1.54569e-06
1.3516e-06
1.17353e-06
1.01179e-06
8.663e-07
7.36625e-07
6.22069e-07
5.21723e-07
4.34548e-07
3.5943e-07
2.95226e-07
2.40798e-07
1.95031e-07
1.56859e-07
1.25272e-07
9.93358e-08
7.82001e-08
4.59805e-06
4.563e-06
4.49364e-06
4.39154e-06
4.25903e-06
4.09906e-06
3.91515e-06
3.71117e-06
3.49129e-06
3.25984e-06
3.02115e-06
2.77934e-06
2.53822e-06
2.30116e-06
2.07112e-06
1.85058e-06
1.6416e-06
1.44577e-06
1.26423e-06
1.09766e-06
9.4638e-07
8.10297e-07
6.89011e-07
5.81858e-07
4.8799e-07
4.0644e-07
3.36171e-07
2.76115e-07
2.25207e-07
1.82405e-07
1.46705e-07
1.17164e-07
9.29049e-08
7.31346e-08
4.18262e-06
4.15062e-06
4.08744e-06
3.99458e-06
3.87417e-06
3.72886e-06
3.56177e-06
3.37639e-06
3.17652e-06
2.9661e-06
2.74905e-06
2.5291e-06
2.30972e-06
2.09402e-06
1.88469e-06
1.684e-06
1.49382e-06
1.31562e-06
1.15043e-06
9.98882e-07
8.61254e-07
7.37458e-07
6.27113e-07
5.2961e-07
4.44178e-07
3.69944e-07
3.05974e-07
2.51302e-07
2.04961e-07
1.66e-07
1.33507e-07
1.06618e-07
8.45359e-08
6.65388e-08
3.68416e-06
3.65597e-06
3.60032e-06
3.51857e-06
3.41263e-06
3.28486e-06
3.13797e-06
2.975e-06
2.79927e-06
2.61421e-06
2.42323e-06
2.2296e-06
2.03634e-06
1.84623e-06
1.66168e-06
1.48474e-06
1.31708e-06
1.16001e-06
1.01443e-06
8.80882e-07
7.59597e-07
6.5048e-07
5.53191e-07
4.67198e-07
3.91833e-07
3.26338e-07
2.69895e-07
2.21659e-07
1.80775e-07
1.46404e-07
1.17739e-07
9.40164e-08
7.45338e-08
5.86549e-08
3.13127e-06
3.10735e-06
3.06012e-06
2.99073e-06
2.90078e-06
2.79228e-06
2.66758e-06
2.52926e-06
2.38011e-06
2.22302e-06
2.06085e-06
1.89635e-06
1.73213e-06
1.57052e-06
1.41362e-06
1.26317e-06
1.12064e-06
9.87108e-07
8.63352e-07
7.49822e-07
6.46681e-07
5.53845e-07
4.71032e-07
3.97806e-07
3.33615e-07
2.77826e-07
2.29752e-07
1.88673e-07
1.53862e-07
1.246e-07
1.00194e-07
7.9995e-08
6.34043e-08
4.98825e-08
2.55872e-06
2.53919e-06
2.50063e-06
2.44396e-06
2.37051e-06
2.28189e-06
2.18004e-06
2.06707e-06
1.94527e-06
1.81699e-06
1.68455e-06
1.55017e-06
1.416e-06
1.28397e-06
1.1558e-06
1.03292e-06
9.16505e-07
8.07438e-07
7.06331e-07
6.13544e-07
5.29206e-07
4.53257e-07
3.85479e-07
3.2553e-07
2.72974e-07
2.273e-07
1.87947e-07
1.54327e-07
1.25839e-07
1.01892e-07
8.19174e-08
6.53839e-08
5.18045e-08
4.0739e-08
2.00244e-06
1.98722e-06
1.95715e-06
1.91292e-06
1.85554e-06
1.78625e-06
1.70657e-06
1.61818e-06
1.52288e-06
1.42251e-06
1.31888e-06
1.21374e-06
1.10877e-06
1.00547e-06
9.05183e-07
8.09047e-07
7.17959e-07
6.32602e-07
5.53443e-07
4.80764e-07
4.14673e-07
3.55137e-07
3.01998e-07
2.54999e-07
2.138e-07
1.78002e-07
1.47163e-07
1.20818e-07
9.84922e-08
7.97225e-08
6.40657e-08
5.1108e-08
4.04688e-08
3.18033e-08
1.49696e-06
1.48563e-06
1.46321e-06
1.43019e-06
1.38732e-06
1.33554e-06
1.27601e-06
1.20997e-06
1.13875e-06
1.06372e-06
9.86245e-07
9.07651e-07
8.29176e-07
7.5195e-07
6.76971e-07
6.05079e-07
5.3695e-07
4.73095e-07
4.13868e-07
3.59479e-07
3.10017e-07
2.65459e-07
2.25695e-07
1.90533e-07
1.59717e-07
1.32944e-07
1.0988e-07
9.01733e-08
7.34723e-08
5.94319e-08
4.77231e-08
3.80376e-08
3.00908e-08
2.36234e-08
1.06686e-06
1.05878e-06
1.04279e-06
1.01927e-06
9.88743e-07
9.51875e-07
9.09462e-07
8.62395e-07
8.11623e-07
7.58124e-07
7.02874e-07
6.46818e-07
5.90846e-07
5.35766e-07
4.82286e-07
4.31004e-07
3.824e-07
3.3684e-07
2.94581e-07
2.55782e-07
2.2051e-07
1.8875e-07
1.60418e-07
1.35374e-07
1.13429e-07
9.43652e-08
7.79426e-08
6.39127e-08
5.20259e-08
4.20383e-08
3.3716e-08
2.68388e-08
2.12023e-08
1.66204e-08
7.25555e-07
7.20044e-07
7.09149e-07
6.93117e-07
6.72308e-07
6.47181e-07
6.18277e-07
5.86204e-07
5.51607e-07
5.15155e-07
4.7751e-07
4.39317e-07
4.01184e-07
3.63662e-07
3.27237e-07
2.92316e-07
2.59229e-07
2.28226e-07
1.99486e-07
1.73114e-07
1.49153e-07
1.2759e-07
1.08363e-07
9.1372e-08
7.64886e-08
6.35639e-08
5.24363e-08
4.29376e-08
3.48983e-08
2.8152e-08
2.25385e-08
1.79066e-08
1.41165e-08
1.10407e-08
4.75737e-07