/*--------------------------------*- C++ -*----------------------------------*\
| =========                 |                                                 |
| \\      /  F ield         | OpenFOAM: The Open Source CFD Toolbox           |
|  \\    /   O peration     | Version:  2312                                  |
|   \\  /    A nd           | Website:  www.openfoam.com                      |
|    \\/     M anipulation  |                                                 |
\*---------------------------------------------------------------------------*/
FoamFile
{
    version     2.0;
    format      ascii;
    arch        "LSB;label=32;scalar=64";
    class       volVectorField;
    location    "0.6";
    object      D_0_0_0;
}
// * * * * * * * * * * * * * * * * * * * * * * * * * * * * * * * * * * * * * //

dimensions      [0 1 0 0 0 0 0];

internalField   nonuniform List<vector> 
1620
(
(-0.000231369 0.000253014 -0.000104718)
(-0.000271789 0.000208992 -0.000104718)
(-0.000303952 0.000158622 -0.000104718)
(-0.000326879 0.000103432 -0.000104718)
(-0.000339873 4.50991e-05 -0.000104718)
(-0.000342541 -1.46046e-05 -0.000104718)
(-0.000334801 -7.38645e-05 -0.000104718)
(-0.000316888 -0.00013088 -0.000104718)
(-0.000289347 -0.000183919 -0.000104718)
(-0.000253014 -0.000231369 -0.000104718)
(-0.000208992 -0.000271789 -0.000104718)
(-0.000158622 -0.000303952 -0.000104718)
(-0.000103432 -0.000326879 -0.000104718)
(-4.50991e-05 -0.000339873 -0.000104718)
(1.46046e-05 -0.000342541 -0.000104718)
(7.38645e-05 -0.000334801 -0.000104718)
(0.00013088 -0.000316888 -0.000104718)
(0.000183919 -0.000289347 -0.000104718)
(0.000231369 -0.000253014 -0.000104718)
(0.000271789 -0.000208992 -0.000104718)
(0.000303952 -0.000158622 -0.000104718)
(0.000326879 -0.000103432 -0.000104718)
(0.000339873 -4.50991e-05 -0.000104718)
(0.000342541 1.46046e-05 -0.000104718)
(0.000334801 7.38645e-05 -0.000104718)
(0.000316888 0.00013088 -0.000104718)
(0.000289347 0.000183919 -0.000104718)
(0.000253014 0.000231369 -0.000104718)
(0.000208992 0.000271789 -0.000104718)
(0.000158622 0.000303952 -0.000104718)
(0.000103432 0.000326879 -0.000104718)
(4.50991e-05 0.000339873 -0.000104718)
(-1.46046e-05 0.000342541 -0.000104718)
(-7.38645e-05 0.000334801 -0.000104718)
(-0.00013088 0.000316888 -0.000104718)
(-0.000183919 0.000289347 -0.000104718)
(-0.000161699 0.000308677 -7.04515e-05)
(-0.000212844 0.000275909 -7.04516e-05)
(-0.000257521 0.000234757 -7.04516e-05)
(-0.000294374 0.000186472 -7.04515e-05)
(-0.000322283 0.000132522 -7.04516e-05)
(-0.000340399 7.45448e-05 -7.04515e-05)
(-0.000348172 1.43028e-05 -7.04515e-05)
(-0.000345366 -4.63739e-05 -7.04514e-05)
(-0.000332066 -0.000105642 -7.04515e-05)
(-0.000308677 -0.000161699 -7.04515e-05)
(-0.000275909 -0.000212844 -7.04516e-05)
(-0.000234757 -0.000257521 -7.04516e-05)
(-0.000186472 -0.000294374 -7.04515e-05)
(-0.000132522 -0.000322283 -7.04516e-05)
(-7.45448e-05 -0.000340399 -7.04515e-05)
(-1.43028e-05 -0.000348172 -7.04515e-05)
(4.63739e-05 -0.000345366 -7.04514e-05)
(0.000105642 -0.000332066 -7.04516e-05)
(0.000161699 -0.000308677 -7.04516e-05)
(0.000212844 -0.000275909 -7.04516e-05)
(0.000257521 -0.000234757 -7.04516e-05)
(0.000294374 -0.000186472 -7.04515e-05)
(0.000322283 -0.000132522 -7.04516e-05)
(0.000340399 -7.45448e-05 -7.04515e-05)
(0.000348172 -1.43028e-05 -7.04515e-05)
(0.000345366 4.63739e-05 -7.04514e-05)
(0.000332066 0.000105642 -7.04515e-05)
(0.000308677 0.000161699 -7.04515e-05)
(0.000275909 0.000212844 -7.04516e-05)
(0.000234757 0.000257521 -7.04516e-05)
(0.000186472 0.000294374 -7.04515e-05)
(0.000132522 0.000322283 -7.04516e-05)
(7.45448e-05 0.000340399 -7.04515e-05)
(1.43028e-05 0.000348172 -7.04514e-05)
(-4.63739e-05 0.000345366 -7.04514e-05)
(-0.000105642 0.000332066 -7.04515e-05)
(-0.00011735 0.000362787 -3.62804e-05)
(-0.000178564 0.000336898 -3.62804e-05)
(-0.000234354 0.000300773 -3.62806e-05)
(-0.000283022 0.000255508 -3.62805e-05)
(-0.000323091 0.00020248 -3.62806e-05)
(-0.000353342 0.0001433 -3.62805e-05)
(-0.000372858 7.97655e-05 -3.62806e-05)
(-0.000381045 1.38075e-05 -3.62807e-05)
(-0.000377653 -5.25699e-05 -3.62805e-05)
(-0.000362787 -0.00011735 -3.62805e-05)
(-0.000336898 -0.000178564 -3.62805e-05)
(-0.000300773 -0.000234354 -3.62806e-05)
(-0.000255508 -0.000283022 -3.62805e-05)
(-0.00020248 -0.000323091 -3.62806e-05)
(-0.0001433 -0.000353342 -3.62805e-05)
(-7.97655e-05 -0.000372858 -3.62806e-05)
(-1.38075e-05 -0.000381045 -3.62807e-05)
(5.25699e-05 -0.000377653 -3.62805e-05)
(0.00011735 -0.000362787 -3.62805e-05)
(0.000178564 -0.000336898 -3.62805e-05)
(0.000234354 -0.000300773 -3.62806e-05)
(0.000283022 -0.000255508 -3.62805e-05)
(0.000323091 -0.00020248 -3.62806e-05)
(0.000353342 -0.0001433 -3.62805e-05)
(0.000372858 -7.97655e-05 -3.62806e-05)
(0.000381045 -1.38075e-05 -3.62807e-05)
(0.000377653 5.257e-05 -3.62805e-05)
(0.000362787 0.00011735 -3.62805e-05)
(0.000336898 0.000178565 -3.62804e-05)
(0.000300773 0.000234354 -3.62806e-05)
(0.000255508 0.000283022 -3.62805e-05)
(0.00020248 0.000323091 -3.62806e-05)
(0.0001433 0.000353342 -3.62805e-05)
(7.97655e-05 0.000372858 -3.62806e-05)
(1.38075e-05 0.000381045 -3.62807e-05)
(-5.25699e-05 0.000377653 -3.62805e-05)
(-0.000542948 0.000776928 -0.000353962)
(-0.000669612 0.000670843 -0.000353962)
(-0.00077593 0.000544374 -0.000353962)
(-0.000858671 0.000401366 -0.000353961)
(-0.000915322 0.000246162 -0.00035396)
(-0.000944162 8.34786e-05 -0.000353961)
(-0.000944315 -8.17419e-05 -0.000353961)
(-0.000915774 -0.000244479 -0.000353961)
(-0.000859407 -0.000399787 -0.000353961)
(-0.000776928 -0.000542948 -0.000353962)
(-0.000670843 -0.000669612 -0.000353962)
(-0.000544374 -0.00077593 -0.000353962)
(-0.000401366 -0.000858671 -0.000353961)
(-0.000246162 -0.000915322 -0.00035396)
(-8.34786e-05 -0.000944162 -0.000353961)
(8.1742e-05 -0.000944315 -0.000353961)
(0.000244479 -0.000915774 -0.000353961)
(0.000399787 -0.000859407 -0.000353961)
(0.000542948 -0.000776928 -0.000353962)
(0.000669612 -0.000670843 -0.000353962)
(0.00077593 -0.000544374 -0.000353962)
(0.000858671 -0.000401366 -0.000353961)
(0.000915322 -0.000246162 -0.00035396)
(0.000944162 -8.34786e-05 -0.000353961)
(0.000944315 8.1742e-05 -0.000353961)
(0.000915774 0.000244479 -0.000353961)
(0.000859407 0.000399787 -0.000353961)
(0.000776928 0.000542948 -0.000353962)
(0.000670843 0.000669612 -0.000353962)
(0.000544374 0.00077593 -0.000353962)
(0.000401366 0.000858671 -0.000353961)
(0.000246162 0.000915322 -0.00035396)
(8.34786e-05 0.000944162 -0.000353961)
(-8.17419e-05 0.000944315 -0.000353961)
(-0.000244478 0.000915774 -0.000353961)
(-0.000399787 0.000859407 -0.000353961)
(-0.000487573 0.000918904 -0.000258063)
(-0.000639731 0.000820277 -0.000258063)
(-0.000772452 0.000696728 -0.000258063)
(-0.000881703 0.000552009 -0.000258063)
(-0.000964163 0.000390517 -0.000258063)
(-0.00101733 0.000217158 -0.000258063)
(-0.00103958 3.72018e-05 -0.000258063)
(-0.00103025 -0.000143885 -0.000258063)
(-0.00098961 -0.0003206 -0.000258063)
(-0.000918904 -0.000487573 -0.000258063)
(-0.000820277 -0.000639731 -0.000258063)
(-0.000696728 -0.000772452 -0.000258063)
(-0.000552009 -0.000881703 -0.000258063)
(-0.000390517 -0.000964163 -0.000258063)
(-0.000217158 -0.00101733 -0.000258063)
(-3.72018e-05 -0.00103958 -0.000258063)
(0.000143885 -0.00103025 -0.000258063)
(0.0003206 -0.00098961 -0.000258063)
(0.000487573 -0.000918904 -0.000258063)
(0.000639731 -0.000820277 -0.000258063)
(0.000772452 -0.000696728 -0.000258063)
(0.000881703 -0.000552009 -0.000258063)
(0.000964163 -0.000390516 -0.000258063)
(0.00101733 -0.000217158 -0.000258063)
(0.00103958 -3.72018e-05 -0.000258063)
(0.00103025 0.000143885 -0.000258063)
(0.00098961 0.0003206 -0.000258063)
(0.000918904 0.000487573 -0.000258063)
(0.000820277 0.000639731 -0.000258063)
(0.000696728 0.000772452 -0.000258063)
(0.000552009 0.000881703 -0.000258063)
(0.000390517 0.000964163 -0.000258063)
(0.000217158 0.00101733 -0.000258063)
(3.72018e-05 0.00103958 -0.000258063)
(-0.000143885 0.00103025 -0.000258063)
(-0.0003206 0.00098961 -0.000258063)
(-0.0004648 0.00105637 -0.000164113)
(-0.000641174 0.000959605 -0.000164112)
(-0.000798066 0.000833688 -0.000164112)
(-0.00093071 0.000682439 -0.000164112)
(-0.00103507 0.000510455 -0.000164112)
(-0.00110799 0.000322961 -0.000164112)
(-0.00114724 0.000125654 -0.000164113)
(-0.00115163 -7.54706e-05 -0.000164113)
(-0.00112103 -0.000274303 -0.000164113)
(-0.00105637 -0.0004648 -0.000164113)
(-0.000959605 -0.000641174 -0.000164112)
(-0.000833688 -0.000798066 -0.000164112)
(-0.000682439 -0.00093071 -0.000164112)
(-0.000510455 -0.00103507 -0.000164112)
(-0.000322961 -0.00110799 -0.000164112)
(-0.000125654 -0.00114724 -0.000164113)
(7.54706e-05 -0.00115163 -0.000164113)
(0.000274303 -0.00112103 -0.000164113)
(0.0004648 -0.00105637 -0.000164113)
(0.000641174 -0.000959605 -0.000164112)
(0.000798066 -0.000833688 -0.000164112)
(0.00093071 -0.000682439 -0.000164112)
(0.00103507 -0.000510455 -0.000164112)
(0.00110799 -0.000322961 -0.000164112)
(0.00114724 -0.000125654 -0.000164113)
(0.00115163 7.54707e-05 -0.000164113)
(0.00112103 0.000274303 -0.000164113)
(0.00105637 0.0004648 -0.000164113)
(0.000959605 0.000641174 -0.000164112)
(0.000833688 0.000798066 -0.000164112)
(0.000682439 0.00093071 -0.000164112)
(0.000510455 0.00103507 -0.000164112)
(0.000322961 0.00110799 -0.000164112)
(0.000125654 0.00114724 -0.000164113)
(-7.54706e-05 0.00115163 -0.000164112)
(-0.000274303 0.00112103 -0.000164113)
(-0.000841711 0.0013198 -0.000672002)
(-0.0010581 0.00115359 -0.000672002)
(-0.00124235 0.000952322 -0.000672002)
(-0.00138884 0.000722124 -0.000672001)
(-0.00149314 0.000469984 -0.000672)
(-0.00155207 0.000203564 -0.000672)
(-0.00156383 -6.90428e-05 -0.000672)
(-0.00152809 -0.000339551 -0.000672001)
(-0.00144591 -0.000599743 -0.000672002)
(-0.0013198 -0.000841711 -0.000672002)
(-0.00115359 -0.0010581 -0.000672002)
(-0.000952322 -0.00124235 -0.000672002)
(-0.000722123 -0.00138884 -0.000672001)
(-0.000469984 -0.00149314 -0.000672)
(-0.000203564 -0.00155207 -0.000672)
(6.90429e-05 -0.00156383 -0.000672)
(0.000339551 -0.00152809 -0.000672001)
(0.000599743 -0.00144591 -0.000672002)
(0.000841711 -0.0013198 -0.000672002)
(0.0010581 -0.00115359 -0.000672002)
(0.00124235 -0.000952322 -0.000672002)
(0.00138884 -0.000722123 -0.000672001)
(0.00149314 -0.000469984 -0.000672)
(0.00155207 -0.000203564 -0.000672)
(0.00156383 6.90429e-05 -0.000672)
(0.00152809 0.000339551 -0.000672001)
(0.00144591 0.000599743 -0.000672002)
(0.0013198 0.000841711 -0.000672002)
(0.00115359 0.0010581 -0.000672002)
(0.000952322 0.00124235 -0.000672002)
(0.000722124 0.00138884 -0.000672001)
(0.000469984 0.00149314 -0.000672)
(0.000203564 0.00155207 -0.000672)
(-6.90428e-05 0.00156383 -0.000672)
(-0.000339551 0.00152809 -0.000672001)
(-0.000599742 0.00144591 -0.000672002)
(-0.000807067 0.00152238 -0.000526703)
(-0.00105916 0.00135911 -0.000526703)
(-0.00127908 0.00115454 -0.000526703)
(-0.00146013 0.000914889 -0.000526703)
(-0.00159682 0.000647441 -0.000526702)
(-0.00168498 0.00036032 -0.000526703)
(-0.00172196 6.22516e-05 -0.000526703)
(-0.00170661 -0.000237709 -0.000526703)
(-0.0016394 -0.000530447 -0.000526703)
(-0.00152238 -0.000807067 -0.000526703)
(-0.00135911 -0.00105916 -0.000526703)
(-0.00115454 -0.00127908 -0.000526703)
(-0.000914889 -0.00146013 -0.000526703)
(-0.000647441 -0.00159682 -0.000526702)
(-0.00036032 -0.00168498 -0.000526703)
(-6.22515e-05 -0.00172196 -0.000526703)
(0.000237709 -0.00170661 -0.000526703)
(0.000530447 -0.0016394 -0.000526703)
(0.000807067 -0.00152238 -0.000526703)
(0.00105916 -0.00135911 -0.000526704)
(0.00127908 -0.00115454 -0.000526703)
(0.00146013 -0.000914889 -0.000526703)
(0.00159682 -0.000647441 -0.000526702)
(0.00168498 -0.00036032 -0.000526703)
(0.00172196 -6.22515e-05 -0.000526703)
(0.00170661 0.000237709 -0.000526703)
(0.0016394 0.000530447 -0.000526703)
(0.00152238 0.000807067 -0.000526703)
(0.00135911 0.00105916 -0.000526703)
(0.00115454 0.00127908 -0.000526703)
(0.000914889 0.00146013 -0.000526703)
(0.000647441 0.00159682 -0.000526702)
(0.00036032 0.00168498 -0.000526702)
(6.22516e-05 0.00172196 -0.000526703)
(-0.000237709 0.00170661 -0.000526703)
(-0.000530447 0.0016394 -0.000526703)
(-0.000809916 0.00171215 -0.000385704)
(-0.00109492 0.0015455 -0.000385704)
(-0.00134666 0.00133189 -0.000385704)
(-0.00155748 0.00107781 -0.000385705)
(-0.00172098 0.000790979 -0.000385705)
(-0.00183219 0.000480117 -0.000385705)
(-0.00188772 0.000154667 -0.000385705)
(-0.0018859 -0.000175482 -0.000385704)
(-0.00182678 -0.0005003 -0.000385704)
(-0.00171215 -0.000809916 -0.000385704)
(-0.0015455 -0.00109492 -0.000385704)
(-0.00133189 -0.00134666 -0.000385704)
(-0.00107781 -0.00155748 -0.000385705)
(-0.000790979 -0.00172098 -0.000385705)
(-0.000480117 -0.00183219 -0.000385705)
(-0.000154667 -0.00188772 -0.000385705)
(0.000175482 -0.0018859 -0.000385704)
(0.0005003 -0.00182678 -0.000385704)
(0.000809916 -0.00171215 -0.000385704)
(0.00109492 -0.0015455 -0.000385704)
(0.00134666 -0.00133189 -0.000385704)
(0.00155748 -0.00107781 -0.000385705)
(0.00172098 -0.000790979 -0.000385705)
(0.00183219 -0.000480117 -0.000385705)
(0.00188772 -0.000154667 -0.000385705)
(0.0018859 0.000175482 -0.000385704)
(0.00182678 0.0005003 -0.000385704)
(0.00171215 0.000809917 -0.000385704)
(0.0015455 0.00109492 -0.000385704)
(0.00133189 0.00134666 -0.000385704)
(0.00107781 0.00155748 -0.000385705)
(0.000790979 0.00172098 -0.000385705)
(0.000480117 0.00183219 -0.000385705)
(0.000154667 0.00188772 -0.000385704)
(-0.000175482 0.0018859 -0.000385704)
(-0.0005003 0.00182678 -0.000385704)
(-0.00112586 0.00188521 -0.00103754)
(-0.00143612 0.00166106 -0.00103754)
(-0.00170274 0.00138645 -0.00103754)
(-0.00191763 0.00106971 -0.00103754)
(-0.00207425 0.000720466 -0.00103754)
(-0.00216784 0.000349331 -0.00103754)
(-0.00219557 -3.24179e-05 -0.00103754)
(-0.00215658 -0.000413182 -0.00103754)
(-0.00205207 -0.000781392 -0.00103754)
(-0.00188521 -0.00112586 -0.00103754)
(-0.00166106 -0.00143612 -0.00103754)
(-0.00138645 -0.00170274 -0.00103754)
(-0.00106971 -0.00191763 -0.00103754)
(-0.000720465 -0.00207425 -0.00103754)
(-0.000349331 -0.00216784 -0.00103754)
(3.2418e-05 -0.00219557 -0.00103754)
(0.000413182 -0.00215658 -0.00103754)
(0.000781392 -0.00205207 -0.00103754)
(0.00112586 -0.00188521 -0.00103754)
(0.00143612 -0.00166106 -0.00103754)
(0.00170274 -0.00138645 -0.00103754)
(0.00191763 -0.00106971 -0.00103754)
(0.00207425 -0.000720465 -0.00103754)
(0.00216784 -0.000349331 -0.00103754)
(0.00219557 3.2418e-05 -0.00103754)
(0.00215658 0.000413182 -0.00103754)
(0.00205207 0.000781392 -0.00103754)
(0.00188521 0.00112586 -0.00103754)
(0.00166106 0.00143612 -0.00103754)
(0.00138645 0.00170274 -0.00103754)
(0.00106971 0.00191763 -0.00103754)
(0.000720466 0.00207425 -0.00103754)
(0.000349331 0.00216784 -0.00103754)
(-3.24179e-05 0.00219557 -0.00103754)
(-0.000413182 0.00215658 -0.00103754)
(-0.000781392 0.00205207 -0.00103754)
(-0.00111648 0.00210783 -0.000855803)
(-0.00146554 0.00188193 -0.000855804)
(-0.00177007 0.00159885 -0.000855803)
(-0.00202081 0.00126719 -0.000855803)
(-0.00221016 0.000897029 -0.000855803)
(-0.00233235 0.000499611 -0.000855803)
(-0.00238367 8.70126e-05 -0.000855803)
(-0.00236257 -0.00032823 -0.000855803)
(-0.00226968 -0.000733499 -0.000855803)
(-0.00210783 -0.00111648 -0.000855804)
(-0.00188193 -0.00146554 -0.000855804)
(-0.00159885 -0.00177007 -0.000855804)
(-0.00126719 -0.00202081 -0.000855803)
(-0.000897028 -0.00221016 -0.000855803)
(-0.000499611 -0.00233235 -0.000855803)
(-8.70124e-05 -0.00238367 -0.000855803)
(0.00032823 -0.00236257 -0.000855803)
(0.000733499 -0.00226968 -0.000855803)
(0.00111648 -0.00210783 -0.000855804)
(0.00146554 -0.00188193 -0.000855804)
(0.00177007 -0.00159885 -0.000855804)
(0.00202081 -0.00126719 -0.000855803)
(0.00221016 -0.000897028 -0.000855803)
(0.00233235 -0.000499611 -0.000855803)
(0.00238367 -8.70124e-05 -0.000855803)
(0.00236257 0.00032823 -0.000855803)
(0.00226968 0.000733499 -0.000855803)
(0.00210783 0.00111648 -0.000855803)
(0.00188193 0.00146554 -0.000855803)
(0.00159885 0.00177007 -0.000855803)
(0.00126719 0.00202081 -0.000855803)
(0.000897029 0.00221016 -0.000855803)
(0.000499611 0.00233235 -0.000855803)
(8.70126e-05 0.00238367 -0.000855803)
(-0.00032823 0.00236257 -0.000855803)
(-0.000733499 0.00226968 -0.000855803)
(-0.00114803 0.00230735 -0.000681469)
(-0.00153126 0.00207294 -0.000681469)
(-0.00186796 0.00177555 -0.000681469)
(-0.0021479 0.0014242 -0.000681469)
(-0.00236258 0.00102959 -0.000681469)
(-0.00250547 0.00060369 -0.000681469)
(-0.00257224 0.000159447 -0.000681469)
(-0.00256085 -0.00028964 -0.000681469)
(-0.00247165 -0.000729926 -0.000681469)
(-0.00230735 -0.00114803 -0.000681469)
(-0.00207294 -0.00153126 -0.000681469)
(-0.00177555 -0.00186796 -0.000681469)
(-0.0014242 -0.0021479 -0.000681469)
(-0.00102959 -0.00236258 -0.000681469)
(-0.00060369 -0.00250547 -0.000681469)
(-0.000159447 -0.00257224 -0.000681469)
(0.00028964 -0.00256085 -0.000681469)
(0.000729927 -0.00247165 -0.000681469)
(0.00114803 -0.00230735 -0.000681469)
(0.00153126 -0.00207294 -0.000681469)
(0.00186796 -0.00177555 -0.000681469)
(0.0021479 -0.0014242 -0.000681469)
(0.00236258 -0.00102959 -0.000681469)
(0.00250547 -0.00060369 -0.000681469)
(0.00257224 -0.000159447 -0.000681469)
(0.00256085 0.00028964 -0.000681469)
(0.00247165 0.000729927 -0.000681469)
(0.00230735 0.00114803 -0.000681469)
(0.00207294 0.00153126 -0.000681469)
(0.00177555 0.00186796 -0.000681469)
(0.0014242 0.0021479 -0.000681469)
(0.00102959 0.00236258 -0.000681469)
(0.00060369 0.00250547 -0.000681469)
(0.000159447 0.00257224 -0.000681469)
(-0.00028964 0.00256085 -0.000681469)
(-0.000729926 0.00247165 -0.000681469)
(-0.00140677 0.00246188 -0.00143618)
(-0.0018129 0.00218019 -0.00143618)
(-0.00216394 0.00183227 -0.00143618)
(-0.00244924 0.00142867 -0.00143618)
(-0.00266011 0.000981656 -0.00143618)
(-0.00279016 0.000504819 -0.00143618)
(-0.00283543 1.26435e-05 -0.00143618)
(-0.00279455 -0.000479917 -0.00143618)
(-0.00266876 -0.000957895 -0.00143618)
(-0.00246188 -0.00140677 -0.00143618)
(-0.00218019 -0.0018129 -0.00143618)
(-0.00183227 -0.00216394 -0.00143618)
(-0.00142867 -0.00244924 -0.00143618)
(-0.000981656 -0.00266011 -0.00143618)
(-0.000504819 -0.00279016 -0.00143618)
(-1.26433e-05 -0.00283543 -0.00143618)
(0.000479917 -0.00279455 -0.00143618)
(0.000957895 -0.00266876 -0.00143618)
(0.00140677 -0.00246188 -0.00143618)
(0.0018129 -0.00218019 -0.00143618)
(0.00216394 -0.00183227 -0.00143618)
(0.00244924 -0.00142867 -0.00143618)
(0.00266011 -0.000981656 -0.00143618)
(0.00279016 -0.000504819 -0.00143618)
(0.00283543 -1.26434e-05 -0.00143618)
(0.00279455 0.000479917 -0.00143618)
(0.00266876 0.000957895 -0.00143618)
(0.00246188 0.00140677 -0.00143618)
(0.00218019 0.0018129 -0.00143618)
(0.00183227 0.00216394 -0.00143618)
(0.00142867 0.00244924 -0.00143618)
(0.000981656 0.00266011 -0.00143618)
(0.000504819 0.00279016 -0.00143618)
(1.26435e-05 0.00283543 -0.00143618)
(-0.000479917 0.00279455 -0.00143618)
(-0.000957895 0.00266876 -0.00143618)
(-0.0014189 0.00266396 -0.00122967)
(-0.00185993 0.0023771 -0.00122967)
(-0.00224445 0.00201801 -0.00122967)
(-0.00256078 0.00159761 -0.00122967)
(-0.0027993 0.00112866 -0.00122967)
(-0.00295276 0.000625424 -0.00122967)
(-0.0030165 0.000103181 -0.00122967)
(-0.00298859 -0.000422197 -0.00122967)
(-0.00286988 -0.000934747 -0.00122967)
(-0.00266396 -0.0014189 -0.00122967)
(-0.0023771 -0.00185993 -0.00122967)
(-0.00201801 -0.00224445 -0.00122967)
(-0.00159761 -0.00256078 -0.00122967)
(-0.00112866 -0.0027993 -0.00122967)
(-0.000625424 -0.00295276 -0.00122967)
(-0.000103181 -0.0030165 -0.00122967)
(0.000422197 -0.00298859 -0.00122967)
(0.000934747 -0.00286988 -0.00122967)
(0.0014189 -0.00266396 -0.00122967)
(0.00185993 -0.0023771 -0.00122967)
(0.00224445 -0.00201801 -0.00122967)
(0.00256078 -0.00159761 -0.00122967)
(0.0027993 -0.00112866 -0.00122967)
(0.00295276 -0.000625424 -0.00122967)
(0.0030165 -0.000103181 -0.00122967)
(0.00298859 0.000422197 -0.00122967)
(0.00286988 0.000934747 -0.00122967)
(0.00266396 0.0014189 -0.00122967)
(0.0023771 0.00185993 -0.00122967)
(0.00201801 0.00224445 -0.00122967)
(0.00159761 0.00256078 -0.00122967)
(0.00112866 0.0027993 -0.00122967)
(0.000625424 0.00295276 -0.00122967)
(0.000103181 0.0030165 -0.00122967)
(-0.000422197 0.00298859 -0.00122967)
(-0.000934747 0.00286988 -0.00122967)
(-0.00147275 0.00283352 -0.00103354)
(-0.00194242 0.00253473 -0.00103354)
(-0.00235306 0.00215893 -0.00103354)
(-0.0026922 0.00171753 -0.00103354)
(-0.00294955 0.00122394 -0.00103354)
(-0.00311727 0.000693159 -0.00103354)
(-0.00319028 0.00014132 -0.00103354)
(-0.00316635 -0.000414814 -0.00103354)
(-0.00304622 -0.000958343 -0.00103354)
(-0.00283352 -0.00147275 -0.00103354)
(-0.00253473 -0.00194242 -0.00103354)
(-0.00215893 -0.00235306 -0.00103354)
(-0.00171753 -0.0026922 -0.00103354)
(-0.00122394 -0.00294955 -0.00103354)
(-0.000693159 -0.00311727 -0.00103354)
(-0.00014132 -0.00319028 -0.00103354)
(0.000414814 -0.00316635 -0.00103354)
(0.000958343 -0.00304622 -0.00103354)
(0.00147275 -0.00283352 -0.00103354)
(0.00194242 -0.00253473 -0.00103354)
(0.00235306 -0.00215893 -0.00103354)
(0.0026922 -0.00171753 -0.00103354)
(0.00294955 -0.00122394 -0.00103354)
(0.00311727 -0.000693159 -0.00103354)
(0.00319028 -0.00014132 -0.00103354)
(0.00316635 0.000414814 -0.00103354)
(0.00304622 0.000958343 -0.00103354)
(0.00283352 0.00147275 -0.00103354)
(0.00253473 0.00194242 -0.00103354)
(0.00215893 0.00235306 -0.00103354)
(0.00171753 0.0026922 -0.00103354)
(0.00122394 0.00294955 -0.00103354)
(0.00069316 0.00311727 -0.00103354)
(0.00014132 0.00319028 -0.00103354)
(-0.000414814 0.00316635 -0.00103354)
(-0.000958343 0.00304622 -0.00103354)
(-0.00169534 0.00302696 -0.00185994)
(-0.00219521 0.00268658 -0.00185994)
(-0.00262838 0.00226457 -0.00185994)
(-0.00298169 0.00177376 -0.00185994)
(-0.0032444 0.00122904 -0.00185994)
(-0.00340853 0.000646987 -0.00185994)
(-0.00346909 4.52729e-05 -0.00185994)
(-0.00342425 -0.000557818 -0.00185994)
(-0.00327537 -0.00114396 -0.00185994)
(-0.00302696 -0.00169534 -0.00185994)
(-0.00268658 -0.00219521 -0.00185994)
(-0.00226457 -0.00262838 -0.00185994)
(-0.00177376 -0.00298169 -0.00185994)
(-0.00122904 -0.0032444 -0.00185994)
(-0.000646987 -0.00340853 -0.00185994)
(-4.52727e-05 -0.00346909 -0.00185994)
(0.000557818 -0.00342425 -0.00185994)
(0.00114396 -0.00327537 -0.00185994)
(0.00169534 -0.00302696 -0.00185994)
(0.00219521 -0.00268658 -0.00185994)
(0.00262838 -0.00226457 -0.00185994)
(0.00298169 -0.00177376 -0.00185994)
(0.0032444 -0.00122904 -0.00185994)
(0.00340853 -0.000646987 -0.00185994)
(0.00346909 -4.52728e-05 -0.00185994)
(0.00342425 0.000557818 -0.00185994)
(0.00327537 0.00114396 -0.00185994)
(0.00302696 0.00169534 -0.00185994)
(0.00268658 0.00219521 -0.00185994)
(0.00226457 0.00262838 -0.00185994)
(0.00177376 0.00298169 -0.00185994)
(0.00122904 0.0032444 -0.00185994)
(0.000646987 0.00340853 -0.00185994)
(4.52729e-05 0.0034691 -0.00185994)
(-0.000557818 0.00342425 -0.00185994)
(-0.00114396 0.00327537 -0.00185994)
(-0.00171889 0.0031767 -0.00163522)
(-0.00224441 0.00282996 -0.00163522)
(-0.00270173 0.00239723 -0.00163522)
(-0.00307696 0.00189166 -0.00163522)
(-0.00335869 0.00132862 -0.00163522)
(-0.00353838 0.000725201 -0.00163522)
(-0.00361055 9.97504e-05 -0.00163522)
(-0.00357302 -0.000528731 -0.00163522)
(-0.00342693 -0.00114115 -0.00163522)
(-0.0031767 -0.00171889 -0.00163522)
(-0.00282996 -0.00224441 -0.00163522)
(-0.00239723 -0.00270173 -0.00163522)
(-0.00189166 -0.00307696 -0.00163522)
(-0.00132862 -0.00335869 -0.00163522)
(-0.0007252 -0.00353838 -0.00163522)
(-9.97502e-05 -0.00361055 -0.00163522)
(0.000528731 -0.00357302 -0.00163522)
(0.00114115 -0.00342693 -0.00163522)
(0.00171889 -0.0031767 -0.00163522)
(0.00224441 -0.00282996 -0.00163522)
(0.00270173 -0.00239723 -0.00163522)
(0.00307696 -0.00189166 -0.00163522)
(0.00335869 -0.00132862 -0.00163522)
(0.00353838 -0.0007252 -0.00163522)
(0.00361055 -9.97503e-05 -0.00163522)
(0.00357302 0.000528731 -0.00163522)
(0.00342693 0.00114115 -0.00163522)
(0.0031767 0.00171889 -0.00163522)
(0.00282996 0.00224441 -0.00163522)
(0.00239723 0.00270173 -0.00163522)
(0.00189166 0.00307696 -0.00163522)
(0.00132862 0.00335869 -0.00163522)
(0.000725201 0.00353838 -0.00163522)
(9.97504e-05 0.00361055 -0.00163522)
(-0.000528731 0.00357302 -0.00163522)
(-0.00114115 0.00342693 -0.00163522)
(-0.00178234 0.00328689 -0.00142346)
(-0.00232603 0.00292745 -0.00142346)
(-0.00279903 0.00247907 -0.00142346)
(-0.003187 0.00195536 -0.00142346)
(-0.00347812 0.00137224 -0.00142346)
(-0.00366357 0.000747419 -0.00142346)
(-0.0037377 9.98935e-05 -0.00142346)
(-0.00369826 -0.00055067 -0.00142346)
(-0.00354645 -0.0011845 -0.00142346)
(-0.00328689 -0.00178234 -0.00142346)
(-0.00292745 -0.00232603 -0.00142346)
(-0.00247907 -0.00279903 -0.00142346)
(-0.00195536 -0.003187 -0.00142346)
(-0.00137224 -0.00347812 -0.00142346)
(-0.000747419 -0.00366357 -0.00142346)
(-9.98933e-05 -0.0037377 -0.00142346)
(0.00055067 -0.00369826 -0.00142346)
(0.0011845 -0.00354645 -0.00142346)
(0.00178234 -0.00328689 -0.00142346)
(0.00232603 -0.00292745 -0.00142346)
(0.00279903 -0.00247907 -0.00142346)
(0.003187 -0.00195536 -0.00142346)
(0.00347812 -0.00137224 -0.00142346)
(0.00366357 -0.000747419 -0.00142346)
(0.0037377 -9.98934e-05 -0.00142346)
(0.00369826 0.00055067 -0.00142346)
(0.00354645 0.0011845 -0.00142346)
(0.00328689 0.00178234 -0.00142346)
(0.00292745 0.00232603 -0.00142346)
(0.00247907 0.00279903 -0.00142346)
(0.00195536 0.003187 -0.00142346)
(0.00137224 0.00347812 -0.00142346)
(0.000747419 0.00366357 -0.00142346)
(9.98935e-05 0.0037377 -0.00142346)
(-0.000550669 0.00369826 -0.00142346)
(-0.0011845 0.00354645 -0.00142346)
(-0.00199653 0.00354966 -0.00230413)
(-0.00258259 0.00314904 -0.00230413)
(-0.00309018 0.00265274 -0.00230413)
(-0.00350387 0.00207583 -0.00230413)
(-0.00381111 0.00143585 -0.00230413)
(-0.00400254 0.000752247 -0.00230413)
(-0.00407236 4.57856e-05 -0.00230413)
(-0.00401844 -0.000662068 -0.00230413)
(-0.00384242 -0.00134981 -0.00230413)
(-0.00354966 -0.00199653 -0.00230413)
(-0.00314904 -0.00258259 -0.00230413)
(-0.00265274 -0.00309018 -0.00230413)
(-0.00207583 -0.00350387 -0.00230413)
(-0.00143585 -0.00381111 -0.00230413)
(-0.000752247 -0.00400254 -0.00230413)
(-4.57854e-05 -0.00407236 -0.00230413)
(0.000662069 -0.00401844 -0.00230413)
(0.00134981 -0.00384243 -0.00230413)
(0.00199653 -0.00354966 -0.00230413)
(0.00258259 -0.00314904 -0.00230413)
(0.00309018 -0.00265274 -0.00230413)
(0.00350387 -0.00207583 -0.00230413)
(0.00381111 -0.00143585 -0.00230413)
(0.00400254 -0.000752247 -0.00230413)
(0.00407236 -4.57855e-05 -0.00230413)
(0.00401844 0.000662069 -0.00230413)
(0.00384243 0.00134981 -0.00230413)
(0.00354966 0.00199653 -0.00230413)
(0.00314904 0.00258259 -0.00230413)
(0.00265274 0.00309018 -0.00230413)
(0.00207583 0.00350387 -0.00230413)
(0.00143585 0.00381111 -0.00230413)
(0.000752247 0.00400254 -0.00230413)
(4.57857e-05 0.00407236 -0.00230413)
(-0.000662068 0.00401844 -0.00230413)
(-0.00134981 0.00384243 -0.00230413)
(-0.0020183 0.00362632 -0.00206269)
(-0.00261734 0.00322075 -0.00206269)
(-0.00313685 0.00271732 -0.00206269)
(-0.00356106 0.00213133 -0.00206269)
(-0.00387706 0.00148058 -0.00206269)
(-0.00407526 0.000784845 -0.00206269)
(-0.00414963 6.52601e-05 -0.00206269)
(-0.00409792 -0.000656307 -0.00206269)
(-0.0039217 -0.00135793 -0.00206269)
(-0.00362632 -0.0020183 -0.00206269)
(-0.00322075 -0.00261734 -0.00206269)
(-0.00271732 -0.00313685 -0.00206269)
(-0.00213133 -0.00356106 -0.00206269)
(-0.00148058 -0.00387706 -0.00206269)
(-0.000784845 -0.00407526 -0.00206269)
(-6.52599e-05 -0.00414963 -0.00206269)
(0.000656307 -0.00409792 -0.00206269)
(0.00135793 -0.0039217 -0.00206269)
(0.0020183 -0.00362632 -0.00206269)
(0.00261734 -0.00322075 -0.00206269)
(0.00313685 -0.00271732 -0.00206269)
(0.00356106 -0.00213133 -0.00206269)
(0.00387706 -0.00148058 -0.00206269)
(0.00407526 -0.000784845 -0.00206269)
(0.00414963 -6.526e-05 -0.00206269)
(0.00409792 0.000656307 -0.00206269)
(0.0039217 0.00135793 -0.00206269)
(0.00362632 0.0020183 -0.00206269)
(0.00322075 0.00261734 -0.00206269)
(0.00271732 0.00313685 -0.00206269)
(0.00213133 0.00356106 -0.00206269)
(0.00148058 0.00387706 -0.00206269)
(0.000784845 0.00407526 -0.00206269)
(6.52602e-05 0.00414963 -0.00206269)
(-0.000656307 0.00409792 -0.00206269)
(-0.00135793 0.0039217 -0.00206269)
(-0.00207579 0.00366005 -0.00183637)
(-0.00267982 0.00324399 -0.00183637)
(-0.00320242 0.00272936 -0.00183637)
(-0.00362771 0.0021318 -0.00183637)
(-0.00394278 0.00146947 -0.00183637)
(-0.00413805 0.000762491 -0.00183637)
(-0.00420759 3.2341e-05 -0.00183637)
(-0.00414929 -0.000698791 -0.00183637)
(-0.00396491 -0.00140869 -0.00183637)
(-0.00366005 -0.00207579 -0.00183637)
(-0.00324399 -0.00267982 -0.00183637)
(-0.00272936 -0.00320242 -0.00183637)
(-0.0021318 -0.00362771 -0.00183637)
(-0.00146947 -0.00394278 -0.00183637)
(-0.000762491 -0.00413805 -0.00183637)
(-3.23408e-05 -0.00420759 -0.00183637)
(0.000698791 -0.00414929 -0.00183637)
(0.00140869 -0.00396491 -0.00183637)
(0.00207579 -0.00366005 -0.00183637)
(0.00267982 -0.00324399 -0.00183637)
(0.00320242 -0.00272936 -0.00183637)
(0.00362771 -0.0021318 -0.00183637)
(0.00394278 -0.00146947 -0.00183637)
(0.00413805 -0.000762491 -0.00183637)
(0.00420759 -3.23409e-05 -0.00183637)
(0.00414929 0.000698791 -0.00183637)
(0.00396491 0.00140869 -0.00183637)
(0.00366005 0.00207579 -0.00183637)
(0.00324399 0.00267982 -0.00183637)
(0.00272936 0.00320242 -0.00183637)
(0.0021318 0.00362771 -0.00183637)
(0.00146947 0.00394278 -0.00183637)
(0.000762491 0.00413805 -0.00183637)
(3.2341e-05 0.00420759 -0.00183637)
(-0.000698791 0.00414929 -0.00183637)
(-0.00140869 0.00396491 -0.00183637)
(-0.00230399 0.00399305 -0.00276225)
(-0.00296237 0.0035323 -0.00276225)
(-0.00353075 0.00296423 -0.00276225)
(-0.00399184 0.00230608 -0.00276226)
(-0.00433164 0.00157787 -0.00276226)
(-0.00453983 0.000801722 -0.00276225)
(-0.00461008 1.20937e-06 -0.00276225)