/*--------------------------------*- C++ -*----------------------------------*\
| =========                 |                                                 |
| \\      /  F ield         | OpenFOAM: The Open Source CFD Toolbox           |
|  \\    /   O peration     | Version:  2312                                  |
|   \\  /    A nd           | Website:  www.openfoam.com                      |
|    \\/     M anipulation  |                                                 |
\*---------------------------------------------------------------------------*/
FoamFile
{
    version     2.0;
    format      ascii;
    arch        "LSB;label=32;scalar=64";
    class       volVectorField;
    location    "0.6";
    object      D_0_0;
}
// * * * * * * * * * * * * * * * * * * * * * * * * * * * * * * * * * * * * * //

dimensions      [0 1 0 0 0 0 0];

internalField   nonuniform List<vector> 
1620
(
(-0.000232544 0.000251767 -0.000106019)
(-0.00027273 0.00020756 -0.000106019)
(-0.000304629 0.000157048 -0.000106019)
(-0.000327273 0.000101764 -0.000106018)
(-0.000339972 4.33886e-05 -0.000106019)
(-0.000342341 -1.63063e-05 -0.000106019)
(-0.000334309 -7.55057e-05 -0.000106018)
(-0.000316118 -0.00013241 -0.000106018)
(-0.000288323 -0.000185293 -0.000106019)
(-0.000251767 -0.000232544 -0.000106019)
(-0.00020756 -0.00027273 -0.000106019)
(-0.000157048 -0.000304629 -0.000106019)
(-0.000101764 -0.000327273 -0.000106018)
(-4.33886e-05 -0.000339972 -0.000106019)
(1.63064e-05 -0.000342341 -0.000106019)
(7.55057e-05 -0.000334309 -0.000106018)
(0.00013241 -0.000316118 -0.000106018)
(0.000185293 -0.000288323 -0.000106019)
(0.000232544 -0.000251767 -0.000106019)
(0.00027273 -0.00020756 -0.000106019)
(0.000304629 -0.000157048 -0.000106019)
(0.000327273 -0.000101764 -0.000106018)
(0.000339972 -4.33886e-05 -0.000106019)
(0.000342341 1.63064e-05 -0.000106019)
(0.000334309 7.55057e-05 -0.000106018)
(0.000316118 0.00013241 -0.000106018)
(0.000288323 0.000185293 -0.000106019)
(0.000251767 0.000232544 -0.000106019)
(0.00020756 0.00027273 -0.000106019)
(0.000157048 0.000304629 -0.000106019)
(0.000101765 0.000327273 -0.000106018)
(4.33886e-05 0.000339972 -0.000106019)
(-1.63063e-05 0.000342341 -0.000106019)
(-7.55057e-05 0.000334309 -0.000106018)
(-0.00013241 0.000316118 -0.000106018)
(-0.000185293 0.000288323 -0.000106019)
(-0.000162066 0.000308584 -7.13137e-05)
(-0.000213189 0.000275753 -7.13138e-05)
(-0.000257834 0.000234544 -7.13138e-05)
(-0.000294645 0.000186208 -7.13136e-05)
(-0.000322504 0.000132215 -7.13137e-05)
(-0.000340563 7.42038e-05 -7.13137e-05)
(-0.000348275 1.39383e-05 -7.13136e-05)
(-0.000345404 -4.67506e-05 -7.13136e-05)
(-0.000332038 -0.000106019 -7.13137e-05)
(-0.000308584 -0.000162066 -7.13137e-05)
(-0.000275753 -0.000213189 -7.13138e-05)
(-0.000234544 -0.000257834 -7.13138e-05)
(-0.000186208 -0.000294645 -7.13136e-05)
(-0.000132215 -0.000322504 -7.13137e-05)
(-7.42038e-05 -0.000340563 -7.13137e-05)
(-1.39383e-05 -0.000348275 -7.13136e-05)
(4.67506e-05 -0.000345404 -7.13136e-05)
(0.000106019 -0.000332038 -7.13137e-05)
(0.000162066 -0.000308584 -7.13137e-05)
(0.000213189 -0.000275753 -7.13138e-05)
(0.000257834 -0.000234544 -7.13138e-05)
(0.000294645 -0.000186208 -7.13136e-05)
(0.000322504 -0.000132215 -7.13137e-05)
(0.000340563 -7.42038e-05 -7.13137e-05)
(0.000348275 -1.39383e-05 -7.13136e-05)
(0.000345404 4.67506e-05 -7.13136e-05)
(0.000332038 0.000106019 -7.13137e-05)
(0.000308584 0.000162066 -7.13137e-05)
(0.000275753 0.000213189 -7.13138e-05)
(0.000234544 0.000257834 -7.13137e-05)
(0.000186208 0.000294645 -7.13136e-05)
(0.000132215 0.000322504 -7.13137e-05)
(7.42038e-05 0.000340563 -7.13137e-05)
(1.39383e-05 0.000348275 -7.13136e-05)
(-4.67506e-05 0.000345404 -7.13136e-05)
(-0.000106019 0.000332038 -7.13137e-05)
(-0.000117199 0.000363887 -3.6697e-05)
(-0.000178607 0.000338007 -3.6697e-05)
(-0.000234588 0.000301858 -3.66971e-05)
(-0.000283441 0.000256536 -3.6697e-05)
(-0.000323682 0.00020342 -3.66971e-05)
(-0.000354088 0.000144123 -3.6697e-05)
(-0.000373735 8.04464e-05 -3.66971e-05)
(-0.000382027 1.43258e-05 -3.66972e-05)
(-0.00037871 -5.223e-05 -3.6697e-05)
(-0.000363887 -0.000117199 -3.6697e-05)
(-0.000338007 -0.000178607 -3.6697e-05)
(-0.000301858 -0.000234588 -3.66972e-05)
(-0.000256536 -0.000283441 -3.6697e-05)
(-0.00020342 -0.000323682 -3.66971e-05)
(-0.000144123 -0.000354088 -3.6697e-05)
(-8.04464e-05 -0.000373735 -3.66971e-05)
(-1.43258e-05 -0.000382027 -3.66972e-05)
(5.22301e-05 -0.00037871 -3.6697e-05)
(0.000117199 -0.000363887 -3.6697e-05)
(0.000178607 -0.000338007 -3.6697e-05)
(0.000234588 -0.000301858 -3.66972e-05)
(0.000283441 -0.000256536 -3.6697e-05)
(0.000323682 -0.00020342 -3.66971e-05)
(0.000354088 -0.000144123 -3.6697e-05)
(0.000373735 -8.04464e-05 -3.66971e-05)
(0.000382027 -1.43257e-05 -3.66972e-05)
(0.00037871 5.22301e-05 -3.6697e-05)
(0.000363887 0.000117199 -3.6697e-05)
(0.000338007 0.000178607 -3.6697e-05)
(0.000301858 0.000234588 -3.66971e-05)
(0.000256536 0.000283441 -3.6697e-05)
(0.00020342 0.000323682 -3.66971e-05)
(0.000144123 0.000354088 -3.6697e-05)
(8.04464e-05 0.000373735 -3.66971e-05)
(1.43257e-05 0.000382027 -3.66972e-05)
(-5.22301e-05 0.00037871 -3.6697e-05)
(-0.000544657 0.000773644 -0.000358163)
(-0.000670725 0.000667311 -0.000358164)
(-0.000776413 0.000540703 -0.000358163)
(-0.000858509 0.000397667 -0.000358162)
(-0.000914521 0.000242548 -0.000358162)
(-0.000942745 8.00579e-05 -0.000358162)
(-0.000942325 -8.48646e-05 -0.000358162)
(-0.000913272 -0.000247208 -0.000358162)
(-0.000856469 -0.000402041 -0.000358163)
(-0.000773644 -0.000544657 -0.000358163)
(-0.000667311 -0.000670725 -0.000358164)
(-0.000540703 -0.000776413 -0.000358164)
(-0.000397667 -0.000858509 -0.000358162)
(-0.000242547 -0.000914521 -0.000358162)
(-8.00579e-05 -0.000942745 -0.000358162)
(8.48646e-05 -0.000942325 -0.000358162)
(0.000247208 -0.000913272 -0.000358162)
(0.000402041 -0.000856469 -0.000358163)
(0.000544658 -0.000773644 -0.000358163)
(0.000670725 -0.000667311 -0.000358164)
(0.000776413 -0.000540703 -0.000358164)
(0.00085851 -0.000397667 -0.000358162)
(0.000914521 -0.000242547 -0.000358162)
(0.000942745 -8.00579e-05 -0.000358162)
(0.000942325 8.48646e-05 -0.000358162)
(0.000913272 0.000247208 -0.000358162)
(0.000856469 0.000402041 -0.000358163)
(0.000773644 0.000544658 -0.000358163)
(0.000667311 0.000670725 -0.000358164)
(0.000540703 0.000776413 -0.000358163)
(0.000397667 0.00085851 -0.000358162)
(0.000242548 0.000914521 -0.000358162)
(8.0058e-05 0.000942745 -0.000358162)
(-8.48646e-05 0.000942325 -0.000358162)
(-0.000247208 0.000913272 -0.000358162)
(-0.000402041 0.000856469 -0.000358163)
(-0.000488726 0.000918688 -0.000260984)
(-0.00064083 0.000819864 -0.000260984)
(-0.000773462 0.00069613 -0.000260985)
(-0.000882593 0.000551245 -0.000260984)
(-0.000964908 0.00038961 -0.000260984)
(-0.0010179 0.000216135 -0.000260984)
(-0.00103997 3.60948e-05 -0.000260984)
(-0.00103044 -0.000145043 -0.000260984)
(-0.000989598 -0.000321773 -0.000260984)
(-0.000918688 -0.000488726 -0.000260984)
(-0.000819864 -0.00064083 -0.000260984)
(-0.00069613 -0.000773462 -0.000260985)
(-0.000551245 -0.000882593 -0.000260984)
(-0.000389609 -0.000964908 -0.000260984)
(-0.000216135 -0.0010179 -0.000260984)
(-3.60948e-05 -0.00103997 -0.000260984)
(0.000145043 -0.00103044 -0.000260984)
(0.000321773 -0.000989598 -0.000260984)
(0.000488726 -0.000918688 -0.000260984)
(0.00064083 -0.000819864 -0.000260984)
(0.000773462 -0.00069613 -0.000260985)
(0.000882593 -0.000551245 -0.000260984)
(0.000964908 -0.000389609 -0.000260984)
(0.0010179 -0.000216135 -0.000260984)
(0.00103997 -3.60947e-05 -0.000260984)
(0.00103044 0.000145043 -0.000260984)
(0.000989598 0.000321773 -0.000260984)
(0.000918688 0.000488726 -0.000260984)
(0.000819864 0.00064083 -0.000260984)
(0.00069613 0.000773462 -0.000260984)
(0.000551245 0.000882594 -0.000260984)
(0.000389609 0.000964908 -0.000260984)
(0.000216135 0.0010179 -0.000260984)
(3.60948e-05 0.00103997 -0.000260984)
(-0.000145043 0.00103044 -0.000260984)
(-0.000321773 0.000989598 -0.000260984)
(-0.000465821 0.00105923 -0.000165773)
(-0.000642677 0.000962252 -0.000165773)
(-0.000800006 0.000836034 -0.000165773)
(-0.000933027 0.000684413 -0.000165773)
(-0.0010377 0.000511996 -0.000165773)
(-0.00111084 0.000324023 -0.000165773)
(-0.00115023 0.000126204 -0.000165773)
(-0.00115467 -7.54486e-05 -0.000165773)
(-0.00112403 -0.000274809 -0.000165774)
(-0.00105923 -0.000465821 -0.000165774)
(-0.000962252 -0.000642677 -0.000165773)
(-0.000836034 -0.000800006 -0.000165773)
(-0.000684413 -0.000933027 -0.000165773)
(-0.000511996 -0.0010377 -0.000165773)
(-0.000324023 -0.00111084 -0.000165773)
(-0.000126204 -0.00115023 -0.000165774)
(7.54486e-05 -0.00115467 -0.000165773)
(0.00027481 -0.00112403 -0.000165774)
(0.000465821 -0.00105923 -0.000165774)
(0.000642677 -0.000962252 -0.000165773)
(0.000800006 -0.000836034 -0.000165773)
(0.000933027 -0.000684413 -0.000165773)
(0.0010377 -0.000511996 -0.000165773)
(0.00111084 -0.000324023 -0.000165773)
(0.00115023 -0.000126204 -0.000165773)
(0.00115467 7.54486e-05 -0.000165773)
(0.00112403 0.00027481 -0.000165773)
(0.00105923 0.000465821 -0.000165773)
(0.000962252 0.000642677 -0.000165773)
(0.000836034 0.000800006 -0.000165773)
(0.000684413 0.000933027 -0.000165773)
(0.000511996 0.0010377 -0.000165773)
(0.000324023 0.00111084 -0.000165773)
(0.000126204 0.00115023 -0.000165773)
(-7.54486e-05 0.00115467 -0.000165773)
(-0.000274809 0.00112403 -0.000165773)
(-0.000843669 0.00131545 -0.000679332)
(-0.00105928 0.00114896 -0.000679332)
(-0.0012427 0.000947563 -0.000679332)
(-0.00138836 0.000717376 -0.000679331)
(-0.00149184 0.000465392 -0.000679331)
(-0.00154999 0.000199266 -0.000679331)
(-0.00156104 -7.29145e-05 -0.000679331)
(-0.00152467 -0.000342879 -0.000679331)
(-0.00144196 -0.000602426 -0.000679332)
(-0.00131545 -0.000843669 -0.000679332)
(-0.00114896 -0.00105928 -0.000679332)
(-0.000947563 -0.0012427 -0.000679332)
(-0.000717375 -0.00138836 -0.000679331)
(-0.000465391 -0.00149184 -0.000679331)
(-0.000199266 -0.00154999 -0.000679331)
(7.29146e-05 -0.00156104 -0.000679331)
(0.00034288 -0.00152467 -0.000679331)
(0.000602427 -0.00144196 -0.000679332)
(0.000843669 -0.00131545 -0.000679333)
(0.00105928 -0.00114896 -0.000679333)
(0.0012427 -0.000947563 -0.000679332)
(0.00138836 -0.000717375 -0.000679331)
(0.00149184 -0.000465391 -0.000679331)
(0.00154999 -0.000199266 -0.000679331)
(0.00156104 7.29146e-05 -0.000679331)
(0.00152467 0.00034288 -0.000679331)
(0.00144196 0.000602427 -0.000679332)
(0.00131545 0.000843669 -0.000679332)
(0.00114896 0.00105928 -0.000679332)
(0.000947563 0.0012427 -0.000679332)
(0.000717376 0.00138836 -0.000679331)
(0.000465392 0.00149184 -0.00067933)
(0.000199266 0.00154999 -0.00067933)
(-7.29145e-05 0.00156104 -0.000679331)
(-0.000342879 0.00152467 -0.000679331)
(-0.000602426 0.00144196 -0.000679332)
(-0.000808974 0.00152235 -0.000532169)
(-0.00106104 0.00135874 -0.000532169)
(-0.00128086 0.00115385 -0.000532169)
(-0.00146176 0.000913905 -0.000532169)
(-0.00159826 0.000646188 -0.000532168)
(-0.00168618 0.000358836 -0.000532168)
(-0.00172288 6.05818e-05 -0.000532168)
(-0.00170722 -0.000239514 -0.000532169)
(-0.0016397 -0.000532331 -0.000532169)
(-0.00152235 -0.000808974 -0.000532169)
(-0.00135874 -0.00106104 -0.000532169)
(-0.00115385 -0.00128086 -0.000532169)
(-0.000913904 -0.00146176 -0.000532169)
(-0.000646188 -0.00159826 -0.000532168)
(-0.000358836 -0.00168618 -0.000532168)
(-6.05817e-05 -0.00172288 -0.000532168)
(0.000239514 -0.00170722 -0.000532169)
(0.000532331 -0.0016397 -0.000532169)
(0.000808974 -0.00152235 -0.000532169)
(0.00106104 -0.00135874 -0.000532169)
(0.00128086 -0.00115385 -0.000532169)
(0.00146176 -0.000913904 -0.000532169)
(0.00159826 -0.000646188 -0.000532168)
(0.00168618 -0.000358836 -0.000532168)
(0.00172288 -6.05817e-05 -0.000532168)
(0.00170722 0.000239514 -0.000532169)
(0.0016397 0.000532331 -0.000532169)
(0.00152235 0.000808974 -0.000532169)
(0.00135874 0.00106104 -0.000532169)
(0.00115385 0.00128086 -0.000532169)
(0.000913905 0.00146176 -0.000532169)
(0.000646188 0.00159826 -0.000532168)
(0.000358836 0.00168618 -0.000532168)
(6.05818e-05 0.00172288 -0.000532168)
(-0.000239514 0.00170722 -0.000532169)
(-0.000532331 0.0016397 -0.000532169)
(-0.000812327 0.00171628 -0.000389373)
(-0.00109801 0.00154915 -0.000389373)
(-0.00135034 0.00133495 -0.000389373)
(-0.00156164 0.00108018 -0.000389374)
(-0.00172548 0.000792596 -0.000389374)
(-0.0018369 0.000480927 -0.000389374)
(-0.00189251 0.000154646 -0.000389374)
(-0.00189061 -0.000176334 -0.000389373)
(-0.00183127 -0.000501956 -0.000389373)
(-0.00171628 -0.000812327 -0.000389373)
(-0.00154915 -0.00109801 -0.000389373)
(-0.00133495 -0.00135034 -0.000389373)
(-0.00108018 -0.00156164 -0.000389374)
(-0.000792596 -0.00172548 -0.000389374)
(-0.000480927 -0.0018369 -0.000389374)
(-0.000154646 -0.00189251 -0.000389374)
(0.000176334 -0.00189061 -0.000389373)
(0.000501956 -0.00183127 -0.000389373)
(0.000812327 -0.00171628 -0.000389373)
(0.00109801 -0.00154915 -0.000389373)
(0.00135034 -0.00133495 -0.000389373)
(0.00156164 -0.00108018 -0.000389374)
(0.00172548 -0.000792596 -0.000389374)
(0.0018369 -0.000480927 -0.000389374)
(0.00189251 -0.000154646 -0.000389374)
(0.00189061 0.000176334 -0.000389373)
(0.00183127 0.000501956 -0.000389373)
(0.00171628 0.000812327 -0.000389373)
(0.00154915 0.00109802 -0.000389373)
(0.00133495 0.00135034 -0.000389373)
(0.00108018 0.00156164 -0.000389374)
(0.000792596 0.00172548 -0.000389374)
(0.000480927 0.0018369 -0.000389374)
(0.000154646 0.00189251 -0.000389373)
(-0.000176334 0.00189061 -0.000389373)
(-0.000501956 0.00183127 -0.000389373)
(-0.00112787 0.00188112 -0.00104779)
(-0.00143739 0.00165669 -0.00104779)
(-0.00170323 0.00138193 -0.00104779)
(-0.00191732 0.00106517 -0.00104779)
(-0.00207316 0.000716047 -0.00104779)
(-0.002166 0.000345168 -0.00104779)
(-0.00219303 -3.61984e-05 -0.00104779)
(-0.00215343 -0.000416466 -0.00104779)
(-0.0020484 -0.000784078 -0.00104779)
(-0.00188112 -0.00112787 -0.00104779)
(-0.00165669 -0.00143739 -0.00104779)
(-0.00138193 -0.00170323 -0.00104779)
(-0.00106517 -0.00191732 -0.00104779)
(-0.000716047 -0.00207316 -0.00104779)
(-0.000345168 -0.002166 -0.00104779)
(3.61985e-05 -0.00219303 -0.00104779)
(0.000416466 -0.00215343 -0.00104779)
(0.000784078 -0.0020484 -0.00104779)
(0.00112787 -0.00188112 -0.00104779)
(0.00143739 -0.00165669 -0.00104779)
(0.00170323 -0.00138192 -0.00104779)
(0.00191732 -0.00106517 -0.00104779)
(0.00207316 -0.000716047 -0.00104779)
(0.002166 -0.000345168 -0.00104779)
(0.00219303 3.61985e-05 -0.00104779)
(0.00215343 0.000416466 -0.00104779)
(0.0020484 0.000784078 -0.00104779)
(0.00188112 0.00112787 -0.00104779)
(0.00165669 0.00143739 -0.00104779)
(0.00138193 0.00170323 -0.00104779)
(0.00106517 0.00191732 -0.00104779)
(0.000716047 0.00207316 -0.00104779)
(0.000345168 0.002166 -0.00104779)
(-3.61984e-05 0.00219303 -0.00104779)
(-0.000416466 0.00215343 -0.00104779)
(-0.000784078 0.0020484 -0.00104779)
(-0.00111903 0.00210841 -0.000863905)
(-0.00146815 0.00188206 -0.000863905)
(-0.00177267 0.00159853 -0.000863905)
(-0.00202332 0.00126642 -0.000863905)
(-0.00221249 0.000895838 -0.000863905)
(-0.00233444 0.000498034 -0.000863904)
(-0.00238545 8.50971e-05 -0.000863904)
(-0.00236399 -0.000330426 -0.000863904)
(-0.0022707 -0.000735909 -0.000863905)
(-0.00210841 -0.00111903 -0.000863905)
(-0.00188206 -0.00146815 -0.000863905)
(-0.00159853 -0.00177267 -0.000863905)
(-0.00126642 -0.00202332 -0.000863905)
(-0.000895838 -0.00221249 -0.000863905)
(-0.000498034 -0.00233444 -0.000863905)
(-8.5097e-05 -0.00238545 -0.000863904)
(0.000330426 -0.00236399 -0.000863905)
(0.000735909 -0.0022707 -0.000863905)
(0.00111903 -0.00210841 -0.000863905)
(0.00146815 -0.00188206 -0.000863905)
(0.00177267 -0.00159853 -0.000863905)
(0.00202332 -0.00126642 -0.000863905)
(0.00221249 -0.000895838 -0.000863905)
(0.00233444 -0.000498034 -0.000863904)
(0.00238545 -8.5097e-05 -0.000863904)
(0.00236399 0.000330426 -0.000863904)
(0.0022707 0.000735909 -0.000863905)
(0.00210841 0.00111903 -0.000863905)
(0.00188206 0.00146815 -0.000863905)
(0.00159853 0.00177267 -0.000863905)
(0.00126642 0.00202332 -0.000863905)
(0.000895838 0.00221249 -0.000863905)
(0.000498034 0.00233444 -0.000863904)
(8.50971e-05 0.00238545 -0.000863904)
(-0.000330426 0.00236399 -0.000863904)
(-0.000735909 0.0022707 -0.000863905)
(-0.00115175 0.00231224 -0.000687564)
(-0.00153577 0.00207712 -0.000687564)
(-0.00187312 0.00177888 -0.000687564)
(-0.00215357 0.00142659 -0.000687564)
(-0.00236857 0.00103095 -0.000687564)
(-0.00251161 0.000603993 -0.000687564)
(-0.00257834 0.000158679 -0.000687564)
(-0.00256672 -0.000291455 -0.000687564)
(-0.00247712 -0.000732734 -0.000687564)
(-0.00231224 -0.00115175 -0.000687564)
(-0.00207712 -0.00153577 -0.000687564)
(-0.00177888 -0.00187312 -0.000687564)
(-0.00142659 -0.00215357 -0.000687564)
(-0.00103095 -0.00236857 -0.000687564)
(-0.000603992 -0.00251161 -0.000687564)
(-0.000158679 -0.00257834 -0.000687564)
(0.000291455 -0.00256672 -0.000687565)
(0.000732734 -0.00247712 -0.000687564)
(0.00115175 -0.00231224 -0.000687564)
(0.00153577 -0.00207712 -0.000687564)
(0.00187312 -0.00177888 -0.000687564)
(0.00215357 -0.00142659 -0.000687564)
(0.00236857 -0.00103095 -0.000687564)
(0.00251161 -0.000603992 -0.000687564)
(0.00257834 -0.000158679 -0.000687564)
(0.00256672 0.000291455 -0.000687564)
(0.00247712 0.000732734 -0.000687564)
(0.00231224 0.00115175 -0.000687564)
(0.00207712 0.00153577 -0.000687564)
(0.00177888 0.00187312 -0.000687564)
(0.00142659 0.00215357 -0.000687564)
(0.00103095 0.00236857 -0.000687564)
(0.000603993 0.00251161 -0.000687564)
(0.000158679 0.00257834 -0.000687564)
(-0.000291455 0.00256672 -0.000687564)
(-0.000732734 0.00247712 -0.000687564)
(-0.00140883 0.00245931 -0.00144898)
(-0.00181448 0.0021773 -0.00144898)
(-0.002165 0.00182914 -0.00144898)
(-0.00244974 0.00142541 -0.00144898)
(-0.00266004 0.000978359 -0.00144898)
(-0.00278952 0.000501585 -0.00144898)
(-0.00283424 9.56975e-06 -0.00144898)
(-0.00279284 -0.000482737 -0.00144898)
(-0.00266659 -0.000960375 -0.00144898)
(-0.00245931 -0.00140883 -0.00144898)
(-0.0021773 -0.00181448 -0.00144898)
(-0.00182914 -0.002165 -0.00144898)
(-0.00142541 -0.00244974 -0.00144898)
(-0.000978359 -0.00266004 -0.00144898)
(-0.000501584 -0.00278952 -0.00144898)
(-9.56959e-06 -0.00283424 -0.00144898)
(0.000482737 -0.00279284 -0.00144898)
(0.000960375 -0.00266659 -0.00144898)
(0.00140883 -0.00245931 -0.00144898)
(0.00181448 -0.0021773 -0.00144898)
(0.002165 -0.00182914 -0.00144898)
(0.00244974 -0.00142541 -0.00144898)
(0.00266004 -0.000978359 -0.00144898)
(0.00278952 -0.000501584 -0.00144898)
(0.00283424 -9.56961e-06 -0.00144898)
(0.00279284 0.000482737 -0.00144898)
(0.00266659 0.000960375 -0.00144898)
(0.00245931 0.00140883 -0.00144898)
(0.0021773 0.00181448 -0.00144898)
(0.00182914 0.002165 -0.00144898)
(0.00142541 0.00244974 -0.00144898)
(0.000978359 0.00266004 -0.00144898)
(0.000501585 0.00278952 -0.00144898)
(9.56976e-06 0.00283424 -0.00144898)
(-0.000482737 0.00279284 -0.00144898)
(-0.000960375 0.00266659 -0.00144898)
(-0.00142199 0.00266574 -0.00124025)
(-0.00186329 0.00237831 -0.00124025)
(-0.00224797 0.00201862 -0.00124025)
(-0.00256435 0.0015976 -0.00124025)
(-0.00280281 0.00112803 -0.00124025)
(-0.00295611 0.000624193 -0.00124025)
(-0.00301959 0.000101386 -0.00124025)
(-0.00299132 -0.0004245 -0.00124025)
(-0.00287216 -0.00093749 -0.00124025)
(-0.00266574 -0.00142199 -0.00124025)
(-0.00237831 -0.00186329 -0.00124025)
(-0.00201862 -0.00224797 -0.00124025)
(-0.0015976 -0.00256435 -0.00124025)
(-0.00112803 -0.00280281 -0.00124025)
(-0.000624193 -0.00295611 -0.00124025)
(-0.000101386 -0.00301959 -0.00124025)
(0.000424501 -0.00299132 -0.00124025)
(0.00093749 -0.00287216 -0.00124025)
(0.00142199 -0.00266574 -0.00124025)
(0.00186329 -0.00237831 -0.00124025)
(0.00224797 -0.00201862 -0.00124025)
(0.00256435 -0.0015976 -0.00124025)
(0.00280281 -0.00112803 -0.00124025)
(0.00295611 -0.000624193 -0.00124025)
(0.00301959 -0.000101386 -0.00124025)
(0.00299132 0.000424501 -0.00124025)
(0.00287216 0.00093749 -0.00124025)
(0.00266574 0.00142199 -0.00124025)
(0.00237831 0.00186329 -0.00124025)
(0.00201862 0.00224797 -0.00124025)
(0.0015976 0.00256435 -0.00124025)
(0.00112803 0.00280281 -0.00124025)
(0.000624193 0.00295611 -0.00124025)
(0.000101386 0.00301959 -0.00124025)
(-0.0004245 0.00299132 -0.00124025)
(-0.00093749 0.00287216 -0.00124025)
(-0.0014775 0.0028391 -0.00104212)
(-0.00194806 0.0025394 -0.00104212)
(-0.00235943 0.00216254 -0.00104212)
(-0.0026991 0.00171998 -0.00104212)
(-0.00295677 0.00122516 -0.00104212)
(-0.00312459 0.000693106 -0.00104212)
(-0.00319748 0.000139995 -0.00104212)
(-0.00317321 -0.000417369 -0.00104212)
(-0.00305253 -0.000962051 -0.00104212)
(-0.0028391 -0.0014775 -0.00104212)
(-0.0025394 -0.00194806 -0.00104212)
(-0.00216254 -0.00235943 -0.00104212)
(-0.00171998 -0.0026991 -0.00104212)
(-0.00122516 -0.00295677 -0.00104212)
(-0.000693105 -0.00312459 -0.00104212)
(-0.000139995 -0.00319748 -0.00104212)
(0.000417369 -0.00317321 -0.00104212)
(0.000962051 -0.00305253 -0.00104212)
(0.0014775 -0.0028391 -0.00104212)
(0.00194806 -0.0025394 -0.00104212)
(0.00235943 -0.00216254 -0.00104212)
(0.0026991 -0.00171998 -0.00104212)
(0.00295677 -0.00122516 -0.00104212)
(0.00312459 -0.000693105 -0.00104212)
(0.00319748 -0.000139995 -0.00104212)
(0.00317321 0.000417369 -0.00104212)
(0.00305253 0.000962051 -0.00104212)
(0.0028391 0.0014775 -0.00104212)
(0.0025394 0.00194806 -0.00104212)
(0.00216254 0.00235943 -0.00104212)
(0.00171998 0.0026991 -0.00104212)
(0.00122516 0.00295677 -0.00104212)
(0.000693106 0.00312459 -0.00104212)
(0.000139995 0.00319748 -0.00104212)
(-0.000417369 0.00317321 -0.00104212)
(-0.000962051 0.00305253 -0.00104212)
(-0.00169767 0.0030268 -0.00187504)
(-0.00219748 0.00268602 -0.00187504)
(-0.00263052 0.00226362 -0.00187504)
(-0.00298363 0.00177245 -0.00187504)
(-0.00324608 0.00122742 -0.00187504)
(-0.0034099 0.000645099 -0.00187504)
(-0.00347012 4.31751e-05 -0.00187504)
(-0.0034249 -0.000560062 -0.00187504)
(-0.00327561 -0.00114628 -0.00187504)
(-0.0030268 -0.00169767 -0.00187504)
(-0.00268602 -0.00219748 -0.00187504)
(-0.00226362 -0.00263052 -0.00187504)
(-0.00177245 -0.00298363 -0.00187504)
(-0.00122742 -0.00324608 -0.00187504)
(-0.000645099 -0.0034099 -0.00187504)
(-4.31749e-05 -0.00347012 -0.00187504)
(0.000560062 -0.0034249 -0.00187504)
(0.00114628 -0.00327561 -0.00187504)
(0.00169767 -0.0030268 -0.00187504)
(0.00219748 -0.00268602 -0.00187504)
(0.00263052 -0.00226362 -0.00187504)
(0.00298363 -0.00177245 -0.00187504)
(0.00324608 -0.00122742 -0.00187504)
(0.0034099 -0.000645099 -0.00187504)
(0.00347012 -4.31749e-05 -0.00187504)
(0.0034249 0.000560062 -0.00187504)
(0.00327561 0.00114628 -0.00187504)
(0.0030268 0.00169767 -0.00187504)
(0.00268602 0.00219748 -0.00187504)
(0.00226362 0.00263052 -0.00187504)
(0.00177245 0.00298363 -0.00187504)
(0.00122742 0.00324608 -0.00187504)
(0.000645099 0.0034099 -0.00187504)
(4.31751e-05 0.00347012 -0.00187504)
(-0.000560062 0.0034249 -0.00187504)
(-0.00114628 0.00327561 -0.00187504)
(-0.00172255 0.00318025 -0.00164808)
(-0.00224862 0.00283282 -0.00164808)
(-0.00270638 0.00239932 -0.00164808)
(-0.0030819 0.00189291 -0.00164808)
(-0.00336377 0.00132899 -0.00164808)
(-0.00354345 0.000724682 -0.00164808)
(-0.00361545 9.83598e-05 -0.00164808)
(-0.00357761 -0.000530952 -0.00164808)
(-0.00343106 -0.00114413 -0.00164808)
(-0.00318025 -0.00172255 -0.00164808)
(-0.00283282 -0.00224862 -0.00164808)
(-0.00239932 -0.00270638 -0.00164808)
(-0.00189291 -0.0030819 -0.00164808)
(-0.00132899 -0.00336377 -0.00164808)
(-0.000724682 -0.00354345 -0.00164808)
(-9.83596e-05 -0.00361545 -0.00164808)
(0.000530952 -0.00357761 -0.00164808)
(0.00114413 -0.00343106 -0.00164808)
(0.00172255 -0.00318025 -0.00164808)
(0.00224862 -0.00283282 -0.00164808)
(0.00270638 -0.00239932 -0.00164808)
(0.0030819 -0.00189291 -0.00164808)
(0.00336377 -0.00132899 -0.00164808)
(0.00354345 -0.000724682 -0.00164808)
(0.00361545 -9.83596e-05 -0.00164808)
(0.00357761 0.000530952 -0.00164808)
(0.00343106 0.00114413 -0.00164808)
(0.00318025 0.00172255 -0.00164808)
(0.00283282 0.00224862 -0.00164808)
(0.00239932 0.00270638 -0.00164808)
(0.00189291 0.0030819 -0.00164808)
(0.00132899 0.00336377 -0.00164808)
(0.000724682 0.00354345 -0.00164808)
(9.83598e-05 0.00361545 -0.00164808)
(-0.000530952 0.00357761 -0.00164808)
(-0.00114413 0.00343106 -0.00164808)
(-0.00178789 0.00329344 -0.00143438)
(-0.00233263 0.00293294 -0.00143438)
(-0.00280649 0.00248333 -0.00143438)
(-0.00319508 0.00195826 -0.00143438)
(-0.00348659 0.00137369 -0.00143438)
(-0.00367216 0.000747382 -0.00143438)
(-0.00374615 9.83654e-05 -0.00143438)
(-0.00370632 -0.000553642 -0.00143438)
(-0.00355387 -0.00118883 -0.00143438)
(-0.00329344 -0.00178789 -0.00143438)
(-0.00293294 -0.00233263 -0.00143438)
(-0.00248333 -0.00280649 -0.00143438)
(-0.00195826 -0.00319508 -0.00143438)
(-0.00137369 -0.00348659 -0.00143438)
(-0.000747382 -0.00367216 -0.00143438)
(-9.83652e-05 -0.00374615 -0.00143438)
(0.000553642 -0.00370632 -0.00143438)
(0.00118883 -0.00355387 -0.00143438)
(0.00178789 -0.00329344 -0.00143438)
(0.00233263 -0.00293294 -0.00143438)
(0.00280649 -0.00248333 -0.00143438)
(0.00319508 -0.00195826 -0.00143438)
(0.00348659 -0.00137369 -0.00143438)
(0.00367216 -0.000747382 -0.00143438)
(0.00374615 -9.83652e-05 -0.00143438)
(0.00370632 0.000553642 -0.00143438)
(0.00355387 0.00118883 -0.00143438)
(0.00329344 0.00178789 -0.00143438)
(0.00293294 0.00233263 -0.00143438)
(0.00248333 0.00280649 -0.00143438)
(0.00195826 0.00319508 -0.00143438)
(0.00137369 0.00348659 -0.00143438)
(0.000747382 0.00367216 -0.00143438)
(9.83654e-05 0.00374615 -0.00143438)
(-0.000553642 0.00370632 -0.00143438)
(-0.00118883 0.00355387 -0.00143438)
(-0.00199953 0.00355239 -0.0023215)
(-0.00258602 0.0031512 -0.0023215)
(-0.00309394 0.00265427 -0.0023215)
(-0.00350784 0.00207669 -0.0023215)
(-0.00381516 0.00143601 -0.0023215)
(-0.00400656 0.000751697 -0.0023215)
(-0.00407622 4.45454e-05 -0.0023215)
(-0.00402203 -0.000663961 -0.0023215)
(-0.00384563 -0.00135229 -0.0023215)
(-0.00355239 -0.00199953 -0.0023215)
(-0.0031512 -0.00258602 -0.0023215)
(-0.00265427 -0.00309394 -0.0023215)
(-0.00207669 -0.00350784 -0.0023215)
(-0.00143601 -0.00381516 -0.0023215)
(-0.000751697 -0.00400656 -0.0023215)
(-4.45452e-05 -0.00407622 -0.0023215)
(0.000663961 -0.00402203 -0.0023215)
(0.00135229 -0.00384563 -0.0023215)
(0.00199953 -0.00355239 -0.0023215)
(0.00258602 -0.0031512 -0.0023215)
(0.00309394 -0.00265427 -0.0023215)
(0.00350784 -0.00207669 -0.0023215)
(0.00381516 -0.00143601 -0.0023215)
(0.00400656 -0.000751697 -0.0023215)
(0.00407622 -4.45452e-05 -0.0023215)
(0.00402203 0.000663961 -0.0023215)
(0.00384563 0.00135229 -0.0023215)
(0.00355239 0.00199953 -0.0023215)
(0.0031512 0.00258602 -0.0023215)
(0.00265427 0.00309394 -0.0023215)
(0.00207669 0.00350784 -0.0023215)
(0.00143601 0.00381516 -0.0023215)
(0.000751697 0.00400656 -0.0023215)
(4.45454e-05 0.00407622 -0.0023215)
(-0.000663961 0.00402203 -0.0023215)
(-0.00135229 0.00384563 -0.0023215)
(-0.0020227 0.00363205 -0.00207774)
(-0.00262267 0.00322564 -0.00207774)
(-0.00314295 0.00272121 -0.00207774)
(-0.00356773 0.0021341 -0.00207774)
(-0.00388411 0.00148215 -0.00207774)
(-0.00408248 0.000785166 -0.00207774)
(-0.0041568 6.43216e-05 -0.00207774)
(-0.00410482 -0.000658476 -0.00207774)
(-0.00392811 -0.00136127 -0.00207774)
(-0.00363205 -0.0020227 -0.00207774)
(-0.00322564 -0.00262267 -0.00207774)
(-0.00272121 -0.00314295 -0.00207774)
(-0.0021341 -0.00356773 -0.00207774)
(-0.00148215 -0.00388411 -0.00207774)
(-0.000785166 -0.00408248 -0.00207774)
(-6.43214e-05 -0.0041568 -0.00207774)
(0.000658476 -0.00410482 -0.00207774)
(0.00136127 -0.00392811 -0.00207774)
(0.0020227 -0.00363205 -0.00207774)
(0.00262267 -0.00322564 -0.00207774)
(0.00314295 -0.00272121 -0.00207774)
(0.00356773 -0.0021341 -0.00207774)
(0.00388411 -0.00148215 -0.00207774)
(0.00408248 -0.000785166 -0.00207774)
(0.0041568 -6.43215e-05 -0.00207774)
(0.00410482 0.000658476 -0.00207774)
(0.00392811 0.00136127 -0.00207774)
(0.00363205 0.0020227 -0.00207774)
(0.00322564 0.00262267 -0.00207774)
(0.00272121 0.00314295 -0.00207774)
(0.0021341 0.00356773 -0.00207774)
(0.00148215 0.00388411 -0.00207774)
(0.000785166 0.00408248 -0.00207774)
(6.43217e-05 0.0041568 -0.00207774)
(-0.000658476 0.00410482 -0.00207774)
(-0.00136127 0.00392811 -0.00207774)
(-0.00208208 0.00366799 -0.00184945)
(-0.00268739 0.00325072 -0.00184945)
(-0.00321104 0.00273468 -0.00184945)
(-0.00363713 0.00213554 -0.00184945)
(-0.0039527 0.00147151 -0.00184945)
(-0.00414818 0.00076278 -0.00184945)
(-0.00421761 3.08673e-05 -0.00184945)
(-0.0041589 -0.000701983 -0.00184945)
(-0.00397382 -0.0014135 -0.00184945)
(-0.00366799 -0.00208208 -0.00184945)
(-0.00325072 -0.00268739 -0.00184945)
(-0.00273467 -0.00321104 -0.00184945)
(-0.00213554 -0.00363713 -0.00184945)
(-0.00147151 -0.0039527 -0.00184945)
(-0.000762779 -0.00414818 -0.00184945)
(-3.08671e-05 -0.00421761 -0.00184945)
(0.000701983 -0.0041589 -0.00184945)
(0.0014135 -0.00397382 -0.00184945)
(0.00208208 -0.00366799 -0.00184945)
(0.00268739 -0.00325072 -0.00184945)
(0.00321104 -0.00273467 -0.00184945)
(0.00363713 -0.00213554 -0.00184945)
(0.0039527 -0.00147151 -0.00184945)
(0.00414818 -0.000762779 -0.00184945)
(0.00421761 -3.08671e-05 -0.00184945)
(0.0041589 0.000701983 -0.00184945)
(0.00397382 0.0014135 -0.00184945)
(0.00366799 0.00208208 -0.00184945)
(0.00325072 0.00268739 -0.00184945)
(0.00273468 0.00321104 -0.00184945)
(0.00213554 0.00363713 -0.00184945)
(0.00147151 0.0039527 -0.00184945)
(0.00076278 0.00414818 -0.00184945)
(3.08673e-05 0.00421761 -0.00184945)
(-0.000701983 0.0041589 -0.00184945)
(-0.0014135 0.00397382 -0.00184945)
(-0.00230824 0.00399865 -0.00278209)
(-0.00296753 0.00353708 -0.00278209)
(-0.00353666 0.00296804 -0.00278209)
(-0.00399832 0.00230881 -0.00278209)
(-0.0043385 0.00157944 -0.0027821)
(-0.00454686 0.000802068 -0.00278209)
(-0.00461706 3.29183e-07 -0.00278209)