/*--------------------------------*- C++ -*----------------------------------*\
| =========                 |                                                 |
| \\      /  F ield         | OpenFOAM: The Open Source CFD Toolbox           |
|  \\    /   O peration     | Version:  2312                                  |
|   \\  /    A nd           | Website:  www.openfoam.com                      |
|    \\/     M anipulation  |                                                 |
\*---------------------------------------------------------------------------*/
FoamFile
{
    version     2.0;
    format      ascii;
    arch        "LSB;label=32;scalar=64";
    class       volTensorField;
    location    "0.6";
    object      F;
}
// * * * * * * * * * * * * * * * * * * * * * * * * * * * * * * * * * * * * * //

dimensions      [0 0 0 0 0 0 0];

internalField   nonuniform List<tensor> 
1620
(
(0.930279 -0.0331265 0.155973 -0.0557265 0.969655 -0.271502 -0.0355314 -0.00310877 1.13028)
(0.946661 -0.037181 0.200749 -0.0597813 0.953273 -0.240293 -0.0344521 -0.00923148 1.13028)
(0.963442 -0.0353882 0.239426 -0.0579884 0.936493 -0.201783 -0.0323255 -0.0150734 1.13028)
(0.978598 -0.0279638 0.270828 -0.0505639 0.921337 -0.157141 -0.0292167 -0.0204576 1.13028)
(0.9903 -0.0158035 0.294001 -0.0384036 0.909635 -0.107725 -0.0252205 -0.0252206 1.13027)
(0.997138 -0.000374436 0.308241 -0.0229744 0.902797 -0.0550362 -0.0204579 -0.0292169 1.13028)
(0.998286 0.0164626 0.313115 -0.0061372 0.901649 -0.000674593 -0.0150736 -0.0323252 1.13028)
(0.993606 0.0326773 0.308475 0.0100774 0.906329 0.0537075 -0.00923126 -0.0344516 1.13028)
(0.983663 0.0463135 0.294462 0.0237136 0.916272 0.106458 -0.00310852 -0.0355313 1.13028)
(0.969655 0.0557265 0.271502 0.0331265 0.930279 0.155973 0.00310877 -0.0355314 1.13028)
(0.953273 0.0597813 0.240293 0.037181 0.946661 0.200749 0.00923147 -0.0344521 1.13028)
(0.936493 0.0579884 0.201783 0.0353882 0.963442 0.239426 0.0150734 -0.0323255 1.13028)
(0.921337 0.0505639 0.157141 0.0279638 0.978598 0.270828 0.0204576 -0.0292167 1.13028)
(0.909635 0.0384036 0.107725 0.0158035 0.9903 0.294001 0.0252206 -0.0252204 1.13027)
(0.902797 0.0229744 0.0550362 0.00037444 0.997138 0.308241 0.0292169 -0.0204579 1.13028)
(0.901649 0.0061372 0.000674575 -0.0164626 0.998286 0.313115 0.0323252 -0.0150736 1.13028)
(0.906329 -0.0100774 -0.0537075 -0.0326773 0.993606 0.308475 0.0344516 -0.00923126 1.13028)
(0.916272 -0.0237136 -0.106458 -0.0463135 0.983663 0.294462 0.0355313 -0.00310852 1.13028)
(0.930279 -0.0331265 -0.155973 -0.0557265 0.969655 0.271502 0.0355314 0.00310876 1.13028)
(0.946661 -0.037181 -0.20075 -0.0597813 0.953273 0.240293 0.0344521 0.00923147 1.13028)
(0.963442 -0.0353882 -0.239426 -0.0579884 0.936493 0.201783 0.0323255 0.0150734 1.13028)
(0.978598 -0.0279638 -0.270828 -0.0505639 0.921337 0.157141 0.0292167 0.0204576 1.13028)
(0.9903 -0.0158035 -0.294001 -0.0384036 0.909635 0.107725 0.0252204 0.0252206 1.13027)
(0.997138 -0.00037444 -0.308241 -0.0229744 0.902797 0.0550362 0.0204579 0.0292169 1.13028)
(0.998286 0.0164626 -0.313115 -0.0061372 0.901649 0.000674571 0.0150736 0.0323252 1.13028)
(0.993606 0.0326773 -0.308475 0.0100774 0.906329 -0.0537075 0.00923126 0.0344516 1.13028)
(0.983663 0.0463135 -0.294462 0.0237136 0.916272 -0.106458 0.00310852 0.0355313 1.13028)
(0.969655 0.0557265 -0.271502 0.0331265 0.930279 -0.155973 -0.00310876 0.0355314 1.13028)
(0.953273 0.0597813 -0.240293 0.037181 0.946661 -0.20075 -0.00923147 0.0344521 1.13028)
(0.936493 0.0579884 -0.201783 0.0353882 0.963442 -0.239426 -0.0150734 0.0323255 1.13028)
(0.921337 0.0505639 -0.157141 0.0279638 0.978598 -0.270828 -0.0204576 0.0292167 1.13028)
(0.909635 0.0384036 -0.107725 0.0158035 0.9903 -0.294001 -0.0252206 0.0252204 1.13027)
(0.902797 0.0229744 -0.0550362 0.000374437 0.997138 -0.308241 -0.0292169 0.0204579 1.13028)
(0.901649 0.00613719 -0.000674592 -0.0164626 0.998286 -0.313115 -0.0323252 0.0150736 1.13028)
(0.906329 -0.0100774 0.0537075 -0.0326773 0.993606 -0.308475 -0.0344516 0.00923126 1.13028)
(0.916272 -0.0237136 0.106458 -0.0463135 0.983663 -0.294462 -0.0355313 0.00310851 1.13028)
(0.943591 -0.0423906 0.165146 -0.0560103 0.975323 -0.319635 -0.035568 -0.00311184 1.09749)
(0.961376 -0.0448499 0.218141 -0.0584698 0.957539 -0.286102 -0.0344876 -0.00924097 1.09749)
(0.978929 -0.0410785 0.264508 -0.0546984 0.939986 -0.243876 -0.0323588 -0.0150891 1.09749)
(0.994133 -0.031531 0.302838 -0.0451506 0.924782 -0.19424 -0.0292469 -0.0204788 1.09749)
(1.00516 -0.0173588 0.331966 -0.0309785 0.91376 -0.138702 -0.0252465 -0.0252465 1.09749)
(1.01067 -0.000271595 0.351008 -0.0138912 0.908249 -0.0789487 -0.0204789 -0.029247 1.09749)
(1.01 0.0176695 0.359385 0.00405002 0.908916 -0.0167974 -0.0150891 -0.0323586 1.09749)
(1.00324 0.034301 0.356842 0.0206815 0.915678 0.0458644 -0.00924079 -0.0344871 1.09749)
(0.991194 0.0476166 0.343456 0.033997 0.927721 0.107133 -0.00311176 -0.035568 1.09749)
(0.975323 0.0560103 0.319635 0.0423906 0.943591 0.165146 0.00311184 -0.035568 1.09749)
(0.957539 0.0584698 0.286102 0.0448499 0.961376 0.218141 0.00924096 -0.0344876 1.09749)
(0.939986 0.0546984 0.243876 0.0410785 0.978929 0.264508 0.0150891 -0.0323588 1.09749)
(0.924782 0.0451506 0.19424 0.031531 0.994133 0.302838 0.0204788 -0.0292469 1.09749)
(0.91376 0.0309785 0.138701 0.0173588 1.00516 0.331966 0.0252465 -0.0252465 1.09749)
(0.908249 0.0138912 0.0789487 0.000271599 1.01067 0.351008 0.029247 -0.0204789 1.09749)
(0.908916 -0.00405001 0.0167974 -0.0176695 1.01 0.359385 0.0323586 -0.0150891 1.09749)
(0.915678 -0.0206815 -0.0458644 -0.034301 1.00324 0.356842 0.0344871 -0.00924079 1.09749)
(0.927721 -0.033997 -0.107133 -0.0476166 0.991194 0.343456 0.035568 -0.00311176 1.09749)
(0.943591 -0.0423906 -0.165146 -0.0560103 0.975323 0.319635 0.035568 0.00311184 1.09749)
(0.961376 -0.0448499 -0.218141 -0.0584698 0.957539 0.286102 0.0344876 0.00924096 1.09749)
(0.978929 -0.0410785 -0.264508 -0.0546984 0.939986 0.243876 0.0323588 0.0150891 1.09749)
(0.994133 -0.031531 -0.302838 -0.0451506 0.924782 0.19424 0.0292469 0.0204788 1.09749)
(1.00516 -0.0173588 -0.331966 -0.0309785 0.91376 0.138701 0.0252465 0.0252465 1.09749)
(1.01067 -0.000271599 -0.351008 -0.0138912 0.908249 0.0789487 0.0204789 0.029247 1.09749)
(1.01 0.0176695 -0.359385 0.00405002 0.908916 0.0167974 0.0150891 0.0323586 1.09749)
(1.00324 0.034301 -0.356842 0.0206815 0.915678 -0.0458644 0.00924079 0.0344871 1.09749)
(0.991194 0.0476166 -0.343456 0.033997 0.927721 -0.107133 0.00311176 0.035568 1.09749)
(0.975323 0.0560103 -0.319635 0.0423906 0.943591 -0.165146 -0.00311184 0.035568 1.09749)
(0.957539 0.0584698 -0.286102 0.0448499 0.961376 -0.218141 -0.00924096 0.0344876 1.09749)
(0.939986 0.0546984 -0.243876 0.0410785 0.978929 -0.264508 -0.0150891 0.0323588 1.09749)
(0.924782 0.0451506 -0.19424 0.031531 0.994133 -0.302838 -0.0204788 0.0292469 1.09749)
(0.91376 0.0309785 -0.138701 0.0173588 1.00516 -0.331966 -0.0252465 0.0252465 1.09749)
(0.908249 0.0138912 -0.0789487 0.000271595 1.01067 -0.351008 -0.029247 0.0204789 1.09749)
(0.908916 -0.00405002 -0.0167974 -0.0176695 1.01 -0.359385 -0.0323586 0.0150891 1.09749)
(0.915678 -0.0206815 0.0458644 -0.034301 1.00324 -0.356842 -0.0344871 0.00924079 1.09749)
(0.927721 -0.033997 0.107133 -0.0476166 0.991194 -0.343456 -0.035568 0.00311175 1.09749)
(0.958543 -0.0541538 0.178661 -0.0551005 0.979042 -0.36693 -0.0352683 -0.00308551 1.06561)
(0.977844 -0.0543651 0.239664 -0.0553119 0.959741 -0.330332 -0.0341969 -0.00916302 1.06561)
(0.996054 -0.0479621 0.293384 -0.0489089 0.941531 -0.283696 -0.032086 -0.014962 1.06561)
(1.01098 -0.0357171 0.33819 -0.0366637 0.926609 -0.22844 -0.0290004 -0.0203062 1.06561)
(1.02081 -0.019107 0.37272 -0.0200535 0.916775 -0.166244 -0.0250337 -0.0250337 1.06561)
(1.02437 -0.000135004 0.395926 -0.0010814 0.913215 -0.0989958 -0.0203063 -0.0290004 1.06561)
(1.02123 0.01891 0.407101 0.0179637 0.916359 -0.0287399 -0.0149619 -0.0320859 1.06561)
(1.01176 0.0357316 0.405907 0.0347852 0.925827 0.0423891 -0.00916288 -0.0341964 1.06561)
(0.997108 0.0483004 0.39238 0.0473539 0.940477 0.11223 -0.00308562 -0.0352682 1.06561)
(0.979042 0.0551005 0.36693 0.0541538 0.958543 0.178661 0.00308551 -0.0352683 1.06561)
(0.959741 0.0553119 0.330332 0.0543651 0.977844 0.239664 0.00916302 -0.0341968 1.06561)
(0.941531 0.0489089 0.283696 0.0479621 0.996054 0.293384 0.014962 -0.032086 1.06561)
(0.926609 0.0366637 0.22844 0.0357171 1.01098 0.33819 0.0203062 -0.0290004 1.06561)
(0.916775 0.0200535 0.166244 0.019107 1.02081 0.37272 0.0250337 -0.0250337 1.06561)
(0.913215 0.0010814 0.0989958 0.000135009 1.02437 0.395926 0.0290004 -0.0203063 1.06561)
(0.916359 -0.0179637 0.0287399 -0.01891 1.02123 0.407101 0.0320859 -0.0149619 1.06561)
(0.925827 -0.0347852 -0.0423891 -0.0357316 1.01176 0.405907 0.0341964 -0.00916288 1.06561)
(0.940477 -0.0473539 -0.11223 -0.0483004 0.997108 0.39238 0.0352682 -0.00308562 1.06561)
(0.958542 -0.0541539 -0.178661 -0.0551005 0.979042 0.36693 0.0352683 0.00308551 1.06561)
(0.977844 -0.0543651 -0.239664 -0.0553119 0.959741 0.330332 0.0341968 0.00916302 1.06561)
(0.996054 -0.0479621 -0.293384 -0.0489089 0.941531 0.283696 0.032086 0.014962 1.06561)
(1.01098 -0.0357171 -0.33819 -0.0366637 0.926609 0.22844 0.0290004 0.0203062 1.06561)
(1.02081 -0.019107 -0.37272 -0.0200535 0.916775 0.166244 0.0250337 0.0250337 1.06561)
(1.02437 -0.000135009 -0.395926 -0.0010814 0.913215 0.0989958 0.0203063 0.0290004 1.06561)
(1.02123 0.01891 -0.407101 0.0179637 0.916359 0.0287399 0.0149619 0.0320859 1.06561)
(1.01176 0.0357316 -0.405907 0.0347852 0.925827 -0.0423891 0.00916288 0.0341964 1.06561)
(0.997108 0.0483004 -0.39238 0.0473539 0.940477 -0.11223 0.00308562 0.0352682 1.06561)
(0.979042 0.0551005 -0.36693 0.0541539 0.958543 -0.178661 -0.00308551 0.0352683 1.06561)
(0.959741 0.0553119 -0.330332 0.0543651 0.977844 -0.239664 -0.00916302 0.0341968 1.06561)
(0.941531 0.0489089 -0.283696 0.0479621 0.996054 -0.293384 -0.014962 0.032086 1.06561)
(0.926609 0.0366637 -0.22844 0.0357171 1.01098 -0.33819 -0.0203062 0.0290004 1.06561)
(0.916775 0.0200535 -0.166244 0.019107 1.02081 -0.37272 -0.0250337 0.0250337 1.06561)
(0.913215 0.00108139 -0.0989958 0.000135004 1.02437 -0.395926 -0.0290004 0.0203063 1.06561)
(0.916359 -0.0179637 -0.0287399 -0.01891 1.02123 -0.407101 -0.0320859 0.0149619 1.06561)
(0.925827 -0.0347852 0.0423891 -0.0357316 1.01176 -0.405907 -0.0341964 0.00916288 1.06561)
(0.940477 -0.0473539 0.11223 -0.0483004 0.997108 -0.39238 -0.0352682 0.00308562 1.06561)
(0.950495 -0.0861837 0.155135 -0.144627 0.928858 -0.280762 -0.097739 -0.0085513 1.1461)
(0.989314 -0.0755239 0.201532 -0.133968 0.89004 -0.249557 -0.0947696 -0.0253935 1.1461)
(1.02214 -0.0522305 0.241805 -0.110674 0.857208 -0.21077 -0.0889205 -0.0414638 1.1461)
(1.04503 -0.0191126 0.274732 -0.0775562 0.834324 -0.165579 -0.0803688 -0.0562743 1.1461)
(1.05521 0.0198354 0.299311 -0.0386078 0.824146 -0.115357 -0.0693754 -0.0693754 1.1461)
(1.05145 0.0599155 0.314795 0.0014723 0.827903 -0.0616301 -0.0562747 -0.0803688 1.1461)
(1.03421 0.0962931 0.320714 0.0378501 0.845142 -0.00603022 -0.0414638 -0.0889196 1.1461)
(1.00557 0.124581 0.316889 0.0661381 0.873783 0.0497529 -0.025393 -0.094769 1.1461)
(0.968982 0.141368 0.303435 0.0829242 0.910372 0.104024 -0.00855086 -0.0977389 1.1461)
(0.928858 0.144627 0.280762 0.0861837 0.950495 0.155135 0.00855129 -0.097739 1.1461)
(0.89004 0.133968 0.249557 0.0755239 0.989314 0.201532 0.0253935 -0.0947696 1.1461)
(0.857208 0.110674 0.21077 0.0522305 1.02214 0.241805 0.0414638 -0.0889205 1.1461)
(0.834324 0.0775562 0.165579 0.0191126 1.04503 0.274732 0.0562743 -0.0803688 1.1461)
(0.824146 0.0386079 0.115357 -0.0198354 1.05521 0.299311 0.0693754 -0.0693754 1.1461)
(0.827903 -0.0014723 0.06163 -0.0599155 1.05145 0.314795 0.0803688 -0.0562747 1.1461)
(0.845142 -0.0378501 0.0060302 -0.0962931 1.03421 0.320714 0.0889196 -0.0414638 1.1461)
(0.873783 -0.0661381 -0.049753 -0.124581 1.00557 0.316889 0.094769 -0.025393 1.1461)
(0.910372 -0.0829242 -0.104024 -0.141368 0.968982 0.303435 0.0977389 -0.00855086 1.1461)
(0.950495 -0.0861837 -0.155135 -0.144627 0.928858 0.280762 0.097739 0.00855128 1.1461)
(0.989314 -0.0755239 -0.201532 -0.133968 0.89004 0.249557 0.0947696 0.0253935 1.1461)
(1.02214 -0.0522305 -0.241805 -0.110674 0.857208 0.21077 0.0889205 0.0414638 1.1461)
(1.04503 -0.0191126 -0.274732 -0.0775562 0.834324 0.165579 0.0803688 0.0562743 1.1461)
(1.05521 0.0198354 -0.299311 -0.0386078 0.824146 0.115357 0.0693754 0.0693754 1.1461)
(1.05145 0.0599155 -0.314795 0.0014723 0.827903 0.06163 0.0562747 0.0803688 1.1461)
(1.03421 0.0962931 -0.320714 0.0378501 0.845142 0.0060302 0.0414638 0.0889196 1.1461)
(1.00557 0.124581 -0.316889 0.0661381 0.873783 -0.049753 0.025393 0.0947689 1.1461)
(0.968982 0.141368 -0.303435 0.0829242 0.910372 -0.104024 0.00855086 0.0977389 1.1461)
(0.928858 0.144627 -0.280762 0.0861837 0.950495 -0.155135 -0.00855128 0.097739 1.1461)
(0.89004 0.133968 -0.249557 0.0755239 0.989314 -0.201532 -0.0253935 0.0947696 1.1461)
(0.857208 0.110674 -0.21077 0.0522305 1.02214 -0.241805 -0.0414638 0.0889205 1.1461)
(0.834324 0.0775562 -0.165579 0.0191126 1.04503 -0.274732 -0.0562742 0.0803688 1.1461)
(0.824146 0.0386078 -0.115357 -0.0198354 1.05521 -0.299311 -0.0693754 0.0693754 1.1461)
(0.827903 -0.00147231 -0.06163 -0.0599155 1.05145 -0.314795 -0.0803688 0.0562747 1.1461)
(0.845142 -0.0378501 -0.00603022 -0.0962931 1.03421 -0.320714 -0.0889196 0.0414638 1.1461)
(0.873783 -0.0661381 0.0497529 -0.124581 1.00557 -0.316889 -0.094769 0.025393 1.1461)
(0.910372 -0.0829242 0.104024 -0.141368 0.968982 -0.303435 -0.0977389 0.00855085 1.1461)
(0.96942 -0.112263 0.166733 -0.144291 0.928765 -0.322998 -0.0975072 -0.00853088 1.11748)
(1.01207 -0.0975747 0.220288 -0.129603 0.886117 -0.289138 -0.0945449 -0.0253332 1.11748)
(1.04712 -0.0691858 0.267149 -0.101214 0.851066 -0.246493 -0.0887094 -0.0413657 1.11748)
(1.07035 -0.030521 0.305893 -0.0625482 0.827838 -0.196359 -0.0801781 -0.056141 1.11748)
(1.07895 0.0137572 0.335344 -0.0182698 0.819235 -0.140258 -0.0692109 -0.0692109 1.11748)
(1.07189 0.0583075 0.354604 0.0262806 0.826294 -0.0798948 -0.0561411 -0.080178 1.11748)
(1.05002 0.0977564 0.363091 0.0657294 0.848165 -0.0171046 -0.0413655 -0.0887087 1.11748)
(1.01598 0.127346 0.360545 0.0953188 0.88221 0.0462055 -0.0253329 -0.0945442 1.11748)
(0.973864 0.143507 0.347044 0.11148 0.924321 0.108112 -0.00853069 -0.0975071 1.11748)
(0.928765 0.144291 0.322998 0.112263 0.96942 0.166733 0.00853087 -0.0975072 1.11748)
(0.886117 0.129603 0.289138 0.0975747 1.01207 0.220288 0.0253332 -0.0945449 1.11748)
(0.851066 0.101214 0.246493 0.0691858 1.04712 0.267149 0.0413657 -0.0887094 1.11748)
(0.827838 0.0625482 0.196359 0.030521 1.07035 0.305893 0.056141 -0.0801781 1.11748)
(0.819235 0.0182698 0.140258 -0.0137572 1.07895 0.335344 0.0692109 -0.0692109 1.11748)
(0.826294 -0.0262806 0.0798948 -0.0583075 1.07189 0.354604 0.080178 -0.0561411 1.11748)
(0.848165 -0.0657294 0.0171046 -0.0977564 1.05002 0.363091 0.0887087 -0.0413655 1.11748)
(0.88221 -0.0953188 -0.0462056 -0.127346 1.01598 0.360545 0.0945442 -0.0253329 1.11748)
(0.924321 -0.11148 -0.108112 -0.143507 0.973864 0.347044 0.0975071 -0.00853069 1.11748)
(0.96942 -0.112263 -0.166733 -0.144291 0.928765 0.322998 0.0975072 0.00853087 1.11748)
(1.01207 -0.0975747 -0.220288 -0.129603 0.886117 0.289138 0.0945449 0.0253332 1.11748)
(1.04712 -0.0691858 -0.267149 -0.101214 0.851066 0.246493 0.0887094 0.0413657 1.11748)
(1.07035 -0.030521 -0.305893 -0.0625482 0.827838 0.196359 0.0801781 0.056141 1.11748)
(1.07895 0.0137572 -0.335344 -0.0182698 0.819235 0.140258 0.0692109 0.0692109 1.11748)
(1.07189 0.0583075 -0.354604 0.0262806 0.826294 0.0798948 0.0561411 0.080178 1.11748)
(1.05002 0.0977564 -0.363091 0.0657294 0.848165 0.0171046 0.0413655 0.0887087 1.11748)
(1.01598 0.127346 -0.360545 0.0953188 0.88221 -0.0462056 0.0253329 0.0945442 1.11748)
(0.973864 0.143507 -0.347044 0.11148 0.924321 -0.108112 0.00853069 0.0975071 1.11748)
(0.928765 0.144291 -0.322998 0.112263 0.96942 -0.166733 -0.00853086 0.0975072 1.11748)
(0.886117 0.129603 -0.289138 0.0975747 1.01207 -0.220288 -0.0253332 0.0945449 1.11748)
(0.851066 0.101214 -0.246493 0.0691858 1.04712 -0.267149 -0.0413657 0.0887094 1.11748)
(0.827838 0.0625482 -0.196359 0.030521 1.07035 -0.305893 -0.056141 0.0801781 1.11748)
(0.819235 0.0182698 -0.140258 -0.0137572 1.07895 -0.335344 -0.0692109 0.0692109 1.11748)
(0.826294 -0.0262806 -0.0798948 -0.0583075 1.07189 -0.354604 -0.080178 0.0561411 1.11748)
(0.848165 -0.0657294 -0.0171046 -0.0977564 1.05002 -0.363091 -0.0887087 0.0413655 1.11748)
(0.88221 -0.0953188 0.0462055 -0.127346 1.01598 -0.360545 -0.0945442 0.0253329 1.11748)
(0.924321 -0.11148 0.108112 -0.143507 0.973864 -0.347044 -0.0975071 0.00853068 1.11748)
(0.990088 -0.144963 0.182256 -0.140722 0.924372 -0.363066 -0.0957075 -0.00837324 1.08978)
(1.03696 -0.125111 0.242532 -0.12087 0.877499 -0.325902 -0.0927999 -0.0248656 1.08978)
(1.07422 -0.090424 0.29544 -0.0861832 0.840242 -0.278835 -0.087072 -0.0406024 1.08978)
(1.09736 -0.0450866 0.339371 -0.0408455 0.817096 -0.223297 -0.0786982 -0.0551051 1.08978)
(1.10361 0.00543315 0.37299 0.00967467 0.810852 -0.160973 -0.0679336 -0.0679336 1.08978)
(1.0922 0.0550421 0.395276 0.0592837 0.822263 -0.0937585 -0.055105 -0.0786982 1.08978)
(1.06451 0.0977562 0.405552 0.101998 0.849953 -0.023695 -0.040602 -0.0870715 1.08978)
(1.02388 0.128424 0.403505 0.132665 0.890583 0.0470884 -0.0248655 -0.0927992 1.08978)
(0.975209 0.143346 0.389198 0.147587 0.939251 0.116441 -0.00837335 -0.0957074 1.08978)
(0.924372 0.140722 0.363066 0.144963 0.990088 0.182256 0.00837324 -0.0957075 1.08978)
(0.877499 0.12087 0.325902 0.125111 1.03696 0.242532 0.0248656 -0.0927999 1.08978)
(0.840242 0.0861832 0.278835 0.090424 1.07422 0.29544 0.0406024 -0.087072 1.08978)
(0.817096 0.0408455 0.223297 0.0450866 1.09736 0.339371 0.0551051 -0.0786982 1.08978)
(0.810852 -0.00967466 0.160973 -0.00543315 1.10361 0.37299 0.0679336 -0.0679336 1.08978)
(0.822263 -0.0592837 0.0937585 -0.0550421 1.0922 0.395276 0.0786982 -0.055105 1.08978)
(0.849953 -0.101998 0.023695 -0.0977562 1.06451 0.405552 0.0870715 -0.040602 1.08978)
(0.890583 -0.132665 -0.0470884 -0.128424 1.02388 0.403505 0.0927992 -0.0248655 1.08978)
(0.939251 -0.147587 -0.116441 -0.143346 0.975209 0.389198 0.0957074 -0.00837335 1.08978)
(0.990088 -0.144963 -0.182256 -0.140722 0.924372 0.363066 0.0957075 0.00837324 1.08978)
(1.03696 -0.125111 -0.242532 -0.12087 0.877499 0.325902 0.0927999 0.0248656 1.08978)
(1.07422 -0.090424 -0.29544 -0.0861832 0.840242 0.278835 0.087072 0.0406024 1.08978)
(1.09736 -0.0450866 -0.339371 -0.0408455 0.817096 0.223297 0.0786982 0.0551051 1.08978)
(1.10361 0.00543314 -0.37299 0.00967466 0.810852 0.160973 0.0679336 0.0679336 1.08978)
(1.0922 0.0550421 -0.395276 0.0592837 0.822263 0.0937585 0.055105 0.0786981 1.08978)
(1.06451 0.0977561 -0.405552 0.101998 0.849953 0.023695 0.040602 0.0870715 1.08978)
(1.02388 0.128424 -0.403505 0.132665 0.890583 -0.0470884 0.0248655 0.0927991 1.08978)
(0.975209 0.143346 -0.389198 0.147587 0.939251 -0.116441 0.00837335 0.0957074 1.08978)
(0.924372 0.140722 -0.363066 0.144963 0.990088 -0.182256 -0.00837323 0.0957075 1.08978)
(0.877499 0.12087 -0.325902 0.125111 1.03696 -0.242532 -0.0248656 0.0927999 1.08978)
(0.840242 0.0861832 -0.278835 0.090424 1.07422 -0.29544 -0.0406024 0.0870719 1.08978)
(0.817096 0.0408455 -0.223297 0.0450866 1.09736 -0.339371 -0.0551051 0.0786982 1.08978)
(0.810852 -0.00967467 -0.160973 -0.00543315 1.10361 -0.37299 -0.0679336 0.0679336 1.08978)
(0.822263 -0.0592837 -0.0937585 -0.0550421 1.0922 -0.395276 -0.0786981 0.055105 1.08978)
(0.849953 -0.101998 -0.023695 -0.0977561 1.06451 -0.405552 -0.0870715 0.040602 1.08978)
(0.890583 -0.132665 0.0470884 -0.128424 1.02388 -0.403505 -0.0927992 0.0248655 1.08978)
(0.939251 -0.147587 0.116441 -0.143346 0.975209 -0.389198 -0.0957074 0.00837335 1.08978)
(0.980304 -0.140371 0.150934 -0.210743 0.891625 -0.28695 -0.14439 -0.0126327 1.1811)
(1.03767 -0.114618 0.19847 -0.184991 0.834255 -0.256381 -0.140003 -0.0375136 1.1811)
(1.08278 -0.0707976 0.239974 -0.14117 0.789153 -0.218022 -0.131362 -0.0612546 1.1811)
(1.11017 -0.0141936 0.274188 -0.0845661 0.761759 -0.173038 -0.118729 -0.0831343 1.1811)
(1.11655 0.0483662 0.30007 -0.0220058 0.755376 -0.122797 -0.102489 -0.102488 1.1811)
(1.10115 0.109336 0.316835 0.0389646 0.770775 -0.0688251 -0.0831345 -0.118728 1.1811)
(1.06583 0.161363 0.323973 0.0909913 0.806098 -0.0127618 -0.0612543 -0.131361 1.1811)
(1.01484 0.198171 0.321267 0.127799 0.857085 0.0436894 -0.037513 -0.140002 1.1811)
(0.954343 0.21532 0.3088 0.144948 0.917586 0.098813 -0.012632 -0.14439 1.1811)
(0.891625 0.210743 0.28695 0.140371 0.980304 0.150934 0.0126326 -0.14439 1.1811)
(0.834255 0.184991 0.256381 0.114618 1.03767 0.19847 0.0375136 -0.140003 1.1811)
(0.789153 0.14117 0.218022 0.0707976 1.08278 0.239974 0.0612546 -0.131362 1.1811)
(0.761759 0.0845661 0.173038 0.0141936 1.11017 0.274188 0.0831343 -0.118729 1.1811)
(0.755376 0.0220058 0.122797 -0.0483662 1.11655 0.30007 0.102488 -0.102489 1.1811)
(0.770775 -0.0389646 0.0688251 -0.109336 1.10115 0.316835 0.118728 -0.0831345 1.1811)
(0.806098 -0.0909913 0.0127617 -0.161363 1.06583 0.323973 0.131361 -0.0612543 1.1811)
(0.857085 -0.127799 -0.0436894 -0.198171 1.01484 0.321267 0.140002 -0.037513 1.1811)
(0.917586 -0.144948 -0.098813 -0.21532 0.954343 0.3088 0.14439 -0.012632 1.1811)
(0.980304 -0.140371 -0.150934 -0.210743 0.891625 0.28695 0.14439 0.0126326 1.1811)
(1.03767 -0.114618 -0.19847 -0.184991 0.834255 0.256381 0.140003 0.0375136 1.1811)
(1.08278 -0.0707976 -0.239974 -0.14117 0.789153 0.218022 0.131362 0.0612545 1.1811)
(1.11017 -0.0141936 -0.274188 -0.0845661 0.761759 0.173038 0.118729 0.0831343 1.1811)
(1.11655 0.0483662 -0.30007 -0.0220058 0.755376 0.122797 0.102489 0.102488 1.1811)
(1.10115 0.109336 -0.316835 0.0389646 0.770775 0.0688251 0.0831345 0.118728 1.1811)
(1.06583 0.161363 -0.323973 0.0909913 0.806098 0.0127617 0.0612543 0.131361 1.1811)
(1.01484 0.198171 -0.321267 0.127799 0.857085 -0.0436894 0.037513 0.140002 1.1811)
(0.954343 0.21532 -0.3088 0.144948 0.917586 -0.098813 0.012632 0.14439 1.1811)
(0.891625 0.210743 -0.28695 0.140371 0.980304 -0.150934 -0.0126326 0.14439 1.1811)
(0.834255 0.184991 -0.256381 0.114618 1.03767 -0.19847 -0.0375136 0.140003 1.1811)
(0.789153 0.14117 -0.218022 0.0707976 1.08278 -0.239974 -0.0612545 0.131362 1.1811)
(0.761759 0.0845661 -0.173038 0.0141936 1.11017 -0.274188 -0.0831343 0.118729 1.1811)
(0.755376 0.0220058 -0.122797 -0.0483662 1.11655 -0.30007 -0.102488 0.102489 1.1811)
(0.770775 -0.0389646 -0.0688251 -0.109336 1.10115 -0.316835 -0.118728 0.0831345 1.1811)
(0.806098 -0.0909913 -0.0127618 -0.161363 1.06583 -0.323973 -0.131361 0.0612543 1.1811)
(0.857085 -0.127799 0.0436894 -0.198171 1.01484 -0.321267 -0.140002 0.037513 1.1811)
(0.917586 -0.144948 0.098813 -0.21532 0.954343 -0.3088 -0.14439 0.012632 1.1811)
(1.00372 -0.180223 0.166122 -0.207278 0.885451 -0.313706 -0.143506 -0.0125553 1.16077)
(1.06642 -0.148314 0.218073 -0.175369 0.822751 -0.280093 -0.139146 -0.037284 1.16077)
(1.11442 -0.0968845 0.263397 -0.12394 0.774745 -0.23797 -0.130558 -0.0608799 1.16077)
(1.14194 -0.032138 0.300719 -0.0591927 0.747224 -0.188616 -0.118002 -0.0826256 1.16077)
(1.14566 0.0381168 0.328903 0.0110623 0.743508 -0.133531 -0.101861 -0.101861 1.16077)
(1.12512 0.105406 0.347094 0.0783514 0.764045 -0.0743892 -0.0826256 -0.118002 1.16077)
(1.08281 0.161612 0.354738 0.134558 0.806357 -0.012987 -0.0608795 -0.130557 1.16077)
(1.02383 0.199958 0.351604 0.172904 0.865341 0.0488099 -0.0372836 -0.139145 1.16077)
(0.955283 0.215818 0.337787 0.188763 0.933883 0.109124 -0.012555 -0.143506 1.16077)
(0.885451 0.207278 0.313706 0.180223 1.00372 0.166122 0.0125553 -0.143506 1.16077)
(0.822751 0.175369 0.280093 0.148314 1.06642 0.218073 0.037284 -0.139146 1.16077)
(0.774745 0.12394 0.23797 0.0968845 1.11442 0.263397 0.0608799 -0.130558 1.16077)
(0.747224 0.0591927 0.188616 0.032138 1.14194 0.300719 0.0826256 -0.118002 1.16077)
(0.743508 -0.0110623 0.133531 -0.0381168 1.14566 0.328903 0.101861 -0.101861 1.16077)
(0.764045 -0.0783514 0.0743892 -0.105406 1.12512 0.347094 0.118002 -0.0826256 1.16077)
(0.806357 -0.134558 0.012987 -0.161612 1.08281 0.354738 0.130557 -0.0608795 1.16077)
(0.865341 -0.172904 -0.0488099 -0.199958 1.02383 0.351604 0.139145 -0.0372836 1.16077)
(0.933883 -0.188763 -0.109124 -0.215818 0.955283 0.337787 0.143506 -0.012555 1.16077)
(1.00372 -0.180223 -0.166122 -0.207278 0.885451 0.313706 0.143506 0.0125553 1.16077)
(1.06642 -0.148314 -0.218073 -0.175369 0.822751 0.280093 0.139146 0.037284 1.16077)
(1.11442 -0.0968845 -0.263397 -0.12394 0.774745 0.23797 0.130558 0.0608799 1.16077)
(1.14194 -0.032138 -0.300719 -0.0591927 0.747224 0.188616 0.118002 0.0826256 1.16077)
(1.14566 0.0381168 -0.328903 0.0110623 0.743508 0.133531 0.101861 0.101861 1.16077)
(1.12512 0.105406 -0.347094 0.0783514 0.764045 0.0743892 0.0826256 0.118002 1.16077)
(1.08281 0.161612 -0.354738 0.134558 0.806357 0.012987 0.0608795 0.130557 1.16077)
(1.02383 0.199958 -0.351604 0.172904 0.865341 -0.0488099 0.0372836 0.139145 1.16077)
(0.955283 0.215818 -0.337787 0.188763 0.933883 -0.109124 0.012555 0.143506 1.16077)
(0.885451 0.207278 -0.313706 0.180223 1.00372 -0.166122 -0.0125553 0.143506 1.16077)
(0.822751 0.175369 -0.280093 0.148314 1.06642 -0.218073 -0.037284 0.139146 1.16077)
(0.774745 0.12394 -0.23797 0.0968845 1.11442 -0.263397 -0.0608799 0.130558 1.16077)
(0.747224 0.0591927 -0.188616 0.032138 1.14194 -0.300719 -0.0826256 0.118002 1.16077)
(0.743508 -0.0110623 -0.133531 -0.0381168 1.14566 -0.328903 -0.101861 0.101861 1.16077)
(0.764045 -0.0783514 -0.0743892 -0.105406 1.12512 -0.347094 -0.118002 0.0826256 1.16077)
(0.806357 -0.134558 -0.012987 -0.161612 1.08281 -0.354738 -0.130557 0.0608795 1.16077)
(0.865341 -0.172904 0.0488099 -0.199958 1.02383 -0.351604 -0.139145 0.0372835 1.16077)
(0.933883 -0.188763 0.109124 -0.215818 0.955283 -0.337787 -0.143506 0.012555 1.16077)
(1.02876 -0.229161 0.184632 -0.198461 0.872841 -0.336331 -0.140574 -0.0122986 1.14148)
(1.09718 -0.189603 0.24023 -0.158904 0.804415 -0.299161 -0.136303 -0.0365223 1.14148)
(1.14795 -0.129028 0.288529 -0.098329 0.753645 -0.2529 -0.12789 -0.0596362 1.14148)
(1.17494 -0.0547421 0.328062 -0.0240425 0.726654 -0.198955 -0.115591 -0.0809378 1.14148)
(1.1749 0.0242955 0.357626 0.0549956 0.726699 -0.138966 -0.09978 -0.0997801 1.14148)
(1.14782 0.0985515 0.376324 0.129252 0.753773 -0.0747534 -0.0809374 -0.115591 1.14148)
(1.09699 0.159069 0.383587 0.189769 0.804612 -0.0082697 -0.0596357 -0.127889 1.14148)
(1.02851 0.198549 0.379196 0.229249 0.873083 0.0584652 -0.0365221 -0.136302 1.14148)
(0.95067 0.21223 0.363283 0.24293 0.950928 0.123424 -0.0122987 -0.140574 1.14148)
(0.872841 0.198461 0.336331 0.229161 1.02876 0.184632 0.0122986 -0.140574 1.14148)
(0.804415 0.158904 0.299161 0.189603 1.09718 0.24023 0.0365223 -0.136303 1.14148)
(0.753645 0.098329 0.2529 0.129028 1.14795 0.288529 0.0596362 -0.12789 1.14148)
(0.726654 0.0240425 0.198955 0.0547421 1.17494 0.328062 0.0809378 -0.115591 1.14148)
(0.726699 -0.0549956 0.138966 -0.0242955 1.1749 0.357626 0.0997801 -0.09978 1.14148)
(0.753773 -0.129252 0.0747533 -0.0985515 1.14782 0.376324 0.115591 -0.0809374 1.14148)
(0.804612 -0.189769 0.00826969 -0.159069 1.09699 0.383587 0.127889 -0.0596357 1.14148)
(0.873083 -0.229249 -0.0584652 -0.198549 1.02851 0.379196 0.136302 -0.0365221 1.14148)
(0.950928 -0.24293 -0.123424 -0.21223 0.95067 0.363283 0.140574 -0.0122987 1.14148)
(1.02876 -0.229161 -0.184632 -0.198461 0.872841 0.336331 0.140574 0.0122986 1.14148)
(1.09718 -0.189603 -0.24023 -0.158904 0.804415 0.299161 0.136303 0.0365223 1.14148)
(1.14795 -0.129028 -0.288529 -0.098329 0.753645 0.2529 0.12789 0.0596362 1.14148)
(1.17494 -0.0547421 -0.328062 -0.0240425 0.726654 0.198955 0.115591 0.0809377 1.14148)
(1.1749 0.0242955 -0.357626 0.0549956 0.726699 0.138966 0.09978 0.09978 1.14148)
(1.14782 0.0985515 -0.376324 0.129252 0.753773 0.0747533 0.0809374 0.115591 1.14148)
(1.09699 0.159069 -0.383587 0.189769 0.804612 0.00826969 0.0596357 0.127889 1.14148)
(1.02851 0.198549 -0.379196 0.229249 0.873083 -0.0584652 0.0365221 0.136302 1.14148)
(0.95067 0.21223 -0.363283 0.24293 0.950928 -0.123424 0.0122987 0.140574 1.14148)
(0.872841 0.198461 -0.336331 0.229161 1.02876 -0.184632 -0.0122986 0.140574 1.14148)
(0.804415 0.158904 -0.299161 0.189603 1.09718 -0.24023 -0.0365223 0.136303 1.14148)
(0.753645 0.098329 -0.2529 0.129028 1.14795 -0.288529 -0.0596362 0.12789 1.14148)
(0.726654 0.0240425 -0.198955 0.0547421 1.17494 -0.328062 -0.0809377 0.115591 1.14148)
(0.726699 -0.0549956 -0.138966 -0.0242955 1.1749 -0.357626 -0.09978 0.09978 1.14148)
(0.753773 -0.129252 -0.0747534 -0.0985515 1.14782 -0.376324 -0.115591 0.0809374 1.14148)
(0.804612 -0.189769 -0.00826971 -0.159069 1.09699 -0.383587 -0.127889 0.0596357 1.14148)
(0.873083 -0.229249 0.0584652 -0.198549 1.02851 -0.379196 -0.136302 0.0365221 1.14148)
(0.950928 -0.24293 0.123424 -0.21223 0.95067 -0.363283 -0.140574 0.0122987 1.14148)
(1.01737 -0.198029 0.146983 -0.239338 0.85846 -0.28707 -0.17332 -0.0151639 1.21079)
(1.08737 -0.157666 0.1946 -0.198976 0.788457 -0.257186 -0.168054 -0.04503 1.21079)
(1.13934 -0.0957953 0.236303 -0.137105 0.736481 -0.219487 -0.157681 -0.073528 1.21079)
(1.16702 -0.0198792 0.270826 -0.0611888 0.708801 -0.175118 -0.142518 -0.0997918 1.21079)
(1.16707 0.0609259 0.297121 0.0196166 0.708754 -0.125429 -0.123024 -0.123023 1.21079)
(1.13948 0.136874 0.314387 0.0955646 0.736348 -0.0719292 -0.0997919 -0.142517 1.21079)
(1.08757 0.198804 0.322101 0.157495 0.788253 -0.0162436 -0.0735278 -0.157681 1.21079)
(1.01762 0.239247 0.320029 0.197938 0.85821 0.0399356 -0.0450294 -0.168053 1.21079)
(0.938046 0.253324 0.308232 0.212015 0.937779 0.0949012 -0.0151631 -0.17332 1.21079)
(0.85846 0.239338 0.28707 0.198029 1.01737 0.146983 0.0151639 -0.17332 1.21079)
(0.788457 0.198976 0.257186 0.157666 1.08737 0.1946 0.04503 -0.168054 1.21079)