/*--------------------------------*- C++ -*----------------------------------*\
| =========                 |                                                 |
| \\      /  F ield         | OpenFOAM: The Open Source CFD Toolbox           |
|  \\    /   O peration     | Version:  2312                                  |
|   \\  /    A nd           | Website:  www.openfoam.com                      |
|    \\/     M anipulation  |                                                 |
\*---------------------------------------------------------------------------*/
FoamFile
{
    version     2.0;
    format      ascii;
    arch        "LSB;label=32;scalar=64";
    class       pointVectorField;
    location    "0.6";
    object      pointD;
}
// * * * * * * * * * * * * * * * * * * * * * * * * * * * * * * * * * * * * * //

dimensions      [0 1 0 0 0 0 0];

internalField   nonuniform List<vector> 
2164
(
(0 0 0)
(0 0 0)
(0 0 0)
(0 0 0)
(0 0 0)
(0 0 0)
(0 0 0)
(0 0 0)
(0 0 0)
(0 0 0)
(0 0 0)
(0 0 0)
(0 0 0)
(0 0 0)
(0 0 0)
(0 0 0)
(0 0 0)
(0 0 0)
(0 0 0)
(0 0 0)
(0 0 0)
(0 0 0)
(0 0 0)
(0 0 0)
(0 0 0)
(0 0 0)
(0 0 0)
(0 0 0)
(0 0 0)
(0 0 0)
(0 0 0)
(0 0 0)
(0 0 0)
(0 0 0)
(0 0 0)
(0 0 0)
(-0.000464155 0.000415019 -0.000261228)
(-0.00052917 0.000328115 -0.000261228)
(-0.000578108 0.000231241 -0.000261227)
(-0.00060948 0.000127341 -0.000261227)
(-0.000622333 1.9572e-05 -0.000261227)
(-0.000616277 -8.87918e-05 -0.000261227)
(-0.000591496 -0.000194458 -0.000261227)
(-0.000548742 -0.000294217 -0.000261228)
(-0.000489314 -0.000385035 -0.000261228)
(-0.000415019 -0.000464155 -0.000261228)
(-0.000328115 -0.00052917 -0.000261228)
(-0.000231241 -0.000578108 -0.000261227)
(-0.000127341 -0.00060948 -0.000261227)
(-1.95719e-05 -0.000622333 -0.000261227)
(8.87918e-05 -0.000616277 -0.000261227)
(0.000194458 -0.000591496 -0.000261227)
(0.000294217 -0.000548742 -0.000261228)
(0.000385035 -0.000489314 -0.000261228)
(0.000464155 -0.000415019 -0.000261228)
(0.00052917 -0.000328115 -0.000261228)
(0.000578108 -0.000231241 -0.000261227)
(0.00060948 -0.000127341 -0.000261227)
(0.000622333 -1.95719e-05 -0.000261227)
(0.000616277 8.87918e-05 -0.000261227)
(0.000591496 0.000194458 -0.000261227)
(0.000548742 0.000294217 -0.000261228)
(0.000489314 0.000385035 -0.000261228)
(0.000415019 0.000464155 -0.000261228)
(0.000328115 0.00052917 -0.000261228)
(0.000231241 0.000578108 -0.000261227)
(0.000127341 0.00060948 -0.000261227)
(1.9572e-05 0.000622333 -0.000261227)
(-8.87918e-05 0.000616277 -0.000261227)
(-0.000194458 0.000591496 -0.000261227)
(-0.000294217 0.000548742 -0.000261228)
(-0.000385035 0.000489315 -0.000261228)
(-0.000405604 0.000527927 -0.000193918)
(-0.000491115 0.000449473 -0.000193918)
(-0.000561704 0.000357364 -0.000193918)
(-0.000615227 0.000254397 -0.000193917)
(-0.000650056 0.000143699 -0.000193917)
(-0.000665133 2.86341e-05 -0.000193917)
(-0.00066 -8.72995e-05 -0.000193917)
(-0.000634814 -0.000200581 -0.000193917)
(-0.000590339 -0.000307768 -0.000193918)
(-0.000527927 -0.000405604 -0.000193918)
(-0.000449473 -0.000491115 -0.000193918)
(-0.000357364 -0.000561704 -0.000193918)
(-0.000254397 -0.000615227 -0.000193917)
(-0.000143699 -0.000650056 -0.000193917)
(-2.86341e-05 -0.000665133 -0.000193917)
(8.72995e-05 -0.00066 -0.000193917)
(0.000200581 -0.000634814 -0.000193917)
(0.000307768 -0.000590339 -0.000193918)
(0.000405604 -0.000527927 -0.000193918)
(0.000491115 -0.000449473 -0.000193918)
(0.000561704 -0.000357364 -0.000193918)
(0.000615227 -0.000254397 -0.000193917)
(0.000650056 -0.000143699 -0.000193917)
(0.000665133 -2.8634e-05 -0.000193917)
(0.00066 8.72995e-05 -0.000193917)
(0.000634814 0.000200581 -0.000193917)
(0.000590339 0.000307768 -0.000193918)
(0.000527927 0.000405604 -0.000193918)
(0.000449473 0.000491115 -0.000193918)
(0.000357364 0.000561704 -0.000193918)
(0.000254397 0.000615227 -0.000193917)
(0.000143699 0.000650056 -0.000193917)
(2.86341e-05 0.000665133 -0.000193917)
(-8.72995e-05 0.00066 -0.000193917)
(-0.000200581 0.000634814 -0.000193917)
(-0.000307768 0.000590339 -0.000193918)
(0 0 0)
(0 0 0)
(0 0 0)
(0 0 0)
(0 0 0)
(0 0 0)
(0 0 0)
(0 0 0)
(0 0 0)
(0 0 0)
(0 0 0)
(0 0 0)
(0 0 0)
(0 0 0)
(0 0 0)
(0 0 0)
(0 0 0)
(0 0 0)
(0 0 0)
(0 0 0)
(0 0 0)
(0 0 0)
(0 0 0)
(0 0 0)
(0 0 0)
(0 0 0)
(0 0 0)
(0 0 0)
(0 0 0)
(0 0 0)
(0 0 0)
(0 0 0)
(0 0 0)
(0 0 0)
(0 0 0)
(0 0 0)
(-0.000364773 0.000641083 -0.000124927)
(-0.000470554 0.000568001 -0.000124928)
(-0.000562038 0.000477662 -0.000124927)
(-0.000636444 0.000372808 -0.000124928)
(-0.000691513 0.000256627 -0.000124928)
(-0.00072557 0.000132649 -0.000124927)
(-0.000737581 4.63886e-06 -0.000124928)
(-0.000727181 -0.000123511 -0.000124927)
(-0.000694686 -0.000247909 -0.000124928)
(-0.000641083 -0.000364773 -0.000124927)
(-0.000568001 -0.000470554 -0.000124928)
(-0.000477662 -0.000562038 -0.000124927)
(-0.000372808 -0.000636444 -0.000124928)
(-0.000256626 -0.000691513 -0.000124928)
(-0.000132649 -0.00072557 -0.000124927)
(-4.63883e-06 -0.000737581 -0.000124928)
(0.000123511 -0.000727181 -0.000124927)
(0.000247909 -0.000694686 -0.000124928)
(0.000364773 -0.000641083 -0.000124927)
(0.000470554 -0.000568001 -0.000124928)
(0.000562038 -0.000477662 -0.000124927)
(0.000636444 -0.000372808 -0.000124928)
(0.000691513 -0.000256626 -0.000124928)
(0.00072557 -0.000132649 -0.000124927)
(0.000737581 -4.63882e-06 -0.000124928)
(0.000727181 0.000123511 -0.000124927)
(0.000694686 0.000247909 -0.000124928)
(0.000641083 0.000364773 -0.000124927)
(0.000568001 0.000470554 -0.000124928)
(0.000477662 0.000562038 -0.000124927)
(0.000372808 0.000636444 -0.000124928)
(0.000256626 0.000691513 -0.000124928)
(0.000132649 0.00072557 -0.000124927)
(4.63885e-06 0.000737581 -0.000124928)
(-0.000123511 0.000727181 -0.000124927)
(-0.000247909 0.000694686 -0.000124928)
(0 0 0)
(0 0 0)
(0 0 0)
(0 0 0)
(0 0 0)
(0 0 0)
(0 0 0)
(0 0 0)
(0 0 0)
(0 0 0)
(0 0 0)
(0 0 0)
(0 0 0)
(0 0 0)
(0 0 0)
(0 0 0)
(0 0 0)
(0 0 0)
(0 0 0)
(0 0 0)
(0 0 0)
(0 0 0)
(0 0 0)
(0 0 0)
(0 0 0)
(0 0 0)
(0 0 0)
(0 0 0)
(0 0 0)
(0 0 0)
(0 0 0)
(0 0 0)
(0 0 0)
(0 0 0)
(0 0 0)
(0 0 0)
(-0.000343047 0.000746009 -5.86446e-05)
(-0.000467378 0.000675106 -5.86449e-05)
(-0.000577508 0.000583691 -5.8645e-05)
(-0.000670091 0.000474539 -5.8645e-05)
(-0.000742314 0.00035097 -5.8645e-05)
(-0.000791982 0.000216736 -5.86451e-05)
(-0.000817586 7.59165e-05 -5.86454e-05)
(-0.000818348 -6.72087e-05 -5.8645e-05)
(-0.000794244 -0.000208292 -5.86453e-05)
(-0.000746009 -0.000343047 -5.86447e-05)
(-0.000675106 -0.000467378 -5.86449e-05)
(-0.000583691 -0.000577508 -5.8645e-05)
(-0.000474539 -0.000670091 -5.8645e-05)
(-0.00035097 -0.000742314 -5.8645e-05)
(-0.000216736 -0.000791982 -5.86451e-05)
(-7.59165e-05 -0.000817586 -5.86454e-05)
(6.72087e-05 -0.000818348 -5.8645e-05)
(0.000208292 -0.000794244 -5.86453e-05)
(0.000343047 -0.000746009 -5.86447e-05)
(0.000467378 -0.000675106 -5.86449e-05)
(0.000577508 -0.000583691 -5.8645e-05)
(0.000670091 -0.000474539 -5.8645e-05)
(0.000742314 -0.00035097 -5.8645e-05)
(0.000791982 -0.000216736 -5.86451e-05)
(0.000817586 -7.59164e-05 -5.86454e-05)
(0.000818348 6.72087e-05 -5.8645e-05)
(0.000794244 0.000208292 -5.86453e-05)
(0.000746009 0.000343047 -5.86447e-05)
(0.000675106 0.000467378 -5.86449e-05)
(0.000583691 0.000577508 -5.8645e-05)
(0.000474539 0.000670091 -5.8645e-05)
(0.00035097 0.000742314 -5.8645e-05)
(0.000216736 0.000791982 -5.86451e-05)
(7.59164e-05 0.000817586 -5.86453e-05)
(-6.72087e-05 0.000818348 -5.8645e-05)
(-0.000208292 0.000794244 -5.86452e-05)
(0 0 0)
(0 0 0)
(0 0 0)
(0 0 0)
(0 0 0)
(0 0 0)
(0 0 0)
(0 0 0)
(0 0 0)
(0 0 0)
(0 0 0)
(0 0 0)
(0 0 0)
(0 0 0)
(0 0 0)
(0 0 0)
(0 0 0)
(0 0 0)
(0 0 0)
(0 0 0)
(0 0 0)
(0 0 0)
(0 0 0)
(0 0 0)
(0 0 0)
(0 0 0)
(0 0 0)
(0 0 0)
(0 0 0)
(0 0 0)
(0 0 0)
(0 0 0)
(0 0 0)
(0 0 0)
(0 0 0)
(0 0 0)
(-0.000805861 0.000878252 -0.000575734)
(-0.000946125 0.000724973 -0.000575735)
(-0.00105764 0.000549667 -0.000575733)
(-0.00113702 0.00035766 -0.000575732)
(-0.00118186 0.000154785 -0.000575732)
(-0.00119078 -5.27929e-05 -0.000575732)
(-0.00116352 -0.000258768 -0.000575732)
(-0.00110091 -0.000456881 -0.000575733)
(-0.00100485 -0.000641111 -0.000575733)
(-0.000878252 -0.000805861 -0.000575734)
(-0.000724972 -0.000946125 -0.000575735)
(-0.000549667 -0.00105764 -0.000575733)
(-0.00035766 -0.00113702 -0.000575732)
(-0.000154785 -0.00118186 -0.000575732)
(5.2793e-05 -0.00119078 -0.000575732)
(0.000258768 -0.00116352 -0.000575732)
(0.000456881 -0.00110091 -0.000575733)
(0.000641111 -0.00100485 -0.000575733)
(0.000805861 -0.000878252 -0.000575734)
(0.000946125 -0.000724972 -0.000575735)
(0.00105764 -0.000549667 -0.000575733)
(0.00113702 -0.00035766 -0.000575732)
(0.00118186 -0.000154785 -0.000575732)
(0.00119078 5.2793e-05 -0.000575732)
(0.00116352 0.000258768 -0.000575732)
(0.00110091 0.000456881 -0.000575733)
(0.00100485 0.000641111 -0.000575733)
(0.000878252 0.000805861 -0.000575734)
(0.000724972 0.000946125 -0.000575734)
(0.000549667 0.00105764 -0.000575733)
(0.00035766 0.00113702 -0.000575732)
(0.000154785 0.00118186 -0.000575732)
(-5.27929e-05 0.00119078 -0.000575732)
(-0.000258768 0.00116352 -0.000575732)
(-0.000456881 0.00110091 -0.000575733)
(-0.000641111 0.00100485 -0.000575733)
(-0.000771516 0.00107042 -0.000449871)
(-0.000945671 0.000920184 -0.000449871)
(-0.00109109 0.000741989 -0.000449872)
(-0.00120336 0.000541252 -0.00044987)
(-0.00127907 0.000324068 -0.00044987)
(-0.00131591 9.70361e-05 -0.000449871)
(-0.00131277 -0.000132942 -0.00044987)
(-0.00126974 -0.000358884 -0.000449871)
(-0.00118813 -0.000573919 -0.000449871)
(-0.00107042 -0.000771516 -0.000449871)
(-0.000920184 -0.000945671 -0.000449871)
(-0.000741989 -0.00109109 -0.000449872)
(-0.000541252 -0.00120336 -0.00044987)
(-0.000324068 -0.00127907 -0.00044987)
(-9.7036e-05 -0.00131591 -0.000449871)
(0.000132943 -0.00131277 -0.00044987)
(0.000358884 -0.00126974 -0.000449871)
(0.000573919 -0.00118813 -0.000449871)
(0.000771516 -0.00107042 -0.000449871)
(0.000945671 -0.000920184 -0.000449871)
(0.00109109 -0.000741989 -0.000449872)
(0.00120336 -0.000541252 -0.00044987)
(0.00127907 -0.000324068 -0.00044987)
(0.00131591 -9.7036e-05 -0.000449871)
(0.00131277 0.000132943 -0.00044987)
(0.00126974 0.000358884 -0.000449871)
(0.00118813 0.000573919 -0.000449871)
(0.00107042 0.000771516 -0.000449871)
(0.000920184 0.000945671 -0.000449871)
(0.000741989 0.00109109 -0.000449872)
(0.000541252 0.00120336 -0.00044987)
(0.000324068 0.00127907 -0.00044987)
(9.70361e-05 0.00131591 -0.000449871)
(-0.000132942 0.00131277 -0.00044987)
(-0.000358884 0.00126974 -0.000449871)
(-0.000573919 0.00118813 -0.000449871)
(-0.000759222 0.00126228 -0.000322287)
(-0.000966878 0.00111126 -0.000322287)
(-0.00114516 0.000926483 -0.000322287)
(-0.00128864 0.000713554 -0.000322286)
(-0.00139297 0.000478942 -0.000322286)
(-0.00145498 0.000229778 -0.000322286)
(-0.00147277 -2.63679e-05 -0.000322287)
(-0.00144582 -0.00028171 -0.000322287)
(-0.00137494 -0.000528495 -0.000322287)
(-0.00126228 -0.000759222 -0.000322287)
(-0.00111126 -0.000966878 -0.000322287)
(-0.000926483 -0.00114516 -0.000322287)
(-0.000713554 -0.00128864 -0.000322286)
(-0.000478942 -0.00139297 -0.000322286)
(-0.000229778 -0.00145498 -0.000322287)
(2.6368e-05 -0.00147277 -0.000322287)
(0.000281711 -0.00144582 -0.000322287)
(0.000528495 -0.00137494 -0.000322287)
(0.000759222 -0.00126227 -0.000322287)
(0.000966878 -0.00111126 -0.000322287)
(0.00114516 -0.000926483 -0.000322287)
(0.00128864 -0.000713554 -0.000322286)
(0.00139297 -0.000478942 -0.000322286)
(0.00145498 -0.000229778 -0.000322286)
(0.00147277 2.6368e-05 -0.000322287)
(0.00144582 0.000281711 -0.000322287)
(0.00137494 0.000528495 -0.000322287)
(0.00126228 0.000759222 -0.000322287)
(0.00111126 0.000966878 -0.000322287)
(0.000926483 0.00114516 -0.000322287)
(0.000713554 0.00128864 -0.000322286)
(0.000478942 0.00139297 -0.000322286)
(0.000229778 0.00145498 -0.000322286)
(-2.6368e-05 0.00147277 -0.000322287)
(-0.00028171 0.00144582 -0.000322287)
(-0.000528495 0.00137494 -0.000322287)
(-0.000768508 0.00143659 -0.000200323)
(-0.00100629 0.00128131 -0.000200323)
(-0.0012135 0.00108711 -0.000200324)
(-0.00138384 0.00085987 -0.000200324)
(-0.00151213 0.000606504 -0.000200324)
(-0.00159448 0.000334711 -0.000200324)
(-0.00162838 5.2749e-05 -0.000200323)
(-0.0016128 -0.000230817 -0.000200323)
(-0.00154821 -0.000507371 -0.000200324)
(-0.00143659 -0.000768508 -0.000200323)
(-0.00128131 -0.00100629 -0.000200323)
(-0.00108711 -0.0012135 -0.000200324)
(-0.000859869 -0.00138384 -0.000200324)
(-0.000606504 -0.00151213 -0.000200324)
(-0.000334711 -0.00159448 -0.000200324)
(-5.2749e-05 -0.00162838 -0.000200323)
(0.000230817 -0.0016128 -0.000200323)
(0.000507371 -0.00154821 -0.000200324)
(0.000768508 -0.00143659 -0.000200323)
(0.00100629 -0.00128131 -0.000200323)
(0.0012135 -0.00108711 -0.000200324)
(0.00138384 -0.000859869 -0.000200324)
(0.00151213 -0.000606504 -0.000200324)
(0.00159448 -0.000334711 -0.000200324)
(0.00162838 -5.2749e-05 -0.000200323)
(0.0016128 0.000230817 -0.000200323)
(0.00154821 0.000507371 -0.000200324)
(0.00143659 0.000768508 -0.000200323)
(0.00128131 0.00100629 -0.000200323)
(0.00108711 0.0012135 -0.000200324)
(0.00085987 0.00138384 -0.000200324)
(0.000606504 0.00151213 -0.000200324)
(0.000334711 0.00159448 -0.000200324)
(5.2749e-05 0.00162838 -0.000200323)
(-0.000230817 0.0016128 -0.000200323)
(-0.000507371 0.00154821 -0.000200324)
(-0.00113179 0.00138803 -0.000952771)
(-0.00135563 0.00117041 -0.000952771)
(-0.00153827 0.000917228 -0.00095277)
(-0.00167418 0.000636177 -0.000952768)
(-0.00175922 0.000335793 -0.000952768)
(-0.0017908 2.52077e-05 -0.000952768)
(-0.00176797 -0.000286146 -0.000952768)
(-0.00169142 -0.000588804 -0.000952769)
(-0.00156348 -0.00087357 -0.000952771)
(-0.00138803 -0.00113179 -0.000952771)
(-0.00117041 -0.00135563 -0.000952771)
(-0.000917228 -0.00153827 -0.00095277)
(-0.000636176 -0.00167418 -0.000952769)
(-0.000335793 -0.00175922 -0.000952768)
(-2.52076e-05 -0.0017908 -0.000952768)
(0.000286146 -0.00176797 -0.000952768)
(0.000588804 -0.00169142 -0.000952769)
(0.00087357 -0.00156348 -0.000952771)
(0.00113179 -0.00138803 -0.000952771)
(0.00135563 -0.00117041 -0.000952771)
(0.00153827 -0.000917228 -0.00095277)
(0.00167418 -0.000636176 -0.000952768)
(0.00175922 -0.000335793 -0.000952768)
(0.0017908 -2.52076e-05 -0.000952768)
(0.00176797 0.000286146 -0.000952768)
(0.00169142 0.000588804 -0.000952769)
(0.00156348 0.00087357 -0.00095277)
(0.00138803 0.00113179 -0.000952771)
(0.00117041 0.00135563 -0.000952771)
(0.000917228 0.00153827 -0.00095277)
(0.000636176 0.00167418 -0.000952768)
(0.000335793 0.00175922 -0.000952768)
(2.52077e-05 0.0017908 -0.000952768)
(-0.000286146 0.00176797 -0.000952768)
(-0.000588804 0.00169142 -0.000952769)
(-0.00087357 0.00156348 -0.00095277)
(-0.00112581 0.00162246 -0.000782544)
(-0.00139045 0.00140232 -0.000782543)
(-0.00161283 0.00113956 -0.000782544)
(-0.00178621 0.000842188 -0.000782543)
(-0.00190532 0.000519222 -0.000782542)
(-0.00196654 0.000180477 -0.000782543)
(-0.001968 -0.00016375 -0.000782542)
(-0.00190967 -0.000503003 -0.000782543)
(-0.00179331 -0.000826971 -0.000782543)
(-0.00162246 -0.00112581 -0.000782544)
(-0.00140232 -0.00139045 -0.000782543)
(-0.00113956 -0.00161283 -0.000782544)
(-0.000842188 -0.00178621 -0.000782543)
(-0.000519221 -0.00190532 -0.000782542)
(-0.000180477 -0.00196654 -0.000782543)
(0.00016375 -0.001968 -0.000782542)
(0.000503003 -0.00190967 -0.000782543)
(0.000826971 -0.00179331 -0.000782543)
(0.00112581 -0.00162246 -0.000782544)
(0.00139045 -0.00140232 -0.000782543)
(0.00161283 -0.00113956 -0.000782544)
(0.00178621 -0.000842188 -0.000782543)
(0.00190532 -0.000519221 -0.000782542)
(0.00196654 -0.000180477 -0.000782543)
(0.001968 0.00016375 -0.000782542)
(0.00190967 0.000503003 -0.000782543)
(0.00179331 0.000826971 -0.000782543)
(0.00162246 0.00112581 -0.000782544)
(0.00140232 0.00139045 -0.000782543)
(0.00113956 0.00161283 -0.000782544)
(0.000842188 0.00178621 -0.000782543)
(0.000519222 0.00190532 -0.000782542)
(0.000180477 0.00196654 -0.000782543)
(-0.00016375 0.001968 -0.000782542)
(-0.000503003 0.00190967 -0.000782543)
(-0.000826971 0.00179331 -0.000782543)
(-0.00114557 0.00185138 -0.000612202)
(-0.00144965 0.00162433 -0.000612203)
(-0.00170969 0.00134792 -0.000612202)
(-0.00191778 0.00103056 -0.000612202)
(-0.0020676 0.000681882 -0.000612202)
(-0.00215459 0.000312488 -0.000612202)
(-0.00217612 -6.64001e-05 -0.000612202)
(-0.00213153 -0.000443272 -0.000612202)
(-0.00202218 -0.000806674 -0.000612203)
(-0.00185138 -0.00114557 -0.000612202)
(-0.00162432 -0.00144965 -0.000612203)
(-0.00134792 -0.00170969 -0.000612202)
(-0.00103056 -0.00191778 -0.000612203)
(-0.000681882 -0.0020676 -0.000612202)
(-0.000312488 -0.00215459 -0.000612202)
(6.64002e-05 -0.00217612 -0.000612202)
(0.000443272 -0.00213153 -0.000612202)
(0.000806674 -0.00202218 -0.000612203)
(0.00114557 -0.00185138 -0.000612202)
(0.00144965 -0.00162432 -0.000612203)
(0.00170969 -0.00134792 -0.000612202)
(0.00191778 -0.00103056 -0.000612203)
(0.0020676 -0.000681882 -0.000612202)
(0.00215459 -0.000312488 -0.000612202)
(0.00217612 6.64002e-05 -0.000612202)
(0.00213153 0.000443272 -0.000612202)
(0.00202218 0.000806674 -0.000612203)
(0.00185138 0.00114557 -0.000612202)
(0.00162433 0.00144965 -0.000612203)
(0.00134792 0.00170969 -0.000612202)
(0.00103056 0.00191778 -0.000612202)
(0.000681882 0.0020676 -0.000612202)
(0.000312488 0.00215459 -0.000612202)
(-6.64001e-05 0.00217612 -0.000612202)
(-0.000443272 0.00213153 -0.000612202)
(-0.000806674 0.00202218 -0.000612203)
(-0.00118685 0.00205321 -0.000449671)
(-0.00152536 0.00181593 -0.000449671)
(-0.00181751 0.00152346 -0.00044967)
(-0.00205445 0.00118471 -0.000449671)
(-0.00222896 0.000809961 -0.000449671)
(-0.00233575 0.000410601 -0.000449671)
(-0.00237156 -1.23583e-06 -0.000449672)
(-0.00233532 -0.000413033 -0.000449671)
(-0.00222812 -0.000812283 -0.00044967)
(-0.00205321 -0.00118685 -0.000449671)
(-0.00181593 -0.00152536 -0.000449671)
(-0.00152346 -0.00181751 -0.00044967)
(-0.00118471 -0.00205445 -0.000449671)
(-0.000809961 -0.00222896 -0.000449671)
(-0.000410601 -0.00233575 -0.000449671)
(1.23591e-06 -0.00237156 -0.000449672)
(0.000413033 -0.00233532 -0.000449671)
(0.000812283 -0.00222812 -0.00044967)
(0.00118685 -0.00205321 -0.000449671)
(0.00152536 -0.00181593 -0.000449671)
(0.00181751 -0.00152346 -0.00044967)
(0.00205445 -0.00118471 -0.000449671)
(0.00222896 -0.000809961 -0.000449671)
(0.00233575 -0.000410601 -0.000449671)
(0.00237156 1.23594e-06 -0.000449672)
(0.00233532 0.000413033 -0.000449671)
(0.00222812 0.000812283 -0.00044967)
(0.00205321 0.00118685 -0.000449671)
(0.00181593 0.00152536 -0.000449671)
(0.00152346 0.00181751 -0.00044967)
(0.00118471 0.00205445 -0.000449671)
(0.000809961 0.00222896 -0.000449671)
(0.000410601 0.00233575 -0.000449671)
(-1.23585e-06 0.00237156 -0.000449672)
(-0.000413033 0.00233532 -0.000449671)
(-0.000812283 0.00222812 -0.00044967)
(-0.00145068 0.00194411 -0.00136111)
(-0.00176623 0.00166266 -0.00136111)
(-0.00202812 0.0013307 -0.00136111)
(-0.00222838 0.000958308 -0.00136111)
(-0.00236093 0.000556795 -0.00136111)
(-0.00242175 0.000138365 -0.00136111)
(-0.00240899 -0.00028427 -0.00136111)
(-0.00232303 -0.000698271 -0.00136111)
(-0.00216648 -0.00109105 -0.00136111)
(-0.00194411 -0.00145068 -0.00136111)
(-0.00166266 -0.00176623 -0.00136111)
(-0.0013307 -0.00202812 -0.00136111)
(-0.000958308 -0.00222838 -0.00136111)
(-0.000556795 -0.00236093 -0.00136111)
(-0.000138365 -0.00242175 -0.00136111)
(0.00028427 -0.00240899 -0.00136111)
(0.000698271 -0.00232303 -0.00136111)
(0.00109105 -0.00216648 -0.00136111)
(0.00145068 -0.00194411 -0.00136111)
(0.00176623 -0.00166266 -0.00136111)
(0.00202812 -0.0013307 -0.00136111)
(0.00222838 -0.000958308 -0.00136111)
(0.00236093 -0.000556795 -0.00136111)
(0.00242175 -0.000138365 -0.00136111)
(0.00240899 0.00028427 -0.00136111)
(0.00232303 0.000698271 -0.00136111)
(0.00216648 0.00109105 -0.00136111)
(0.00194411 0.00145068 -0.00136111)
(0.00166266 0.00176623 -0.00136111)
(0.0013307 0.00202812 -0.00136111)
(0.000958308 0.00222838 -0.00136111)
(0.000556795 0.00236093 -0.00136111)
(0.000138365 0.00242175 -0.00136111)
(-0.00028427 0.00240899 -0.00136111)
(-0.000698271 0.00232303 -0.00136111)
(-0.00109105 0.00216648 -0.00136111)
(-0.00147013 0.00217619 -0.00115991)
(-0.00182569 0.00188784 -0.00115991)
(-0.00212577 0.00154213 -0.00115991)
(-0.00236126 0.00114957 -0.00115991)
(-0.00252501 0.000722073 -0.00115991)
(-0.00261204 0.00027264 -0.00115991)
(-0.0026197 -0.000185077 -0.00115991)
(-0.00254776 -0.000637172 -0.00115991)
(-0.00239841 -0.00106991 -0.00115991)
(-0.00217619 -0.00147013 -0.00115991)
(-0.00188784 -0.00182569 -0.00115991)
(-0.00154213 -0.00212577 -0.00115991)
(-0.00114957 -0.00236126 -0.00115991)
(-0.000722073 -0.00252501 -0.00115991)
(-0.00027264 -0.00261204 -0.00115991)
(0.000185078 -0.0026197 -0.00115991)
(0.000637173 -0.00254776 -0.00115991)
(0.00106991 -0.00239841 -0.00115991)
(0.00147013 -0.00217619 -0.00115991)
(0.00182569 -0.00188784 -0.00115991)
(0.00212577 -0.00154213 -0.00115991)
(0.00236126 -0.00114957 -0.00115991)
(0.00252501 -0.000722073 -0.00115991)
(0.00261204 -0.00027264 -0.00115991)
(0.0026197 0.000185078 -0.00115991)
(0.00254776 0.000637173 -0.00115991)
(0.00239841 0.00106991 -0.00115991)
(0.00217619 0.00147013 -0.00115991)
(0.00188784 0.00182569 -0.00115991)
(0.00154213 0.00212577 -0.00115991)
(0.00114957 0.00236126 -0.00115991)
(0.000722073 0.00252501 -0.00115991)
(0.00027264 0.00261204 -0.00115991)
(-0.000185077 0.0026197 -0.00115991)
(-0.000637172 0.00254776 -0.00115991)
(-0.00106991 0.00239841 -0.00115991)
(-0.00151763 0.00239571 -0.000960977)
(-0.00191059 0.00209579 -0.000960977)
(-0.00224549 0.00173218 -0.000960977)
(-0.00251216 0.00131593 -0.000960977)
(-0.00270251 0.000859714 -0.000960977)
(-0.00281074 0.000377367 -0.000960977)
(-0.00283356 -0.000116448 -0.000960977)
(-0.0027703 -0.000606721 -0.000960977)
(-0.00262285 -0.00107856 -0.000960976)
(-0.00239571 -0.00151763 -0.000960977)
(-0.00209579 -0.00191059 -0.000960977)
(-0.00173218 -0.00224549 -0.000960977)
(-0.00131593 -0.00251216 -0.000960977)
(-0.000859713 -0.00270251 -0.000960977)
(-0.000377367 -0.00281074 -0.000960977)
(0.000116448 -0.00283356 -0.000960977)
(0.000606721 -0.0027703 -0.000960977)
(0.00107856 -0.00262285 -0.000960976)
(0.00151763 -0.00239571 -0.000960978)
(0.00191059 -0.00209579 -0.000960977)
(0.00224549 -0.00173218 -0.000960977)
(0.00251216 -0.00131593 -0.000960977)
(0.00270251 -0.000859713 -0.000960977)
(0.00281074 -0.000377367 -0.000960977)
(0.00283356 0.000116448 -0.000960977)
(0.0027703 0.000606721 -0.000960977)
(0.00262285 0.00107856 -0.000960976)
(0.00239571 0.00151763 -0.000960977)
(0.00209579 0.00191059 -0.000960977)
(0.00173218 0.00224549 -0.000960977)
(0.00131593 0.00251216 -0.000960977)
(0.000859713 0.00270251 -0.000960977)
(0.000377367 0.00281074 -0.000960977)
(-0.000116448 0.00283356 -0.000960976)
(-0.000606721 0.0027703 -0.000960977)
(-0.00107856 0.00262285 -0.000960976)
(-0.00158507 0.00258081 -0.000771572)
(-0.00200915 0.00226636 -0.000771571)
(-0.00237217 0.00188304 -0.000771572)
(-0.00266312 0.00144251 -0.000771572)
(-0.00287315 0.000958152 -0.000771572)
(-0.00299588 0.000444676 -0.000771573)
(-0.00302758 -8.23083e-05 -0.000771572)
(-0.00296729 -0.000606792 -0.000771572)
(-0.00281685 -0.00111284 -0.000771571)
(-0.00258081 -0.00158507 -0.000771572)
(-0.00226636 -0.00200915 -0.000771571)
(-0.00188304 -0.00237217 -0.000771572)
(-0.00144251 -0.00266312 -0.000771572)
(-0.000958152 -0.00287315 -0.000771572)
(-0.000444675 -0.00299588 -0.000771573)
(8.23084e-05 -0.00302758 -0.000771572)
(0.000606792 -0.00296729 -0.000771572)
(0.00111284 -0.00281685 -0.000771571)
(0.00158507 -0.00258081 -0.000771572)
(0.00200915 -0.00226636 -0.000771571)
(0.00237217 -0.00188304 -0.000771572)
(0.00266312 -0.00144251 -0.000771572)
(0.00287315 -0.000958152 -0.000771572)
(0.00299588 -0.000444675 -0.000771573)
(0.00302758 8.23084e-05 -0.000771572)
(0.00296729 0.000606792 -0.000771572)
(0.00281685 0.00111284 -0.000771571)
(0.00258081 0.00158507 -0.000771572)
(0.00226636 0.00200915 -0.000771571)
(0.00188304 0.00237217 -0.000771572)
(0.00144251 0.00266312 -0.000771572)
(0.000958152 0.00287315 -0.000771572)
(0.000444676 0.00299588 -0.000771572)
(-8.23083e-05 0.00302758 -0.000771571)
(-0.000606792 0.00296729 -0.000771572)
(-0.00111284 0.00281685 -0.000771571)
(-0.00177861 0.00252363 -0.00179167)
(-0.00218981 0.00217644 -0.00179167)
(-0.00253448 0.00176312 -0.00179167)
(-0.00280213 0.00129623 -0.00179167)
(-0.00298465 0.00078995 -0.00179167)
(-0.00307648 0.000259667 -0.00179166)
(-0.00307483 -0.000278502 -0.00179166)
(-0.00297976 -0.00080821 -0.00179166)
(-0.00279414 -0.00131336 -0.00179166)
(-0.00252363 -0.00177861 -0.00179167)
(-0.00217644 -0.00218981 -0.00179167)
(-0.00176312 -0.00253448 -0.00179167)
(-0.00129623 -0.00280213 -0.00179167)
(-0.00078995 -0.00298465 -0.00179167)
(-0.000259667 -0.00307648 -0.00179166)
(0.000278502 -0.00307483 -0.00179166)
(0.000808211 -0.00297976 -0.00179166)
(0.00131336 -0.00279414 -0.00179166)
(0.00177861 -0.00252363 -0.00179167)
(0.00218981 -0.00217644 -0.00179167)
(0.00253448 -0.00176312 -0.00179167)
(0.00280213 -0.00129623 -0.00179167)
(0.00298465 -0.00078995 -0.00179167)
(0.00307648 -0.000259667 -0.00179166)
(0.00307483 0.000278502 -0.00179166)
(0.00297976 0.00080821 -0.00179166)
(0.00279414 0.00131336 -0.00179166)
(0.00252363 0.00177861 -0.00179167)
(0.00217644 0.00218981 -0.00179167)
(0.00176312 0.00253448 -0.00179167)
(0.00129623 0.00280213 -0.00179167)
(0.00078995 0.00298465 -0.00179167)
(0.000259667 0.00307648 -0.00179166)
(-0.000278502 0.00307483 -0.00179166)
(-0.00080821 0.00297976 -0.00179166)
(-0.00131336 0.00279414 -0.00179166)
(-0.00181273 0.00271523 -0.00156929)
(-0.00225669 0.0023592 -0.00156929)
(-0.00263207 0.00193149 -0.00156929)
(-0.00292748 0.00144509 -0.00156929)
(-0.00313395 0.000914785 -0.00156929)
(-0.00324518 0.000356684 -0.00156929)
(-0.00325782 -0.000212257 -0.00156929)
(-0.00317147 -0.000774746 -0.00156929)
(-0.00298876 -0.0013137 -0.00156929)
(-0.00271523 -0.00181273 -0.00156929)
(-0.0023592 -0.00225669 -0.00156929)
(-0.00193149 -0.00263207 -0.00156929)
(-0.00144509 -0.00292748 -0.00156929)
(-0.000914785 -0.00313395 -0.00156929)
(-0.000356684 -0.00324518 -0.00156929)
(0.000212257 -0.00325782 -0.00156929)
(0.000774747 -0.00317147 -0.00156929)
(0.0013137 -0.00298876 -0.00156929)
(0.00181273 -0.00271523 -0.00156929)
(0.00225669 -0.0023592 -0.00156929)
(0.00263207 -0.00193149 -0.00156929)
(0.00292748 -0.00144509 -0.00156929)
(0.00313395 -0.000914785 -0.00156929)
(0.00324518 -0.000356684 -0.00156929)
(0.00325782 0.000212257 -0.00156929)
(0.00317147 0.000774747 -0.00156929)
(0.00298876 0.0013137 -0.00156929)
(0.00271523 0.00181273 -0.00156929)
(0.0023592 0.00225669 -0.00156929)
(0.00193149 0.00263207 -0.00156929)
(0.00144509 0.00292748 -0.00156929)
(0.000914785 0.00313395 -0.00156929)
(0.000356684 0.00324519 -0.00156929)
(-0.000212257 0.00325782 -0.00156929)
(-0.000774746 0.00317147 -0.00156929)
(-0.0013137 0.00298876 -0.00156929)
(-0.00187502 0.00288799 -0.00135161)
(-0.00234803 0.00251853 -0.00135161)
(-0.00274969 0.00207253 -0.00135161)
(-0.00306781 0.00156357 -0.00135161)
(-0.00329272 0.00100709 -0.00135161)
(-0.00341757 0.000420019 -0.00135161)
(-0.00343859 -0.000179818 -0.00135161)
(-0.00335512 -0.000774189 -0.00135161)
(-0.00316971 -0.00134504 -0.00135161)
(-0.00288799 -0.00187502 -0.00135162)
(-0.00251853 -0.00234803 -0.00135161)
(-0.00207253 -0.00274969 -0.00135161)
(-0.00156357 -0.00306781 -0.00135161)
(-0.00100709 -0.00329272 -0.00135161)
(-0.000420019 -0.00341757 -0.00135161)
(0.000179819 -0.00343859 -0.00135161)
(0.000774189 -0.00335512 -0.00135161)
(0.00134504 -0.00316971 -0.00135161)
(0.00187502 -0.00288799 -0.00135162)
(0.00234803 -0.00251853 -0.00135161)
(0.0027497 -0.00207253 -0.00135161)
(0.00306781 -0.00156357 -0.00135161)
(0.00329272 -0.00100709 -0.00135161)
(0.00341757 -0.000420019 -0.00135161)
(0.00343859 0.000179819 -0.00135161)
(0.00335512 0.000774189 -0.00135161)
(0.00316971 0.00134504 -0.00135161)
(0.00288799 0.00187502 -0.00135161)
(0.00251853 0.00234803 -0.00135161)
(0.00207253 0.0027497 -0.00135161)
(0.00156357 0.00306781 -0.00135161)
(0.00100709 0.00329272 -0.00135161)
(0.000420019 0.00341757 -0.00135161)
(-0.000179818 0.00343859 -0.00135161)
(-0.000774189 0.00335512 -0.00135161)
(-0.00134504 0.00316971 -0.00135161)
(-0.00195459 0.00302156 -0.00114455)
(-0.00244959 0.00263624 -0.00114455)
(-0.00287016 0.00217083 -0.00114455)
(-0.00320351 0.00163945 -0.00114455)
(-0.00343953 0.00105826 -0.00114455)
(-0.00357104 0.000444919 -0.00114455)
(-0.00359405 -0.000181946 -0.00114455)
(-0.00350785 -0.000803284 -0.00114455)
(-0.00331507 -0.00140021 -0.00114455)
(-0.00302156 -0.00195459 -0.00114455)
(-0.00263624 -0.00244959 -0.00114455)
(-0.00217083 -0.00287016 -0.00114455)
(-0.00163945 -0.00320351 -0.00114455)
(-0.00105826 -0.00343953 -0.00114455)
(-0.000444919 -0.00357104 -0.00114455)
(0.000181946 -0.00359405 -0.00114455)
(0.000803284 -0.00350785 -0.00114455)
(0.00140021 -0.00331507 -0.00114455)
(0.00195459 -0.00302156 -0.00114455)
(0.00244959 -0.00263624 -0.00114455)
(0.00287016 -0.00217083 -0.00114455)
(0.00320351 -0.00163945 -0.00114455)
(0.00343953 -0.00105826 -0.00114455)
(0.00357104 -0.000444919 -0.00114455)
(0.00359405 0.000181946 -0.00114455)
(0.00350785 0.000803284 -0.00114455)
(0.00331507 0.00140021 -0.00114455)
(0.00302156 0.00195459 -0.00114455)
(0.00263624 0.00244959 -0.00114455)
(0.00217083 0.00287016 -0.00114455)
(0.00163945 0.00320351 -0.00114455)
(0.00105826 0.00343953 -0.00114455)
(0.000444919 0.00357104 -0.00114455)
(-0.000181946 0.00359405 -0.00114455)
(-0.000803284 0.00350785 -0.00114455)
(-0.00140021 0.00331507 -0.00114455)
(-0.00212506 0.00309159 -0.00224253)
(-0.00262962 0.00267561 -0.00224254)
(-0.00305429 0.00217833 -0.00224253)
(-0.00338615 0.00161487 -0.00224253)
(-0.00361512 0.00100234 -0.00224253)
(-0.00373426 0.000359349 -0.00224253)
(-0.00373992 -0.000294556 -0.00224253)
(-0.00363196 -0.000939513 -0.00224253)