/*--------------------------------*- C++ -*----------------------------------*\
| =========                 |                                                 |
| \\      /  F ield         | OpenFOAM: The Open Source CFD Toolbox           |
|  \\    /   O peration     | Version:  2312                                  |
|   \\  /    A nd           | Website:  www.openfoam.com                      |
|    \\/     M anipulation  |                                                 |
\*---------------------------------------------------------------------------*/
FoamFile
{
    version     2.0;
    format      ascii;
    arch        "LSB;label=32;scalar=64";
    class       volVectorField;
    location    "0.7";
    object      D_0_0;
}
// * * * * * * * * * * * * * * * * * * * * * * * * * * * * * * * * * * * * * //

dimensions      [0 1 0 0 0 0 0];

internalField   nonuniform List<vector> 
1620
(
(0.000158711 -0.000280058 4.9558e-05)
(0.000204931 -0.000248243 4.95584e-05)
(0.000244925 -0.000208886 4.95585e-05)
(0.000277477 -0.000163182 4.95583e-05)
(0.000301598 -0.000112519 4.95584e-05)
(0.000316554 -5.84377e-05 4.95583e-05)
(0.000321892 -2.58103e-06 4.95579e-05)
(0.00031745 5.33539e-05 4.95577e-05)
(0.000303363 0.000107668 4.9558e-05)
(0.000280058 0.000158711 4.9558e-05)
(0.000248243 0.000204931 4.95584e-05)
(0.000208886 0.000244925 4.95585e-05)
(0.000163182 0.000277477 4.95583e-05)
(0.000112519 0.000301598 4.95584e-05)
(5.84377e-05 0.000316554 4.95583e-05)
(2.58103e-06 0.000321892 4.95579e-05)
(-5.33539e-05 0.00031745 4.95577e-05)
(-0.000107668 0.000303363 4.9558e-05)
(-0.000158711 0.000280058 4.9558e-05)
(-0.000204931 0.000248243 4.95584e-05)
(-0.000244925 0.000208886 4.95585e-05)
(-0.000277477 0.000163182 4.95583e-05)
(-0.000301598 0.000112519 4.95584e-05)
(-0.000316554 5.84377e-05 4.95583e-05)
(-0.000321892 2.58103e-06 4.95579e-05)
(-0.00031745 -5.33539e-05 4.95577e-05)
(-0.000303363 -0.000107668 4.9558e-05)
(-0.000280058 -0.000158711 4.9558e-05)
(-0.000248243 -0.000204931 4.95584e-05)
(-0.000208886 -0.000244925 4.95585e-05)
(-0.000163182 -0.000277477 4.95583e-05)
(-0.000112519 -0.000301598 4.95584e-05)
(-5.84377e-05 -0.000316554 4.95583e-05)
(-2.58103e-06 -0.000321892 4.95579e-05)
(5.33539e-05 -0.00031745 4.95577e-05)
(0.000107668 -0.000303363 4.9558e-05)
(0.000100971 -0.000318641 7.22548e-05)
(0.000154768 -0.000296266 7.2255e-05)
(0.000203863 -0.00026489 7.2255e-05)
(0.000246764 -0.000225465 7.2255e-05)
(0.000282167 -0.00017919 7.22552e-05)
(0.000308996 -0.000127469 7.22551e-05)
(0.000326436 -7.18763e-05 7.22549e-05)
(0.000333958 -1.40997e-05 7.22548e-05)
(0.000331333 4.41058e-05 7.22548e-05)
(0.000318641 0.000100971 7.22548e-05)
(0.000296266 0.000154768 7.2255e-05)
(0.00026489 0.000203863 7.2255e-05)
(0.000225465 0.000246764 7.2255e-05)
(0.00017919 0.000282167 7.22552e-05)
(0.000127469 0.000308996 7.22551e-05)
(7.18763e-05 0.000326436 7.22549e-05)
(1.40997e-05 0.000333958 7.22548e-05)
(-4.41058e-05 0.000331333 7.22548e-05)
(-0.000100971 0.000318641 7.22548e-05)
(-0.000154768 0.000296266 7.2255e-05)
(-0.000203863 0.00026489 7.2255e-05)
(-0.000246764 0.000225465 7.2255e-05)
(-0.000282167 0.00017919 7.22552e-05)
(-0.000308996 0.000127469 7.22551e-05)
(-0.000326436 7.18763e-05 7.22549e-05)
(-0.000333958 1.40997e-05 7.22548e-05)
(-0.000331333 -4.41058e-05 7.22548e-05)
(-0.000318641 -0.000100971 7.22548e-05)
(-0.000296266 -0.000154768 7.2255e-05)
(-0.00026489 -0.000203863 7.2255e-05)
(-0.000225465 -0.000246764 7.2255e-05)
(-0.00017919 -0.000282167 7.22552e-05)
(-0.000127469 -0.000308996 7.22551e-05)
(-7.18763e-05 -0.000326436 7.22549e-05)
(-1.40997e-05 -0.000333958 7.22548e-05)
(4.41058e-05 -0.000331333 7.22548e-05)
(1.0341e-05 -0.000355297 8.39758e-05)
(7.18805e-05 -0.000348103 8.39757e-05)
(0.000131236 -0.000330333 8.39761e-05)
(0.000186604 -0.000302525 8.3976e-05)
(0.000236303 -0.000265526 8.39761e-05)
(0.00027882 -0.000220459 8.39759e-05)
(0.000312867 -0.000168693 8.3976e-05)
(0.000337407 -0.000111801 8.39761e-05)
(0.000351695 -5.15126e-05 8.39759e-05)
(0.000355297 1.0341e-05 8.39758e-05)
(0.000348103 7.18805e-05 8.39757e-05)
(0.000330333 0.000131236 8.39761e-05)
(0.000302525 0.000186604 8.3976e-05)
(0.000265526 0.000236303 8.39761e-05)
(0.000220459 0.00027882 8.39759e-05)
(0.000168693 0.000312867 8.3976e-05)
(0.000111801 0.000337407 8.39761e-05)
(5.15126e-05 0.000351695 8.39759e-05)
(-1.0341e-05 0.000355297 8.39758e-05)
(-7.18805e-05 0.000348103 8.39757e-05)
(-0.000131236 0.000330333 8.39761e-05)
(-0.000186604 0.000302525 8.3976e-05)
(-0.000236303 0.000265526 8.39761e-05)
(-0.00027882 0.000220459 8.39759e-05)
(-0.000312867 0.000168693 8.3976e-05)
(-0.000337407 0.000111801 8.39761e-05)
(-0.000351695 5.15126e-05 8.39759e-05)
(-0.000355297 -1.0341e-05 8.39758e-05)
(-0.000348103 -7.18805e-05 8.39757e-05)
(-0.000330333 -0.000131236 8.39761e-05)
(-0.000302525 -0.000186604 8.3976e-05)
(-0.000265526 -0.000236303 8.39761e-05)
(-0.000220459 -0.00027882 8.39759e-05)
(-0.000168693 -0.000312867 8.3976e-05)
(-0.000111801 -0.000337407 8.39761e-05)
(-5.15126e-05 -0.000351695 8.39759e-05)
(0.000355397 -0.000852096 0.000191055)
(0.000497963 -0.000777437 0.000191056)
(0.000625399 -0.000679156 0.000191056)
(0.000733832 -0.000560238 0.000191056)
(0.000819967 -0.000424298 0.000191057)
(0.000881189 -0.000275466 0.000191056)
(0.000915636 -0.000118264 0.000191055)
(0.000922262 4.25308e-05 0.000191054)
(0.000900865 0.000202033 0.000191055)
(0.000852096 0.000355397 0.000191055)
(0.000777437 0.000497963 0.000191056)
(0.000679156 0.000625399 0.000191056)
(0.000560238 0.000733832 0.000191056)
(0.000424298 0.000819967 0.000191057)
(0.000275466 0.000881189 0.000191056)
(0.000118264 0.000915636 0.000191055)
(-4.25308e-05 0.000922262 0.000191054)
(-0.000202033 0.000900865 0.000191055)
(-0.000355397 0.000852096 0.000191055)
(-0.000497963 0.000777437 0.000191056)
(-0.000625399 0.000679156 0.000191056)
(-0.000733832 0.000560238 0.000191056)
(-0.000819967 0.000424298 0.000191057)
(-0.000881189 0.000275466 0.000191056)
(-0.000915636 0.000118264 0.000191055)
(-0.000922262 -4.25308e-05 0.000191054)
(-0.000900865 -0.000202033 0.000191055)
(-0.000852096 -0.000355397 0.000191055)
(-0.000777437 -0.000497963 0.000191056)
(-0.000679156 -0.000625399 0.000191056)
(-0.000560238 -0.000733832 0.000191056)
(-0.000424298 -0.000819967 0.000191057)
(-0.000275466 -0.000881189 0.000191056)
(-0.000118264 -0.000915636 0.000191055)
(4.25308e-05 -0.000922262 0.000191054)
(0.000202033 -0.000900865 0.000191055)
(0.000260885 -0.00094766 0.000260982)
(0.000421481 -0.00088796 0.000260982)
(0.000569271 -0.000801281 0.000260983)
(0.000699763 -0.000690255 0.000260983)
(0.000808994 -0.000558256 0.000260983)
(0.000893644 -0.000409294 0.000260983)
(0.00095114 -0.000247896 0.000260982)
(0.000979736 -7.89666e-05 0.000260982)
(0.000978565 9.2362e-05 0.000260982)
(0.00094766 0.000260885 0.000260982)
(0.00088796 0.000421481 0.000260982)
(0.000801281 0.000569271 0.000260983)
(0.000690255 0.000699763 0.000260983)
(0.000558256 0.000808994 0.000260983)
(0.000409294 0.000893644 0.000260983)
(0.000247896 0.00095114 0.000260982)
(7.89666e-05 0.000979736 0.000260982)
(-9.2362e-05 0.000978565 0.000260982)
(-0.000260885 0.00094766 0.000260982)
(-0.000421481 0.00088796 0.000260982)
(-0.000569271 0.000801281 0.000260983)
(-0.000699763 0.000690255 0.000260983)
(-0.000808994 0.000558256 0.000260983)
(-0.000893644 0.000409294 0.000260983)
(-0.00095114 0.000247896 0.000260982)
(-0.000979736 7.89666e-05 0.000260982)
(-0.000978565 -9.2362e-05 0.000260982)
(-0.00094766 -0.000260885 0.000260982)
(-0.00088796 -0.000421481 0.000260982)
(-0.000801281 -0.000569271 0.000260983)
(-0.000690255 -0.000699763 0.000260983)
(-0.000558256 -0.000808994 0.000260983)
(-0.000409294 -0.000893644 0.000260983)
(-0.000247896 -0.00095114 0.000260982)
(-7.89666e-05 -0.000979736 0.000260982)
(9.2362e-05 -0.000978565 0.000260982)
(0.000127712 -0.00103734 0.000314433)
(0.000305904 -0.000999404 0.000314432)
(0.000474801 -0.000931101 0.000314433)
(0.000629272 -0.000834507 0.000314433)
(0.000764623 -0.000712556 0.000314433)
(0.000876741 -0.000568956 0.000314433)
(0.00096222 -0.000408068 0.000314433)
(0.00101846 -0.000234781 0.000314433)
(0.00104376 -5.43604e-05 0.000314433)
(0.00103734 0.000127712 0.000314433)
(0.000999404 0.000305904 0.000314432)
(0.000931101 0.000474801 0.000314433)
(0.000834507 0.000629272 0.000314433)
(0.000712556 0.000764623 0.000314433)
(0.000568956 0.000876741 0.000314433)
(0.000408068 0.00096222 0.000314433)
(0.000234781 0.00101846 0.000314433)
(5.43604e-05 0.00104376 0.000314433)
(-0.000127712 0.00103734 0.000314433)
(-0.000305904 0.000999404 0.000314432)
(-0.000474801 0.000931101 0.000314433)
(-0.000629272 0.000834507 0.000314433)
(-0.000764623 0.000712556 0.000314433)
(-0.000876741 0.000568956 0.000314433)
(-0.00096222 0.000408068 0.000314433)
(-0.00101846 0.000234781 0.000314433)
(-0.00104376 5.43604e-05 0.000314433)
(-0.00103734 -0.000127712 0.000314433)
(-0.000999404 -0.000305904 0.000314432)
(-0.000931101 -0.000474801 0.000314433)
(-0.000834507 -0.000629272 0.000314433)
(-0.000712556 -0.000764623 0.000314433)
(-0.000568956 -0.000876741 0.000314433)
(-0.000408068 -0.00096222 0.000314433)
(-0.000234781 -0.00101846 0.000314433)
(-5.43604e-05 -0.00104376 0.000314433)
(0.000507775 -0.00143781 0.000424895)
(0.000749734 -0.00132779 0.000424896)
(0.000968913 -0.00117743 0.000424897)
(0.00115865 -0.000991291 0.000424897)
(0.00131318 -0.000775034 0.000424897)
(0.00142782 -0.000535227 0.000424896)
(0.00149907 -0.000279158 0.000424895)
(0.00152477 -1.46064e-05 0.000424894)
(0.00150414 0.000250388 0.000424894)
(0.00143781 0.000507775 0.000424895)
(0.00132779 0.000749734 0.000424896)
(0.00117743 0.000968913 0.000424897)
(0.000991291 0.00115865 0.000424897)
(0.000775034 0.00131318 0.000424897)
(0.000535227 0.00142782 0.000424896)
(0.000279158 0.00149907 0.000424895)
(1.46064e-05 0.00152477 0.000424894)
(-0.000250388 0.00150414 0.000424894)
(-0.000507775 0.00143781 0.000424895)
(-0.000749734 0.00132779 0.000424896)
(-0.000968913 0.00117743 0.000424897)
(-0.00115865 0.000991291 0.000424897)
(-0.00131318 0.000775034 0.000424897)
(-0.00142782 0.000535227 0.000424896)
(-0.00149907 0.000279158 0.000424895)
(-0.00152477 1.46064e-05 0.000424894)
(-0.00150414 -0.000250388 0.000424894)
(-0.00143781 -0.000507775 0.000424895)
(-0.00132779 -0.000749734 0.000424896)
(-0.00117743 -0.000968913 0.000424897)
(-0.000991291 -0.00115865 0.000424897)
(-0.000775034 -0.00131318 0.000424897)
(-0.000535227 -0.00142782 0.000424896)
(-0.000279158 -0.00149907 0.000424895)
(-1.46064e-05 -0.00152477 0.000424894)
(0.000250388 -0.00150414 0.000424894)
(0.00037647 -0.00156065 0.000519735)
(0.000641754 -0.00147157 0.000519736)
(0.000887539 -0.00133777 0.000519736)
(0.00110636 -0.00116333 0.000519736)
(0.00129156 -0.000953536 0.000519736)
(0.00143752 -0.000714772 0.000519735)
(0.0015398 -0.000454292 0.000519735)
(0.00159529 -0.000180007 0.000519735)
(0.00160231 9.97462e-05 0.000519735)
(0.00156065 0.00037647 0.000519735)
(0.00147157 0.000641754 0.000519736)
(0.00133777 0.000887539 0.000519736)
(0.00116333 0.00110636 0.000519736)
(0.000953536 0.00129156 0.000519736)
(0.000714772 0.00143752 0.000519735)
(0.000454292 0.0015398 0.000519735)
(0.000180007 0.00159529 0.000519735)
(-9.97462e-05 0.00160231 0.000519735)
(-0.00037647 0.00156065 0.000519735)
(-0.000641754 0.00147157 0.000519736)
(-0.000887539 0.00133777 0.000519736)
(-0.00110636 0.00116333 0.000519736)
(-0.00129156 0.000953536 0.000519736)
(-0.00143752 0.000714772 0.000519735)
(-0.0015398 0.000454292 0.000519735)
(-0.00159529 0.000180007 0.000519735)
(-0.00160231 -9.97462e-05 0.000519735)
(-0.00156065 -0.00037647 0.000519735)
(-0.00147157 -0.000641754 0.000519736)
(-0.00133777 -0.000887539 0.000519736)
(-0.00116333 -0.00110636 0.000519736)
(-0.000953536 -0.00129156 0.000519736)
(-0.000714772 -0.00143752 0.000519735)
(-0.000454292 -0.0015398 0.000519735)
(-0.000180007 -0.00159529 0.000519735)
(9.97462e-05 -0.00160231 0.000519735)
(0.000210641 -0.00167293 0.000597102)
(0.000497943 -0.00161094 0.000597102)
(0.000770114 -0.0015 0.000597103)
(0.00101889 -0.00134348 0.000597103)
(0.0012367 -0.00114614 0.000597103)
(0.00141694 -0.000913977 0.000597103)
(0.00155412 -0.000654044 0.000597103)
(0.00164408 -0.000374238 0.000597103)
(0.00168409 -8.30603e-05 0.000597102)
(0.00167293 0.000210641 0.000597102)
(0.00161094 0.000497943 0.000597102)
(0.0015 0.000770114 0.000597103)
(0.00134348 0.00101889 0.000597103)
(0.00114614 0.0012367 0.000597103)
(0.000913977 0.00141694 0.000597103)
(0.000654044 0.00155412 0.000597103)
(0.000374238 0.00164408 0.000597103)
(8.30603e-05 0.00168409 0.000597102)
(-0.000210641 0.00167293 0.000597102)
(-0.000497943 0.00161094 0.000597102)
(-0.000770114 0.0015 0.000597103)
(-0.00101889 0.00134348 0.000597103)
(-0.0012367 0.00114614 0.000597103)
(-0.00141694 0.000913977 0.000597103)
(-0.00155412 0.000654044 0.000597103)
(-0.00164408 0.000374238 0.000597103)
(-0.00168409 8.30603e-05 0.000597102)
(-0.00167293 -0.000210641 0.000597102)
(-0.00161094 -0.000497943 0.000597102)
(-0.0015 -0.000770114 0.000597103)
(-0.00134348 -0.00101889 0.000597103)
(-0.00114614 -0.0012367 0.000597103)
(-0.000913977 -0.00141694 0.000597103)
(-0.000654044 -0.00155412 0.000597103)
(-0.000374238 -0.00164408 0.000597103)
(-8.30603e-05 -0.00168409 0.000597102)
(0.000585965 -0.00202504 0.000706642)
(0.000928707 -0.00189252 0.000706643)
(0.00124323 -0.0017025 0.000706643)
(0.00151998 -0.00146075 0.000706643)
(0.00175055 -0.00117462 0.000706642)
(0.00192792 -0.000852796 0.000706642)
(0.00204672 -0.00050506 0.000706641)
(0.00210333 -0.000141978 0.000706641)
(0.00209603 0.000225418 0.000706641)
(0.00202504 0.000585965 0.000706642)
(0.00189252 0.000928707 0.000706643)
(0.0017025 0.00124323 0.000706643)
(0.00146075 0.00151998 0.000706643)
(0.00117462 0.00175055 0.000706642)
(0.000852796 0.00192792 0.000706642)
(0.00050506 0.00204672 0.000706641)
(0.000141978 0.00210333 0.000706641)
(-0.000225418 0.00209603 0.000706641)
(-0.000585965 0.00202504 0.000706642)
(-0.000928707 0.00189252 0.000706643)
(-0.00124323 0.0017025 0.000706643)
(-0.00151998 0.00146075 0.000706643)
(-0.00175055 0.00117462 0.000706642)
(-0.00192792 0.000852796 0.000706642)
(-0.00204672 0.00050506 0.000706641)
(-0.00210333 0.000141978 0.000706641)
(-0.00209603 -0.000225418 0.000706641)
(-0.00202504 -0.000585965 0.000706642)
(-0.00189252 -0.000928707 0.000706643)
(-0.0017025 -0.00124323 0.000706643)
(-0.00146075 -0.00151998 0.000706643)
(-0.00117462 -0.00175055 0.000706642)
(-0.000852796 -0.00192792 0.000706642)
(-0.00050506 -0.00204672 0.000706641)
(-0.000141978 -0.00210333 0.000706641)
(0.000225418 -0.00209603 0.000706641)
(0.000433897 -0.0021405 0.000808717)
(0.000798999 -0.00203263 0.000808717)
(0.00113982 -0.00186301 0.000808718)
(0.00144602 -0.00163678 0.000808717)
(0.00170827 -0.00136081 0.000808717)
(0.00191862 -0.0010435 0.000808717)
(0.00207068 -0.000694484 0.000808717)
(0.00215981 -0.000324364 0.000808717)
(0.00218333 5.5611e-05 0.000808717)
(0.0021405 0.000433897 0.000808717)
(0.00203263 0.000798999 0.000808717)
(0.00186301 0.00113982 0.000808718)
(0.00163678 0.00144602 0.000808717)
(0.00136081 0.00170827 0.000808717)
(0.0010435 0.00191862 0.000808717)
(0.000694484 0.00207068 0.000808717)
(0.000324364 0.00215981 0.000808717)
(-5.5611e-05 0.00218333 0.000808717)
(-0.000433897 0.0021405 0.000808717)
(-0.000798999 0.00203263 0.000808717)
(-0.00113982 0.00186301 0.000808718)
(-0.00144602 0.00163678 0.000808717)
(-0.00170827 0.00136081 0.000808717)
(-0.00191862 0.0010435 0.000808717)
(-0.00207068 0.000694484 0.000808717)
(-0.00215981 0.000324364 0.000808717)
(-0.00218333 -5.5611e-05 0.000808717)
(-0.0021405 -0.000433897 0.000808717)
(-0.00203263 -0.000798999 0.000808717)
(-0.00186301 -0.00113982 0.000808718)
(-0.00163678 -0.00144602 0.000808717)
(-0.00136081 -0.00170827 0.000808717)
(-0.0010435 -0.00191862 0.000808717)
(-0.000694484 -0.00207068 0.000808717)
(-0.000324364 -0.00215981 0.000808717)
(5.5611e-05 -0.00218333 0.000808717)
(0.000252391 -0.00224405 0.000893101)
(0.000638232 -0.00216613 0.000893101)
(0.00100468 -0.00202239 0.000893101)
(0.0013406 -0.00181721 0.000893101)
(0.00163579 -0.00155681 0.000893101)
(0.00188127 -0.0012491 0.000893101)
(0.0020696 -0.000903447 0.000893101)
(0.00219504 -0.00053034 0.000893101)
(0.00225378 -0.000141119 0.000893101)
(0.00224405 0.000252391 0.000893101)
(0.00216613 0.000638232 0.000893101)
(0.00202239 0.00100468 0.000893101)
(0.00181721 0.0013406 0.000893101)
(0.00155681 0.00163579 0.000893101)
(0.0012491 0.00188127 0.000893101)
(0.000903447 0.0020696 0.000893101)
(0.00053034 0.00219504 0.000893101)
(0.000141119 0.00225378 0.000893101)
(-0.000252391 0.00224405 0.000893101)
(-0.000638232 0.00216613 0.000893101)
(-0.00100468 0.00202239 0.000893101)
(-0.0013406 0.00181721 0.000893101)
(-0.00163579 0.00155681 0.000893101)
(-0.00188127 0.0012491 0.000893101)
(-0.0020696 0.000903447 0.000893101)
(-0.00219504 0.00053034 0.000893101)
(-0.00225378 0.000141119 0.000893101)
(-0.00224405 -0.000252391 0.000893101)
(-0.00216613 -0.000638232 0.000893101)
(-0.00202239 -0.00100468 0.000893101)
(-0.00181721 -0.0013406 0.000893101)
(-0.00155681 -0.00163579 0.000893101)
(-0.0012491 -0.00188127 0.000893101)
(-0.000903447 -0.0020696 0.000893101)
(-0.00053034 -0.00219504 0.000893101)
(-0.000141119 -0.00225378 0.000893101)
(0.000593277 -0.00258551 0.00101235)
(0.00103323 -0.00244321 0.00101235)
(0.0014418 -0.00222667 0.00101235)
(0.00180655 -0.00194248 0.00101235)
(0.00211641 -0.00159927 0.00101235)
(0.00236197 -0.00120746 0.00101235)
(0.00253576 -0.000778964 0.00101235)
(0.0026325 -0.000326799 0.00101235)
(0.00264926 0.000135294 0.00101235)
(0.00258551 0.000593277 0.00101235)
(0.00244321 0.00103323 0.00101235)
(0.00222667 0.0014418 0.00101235)
(0.00194248 0.00180655 0.00101235)
(0.00159927 0.00211641 0.00101235)
(0.00120746 0.00236197 0.00101235)
(0.000778964 0.00253576 0.00101235)
(0.000326799 0.0026325 0.00101235)
(-0.000135294 0.00264926 0.00101235)
(-0.000593277 0.00258551 0.00101235)
(-0.00103323 0.00244321 0.00101235)
(-0.0014418 0.00222667 0.00101235)
(-0.00180655 0.00194248 0.00101235)
(-0.00211641 0.00159927 0.00101235)
(-0.00236197 0.00120746 0.00101235)
(-0.00253576 0.000778964 0.00101235)
(-0.0026325 0.000326799 0.00101235)
(-0.00264926 -0.000135294 0.00101235)
(-0.00258551 -0.000593277 0.00101235)
(-0.00244321 -0.00103323 0.00101235)
(-0.00222667 -0.0014418 0.00101235)
(-0.00194248 -0.00180655 0.00101235)
(-0.00159927 -0.00211641 0.00101235)
(-0.00120746 -0.00236197 0.00101235)
(-0.000778964 -0.00253576 0.00101235)
(-0.000326799 -0.0026325 0.00101235)
(0.000135294 -0.00264926 0.00101235)
(0.000432398 -0.00266814 0.0011095)
(0.000889147 -0.00255252 0.0011095)
(0.00131888 -0.00235934 0.0011095)
(0.00170854 -0.00209448 0.0011095)
(0.00204628 -0.00176597 0.0011095)
(0.00232185 -0.00138381 0.0011095)
(0.00252688 -0.000959602 0.0011095)
(0.00265512 -0.000506236 0.0011095)
(0.00270269 -3.74888e-05 0.0011095)
(0.00266814 0.000432398 0.0011095)
(0.00255252 0.000889147 0.0011095)
(0.00235934 0.00131888 0.0011095)
(0.00209448 0.00170854 0.0011095)
(0.00176597 0.00204628 0.0011095)
(0.00138381 0.00232185 0.0011095)
(0.000959602 0.00252688 0.0011095)
(0.000506236 0.00265512 0.0011095)
(3.74888e-05 0.00270269 0.0011095)
(-0.000432398 0.00266814 0.0011095)
(-0.000889147 0.00255252 0.0011095)
(-0.00131888 0.00235934 0.0011095)
(-0.00170854 0.00209448 0.0011095)
(-0.00204628 0.00176597 0.0011095)
(-0.00232185 0.00138381 0.0011095)
(-0.00252688 0.000959602 0.0011095)
(-0.00265512 0.000506236 0.0011095)
(-0.00270269 3.74888e-05 0.0011095)
(-0.00266814 -0.000432398 0.0011095)
(-0.00255252 -0.000889147 0.0011095)
(-0.00235934 -0.00131888 0.0011095)
(-0.00209448 -0.00170854 0.0011095)
(-0.00176597 -0.00204628 0.0011095)
(-0.00138381 -0.00232185 0.0011095)
(-0.000959602 -0.00252688 0.0011095)
(-0.000506236 -0.00265512 0.0011095)
(-3.74888e-05 -0.00270269 0.0011095)
(0.000247101 -0.00273963 0.00118902)
(0.000719078 -0.0026551 0.00118902)
(0.00116921 -0.00248989 0.00118902)
(0.00158381 -0.00224904 0.00118902)
(0.00195029 -0.00193984 0.00118902)
(0.00225751 -0.00157171 0.00118902)
(0.00249614 -0.00115582 0.00118902)
(0.00265892 -0.000704809 0.00118902)
(0.00274092 -0.000232385 0.00118902)
(0.00273963 0.000247101 0.00118902)
(0.0026551 0.000719078 0.00118902)
(0.00248989 0.00116921 0.00118902)
(0.00224904 0.00158381 0.00118902)
(0.00193984 0.00195029 0.00118902)
(0.00157171 0.00225751 0.00118902)
(0.00115582 0.00249614 0.00118902)
(0.000704809 0.00265892 0.00118902)
(0.000232385 0.00274092 0.00118902)
(-0.000247101 0.00273963 0.00118902)
(-0.000719078 0.0026551 0.00118902)
(-0.00116921 0.00248989 0.00118902)
(-0.00158381 0.00224904 0.00118902)
(-0.00195029 0.00193984 0.00118902)
(-0.00225751 0.00157171 0.00118902)
(-0.00249614 0.00115582 0.00118902)
(-0.00265892 0.000704809 0.00118902)
(-0.00274092 0.000232385 0.00118902)
(-0.00273963 -0.000247101 0.00118902)
(-0.0026551 -0.000719078 0.00118902)
(-0.00248989 -0.00116921 0.00118902)
(-0.00224904 -0.00158381 0.00118902)
(-0.00193984 -0.00195029 0.00118902)
(-0.00157171 -0.00225751 0.00118902)
(-0.00115582 -0.00249614 0.00118902)
(-0.000704809 -0.00265892 0.00118902)
(-0.000232385 -0.00274092 0.00118902)
(0.000543998 -0.00308805 0.00133053)
(0.00107197 -0.00294667 0.00133053)
(0.00156737 -0.00271576 0.00133053)
(0.00201514 -0.00240233 0.00133053)
(0.00240169 -0.00201591 0.00133053)
(0.00271526 -0.00156823 0.00133053)
(0.00294633 -0.00107291 0.00133053)
(0.00308788 -0.000544985 0.00133053)
(0.0031356 -5.01291e-07 0.00133053)
(0.00308805 0.000543998 0.00133053)
(0.00294667 0.00107197 0.00133053)
(0.00271576 0.00156737 0.00133053)
(0.00240233 0.00201514 0.00133053)
(0.00201591 0.00240169 0.00133053)
(0.00156823 0.00271526 0.00133053)
(0.00107291 0.00294633 0.00133053)
(0.000544985 0.00308788 0.00133053)
(5.01291e-07 0.0031356 0.00133053)
(-0.000543998 0.00308805 0.00133053)
(-0.00107197 0.00294667 0.00133053)
(-0.00156737 0.00271576 0.00133053)
(-0.00201514 0.00240233 0.00133053)
(-0.00240169 0.00201591 0.00133053)
(-0.00271526 0.00156823 0.00133053)
(-0.00294633 0.00107291 0.00133053)
(-0.00308788 0.000544985 0.00133053)
(-0.0031356 5.01291e-07 0.00133053)
(-0.00308805 -0.000543998 0.00133053)
(-0.00294667 -0.00107197 0.00133053)
(-0.00271576 -0.00156737 0.00133053)
(-0.00240233 -0.00201514 0.00133053)
(-0.00201591 -0.00240169 0.00133053)
(-0.00156823 -0.00271526 0.00133053)
(-0.00107291 -0.00294633 0.00133053)
(-0.000544985 -0.00308788 0.00133053)
(-5.01291e-07 -0.0031356 0.00133053)
(0.000380063 -0.00312254 0.0014142)
(0.000916513 -0.00300911 0.0014142)
(0.00142511 -0.00280424 0.0014142)
(0.00189041 -0.00251417 0.0014142)
(0.00229828 -0.00214771 0.0014142)
(0.00263631 -0.00171599 0.0014142)
(0.00289423 -0.00123213 0.0014142)
(0.00306422 -0.000710831 0.0014142)
(0.0031411 -0.000167935 0.0014142)
(0.00312254 0.000380063 0.0014142)
(0.00300911 0.000916513 0.0014142)
(0.00280424 0.00142511 0.0014142)
(0.00251417 0.00189041 0.0014142)
(0.00214771 0.00229828 0.0014142)
(0.00171599 0.00263631 0.0014142)
(0.00123213 0.00289423 0.0014142)
(0.000710831 0.00306422 0.0014142)
(0.000167935 0.0031411 0.0014142)
(-0.000380063 0.00312254 0.0014142)
(-0.000916513 0.00300911 0.0014142)
(-0.00142511 0.00280424 0.0014142)
(-0.00189041 0.00251417 0.0014142)
(-0.00229828 0.00214771 0.0014142)
(-0.00263631 0.00171599 0.0014142)
(-0.00289423 0.00123213 0.0014142)
(-0.00306422 0.000710831 0.0014142)
(-0.0031411 0.000167935 0.0014142)
(-0.00312254 -0.000380063 0.0014142)
(-0.00300911 -0.000916513 0.0014142)
(-0.00280424 -0.00142511 0.0014142)
(-0.00251417 -0.00189041 0.0014142)
(-0.00214771 -0.00229828 0.0014142)
(-0.00171599 -0.00263631 0.0014142)
(-0.00123213 -0.00289423 0.0014142)
(-0.000710831 -0.00306422 0.0014142)
(-0.000167935 -0.0031411 0.0014142)
(0.000197229 -0.00314821 0.00148015)
(0.000740914 -0.00306613 0.00148015)
(0.00126209 -0.00289089 0.00148015)
(0.00174491 -0.00262782 0.00148015)
(0.00217472 -0.00228489 0.00148015)
(0.00253845 -0.00187254 0.00148015)
(0.00282504 -0.0014033 0.00148015)
(0.00302581 -0.000891417 0.00148015)
(0.00313463 -0.000352448 0.00148015)
(0.00314821 0.000197229 0.00148015)
(0.00306613 0.000740914 0.00148015)
(0.00289089 0.00126209 0.00148015)
(0.00262782 0.00174491 0.00148015)
(0.00228489 0.00217472 0.00148015)
(0.00187254 0.00253845 0.00148015)
(0.0014033 0.00282504 0.00148015)
(0.000891417 0.00302581 0.00148015)
(0.000352448 0.00313463 0.00148015)
(-0.000197229 0.00314821 0.00148015)
(-0.000740914 0.00306613 0.00148015)
(-0.00126209 0.00289089 0.00148015)
(-0.00174491 0.00262782 0.00148015)
(-0.00217472 0.00228489 0.00148015)
(-0.00253845 0.00187254 0.00148015)
(-0.00282504 0.0014033 0.00148015)
(-0.00302581 0.000891417 0.00148015)
(-0.00313463 0.000352448 0.00148015)
(-0.00314821 -0.000197229 0.00148015)
(-0.00306613 -0.000740914 0.00148015)
(-0.00289089 -0.00126209 0.00148015)
(-0.00262782 -0.00174491 0.00148015)
(-0.00228489 -0.00217472 0.00148015)
(-0.00187254 -0.00253845 0.00148015)
(-0.0014033 -0.00282504 0.00148015)
(-0.000891417 -0.00302581 0.00148015)
(-0.000352448 -0.00313463 0.00148015)
(0.000458321 -0.00350469 0.00166225)
(0.00105994 -0.00337186 0.00166225)
(0.00162936 -0.00313657 0.00166225)
(0.00214926 -0.00280599 0.00166225)
(0.00260386 -0.00239014 0.00166225)
(0.00297935 -0.00190168 0.00166225)
(0.00326431 -0.00135543 0.00166225)
(0.00345009 -0.000767992 0.00166225)
(0.00353103 -0.000157223 0.00166225)
(0.00350469 0.000458321 0.00166225)
(0.00337186 0.00105994 0.00166225)
(0.00313657 0.00162936 0.00166225)
(0.00280599 0.00214926 0.00166225)
(0.00239014 0.00260386 0.00166225)
(0.00190168 0.00297935 0.00166225)
(0.00135543 0.00326431 0.00166225)
(0.000767992 0.00345009 0.00166225)
(0.000157223 0.00353103 0.00166225)
(-0.000458321 0.00350469 0.00166225)
(-0.00105994 0.00337186 0.00166225)
(-0.00162936 0.00313657 0.00166225)
(-0.00214926 0.00280599 0.00166225)
(-0.00260386 0.00239014 0.00166225)
(-0.00297935 0.00190168 0.00166225)
(-0.00326431 0.00135543 0.00166225)
(-0.00345009 0.000767992 0.00166225)
(-0.00353103 0.000157223 0.00166225)
(-0.00350469 -0.000458321 0.00166225)
(-0.00337186 -0.00105994 0.00166225)
(-0.00313657 -0.00162936 0.00166225)
(-0.00280599 -0.00214926 0.00166225)
(-0.00239014 -0.00260386 0.00166225)
(-0.00190168 -0.00297935 0.00166225)
(-0.00135543 -0.00326431 0.00166225)
(-0.000767992 -0.00345009 0.00166225)
(-0.000157223 -0.00353103 0.00166225)
(0.000291826 -0.00348217 0.00172518)
(0.000892067 -0.0033786 0.00172518)
(0.0014652 -0.00317236 0.00172518)
(0.00199382 -0.00286974 0.00172518)
(0.00246185 -0.00247992 0.00172518)
(0.00285508 -0.00201475 0.00172518)
(0.00316157 -0.00148836 0.00172518)
(0.00337198 -0.000916747 0.00172518)
(0.00347995 -0.00031728 0.00172518)
(0.00348217 0.000291826 0.00172518)
(0.0033786 0.000892067 0.00172518)
(0.00317236 0.0014652 0.00172518)
(0.00286974 0.00199382 0.00172518)
(0.00247992 0.00246185 0.00172518)
(0.00201475 0.00285508 0.00172518)
(0.00148836 0.00316157 0.00172518)
(0.000916747 0.00337198 0.00172518)
(0.00031728 0.00347995 0.00172518)
(-0.000291826 0.00348217 0.00172518)
(-0.000892067 0.0033786 0.00172518)
(-0.0014652 0.00317236 0.00172518)
(-0.00199382 0.00286974 0.00172518)
(-0.00246185 0.00247992 0.00172518)
(-0.00285508 0.00201475 0.00172518)
(-0.00316157 0.00148836 0.00172518)
(-0.00337198 0.000916747 0.00172518)
(-0.00347995 0.00031728 0.00172518)
(-0.00348217 -0.000291826 0.00172518)
(-0.0033786 -0.000892067 0.00172518)
(-0.00317236 -0.0014652 0.00172518)
(-0.00286974 -0.00199382 0.00172518)
(-0.00247992 -0.00246185 0.00172518)
(-0.00201475 -0.00285508 0.00172518)
(-0.00148836 -0.00316157 0.00172518)
(-0.000916747 -0.00337198 0.00172518)
(-0.00031728 -0.00347995 0.00172518)
(0.000112924 -0.00345489 0.00176982)
(0.000711144 -0.0033828 0.00176982)
(0.00128776 -0.00320792 0.00176982)
(0.00182524 -0.00293556 0.00176982)
(0.00230727 -0.00257402 0.00176982)
(0.00271919 -0.00213426 0.00176982)
(0.00304849 -0.00162965 0.00176982)
(0.00328516 -0.00107553 0.00176982)
(0.00342201 -0.000488729 0.00176982)
(0.00345489 0.000112924 0.00176982)
(0.0033828 0.000711144 0.00176982)
(0.00320792 0.00128776 0.00176982)
(0.00293556 0.00182524 0.00176982)
(0.00257402 0.00230727 0.00176982)
(0.00213426 0.00271919 0.00176982)
(0.00162965 0.00304849 0.00176982)
(0.00107553 0.00328516 0.00176982)
(0.000488729 0.00342201 0.00176982)
(-0.000112924 0.00345489 0.00176982)
(-0.000711144 0.0033828 0.00176982)
(-0.00128776 0.00320792 0.00176982)
(-0.00182524 0.00293556 0.00176982)
(-0.00230727 0.00257402 0.00176982)
(-0.00271919 0.00213426 0.00176982)
(-0.00304849 0.00162965 0.00176982)
(-0.00328516 0.00107553 0.00176982)
(-0.00342201 0.000488729 0.00176982)
(-0.00345489 -0.000112924 0.00176982)
(-0.0033828 -0.000711144 0.00176982)
(-0.00320792 -0.00128776 0.00176982)
(-0.00293556 -0.00182524 0.00176982)
(-0.00257402 -0.00230727 0.00176982)
(-0.00213426 -0.00271919 0.00176982)
(-0.00162965 -0.00304849 0.00176982)
(-0.00107553 -0.00328516 0.00176982)
(-0.000488729 -0.00342201 0.00176982)
(0.000359281 -0.00381123 0.00201663)
(0.00101564 -0.00369094 0.00201663)
(0.00164113 -0.0034585 0.00201663)
(0.00221676 -0.00312098 0.00201663)
(0.00272504 -0.00268863 0.00201663)
(0.00315051 -0.00217459 0.00201663)
(0.00348026 -0.00159447 0.00201663)
(0.00370427 -0.000965902 0.00201663)
(0.00381572 -0.000307988 0.00201663)
(0.00381123 0.000359281 0.00201663)
(0.00369094 0.00101564 0.00201663)
(0.0034585 0.00164113 0.00201663)
(0.00312098 0.00221676 0.00201663)
(0.00268863 0.00272504 0.00201663)
(0.00217459 0.00315051 0.00201663)
(0.00159447 0.00348026 0.00201663)
(0.000965902 0.00370427 0.00201663)
(0.000307988 0.00381572 0.00201663)
(-0.000359281 0.00381123 0.00201663)
(-0.00101564 0.00369094 0.00201663)
(-0.00164113 0.0034585 0.00201663)
(-0.00221676 0.00312098 0.00201663)
(-0.00272504 0.00268863 0.00201663)
(-0.00315051 0.00217459 0.00201663)
(-0.00348026 0.00159447 0.00201663)
(-0.00370427 0.000965902 0.00201663)
(-0.00381572 0.000307988 0.00201663)