/*--------------------------------*- C++ -*----------------------------------*\
| =========                 |                                                 |
| \\      /  F ield         | OpenFOAM: The Open Source CFD Toolbox           |
|  \\    /   O peration     | Version:  2312                                  |
|   \\  /    A nd           | Website:  www.openfoam.com                      |
|    \\/     M anipulation  |                                                 |
\*---------------------------------------------------------------------------*/
FoamFile
{
    version     2.0;
    format      ascii;
    arch        "LSB;label=32;scalar=64";
    class       volSymmTensorField;
    location    "0.7";
    object      sigma;
}
// * * * * * * * * * * * * * * * * * * * * * * * * * * * * * * * * * * * * * //

dimensions      [1 -1 -2 0 0 0 0];

internalField   nonuniform List<symmTensor> 
1620
(
(-6153.47 1022.52 -2201.47 2946.57 -16149.2 24598.3)
(-6228.82 -595.342 636.258 3021.86 -16286.1 24598.2)
(-5746.25 -2141.41 3454.67 2539.31 -15928.2 24598.2)
(-4764.01 -3429.11 6168 1557.01 -15086.3 24598.4)
(-3400.66 -4303.25 8693.98 193.507 -13786 24598.4)
(-1820.47 -4658.39 10955.8 -1386.67 -12066.9 24598.3)
(-213.863 -4451.7 12884.9 -2992.84 -9981.12 24598.3)
(1224.88 -3707.99 14422.3 -4431.6 -7592.06 24598.4)
(2322.48 -2517.06 15521.6 -5529.31 -4972.3 24598.3)
(2946.57 -1022.52 16149.2 -6153.47 -2201.47 24598.3)
(3021.86 595.342 16286.1 -6228.82 636.258 24598.2)
(2539.31 2141.41 15928.2 -5746.25 3454.67 24598.2)
(1557.01 3429.11 15086.3 -4764.01 6168 24598.4)
(193.507 4303.25 13786 -3400.66 8693.98 24598.4)
(-1386.67 4658.39 12066.9 -1820.47 10955.8 24598.3)
(-2992.84 4451.7 9981.12 -213.863 12884.9 24598.3)
(-4431.6 3707.99 7592.06 1224.88 14422.3 24598.4)
(-5529.31 2517.06 4972.3 2322.48 15521.6 24598.3)
(-6153.47 1022.52 2201.47 2946.57 16149.2 24598.3)
(-6228.82 -595.342 -636.258 3021.86 16286.1 24598.2)
(-5746.25 -2141.41 -3454.67 2539.31 15928.2 24598.2)
(-4764.01 -3429.11 -6168 1557.01 15086.3 24598.4)
(-3400.66 -4303.25 -8693.98 193.507 13786 24598.4)
(-1820.47 -4658.39 -10955.8 -1386.67 12066.9 24598.3)
(-213.863 -4451.7 -12884.9 -2992.84 9981.12 24598.3)
(1224.88 -3707.99 -14422.3 -4431.6 7592.06 24598.4)
(2322.48 -2517.06 -15521.6 -5529.31 4972.3 24598.3)
(2946.57 -1022.52 -16149.2 -6153.47 2201.47 24598.3)
(3021.86 595.342 -16286.1 -6228.82 -636.258 24598.2)
(2539.31 2141.41 -15928.2 -5746.25 -3454.67 24598.2)
(1557.01 3429.11 -15086.3 -4764.01 -6168 24598.4)
(193.507 4303.25 -13786 -3400.66 -8693.98 24598.4)
(-1386.67 4658.39 -12066.9 -1820.47 -10955.8 24598.3)
(-2992.84 4451.7 -9981.12 -213.863 -12884.9 24598.3)
(-4431.6 3707.99 -7592.06 1224.88 -14422.3 24598.4)
(-5529.31 2517.06 -4972.3 2322.48 -15521.6 24598.3)
(-23684.6 -2706.1 206.387 17552.3 -4284.02 -23930.9)
(-21515.5 -9594.85 947.168 15383.4 -4183.1 -23930.8)
(-17121.2 -15326.3 1659.15 10989.2 -3955.04 -23930.8)
(-11031.8 -19209.1 2320.81 4899.51 -3606.98 -23930.9)
(-3981.55 -20775.1 2911.99 -2150.78 -3149.27 -23930.8)
(3179.29 -19835.3 3414.51 -9311.41 -2595.68 -23930.7)
(9586.78 -16503.1 3813.23 -15718.8 -1963.26 -23930.7)
(14468.1 -11180.3 4096.25 -20600.1 -1271.28 -23930.8)
(17234.4 -4508.99 4254.78 -23366.7 -540.658 -23930.8)
(17552.3 2706.1 4284.02 -23684.6 206.387 -23930.9)
(15383.4 9594.85 4183.1 -21515.5 947.168 -23930.8)
(10989.2 15326.3 3955.04 -17121.2 1659.15 -23930.8)
(4899.51 19209.1 3606.98 -11031.8 2320.81 -23930.9)
(-2150.78 20775.1 3149.27 -3981.55 2911.99 -23930.8)
(-9311.41 19835.3 2595.68 3179.29 3414.51 -23930.7)
(-15718.8 16503.1 1963.26 9586.78 3813.23 -23930.7)
(-20600.1 11180.3 1271.28 14468.1 4096.25 -23930.8)
(-23366.7 4508.99 540.658 17234.4 4254.78 -23930.8)
(-23684.6 -2706.1 -206.387 17552.3 4284.02 -23930.9)
(-21515.5 -9594.85 -947.168 15383.4 4183.1 -23930.8)
(-17121.2 -15326.3 -1659.15 10989.2 3955.04 -23930.8)
(-11031.8 -19209.1 -2320.81 4899.51 3606.98 -23930.9)
(-3981.55 -20775.1 -2911.99 -2150.78 3149.27 -23930.8)
(3179.29 -19835.3 -3414.51 -9311.41 2595.68 -23930.7)
(9586.78 -16503.1 -3813.23 -15718.8 1963.26 -23930.7)
(14468.1 -11180.3 -4096.25 -20600.1 1271.28 -23930.8)
(17234.4 -4508.99 -4254.78 -23366.7 540.658 -23930.8)
(17552.3 2706.1 -4284.02 -23684.6 -206.387 -23930.9)
(15383.4 9594.85 -4183.1 -21515.5 -947.168 -23930.8)
(10989.2 15326.3 -3955.04 -17121.2 -1659.15 -23930.8)
(4899.51 19209.1 -3606.98 -11031.8 -2320.81 -23930.9)
(-2150.78 20775.1 -3149.27 -3981.55 -2911.99 -23930.8)
(-9311.41 19835.3 -2595.68 3179.29 -3414.51 -23930.7)
(-15718.8 16503.1 -1963.26 9586.78 -3813.23 -23930.7)
(-20600.1 11180.3 -1271.28 14468.1 -4096.25 -23930.8)
(-23366.7 4508.99 -540.658 17234.4 -4254.78 -23930.8)
(-44899.9 -3264.11 -4682.94 -29266.6 21671 -18667)
(-43312.1 -5740.73 -8374.93 -30854.4 20528.5 -18667)
(-40972.9 -7524.9 -11812.4 -33193.4 18762.4 -18666.9)
(-38164.7 -8401.49 -14891 -36001.6 16426.1 -18666.9)
(-35226.1 -8264.79 -17517.2 -38940.4 13590.8 -18667.2)
(-32511.4 -7131.09 -19611.1 -41655.1 10342.5 -18667)
(-30348.2 -5137.35 -21109.1 -43818.5 6779.92 -18667)
(-28997.1 -2523.99 -21965.7 -45169.2 3011.36 -18666.9)
(-28621.5 393.818 -22154.9 -45544.8 -848.689 -18666.9)
(-29266.6 3264.11 -21671 -44899.9 -4682.94 -18667)
(-30854.4 5740.73 -20528.5 -43312.1 -8374.93 -18667)
(-33193.4 7524.9 -18762.4 -40972.9 -11812.4 -18666.9)
(-36001.6 8401.49 -16426.1 -38164.7 -14891 -18666.9)
(-38940.4 8264.79 -13590.8 -35226.1 -17517.2 -18667.2)
(-41655.1 7131.09 -10342.5 -32511.4 -19611.1 -18667)
(-43818.5 5137.35 -6779.92 -30348.2 -21109.1 -18667)
(-45169.2 2523.99 -3011.36 -28997.1 -21965.7 -18666.9)
(-45544.8 -393.818 848.689 -28621.5 -22154.9 -18666.9)
(-44899.9 -3264.11 4682.94 -29266.6 -21671 -18667)
(-43312.1 -5740.73 8374.93 -30854.4 -20528.5 -18667)
(-40972.9 -7524.9 11812.4 -33193.4 -18762.4 -18666.9)
(-38164.7 -8401.49 14891 -36001.6 -16426.1 -18666.9)
(-35226.1 -8264.79 17517.2 -38940.4 -13590.8 -18667.2)
(-32511.4 -7131.09 19611.1 -41655.1 -10342.5 -18667)
(-30348.2 -5137.35 21109.1 -43818.5 -6779.92 -18667)
(-28997.1 -2523.99 21965.7 -45169.2 -3011.36 -18666.9)
(-28621.5 393.818 22154.9 -45544.8 848.689 -18666.9)
(-29266.6 3264.11 21671 -44899.9 4682.94 -18667)
(-30854.4 5740.73 20528.5 -43312.1 8374.93 -18667)
(-33193.4 7524.9 18762.4 -40972.9 11812.4 -18666.9)
(-36001.6 8401.49 16426.1 -38164.7 14891 -18666.9)
(-38940.4 8264.79 13590.8 -35226.1 17517.2 -18667.2)
(-41655.1 7131.09 10342.5 -32511.4 19611.1 -18667)
(-43818.5 5137.35 6779.92 -30348.2 21109.1 -18667)
(-45169.2 2523.99 3011.36 -28997.1 21965.7 -18666.9)
(-45544.8 -393.818 -848.689 -28621.5 22154.9 -18666.9)
(8154.56 830.796 -1123.79 14602.3 -14051.4 41023.9)
(8064.78 -321.918 1333.25 14691.9 -14033 41024)
(8374.61 -1435.84 3749.85 14381.9 -13588.3 41023.8)
(9047.01 -2376.47 6052.35 13709.8 -12730.6 41024.2)
(10000.4 -3030.54 8171.05 12756.4 -11486.2 41024.2)
(11120 -3319.07 10041.5 11636.7 -9892.85 41024.2)
(12270.9 -3207.35 11607 10486 -7998.93 41024)
(13313.9 -2708.66 12819.5 9442.7 -5861.85 41023.9)
(14123.7 -1883.33 13642.8 8633.09 -3546.72 41023.9)
(14602.3 -830.796 14051.4 8154.56 -1123.79 41023.9)
(14691.9 321.918 14033 8064.78 1333.25 41024)
(14381.9 1435.84 13588.3 8374.61 3749.85 41023.8)
(13709.8 2376.47 12730.6 9047.01 6052.35 41024.2)
(12756.4 3030.54 11486.2 10000.4 8171.05 41024.2)
(11636.7 3319.07 9892.85 11120 10041.5 41024.2)
(10486 3207.35 7998.93 12270.9 11607 41024)
(9442.7 2708.66 5861.85 13313.9 12819.5 41023.9)
(8633.09 1883.33 3546.72 14123.7 13642.8 41023.9)
(8154.56 830.796 1123.79 14602.3 14051.4 41023.9)
(8064.78 -321.918 -1333.25 14691.9 14033 41024)
(8374.61 -1435.84 -3749.85 14381.9 13588.3 41023.8)
(9047.01 -2376.47 -6052.35 13709.8 12730.6 41024.2)
(10000.4 -3030.54 -8171.05 12756.4 11486.2 41024.2)
(11120 -3319.07 -10041.5 11636.7 9892.85 41024.2)
(12270.9 -3207.35 -11607 10486 7998.93 41024)
(13313.9 -2708.66 -12819.5 9442.7 5861.85 41023.9)
(14123.7 -1883.33 -13642.8 8633.09 3546.72 41023.9)
(14602.3 -830.796 -14051.4 8154.56 1123.79 41023.9)
(14691.9 321.918 -14033 8064.78 -1333.25 41024)
(14381.9 1435.84 -13588.3 8374.61 -3749.85 41023.8)
(13709.8 2376.47 -12730.6 9047.01 -6052.35 41024.2)
(12756.4 3030.54 -11486.2 10000.4 -8171.05 41024.2)
(11636.7 3319.07 -9892.85 11120 -10041.5 41024.2)
(10486 3207.35 -7998.93 12270.9 -11607 41024)
(9442.7 2708.66 -5861.85 13313.9 -12819.5 41023.9)
(8633.09 1883.33 -3546.72 14123.7 -13642.8 41023.9)
(-5556.3 -1695.16 297.126 35222.2 -5935.99 -6062.94)
(-3746.89 -8566.42 1323.42 33412.8 -5794.37 -6062.86)
(303.536 -14404.5 2309.47 29362.4 -5476.46 -6062.88)
(6106.08 -18505.1 3225.42 23559.2 -4992.32 -6063.11)
(12961.7 -20373.8 4043.3 16704 -4356.36 -6062.96)
(20042.8 -19785.1 4738.38 9622.92 -3588.09 -6062.92)
(26495.5 -16810 5289.36 3170.2 -2710.72 -6062.97)
(31541.6 -11807.4 5679.78 -1875.7 -1751.07 -6062.83)
(34572.3 -5380.6 5897.41 -4906.47 -738.164 -6062.96)
(35222.2 1695.16 5935.99 -5556.3 297.126 -6062.94)
(33412.8 8566.42 5794.37 -3746.89 1323.42 -6062.86)
(29362.4 14404.5 5476.46 303.536 2309.47 -6062.88)
(23559.2 18505.1 4992.32 6106.08 3225.42 -6063.11)
(16704 20373.8 4356.36 12961.7 4043.3 -6062.96)
(9622.92 19785.1 3588.09 20042.8 4738.38 -6062.92)
(3170.2 16810 2710.72 26495.5 5289.36 -6062.97)
(-1875.7 11807.4 1751.07 31541.6 5679.78 -6062.83)
(-4906.47 5380.6 738.164 34572.3 5897.41 -6062.96)
(-5556.3 -1695.16 -297.126 35222.2 5935.99 -6062.94)
(-3746.89 -8566.42 -1323.42 33412.8 5794.37 -6062.86)
(303.536 -14404.5 -2309.47 29362.4 5476.46 -6062.88)
(6106.08 -18505.1 -3225.42 23559.2 4992.32 -6063.11)
(12961.7 -20373.8 -4043.3 16704 4356.36 -6062.96)
(20042.8 -19785.1 -4738.38 9622.92 3588.09 -6062.92)
(26495.5 -16810 -5289.36 3170.2 2710.72 -6062.97)
(31541.6 -11807.4 -5679.78 -1875.7 1751.07 -6062.83)
(34572.3 -5380.6 -5897.41 -4906.47 738.164 -6062.96)
(35222.2 1695.16 -5935.99 -5556.3 -297.126 -6062.94)
(33412.8 8566.42 -5794.37 -3746.89 -1323.42 -6062.86)
(29362.4 14404.5 -5476.46 303.536 -2309.47 -6062.88)
(23559.2 18505.1 -4992.32 6106.08 -3225.42 -6063.11)
(16704 20373.8 -4356.36 12961.7 -4043.3 -6062.96)
(9622.92 19785.1 -3588.09 20042.8 -4738.38 -6062.92)
(3170.2 16810 -2710.72 26495.5 -5289.36 -6062.97)
(-1875.7 11807.4 -1751.07 31541.6 -5679.78 -6062.83)
(-4906.47 5380.6 -738.164 34572.3 -5897.41 -6062.96)
(-26128.4 -1168.69 -3010.03 -9215.42 22098.1 -710.929)
(-25218.7 -3990.51 -6801.59 -10125.1 21239.7 -710.919)
(-23398.7 -6330.99 -10386.5 -11945 19735.9 -710.882)
(-20887.8 -7907.85 -13655.8 -14455.6 17632.4 -710.61)
(-17989.4 -8530.98 -16510.2 -17354.3 14993.3 -710.913)
(-15052.6 -8125.05 -18862.9 -20291.3 11898.5 -710.899)
(-12431.6 -6739.19 -20642.5 -22912.3 8442.28 -710.98)
(-10442.7 -4540.47 -21794.9 -24901.2 4729.49 -710.978)
(-9325.74 -1794.08 -22285 -26018.2 872.99 -710.928)
(-9215.42 1168.69 -22098.1 -26128.4 -3010.03 -710.929)
(-10125.1 3990.51 -21239.7 -25218.7 -6801.59 -710.919)
(-11945 6330.99 -19735.9 -23398.7 -10386.5 -710.882)
(-14455.6 7907.85 -17632.4 -20887.8 -13655.8 -710.61)
(-17354.3 8530.98 -14993.3 -17989.4 -16510.2 -710.913)
(-20291.3 8125.05 -11898.5 -15052.6 -18862.9 -710.899)
(-22912.3 6739.19 -8442.28 -12431.6 -20642.5 -710.98)
(-24901.2 4540.47 -4729.49 -10442.7 -21794.9 -710.978)
(-26018.2 1794.08 -872.99 -9325.74 -22285 -710.928)
(-26128.4 -1168.69 3010.03 -9215.42 -22098.1 -710.929)
(-25218.7 -3990.51 6801.59 -10125.1 -21239.7 -710.919)
(-23398.7 -6330.99 10386.5 -11945 -19735.9 -710.882)
(-20887.8 -7907.85 13655.8 -14455.6 -17632.4 -710.61)
(-17989.4 -8530.98 16510.2 -17354.3 -14993.3 -710.913)
(-15052.6 -8125.05 18862.9 -20291.3 -11898.5 -710.899)
(-12431.6 -6739.19 20642.5 -22912.3 -8442.28 -710.98)
(-10442.7 -4540.47 21794.9 -24901.2 -4729.49 -710.978)
(-9325.74 -1794.08 22285 -26018.2 -872.99 -710.928)
(-9215.42 1168.69 22098.1 -26128.4 3010.03 -710.929)
(-10125.1 3990.51 21239.7 -25218.7 6801.59 -710.919)
(-11945 6330.99 19735.9 -23398.7 10386.5 -710.882)
(-14455.6 7907.85 17632.4 -20887.8 13655.8 -710.61)
(-17354.3 8530.98 14993.3 -17989.4 16510.2 -710.913)
(-20291.3 8125.05 11898.5 -15052.6 18862.9 -710.899)
(-22912.3 6739.19 8442.28 -12431.6 20642.5 -710.98)
(-24901.2 4540.47 4729.49 -10442.7 21794.9 -710.978)
(-26018.2 1794.08 872.99 -9325.74 22285 -710.928)
(5441.7 908.38 486.19 11575.2 -13943 37047.7)
(5316.09 -195.289 2899.97 11701.1 -13646.7 37047.8)
(5575.3 -1275.41 5225.64 11441.6 -12935.8 37047.7)
(6188.55 -2201.65 7392.49 10828.6 -11831.8 37048)
(7081.57 -2862.46 9334.87 9935.8 -10368.5 37047.8)
(8146.41 -3177.84 10993.3 8870.53 -8589.86 37047.9)
(9255.27 -3110.08 12318.1 7761.89 -6550.45 37047.8)
(10273.8 -2667.13 13268.4 6743.11 -4311.93 37047.7)
(11079.7 -1902.49 13815.6 5937.47 -1942.37 37047.8)
(11575.2 -908.38 13943 5441.7 486.19 37047.7)
(11701.1 195.289 13646.7 5316.09 2899.97 37047.8)
(11441.6 1275.41 12935.8 5575.3 5225.64 37047.7)
(10828.6 2201.65 11831.8 6188.55 7392.49 37048)
(9935.8 2862.46 10368.5 7081.57 9334.87 37047.8)
(8870.53 3177.84 8589.86 8146.41 10993.3 37047.9)
(7761.89 3110.08 6550.45 9255.27 12318.1 37047.8)
(6743.11 2667.13 4311.93 10273.8 13268.4 37047.7)
(5937.47 1902.49 1942.37 11079.7 13815.6 37047.8)
(5441.7 908.38 -486.19 11575.2 13943 37047.7)
(5316.09 -195.289 -2899.97 11701.1 13646.7 37047.8)
(5575.3 -1275.41 -5225.64 11441.6 12935.8 37047.7)
(6188.55 -2201.65 -7392.49 10828.6 11831.8 37048)
(7081.57 -2862.46 -9334.87 9935.8 10368.5 37047.8)
(8146.41 -3177.84 -10993.3 8870.53 8589.86 37047.9)
(9255.27 -3110.08 -12318.1 7761.89 6550.45 37047.8)
(10273.8 -2667.13 -13268.4 6743.11 4311.93 37047.7)
(11079.7 -1902.49 -13815.6 5937.47 1942.37 37047.8)
(11575.2 -908.38 -13943 5441.7 -486.19 37047.7)
(11701.1 195.289 -13646.7 5316.09 -2899.97 37047.8)
(11441.6 1275.41 -12935.8 5575.3 -5225.64 37047.7)
(10828.6 2201.65 -11831.8 6188.55 -7392.49 37048)
(9935.8 2862.46 -10368.5 7081.57 -9334.87 37047.8)
(8870.53 3177.84 -8589.86 8146.41 -10993.3 37047.9)
(7761.89 3110.08 -6550.45 9255.27 -12318.1 37047.8)
(6743.11 2667.13 -4311.93 10273.8 -13268.4 37047.7)
(5937.47 1902.49 -1942.37 11079.7 -13815.6 37047.8)
(-5887.89 -453.134 322.328 34680.5 -6352.7 -7580.58)
(-4509.81 -7363.4 1420.59 33302 -6200.28 -7580.74)
(-851.018 -13385.5 2475.69 29643.6 -5859.45 -7580.51)
(4646.49 -17793.1 3455.56 24145.8 -5340.53 -7580.64)
(11320.3 -20054.7 4330.33 17472.4 -4659.23 -7580.52)
(18364.9 -19897.3 5073.73 10427.8 -3836.59 -7580.45)
(24930.7 -17340 5662.86 3861.68 -2897.26 -7580.61)
(30226.1 -12691.3 6079.9 -1433.59 -1869.89 -7580.57)
(33612.1 -6511.79 6312.16 -4819.65 -785.706 -7580.64)
(34680.5 453.134 6352.7 -5887.89 322.328 -7580.58)
(33302 7363.4 6200.28 -4509.81 1420.59 -7580.74)
(29643.6 13385.5 5859.45 -851.018 2475.69 -7580.51)
(24145.8 17793.1 5340.53 4646.49 3455.56 -7580.64)
(17472.4 20054.7 4659.23 11320.3 4330.33 -7580.52)
(10427.8 19897.3 3836.59 18364.9 5073.73 -7580.45)
(3861.68 17340 2897.26 24930.7 5662.86 -7580.61)
(-1433.59 12691.3 1869.89 30226.1 6079.9 -7580.57)
(-4819.65 6511.79 785.706 33612.1 6312.16 -7580.64)
(-5887.89 -453.134 -322.328 34680.5 6352.7 -7580.58)
(-4509.81 -7363.4 -1420.59 33302 6200.28 -7580.74)
(-851.018 -13385.5 -2475.69 29643.6 5859.45 -7580.51)
(4646.49 -17793.1 -3455.56 24145.8 5340.53 -7580.64)
(11320.3 -20054.7 -4330.33 17472.4 4659.23 -7580.52)
(18364.9 -19897.3 -5073.73 10427.8 3836.59 -7580.45)
(24930.7 -17340 -5662.86 3861.68 2897.26 -7580.61)
(30226.1 -12691.3 -6079.9 -1433.59 1869.89 -7580.57)
(33612.1 -6511.79 -6312.16 -4819.65 785.706 -7580.64)
(34680.5 453.134 -6352.7 -5887.89 -322.328 -7580.58)
(33302 7363.4 -6200.28 -4509.81 -1420.59 -7580.74)
(29643.6 13385.5 -5859.45 -851.018 -2475.69 -7580.51)
(24145.8 17793.1 -5340.53 4646.49 -3455.56 -7580.64)
(17472.4 20054.7 -4659.23 11320.3 -4330.33 -7580.52)
(10427.8 19897.3 -3836.59 18364.9 -5073.73 -7580.45)
(3861.68 17340 -2897.26 24930.7 -5662.86 -7580.61)
(-1433.59 12691.3 -1869.89 30226.1 -6079.9 -7580.57)
(-4819.65 6511.79 -785.706 33612.1 -6312.16 -7580.64)
(-26001.2 1244.24 -1412.21 -8753.94 22166.7 -2002)
(-25906.7 -1780.25 -5239.96 -8848.4 21584.7 -2001.98)
(-24783.6 -4590.01 -8908.47 -9971.83 20346.9 -2002.19)
(-22767.1 -6846.16 -12306.4 -11988.3 18490.8 -2002.12)
(-20100.5 -8276.58 -15330.3 -14654.8 16072.9 -2002.17)
(-17105.5 -8708.67 -17888.4 -17649.8 13166.6 -2002.03)
(-14143.2 -8090.4 -19903 -20611.8 9860.32 -2001.97)
(-11571.3 -6496.31 -21312.9 -23183.9 6254.41 -2002.1)
(-9699.61 -4118.66 -22075.1 -25055.6 2458.45 -2002.05)
(-8753.94 -1244.24 -22166.7 -26001.2 -1412.21 -2002)
(-8848.4 1780.25 -21584.7 -25906.7 -5239.96 -2001.98)
(-9971.83 4590.01 -20346.9 -24783.6 -8908.47 -2002.19)
(-11988.3 6846.16 -18490.8 -22767.1 -12306.4 -2002.12)
(-14654.8 8276.58 -16072.9 -20100.5 -15330.3 -2002.17)
(-17649.8 8708.67 -13166.6 -17105.5 -17888.4 -2002.03)
(-20611.8 8090.4 -9860.32 -14143.2 -19903 -2001.97)
(-23183.9 6496.31 -6254.41 -11571.3 -21312.9 -2002.1)
(-25055.6 4118.66 -2458.45 -9699.61 -22075.1 -2002.05)
(-26001.2 1244.24 1412.21 -8753.94 -22166.7 -2002)
(-25906.7 -1780.25 5239.96 -8848.4 -21584.7 -2001.98)
(-24783.6 -4590.01 8908.47 -9971.83 -20346.9 -2002.19)
(-22767.1 -6846.16 12306.4 -11988.3 -18490.8 -2002.12)
(-20100.5 -8276.58 15330.3 -14654.8 -16072.9 -2002.17)
(-17105.5 -8708.67 17888.4 -17649.8 -13166.6 -2002.03)
(-14143.2 -8090.4 19903 -20611.8 -9860.32 -2001.97)
(-11571.3 -6496.31 21312.9 -23183.9 -6254.41 -2002.1)
(-9699.61 -4118.66 22075.1 -25055.6 -2458.45 -2002.05)
(-8753.94 -1244.24 22166.7 -26001.2 1412.21 -2002)
(-8848.4 1780.25 21584.7 -25906.7 5239.96 -2001.98)
(-9971.83 4590.01 20346.9 -24783.6 8908.47 -2002.19)
(-11988.3 6846.16 18490.8 -22767.1 12306.4 -2002.12)
(-14654.8 8276.58 16072.9 -20100.5 15330.3 -2002.17)
(-17649.8 8708.67 13166.6 -17105.5 17888.4 -2002.03)
(-20611.8 8090.4 9860.32 -14143.2 19903 -2001.97)
(-23183.9 6496.31 6254.41 -11571.3 21312.9 -2002.1)
(-25055.6 4118.66 2458.45 -9699.61 22075.1 -2002.05)
(5182.79 941.883 2143.12 10942.2 -13956.5 35249.7)
(5034.23 -99.8644 4534.11 11090.7 -13372.4 35249.6)
(5251.2 -1129.57 6787.34 10874.1 -12381.9 35249.7)
(5806.98 -2022.98 8834.28 10318.1 -11015.2 35249.7)
(6634.94 -2672.42 10612.8 9490.2 -9313.78 35249.8)
(7635 -2999.53 12068.9 8490.02 -7329.37 35249.7)
(8686.63 -2964.88 13158.4 7438.24 -5122.33 35249.5)
(9663.09 -2572.58 13847.9 6461.9 -2759.57 35249.6)
(10446.3 -1869.99 14116.6 5678.55 -312.963 35249.7)
(10942.2 -941.883 13956.5 5182.79 2143.12 35249.7)
(11090.7 99.8644 13372.4 5034.23 4534.11 35249.6)
(10874.1 1129.57 12381.9 5251.2 6787.34 35249.7)
(10318.1 2022.98 11015.2 5806.98 8834.28 35249.7)
(9490.2 2672.42 9313.78 6634.94 10612.8 35249.8)
(8490.02 2999.53 7329.37 7635 12068.9 35249.7)
(7438.24 2964.88 5122.33 8686.63 13158.4 35249.5)
(6461.9 2572.58 2759.57 9663.09 13847.9 35249.6)
(5678.55 1869.99 312.963 10446.3 14116.6 35249.7)
(5182.79 941.883 -2143.12 10942.2 13956.5 35249.7)
(5034.23 -99.8644 -4534.11 11090.7 13372.4 35249.6)
(5251.2 -1129.57 -6787.34 10874.1 12381.9 35249.7)
(5806.98 -2022.98 -8834.28 10318.1 11015.2 35249.7)
(6634.94 -2672.42 -10612.8 9490.2 9313.78 35249.8)
(7635 -2999.53 -12068.9 8490.02 7329.37 35249.7)
(8686.63 -2964.88 -13158.4 7438.24 5122.33 35249.5)
(9663.09 -2572.58 -13847.9 6461.9 2759.57 35249.6)
(10446.3 -1869.99 -14116.6 5678.55 312.963 35249.7)
(10942.2 -941.883 -13956.5 5182.79 -2143.12 35249.7)
(11090.7 99.8644 -13372.4 5034.23 -4534.11 35249.6)
(10874.1 1129.57 -12381.9 5251.2 -6787.34 35249.7)
(10318.1 2022.98 -11015.2 5806.98 -8834.28 35249.7)
(9490.2 2672.42 -9313.78 6634.94 -10612.8 35249.8)
(8490.02 2999.53 -7329.37 7635 -12068.9 35249.7)
(7438.24 2964.88 -5122.33 8686.63 -13158.4 35249.5)
(6461.9 2572.58 -2759.57 9663.09 -13847.9 35249.6)
(5678.55 1869.99 -312.963 10446.3 -14116.6 35249.7)
(-4778.49 814.67 342.81 35360.9 -6569.42 -7913.04)
(-3846.74 -6098.72 1478.37 34429.2 -6410.06 -7913.03)
(-606.708 -12276.5 2569 31189.2 -6055.96 -7913.05)
(4550.93 -16973.5 3581.6 26031.7 -5517.88 -7912.96)
(11003.9 -19623.3 4485.39 19578.5 -4812.15 -7913.04)
(17974.1 -19906.3 5252.83 12608.5 -3960.14 -7912.97)
(24620.6 -17788.2 5860.66 5961.9 -2987.82 -7913.04)
(30141.9 -13524.6 6290.46 440.62 -1924.73 -7913.01)
(33872 -7629.77 6529.15 -3289.47 -803.167 -7912.99)
(35360.9 -814.67 6569.42 -4778.49 342.81 -7913.04)
(34429.2 6098.72 6410.06 -3846.74 1478.37 -7913.03)
(31189.2 12276.5 6055.96 -606.708 2569 -7913.05)
(26031.7 16973.5 5517.88 4550.93 3581.6 -7912.96)
(19578.5 19623.3 4812.15 11003.9 4485.39 -7913.04)
(12608.5 19906.3 3960.14 17974.1 5252.83 -7912.97)
(5961.9 17788.2 2987.82 24620.6 5860.66 -7913.04)
(440.62 13524.6 1924.73 30141.9 6290.46 -7913.01)
(-3289.47 7629.77 803.167 33872 6529.15 -7912.99)
(-4778.49 814.67 -342.81 35360.9 6569.42 -7913.04)
(-3846.74 -6098.72 -1478.37 34429.2 6410.06 -7913.03)
(-606.708 -12276.5 -2569 31189.2 6055.96 -7913.05)
(4550.93 -16973.5 -3581.6 26031.7 5517.88 -7912.96)
(11003.9 -19623.3 -4485.39 19578.5 4812.15 -7913.04)
(17974.1 -19906.3 -5252.83 12608.5 3960.14 -7912.97)
(24620.6 -17788.2 -5860.66 5961.9 2987.82 -7913.04)
(30141.9 -13524.6 -6290.46 440.62 1924.73 -7913.01)
(33872 -7629.77 -6529.15 -3289.47 803.167 -7912.99)
(35360.9 -814.67 -6569.42 -4778.49 -342.81 -7913.04)
(34429.2 6098.72 -6410.06 -3846.74 -1478.37 -7913.03)
(31189.2 12276.5 -6055.96 -606.708 -2569 -7913.05)
(26031.7 16973.5 -5517.88 4550.93 -3581.6 -7912.96)
(19578.5 19623.3 -4812.15 11003.9 -4485.39 -7913.04)
(12608.5 19906.3 -3960.14 17974.1 -5252.83 -7912.97)
(5961.9 17788.2 -2987.82 24620.6 -5860.66 -7913.04)
(440.62 13524.6 -1924.73 30141.9 -6290.46 -7913.01)
(-3289.47 7629.77 -803.167 33872 -6529.15 -7912.99)
(-23378.9 3734.41 138.063 -6318.86 22220.7 -1224.36)
(-24141.7 591.76 -3722.63 -5556.03 21907.1 -1224.42)
(-23783.8 -2622.25 -7470.19 -5914.13 20927.9 -1224.49)
(-22348 -5519.98 -10990.8 -7349.77 19312.8 -1224.35)
(-20007.8 -7751.98 -14177.5 -9690.02 17110.8 -1224.55)
(-17045.4 -9048.86 -16933.3 -12652.5 14389 -1224.41)
(-13817.9 -9254.4 -19174.7 -15879.8 11229.9 -1224.36)
(-10715 -8343.7 -20833.4 -18982.8 7729.66 -1224.43)
(-8110.51 -6426.63 -21859.2 -21587.2 3994.56 -1224.34)
(-6318.86 -3734.41 -22220.7 -23378.9 138.063 -1224.36)
(-5556.03 -591.76 -21907.1 -24141.7 -3722.63 -1224.42)
(-5914.13 2622.25 -20927.9 -23783.8 -7470.19 -1224.49)
(-7349.77 5519.98 -19312.8 -22348 -10990.8 -1224.35)
(-9690.02 7751.98 -17110.8 -20007.8 -14177.5 -1224.55)
(-12652.5 9048.86 -14389 -17045.4 -16933.3 -1224.41)
(-15879.8 9254.4 -11229.9 -13817.9 -19174.7 -1224.36)
(-18982.8 8343.7 -7729.66 -10715 -20833.4 -1224.43)
(-21587.2 6426.63 -3994.56 -8110.51 -21859.2 -1224.34)
(-23378.9 3734.41 -138.063 -6318.86 -22220.7 -1224.36)
(-24141.7 591.76 3722.63 -5556.03 -21907.1 -1224.42)
(-23783.8 -2622.25 7470.19 -5914.13 -20927.9 -1224.49)
(-22348 -5519.98 10990.8 -7349.77 -19312.8 -1224.35)
(-20007.8 -7751.98 14177.5 -9690.02 -17110.8 -1224.55)
(-17045.4 -9048.86 16933.3 -12652.5 -14389 -1224.41)
(-13817.9 -9254.4 19174.7 -15879.8 -11229.9 -1224.36)
(-10715 -8343.7 20833.4 -18982.8 -7729.66 -1224.43)
(-8110.51 -6426.63 21859.2 -21587.2 -3994.56 -1224.34)
(-6318.86 -3734.41 22220.7 -23378.9 -138.063 -1224.36)
(-5556.03 -591.76 21907.1 -24141.7 3722.63 -1224.42)
(-5914.13 2622.25 20927.9 -23783.8 7470.19 -1224.49)
(-7349.77 5519.98 19312.8 -22348 10990.8 -1224.35)
(-9690.02 7751.98 17110.8 -20007.8 14177.5 -1224.55)
(-12652.5 9048.86 14389 -17045.4 16933.3 -1224.41)
(-15879.8 9254.4 11229.9 -13817.9 19174.7 -1224.36)
(-18982.8 8343.7 7729.66 -10715 20833.4 -1224.43)
(-21587.2 6426.63 3994.56 -8110.51 21859.2 -1224.34)
(4749.32 736.985 3810.82 9777.24 -13937.2 33288.9)
(4648.78 -167.313 6173.1 9877.66 -13063.8 33288.7)
(4863.9 -1051.4 8347.82 9662.97 -11793.3 33289)
(5368.07 -1808.71 10268.9 9158.55 -10164.6 33288.8)
(6100.9 -2347.76 11877.9 8425.54 -8226.91 33288.9)
(6974.12 -2603.77 13126.1 7552.56 -6039.45 33288.8)
(7881.93 -2545.65 13975.4 6644.44 -3668.36 33288.8)
(8715.53 -2180.51 14400.1 5811.28 -1185.83 33288.9)
(9373.56 -1552.35 14387.2 5152.98 1332.76 33288.9)
(9777.24 -736.985 13937.2 4749.32 3810.82 33288.9)
(9877.66 167.313 13063.8 4648.78 6173.1 33288.7)
(9662.97 1051.4 11793.3 4863.9 8347.82 33289)
(9158.55 1808.71 10164.6 5368.07 10268.9 33288.8)
(8425.54 2347.76 8226.91 6100.9 11877.9 33288.9)
(7552.56 2603.77 6039.45 6974.12 13126.1 33288.8)
(6644.44 2545.65 3668.36 7881.93 13975.4 33288.8)
(5811.28 2180.51 1185.83 8715.53 14400.1 33288.9)
(5152.98 1552.35 -1332.76 9373.56 14387.2 33288.9)
(4749.32 736.985 -3810.82 9777.24 13937.2 33288.9)
(4648.78 -167.313 -6173.1 9877.66 13063.8 33288.7)
(4863.9 -1051.4 -8347.82 9662.97 11793.3 33289)
(5368.07 -1808.71 -10268.9 9158.55 10164.6 33288.8)
(6100.9 -2347.76 -11877.9 8425.54 8226.91 33288.9)
(6974.12 -2603.77 -13126.1 7552.56 6039.45 33288.8)
(7881.93 -2545.65 -13975.4 6644.44 3668.36 33288.8)
(8715.53 -2180.51 -14400.1 5811.28 1185.83 33288.9)
(9373.56 -1552.35 -14387.2 5152.98 -1332.76 33288.9)
(9777.24 -736.985 -13937.2 4749.32 -3810.82 33288.9)
(9877.66 167.313 -13063.8 4648.78 -6173.1 33288.7)
(9662.97 1051.4 -11793.3 4863.9 -8347.82 33289)
(9158.55 1808.71 -10164.6 5368.07 -10268.9 33288.8)
(8425.54 2347.76 -8226.91 6100.9 -11877.9 33288.9)
(7552.56 2603.77 -6039.45 6974.12 -13126.1 33288.8)
(6644.44 2545.65 -3668.36 7881.93 -13975.4 33288.8)
(5811.28 2180.51 -1185.83 8715.53 -14400.1 33288.9)
(5152.98 1552.35 1332.76 9373.56 -14387.2 33288.9)
(-4171.57 1736.04 380.004 35075.3 -6859.18 -8679.03)
(-3581.79 -5080.29 1565.32 34485.7 -6688.98 -8678.94)
(-696.52 -11283.8 2703.04 31600.1 -6315.48 -8679.13)
(4136.75 -16126.4 3758.64 26767.1 -5750.16 -8679.01)
(10334.6 -19023.8 4700.12 20569 -5010.2 -8679.05)
(17149.8 -19626.8 5498.63 13753.9 -4117.85 -8679.1)
(23760.2 -17862.4 6130.16 7143.66 -3100.46 -8678.98)
(29368.3 -13943.6 6575.48 1535.22 -1988.89 -8679.14)
(33298.2 -8342.93 6820.96 -2394.3 -816.853 -8678.95)
(35075.3 -1736.04 6859.18 -4171.57 380.004 -8679.03)
(34485.7 5080.29 6688.98 -3581.79 1565.32 -8678.94)
(31600.1 11283.8 6315.48 -696.52 2703.04 -8679.13)
(26767.1 16126.4 5750.16 4136.75 3758.64 -8679.01)
(20569 19023.8 5010.2 10334.6 4700.12 -8679.05)
(13753.9 19626.8 4117.85 17149.8 5498.63 -8679.1)
(7143.66 17862.4 3100.46 23760.2 6130.16 -8678.98)
(1535.22 13943.6 1988.89 29368.3 6575.48 -8679.14)
(-2394.3 8342.93 816.853 33298.2 6820.96 -8678.95)
(-4171.57 1736.04 -380.004 35075.3 6859.18 -8679.03)
(-3581.79 -5080.29 -1565.32 34485.7 6688.98 -8678.94)
(-696.52 -11283.8 -2703.04 31600.1 6315.48 -8679.13)
(4136.75 -16126.4 -3758.64 26767.1 5750.16 -8679.01)
(10334.6 -19023.8 -4700.12 20569 5010.2 -8679.05)
(17149.8 -19626.8 -5498.63 13753.9 4117.85 -8679.1)
(23760.2 -17862.4 -6130.16 7143.66 3100.46 -8678.98)
(29368.3 -13943.6 -6575.48 1535.22 1988.89 -8679.14)
(33298.2 -8342.93 -6820.96 -2394.3 816.853 -8678.95)
(35075.3 -1736.04 -6859.18 -4171.57 -380.004 -8679.03)
(34485.7 5080.29 -6688.98 -3581.79 -1565.32 -8678.94)
(31600.1 11283.8 -6315.48 -696.52 -2703.04 -8679.13)
(26767.1 16126.4 -5750.16 4136.75 -3758.64 -8679.01)
(20569 19023.8 -5010.2 10334.6 -4700.12 -8679.05)
(13753.9 19626.8 -4117.85 17149.8 -5498.63 -8679.1)
(7143.66 17862.4 -3100.46 23760.2 -6130.16 -8678.98)
(1535.22 13943.6 -1988.89 29368.3 -6575.48 -8679.14)
(-2394.3 8342.93 -816.853 33298.2 -6820.96 -8678.95)
(-20813.8 6060.58 1636.59 -4518.61 22194.8 -915.48)
(-22395.4 2908.46 -2242.35 -2937.34 22141.8 -915.454)
(-22803.3 -594.475 -6053.18 -2529.21 21416.1 -915.479)
(-21988.7 -4025.67 -9680.07 -3343.94 20039.6 -915.392)
(-20049.6 -6971.34 -13012.8 -5283 18054.2 -915.425)
(-17220 -9076.14 -15950.2 -8112.66 15520.2 -915.426)
(-13841.1 -10086.3 -18403 -11491.4 12514.7 -915.438)
(-10320.5 -9879.78 -20296.5 -15011.9 9128.97 -915.291)
(-7082.94 -8481.71 -21573.5 -18249.7 5465.82 -915.559)
(-4518.61 -6060.58 -22194.8 -20813.8 1636.59 -915.48)
(-2937.34 -2908.46 -22141.8 -22395.4 -2242.35 -915.454)
(-2529.21 594.475 -21416.1 -22803.3 -6053.18 -915.479)
(-3343.94 4025.67 -20039.6 -21988.7 -9680.07 -915.392)
(-5283 6971.34 -18054.2 -20049.6 -13012.8 -915.425)
(-8112.66 9076.14 -15520.2 -17220 -15950.2 -915.426)
(-11491.4 10086.3 -12514.7 -13841.1 -18403 -915.438)
(-15011.9 9879.78 -9128.97 -10320.5 -20296.5 -915.291)
(-18249.7 8481.71 -5465.82 -7082.94 -21573.5 -915.559)
(-20813.8 6060.58 -1636.59 -4518.61 -22194.8 -915.48)
(-22395.4 2908.46 2242.35 -2937.34 -22141.8 -915.454)
(-22803.3 -594.475 6053.18 -2529.21 -21416.1 -915.479)
(-21988.7 -4025.67 9680.07 -3343.94 -20039.6 -915.392)
(-20049.6 -6971.34 13012.8 -5283 -18054.2 -915.425)
(-17220 -9076.14 15950.2 -8112.66 -15520.2 -915.426)
(-13841.1 -10086.3 18403 -11491.4 -12514.7 -915.438)
(-10320.5 -9879.78 20296.5 -15011.9 -9128.97 -915.291)
(-7082.94 -8481.71 21573.5 -18249.7 -5465.82 -915.559)
(-4518.61 -6060.58 22194.8 -20813.8 -1636.59 -915.48)
(-2937.34 -2908.46 22141.8 -22395.4 2242.35 -915.454)
(-2529.21 594.475 21416.1 -22803.3 6053.18 -915.479)
(-3343.94 4025.67 20039.6 -21988.7 9680.07 -915.392)
(-5283 6971.34 18054.2 -20049.6 13012.8 -915.425)
(-8112.66 9076.14 15520.2 -17220 15950.2 -915.426)
(-11491.4 10086.3 12514.7 -13841.1 18403 -915.438)
(-15011.9 9879.78 9128.97 -10320.5 20296.5 -915.291)
(-18249.7 8481.71 5465.82 -7082.94 21573.5 -915.559)
(4342.28 269.433 5474.23 8227.81 -13867.6 31257.1)
(4367.18 -411.283 7799.17 8202.65 -12706.3 31257)
(4623.61 -1042.36 9887.11 7946.42 -11159 31257.2)
(5080.34 -1547.8 11674.7 7489.76 -9272.65 31257)
(5682.31 -1866.45 13107.4 6887.7 -7104.46 31257.1)
(6357.15 -1960.05 14142 6213.06 -4720.46 31257.1)
(7022.96 -1817.16 14746.8 5546.91 -2192.95 31257.1)
(7600.09 -1455.17 14903.6 4970.02 401.098 31257.1)
(8018.45 -917.643 14607.6 4551.54 2982.98 31257)
(8227.81 -269.433 13867.6 4342.28 5474.23 31257.1)
(8202.65 411.283 12706.3 4367.18 7799.17 31257)
(7946.42 1042.36 11159 4623.61 9887.11 31257.2)
(7489.76 1547.8 9272.65 5080.34 11674.7 31257)
(6887.7 1866.45 7104.46 5682.31 13107.4 31257.1)
(6213.06 1960.05 4720.46 6357.15 14142 31257.1)
(5546.91 1817.16 2192.95 7022.96 14746.8 31257.1)
(4970.02 1455.17 -401.098 7600.09 14903.6 31257.1)