/*--------------------------------*- C++ -*----------------------------------*\
| =========                 |                                                 |
| \\      /  F ield         | OpenFOAM: The Open Source CFD Toolbox           |
|  \\    /   O peration     | Version:  2412                                  |
|   \\  /    A nd           | Website:  www.openfoam.com                      |
|    \\/     M anipulation  |                                                 |
\*---------------------------------------------------------------------------*/
FoamFile
{
    version     2.0;
    format      ascii;
    arch        "LSB;label=32;scalar=64";
    class       volScalarField;
    location    "0.0350058";
    object      ionicCurrent;
}
// * * * * * * * * * * * * * * * * * * * * * * * * * * * * * * * * * * * * * //

dimensions      [1 2 -4 0 0 -1 0];

internalField   nonuniform List<scalar> 
8670
(
0.325174
0.522129
0.728569
0.94974
1.19319
1.45972
1.74925
2.0621
2.39758
2.7543
3.12533
3.51985
3.93159
4.36057
4.66614
5.07511
5.48502
5.65924
5.97762
6.26617
6.16526
6.32517
5.9822
5.95178
5.26005
4.89329
3.53039
2.04128
-1.77338
-7.52933
-15.3205
-23.2791
0.336074
0.51658
0.73677
0.965902
1.21089
1.47832
1.76915
2.08384
2.41701
2.77695
3.15792
3.55884
3.97846
4.29787
4.70879
5.12249
5.53282
5.70429
6.04608
6.0447
6.24194
6.39404
6.03164
6.00589
5.30665
4.94536
3.5559
2.04692
-1.84945
-8.91843
-16.8189
-24.9628
0.360432
0.54322
0.744386
0.966406
1.21153
1.51012
1.80779
2.12849
2.47345
2.78318
3.15939
3.54768
3.95549
4.37405
4.8017
5.06893
5.45395
5.82974
5.91268
6.18444
6.40772
6.17419
6.24426
5.72166
5.55488
4.57506
3.79264
1.5243
-2.71654
-9.95485
-20.4598
-28.2802
0.378265
0.56275
0.766352
1.01505
1.26596
1.53832
1.83433
2.15434
2.49824
2.86606
3.25685
3.58302
3.98303
4.39523
4.81115
5.2303
5.44231
5.79935
6.13304
6.12333
6.34785
6.10448
6.15781
5.6209
5.42794
4.4106
3.51999
0.952418
-3.21543
-13.3582
-27.9017
-38.0928
0.411123
0.598609
0.804625
1.03263
1.31034
1.58853
1.88902
2.21337
2.5614
2.93305
3.25421
3.64896
4.0491
4.46073
4.87538
5.29149
5.49446
5.84562
6.17261
6.14876
6.36423
6.09847
6.13466
5.56547
5.35131
4.27367
3.27369
0.371273
-4.67662
-17.7534
-40.7907
-58.3548
0.442033
0.652187
0.870254
1.10317
1.35846
1.63667
1.93772
2.26186
2.60813
2.97478
3.35397
3.75322
4.1642
4.58658
4.86644
5.25375
5.63005
5.993
6.04591
6.30559
6.13318
6.20083
6.19883
5.59115
5.33592
4.18837
3.04602
-0.263536
-7.39742
-23.6214
-62.3332
-102.006
0.497012
0.711044
0.933281
1.17082
1.43064
1.71333
2.01851
2.34585
2.69414
3.06124
3.44356
3.83324
4.238
4.64963
5.06726
5.30032
5.65819
5.99906
6.01903
6.2274
6.39145
6.05987
6.05109
5.39802
5.09123
3.82975
2.43264
-1.71321
-10.4458
-34.4776
-95.0932
-183.959
0.577547
0.777264
0.998262
1.26679
1.53445
1.82833
2.1394
2.47231
2.82596
3.19734
3.57815
3.97501
4.3791
4.78787
5.20085
5.41249
5.76667
6.09481
6.08062
6.27788
6.41505
6.03758
5.99689
5.2815
4.9042
3.46244
1.71528
-3.49585
-16.0136
-51.062
-138.788
-246.36
0.663038
0.869749
1.12145
1.37876
1.65161
1.94572
2.26142
2.59802
3.01669
3.32961
3.71413
4.10697
4.49751
4.89118
5.2785
5.65891
5.78385
6.06231
6.30613
6.13412
6.20033
6.20472
5.61012
5.36727
4.24336
3.1306
0.730738
-6.02695
-25.4279
-79.7373
-194.376
-168.104
0.784591
1.00479
1.24017
1.52771
1.81066
2.11332
2.4419
2.78527
3.14706
3.52342
3.91012
4.29697
4.68841
5.07239
5.44441
5.80433
5.88748
6.12801
6.31197
6.44964
6.09528
6.0698
5.3821
4.99563
4.28868
2.16316
-1.31274
-11.2372
-37.7509
-121.866
-237.441
-14.1131
0.90982
1.16093
1.40569
1.67075
1.99368
2.3044
2.63863
2.98561
3.34822
3.72231
4.10323
4.48469
4.85877
5.21063
5.54397
5.8466
6.11459
6.34991
6.17091
6.23662
6.23848
5.64184
5.35895
4.84791
3.25776
1.22938
-4.75226
-19.9534
-64.7391
-174.471
-148.454
2.23224
1.08066
1.343
1.59688
1.90592
2.20239
2.52052
2.84938
3.26042
3.62582
3.99971
4.37726
4.75166
5.11411
5.45511
5.76603
6.04073
6.28109
6.13354
6.21821
6.2074
6.13133
5.41143
4.99651
4.28741
2.19775
-1.19266
-9.73415
-36.3199
-114.78
-239.106
2.40397
1.41715
1.30343
1.55062
1.8458
2.13198
2.42942
2.79762
3.13014
3.47646
3.91686
4.2824
4.6444
4.9954
5.32715
5.62909
5.8904
6.10467
6.26587
6.38357
6.02094
5.92516
5.70134
5.3262
4.74627
3.05634
0.824063
-4.71863
-21.8536
-68.5518
-180.635
-128.355
2.16636
0.726062
1.49227
1.76998
2.03769
2.36026
2.66051
3.02918
3.35575
3.77107
4.11125
4.44483
4.75985
5.22608
5.51511
5.77136
5.98027
6.12997
6.20821
6.2083
6.12903
5.98244
5.18316
4.69653
3.84465
2.26119
-1.28132
-11.2931
-38.4454
-123.209
-234.743
2.33563
1.02281
0.373188
1.62914
1.90663
2.21512
2.48908
2.8392
3.13701
3.52609
3.83471
4.25864
4.56497
4.84672
5.28917
5.5343
5.74188
5.90045
5.9949
6.00775
5.93387
5.76379
5.48292
5.06061
4.4046
3.31856
1.22782
-3.7186
-17.734
-58.8628
-165.55
-161.433
2.18028
0.638033
0.232299
-0.0149121
0.144321
0.318635
0.519815
0.745132
0.995317
1.24431
1.53675
1.86401
2.1763
2.54591
2.95044
3.30427
3.74908
4.11213
4.57187
4.89837
5.34636
5.57598
5.97365
6.05398
6.36364
6.25563
5.99216
6.05783
5.50788
4.75569
4.40316
3.2896
1.87803
0.548299
-1.10172
-0.0063757
0.15308
0.333424
0.536117
0.762038
0.988417
1.25451
1.5549
1.8841
2.19244
2.56979
2.97787
3.33407
3.78187
4.14047
4.60823
4.93035
5.38823
5.62376
6.03607
6.13701
6.11497
6.35429
6.10453
5.69045
5.62872
4.8826
3.91298
3.38861
1.88506
0.543938
-1.75383
-0.0029736
0.157314
0.338078
0.540231
0.761455
1.01229
1.28974
1.56211
1.88319
2.23923
2.57183
2.96871
3.3994
3.7603
4.2214
4.56653
5.03336
5.31656
5.75664
5.93307
6.00937
6.29416
6.12939
6.27725
5.87491
5.27513
5.05508
4.07608
2.86772
2.02431
-0.22036
-1.99642
0.0312306
0.194195
0.360845
0.562086
0.787938
1.03472
1.31318
1.62021
1.91141
2.26725
2.65384
2.99955
3.4293
3.78725
4.24515
4.58937
5.04417
5.32132
5.74036
5.88733
6.23081
6.1811
6.40079
6.13345
5.69198
5.60408
4.79556
3.73007
3.06922
1.45372
-1.05232
-3.30304
0.0575528
0.208783
0.391708
0.597976
0.823438
1.07877
1.36157
1.67254
1.96687
2.32678
2.71756
3.06516
3.49774
3.85535
4.31404
4.64837
5.10654
5.37095
5.7914
5.92474
6.2581
6.19021
6.39729
6.10904
5.64305
5.52908
4.66684
3.4952
2.6576
0.843797
-2.11319
-5.22684
0.0806419
0.249564
0.439661
0.652652
0.889927
1.15305
1.41208
1.71739
2.05755
2.37803
2.75891
3.17307
3.52671
3.97414
4.32413
4.77257
5.23597
5.50817
5.7103
6.0772
6.09302
6.34465
6.11903
6.21916
5.74034
5.03991
4.6753
3.37838
1.62759
-0.615177
-3.47239
-8.16063
0.127416
0.297028
0.491847
0.709798
0.952452
1.22069
1.4843
1.79372
2.13748
2.50933
2.84348
3.25607
3.69438
4.0478
4.50784
4.83099
5.284
5.52581
5.93288
6.03109
6.34913
6.25837
6.01555
6.078
5.49957
5.28077
4.22045
2.61898
0.817123
-2.46715
-6.77633
-13.3801
0.193272
0.37381
0.576268
0.801549
1.02623
1.295
1.58624
1.91023
2.26176
2.58795
2.9769
3.39688
3.74471
4.18825
4.64881
4.96343
5.4118
5.6369
6.03976
6.13249
6.10527
6.31564
6.01106
6.03305
5.38868
5.09522
3.87032
1.85853
-1.05514
-7.08102
-14.4513
-22.7055
0.265264
0.452494
0.661915
0.894887
1.15167
1.40423
1.70077
2.02949
2.38608
2.76993
3.10725
3.52637
3.96804
4.30813
4.7589
5.04783
5.46848
5.88247
6.02137
6.05849
6.30952
6.09551
6.18308
5.65965
5.50542
4.55366
3.04674
1.03643
-4.52253
-15.9183
-37.4515
-55.507
0.353237
0.547284
0.763042
1.00228
1.26079
1.54867
1.86267
2.20333
2.57103
2.90394
3.30334
3.73003
4.07255
4.50428
4.94994
5.2208
5.6357
5.78787
6.1017
6.38965
6.27966
6.03077
6.07597
5.47273
5.21666
4.036
2.78342
-0.953906
-9.57057
-30.8438
-87.8187
-168.632
0.480911
0.684244
0.909475
1.15804
1.43087
1.72814
2.0506
2.39924
2.77375
3.10581
3.50563
3.92787
4.36576
4.6733
5.09549
5.5149
5.696
6.04923
6.05789
6.27382
6.44889
6.14303
5.65842
5.5067
4.54113
3.74037
1.22369
-3.56682
-18.2634
-58.942
-159.543
-237.097
0.633072
0.847885
1.08404
1.3431
1.62564
1.93125
2.26048
2.61287
2.98821
3.3848
3.80099
4.12569
4.53538
4.94975
5.36264
5.55283
5.89616
6.21101
6.1589
6.34971
6.03597
6.01975
5.9056
5.12057
3.99806
2.7724
-0.940313
-8.87163
-34.4669
-110.424
-239.104
-39.4898
0.809866
1.03619
1.28237
1.55563
1.88425
2.20449
2.54514
2.90717
3.2902
3.60581
3.99589
4.39519
4.79229
5.18317
5.56699
5.69429
5.97887
6.21024
6.40668
6.14201
6.17851
5.59426
5.33332
4.88234
3.36809
1.43374
-4.4734
-19.7469
-65.7135
-178.501
-135.685
2.20857
0.992864
1.22796
1.50972
1.78486
2.07891
2.39161
2.78529
3.14134
3.51067
3.88964
4.27327
4.65548
5.03257
5.40368
5.53078
5.81125
6.02852
6.18297
6.29179
5.89481
5.79528
5.56461
5.20155
3.96019
2.66528
-1.2519
-9.89648
-35.883
-120.662
-235.468
2.3395
1.24263
1.13635
1.36774
1.65282
1.93026
2.21886
2.5838
2.91119
3.24858
3.5909
4.04198
4.40202
4.75573
5.09794
5.42403
5.73422
5.7322
5.90543
5.99079
5.98845
5.89828
5.70893
5.43458
4.4152
3.57419
1.85398
-3.30838
-16.479
-54.0451
-162.46
-165.66
2.18202
0.77628
-0.249134
-0.10739
0.0361299
0.216833
0.422531
0.629101
0.882835
1.13564
1.44525
1.74617
2.07137
2.4588
2.8211
3.26945
3.65943
4.04384
4.5415
4.9071
5.22902
5.70592
5.93263
6.07246
6.0911
6.36667
6.16813
5.85213
5.3662
5.31596
4.64622
3.94351
2.82146
1.56452
-0.241162
-0.110537
0.0448307
0.227623
0.412176
0.639902
0.868968
1.14877
1.42589
1.76273
2.08651
2.4826
2.84853
3.2236
3.69269
4.08224
4.46075
4.95334
5.28358
5.55221
5.99995
6.14411
6.17996
6.08056
6.27273
5.93961
5.48988
4.88198
4.7893
4.00823
2.85792
1.62824
-0.237957
-0.0952502
0.0685553
0.233256
0.438385
0.645435
0.8996
1.15349
1.46298
1.76469
2.13251
2.47889
2.905
3.28674
3.67065
4.15929
4.54249
4.89501
5.38986
5.67757
5.89321
6.00808
6.34233
6.26107
6.05123
5.66594
5.68361
5.09932
4.45731
3.67238
3.18326
1.25614
-0.223882
-0.0850971
0.0795591
0.251229
0.454302
0.688952
0.923367
1.20973
1.49074
1.79752
2.16089
2.5067
2.9313
3.30982
3.7844
4.17599
4.54851
5.05009
5.38095
5.65742
5.84661
6.23649
6.25615
6.1606
5.90993
5.98919
5.49559
4.93439
4.28517
3.48018
2.86655
1.49776
-0.200302
-0.0581969
0.109739
0.279014
0.489006
0.706113
0.961746
1.22622
1.53684
1.8485
2.21703
2.56673
2.99628
3.37832
3.76527
4.245
4.61411
5.11459
5.439
5.7053
5.88184
6.26363
6.2691
6.1587
5.88568
5.94533
5.42101
4.82681
4.1412
3.30163
2.68632
1.30251
-0.168526
-0.0297515
0.134942
0.327744
0.522022
0.761501
1.03049
1.29563
1.61994
1.93224
2.26241
2.66743
3.03527
3.4923
3.88044
4.26214
4.75137
5.09721
5.39539
5.84473
6.01772
6.07779
6.3864
6.25317
5.98874
5.52945
5.47083
4.78287
4.04456
3.20707
2.02047
0.739349
-0.132088
0.0243344
0.182088
0.379192
0.602034
0.824424
1.09653
1.36543
1.69346
2.00896
2.39512
2.75225
3.12385
3.57468
3.95541
4.44622
4.81145
5.13562
5.60813
5.84007
5.97924
6.33923
6.29712
6.12768
5.77983
5.781
5.14387
4.39078
3.44812
3.00026
1.56208
0.254221
-0.075625
0.0683478
0.249315
0.455136
0.660631
0.913021
1.16365
1.46892
1.76592
2.12734
2.46676
2.88314
3.25434
3.71828
4.10108
4.47043
4.94983
5.25983
5.72778
5.94753
6.07994
6.0916
6.34625
6.11462
5.71043
5.6658
4.94382
4.03706
2.8812
2.16182
0.283946
-1.26183
-0.0126634
0.137282
0.324922
0.537638
0.749801
1.0101
1.30061
1.58256
1.92629
2.25175
2.65098
3.01276
3.46301
3.845
4.21473
4.69708
5.02658
5.5002
5.75049
5.91549
6.28511
6.27129
6.10599
6.24834
5.82839
5.2394
4.35513
3.74914
2.17803
0.313163
-2.43697
-5.26403
0.0585018
0.235767
0.418403
0.633065
0.87859
1.12605
1.41716
1.74353
2.0543
2.43344
2.78117
3.21012
3.57989
4.04704
4.41084
4.8943
5.21539
5.4795
5.89313
6.00546
6.34211
6.27601
6.05068
6.14189
5.62537
4.87543
4.39166
2.74726
0.143774
-3.62511
-7.56626
-14.5198
0.159439
0.338288
0.545174
0.777176
1.03495
1.28644
1.59262
1.92986
2.24653
2.63393
2.98205
3.41275
3.87131
4.24006
4.58485
5.05099
5.32908
5.75945
5.91124
6.26575
6.24231
6.08767
6.20884
5.73236
5.61968
4.75377
3.4415
1.03737
-3.10711
-13.2188
-29.5921
-44.2282
0.284749
0.481523
0.701375
0.946114
1.21637
1.47693
1.79334
2.13961
2.516
2.85454
3.27303
3.62508
4.06933
4.53149
4.85539
5.31109
5.55558
5.96847
6.08569
6.08161
6.31716
6.049
6.09751
5.5139
5.29006
4.18882
2.31869
-0.804237
-9.78405
-34.0926
-96.6995
-191.459
0.449629
0.657473
0.888347
1.14383
1.42514
1.73222
2.0191
2.36922
2.74643
3.14956
3.48916
3.91672
4.35891
4.66799
5.09529
5.52111
5.70357
6.06281
6.07552
6.32032
6.09119
6.16992
5.63677
5.47131
4.47607
3.62538
0.980256
-5.26458
-22.149
-73.7549
-189.816
-175.287
0.621481
0.837127
1.07485
1.33551
1.61985
1.92791
2.25828
2.61066
2.9845
3.37876
3.79184
4.10252
4.51237
4.91967
5.32489
5.49601
5.82451
6.11776
6.02309
6.16687
6.23761
5.75818
5.64449
4.78486
4.1952
2.18954
-1.23981
-11.5879
-40.3885
-133.359
-228.237
2.36127
0.739386
0.95504
1.22375
1.48569
1.76873
2.07328
2.39823
2.74168
3.10091
3.47265
3.8534
4.23811
4.61961
4.99164
5.35153
5.69491
5.73977
5.96742
6.14717
5.84969
5.83797
5.74741
4.99601
4.56467
3.74321
1.3392
-3.34672
-18.8909
-62.7817
-180.065
-121.208
2.19583
-0.518708
-0.409804
-0.29755
-0.153885
-0.00605154
0.165174
0.368663
0.58089
0.820958
1.10504
1.39289
1.70389
2.08411
2.44684
2.82608
3.2176
3.70809
4.12501
4.53516
4.92482
5.2742
5.56316
6.01757
6.16964
6.22718
6.17925
6.00722
5.67705
5.7468
5.22246
4.59587
3.51128
2.25236
-0.509941
-0.399871
-0.288007
-0.160098
0.00323348
0.172488
0.383141
0.596888
0.833136
1.12396
1.41356
1.72558
2.06048
2.47149
2.85511
3.25074
3.65155
4.16161
4.57296
4.96469
5.31943
5.61618
5.83266
6.24539
6.30242
6.25361
6.087
5.80197
5.40049
4.85426
4.78091
3.71746
1.88425
-0.497273
-0.399169
-0.271099
-0.14045
0.00744676
0.194262
0.385476
0.598903
0.861887
1.12638
1.41437
1.76631
2.10736
2.46836
2.84621
3.31498
3.72708
4.13802
4.53595
4.9092
5.4177
5.72267
5.96122
6.10902
6.1467
6.04726
6.25671
5.94627
5.56436
5.09878
4.48613
3.39556
2.16311
-0.491669
-0.392859
-0.263492
-0.130323
0.0379462
0.210184
0.403066
0.642169
0.884166
1.14926
1.47412
1.79357
2.13389
2.49391
2.93757
3.33907
3.74584
4.14686
4.6673
5.05262
5.40342
5.70174
5.92291
6.03503
6.38665
6.30469
6.11339
5.82305
5.44088
4.95913
4.27775
3.79957
1.89379
-0.473616
-0.372364
-0.240587
-0.10589
0.0511592
0.238469
0.436344
0.680553
0.926431
1.19462
1.49191
1.84392
2.1887
2.55231
3.00071
3.40525
3.81436
4.21824
4.60733
5.11986
5.46285
5.75293
5.96906
6.08784
6.07688
6.33585
6.10662
5.78414
5.37777
4.88042
4.1919
3.7175
1.81972
-0.458896
-0.341314
-0.22034
-0.0658451
0.0919464
0.268775
0.489281
0.713205
0.965171
1.26331
1.56317
1.8856
2.27973
2.65148
3.03812
3.43378
3.93225
4.34385
4.73934
5.10156
5.41471
5.88796
6.08899
6.19979
6.20182
6.06953
5.7805
5.86955
5.39189
4.87452
4.24861
3.16182
1.94469
-0.432958
-0.311736
-0.186853
-0.0284797
0.133721
0.320026
0.540875
0.770392
1.05181
1.33232
1.63538
2.00659
2.36192
2.73457
3.12024
3.60119
4.01146
4.41295
4.78893
5.30286
5.62137
5.88058
6.0606
6.13783
6.07841
6.29681
6.0009
5.61012
5.13633
4.58066
3.85333
3.39383
1.52587
-0.390737
-0.278514
-0.134899
0.0133826
0.198923
0.389197
0.624552
0.860864
1.11964
1.4371
1.74835
2.08112
2.48952
2.86956
3.26062
3.65576
4.15714
4.55622
4.92952
5.25623
5.7448
5.98142
6.13595
6.1777
6.07265
6.26853
5.92718
5.48816
4.95053
4.33396
3.56559
3.10262
1.24038
-0.341502
-0.223721
-0.0737161
0.0807328
0.273296
0.470424
0.713147
0.956705
1.22221
1.5468
1.86392
2.25174
2.61736
2.99741
3.3859
3.87267
4.27108
4.64857
5.15894
5.48949
5.76521
5.9623
6.05301
6.37073
6.24967
6.00448
5.60785
5.01481
4.8819
4.10412
3.31259
2.18436
0.97102
-0.28583
-0.144129
-0.000301371
0.179341
0.363104
0.589622
0.818354
1.09862
1.37542
1.67339
2.03747
2.38393
2.80998
3.19686
3.58898
3.98236
4.47569
4.84673
5.17401
5.65478
5.89464
6.05046
6.08771
6.37608
6.19286
5.86925
5.34166
5.19416
4.32363
3.3584
2.28926
0.894272
-0.3862
-0.195025
-0.061307
0.10725
0.278982
0.490963
0.705851
0.967863
1.22915
1.5467
1.85496
2.23027
2.58184
3.01483
3.39937
3.78393
4.2743
4.65083
4.99232
5.47512
5.73371
5.90744
6.29123
6.2957
6.17217
5.88158
5.92324
5.32137
4.48544
3.2282
2.2196
0.235055
-2.37051
-4.83746
-0.103824
0.0564875
0.218568
0.419467
0.646381
0.872077
1.14719
1.41801
1.74748
2.11049
2.45005
2.80712
3.23589
3.60849
4.07914
4.44425
4.93258
5.25698
5.5191
5.95113
6.08173
6.08935
6.34899
6.12586
5.73844
5.69341
4.9239
3.7582
2.49937
-0.827745
-6.15405
-13.124
-20.9327
0.0147827
0.183017
0.374019
0.588768
0.828917
1.06473
1.35239
1.67024
1.97184
2.34022
2.6773
3.09121
3.53276
3.89604
4.36361
4.7032
5.1747
5.45492
5.65877
6.03796
6.06264
6.32317
6.10474
6.2093
5.73597
5.03421
4.63001
3.05101
-0.0010612
-6.06264
-23.1319
-62.4914
-112.526
0.165542
0.344116
0.544561
0.767459
1.01504
1.28848
1.58319
1.869
2.21226
2.58309
2.97625
3.32152
3.75234
4.08491
4.52117
4.96463
5.21993
5.62768
5.75369
6.07737
6.00726
6.19555
5.86411
5.86808
5.21958
4.92594
3.6355
2.1059
-2.68431
-15.7261
-51.2704
-149.971
-244.59
0.28448
0.464078
0.664796
0.88734
1.13277
1.4017
1.69434
2.01005
2.34855
2.70916
3.09067
3.49213
3.90749
4.21784
4.63119
5.04008
5.24556
5.59784
5.91918
5.89294
6.10735
5.82623
5.83384
5.75202
5.01286
4.60879
3.1057
1.06154
-5.19587
-24.6609
-85.1357
-212.448
-102.538
-0.607694
-0.521823
-0.423089
-0.303195
-0.157917
-0.00324229
0.170408
0.366375
0.610928
0.860233
1.13334
1.43175
1.75569
2.10363
2.4789
2.92963
3.34648
3.77322
4.20288
4.62471
5.0242
5.38319
5.67878
5.88838
6.3007
6.34831
6.2969
6.13143
5.85364
5.46637
4.90547
3.82299
2.54338
-0.611713
-0.517766
-0.41666
-0.300661
-0.161819
0.00486852
0.18143
0.378365
0.59854
0.84884
1.14582
1.44813
1.77511
2.12667
2.50043
2.89294
3.30338
3.8057
4.23676
4.65962
5.06048
5.42299
5.73026
5.96302
6.10473
6.13709
6.03188
6.25321
5.94799
5.55525
5.00535
4.01829
2.17502
-0.603261
-0.518174
-0.413281
-0.286127
-0.149992
0.00449405
0.185474
0.401562
0.627671
0.876617
1.15053
1.44982
1.77999
2.17317
2.55455
2.95468
3.36952
3.7923
4.2133
4.6191
4.9973
5.51768
5.82664
6.06965
6.22675
6.28316
6.2207
6.03975
5.75858
5.37303
4.80722
3.72884
2.46903
-0.597562
-0.506973
-0.395354
-0.275669
-0.13911
0.0220498
0.215235
0.418972
0.644627
0.894692
1.17066
1.50901
1.84288
2.19987
2.57888
2.9771
3.38875
3.80517
4.21909
4.74588
5.13816
5.49443
5.79772
6.02864
6.16876
6.20792
6.13836
5.9578
5.66862
5.25738
4.62107
4.14919
2.23801
-0.58466
-0.495336
-0.376126
-0.253616
-0.114048
0.0457972
0.247735
0.454973
0.684138
0.937419
1.21581
1.52575
1.89341
2.2549
2.6373
3.03782
3.45129
3.8686
4.28239
4.81065
5.20035
5.55261
5.84838
6.06778
6.19507
6.21601
6.12766
5.9303
5.62579
5.20257
4.55944
4.09064
2.18391
-0.559061
-0.465744
-0.358794
-0.234581
-0.0746502
0.0900597
0.274726
0.482384
0.740649
1.00268
1.28842
1.59923
1.93489
2.29372
2.73563
3.14529
3.56705
3.99411
4.41624
4.8204
5.19158
5.51134
5.76006
6.20093
6.30506
6.31245
6.20865
5.98927
5.66782
5.24219
4.65062
3.56091
2.31525
-0.536307
-0.439657
-0.329073
-0.196454
-0.0368043
0.13237
0.321494
0.538595
0.797183
1.06374
1.35429
1.67003
2.01021
2.42758
2.82129
3.23075
3.65092
4.07307
4.48386
4.86464
5.3886
5.70833
5.96793
6.14735
6.23024
6.20152
6.05985
5.8098
5.45916
5.00317
4.34485
3.89123
2.00593
-0.513231
-0.409263
-0.282954
-0.148191
0.00569588
0.199139
0.397271
0.616423
0.860316
1.1606
1.4608
1.78477
2.13258
2.50199
2.89464
3.36946
3.79243
4.21478
4.62416
5.00365
5.33194
5.8288
6.06407
6.21834
6.27294
6.2095
6.01988
5.72331
5.33445
4.85223
4.18272
3.74048
1.87251
-0.470485
-0.365207
-0.228585
-0.087728
0.072587
0.273344
0.478626
0.705328
0.961156
1.26486
1.57145
1.90114
2.2535
2.68668
3.08748
3.499
3.91424
4.32153
4.71007
5.22533
5.56132
5.84264
6.04951
6.15914
6.15049
5.98852
6.14714
5.75807
5.29857
4.78298
4.16543
3.09823
1.90173
-0.421236
-0.294341
-0.163748
-0.0156985
0.170196
0.361077
0.573419
0.835139
1.09849
1.3854
1.73662
2.07788
2.43956
2.81929
3.21684
3.70083
4.11432
4.51486
4.88428
5.39724
5.71015
5.96354
6.13361
6.19548
6.13229
5.90703
6.01099
5.5319
4.98234
4.38751
3.72368
2.67529
1.5027
-0.342413
-0.220772
-0.0655812
0.0920083
0.269644
0.490098
0.71358
0.964677
1.26098
1.55873
1.88393
2.26926
2.63734
3.01903
3.49319
3.90152
4.30229
4.68017
5.1912
5.51834
5.79068
5.98217
6.0632
6.3744
6.23906
5.9774
5.56277
4.94509
4.76869
3.92245
3.0851
1.95075
0.744282
-0.259947
-0.114157
0.0349229
0.221724
0.411486
0.646604
0.88152
1.13838
1.45223
1.75951
2.13399
2.48802
2.85581
3.3103
3.70403
4.09106
4.59288
4.95922
5.27876
5.75666
5.98004
6.11506
6.11839
6.38492
6.16764
5.80958
5.28509
4.49247
4.03
2.72416
1.30643
-0.498209
-2.03295
-0.156003
-0.000678439
0.176842
0.356245
0.577647
0.82798
1.0748
1.37635
1.66936
2.02738
2.36449
2.72023
3.14697
3.52057
3.9916
4.3604
4.85136
5.18276
5.45508
5.89354
6.04007
6.07007
6.34456
6.14393
5.78355
5.78158
5.08177
4.06673
2.38965
0.316006
-3.66751
-8.39657
-13.4617
-0.0137312
0.152919
0.335989
0.525864
0.75522
1.01184
1.26209
1.56741
1.90256
2.21559
2.59978
3.01383
3.37005
3.82032
4.17081
4.63474
4.94076
5.38837
5.59704
5.98959
6.05551
5.989
6.18397
5.843
5.8634
5.22525
4.3159
3.52954
0.986437
-4.57641
-16.9058
-43.6432
-71.6573
0.0827337
0.26578
0.45635
0.645671
0.874184
1.12811
1.40728
1.71272
2.04536
2.40028
2.72376
3.1211
3.53676
3.87158
4.30339
4.73973
5.00908
5.42159
5.56741
5.90576
5.87023
6.08781
5.80508
5.85293
5.26797
5.06328
3.97493
2.90093
-0.537916
-8.95417
-31.0302
-97.2095
-206.966
-0.68205
-0.596772
-0.504527
-0.398752
-0.276626
-0.136453
0.0233525
0.205164
0.416065
0.667604
0.929345
1.21639
1.53076
1.87228
2.23966
2.63085
3.0423
3.46927
3.90554
4.34218
4.76704
5.16568
5.52162
5.81709
6.03463
6.16232
6.19394
6.10921
5.90693
5.56442
4.97365
4.48519
2.54252
-0.681081
-0.604325
-0.49943
-0.391053
-0.267553
-0.126127
0.0351643
0.217994
0.423901
0.654986
0.912001
1.20119
1.54497
1.89084
2.26165
2.65596
3.0703
3.4997
3.93771
4.37552
4.80156
5.20192
5.5607
5.86055
6.08445
6.21906
6.2453
6.15261
5.94903
5.62285
5.08982
4.01614
2.7322
-0.669345
-0.592928
-0.502519
-0.396774
-0.27338
-0.125547
0.0528023
0.242513
0.453804
0.689134
0.949978
1.23729
1.55164
1.89275
2.25948
2.64964
3.05991
3.48468
3.91638
4.34502
4.76391
5.14748
5.48498
5.75385
6.24131
6.06214
6.04591
6.34077
6.15832
5.30446
5.32915
4.29341
2.43147
-0.667062
-0.590305
-0.498743
-0.385862
-0.248372
-0.100698
0.0661825
0.254484
0.466177
0.702801
0.965213
1.25451
1.57029
1.91172
2.28253
2.72671
3.14554
3.57809
4.01755
4.4545
4.8781
5.27464
5.62805
5.92072
6.13557
6.26
6.27727
6.1792
5.97003
5.64192
5.12655
4.14903
2.33083
-0.655085
-0.57535
-0.481494
-0.370385
-0.224867
-0.0738226
0.0961594
0.287511
0.502237
0.742038
1.00789
1.30037
1.61997
1.96541
2.33455
2.72965
3.20653
3.64111
4.08136
4.51791
4.93957
5.33229
5.67995
5.96494
6.17013
6.28046
6.28458
6.17626
5.95298
5.60553
5.07777
4.09744
2.28243
-0.643648
-0.55109
-0.451364
-0.337331
-0.205978
-0.0557961
0.114878
0.308413
0.531925
0.797551
1.07285
1.37409
1.70214
2.05611
2.43457
2.83505
3.25332
3.68331
4.11726
4.54433
4.95076
5.32176
5.6433
5.89645
6.07278
6.14675
6.11325
5.9655
5.69375
5.25091
5.21028
4.15422
2.31016
-0.623255
-0.527494
-0.424355
-0.306569
-0.171231
-0.0171082
0.158395
0.362423
0.60576
0.859696
1.13868
1.44426
1.77677
2.13548
2.51838
2.92215
3.34216
3.77088
4.19801
4.61524
4.9925
5.51594
5.82735
6.07341
6.23802
6.30489
6.25778
6.09897
5.83132
5.45032
4.90446
3.92636
2.12761
-0.591759
-0.502375
-0.397841
-0.270618
-0.117091
0.0465014
0.229464
0.434641
0.663974
0.92001
1.23515
1.55092
1.89207
2.25837
2.6477
3.05682
3.48006
3.90963
4.33576
4.74712
5.12763
5.46272
5.72035
6.18076
6.32876
5.98404
6.27591
6.05817
5.75494
5.35818
4.80293
3.81856
2.02816
-0.554361
-0.45968
-0.349264
-0.216392
-0.0559638
0.114482
0.304721
0.517696
0.755468
1.04908
1.34454
1.6651
2.01125
2.38168
2.77357
3.18193
3.59931
4.01993
4.54732
4.95542
5.33525
5.67041
5.94246
6.13261
6.22645
6.20885
6.06545
5.81361
5.4628
5.00769
4.34951
3.91491
2.028
-0.51181
-0.409257
-0.275352
-0.137486
0.0179391
0.193417
0.396799
0.638969
0.889904
1.16448
1.46416
1.78909
2.18768
2.56877
2.9679
3.38045
3.79914
4.21298
4.60686
5.13747
5.49578
5.80599
6.04718
6.19789
6.23971
6.16367
5.96372
5.65246
5.23493
4.68292
4.61661
3.55241
1.75893
-0.456124
-0.33279
-0.205005
-0.059355
0.124472
0.313048
0.522022
0.755308
1.0424
1.32971
1.64017
1.9746
2.38462
2.77106
3.17212
3.58262
3.99377
4.39749
4.91682
5.28547
5.61089
5.87376
6.04652
6.08935
6.38912
6.22007
5.94566
5.55945
5.07402
4.52723
3.89219
2.84891
1.68411
-0.370905
-0.250335
-0.0969847
0.0593797
0.235525
0.454862
0.67725
0.922234
1.22296
1.5207
1.84087
2.23256
2.60282
2.9876
3.38154
3.87647
4.28629
4.68087
5.04389
5.35962
5.83425
6.04489
6.16499
6.16134
6.00565
6.15541
5.75061
5.22648
4.5897
3.88419
3.07644
2.65454
0.828606
-0.271542
-0.127017
0.0203752
0.205647
0.39383
0.627598
0.86093
1.11625
1.42851
1.73415
2.10719
2.45939
2.82554
3.27817
3.67003
4.05474
4.55393
4.91673
5.23302
5.70797
5.92909
6.06292
6.06577
6.33202
6.11337
5.74701
5.18057
4.98967
4.00239
2.86056
1.65955
0.191544
-1.07002
-0.154302
-0.00352381
0.169195
0.343341
0.558857
0.80223
1.04207
1.33518
1.61964
1.96701
2.34307
2.69721
3.05375
3.49874
3.86322
4.33402
4.67068
5.14
5.40126
5.82795
5.97562
6.00237
6.27841
6.0873
5.7311
5.73762
5.05596
4.10146
2.58069
0.849575
-2.33935
-5.266
-7.49411
-0.0418292
0.108195
0.282863
0.460706
0.676022
0.91763
1.18596
1.47715
1.76208
2.10579
2.47941
2.81094
3.22413
3.65661
4.00362
4.45801
4.75952
5.2005
5.4073
5.79022
5.84009
6.12956
5.9901
5.69756
5.73286
5.0945
4.83629
3.6459
1.61133
-1.71442
-9.85338
-19.8566
-24.1949
-0.783493
-0.727451
-0.659081
-0.577545
-0.481281
-0.368699
-0.238471
-0.088709
0.0824072
0.280685
0.498932
0.742998
1.01488
1.34431
1.67997
2.00112
2.37958
2.78107
3.20044
3.72109
4.07689
4.51253
4.9295
5.31322
5.64792
5.91716
6.10492
6.19682
6.18223
6.04653
5.78211
5.29439
4.23881
2.92121
-0.777017
-0.720527
-0.652292
-0.570704
-0.4744
-0.361654
-0.231045
-0.0803974
0.0916447
0.286703
0.506338
0.751889
1.02447
1.3251
1.65376
2.0099
2.39197
2.79691
3.22035
3.6566
4.09809
4.53435
4.95298
5.34008
5.68071
5.9589
6.15545
6.25195
6.24212
6.11193
5.84069
5.34814
4.28741
2.97798
-0.783898
-0.716566
-0.643171
-0.557955
-0.458511
-0.342959
-0.209476
-0.0561859
0.118409
0.316094
0.538517
0.787082
1.06291
1.36675
1.69887
2.05886
2.44533
2.85529
3.28445
3.72682
4.17455
4.6178
5.04517
5.44522
5.8097
5.84854
6.01501
6.44442
6.05109
5.91773
5.62755
5.07075
4.60451
2.69932
-0.76985
-0.710869
-0.64003
-0.555743
-0.456384
-0.340235
-0.205873
-0.0514835
0.124672
0.324243
0.548475
0.7991
1.07684
1.38225
1.71533
2.07535
2.46076
2.86885
3.29555
3.73499
4.17927
4.61782
5.03692
5.42159
5.75583
6.0227
6.20283
6.28188
6.25526
6.11031
5.83119
5.35469
4.38789
2.55509
-0.759987
-0.698644
-0.625457
-0.538821
-0.437088
-0.31848
-0.181512
-0.0243476
0.154771
0.357483
0.585254
0.839389
1.12099
1.43044
1.76758
2.13161
2.52064
2.93168
3.36046
3.80116
4.24599
4.68342
5.09931
5.47949
5.80589
6.0609
6.22826
6.2946
6.25042
6.08839
5.79485
5.30899
4.33902
2.50661
-0.756947
-0.694955
-0.61997
-0.531128
-0.426839
-0.305485
-0.165502
-0.00552368
0.181089
0.387273
0.618511
0.876904
1.18981
1.50999
1.81891
2.18334
2.62735
2.98544
3.40898
3.93799
4.27742
4.69538
5.25902
5.45181
5.75681
5.98352
6.11783
6.14841
6.06724
5.86675
5.52406
4.93419
4.47344
2.57743
-0.740889
-0.676226
-0.598349
-0.506322
-0.398539
-0.273398
-0.124732
0.0404784
0.229167
0.46003
0.702676
0.970218
1.26505
1.58804
1.93881
2.31604
2.71765
3.13943
3.57553
4.01845
4.45919
4.88503
5.28107
5.63599
5.93256
6.15282
6.27677
6.29592
6.20523
6.00262
5.67912
5.1656
4.18638
2.35705
-0.717005
-0.644878
-0.561228
-0.463835
-0.350692
-0.219879
-0.0699006
0.101065
0.2945
0.512647
0.756413
1.02699
1.32489
1.65515
2.00723
2.38455
2.84375
3.2026
3.62654
4.1577
4.602
4.87294
5.41399
5.75587
6.04545
5.94106
6.34075
6.31271
6.19383
6.00393
5.11453
5.14709
4.12049
2.2753
-0.702021
-0.623546
-0.526235
-0.421176
-0.301302
-0.163862
-0.00709541
0.17102
0.371732
0.597065
0.853071
1.13193
1.46842
1.80808
2.17306
2.56211
2.97187
3.39697
3.83086
4.26575
4.69207
5.09585
5.46086
5.77358
6.01706
6.17163
6.22185
6.15905
5.98998
5.7126
5.33364
4.76549
3.67339
2.42322
-0.662643
-0.574146
-0.478778
-0.369662
-0.244063
-0.0996105
0.065991
0.274999
0.490273
0.728287
0.9911
1.28006
1.59578
1.93738
2.3033
2.69531
3.09805
3.59335
4.02813
4.45958
4.87641
5.2655
5.61098
5.89599
6.09923
6.20466
6.20087
6.08673
5.86504
5.53109
5.08615
4.4321
3.99075
2.09481
-0.610973
-0.523986
-0.423322
-0.306309
-0.154818
0.00159415
0.17688
0.374152
0.595764
0.870545
1.14803
1.44972
1.77639
2.12708
2.49902
2.89385
3.37094
3.7962
4.22159
4.63735
5.03255
5.39204
5.69665
5.92129
6.03552
6.37788
6.29038
6.10452
5.81702
5.43727
4.97657
4.38923
3.33172
2.10738
-0.551533
-0.457542
-0.333513
-0.206175
-0.0616736
0.107509
0.309021
0.519736
0.7535
1.04195
1.33048
1.64211
1.97713
2.33347
2.77091
3.17218
3.58265
3.99445
4.39417
4.92209
5.29369
5.62043
5.88403
6.0634
6.13041
6.0542
6.26636
5.96575
5.57161
5.08913
4.55376
3.93696
2.89479
1.72999
-0.473453
-0.367167
-0.239185
-0.101468
0.0712514
0.248913
0.469515
0.69223
0.937211
1.23783
1.53472
1.8534
2.24326
2.60957
2.98889
3.46083
3.86679
4.26532
4.64214
5.15434
5.48129
5.75194
5.94246
6.01553
6.33434
6.20506
5.94856
5.53505
4.92905
4.80146
4.03903
3.30231
2.28366
1.17184
-0.369304
-0.244989
-0.118819
0.0414509
0.225741
0.410421
0.639774
0.868767
1.14991
1.42605
1.76407
2.08616
2.48235
2.84359
3.21059
3.67123
4.04421
4.53402
4.88263
5.18297
5.64307
5.83724
5.92545
6.25062
6.14781
5.91396
5.50045
5.4617
4.72454
3.78572
2.61828
2.18502
1.03368
0.0123037
-0.279033
-0.154153
-0.0105872
0.153713
0.335496
0.524402
0.75336
1.0099
1.26038
1.56691
1.90476
2.21901
2.60658
2.94826
3.37484
3.82123
4.17496
4.64147
4.9585
5.21114
5.62588
5.73448
6.06652
5.99952
5.78569
5.88231
5.35362
5.21444
4.34207
3.1242
1.32254
0.208124
-0.683505
-1.3577
-0.806851
-0.754524
-0.690639
-0.614017
-0.523474
-0.418453
-0.307737
-0.168882
0.00534527
0.17684
0.382628
0.615437
0.875818
1.1647
1.48239
1.82841
2.19653
2.59418
3.01265
3.44724
3.89162
4.33655
4.77068
5.18101
5.55324
5.87273
6.12502
6.29399
6.36921
6.36459
5.75143
5.34979
4.33533
3.0238
-0.804488
-0.760985
-0.700951
-0.626783
-0.537841
-0.432831
-0.310362
-0.168541
-0.00560838
0.179783
0.389614
0.620573
0.882987
1.17331
1.49216
1.8395
2.21442
2.61463
3.03656
3.47506
3.92339
4.37268
4.81273
5.23235
5.62071
5.97032
5.97065
6.1236
6.16162
6.07281
5.84998
5.39935
4.37582
3.08673
-0.814803
-0.76243
-0.698663
-0.622024
-0.530956
-0.423864
-0.299333
-0.155453
0.00946665