/*--------------------------------*- C++ -*----------------------------------*\
| =========                 |                                                 |
| \\      /  F ield         | OpenFOAM: The Open Source CFD Toolbox           |
|  \\    /   O peration     | Version:  2412                                  |
|   \\  /    A nd           | Website:  www.openfoam.com                      |
|    \\/     M anipulation  |                                                 |
\*---------------------------------------------------------------------------*/
FoamFile
{
    version     2.0;
    format      ascii;
    arch        "LSB;label=32;scalar=64";
    class       volScalarField;
    location    "0.0350058";
    object      Jsi;
}
// * * * * * * * * * * * * * * * * * * * * * * * * * * * * * * * * * * * * * //

dimensions      [0 0 0 0 0 0 0];

internalField   nonuniform List<scalar> 
8670
(
-0.180533
-0.177968
-0.17534
-0.172702
-0.169961
-0.167103
-0.164118
-0.160983
-0.157692
-0.154235
-0.150658
-0.146812
-0.142762
-0.138501
-0.134138
-0.129511
-0.124535
-0.119385
-0.113942
-0.108104
-0.102159
-0.0957506
-0.0891316
-0.0822124
-0.0749873
-0.0674794
-0.0597652
-0.0516112
-0.0433804
-0.0348718
-0.0270598
-0.0218522
-0.180426
-0.177947
-0.175278
-0.172535
-0.169771
-0.1669
-0.163902
-0.16076
-0.157519
-0.154057
-0.150405
-0.146549
-0.1425
-0.138363
-0.133978
-0.129231
-0.124217
-0.11914
-0.113625
-0.107897
-0.101859
-0.0954137
-0.0888588
-0.0818379
-0.0746975
-0.0670871
-0.0593688
-0.0511967
-0.0429779
-0.0346646
-0.0267111
-0.0215026
-0.180165
-0.177685
-0.175133
-0.172475
-0.169675
-0.166643
-0.163564
-0.160385
-0.157084
-0.153746
-0.150144
-0.146389
-0.142338
-0.138058
-0.133538
-0.128903
-0.123984
-0.118701
-0.113317
-0.10748
-0.101309
-0.0950396
-0.088302
-0.0814396
-0.0741085
-0.0666614
-0.0587467
-0.0507521
-0.0424458
-0.0340363
-0.0261163
-0.0209773
-0.179898
-0.177406
-0.174822
-0.172021
-0.169198
-0.166281
-0.163237
-0.160057
-0.156728
-0.153231
-0.149573
-0.145854
-0.141908
-0.137638
-0.133102
-0.128321
-0.123481
-0.118195
-0.112594
-0.106907
-0.100757
-0.0944784
-0.087726
-0.0807573
-0.0734973
-0.0659319
-0.0580902
-0.0500574
-0.041616
-0.033238
-0.0252352
-0.0200047
-0.17948
-0.176978
-0.174402
-0.171698
-0.168773
-0.16581
-0.16274
-0.159535
-0.156187
-0.152686
-0.149128
-0.1453
-0.141296
-0.136984
-0.132414
-0.127594
-0.122721
-0.117401
-0.111762
-0.106044
-0.0998641
-0.0935541
-0.0867689
-0.0798501
-0.0724778
-0.064964
-0.0570082
-0.048946
-0.040477
-0.0320778
-0.0240601
-0.0188193
-0.178998
-0.17637
-0.173691
-0.171003
-0.168206
-0.165292
-0.162248
-0.159049
-0.155689
-0.152158
-0.148506
-0.144577
-0.140431
-0.136066
-0.131593
-0.126848
-0.121724
-0.116319
-0.110843
-0.104916
-0.0987773
-0.0923183
-0.0854394
-0.0784618
-0.0710136
-0.0634652
-0.0554443
-0.0473637
-0.0390722
-0.0305232
-0.0226612
-0.0174085
-0.178278
-0.175663
-0.172985
-0.170288
-0.167482
-0.164552
-0.161486
-0.158267
-0.154881
-0.151312
-0.147556
-0.143661
-0.139475
-0.135056
-0.130404
-0.125626
-0.120561
-0.115127
-0.109509
-0.103591
-0.0972705
-0.0908448
-0.0839637
-0.0769477
-0.069482
-0.0617957
-0.053841
-0.045703
-0.037177
-0.0287405
-0.0207481
-0.0155552
-0.177316
-0.174806
-0.172176
-0.16934
-0.166483
-0.163459
-0.160361
-0.157107
-0.153682
-0.150089
-0.14636
-0.142347
-0.13811
-0.133625
-0.128898
-0.124138
-0.118938
-0.113436
-0.107838
-0.101784
-0.0953986
-0.0889166
-0.0819789
-0.0749114
-0.0673968
-0.0597448
-0.0516615
-0.0434833
-0.0349275
-0.0264878
-0.0185989
-0.0137724
-0.176264
-0.173714
-0.17096
-0.168123
-0.165256
-0.162273
-0.159139
-0.155826
-0.152239
-0.148679
-0.144869
-0.140829
-0.136622
-0.132106
-0.127325
-0.122296
-0.117113
-0.111629
-0.10577
-0.0997187
-0.0933666
-0.086619
-0.0797616
-0.0724597
-0.0649343
-0.0571373
-0.0489378
-0.0407098
-0.0322234
-0.023759
-0.0161284
-0.0126824
-0.174904
-0.172272
-0.169595
-0.166692
-0.163765
-0.160735
-0.1575
-0.154166
-0.150654
-0.146962
-0.143063
-0.139013
-0.134668
-0.13007
-0.125209
-0.120091
-0.114829
-0.10927
-0.103307
-0.0970289
-0.090678
-0.0838778
-0.0769491
-0.0695674
-0.0618559
-0.0540689
-0.0458398
-0.0375646
-0.0289716
-0.0207178
-0.0139151
-0.0121938
-0.173338
-0.170592
-0.167891
-0.165063
-0.162013
-0.158917
-0.155628
-0.152236
-0.148666
-0.144908
-0.140943
-0.136753
-0.132325
-0.127721
-0.122779
-0.11756
-0.112062
-0.10628
-0.100424
-0.0941043
-0.087464
-0.0807279
-0.0735434
-0.0660352
-0.0584499
-0.0504338
-0.0423344
-0.0338683
-0.0254719
-0.0174237
-0.0125789
-0.0120083
-0.171336
-0.16856
-0.165803
-0.162842
-0.159847
-0.156664
-0.15336
-0.149772
-0.146087
-0.142236
-0.138182
-0.133913
-0.129404
-0.124636
-0.119595
-0.114278
-0.108681
-0.103009
-0.0969015
-0.0904651
-0.0837293
-0.0769013
-0.0696222
-0.0620364
-0.0543746
-0.0462882
-0.0379332
-0.0296182
-0.0212253
-0.0142324
-0.0121606
0
-0.168832
-0.1661
-0.163226
-0.160268
-0.157224
-0.153923
-0.150547
-0.146919
-0.143042
-0.139083
-0.134944
-0.130588
-0.125995
-0.121143
-0.116016
-0.110615
-0.104926
-0.0989586
-0.092822
-0.0864076
-0.0795995
-0.072494
-0.0650926
-0.0576157
-0.0497262
-0.0415562
-0.0333734
-0.0249599
-0.0170155
-0.0125406
-0.0119987
0
-0.166197
-0.163423
-0.160547
-0.157534
-0.154375
-0.151041
-0.147533
-0.143811
-0.14
-0.136008
-0.131776
-0.127106
-0.122366
-0.117407
-0.1122
-0.106726
-0.100969
-0.0949219
-0.0885857
-0.0819773
-0.07529
-0.0681703
-0.0607456
-0.0530461
-0.0450792
-0.0370694
-0.0287689
-0.0205475
-0.0137343
-0.0121316
0
0
-0.164041
-0.161238
-0.158244
-0.155307
-0.152078
-0.148822
-0.145239
-0.141609
-0.137619
-0.13358
-0.129313
-0.124609
-0.119837
-0.114843
-0.109597
-0.104089
-0.0983029
-0.0922359
-0.0858844
-0.0792486
-0.0723329
-0.0651359
-0.0576723
-0.0499375
-0.0419379
-0.0338136
-0.025617
-0.0177269
-0.0126149
-0.012045
0
0
-0.185561
-0.183041
-0.180497
-0.177798
-0.174992
-0.172095
-0.169195
-0.166157
-0.162896
-0.159591
-0.156106
-0.152358
-0.148601
-0.144492
-0.140254
-0.135767
-0.131033
-0.126026
-0.120822
-0.115163
-0.109371
-0.103107
-0.0967279
-0.0900513
-0.0828873
-0.0755974
-0.0680249
-0.0599739
-0.0518425
-0.0435998
-0.0356631
-0.0305076
-0.18545
-0.182931
-0.180317
-0.177608
-0.174813
-0.17203
-0.169118
-0.165981
-0.162704
-0.159455
-0.155889
-0.152113
-0.148347
-0.14423
-0.140053
-0.135481
-0.13082
-0.125724
-0.120517
-0.114848
-0.109072
-0.103008
-0.0964617
-0.0897776
-0.0827098
-0.0753262
-0.0677335
-0.059777
-0.0515531
-0.0432713
-0.0353027
-0.0302225
-0.185363
-0.182841
-0.180229
-0.177528
-0.174775
-0.171856
-0.168826
-0.165789
-0.162603
-0.15919
-0.155704
-0.152019
-0.148048
-0.144059
-0.139702
-0.135268
-0.130424
-0.125478
-0.120084
-0.114589
-0.108736
-0.102558
-0.0961366
-0.0892399
-0.0822234
-0.0749149
-0.0671153
-0.0592117
-0.0510679
-0.0426034
-0.0348108
-0.029589
-0.184896
-0.182382
-0.179885
-0.17722
-0.174428
-0.171569
-0.168526
-0.165359
-0.162244
-0.15883
-0.155231
-0.151643
-0.147708
-0.143721
-0.139354
-0.134832
-0.130049
-0.125
-0.119659
-0.11412
-0.108117
-0.101968
-0.0953298
-0.0885842
-0.0815536
-0.0740148
-0.0663651
-0.0584538
-0.0500828
-0.0417798
-0.0340004
-0.0287691
-0.184503
-0.182072
-0.179491
-0.176792
-0.174035
-0.171103
-0.16804
-0.164857
-0.161724
-0.15829
-0.154665
-0.151052
-0.147096
-0.143091
-0.138708
-0.134232
-0.129349
-0.124343
-0.1189
-0.113325
-0.107286
-0.1011
-0.094423
-0.0876408
-0.0805756
-0.0730005
-0.0653165
-0.057373
-0.048969
-0.0406387
-0.0328361
-0.0275915
-0.184075
-0.181533
-0.178898
-0.17616
-0.173318
-0.170369
-0.167428
-0.164337
-0.16102
-0.157654
-0.154101
-0.150281
-0.146438
-0.142239
-0.137893
-0.13328
-0.128299
-0.123269
-0.117904
-0.112219
-0.106307
-0.0999263
-0.0933859
-0.0863607
-0.0792305
-0.0718164
-0.0639037
-0.0559011
-0.0476783
-0.0392457
-0.0313301
-0.0260477
-0.183355
-0.180856
-0.178215
-0.17547
-0.172617
-0.169661
-0.166695
-0.163581
-0.160219
-0.156704
-0.153193
-0.14934
-0.145268
-0.141169
-0.13669
-0.132131
-0.127149
-0.122063
-0.116523
-0.110855
-0.104717
-0.0984592
-0.0919103
-0.0848771
-0.0776944
-0.0700207
-0.0622438
-0.0542118
-0.0457297
-0.0373136
-0.0294362
-0.0241506
-0.182412
-0.179841
-0.177177
-0.174427
-0.171691
-0.168766
-0.165746
-0.162505
-0.15912
-0.155685
-0.152059
-0.14815
-0.144211
-0.13989
-0.135305
-0.130679
-0.125617
-0.120462
-0.114846
-0.109137
-0.103062
-0.0966673
-0.0900325
-0.0829274
-0.0756789
-0.0679368
-0.0601032
-0.0520192
-0.043486
-0.0350213
-0.0271035
-0.0217995
-0.18141
-0.178823
-0.176139
-0.173355
-0.170484
-0.167603
-0.164573
-0.16131
-0.15787
-0.154284
-0.150694
-0.146756
-0.142586
-0.138379
-0.133789
-0.1291
-0.123975
-0.118533
-0.113021
-0.107164
-0.100985
-0.0945766
-0.0877083
-0.0806839
-0.0731945
-0.065592
-0.0576313
-0.0493926
-0.0409822
-0.0322765
-0.0243009
-0.0189841
-0.180202
-0.177615
-0.174932
-0.172135
-0.169282
-0.166249
-0.163068
-0.159736
-0.15626
-0.152734
-0.14901
-0.144999
-0.140873
-0.136505
-0.131805
-0.127027
-0.121841
-0.116443
-0.110739
-0.104623
-0.0984269
-0.0918743
-0.0850096
-0.0779075
-0.0703466
-0.0626591
-0.0545051
-0.0462759
-0.0378438
-0.0291468
-0.0211834
-0.015899
-0.178525
-0.175936
-0.173247
-0.17044
-0.167504
-0.164439
-0.161229
-0.15786
-0.154342
-0.150764
-0.146981
-0.142893
-0.138574
-0.134208
-0.129442
-0.124391
-0.119259
-0.113691
-0.107991
-0.101815
-0.0953012
-0.0887167
-0.0817653
-0.0745161
-0.067035
-0.0591126
-0.0510734
-0.0426118
-0.0341232
-0.0255237
-0.0177162
-0.0131922
-0.176545
-0.173925
-0.17121
-0.168375
-0.165412
-0.162317
-0.159067
-0.15565
-0.152056
-0.148289
-0.144331
-0.140279
-0.135983
-0.131345
-0.126449
-0.121477
-0.116076
-0.110355
-0.104551
-0.0982952
-0.0918943
-0.0850346
-0.0778272
-0.0705556
-0.0629317
-0.0550326
-0.0469341
-0.0384372
-0.0299343
-0.0213908
-0.0143877
-0.0122804
-0.174193
-0.171535
-0.168783
-0.165827
-0.162673
-0.159464
-0.15614
-0.152668
-0.14904
-0.145357
-0.141457
-0.137239
-0.132769
-0.128042
-0.123054
-0.117988
-0.112487
-0.106656
-0.100528
-0.0943238
-0.0876689
-0.0808818
-0.0736357
-0.0660641
-0.0584172
-0.0503267
-0.0421717
-0.0336368
-0.0251971
-0.0171132
-0.0125661
-0.0120462
-0.171486
-0.168784
-0.165927
-0.163038
-0.160023
-0.156829
-0.153297
-0.149748
-0.146047
-0.142159
-0.138062
-0.133741
-0.129183
-0.124389
-0.119535
-0.114262
-0.10867
-0.102769
-0.0965744
-0.0902847
-0.0835456
-0.0764853
-0.0691962
-0.0616854
-0.0538242
-0.0458765
-0.0375312
-0.0290674
-0.0207338
-0.0137741
-0.0121402
0
-0.16926
-0.166603
-0.163738
-0.160799
-0.15779
-0.154462
-0.151121
-0.147625
-0.143914
-0.139865
-0.135697
-0.131326
-0.126726
-0.121879
-0.116788
-0.111549
-0.105956
-0.100049
-0.0938368
-0.0873295
-0.0805163
-0.0734854
-0.0662255
-0.0586188
-0.0507101
-0.0427399
-0.0344026
-0.0259128
-0.0179462
-0.0126427
-0.0120547
0
-0.18961
-0.187032
-0.184524
-0.181796
-0.178962
-0.176198
-0.173204
-0.170246
-0.167018
-0.163833
-0.160453
-0.156865
-0.153184
-0.149157
-0.145098
-0.140819
-0.136127
-0.131348
-0.126316
-0.120811
-0.115194
-0.109306
-0.103102
-0.0963912
-0.0895421
-0.0824163
-0.0749762
-0.0670242
-0.0589848
-0.0508447
-0.0431698
-0.0379728
-0.189497
-0.187004
-0.184421
-0.181685
-0.179017
-0.17613
-0.173276
-0.170179
-0.167085
-0.163729
-0.160364
-0.156692
-0.153013
-0.14916
-0.14494
-0.140653
-0.136057
-0.131175
-0.126121
-0.120792
-0.114992
-0.109069
-0.102856
-0.0962471
-0.0892905
-0.0821234
-0.0746802
-0.066932
-0.0587103
-0.0505222
-0.0428292
-0.0376294
-0.189374
-0.186797
-0.18413
-0.181548
-0.178749
-0.175997
-0.173013
-0.170047
-0.166824
-0.163598
-0.160078
-0.156538
-0.152669
-0.148793
-0.144714
-0.140242
-0.135702
-0.130916
-0.125674
-0.120327
-0.114715
-0.108713
-0.102365
-0.0958043
-0.0889552
-0.081776
-0.074093
-0.0662954
-0.0582693
-0.0501055
-0.0422119
-0.0371447
-0.189105
-0.186596
-0.183937
-0.18128
-0.178511
-0.17557
-0.172685
-0.169563
-0.166489
-0.163224
-0.15978
-0.156247
-0.152378
-0.14846
-0.144171
-0.139838
-0.135282
-0.130271
-0.125173
-0.119834
-0.114191
-0.108049
-0.101771
-0.0952042
-0.0882335
-0.0809109
-0.073382
-0.0655976
-0.0575615
-0.0492925
-0.0414695
-0.0362967
-0.188684
-0.186165
-0.183501
-0.18091
-0.1781
-0.175263
-0.172309
-0.169255
-0.166074
-0.162766
-0.159289
-0.155726
-0.15184
-0.147917
-0.143725
-0.13928
-0.134663
-0.129613
-0.124477
-0.119096
-0.113412
-0.10723
-0.100913
-0.0943156
-0.0873095
-0.0799506
-0.0723853
-0.0645651
-0.0564942
-0.048192
-0.0403434
-0.0351539
-0.188151
-0.185646
-0.183048
-0.180292
-0.177591
-0.174651
-0.17158
-0.168564
-0.165276
-0.162034
-0.158651
-0.154936
-0.151176
-0.147068
-0.142915
-0.138463
-0.133735
-0.128847
-0.12362
-0.118073
-0.112321
-0.106267
-0.099716
-0.093037
-0.0860814
-0.0788012
-0.0710055
-0.063101
-0.0549795
-0.0467366
-0.0388633
-0.0336873
-0.187486
-0.184872
-0.182331
-0.179566
-0.176693
-0.173883
-0.170835
-0.167808
-0.164508
-0.161216
-0.157619
-0.154022
-0.150192
-0.146124
-0.141909
-0.137303
-0.132622
-0.127693
-0.122296
-0.116785
-0.11099
-0.104698
-0.0982764
-0.0915782
-0.0845565
-0.0770234
-0.0693665
-0.0614549
-0.0532818
-0.0447702
-0.0369184
-0.0316301
-0.186578
-0.184103
-0.181415
-0.178618
-0.175899
-0.172944
-0.170019
-0.16684
-0.163657
-0.160197
-0.156709
-0.152903
-0.149055
-0.144854
-0.140607
-0.136057
-0.131224
-0.126203
-0.120725
-0.115149
-0.109307
-0.103071
-0.0964976
-0.0897031
-0.0826015
-0.074991
-0.0672683
-0.059297
-0.0510704
-0.0425043
-0.0346073
-0.029294
-0.185565
-0.183084
-0.180389
-0.177582
-0.174838
-0.171843
-0.168704
-0.165614
-0.162245
-0.158882
-0.155201
-0.151496
-0.147443
-0.143367
-0.139077
-0.134374
-0.129556
-0.12429
-0.118928
-0.113295
-0.107168
-0.100919
-0.0943655
-0.0873027
-0.0801232
-0.0726746
-0.0649196
-0.0566774
-0.0483605
-0.0399457
-0.0319312
-0.0266807
-0.18442
-0.18177
-0.179128
-0.17638
-0.17346
-0.17052
-0.167433
-0.164144
-0.160883
-0.157334
-0.153758
-0.149848
-0.145886
-0.141569
-0.137175
-0.132373
-0.127495
-0.122274
-0.11674
-0.110984
-0.104757
-0.0984119
-0.0917658
-0.084619
-0.0773509
-0.0698036
-0.061748
-0.053601
-0.0452492
-0.0367829
-0.0286409
-0.0234107
-0.182814
-0.18025
-0.177516
-0.174664
-0.17171
-0.168812
-0.165648
-0.16232
-0.159024
-0.155432
-0.151802
-0.147815
-0.143587
-0.139358
-0.134909
-0.130044
-0.125062
-0.11964
-0.114087
-0.108072
-0.101926
-0.095416
-0.088582
-0.0815139
-0.0739522
-0.0662985
-0.058392
-0.0501197
-0.0415959
-0.0330414
-0.0249159
-0.0196176
-0.180972
-0.178303
-0.17553
-0.172645
-0.169661
-0.166734
-0.163538
-0.160154
-0.156604
-0.153093
-0.149265
-0.145383
-0.141118
-0.136585
-0.132012
-0.12701
-0.121926
-0.116385
-0.110756
-0.104837
-0.0984505
-0.0918984
-0.0848793
-0.0777201
-0.0700751
-0.0623349
-0.0543383
-0.0458817
-0.0373788
-0.0288163
-0.0206565
-0.0153441
-0.178515
-0.175853
-0.173082
-0.17019
-0.167174
-0.16405
-0.16097
-0.157598
-0.154028
-0.150286
-0.14653
-0.142417
-0.138056
-0.133628
-0.128799
-0.123672
-0.118473
-0.112829
-0.107071
-0.100856
-0.094502
-0.0876878
-0.0807287
-0.0733096
-0.0657663
-0.0577575
-0.0496755
-0.0413592
-0.0326715
-0.024144
-0.0163632
-0.0127058
-0.175804
-0.173161
-0.170414
-0.167552
-0.16456
-0.161427
-0.158151
-0.154713
-0.151092
-0.147282
-0.143293
-0.139271
-0.134876
-0.130209
-0.125282
-0.120272
-0.114831
-0.10908
-0.103222
-0.0969092
-0.0903419
-0.0835242
-0.0763273
-0.0690172
-0.0612546
-0.0533837
-0.0450809
-0.0367189
-0.0280467
-0.0197602
-0.0133127
-0.0121741
-0.173674
-0.171045
-0.168161
-0.165311
-0.162354
-0.159257
-0.156006
-0.152585
-0.148978
-0.14517
-0.141152
-0.136915
-0.132447
-0.127726
-0.122736
-0.117561
-0.112167
-0.106401
-0.100328
-0.0941346
-0.0875013
-0.0805509
-0.0734777
-0.0659753
-0.0582347
-0.0502533
-0.0419402
-0.0335841
-0.024985
-0.0170225
-0.0124582
-0.0119831
-0.195434
-0.192884
-0.190395
-0.187721
-0.185109
-0.182379
-0.17954
-0.176693
-0.173688
-0.170538
-0.16736
-0.164058
-0.16044
-0.156824
-0.153063
-0.149094
-0.14472
-0.140289
-0.135666
-0.130802
-0.125665
-0.120143
-0.114277
-0.108198
-0.101833
-0.0951641
-0.088181
-0.0807842
-0.0730357
-0.0651082
-0.0570665
-0.0494756
-0.0443046
-0.195273
-0.192717
-0.190247
-0.187724
-0.184988
-0.182286
-0.179366
-0.176513
-0.173568
-0.170352
-0.16717
-0.163888
-0.160448
-0.156675
-0.152889
-0.148932
-0.144752
-0.140142
-0.135463
-0.13057
-0.125419
-0.119982
-0.114148
-0.107957
-0.101553
-0.0948672
-0.0878773
-0.0805721
-0.0729576
-0.0649683
-0.0567936
-0.0491575
-0.0441347
-0.195047
-0.192611
-0.189989
-0.187448
-0.184855
-0.182041
-0.179281
-0.17643
-0.173331
-0.170263
-0.16708
-0.163604
-0.160141
-0.156535
-0.152743
-0.148579
-0.144373
-0.139976
-0.135339
-0.13035
-0.125035
-0.119524
-0.113747
-0.107668
-0.101275
-0.0944684
-0.0872933
-0.0799029
-0.0722542
-0.0643587
-0.0563221
-0.0487112
-0.0435327
-0.194858
-0.192428
-0.189802
-0.187238
-0.184477
-0.181781
-0.179011
-0.176001
-0.173037
-0.169976
-0.166626
-0.163287
-0.159837
-0.156213
-0.152229
-0.148214
-0.144024
-0.13959
-0.134705
-0.129723
-0.124507
-0.119018
-0.113228
-0.107108
-0.100456
-0.0936587
-0.0865825
-0.0792204
-0.0715737
-0.0636645
-0.0555944
-0.0477495
-0.0426996
-0.194447
-0.192011
-0.189386
-0.186836
-0.184173
-0.181399
-0.178594
-0.175556
-0.172583
-0.169529
-0.166279
-0.162853
-0.159355
-0.155696
-0.151685
-0.147647
-0.143431
-0.138992
-0.134206
-0.129104
-0.123822
-0.118281
-0.112449
-0.106308
-0.0997497
-0.0928341
-0.0856938
-0.0782792
-0.070586
-0.0626341
-0.0545248
-0.046646
-0.0415758
-0.194003
-0.191434
-0.188928
-0.186225
-0.183598
-0.180907
-0.177979
-0.175095
-0.172051
-0.168862
-0.165638
-0.162277
-0.1586
-0.154917
-0.151067
-0.147007
-0.14255
-0.138032
-0.133303
-0.128308
-0.122942
-0.117239
-0.11133
-0.105135
-0.0986337
-0.0918094
-0.0845701
-0.0769811
-0.0691888
-0.0611708
-0.0530285
-0.0453282
-0.0400963
-0.193393
-0.19082
-0.188305
-0.185599
-0.182958
-0.180192
-0.177307
-0.17439
-0.171219
-0.168083
-0.164838
-0.161279
-0.157728
-0.154038
-0.15015
-0.14587
-0.141535
-0.137004
-0.132208
-0.126937
-0.121553
-0.115916
-0.109993
-0.10376
-0.0971149
-0.0900993
-0.0828638
-0.0753558
-0.0675701
-0.0595271
-0.0513306
-0.0433874
-0.0382728
-0.192542
-0.190087
-0.187446
-0.184851
-0.182052
-0.179294
-0.176305
-0.173385
-0.170366
-0.16706
-0.163778
-0.160359
-0.156611
-0.152863
-0.148952
-0.144811
-0.140263
-0.135645
-0.130799
-0.125667
-0.120053
-0.114314
-0.108307
-0.101993
-0.0953508
-0.0881759
-0.0808667
-0.0732952
-0.06545
-0.0573528
-0.0491051
-0.0411139
-0.035975
-0.191524
-0.189063
-0.186416
-0.183816
-0.181011
-0.178241
-0.175243
-0.1723
-0.169259
-0.16593
-0.162593
-0.15895
-0.155318
-0.151543
-0.147569
-0.143201
-0.138759
-0.134085
-0.128952
-0.123721
-0.118244
-0.112477
-0.106314
-0.0997905
-0.0930527
-0.0860319
-0.0787011
-0.0710487
-0.0628999
-0.0546711
-0.0463504
-0.0385092
-0.0332026
-0.19035
-0.187722
-0.185175
-0.182435
-0.179738
-0.176823
-0.173945
-0.170816
-0.167736
-0.16454
-0.161035
-0.157506
-0.153649
-0.149797
-0.145778
-0.141452
-0.136857
-0.132106
-0.127086
-0.121598
-0.115997
-0.110125
-0.10394
-0.0972485
-0.0904223
-0.0833169
-0.0758916
-0.0679527
-0.0599017
-0.0516364
-0.0432624
-0.035364
-0.0300277
-0.188678
-0.186206
-0.183539
-0.180925
-0.178104
-0.175313
-0.172298
-0.169293
-0.166029
-0.162766
-0.159213
-0.155637
-0.151721
-0.147798
-0.143677
-0.139163
-0.134572
-0.12974
-0.124452
-0.119047
-0.113361
-0.107187
-0.100886
-0.0942982
-0.0873936
-0.0799905
-0.0724628
-0.064662
-0.0565591
-0.0480044
-0.0395064
-0.0315386
-0.0261694
-0.186894
-0.184282
-0.181734
-0.178972
-0.176097
-0.173288
-0.170247
-0.167213
-0.163899
-0.160411
-0.15697
-0.153309
-0.149436
-0.145427
-0.141052
-0.136593
-0.131721
-0.12678
-0.12157
-0.115895
-0.110097
-0.103999
-0.0974251
-0.0907048
-0.083691
-0.0761892
-0.0685652
-0.060666
-0.0522788
-0.0438259
-0.0352956
-0.0272703
-0.0218712
-0.18463
-0.182058
-0.179373
-0.17658
-0.173684
-0.170853
-0.167773
-0.164548
-0.161356
-0.157871
-0.154366
-0.15054
-0.146477
-0.142395
-0.137924
-0.133385
-0.128419
-0.123386
-0.118084
-0.112316
-0.106397
-0.100014
-0.0934776
-0.0864588
-0.0793369
-0.0719271
-0.0640333
-0.0560459
-0.0478034
-0.0391221
-0.0305279
-0.0224831
-0.0170804
-0.181868
-0.179296
-0.176627
-0.173862
-0.170982
-0.167983
-0.164933
-0.161809
-0.158454
-0.154906
-0.151244
-0.147463
-0.143405
-0.139279
-0.134761
-0.12997
-0.125103
-0.119811
-0.114395
-0.108534
-0.102528
-0.0960718
-0.0894622
-0.0823964
-0.0751877
-0.0675284
-0.0597438
-0.0515077
-0.0432087
-0.0347096
-0.0259864
-0.0180961
-0.0133308
-0.179589
-0.177077
-0.174474
-0.171773
-0.168959
-0.166021
-0.162948
-0.159731
-0.156353
-0.152799
-0.149059
-0.145117
-0.14104
-0.136819
-0.132272
-0.127515
-0.122543
-0.11721
-0.11164
-0.105814
-0.0996234
-0.0932763
-0.086479
-0.0794218
-0.0721052
-0.0644928
-0.0566127
-0.0484504
-0.040064
-0.0315874
-0.0229636
-0.0153926
-0.0124012
-0.197981
-0.195512
-0.193017
-0.1904
-0.187683
-0.18498
-0.182227
-0.179384
-0.176273
-0.173204
-0.170067
-0.166831
-0.163466
-0.159952
-0.156178
-0.15216
-0.148037
-0.143739
-0.139234
-0.134493
-0.129491
-0.12421
-0.118624
-0.112634
-0.106266
-0.0996742
-0.0927963
-0.0856151
-0.0781374
-0.070393
-0.062495
-0.0550001
-0.0498731
-0.197967
-0.195427
-0.192907
-0.190348
-0.187661
-0.184872
-0.182092
-0.179262
-0.176344
-0.17325
-0.170001
-0.166718
-0.163327
-0.159795
-0.156107
-0.152226
-0.148056
-0.143615
-0.139041
-0.134258
-0.129229
-0.123926
-0.118334
-0.112435
-0.106221
-0.0996824
-0.0927222
-0.0853843
-0.0778256
-0.0700242
-0.0620864
-0.0545923
-0.0496322
-0.197781
-0.195337
-0.192776
-0.19013
-0.187495
-0.184804
-0.181964
-0.178999
-0.176032
-0.173002
-0.169872
-0.166618
-0.163145
-0.159472
-0.155728
-0.151838
-0.147767
-0.143483
-0.138965
-0.13418
-0.129027
-0.123529
-0.117831
-0.111862
-0.105592
-0.0990203
-0.0921359
-0.0849335
-0.0774283
-0.0696539
-0.0617171
-0.0541786
-0.04903
-0.197565
-0.195066
-0.192472
-0.189896
-0.18727
-0.184508
-0.181628
-0.178747
-0.175812
-0.172785
-0.169625
-0.166164
-0.162716
-0.159153
-0.155441
-0.15155
-0.147462
-0.143141
-0.13848
-0.133507
-0.128358
-0.122957
-0.117276
-0.111297
-0.105008
-0.0984088
-0.0914968
-0.0842715
-0.0767428
-0.0689374
-0.0609581
-0.0531898
-0.0481736
-0.197206
-0.19474
-0.192075
-0.189487
-0.186851
-0.184135
-0.181178
-0.178286
-0.175342
-0.172315
-0.169175
-0.165815
-0.162271
-0.158664
-0.154918
-0.151004
-0.146885
-0.142538
-0.137848
-0.132833
-0.127644
-0.122207
-0.11649
-0.110473
-0.104149
-0.0975108
-0.0905597
-0.0832988
-0.0757343
-0.0678949
-0.0598832
-0.0520838
-0.0470506
-0.196623
-0.194141
-0.191631
-0.189054
-0.18626
-0.183535
-0.180752
-0.177874
-0.174725
-0.171618
-0.168439
-0.165147
-0.161707
-0.158089
-0.154108
-0.150103
-0.145934
-0.141566
-0.136966
-0.132106
-0.126966
-0.121524
-0.115684
-0.109479
-0.103048
-0.0963331
-0.0893167
-0.0819969
-0.0743851
-0.066507
-0.05847
-0.050841
-0.0456365
-0.196012
-0.193527
-0.191011
-0.188373
-0.185631
-0.182898
-0.180108
-0.177157
-0.174054
-0.170933
-0.16773
-0.164404
-0.160916
-0.157082
-0.153227
-0.149216
-0.145023
-0.140615
-0.135961
-0.131014
-0.125581
-0.120016
-0.114188
-0.108063
-0.101632
-0.0948851
-0.0878271
-0.0804621
-0.0727973
-0.0648616
-0.0567604
-0.0488921
-0.0438122
-0.195314
-0.192781
-0.190159
-0.187549
-0.184867
-0.181965
-0.17913
-0.176237
-0.173229
-0.169936
-0.166674
-0.163319
-0.159825
-0.156165
-0.152236
-0.148063
-0.143773
-0.139294
-0.13458
-0.129595
-0.124302
-0.118505
-0.112574
-0.106362
-0.0998512
-0.0930351
-0.0859045
-0.0784684
-0.0707363
-0.0627347
-0.0545724
-0.0466489
-0.0415423
-0.194299
-0.191811
-0.189131
-0.186516
-0.183829
-0.180921
-0.178075
-0.175164
-0.17208
-0.168827
-0.165539
-0.162142
-0.158586
-0.15468
-0.150751
-0.146654
-0.142358
-0.137826
-0.132934
-0.12772
-0.122325
-0.11667
-0.110726
-0.104475
-0.0979082
-0.0909244
-0.0835693
-0.075999
-0.0681682
-0.0600957
-0.0518933
-0.0441293
-0.0388514
-0.193102
-0.190464
-0.187897
-0.185278
-0.182452
-0.179675
-0.17682
-0.173713
-0.170643
-0.167461
-0.163979
-0.160517
-0.156932
-0.153179
-0.149152
-0.144874
-0.14047
-0.135854
-0.130956
-0.125571
-0.120078
-0.114334
-0.108304
-0.101968
-0.0953217
-0.088261
-0.0808387
-0.0731985
-0.0652988
-0.0571563
-0.0488789
-0.0410512
-0.0357415
-0.191456
-0.188942
-0.186236
-0.183618
-0.180926
-0.178011
-0.175145
-0.172119
-0.168946
-0.165733
-0.162318
-0.158728
-0.155055
-0.151209
-0.146994
-0.142732
-0.138275
-0.13356
-0.128383
-0.123098
-0.117564
-0.111739
-0.105517
-0.0989331
-0.0921304
-0.0850475
-0.0776632
-0.0699634
-0.0617554
-0.0534698
-0.0450996
-0.0372225
-0.0318877
-0.189631
-0.186997
-0.184427
-0.18165
-0.178931
-0.175978
-0.1731
-0.170119
-0.166861
-0.163598
-0.16005
-0.156498
-0.152782
-0.148714
-0.144594
-0.140258
-0.135509
-0.130683
-0.125595
-0.120025
-0.11435
-0.108413
-0.102156
-0.0953831
-0.0884822
-0.0813032
-0.0738323
-0.0660505
-0.0577778
-0.0494237
-0.0409784
-0.0330171
-0.0276413
-0.187408
-0.184797
-0.182091
-0.179446
-0.176578
-0.173577
-0.170653
-0.167471
-0.164319
-0.160881
-0.157461
-0.153817
-0.149967
-0.145976
-0.141622
-0.137183
-0.132326
-0.127401
-0.122218
-0.116551
-0.110773
-0.104706
-0.0981451
-0.0914445
-0.0844539
-0.0769606
-0.0693593
-0.0614979
-0.0533511
-0.0447559
-0.0362186
-0.0282033
-0.0227947
-0.184588
-0.181975
-0.179349
-0.176702
-0.173875
-0.170924
-0.168015
-0.164844
-0.161517
-0.158194
-0.154565
-0.15074
-0.146906
-0.142717
-0.138462
-0.133809
-0.129063
-0.123884
-0.118596
-0.112836
-0.106977
-0.100826
-0.0941931
-0.0874085
-0.0801521
-0.0727706
-0.0651172
-0.0570026
-0.0487954
-0.0403548
-0.0316219
-0.0235402
-0.0180655
-0.182425
-0.179775
-0.177132
-0.174541
-0.171779
-0.168876
-0.165839
-0.162655
-0.159318
-0.155897
-0.152363
-0.148567
-0.144617
-0.140489
-0.136051
-0.131406
-0.126556
-0.121353
-0.116026
-0.110257
-0.10434
-0.0979752
-0.0914526
-0.0844819
-0.0773598
-0.0697907
-0.0620864
-0.0539367
-0.0457043
-0.037255
-0.0285449
-0.0204771
-0.0150196
-0.200169
-0.19759
-0.195035
-0.19246
-0.189843
-0.187176
-0.184446
-0.181628
-0.178638
-0.175496
-0.172336
-0.169093
-0.165734
-0.162248
-0.15862
-0.154825
-0.150851
-0.146676
-0.142278
-0.137647
-0.132761
-0.127598
-0.122144
-0.116387
-0.110313
-0.103922
-0.0971295
-0.0900913
-0.0827408
-0.0751048
-0.0672847
-0.0597483
-0.0547919
-0.200112
-0.19762
-0.194932
-0.192321
-0.189686
-0.187004
-0.184264
-0.181455
-0.178566
-0.175574
-0.172468
-0.169162
-0.165673
-0.162128
-0.158462
-0.154641
-0.150642
-0.146444
-0.142031
-0.137382
-0.132478
-0.127299
-0.121831
-0.11606
-0.109974
-0.103571
-0.0968451
-0.0897949
-0.0824337
-0.0747922
-0.0669761
-0.0595343
-0.0544275
-0.199875
-0.197404
-0.194885
-0.192315
-0.189677
-0.186898
-0.184
-0.181105
-0.178164
-0.175153
-0.172051
-0.16884
-0.165502
-0.162024
-0.15839
-0.154584
-0.150587
-0.146382
-0.14195
-0.137274
-0.132263
-0.127039
-0.121521
-0.115683
-0.109423
-0.103063
-0.0963072
-0.0890906
-0.0816542
-0.0740813
-0.0661522
-0.0586889
-0.0537599
-0.199706
-0.197245
-0.194722
-0.192068
-0.18931
-0.186563
-0.183772
-0.180927
-0.178011
-0.175009
-0.171909
-0.168689
-0.16534
-0.16184
-0.15809
-0.154096
-0.149992
-0.145711
-0.141215
-0.136481
-0.131492
-0.126231
-0.120681
-0.114828
-0.108661
-0.102181
-0.0953801
-0.0882584
-0.0808286
-0.0731229
-0.0652546
-0.0578032
-0.0528649
-0.199341
-0.19686
-0.19433
-0.191722
-0.188893
-0.186132
-0.183336
-0.180485
-0.177563
-0.174552
-0.171441
-0.168217
-0.164857
-0.16135
-0.157671
-0.153716
-0.149501
-0.145159
-0.140616
-0.135837
-0.130805
-0.125501
-0.119909
-0.114017
-0.107813
-0.101294
-0.0944559
-0.0873011
-0.0798388
-0.0720981
-0.0641961
-0.056715
-0.0517598
-0.198904
-0.196308
-0.193739
-0.191146
-0.188502
-0.185802
-0.183035
-0.180175
-0.177136
-0.173953
-0.170747
-0.167452
-0.164043
-0.160502
-0.156803
-0.152927
-0.148861
-0.144584
-0.140067
-0.135303
-0.130269
-0.124942
-0.119323
-0.113394
-0.107076
-0.100512
-0.0936268
-0.0864233
-0.0789094
-0.0711014
-0.0630054
-0.0554105
-0.0504155
-0.198283
-0.195687
-0.193117
-0.190521
-0.187873
-0.18517
-0.182384
-0.179428
-0.176323
-0.173196
-0.169991
-0.166684
-0.163254
-0.159679
-0.155948
-0.152043
-0.14794
-0.143621
-0.139062
-0.134169
-0.129045
-0.123502
-0.11775
-0.111719
-0.105389
-0.0987503
-0.0917951
-0.0845297
-0.0769631
-0.0691248
-0.0611314
-0.05357
-0.048563
-0.197447
-0.19496
-0.19242
-0.189747
-0.186971
-0.184209
-0.181406
-0.178531
-0.175557
-0.172446
-0.169044
-0.165669
-0.162193
-0.158583
-0.154813
-0.150858
-0.14671
-0.142341
-0.137725
-0.132849
-0.127698
-0.122166
-0.11638
-0.110153
-0.103717
-0.0971061
-0.0899758
-0.082593
-0.0749299
-0.0670129
-0.0589539
-0.0513422
-0.046311
-0.196439
-0.193944
-0.191394
-0.188718
-0.185935
-0.183163
-0.180348
-0.177451
-0.17444
-0.17114
-0.167867
-0.164498
-0.161001
-0.157357
-0.153548
-0.149552
-0.145337
-0.140799
-0.135948
-0.130925
-0.125668
-0.120143
-0.114327
-0.108203
-0.101766
-0.0950153
-0.0879408
-0.0805553
-0.0728654
-0.0649018
-0.0567711
-0.0488777
-0.043777
-0.19526
-0.192732
-0.190011
-0.187368
-0.184688
-0.181944
-0.17904
-0.175996
-0.172941
-0.169807
-0.166559
-0.163161
-0.159426
-0.15569
-0.151814
-0.147756
-0.143485
-0.138974
-0.134174
-0.128896
-0.123512
-0.117878
-0.111964
-0.105752
-0.0992321
-0.0924003
-0.0852525
-0.0777958
-0.0700343
-0.0619037
-0.0535885
-0.0457993
-0.0406759
-0.193795
-0.19115
-0.188566
-0.185926
-0.183074
-0.180286
-0.177445
-0.17449
-0.171261
-0.16807
-0.164782
-0.161335
-0.157551
-0.153762
-0.149826
-0.145698
-0.141352
-0.136675
-0.131683
-0.126514
-0.121095
-0.115395
-0.109389
-0.103047
-0.0961677
-0.0891449
-0.0818517
-0.074275
-0.0664179
-0.0583094
-0.050059
-0.0422462
-0.0369392
-0.191866
-0.189332
-0.186613
-0.183977
-0.181272
-0.178337
-0.175461
-0.17249
-0.169238
-0.166016
-0.162668
-0.159004
-0.155337
-0.151518
-0.147499
-0.143083
-0.138606
-0.133926
-0.128978
-0.123658
-0.118012
-0.112169
-0.106052
-0.0996218
-0.092778
-0.0855724
-0.0781497
-0.0704582
-0.0624954
-0.054287
-0.0459394
-0.0378739
-0.0326644
-0.189548
-0.186918
-0.184356
-0.181585
-0.178872
-0.17592
-0.173048
-0.170074
-0.166824
-0.163568
-0.160021
-0.156481
-0.152777
-0.14872
-0.144611
-0.140285
-0.135552
-0.130736
-0.125658
-0.120106
-0.114446
-0.108522
-0.102278
-0.0955301
-0.0886488
-0.0814815
-0.0740038
-0.0660246
-0.0579341
-0.0496285
-0.0412116