/*--------------------------------*- C++ -*----------------------------------*\
| =========                 |                                                 |
| \\      /  F ield         | OpenFOAM: The Open Source CFD Toolbox           |
|  \\    /   O peration     | Version:  2412                                  |
|   \\  /    A nd           | Website:  www.openfoam.com                      |
|    \\/     M anipulation  |                                                 |
\*---------------------------------------------------------------------------*/
FoamFile
{
    version     2.0;
    format      ascii;
    arch        "LSB;label=32;scalar=64";
    class       volScalarField;
    location    "0.0350058";
    object      Vm;
}
// * * * * * * * * * * * * * * * * * * * * * * * * * * * * * * * * * * * * * //

dimensions      [0 0 0 0 0 0 0];

internalField   nonuniform List<scalar> 
8670
(
1.07582
1.0766
1.07798
1.08006
1.08287
1.08651
1.09104
1.09653
1.10306
1.11072
1.11957
1.12969
1.1412
1.15421
1.16889
1.18482
1.20214
1.22101
1.24067
1.26127
1.28311
1.30505
1.32764
1.34936
1.37085
1.39037
1.40855
1.4229
1.43368
1.43843
1.4445
1.44743
1.07585
1.07667
1.07805
1.0801
1.08291
1.08654
1.09107
1.09658
1.10316
1.11086
1.11977
1.12998
1.14162
1.15484
1.16933
1.18516
1.20241
1.2213
1.24114
1.26221
1.28358
1.30537
1.32782
1.34949
1.37096
1.39045
1.40852
1.42281
1.43339
1.43826
1.44172
1.44476
1.0759
1.07676
1.07823
1.08034
1.08316
1.08675
1.09127
1.09684
1.10354
1.11149
1.12058
1.13093
1.14259
1.15565
1.17019
1.18638
1.20374
1.22239
1.24253
1.26327
1.28466
1.307
1.32899
1.3512
1.37201
1.39203
1.40921
1.42408
1.43394
1.43589
1.43804
1.44251
1.07598
1.07691
1.07842
1.08055
1.08345
1.08719
1.09185
1.09752
1.10428
1.11223
1.12148
1.13216
1.14408
1.15729
1.17189
1.18798
1.20571
1.22443
1.2443
1.26558
1.28725
1.30974
1.33173
1.35391
1.37461
1.39443
1.41118
1.42516
1.43248
1.43146
1.42444
1.42717
1.07612
1.07714
1.07877
1.08106
1.08405
1.08792
1.09272
1.09855
1.10549
1.11365
1.12319
1.13395
1.14598
1.15936
1.17414
1.19039
1.20829
1.22716
1.24715
1.26854
1.29028
1.31276
1.3347
1.35678
1.3773
1.39685
1.41313
1.42615
1.4315
1.42513
1.40428
1.39867
1.07633
1.07743
1.07918
1.08167
1.08494
1.08907
1.09414
1.10022
1.10739
1.11574
1.12532
1.13617
1.14838
1.16206
1.1774
1.19393
1.21171
1.23082
1.25143
1.2726
1.29467
1.31644
1.33805
1.35988
1.3801
1.3993
1.415
1.42691
1.43059
1.41598
1.37317
1.33625
1.07663
1.07793
1.07989
1.08259
1.08609
1.09048
1.09582
1.10218
1.10963
1.11825
1.1281
1.13925
1.15176
1.1657
1.18115
1.19827
1.21645
1.23582
1.25659
1.27774
1.2994
1.32184
1.3436
1.36531
1.38522
1.40388
1.41867
1.42844
1.42606
1.40088
1.31452
1.17154
1.07706
1.07863
1.08083
1.08373
1.08747
1.09212
1.09774
1.10441
1.1122
1.1212
1.13143
1.14294
1.15581
1.17009
1.18588
1.20336
1.22186
1.24151
1.26253
1.28385
1.30553
1.3279
1.34951
1.37093
1.39039
1.40829
1.42188
1.42916
1.4193
1.37553
1.23447
0.890041
1.07773
1.07953
1.08198
1.08521
1.08932
1.09435
1.10037
1.10743
1.11558
1.12514
1.13592
1.14799
1.1614
1.17618
1.19235
1.20996
1.22914
1.24906
1.26987
1.29175
1.31343
1.33509
1.357
1.37737
1.39672
1.41265
1.4242
1.42814
1.40869
1.32623
1.09833
0.546751
1.07867
1.08079
1.08363
1.0872
1.09169
1.09714
1.10362
1.1112
1.11997
1.12998
1.14127
1.15389
1.16784
1.18312
1.19975
1.21779
1.23735
1.25752
1.27831
1.29972
1.32199
1.34367
1.36523
1.38481
1.40245
1.41783
1.42656
1.42425
1.38973
1.25445
0.852567
0.317844
1.08003
1.08254
1.08583
1.08993
1.09488
1.10085
1.10789
1.11607
1.12547
1.13613
1.14809
1.16138
1.17598
1.19187
1.209
1.22733
1.2468
1.26731
1.28899
1.31053
1.33214
1.35402
1.37428
1.393
1.41033
1.42307
1.42867
1.41367
1.35231
1.14899
0.510579
0.182991
1.0818
1.0848
1.08861
1.09324
1.09886
1.10549
1.11316
1.12186
1.13186
1.1432
1.15588
1.16991
1.18525
1.20185
1.21964
1.23857
1.25859
1.27993
1.30133
1.32268
1.34399
1.36537
1.38483
1.40251
1.41803
1.42701
1.42469
1.39292
1.26174
0.88874
0.275133
0.0992169
1.08401
1.08764
1.09207
1.09743
1.10376
1.11104
1.11948
1.12907
1.13978
1.15194
1.16546
1.18033
1.19649
1.21387
1.23235
1.25186
1.27222
1.29336
1.31539
1.33677
1.35745
1.37718
1.39557
1.41253
1.42468
1.42859
1.41299
1.34411
1.12804
0.470627
0.13897
0.0508328
1.08659
1.09085
1.09601
1.10206
1.10914
1.11722
1.12648
1.13685
1.14862
1.16173
1.17605
1.19135
1.20816
1.22627
1.24544
1.26549
1.28616
1.30719
1.32835
1.34943
1.37058
1.38975
1.40684
1.42096
1.42949
1.42727
1.39266
1.25115
0.822635
0.243739
0.0716087
0.0261275
1.08842
1.09311
1.09871
1.10539
1.11304
1.12184
1.13168
1.14281
1.15506
1.16875
1.18369
1.19958
1.21701
1.23569
1.25544
1.27595
1.29691
1.31808
1.33911
1.35966
1.3793
1.39747
1.4135
1.42597
1.43126
1.41866
1.36456
1.17643
0.534089
0.151573
0.0446698
0.0162636
1.07555
1.07532
1.07561
1.07647
1.07798
1.08026
1.08342
1.08745
1.09248
1.09866
1.10596
1.11452
1.12456
1.13597
1.149
1.16341
1.17945
1.19679
1.21569
1.23556
1.25684
1.27864
1.30151
1.32456
1.34672
1.36887
1.38996
1.40874
1.42693
1.44325
1.45626
1.46595
1.07552
1.07531
1.07559
1.07647
1.07802
1.08035
1.08349
1.08752
1.09255
1.09875
1.10606
1.11464
1.12471
1.13615
1.14919
1.1636
1.17966
1.19701
1.21597
1.23597
1.25744
1.27976
1.30214
1.3252
1.34799
1.3694
1.39042
1.40999
1.42717
1.4432
1.45618
1.46693
1.07557
1.07539
1.07573
1.07665
1.07823
1.08055
1.08371
1.08786
1.093
1.09923
1.10671
1.1154
1.12543
1.13703
1.15003
1.16468
1.18068
1.19833
1.21718
1.23764
1.25918
1.28107
1.30372
1.32612
1.34888
1.3709
1.39096
1.41043
1.42833
1.44341
1.45687
1.46639
1.07544
1.07534
1.07579
1.0768
1.07846
1.08087
1.08411
1.0883
1.0936
1.09996
1.10752
1.11649
1.12675
1.13855
1.15171
1.16652
1.18268
1.20046
1.21939
1.23982
1.26092
1.28311
1.30537
1.32838
1.35108
1.37222
1.3929
1.41207
1.42869
1.44442
1.4574
1.46617
1.07542
1.07541
1.07593
1.07704
1.07881
1.08133
1.0847
1.08904
1.09449
1.10102
1.10876
1.11791
1.12837
1.14037
1.15374
1.16874
1.18508
1.20304
1.22213
1.24267
1.26385
1.28609
1.30836
1.33134
1.35395
1.37491
1.39531
1.41403
1.43005
1.4453
1.45746
1.46491
1.0754
1.07548
1.07609
1.07731
1.07924
1.08196
1.08561
1.09018
1.0958
1.10261
1.11059
1.11986
1.13063
1.14277
1.1565
1.17153
1.18803
1.20635
1.22604
1.24653
1.26822
1.29016
1.31282
1.33504
1.35749
1.37898
1.39817
1.4163
1.43246
1.44677
1.45694
1.46203
1.07538
1.07561
1.0764
1.07782
1.07996
1.08291
1.0868
1.09162
1.09746
1.10446
1.11278
1.12232
1.13325
1.14578
1.15971
1.17531
1.19221
1.21074
1.23032
1.25129
1.27285
1.29552
1.31847
1.3406
1.36262
1.38289
1.40231
1.4194
1.43256
1.44474
1.45526
1.45806
1.07537
1.07578
1.07678
1.07845
1.08091
1.08416
1.08829
1.09338
1.09956
1.107
1.11562
1.12555
1.13699
1.14975
1.164
1.17997
1.19721
1.21607
1.23601
1.25745
1.27971
1.30197
1.32468
1.34659
1.36827
1.38806
1.40673
1.42243
1.43269
1.43945
1.44608
1.44831
1.07559
1.07623
1.07747
1.07941
1.08214
1.08576
1.09026
1.09573
1.1023
1.11011
1.11929
1.12972
1.14157
1.15503
1.16986
1.18632
1.20393
1.22286
1.24346
1.26515
1.28708
1.30974
1.3319
1.3541
1.37488
1.39492
1.4125
1.42524
1.432
1.42577
1.41047
1.40327
1.07601
1.07696
1.07855
1.08084
1.08393
1.08787
1.09276
1.09869
1.1058
1.11424
1.12391
1.13492
1.14748
1.16135
1.17668
1.19369
1.21192
1.23157
1.25194
1.27317
1.29568
1.31856
1.34067
1.36257
1.38272
1.40171
1.41694
1.42768
1.42827
1.40442
1.32948
1.21095
1.07651
1.07785
1.07986
1.08259
1.08614
1.09059
1.09602
1.10255
1.11028
1.11938
1.1297
1.14133
1.1544
1.16909
1.18503
1.20237
1.22133
1.24124
1.26243
1.28384
1.30575
1.32853
1.35099
1.37194
1.39203
1.40913
1.42323
1.42877
1.41753
1.36438
1.19337
0.75136
1.07734
1.07913
1.08164
1.08492
1.08906
1.09413
1.10023
1.10742
1.11583
1.12554
1.13664
1.14926
1.16313
1.17833
1.19498
1.21326
1.23248
1.25276
1.27436
1.29618
1.31862
1.34031
1.36138
1.38234
1.40165
1.41705
1.42788
1.42689
1.39692
1.27226
0.919998
0.346228
1.0785
1.08084
1.08392
1.08779
1.0925
1.09825
1.10509
1.11313
1.12247
1.13327
1.14532
1.15866
1.17334
1.1894
1.20688
1.22594
1.2457
1.26624
1.2876
1.30993
1.33185
1.35381
1.37419
1.39317
1.41073
1.42369
1.42935
1.4141
1.3502
1.1355
0.482166
0.170325
1.07982
1.08277
1.08648
1.0911
1.09668
1.10324
1.11079
1.11962
1.12975
1.14121
1.15402
1.1682
1.1838
1.20087
1.21958
1.2391
1.25933
1.2802
1.30171
1.324
1.34542
1.36602
1.38563
1.40436
1.41944
1.42976
1.42744
1.39376
1.25737
0.829479
0.245902
0.0869988
1.08081
1.08419
1.08837
1.09353
1.09968
1.1068
1.11513
1.12468
1.13542
1.14728
1.16063
1.17541
1.19162
1.20922
1.22822
1.24871
1.26957
1.29075
1.31211
1.33342
1.35432
1.37465
1.39456
1.41155
1.4251
1.43249
1.42159
1.36925
1.18534
0.542064
0.153329
0.0543486
1.07669
1.07567
1.07513
1.07508
1.07562
1.07687
1.07888
1.08176
1.08557
1.09048
1.09653
1.10374
1.11233
1.12227
1.13383
1.14692
1.16143
1.1777
1.19552
1.21449
1.23511
1.25697
1.27961
1.3022
1.32552
1.34885
1.3714
1.3921
1.41249
1.43159
1.44817
1.45887
1.07665
1.07566
1.07513
1.0751
1.07571
1.07698
1.07904
1.08192
1.08577
1.09064
1.09668
1.10391
1.11258
1.12268
1.13417
1.14733
1.16204
1.17816
1.19604
1.21536
1.23569
1.25751
1.28024
1.30339
1.32612
1.34923
1.37192
1.39349
1.41294
1.4317
1.44819
1.45894
1.07658
1.07561
1.0751
1.07515
1.07578
1.07712
1.07921
1.08219
1.08608
1.09105
1.09711
1.10446
1.11309
1.12327
1.13493
1.14803
1.16286
1.17926
1.19697
1.21644
1.23731
1.25915
1.28136
1.30456
1.32802
1.35103
1.37267
1.39421
1.41468
1.4334
1.44887
1.46039
1.07648
1.07557
1.07512
1.07522
1.07591
1.07727
1.07946
1.0825
1.08657
1.09169
1.09791
1.10542
1.11419
1.12444
1.13611
1.14947
1.16442
1.18073
1.19885
1.21854
1.23942
1.26092
1.28364
1.307
1.3303
1.35255
1.37491
1.39657
1.41692
1.43541
1.45044
1.46074
1.07631
1.07548
1.07511
1.07532
1.07612
1.07764
1.07994
1.08314
1.08731
1.09257
1.09896
1.10665
1.11563
1.12615
1.13817
1.1516
1.16668
1.18317
1.20145
1.22127
1.24227
1.26386
1.28666
1.31006
1.33331
1.35543
1.37761
1.39904
1.41914
1.43738
1.45226
1.46242
1.07611
1.07538
1.07513
1.07542
1.07637
1.078
1.08043
1.0838
1.08815
1.09366
1.10035
1.10824
1.11755
1.12823
1.14054
1.15439
1.16967
1.18672
1.20525
1.22486
1.24597
1.26803
1.29037
1.31363
1.33701
1.3597
1.38076
1.40162
1.42138
1.43949
1.45529
1.46552
1.07587
1.07524
1.07514
1.07559
1.07669
1.07855
1.08122
1.08483
1.08942
1.09515
1.10205
1.11033
1.12
1.13101
1.14361
1.15765
1.17344
1.19078
1.2093
1.22948
1.25085
1.27274
1.29571
1.3191
1.34217
1.36387
1.38542
1.40597
1.42489
1.44115
1.4563
1.46646
1.07563
1.07519
1.07525
1.0759
1.07727
1.07938
1.08235
1.08624
1.09118
1.09721
1.10451
1.11306
1.12308
1.1345
1.14758
1.1622
1.17818
1.19581
1.21467
1.23524
1.25705
1.27959
1.3021
1.32523
1.34807
1.36944
1.39051
1.41031
1.42837
1.44375
1.45789
1.46767
1.07547
1.07525
1.07554
1.07645
1.07809
1.08048
1.08372
1.08797
1.09325
1.09973
1.10742
1.1165
1.12695
1.13902
1.15263
1.16758
1.18418
1.20206
1.22165
1.24254
1.26402
1.28668
1.30968
1.33211
1.35482
1.37682
1.39718
1.41473
1.43135
1.44649
1.45906
1.46696
1.07542
1.07544
1.07605
1.0773
1.07926
1.08206
1.08572
1.09038
1.0962
1.10317
1.11147
1.12105
1.13216
1.14467
1.15882
1.17437
1.19166
1.21038
1.23007
1.25113
1.27282
1.29563
1.31864
1.34088
1.36316
1.38433
1.40283
1.41965
1.43346
1.44471
1.45365
1.45864
1.07539
1.07577
1.07674
1.07836
1.08076
1.08406
1.08824
1.09346
1.09987
1.10747
1.11642
1.12662
1.13827
1.15163
1.16655
1.18278
1.20064
1.21961
1.24006
1.26124
1.28363
1.30656
1.32891
1.35131
1.37228
1.39269
1.41099
1.42544
1.43275
1.43172
1.42479
1.42111
1.07556
1.07634
1.07775
1.07987
1.08282
1.08672
1.09154
1.09739
1.10442
1.11282
1.12251
1.13365
1.14607
1.15995
1.17552
1.19243
1.21097
1.2306
1.25178
1.27386
1.29601
1.31872
1.34073
1.36271
1.38296
1.40221
1.41843
1.42801
1.42767
1.40169
1.31115
1.14996
1.07581
1.07712
1.0791
1.08184
1.08543
1.08998
1.09564
1.10235
1.11023
1.11943
1.1301
1.14205
1.15541
1.17039
1.18663
1.20429
1.22356
1.24375
1.26524
1.28708
1.30965
1.3318
1.35399
1.37476
1.39465
1.41147
1.42515
1.43021
1.4122
1.33915
1.11585
0.560903
1.07625
1.07814
1.08077
1.08422
1.08856
1.09387
1.10024
1.10774
1.11647
1.12651
1.13799
1.15105
1.16538
1.18107
1.19821
1.21699
1.23664
1.25725
1.27907
1.30091
1.32283
1.34517
1.36638
1.38705
1.40514
1.42082
1.4296
1.42651
1.38847
1.23673
0.74239
0.2572
1.07665
1.07896
1.082
1.08595
1.09087
1.0968
1.10382
1.11201
1.12142
1.13213
1.1442
1.15767
1.17254
1.18879
1.20643
1.22551
1.24604
1.26706
1.28872
1.31123
1.3331
1.35456
1.37594
1.39512
1.41205
1.42639
1.43222
1.41955
1.35633
1.14909
0.459655
0.158501
1.08044
1.0785
1.07692
1.07573
1.07503
1.07487
1.07531
1.07648
1.07844
1.08124
1.08508
1.09
1.09604
1.10343
1.11223
1.12247
1.13411
1.14752
1.16269
1.17956
1.19796
1.21769
1.2383
1.26036
1.28342
1.30712
1.33095
1.35425
1.37605
1.39763
1.41787
1.43555
1.44698
1.08033
1.0784
1.07685
1.0757
1.075
1.07485
1.0753
1.07649
1.07848
1.08131
1.08517
1.09015
1.0963
1.10367
1.1125
1.12282
1.13465
1.14792
1.16302
1.17985
1.1983
1.21818
1.23922
1.26093
1.28389
1.30751
1.33133
1.35489
1.37775
1.3993
1.41845
1.43607
1.44859
1.08019
1.07829
1.07673
1.07562
1.07498
1.07487
1.0754
1.07665
1.07866
1.0816
1.08552
1.09049
1.09671
1.10425
1.11316
1.12345
1.13541
1.14904
1.1643
1.18108
1.19919
1.21903
1.2403
1.26267
1.28583
1.30928
1.33216
1.35541
1.37827
1.40011
1.42029
1.43777
1.44915
1.08002
1.07816
1.07664
1.07556
1.07494
1.0749
1.0755
1.07679
1.07892
1.08197
1.08596
1.0911
1.09747
1.10511
1.11406
1.12459
1.13673
1.15042
1.1655
1.1824
1.201
1.22115
1.24256
1.26486
1.28736
1.31077
1.33444
1.35797
1.38085
1.40255
1.42235
1.4387
1.45085
1.0797
1.0779
1.07645
1.07545
1.07494
1.07498
1.07567
1.07707
1.07934
1.08254
1.08674
1.09199
1.0985
1.10632
1.11546
1.12622
1.13859
1.15257
1.16807
1.18496
1.20368
1.22396
1.24556
1.26816
1.29127
1.31413
1.33757
1.3609
1.38359
1.4051
1.42472
1.44089
1.45293
1.07932
1.07758
1.07623
1.0753
1.07491
1.07509
1.0759
1.07748
1.07989
1.08322
1.08761
1.09313
1.09981
1.1079
1.11743
1.12844
1.1409
1.15513
1.17106
1.18856
1.20749
1.2275
1.24907
1.27175
1.29516
1.31881
1.34218
1.36435
1.38652
1.40778
1.42741
1.44436
1.45536
1.07888
1.07723
1.07599
1.07519
1.07493
1.07527
1.07625
1.07801
1.08059
1.08416
1.0888
1.09453
1.10158
1.11002
1.11986
1.13109
1.14402
1.15862
1.17478
1.19222
1.21141
1.23214
1.25413
1.27703
1.30031
1.32311
1.34635
1.36931
1.3915
1.41242
1.43144
1.44712
1.45884
1.07835
1.07685
1.07573
1.0751
1.07499
1.07551
1.07671
1.07874
1.08164
1.08547
1.09043
1.09656
1.10391
1.11273
1.12304
1.13481
1.14802
1.163
1.17962
1.19772
1.21699
1.23793
1.26011
1.2831
1.30639
1.32909
1.35215
1.37483
1.39658
1.41703
1.43561
1.45094
1.46244
1.07774
1.07641
1.07549
1.07507
1.0752
1.07598
1.07747
1.07981
1.08307
1.08726
1.09258
1.09907
1.10696
1.11629
1.12708
1.13926
1.15311
1.16855
1.18534
1.20392
1.22407
1.24551
1.26782
1.29028
1.31361
1.33708
1.3601
1.38203
1.40196
1.42149
1.43969
1.45559
1.46589
1.07709
1.07594
1.07527
1.07511
1.07556
1.07666
1.07853
1.08123
1.08491
1.08963
1.09542
1.10248
1.11083
1.12072
1.13216
1.14508
1.15943
1.17552
1.19311
1.21189
1.23238
1.25414
1.2767
1.29926
1.32255
1.34576
1.36811
1.38852
1.40841
1.42709
1.44424
1.45931
1.46934
1.07631
1.07549
1.07513
1.07535
1.07617
1.07773
1.08005
1.08327
1.08743
1.0927
1.09909
1.1068
1.11579
1.12635
1.13842
1.15192
1.16713
1.18391
1.20191
1.22157
1.24251
1.2641
1.28688
1.31015
1.33333
1.35532
1.37714
1.39764
1.41597
1.43138
1.44621
1.45913
1.4676
1.07561
1.07512
1.07517
1.07579
1.07706
1.07913
1.08201
1.08584
1.09062
1.09652
1.10374
1.11227
1.12209
1.13342
1.14614
1.16052
1.17631
1.1939
1.21293
1.23294
1.25445
1.27677
1.29916
1.32223
1.34514
1.36658
1.38751
1.40648
1.42152
1.43338
1.44156
1.4485
1.45107
1.07486
1.07483
1.07533
1.07644
1.07828
1.08096
1.08449
1.08901
1.09464
1.10139
1.10945
1.11875
1.12941
1.14166
1.1553
1.17061
1.18731
1.20578
1.22561
1.24619
1.26799
1.29003
1.31277
1.33503
1.35752
1.37899
1.39803
1.41519
1.42778
1.43079
1.417
1.37285
1.31738
1.07409
1.07453
1.07557
1.07728
1.07975
1.08305
1.08732
1.09264
1.09901
1.10655
1.11541
1.12575
1.13747
1.15078
1.16536
1.18143
1.19921
1.21815
1.23857
1.25971
1.28195
1.30422
1.327
1.34894
1.37073
1.39054
1.40894
1.42308
1.43124
1.42332
1.37501
1.21858
0.790564
1.07356
1.0744
1.07588
1.07808
1.08106
1.08492
1.08972
1.09555
1.10249
1.11064
1.12007
1.13089
1.14322
1.15721
1.17248
1.18922
1.20764
1.22702
1.24751
1.26933
1.29145
1.31421
1.3362
1.35766
1.37897
1.3981
1.41556
1.42808
1.43313
1.41398
1.32141
1.04409
0.427894
1.08279
1.08046
1.07846
1.0768
1.07557
1.07484
1.0747
1.07518
1.07635
1.07839
1.08139
1.08544
1.09063
1.09706
1.10476
1.1138
1.12445
1.13678
1.15084
1.16662
1.18406
1.20305
1.22341
1.24484
1.26681
1.29
1.3138
1.3377
1.36123
1.38394
1.40515
1.42363
1.43563
1.08272
1.08039
1.07839
1.07676
1.07555
1.07482
1.07468
1.07521
1.07648
1.07856
1.08153
1.08558
1.09079
1.09725
1.10506
1.1143
1.125
1.13716
1.15113
1.16685
1.18426
1.20326
1.22374
1.24548
1.26825
1.29175
1.31541
1.33838
1.36161
1.38421
1.40541
1.42416
1.4373
1.08256
1.08027
1.07829
1.07667
1.0755
1.07482
1.0747
1.07523
1.07653
1.0787
1.08181
1.08594
1.09119
1.09763
1.10549
1.11484
1.12576
1.13828
1.15245
1.16822
1.1855
1.20407
1.22439
1.24611
1.26893
1.29253
1.31647
1.34038
1.36394
1.38662
1.40769
1.42604
1.43798
1.08233
1.08007
1.07812
1.07655
1.07542
1.07479
1.07472
1.07535
1.07676
1.07903
1.08221
1.08637
1.09173
1.09838
1.10641
1.11592
1.12697
1.13958
1.15372
1.16929
1.18671
1.20581
1.22645
1.24838
1.27134
1.29505
1.31912
1.34316
1.3667
1.3892
1.40989
1.42713
1.43987
1.08199
1.07977
1.07786
1.07636
1.0753
1.07475
1.07477
1.0755
1.07703
1.07943
1.08278
1.08715
1.09262
1.09942
1.10763
1.11732
1.12857
1.1414
1.15576
1.17153
1.18916
1.20847
1.22928
1.25133
1.27438
1.2981
1.32216
1.34613
1.36957
1.39192
1.41245
1.42953
1.44216
1.08151
1.07936
1.07756
1.07615
1.07517
1.07475
1.07493
1.07579
1.07739
1.0799
1.08342
1.08803
1.09381
1.10084
1.10916
1.11906
1.13058
1.14377
1.15862
1.17512
1.19321
1.21278
1.23359
1.25515
1.27804
1.30171
1.32567
1.34947
1.37272
1.39492
1.41545
1.43325
1.44484
1.08097
1.07891
1.07721
1.07591
1.07507
1.07479
1.07514
1.07617
1.07797
1.0807
1.08446
1.08932
1.09537
1.10263
1.11137
1.12165
1.13356
1.14712
1.16228
1.17893
1.19685
1.21649
1.23765
1.26001
1.28329
1.30711
1.33111
1.35488
1.37798
1.39989
1.41992
1.43651
1.44883
1.08034
1.07839
1.07679
1.07564
1.07496
1.07483
1.07538
1.07667
1.07877
1.08173
1.08577
1.09097
1.09742
1.10519
1.11435
1.12491
1.13717
1.15112
1.16672
1.18389
1.20247
1.22217
1.24351
1.26606
1.28946
1.31329
1.33711
1.36064
1.38344
1.40502
1.4247
1.44095
1.45304
1.07955
1.07776
1.07633
1.07537
1.07492
1.07503
1.07585
1.07744
1.07986
1.08319
1.08761
1.09321
1.10006
1.10819
1.11785
1.12907
1.14192
1.15636
1.1723
1.1896
1.20872
1.22939
1.25137
1.2743
1.29783
1.32136
1.344
1.36684
1.38909
1.41023
1.42971
1.44652
1.45741
1.07866
1.07703
1.07584
1.07513
1.07494
1.0754
1.07656
1.07847
1.0813
1.08511
1.08995
1.09604
1.10347
1.11229
1.12254
1.13422
1.1476
1.16263
1.17915
1.19695
1.21658
1.23774
1.26009
1.28324
1.30685
1.3303
1.35265
1.37502
1.39666
1.41716
1.43602
1.45237
1.46293
1.07759
1.07624
1.07533
1.07495
1.07515
1.07598
1.07758
1.08001
1.08332
1.08769
1.09317
1.09982
1.10786
1.1173
1.12813
1.14064
1.15479
1.17049
1.1875
1.20629
1.22666
1.24829
1.27073
1.29326
1.31661
1.34004
1.36296
1.38472
1.40435
1.42353
1.44146
1.45721
1.46742
1.07649
1.07546
1.07492
1.07491
1.07554
1.07684
1.07898
1.082
1.08592
1.09094
1.09709
1.10458
1.11341
1.12357
1.13534
1.14866
1.16339
1.17991
1.19795
1.21711
1.23794
1.25999
1.28268
1.30528
1.32856
1.35166
1.37402
1.39482
1.41296
1.43037
1.44651
1.46072
1.47036
1.07531
1.07469
1.07458
1.07507
1.0762
1.07806
1.08081
1.08445
1.08916
1.09495
1.10202
1.1104
1.12007
1.13124
1.14381
1.15803
1.17366
1.19109
1.21
1.22988
1.25131
1.27364
1.29603
1.31914
1.34214
1.36385
1.38513
1.40471
1.42146
1.43381
1.44451
1.45459
1.46021
1.07401
1.07384
1.07424
1.0753
1.07704
1.07957
1.08302
1.08739
1.09282
1.09946
1.10728
1.11645
1.12714
1.13922
1.1529
1.16797
1.18474
1.20276
1.22238
1.24293
1.26496
1.28768
1.31018
1.33308
1.35505
1.37679
1.39709
1.41405
1.42794
1.43471
1.42685
1.4031
1.38168
1.07314
1.0733
1.07408
1.07559
1.0778
1.08081
1.08471
1.08958
1.09555
1.10274
1.11131
1.12115
1.13243
1.14531
1.15954
1.17528
1.19276
1.21144
1.23169
1.25273
1.27497
1.29735
1.32034
1.34261
1.36479
1.38522
1.40455
1.42026
1.43169
1.43269
1.40789
1.31756
1.12072
1.08498
1.08235
1.08001
1.07802
1.07643
1.07531
1.0747
1.07468
1.07531
1.07667
1.07894
1.08221
1.08657
1.09215
1.09904
1.10735
1.11716
1.12857
1.14165
1.15645
1.17294
1.19109
1.21077
1.23186
1.25414
1.27739
1.30128
1.32543
1.34935
1.3725
1.39403
1.41213
1.42536
1.0849
1.08228
1.07993
1.07793
1.07633
1.07521
1.07462
1.07464
1.07535
1.07682
1.07916
1.08244
1.08676
1.09232
1.09921
1.10753
1.11735
1.12876
1.14184
1.15662
1.1731
1.19124
1.21094
1.23204
1.25436
1.27765
1.30151
1.32556
1.34945
1.37267
1.39442
1.41345
1.42587
1.08471
1.08213
1.07983
1.07786
1.07628
1.07514
1.07451
1.07452
1.07525
1.07678
1.07921
1.08262
1.08713
1.09283
1.09985
1.10828
1.11824
1.12979
1.143
1.1579
1.17447
1.19268
1.21243
1.23351
1.25552
1.27931
1.30315
1.32648
1.35034
1.37423
1.39517
1.41421
1.42769
1.08449
1.08194
1.07967
1.07771
1.07614
1.07505
1.07452
1.07463
1.07546
1.0771
1.07963
1.08316
1.08777
1.09357
1.10062
1.10897
1.11889
1.13044
1.14366
1.15857
1.1752
1.19349
1.21335
1.23461
1.25706
1.28045
1.3044
1.32851
1.35239
1.37555
1.39727
1.41651
1.43006
1.08411
1.0816
1.07937
1.07748
1.07597
1.07495
1.07451
1.07471
1.07564
1.07739
1.08006
1.08373
1.08851
1.0945
1.10178
1.11041
1.12043
1.13214
1.14555
1.16066
1.17749
1.19598
1.21602
1.23744
1.26003
1.28349
1.30748
1.33161
1.35542
1.37841
1.39997
1.41905
1.43251
1.08363
1.08115
1.07899
1.0772
1.07584
1.07497
1.07466
1.07498
1.07599
1.07779
1.08055
1.08437
1.08935
1.09558
1.10315
1.11218
1.12276
1.13495
1.14882
1.16438
1.18159
1.2004
1.22074
1.24242
1.26521
1.28884
1.31293
1.33704
1.36069
1.38319
1.40335
1.42188
1.43509
1.08301
1.08061
1.07855
1.07687
1.07563
1.0749
1.07473
1.07518
1.07633
1.07836
1.08136
1.08544
1.09069
1.09723
1.10515
1.11456
1.12553
1.13811
1.15233
1.16814
1.18546
1.20402
1.22431
1.24602
1.26887
1.29252
1.31653
1.34055
1.36413
1.38677
1.40788
1.42652
1.43966
1.08224
1.07997
1.07804
1.07647
1.07535
1.07476
1.0748
1.07551
1.07699
1.07929
1.08252
1.08688
1.09246
1.09935
1.10765
1.11745
1.12882
1.14181
1.15645
1.17276
1.19067
1.21003
1.23071
1.25225
1.27531
1.29952
1.32288
1.34656
1.36989
1.39228
1.41307
1.43134
1.44424
1.08132
1.07919
1.07741
1.07602
1.07509
1.07474
1.07502
1.07602
1.07778
1.08039
1.08403
1.08881
1.09483
1.10218
1.11098
1.12128
1.13312
1.14649
1.16128
1.17788
1.19622
1.21615
1.23749
1.25999
1.28336
1.30726
1.33122
1.35495
1.37802
1.39992
1.41994
1.43658
1.44887
1.08027
1.0783
1.07668
1.07553
1.0749
1.07484
1.07542
1.07671
1.07887
1.08199
1.08614
1.09141
1.09784
1.1057
1.11505
1.12594
1.1384
1.15245
1.16802
1.18496
1.20376
1.22418
1.24596
1.26878
1.29231
1.31621
1.34006
1.36352
1.38612
1.40727
1.42586
1.44289
1.45505
1.07906
1.07731
1.07598
1.07513
1.07479
1.07509
1.0761
1.07787
1.08047
1.08408
1.0888
1.09466
1.10173
1.11026
1.12031
1.13192
1.14513
1.15988
1.17602
1.19398
1.21358
1.23463
1.25678
1.27955
1.30222
1.32565
1.34913
1.3721
1.39414
1.41494
1.43404
1.45056
1.46125
1.07766
1.07623
1.07523
1.07476
1.07486
1.07559
1.0771
1.07942
1.08261
1.08687
1.09224
1.09878
1.10671
1.11606
1.12689
1.13915
1.15314
1.16884
1.18612
1.20482
1.22467
1.24613
1.26871
1.29192
1.31524
1.33783
1.36064
1.38281
1.40388
1.42363
1.44163
1.45653
1.4677
1.07608
1.07503
1.07447
1.07443
1.07504
1.07632
1.07845
1.08144
1.08536
1.09037
1.0965
1.10398
1.11282
1.12299
1.13476
1.14809
1.16284
1.17935
1.19739
1.21659
1.23745
1.25955
1.28229
1.30495
1.32828
1.35138
1.37356
1.39362
1.41291
1.43083
1.44743
1.46211
1.47203
1.07444
1.07382
1.07372
1.07424
1.07538
1.07727
1.08004
1.0837
1.08841
1.09416
1.10114
1.10954
1.11935
1.1305
1.14325
1.15739
1.17322
1.19037
1.20919
1.22908
1.25055
1.27296
1.29546
1.31874
1.34185
1.36367
1.38508
1.40492
1.42216
1.43536
1.44756
1.46034
1.4695
1.0732
1.07292
1.07319
1.07412
1.07571
1.07805
1.08124
1.08541
1.09069
1.09705
1.10467
1.1137
1.12402
1.1358
1.14923
1.16411
1.1807
1.19859
1.21809
1.23852
1.26032
1.28255
1.30581
1.32915
1.35137
1.37326
1.39315
1.41184
1.42729
1.43642
1.43896
1.43899
1.45134
1.08993
1.08691
1.08411
1.08157
1.07933
1.07746
1.07602
1.07506
1.07465
1.07487
1.07582
1.07759
1.08027
1.08395
1.08886
1.09514
1.10275
1.11177
1.12229
1.13436
1.14843
1.16414
1.18149
1.20045
1.22091
1.24271
1.26561
1.28931
1.31345
1.33759
1.36118
1.38343
1.4029
1.41555
1.08983
1.08681
1.08401
1.08146
1.07923
1.07735
1.0759
1.07495
1.07456
1.07481
1.0758
1.07762
1.08037
1.08414
1.08908
1.09529
1.10287
1.1119
1.12249
1.13471
1.14863
1.16426
1.18159
1.20055
1.22105
1.24292
1.26588
1.28959
1.31373
1.33783
1.36135
1.38355
1.403
1.41564
1.08973
1.08667
1.08383
1.08127
1.07901
1.07713
1.07568
1.07472
1.07434
1.07461
1.07563
1.07749
1.08029
1.08413
1.08912
1.09538
1.10302
1.11213
1.12279
1.13509
1.14907
1.16476
1.18215
1.20122
1.22196
1.24443
1.26751
1.29083
1.3156
1.33993
1.36348
1.38544
1.40404
1.41763
1.08941
1.0864
1.08362
1.0811
1.07889
1.07705
1.07565
1.07476
1.07445
1.0748
1.07591
1.07787
1.08077
1.08472
1.08982
1.09618
1.10392
1.11313
1.12392
1.13636
1.15051
1.16638
1.18394
1.20311
1.22378
1.24576
1.26877
1.2925
1.31663
1.3407
1.36417
1.38638
1.40611
1.41998
1.08895
1.08598
1.08324
1.08077
1.07862
1.07684
1.07552
1.0747
1.07448
1.07494
1.07616
1.07823
1.08127
1.08537
1.09065
1.0972
1.10513
1.11454
1.12553
1.13818
1.15255
1.16864
1.1864
1.20577
1.2266
1.24868
1.27178
1.29558
1.3197
1.3437
1.36708
1.38917
1.40878
1.42256
1.0884
1.08549
1.08281
1.08042
1.07835
1.07668
1.07546
1.07476
1.07465
1.07521
1.07655
1.07875
1.0819
1.08621
1.0918
1.09864
1.10682
1.11666
1.12799
1.14086
1.15571
1.1721
1.18996
1.20995
1.23121
1.25363
1.27698
1.30094
1.32512
1.34908
1.37225
1.3938
1.41203
1.42541
1.08765
1.0848
1.0822
1.07989
1.07793
1.07636
1.07525
1.07467
1.07469
1.07536
1.07686
1.07928
1.08271
1.08726
1.09305
1.10018
1.10873
1.1188
1.13046
1.14376
1.15874
1.1754
1.19366
1.21352
1.2348
1.25728
1.28063
1.30456
1.32869
1.35258
1.37572
1.39741
1.41661
1.43011
1.08675
1.08396
1.08143
1.07922
1.07738
1.07596
1.07503
1.07467
1.07495
1.07594
1.07776
1.08049
1.08425
1.08914
1.09529
1.10276
1.11162
1.1222
1.13427
1.14781
1.16322
1.18051
1.19895
1.21909
1.24078
1.26393
1.28696
1.31075
1.33483
1.35881
1.38253
1.40311
1.4218
1.43502
1.08567
1.08299
1.08057
1.07849
1.0768
1.07556
1.07484
1.07472
1.07525
1.07654
1.07865
1.0817
1.08575
1.09101
1.09756
1.1055
1.11491
1.12588
1.13846
1.15272
1.1687
1.18636
1.20561
1.22635
1.24841
1.27148
1.29523
1.31931
1.34337
1.36691
1.38951
1.4104
1.42851
1.44033
1.08432
1.08178
1.07955
1.07767
1.07619
1.07518
1.0747
1.07479
1.07562
1.07726
1.07982
1.08338
1.08804
1.09389
1.10105
1.10957
1.11952
1.1309
1.14402
1.15887
1.17543
1.19367
1.21347
1.2347
1.25707
1.28034
1.30417
1.32824
1.35212
1.3753
1.39734
1.41752
1.43431
1.4467
1.08276
1.08043
1.07842
1.07678
1.07555
1.07484
1.07472
1.07525
1.07649
1.07852
1.08154
1.08563
1.09088
1.09737
1.10517
1.11434
1.12491
1.13715
1.15108
1.16672
1.18407
1.20306
1.22352
1.2452
1.26766
1.29023
1.31371
1.33747
1.36098
1.38376
1.40536
1.42526
1.44243
1.45351
1.08091
1.07885
1.07711
1.07579
1.07495
1.07464
1.07492
1.07592
1.07769
1.08029
1.08393
1.08868
1.09461
1.1018
1.11025
1.12025
1.13183
1.14505
1.15983
1.176
1.194
1.21363
1.23468
1.2569
1.2799
1.3032
1.326
1.34925
1.37216
1.3942
1.41503
1.43417
1.45067
1.46134
1.0788
1.07706
1.07569
1.07477
1.07433
1.07449
1.07529
1.07688
1.07929
1.08259
1.08696
1.09245
1.09911
1.10715
1.1166
1.12741
1.13992
1.15409
1.16983
1.18691
1.20577
1.22619
1.24787
1.27036
1.29295
1.3164
1.33991
1.36287
1.38471
1.40454
1.42397
1.4421
1.45799
1.46826
1.0765
1.0751
1.07413
1.07363
1.07367
1.07437
1.07575
1.07796
1.08103
1.0851
1.0902
1.09653
1.10408
1.11309
1.12353
1.13533
1.14878
1.1637
1.18041
1.19866
1.21805
1.23905
1.26108
1.28344
1.30677
1.33031
1.35334
1.37475
1.39569
1.41516
1.4329
1.44863
1.46373
1.47379
1.07481
1.07369
1.073
1.07283
1.07326
1.07437
1.0762
1.07885
1.08247
1.08704
1.09272
1.09969
1.10789
1.11753
1.12848
1.14092
1.15508
1.17074
1.18822
1.20721
1.22717
1.24854
1.27051
1.29363
1.31703
1.33956
1.36199
1.38276
1.40293
1.42118
1.43693
1.45094
1.46659
1.47707
1.09174
1.08858
1.08561
1.08288
1.08044
1.07835
1.07667
1.07542
1.07469
1.0746
1.0752
1.07658
1.07884
1.0821
1.08647
1.09207
1.09899
1.10731
1.11713
1.12854
1.14162
1.15641
1.17289
1.19105
1.2108
1.23202
1.25452
1.278
1.30213
1.32666
1.35156
1.37452
1.39448
1.40737
1.09173
1.0886
1.08565
1.08294
1.0805
1.07839
1.07668
1.07542
1.0747
1.07459
1.07518
1.07658
1.07886
1.08213
1.08651
1.0921
1.09902
1.10737
1.11722
1.12867
1.14179
1.1566
1.17314
1.19139
1.21131
1.23285
1.25609
1.27987
1.30405
1.3283
1.35213
1.37473
1.3946
1.40753
1.09167
1.08851
1.08554
1.0828
1.08035
1.07824
1.07653
1.07529
1.07458
1.07449
1.07509
1.0765
1.07879
1.08209
1.08651
1.09217
1.09921
1.10782
1.1179
1.12959
1.14294
1.158
1.17475
1.19316
1.21315
1.23457
1.25717
1.28063
1.30466
1.3288
1.35254
1.37517
1.39528
1.40934
1.0914
1.08826
1.08531
1.08261
1.08019
1.07812
1.07645
1.07527
1.07463
1.07461
1.0753
1.07679
1.07919
1.08259
1.0871
1.09284
1.09993
1.10848
1.11859
1.13038
1.14398
1.15954
1.17666
1.19534
1.21551
1.23705
1.25973
1.28327
1.30731
1.33143
1.35511
1.37758
1.39738
1.41029
1.0909
1.08779
1.08488
1.08223
1.07986
1.07785
1.07625
1.07514
1.07459
1.07467
1.07547
1.07709
1.07962
1.08317
1.08785
1.09377
1.10104
1.10978
1.12008
1.13207
1.14588
1.16167
1.17899
1.19785
1.2182
1.23987
1.26266
1.28626
1.31034
1.33445
1.35806
1.38044
1.40014
1.41298
1.09014
1.08707
1.08421
1.08162
1.07932
1.0774
1.07592
1.07495
1.07453
1.07473
1.07572
1.07755
1.0803
1.08409
1.08905
1.09528
1.1029
1.11199
1.12263
1.1349
1.14888
1.16456
1.18192
1.20091
1.22139
1.24318
1.26605
1.28971
1.31379
1.33787
1.36144
1.38374
1.40353
1.41737
1.08933
1.08632
1.08354
1.08102
1.07881
1.07699
1.07559
1.07471
1.07442
1.0748
1.07597
1.07803
1.08101
1.08501
1.09025
1.09688
1.10488
1.11435
1.12538
1.13805
1.15239
1.16843
1.18614
1.20546
1.22627
1.24834
1.27144
1.29525
1.3194
1.34344
1.36684
1.38891
1.40826
1.42087
1.08851
1.08558
1.08288
1.08047
1.07839
1.0767