/*--------------------------------*- C++ -*----------------------------------*\
| =========                 |                                                 |
| \\      /  F ield         | OpenFOAM: The Open Source CFD Toolbox           |
|  \\    /   O peration     | Version:  2312                                  |
|   \\  /    A nd           | Website:  www.openfoam.com                      |
|    \\/     M anipulation  |                                                 |
\*---------------------------------------------------------------------------*/
FoamFile
{
    version     2.0;
    format      ascii;
    arch        "LSB;label=32;scalar=64";
    class       volVectorField;
    location    "0.5";
    object      D_0_0;
}
// * * * * * * * * * * * * * * * * * * * * * * * * * * * * * * * * * * * * * //

dimensions      [0 1 0 0 0 0 0];

internalField   nonuniform List<vector> 
1620
(
(0.000104526 0.000278532 4.52206e-05)
(5.4571e-05 0.000292451 4.52205e-05)
(2.95868e-06 0.000297484 4.52206e-05)
(-4.87437e-05 0.000293479 4.5221e-05)
(-9.89653e-05 0.000280556 4.5221e-05)
(-0.00014618 0.000259109 4.52209e-05)
(-0.000188953 0.000229788 4.5221e-05)
(-0.000225984 0.000193485 4.52209e-05)
(-0.00025615 0.000151304 4.52207e-05)
(-0.000278532 0.000104526 4.52206e-05)
(-0.000292451 5.4571e-05 4.52205e-05)
(-0.000297484 2.95865e-06 4.52206e-05)
(-0.000293479 -4.87437e-05 4.5221e-05)
(-0.000280556 -9.89653e-05 4.5221e-05)
(-0.000259109 -0.00014618 4.52209e-05)
(-0.000229788 -0.000188953 4.5221e-05)
(-0.000193485 -0.000225984 4.52209e-05)
(-0.000151304 -0.00025615 4.52207e-05)
(-0.000104526 -0.000278532 4.52206e-05)
(-5.4571e-05 -0.000292451 4.52205e-05)
(-2.95864e-06 -0.000297484 4.52206e-05)
(4.87437e-05 -0.000293479 4.5221e-05)
(9.89653e-05 -0.000280556 4.5221e-05)
(0.00014618 -0.000259109 4.52209e-05)
(0.000188953 -0.000229788 4.5221e-05)
(0.000225984 -0.000193485 4.52209e-05)
(0.00025615 -0.000151304 4.52207e-05)
(0.000278532 -0.000104526 4.52206e-05)
(0.000292451 -5.4571e-05 4.52205e-05)
(0.000297484 -2.95866e-06 4.52206e-05)
(0.000293479 4.87437e-05 4.5221e-05)
(0.000280556 9.89653e-05 4.52211e-05)
(0.000259109 0.00014618 4.52209e-05)
(0.000229788 0.000188953 4.5221e-05)
(0.000193485 0.000225984 4.52209e-05)
(0.000151304 0.00025615 4.52207e-05)
(5.00597e-05 0.000295001 6.1203e-05)
(-1.92728e-06 0.000299213 6.1203e-05)
(-5.38554e-05 0.000294332 6.1203e-05)
(-0.000104147 0.000280508 6.12032e-05)
(-0.000151275 0.000258162 6.12033e-05)
(-0.000193806 0.000227971 6.12032e-05)
(-0.000230449 0.000190854 6.12031e-05)
(-0.000260089 0.000147937 6.12031e-05)
(-0.000281827 0.000100526 6.12029e-05)
(-0.000295001 5.00597e-05 6.1203e-05)
(-0.000299213 -1.9273e-06 6.1203e-05)
(-0.000294332 -5.38554e-05 6.1203e-05)
(-0.000280508 -0.000104147 6.12032e-05)
(-0.000258162 -0.000151275 6.12033e-05)
(-0.000227971 -0.000193806 6.12031e-05)
(-0.000190854 -0.000230449 6.12031e-05)
(-0.000147937 -0.000260089 6.12031e-05)
(-0.000100526 -0.000281827 6.12029e-05)
(-5.00597e-05 -0.000295001 6.1203e-05)
(1.92731e-06 -0.000299213 6.1203e-05)
(5.38555e-05 -0.000294332 6.1203e-05)
(0.000104147 -0.000280508 6.12032e-05)
(0.000151275 -0.000258162 6.12033e-05)
(0.000193806 -0.000227971 6.12031e-05)
(0.000230449 -0.000190854 6.12031e-05)
(0.000260089 -0.000147937 6.12031e-05)
(0.000281827 -0.000100526 6.12029e-05)
(0.000295001 -5.00597e-05 6.1203e-05)
(0.000299213 1.9273e-06 6.1203e-05)
(0.000294332 5.38554e-05 6.1203e-05)
(0.000280509 0.000104147 6.12032e-05)
(0.000258162 0.000151275 6.12033e-05)
(0.000227971 0.000193806 6.12032e-05)
(0.000190854 0.000230449 6.12031e-05)
(0.000147937 0.000260089 6.12031e-05)
(0.000100526 0.000281827 6.12029e-05)
(-2.62952e-05 0.000303685 6.90221e-05)
(-7.86302e-05 0.000294506 6.90223e-05)
(-0.000128576 0.000276378 6.90222e-05)
(-0.000174615 0.000249852 6.90222e-05)
(-0.000215349 0.000215735 6.90224e-05)
(-0.000249539 0.000175062 6.90223e-05)
(-0.000276147 0.00012907 6.90223e-05)
(-0.000294365 7.9157e-05 6.9022e-05)
(-0.000303638 2.68386e-05 6.90221e-05)
(-0.000303685 -2.62952e-05 6.90221e-05)
(-0.000294506 -7.86302e-05 6.90223e-05)
(-0.000276378 -0.000128576 6.90222e-05)
(-0.000249852 -0.000174615 6.90222e-05)
(-0.000215735 -0.000215349 6.90224e-05)
(-0.000175062 -0.000249539 6.90223e-05)
(-0.00012907 -0.000276147 6.90223e-05)
(-7.9157e-05 -0.000294365 6.9022e-05)
(-2.68386e-05 -0.000303638 6.90221e-05)
(2.62952e-05 -0.000303685 6.90221e-05)
(7.86302e-05 -0.000294506 6.90223e-05)
(0.000128576 -0.000276378 6.90222e-05)
(0.000174615 -0.000249852 6.90222e-05)
(0.000215349 -0.000215735 6.90224e-05)
(0.000249539 -0.000175062 6.90223e-05)
(0.000276147 -0.00012907 6.90223e-05)
(0.000294365 -7.9157e-05 6.9022e-05)
(0.000303638 -2.68386e-05 6.90221e-05)
(0.000303685 2.62952e-05 6.90221e-05)
(0.000294506 7.86302e-05 6.90223e-05)
(0.000276378 0.000128576 6.90222e-05)
(0.000249852 0.000174615 6.90222e-05)
(0.000215735 0.000215349 6.90224e-05)
(0.000175062 0.000249539 6.90223e-05)
(0.00012907 0.000276147 6.90223e-05)
(7.9157e-05 0.000294365 6.90221e-05)
(2.68386e-05 0.000303638 6.90221e-05)
(0.000202488 0.000825004 0.000175577)
(5.61514e-05 0.000847632 0.000175577)
(-9.18912e-05 0.000844505 0.000175577)
(-0.000237142 0.000815718 0.000175578)
(-0.000375187 0.000762147 0.000175579)
(-0.000501832 0.000685418 0.000175578)
(-0.00061323 0.000587862 0.000175578)
(-0.000705995 0.000472445 0.000175578)
(-0.000777308 0.000342672 0.000175577)
(-0.000825004 0.000202488 0.000175577)
(-0.000847632 5.61513e-05 0.000175577)
(-0.000844505 -9.18913e-05 0.000175577)
(-0.000815718 -0.000237142 0.000175578)
(-0.000762147 -0.000375187 0.000175579)
(-0.000685418 -0.000501832 0.000175578)
(-0.000587862 -0.00061323 0.000175578)
(-0.000472445 -0.000705995 0.000175578)
(-0.000342672 -0.000777308 0.000175577)
(-0.000202488 -0.000825004 0.000175577)
(-5.61512e-05 -0.000847632 0.000175577)
(9.18913e-05 -0.000844505 0.000175577)
(0.000237142 -0.000815718 0.000175578)
(0.000375187 -0.000762147 0.000175579)
(0.000501832 -0.000685418 0.000175578)
(0.00061323 -0.000587862 0.000175578)
(0.000705995 -0.000472445 0.000175578)
(0.000777308 -0.000342672 0.000175577)
(0.000825004 -0.000202488 0.000175577)
(0.000847632 -5.61513e-05 0.000175577)
(0.000844505 9.18913e-05 0.000175577)
(0.000815718 0.000237142 0.000175578)
(0.000762147 0.000375187 0.000175579)
(0.000685418 0.000501832 0.000175578)
(0.000587862 0.00061323 0.000175578)
(0.000472445 0.000705995 0.000175578)
(0.000342672 0.000777308 0.000175577)
(0.000114487 0.000868808 0.000223877)
(-3.81193e-05 0.000875489 0.000223877)
(-0.000189567 0.000855569 0.000223877)
(-0.000335255 0.000809654 0.000223878)
(-0.000470757 0.000739137 0.000223878)
(-0.000591955 0.000646161 0.000223878)
(-0.000695166 0.000533553 0.000223877)
(-0.000777255 0.000404732 0.000223877)
(-0.000835728 0.000263614 0.000223877)
(-0.000868808 0.000114486 0.000223877)
(-0.000875489 -3.81193e-05 0.000223877)
(-0.000855569 -0.000189567 0.000223877)
(-0.000809654 -0.000335255 0.000223877)
(-0.000739137 -0.000470757 0.000223878)
(-0.000646161 -0.000591955 0.000223878)
(-0.000533553 -0.000695166 0.000223877)
(-0.000404732 -0.000777255 0.000223877)
(-0.000263614 -0.000835728 0.000223877)
(-0.000114486 -0.000868808 0.000223877)
(3.81194e-05 -0.000875489 0.000223877)
(0.000189567 -0.000855569 0.000223877)
(0.000335255 -0.000809654 0.000223877)
(0.000470757 -0.000739137 0.000223878)
(0.000591955 -0.000646161 0.000223878)
(0.000695166 -0.000533553 0.000223877)
(0.000777255 -0.000404732 0.000223877)
(0.000835728 -0.000263614 0.000223877)
(0.000868808 -0.000114486 0.000223877)
(0.000875489 3.81193e-05 0.000223877)
(0.000855569 0.000189567 0.000223877)
(0.000809654 0.000335255 0.000223878)
(0.000739137 0.000470757 0.000223878)
(0.000646161 0.000591955 0.000223878)
(0.000533553 0.000695166 0.000223877)
(0.000404732 0.000777255 0.000223877)
(0.000263614 0.000835728 0.000223877)
(1.2635e-06 0.000903548 0.000260432)
(-0.000155655 0.000890041 0.000260432)
(-0.000307844 0.00084949 0.000260432)
(-0.000450679 0.000783127 0.000260432)
(-0.000579821 0.00069297 0.000260432)
(-0.000691345 0.000581757 0.000260432)
(-0.000781863 0.000452868 0.000260432)
(-0.000848625 0.000310219 0.000260432)
(-0.000889602 0.000158144 0.000260432)
(-0.000903548 1.26345e-06 0.000260432)
(-0.000890041 -0.000155655 0.000260432)
(-0.00084949 -0.000307844 0.000260432)
(-0.000783127 -0.000450679 0.000260432)
(-0.00069297 -0.000579821 0.000260432)
(-0.000581757 -0.000691345 0.000260432)
(-0.000452868 -0.000781863 0.000260432)
(-0.000310219 -0.000848625 0.000260432)
(-0.000158144 -0.000889602 0.000260432)
(-1.26341e-06 -0.000903548 0.000260432)
(0.000155655 -0.000890041 0.000260432)
(0.000307844 -0.00084949 0.000260432)
(0.000450679 -0.000783127 0.000260432)
(0.000579821 -0.00069297 0.000260432)
(0.000691345 -0.000581757 0.000260432)
(0.000781863 -0.000452868 0.000260432)
(0.000848625 -0.000310219 0.000260432)
(0.000889602 -0.000158144 0.000260432)
(0.000903548 -1.26345e-06 0.000260432)
(0.000890041 0.000155655 0.000260432)
(0.00084949 0.000307844 0.000260432)
(0.000783127 0.000450679 0.000260432)
(0.00069297 0.000579821 0.000260432)
(0.000581757 0.000691345 0.000260432)
(0.000452868 0.000781863 0.000260432)
(0.000310219 0.000848625 0.000260432)
(0.000158144 0.000889602 0.000260432)
(0.00026014 0.00137058 0.00038863)
(1.81895e-05 0.00139493 0.00038863)
(-0.000224313 0.00137689 0.000388631)
(-0.000460001 0.00131703 0.000388632)
(-0.000681711 0.00121714 0.000388632)
(-0.000882708 0.00108027 0.000388632)
(-0.00105688 0.000910577 0.000388632)
(-0.00119895 0.000713217 0.000388631)
(-0.00130458 0.000494186 0.00038863)
(-0.00137058 0.00026014 0.00038863)
(-0.00139493 1.81894e-05 0.00038863)
(-0.00137689 -0.000224314 0.000388631)
(-0.00131702 -0.000460001 0.000388632)
(-0.00121714 -0.000681711 0.000388632)
(-0.00108027 -0.000882708 0.000388632)
(-0.000910577 -0.00105688 0.000388632)
(-0.000713217 -0.00119895 0.000388631)
(-0.000494186 -0.00130458 0.00038863)
(-0.00026014 -0.00137058 0.00038863)
(-1.81893e-05 -0.00139493 0.00038863)
(0.000224314 -0.00137689 0.000388631)
(0.000460001 -0.00131703 0.000388632)
(0.000681711 -0.00121714 0.000388632)
(0.000882708 -0.00108027 0.000388632)
(0.00105688 -0.000910577 0.000388632)
(0.00119895 -0.000713217 0.000388631)
(0.00130458 -0.000494186 0.000388631)
(0.00137058 -0.00026014 0.00038863)
(0.00139493 -1.81894e-05 0.00038863)
(0.0013769 0.000224313 0.000388631)
(0.00131703 0.000460001 0.000388632)
(0.00121714 0.000681711 0.000388632)
(0.00108027 0.000882708 0.000388632)
(0.000910577 0.00105688 0.000388632)
(0.000713217 0.00119895 0.000388631)
(0.000494186 0.00130458 0.000388631)
(0.000140188 0.00142131 0.000453542)
(-0.000108749 0.00142406 0.000453542)
(-0.000354383 0.00138354 0.000453542)
(-0.000589247 0.00130098 0.000453543)
(-0.000806209 0.0011789 0.000453543)
(-0.000998674 0.00102099 0.000453543)
(-0.0011608 0.000832061 0.000453543)
(-0.00128765 0.00061785 0.000453543)
(-0.00137537 0.000384866 0.000453542)
(-0.00142131 0.000140188 0.000453542)
(-0.00142406 -0.00010875 0.000453542)
(-0.00138354 -0.000354383 0.000453542)
(-0.00130098 -0.000589247 0.000453543)
(-0.0011789 -0.000806209 0.000453543)
(-0.00102099 -0.000998674 0.000453543)
(-0.000832061 -0.0011608 0.000453543)
(-0.00061785 -0.00128765 0.000453543)
(-0.000384866 -0.00137537 0.000453542)
(-0.000140187 -0.00142131 0.000453542)
(0.00010875 -0.00142406 0.000453542)
(0.000354383 -0.00138354 0.000453542)
(0.000589248 -0.00130098 0.000453543)
(0.000806209 -0.0011789 0.000453543)
(0.000998674 -0.00102099 0.000453543)
(0.0011608 -0.000832061 0.000453543)
(0.00128765 -0.00061785 0.000453543)
(0.00137537 -0.000384866 0.000453542)
(0.00142131 -0.000140188 0.000453542)
(0.00142406 0.00010875 0.000453542)
(0.00138354 0.000354383 0.000453542)
(0.00130098 0.000589247 0.000453543)
(0.0011789 0.000806209 0.000453543)
(0.00102099 0.000998674 0.000453543)
(0.000832061 0.0011608 0.000453543)
(0.00061785 0.00128765 0.000453543)
(0.000384866 0.00137537 0.000453542)
(-1.95881e-06 0.00146106 0.000506979)
(-0.000255639 0.00143852 0.000506979)
(-0.000501552 0.00137228 0.000506979)
(-0.000732226 0.00126434 0.00050698)
(-0.000940652 0.00111798 0.00050698)
(-0.0011205 0.000937652 0.00050698)
(-0.00126629 0.000728834 0.000506979)
(-0.00137362 0.000497872 0.000506979)
(-0.0014392 0.000251782 0.000506979)
(-0.00146106 -1.95889e-06 0.000506979)
(-0.00143852 -0.000255639 0.000506979)
(-0.00137228 -0.000501552 0.000506979)
(-0.00126434 -0.000732226 0.00050698)
(-0.00111798 -0.000940652 0.00050698)
(-0.000937652 -0.0011205 0.00050698)
(-0.000728834 -0.00126629 0.000506979)
(-0.000497872 -0.00137362 0.000506979)
(-0.000251782 -0.0014392 0.000506979)
(1.95896e-06 -0.00146106 0.000506979)
(0.00025564 -0.00143852 0.000506979)
(0.000501552 -0.00137228 0.000506979)
(0.000732226 -0.00126434 0.00050698)
(0.000940652 -0.00111798 0.00050698)
(0.0011205 -0.000937652 0.00050698)
(0.00126629 -0.000728834 0.000506979)
(0.00137362 -0.000497872 0.000506979)
(0.0014392 -0.000251782 0.000506979)
(0.00146106 1.9589e-06 0.000506979)
(0.00143852 0.000255639 0.000506979)
(0.00137228 0.000501552 0.000506979)
(0.00126434 0.000732226 0.00050698)
(0.00111798 0.000940652 0.00050698)
(0.000937652 0.0011205 0.00050698)
(0.000728834 0.00126629 0.00050698)
(0.000497872 0.00137362 0.000506979)
(0.000251782 0.0014392 0.000506979)
(0.000255135 0.00190126 0.000649474)
(-7.88911e-05 0.00191668 0.000649474)
(-0.000410521 0.00187386 0.000649474)
(-0.000729676 0.00177411 0.000649475)
(-0.00102666 0.00162045 0.000649475)
(-0.00129245 0.00141755 0.000649476)
(-0.00151897 0.00117158 0.000649475)
(-0.00169934 0.000890017 0.000649475)
(-0.00182807 0.000581409 0.000649474)
(-0.00190126 0.000255135 0.000649474)
(-0.00191668 -7.88913e-05 0.000649474)
(-0.00187386 -0.000410521 0.000649474)
(-0.00177411 -0.000729676 0.000649475)
(-0.00162045 -0.00102666 0.000649475)
(-0.00141755 -0.00129245 0.000649476)
(-0.00117158 -0.00151897 0.000649475)
(-0.000890017 -0.00169934 0.000649475)
(-0.000581409 -0.00182807 0.000649474)
(-0.000255135 -0.00190126 0.000649474)
(7.88914e-05 -0.00191668 0.000649474)
(0.000410521 -0.00187386 0.000649474)
(0.000729676 -0.00177411 0.000649475)
(0.00102666 -0.00162045 0.000649475)
(0.00129245 -0.00141755 0.000649476)
(0.00151897 -0.00117158 0.000649475)
(0.00169934 -0.000890017 0.000649475)
(0.00182807 -0.000581409 0.000649474)
(0.00190126 -0.000255135 0.000649474)
(0.00191668 7.88913e-05 0.000649474)
(0.00187386 0.000410521 0.000649474)
(0.00177411 0.000729676 0.000649475)
(0.00162045 0.00102666 0.000649475)
(0.00141755 0.00129245 0.000649476)
(0.00117158 0.00151897 0.000649475)
(0.000890018 0.00169934 0.000649475)
(0.000581409 0.00182807 0.000649474)
(0.000118381 0.00193649 0.000719396)
(-0.000219686 0.00192763 0.000719396)
(-0.000551077 0.00186019 0.000719396)
(-0.000865724 0.00173624 0.000719397)
(-0.00115407 0.00155953 0.000719397)
(-0.00140734 0.00133544 0.000719397)
(-0.00161786 0.00107077 0.000719397)
(-0.00177922 0.000773561 0.000719397)
(-0.00188651 0.00045285 0.000719397)
(-0.00193649 0.000118381 0.000719396)
(-0.00192763 -0.000219686 0.000719396)
(-0.00186019 -0.000551077 0.000719396)
(-0.00173624 -0.000865724 0.000719396)
(-0.00155953 -0.00115407 0.000719397)
(-0.00133544 -0.00140734 0.000719397)
(-0.00107077 -0.00161786 0.000719397)
(-0.00077356 -0.00177922 0.000719397)
(-0.00045285 -0.00188651 0.000719397)
(-0.000118381 -0.00193649 0.000719396)
(0.000219686 -0.00192763 0.000719396)
(0.000551077 -0.00186019 0.000719396)
(0.000865724 -0.00173624 0.000719397)
(0.00115407 -0.00155953 0.000719397)
(0.00140734 -0.00133544 0.000719397)
(0.00161786 -0.00107077 0.000719397)
(0.00177922 -0.000773561 0.000719397)
(0.00188651 -0.00045285 0.000719397)
(0.00193649 -0.000118381 0.000719396)
(0.00192763 0.000219686 0.000719396)
(0.00186019 0.000551077 0.000719396)
(0.00173624 0.000865724 0.000719397)
(0.00155953 0.00115407 0.000719397)
(0.00133544 0.00140734 0.000719397)
(0.00107077 0.00161786 0.000719397)
(0.000773561 0.00177922 0.000719397)
(0.000452851 0.00188651 0.000719397)
(-3.72859e-05 0.00196057 0.000777898)
(-0.000377169 0.00192431 0.000777898)
(-0.000705592 0.00182958 0.000777898)
(-0.00101258 0.00167926 0.000777898)
(-0.00128879 0.00147792 0.000777897)
(-0.00152585 0.00123167 0.000777898)
(-0.00171655 0.000947995 0.000777898)
(-0.00185509 0.000635518 0.000777898)
(-0.00193726 0.00030373 0.000777898)
(-0.00196057 -3.72861e-05 0.000777898)
(-0.00192431 -0.000377169 0.000777898)
(-0.00182958 -0.000705592 0.000777898)
(-0.00167926 -0.00101258 0.000777898)
(-0.00147792 -0.00128879 0.000777897)
(-0.00123167 -0.00152585 0.000777898)
(-0.000947995 -0.00171655 0.000777898)
(-0.000635518 -0.00185509 0.000777898)
(-0.00030373 -0.00193726 0.000777898)
(3.72862e-05 -0.00196057 0.000777898)
(0.000377169 -0.00192431 0.000777898)
(0.000705592 -0.00182958 0.000777898)
(0.00101258 -0.00167926 0.000777898)
(0.00128879 -0.00147792 0.000777897)
(0.00152585 -0.00123167 0.000777898)
(0.00171655 -0.000947995 0.000777898)
(0.00185509 -0.000635518 0.000777898)
(0.00193726 -0.00030373 0.000777898)
(0.00196057 3.72861e-05 0.000777898)
(0.00192431 0.000377169 0.000777898)
(0.00182958 0.000705592 0.000777898)
(0.00167926 0.00101258 0.000777898)
(0.00147792 0.00128879 0.000777898)
(0.00123167 0.00152585 0.000777898)
(0.000947995 0.00171655 0.000777898)
(0.000635518 0.00185509 0.000777898)
(0.00030373 0.00193726 0.000777898)
(0.000192748 0.00239735 0.00093969)
(-0.000226476 0.0023944 0.000939689)
(-0.000638819 0.0023187 0.00093969)
(-0.00103175 0.00217254 0.00093969)
(-0.00139333 0.00196038 0.000939691)
(-0.00171258 0.00168864 0.000939691)
(-0.00197979 0.0013656 0.000939691)
(-0.00218685 0.00100107 0.000939691)
(-0.00232746 0.000606116 0.000939691)
(-0.00239735 0.000192748 0.00093969)
(-0.0023944 -0.000226476 0.000939689)
(-0.0023187 -0.000638819 0.00093969)
(-0.00217254 -0.00103175 0.00093969)
(-0.00196038 -0.00139333 0.000939691)
(-0.00168864 -0.00171258 0.000939691)
(-0.0013656 -0.00197979 0.000939691)
(-0.00100107 -0.00218685 0.000939691)
(-0.000606116 -0.00232746 0.000939691)
(-0.000192748 -0.00239735 0.00093969)
(0.000226476 -0.0023944 0.000939689)
(0.00063882 -0.0023187 0.00093969)
(0.00103175 -0.00217254 0.00093969)
(0.00139333 -0.00196038 0.000939691)
(0.00171258 -0.00168864 0.000939691)
(0.00197979 -0.0013656 0.000939691)
(0.00218685 -0.00100107 0.000939691)
(0.00232746 -0.000606116 0.000939691)
(0.00239735 -0.000192748 0.00093969)
(0.0023944 0.000226476 0.000939689)
(0.0023187 0.000638819 0.00093969)
(0.00217254 0.00103175 0.00093969)
(0.00196038 0.00139333 0.000939691)
(0.00168864 0.00171258 0.000939691)
(0.0013656 0.00197979 0.000939691)
(0.00100107 0.00218685 0.000939691)
(0.000606116 0.00232746 0.000939691)
(5.13935e-05 0.00239922 0.00100584)
(-0.000366008 0.0023717 0.00100584)
(-0.000772288 0.00227211 0.00100584)
(-0.0011551 0.00210348 0.00100584)
(-0.00150282 0.00187095 0.00100584)
(-0.00180487 0.00158156 0.00100584)
(-0.00205209 0.00124412 0.00100584)
(-0.00223695 0.000868877 0.00100584)
(-0.00235385 0.000467233 0.00100584)
(-0.00239922 5.13934e-05 0.00100584)
(-0.0023717 -0.000366008 0.00100584)
(-0.00227211 -0.000772288 0.00100584)
(-0.00210348 -0.0011551 0.00100584)
(-0.00187095 -0.00150282 0.00100584)
(-0.00158156 -0.00180487 0.00100584)
(-0.00124412 -0.00205209 0.00100584)
(-0.000868877 -0.00223695 0.00100584)
(-0.000467233 -0.00235385 0.00100584)
(-5.13932e-05 -0.00239922 0.00100584)
(0.000366008 -0.0023717 0.00100584)
(0.000772288 -0.00227211 0.00100584)
(0.0011551 -0.00210348 0.00100584)
(0.00150282 -0.00187095 0.00100584)
(0.00180487 -0.00158156 0.00100584)
(0.00205209 -0.00124412 0.00100584)
(0.00223695 -0.000868877 0.00100584)
(0.00235385 -0.000467233 0.00100584)
(0.00239922 -5.13934e-05 0.00100584)
(0.0023717 0.000366008 0.00100584)
(0.00227211 0.000772288 0.00100584)
(0.00210348 0.0011551 0.00100584)
(0.00187095 0.00150282 0.00100584)
(0.00158156 0.00180487 0.00100584)
(0.00124412 0.00205209 0.00100584)
(0.000868877 0.00223695 0.00100584)
(0.000467234 0.00235385 0.00100584)
(-0.000105794 0.00239112 0.00106063)
(-0.000519401 0.00233643 0.00106063)
(-0.000917226 0.00221074 0.00106063)
(-0.00128718 0.00201788 0.00106063)
(-0.00161803 0.0017637 0.00106063)
(-0.00189971 0.00145594 0.00106063)
(-0.00212367 0.00110394 0.00106063)
(-0.0022831 0.0007184 0.00106063)
(-0.00237317 0.000311028 0.00106063)
(-0.00239112 -0.000105794 0.00106063)
(-0.00233643 -0.000519401 0.00106063)
(-0.00221074 -0.000917226 0.00106063)
(-0.00201788 -0.00128718 0.00106063)
(-0.0017637 -0.00161803 0.00106063)
(-0.00145594 -0.00189971 0.00106063)
(-0.00110394 -0.00212367 0.00106063)
(-0.000718399 -0.0022831 0.00106063)
(-0.000311028 -0.00237317 0.00106063)
(0.000105794 -0.00239112 0.00106063)
(0.000519401 -0.00233643 0.00106063)
(0.000917226 -0.00221074 0.00106063)
(0.00128718 -0.00201788 0.00106063)
(0.00161803 -0.0017637 0.00106063)
(0.00189971 -0.00145594 0.00106063)
(0.00212367 -0.00110394 0.00106063)
(0.0022831 -0.000718399 0.00106063)
(0.00237317 -0.000311028 0.00106063)
(0.00239112 0.000105794 0.00106063)
(0.00233643 0.000519401 0.00106063)
(0.00221074 0.000917226 0.00106063)
(0.00201788 0.00128718 0.00106063)
(0.0017637 0.00161803 0.00106063)
(0.00145594 0.00189971 0.00106063)
(0.00110394 0.00212367 0.00106063)
(0.0007184 0.0022831 0.00106063)
(0.000311028 0.00237317 0.00106063)
(8.66056e-05 0.00283799 0.00124916)
(-0.000407523 0.00280992 0.00124916)
(-0.000889268 0.00269646 0.00124916)
(-0.00134399 0.00250108 0.00124916)
(-0.00175788 0.0022297 0.00124916)
(-0.00211836 0.00189057 0.00124916)
(-0.00241447 0.001494 0.00124916)
(-0.00263722 0.00105203 0.00124916)
(-0.00277984 0.000578102 0.00124916)
(-0.00283799 8.66053e-05 0.00124916)
(-0.00280992 -0.000407523 0.00124916)
(-0.00269646 -0.000889269 0.00124916)
(-0.00250108 -0.00134399 0.00124916)
(-0.0022297 -0.00175788 0.00124916)
(-0.00189057 -0.00211836 0.00124916)
(-0.001494 -0.00241447 0.00124916)
(-0.00105203 -0.00263722 0.00124916)
(-0.000578102 -0.00277984 0.00124916)
(-8.66051e-05 -0.00283799 0.00124916)
(0.000407523 -0.00280992 0.00124916)
(0.000889269 -0.00269646 0.00124916)
(0.00134399 -0.00250108 0.00124916)
(0.00175788 -0.0022297 0.00124916)
(0.00211836 -0.00189057 0.00124916)
(0.00241447 -0.001494 0.00124916)
(0.00263722 -0.00105203 0.00124916)
(0.00277984 -0.000578102 0.00124916)
(0.00283799 -8.66053e-05 0.00124916)
(0.00280992 0.000407523 0.00124916)
(0.00269646 0.000889269 0.00124916)
(0.00250108 0.00134399 0.00124916)
(0.0022297 0.00175788 0.00124916)
(0.00189057 0.00211836 0.00124916)
(0.001494 0.00241447 0.00124916)
(0.00105203 0.00263722 0.00124916)
(0.000578103 0.00277984 0.00124916)
(-5.15189e-05 0.00279435 0.00130483)
(-0.00053597 0.00274295 0.00130483)
(-0.00100414 0.00260821 0.00130483)
(-0.00144179 0.00239422 0.00130483)
(-0.00183564 0.00210748 0.00130483)
(-0.00217371 0.00175671 0.00130483)
(-0.00244573 0.00135256 0.00130483)
(-0.00264345 0.000907312 0.00130483)
(-0.00276084 0.000434497 0.00130483)
(-0.00279435 -5.15191e-05 0.00130483)
(-0.00274295 -0.00053597 0.00130483)
(-0.00260821 -0.00100414 0.00130483)
(-0.00239422 -0.00144179 0.00130483)
(-0.00210748 -0.00183564 0.00130483)
(-0.00175671 -0.00217371 0.00130483)
(-0.00135256 -0.00244573 0.00130483)
(-0.000907312 -0.00264345 0.00130483)
(-0.000434497 -0.00276084 0.00130483)
(5.15193e-05 -0.00279435 0.00130483)
(0.000535971 -0.00274295 0.00130483)
(0.00100414 -0.00260821 0.00130483)
(0.00144179 -0.00239422 0.00130483)
(0.00183564 -0.00210748 0.00130483)
(0.00217371 -0.00175671 0.00130483)
(0.00244573 -0.00135256 0.00130483)
(0.00264345 -0.000907312 0.00130483)
(0.00276084 -0.000434497 0.00130483)
(0.00279435 5.15191e-05 0.00130483)
(0.00274295 0.00053597 0.00130483)
(0.00260821 0.00100414 0.00130483)
(0.00239422 0.00144179 0.00130483)
(0.00210748 0.00183564 0.00130483)
(0.00175671 0.00217371 0.00130483)
(0.00135256 0.00244573 0.00130483)
(0.000907312 0.00264345 0.00130483)
(0.000434497 0.00276084 0.00130483)
(-0.000202293 0.00274303 0.00134903)
(-0.000675543 0.00266623 0.00134903)
(-0.00112827 0.00250842 0.00134903)
(-0.00154671 0.00227439 0.00134903)
(-0.00191815 0.00197125 0.00134903)
(-0.00223132 0.00160822 0.00134903)
(-0.00247668 0.00119633 0.00134903)
(-0.00264679 0.000748079 0.00134903)
(-0.00273649 0.000277102 0.00134903)
(-0.00274303 -0.000202294 0.00134903)
(-0.00266623 -0.000675543 0.00134903)
(-0.00250842 -0.00112827 0.00134903)
(-0.00227439 -0.00154671 0.00134903)
(-0.00197125 -0.00191815 0.00134903)
(-0.00160822 -0.00223132 0.00134903)
(-0.00119632 -0.00247668 0.00134903)
(-0.000748079 -0.00264679 0.00134903)
(-0.000277102 -0.00273649 0.00134903)
(0.000202294 -0.00274303 0.00134903)
(0.000675543 -0.00266623 0.00134903)
(0.00112827 -0.00250842 0.00134903)
(0.00154671 -0.00227439 0.00134903)
(0.00191815 -0.00197125 0.00134903)
(0.00223132 -0.00160822 0.00134903)
(0.00247668 -0.00119633 0.00134903)
(0.00264679 -0.000748079 0.00134903)
(0.00273649 -0.000277102 0.00134903)
(0.00274303 0.000202294 0.00134903)
(0.00266623 0.000675543 0.00134903)
(0.00250842 0.00112827 0.00134903)
(0.00227439 0.00154671 0.00134903)
(0.00197125 0.00191815 0.00134903)
(0.00160822 0.00223132 0.00134903)
(0.00119633 0.00247668 0.00134903)
(0.000748079 0.00264679 0.00134903)
(0.000277103 0.00273649 0.00134903)
(-4.51063e-05 0.00320427 0.00157628)
(-0.000600837 0.00314776 0.00157627)
(-0.00113831 0.0029956 0.00157627)
(-0.0016412 0.00275243 0.00157627)
(-0.00209422 0.00242562 0.00157627)
(-0.00248361 0.00202511 0.00157627)
(-0.00279753 0.00156307 0.00157627)
(-0.00302646 0.00105354 0.00157627)
(-0.00316342 0.000511993 0.00157628)
(-0.00320427 -4.51066e-05 0.00157628)
(-0.00314776 -0.000600837 0.00157627)
(-0.0029956 -0.00113831 0.00157627)
(-0.00275243 -0.0016412 0.00157627)
(-0.00242562 -0.00209422 0.00157627)
(-0.00202511 -0.00248361 0.00157627)
(-0.00156307 -0.00279753 0.00157627)
(-0.00105354 -0.00302646 0.00157627)
(-0.000511993 -0.00316342 0.00157628)
(4.51068e-05 -0.00320427 0.00157628)
(0.000600837 -0.00314776 0.00157627)
(0.00113831 -0.0029956 0.00157627)
(0.0016412 -0.00275243 0.00157627)
(0.00209422 -0.00242562 0.00157627)
(0.00248361 -0.00202511 0.00157627)
(0.00279753 -0.00156307 0.00157627)
(0.00302646 -0.00105354 0.00157627)
(0.00316342 -0.000511993 0.00157628)
(0.00320427 4.51066e-05 0.00157628)
(0.00314776 0.000600837 0.00157627)
(0.0029956 0.00113831 0.00157627)
(0.00275243 0.0016412 0.00157627)
(0.00242562 0.00209422 0.00157627)
(0.00202511 0.00248361 0.00157627)
(0.00156307 0.00279753 0.00157627)
(0.00105354 0.00302646 0.00157627)
(0.000511994 0.00316342 0.00157628)
(-0.000175925 0.00310707 0.00161563)
(-0.000712789 0.00302932 0.00161563)
(-0.001228 0.00285952 0.00161563)
(-0.00170589 0.00260284 0.00161563)
(-0.00213195 0.00226707 0.00161563)
(-0.00249323 0.00186242 0.00161563)
(-0.00277876 0.00140118 0.00161563)
(-0.00297986 0.000897365 0.00161563)
(-0.00309041 0.000366284 0.00161563)
(-0.00310707 -0.000175925 0.00161563)
(-0.00302932 -0.00071279 0.00161563)
(-0.00285952 -0.001228 0.00161563)
(-0.00260284 -0.00170589 0.00161563)
(-0.00226707 -0.00213195 0.00161563)
(-0.00186242 -0.00249323 0.00161563)
(-0.00140118 -0.00277876 0.00161563)
(-0.000897365 -0.00297986 0.00161563)
(-0.000366283 -0.00309041 0.00161563)
(0.000175925 -0.00310707 0.00161563)
(0.00071279 -0.00302932 0.00161563)
(0.001228 -0.00285952 0.00161563)
(0.00170589 -0.00260284 0.00161563)
(0.00213195 -0.00226707 0.00161563)
(0.00249323 -0.00186242 0.00161563)
(0.00277876 -0.00140118 0.00161563)
(0.00297986 -0.000897365 0.00161563)
(0.00309041 -0.000366284 0.00161563)
(0.00310707 0.000175925 0.00161563)
(0.00302932 0.00071279 0.00161563)
(0.00285952 0.001228 0.00161563)
(0.00260284 0.00170589 0.00161563)
(0.00226707 0.00213195 0.00161563)
(0.00186242 0.00249323 0.00161563)
(0.00140118 0.00277876 0.00161563)
(0.000897365 0.00297986 0.00161563)
(0.000366284 0.00309041 0.00161563)
(-0.000315816 0.00300571 0.00164309)
(-0.000832953 0.00290521 0.00164309)
(-0.00132478 0.00271643 0.00164309)
(-0.00177636 0.00244511 0.00164309)
(-0.00217396 0.0020995 0.00164309)
(-0.00250551 0.0016901 0.00164309)
(-0.00276093 0.00122935 0.00164309)
(-0.00293246 0.000731244 0.00164309)
(-0.00301489 0.000210919 0.00164309)
(-0.00300571 -0.000315816 0.00164309)
(-0.00290521 -0.000832954 0.00164309)
(-0.00271643 -0.00132478 0.00164309)
(-0.00244511 -0.00177636 0.00164309)
(-0.0020995 -0.00217396 0.00164309)
(-0.0016901 -0.00250551 0.00164309)
(-0.00122935 -0.00276093 0.00164309)
(-0.000731244 -0.00293246 0.00164309)
(-0.000210919 -0.00301489 0.00164309)
(0.000315816 -0.00300571 0.00164309)
(0.000832954 -0.00290521 0.00164309)
(0.00132478 -0.00271643 0.00164309)
(0.00177636 -0.00244511 0.00164309)
(0.00217396 -0.0020995 0.00164309)
(0.00250551 -0.0016901 0.00164309)
(0.00276093 -0.00122935 0.00164309)
(0.00293246 -0.000731244 0.00164309)
(0.00301489 -0.000210919 0.00164309)
(0.00300571 0.000315816 0.00164309)
(0.00290521 0.000832954 0.00164309)
(0.00271643 0.00132478 0.00164309)
(0.00244511 0.00177636 0.00164309)
(0.0020995 0.00217396 0.00164309)
(0.0016901 0.00250551 0.00164309)
(0.00122935 0.00276093 0.00164309)
(0.000731244 0.00293246 0.00164309)
(0.000210919 0.00301489 0.00164309)
(-0.000181844 0.00347914 0.00192497)
(-0.000783227 0.0033947 0.00192497)
(-0.00136081 0.00320712 0.00192497)
(-0.00189705 0.0029221 0.00192497)
(-0.00237565 0.00254829 0.00192497)
(-0.00278206 0.00209704 0.00192497)
(-0.00310394 0.00158209 0.00192497)
(-0.00333151 0.00101906 0.00192497)
(-0.00345786 0.000425062 0.00192497)
(-0.00347914 -0.000181845 0.00192497)
(-0.0033947 -0.000783227 0.00192497)
(-0.00320712 -0.00136081 0.00192497)
(-0.0029221 -0.00189705 0.00192497)
(-0.00254829 -0.00237565 0.00192497)
(-0.00209704 -0.00278206 0.00192497)
(-0.00158209 -0.00310394 0.00192497)
(-0.00101905 -0.00333151 0.00192497)
(-0.000425062 -0.00345786 0.00192497)
(0.000181845 -0.00347914 0.00192497)
(0.000783228 -0.0033947 0.00192497)
(0.00136081 -0.00320712 0.00192497)
(0.00189705 -0.0029221 0.00192497)
(0.00237565 -0.00254829 0.00192497)