/*--------------------------------*- C++ -*----------------------------------*\
| =========                 |                                                 |
| \\      /  F ield         | OpenFOAM: The Open Source CFD Toolbox           |
|  \\    /   O peration     | Version:  2312                                  |
|   \\  /    A nd           | Website:  www.openfoam.com                      |
|    \\/     M anipulation  |                                                 |
\*---------------------------------------------------------------------------*/
FoamFile
{
    version     2.0;
    format      ascii;
    arch        "LSB;label=32;scalar=64";
    class       volSymmTensorField;
    location    "0.5";
    object      sigma;
}
// * * * * * * * * * * * * * * * * * * * * * * * * * * * * * * * * * * * * * //

dimensions      [1 -1 -2 0 0 0 0];

internalField   nonuniform List<symmTensor> 
1620
(
(-6708.96 -763.285 -1587.69 -537.407 11032.9 15108)
(-6261.77 -1772.64 -3479.4 -984.529 10589.6 15108.1)
(-5496.34 -2568.22 -5265.43 -1749.91 9824.52 15108.1)
(-4505.15 -3053.96 -6891.4 -2741.45 8760.87 15108)
(-3407.49 -3171.38 -8307.98 -3839.16 7431.11 15108)
(-2335.77 -2906.32 -9472.16 -4910.75 5875.58 15108.1)
(-1419.29 -2290.73 -10348.6 -5827.11 4141.5 15108)
(-768.758 -1398.8 -10910.5 -6477.68 2281.56 15108)
(-462.45 -338.153 -11141 -6783.94 352.292 15108)
(-537.406 763.285 -11032.9 -6708.96 -1587.69 15108)
(-984.528 1772.64 -10589.6 -6261.77 -3479.4 15108.1)
(-1749.91 2568.22 -9824.52 -5496.34 -5265.43 15108.1)
(-2741.45 3053.96 -8760.87 -4505.15 -6891.4 15108)
(-3839.16 3171.38 -7431.11 -3407.49 -8307.98 15108)
(-4910.74 2906.32 -5875.58 -2335.77 -9472.16 15108.1)
(-5827.11 2290.73 -4141.5 -1419.28 -10348.6 15108)
(-6477.68 1398.8 -2281.56 -768.757 -10910.5 15108)
(-6783.94 338.153 -352.292 -462.45 -11141 15108)
(-6708.96 -763.285 1587.69 -537.405 -11032.9 15108)
(-6261.77 -1772.64 3479.4 -984.528 -10589.6 15108.1)
(-5496.34 -2568.22 5265.43 -1749.91 -9824.52 15108.1)
(-4505.15 -3053.96 6891.4 -2741.45 -8760.87 15108)
(-3407.49 -3171.38 8307.98 -3839.16 -7431.11 15108)
(-2335.77 -2906.32 9472.16 -4910.75 -5875.58 15108.1)
(-1419.29 -2290.73 10348.6 -5827.11 -4141.5 15108)
(-768.759 -1398.8 10910.5 -6477.68 -2281.56 15108)
(-462.451 -338.153 11141 -6783.94 -352.292 15108)
(-537.407 763.285 11032.9 -6708.96 1587.69 15108)
(-984.53 1772.64 10589.6 -6261.77 3479.4 15108.1)
(-1749.91 2568.22 9824.52 -5496.34 5265.43 15108)
(-2741.46 3053.96 8760.87 -4505.15 6891.4 15108)
(-3839.16 3171.38 7431.11 -3407.49 8307.98 15108)
(-4910.75 2906.32 5875.58 -2335.77 9472.16 15108.1)
(-5827.11 2290.73 4141.5 -1419.29 10348.6 15108)
(-6477.68 1398.8 2281.56 -768.759 10910.5 15108)
(-6783.94 338.153 352.292 -462.451 11141 15108)
(-19318 -2848.43 -367.093 9809.22 2842.9 -19741.4)
(-17465.5 -7657.69 -855.18 7956.78 2735.97 -19741.3)
(-14079.8 -11543.4 -1317.29 4571.1 2545.9 -19741.3)
(-9569.33 -14036.7 -1739.44 60.5752 2278.57 -19741.3)
(-4478.23 -14837 -2108.74 -5030.65 1941.97 -19741.3)
(579.611 -13847.7 -2413.85 -10088.5 1546.24 -19741.4)
(4994.24 -11188.3 -2645.57 -14502.9 1103.54 -19741.3)
(8232.94 -7179.29 -2797.01 -17741.7 627.375 -19741.3)
(9905.13 -2304.4 -2863.46 -19414 132.149 -19741.4)
(9809.23 2848.43 -2842.9 -19318 -367.093 -19741.4)
(7956.78 7657.69 -2735.97 -17465.5 -855.18 -19741.3)
(4571.1 11543.4 -2545.9 -14079.8 -1317.29 -19741.3)
(60.5772 14036.7 -2278.57 -9569.33 -1739.44 -19741.3)
(-5030.65 14837 -1941.97 -4478.23 -2108.74 -19741.3)
(-10088.5 13847.7 -1546.24 579.613 -2413.85 -19741.4)
(-14502.9 11188.3 -1103.54 4994.25 -2645.57 -19741.3)
(-17741.7 7179.29 -627.375 8232.95 -2797.01 -19741.3)
(-19414 2304.4 -132.149 9905.13 -2863.46 -19741.4)
(-19318 -2848.43 367.093 9809.23 -2842.9 -19741.4)
(-17465.5 -7657.69 855.18 7956.78 -2735.97 -19741.3)
(-14079.8 -11543.4 1317.29 4571.1 -2545.9 -19741.3)
(-9569.33 -14036.7 1739.44 60.5768 -2278.57 -19741.3)
(-4478.23 -14837 2108.74 -5030.65 -1941.97 -19741.3)
(579.612 -13847.7 2413.85 -10088.5 -1546.24 -19741.4)
(4994.24 -11188.3 2645.57 -14502.9 -1103.54 -19741.3)
(8232.94 -7179.29 2797.01 -17741.7 -627.375 -19741.3)
(9905.13 -2304.4 2863.46 -19414 -132.149 -19741.4)
(9809.22 2848.43 2842.9 -19318 367.093 -19741.4)
(7956.78 7657.69 2735.97 -17465.5 855.18 -19741.3)
(4571.1 11543.4 2545.9 -14079.8 1317.29 -19741.3)
(60.5746 14036.7 2278.57 -9569.33 1739.44 -19741.3)
(-5030.65 14837 1941.97 -4478.23 2108.74 -19741.3)
(-10088.5 13847.7 1546.24 579.61 2413.85 -19741.4)
(-14503 11188.3 1103.54 4994.24 2645.57 -19741.3)
(-17741.7 7179.29 627.375 8232.94 2797.01 -19741.3)
(-19414 2304.4 132.149 9905.12 2863.46 -19741.4)
(-35456.4 -725.109 740.418 -23418.8 -15992.6 -16045.4)
(-34845.4 -2739.93 3506.26 -24029.8 -15621.1 -16045.4)
(-33582.3 -4424.28 6165.58 -25293.2 -14774.9 -16045.5)
(-31819.1 -5575 8637.57 -27056.2 -13479.8 -16045.4)
(-29768.7 -6053.34 10847.1 -29106.6 -11775.2 -16045.6)
(-27678.3 -5801.45 12727 -31196.8 -9712.69 -16045.3)
(-25800.3 -4849.87 14220.2 -33075 -7355.09 -16045.4)
(-24360.9 -3313.31 15281.4 -34514.5 -4773.99 -16045.5)
(-23533.8 -1377.16 15878.2 -35341.5 -2047.91 -16045.4)
(-23418.8 725.109 15992.6 -35456.4 740.419 -16045.4)
(-24029.8 2739.93 15621.1 -34845.4 3506.26 -16045.4)
(-25293.2 4424.28 14774.9 -33582.3 6165.58 -16045.5)
(-27056.2 5575 13479.8 -31819.1 8637.57 -16045.4)
(-29106.6 6053.34 11775.2 -29768.7 10847.1 -16045.6)
(-31196.8 5801.45 9712.69 -27678.3 12727 -16045.3)
(-33075 4849.87 7355.09 -25800.3 14220.2 -16045.3)
(-34514.5 3313.31 4773.99 -24360.9 15281.4 -16045.5)
(-35341.5 1377.16 2047.91 -23533.8 15878.2 -16045.4)
(-35456.4 -725.109 -740.419 -23418.8 15992.6 -16045.4)
(-34845.4 -2739.93 -3506.26 -24029.8 15621.1 -16045.4)
(-33582.3 -4424.28 -6165.58 -25293.2 14774.9 -16045.5)
(-31819.1 -5575 -8637.57 -27056.2 13479.8 -16045.4)
(-29768.7 -6053.34 -10847.1 -29106.6 11775.2 -16045.6)
(-27678.3 -5801.45 -12727 -31196.8 9712.69 -16045.3)
(-25800.3 -4849.87 -14220.2 -33075 7355.09 -16045.4)
(-24360.9 -3313.31 -15281.4 -34514.5 4773.99 -16045.5)
(-23533.8 -1377.16 -15878.2 -35341.5 2047.91 -16045.4)
(-23418.8 725.109 -15992.6 -35456.4 -740.419 -16045.4)
(-24029.8 2739.93 -15621.1 -34845.4 -3506.26 -16045.4)
(-25293.2 4424.28 -14774.9 -33582.3 -6165.58 -16045.5)
(-27056.2 5575 -13479.8 -31819.1 -8637.57 -16045.4)
(-29106.6 6053.34 -11775.2 -29768.7 -10847.1 -16045.6)
(-31196.8 5801.45 -9712.69 -27678.3 -12727 -16045.3)
(-33075 4849.87 -7355.09 -25800.3 -14220.2 -16045.4)
(-34514.5 3313.31 -4773.99 -24360.9 -15281.4 -16045.5)
(-35341.5 1377.16 -2047.91 -23533.8 -15878.2 -16045.4)
(6320.14 -1005.75 -1814.33 10437.1 9575.36 29273.2)
(6788.18 -1649.1 -3449.45 9968.84 9114.77 29273.2)
(7448.22 -2093.61 -4979.85 9309.05 8377.36 29273.2)
(8220.34 -2285.5 -6358.85 8536.79 7385.23 29273.3)
(9011.64 -2201.79 -7544.7 7745.6 6168.81 29273.4)
(9726.47 -1852.51 -8501.22 7030.75 4765.04 29273.4)
(10278.7 -1279.83 -9199.64 6478.28 3216.45 29273.1)
(10601.9 -552.72 -9618.36 6155.22 1570.07 29273.2)
(10657 241.034 -9744.95 6100.32 -123.981 29273.2)
(10437.1 1005.75 -9575.36 6320.13 -1814.33 29273.2)
(9968.84 1649.1 -9114.77 6788.18 -3449.45 29273.2)
(9309.05 2093.61 -8377.36 7448.22 -4979.85 29273.2)
(8536.79 2285.5 -7385.23 8220.34 -6358.85 29273.3)
(7745.6 2201.79 -6168.81 9011.64 -7544.7 29273.4)
(7030.75 1852.51 -4765.04 9726.47 -8501.22 29273.4)
(6478.28 1279.83 -3216.45 10278.7 -9199.64 29273)
(6155.22 552.72 -1570.07 10601.9 -9618.36 29273.2)
(6100.32 -241.033 123.981 10657 -9744.95 29273.2)
(6320.13 -1005.75 1814.33 10437.1 -9575.36 29273.2)
(6788.18 -1649.1 3449.45 9968.84 -9114.77 29273.2)
(7448.22 -2093.61 4979.85 9309.05 -8377.36 29273.2)
(8220.34 -2285.5 6358.85 8536.79 -7385.23 29273.3)
(9011.64 -2201.79 7544.7 7745.6 -6168.81 29273.4)
(9726.47 -1852.51 8501.22 7030.75 -4765.04 29273.4)
(10278.7 -1279.83 9199.64 6478.28 -3216.45 29273)
(10601.9 -552.72 9618.36 6155.22 -1570.07 29273.2)
(10657 241.033 9744.95 6100.32 123.981 29273.2)
(10437.1 1005.75 9575.36 6320.14 1814.33 29273.2)
(9968.84 1649.1 9114.77 6788.18 3449.45 29273.2)
(9309.05 2093.61 8377.36 7448.22 4979.85 29273.2)
(8536.79 2285.5 7385.23 8220.34 6358.85 29273.3)
(7745.6 2201.79 6168.81 9011.64 7544.7 29273.4)
(7030.75 1852.51 4765.04 9726.47 8501.22 29273.4)
(6478.28 1279.83 3216.45 10278.7 9199.64 29273.1)
(6155.22 552.72 1570.07 10601.9 9618.36 29273.2)
(6100.32 -241.033 -123.981 10657 9744.95 29273.2)
(-3106.55 -3677.94 -525.635 25187.1 4086.75 -3893.49)
(-995.421 -8294.56 -1227.33 23076 3933.5 -3893.37)
(2567.24 -11910.8 -1891.71 19513.2 3660.57 -3893.5)
(7151.95 -14090.4 -2498.67 14928.4 3276.53 -3893.47)
(12205.7 -14570.5 -3029.65 9874.73 2792.85 -3893.48)
(17118.6 -13293.2 -3468.62 4961.51 2224.34 -3893.58)
(21298.8 -10412.5 -3802.1 781.741 1588.19 -3893.42)
(24241.4 -6275.94 -4020.18 -2160.91 903.849 -3893.41)
(25591.8 -1382.44 -4115.94 -3511.31 192.02 -3893.48)
(25187.1 3677.94 -4086.75 -3106.55 -525.635 -3893.49)
(23076 8294.56 -3933.5 -995.421 -1227.33 -3893.37)
(19513.2 11910.8 -3660.57 2567.24 -1891.71 -3893.5)
(14928.4 14090.4 -3276.53 7151.95 -2498.67 -3893.47)
(9874.74 14570.5 -2792.85 12205.7 -3029.65 -3893.48)
(4961.51 13293.2 -2224.34 17118.6 -3468.62 -3893.58)
(781.741 10412.5 -1588.19 21298.8 -3802.1 -3893.42)
(-2160.91 6275.94 -903.849 24241.4 -4020.18 -3893.41)
(-3511.31 1382.44 -192.02 25591.8 -4115.94 -3893.48)
(-3106.55 -3677.94 525.635 25187.1 -4086.75 -3893.49)
(-995.421 -8294.56 1227.33 23076 -3933.5 -3893.37)
(2567.24 -11910.8 1891.71 19513.2 -3660.57 -3893.5)
(7151.95 -14090.4 2498.67 14928.4 -3276.53 -3893.47)
(12205.7 -14570.5 3029.65 9874.74 -2792.85 -3893.48)
(17118.6 -13293.2 3468.62 4961.51 -2224.34 -3893.58)
(21298.8 -10412.5 3802.1 781.741 -1588.19 -3893.42)
(24241.4 -6275.94 4020.18 -2160.91 -903.849 -3893.41)
(25591.8 -1382.44 4115.94 -3511.31 -192.02 -3893.48)
(25187.1 3677.94 4086.75 -3106.55 525.635 -3893.49)
(23076 8294.56 3933.5 -995.421 1227.33 -3893.37)
(19513.2 11910.8 3660.57 2567.24 1891.71 -3893.5)
(14928.4 14090.4 3276.53 7151.95 2498.67 -3893.47)
(9874.73 14570.5 2792.85 12205.7 3029.65 -3893.48)
(4961.51 13293.2 2224.34 17118.6 3468.62 -3893.58)
(781.741 10412.5 1588.19 21298.8 3802.1 -3893.42)
(-2160.91 6275.94 903.849 24241.4 4020.18 -3893.41)
(-3511.31 1382.44 192.02 25591.8 4115.94 -3893.48)
(-18092.2 -1114.57 544.726 -5930.75 -16093.2 97.6983)
(-17344.3 -3127.09 3330.99 -6678.64 -15754.1 97.6541)
(-15953.2 -4762.43 6016.05 -8069.78 -14936.4 97.6955)
(-14086.6 -5823.35 8518.32 -9936.31 -13664.8 97.7453)
(-11969.7 -6181.93 10761.8 -12053.1 -11978 97.76)
(-9857.74 -5794.82 12678.2 -14164.8 -9927.26 97.9614)
(-8005.8 -4708.81 14209.5 -16017.1 -7574.86 97.7377)
(-6636.84 -3054.82 15309 -17386 -4992.31 97.703)
(-5916.24 -1032.41 15943.3 -18106.7 -2258.14 97.7069)
(-5930.75 1114.57 16093.2 -18092.2 544.727 97.6993)
(-6678.64 3127.09 15754.1 -17344.3 3330.99 97.6552)
(-8069.78 4762.43 14936.4 -15953.2 6016.05 97.6966)
(-9936.31 5823.35 13664.8 -14086.6 8518.32 97.7465)
(-12053.1 6181.93 11978 -11969.7 10761.8 97.7612)
(-14164.8 5794.82 9927.26 -9857.74 12678.2 97.9625)
(-16017.1 4708.81 7574.86 -8005.8 14209.5 97.7387)
(-17386 3054.82 4992.31 -6636.84 15309 97.7039)
(-18106.7 1032.41 2258.14 -5916.24 15943.3 97.7075)
(-18092.2 -1114.57 -544.727 -5930.75 16093.2 97.6997)
(-17344.3 -3127.09 -3330.99 -6678.64 15754.1 97.6555)
(-15953.2 -4762.43 -6016.05 -8069.78 14936.4 97.6967)
(-14086.6 -5823.35 -8518.32 -9936.31 13664.8 97.7463)
(-11969.7 -6181.93 -10761.8 -12053.1 11978 97.7608)
(-9857.74 -5794.82 -12678.2 -14164.8 9927.26 97.9619)
(-8005.8 -4708.81 -14209.5 -16017.1 7574.86 97.738)
(-6636.84 -3054.82 -15309 -17386 4992.31 97.703)
(-5916.24 -1032.41 -15943.3 -18106.7 2258.14 97.7065)
(-5930.75 1114.57 -16093.2 -18092.2 -544.727 97.6987)
(-6678.64 3127.09 -15754.1 -17344.3 -3330.99 97.6544)
(-8069.78 4762.43 -14936.4 -15953.2 -6016.05 97.6956)
(-9936.31 5823.35 -13664.8 -14086.6 -8518.32 97.7452)
(-12053.1 6181.93 -11978 -11969.7 -10761.8 97.7598)
(-14164.8 5794.82 -9927.26 -9857.74 -12678.2 97.961)
(-16017.1 4708.81 -7574.86 -8005.8 -14209.5 97.7371)
(-17386 3054.82 -4992.31 -6636.84 -15309 97.7023)
(-18106.7 1032.41 -2258.14 -5916.25 -15943.3 97.706)
(4280.45 -1236 -1322.52 8035.27 9632.95 26238.4)
(4816.35 -1803.6 -2975.24 7499.22 9256.92 26238.4)
(5514.16 -2153.62 -4537.46 6801.51 8599.65 26238.4)
(6289.48 -2243.85 -5961.79 6026.02 7681.03 26238.5)
(7049.15 -2063.54 -7205.11 5266.68 6529.17 26238.4)
(7701.08 -1634.21 -8229.31 4614.61 5178.75 26238.6)
(8166.87 -1007.87 -9003.64 4148.62 3671.1 26238.3)
(8390.53 -259.915 -9504.34 3925.18 2051.84 26238.5)
(8344.68 519.348 -9716.26 3970.82 370.323 26238.3)
(8035.27 1236 -9632.95 4280.45 -1322.52 26238.4)
(7499.22 1803.6 -9256.92 4816.35 -2975.24 26238.4)
(6801.51 2153.62 -8599.65 5514.16 -4537.46 26238.4)
(6026.02 2243.85 -7681.03 6289.48 -5961.79 26238.5)
(5266.68 2063.54 -6529.17 7049.15 -7205.11 26238.4)
(4614.61 1634.21 -5178.75 7701.08 -8229.31 26238.6)
(4148.62 1007.87 -3671.1 8166.87 -9003.64 26238.3)
(3925.18 259.915 -2051.84 8390.53 -9504.34 26238.5)
(3970.82 -519.348 -370.323 8344.68 -9716.26 26238.3)
(4280.45 -1236 1322.52 8035.27 -9632.95 26238.4)
(4816.35 -1803.6 2975.24 7499.22 -9256.92 26238.4)
(5514.16 -2153.62 4537.46 6801.51 -8599.65 26238.4)
(6289.48 -2243.85 5961.79 6026.02 -7681.03 26238.5)
(7049.15 -2063.54 7205.11 5266.68 -6529.17 26238.4)
(7701.08 -1634.21 8229.31 4614.61 -5178.75 26238.6)
(8166.87 -1007.87 9003.64 4148.62 -3671.1 26238.3)
(8390.53 -259.915 9504.34 3925.18 -2051.84 26238.5)
(8344.68 519.348 9716.26 3970.82 -370.323 26238.3)
(8035.27 1236 9632.95 4280.45 1322.52 26238.4)
(7499.22 1803.6 9256.92 4816.35 2975.24 26238.4)
(6801.51 2153.62 8599.65 5514.16 4537.46 26238.4)
(6026.02 2243.85 7681.03 6289.48 5961.79 26238.5)
(5266.68 2063.54 6529.17 7049.15 7205.11 26238.4)
(4614.61 1634.21 5178.75 7701.08 8229.31 26238.6)
(4148.62 1007.87 3671.1 8166.87 9003.64 26238.3)
(3925.18 259.915 2051.84 8390.53 9504.34 26238.5)
(3970.82 -519.348 370.323 8344.68 9716.26 26238.3)
(-3308.72 -4360.92 -524.799 24428.5 4363.06 -5017.66)
(-980.801 -8841.23 -1274.47 22100.7 4205.7 -5017.6)
(2739.05 -12255.2 -1985.43 18380.7 3920.49 -5017.63)
(7402.31 -14191 -2636.06 13717.7 3516.2 -5017.49)
(12446.4 -14415.2 -3206.5 8673.63 3004.93 -5017.57)
(17262.8 -12900.6 -3679.7 3856.96 2402.55 -5017.62)
(21270.9 -9830.12 -4040.97 -150.978 1727.07 -5017.55)
(23986.9 -5573.92 -4279.48 -2867.3 999.122 -5017.72)
(25083.7 -645.477 -4387.9 -3963.78 240.821 -5017.59)
(24428.5 4360.92 -4363.06 -3308.72 -524.799 -5017.66)
(22100.7 8841.23 -4205.7 -980.8 -1274.47 -5017.6)
(18380.7 12255.2 -3920.49 2739.05 -1985.43 -5017.63)
(13717.7 14191 -3516.2 7402.31 -2636.06 -5017.49)
(8673.63 14415.2 -3004.93 12446.4 -3206.5 -5017.57)
(3856.96 12900.6 -2402.55 17262.8 -3679.7 -5017.62)
(-150.978 9830.12 -1727.07 21270.9 -4040.97 -5017.55)
(-2867.3 5573.92 -999.122 23986.9 -4279.48 -5017.72)
(-3963.78 645.477 -240.821 25083.7 -4387.9 -5017.59)
(-3308.72 -4360.92 524.799 24428.5 -4363.06 -5017.66)
(-980.8 -8841.23 1274.47 22100.7 -4205.7 -5017.6)
(2739.05 -12255.2 1985.43 18380.7 -3920.49 -5017.63)
(7402.31 -14191 2636.06 13717.7 -3516.2 -5017.49)
(12446.4 -14415.2 3206.5 8673.63 -3004.93 -5017.57)
(17262.8 -12900.6 3679.7 3856.96 -2402.55 -5017.62)
(21270.9 -9830.12 4040.97 -150.978 -1727.07 -5017.55)
(23986.9 -5573.92 4279.48 -2867.3 -999.122 -5017.72)
(25083.7 -645.477 4387.9 -3963.78 -240.821 -5017.59)
(24428.5 4360.92 4363.06 -3308.72 524.799 -5017.66)
(22100.7 8841.23 4205.7 -980.801 1274.47 -5017.6)
(18380.7 12255.2 3920.49 2739.05 1985.43 -5017.63)
(13717.7 14191 3516.2 7402.31 2636.06 -5017.49)
(8673.63 14415.2 3004.93 12446.4 3206.5 -5017.57)
(3856.96 12900.6 2402.55 17262.8 3679.7 -5017.62)
(-150.978 9830.12 1727.07 21270.9 4040.97 -5017.55)
(-2867.3 5573.92 999.122 23986.9 4279.48 -5017.72)
(-3963.78 645.477 240.821 25083.7 4387.9 -5017.59)
(-17579.1 -2624.81 1667.87 -6236.89 -15870.1 -800.374)
(-16339.3 -4406.13 4398.33 -7476.61 -15339.4 -800.419)
(-14565 -5656.02 6995.17 -9250.75 -14342.6 -800.329)
(-12470.4 -6223.7 9379.47 -11345.6 -12910 -800.38)
(-10307.8 -6040.73 11478.8 -13508.2 -11085.1 -800.47)
(-8338.29 -5129.12 13229.3 -15477.7 -8923.44 -800.416)
(-6799.33 -3598.9 14577.9 -17016.7 -6490.64 -800.488)
(-5876.36 -1634.6 15483.5 -17939.4 -3860.64 -800.313)
(-5681.12 526.879 15918.6 -18134.7 -1113.3 -800.327)
(-6236.89 2624.81 15870.1 -17579.1 1667.87 -800.373)
(-7476.61 4406.13 15339.4 -16339.3 4398.33 -800.418)
(-9250.75 5656.02 14342.6 -14565 6995.17 -800.328)
(-11345.6 6223.7 12910 -12470.4 9379.47 -800.378)
(-13508.2 6040.73 11085.1 -10307.8 11478.8 -800.469)
(-15477.7 5129.12 8923.44 -8338.29 13229.3 -800.415)
(-17016.7 3598.9 6490.64 -6799.32 14577.9 -800.487)
(-17939.4 1634.6 3860.64 -5876.36 15483.5 -800.312)
(-18134.7 -526.879 1113.3 -5681.12 15918.6 -800.326)
(-17579.1 -2624.81 -1667.87 -6236.89 15870.1 -800.372)
(-16339.3 -4406.13 -4398.33 -7476.61 15339.4 -800.418)
(-14565 -5656.02 -6995.17 -9250.75 14342.6 -800.328)
(-12470.4 -6223.7 -9379.47 -11345.6 12910 -800.379)
(-10307.8 -6040.73 -11478.8 -13508.2 11085.1 -800.469)
(-8338.29 -5129.12 -13229.3 -15477.7 8923.44 -800.416)
(-6799.33 -3598.9 -14577.9 -17016.7 6490.64 -800.488)
(-5876.36 -1634.6 -15483.5 -17939.4 3860.64 -800.313)
(-5681.12 526.879 -15918.6 -18134.7 1113.3 -800.328)
(-6236.89 2624.81 -15870.1 -17579.1 -1667.87 -800.374)
(-7476.61 4406.13 -15339.4 -16339.3 -4398.33 -800.419)
(-9250.75 5656.02 -14342.6 -14565 -6995.17 -800.33)
(-11345.6 6223.7 -12910 -12470.4 -9379.47 -800.38)
(-13508.2 6040.73 -11085.1 -10307.8 -11478.8 -800.47)
(-15477.7 5129.12 -8923.44 -8338.29 -13229.3 -800.417)
(-17016.7 3598.9 -6490.64 -6799.33 -14577.9 -800.489)
(-17939.4 1634.6 -3860.64 -5876.36 -15483.5 -800.314)
(-18134.7 -526.879 -1113.3 -5681.12 -15918.6 -800.328)
(4071.35 -1188.68 -221.368 7612.62 9841.86 24991.2)
(4584.69 -1722.6 -1927.07 7099.33 9653.95 24991.1)
(5249.64 -2048.76 -3574.21 6434.31 9172.66 24991.1)
(5986.14 -2127.77 -5112.71 5697.88 8412.59 24991.2)
(6705.19 -1950.16 -6495.82 4978.9 7397.04 24991.2)
(7320.12 -1537.32 -7681.63 4363.9 6156.61 24991.2)
(7756.87 -939.102 -8634.04 3927.34 4729.24 24991.2)
(7962.46 -227.559 -9324.11 3721.48 3158.06 24991.1)
(7912.41 511.411 -9730.77 3771.61 1490.99 24991.2)
(7612.62 1188.68 -9841.86 4071.35 -221.368 24991.2)
(7099.33 1722.6 -9653.95 4584.69 -1927.07 24991.1)
(6434.31 2048.76 -9172.66 5249.64 -3574.21 24991.1)
(5697.88 2127.77 -8412.59 5986.14 -5112.71 24991.2)
(4978.9 1950.16 -7397.04 6705.19 -6495.82 24991.2)
(4363.9 1537.32 -6156.61 7320.12 -7681.63 24991.2)
(3927.34 939.102 -4729.24 7756.87 -8634.04 24991.2)
(3721.48 227.559 -3158.06 7962.46 -9324.11 24991.1)
(3771.61 -511.411 -1490.99 7912.41 -9730.77 24991.2)
(4071.35 -1188.68 221.368 7612.62 -9841.86 24991.2)
(4584.69 -1722.6 1927.07 7099.33 -9653.95 24991.1)
(5249.64 -2048.76 3574.21 6434.31 -9172.66 24991.1)
(5986.14 -2127.77 5112.71 5697.88 -8412.59 24991.2)
(6705.19 -1950.16 6495.82 4978.9 -7397.04 24991.2)
(7320.12 -1537.32 7681.63 4363.9 -6156.61 24991.2)
(7756.87 -939.102 8634.04 3927.35 -4729.24 24991.2)
(7962.46 -227.559 9324.11 3721.48 -3158.06 24991.1)
(7912.41 511.411 9730.77 3771.61 -1490.99 24991.2)
(7612.62 1188.68 9841.86 4071.35 221.368 24991.2)
(7099.33 1722.6 9653.95 4584.69 1927.07 24991.1)
(6434.31 2048.76 9172.66 5249.64 3574.21 24991.1)
(5697.88 2127.77 8412.59 5986.14 5112.71 24991.2)
(4978.9 1950.16 7397.04 6705.19 6495.82 24991.2)
(4363.9 1537.32 6156.61 7320.12 7681.63 24991.2)
(3927.35 939.102 4729.24 7756.87 8634.04 24991.2)
(3721.48 227.559 3158.06 7962.46 9324.11 24991.1)
(3771.61 -511.412 1490.99 7912.41 9730.77 24991.2)
(-2571.55 -4949.5 -497.654 24516.7 4514.77 -5295.09)
(-61.91 -9283.38 -1274.07 22007.1 4359.74 -5295.1)
(3778.67 -12497.6 -2011.77 18166.5 4072.23 -5295.14)
(8486.98 -14204.3 -2688.37 13458.3 3661.08 -5295.05)
(13494.9 -14197.8 -3283.28 8450.14 3138.65 -5295.12)
(18198.8 -12478.9 -3778.4 3746.4 2520.82 -5295.06)
(22031 -9254.83 -4158.68 -85.8926 1826.39 -5295.14)
(24529.5 -4914.44 -4412.67 -2584.31 1076.49 -5295.1)
(25392.7 18.6657 -4532.59 -3447.57 293.886 -5295.1)
(24516.7 4949.5 -4514.77 -2571.55 -497.653 -5295.09)
(22007.1 9283.38 -4359.74 -61.9099 -1274.07 -5295.1)
(18166.5 12497.6 -4072.23 3778.67 -2011.77 -5295.14)
(13458.3 14204.3 -3661.08 8486.98 -2688.37 -5295.05)
(8450.14 14197.8 -3138.65 13494.9 -3283.28 -5295.12)
(3746.4 12478.9 -2520.82 18198.8 -3778.4 -5295.06)
(-85.8923 9254.83 -1826.39 22031 -4158.68 -5295.14)
(-2584.31 4914.44 -1076.49 24529.5 -4412.67 -5295.1)
(-3447.57 -18.6655 -293.886 25392.7 -4532.59 -5295.1)
(-2571.55 -4949.5 497.653 24516.7 -4514.77 -5295.09)
(-61.91 -9283.38 1274.07 22007.1 -4359.74 -5295.1)
(3778.67 -12497.6 2011.77 18166.5 -4072.23 -5295.14)
(8486.98 -14204.3 2688.37 13458.3 -3661.08 -5295.05)
(13494.9 -14197.8 3283.28 8450.14 -3138.65 -5295.12)
(18198.8 -12478.9 3778.4 3746.4 -2520.82 -5295.06)
(22031 -9254.83 4158.68 -85.8924 -1826.39 -5295.14)
(24529.5 -4914.44 4412.67 -2584.31 -1076.49 -5295.1)
(25392.7 18.6656 4532.59 -3447.57 -293.886 -5295.1)
(24516.7 4949.5 4514.77 -2571.55 497.653 -5295.09)
(22007.1 9283.38 4359.74 -61.9101 1274.07 -5295.1)
(18166.5 12497.6 4072.23 3778.67 2011.77 -5295.14)
(13458.3 14204.3 3661.08 8486.98 2688.37 -5295.05)
(8450.14 14197.8 3138.65 13494.9 3283.28 -5295.12)
(3746.4 12478.9 2520.82 18198.8 3778.4 -5295.07)
(-85.8926 9254.83 1826.39 22031 4158.68 -5295.14)
(-2584.31 4914.44 1076.49 24529.5 4412.67 -5295.1)
(-3447.57 -18.6657 293.886 25392.7 4532.59 -5295.1)
(-15425.6 -4090.58 2744.43 -5211.03 -15655.9 -280.788)
(-13718.6 -5590.69 5421.35 -6918.14 -14941.5 -280.895)
(-11601.3 -6416.48 7933.56 -9035.28 -13773.1 -280.797)
(-9329.49 -6468.32 10204.7 -11307.3 -12186.2 -280.837)
(-7176.78 -5740.04 12165.8 -13459.9 -10229 -280.892)
(-5403.03 -4319.38 13757.2 -15233.6 -7961.06 -280.795)
(-4222.22 -2377.75 14930.6 -16414.6 -5451.19 -280.881)
(-3776.52 -149.35 15650.4 -16860.1 -2775.72 -280.871)
(-4119.96 2097.11 15894.6 -16516.7 -15.8682 -280.791)
(-5211.03 4090.58 15655.9 -15425.6 2744.43 -280.787)
(-6918.14 5590.69 14941.5 -13718.6 5421.35 -280.894)
(-9035.28 6416.48 13773.1 -11601.3 7933.56 -280.796)
(-11307.3 6468.32 12186.2 -9329.49 10204.7 -280.836)
(-13459.9 5740.04 10229 -7176.78 12165.8 -280.891)
(-15233.6 4319.38 7961.06 -5403.03 13757.2 -280.795)
(-16414.6 2377.75 5451.19 -4222.22 14930.6 -280.88)
(-16860.1 149.35 2775.72 -3776.52 15650.4 -280.87)
(-16516.7 -2097.11 15.8681 -4119.96 15894.6 -280.791)
(-15425.6 -4090.58 -2744.43 -5211.03 15655.9 -280.787)
(-13718.6 -5590.69 -5421.35 -6918.14 14941.5 -280.894)
(-11601.3 -6416.48 -7933.56 -9035.28 13773.1 -280.797)
(-9329.49 -6468.32 -10204.7 -11307.3 12186.2 -280.836)
(-7176.78 -5740.04 -12165.8 -13459.9 10229 -280.892)
(-5403.03 -4319.38 -13757.2 -15233.6 7961.06 -280.795)
(-4222.22 -2377.75 -14930.6 -16414.6 5451.19 -280.881)
(-3776.52 -149.35 -15650.4 -16860.1 2775.72 -280.871)
(-4119.96 2097.11 -15894.6 -16516.7 15.8682 -280.792)
(-5211.03 4090.58 -15655.9 -15425.6 -2744.43 -280.788)
(-6918.14 5590.69 -14941.5 -13718.6 -5421.35 -280.895)
(-9035.28 6416.48 -13773.1 -11601.3 -7933.56 -280.798)
(-11307.3 6468.32 -12186.2 -9329.49 -10204.7 -280.837)
(-13459.9 5740.04 -10229 -7176.78 -12165.8 -280.892)
(-15233.6 4319.38 -7961.06 -5403.03 -13757.2 -280.796)
(-16414.6 2377.75 -5451.19 -4222.22 -14930.6 -280.882)
(-16860.1 149.35 -2775.72 -3776.53 -15650.4 -280.872)
(-16516.7 -2097.11 -15.8683 -4119.97 -15894.6 -280.792)
(3684.1 -943.698 977.388 6876.73 10029.4 23568.4)
(4103.23 -1432.76 -779.051 6457.85 10046.8 23568.5)
(4664.11 -1749.01 -2511.81 5896.66 9758.84 23568.3)
(5299.59 -1854.34 -4168.34 5261.36 9174.39 23568.4)
(5932.55 -1735.92 -5698.03 4628.2 8311.16 23568.5)
(6487.02 -1408.22 -7054.76 4073.85 7195.47 23568.4)
(6896 -910.618 -8197.01 3665.14 5861.15 23568.5)
(7109.87 -303.193 -9090.29 3450.92 4348.69 23568.3)
(7103.25 340.834 -9707.28 3457.62 2704.08 23568.5)
(6876.73 943.698 -10029.4 3684.1 977.388 23568.4)
(6457.85 1432.76 -10046.8 4103.23 -779.051 23568.5)
(5896.66 1749.01 -9758.84 4664.11 -2511.81 23568.3)
(5261.36 1854.34 -9174.39 5299.59 -4168.34 23568.4)
(4628.2 1735.92 -8311.16 5932.55 -5698.02 23568.5)
(4073.85 1408.22 -7195.47 6487.02 -7054.76 23568.4)
(3665.14 910.618 -5861.15 6896 -8197.01 23568.5)
(3450.92 303.193 -4348.69 7109.87 -9090.29 23568.3)
(3457.62 -340.833 -2704.08 7103.25 -9707.28 23568.5)
(3684.1 -943.698 -977.388 6876.73 -10029.4 23568.4)
(4103.23 -1432.76 779.051 6457.85 -10046.8 23568.5)
(4664.11 -1749.01 2511.81 5896.66 -9758.84 23568.3)
(5299.59 -1854.34 4168.34 5261.36 -9174.39 23568.4)
(5932.55 -1735.92 5698.02 4628.2 -8311.16 23568.5)
(6487.02 -1408.22 7054.76 4073.86 -7195.47 23568.4)
(6896 -910.618 8197.01 3665.14 -5861.15 23568.5)
(7109.87 -303.193 9090.29 3450.92 -4348.69 23568.3)
(7103.25 340.833 9707.28 3457.62 -2704.08 23568.5)
(6876.73 943.698 10029.4 3684.1 -977.388 23568.4)
(6457.85 1432.76 10046.8 4103.23 779.051 23568.5)
(5896.66 1749.01 9758.84 4664.11 2511.81 23568.3)
(5261.36 1854.34 9174.39 5299.59 4168.34 23568.4)
(4628.2 1735.92 8311.16 5932.55 5698.02 23568.5)
(4073.86 1408.22 7195.47 6487.02 7054.76 23568.4)
(3665.14 910.618 5861.15 6896 8197.01 23568.5)
(3450.92 303.193 4348.69 7109.87 9090.29 23568.3)
(3457.62 -340.834 2704.08 7103.25 9707.28 23568.5)
(-2220.57 -5303.36 -475.448 24077 4724.23 -5857.54)
(386.12 -9480.69 -1288.59 21470 4569.9 -5857.69)
(4264.61 -12514.5 -2062.54 17591.8 4276.66 -5857.57)
(8946.63 -14038.9 -2773.85 12909.6 3853.53 -5857.68)
(13867.6 -13869.9 -3400.92 7988.58 3313.38 -5857.61)
(18434.2 -12028.1 -3924.53 3422.17 2672.44 -5857.59)
(22095.3 -8735.5 -4328.98 -239.157 1950.35 -5857.7)
(24409.7 -4389.26 -4601.94 -2553.28 1169.01 -5857.55)
(25097.8 486.419 -4735.02 -3241.52 352.125 -5857.61)
(24077 5303.36 -4724.23 -2220.57 -475.448 -5857.54)
(21470 9480.69 -4569.9 386.12 -1288.59 -5857.68)
(17591.8 12514.5 -4276.66 4264.61 -2062.54 -5857.57)
(12909.6 14038.9 -3853.53 8946.63 -2773.84 -5857.67)
(7988.58 13869.9 -3313.38 13867.6 -3400.92 -5857.61)
(3422.17 12028.1 -2672.44 18434.2 -3924.53 -5857.59)
(-239.157 8735.5 -1950.35 22095.3 -4328.98 -5857.7)
(-2553.28 4389.26 -1169.01 24409.7 -4601.94 -5857.55)
(-3241.52 -486.419 -352.125 25097.8 -4735.02 -5857.61)
(-2220.57 -5303.36 475.448 24077 -4724.23 -5857.54)
(386.12 -9480.69 1288.59 21470 -4569.9 -5857.68)
(4264.61 -12514.5 2062.54 17591.8 -4276.66 -5857.57)
(8946.63 -14038.9 2773.84 12909.6 -3853.53 -5857.67)
(13867.6 -13869.9 3400.92 7988.59 -3313.38 -5857.61)
(18434.2 -12028.1 3924.53 3422.17 -2672.44 -5857.59)
(22095.3 -8735.5 4328.98 -239.157 -1950.35 -5857.7)
(24409.7 -4389.26 4601.94 -2553.28 -1169.01 -5857.55)
(25097.8 486.419 4735.02 -3241.52 -352.125 -5857.61)
(24077 5303.36 4724.23 -2220.57 475.448 -5857.54)
(21470 9480.69 4569.9 386.12 1288.59 -5857.69)
(17591.8 12514.5 4276.66 4264.61 2062.54 -5857.57)
(12909.6 14038.9 3853.53 8946.63 2773.84 -5857.68)
(7988.58 13869.9 3313.38 13867.6 3400.92 -5857.61)
(3422.17 12028.1 2672.44 18434.2 3924.53 -5857.59)
(-239.157 8735.5 1950.35 22095.3 4328.98 -5857.7)
(-2553.28 4389.26 1169.01 24409.7 4601.94 -5857.55)
(-3241.52 -486.419 352.125 25097.8 4735.02 -5857.61)
(-13490.6 -5390.41 3741.21 -4634.83 -15412.2 -194.861)
(-11379.8 -6579.73 6360.68 -6745.46 -14528.3 -194.668)
(-8989.73 -6975.48 8786.88 -9135.64 -13203.1 -194.782)
(-6608.37 -6529.83 10946.1 -11517 -11476.7 -194.721)
(-4523.03 -5296.62 12772.7 -13602.3 -9401.57 -194.735)
(-2985.28 -3424.54 14211.2 -15140.1 -7040.79 -194.727)
(-2180.52 -1139.44 15217.9 -15944.9 -4466.08 -194.804)
(-2205.95 1283.12 15762.3 -15919.6 -1755.66 -194.796)
(-3058.15 3550.94 15827.7 -15067.1 1008.12 -194.789)
(-4634.83 5390.41 15412.2 -13490.6 3741.21 -194.86)
(-6745.46 6579.73 14528.3 -11379.8 6360.69 -194.667)
(-9135.64 6975.48 13203.1 -8989.73 8786.88 -194.781)
(-11517 6529.83 11476.7 -6608.37 10946.1 -194.72)
(-13602.3 5296.62 9401.57 -4523.03 12772.7 -194.734)
(-15140.1 3424.54 7040.79 -2985.28 14211.2 -194.726)
(-15944.9 1139.44 4466.08 -2180.52 15217.9 -194.804)
(-15919.6 -1283.12 1755.66 -2205.94 15762.3 -194.796)
(-15067.1 -3550.94 -1008.12 -3058.15 15827.7 -194.789)
(-13490.6 -5390.41 -3741.21 -4634.83 15412.2 -194.86)
(-11379.8 -6579.73 -6360.69 -6745.46 14528.3 -194.668)
(-8989.73 -6975.48 -8786.88 -9135.64 13203.1 -194.782)
(-6608.37 -6529.83 -10946.1 -11517 11476.7 -194.721)
(-4523.03 -5296.62 -12772.7 -13602.3 9401.57 -194.735)
(-2985.28 -3424.54 -14211.2 -15140.1 7040.79 -194.727)
(-2180.52 -1139.44 -15217.9 -15944.9 4466.08 -194.805)
(-2205.95 1283.12 -15762.3 -15919.6 1755.66 -194.797)
(-3058.15 3550.94 -15827.7 -15067.1 -1008.12 -194.79)
(-4634.83 5390.41 -15412.2 -13490.6 -3741.21 -194.861)
(-6745.46 6579.73 -14528.3 -11379.8 -6360.68 -194.669)
(-9135.65 6975.48 -13203.1 -8989.73 -8786.88 -194.783)
(-11517 6529.83 -11476.7 -6608.37 -10946.1 -194.722)
(-13602.3 5296.62 -9401.57 -4523.03 -12772.7 -194.735)
(-15140.1 3424.54 -7040.79 -2985.28 -14211.2 -194.727)
(-15944.9 1139.44 -4466.08 -2180.52 -15217.9 -194.805)
(-15919.6 -1283.12 -1755.66 -2205.95 -15762.3 -194.798)
(-15067.1 -3550.94 1008.12 -3058.15 -15827.7 -194.79)
(3332.98 -494.402 2205.77 6003.52 10175.1 22120.8)
(3582.67 -921.257 405.393 5753.95 10403.6 22120.8)
(3963.13 -1236.99 -1407.3 5373.27 10315.9 22120.8)
(4428.83 -1403.59 -3177.34 4907.82 9914.85 22120.8)
(4923.27 -1400.83 -4850.76 4413.21 9212.44 22120.8)
(5387.03 -1229.15 -6376.81 3949.51 8230.19 22120.7)
(5764.03 -909.153 -7708.99 3572.48 6997.84 22120.9)
(6008.85 -479.572 -8807.07 3327.54 5552.89 22120.7)
(6092.13 7.90179 -9637.53 3244.45 3939.15 22120.8)
(6003.52 494.402 -10175.1 3332.98 2205.77 22120.8)
(5753.95 921.257 -10403.6 3582.67 405.393 22120.8)
(5373.27 1236.99 -10315.9 3963.13 -1407.3 22120.8)
(4907.82 1403.59 -9914.85 4428.83 -3177.34 22120.8)
(4413.21 1400.83 -9212.44 4923.27 -4850.76 22120.8)
(3949.51 1229.15 -8230.19 5387.03 -6376.81 22120.7)
(3572.48 909.153 -6997.84 5764.03 -7708.99 22120.9)
(3327.54 479.572 -5552.89 6008.85 -8807.07 22120.7)