/*--------------------------------*- C++ -*----------------------------------*\
| =========                 |                                                 |
| \\      /  F ield         | OpenFOAM: The Open Source CFD Toolbox           |
|  \\    /   O peration     | Version:  2312                                  |
|   \\  /    A nd           | Website:  www.openfoam.com                      |
|    \\/     M anipulation  |                                                 |
\*---------------------------------------------------------------------------*/
FoamFile
{
    version     2.0;
    format      ascii;
    arch        "LSB;label=32;scalar=64";
    class       volScalarField;
    location    "0.5";
    object      sigmaHyd;
}
// * * * * * * * * * * * * * * * * * * * * * * * * * * * * * * * * * * * * * //

dimensions      [1 -1 -2 0 0 0 0];

internalField   nonuniform List<scalar> 
1620
(
-7379.44
-7379.41
-7379.4
-7379.52
-7379.53
-7379.48
-7379.48
-7379.48
-7379.46
-7379.44
-7379.4
-7379.4
-7379.52
-7379.53
-7379.48
-7379.48
-7379.48
-7379.46
-7379.44
-7379.4
-7379.4
-7379.52
-7379.53
-7379.48
-7379.48
-7379.48
-7379.46
-7379.45
-7379.41
-7379.4
-7379.52
-7379.54
-7379.48
-7379.48
-7379.48
-7379.46
-19750.1
-19750
-19750
-19750
-19750.1
-19750.1
-19750
-19750
-19750.1
-19750.1
-19750
-19750
-19750
-19750.1
-19750.1
-19750
-19750
-19750.1
-19750.1
-19750
-19750
-19750
-19750.1
-19750.1
-19750
-19750
-19750.1
-19750.1
-19750
-19750
-19750
-19750.1
-19750.1
-19750
-19750
-19750.1
-34973.5
-34973.5
-34973.7
-34973.6
-34973.6
-34973.5
-34973.5
-34973.6
-34973.6
-34973.5
-34973.5
-34973.7
-34973.6
-34973.6
-34973.5
-34973.5
-34973.6
-34973.6
-34973.5
-34973.5
-34973.7
-34973.6
-34973.6
-34973.5
-34973.5
-34973.6
-34973.6
-34973.5
-34973.5
-34973.7
-34973.6
-34973.6
-34973.5
-34973.5
-34973.6
-34973.6
5343.46
5343.4
5343.49
5343.49
5343.53
5343.53
5343.36
5343.43
5343.49
5343.46
5343.4
5343.49
5343.49
5343.53
5343.53
5343.36
5343.43
5343.49
5343.46
5343.4
5343.49
5343.49
5343.53
5343.53
5343.36
5343.43
5343.49
5343.46
5343.4
5343.49
5343.49
5343.53
5343.53
5343.36
5343.43
5343.49
-3937.66
-3937.59
-3937.7
-3937.69
-3937.69
-3937.81
-3937.62
-3937.62
-3937.66
-3937.66
-3937.59
-3937.7
-3937.69
-3937.69
-3937.81
-3937.62
-3937.62
-3937.66
-3937.66
-3937.59
-3937.7
-3937.69
-3937.69
-3937.81
-3937.62
-3937.62
-3937.66
-3937.66
-3937.59
-3937.7
-3937.69
-3937.69
-3937.81
-3937.62
-3937.62
-3937.66
-17975.1
-17975.1
-17975.1
-17975.1
-17975
-17974.8
-17975
-17975
-17975.1
-17975.1
-17975.1
-17975.1
-17975.1
-17975
-17974.8
-17975
-17975
-17975.1
-17975.1
-17975.1
-17975.1
-17975.1
-17975
-17974.8
-17975
-17975
-17975.1
-17975.1
-17975.1
-17975.1
-17975.1
-17975
-17974.8
-17975
-17975
-17975.1
2851.39
2851.32
2851.37
2851.33
2851.42
2851.42
2851.28
2851.39
2851.27
2851.39
2851.32
2851.37
2851.33
2851.42
2851.42
2851.28
2851.39
2851.27
2851.39
2851.32
2851.37
2851.33
2851.42
2851.42
2851.28
2851.39
2851.27
2851.39
2851.32
2851.37
2851.33
2851.42
2851.42
2851.28
2851.39
2851.27
-4632.62
-4632.58
-4632.61
-4632.49
-4632.51
-4632.62
-4632.54
-4632.7
-4632.54
-4632.62
-4632.58
-4632.61
-4632.49
-4632.51
-4632.62
-4632.54
-4632.7
-4632.54
-4632.62
-4632.58
-4632.61
-4632.49
-4632.51
-4632.62
-4632.54
-4632.7
-4632.54
-4632.62
-4632.58
-4632.61
-4632.49
-4632.51
-4632.62
-4632.54
-4632.7
-4632.54
-18205.4
-18205.5
-18205.4
-18205.4
-18205.5
-18205.5
-18205.5
-18205.3
-18205.4
-18205.4
-18205.5
-18205.4
-18205.4
-18205.5
-18205.5
-18205.5
-18205.3
-18205.4
-18205.4
-18205.5
-18205.4
-18205.4
-18205.5
-18205.5
-18205.5
-18205.3
-18205.4
-18205.4
-18205.5
-18205.4
-18205.4
-18205.5
-18205.5
-18205.5
-18205.3
-18205.4
2225.06
2225.05
2225.01
2225.08
2225.1
2225.08
2225.15
2225.01
2225.09
2225.06
2225.05
2225.01
2225.08
2225.1
2225.08
2225.15
2225.01
2225.09
2225.06
2225.05
2225.01
2225.08
2225.1
2225.08
2225.15
2225.01
2225.09
2225.06
2225.05
2225.01
2225.08
2225.1
2225.08
2225.15
2225.01
2225.09
-4449.97
-4449.97
-4450
-4449.93
-4450.02
-4449.95
-4450
-4449.97
-4449.98
-4449.97
-4449.97
-4450
-4449.93
-4450.02
-4449.95
-4450
-4449.97
-4449.98
-4449.97
-4449.97
-4450
-4449.93
-4450.02
-4449.95
-4450
-4449.97
-4449.98
-4449.97
-4449.97
-4450
-4449.93
-4450.02
-4449.95
-4450
-4449.97
-4449.98
-16972.5
-16972.6
-16972.5
-16972.5
-16972.5
-16972.5
-16972.6
-16972.5
-16972.5
-16972.5
-16972.5
-16972.5
-16972.5
-16972.5
-16972.5
-16972.6
-16972.5
-16972.5
-16972.5
-16972.5
-16972.5
-16972.5
-16972.5
-16972.5
-16972.6
-16972.5
-16972.5
-16972.5
-16972.6
-16972.5
-16972.5
-16972.5
-16972.5
-16972.6
-16972.5
-16972.5
1376.43
1376.52
1376.37
1376.45
1376.4
1376.42
1376.56
1376.37
1376.44
1376.43
1376.52
1376.37
1376.45
1376.4
1376.42
1376.56
1376.37
1376.44
1376.43
1376.52
1376.37
1376.46
1376.4
1376.42
1376.56
1376.37
1376.44
1376.43
1376.52
1376.37
1376.46
1376.4
1376.42
1376.56
1376.37
1376.44
-4667.05
-4667.19
-4667.06
-4667.15
-4667.13
-4667.07
-4667.18
-4667.05
-4667.11
-4667.05
-4667.19
-4667.06
-4667.15
-4667.13
-4667.07
-4667.18
-4667.05
-4667.11
-4667.05
-4667.19
-4667.06
-4667.15
-4667.13
-4667.07
-4667.18
-4667.05
-4667.11
-4667.05
-4667.19
-4667.06
-4667.15
-4667.13
-4667.07
-4667.18
-4667.05
-4667.11
-16106.8
-16106.7
-16106.7
-16106.7
-16106.7
-16106.7
-16106.7
-16106.8
-16106.7
-16106.8
-16106.7
-16106.7
-16106.7
-16106.7
-16106.7
-16106.7
-16106.8
-16106.7
-16106.8
-16106.7
-16106.7
-16106.7
-16106.7
-16106.7
-16106.7
-16106.8
-16106.7
-16106.8
-16106.7
-16106.7
-16106.7
-16106.7
-16106.7
-16106.7
-16106.8
-16106.7
485.753
485.822
485.732
485.813
485.756
485.757
485.789
485.695
485.797
485.753
485.822
485.732
485.813
485.756
485.757
485.789
485.695
485.797
485.753
485.822
485.733
485.813
485.756
485.758
485.79
485.695
485.797
485.753
485.822
485.733
485.813
485.756
485.757
485.79
485.695
485.797
-4937.19
-4937.32
-4937.21
-4937.25
-4937.24
-4937.25
-4937.26
-4937.14
-4937.29
-4937.19
-4937.32
-4937.21
-4937.25
-4937.24
-4937.25
-4937.26
-4937.14
-4937.29
-4937.19
-4937.32
-4937.21
-4937.25
-4937.24
-4937.25
-4937.26
-4937.14
-4937.29
-4937.19
-4937.32
-4937.21
-4937.25
-4937.24
-4937.25
-4937.26
-4937.14
-4937.29
-15114.4
-15114.4
-15114.5
-15114.4
-15114.5
-15114.6
-15114.5
-15114.6
-15114.5
-15114.4
-15114.4
-15114.5
-15114.4
-15114.5
-15114.6
-15114.5
-15114.6
-15114.5
-15114.4
-15114.4
-15114.5
-15114.4
-15114.5
-15114.6
-15114.5
-15114.6
-15114.5
-15114.4
-15114.4
-15114.5
-15114.4
-15114.5
-15114.6
-15114.5
-15114.6
-15114.5
-638.312
-638.256
-638.43
-638.202
-638.32
-638.433
-638.267
-638.414
-638.324
-638.312
-638.256
-638.43
-638.201
-638.32
-638.433
-638.267
-638.414
-638.324
-638.312
-638.256
-638.429
-638.201
-638.319
-638.433
-638.266
-638.413
-638.324
-638.312
-638.255
-638.429
-638.201
-638.319
-638.433
-638.266
-638.414
-638.324
-5269.41
-5269.62
-5269.45
-5269.59
-5269.52
-5269.39
-5269.56
-5269.43
-5269.59
-5269.41
-5269.62
-5269.45
-5269.59
-5269.52
-5269.39
-5269.56
-5269.43
-5269.59
-5269.41
-5269.62
-5269.45
-5269.59
-5269.52
-5269.39
-5269.56
-5269.43
-5269.59
-5269.41
-5269.62
-5269.45
-5269.59
-5269.52
-5269.39
-5269.56
-5269.43
-5269.59
-13898
-13897.9
-13898
-13897.9
-13898
-13898
-13897.9
-13898
-13897.8
-13898
-13897.9
-13898
-13897.9
-13898
-13898
-13897.9
-13898
-13897.8
-13898
-13897.9
-13898
-13897.9
-13898
-13898
-13897.9
-13898
-13897.8
-13898
-13897.9
-13898
-13897.9
-13898
-13898
-13897.9
-13898
-13897.8
-2061.15
-2061.21
-2061.24
-2061.13
-2061.25
-2061.24
-2061.22
-2061.25
-2061.26
-2061.15
-2061.21
-2061.24
-2061.13
-2061.25
-2061.24
-2061.22
-2061.25
-2061.26
-2061.15
-2061.21
-2061.24
-2061.13
-2061.25
-2061.24
-2061.22
-2061.25
-2061.26
-2061.15
-2061.21
-2061.24
-2061.13
-2061.25
-2061.24
-2061.22
-2061.25
-2061.26
-5618.28
-5618.28
-5618.18
-5618.32
-5618.25
-5618.16
-5618.26
-5618.25
-5618.14
-5618.28
-5618.28
-5618.18
-5618.32
-5618.25
-5618.16
-5618.26
-5618.25
-5618.14
-5618.28
-5618.28
-5618.18
-5618.32
-5618.25
-5618.16
-5618.26
-5618.25
-5618.14
-5618.28
-5618.28
-5618.18
-5618.32
-5618.25
-5618.16
-5618.26
-5618.25
-5618.14
-12277.3
-12277.2
-12277.2
-12277.2
-12277.3
-12277.3
-12277.3
-12277.3
-12277.3
-12277.3
-12277.2
-12277.2
-12277.2
-12277.3
-12277.3
-12277.3
-12277.3
-12277.3
-12277.3
-12277.2
-12277.2
-12277.2
-12277.3
-12277.3
-12277.3
-12277.3
-12277.3
-12277.3
-12277.2
-12277.2
-12277.2
-12277.3
-12277.3
-12277.3
-12277.3
-12277.3
-3754.45
-3754.42
-3754.37
-3754.39
-3754.44
-3754.46
-3754.47
-3754.42
-3754.36
-3754.45
-3754.42
-3754.37
-3754.39
-3754.44
-3754.46
-3754.47
-3754.42
-3754.36
-3754.45
-3754.42
-3754.37
-3754.39
-3754.44
-3754.46
-3754.47
-3754.42
-3754.36
-3754.45
-3754.42
-3754.37
-3754.39
-3754.44
-3754.46
-3754.47
-3754.42
-3754.36
-5911.63
-5911.61
-5911.63
-5911.51
-5911.59
-5911.62
-5911.54
-5911.63
-5911.61
-5911.63
-5911.61
-5911.63
-5911.51
-5911.59
-5911.62
-5911.54
-5911.63
-5911.61
-5911.63
-5911.61
-5911.63
-5911.51
-5911.59
-5911.62
-5911.54
-5911.63
-5911.61
-5911.63
-5911.61
-5911.63
-5911.51
-5911.59
-5911.62
-5911.54
-5911.63
-5911.61
-10104.6
-10104.7
-10104.7
-10104.7
-10104.7
-10104.7
-10104.7
-10104.6
-10104.8
-10104.6
-10104.7
-10104.7
-10104.7
-10104.7
-10104.7
-10104.7
-10104.6
-10104.8
-10104.6
-10104.7
-10104.7
-10104.7
-10104.7
-10104.7
-10104.7
-10104.6
-10104.8
-10104.6
-10104.7
-10104.7
-10104.7
-10104.7
-10104.7
-10104.7
-10104.6
-10104.8
-5522.93
-5522.98
-5522.92
-5522.82
-5522.89
-5522.93
-5522.96
-5522.86
-5522.87
-5522.93
-5522.99
-5522.92
-5522.82
-5522.89
-5522.93
-5522.96
-5522.86
-5522.87
-5522.93
-5522.98
-5522.92
-5522.82
-5522.89
-5522.93
-5522.96
-5522.86
-5522.87
-5522.93
-5522.98
-5522.92
-5522.82
-5522.89
-5522.93
-5522.96
-5522.86
-5522.87
-6028.07
-6028.03
-6028.13
-6028.16
-6028.08
-6028.17
-6028.07
-6028.1
-6028.16
-6028.07
-6028.03
-6028.13
-6028.16
-6028.08
-6028.17
-6028.07
-6028.1
-6028.16
-6028.07
-6028.03
-6028.12
-6028.16
-6028.08
-6028.17
-6028.07
-6028.1
-6028.16
-6028.07
-6028.03
-6028.13
-6028.16
-6028.08
-6028.17
-6028.07
-6028.1
-6028.16
-7378.08
-7378.17
-7378.12
-7378.19
-7378.1
-7378.07
-7378.04
-7378.12
-7378.18
-7378.08
-7378.17
-7378.12
-7378.19
-7378.1
-7378.07
-7378.04
-7378.12
-7378.18
-7378.08
-7378.17
-7378.12
-7378.19
-7378.1
-7378.07
-7378.04
-7378.12
-7378.18
-7378.08
-7378.17
-7378.12
-7378.19
-7378.1
-7378.07
-7378.04
-7378.12
-7378.18
-6876.64
-6876.67
-6876.57
-6876.59
-6876.6
-6876.61
-6876.57
-6876.68
-6876.68
-6876.64
-6876.67
-6876.57
-6876.58
-6876.6
-6876.61
-6876.57
-6876.68
-6876.68
-6876.64
-6876.67
-6876.56
-6876.58
-6876.6
-6876.61
-6876.57
-6876.68
-6876.68
-6876.64
-6876.67
-6876.57
-6876.59
-6876.6
-6876.61
-6876.57
-6876.68
-6876.67
-5766.88
-5766.75
-5766.86
-5766.84
-5766.87
-5766.82
-5766.85
-5766.94
-5766.84
-5766.88
-5766.75
-5766.86
-5766.84
-5766.87
-5766.82
-5766.85
-5766.94
-5766.84
-5766.88
-5766.75
-5766.86
-5766.84
-5766.87
-5766.82
-5766.85
-5766.94
-5766.84
-5766.88
-5766.76
-5766.86
-5766.84
-5766.87
-5766.82
-5766.85
-5766.94
-5766.84
-4431.01
-4431.11
-4431.05
-4431.14
-4431.1
-4431.08
-4431.14
-4431.04
-4431.07
-4431.01
-4431.12
-4431.05
-4431.14
-4431.1
-4431.09
-4431.14
-4431.04
-4431.07
-4431.01
-4431.12
-4431.05
-4431.14
-4431.1
-4431.09
-4431.14
-4431.04
-4431.07
-4431.01
-4431.12
-4431.05
-4431.14
-4431.1
-4431.09
-4431.14
-4431.04
-4431.08
-6807.68
-6807.54
-6807.45
-6807.56
-6807.51
-6807.52
-6807.47
-6807.61
-6807.82
-6807.68
-6807.54
-6807.45
-6807.56
-6807.51
-6807.52
-6807.47
-6807.61
-6807.82
-6807.68
-6807.54
-6807.45
-6807.56
-6807.51
-6807.52
-6807.47
-6807.61
-6807.82
-6807.68
-6807.54
-6807.45
-6807.56
-6807.51
-6807.52
-6807.47
-6807.61
-6807.82
-4716.03
-4715.96
-4716.01
-4716.07
-4716.02
-4716.06
-4716.06
-4716.09
-4716.04
-4716.03
-4715.96
-4716.01
-4716.07
-4716.01
-4716.06
-4716.06
-4716.09
-4716.04
-4716.03
-4715.96
-4716.01
-4716.07
-4716.02
-4716.06
-4716.06
-4716.09
-4716.05
-4716.03
-4715.96
-4716.01
-4716.07
-4716.02
-4716.06
-4716.06
-4716.09
-4716.04
-2007.79
-2007.93
-2007.9
-2007.95
-2007.92
-2007.94
-2007.84
-2007.75
-2007.74
-2007.79
-2007.93
-2007.9
-2007.95
-2007.92
-2007.95
-2007.84
-2007.75
-2007.74
-2007.79
-2007.93
-2007.9
-2007.95
-2007.92
-2007.95
-2007.84
-2007.75
-2007.74
-2007.79
-2007.93
-2007.9
-2007.95
-2007.92
-2007.95
-2007.84
-2007.75
-2007.75
-3651.76
-3651.52
-3651.5
-3651.62
-3651.44
-3651.41
-3651.62
-3651.78
-3651.97
-3651.77
-3651.52
-3651.5
-3651.62
-3651.44
-3651.41
-3651.61
-3651.77
-3651.97
-3651.77
-3651.52
-3651.5
-3651.62
-3651.44
-3651.41
-3651.61
-3651.78
-3651.97
-3651.77
-3651.52
-3651.5
-3651.62
-3651.44
-3651.41
-3651.61
-3651.77
-3651.96
-2374.29
-2374.22
-2374.24
-2374.22
-2374.28
-2374.21
-2374.22
-2374.26
-2374.26
-2374.29
-2374.22
-2374.24
-2374.22
-2374.28
-2374.21
-2374.22
-2374.26
-2374.26
-2374.29
-2374.22
-2374.24
-2374.22
-2374.28
-2374.21
-2374.22
-2374.26
-2374.26
-2374.29
-2374.22
-2374.24
-2374.22
-2374.28
-2374.21
-2374.22
-2374.26
-2374.26
-2019.18
-2019.47
-2019.46
-2019.52
-2019.47
-2019.45
-2019.36
-2019.11
-2019.1
-2019.18
-2019.47
-2019.46
-2019.53
-2019.47
-2019.45
-2019.36
-2019.11
-2019.1
-2019.18
-2019.47
-2019.46
-2019.53
-2019.47
-2019.45
-2019.36
-2019.12
-2019.09
-2019.17
-2019.47
-2019.46
-2019.52
-2019.47
-2019.45
-2019.37
-2019.12
-2019.1
501.479
502.479
505.076
503.735
500.857
503.285
505.188
502.448
501.059
501.45
502.449
505.054
503.725
500.856
503.285
505.184
502.438
501.048
501.439
502.441
505.049
503.721
500.849
503.278
505.177
502.434
501.046
501.437
502.437
505.041
503.71
500.841
503.273
505.179
502.453
501.08
3495.52
3495.22
3494.67
3495.19
3495.27
3495.04
3494.65
3495.28
3495.43
3495.53
3495.23
3494.67
3495.2
3495.27
3495.04
3494.65
3495.28
3495.43
3495.53
3495.23
3494.67
3495.2
3495.27
3495.04
3494.65
3495.28
3495.43
3495.53
3495.23
3494.68
3495.2
3495.28
3495.04
3494.65
3495.27
3495.42
-5252.4
-5252.71
-5252.83
-5252.74
-5252.66
-5252.77
-5252.63
-5252.24
-5252.28
-5252.4
-5252.71
-5252.83
-5252.74
-5252.67
-5252.78
-5252.64
-5252.24
-5252.28
-5252.4
-5252.71
-5252.83
-5252.74
-5252.66
-5252.77
-5252.63
-5252.24
-5252.27
-5252.39
-5252.7
-5252.83
-5252.73
-5252.66
-5252.77
-5252.64
-5252.25
-5252.29
27706.6
27711.6
27684.8
27691.2
27716.9
27699.4
27682.4
27702
27701.1
27706.7
27711.8
27684.9
27691.3
27716.9
27699.5
27682.5
27702
27701.1
27706.7
27711.8
27684.9
27691.3
27716.9
27699.5
27682.5
27702
27701.1
27706.7
27711.8
27684.9
27691.3
27716.9
27699.5
27682.5
27702
27701
17061.3
17059.2
17058.8
17059
17061.7
17057.8
17059.3
17060.3
17061.4
17061.3
17059.2
17058.8
17059
17061.7
17057.8
17059.3
17060.3
17061.4
17061.3
17059.2
17058.8
17059
17061.7
17057.8
17059.3
17060.3
17061.4
17061.3
17059.2
17058.8
17059
17061.7
17057.8
17059.3
17060.3
17061.4
-42447.8
-42447.1
-42449.3
-42447.5
-42448.6
-42447.5
-42449
-42447.1
-42448
-42447.8
-42447.1
-42449.3
-42447.5
-42448.7
-42447.5
-42449
-42447.1
-42448
-42447.9
-42447.1
-42449.3
-42447.5
-42448.7
-42447.5
-42449
-42447.1
-42448
-42447.8
-42447.1
-42449.3
-42447.5
-42448.6
-42447.5
-42449
-42447.1
-42448
)
;

boundaryField
{
    fixed
    {
        type            zeroGradient;
    }
    inside
    {
        type            zeroGradient;
    }
    outside
    {
        type            zeroGradient;
    }
}


// ************************************************************************* //
