/*--------------------------------*- C++ -*----------------------------------*\
| =========                 |                                                 |
| \\      /  F ield         | OpenFOAM: The Open Source CFD Toolbox           |
|  \\    /   O peration     | Version:  2312                                  |
|   \\  /    A nd           | Website:  www.openfoam.com                      |
|    \\/     M anipulation  |                                                 |
\*---------------------------------------------------------------------------*/
FoamFile
{
    version     2.0;
    format      ascii;
    arch        "LSB;label=32;scalar=64";
    class       surfaceVectorField;
    location    "0";
    object      elf;
}
// * * * * * * * * * * * * * * * * * * * * * * * * * * * * * * * * * * * * * //

dimensions      [0 0 0 0 0 0 0];

internalField   nonuniform List<vector> 
8424
(
(-0.0871564 0.996195 -1.24144e-19)
(3.24431e-09 1 -1.96525e-27)
(-0.0436193 0.999048 -1.30537e-19)
(-0.0436196 0.999048 -1.09345e-20)
(-0.173649 0.984808 -7.72045e-20)
(-0.130527 0.991445 2.40335e-19)
(-0.130529 0.991444 1.06055e-19)
(-0.258818 0.965926 -2.11019e-19)
(-0.216439 0.976296 -2.43399e-19)
(-0.216439 0.976296 -5.52376e-19)
(-0.342018 0.939693 2.14742e-19)
(-0.300704 0.953718 -7.17183e-19)
(-0.300703 0.953718 -4.92921e-19)
(-0.422619 0.906308 9.26449e-19)
(-0.382683 0.92388 -4.3431e-19)
(-0.382682 0.92388 -2.22866e-19)
(-0.500002 0.866024 -1.56522e-19)
(-0.46175 0.88701 6.38879e-19)
(-0.461751 0.88701 3.95641e-19)
(-0.573577 0.819151 -3.45213e-19)
(-0.537301 0.84339 -2.71993e-19)
(-0.537302 0.84339 9.44987e-19)
(-0.642788 0.766044 3.82702e-19)
(-0.608762 0.793353 5.39173e-19)
(-0.608762 0.793353 -6.17364e-19)
(-0.707107 0.707107 -9.80469e-19)
(-0.675591 0.737276 -1.08054e-18)
(-0.675591 0.737277 -5.83405e-19)
(-0.766044 0.642788 1.08588e-18)
(-0.737276 0.675591 8.70262e-20)
(-0.737277 0.675591 8.832e-19)
(-0.819151 0.573577 5.35099e-19)
(-0.793353 0.608762 6.6223e-19)
(-0.793353 0.608762 -5.70922e-19)
(-0.866024 0.500002 6.80856e-19)
(-0.84339 0.537301 6.39669e-19)
(-0.84339 0.537302 -5.21779e-19)
(-0.906308 0.422619 -5.46112e-19)
(-0.88701 0.46175 -1.65801e-19)
(-0.88701 0.461751 2.41437e-19)
(-0.939693 0.342018 -2.77659e-19)
(-0.92388 0.382683 6.83153e-19)
(-0.92388 0.382682 -4.78223e-19)
(-0.965926 0.258818 -3.73413e-20)
(-0.953718 0.300704 7.10867e-20)
(-0.953718 0.300703 9.73567e-19)
(-0.984808 0.173649 4.0661e-19)
(-0.976296 0.216439 -1.05399e-19)
(-0.976296 0.216439 -5.7433e-20)
(-0.996195 0.0871564 -1.05653e-19)
(-0.991445 0.130527 5.2485e-19)
(-0.991444 0.130529 3.07011e-19)
(-1 3.12791e-10 -2.41067e-28)
(-0.999048 0.0436193 1.15732e-19)
(-0.999048 0.0436196 6.94057e-20)
(-0.996195 -0.0871564 7.40741e-20)
(-0.999048 -0.0436193 -1.09922e-20)
(-0.999048 -0.0436196 -6.09114e-20)
(-0.984808 -0.173649 3.72154e-20)
(-0.991445 -0.130527 2.26157e-19)
(-0.991444 -0.130529 2.91283e-19)
(-0.965926 -0.258818 -5.11812e-19)
(-0.976296 -0.216439 4.12298e-19)
(-0.976296 -0.216439 3.52119e-19)
(-0.939693 -0.342018 -1.04801e-21)
(-0.953718 -0.300704 -1.65134e-19)
(-0.953718 -0.300703 4.00564e-19)
(-0.906308 -0.422619 9.34406e-20)
(-0.92388 -0.382683 -6.9434e-19)
(-0.92388 -0.382682 8.0683e-19)
(-0.866024 -0.500002 1.78042e-19)
(-0.88701 -0.46175 7.13978e-19)
(-0.88701 -0.461751 -1.70936e-18)
(-0.819151 -0.573577 1.38422e-18)
(-0.84339 -0.537301 -9.1907e-19)
(-0.84339 -0.537302 -9.25653e-19)
(-0.766044 -0.642788 1.09268e-18)
(-0.793353 -0.608762 -1.13442e-18)
(-0.793353 -0.608762 5.40577e-19)
(-0.707107 -0.707107 2.75391e-19)
(-0.737276 -0.675591 -1.77515e-18)
(-0.737277 -0.675591 -8.30151e-19)
(-0.642788 -0.766044 9.6087e-19)
(-0.675591 -0.737276 3.99146e-19)
(-0.675591 -0.737277 9.4443e-20)
(-0.573577 -0.819151 6.27368e-19)
(-0.608762 -0.793353 1.70053e-18)
(-0.608762 -0.793353 -1.38936e-19)
(-0.500002 -0.866024 -5.30868e-21)
(-0.537301 -0.84339 4.32072e-19)
(-0.537302 -0.84339 3.66879e-19)
(-0.422619 -0.906308 7.18725e-19)
(-0.46175 -0.88701 8.74602e-21)
(-0.461751 -0.88701 -8.40723e-19)
(-0.342018 -0.939693 2.14145e-19)
(-0.382683 -0.92388 4.63637e-19)
(-0.382682 -0.92388 -1.16933e-18)
(-0.258818 -0.965926 -3.65576e-19)
(-0.300704 -0.953718 -5.49711e-19)
(-0.300703 -0.953718 -5.1462e-19)
(-0.173649 -0.984808 -1.65754e-19)
(-0.216439 -0.976296 2.01898e-19)
(-0.216439 -0.976296 -2.26567e-19)
(-0.0871564 -0.996195 1.79102e-19)
(-0.130527 -0.991445 -3.22843e-19)
(-0.130529 -0.991444 1.68962e-19)
(-8.3267e-15 -1 4.34103e-33)
(-0.0436193 -0.999048 2.67516e-20)
(-0.0436196 -0.999048 -8.30409e-21)
(0.0871564 -0.996195 -2.65061e-20)
(0.0436193 -0.999048 -1.10316e-19)
(0.0436196 -0.999048 -2.88593e-20)
(0.173649 -0.984808 1.26252e-19)
(0.130527 -0.991445 -1.29213e-19)
(0.130529 -0.991444 -2.34692e-19)
(0.258818 -0.965926 3.82572e-19)
(0.216439 -0.976296 3.10508e-19)
(0.216439 -0.976296 1.17322e-18)
(0.342018 -0.939693 -1.17346e-18)
(0.300704 -0.953718 -5.07141e-20)
(0.300703 -0.953718 4.13735e-19)
(0.422619 -0.906308 -4.24768e-19)
(0.382683 -0.92388 5.99886e-20)
(0.382682 -0.92388 -1.21449e-18)
(0.500002 -0.866024 2.07392e-19)
(0.46175 -0.88701 4.75293e-19)
(0.461751 -0.88701 1.16768e-19)
(0.573577 -0.819151 1.39296e-18)
(0.537301 -0.84339 -4.79433e-20)
(0.537302 -0.84339 9.64225e-19)
(0.642788 -0.766044 6.60537e-19)
(0.608762 -0.793353 9.79255e-20)
(0.608762 -0.793353 -1.09999e-23)
(0.707107 -0.707107 -2.89678e-19)
(0.675591 -0.737276 -1.1299e-20)
(0.675591 -0.737277 -1.08503e-18)
(0.766044 -0.642788 -1.00865e-18)
(0.737276 -0.675591 1.96064e-19)
(0.737277 -0.675591 -3.53349e-19)
(0.819151 -0.573577 1.01984e-18)
(0.793353 -0.608762 -6.85873e-19)
(0.793353 -0.608762 8.41622e-20)
(0.866024 -0.500002 4.22091e-19)
(0.84339 -0.537301 5.25547e-19)
(0.84339 -0.537302 1.29504e-18)
(0.906308 -0.422619 -1.143e-18)
(0.88701 -0.46175 5.39838e-19)
(0.88701 -0.461751 -7.68321e-19)
(0.939693 -0.342018 4.19917e-19)
(0.92388 -0.382683 3.48041e-19)
(0.92388 -0.382682 6.65727e-20)
(0.965926 -0.258818 6.03604e-20)
(0.953718 -0.300704 7.4596e-19)
(0.953718 -0.300703 1.20971e-19)
(0.984808 -0.173649 -5.88944e-19)
(0.976296 -0.216439 1.00641e-19)
(0.976296 -0.216439 3.33702e-19)
(0.996195 -0.0871564 -7.96928e-20)
(0.991445 -0.130527 2.15181e-19)
(0.991444 -0.130529 1.26969e-19)
(1 7.87408e-11 -4.55366e-29)
(0.999048 -0.0436193 -2.20637e-21)
(0.999048 -0.0436196 9.65999e-20)
(0.996195 0.0871564 8.57693e-21)
(0.999048 0.0436193 -7.26321e-21)
(0.999048 0.0436196 -4.92932e-21)
(0.984808 0.173649 -3.1279e-19)
(0.991445 0.130527 2.33339e-19)
(0.991444 0.130529 -2.30093e-19)
(0.965926 0.258818 1.34262e-20)
(0.976296 0.216439 1.42282e-19)
(0.976296 0.216439 -9.05164e-20)
(0.939693 0.342018 -4.61063e-19)
(0.953718 0.300704 -1.92441e-19)
(0.953718 0.300703 6.70385e-20)
(0.906308 0.422619 8.509e-19)
(0.92388 0.382683 9.3802e-19)
(0.92388 0.382682 -2.47825e-19)
(0.866024 0.500002 -1.81563e-19)
(0.88701 0.46175 -1.69829e-19)
(0.88701 0.461751 -8.67056e-19)
(0.819151 0.573577 2.1653e-18)
(0.84339 0.537301 -2.47511e-19)
(0.84339 0.537302 -2.49916e-21)
(0.766044 0.642788 1.09648e-19)
(0.793353 0.608762 -1.36295e-18)
(0.793353 0.608762 4.23427e-19)
(0.707107 0.707107 -4.18674e-19)
(0.737276 0.675591 3.83073e-19)
(0.737277 0.675591 -2.07859e-19)
(0.642788 0.766044 -9.6301e-19)
(0.675591 0.737276 4.3492e-19)
(0.675591 0.737277 -1.46751e-18)
(0.573577 0.819151 2.21778e-18)
(0.608762 0.793353 -1.33632e-18)
(0.608762 0.793353 -6.83533e-19)
(0.500002 0.866024 3.89605e-19)
(0.537301 0.84339 3.98569e-19)
(0.537302 0.84339 1.55234e-19)
(0.422619 0.906308 -7.47514e-19)
(0.46175 0.88701 6.26689e-19)
(0.461751 0.88701 1.5437e-18)
(0.342018 0.939693 -8.44243e-20)
(0.382683 0.92388 5.25616e-19)
(0.382682 0.92388 4.26894e-19)
(0.258818 0.965926 2.48446e-19)
(0.300704 0.953718 1.21837e-19)
(0.300703 0.953718 -2.03277e-19)
(0.173649 0.984808 3.79532e-20)
(0.216439 0.976296 -6.61138e-20)
(0.216439 0.976296 -1.4374e-19)
(0.0871564 0.996195 -6.39574e-20)
(0.130527 0.991445 -1.46179e-19)
(0.130529 0.991444 2.6145e-19)
(0.0436193 0.999048 -5.26219e-20)
(0.0436196 0.999048 4.11066e-20)
(-0.0871564 0.996195 -1.17396e-19)
(-2.65431e-09 1 -1.49786e-27)
(-0.0436198 0.999048 9.78984e-21)
(-0.0436202 0.999048 -1.04388e-19)
(-0.173648 0.984808 -5.41613e-19)
(-0.130526 0.991445 -4.4068e-19)
(-0.130528 0.991445 -7.80551e-19)
(-0.258817 0.965926 -2.70894e-19)
(-0.216437 0.976296 -2.12486e-19)
(-0.216439 0.976296 -5.21529e-19)
(-0.342019 0.939693 7.02728e-19)
(-0.300704 0.953718 5.81474e-19)
(-0.300703 0.953718 -1.65135e-18)
(-0.422619 0.906308 3.13583e-19)
(-0.382684 0.923879 2.36442e-19)
(-0.382683 0.92388 1.19362e-18)
(-0.500001 0.866025 6.36153e-19)
(-0.46175 0.88701 2.49097e-19)
(-0.46175 0.88701 -4.65181e-19)
(-0.573578 0.819151 -4.0738e-19)
(-0.5373 0.843391 -1.36009e-18)
(-0.537301 0.843391 1.99472e-19)
(-0.64279 0.766043 -5.86382e-19)
(-0.608764 0.793352 -2.13e-19)
(-0.608763 0.793352 9.84554e-19)
(-0.707107 0.707107 -1.36029e-18)
(-0.675592 0.737276 -1.06573e-18)
(-0.675591 0.737277 1.06996e-18)
(-0.766043 0.64279 8.90336e-19)
(-0.737276 0.675592 -2.97522e-18)
(-0.737277 0.675591 -1.25862e-18)
(-0.819151 0.573578 -5.23782e-19)
(-0.793352 0.608764 -6.29036e-19)
(-0.793352 0.608763 -7.46821e-19)
(-0.866025 0.500001 3.16334e-19)
(-0.843391 0.5373 -5.05631e-19)
(-0.843391 0.537301 1.7386e-18)
(-0.906308 0.422619 -7.67114e-19)
(-0.88701 0.46175 -2.60671e-19)
(-0.88701 0.46175 -6.31816e-19)
(-0.939693 0.342019 -3.66231e-19)
(-0.923879 0.382684 -2.31377e-19)
(-0.92388 0.382683 -1.88558e-18)
(-0.965926 0.258817 -6.98921e-19)
(-0.953718 0.300704 7.43436e-19)
(-0.953718 0.300703 -1.51488e-18)
(-0.984808 0.173648 -4.40479e-20)
(-0.976296 0.216437 -1.05488e-19)
(-0.976296 0.216439 -2.78227e-19)
(-0.996195 0.0871564 8.14996e-20)
(-0.991445 0.130526 -3.07227e-19)
(-0.991445 0.130528 -5.98543e-20)
(-1 6.38029e-10 1.95122e-27)
(-0.999048 0.0436198 9.66208e-20)
(-0.999048 0.0436202 1.16357e-19)
(-0.996195 -0.0871564 -1.75244e-20)
(-0.999048 -0.0436198 1.39699e-19)
(-0.999048 -0.0436202 -3.10853e-20)
(-0.984808 -0.173648 -2.422e-19)
(-0.991445 -0.130526 2.87945e-19)
(-0.991445 -0.130528 8.70083e-20)
(-0.965926 -0.258817 5.5436e-19)
(-0.976296 -0.216437 -6.78952e-19)
(-0.976296 -0.216439 4.55538e-19)
(-0.939693 -0.342019 -9.20955e-19)
(-0.953718 -0.300704 3.16936e-19)
(-0.953718 -0.300703 1.24258e-18)
(-0.906308 -0.422619 -1.40579e-18)
(-0.923879 -0.382684 -6.32876e-19)
(-0.92388 -0.382683 1.69844e-18)
(-0.866025 -0.500001 9.04221e-19)
(-0.88701 -0.46175 -8.69841e-19)
(-0.88701 -0.46175 -1.34159e-18)
(-0.819151 -0.573578 -1.54172e-18)
(-0.843391 -0.5373 1.86098e-19)
(-0.843391 -0.537301 -2.97117e-19)
(-0.766043 -0.64279 -7.05854e-19)
(-0.793352 -0.608764 5.24649e-19)
(-0.793352 -0.608763 5.8993e-19)
(-0.707107 -0.707107 -1.49065e-18)
(-0.737276 -0.675592 7.93514e-19)
(-0.737277 -0.675591 -2.00281e-18)
(-0.64279 -0.766043 -1.33734e-18)
(-0.675592 -0.737276 1.69739e-18)
(-0.675591 -0.737277 -2.70584e-19)
(-0.573578 -0.819151 -1.17137e-18)
(-0.608764 -0.793352 -1.04198e-18)
(-0.608763 -0.793352 7.15911e-19)
(-0.500001 -0.866025 7.28672e-19)
(-0.5373 -0.843391 -2.96704e-19)
(-0.537301 -0.843391 9.49416e-19)
(-0.422619 -0.906308 1.75724e-19)
(-0.46175 -0.88701 2.61107e-19)
(-0.46175 -0.88701 1.36864e-18)
(-0.342019 -0.939693 -6.48418e-19)
(-0.382684 -0.923879 -6.97393e-19)
(-0.382683 -0.92388 -1.92271e-19)
(-0.258817 -0.965926 1.53711e-19)
(-0.300704 -0.953718 7.00608e-19)
(-0.300703 -0.953718 5.37307e-20)
(-0.173648 -0.984808 -6.57251e-19)
(-0.216437 -0.976296 5.24968e-19)
(-0.216439 -0.976296 -1.04066e-19)
(-0.0871564 -0.996195 -2.05836e-20)
(-0.130526 -0.991445 -1.02521e-19)
(-0.130528 -0.991445 -2.61984e-19)
(-6.99576e-15 -1 -6.58788e-33)
(-0.0436198 -0.999048 8.44315e-20)
(-0.0436202 -0.999048 2.14222e-19)
(0.0871564 -0.996195 1.06659e-21)
(0.0436198 -0.999048 1.74711e-19)
(0.0436202 -0.999048 6.71429e-20)
(0.173648 -0.984808 -2.44065e-19)
(0.130526 -0.991445 4.29261e-19)
(0.130528 -0.991445 2.26038e-19)
(0.258817 -0.965926 2.76965e-19)
(0.216437 -0.976296 9.87857e-19)
(0.216439 -0.976296 -4.65439e-19)
(0.342019 -0.939693 -2.39329e-19)
(0.300704 -0.953718 4.78654e-19)
(0.300703 -0.953718 -1.33772e-19)
(0.422619 -0.906308 3.88355e-19)
(0.382684 -0.923879 1.46923e-20)
(0.382683 -0.92388 5.94518e-19)
(0.500001 -0.866025 -6.73829e-20)
(0.46175 -0.88701 -7.26655e-19)
(0.46175 -0.88701 7.1075e-19)
(0.573578 -0.819151 -1.94079e-18)
(0.5373 -0.843391 -8.22468e-19)
(0.537301 -0.843391 1.45914e-18)
(0.64279 -0.766043 -5.99669e-19)
(0.608764 -0.793352 -1.08167e-18)
(0.608763 -0.793352 -2.88376e-18)
(0.707107 -0.707107 1.56332e-19)
(0.675592 -0.737276 5.94266e-19)
(0.675591 -0.737277 1.23681e-18)
(0.766043 -0.64279 8.4062e-19)
(0.737276 -0.675592 1.10775e-18)
(0.737277 -0.675591 -1.46719e-18)
(0.819151 -0.573578 5.82037e-20)
(0.793352 -0.608764 -1.59332e-18)
(0.793352 -0.608763 2.56732e-18)
(0.866025 -0.500001 7.54451e-19)
(0.843391 -0.5373 1.11864e-18)
(0.843391 -0.537301 1.9901e-18)
(0.906308 -0.422619 -9.13247e-19)
(0.88701 -0.46175 7.70796e-19)
(0.88701 -0.46175 7.99084e-19)
(0.939693 -0.342019 1.85283e-19)
(0.923879 -0.382684 -3.9399e-19)
(0.92388 -0.382683 1.65526e-19)
(0.965926 -0.258817 -7.5042e-19)
(0.953718 -0.300704 6.13289e-19)
(0.953718 -0.300703 1.18005e-18)
(0.984808 -0.173648 -1.52804e-19)
(0.976296 -0.216437 -4.86359e-21)
(0.976296 -0.216439 6.41807e-19)
(0.996195 -0.0871564 2.7717e-20)
(0.991445 -0.130526 -6.0751e-19)
(0.991445 -0.130528 1.70613e-19)
(1 2.19992e-10 -5.74332e-28)
(0.999048 -0.0436198 1.00347e-19)
(0.999048 -0.0436202 -1.22127e-19)
(0.996195 0.0871564 -2.09376e-19)
(0.999048 0.0436198 8.50705e-20)
(0.999048 0.0436202 2.7401e-20)
(0.984808 0.173648 -1.33127e-19)
(0.991445 0.130526 -6.35855e-20)
(0.991445 0.130528 -1.97322e-20)
(0.965926 0.258817 3.29456e-19)
(0.976296 0.216437 -4.33718e-19)
(0.976296 0.216439 -7.62139e-19)
(0.939693 0.342019 6.96978e-19)
(0.953718 0.300704 8.18624e-19)
(0.953718 0.300703 1.01739e-18)
(0.906308 0.422619 -7.83949e-19)
(0.923879 0.382684 1.00583e-18)
(0.92388 0.382683 -1.79615e-18)
(0.866025 0.500001 -1.29529e-18)
(0.88701 0.46175 1.84721e-18)
(0.88701 0.46175 5.39007e-19)
(0.819151 0.573578 -9.65693e-20)
(0.843391 0.5373 2.15858e-18)
(0.843391 0.537301 3.66235e-19)
(0.766043 0.64279 -3.09107e-19)
(0.793352 0.608764 5.39789e-19)
(0.793352 0.608763 1.0192e-18)
(0.707107 0.707107 8.91696e-19)
(0.737276 0.675592 2.49717e-18)
(0.737277 0.675591 1.42117e-18)
(0.64279 0.766043 1.31786e-18)
(0.675592 0.737276 -2.87397e-18)
(0.675591 0.737277 7.92429e-19)
(0.573578 0.819151 2.35819e-18)
(0.608764 0.793352 1.79079e-18)
(0.608763 0.793352 -8.12072e-20)
(0.500001 0.866025 2.35571e-19)
(0.5373 0.843391 -1.97111e-19)
(0.537301 0.843391 -9.23125e-19)
(0.422619 0.906308 -6.19045e-19)
(0.46175 0.88701 -1.68011e-18)
(0.46175 0.88701 -9.4649e-19)
(0.342019 0.939693 -3.00827e-19)
(0.382684 0.923879 -5.35318e-19)
(0.382683 0.92388 2.45383e-19)
(0.258817 0.965926 -3.85371e-19)
(0.300704 0.953718 3.7667e-19)
(0.300703 0.953718 -3.73469e-19)
(0.173648 0.984808 1.04321e-19)
(0.216437 0.976296 -1.61916e-19)
(0.216439 0.976296 -8.41345e-19)
(0.0871564 0.996195 -1.72027e-19)
(0.130526 0.991445 -2.33133e-19)
(0.130528 0.991445 -3.08334e-19)
(0.0436198 0.999048 -6.02875e-20)
(0.0436202 0.999048 -2.4357e-19)
(-0.0871559 0.996195 -8.08251e-20)
(9.55093e-12 1 5.18989e-30)
(-0.0436207 0.999048 2.86199e-19)
(-0.173647 0.984808 -4.72192e-20)
(-0.130527 0.991445 5.12483e-19)
(-0.258817 0.965926 4.26642e-20)
(-0.216438 0.976296 -5.24593e-19)
(-0.34202 0.939693 5.74312e-20)
(-0.300704 0.953718 -1.52664e-18)
(-0.42262 0.906307 -3.89343e-19)
(-0.382683 0.92388 3.10459e-19)
(-0.5 0.866025 1.21552e-20)
(-0.461749 0.88701 1.84272e-19)
(-0.573577 0.819151 7.41428e-19)
(-0.537299 0.843392 3.0699e-18)
(-0.64279 0.766043 -1.47025e-18)
(-0.608763 0.793352 1.69563e-18)
(-0.707107 0.707107 -1.54396e-19)
(-0.675592 0.737276 2.4033e-19)
(-0.766043 0.64279 1.84732e-19)
(-0.737276 0.675592 9.61763e-19)
(-0.819151 0.573577 -7.34729e-19)
(-0.793352 0.608763 1.39514e-18)
(-0.866025 0.5 -8.69117e-19)
(-0.843392 0.537299 -8.21111e-19)
(-0.906307 0.42262 -8.05972e-19)
(-0.88701 0.461749 1.28539e-18)
(-0.939693 0.34202 -2.73464e-19)
(-0.92388 0.382683 -1.54245e-18)
(-0.965926 0.258817 9.68605e-19)
(-0.953718 0.300704 -7.55617e-19)
(-0.984808 0.173647 1.43068e-19)
(-0.976296 0.216438 -2.84962e-19)
(-0.996195 0.0871559 -5.52909e-22)
(-0.991445 0.130527 -8.09224e-19)
(-1 3.50732e-10 1.18287e-28)
(-0.999048 0.0436207 9.59241e-20)
(-0.996195 -0.0871559 -2.64599e-19)
(-0.999048 -0.0436207 3.32253e-19)
(-0.984808 -0.173647 -6.63839e-19)
(-0.991445 -0.130527 5.6006e-19)
(-0.965926 -0.258817 6.4412e-20)
(-0.976296 -0.216438 1.58609e-19)
(-0.939693 -0.34202 1.23507e-18)
(-0.953718 -0.300704 6.7351e-19)
(-0.906307 -0.42262 2.5934e-19)
(-0.92388 -0.382683 4.01423e-18)
(-0.866025 -0.5 8.56966e-19)
(-0.88701 -0.461749 1.06346e-18)
(-0.819151 -0.573577 2.00213e-18)
(-0.843392 -0.537299 -3.26872e-18)
(-0.766043 -0.64279 2.38791e-19)
(-0.793352 -0.608763 1.50061e-18)
(-0.707107 -0.707107 8.75573e-19)
(-0.737276 -0.675592 3.71071e-18)
(-0.64279 -0.766043 -6.11261e-20)
(-0.675592 -0.737276 9.05185e-19)
(-0.573577 -0.819151 -5.63301e-19)
(-0.608763 -0.793352 9.30594e-20)
(-0.5 -0.866025 -2.04369e-19)
(-0.537299 -0.843392 -2.01403e-18)
(-0.42262 -0.906307 7.26453e-19)
(-0.461749 -0.88701 4.60603e-19)
(-0.34202 -0.939693 5.22547e-19)
(-0.382683 -0.92388 -2.58987e-18)
(-0.258817 -0.965926 3.02038e-19)
(-0.300704 -0.953718 -1.43066e-18)
(-0.173647 -0.984808 -4.37155e-19)
(-0.216438 -0.976296 6.70773e-19)
(-0.0871559 -0.996195 -1.11968e-19)
(-0.130527 -0.991445 -4.8219e-20)
(-9.51274e-15 -1 -1.96325e-32)
(-0.0436207 -0.999048 -1.7707e-19)
(0.0871559 -0.996195 8.70931e-20)
(0.0436207 -0.999048 -2.59128e-19)
(0.173647 -0.984808 9.43646e-19)
(0.130527 -0.991445 -5.98923e-20)
(0.258817 -0.965926 -4.19273e-19)
(0.216438 -0.976296 -9.53685e-19)
(0.34202 -0.939693 -4.88866e-19)
(0.300704 -0.953718 -8.65833e-19)
(0.42262 -0.906307 9.45955e-20)
(0.382683 -0.92388 9.9596e-19)
(0.5 -0.866025 -1.25842e-18)
(0.461749 -0.88701 2.76579e-18)
(0.573577 -0.819151 -5.90519e-19)
(0.537299 -0.843392 -2.595e-20)
(0.64279 -0.766043 -7.57148e-19)
(0.608763 -0.793352 -1.46326e-18)
(0.707107 -0.707107 2.61106e-18)
(0.675592 -0.737276 -5.72507e-19)
(0.766043 -0.64279 1.63668e-18)
(0.737276 -0.675592 -2.62238e-18)
(0.819151 -0.573577 -8.24133e-19)
(0.793352 -0.608763 3.50187e-18)
(0.866025 -0.5 -6.14695e-19)
(0.843392 -0.537299 1.0314e-18)
(0.906307 -0.42262 -6.36645e-19)
(0.88701 -0.461749 -2.64449e-18)
(0.939693 -0.34202 -9.83901e-19)
(0.92388 -0.382683 -8.14026e-19)
(0.965926 -0.258817 -1.22785e-18)
(0.953718 -0.300704 2.54947e-18)
(0.984808 -0.173647 -4.5494e-19)
(0.976296 -0.216438 -9.76857e-19)
(0.996195 -0.0871559 -3.10487e-19)
(0.991445 -0.130527 8.36053e-20)
(1 1.78046e-10 5.62816e-28)
(0.999048 -0.0436207 -2.49316e-19)
(0.996195 0.0871559 -1.67283e-20)
(0.999048 0.0436207 -1.17957e-19)
(0.984808 0.173647 7.8251e-19)
(0.991445 0.130527 3.92695e-20)
(0.965926 0.258817 8.66783e-21)
(0.976296 0.216438 1.11124e-19)
(0.939693 0.34202 -4.19114e-19)
(0.953718 0.300704 2.04661e-18)
(0.906307 0.42262 1.36776e-18)
(0.92388 0.382683 -6.64072e-19)
(0.866025 0.5 -1.19673e-18)
(0.88701 0.461749 7.56825e-19)
(0.819151 0.573577 1.78386e-19)
(0.843392 0.537299 2.80925e-18)
(0.766043 0.64279 1.14893e-19)
(0.793352 0.608763 -4.60047e-18)
(0.707107 0.707107 1.31157e-18)
(0.737276 0.675592 -1.54657e-18)
(0.64279 0.766043 3.49362e-19)
(0.675592 0.737276 2.10972e-18)
(0.573577 0.819151 -2.16827e-18)
(0.608763 0.793352 -2.68786e-18)
(0.5 0.866025 -1.69368e-18)
(0.537299 0.843392 1.44829e-18)
(0.42262 0.906307 -1.2736e-19)
(0.461749 0.88701 -3.12525e-18)
(0.34202 0.939693 -6.53238e-19)
(0.382683 0.92388 1.80911e-18)
(0.258817 0.965926 -1.04816e-18)
(0.300704 0.953718 1.10118e-18)
(0.173647 0.984808 3.03712e-19)
(0.216438 0.976296 3.8763e-19)
(0.0871559 0.996195 -1.85582e-19)
(0.130527 0.991445 -2.40686e-19)
(0.0436207 0.999048 -1.96795e-19)
(-0.0871583 0.996194 3.47167e-19)
(3.56557e-09 1 -5.16758e-27)
(-0.0436205 0.999048 3.19424e-20)
(-0.0436214 0.999048 -3.39732e-20)
(-0.17365 0.984807 1.97739e-19)
(-0.130529 0.991444 1.05737e-18)
(-0.130529 0.991444 -2.29518e-19)
(-0.258817 0.965926 -8.4621e-20)
(-0.216439 0.976296 -1.97783e-19)
(-0.216438 0.976296 -1.54915e-19)
(-0.342018 0.939693 8.85595e-19)
(-0.300703 0.953718 2.07012e-18)
(-0.300704 0.953718 -8.05694e-20)
(-0.422619 0.906308 1.6621e-19)
(-0.382683 0.92388 4.61474e-20)
(-0.382683 0.92388 -6.96194e-20)
(-0.500002 0.866024 1.84649e-18)
(-0.46175 0.88701 2.11678e-18)
(-0.461751 0.88701 5.93524e-19)
(-0.573578 0.819151 6.39791e-19)
(-0.537301 0.84339 -5.73399e-19)
(-0.537302 0.84339 -6.77387e-19)
(-0.642788 0.766044 3.87908e-19)
(-0.608762 0.793353 2.73619e-18)
(-0.60876 0.793354 -1.13558e-19)
(-0.707107 0.707107 -6.62218e-19)
(-0.67559 0.737277 -8.70666e-19)
(-0.67559 0.737278 -2.68364e-19)
(-0.766044 0.642788 -1.81461e-18)
(-0.737277 0.67559 -2.33422e-18)
(-0.737278 0.67559 4.46671e-19)
(-0.819151 0.573578 -9.21923e-19)
(-0.793353 0.608762 1.01651e-18)
(-0.793354 0.60876 3.65105e-19)
(-0.866024 0.500002 7.90757e-19)
(-0.84339 0.537301 -9.92134e-19)
(-0.84339 0.537302 6.5692e-20)
(-0.906308 0.422619 4.45126e-19)
(-0.88701 0.46175 1.04764e-18)
(-0.88701 0.461751 -2.09973e-19)
(-0.939693 0.342018 5.58063e-19)
(-0.92388 0.382683 2.60105e-19)
(-0.92388 0.382683 -5.04891e-19)
(-0.965926 0.258817 -2.29784e-19)
(-0.953718 0.300703 1.18807e-18)
(-0.953718 0.300704 -3.63976e-19)
(-0.984807 0.17365 -2.12748e-19)
(-0.976296 0.216439 -3.28279e-19)
(-0.976296 0.216438 8.61488e-20)
(-0.996194 0.0871583 -2.84032e-19)
(-0.991444 0.130529 2.10794e-19)
(-0.991444 0.130529 -1.04332e-19)
(-1 3.84796e-10 5.61681e-28)
(-0.999048 0.0436205 6.15038e-20)
(-0.999048 0.0436214 -1.63241e-20)
(-0.996194 -0.0871583 -1.18381e-19)
(-0.999048 -0.0436205 1.99513e-20)
(-0.999048 -0.0436214 7.06893e-20)
(-0.984807 -0.17365 -3.91337e-20)
(-0.991444 -0.130529 -2.03848e-19)
(-0.991444 -0.130529 -2.83727e-19)
(-0.965926 -0.258817 6.39067e-19)
(-0.976296 -0.216439 2.20128e-19)
(-0.976296 -0.216438 3.38347e-19)
(-0.939693 -0.342018 1.54276e-19)
(-0.953718 -0.300703 -9.60896e-19)
(-0.953718 -0.300704 5.54974e-20)
(-0.906308 -0.422619 2.21532e-20)
(-0.92388 -0.382683 8.92886e-21)
(-0.92388 -0.382683 -3.1456e-20)
(-0.866024 -0.500002 -1.20991e-18)
(-0.88701 -0.46175 -3.94344e-19)
(-0.88701 -0.461751 -2.84073e-19)
(-0.819151 -0.573578 4.40207e-19)
(-0.84339 -0.537301 3.16565e-19)
(-0.84339 -0.537302 2.86767e-19)
(-0.766044 -0.642788 1.7182e-19)
(-0.793353 -0.608762 -3.39569e-19)
(-0.793354 -0.60876 1.74406e-19)
(-0.707107 -0.707107 -6.39129e-19)
(-0.737277 -0.67559 2.43758e-18)
(-0.737278 -0.67559 9.26522e-19)
(-0.642788 -0.766044 -4.62171e-19)
(-0.67559 -0.737277 -1.31642e-18)
(-0.67559 -0.737278 2.18589e-19)
(-0.573578 -0.819151 3.94985e-19)
(-0.608762 -0.793353 1.3016e-18)
(-0.60876 -0.793354 6.80707e-20)
(-0.500002 -0.866024 -3.14134e-19)
(-0.537301 -0.84339 -5.06147e-19)
(-0.537302 -0.84339 -2.26358e-19)
(-0.422619 -0.906308 -8.40817e-19)
(-0.46175 -0.88701 -3.73855e-19)
(-0.461751 -0.88701 -2.49644e-19)
(-0.342018 -0.939693 4.59886e-20)
(-0.382683 -0.92388 -8.53672e-19)
(-0.382683 -0.92388 3.37429e-19)
(-0.258817 -0.965926 3.42648e-19)
(-0.300703 -0.953718 1.47469e-18)
(-0.300704 -0.953718 3.027e-19)
(-0.17365 -0.984807 4.46081e-19)
(-0.216439 -0.976296 -7.64919e-19)
(-0.216438 -0.976296 -6.24883e-20)
(-0.0871583 -0.996194 -1.64737e-19)
(-0.130529 -0.991444 2.30448e-19)
(-0.130529 -0.991444 -1.67166e-19)
(5.78881e-14 -1 -1.76549e-31)
(-0.0436205 -0.999048 -1.12165e-19)
(-0.0436214 -0.999048 -7.77006e-20)
(0.0871583 -0.996194 -2.88929e-21)
(0.0436205 -0.999048 8.23106e-20)
(0.0436214 -0.999048 3.14458e-20)
(0.17365 -0.984807 -5.63041e-19)
(0.130529 -0.991444 1.03566e-18)
(0.130529 -0.991444 4.52899e-21)
(0.258817 -0.965926 4.20341e-19)
(0.216439 -0.976296 -6.42607e-20)
(0.216438 -0.976296 -2.14202e-19)
(0.342018 -0.939693 -9.99153e-19)
(0.300703 -0.953718 -1.14713e-18)
(0.300704 -0.953718 4.09535e-19)
(0.422619 -0.906308 -8.14026e-19)
(0.382683 -0.92388 5.06267e-19)
(0.382683 -0.92388 6.67538e-19)
(0.500002 -0.866024 -1.40453e-19)
(0.46175 -0.88701 1.71965e-18)
(0.461751 -0.88701 1.06967e-18)
(0.573578 -0.819151 -5.23089e-19)
(0.537301 -0.84339 -1.29829e-18)
(0.537302 -0.84339 3.93562e-19)
(0.642788 -0.766044 -9.08978e-19)
(0.608762 -0.793353 4.91793e-20)
(0.60876 -0.793354 -4.90182e-19)
(0.707107 -0.707107 -5.1505e-19)
(0.67559 -0.737277 8.6619e-19)
(0.67559 -0.737278 -1.9425e-18)
(0.766044 -0.642788 -5.43923e-19)
(0.737277 -0.67559 -1.92723e-18)
(0.737278 -0.67559 -5.60466e-19)
(0.819151 -0.573578 -1.33324e-18)
(0.793353 -0.608762 -5.2385e-19)
(0.793354 -0.60876 -1.83073e-20)
(0.866024 -0.500002 1.33884e-18)
(0.84339 -0.537301 1.16598e-18)
(0.84339 -0.537302 4.80514e-19)
(0.906308 -0.422619 -1.2375e-18)
(0.88701 -0.46175 -8.19372e-19)
(0.88701 -0.461751 3.01345e-20)
(0.939693 -0.342018 4.64594e-19)
(0.92388 -0.382683 -6.19104e-19)
(0.92388 -0.382683 5.19156e-19)
(0.965926 -0.258817 1.08932e-18)
(0.953718 -0.300703 -1.03858e-18)
(0.953718 -0.300704 5.83402e-20)
(0.984807 -0.17365 -1.70641e-20)
(0.976296 -0.216439 -3.26511e-19)
(0.976296 -0.216438 1.78117e-19)
(0.996194 -0.0871583 -4.85817e-19)
(0.991444 -0.130529 3.66063e-20)
(0.991444 -0.130529 2.72632e-20)
(1 1.2847e-10 1.88032e-28)
(0.999048 -0.0436205 1.11246e-20)
(0.999048 -0.0436214 -1.15218e-20)
(0.996194 0.0871583 2.90354e-20)
(0.999048 0.0436205 -1.25535e-19)
(0.999048 0.0436214 -1.83e-20)
(0.984807 0.17365 -1.14165e-19)
(0.991444 0.130529 6.66287e-19)
(0.991444 0.130529 -1.49028e-19)
(0.965926 0.258817 2.27635e-19)
(0.976296 0.216439 1.85795e-21)
(0.976296 0.216438 -9.53206e-20)
(0.939693 0.342018 -9.01812e-19)
(0.953718 0.300703 2.19224e-19)
(0.953718 0.300704 7.86576e-19)
(0.906308 0.422619 -1.33306e-18)
(0.92388 0.382683 2.17356e-20)
(0.92388 0.382683 -3.29425e-19)
(0.866024 0.500002 1.30521e-18)
(0.88701 0.46175 2.37371e-18)
(0.88701 0.461751 -4.14989e-19)
(0.819151 0.573578 7.19886e-19)
(0.84339 0.537301 -1.08799e-18)
(0.84339 0.537302 -6.45301e-19)
(0.766044 0.642788 1.48546e-18)
(0.793353 0.608762 -1.05083e-18)
(0.793354 0.60876 -2.88323e-19)
(0.707107 0.707107 2.75495e-18)
(0.737277 0.67559 -1.40834e-18)
(0.737278 0.67559 3.29675e-19)
(0.642788 0.766044 2.18527e-18)
(0.67559 0.737277 1.55103e-18)
(0.67559 0.737278 -1.52878e-18)
(0.573578 0.819151 -9.92295e-20)
(0.608762 0.793353 -2.15093e-18)
(0.60876 0.793354 6.82784e-19)
(0.500002 0.866024 1.02104e-18)
(0.537301 0.84339 4.88454e-19)
(0.537302 0.84339 -5.68377e-19)
(0.422619 0.906308 -6.28369e-19)
(0.46175 0.88701 -8.04475e-20)
(0.461751 0.88701 -3.8165e-19)
(0.342018 0.939693 -2.05124e-19)
(0.382683 0.92388 -1.04154e-18)
(0.382683 0.92388 7.35566e-19)
(0.258817 0.965926 -1.16113e-18)
(0.300703 0.953718 -3.55796e-19)
(0.300704 0.953718 -3.38172e-19)
(0.17365 0.984807 6.51733e-19)
(0.216439 0.976296 -2.99406e-19)
(0.216438 0.976296 1.56057e-19)
(0.0871583 0.996194 5.37724e-20)
(0.130529 0.991444 3.04753e-19)
(0.130529 0.991444 -1.86971e-19)
(0.0436205 0.999048 2.43773e-19)
(0.0436214 0.999048 7.47996e-21)
(-0.0871574 0.996195 -3.59555e-20)
(-2.00882e-11 1 -3.1368e-29)
(-0.0436211 0.999048 -1.16208e-20)
(-0.0436202 0.999048 -1.50329e-19)
(-0.173649 0.984808 6.26591e-19)
(-0.130528 0.991445 -1.30038e-21)
(-0.130528 0.991445 -2.0287e-19)
(-0.258817 0.965926 -1.30857e-19)
(-0.216439 0.976296 -2.3657e-18)
(-0.21644 0.976296 2.73948e-19)
(-0.342018 0.939693 8.82101e-19)
(-0.300703 0.953718 2.18849e-18)
(-0.300704 0.953718 3.38183e-19)
(-0.422619 0.906308 -3.83847e-18)
(-0.382682 0.92388 3.30329e-18)
(-0.382683 0.92388 -8.58558e-19)
(-0.500001 0.866025 9.10279e-19)
(-0.461749 0.88701 3.89741e-18)
(-0.46175 0.88701 -4.81223e-19)
(-0.573577 0.819151 -7.54059e-19)
(-0.5373 0.843391 -6.43662e-19)
(-0.537301 0.843391 -1.30164e-18)
(-0.642787 0.766045 -1.97168e-21)
(-0.608762 0.793353 9.5767e-19)
(-0.608761 0.793353 -1.12666e-18)
(-0.707107 0.707107 6.49471e-20)
(-0.675591 0.737277 -2.35364e-18)
(-0.675589 0.737278 -1.05761e-18)
(-0.766045 0.642787 1.19892e-18)
(-0.737277 0.675591 -1.4841e-18)
(-0.737278 0.675589 -1.84256e-18)
(-0.819151 0.573577 -8.99064e-19)
(-0.793353 0.608762 2.97799e-18)
(-0.793353 0.608761 -1.42711e-18)
(-0.866025 0.500001 -6.79426e-19)
(-0.843391 0.5373 -3.85072e-18)
(-0.843391 0.537301 1.79746e-18)
(-0.906308 0.422619 -6.34569e-19)
(-0.88701 0.461749 -3.13589e-19)
(-0.88701 0.46175 -1.58128e-18)
(-0.939693 0.342018 -6.9354e-19)
(-0.92388 0.382682 -9.49793e-19)
(-0.92388 0.382683 1.30927e-19)
(-0.965926 0.258817 1.25146e-19)
(-0.953718 0.300703 4.27553e-19)
(-0.953718 0.300704 1.85222e-19)
(-0.984808 0.173649 -1.81766e-19)
(-0.976296 0.216439 -2.42273e-19)
(-0.976296 0.21644 -9.11455e-21)
(-0.996195 0.0871574 -8.2139e-20)
(-0.991445 0.130528 2.3391e-19)
(-0.991445 0.130528 3.56133e-19)
(-1 6.70426e-10 1.11768e-27)
(-0.999048 0.0436211 5.67898e-19)
(-0.999048 0.0436202 -7.37968e-20)
(-0.996195 -0.0871574 2.46697e-19)
(-0.999048 -0.0436211 1.39752e-19)
(-0.999048 -0.0436202 -5.97947e-20)
(-0.984808 -0.173649 -7.3185e-20)
(-0.991445 -0.130528 -5.1788e-19)
(-0.991445 -0.130528 -4.46834e-19)
(-0.965926 -0.258817 8.08507e-20)
(-0.976296 -0.216439 1.08125e-18)
(-0.976296 -0.21644 5.27782e-19)
(-0.939693 -0.342018 -6.5321e-19)
(-0.953718 -0.300703 -1.54514e-18)
(-0.953718 -0.300704 -2.91584e-19)
(-0.906308 -0.422619 1.94583e-18)
(-0.92388 -0.382682 -6.43626e-19)
(-0.92388 -0.382683 2.28701e-19)
(-0.866025 -0.500001 3.56739e-18)
(-0.88701 -0.461749 -2.42997e-18)
(-0.88701 -0.46175 -9.53259e-19)
(-0.819151 -0.573577 -6.34814e-19)
(-0.843391 -0.5373 3.31401e-18)
(-0.843391 -0.537301 -4.81168e-19)
(-0.766045 -0.642787 -6.25504e-19)
(-0.793353 -0.608762 5.64194e-19)
(-0.793353 -0.608761 -1.02618e-18)
(-0.707107 -0.707107 1.45726e-18)
(-0.737277 -0.675591 -2.18282e-18)
(-0.737278 -0.675589 1.1762e-18)
(-0.642787 -0.766045 -2.59714e-18)
(-0.675591 -0.737277 -2.64871e-18)
(-0.675589 -0.737278 -1.85529e-18)
(-0.573577 -0.819151 -1.42155e-19)