/*--------------------------------*- C++ -*----------------------------------*\
| =========                 |                                                 |
| \\      /  F ield         | OpenFOAM: The Open Source CFD Toolbox           |
|  \\    /   O peration     | Version:  2312                                  |
|   \\  /    A nd           | Website:  www.openfoam.com                      |
|    \\/     M anipulation  |                                                 |
\*---------------------------------------------------------------------------*/
FoamFile
{
    version     2.0;
    format      ascii;
    arch        "LSB;label=32;scalar=64";
    class       surfaceVectorField;
    location    "0";
    object      enf;
}
// * * * * * * * * * * * * * * * * * * * * * * * * * * * * * * * * * * * * * //

dimensions      [0 0 0 0 0 0 0];

internalField   nonuniform List<vector> 
8424
(
(-0.0141812 -0.00124071 0.999899)
(-0.0142355 4.61844e-11 0.999899)
(-0.0160196 -0.000699429 0.999871)
(-0.018189 -0.000794152 0.999834)
(-0.0140187 -0.00247189 0.999899)
(-0.0158976 -0.00209298 0.999871)
(-0.0180495 -0.00237632 0.999834)
(-0.0137497 -0.0036842 0.999899)
(-0.0156543 -0.00347045 0.999871)
(-0.0177738 -0.00394036 0.999834)
(-0.0133767 -0.0048687 0.999899)
(-0.0152921 -0.00482155 0.999871)
(-0.0173629 -0.00547443 0.999834)
(-0.0129017 -0.00601618 0.999899)
(-0.0148143 -0.00613627 0.999871)
(-0.01682 -0.00696704 0.999834)
(-0.012328 -0.00711763 0.999899)
(-0.0142229 -0.00740401 0.999871)
(-0.0161485 -0.00840642 0.999834)
(-0.0116606 -0.00816485 0.999899)
(-0.0135233 -0.00861536 0.999871)
(-0.0153543 -0.00978182 0.999834)
(-0.0109046 -0.00915002 0.999899)
(-0.0127208 -0.00976107 0.999871)
(-0.0144433 -0.0110827 0.999834)
(-0.0100656 -0.0100656 0.999899)
(-0.0118222 -0.0108331 0.999871)
(-0.0134229 -0.0122998 0.999834)
(-0.00915002 -0.0109046 0.999899)
(-0.0108331 -0.0118222 0.999871)
(-0.0122998 -0.0134229 0.999834)
(-0.00816485 -0.0116606 0.999899)
(-0.00976107 -0.0127208 0.999871)
(-0.0110827 -0.0144433 0.999834)
(-0.00711763 -0.012328 0.999899)
(-0.00861536 -0.0135233 0.999871)
(-0.00978182 -0.0153543 0.999834)
(-0.00601618 -0.0129017 0.999899)
(-0.00740401 -0.0142229 0.999871)
(-0.00840642 -0.0161485 0.999834)
(-0.0048687 -0.0133767 0.999899)
(-0.00613627 -0.0148143 0.999871)
(-0.00696704 -0.01682 0.999834)
(-0.0036842 -0.0137497 0.999899)
(-0.00482155 -0.0152921 0.999871)
(-0.00547443 -0.0173628 0.999834)
(-0.00247189 -0.0140187 0.999899)
(-0.00347045 -0.0156543 0.999871)
(-0.00394036 -0.0177738 0.999834)
(-0.00124071 -0.0141812 0.999899)
(-0.00209298 -0.0158976 0.999871)
(-0.00237632 -0.0180495 0.999834)
(-4.45274e-12 -0.0142355 0.999899)
(-0.000699429 -0.0160196 0.999871)
(-0.000794152 -0.018189 0.999834)
(0.00124071 -0.0141812 0.999899)
(0.000699429 -0.0160196 0.999871)
(0.000794152 -0.018189 0.999834)
(0.00247189 -0.0140187 0.999899)
(0.00209298 -0.0158976 0.999871)
(0.00237632 -0.0180495 0.999834)
(0.0036842 -0.0137497 0.999899)
(0.00347045 -0.0156543 0.999871)
(0.00394036 -0.0177738 0.999834)
(0.0048687 -0.0133767 0.999899)
(0.00482155 -0.0152921 0.999871)
(0.00547443 -0.0173629 0.999834)
(0.00601618 -0.0129017 0.999899)
(0.00613627 -0.0148143 0.999871)
(0.00696704 -0.01682 0.999834)
(0.00711763 -0.012328 0.999899)
(0.00740401 -0.0142229 0.999871)
(0.00840642 -0.0161485 0.999834)
(0.00816485 -0.0116606 0.999899)
(0.00861536 -0.0135233 0.999871)
(0.00978182 -0.0153543 0.999834)
(0.00915002 -0.0109046 0.999899)
(0.00976107 -0.0127208 0.999871)
(0.0110827 -0.0144433 0.999834)
(0.0100656 -0.0100656 0.999899)
(0.0108331 -0.0118222 0.999871)
(0.0122998 -0.0134229 0.999834)
(0.0109046 -0.00915002 0.999899)
(0.0118222 -0.0108331 0.999871)
(0.0134229 -0.0122998 0.999834)
(0.0116606 -0.00816485 0.999899)
(0.0127208 -0.00976107 0.999871)
(0.0144433 -0.0110827 0.999834)
(0.012328 -0.00711763 0.999899)
(0.0135233 -0.00861536 0.999871)
(0.0153543 -0.00978182 0.999834)
(0.0129017 -0.00601618 0.999899)
(0.0142229 -0.00740401 0.999871)
(0.0161485 -0.00840642 0.999834)
(0.0133767 -0.0048687 0.999899)
(0.0148143 -0.00613627 0.999871)
(0.01682 -0.00696704 0.999834)
(0.0137497 -0.0036842 0.999899)
(0.0152921 -0.00482155 0.999871)
(0.0173629 -0.00547443 0.999834)
(0.0140187 -0.00247189 0.999899)
(0.0156543 -0.00347045 0.999871)
(0.0177738 -0.00394036 0.999834)
(0.0141812 -0.00124071 0.999899)
(0.0158976 -0.00209298 0.999871)
(0.0180495 -0.00237632 0.999834)
(0.0142355 -1.18535e-16 0.999899)
(0.0160196 -0.000699429 0.999871)
(0.018189 -0.000794152 0.999834)
(0.0141812 0.00124071 0.999899)
(0.0160196 0.000699429 0.999871)
(0.018189 0.000794152 0.999834)
(0.0140187 0.00247189 0.999899)
(0.0158976 0.00209298 0.999871)
(0.0180495 0.00237632 0.999834)
(0.0137497 0.0036842 0.999899)
(0.0156543 0.00347045 0.999871)
(0.0177738 0.00394036 0.999834)
(0.0133767 0.0048687 0.999899)
(0.0152921 0.00482155 0.999871)
(0.0173629 0.00547443 0.999834)
(0.0129017 0.00601618 0.999899)
(0.0148143 0.00613627 0.999871)
(0.01682 0.00696704 0.999834)
(0.012328 0.00711763 0.999899)
(0.0142229 0.00740401 0.999871)
(0.0161485 0.00840642 0.999834)
(0.0116606 0.00816485 0.999899)
(0.0135233 0.00861536 0.999871)
(0.0153543 0.00978182 0.999834)
(0.0109046 0.00915002 0.999899)
(0.0127208 0.00976107 0.999871)
(0.0144433 0.0110827 0.999834)
(0.0100656 0.0100656 0.999899)
(0.0118222 0.0108331 0.999871)
(0.0134229 0.0122998 0.999834)
(0.00915002 0.0109046 0.999899)
(0.0108331 0.0118222 0.999871)
(0.0122998 0.0134229 0.999834)
(0.00816485 0.0116606 0.999899)
(0.00976107 0.0127208 0.999871)
(0.0110827 0.0144433 0.999834)
(0.00711763 0.012328 0.999899)
(0.00861536 0.0135233 0.999871)
(0.00978182 0.0153543 0.999834)
(0.00601618 0.0129017 0.999899)
(0.00740401 0.0142229 0.999871)
(0.00840642 0.0161485 0.999834)
(0.0048687 0.0133767 0.999899)
(0.00613627 0.0148143 0.999871)
(0.00696704 0.01682 0.999834)
(0.0036842 0.0137497 0.999899)
(0.00482155 0.0152921 0.999871)
(0.00547443 0.0173629 0.999834)
(0.00247189 0.0140187 0.999899)
(0.00347045 0.0156543 0.999871)
(0.00394036 0.0177738 0.999834)
(0.00124071 0.0141812 0.999899)
(0.00209298 0.0158976 0.999871)
(0.00237632 0.0180495 0.999834)
(-1.12091e-12 0.0142355 0.999899)
(0.000699429 0.0160196 0.999871)
(0.000794152 0.018189 0.999834)
(-0.00124071 0.0141812 0.999899)
(-0.000699429 0.0160196 0.999871)
(-0.000794152 0.018189 0.999834)
(-0.00247189 0.0140187 0.999899)
(-0.00209298 0.0158976 0.999871)
(-0.00237632 0.0180495 0.999834)
(-0.0036842 0.0137497 0.999899)
(-0.00347045 0.0156543 0.999871)
(-0.00394036 0.0177738 0.999834)
(-0.0048687 0.0133767 0.999899)
(-0.00482155 0.0152921 0.999871)
(-0.00547443 0.0173628 0.999834)
(-0.00601618 0.0129017 0.999899)
(-0.00613627 0.0148143 0.999871)
(-0.00696704 0.01682 0.999834)
(-0.00711763 0.012328 0.999899)
(-0.00740401 0.0142229 0.999871)
(-0.00840642 0.0161485 0.999834)
(-0.00816485 0.0116606 0.999899)
(-0.00861536 0.0135233 0.999871)
(-0.00978182 0.0153543 0.999834)
(-0.00915002 0.0109046 0.999899)
(-0.00976107 0.0127208 0.999871)
(-0.0110827 0.0144433 0.999834)
(-0.0100656 0.0100656 0.999899)
(-0.0108331 0.0118222 0.999871)
(-0.0122998 0.0134229 0.999834)
(-0.0109046 0.00915002 0.999899)
(-0.0118222 0.0108331 0.999871)
(-0.0134229 0.0122998 0.999834)
(-0.0116606 0.00816485 0.999899)
(-0.0127208 0.00976107 0.999871)
(-0.0144433 0.0110827 0.999834)
(-0.012328 0.00711763 0.999899)
(-0.0135233 0.00861536 0.999871)
(-0.0153543 0.00978182 0.999834)
(-0.0129017 0.00601618 0.999899)
(-0.0142229 0.00740401 0.999871)
(-0.0161485 0.00840642 0.999834)
(-0.0133767 0.0048687 0.999899)
(-0.0148143 0.00613627 0.999871)
(-0.01682 0.00696704 0.999834)
(-0.0137497 0.0036842 0.999899)
(-0.0152921 0.00482155 0.999871)
(-0.0173629 0.00547443 0.999834)
(-0.0140187 0.00247189 0.999899)
(-0.0156543 0.00347045 0.999871)
(-0.0177738 0.00394036 0.999834)
(-0.0141812 0.00124071 0.999899)
(-0.0158976 0.00209298 0.999871)
(-0.0180495 0.00237632 0.999834)
(-0.0160196 0.000699429 0.999871)
(-0.018189 0.000794152 0.999834)
(-0.0176759 -0.00154645 0.999843)
(-0.0177435 -4.70967e-11 0.999843)
(-0.0244515 -0.00106758 0.9997)
(-0.0279484 -0.00122028 0.999609)
(-0.0174738 -0.00308109 0.999843)
(-0.0242651 -0.00319456 0.9997)
(-0.0277358 -0.00365153 0.999609)
(-0.0171385 -0.00459222 0.999843)
(-0.0238943 -0.00529719 0.9997)
(-0.0273117 -0.00605483 0.999609)
(-0.0166731 -0.0060685 0.999843)
(-0.0233413 -0.00735944 0.9997)
(-0.0266797 -0.00841201 0.999609)
(-0.0160809 -0.00749866 0.999843)
(-0.0226117 -0.00936608 0.9997)
(-0.0258453 -0.0107055 0.999609)
(-0.0153661 -0.00887163 0.999843)
(-0.0217093 -0.0113012 0.9997)
(-0.0248138 -0.0129173 0.999609)
(-0.0145343 -0.010177 0.999843)
(-0.0206416 -0.0131502 0.9997)
(-0.0235936 -0.0150308 0.999609)
(-0.0135923 -0.0114054 0.999843)
(-0.0194168 -0.0148991 0.9997)
(-0.0221937 -0.0170299 0.999609)
(-0.0125469 -0.0125469 0.999843)
(-0.0180449 -0.0165352 0.9997)
(-0.020626 -0.0189003 0.999609)
(-0.0114054 -0.0135923 0.999843)
(-0.0165352 -0.0180449 0.9997)
(-0.0189003 -0.020626 0.999609)
(-0.010177 -0.0145343 0.999843)
(-0.0148991 -0.0194168 0.9997)
(-0.0170299 -0.0221937 0.999609)
(-0.00887163 -0.0153661 0.999843)
(-0.0131502 -0.0206416 0.9997)
(-0.0150308 -0.0235936 0.999609)
(-0.00749866 -0.0160809 0.999843)
(-0.0113012 -0.0217093 0.9997)
(-0.0129173 -0.0248138 0.999609)
(-0.0060685 -0.0166731 0.999843)
(-0.00936608 -0.0226117 0.9997)
(-0.0107055 -0.0258453 0.999609)
(-0.00459222 -0.0171385 0.999843)
(-0.00735944 -0.0233413 0.9997)
(-0.00841201 -0.0266797 0.999609)
(-0.00308109 -0.0174738 0.999843)
(-0.00529719 -0.0238943 0.9997)
(-0.00605483 -0.0273117 0.999609)
(-0.00154645 -0.0176759 0.999843)
(-0.00319456 -0.0242651 0.9997)
(-0.00365153 -0.0277358 0.999609)
(-1.13208e-11 -0.0177435 0.999843)
(-0.00106758 -0.0244515 0.9997)
(-0.00122028 -0.0279484 0.999609)
(0.00154645 -0.0176759 0.999843)
(0.00106758 -0.0244515 0.9997)
(0.00122028 -0.0279484 0.999609)
(0.00308109 -0.0174738 0.999843)
(0.00319456 -0.0242651 0.9997)
(0.00365153 -0.0277358 0.999609)
(0.00459222 -0.0171385 0.999843)
(0.00529719 -0.0238943 0.9997)
(0.00605483 -0.0273117 0.999609)
(0.0060685 -0.0166731 0.999843)
(0.00735944 -0.0233413 0.9997)
(0.00841201 -0.0266797 0.999609)
(0.00749866 -0.0160809 0.999843)
(0.00936608 -0.0226117 0.9997)
(0.0107055 -0.0258453 0.999609)
(0.00887163 -0.0153661 0.999843)
(0.0113012 -0.0217093 0.9997)
(0.0129173 -0.0248138 0.999609)
(0.010177 -0.0145343 0.999843)
(0.0131502 -0.0206416 0.9997)
(0.0150308 -0.0235936 0.999609)
(0.0114054 -0.0135923 0.999843)
(0.0148991 -0.0194168 0.9997)
(0.0170299 -0.0221937 0.999609)
(0.0125469 -0.0125469 0.999843)
(0.0165352 -0.0180449 0.9997)
(0.0189003 -0.020626 0.999609)
(0.0135923 -0.0114054 0.999843)
(0.0180449 -0.0165352 0.9997)
(0.020626 -0.0189003 0.999609)
(0.0145343 -0.010177 0.999843)
(0.0194168 -0.0148991 0.9997)
(0.0221937 -0.0170299 0.999609)
(0.0153661 -0.00887163 0.999843)
(0.0206416 -0.0131502 0.9997)
(0.0235936 -0.0150308 0.999609)
(0.0160809 -0.00749866 0.999843)
(0.0217093 -0.0113012 0.9997)
(0.0248138 -0.0129173 0.999609)
(0.0166731 -0.0060685 0.999843)
(0.0226117 -0.00936608 0.9997)
(0.0258453 -0.0107055 0.999609)
(0.0171385 -0.00459222 0.999843)
(0.0233413 -0.00735944 0.9997)
(0.0266797 -0.00841201 0.999609)
(0.0174738 -0.00308109 0.999843)
(0.0238943 -0.00529719 0.9997)
(0.0273117 -0.00605483 0.999609)
(0.0176759 -0.00154645 0.999843)
(0.0242651 -0.00319456 0.9997)
(0.0277358 -0.00365153 0.999609)
(0.0177435 -1.24129e-16 0.999843)
(0.0244515 -0.00106758 0.9997)
(0.0279484 -0.00122028 0.999609)
(0.0176759 0.00154645 0.999843)
(0.0244515 0.00106758 0.9997)
(0.0279484 0.00122028 0.999609)
(0.0174738 0.00308109 0.999843)
(0.0242651 0.00319456 0.9997)
(0.0277358 0.00365153 0.999609)
(0.0171385 0.00459222 0.999843)
(0.0238943 0.00529719 0.9997)
(0.0273117 0.00605483 0.999609)
(0.0166731 0.0060685 0.999843)
(0.0233413 0.00735944 0.9997)
(0.0266797 0.00841201 0.999609)
(0.0160809 0.00749866 0.999843)
(0.0226117 0.00936608 0.9997)
(0.0258453 0.0107055 0.999609)
(0.0153661 0.00887163 0.999843)
(0.0217093 0.0113012 0.9997)
(0.0248138 0.0129173 0.999609)
(0.0145343 0.010177 0.999843)
(0.0206416 0.0131502 0.9997)
(0.0235936 0.0150308 0.999609)
(0.0135923 0.0114054 0.999843)
(0.0194168 0.0148991 0.9997)
(0.0221937 0.0170299 0.999609)
(0.0125469 0.0125469 0.999843)
(0.0180449 0.0165352 0.9997)
(0.020626 0.0189003 0.999609)
(0.0114054 0.0135923 0.999843)
(0.0165352 0.0180449 0.9997)
(0.0189003 0.020626 0.999609)
(0.010177 0.0145343 0.999843)
(0.0148991 0.0194168 0.9997)
(0.0170299 0.0221937 0.999609)
(0.00887163 0.0153661 0.999843)
(0.0131502 0.0206416 0.9997)
(0.0150308 0.0235936 0.999609)
(0.00749866 0.0160809 0.999843)
(0.0113012 0.0217093 0.9997)
(0.0129173 0.0248138 0.999609)
(0.0060685 0.0166731 0.999843)
(0.00936608 0.0226117 0.9997)
(0.0107055 0.0258453 0.999609)
(0.00459222 0.0171385 0.999843)
(0.00735944 0.0233413 0.9997)
(0.00841201 0.0266797 0.999609)
(0.00308109 0.0174738 0.999843)
(0.00529719 0.0238943 0.9997)
(0.00605483 0.0273117 0.999609)
(0.00154645 0.0176759 0.999843)
(0.00319456 0.0242651 0.9997)
(0.00365153 0.0277358 0.999609)
(-3.90341e-12 0.0177435 0.999843)
(0.00106758 0.0244515 0.9997)
(0.00122028 0.0279484 0.999609)
(-0.00154645 0.0176759 0.999843)
(-0.00106758 0.0244515 0.9997)
(-0.00122028 0.0279484 0.999609)
(-0.00308109 0.0174738 0.999843)
(-0.00319456 0.0242651 0.9997)
(-0.00365153 0.0277358 0.999609)
(-0.00459222 0.0171385 0.999843)
(-0.00529719 0.0238943 0.9997)
(-0.00605483 0.0273117 0.999609)
(-0.0060685 0.0166731 0.999843)
(-0.00735944 0.0233413 0.9997)
(-0.00841201 0.0266797 0.999609)
(-0.00749866 0.0160809 0.999843)
(-0.00936608 0.0226117 0.9997)
(-0.0107055 0.0258453 0.999609)
(-0.00887163 0.0153661 0.999843)
(-0.0113012 0.0217093 0.9997)
(-0.0129173 0.0248138 0.999609)
(-0.010177 0.0145343 0.999843)
(-0.0131502 0.0206416 0.9997)
(-0.0150308 0.0235936 0.999609)
(-0.0114054 0.0135923 0.999843)
(-0.0148991 0.0194168 0.9997)
(-0.0170299 0.0221937 0.999609)
(-0.0125469 0.0125469 0.999843)
(-0.0165352 0.0180449 0.9997)
(-0.0189003 0.020626 0.999609)
(-0.0135923 0.0114054 0.999843)
(-0.0180449 0.0165352 0.9997)
(-0.020626 0.0189003 0.999609)
(-0.0145343 0.010177 0.999843)
(-0.0194168 0.0148991 0.9997)
(-0.0221937 0.0170299 0.999609)
(-0.0153661 0.00887163 0.999843)
(-0.0206416 0.0131502 0.9997)
(-0.0235936 0.0150308 0.999609)
(-0.0160809 0.00749866 0.999843)
(-0.0217093 0.0113012 0.9997)
(-0.0248138 0.0129173 0.999609)
(-0.0166731 0.0060685 0.999843)
(-0.0226117 0.00936608 0.9997)
(-0.0258453 0.0107055 0.999609)
(-0.0171385 0.00459222 0.999843)
(-0.0233413 0.00735944 0.9997)
(-0.0266797 0.00841201 0.999609)
(-0.0174738 0.00308109 0.999843)
(-0.0238943 0.00529719 0.9997)
(-0.0273117 0.00605483 0.999609)
(-0.0176759 0.00154645 0.999843)
(-0.0242651 0.00319456 0.9997)
(-0.0277358 0.00365153 0.999609)
(-0.0244515 0.00106758 0.9997)
(-0.0279484 0.00122028 0.999609)
(-0.0298729 -0.00261354 0.99955)
(-0.0299872 2.86406e-13 0.99955)
(-0.0411434 -0.00179641 0.999152)
(-0.0295312 -0.0052071 0.99955)
(-0.0408301 -0.00537543 0.999152)
(-0.0289649 -0.00776104 0.99955)
(-0.0402058 -0.00891333 0.999152)
(-0.0281783 -0.0102561 0.99955)
(-0.0392756 -0.0123835 0.999152)
(-0.0271776 -0.0126732 0.99955)
(-0.0380473 -0.0157597 0.999152)
(-0.0259696 -0.0149936 0.99955)
(-0.0365293 -0.019016 0.999152)
(-0.0245639 -0.0171999 0.99955)
(-0.0347329 -0.0221273 0.999152)
(-0.0229714 -0.0192754 0.99955)
(-0.032672 -0.0250702 0.999152)
(-0.0212043 -0.0212043 0.99955)
(-0.0303632 -0.0278229 0.999152)
(-0.0192754 -0.0229714 0.99955)
(-0.0278229 -0.0303632 0.999152)
(-0.0171999 -0.0245639 0.99955)
(-0.0250702 -0.032672 0.999152)
(-0.0149936 -0.0259696 0.99955)
(-0.0221273 -0.0347329 0.999152)
(-0.0126732 -0.0271776 0.99955)
(-0.019016 -0.0365293 0.999152)
(-0.0102561 -0.0281783 0.99955)
(-0.0157597 -0.0380473 0.999152)
(-0.00776104 -0.0289649 0.99955)
(-0.0123835 -0.0392756 0.999152)
(-0.00520711 -0.0295312 0.99955)
(-0.00891333 -0.0402058 0.999152)
(-0.00261354 -0.0298729 0.99955)
(-0.00537543 -0.0408301 0.999152)
(-1.05175e-11 -0.0299872 0.99955)
(-0.00179641 -0.0411434 0.999152)
(0.00261354 -0.0298729 0.99955)
(0.00179641 -0.0411434 0.999152)
(0.00520711 -0.0295312 0.99955)
(0.00537543 -0.0408301 0.999152)
(0.00776104 -0.0289649 0.99955)
(0.00891333 -0.0402058 0.999152)
(0.0102561 -0.0281783 0.99955)
(0.0123835 -0.0392756 0.999152)
(0.0126732 -0.0271776 0.99955)
(0.0157597 -0.0380473 0.999152)
(0.0149936 -0.0259696 0.99955)
(0.019016 -0.0365293 0.999152)
(0.0171999 -0.0245639 0.99955)
(0.0221273 -0.0347329 0.999152)
(0.0192754 -0.0229714 0.99955)
(0.0250702 -0.032672 0.999152)
(0.0212043 -0.0212043 0.99955)
(0.0278229 -0.0303632 0.999152)
(0.0229714 -0.0192754 0.99955)
(0.0303632 -0.0278229 0.999152)
(0.0245639 -0.0171999 0.99955)
(0.032672 -0.0250702 0.999152)
(0.0259696 -0.0149936 0.99955)
(0.0347329 -0.0221273 0.999152)
(0.0271776 -0.0126732 0.99955)
(0.0365293 -0.019016 0.999152)
(0.0281783 -0.0102561 0.99955)
(0.0380473 -0.0157597 0.999152)
(0.0289649 -0.00776104 0.99955)
(0.0392756 -0.0123835 0.999152)
(0.0295312 -0.00520711 0.99955)
(0.0402058 -0.00891333 0.999152)
(0.0298729 -0.00261354 0.99955)
(0.0408301 -0.00537543 0.999152)
(0.0299872 -2.85261e-16 0.99955)
(0.0411434 -0.00179641 0.999152)
(0.0298729 0.00261354 0.99955)
(0.0411434 0.00179641 0.999152)
(0.0295312 0.00520711 0.99955)
(0.0408301 0.00537543 0.999152)
(0.0289649 0.00776104 0.99955)
(0.0402058 0.00891333 0.999152)
(0.0281783 0.0102561 0.99955)
(0.0392756 0.0123835 0.999152)
(0.0271776 0.0126732 0.99955)
(0.0380473 0.0157597 0.999152)
(0.0259696 0.0149936 0.99955)
(0.0365293 0.019016 0.999152)
(0.0245639 0.0171999 0.99955)
(0.0347329 0.0221273 0.999152)
(0.0229714 0.0192754 0.99955)
(0.032672 0.0250702 0.999152)
(0.0212043 0.0212043 0.99955)
(0.0303632 0.0278229 0.999152)
(0.0192754 0.0229714 0.99955)
(0.0278229 0.0303632 0.999152)
(0.0171999 0.0245639 0.99955)
(0.0250702 0.032672 0.999152)
(0.0149936 0.0259696 0.99955)
(0.0221273 0.0347329 0.999152)
(0.0126732 0.0271776 0.99955)
(0.019016 0.0365293 0.999152)
(0.0102561 0.0281783 0.99955)
(0.0157597 0.0380473 0.999152)
(0.00776104 0.0289649 0.99955)
(0.0123835 0.0392756 0.999152)
(0.00520711 0.0295312 0.99955)
(0.00891333 0.0402058 0.999152)
(0.00261354 0.0298729 0.99955)
(0.00537543 0.0408301 0.999152)
(-5.33909e-12 0.0299872 0.99955)
(0.00179641 0.0411434 0.999152)
(-0.00261354 0.0298729 0.99955)
(-0.00179641 0.0411434 0.999152)
(-0.00520711 0.0295312 0.99955)
(-0.00537543 0.0408301 0.999152)
(-0.00776104 0.0289649 0.99955)
(-0.00891333 0.0402058 0.999152)
(-0.0102561 0.0281783 0.99955)
(-0.0123835 0.0392756 0.999152)
(-0.0126732 0.0271776 0.99955)
(-0.0157597 0.0380473 0.999152)
(-0.0149936 0.0259696 0.99955)
(-0.019016 0.0365293 0.999152)
(-0.0171999 0.0245639 0.99955)
(-0.0221273 0.0347329 0.999152)
(-0.0192754 0.0229714 0.99955)
(-0.0250702 0.032672 0.999152)
(-0.0212043 0.0212043 0.99955)
(-0.0278229 0.0303632 0.999152)
(-0.0229714 0.0192754 0.99955)
(-0.0303632 0.0278229 0.999152)
(-0.0245639 0.0171999 0.99955)
(-0.032672 0.0250702 0.999152)
(-0.0259696 0.0149936 0.99955)
(-0.0347329 0.0221273 0.999152)
(-0.0271776 0.0126732 0.99955)
(-0.0365293 0.019016 0.999152)
(-0.0281783 0.0102561 0.99955)
(-0.0380473 0.0157597 0.999152)
(-0.0289649 0.00776104 0.99955)
(-0.0392756 0.0123835 0.999152)
(-0.0295312 0.00520711 0.99955)
(-0.0402058 0.00891333 0.999152)
(-0.0298729 0.00261354 0.99955)
(-0.0408301 0.00537543 0.999152)
(-0.0411434 0.00179641 0.999152)
(-0.0226389 -0.00198071 0.999742)
(-0.0227264 8.10326e-11 0.999742)
(-0.0310979 -0.00135779 0.999515)
(-0.0126589 -0.000552724 0.99992)
(-0.0223796 -0.00394617 0.999742)
(-0.0308604 -0.00406295 0.999515)
(-0.0125613 -0.00165376 0.99992)
(-0.021951 -0.00588172 0.999742)
(-0.0303891 -0.00673708 0.999515)
(-0.012371 -0.00274257 0.99992)
(-0.0213548 -0.00777247 0.999742)
(-0.029686 -0.00935986 0.999515)
(-0.0120846 -0.00381023 0.99992)
(-0.0205959 -0.00960405 0.999742)
(-0.0287573 -0.0119116 0.999515)
(-0.0117054 -0.00484852 0.99992)
(-0.0196804 -0.0113626 0.999742)
(-0.0276095 -0.0143727 0.999515)
(-0.0112392 -0.00585079 0.99992)
(-0.0186153 -0.0130346 0.999742)
(-0.0262519 -0.0167244 0.999515)
(-0.0106865 -0.00680807 0.99992)
(-0.0174089 -0.0146079 0.999742)
(-0.0246945 -0.0189488 0.999515)
(-0.0100526 -0.00771364 0.99992)
(-0.0160699 -0.0160699 0.999742)
(-0.02295 -0.0210298 0.999515)
(-0.0093425 -0.00856081 0.99992)
(-0.0146079 -0.0174089 0.999742)
(-0.0210298 -0.02295 0.999515)
(-0.00856081 -0.00934249 0.99992)
(-0.0130346 -0.0186153 0.999742)
(-0.0189488 -0.0246945 0.999515)
(-0.00771364 -0.0100526 0.99992)
(-0.0113626 -0.0196804 0.999742)
(-0.0167244 -0.0262519 0.999515)
(-0.00680807 -0.0106865 0.99992)
(-0.00960405 -0.0205959 0.999742)
(-0.0143727 -0.0276095 0.999515)
(-0.00585079 -0.0112392 0.99992)
(-0.00777246 -0.0213548 0.999742)
(-0.0119116 -0.0287573 0.999515)
(-0.00484851 -0.0117054 0.99992)
(-0.00588172 -0.021951 0.999742)
(-0.00935986 -0.029686 0.999515)
(-0.00381023 -0.0120846 0.99992)
(-0.00394617 -0.0223796 0.999742)
(-0.00673708 -0.0303891 0.999515)
(-0.00274257 -0.012371 0.99992)
(-0.00198071 -0.0226389 0.999742)
(-0.00406295 -0.0308604 0.999515)
(-0.00165376 -0.0125613 0.99992)
(-8.74504e-12 -0.0227264 0.999742)
(-0.0013578 -0.0310979 0.999515)
(-0.000552724 -0.0126589 0.99992)
(0.00198071 -0.0226389 0.999742)
(0.00135779 -0.0310979 0.999515)
(0.000552724 -0.0126589 0.99992)
(0.00394617 -0.0223796 0.999742)
(0.00406295 -0.0308604 0.999515)
(0.00165376 -0.0125613 0.99992)
(0.00588172 -0.021951 0.999742)
(0.00673708 -0.0303891 0.999515)
(0.00274257 -0.012371 0.99992)
(0.00777246 -0.0213548 0.999742)
(0.00935986 -0.029686 0.999515)
(0.00381023 -0.0120846 0.99992)
(0.00960405 -0.0205959 0.999742)
(0.0119116 -0.0287573 0.999515)
(0.00484851 -0.0117054 0.99992)
(0.0113626 -0.0196804 0.999742)
(0.0143727 -0.0276095 0.999515)
(0.00585079 -0.0112392 0.99992)
(0.0130346 -0.0186153 0.999742)
(0.0167244 -0.0262519 0.999515)
(0.00680807 -0.0106865 0.99992)
(0.0146079 -0.0174089 0.999742)
(0.0189488 -0.0246945 0.999515)
(0.00771364 -0.0100526 0.99992)
(0.0160699 -0.0160699 0.999742)
(0.0210298 -0.02295 0.999515)
(0.00856081 -0.00934249 0.99992)
(0.0174089 -0.0146079 0.999742)
(0.02295 -0.0210298 0.999515)
(0.00934249 -0.00856081 0.99992)
(0.0186153 -0.0130346 0.999742)
(0.0246945 -0.0189488 0.999515)
(0.0100526 -0.00771364 0.99992)
(0.0196804 -0.0113626 0.999742)
(0.0262519 -0.0167244 0.999515)
(0.0106865 -0.00680807 0.99992)
(0.0205959 -0.00960405 0.999742)
(0.0276095 -0.0143727 0.999515)
(0.0112392 -0.00585079 0.99992)
(0.0213548 -0.00777246 0.999742)
(0.0287573 -0.0119116 0.999515)
(0.0117054 -0.00484851 0.99992)
(0.021951 -0.00588172 0.999742)
(0.029686 -0.00935986 0.999515)
(0.0120846 -0.00381023 0.99992)
(0.0223796 -0.00394617 0.999742)
(0.0303891 -0.00673708 0.999515)
(0.012371 -0.00274257 0.99992)
(0.0226389 -0.00198071 0.999742)
(0.0308604 -0.00406295 0.999515)
(0.0125613 -0.00165376 0.99992)
(0.0227264 1.31559e-15 0.999742)
(0.0310979 -0.00135779 0.999515)
(0.0126589 -0.000552724 0.99992)
(0.0226389 0.00198071 0.999742)
(0.0310979 0.00135779 0.999515)
(0.0126589 0.000552724 0.99992)
(0.0223796 0.00394617 0.999742)
(0.0308604 0.00406295 0.999515)
(0.0125613 0.00165376 0.99992)
(0.021951 0.00588172 0.999742)
(0.0303891 0.00673708 0.999515)
(0.012371 0.00274257 0.99992)
(0.0213548 0.00777246 0.999742)
(0.029686 0.00935986 0.999515)
(0.0120846 0.00381023 0.99992)
(0.0205959 0.00960405 0.999742)
(0.0287573 0.0119116 0.999515)
(0.0117054 0.00484851 0.99992)
(0.0196804 0.0113626 0.999742)
(0.0276095 0.0143727 0.999515)
(0.0112392 0.00585079 0.99992)
(0.0186153 0.0130346 0.999742)
(0.0262519 0.0167244 0.999515)
(0.0106865 0.00680807 0.99992)
(0.0174089 0.0146079 0.999742)
(0.0246945 0.0189488 0.999515)
(0.0100526 0.00771364 0.99992)
(0.0160699 0.0160699 0.999742)
(0.02295 0.0210298 0.999515)
(0.00934249 0.00856081 0.99992)
(0.0146079 0.0174089 0.999742)
(0.0210298 0.02295 0.999515)
(0.00856081 0.00934249 0.99992)
(0.0130346 0.0186153 0.999742)
(0.0189488 0.0246945 0.999515)
(0.00771364 0.0100526 0.99992)
(0.0113626 0.0196804 0.999742)
(0.0167244 0.0262519 0.999515)
(0.00680807 0.0106865 0.99992)
(0.00960405 0.0205959 0.999742)
(0.0143727 0.0276095 0.999515)
(0.00585079 0.0112392 0.99992)
(0.00777246 0.0213548 0.999742)
(0.0119116 0.0287573 0.999515)
(0.00484851 0.0117054 0.99992)
(0.00588172 0.021951 0.999742)
(0.00935986 0.029686 0.999515)
(0.00381023 0.0120846 0.99992)
(0.00394617 0.0223796 0.999742)
(0.00673708 0.0303891 0.999515)
(0.00274257 0.012371 0.99992)
(0.00198071 0.0226389 0.999742)
(0.00406295 0.0308604 0.999515)
(0.00165376 0.0125613 0.99992)
(-2.91967e-12 0.0227264 0.999742)
(0.00135779 0.0310979 0.999515)
(0.000552724 0.0126589 0.99992)
(-0.00198071 0.0226389 0.999742)
(-0.00135779 0.0310979 0.999515)
(-0.000552724 0.0126589 0.99992)
(-0.00394617 0.0223796 0.999742)
(-0.00406295 0.0308604 0.999515)
(-0.00165376 0.0125613 0.99992)
(-0.00588172 0.021951 0.999742)
(-0.00673708 0.0303891 0.999515)
(-0.00274257 0.012371 0.99992)
(-0.00777246 0.0213548 0.999742)
(-0.00935986 0.029686 0.999515)
(-0.00381023 0.0120846 0.99992)
(-0.00960405 0.0205959 0.999742)
(-0.0119116 0.0287573 0.999515)
(-0.00484851 0.0117054 0.99992)
(-0.0113626 0.0196804 0.999742)
(-0.0143727 0.0276095 0.999515)
(-0.00585079 0.0112392 0.99992)
(-0.0130346 0.0186153 0.999742)
(-0.0167244 0.0262519 0.999515)
(-0.00680807 0.0106865 0.99992)
(-0.0146079 0.0174089 0.999742)
(-0.0189488 0.0246945 0.999515)
(-0.00771364 0.0100526 0.99992)
(-0.0160699 0.0160699 0.999742)
(-0.0210298 0.02295 0.999515)
(-0.00856081 0.00934249 0.99992)
(-0.0174089 0.0146079 0.999742)
(-0.02295 0.0210298 0.999515)
(-0.0093425 0.00856081 0.99992)
(-0.0186153 0.0130346 0.999742)
(-0.0246945 0.0189488 0.999515)
(-0.0100526 0.00771364 0.99992)
(-0.0196804 0.0113626 0.999742)
(-0.0262519 0.0167244 0.999515)
(-0.0106865 0.00680807 0.99992)
(-0.0205959 0.00960405 0.999742)
(-0.0276095 0.0143727 0.999515)
(-0.0112392 0.00585079 0.99992)
(-0.0213548 0.00777247 0.999742)
(-0.0287573 0.0119116 0.999515)
(-0.0117054 0.00484852 0.99992)
(-0.021951 0.00588172 0.999742)
(-0.029686 0.00935986 0.999515)
(-0.0120846 0.00381023 0.99992)
(-0.0223796 0.00394617 0.999742)
(-0.0303891 0.00673708 0.999515)
(-0.012371 0.00274257 0.99992)
(-0.0226389 0.00198071 0.999742)
(-0.0308604 0.00406295 0.999515)
(-0.0125613 0.00165376 0.99992)
(-0.0310979 0.0013578 0.999515)
(-0.0126589 0.000552724 0.99992)
(-0.037778 -0.00330521 0.999281)
(-0.0379222 -7.61791e-13 0.999281)
(-0.0456329 -0.00199245 0.998956)
(-0.0192048 -0.000838513 0.999815)
(-0.037346 -0.00658515 0.999281)
(-0.0452858 -0.00596209 0.998956)
(-0.0190588 -0.00250917 0.999815)
(-0.0366296 -0.0098148 0.999281)
(-0.044593 -0.009886 0.998956)
(-0.0187675 -0.00416066 0.999815)
(-0.0356346 -0.0129699 0.999281)
(-0.0435615 -0.0137348 0.998956)
(-0.0183329 -0.0057803 0.999815)
(-0.0343687 -0.0160264 0.999281)
(-0.0421988 -0.0174793 0.998956)
(-0.0177593 -0.00735611 0.999815)
(-0.0328412 -0.0189609 0.999281)
(-0.0405151 -0.0210909 0.998956)
(-0.0170509 -0.00887615 0.999815)
(-0.0310637 -0.0217511 0.999281)
(-0.0385228 -0.0245418 0.998956)
(-0.0162126 -0.0103286 0.999815)
(-0.0290503 -0.0243761 0.999281)
(-0.0362371 -0.0278058 0.998956)
(-0.0152508 -0.0117024 0.999815)
(-0.0268158 -0.0268158 0.999281)
(-0.0336767 -0.0308591 0.998956)
(-0.0141732 -0.0129873 0.999815)
(-0.0243761 -0.0290503 0.999281)
(-0.0308591 -0.0336767 0.998956)
(-0.0129873 -0.0141732 0.999815)
(-0.0217511 -0.0310637 0.999281)
(-0.0278058 -0.0362371 0.998956)
(-0.0117024 -0.0152508 0.999815)
(-0.0189609 -0.0328411 0.999281)
(-0.0245418 -0.0385228 0.998956)
(-0.0103286 -0.0162126 0.999815)
(-0.0160264 -0.0343687 0.999281)
(-0.0210909 -0.0405151 0.998956)
(-0.00887615 -0.0170509 0.999815)
(-0.0129699 -0.0356346 0.999281)
(-0.0174793 -0.0421988 0.998956)
(-0.00735611 -0.0177593 0.999815)
(-0.0098148 -0.0366296 0.999281)
(-0.0137348 -0.0435615 0.998956)
(-0.0057803 -0.0183329 0.999815)
(-0.00658515 -0.037346 0.999281)
(-0.009886 -0.044593 0.998956)
(-0.00416066 -0.0187675 0.999815)
(-0.00330521 -0.037778 0.999281)
(-0.00596209 -0.0452858 0.998956)
(-0.00250917 -0.0190588 0.999815)
(-2.5424e-11 -0.0379222 0.999281)
(-0.00199245 -0.0456329 0.998956)
(-0.000838513 -0.0192048 0.999815)
(0.00330521 -0.037778 0.999281)
(0.00199245 -0.0456329 0.998956)
(0.000838513 -0.0192048 0.999815)
(0.00658515 -0.037346 0.999281)
(0.00596209 -0.0452858 0.998956)
(0.00250917 -0.0190588 0.999815)
(0.0098148 -0.0366296 0.999281)
(0.009886 -0.044593 0.998956)
(0.00416066 -0.0187675 0.999815)
(0.0129699 -0.0356346 0.999281)
(0.0137348 -0.0435615 0.998956)
(0.0057803 -0.0183329 0.999815)
(0.0160264 -0.0343687 0.999281)
(0.0174793 -0.0421988 0.998956)
(0.00735611 -0.0177593 0.999815)
(0.0189609 -0.0328411 0.999281)
(0.0210909 -0.0405151 0.998956)
(0.00887615 -0.0170509 0.999815)
(0.0217511 -0.0310637 0.999281)
(0.0245418 -0.0385228 0.998956)
(0.0103286 -0.0162126 0.999815)
(0.0243761 -0.0290503 0.999281)
(0.0278058 -0.0362371 0.998956)
(0.0117024 -0.0152508 0.999815)
(0.0268158 -0.0268158 0.999281)
(0.0308591 -0.0336767 0.998956)
(0.0129873 -0.0141732 0.999815)
(0.0290503 -0.0243761 0.999281)
(0.0336767 -0.0308591 0.998956)
(0.0141732 -0.0129873 0.999815)
(0.0310637 -0.0217511 0.999281)
(0.0362371 -0.0278058 0.998956)
(0.0152508 -0.0117024 0.999815)
(0.0328411 -0.0189609 0.999281)
(0.0385228 -0.0245418 0.998956)
(0.0162126 -0.0103286 0.999815)
(0.0343687 -0.0160264 0.999281)
(0.0405151 -0.0210909 0.998956)
(0.0170509 -0.00887615 0.999815)
(0.0356346 -0.0129699 0.999281)
(0.0421988 -0.0174793 0.998956)
(0.0177593 -0.00735611 0.999815)
(0.0366296 -0.0098148 0.999281)
(0.0435615 -0.0137348 0.998956)
(0.0183329 -0.0057803 0.999815)
(0.037346 -0.00658515 0.999281)
(0.044593 -0.009886 0.998956)
(0.0187675 -0.00416066 0.999815)
(0.037778 -0.00330521 0.999281)
(0.0452858 -0.00596209 0.998956)
(0.0190588 -0.00250917 0.999815)
(0.0379222 5.2744e-15 0.999281)
(0.0456329 -0.00199245 0.998956)
(0.0192048 -0.000838513 0.999815)
(0.037778 0.00330521 0.999281)