/*--------------------------------*- C++ -*----------------------------------*\
| =========                 |                                                 |
| \\      /  F ield         | OpenFOAM: The Open Source CFD Toolbox           |
|  \\    /   O peration     | Version:  2312                                  |
|   \\  /    A nd           | Website:  www.openfoam.com                      |
|    \\/     M anipulation  |                                                 |
\*---------------------------------------------------------------------------*/
FoamFile
{
    version     2.0;
    format      ascii;
    arch        "LSB;label=32;scalar=64";
    class       volScalarField;
    location    "0";
    object      u;
}
// * * * * * * * * * * * * * * * * * * * * * * * * * * * * * * * * * * * * * //

dimensions      [0 0 0 0 0 0 0];

internalField   nonuniform List<scalar> 
3240
(
1.47396
1.4747
1.47617
1.47837
1.48127
1.48485
1.48908
1.49394
1.49938
1.50537
1.51185
1.51877
1.52609
1.53375
1.54169
1.54985
1.55816
1.56657
1.57502
1.58343
1.59174
1.5999
1.60784
1.6155
1.62282
1.62974
1.63622
1.64221
1.64765
1.65251
1.65674
1.66033
1.66323
1.66542
1.66689
1.66763
1.66763
1.66689
1.66542
1.66323
1.66033
1.65674
1.65251
1.64765
1.64221
1.63622
1.62974
1.62282
1.6155
1.60784
1.5999
1.59174
1.58343
1.57502
1.56657
1.55816
1.54985
1.54169
1.53375
1.52609
1.51877
1.51185
1.50537
1.49938
1.49394
1.48908
1.48485
1.48127
1.47837
1.47617
1.4747
1.47396
1.48243
1.48311
1.48445
1.48645
1.4891
1.49237
1.49623
1.50066
1.50563
1.51109
1.517
1.52332
1.53
1.53699
1.54423
1.55168
1.55927
1.56694
1.57465
1.58233
1.58992
1.59736
1.60461
1.61159
1.61827
1.62459
1.63051
1.63597
1.64093
1.64536
1.64923
1.65249
1.65514
1.65714
1.65848
1.65916
1.65916
1.65848
1.65714
1.65514
1.65249
1.64923
1.64536
1.64093
1.63597
1.63051
1.62459
1.61827
1.61159
1.60461
1.59736
1.58992
1.58233
1.57465
1.56694
1.55927
1.55168
1.54423
1.53699
1.53
1.52332
1.517
1.51109
1.50563
1.50066
1.49623
1.49237
1.4891
1.48645
1.48445
1.48311
1.48243
1.49102
1.49163
1.49284
1.49465
1.49704
1.49999
1.50347
1.50747
1.51195
1.51688
1.52222
1.52793
1.53396
1.54027
1.54681
1.55353
1.56038
1.56732
1.57428
1.58121
1.58806
1.59478
1.60133
1.60764
1.61367
1.61937
1.62471
1.62964
1.63412
1.63812
1.64161
1.64456
1.64694
1.64875
1.64996
1.65057
1.65057
1.64996
1.64875
1.64694
1.64456
1.64161
1.63812
1.63412
1.62964
1.62471
1.61937
1.61367
1.60764
1.60133
1.59478
1.58806
1.58121
1.57428
1.56732
1.56038
1.55353
1.54681
1.54027
1.53396
1.52793
1.52222
1.51688
1.51195
1.50747
1.50347
1.49999
1.49704
1.49465
1.49284
1.49163
1.49102
1.47258
1.47333
1.47482
1.47705
1.47999
1.48362
1.48792
1.49285
1.49837
1.50444
1.51101
1.51803
1.52546
1.53323
1.54128
1.54955
1.55798
1.56651
1.57508
1.58361
1.59204
1.60032
1.60837
1.61613
1.62356
1.63058
1.63716
1.64323
1.64874
1.65367
1.65797
1.6616
1.66454
1.66677
1.66826
1.66901
1.66901
1.66826
1.66677
1.66454
1.6616
1.65797
1.65367
1.64874
1.64323
1.63716
1.63058
1.62356
1.61613
1.60837
1.60032
1.59204
1.58361
1.57508
1.56651
1.55798
1.54955
1.54128
1.53323
1.52546
1.51803
1.51101
1.50444
1.49837
1.49285
1.48792
1.48362
1.47999
1.47705
1.47482
1.47333
1.47258
1.48097
1.48165
1.48302
1.48505
1.48774
1.49106
1.49499
1.4995
1.50454
1.51009
1.5161
1.52253
1.52932
1.53643
1.54379
1.55136
1.55908
1.56688
1.57471
1.58252
1.59023
1.5978
1.60517
1.61227
1.61906
1.62549
1.6315
1.63705
1.6421
1.6466
1.65053
1.65385
1.65654
1.65858
1.65994
1.66063
1.66063
1.65994
1.65858
1.65654
1.65385
1.65053
1.6466
1.6421
1.63705
1.6315
1.62549
1.61906
1.61227
1.60517
1.5978
1.59023
1.58252
1.57471
1.56688
1.55908
1.55136
1.54379
1.53643
1.52932
1.52253
1.5161
1.51009
1.50454
1.4995
1.49499
1.49106
1.48774
1.48505
1.48302
1.48165
1.48097
1.48945
1.49007
1.49131
1.49315
1.49559
1.49859
1.50215
1.50623
1.5108
1.51582
1.52127
1.52708
1.53323
1.53967
1.54634
1.55319
1.56018
1.56725
1.57434
1.58141
1.5884
1.59526
1.60193
1.60836
1.61451
1.62033
1.62577
1.6308
1.63536
1.63944
1.643
1.64601
1.64844
1.65028
1.65152
1.65214
1.65214
1.65152
1.65028
1.64844
1.64601
1.643
1.63944
1.63536
1.6308
1.62577
1.62033
1.61451
1.60836
1.60193
1.59526
1.5884
1.58141
1.57434
1.56725
1.56018
1.55319
1.54634
1.53967
1.53323
1.52708
1.52127
1.51582
1.5108
1.50623
1.50215
1.49859
1.49559
1.49315
1.49131
1.49007
1.48945
1.47202
1.47277
1.47427
1.47651
1.47947
1.48312
1.48745
1.4924
1.49795
1.50406
1.51067
1.51773
1.5252
1.53301
1.54111
1.54943
1.55791
1.56649
1.5751
1.58368
1.59216
1.60048
1.60858
1.61639
1.62386
1.63093
1.63754
1.64364
1.64919
1.65415
1.65847
1.66212
1.66508
1.66732
1.66882
1.66958
1.66958
1.66882
1.66732
1.66508
1.66212
1.65847
1.65415
1.64919
1.64364
1.63754
1.63093
1.62386
1.61639
1.60858
1.60048
1.59216
1.58368
1.5751
1.56649
1.55791
1.54943
1.54111
1.53301
1.5252
1.51773
1.51067
1.50406
1.49795
1.4924
1.48745
1.48312
1.47947
1.47651
1.47427
1.47277
1.47202
1.48042
1.48111
1.48248
1.48453
1.48724
1.49058
1.49453
1.49906
1.50414
1.50973
1.51577
1.52224
1.52907
1.53622
1.54363
1.55124
1.559
1.56686
1.57474
1.58259
1.59035
1.59797
1.60537
1.61252
1.61935
1.62582
1.63187
1.63745
1.64253
1.64706
1.65101
1.65436
1.65706
1.65911
1.66048
1.66117
1.66117
1.66048
1.65911
1.65706
1.65436
1.65101
1.64706
1.64253
1.63745
1.63187
1.62582
1.61935
1.61252
1.60537
1.59797
1.59035
1.58259
1.57474
1.56686
1.559
1.55124
1.54363
1.53622
1.52907
1.52224
1.51577
1.50973
1.50414
1.49906
1.49453
1.49058
1.48724
1.48453
1.48248
1.48111
1.48042
1.48888
1.48951
1.49075
1.49261
1.49506
1.49809
1.50167
1.50577
1.51038
1.51544
1.52092
1.52678
1.53297
1.53945
1.54617
1.55307
1.56011
1.56722
1.57437
1.58149
1.58852
1.59543
1.60214
1.60862
1.61482
1.62068
1.62616
1.63122
1.63582
1.63993
1.64351
1.64654
1.64899
1.65084
1.65209
1.65271
1.65271
1.65209
1.65084
1.64899
1.64654
1.64351
1.63993
1.63582
1.63122
1.62616
1.62068
1.61482
1.60862
1.60214
1.59543
1.58852
1.58149
1.57437
1.56722
1.56011
1.55307
1.54617
1.53945
1.53297
1.52678
1.52092
1.51544
1.51038
1.50577
1.50167
1.49809
1.49506
1.49261
1.49075
1.48951
1.48888
1.47241
1.47316
1.47466
1.47689
1.47983
1.48347
1.48778
1.49271
1.49824
1.50432
1.51091
1.51794
1.52538
1.53316
1.54123
1.54951
1.55796
1.56651
1.57509
1.58363
1.59208
1.60037
1.60843
1.61621
1.62365
1.63069
1.63727
1.64335
1.64888
1.65382
1.65812
1.66176
1.66471
1.66694
1.66843
1.66918
1.66918
1.66843
1.66694
1.66471
1.66176
1.65812
1.65382
1.64888
1.64335
1.63727
1.63069
1.62365
1.61621
1.60843
1.60037
1.59208
1.58363
1.57509
1.56651
1.55796
1.54951
1.54123
1.53316
1.52538
1.51794
1.51091
1.50432
1.49824
1.49271
1.48778
1.48347
1.47983
1.47689
1.47466
1.47316
1.47241
1.48082
1.4815
1.48287
1.48491
1.4876
1.49093
1.49487
1.49938
1.50443
1.50999
1.51601
1.52245
1.52925
1.53637
1.54375
1.55133
1.55906
1.56687
1.57472
1.58254
1.59026
1.59785
1.60522
1.61234
1.61914
1.62558
1.6316
1.63716
1.64221
1.64673
1.65066
1.65399
1.65668
1.65872
1.66009
1.66078
1.66078
1.66009
1.65872
1.65668
1.65399
1.65066
1.64673
1.64221
1.63716
1.6316
1.62558
1.61914
1.61234
1.60522
1.59785
1.59026
1.58254
1.57472
1.56687
1.55906
1.55133
1.54375
1.53637
1.52925
1.52245
1.51601
1.50999
1.50443
1.49938
1.49487
1.49093
1.4876
1.48491
1.48287
1.4815
1.48082
1.48925
1.48987
1.49111
1.49295
1.49539
1.49841
1.50197
1.50606
1.51064
1.51568
1.52114
1.52697
1.53314
1.53959
1.54628
1.55315
1.56015
1.56724
1.57435
1.58144
1.58845
1.59532
1.602
1.60845
1.61462
1.62045
1.62591
1.63095
1.63553
1.63962
1.64318
1.6462
1.64864
1.65049
1.65172
1.65235
1.65235
1.65172
1.65049
1.64864
1.6462
1.64318
1.63962
1.63553
1.63095
1.62591
1.62045
1.61462
1.60845
1.602
1.59532
1.58845
1.58144
1.57435
1.56724
1.56015
1.55315
1.54628
1.53959
1.53314
1.52697
1.52114
1.51568
1.51064
1.50606
1.50197
1.49841
1.49539
1.49295
1.49111
1.48987
1.48925
1.47377
1.47451
1.47599
1.47819
1.48109
1.48468
1.48893
1.49379
1.49925
1.50524
1.51173
1.51867
1.52601
1.53368
1.54163
1.54981
1.55814
1.56657
1.57503
1.58345
1.59178
1.59996
1.60791
1.61558
1.62292
1.62986
1.63635
1.64235
1.6478
1.65267
1.65691
1.6605
1.6634
1.6656
1.66708
1.66782
1.66782
1.66708
1.6656
1.6634
1.6605
1.65691
1.65267
1.6478
1.64235
1.63635
1.62986
1.62292
1.61558
1.60791
1.59996
1.59178
1.58345
1.57503
1.56657
1.55814
1.54981
1.54163
1.53368
1.52601
1.51867
1.51173
1.50524
1.49925
1.49379
1.48893
1.48468
1.48109
1.47819
1.47599
1.47451
1.47377
1.48214
1.48282
1.48417
1.48618
1.48883
1.49211
1.49598
1.50043
1.50541
1.51089
1.51682
1.52316
1.52986
1.53688
1.54414
1.55161
1.55923
1.56693
1.57466
1.58236
1.58998
1.59745
1.60472
1.61173
1.61843
1.62477
1.6307
1.63618
1.64116
1.64561
1.64949
1.65276
1.65542
1.65743
1.65877
1.65945
1.65945
1.65877
1.65743
1.65542
1.65276
1.64949
1.64561
1.64116
1.63618
1.6307
1.62477
1.61843
1.61173
1.60472
1.59745
1.58998
1.58236
1.57466
1.56693
1.55923
1.55161
1.54414
1.53688
1.52986
1.52316
1.51682
1.51089
1.50541
1.50043
1.49598
1.49211
1.48883
1.48618
1.48417
1.48282
1.48214
1.4905
1.49112
1.49234
1.49415
1.49656
1.49952
1.50303
1.50706
1.51157
1.51653
1.5219
1.52765
1.53372
1.54007
1.54665
1.55342
1.56032
1.56729
1.5743
1.58128
1.58817
1.59494
1.60152
1.60788
1.61395
1.61969
1.62506
1.63002
1.63453
1.63856
1.64207
1.64504
1.64744
1.64926
1.65048
1.65109
1.65109
1.65048
1.64926
1.64744
1.64504
1.64207
1.63856
1.63453
1.63002
1.62506
1.61969
1.61395
1.60788
1.60152
1.59494
1.58817
1.58128
1.5743
1.56729
1.56032
1.55342
1.54665
1.54007
1.53372
1.52765
1.5219
1.51653
1.51157
1.50706
1.50303
1.49952
1.49656
1.49415
1.49234
1.49112
1.4905
1.47613
1.47685
1.47829
1.48044
1.48327
1.48677
1.49091
1.49566
1.50098
1.50683
1.51317
1.51994
1.52709
1.53458
1.54234
1.55032
1.55845
1.56667
1.57492
1.58315
1.59128
1.59925
1.60701
1.6145
1.62166
1.62843
1.63476
1.64061
1.64593
1.65068
1.65482
1.65832
1.66116
1.6633
1.66474
1.66546
1.66546
1.66474
1.6633
1.66116
1.65832
1.65482
1.65068
1.64593
1.64061
1.63476
1.62843
1.62166
1.6145
1.60701
1.59925
1.59128
1.58315
1.57492
1.56667
1.55845
1.55032
1.54234
1.53458
1.52709
1.51994
1.51317
1.50683
1.50098
1.49566
1.49091
1.48677
1.48327
1.48044
1.47829
1.47685
1.47613
1.4844
1.48506
1.48637
1.48833
1.49092
1.49411
1.49789
1.50222
1.50707
1.51241
1.51819
1.52437
1.5309
1.53774
1.54482
1.5521
1.55952
1.56703
1.57456
1.58207
1.58949
1.59677
1.60386
1.61069
1.61722
1.6234
1.62918
1.63452
1.63937
1.64371
1.64748
1.65068
1.65326
1.65522
1.65653
1.65719
1.65719
1.65653
1.65522
1.65326
1.65068
1.64748
1.64371
1.63937
1.63452
1.62918
1.6234
1.61722
1.61069
1.60386
1.59677
1.58949
1.58207
1.57456
1.56703
1.55952
1.5521
1.54482
1.53774
1.5309
1.52437
1.51819
1.51241
1.50707
1.50222
1.49789
1.49411
1.49092
1.48833
1.48637
1.48506
1.4844
1.49263
1.49323
1.49442
1.49619
1.49852
1.50141
1.50483
1.50875
1.51314
1.51797
1.5232
1.52879
1.5347
1.54088
1.54729
1.55388
1.56059
1.56739
1.57421
1.581
1.58771
1.5943
1.60071
1.60689
1.6128
1.61839
1.62362
1.62845
1.63284
1.63676
1.64018
1.64307
1.64541
1.64718
1.64836
1.64896
1.64896
1.64836
1.64718
1.64541
1.64307
1.64018
1.63676
1.63284
1.62845
1.62362
1.61839
1.6128
1.60689
1.60071
1.5943
1.58771
1.581
1.57421
1.56739
1.56059
1.55388
1.54729
1.54088
1.5347
1.52879
1.5232
1.51797
1.51314
1.50875
1.50483
1.50141
1.49852
1.49619
1.49442
1.49323
1.49263
1.47952
1.48021
1.4816
1.48367
1.4864
1.48978
1.49377
1.49835
1.50348
1.50912
1.51522
1.52175
1.52865
1.53587
1.54336
1.55105
1.55889
1.56682
1.57478
1.58271
1.59055
1.59824
1.60572
1.61294
1.61984
1.62637
1.63248
1.63812
1.64325
1.64782
1.65182
1.65519
1.65792
1.65999
1.66138
1.66208
1.66208
1.66138
1.65999
1.65792
1.65519
1.65182
1.64782
1.64325
1.63812
1.63248
1.62637
1.61984
1.61294
1.60572
1.59824
1.59055
1.58271
1.57478
1.56682
1.55889
1.55105
1.54336
1.53587
1.52865
1.52175
1.51522
1.50912
1.50348
1.49835
1.49377
1.48978
1.4864
1.48367
1.4816
1.48021
1.47952
1.48761
1.48825
1.48951
1.49139
1.49388
1.49696
1.50059
1.50477
1.50944
1.51458
1.52014
1.52609
1.53238
1.53896
1.54578
1.55279
1.55994
1.56717
1.57442
1.58165
1.5888
1.59581
1.60263
1.60921
1.6155
1.62145
1.62701
1.63215
1.63683
1.641
1.64464
1.64771
1.6502
1.65208
1.65335
1.65398
1.65398
1.65335
1.65208
1.6502
1.64771
1.64464
1.641
1.63683
1.63215
1.62701
1.62145
1.6155
1.60921
1.60263
1.59581
1.5888
1.58165
1.57442
1.56717
1.55994
1.55279
1.54578
1.53896
1.53238
1.52609
1.52014
1.51458
1.50944
1.50477
1.50059
1.49696
1.49388
1.49139
1.48951
1.48825
1.48761
1.49563
1.4962
1.49734
1.49905
1.50129
1.50407
1.50736
1.51113
1.51535
1.51999
1.52502
1.5304
1.53608
1.54203
1.54819
1.55453
1.56098
1.56752
1.57408
1.58061
1.58707
1.5934
1.59957
1.60551
1.61119
1.61657
1.6216
1.62624
1.63047
1.63423
1.63752
1.6403
1.64255
1.64425
1.64539
1.64596
1.64596
1.64539
1.64425
1.64255
1.6403
1.63752
1.63423
1.63047
1.62624
1.6216
1.61657
1.61119
1.60551
1.59957
1.5934
1.58707
1.58061
1.57408
1.56752
1.56098
1.55453
1.54819
1.54203
1.53608
1.5304
1.52502
1.51999
1.51535
1.51113
1.50736
1.50407
1.50129
1.49905
1.49734
1.4962
1.49563
1.484
1.48466
1.48598
1.48795
1.49055
1.49376
1.49755
1.5019
1.50678
1.51214
1.51795
1.52416
1.53072
1.53759
1.5447
1.55202
1.55947
1.56701
1.57458
1.58212
1.58958
1.59689
1.60401
1.61087
1.61743
1.62364
1.62945
1.63481
1.63969
1.64404
1.64784
1.65105
1.65364
1.65561
1.65693
1.65759
1.65759
1.65693
1.65561
1.65364
1.65105
1.64784
1.64404
1.63969
1.63481
1.62945
1.62364
1.61743
1.61087
1.60401
1.59689
1.58958
1.58212
1.57458
1.56701
1.55947
1.55202
1.5447
1.53759
1.53072
1.52416
1.51795
1.51214
1.50678
1.5019
1.49755
1.49376
1.49055
1.48795
1.48598
1.48466
1.484
1.49182
1.49242
1.49362
1.49541
1.49777
1.50069
1.50415
1.50811
1.51254
1.51742
1.52271
1.52835
1.53433
1.54057
1.54705
1.5537
1.56049
1.56735
1.57424
1.5811
1.58789
1.59454
1.60102
1.60727
1.61324
1.61889
1.62417
1.62905
1.63349
1.63745
1.6409
1.64382
1.64618
1.64797
1.64917
1.64977
1.64977
1.64917
1.64797
1.64618
1.64382
1.6409
1.63745
1.63349
1.62905
1.62417
1.61889
1.61324
1.60727
1.60102
1.59454
1.58789
1.5811
1.57424
1.56735
1.56049
1.5537
1.54705
1.54057
1.53433
1.52835
1.52271
1.51742
1.51254
1.50811
1.50415
1.50069
1.49777
1.49541
1.49362
1.49242
1.49182
1.49952
1.50007
1.50115
1.50276
1.50489
1.50753
1.51064
1.51422
1.51822
1.52262
1.52739
1.53249
1.53788
1.54352
1.54936
1.55537
1.56149
1.56769
1.57391
1.5801
1.58622
1.59223
1.59808
1.60372
1.6091
1.6142
1.61897
1.62337
1.62738
1.63095
1.63407
1.6367
1.63883
1.64044
1.64153
1.64207
1.64207
1.64153
1.64044
1.63883
1.6367
1.63407
1.63095
1.62738
1.62337
1.61897
1.6142
1.6091
1.60372
1.59808
1.59223
1.58622
1.5801
1.57391
1.56769
1.56149
1.55537
1.54936
1.54352
1.53788
1.53249
1.52739
1.52262
1.51822
1.51422
1.51064
1.50753
1.50489
1.50276
1.50115
1.50007
1.49952
1.48969
1.4903
1.49154
1.49337
1.4958
1.4988
1.50234
1.50641
1.51097
1.51598
1.52141
1.52721
1.53334
1.53976
1.54641
1.55324
1.56021
1.56726
1.57433
1.58138
1.58835
1.59519
1.60184
1.60825
1.61438
1.62019
1.62561
1.63062
1.63518
1.63925
1.64279
1.64579
1.64822
1.65006
1.65129
1.65191
1.65191
1.65129
1.65006
1.64822
1.64579
1.64279
1.63925
1.63518
1.63062
1.62561
1.62019
1.61438
1.60825
1.60184
1.59519
1.58835
1.58138
1.57433
1.56726
1.56021
1.55324
1.54641
1.53976
1.53334
1.52721
1.52141
1.51598
1.51097
1.50641
1.50234
1.4988
1.4958
1.49337
1.49154
1.4903
1.48969
1.49711
1.49767
1.49879
1.50046
1.50266
1.50539
1.50861
1.5123
1.51644
1.52099
1.52592
1.53119
1.53676
1.54259
1.54864
1.55485
1.56118
1.56758
1.57401
1.58041
1.58675
1.59296
1.599
1.60483
1.6104
1.61567
1.6206
1.62515
1.62929
1.63298
1.63621
1.63893
1.64113
1.6428
1.64392
1.64448
1.64448
1.64392
1.6428
1.64113
1.63893
1.63621
1.63298
1.62929
1.62515
1.6206
1.61567
1.6104
1.60483
1.599
1.59296
1.58675
1.58041
1.57401
1.56758
1.56118
1.55485
1.54864
1.54259
1.53676
1.53119
1.52592
1.52099
1.51644
1.5123
1.50861
1.50539
1.50266
1.50046
1.49879
1.49767
1.49711
1.50437
1.50487
1.50588
1.50738
1.50937
1.51182
1.51473
1.51806
1.52179
1.52589
1.53034
1.53509
1.54011
1.54537
1.55081
1.55641
1.56212
1.5679
1.57369
1.57947
1.58518
1.59078
1.59623
1.60148
1.6065
1.61126
1.6157
1.6198
1.62354
1.62686
1.62977
1.63222
1.63421
1.63571
1.63672
1.63723
1.63723
1.63672
1.63571
1.63421
1.63222
1.62977
1.62686
1.62354
1.6198
1.6157
1.61126
1.6065
1.60148
1.59623
1.59078
1.58518
1.57947
1.57369
1.5679
1.56212
1.55641
1.55081
1.54537
1.54011
1.53509
1.53034
1.52589
1.52179
1.51806
1.51473
1.51182
1.50937
1.50738
1.50588
1.50487
1.50437
1.49671
1.49728
1.4984
1.50008
1.50229
1.50503
1.50827
1.51198
1.51615
1.52072
1.52568
1.53098
1.53658
1.54244
1.54852
1.55476
1.56113
1.56756
1.57403
1.58047
1.58683
1.59308
1.59915
1.60501
1.61061
1.61591
1.62087
1.62545
1.62961
1.63332
1.63656
1.6393
1.64151
1.64319
1.64432
1.64488
1.64488
1.64432
1.64319
1.64151
1.6393
1.63656
1.63332
1.62961
1.62545
1.62087
1.61591
1.61061
1.60501
1.59915
1.59308
1.58683
1.58047
1.57403
1.56756
1.56113
1.55476
1.54852
1.54244
1.53658
1.53098
1.52568
1.52072
1.51615
1.51198
1.50827
1.50503
1.50229
1.50008
1.4984
1.49728
1.49671
1.50359
1.50411
1.50513
1.50665
1.50866
1.51114
1.51408
1.51744
1.52122
1.52537
1.52987
1.53467
1.53975
1.54507
1.55058
1.55625
1.56202
1.56786
1.57373
1.57957
1.58535
1.59101
1.59652
1.60184
1.60692
1.61173
1.61622
1.62037
1.62415
1.62752
1.63045
1.63294
1.63495
1.63647
1.63749
1.638
1.638
1.63749
1.63647
1.63495
1.63294
1.63045
1.62752
1.62415
1.62037
1.61622
1.61173
1.60692
1.60184
1.59652
1.59101
1.58535
1.57957
1.57373
1.56786
1.56202
1.55625
1.55058
1.54507
1.53975
1.53467
1.52987
1.52537
1.52122
1.51744
1.51408
1.51114
1.50866
1.50665
1.50513
1.50411
1.50359
1.51025
1.51071
1.51163
1.513
1.51481
1.51704
1.51969
1.52272
1.52612
1.52986
1.53391
1.53825
1.54282
1.54761
1.55258
1.55769
1.56289
1.56815
1.57344
1.5787
1.58391
1.58901
1.59398
1.59877
1.60335
1.60768
1.61173
1.61547
1.61887
1.6219
1.62455
1.62679
1.6286
1.62997
1.63089
1.63135
1.63135
1.63089
1.62997
1.6286
1.62679
1.62455
1.6219
1.61887
1.61547
1.61173
1.60768
1.60335
1.59877
1.59398
1.58901
1.58391
1.5787
1.57344
1.56815
1.56289
1.55769
1.55258
1.54761
1.54282
1.53825
1.53391
1.52986
1.52612
1.52272
1.51969
1.51704
1.51481
1.513
1.51163
1.51071
1.51025
1.50528
1.50578
1.50677
1.50826
1.51022
1.51264
1.5155
1.51878
1.52246
1.52651
1.53089
1.53558
1.54053
1.54572
1.55109
1.55661
1.56224
1.56794
1.57365
1.57935
1.58498
1.5905
1.59588
1.60106
1.60601
1.6107
1.61508
1.61913
1.62281
1.62609
1.62896
1.63138
1.63334
1.63482
1.63581
1.63631
1.63631
1.63581
1.63482
1.63334
1.63138
1.62896
1.62609
1.62281
1.61913
1.61508
1.6107
1.60601
1.60106
1.59588
1.5905
1.58498
1.57935
1.57365
1.56794
1.56224
1.55661
1.55109
1.54572
1.54053
1.53558
1.53089
1.52651
1.52246
1.51878
1.5155
1.51264
1.51022
1.50826
1.50677
1.50578
1.50528
1.51143
1.51188
1.51278
1.51412
1.5159
1.51809
1.52069
1.52366
1.52699
1.53066
1.53463
1.53888
1.54337
1.54807
1.55294
1.55794
1.56304
1.56821
1.57339
1.57855
1.58365
1.58866
1.59353
1.59822
1.60271
1.60696
1.61093
1.6146
1.61793
1.62091
1.6235
1.62569
1.62747
1.62881
1.62971
1.63017
1.63017
1.62971
1.62881
1.62747
1.62569
1.6235
1.62091
1.61793
1.6146
1.61093
1.60696
1.60271
1.59822
1.59353
1.58866
1.58365
1.57855
1.57339
1.56821
1.56304
1.55794
1.55294
1.54807
1.54337
1.53888
1.53463
1.53066
1.52699
1.52366
1.52069
1.51809
1.5159
1.51412
1.51278
1.51188
1.51143
1.5173
1.51771
1.51852
1.51973
1.52133
1.52331
1.52564
1.52832
1.53133
1.53463
1.53821
1.54204
1.54608
1.55031
1.5547
1.55921
1.56381
1.56846
1.57313
1.57778
1.58238
1.58689
1.59128
1.59551
1.59956
1.60338
1.60696
1.61027
1.61327
1.61595
1.61829
1.62026
1.62186
1.62307
1.62388
1.62429
1.62429
1.62388
1.62307
1.62186
1.62026
1.61829
1.61595
1.61327
1.61027
1.60696
1.60338
1.59956
1.59551
1.59128
1.58689
1.58238
1.57778
1.57313
1.56846
1.56381
1.55921
1.5547
1.55031
1.54608
1.54204
1.53821
1.53463
1.53133
1.52832
1.52564
1.52331
1.52133
1.51973
1.51852
1.51771
1.5173
1.51566
1.51608
1.51692
1.51817
1.51981
1.52185
1.52426
1.52702
1.53012
1.53352
1.53721
1.54115
1.54532
1.54969
1.55421
1.55886
1.5636
1.56839
1.5732
1.578
1.58274
1.58738
1.59191
1.59627
1.60044
1.60438
1.60807
1.61148
1.61457
1.61733
1.61974
1.62178
1.62343
1.62467
1.62551
1.62593
1.62593
1.62551
1.62467
1.62343
1.62178
1.61974
1.61733
1.61457
1.61148
1.60807
1.60438
1.60044
1.59627
1.59191
1.58738
1.58274
1.578
1.5732
1.56839
1.5636
1.55886
1.55421
1.54969
1.54532
1.54115
1.53721
1.53352
1.53012
1.52702
1.52426
1.52185
1.51981
1.51817
1.51692
1.51608
1.51566
1.52084
1.52122
1.52198
1.52311
1.5246
1.52644
1.52863
1.53113
1.53393
1.53702
1.54036
1.54394
1.54771
1.55167
1.55576
1.55998
1.56427
1.56862
1.57298
1.57732
1.58162
1.58583
1.58993
1.59388
1.59766
1.60123
1.60457
1.60766
1.61046
1.61297
1.61515
1.61699
1.61849
1.61962
1.62037
1.62076
1.62076
1.62037
1.61962
1.61849
1.61699
1.61515
1.61297
1.61046
1.60766
1.60457
1.60123
1.59766
1.59388
1.58993
1.58583
1.58162
1.57732
1.57298
1.56862
1.56427
1.55998
1.55576
1.55167
1.54771
1.54394
1.54036
1.53702
1.53393
1.53113
1.52863
1.52644
1.5246
1.52311
1.52198
1.52122
1.52084
1.52574
1.52608
1.52677
1.52779
1.52913
1.5308
1.53276
1.53502
1.53755
1.54033
1.54335
1.54657
1.54998
1.55354
1.55724
1.56104
1.56491
1.56883
1.57276
1.57668
1.58055
1.58435
1.58805
1.59162
1.59502
1.59825
1.60126
1.60404
1.60657
1.60883
1.6108
1.61246
1.61381
1.61483
1.61551
1.61585
1.61585
1.61551
1.61483
1.61381
1.61246
1.6108
1.60883
1.60657
1.60404
1.60126
1.59825
1.59502
1.59162
1.58805
1.58435
1.58055
1.57668
1.57276
1.56883
1.56491
1.56104
1.55724
1.55354
1.54998
1.54657
1.54335
1.54033
1.53755
1.53502
1.53276
1.5308
1.52913
1.52779
1.52677
1.52608
1.52574
1.52817
1.5285
1.52914
1.53011
1.53138
1.53295
1.53482
1.53695
1.53934
1.54198
1.54483
1.54788
1.5511
1.55447
1.55797
1.56156
1.56523
1.56894
1.57266
1.57636
1.58003
1.58362
1.58712
1.59049
1.59372
1.59676
1.59962
1.60225
1.60464
1.60678
1.60864
1.61021
1.61149
1.61245
1.6131
1.61342
1.61342
1.6131
1.61245
1.61149
1.61021
1.60864
1.60678
1.60464
1.60225
1.59962
1.59676
1.59372
1.59049
1.58712
1.58362
1.58003
1.57636
1.57266
1.56894
1.56523
1.56156
1.55797
1.55447
1.5511
1.54788
1.54483
1.54198
1.53934
1.53695
1.53482
1.53295
1.53138
1.53011
1.52914
1.5285
1.52817
1.53212
1.53241
1.533
1.53387
1.53503
1.53645
1.53814
1.54008
1.54225
1.54464
1.54723
1.55
1.55292
1.55598
1.55916
1.56242
1.56574
1.56911
1.57248
1.57585
1.57917
1.58244
1.58561
1.58867
1.5916
1.59436
1.59695
1.59934
1.60151
1.60345
1.60514
1.60657
1.60772
1.6086
1.60918
1.60948
1.60948
1.60918
1.6086
1.60772
1.60657
1.60514
1.60345
1.60151
1.59934
1.59695
1.59436
1.5916
1.58867
1.58561
1.58244
1.57917
1.57585
1.57248
1.56911
1.56574
1.56242
1.55916
1.55598
1.55292
1.55
1.54723
1.54464
1.54225
1.54008
1.53814
1.53645
1.53503
1.53387
1.533
1.53241
1.53212
1.53584
1.53611
1.53664
1.53743
1.53847
1.53976
1.54129
1.54304
1.545
1.54716
1.5495
1.552
1.55464
1.55741
1.56028
1.56322
1.56623
1.56927
1.57232
1.57536
1.57837
1.58132
1.58418
1.58695
1.58959
1.59209
1.59443
1.59659
1.59855
1.6003
1.60183
1.60312
1.60416
1.60496
1.60549
1.60575
1.60575
1.60549
1.60496
1.60416
1.60312
1.60183
1.6003
1.59855
1.59659
1.59443
1.59209
1.58959
1.58695
1.58418
1.58132
1.57837
1.57536
1.57232
1.56927
1.56623
1.56322
1.56028
1.55741
1.55464
1.552
1.5495
1.54716
1.545
1.54304
1.54129
1.53976
1.53847
1.53743
1.53664
1.53611
1.53584
1.54296
1.54317
1.54359
1.54422
1.54505
1.54608
1.5473
1.54869
1.55025
1.55197
1.55383
1.55583
1.55793
1.56013
1.56242
1.56477
1.56716
1.56958
1.57201
1.57443
1.57683
1.57917
1.58146
1.58366
1.58577
1.58776
1.58962
1.59134
1.5929
1.5943
1.59551
1.59654
1.59737
1.598
1.59842
1.59864
1.59864
1.59842
1.598
1.59737
1.59654
1.59551
1.5943
1.5929
1.59134
1.58962
1.58776
1.58577
1.58366
1.58146
1.57917
1.57683
1.57443
1.57201
1.56958
1.56716
1.56477
1.56242
1.56013
1.55793
1.55583
1.55383
1.55197
1.55025
1.54869
1.5473
1.54608
1.54505
1.54422
1.54359
1.54317
1.54296
1.54546
1.54565
1.54603
1.54661
1.54736
1.5483
1.5494
1.55067
1.5521
1.55366
1.55536
1.55717
1.55909
1.56109
1.56317
1.56531
1.56749
1.56969
1.5719
1.57411
1.57629
1.57842
1.5805
1.58251
1.58442
1.58624
1.58793
1.5895
1.59092
1.59219
1.59329
1.59423
1.59499
1.59556
1.59594
1.59614
1.59614
1.59594
1.59556
1.59499
1.59423
1.59329
1.59219
1.59092
1.5895
1.58793
1.58624
1.58442
1.58251
1.5805
1.57842
1.57629
1.57411
1.5719
1.56969
1.56749
1.56531
1.56317
1.56109
1.55909
1.55717
1.55536
1.55366
1.5521
1.55067
1.5494
1.5483
1.54736
1.54661
1.54603
1.54565
1.54546
1.54783
1.54801
1.54836
1.54888
1.54956
1.55041
1.55141
1.55256
1.55385
1.55527
1.5568
1.55845
1.56018
1.562
1.56389
1.56582
1.5678
1.56979
1.5718
1.5738
1.57577
1.57771
1.57959
1.58141
1.58315
1.58479
1.58632
1.58774
1.58903
1.59018
1.59118
1.59203
1.59272
1.59324
1.59358
1.59376
1.59376
1.59358
1.59324
1.59272
1.59203
1.59118
1.59018
1.58903
1.58774
1.58632
1.58479
1.58315
1.58141
1.57959
1.57771
1.57577
1.5738
1.5718
1.56979
1.5678
1.56582
1.56389
1.562
1.56018
1.55845
1.5568
1.55527
1.55385
1.55256
1.55141
1.55041
1.54956
1.54888
1.54836
1.54801
1.54783
1.54826
1.54844
1.54878
1.54929
1.54997
1.5508
1.55179
1.55292
1.55418
1.55557
1.55708
1.55869
1.5604
1.56218
1.56403
1.56592
1.56786
1.56981
-1.56981
-1.56786
-1.56592
-1.56403
-1.56218
-1.5604
-1.55869
-1.55708
-1.55557
-1.55418
-1.55292
-1.55179
-1.5508
-1.54997
-1.54929
-1.54878
-1.54844
-1.54826
-1.54826
-1.54844
-1.54878
-1.54929
-1.54997
-1.5508
-1.55179
-1.55292
-1.55418
-1.55557
-1.55708
-1.55869
-1.5604
-1.56218
-1.56403
-1.56592
-1.56786
-1.56981
1.56981
1.56786
1.56592
1.56403
1.56218
1.5604
1.55869
1.55708
1.55557
1.55418
1.55292
1.55179
1.5508
1.54997
1.54929
1.54878
1.54844
1.54826
1.55944
1.55953
1.5597
1.55995
1.56029
1.56071
1.56121
1.56178
1.56242
1.56312
1.56388
1.56469
1.56555
1.56645
1.56738
1.56834
1.56931
1.5703
1.57129
1.57228
1.57326
1.57421
1.57515
1.57605
1.5769
1.57772
1.57848
1.57918
1.57981
1.58038
1.58088
1.5813
1.58164
1.58189
1.58207
1.58215
1.58215
1.58207
1.58189
1.58164
1.5813
1.58088
1.58038
1.57981
1.57918
1.57848
1.57772
1.5769
1.57605
1.57515
1.57421
1.57326
1.57228
1.57129
1.5703
1.56931
1.56834
1.56738
1.56645
1.56555
1.56469
1.56388
1.56312
1.56242
1.56178
1.56121
1.56071
1.56029
1.55995
1.5597
1.55953
1.55944
1.56048
1.56055
1.56071
1.56094
1.56125
1.56163
1.56208
1.5626
1.56318
1.56382
1.56451
1.56525
1.56603
1.56684
1.56769
1.56856
1.56945
1.57035
1.57125
1.57214
1.57303
1.5739
1.57475
1.57557
1.57635
1.57708
1.57778
1.57841
1.57899
1.57951
1.57996
1.58034
1.58065
1.58088
1.58104
1.58112
1.58112
1.58104
1.58088
1.58065
1.58034
1.57996
1.57951
1.57899
1.57841
1.57778
1.57708
1.57635
1.57557
1.57475
1.5739
1.57303
1.57214
1.57125
1.57035
1.56945
1.56856
1.56769
1.56684
1.56603
1.56525
1.56451
1.56382
1.56318
1.5626
1.56208
1.56163
1.56125
1.56094
1.56071
1.56055
1.56048
)
;

boundaryField
{
    fixed
    {
        type            calculated;
        value           uniform 0;
    }
    inside
    {
        type            calculated;
        value           uniform 0;
    }
    outside
    {
        type            calculated;
        value           uniform 0;
    }
}


// ************************************************************************* //
