/*--------------------------------*- C++ -*----------------------------------*\
| =========                 |                                                 |
| \\      /  F ield         | OpenFOAM: The Open Source CFD Toolbox           |
|  \\    /   O peration     | Version:  2312                                  |
|   \\  /    A nd           | Website:  www.openfoam.com                      |
|    \\/     M anipulation  |                                                 |
\*---------------------------------------------------------------------------*/
FoamFile
{
    version     2.0;
    format      ascii;
    arch        "LSB;label=32;scalar=64";
    class       volScalarField;
    location    "0";
    object      v;
}
// * * * * * * * * * * * * * * * * * * * * * * * * * * * * * * * * * * * * * //

dimensions      [0 0 0 0 0 0 0];

internalField   nonuniform List<scalar> 
3240
(
1.55864
1.53441
1.51044
1.48691
1.46399
1.44185
1.42066
1.40057
1.38175
1.36434
1.34847
1.33428
1.32189
1.31139
1.30288
1.29643
1.2921
1.28993
1.28993
1.2921
1.29643
1.30288
1.31139
1.32189
1.33428
1.34847
1.36434
1.38175
1.40057
1.42066
1.44185
1.46399
1.48691
1.51044
1.53441
1.55864
1.58296
1.60719
1.63115
1.65468
1.6776
1.69974
1.72093
1.74102
1.75984
1.77726
1.79312
1.80731
1.81971
1.8302
1.83871
1.84516
1.84949
1.85166
1.85166
1.84949
1.84516
1.83871
1.8302
1.81971
1.80731
1.79312
1.77726
1.75984
1.74102
1.72093
1.69974
1.6776
1.65468
1.63115
1.60719
1.58296
1.55888
1.53512
1.51163
1.48856
1.46609
1.44439
1.42361
1.40391
1.38545
1.36838
1.35282
1.3389
1.32674
1.31644
1.3081
1.30177
1.29753
1.29539
1.29539
1.29753
1.30177
1.3081
1.31644
1.32674
1.3389
1.35282
1.36838
1.38545
1.40391
1.42361
1.44439
1.46609
1.48856
1.51163
1.53512
1.55888
1.58272
1.60647
1.62996
1.65303
1.6755
1.69721
1.71798
1.73768
1.75614
1.77322
1.78878
1.80269
1.81485
1.82515
1.83349
1.83982
1.84407
1.8462
1.8462
1.84407
1.83982
1.83349
1.82515
1.81485
1.80269
1.78878
1.77322
1.75614
1.73768
1.71798
1.69721
1.6755
1.65303
1.62996
1.60647
1.58272
1.55899
1.53545
1.51217
1.48932
1.46705
1.44554
1.42495
1.40543
1.38713
1.37019
1.35476
1.34096
1.3289
1.31869
1.31041
1.30413
1.29992
1.2978
1.2978
1.29992
1.30413
1.31041
1.31869
1.3289
1.34096
1.35476
1.37019
1.38713
1.40543
1.42495
1.44554
1.46705
1.48932
1.51217
1.53545
1.55899
1.58261
1.60614
1.62942
1.65227
1.67454
1.69605
1.71664
1.73617
1.75447
1.7714
1.78683
1.80063
1.81269
1.8229
1.83119
1.83746
1.84168
1.84379
1.84379
1.84168
1.83746
1.83119
1.8229
1.81269
1.80063
1.78683
1.7714
1.75447
1.73617
1.71664
1.69605
1.67454
1.65227
1.62942
1.60614
1.58261
1.55853
1.53409
1.50992
1.48619
1.46307
1.44074
1.41936
1.3991
1.38011
1.36255
1.34654
1.33223
1.31972
1.30913
1.30055
1.29404
1.28967
1.28748
1.28748
1.28967
1.29404
1.30055
1.30913
1.31972
1.33223
1.34654
1.36255
1.38011
1.3991
1.41936
1.44074
1.46307
1.48619
1.50992
1.53409
1.55853
1.58306
1.6075
1.63167
1.65541
1.67852
1.70085
1.72223
1.74249
1.76148
1.77905
1.79505
1.80937
1.82187
1.83246
1.84105
1.84755
1.85192
1.85411
1.85411
1.85192
1.84755
1.84105
1.83246
1.82187
1.80937
1.79505
1.77905
1.76148
1.74249
1.72223
1.70085
1.67852
1.65541
1.63167
1.6075
1.58306
1.55872
1.53466
1.51086
1.48749
1.46473
1.44274
1.42168
1.40173
1.38302
1.36572
1.34995
1.33584
1.32352
1.31309
1.30463
1.29822
1.29391
1.29175
1.29175
1.29391
1.29822
1.30463
1.31309
1.32352
1.33584
1.34995
1.36572
1.38302
1.40173
1.42168
1.44274
1.46473
1.48749
1.51086
1.53466
1.55872
1.58287
1.60693
1.63074
1.6541
1.67687
1.69886
1.71991
1.73986
1.75857
1.77587
1.79164
1.80575
1.81807
1.82851
1.83697
1.84338
1.84768
1.84985
1.84985
1.84768
1.84338
1.83697
1.82851
1.81807
1.80575
1.79164
1.77587
1.75857
1.73986
1.71991
1.69886
1.67687
1.6541
1.63074
1.60693
1.58287
1.55877
1.53481
1.51111
1.48783
1.46516
1.44325
1.42228
1.40239
1.38375
1.3665
1.35078
1.33672
1.32443
1.31402
1.30558
1.29919
1.29489
1.29273
1.29273
1.29489
1.29919
1.30558
1.31402
1.32443
1.33672
1.35078
1.3665
1.38375
1.40239
1.42228
1.44325
1.46516
1.48783
1.51111
1.53481
1.55877
1.58282
1.60678
1.63049
1.65376
1.67643
1.69834
1.71931
1.7392
1.75784
1.77509
1.79081
1.80487
1.81716
1.82757
1.83601
1.8424
1.8467
1.84886
1.84886
1.8467
1.8424
1.83601
1.82757
1.81716
1.80487
1.79081
1.77509
1.75784
1.7392
1.71931
1.69834
1.67643
1.65376
1.63049
1.60678
1.58282
1.55846
1.53388
1.50957
1.4857
1.46245
1.43999
1.41849
1.39811
1.37901
1.36134
1.34524
1.33084
1.31826
1.30761
1.29897
1.29243
1.28803
1.28583
1.28583
1.28803
1.29243
1.29897
1.30761
1.31826
1.33084
1.34524
1.36134
1.37901
1.39811
1.41849
1.43999
1.46245
1.4857
1.50957
1.53388
1.55846
1.58313
1.60771
1.63202
1.65589
1.67914
1.7016
1.7231
1.74348
1.76258
1.78025
1.79635
1.81075
1.82333
1.83398
1.84262
1.84916
1.85356
1.85577
1.85577
1.85356
1.84916
1.84262
1.83398
1.82333
1.81075
1.79635
1.78025
1.76258
1.74348
1.7231
1.7016
1.67914
1.65589
1.63202
1.60771
1.58313
1.55866
1.53446
1.51053
1.48704
1.46415
1.44204
1.42087
1.4008
1.38199
1.36459
1.34873
1.33455
1.32216
1.31166
1.30316
1.29671
1.29238
1.2902
1.2902
1.29238
1.29671
1.30316
1.31166
1.32216
1.33455
1.34873
1.36459
1.38199
1.4008
1.42087
1.44204
1.46415
1.48704
1.51053
1.53446
1.55866
1.58294
1.60713
1.63106
1.65456
1.67745
1.69956
1.72072
1.74079
1.7596
1.777
1.79286
1.80704
1.81943
1.82993
1.83844
1.84489
1.84922
1.85139
1.85139
1.84922
1.84489
1.83844
1.82993
1.81943
1.80704
1.79286
1.777
1.7596
1.74079
1.72072
1.69956
1.67745
1.65456
1.63106
1.60713
1.58294
1.55869
1.53458
1.51072
1.4873
1.46448
1.44243
1.42132
1.4013
1.38254
1.36518
1.34935
1.33519
1.32282
1.31235
1.30385
1.29741
1.29309
1.29091
1.29091
1.29309
1.29741
1.30385
1.31235
1.32282
1.33519
1.34935
1.36518
1.38254
1.4013
1.42132
1.44243
1.46448
1.4873
1.51072
1.53458
1.55869
1.5829
1.60701
1.63087
1.65429
1.67711
1.69916
1.72027
1.74029
1.75905
1.77642
1.79224
1.8064
1.81877
1.82925
1.83774
1.84418
1.84851
1.85068
1.85068
1.84851
1.84418
1.83774
1.82925
1.81877
1.8064
1.79224
1.77642
1.75905
1.74029
1.72027
1.69916
1.67711
1.65429
1.63087
1.60701
1.5829
1.55851
1.53401
1.50978
1.486
1.46283
1.44045
1.41903
1.39872
1.37969
1.36208
1.34604
1.33169
1.31916
1.30855
1.29994
1.29342
1.28905
1.28685
1.28685
1.28905
1.29342
1.29994
1.30855
1.31916
1.33169
1.34604
1.36208
1.37969
1.39872
1.41903
1.44045
1.46283
1.486
1.50978
1.53401
1.55851
1.58309
1.60758
1.63181
1.65559
1.67876
1.70114
1.72257
1.74287
1.7619
1.77951
1.79555
1.8099
1.82243
1.83304
1.84165
1.84817
1.85255
1.85475
1.85475
1.85255
1.84817
1.84165
1.83304
1.82243
1.8099
1.79555
1.77951
1.7619
1.74287
1.72257
1.70114
1.67876
1.65559
1.63181
1.60758
1.58309
1.55871
1.53463
1.51081
1.48742
1.46464
1.44264
1.42157
1.4016
1.38288
1.36556
1.34978
1.33566
1.32333
1.31289
1.30442
1.298
1.29369
1.29153
1.29153
1.29369
1.298
1.30442
1.31289
1.32333
1.33566
1.34978
1.36556
1.38288
1.4016
1.42157
1.44264
1.46464
1.48742
1.51081
1.53463
1.55871
1.58288
1.60696
1.63078
1.65417
1.67695
1.69896
1.72003
1.74
1.75872
1.77604
1.79182
1.80593
1.81826
1.82871
1.83717
1.84359
1.8479
1.85006
1.85006
1.8479
1.84359
1.83717
1.82871
1.81826
1.80593
1.79182
1.77604
1.75872
1.74
1.72003
1.69896
1.67695
1.65417
1.63078
1.60696
1.58288
1.55875
1.53476
1.51102
1.48771
1.46501
1.44307
1.42206
1.40215
1.38348
1.3662
1.35046
1.33638
1.32407
1.31365
1.30519
1.29879
1.29449
1.29232
1.29232
1.29449
1.29879
1.30519
1.31365
1.32407
1.33638
1.35046
1.3662
1.38348
1.40215
1.42206
1.44307
1.46501
1.48771
1.51102
1.53476
1.55875
1.58284
1.60684
1.63057
1.65388
1.67659
1.69853
1.71953
1.73944
1.75811
1.77539
1.79113
1.80522
1.81752
1.82795
1.8364
1.8428
1.84711
1.84927
1.84927
1.84711
1.8428
1.8364
1.82795
1.81752
1.80522
1.79113
1.77539
1.75811
1.73944
1.71953
1.69853
1.67659
1.65388
1.63057
1.60684
1.58284
1.55867
1.53451
1.51061
1.48715
1.46429
1.44222
1.42109
1.40106
1.38229
1.36493
1.34911
1.33496
1.32261
1.31214
1.30366
1.29723
1.29291
1.29075
1.29075
1.29291
1.29723
1.30366
1.31214
1.32261
1.33496
1.34911
1.36493
1.38229
1.40106
1.42109
1.44222
1.46429
1.48715
1.51061
1.53451
1.55867
1.58292
1.60708
1.63098
1.65445
1.6773
1.69937
1.72051
1.74053
1.7593
1.77666
1.79248
1.80663
1.81899
1.82945
1.83793
1.84436
1.84868
1.85085
1.85085
1.84868
1.84436
1.83793
1.82945
1.81899
1.80663
1.79248
1.77666
1.7593
1.74053
1.72051
1.69937
1.6773
1.65445
1.63098
1.60708
1.58292
1.55889
1.53518
1.51172
1.48869
1.46625
1.44458
1.42384
1.40417
1.38574
1.36869
1.35316
1.33926
1.32713
1.31685
1.30851
1.3022
1.29796
1.29583
1.29583
1.29796
1.3022
1.30851
1.31685
1.32713
1.33926
1.35316
1.36869
1.38574
1.40417
1.42384
1.44458
1.46625
1.48869
1.51172
1.53518
1.55889
1.5827
1.60641
1.62987
1.65291
1.67534
1.69701
1.71776
1.73742
1.75585
1.7729
1.78844
1.80233
1.81447
1.82475
1.83308
1.83939
1.84363
1.84576
1.84576
1.84363
1.83939
1.83308
1.82475
1.81447
1.80233
1.78844
1.7729
1.75585
1.73742
1.71776
1.69701
1.67534
1.65291
1.62987
1.60641
1.5827
1.55895
1.53533
1.51198
1.48904
1.4667
1.44512
1.42446
1.40487
1.38651
1.36952
1.35403
1.34018
1.32808
1.31783
1.30953
1.30323
1.299
1.29687
1.29687
1.299
1.30323
1.30953
1.31783
1.32808
1.34018
1.35403
1.36952
1.38651
1.40487
1.42446
1.44512
1.4667
1.48904
1.51198
1.53533
1.55895
1.58265
1.60626
1.62962
1.65255
1.67489
1.69647
1.71713
1.73672
1.75509
1.77208
1.78756
1.80141
1.81351
1.82376
1.83207
1.83836
1.84259
1.84472
1.84472
1.84259
1.83836
1.83207
1.82376
1.81351
1.80141
1.78756
1.77208
1.75509
1.73672
1.71713
1.69647
1.67489
1.65255
1.62962
1.60626
1.58265
1.55896
1.53538
1.51206
1.48916
1.46686
1.44532
1.42471
1.40517
1.38686
1.36993
1.3545
1.34071
1.32866
1.31846
1.31019
1.30392
1.29972
1.2976
1.2976
1.29972
1.30392
1.31019
1.31846
1.32866
1.34071
1.3545
1.36993
1.38686
1.40517
1.42471
1.44532
1.46686
1.48916
1.51206
1.53538
1.55896
1.58263
1.60621
1.62953
1.65243
1.67473
1.69627
1.71688
1.73642
1.75473
1.77166
1.78709
1.80089
1.81293
1.82314
1.8314
1.83767
1.84188
1.84399
1.84399
1.84188
1.83767
1.8314
1.82314
1.81293
1.80089
1.78709
1.77166
1.75473
1.73642
1.71688
1.69627
1.67473
1.65243
1.62953
1.60621
1.58263
1.55921
1.53611
1.51326
1.49083
1.46899
1.44789
1.42769
1.40855
1.39061
1.37401
1.3589
1.34538
1.33357
1.32357
1.31547
1.30933
1.3052
1.30313
1.30313
1.3052
1.30933
1.31547
1.32357
1.33357
1.34538
1.3589
1.37401
1.39061
1.40855
1.42769
1.44789
1.46899
1.49083
1.51326
1.53611
1.55921
1.58239
1.60549
1.62833
1.65076
1.6726
1.69371
1.7139
1.73305
1.75098
1.76758
1.7827
1.79621
1.80802
1.81802
1.82613
1.83227
1.83639
1.83846
1.83846
1.83639
1.83227
1.82613
1.81802
1.80802
1.79621
1.7827
1.76758
1.75098
1.73305
1.7139
1.69371
1.6726
1.65076
1.62833
1.60549
1.58239
1.55927
1.5363
1.51358
1.49128
1.46955
1.44856
1.42847
1.40942
1.39157
1.37506
1.36001
1.34655
1.3348
1.32484
1.31677
1.31065
1.30655
1.30448
1.30448
1.30655
1.31065
1.31677
1.32484
1.3348
1.34655
1.36001
1.37506
1.39157
1.40942
1.42847
1.44856
1.46955
1.49128
1.51358
1.5363
1.55927
1.58232
1.60529
1.62801
1.65031
1.67204
1.69303
1.71312
1.73217
1.75002
1.76653
1.78158
1.79504
1.8068
1.81675
1.82482
1.83094
1.83505
1.83711
1.83711
1.83505
1.83094
1.82482
1.81675
1.8068
1.79504
1.78158
1.76653
1.75002
1.73217
1.71312
1.69303
1.67204
1.65031
1.62801
1.60529
1.58232
1.55939
1.53665
1.51416
1.49209
1.47059
1.44983
1.42996
1.41113
1.39349
1.37718
1.36232
1.34903
1.33743
1.32761
1.31965
1.31361
1.30956
1.30753
1.30753
1.30956
1.31361
1.31965
1.32761
1.33743
1.34903
1.36232
1.37718
1.39349
1.41113
1.42996
1.44983
1.47059
1.49209
1.51416
1.53665
1.55939
1.58221
1.60494
1.62743
1.6495
1.671
1.69176
1.71163
1.73046
1.7481
1.76442
1.77928
1.79256
1.80416
1.81399
1.82195
1.82798
1.83203
1.83406
1.83406
1.83203
1.82798
1.82195
1.81399
1.80416
1.79256
1.77928
1.76442
1.7481
1.73046
1.71163
1.69176
1.671
1.6495
1.62743
1.60494
1.58221
1.55965
1.53743
1.51546
1.49389
1.47288
1.45259
1.43317
1.41477
1.39753
1.38159
1.36706
1.35408
1.34274
1.33313
1.32535
1.31946
1.3155
1.31351
1.31351
1.3155
1.31946
1.32535
1.33313
1.34274
1.35408
1.36706
1.38159
1.39753
1.41477
1.43317
1.45259
1.47288
1.49389
1.51546
1.53743
1.55965
1.58194
1.60416
1.62613
1.6477
1.66871
1.689
1.70842
1.72682
1.74406
1.76
1.77453
1.78751
1.79886
1.80846
1.81624
1.82214
1.8261
1.82808
1.82808
1.8261
1.82214
1.81624
1.80846
1.79886
1.78751
1.77453
1.76
1.74406
1.72682
1.70842
1.689
1.66871
1.6477
1.62613
1.60416
1.58194
1.55972
1.53766
1.51583
1.49441
1.47354
1.45339
1.43409
1.41581
1.39867
1.38283
1.36839
1.35548
1.3442
1.33465
1.32691
1.32105
1.31711
1.31513
1.31513
1.31711
1.32105
1.32691
1.33465
1.3442
1.35548
1.36839
1.38283
1.39867
1.41581
1.43409
1.45339
1.47354
1.49441
1.51583
1.53766
1.55972
1.58187
1.60393
1.62576
1.64718
1.66805
1.68821
1.7075
1.72578
1.74292
1.75877
1.7732
1.78612
1.79739
1.80694
1.81468
1.82054
1.82448
1.82646
1.82646
1.82448
1.82054
1.81468
1.80694
1.79739
1.78612
1.7732
1.75877
1.74292
1.72578
1.7075
1.68821
1.66805
1.64718
1.62576
1.60393
1.58187
1.55995
1.53834
1.51696
1.49598
1.47555
1.45582
1.43694
1.41905
1.4023
1.38681
1.3727
1.36009
1.34908
1.33975
1.3322
1.32648
1.32264
1.32071
1.32071
1.32264
1.32648
1.3322
1.33975
1.34908
1.36009
1.3727
1.38681
1.4023
1.41905
1.43694
1.45582
1.47555
1.49598
1.51696
1.53834
1.55995
1.58164
1.60326
1.62463
1.64561
1.66605
1.68578
1.70465
1.72254
1.73929
1.75479
1.7689
1.78151
1.79252
1.80184
1.80939
1.81511
1.81895
1.82088
1.82088
1.81895
1.81511
1.80939
1.80184
1.79252
1.78151
1.7689
1.75479
1.73929
1.72254
1.70465
1.68578
1.66605
1.64561
1.62463
1.60326
1.58164
1.56023
1.53917
1.51835
1.49791
1.478
1.45878
1.44038
1.42295
1.40663
1.39153
1.37779
1.3655
1.35477
1.34568
1.33832
1.33275
1.329
1.32712
1.32712
1.329
1.33275
1.33832
1.34568
1.35477
1.3655
1.37779
1.39153
1.40663
1.42295
1.44038
1.45878
1.478
1.49791
1.51835
1.53917
1.56023
1.58136
1.60242
1.62325
1.64369
1.66359
1.68282
1.70121
1.71864
1.73496
1.75006
1.76381
1.7761
1.78683
1.79591
1.80327
1.80885
1.81259
1.81447
1.81447
1.81259
1.80885
1.80327
1.79591
1.78683
1.7761
1.76381
1.75006
1.73496
1.71864
1.70121
1.68282
1.66359
1.64369
1.62325
1.60242
1.58136
1.56031
1.53942
1.51875
1.49846
1.47871
1.45963
1.44137
1.42407
1.40786
1.39287
1.37922
1.36702
1.35636
1.34734
1.34002
1.33448
1.33076
1.3289
1.3289
1.33076
1.33448
1.34002
1.34734
1.35636
1.36702
1.37922
1.39287
1.40786
1.42407
1.44137
1.45963
1.47871
1.49846
1.51875
1.53942
1.56031
1.58128
1.60218
1.62284
1.64313
1.66288
1.68196
1.70022
1.71752
1.73373
1.74872
1.76237
1.77458
1.78523
1.79426
1.80157
1.80711
1.81083
1.8127
1.8127
1.81083
1.80711
1.80157
1.79426
1.78523
1.77458
1.76237
1.74872
1.73373
1.71752
1.70022
1.68196
1.66288
1.64313
1.62284
1.60218
1.58128
1.56067
1.54048
1.52052
1.50092
1.48184
1.46343
1.4458
1.42911
1.41348
1.39903
1.38587
1.37411
1.36385
1.35516
1.34813
1.3428
1.33922
1.33742
1.33742
1.33922
1.3428
1.34813
1.35516
1.36385
1.37411
1.38587
1.39903
1.41348
1.42911
1.4458
1.46343
1.48184
1.50092
1.52052
1.54048
1.56067
1.58093
1.60111
1.62108
1.64067
1.65975
1.67817
1.69579
1.71248
1.72811
1.74256
1.75572
1.76748
1.77774
1.78643
1.79347
1.7988
1.80238
1.80417
1.80417
1.80238
1.7988
1.79347
1.78643
1.77774
1.76748
1.75572
1.74256
1.72811
1.71248
1.69579
1.67817
1.65975
1.64067
1.62108
1.60111
1.58093
1.56096
1.54136
1.52198
1.50295
1.48443
1.46655
1.44944
1.43323
1.41805
1.40402
1.39125
1.37983
1.36986
1.36143
1.35459
1.34942
1.34594
1.3442
1.3442
1.34594
1.34942
1.35459
1.36143
1.36986
1.37983
1.39125
1.40402
1.41805
1.43323
1.44944
1.46655
1.48443
1.50295
1.52198
1.54136
1.56096
1.58063
1.60023
1.61961
1.63864
1.65716
1.67504
1.69216
1.70836
1.72354
1.73757
1.75035
1.76176
1.77173
1.78017
1.787
1.79218
1.79565
1.7974
1.7974
1.79565
1.79218
1.787
1.78017
1.77173
1.76176
1.75035
1.73757
1.72354
1.70836
1.69216
1.67504
1.65716
1.63864
1.61961
1.60023
1.58063
1.56104
1.5416
1.52237
1.5035
1.48512
1.46737
1.4504
1.43431
1.41925
1.40532
1.39264
1.38131
1.37141
1.36304
1.35625
1.35111
1.34766
1.34593
1.34593
1.34766
1.35111
1.35625
1.36304
1.37141
1.38131
1.39264
1.40532
1.41925
1.43431
1.4504
1.46737
1.48512
1.5035
1.52237
1.5416
1.56104
1.58055
1.6
1.61922
1.6381
1.65647
1.67422
1.6912
1.70728
1.72234
1.73627
1.74895
1.76028
1.77018
1.77856
1.78534
1.79048
1.79393
1.79567
1.79567
1.79393
1.79048
1.78534
1.77856
1.77018
1.76028
1.74895
1.73627
1.72234
1.70728
1.6912
1.67422
1.65647
1.6381
1.61922
1.6
1.58055
1.56155
1.54313
1.52492
1.50705
1.48965
1.47285
1.45678
1.44157
1.42732
1.41416
1.40217
1.39147
1.38212
1.37422
1.36781
1.36296
1.35971
1.35807
1.35807
1.35971
1.36296
1.36781
1.37422
1.38212
1.39147
1.40217
1.41416
1.42732
1.44157
1.45678
1.47285
1.48965
1.50705
1.52492
1.54313
1.56155
1.58004
1.59846
1.61667
1.63454
1.65195
1.66874
1.68481
1.70002
1.71427
1.72744
1.73942
1.75013
1.75947
1.76738
1.77378
1.77863
1.78189
1.78352
1.78352
1.78189
1.77863
1.77378
1.76738
1.75947
1.75013
1.73942
1.72744
1.71427
1.70002
1.68481
1.66874
1.65195
1.63454
1.61667
1.59846
1.58004
1.56185
1.54404
1.52642
1.50913
1.4923
1.47605
1.4605
1.44579
1.43201
1.41927
1.40768
1.39732
1.38828
1.38063
1.37444
1.36975
1.3666
1.36501
1.36501
1.3666
1.36975
1.37444
1.38063
1.38828
1.39732
1.40768
1.41927
1.43201
1.44579
1.4605
1.47605
1.4923
1.50913
1.52642
1.54404
1.56185
1.57974
1.59756
1.61517
1.63246
1.6493
1.66555
1.68109
1.69581
1.70959
1.72232
1.73392
1.74427
1.75331
1.76096
1.76716
1.77185
1.775
1.77658
1.77658
1.775
1.77185
1.76716
1.76096
1.75331
1.74427
1.73392
1.72232
1.70959
1.69581
1.68109
1.66555
1.6493
1.63246
1.61517
1.59756
1.57974
1.56192
1.54424
1.52675
1.50958
1.49287
1.47674
1.46131
1.4467
1.43301
1.42036
1.40885
1.39856
1.38958
1.38199
1.37583
1.37117
1.36804
1.36647
1.36647
1.36804
1.37117
1.37583
1.38199
1.38958
1.39856
1.40885
1.42036
1.43301
1.4467
1.46131
1.47674
1.49287
1.50958
1.52675
1.54424
1.56192
1.57967
1.59736
1.61485
1.63201
1.64872
1.66485
1.68028
1.6949
1.70858
1.72123
1.73274
1.74303
1.75201
1.75961
1.76576
1.77042
1.77355
1.77512
1.77512
1.77355
1.77042
1.76576
1.75961
1.75201
1.74303
1.73274
1.72123
1.70858
1.6949
1.68028
1.66485
1.64872
1.63201
1.61485
1.59736
1.57967
1.56264
1.54638
1.53031
1.51453
1.49918
1.48436
1.47019
1.45678
1.44422
1.43262
1.42206
1.41263
1.40441
1.39745
1.39181
1.38754
1.38468
1.38324
1.38324
1.38468
1.38754
1.39181
1.39745
1.40441
1.41263
1.42206
1.43262
1.44422
1.45678
1.47019
1.48436
1.49918
1.51453
1.53031
1.54638
1.56264
1.57895
1.59521
1.61129
1.62706
1.64241
1.65723
1.6714
1.68481
1.69737
1.70897
1.71953
1.72896
1.73719
1.74415
1.74978
1.75405
1.75691
1.75835
1.75835
1.75691
1.75405
1.74978
1.74415
1.73719
1.72896
1.71953
1.70897
1.69737
1.68481
1.6714
1.65723
1.64241
1.62706
1.61129
1.59521
1.57895
1.56293
1.54725
1.53175
1.51654
1.50174
1.48745
1.47378
1.46085
1.44874
1.43755
1.42737
1.41828
1.41034
1.40363
1.3982
1.39408
1.39132
1.38993
1.38993
1.39132
1.39408
1.3982
1.40363
1.41034
1.41828
1.42737
1.43755
1.44874
1.46085
1.47378
1.48745
1.50174
1.51654
1.53175
1.54725
1.56293
1.57866
1.59434
1.60984
1.62505
1.63986
1.65415
1.66781
1.68075
1.69286
1.70404
1.71422
1.72332
1.73125
1.73796
1.7434
1.74751
1.75027
1.75166
1.75166
1.75027
1.74751
1.7434
1.73796
1.73125
1.72332
1.71422
1.70404
1.69286
1.68075
1.66781
1.65415
1.63986
1.62505
1.60984
1.59434
1.57866
1.56297
1.54739
1.53197
1.51685
1.50213
1.48792
1.47433
1.46146
1.44942
1.43829
1.42816
1.41912
1.41123
1.40455
1.39914
1.39505
1.3923
1.39092
1.39092
1.3923
1.39505
1.39914
1.40455
1.41123
1.41912
1.42816
1.43829
1.44942
1.46146
1.47433
1.48792
1.50213
1.51685
1.53197
1.54739
1.56297
1.57862
1.59421
1.60962
1.62474
1.63947
1.65367
1.66726
1.68013
1.69217
1.7033
1.71343
1.72247
1.73037
1.73704
1.74245
1.74655
1.7493
1.75068
1.75068
1.7493
1.74655
1.74245
1.73704
1.73037
1.72247
1.71343
1.7033
1.69217
1.68013
1.66726
1.65367
1.63947
1.62474
1.60962
1.59421
1.57862
1.56395
1.55032
1.53684
1.52361
1.51074
1.49832
1.48645
1.47521
1.46469
1.45498
1.44614
1.43825
1.43137
1.42555
1.42083
1.41727
1.41487
1.41367
1.41367
1.41487
1.41727
1.42083
1.42555
1.43137
1.43825
1.44614
1.45498
1.46469
1.47521
1.48645
1.49832
1.51074
1.52361
1.53684
1.55032
1.56395
1.57764
1.59127
1.60475
1.61798
1.63085
1.64327
1.65515
1.66638
1.6769
1.68662
1.69545
1.70334
1.71023
1.71605
1.72076
1.72433
1.72672
1.72792
1.72792
1.72672
1.72433
1.72076
1.71605
1.71023
1.70334
1.69545
1.68662
1.6769
1.66638
1.65515
1.64327
1.63085
1.61798
1.60475
1.59127
1.57764
1.56421
1.55107
1.53809
1.52535
1.51295
1.50099
1.48955
1.47873
1.4686
1.45924
1.45073
1.44313
1.4365
1.4309
1.42636
1.42292
1.42061
1.41946
1.41946
1.42061
1.42292
1.42636
1.4309
1.4365
1.44313
1.45073
1.45924
1.4686
1.47873
1.48955
1.50099
1.51295
1.52535
1.53809
1.55107
1.56421
1.57739
1.59052
1.6035
1.61624
1.62864
1.6406
1.65204
1.66286
1.67299
1.68235
1.69086
1.69846
1.70509
1.7107
1.71524
1.71867
1.72098
1.72214
1.72214
1.72098
1.71867
1.71524
1.7107
1.70509
1.69846
1.69086
1.68235
1.67299
1.66286
1.65204
1.6406
1.62864
1.61624
1.6035
1.59052
1.57739
1.56422
1.55113
1.53818
1.52548
1.51312
1.50119
1.48978
1.47898
1.46888
1.45955
1.45106
1.44348
1.43686
1.43127
1.42674
1.42331
1.42101
1.41986
1.41986
1.42101
1.42331
1.42674
1.43127
1.43686
1.44348
1.45106
1.45955
1.46888
1.47898
1.48978
1.50119
1.51312
1.52548
1.53818
1.55113
1.56422
1.57737
1.59046
1.60341
1.61611
1.62848
1.64041
1.65181
1.66261
1.67271
1.68205
1.69054
1.69812
1.70473
1.71032
1.71485
1.71828
1.72058
1.72174
1.72174
1.72058
1.71828
1.71485
1.71032
1.70473
1.69812
1.69054
1.68205
1.67271
1.66261
1.65181
1.64041
1.62848
1.61611
1.60341
1.59046
1.57737
1.56554
1.55505
1.54469
1.53453
1.52463
1.51509
1.50597
1.49734
1.48926
1.4818
1.47502
1.46897
1.46369
1.45923
1.45562
1.45288
1.45105
1.45012
1.45012
1.45105
1.45288
1.45562
1.45923
1.46369
1.46897
1.47502
1.4818
1.48926
1.49734
1.50597
1.51509
1.52463
1.53453
1.54469
1.55505
1.56554
1.57606
1.58654
1.5969
1.60707
1.61696
1.6265
1.63562
1.64426
1.65233
1.65979
1.66657
1.67262
1.6779
1.68236
1.68598
1.68871
1.69055
1.69147
1.69147
1.69055
1.68871
1.68598
1.68236
1.6779
1.67262
1.66657
1.65979
1.65233
1.64426
1.63562
1.6265
1.61696
1.60707
1.5969
1.58654
1.57606
1.56572
1.55559
1.54559
1.53577
1.52622
1.517
1.5082
1.49986
1.49206
1.48486
1.47831
1.47247
1.46737
1.46306
1.45957
1.45693
1.45516
1.45427
1.45427
1.45516
1.45693
1.45957
1.46306
1.46737
1.47247
1.47831
1.48486
1.49206
1.49986
1.5082
1.517
1.52622
1.53577
1.54559
1.55559
1.56572
1.57588
1.586
1.596
1.60582
1.61537
1.62459
1.6334
1.64173
1.64953
1.65673
1.66328
1.66912
1.67422
1.67853
1.68202
1.68466
1.68643
1.68732
1.68732
1.68643
1.68466
1.68202
1.67853
1.67422
1.66912
1.66328
1.65673
1.64953
1.64173
1.6334
1.62459
1.61537
1.60582
1.596
1.586
1.57588
1.56571
1.55558
1.54556
1.53573
1.52617
1.51694
1.50812
1.49978
1.49197
1.48476
1.4782
1.47235
1.46725
1.46293
1.45944
1.45679
1.45502
1.45413
1.45413
1.45502
1.45679
1.45944
1.46293
1.46725
1.47235
1.4782
1.48476
1.49197
1.49978
1.50812
1.51694
1.52617
1.53573
1.54556
1.55558
1.56571
1.57588
1.58601
1.59603
1.60586
1.61542
1.62465
1.63347
1.64181
1.64962
1.65683
1.66339
1.66924
1.67435
1.67866
1.68216
1.6848
1.68658
1.68747
1.68747
1.68658
1.6848
1.68216
1.67866
1.67435
1.66924
1.66339
1.65683
1.64962
1.64181
1.63347
1.62465
1.61542
1.60586
1.59603
1.58601
1.57588
1.56739
1.56059
1.55388
1.54729
1.54088
1.5347
1.52879
1.5232
1.51797
1.51315
1.50876
1.50484
1.50143
1.49854
1.49621
1.49444
1.49325
1.49266
1.49266
1.49325
1.49444
1.49621
1.49854
1.50143
1.50484
1.50876
1.51315
1.51797
1.5232
1.52879
1.5347
1.54088
1.54729
1.55388
1.56059
1.56739
1.57421
1.581
1.58771
1.5943
1.60071
1.60689
1.6128
1.61839
1.62362
1.62845
1.63283
1.63675
1.64016
1.64305
1.64539
1.64716
1.64834
1.64894
1.64894
1.64834
1.64716
1.64539
1.64305
1.64016
1.63675
1.63283
1.62845
1.62362
1.61839
1.6128
1.60689
1.60071
1.5943
1.58771
1.581
1.57421
1.56748
1.56088
1.55435
1.54795
1.54172
1.53571
1.52996
1.52453
1.51945
1.51475
1.51049
1.50668
1.50336
1.50056
1.49829
1.49657
1.49541
1.49483
1.49483
1.49541
1.49657
1.49829
1.50056
1.50336
1.50668
1.51049
1.51475
1.51945
1.52453
1.52996
1.53571
1.54172
1.54795
1.55435
1.56088
1.56748
1.57411
1.58071
1.58724
1.59365
1.59988
1.60589
1.61163
1.61706
1.62215
1.62684
1.6311
1.63491
1.63823
1.64104
1.64331
1.64503
1.64618
1.64676
1.64676
1.64618
1.64503
1.64331
1.64104
1.63823
1.63491
1.6311
1.62684
1.62215
1.61706
1.61163
1.60589
1.59988
1.59365
1.58724
1.58071
1.57411
1.56746
1.56082
1.55426
1.54782
1.54156
1.53551
1.52974
1.52427
1.51916
1.51445
1.51016
1.50633
1.50299
1.50017
1.49788
1.49616
1.495
1.49441
1.49441
1.495
1.49616
1.49788
1.50017
1.50299
1.50633
1.51016
1.51445
1.51916
1.52427
1.52974
1.53551
1.54156
1.54782
1.55426
1.56082
1.56746
1.57413
1.58077
1.58733
1.59377
1.60004
1.60608
1.61185
1.61732
1.62243
1.62715
1.63144
1.63526
1.6386
1.64142
1.64371
1.64544
1.6466
1.64718
1.64718
1.6466
1.64544
1.64371
1.64142
1.6386
1.63526
1.63144
1.62715
1.62243
1.61732
1.61185
1.60608
1.60004
1.59377
1.58733
1.58077
1.57413
1.57352
1.57896
1.58433
1.5896
1.59473
1.59967
1.60439
1.60886
1.61303
1.61688
1.62038
1.6235
1.62622
1.62852
1.63038
1.63179
1.63274
1.63321
0
0
0
0
0
0
0
0
0
0
0
0
0
0
0
0
0
0
0
0
0
0
0
0
0
0
0
0
0
0
0
0
0
0
0
0
4.64998
4.65045
4.65139
4.6528
4.65466
4.65696
4.65968
4.6628
4.6663
4.67015
4.67433
4.67879
4.68351
4.68846
4.69358
4.69885
4.70422
4.70966
1.56932
1.56637
1.56346
1.5606
1.55782
1.55514
1.55258
1.55016
1.54789
1.5458
1.5439
1.5422
1.54072
1.53947
1.53846
1.53769
1.53718
1.53692
1.53692
1.53718
1.53769
1.53846
1.53947
1.54072
1.5422
1.5439
1.5458
1.54789
1.55016
1.55258
1.55514
1.55782
1.5606
1.56346
1.56637
1.56932
1.57228
1.57522
1.57813
1.58099
1.58377
1.58645
1.58901
1.59144
1.5937
1.59579
1.5977
1.59939
1.60087
1.60212
1.60313
1.6039
1.60441
1.60467
1.60467
1.60441
1.6039
1.60313
1.60212
1.60087
1.59939
1.5977
1.59579
1.5937
1.59144
1.58901
1.58645
1.58377
1.58099
1.57813
1.57522
1.57228
1.5693
1.56632
1.56338
1.56049
1.55769
1.55498
1.55239
1.54994
1.54765
1.54554
1.54362
1.5419
1.54041
1.53914
1.53812
1.53735
1.53683
1.53657
1.53657
1.53683
1.53735
1.53812
1.53914
1.54041
1.5419
1.54362
1.54554
1.54765
1.54994
1.55239
1.55498
1.55769
1.56049
1.56338
1.56632
1.5693
1.57229
1.57527
1.57821
1.5811
1.58391
1.58662
1.5892
1.59165
1.59394
1.59606
1.59798
1.59969
1.60119
1.60245
1.60347
1.60425
1.60477
1.60503
1.60503
1.60477
1.60425
1.60347
1.60245
1.60119
1.59969
1.59798
1.59606
1.59394
1.59165
1.5892
1.58662
1.58391
1.5811
1.57821
1.57527
1.57229
)
;

boundaryField
{
    fixed
    {
        type            calculated;
        value           uniform 0;
    }
    inside
    {
        type            calculated;
        value           uniform 0;
    }
    outside
    {
        type            calculated;
        value           uniform 0;
    }
}


// ************************************************************************* //
