/*--------------------------------*- C++ -*----------------------------------*\
| =========                 |                                                 |
| \\      /  F ield         | OpenFOAM: The Open Source CFD Toolbox           |
|  \\    /   O peration     | Version:  2412                                  |
|   \\  /    A nd           | Website:  www.openfoam.com                      |
|    \\/     M anipulation  |                                                 |
\*---------------------------------------------------------------------------*/
FoamFile
{
    version     2.0;
    format      ascii;
    arch        "LSB;label=32;scalar=64";
    class       volScalarField;
    location    "0.0250162";
    object      ionicCurrent;
}
// * * * * * * * * * * * * * * * * * * * * * * * * * * * * * * * * * * * * * //

dimensions      [1 2 -4 0 0 -1 0];

internalField   nonuniform List<scalar> 
8679
(
0.865898
0.850487
0.871665
0.904856
0.922706
0.950038
0.986692
1.01264
1.06683
1.11173
1.1955
1.26325
1.3404
1.4021
1.49846
1.61401
1.70646
1.80817
1.92157
2.05187
2.18549
2.33654
2.50214
2.68253
2.81965
3.02749
3.18486
3.34881
3.59682
3.78794
3.98214
4.18427
4.39342
0.855919
0.867212
0.888501
0.895166
0.916972
0.965623
0.983128
1.02674
1.08761
1.13122
1.18463
1.25416
1.3267
1.41619
1.51848
1.60011
1.72805
1.83272
1.94741
2.0741
2.21331
2.36641
2.53375
2.66008
2.85244
2.99819
3.22053
3.38647
3.55885
3.82344
4.01967
4.22489
4.43999
0.89388
0.904068
0.900209
0.931144
0.948269
0.975758
1.01499
1.06553
1.10041
1.17378
1.23032
1.29639
1.37436
1.46455
1.53406
1.64829
1.74064
1.84294
1.96318
2.12899
2.23013
2.37617
2.54234
2.7232
2.85973
3.06782
3.22377
3.38673
3.64069
3.82727
4.02148
4.22262
4.42956
0.0269459
0.0329106
0.0345708
0.052358
0.0657485
0.0864547
0.114612
0.137667
0.176755
0.210523
0.25156
0.301005
0.359474
0.426459
0.482342
0.567175
0.640743
0.722369
0.814532
0.917388
1.03025
1.12626
1.25975
1.37623
1.53528
1.67396
1.82212
1.98125
2.15214
2.33447
2.52887
2.73597
2.95215
0.0378774
0.0449805
0.043276
0.0653105
0.078718
0.0993605
0.126977
0.14549
0.189189
0.223418
0.264413
0.314135
0.371898
0.423258
0.493781
0.559485
0.655819
0.740811
0.8341
0.936898
1.02301
1.14568
1.27712
1.39775
1.5235
1.69631
1.84656
2.0062
2.17719
2.36023
2.55629
2.76143
2.98573
0.0406845
0.0495815
0.0650654
0.0701524
0.0816598
0.102169
0.131059
0.167537
0.194915
0.248478
0.292513
0.3425
0.380721
0.446669
0.508191
0.590761
0.665853
0.748418
0.841102
0.944906
1.05897
1.15588
1.29074
1.40797
1.56778
1.70633
1.85399
2.01378
2.22657
2.41495
2.56548
2.77236
2.98866
0.0614792
0.0707212
0.0869251
0.0924087
0.104233
0.124534
0.153842
0.190715
0.218459
0.272794
0.317534
0.368125
0.411606
0.474362
0.536795
0.620464
0.696389
0.779877
0.873639
0.978348
1.09371
1.19169
1.32823
1.44612
1.60698
1.74588
1.89467
2.09364
2.27042
2.45892
2.65976
2.81815
3.03865
0.107805
0.115682
0.114811
0.138242
0.152801
0.174354
0.203205
0.222903
0.268318
0.304583
0.347979
0.400099
0.46028
0.513822
0.587587
0.660009
0.755765
0.844075
0.940519
1.04633
1.13451
1.26103
1.40123
1.52027
1.64883
1.82576
1.97852
2.14091
2.31454
2.4996
2.69728
2.90761
3.12691
-0.476563
-0.485883
-0.476898
-0.474347
-0.466423
-0.451492
-0.429918
-0.402746
-0.384886
-0.363179
-0.335041
-0.300922
-0.270749
-0.228523
-0.190057
-0.141315
-0.0894697
-0.0293357
0.0344114
0.110018
0.175401
0.265563
0.347826
0.453643
0.558425
0.667455
0.786627
0.912894
1.05554
1.21055
1.3467
1.52447
1.68184
-0.487102
-0.480666
-0.46941
-0.4667
-0.458826
-0.444794
-0.42524
-0.412302
-0.380573
-0.356424
-0.327588
-0.292813
-0.26632
-0.219362
-0.17957
-0.134816
-0.0826398
-0.0225465
0.0458978
0.121844
0.188328
0.279917
0.36145
0.450436
0.550051
0.678437
0.801162
0.931937
1.05072
1.20228
1.36411
1.54511
1.70395
-0.470762
-0.465679
-0.469177
-0.462075
-0.442807
-0.427635
-0.421831
-0.398421
-0.381643
-0.355234
-0.32956
-0.292949
-0.250717
-0.216181
-0.16077
-0.112923
-0.0594374
-5.93112e-05
0.0545201
0.125751
0.211032
0.285955
0.368484
0.480157
0.58151
0.69105
0.810678
0.94207
1.08098
1.2362
1.37751
1.55241
1.7483
-0.461226
-0.455223
-0.456396
-0.439226
-0.429021
-0.41573
-0.406431
-0.38636
-0.369065
-0.341981
-0.311808
-0.278243
-0.235058
-0.199643
-0.143114
-0.0947161
-0.0404928
0.0199257
0.075555
0.147431
0.233559
0.310431
0.414205
0.507796
0.608957
0.718914
0.839457
0.971797
1.11178
1.26916
1.43955
1.58927
1.78506
-0.446383
-0.443055
-0.43071
-0.426435
-0.417761
-0.402658
-0.381993
-0.364349
-0.334998
-0.30876
-0.277801
-0.24152
-0.212823
-0.163933
-0.122623
-0.075531
-0.0165673
0.0424974
0.113596
0.192768
0.261362
0.355704
0.440596
0.533728
0.659265
0.77468
0.898864
1.02977
1.17624
1.30927
1.47407
1.65851
1.81974
-0.413543
-0.406115
-0.393287
-0.389361
-0.380858
-0.36584
-0.344574
-0.326406
-0.296066
-0.268736
-0.238797
-0.212667
-0.172792
-0.119375
-0.0759001
-0.0274333
0.0282495
0.0926348
0.165533
0.246304
0.316512
0.413231
0.499656
0.594643
0.722828
0.84031
0.966613
1.09977
1.24953
1.41137
1.55658
1.73744
1.93941
-0.363041
-0.357775
-0.354773
-0.341175
-0.330277
-0.313408
-0.291374
-0.278823
-0.255178
-0.21716
-0.183584
-0.155782
-0.113916
-0.0586302
-0.0134755
0.0365478
0.0938053
0.159941
0.234913
0.318081
0.389556
0.48854
0.578299
0.699335
0.808457
0.92568
1.05293
1.19201
1.34331
1.50277
1.6803
1.83788
2.03615
-0.286825
-0.292387
-0.286458
-0.278585
-0.269283
-0.252717
-0.227962
-0.201459
-0.180823
-0.150173
-0.11652
-0.075919
-0.031943
0.0121182
0.0705474
0.124185
0.18388
0.252182
0.329826
0.416744
0.511996
0.594903
0.708279
0.809446
0.918298
1.03846
1.19437
1.33984
1.49506
1.6319
1.80944
1.99743
2.20525
-0.195637
-0.190604
-0.193202
-0.173958
-0.162467
-0.147157
-0.135648
-0.110516
-0.0831274
-0.0419948
-0.00469796
0.0374416
0.0740174
0.127042
0.193929
0.249349
0.311069
0.38131
0.460664
0.549952
0.648447
0.733188
0.850096
0.954039
1.08894
1.21758
1.35177
1.49696
1.65447
1.82434
2.00255
2.19925
2.41039
-0.0731295
-0.079216
-0.0714852
-0.0611991
-0.0363967
-0.0159537
0.00907648
0.0246479
0.0638849
0.0940973
0.130452
0.174981
0.228104
0.289228
0.338067
0.398481
0.479398
0.554432
0.637877
0.730705
0.832769
0.919363
1.04116
1.17148
1.29238
1.41795
1.58382
1.73462
1.89569
2.06931
2.25611
2.45644
2.66662
0.0775068
0.0856666
0.100394
0.104896
0.116304
0.135617
0.163194
0.198953
0.23857
0.274384
0.312157
0.358771
0.415081
0.479262
0.531202
0.611325
0.680097
0.758039
0.866046
0.96433
1.04853
1.16304
1.29168
1.42847
1.54871
1.71337
1.85481
2.00575
2.16803
2.34294
2.57817
2.73051
2.94125
0.297868
0.305782
0.30698
0.325849
0.338444
0.358672
0.388498
0.426725
0.457733
0.507306
0.549116
0.598986
0.658641
0.726978
0.784799
0.866334
0.943972
1.04756
1.14046
1.24226
1.35387
1.47725
1.61253
1.72407
1.88266
2.05211
2.20052
2.35316
2.56438
2.74393
2.93434
3.13601
3.34942
0.55732
0.56128
0.561601
0.583609
0.601733
0.623387
0.655087
0.696964
0.74336
0.78247
0.826886
0.902475
0.966655
1.01712
1.09893
1.1887
1.26958
1.38161
1.47806
1.58871
1.7061
1.83574
1.97299
2.12782
2.29661
2.42924
2.62349
2.77718
2.9993
3.17777
3.3662
3.5651
3.77405
0.84165
0.850729
0.848567
0.872528
0.890224
0.912697
0.946018
0.990456
1.04057
1.08114
1.15045
1.21175
1.27794
1.35529
1.44015
1.54159
1.62241
1.7423
1.8408
1.94985
2.11659
2.25334
2.39623
2.50679
2.67736
2.86342
2.99789
3.21206
3.36649
3.61002
3.78796
3.97419
4.16864
1.05487
1.06574
1.08222
1.08882
1.12685
1.14964
1.18277
1.2279
1.28393
1.31718
1.39565
1.45066
1.51595
1.59328
1.68324
1.78578
1.86124
1.98315
2.07611
2.23135
2.34946
2.47889
2.62049
2.77439
2.94235
3.1209
3.24174
3.44746
3.58421
3.82086
3.97427
4.12504
4.41046
-0.770119
-0.766675
-0.769577
-0.756799
-0.750055
-0.741334
-0.739109
-0.72115
-0.709919
-0.695721
-0.677178
-0.665545
-0.638089
-0.616957
-0.592865
-0.563223
-0.52745
-0.486173
-0.451933
-0.399826
-0.355286
-0.305958
-0.249721
-0.185863
-0.114551
-0.0342823
0.0507035
0.148489
0.242272
0.35576
0.481975
0.602171
0.736812
-0.765911
-0.761913
-0.766073
-0.761365
-0.748964
-0.746685
-0.738288
-0.726787
-0.707628
-0.69293
-0.682595
-0.664568
-0.643121
-0.613224
-0.586171
-0.55535
-0.519933
-0.492142
-0.446458
-0.406287
-0.347723
-0.295399
-0.238429
-0.174288
-0.102405
-0.0217272
0.0639653
0.162892
0.252461
0.369822
0.479888
0.616827
0.748594
-0.770763
-0.765406
-0.756718
-0.756349
-0.751296
-0.740695
-0.72637
-0.72054
-0.711496
-0.696875
-0.676907
-0.651883
-0.635724
-0.616161
-0.586643
-0.555878
-0.522956
-0.481108
-0.442637
-0.394372
-0.346801
-0.283616
-0.222903
-0.156968
-0.0848045
-0.0170514
0.0706053
0.165807
0.275601
0.376387
0.501534
0.627946
0.780143
-0.763857
-0.762087
-0.752988
-0.75124
-0.746313
-0.736059
-0.722133
-0.716091
-0.702865
-0.691532
-0.670178
-0.644873
-0.628086
-0.602779
-0.567778
-0.544374
-0.512618
-0.469136
-0.420667
-0.380424
-0.334428
-0.267245
-0.20588
-0.138967
-0.0685445
0.0130664
0.0907558
0.185372
0.295869
0.397569
0.529202
0.652536
0.80649
-0.750342
-0.746408
-0.745073
-0.735671
-0.728573
-0.718561
-0.715281
-0.696541
-0.683853
-0.667465
-0.64761
-0.63416
-0.605007
-0.582313
-0.555624
-0.524138
-0.485755
-0.44191
-0.405272
-0.350622
-0.303628
-0.251341
-0.191886
-0.124457
-0.0488115
0.0354438
0.124428
0.226753
0.324801
0.443025
0.574756
0.703899
0.839523
-0.731248
-0.727502
-0.725772
-0.715773
-0.710062
-0.708547
-0.69948
-0.68634
-0.664896
-0.647651
-0.635651
-0.615493
-0.59135
-0.55817
-0.528106
-0.494574
-0.456607
-0.421896
-0.376875
-0.328916
-0.270583
-0.215032
-0.153513
-0.0840921
-0.00660907
0.0795039
0.174948
0.275479
0.375608
0.496434
0.630214
0.76142
0.898943
-0.703704
-0.707522
-0.703297
-0.69718
-0.690756
-0.679795
-0.668079
-0.6572
-0.645428
-0.628119
-0.605095
-0.5817
-0.556402
-0.521457
-0.490362
-0.454944
-0.415397
-0.379236
-0.331
-0.270955
-0.22053
-0.165046
-0.100383
-0.0151646
0.0676022
0.15608
0.239044
0.340309
0.457422
0.565413
0.706475
0.857093
0.999343
-0.669079
-0.66485
-0.662259
-0.651526
-0.645045
-0.643118
-0.62703
-0.608303
-0.594475
-0.57725
-0.554883
-0.535556
-0.507447
-0.477383
-0.445217
-0.399068
-0.365482
-0.318633
-0.267019
-0.204473
-0.151756
-0.0931565
-0.00983919
0.0663553
0.149608
0.237344
0.338838
0.449903
0.554506
0.681825
0.823244
0.962032
1.12999
-0.609478
-0.605447
-0.610011
-0.60371
-0.588637
-0.585148
-0.56854
-0.549361
-0.534806
-0.516168
-0.49164
-0.462148
-0.435852
-0.399414
-0.366097
-0.327823
-0.284004
-0.233119
-0.175622
-0.126347
-0.0559956
0.00710385
0.0944626
0.173385
0.259405
0.353982
0.45441
0.570437
0.698058
0.832826
0.963169
1.12055
1.27387
-0.540579
-0.535907
-0.533867
-0.522643
-0.513656
-0.50076
-0.483473
-0.472945
-0.444347
-0.422973
-0.396833
-0.365434
-0.342365
-0.300064
-0.265171
-0.22554
-0.179174
-0.125648
-0.0642801
0.00495117
0.0773869
0.146903
0.219893
0.315621
0.407047
0.510705
0.616088
0.736885
0.869181
1.01413
1.16705
1.31236
1.4905
-0.435104
-0.429682
-0.431445
-0.415039
-0.406104
-0.39244
-0.377651
-0.362923
-0.332734
-0.310036
-0.282437
-0.248041
-0.211829
-0.175509
-0.127127
-0.0787266
-0.0288137
0.0280999
0.0934047
0.167014
0.244257
0.319112
0.411728
0.50043
0.619069
0.726231
0.842136
0.968275
1.10679
1.25368
1.41863
1.59272
1.7542
-0.303816
-0.300942
-0.288803
-0.285263
-0.272403
-0.257475
-0.240218
-0.2117
-0.177346
-0.15298
-0.123014
-0.0852616
-0.0395476
0.00843994
0.0535577
0.100851
0.173598
0.237599
0.308869
0.388877
0.473158
0.553534
0.655417
0.773746
0.87791
0.991001
1.13801
1.27968
1.4223
1.58236
1.75612
1.94473
2.10436
-0.123951
-0.120366
-0.10623
-0.101144
-0.07403
-0.0557706
-0.0325546
-0.0191478
0.0170816
0.0439722
0.0790145
0.134607
0.170627
0.226527
0.290959
0.3453
0.422179
0.496702
0.574638
0.661931
0.754938
0.862804
0.981282
1.08301
1.22207
1.34348
1.47558
1.64957
1.8071
1.97621
2.15852
2.35541
2.5677
0.10868
0.115553
0.116399
0.133612
0.145444
0.168217
0.194561
0.224362
0.266351
0.294448
0.334422
0.379327
0.433157
0.496164
0.564666
0.64579
0.711792
0.786902
0.897758
0.993618
1.09884
1.20973
1.3095
1.44603
1.59237
1.72312
1.89501
2.04428
2.20892
2.42863
2.61786
2.81543
3.03308
0.309572
0.31804
0.334086
0.337675
0.369977
0.389477
0.416068
0.446277
0.47181
0.52245
0.559534
0.604585
0.659028
0.722759
0.796833
0.880928
0.946526
1.04539
1.13565
1.23019
1.33474
1.45006
1.57696
1.7115
1.86441
1.98785
2.16156
2.30182
2.51183
2.67687
2.85245
3.03931
3.23668
-0.898407
-0.906301
-0.901263
-0.901477
-0.898845
-0.892393
-0.888512
-0.878101
-0.871897
-0.870956
-0.862376
-0.845166
-0.835452
-0.824571
-0.810491
-0.799381
-0.781287
-0.760113
-0.732203
-0.706668
-0.678324
-0.645384
-0.606801
-0.567162
-0.526031
-0.474608
-0.410811
-0.354149
-0.29009
-0.207417
-0.125104
-0.0345722
0.0665871
-0.905827
-0.905235
-0.89809
-0.898833
-0.896226
-0.890263
-0.890266
-0.876877
-0.870863
-0.869515
-0.862896
-0.85203
-0.835499
-0.820888
-0.805148
-0.796839
-0.774239
-0.757064
-0.725005
-0.699449
-0.670817
-0.637118
-0.601607
-0.557262
-0.516273
-0.46585
-0.415679
-0.346312
-0.280529
-0.19604
-0.112993
-0.0213614
0.0764103
-0.900948
-0.898407
-0.903115
-0.901386
-0.898721
-0.895109
-0.884435
-0.881427
-0.875989
-0.867256
-0.860951
-0.849131
-0.839671
-0.82717
-0.810605
-0.790546
-0.777379
-0.75039
-0.72962
-0.705547
-0.676934
-0.642512
-0.602705
-0.561016
-0.509965
-0.465962
-0.402876
-0.343725
-0.268019
-0.193531
-0.111746
-0.0206757
0.082129
-0.902483
-0.899431
-0.898737
-0.892572
-0.889243
-0.890092
-0.885101
-0.882604
-0.873009
-0.865801
-0.851967
-0.845975
-0.834297
-0.821827
-0.808565
-0.788275
-0.770898
-0.747247
-0.725813
-0.701324
-0.672203
-0.637208
-0.596785
-0.550299
-0.5021
-0.452679
-0.392919
-0.33297
-0.256406
-0.180648
-0.0969722
-0.0027606
0.115138
-0.893671
-0.891335
-0.896187
-0.893865
-0.890395
-0.885743
-0.873903
-0.869807
-0.863556
-0.854112
-0.846866
-0.833634
-0.822411
-0.809181
-0.792956
-0.779837
-0.760421
-0.737861
-0.708557
-0.681443
-0.651128
-0.616035
-0.57412
-0.529966
-0.476403
-0.430424
-0.364781
-0.304901
-0.236833
-0.149912
-0.0635879
0.0314764
0.137665
-0.888897
-0.892564
-0.890725
-0.88676
-0.883217
-0.879699
-0.874197
-0.862837
-0.85509
-0.851933
-0.843132
-0.831105
-0.812382
-0.796436
-0.779015
-0.76536
-0.744765
-0.721445
-0.690513
-0.662204
-0.630606
-0.594386
-0.551571
-0.505846
-0.450703
-0.403017
-0.335297
-0.272075
-0.191534
-0.11207
-0.0250393
0.0712574
0.179369
-0.884959
-0.880082
-0.874868
-0.873518
-0.869432
-0.862534
-0.85973
-0.857204
-0.849817
-0.83828
-0.826515
-0.814849
-0.802663
-0.780118
-0.767346
-0.74535
-0.721784
-0.697152
-0.66508
-0.635507
-0.603341
-0.565868
-0.521817
-0.470754
-0.417596
-0.363401
-0.297153
-0.221076
-0.144183
-0.0629107
0.0407403
0.143958
0.252501
-0.867035
-0.86193
-0.856711
-0.855625
-0.851708
-0.844175
-0.839467
-0.827575
-0.819725
-0.815708
-0.800682
-0.783679
-0.771079
-0.752263
-0.736412
-0.711397
-0.682902
-0.662882
-0.633431
-0.595293
-0.559486
-0.519911
-0.473978
-0.421181
-0.365303
-0.298702
-0.239377
-0.158686
-0.0826507
0.0132491
0.108776
0.21467
0.347672
-0.833127
-0.836776
-0.834278
-0.830137
-0.82593
-0.816967
-0.808532
-0.800098
-0.792688
-0.780779
-0.768065
-0.753762
-0.73343
-0.715561
-0.694823
-0.669404
-0.63972
-0.613445
-0.578746
-0.544851
-0.493925
-0.449689
-0.40088
-0.350168
-0.287625
-0.218105
-0.155298
-0.0694583
0.023285
0.114364
0.227783
0.338572
0.459044
-0.798431
-0.796471
-0.787025
-0.785867
-0.78205
-0.774487
-0.770127
-0.759146
-0.750046
-0.736537
-0.718293
-0.696182
-0.68173
-0.662931
-0.626886
-0.597862
-0.569948
-0.542328
-0.501966
-0.466352
-0.41621
-0.369895
-0.31436
-0.255686
-0.19286
-0.117698
-0.0341206
0.0550594
0.158446
0.253687
0.373183
0.489178
0.617104
-0.744493
-0.738615
-0.73226
-0.727002
-0.722214
-0.712591
-0.703935
-0.694972
-0.684967
-0.661901
-0.642103
-0.626879
-0.604125
-0.577969
-0.542233
-0.510273
-0.474595
-0.434856
-0.402228
-0.350263
-0.294347
-0.239303
-0.182328
-0.116713
-0.0304767
0.0535995
0.139567
0.225004
0.333786
0.450586
0.563315
0.709055
0.84632
-0.658454
-0.662184
-0.653774
-0.650146
-0.634351
-0.623272
-0.617581
-0.604278
-0.589437
-0.57355
-0.551526
-0.52426
-0.494575
-0.455383
-0.425649
-0.39206
-0.352411
-0.306135
-0.25364
-0.192928
-0.129579
-0.0682584
-0.00353228
0.0820663
0.164873
0.254938
0.354495
0.464332
0.58114
0.714154
0.835282
0.993696
1.1643
-0.546807
-0.541487
-0.534728
-0.529189
-0.522264
-0.509746
-0.491432
-0.47295
-0.455297
-0.435853
-0.399707
-0.367277
-0.34152
-0.304256
-0.26519
-0.21461
-0.167639
-0.114778
-0.053954
0.0151347
0.0919433
0.158481
0.250099
0.332453
0.423934
0.542
0.655027
0.777769
0.912475
1.06008
1.21667
1.36535
1.54885
-0.363056
-0.369106
-0.359915
-0.356401
-0.332882
-0.317268
-0.302363
-0.288148
-0.258343
-0.236517
-0.208309
-0.173059
-0.131282
-0.0817384
-0.0297294
0.019834
0.071755
0.146419
0.217064
0.293443
0.361759
0.449841
0.554199
0.645298
0.769268
0.879933
1.00109
1.15967
1.30775
1.46691
1.60689
1.79009
1.986
-0.171255
-0.164787
-0.156476
-0.150625
-0.141171
-0.114623
-0.10686
-0.0817078
-0.053052
-0.0249926
0.0179407
0.0549838
0.0974761
0.132928
0.190077
0.251532
0.304625
0.371194
0.459946
0.540124
0.627277
0.703064
0.804456
0.92241
1.02204
1.16172
1.28174
1.44463
1.59409
1.74945
1.91748
2.0998
2.2921
-0.946744
-0.944458
-0.944248
-0.940259
-0.9442
-0.943019
-0.934008
-0.932231
-0.929776
-0.93389
-0.925643
-0.923194
-0.920599
-0.921142
-0.91699
-0.910085
-0.89808
-0.888632
-0.877312
-0.862466
-0.849005
-0.834798
-0.814758
-0.79625
-0.763084
-0.735206
-0.707083
-0.667916
-0.614716
-0.570177
-0.51596
-0.447908
-0.374117
-0.945066
-0.943024
-0.947502
-0.946135
-0.944847
-0.944225
-0.94315
-0.943225
-0.940085
-0.937577
-0.933501
-0.925925
-0.926876
-0.920612
-0.913869
-0.909527
-0.893087
-0.883737
-0.871796
-0.861741
-0.851327
-0.834951
-0.808999
-0.789226
-0.759373
-0.731346
-0.699446
-0.661843
-0.617275
-0.569366
-0.509049
-0.443923
-0.364874
-0.941073
-0.944115
-0.9431
-0.9439
-0.942054
-0.937091
-0.939694
-0.940042
-0.93594
-0.929016
-0.929924
-0.928706
-0.924273
-0.917402
-0.913245
-0.90487
-0.898821
-0.890709
-0.879352
-0.86432
-0.848826
-0.826531
-0.81143
-0.782474
-0.759217
-0.731217
-0.689457
-0.648472
-0.606208
-0.552934
-0.496561
-0.436378
-0.363044
-0.943031
-0.941084
-0.945488
-0.947457
-0.94576
-0.941302
-0.944017
-0.940573
-0.939754
-0.932578
-0.93285
-0.927835
-0.926512
-0.919194
-0.914718
-0.905993
-0.89977
-0.891337
-0.879633
-0.864296
-0.844931
-0.826002
-0.80655
-0.780542
-0.755511
-0.719149
-0.683402
-0.642948
-0.600029
-0.545767
-0.483115
-0.416131
-0.349663
-0.943018
-0.946772
-0.945153
-0.945247
-0.94241
-0.936854
-0.938663
-0.938382
-0.934905
-0.933912
-0.92811
-0.924221
-0.918449
-0.910403
-0.909411
-0.896145
-0.889502
-0.880855
-0.868853
-0.85306
-0.837643
-0.821513
-0.79851
-0.770158
-0.741552
-0.713068
-0.67756
-0.631205
-0.581177
-0.525922
-0.476228
-0.405317
-0.327021
-0.94399
-0.947745
-0.945995
-0.942563
-0.944653
-0.944999
-0.940506
-0.937259
-0.932915
-0.931547
-0.924827
-0.921155
-0.91625
-0.914297
-0.908443
-0.899993
-0.885916
-0.874521
-0.860864
-0.844044
-0.827714
-0.811275
-0.787805
-0.754296
-0.728206
-0.697498
-0.652161
-0.607155
-0.560602
-0.502963
-0.442056
-0.377814
-0.299071
-0.949485
-0.946506
-0.948368
-0.942933
-0.94573
-0.941238
-0.942435
-0.940624
-0.935096
-0.92693
-0.926197
-0.923552
-0.917406
-0.907667
-0.898937
-0.889132
-0.874687
-0.863067
-0.849143
-0.831762
-0.814907
-0.797732
-0.773329
-0.73826
-0.709246
-0.668144
-0.628779
-0.58458
-0.533513
-0.478335
-0.409623
-0.335437
-0.24671
-0.939468
-0.940304
-0.940408
-0.94142
-0.938824
-0.933118
-0.934729
-0.933218
-0.928145
-0.920003
-0.917585
-0.906785
-0.899831
-0.897772
-0.886356
-0.874251
-0.865854
-0.850251
-0.827244
-0.810223
-0.788249
-0.770149
-0.744338
-0.708366
-0.67748
-0.634663
-0.593669
-0.547702
-0.494148
-0.432006
-0.36451
-0.283122
-0.195164
-0.93159
-0.935002
-0.932791
-0.929398
-0.930427
-0.924642
-0.923304
-0.923069
-0.918492
-0.913904
-0.907889
-0.896784
-0.888766
-0.879196
-0.866813
-0.857251
-0.841855
-0.828105
-0.803949
-0.782573
-0.757935
-0.729371
-0.696761
-0.670444
-0.632131
-0.589975
-0.538444
-0.487234
-0.42778
-0.350053
-0.275862
-0.1899
-0.109183
-0.927453
-0.922672
-0.914989
-0.914758
-0.91182
-0.90667
-0.90975
-0.909873
-0.905492
-0.896421
-0.884527
-0.878493
-0.863211
-0.847045
-0.836669
-0.8264
-0.806028
-0.784496
-0.765841
-0.743421
-0.707923
-0.675483
-0.647559
-0.60765
-0.563558
-0.512549
-0.458713
-0.394188
-0.330146
-0.258728
-0.177274
-0.0894927
0.0138696
-0.906746
-0.902769
-0.90122
-0.893599
-0.888909
-0.88275
-0.884163
-0.871908
-0.865831
-0.857366
-0.855793
-0.841008
-0.829821
-0.808648
-0.790558
-0.771441
-0.755357
-0.731506
-0.698161
-0.672372
-0.642058
-0.60542
-0.554052
-0.505327
-0.464878
-0.405236
-0.34116
-0.273999
-0.193388
-0.113112
-0.0227989
0.0920719
0.202623
-0.870219
-0.867215
-0.866206
-0.858654
-0.85301
-0.846147
-0.842872
-0.832643
-0.825352
-0.81457
-0.799593
-0.780106
-0.76704
-0.738516
-0.71736
-0.693455
-0.668907
-0.635361
-0.605069
-0.566133
-0.530007
-0.487567
-0.423759
-0.370305
-0.307562
-0.238015
-0.171525
-0.0895511
0.00378254
0.0977485
0.197737
0.32456
0.450604
-0.794203
-0.802986
-0.79644
-0.795815
-0.791295
-0.78178
-0.767668
-0.749022
-0.739612
-0.727014
-0.708854
-0.686101
-0.671123
-0.639532
-0.614448
-0.585331
-0.551342
-0.510827
-0.464371
-0.416047
-0.366914
-0.30621
-0.247603
-0.182902
-0.110638
-0.0296653
0.0608862
0.162092
0.273858
0.377663
0.507975
0.658662
0.798551
-0.652076
-0.648454
-0.652321
-0.638892
-0.63246
-0.62222
-0.607935
-0.600786
-0.576792
-0.560832
-0.539807
-0.512931
-0.484845
-0.456669
-0.418389
-0.379907
-0.340765
-0.294116
-0.240314
-0.179119
-0.115304
-0.0516526
0.027245
0.101519
0.188027
0.279143
0.380656
0.493463
0.617897
0.750576
0.901165
1.03805
1.21573
-0.459458
-0.458492
-0.4487
-0.442436
-0.42629
-0.415777
-0.411168
-0.396266
-0.369742
-0.353151
-0.33192
-0.304554
-0.27111
-0.232244
-0.201845
-0.151494
-0.109352
-0.0601795
0.00868625
0.0584692
0.127958
0.207517
0.291979
0.373437
0.475988
0.569818
0.677072
0.79044
0.915659
1.05369
1.19978
1.36466
1.54518
-0.929231
-0.927141
-0.931975
-0.934059
-0.932459
-0.927685
-0.9297
-0.931342
-0.935191
-0.934386
-0.935362
-0.936178
-0.939937
-0.940238
-0.942314
-0.942732
-0.941023
-0.940887
-0.940874
-0.937101
-0.935006
-0.925158
-0.917742
-0.908617
-0.895627
-0.882025
-0.859529
-0.836054
-0.814673
-0.781771
-0.7489
-0.708429
-0.652268
-0.9295
-0.932476
-0.931925
-0.933072
-0.932882
-0.933828
-0.931882
-0.937488
-0.940384
-0.940332
-0.937347
-0.94198
-0.944406
-0.944737
-0.94068
-0.939773
-0.938625
-0.944222
-0.938989
-0.933759
-0.93238
-0.928293
-0.915316
-0.90411
-0.893938
-0.876248
-0.858217
-0.838503
-0.811924
-0.784428
-0.744628
-0.70405
-0.654599
-0.935005
-0.934807
-0.928257
-0.92979
-0.934731
-0.936278
-0.935265
-0.938414
-0.935643
-0.939932
-0.942053
-0.940882
-0.937546
-0.941995
-0.945741
-0.946859
-0.944983
-0.940597
-0.937305
-0.937464
-0.927024
-0.922807
-0.916616
-0.910645
-0.896853
-0.882651
-0.859852
-0.836441
-0.814361
-0.780932
-0.745926
-0.697467
-0.647723
-0.931689
-0.934515
-0.933057
-0.933516
-0.93308
-0.936349
-0.940262
-0.939936
-0.940331
-0.940405
-0.942513
-0.944426
-0.940909
-0.944986
-0.948471
-0.949155
-0.94677
-0.942206
-0.939144
-0.935664
-0.928842
-0.924282
-0.917834
-0.911504
-0.897489
-0.878539
-0.858979
-0.83421
-0.804081
-0.771082
-0.728832
-0.690101
-0.641278
-0.935107
-0.938285
-0.936111
-0.935779
-0.934588
-0.940438
-0.940007
-0.942705
-0.938754
-0.941898
-0.943467
-0.943296
-0.945878
-0.944681
-0.946207
-0.945831
-0.943498
-0.939191
-0.941407
-0.937013
-0.933806
-0.919484
-0.914741
-0.904016
-0.889544
-0.874245
-0.849804
-0.824078
-0.80016
-0.764743
-0.727842
-0.676574
-0.624265
-0.93875
-0.939265
-0.939373
-0.939837
-0.941535
-0.943031
-0.945369
-0.944464
-0.943701
-0.943256
-0.944312
-0.946885
-0.948983
-0.947422
-0.948474
-0.948096
-0.944662
-0.938662
-0.934164
-0.933167
-0.921266
-0.915742
-0.908064
-0.900397
-0.884522
-0.868121
-0.842713
-0.815401
-0.782204
-0.750543
-0.70505
-0.659485
-0.607071
-0.951832
-0.949239
-0.952613
-0.953308
-0.950224
-0.944435
-0.945083
-0.944076
-0.948844
-0.946029
-0.946897
-0.952163
-0.949186
-0.945705
-0.946047
-0.945652
-0.942608
-0.937895
-0.939513
-0.929893
-0.919669
-0.913328
-0.904586
-0.890691
-0.869575
-0.846536
-0.830847
-0.80047
-0.766412
-0.732657
-0.685456
-0.636445
-0.570651
-0.949007
-0.955358
-0.950344
-0.950189
-0.951915
-0.95322
-0.955754
-0.954609
-0.951059
-0.954318
-0.955789
-0.954457
-0.951136
-0.953853
-0.949499
-0.948008
-0.945122
-0.939363
-0.930178
-0.922309
-0.917277
-0.9044
-0.889742
-0.878587
-0.852011
-0.826271
-0.802138
-0.776047
-0.741069
-0.697546
-0.653888
-0.594889
-0.534725
-0.965913
-0.962048
-0.958351
-0.959407
-0.963876
-0.961036
-0.963528
-0.962986
-0.959691
-0.962
-0.956954
-0.955014
-0.951857
-0.952605
-0.948863
-0.946766
-0.936135
-0.928272
-0.919479
-0.917686
-0.903472
-0.887528
-0.874262
-0.851537
-0.830436
-0.805329
-0.774602
-0.741806
-0.697543
-0.649056
-0.60158
-0.53863
-0.473118
-0.970083
-0.970655
-0.970941
-0.972737
-0.971259
-0.970385
-0.969451
-0.970064
-0.966492
-0.963882
-0.961199
-0.960328
-0.956655
-0.949902
-0.943138
-0.934035
-0.925235
-0.919204
-0.909419
-0.899722
-0.881735
-0.862692
-0.836697
-0.818093
-0.794345
-0.757953
-0.722331
-0.685229
-0.636797
-0.5842
-0.518879
-0.457987
-0.379194
-0.984744
-0.982049
-0.981629
-0.976204
-0.973891
-0.978884
-0.972293
-0.971347
-0.967324
-0.960486
-0.960441
-0.952368
-0.946746
-0.938579
-0.928046
-0.920357
-0.908522
-0.897602
-0.877044
-0.859241
-0.838402
-0.812585
-0.786087
-0.758784
-0.723816
-0.688473
-0.638721
-0.590338
-0.535702
-0.472458
-0.40335
-0.319945
-0.241278
-0.981932
-0.979244
-0.980408
-0.981628
-0.979519
-0.973646
-0.968118
-0.96242
-0.957985
-0.953358
-0.94234
-0.933806
-0.920188
-0.908751
-0.89436
-0.8778
-0.8679
-0.844041
-0.824502
-0.794681
-0.767555
-0.736377
-0.699463
-0.657823
-0.622915
-0.570339
-0.52034
-0.454662
-0.389534
-0.31726
-0.234494
-0.140576
-0.0347376
-0.943482
-0.940277
-0.943144
-0.932739
-0.928747
-0.922607
-0.92285
-0.909559
-0.902517
-0.892914
-0.87906
-0.8653
-0.852084
-0.838444
-0.812176
-0.789408
-0.772339
-0.742977
-0.711238
-0.679319
-0.646332
-0.598396
-0.552235
-0.500487
-0.443421
-0.388471
-0.320111
-0.237076
-0.159415
-0.0606825
0.037078
0.148972
0.264038
-0.805256
-0.801957
-0.805737
-0.798354
-0.790087
-0.783717
-0.78429
-0.770032
-0.761605
-0.749914
-0.733843
-0.713037
-0.688592
-0.670976
-0.64079
-0.614203
-0.583567
-0.546894
-0.504929
-0.467396
-0.419039
-0.373421
-0.316562
-0.245185
-0.175916
-0.0999082
-0.0192916
0.0622859
0.166597
0.27976
0.393193
0.529638
0.66236
-0.604067
-0.601083
-0.605619
-0.594016
-0.590323
-0.58263
-0.571398
-0.567235
-0.547548
-0.535509
-0.519617
-0.498168
-0.47244
-0.454767
-0.419713
-0.392288
-0.359348
-0.310559
-0.276581
-0.228016
-0.17128
-0.11093
-0.0511352
0.0250857
0.0960598
0.174165
0.261256
0.358868
0.467612
0.588253
0.716524
0.839116
0.99288
-0.886674
-0.889601
-0.888808
-0.889344
-0.888925
-0.89464
-0.897311
-0.897302
-0.903953
-0.907751
-0.909924
-0.918611
-0.92252
-0.930997
-0.933719
-0.938355
-0.942664
-0.944283
-0.948878
-0.955817
-0.957447
-0.96017
-0.960914
-0.960868
-0.957181
-0.957394
-0.944993
-0.934027
-0.91977
-0.904083
-0.878617
-0.85074
-0.823049
-0.885724
-0.889038
-0.888062
-0.890157
-0.89477
-0.895472
-0.896804
-0.896408
-0.902457
-0.907636
-0.914613
-0.918985
-0.924857
-0.929282
-0.93159
-0.93596
-0.94473
-0.948185
-0.951365
-0.953244
-0.954514
-0.957508
-0.963663
-0.962194
-0.95655
-0.953902
-0.947352
-0.93088
-0.918535
-0.898088
-0.876464
-0.852058
-0.818384
-0.892023
-0.893323
-0.893041
-0.894674
-0.897133
-0.898521
-0.900589
-0.900538
-0.906875
-0.911158
-0.913678
-0.920482
-0.921063
-0.924845
-0.936578
-0.939167
-0.946953
-0.949013
-0.953523
-0.957363
-0.961952
-0.964224
-0.959746
-0.956424
-0.955795
-0.947132
-0.944156
-0.934411
-0.9205
-0.904673
-0.878491
-0.849956
-0.820626
-0.890053
-0.892663
-0.891079
-0.891843
-0.896692
-0.902593
-0.904903
-0.904427
-0.909933
-0.914157
-0.915961
-0.923038
-0.923616
-0.927364
-0.938808
-0.940356
-0.942847
-0.948935
-0.955188
-0.959453
-0.964537
-0.962932
-0.961992
-0.958856
-0.958069
-0.949469
-0.942355
-0.935896
-0.92122
-0.905215
-0.87799
-0.848076
-0.807031
-0.897245
-0.899653
-0.897208
-0.897431
-0.901883
-0.907222
-0.908397
-0.907011
-0.911882
-0.91486
-0.919831
-0.92416
-0.930948
-0.935523
-0.941488
-0.942275
-0.949357
-0.950548
-0.95481
-0.961553
-0.962347
-0.964266
-0.959926
-0.962181
-0.957395
-0.952449
-0.942617
-0.930059
-0.914274
-0.896918
-0.86926
-0.838513
-0.807313
-0.908187
-0.905261
-0.907483
-0.907211
-0.904432
-0.907861
-0.909835
-0.917892
-0.923762
-0.926568
-0.927069
-0.933392
-0.934218
-0.942339
-0.948514
-0.948847
-0.955583
-0.956403
-0.960183
-0.963242
-0.967318
-0.96469
-0.962528
-0.95799
-0.955687
-0.945016
-0.936233
-0.928192
-0.911522
-0.893054
-0.863753
-0.830988
-0.786795
-0.91352
-0.909989
-0.912892
-0.913657
-0.920431
-0.921422
-0.922233
-0.923937
-0.92832
-0.930759
-0.931564
-0.939575
-0.945595
-0.949558
-0.954606
-0.954641
-0.961522
-0.962431
-0.966542
-0.96871
-0.972274
-0.969421
-0.967532
-0.962451
-0.959145
-0.947933
-0.936611
-0.914742
-0.897173
-0.871752
-0.844843
-0.814424
-0.773861
-0.924336
-0.931839
-0.932656
-0.933097
-0.933767
-0.937273
-0.938483
-0.937008
-0.942133
-0.945677
-0.947194
-0.954813
-0.955954
-0.959444
-0.961812
-0.962776
-0.97043
-0.971425
-0.974099
-0.969948
-0.968492
-0.968595
-0.961737
-0.955994
-0.952436
-0.940216
-0.92838
-0.905552
-0.8867
-0.859231
-0.825347
-0.788155
-0.750133
-0.951263
-0.952393
-0.952502
-0.953212
-0.954292
-0.955053
-0.957414
-0.960542
-0.96237
-0.960213
-0.961011
-0.969981
-0.969277
-0.97461
-0.978236
-0.979286
-0.980913
-0.976813
-0.97384
-0.974782
-0.973097
-0.965777
-0.956724
-0.949948
-0.942306
-0.928695
-0.90857
-0.890279
-0.865807
-0.831595
-0.792373
-0.747635
-0.706373
-0.980949
-0.978422
-0.982508
-0.983966
-0.982114
-0.985919
-0.98368
-0.988823
-0.987568
-0.99018
-0.985664
-0.985055
-0.988581
-0.9887
-0.990512
-0.984464
-0.982582
-0.984823
-0.983248
-0.978087
-0.974638
-0.962473
-0.952271
-0.939715
-0.92671
-0.904822
-0.881543
-0.859688