/*--------------------------------*- C++ -*----------------------------------*\
| =========                 |                                                 |
| \\      /  F ield         | OpenFOAM: The Open Source CFD Toolbox           |
|  \\    /   O peration     | Version:  2412                                  |
|   \\  /    A nd           | Website:  www.openfoam.com                      |
|    \\/     M anipulation  |                                                 |
\*---------------------------------------------------------------------------*/
FoamFile
{
    version     2.0;
    format      ascii;
    arch        "LSB;label=32;scalar=64";
    class       volScalarField;
    location    "0.0250162";
    object      Jsi;
}
// * * * * * * * * * * * * * * * * * * * * * * * * * * * * * * * * * * * * * //

dimensions      [0 0 0 0 0 0 0];

internalField   nonuniform List<scalar> 
8679
(
-0.171433
-0.171516
-0.171319
-0.171008
-0.170782
-0.170484
-0.170121
-0.169766
-0.169262
-0.168728
-0.167945
-0.167229
-0.166467
-0.165729
-0.164838
-0.163785
-0.162832
-0.161828
-0.160726
-0.159463
-0.15821
-0.156801
-0.155286
-0.153701
-0.152211
-0.15049
-0.148846
-0.14712
-0.145165
-0.143142
-0.141105
-0.138964
-0.136701
-0.171487
-0.171378
-0.171184
-0.171061
-0.170785
-0.170374
-0.170072
-0.169649
-0.169056
-0.168553
-0.167975
-0.167244
-0.166524
-0.165648
-0.164681
-0.163783
-0.16265
-0.161599
-0.160482
-0.159269
-0.157966
-0.156565
-0.155088
-0.1537
-0.152077
-0.150495
-0.148676
-0.146924
-0.145065
-0.142976
-0.14089
-0.13873
-0.136469
-0.171096
-0.171008
-0.170981
-0.170712
-0.170496
-0.17019
-0.169776
-0.169264
-0.168812
-0.168111
-0.167494
-0.166819
-0.166053
-0.165202
-0.164429
-0.16342
-0.162481
-0.161468
-0.160263
-0.158928
-0.157731
-0.156423
-0.154931
-0.153361
-0.151873
-0.150145
-0.148482
-0.146715
-0.144665
-0.142688
-0.140649
-0.138499
-0.136226
-0.18304
-0.182972
-0.182898
-0.182686
-0.182471
-0.182172
-0.181789
-0.181413
-0.180918
-0.180431
-0.179866
-0.17921
-0.178463
-0.17764
-0.176883
-0.175907
-0.175001
-0.174036
-0.172982
-0.171841
-0.170638
-0.169519
-0.16818
-0.166898
-0.165396
-0.163976
-0.16251
-0.160964
-0.159318
-0.157581
-0.155749
-0.153817
-0.151844
-0.182895
-0.182809
-0.182775
-0.18251
-0.182295
-0.181996
-0.18162
-0.181297
-0.180742
-0.180248
-0.179689
-0.17904
-0.178316
-0.1776
-0.17677
-0.175918
-0.174836
-0.173822
-0.172757
-0.171634
-0.170606
-0.169345
-0.168045
-0.166738
-0.165402
-0.163813
-0.162302
-0.160741
-0.159093
-0.157351
-0.155513
-0.153635
-0.151615
-0.18282
-0.182707
-0.182519
-0.182406
-0.18222
-0.181922
-0.18152
-0.181032
-0.180594
-0.179923
-0.179321
-0.17868
-0.178124
-0.177341
-0.176533
-0.175603
-0.174693
-0.17373
-0.172683
-0.171545
-0.170346
-0.169233
-0.167897
-0.166615
-0.165113
-0.163685
-0.162198
-0.160593
-0.158783
-0.157011
-0.155303
-0.15341
-0.151436
-0.182525
-0.182407
-0.18221
-0.182092
-0.181904
-0.181612
-0.181209
-0.18072
-0.180281
-0.179606
-0.178999
-0.178356
-0.177739
-0.177004
-0.176192
-0.175259
-0.174344
-0.173377
-0.172323
-0.171187
-0.169987
-0.168868
-0.167524
-0.166241
-0.164735
-0.163298
-0.161778
-0.160045
-0.158324
-0.156551
-0.154729
-0.152933
-0.15093
-0.181901
-0.181809
-0.181763
-0.181489
-0.181265
-0.180964
-0.180583
-0.18025
-0.179687
-0.179177
-0.178602
-0.177943
-0.177213
-0.17649
-0.17565
-0.174739
-0.1737
-0.172673
-0.171602
-0.170481
-0.169453
-0.168183
-0.166817
-0.165558
-0.164213
-0.162617
-0.161091
-0.159509
-0.157844
-0.156087
-0.15423
-0.152276
-0.150275
-0.193417
-0.193495
-0.193351
-0.193237
-0.193034
-0.192716
-0.192295
-0.191793
-0.191374
-0.190904
-0.19035
-0.18972
-0.189102
-0.188376
-0.18766
-0.186822
-0.185951
-0.184991
-0.184006
-0.182904
-0.181892
-0.180684
-0.179526
-0.178214
-0.176868
-0.175526
-0.17412
-0.172692
-0.171132
-0.169503
-0.167969
-0.166221
-0.164524
-0.193507
-0.193403
-0.19322
-0.1931
-0.192897
-0.192597
-0.192212
-0.191864
-0.1913
-0.190794
-0.190228
-0.189588
-0.189014
-0.188228
-0.187494
-0.186706
-0.185834
-0.184877
-0.183836
-0.182735
-0.181716
-0.180501
-0.179371
-0.178186
-0.176903
-0.175434
-0.17398
-0.172505
-0.171074
-0.169471
-0.167816
-0.166018
-0.164304
-0.193233
-0.193149
-0.193128
-0.192953
-0.192631
-0.192319
-0.192085
-0.191647
-0.191249
-0.190721
-0.190191
-0.189522
-0.188784
-0.188104
-0.187215
-0.186388
-0.18551
-0.184582
-0.183675
-0.182644
-0.181474
-0.180393
-0.179247
-0.177882
-0.176593
-0.175258
-0.173853
-0.172361
-0.170846
-0.169215
-0.167612
-0.165889
-0.164001
-0.192999
-0.192902
-0.192845
-0.192568
-0.192334
-0.192052
-0.191778
-0.191387
-0.190986
-0.190451
-0.189869
-0.189241
-0.188497
-0.187812
-0.186915
-0.186089
-0.18521
-0.184278
-0.183366
-0.182337
-0.181165
-0.180062
-0.178757
-0.177533
-0.176265
-0.174939
-0.173534
-0.17204
-0.170519
-0.168865
-0.167147
-0.165516
-0.163659
-0.192623
-0.192557
-0.192359
-0.192217
-0.192007
-0.191699
-0.191307
-0.190908
-0.190385
-0.189863
-0.189282
-0.188639
-0.188052
-0.187262
-0.18653
-0.185735
-0.184804
-0.183888
-0.182849
-0.181745
-0.180733
-0.179524
-0.178383
-0.177173
-0.175723
-0.174336
-0.172908
-0.171468
-0.169916
-0.168389
-0.166747
-0.164953
-0.163223
-0.191934
-0.191817
-0.191616
-0.191485
-0.191283
-0.190984
-0.190595
-0.190198
-0.189673
-0.189148
-0.188596
-0.188053
-0.187378
-0.186542
-0.185796
-0.185005
-0.184135
-0.183172
-0.182128
-0.181026
-0.180011
-0.178796
-0.177655
-0.176442
-0.174988
-0.173598
-0.172167
-0.170719
-0.169139
-0.167494
-0.165876
-0.164138
-0.162235
-0.190938
-0.190857
-0.190758
-0.190544
-0.190319
-0.190007
-0.189621
-0.189311
-0.188852
-0.188244
-0.187655
-0.1871
-0.186417
-0.185578
-0.18483
-0.184041
-0.183176
-0.182215
-0.18117
-0.180062
-0.179051
-0.177835
-0.176665
-0.175278
-0.173971
-0.172625
-0.171214
-0.169717
-0.168139
-0.166539
-0.164803
-0.163082
-0.161235
-0.18951
-0.18954
-0.189453
-0.189295
-0.189106
-0.188814
-0.188407
-0.187973
-0.187569
-0.187038
-0.18647
-0.185821
-0.185142
-0.184416
-0.183586
-0.182774
-0.181905
-0.180947
-0.179897
-0.178766
-0.177582
-0.176493
-0.175193
-0.173974
-0.17271
-0.17135
-0.169799
-0.168273
-0.166717
-0.165191
-0.163478
-0.161702
-0.159774
-0.187814
-0.18775
-0.187731
-0.187474
-0.187266
-0.187012
-0.186756
-0.18637
-0.1859
-0.185308
-0.184717
-0.184082
-0.183468
-0.182724
-0.18183
-0.181033
-0.180181
-0.179248
-0.178227
-0.177117
-0.175943
-0.174862
-0.173566
-0.172336
-0.170953
-0.169539
-0.168118
-0.166628
-0.165051
-0.163387
-0.161684
-0.159824
-0.157878
-0.185784
-0.185809
-0.185708
-0.185515
-0.18519
-0.184868
-0.184498
-0.184194
-0.18366
-0.183188
-0.182651
-0.182023
-0.181302
-0.180507
-0.179811
-0.178991
-0.178039
-0.17709
-0.176072
-0.174977
-0.173823
-0.172756
-0.171455
-0.170117
-0.168774
-0.167419
-0.165878
-0.164347
-0.16276
-0.161082
-0.159304
-0.157437
-0.155538
-0.18337
-0.183264
-0.183082
-0.182969
-0.182777
-0.18249
-0.182105
-0.181627
-0.181118
-0.180602
-0.180081
-0.179468
-0.178755
-0.177976
-0.177278
-0.176374
-0.175524
-0.174584
-0.173452
-0.172352
-0.171311
-0.170112
-0.168793
-0.167446
-0.166131
-0.164604
-0.163163
-0.161667
-0.160074
-0.158363
-0.156453
-0.154656
-0.152686
-0.180139
-0.180052
-0.179975
-0.179778
-0.179585
-0.179309
-0.178927
-0.17846
-0.178007
-0.177454
-0.176921
-0.176314
-0.175615
-0.174851
-0.174119
-0.173269
-0.172345
-0.171308
-0.17028
-0.169191
-0.168036
-0.166794
-0.165477
-0.164235
-0.162761
-0.161241
-0.159704
-0.158153
-0.156396
-0.154649
-0.152828
-0.150913
-0.148884
-0.176345
-0.176325
-0.176256
-0.176053
-0.175803
-0.175534
-0.17516
-0.174687
-0.174194
-0.173697
-0.17316
-0.172428
-0.171735
-0.171084
-0.170257
-0.169378
-0.168451
-0.16741
-0.16639
-0.165245
-0.164071
-0.162805
-0.161511
-0.160075
-0.158559
-0.157129
-0.155467
-0.153846
-0.152033
-0.150242
-0.148387
-0.146428
-0.144345
-0.171964
-0.17189
-0.171828
-0.171638
-0.171392
-0.171121
-0.170752
-0.170285
-0.169795
-0.169277
-0.168654
-0.167972
-0.167279
-0.166496
-0.165668
-0.164702
-0.163772
-0.162717
-0.161671
-0.160537
-0.159145
-0.157833
-0.15655
-0.155232
-0.153714
-0.152091
-0.150526
-0.148723
-0.146951
-0.144984
-0.143031
-0.140999
-0.138857
-0.167954
-0.16785
-0.167717
-0.167525
-0.167214
-0.166916
-0.166545
-0.166079
-0.165546
-0.165098
-0.164421
-0.163822
-0.16315
-0.162372
-0.161484
-0.160511
-0.15956
-0.158495
-0.157422
-0.156113
-0.154876
-0.153577
-0.152189
-0.150707
-0.149119
-0.147511
-0.145864
-0.144092
-0.142227
-0.140228
-0.13816
-0.136046
-0.133704
-0.203255
-0.203176
-0.203126
-0.20285
-0.202601
-0.202296
-0.202028
-0.201545
-0.201109
-0.200616
-0.20005
-0.199535
-0.198821
-0.198153
-0.197436
-0.196636
-0.19575
-0.194793
-0.1939
-0.192823
-0.191826
-0.190787
-0.18968
-0.188496
-0.187244
-0.185912
-0.184561
-0.183105
-0.181675
-0.180139
-0.178524
-0.176951
-0.175259
-0.20316
-0.203074
-0.203042
-0.202861
-0.202558
-0.202326
-0.201997
-0.201585
-0.201062
-0.200563
-0.200085
-0.199503
-0.198841
-0.198073
-0.197311
-0.196495
-0.195618
-0.194809
-0.193803
-0.192841
-0.191693
-0.190608
-0.189489
-0.188305
-0.18705
-0.185719
-0.184367
-0.182906
-0.181538
-0.179969
-0.178454
-0.17679
-0.175144
-0.203134
-0.203024
-0.202838
-0.202709
-0.202487
-0.202162
-0.201761
-0.201429
-0.201031
-0.200535
-0.199945
-0.199272
-0.198681
-0.198032
-0.197244
-0.196429
-0.195582
-0.194624
-0.193684
-0.192655
-0.191612
-0.190426
-0.189258
-0.188056
-0.186815
-0.185608
-0.184246
-0.182834
-0.181301
-0.179852
-0.178266
-0.176619
-0.174862
-0.202879
-0.202814
-0.20262
-0.202473
-0.202253
-0.201934
-0.201541
-0.201208
-0.200759
-0.200304
-0.199698
-0.199023
-0.198423
-0.197703
-0.19687
-0.196136
-0.195313
-0.194339
-0.19331
-0.192365
-0.191355
-0.19013
-0.188963
-0.187759
-0.186548
-0.18524
-0.183957
-0.182571
-0.181046
-0.179596
-0.177942
-0.176348
-0.17459
-0.202423
-0.202334
-0.202228
-0.201996
-0.201749
-0.201436
-0.201163
-0.20068
-0.200232
-0.199716
-0.199138
-0.198606
-0.197879
-0.197201
-0.196464
-0.195659
-0.194761
-0.193796
-0.192899
-0.191821
-0.190824
-0.189779
-0.188663
-0.187469
-0.186199
-0.184859
-0.183505
-0.182043
-0.180603
-0.179063
-0.177433
-0.175796
-0.174141
-0.201767
-0.201683
-0.201575
-0.201344
-0.201125
-0.200918
-0.200596
-0.200177
-0.19964
-0.199122
-0.198637
-0.198047
-0.197368
-0.19658
-0.195805
-0.194985
-0.194112
-0.193255
-0.192302
-0.19129
-0.190201
-0.189131
-0.188008
-0.186808
-0.185536
-0.184195
-0.182786
-0.181373
-0.179932
-0.178389
-0.176765
-0.175125
-0.17347
-0.200858
-0.200862
-0.200743
-0.200555
-0.200332
-0.200023
-0.199678
-0.199304
-0.198893
-0.198387
-0.197787
-0.197164
-0.196481
-0.195686
-0.194913
-0.194087
-0.193213
-0.192354
-0.191379
-0.190273
-0.189271
-0.188226
-0.187081
-0.18576
-0.184456
-0.183134
-0.181854
-0.180474
-0.178959
-0.177502
-0.175814
-0.174097
-0.172418
-0.199644
-0.199561
-0.199452
-0.199228
-0.199016
-0.198818
-0.198429
-0.197981
-0.197558
-0.197074
-0.196509
-0.195946
-0.19528
-0.194557
-0.193798
-0.192892
-0.192086
-0.191149
-0.190159
-0.189051
-0.188047
-0.186989
-0.185704
-0.184486
-0.183225
-0.181954
-0.180563
-0.179114
-0.177696
-0.17617
-0.174543
-0.172869
-0.171087
-0.197936
-0.197863
-0.197854
-0.197679
-0.197386
-0.197176
-0.196797
-0.196364
-0.195951
-0.195469
-0.194899
-0.194256
-0.19362
-0.192879
-0.192148
-0.191356
-0.190497
-0.189554
-0.188542
-0.187602
-0.186471
-0.1854
-0.184123
-0.182926
-0.181686
-0.180386
-0.179063
-0.177597
-0.17605
-0.174492
-0.172906
-0.171229
-0.169482
-0.195992
-0.195908
-0.19581
-0.195594
-0.195362
-0.195062
-0.194692
-0.194364
-0.193821
-0.193329
-0.192771
-0.192145
-0.191587
-0.190824
-0.190121
-0.189364
-0.188526
-0.187605
-0.186596
-0.18551
-0.18442
-0.183339
-0.182241
-0.180982
-0.179735
-0.178386
-0.177063
-0.175603
-0.17406
-0.172434
-0.170799
-0.169133
-0.167362
-0.193445
-0.193356
-0.193306
-0.193041
-0.192823
-0.192535
-0.192219
-0.19186
-0.191331
-0.190856
-0.190318
-0.189695
-0.189051
-0.188367
-0.187588
-0.186771
-0.185947
-0.185048
-0.184061
-0.182996
-0.181925
-0.180836
-0.179654
-0.178457
-0.177053
-0.175731
-0.174363
-0.172928
-0.171401
-0.169835
-0.168126
-0.166403
-0.164636
-0.19043
-0.190377
-0.190196
-0.190073
-0.189824
-0.189539
-0.189217
-0.188747
-0.188205
-0.18775
-0.187229
-0.186612
-0.185903
-0.18518
-0.184452
-0.183706
-0.182729
-0.181808
-0.180826
-0.17977
-0.178705
-0.177619
-0.17642
-0.175076
-0.173824
-0.172506
-0.171008
-0.16946
-0.167971
-0.166341
-0.164625
-0.162822
-0.161098
-0.186612
-0.186558
-0.186365
-0.186224
-0.185862
-0.185558
-0.185203
-0.184919
-0.18442
-0.183983
-0.18345
-0.182743
-0.182147
-0.181396
-0.18056
-0.179782
-0.17885
-0.177878
-0.176899
-0.175845
-0.174764
-0.173551
-0.17227
-0.17108
-0.16968
-0.168355
-0.166935
-0.165328
-0.163727
-0.16206
-0.160311
-0.158464
-0.156518
-0.181868
-0.181787
-0.181707
-0.181506
-0.181296
-0.180961
-0.180594
-0.180202
-0.179684
-0.179272
-0.178732
-0.178144
-0.177459
-0.176675
-0.175848
-0.174909
-0.174065
-0.173136
-0.171971
-0.170881
-0.16974
-0.168602
-0.167428
-0.166089
-0.1647
-0.163271
-0.16173
-0.160182
-0.15848
-0.156635
-0.154813
-0.152985
-0.151008
-0.177465
-0.177359
-0.177167
-0.177029
-0.176664
-0.176365
-0.17601
-0.175643
-0.175234
-0.174678
-0.174183
-0.173616
-0.172952
-0.172191
-0.171328
-0.170387
-0.169529
-0.168518
-0.167448
-0.166379
-0.165242
-0.164027
-0.162724
-0.161391
-0.159918
-0.158469
-0.156911
-0.155333
-0.153516
-0.151764
-0.149946
-0.148023
-0.145985
-0.21234
-0.212389
-0.212232
-0.212084
-0.211852
-0.211524
-0.211177
-0.210714
-0.210265
-0.209844
-0.209295
-0.208604
-0.20797
-0.207298
-0.206561
-0.205828
-0.204989
-0.204078
-0.203077
-0.202086
-0.201057
-0.19997
-0.198815
-0.197655
-0.196464
-0.19518
-0.193766
-0.192439
-0.19105
-0.189511
-0.187982
-0.186408
-0.184763
-0.212391
-0.212334
-0.212147
-0.212007
-0.211778
-0.211462
-0.211169
-0.210673
-0.210228
-0.209804
-0.209282
-0.208662
-0.207943
-0.207213
-0.206447
-0.205743
-0.204846
-0.203984
-0.202931
-0.201939
-0.200904
-0.199806
-0.198687
-0.197468
-0.196281
-0.195018
-0.193749
-0.192298
-0.190888
-0.189329
-0.187796
-0.186214
-0.184617
-0.212214
-0.212136
-0.212098
-0.211933
-0.211707
-0.21142
-0.211002
-0.210635
-0.210201
-0.209688
-0.209163
-0.208541
-0.207911
-0.207213
-0.206436
-0.205593
-0.204805
-0.203838
-0.202924
-0.201958
-0.200927
-0.199816
-0.198639
-0.197447
-0.196156
-0.194947
-0.193551
-0.192198
-0.190714
-0.189252
-0.187749
-0.186185
-0.184534
-0.212035
-0.211948
-0.211838
-0.211617
-0.211383
-0.211153
-0.210813
-0.210456
-0.209969
-0.209471
-0.208857
-0.208303
-0.207651
-0.206959
-0.206229
-0.20539
-0.204556
-0.203637
-0.202723
-0.201759
-0.200728
-0.199616
-0.198436
-0.197188
-0.195938
-0.194669
-0.193326
-0.191977
-0.190496
-0.189029
-0.187511
-0.185914
-0.184159
-0.211594
-0.21152
-0.211484
-0.21131
-0.211072
-0.210771
-0.210337
-0.209955
-0.209509
-0.208988
-0.208453
-0.207817
-0.20717
-0.206473
-0.205715
-0.204965
-0.204124
-0.203213
-0.202216
-0.201226
-0.200192
-0.199094
-0.197913
-0.19671
-0.195409
-0.194197
-0.192799
-0.191471
-0.190075
-0.188534
-0.187006
-0.185426
-0.183771
-0.211066
-0.211061
-0.210945
-0.21075
-0.210515
-0.210235
-0.209882
-0.209419
-0.20896
-0.208518
-0.207977
-0.207352
-0.206618
-0.205884
-0.205114
-0.204362
-0.203514
-0.202604
-0.201598
-0.200606
-0.199571
-0.198477
-0.197303
-0.1961
-0.194799
-0.193585
-0.19218
-0.190828
-0.189345
-0.18788
-0.186374
-0.184811
-0.183161
-0.210325
-0.210213
-0.210051
-0.209888
-0.20965
-0.209337
-0.209031
-0.20869
-0.208248
-0.207715
-0.207144
-0.206534
-0.205885
-0.20509
-0.204376
-0.203538
-0.202664
-0.201751
-0.20075
-0.199763
-0.198745
-0.197661
-0.196497
-0.195254
-0.194006
-0.19274
-0.191385
-0.189945
-0.188495
-0.187031
-0.1854
-0.183776
-0.182155
-0.209113
-0.209
-0.208843
-0.208689
-0.20846
-0.208145
-0.20782
-0.207375
-0.20694
-0.20651
-0.205916
-0.205266
-0.204634
-0.203902
-0.203184
-0.202332
-0.201425
-0.200598
-0.199644
-0.198594
-0.197557
-0.19648
-0.19533
-0.194108
-0.192869
-0.191528
-0.19027
-0.188826
-0.187431
-0.185893
-0.184351
-0.182733
-0.180937
-0.207408
-0.207407
-0.207294
-0.207111
-0.206887
-0.206565
-0.206214
-0.205822
-0.20541
-0.204909
-0.204366
-0.203763
-0.203072
-0.202378
-0.20163
-0.200808
-0.199922
-0.199053
-0.198091
-0.197114
-0.19595
-0.194857
-0.193725
-0.192588
-0.191327
-0.190009
-0.18876
-0.187305
-0.185812
-0.18433
-0.182707
-0.18111
-0.179463
-0.205408
-0.205339
-0.205136
-0.204994
-0.204786
-0.204501
-0.204213
-0.203822
-0.20341
-0.20291
-0.202321
-0.201661
-0.201064
-0.20039
-0.199502
-0.198676
-0.197863
-0.197031
-0.19606
-0.195122
-0.194038
-0.192986
-0.191837
-0.190668
-0.189468
-0.188143
-0.186748
-0.185327
-0.183787
-0.182331
-0.180727
-0.179141
-0.177466
-0.202867
-0.202751
-0.202591
-0.202402
-0.20219
-0.201892
-0.20158
-0.201225
-0.200827
-0.200253
-0.199683
-0.199135
-0.198491
-0.197768
-0.196935
-0.196125
-0.19527
-0.19437
-0.19353
-0.192485
-0.191404
-0.190319
-0.189227
-0.188046
-0.186692
-0.185352
-0.184042
-0.18271
-0.181218
-0.179691
-0.178169
-0.176426
-0.174727
-0.199595
-0.199593
-0.199423
-0.199263
-0.198943
-0.198645
-0.198377
-0.198014
-0.197592
-0.197135
-0.19658
-0.195941
-0.195258
-0.194452
-0.193738
-0.192979
-0.192145
-0.19123
-0.190244
-0.189171
-0.188093
-0.187021
-0.185929
-0.184673
-0.183424
-0.182127
-0.180759
-0.179318
-0.177853
-0.176264
-0.17475
-0.172997
-0.171196
-0.195588
-0.195496
-0.195362
-0.195197
-0.194993
-0.194701
-0.194321
-0.193929
-0.193509
-0.193052
-0.192406
-0.191768
-0.191177
-0.190477
-0.189715
-0.188859
-0.188012
-0.187104
-0.186112
-0.185043
-0.183916
-0.182882
-0.181656
-0.180503
-0.179271
-0.177866
-0.176465
-0.175
-0.173457
-0.171838
-0.170206
-0.168538
-0.166759
-0.190332
-0.190355
-0.190211
-0.190077
-0.18972
-0.189413
-0.189116
-0.188782
-0.188295
-0.18786
-0.187342
-0.186732
-0.186037
-0.18525
-0.184444
-0.183622
-0.182785
-0.181763
-0.180742
-0.179696
-0.178694
-0.177593
-0.176341
-0.175169
-0.173787
-0.17247
-0.171067
-0.169467
-0.167878
-0.166251
-0.164657
-0.162889
-0.161048
-0.185276
-0.18518
-0.185051
-0.184887
-0.184669
-0.184304
-0.184048
-0.183643
-0.183196
-0.182688
-0.182076
-0.181473
-0.180817
-0.180168
-0.179349
-0.178499
-0.177672
-0.176694
-0.1756
-0.174535
-0.173444
-0.172377
-0.171201
-0.169879
-0.168622
-0.167161
-0.165745
-0.164157
-0.162516
-0.160882
-0.159168
-0.157348
-0.155483
-0.221078
-0.220993
-0.220877
-0.220661
-0.220485
-0.22019
-0.219744
-0.219339
-0.218885
-0.218466
-0.217851
-0.217263
-0.216636
-0.216007
-0.215279
-0.21447
-0.213561
-0.212646
-0.211681
-0.21065
-0.209617
-0.208552
-0.207406
-0.206257
-0.204929
-0.203655
-0.202382
-0.200977
-0.19943
-0.197975
-0.19645
-0.194789
-0.193106
-0.221009
-0.220931
-0.220878
-0.220699
-0.220464
-0.220185
-0.219847
-0.219473
-0.219011
-0.218508
-0.217937
-0.217282
-0.216687
-0.215964
-0.215193
-0.214408
-0.21344
-0.212525
-0.211554
-0.210584
-0.209584
-0.208493
-0.207268
-0.206099
-0.204812
-0.203538
-0.202222
-0.200842
-0.199389
-0.197915
-0.196315
-0.194691
-0.192945
-0.220833
-0.220817
-0.2207
-0.220548
-0.220308
-0.219976
-0.219687
-0.21932
-0.218845
-0.218288
-0.217783
-0.217209
-0.216551
-0.215821
-0.215083
-0.214259
-0.213426
-0.212534
-0.21157
-0.210534
-0.209467
-0.208299
-0.207198
-0.205926
-0.204709
-0.203431
-0.201999
-0.200574
-0.199154
-0.197623
-0.196088
-0.194516
-0.192854
-0.22065
-0.220575
-0.220525
-0.220391
-0.220155
-0.219831
-0.219544
-0.21913
-0.218695
-0.218134
-0.21762
-0.216998
-0.21638
-0.215648
-0.214909
-0.214084
-0.213253
-0.212361
-0.211396
-0.210358
-0.209245
-0.208121
-0.20697
-0.205736
-0.204498
-0.203132
-0.201767
-0.200358
-0.198936
-0.197398
-0.195791
-0.194176
-0.192584
-0.220326
-0.220319
-0.220193
-0.220029
-0.219773
-0.219431
-0.219129
-0.218751
-0.218285
-0.217799
-0.21721
-0.216598
-0.215923
-0.215181
-0.214486
-0.213607
-0.212772
-0.211881
-0.21092
-0.209887
-0.208837
-0.207753
-0.206575
-0.205321
-0.204053
-0.202787
-0.201438
-0.199982
-0.198486
-0.196958
-0.195507
-0.193858
-0.192164
-0.219843
-0.219835
-0.219705
-0.219498
-0.219307
-0.219039
-0.21866
-0.218242
-0.217762
-0.217272
-0.216674
-0.21607
-0.215411
-0.214747
-0.213999
-0.213176
-0.212252
-0.211326
-0.210348
-0.20931
-0.208262
-0.207188
-0.206018
-0.204715
-0.203491
-0.202212
-0.200772
-0.199337
-0.197907
-0.196372
-0.194836
-0.193269
-0.1916
-0.219161
-0.219068
-0.218979
-0.218749
-0.218564
-0.218242
-0.217938
-0.217546
-0.217058
-0.21649
-0.215971
-0.215387
-0.214716
-0.213959
-0.213177
-0.212343
-0.211425
-0.210511
-0.209545
-0.208519
-0.207484
-0.206423
-0.205264
-0.203963
-0.202724
-0.201355
-0.200007
-0.198618
-0.197166
-0.195689
-0.194078
-0.192441
-0.190682
-0.217893
-0.217852
-0.217747
-0.217602
-0.217359
-0.217029
-0.216739
-0.216363
-0.215891
-0.215335
-0.214802
-0.214128
-0.213462
-0.212817
-0.212024
-0.211189
-0.210364
-0.209421
-0.208367
-0.207364
-0.206291
-0.205247
-0.204106
-0.202835
-0.201613
-0.200269
-0.198948
-0.197583
-0.196146
-0.19463
-0.193081
-0.191404
-0.189701
-0.216271
-0.216261
-0.216131
-0.215934
-0.215744
-0.215424
-0.215111
-0.214768
-0.214323
-0.21383
-0.213269
-0.212608
-0.211945
-0.211229
-0.210449
-0.209669
-0.208795
-0.207908
-0.206878
-0.205857
-0.204783
-0.203655
-0.202479
-0.201369
-0.200129
-0.19883
-0.197448
-0.196067
-0.194606
-0.192984
-0.19142
-0.189768
-0.188187
-0.214267
-0.214151
-0.213947
-0.213789
-0.213557
-0.213258
-0.213019
-0.212701
-0.212277
-0.211747
-0.21114
-0.21056
-0.209835
-0.209063
-0.20834
-0.207588
-0.206695
-0.20577
-0.204854
-0.203876
-0.202736
-0.201619
-0.200545
-0.199344
-0.198097
-0.196777
-0.195416
-0.193979
-0.192552
-0.191073
-0.189515
-0.187929
-0.186207
-0.211565
-0.211462
-0.211334
-0.21109
-0.210838
-0.210533
-0.210278
-0.209821
-0.209396
-0.208907
-0.208459
-0.207818
-0.207176
-0.206389
-0.205609
-0.204802
-0.204007
-0.20311
-0.202085
-0.201132
-0.200117
-0.199019
-0.197762
-0.196533
-0.195398
-0.194073
-0.192721
-0.191326
-0.189845
-0.188368
-0.186809
-0.185067
-0.183383
-0.208085
-0.208003
-0.207893
-0.207668
-0.207419
-0.207121
-0.206826
-0.20642
-0.206009
-0.205521
-0.204947
-0.204285
-0.203664
-0.202841
-0.202081
-0.201277
-0.200455
-0.199513
-0.198587
-0.197574
-0.196579
-0.195507
-0.194209
-0.193031
-0.191768
-0.190453
-0.189165
-0.187771
-0.186287
-0.184788
-0.183264
-0.181556
-0.179846
-0.20346
-0.203525
-0.203377
-0.203251
-0.203041
-0.202732
-0.202333
-0.201851
-0.201449
-0.200985
-0.200427
-0.199791
-0.199215
-0.198436
-0.197705
-0.196917
-0.19606
-0.195118
-0.194104
-0.19308
-0.192028
-0.190893
-0.189771
-0.188603
-0.187373
-0.186067
-0.184681
-0.183209
-0.18167
-0.180199
-0.17857
-0.176784
-0.175096
-0.197498
-0.197426
-0.197396
-0.197142
-0.196925
-0.196639
-0.196284
-0.195974
-0.19546
-0.195003
-0.194467
-0.193842
-0.19319
-0.192496
-0.191706
-0.190878
-0.190044
-0.189121
-0.18812
-0.187048
-0.185975
-0.184876
-0.183691
-0.182536
-0.181271
-0.179993
-0.178633
-0.177183
-0.175651
-0.174093
-0.172405
-0.17078
-0.168943
-0.19161
-0.19157
-0.191393
-0.191202
-0.190906
-0.190634
-0.190388
-0.190035
-0.189523
-0.189082
-0.188575
-0.187979
-0.1873
-0.186553
-0.185855
-0.184974
-0.18414
-0.183226
-0.182165
-0.181206
-0.180116
-0.178935
-0.177741
-0.176517
-0.175218
-0.17395
-0.172569
-0.171163
-0.169667
-0.168076
-0.166457
-0.16469
-0.162835
-0.229139
-0.229057
-0.229004
-0.228857
-0.2286
-0.228246
-0.227922
-0.227543
-0.227138
-0.226621
-0.226072
-0.22547
-0.224853
-0.224142
-0.223399
-0.222584
-0.221693
-0.220778
-0.219821
-0.21878
-0.217718
-0.216528
-0.215334
-0.214093
-0.212781
-0.211442
-0.20998
-0.208501
-0.207041
-0.205456
-0.203871
-0.202206
-0.200389
-0.229106
-0.229087
-0.228968
-0.22881
-0.228578
-0.228301
-0.227935
-0.227607
-0.227192
-0.226682
-0.226081
-0.225521
-0.224882
-0.22416
-0.223333
-0.222494
-0.221609
-0.220761
-0.219738
-0.218675
-0.217622
-0.2165
-0.215239
-0.21397
-0.212692
-0.211306
-0.209904
-0.208469
-0.206957
-0.205428
-0.203769
-0.202105
-0.200357
-0.229077
-0.229014
-0.228814
-0.22866
-0.228495
-0.228232
-0.227877
-0.227517
-0.227028
-0.226571
-0.226031
-0.225396
-0.224681
-0.224015
-0.223292
-0.222485
-0.221589
-0.220614
-0.219611
-0.218609
-0.217443
-0.21632
-0.215146
-0.213949
-0.212631
-0.211287
-0.209824
-0.208349
-0.206885
-0.205296
-0.203686
-0.201946
-0.200205
-0.228832
-0.22881
-0.228678
-0.228512
-0.22828
-0.228039
-0.227748
-0.227345
-0.226892
-0.226379
-0.225838
-0.225241
-0.224525
-0.223855
-0.223129
-0.222316
-0.221413
-0.220436
-0.219437
-0.218392
-0.217273
-0.216149
-0.214975
-0.213776
-0.212456
-0.211054
-0.209632
-0.20814
-0.206585
-0.204992
-0.203314
-0.201694
-0.199982
-0.228569
-0.22855
-0.228406
-0.228226
-0.22798
-0.227767
-0.227417
-0.227046
-0.226536
-0.226059
-0.22551
-0.224888
-0.224246
-0.223508
-0.222752
-0.221923
-0.221021
-0.220053
-0.219124
-0.218078
-0.217004
-0.215764
-0.214612
-0.213363
-0.212044
-0.210696
-0.209223
-0.207731
-0.206257
-0.204661
-0.20305
-0.201299
-0.199554
-0.228123
-0.228071
-0.227954
-0.227784
-0.227572
-0.2273
-0.22698
-0.226562
-0.226089
-0.225566
-0.22501
-0.224423
-0.223777
-0.223035
-0.222273
-0.221443
-0.220526
-0.219534
-0.218523
-0.217518
-0.216347
-0.215223
-0.214048
-0.212848
-0.211525
-0.210175
-0.208703
-0.207205
-0.20564
-0.204097
-0.202414
-0.200744
-0.199024
-0.227519
-0.227427
-0.22735
-0.227179
-0.226899
-0.226527
-0.22618
-0.225761
-0.225359
-0.224811
-0.224258
-0.223706
-0.222999
-0.222233
-0.221466
-0.220644
-0.219744
-0.218783
-0.21786
-0.216763
-0.215627
-0.214507
-0.213331
-0.212064
-0.210693
-0.209282
-0.20795
-0.206444
-0.204897
-0.203355
-0.201678
-0.199987
-0.198147
-0.22625
-0.226271
-0.226093
-0.225916
-0.225708
-0.225438
-0.225126
-0.224712
-0.224213
-0.223746
-0.223205
-0.222578
-0.221875
-0.221199
-0.22039
-0.219569
-0.218686
-0.217725
-0.216685
-0.21563
-0.214577
-0.213404
-0.212179
-0.210974
-0.209568
-0.208157
-0.206768
-0.205349
-0.203835
-0.20223
-0.200628
-0.198885
-0.197147
-0.22475
-0.224641
-0.224477
-0.22432
-0.224151
-0.223838
-0.223534
-0.223137
-0.22265
-0.222177
-0.221563
-0.220938
-0.220252
-0.219568
-0.218787
-0.217979
-0.217025
-0.216067
-0.215067
-0.214121
-0.212996
-0.211822
-0.210655
-0.209364
-0.208074
-0.206727
-0.205308
-0.203867
-0.202292
-0.200684
-0.199098
-0.197376
-0.195639
-0.222471
-0.222421
-0.222312
-0.222168
-0.22193
-0.221646
-0.221309
-0.220937
-0.22046
-0.219942
-0.219374
-0.218781
-0.218107
-0.217351
-0.216555
-0.215694
-0.214801
-0.213913
-0.21295
-0.211959
-0.210835
-0.209676
-0.208418
-0.207236
-0.205982
-0.204578
-0.203175
-0.201765
-0.20023
-0.198666
-0.196979
-0.195361
-0.193599
-0.219622
-0.21953
-0.219409
-0.219176
-0.21893
-0.218723
-0.218326
-0.217945
-0.217478
-0.216931
-0.216421
-0.215771
-0.215104
-0.214366
-0.213565
-0.212764
-0.211889
-0.21099
-0.209952
-0.208918
-0.207829
-0.206665
-0.205484
-0.204281
-0.202996
-0.201695
-0.200241
-0.198804
-0.197315
-0.195749
-0.194148
-0.192418
-0.190763
-0.215684
-0.2156
-0.21551
-0.215371
-0.21514
-0.214813
-0.214444
-0.214025
-0.213581
-0.213093
-0.212483
-0.21186
-0.211142
-0.210412
-0.209617
-0.208773
-0.207981
-0.207002
-0.206047
-0.204962
-0.20389
-0.202763
-0.201565
-0.200317
-0.199147
-0.197794
-0.196465
-0.194995
-0.193537
-0.192031
-0.190438
-0.188756
-0.186989
-0.210374
-0.210289
-0.210226
-0.209959
-0.209721
-0.209418
-0.209146
-0.208673
-0.208234
-0.207729
-0.207137
-0.206516
-0.205865
-0.205179
-0.204323
-0.203482
-0.202685
-0.201734
-0.200746
-0.199738
-0.198714
-0.19753
-0.196357
-0.195133
-0.193869
-0.192623
-0.191275
-0.189783
-0.188352
-0.186768
-0.185199
-0.183522
-0.181877
-0.203241
-0.203165
-0.203128
-0.202923
-0.202659
-0.202387
-0.202156
-0.201721
-0.201312
-0.200833
-0.200269
-0.19962
-0.198905
-0.198239
-0.197421
-0.196616
-0.195753
-0.19481
-0.193806
-0.192836
-0.191778
-0.190733
-0.189564
-0.188287
-0.187026
-0.185725
-0.184415
-0.183064
-0.181556
-0.180004
-0.178415
-0.176737
-0.175055
-0.196446
-0.196379
-0.196351
-0.19611
-0.195915
-0.195642
-0.1953
-0.194993
-0.194493
-0.194039
-0.193516
-0.192902
-0.19222
-0.191592
-0.190772
-0.190003
-0.18916
-0.188168
-0.187272
-0.186256
-0.185155
-0.184035
-0.182882
-0.181641
-0.18043
-0.179179
-0.177862
-0.176463
-0.174978
-0.173412
-0.171833
-0.1702
-0.168458
-0.236751
-0.23673
-0.236605
-0.236436
-0.236199
-0.23598
-0.235663
-0.235253
-0.234867
-0.234385
-0.233821
-0.233277
-0.232609
-0.231932
-0.231116
-0.230258
-0.229333
-0.228316
-0.227283
-0.226229
-0.225059
-0.223855
-0.222582
-0.221255
-0.219848
-0.218452
-0.216873
-0.215288
-0.21365
-0.211988
-0.210206
-0.208404
-0.206612
-0.236703
-0.236688
-0.236562
-0.236417
-0.236244
-0.235962
-0.235624
-0.235207
-0.234813
-0.234349
-0.233844
-0.233243
-0.232593
-0.231858
-0.231033
-0.230171
-0.229304
-0.228311
-0.227258
-0.226134
-0.224955
-0.223754
-0.222546
-0.221202
-0.219769
-0.218338
-0.216831
-0.215183
-0.213569
-0.21185
-0.210118
-0.208353
-0.206496
-0.236709
-0.236667
-0.236546
-0.236391
-0.236188
-0.235912
-0.235583
-0.235169
-0.234775
-0.234295
-0.233729
-0.233148
-0.232426
-0.231683
-0.230977
-0.230096
-0.229216
-0.228206
-0.22717
-0.226073
-0.224934
-0.223716
-0.222368
-0.220997
-0.219623
-0.218125
-0.216671
-0.215114
-0.213489
-0.211831
-0.210042
-0.208233
-0.206421
-0.236506
-0.236479
-0.23634
-0.236174
-0.236003
-0.235786
-0.235461
-0.235039
-0.234631
-0.234144
-0.233564
-0.232984
-0.232259
-0.231512
-0.230799
-0.2299
-0.228951
-0.227991
-0.22698
-0.225891
-0.224759
-0.223494
-0.222192
-0.220826
-0.219453
-0.217957
-0.216454
-0.214941
-0.213312
-0.211655
-0.209856
-0.208032
-0.206092
-0.236335
-0.236303
-0.23615
-0.235971
-0.23579
-0.23556
-0.235214
-0.234773
-0.23435
-0.233843
-0.233299
-0.232685
-0.232038
-0.231299
-0.230514
-0.229601
-0.228704
-0.22768
-0.22664
-0.22558
-0.224395
-0.223175
-0.221836
-0.220539
-0.219125
-0.217675
-0.216143
-0.214556
-0.212918
-0.211254
-0.209463
-0.207645
-0.205832
-0.236023
-0.235922
-0.235824
-0.235634
-0.235354
-0.235094
-0.23476
-0.234441
-0.234033
-0.23352
-0.232914
-0.232318
-0.231591
-0.230892
-0.230106
-0.229184
-0.228282
-0.227251
-0.226204
-0.225099
-0.223955
-0.222681
-0.221371
-0.219994
-0.218611
-0.217099
-0.215588
-0.214071
-0.212436
-0.210773
-0.208976
-0.207148
-0.205203
-0.235291
-0.235184
-0.235098
-0.234926
-0.234768