/*--------------------------------*- C++ -*----------------------------------*\
| =========                 |                                                 |
| \\      /  F ield         | OpenFOAM: The Open Source CFD Toolbox           |
|  \\    /   O peration     | Version:  2412                                  |
|   \\  /    A nd           | Website:  www.openfoam.com                      |
|    \\/     M anipulation  |                                                 |
\*---------------------------------------------------------------------------*/
FoamFile
{
    version     2.0;
    format      ascii;
    arch        "LSB;label=32;scalar=64";
    class       volScalarField;
    location    "0.0250162";
    object      Vm;
}
// * * * * * * * * * * * * * * * * * * * * * * * * * * * * * * * * * * * * * //

dimensions      [0 0 0 0 0 0 0];

internalField   nonuniform List<scalar> 
8679
(
1.07312
1.07321
1.0733
1.07345
1.07369
1.07402
1.07444
1.07497
1.07553
1.07619
1.0769
1.07777
1.07879
1.08
1.08131
1.08278
1.08449
1.08643
1.08857
1.0909
1.09347
1.09627
1.09935
1.10276
1.10662
1.11078
1.11542
1.12046
1.12578
1.13162
1.13798
1.14483
1.15215
1.07327
1.07332
1.07342
1.07361
1.07387
1.07416
1.07458
1.07505
1.0756
1.07628
1.07708
1.07798
1.079
1.08015
1.08145
1.08296
1.08462
1.08653
1.08867
1.09102
1.09361
1.09647
1.09964
1.1032
1.10703
1.11127
1.11582
1.12085
1.12627
1.132
1.13831
1.14518
1.15259
1.07337
1.07343
1.07357
1.07375
1.07401
1.07433
1.07472
1.07518
1.07575
1.07639
1.07718
1.0781
1.07916
1.08037
1.08178
1.08332
1.0851
1.08708
1.08922
1.09155
1.09426
1.09718
1.10036
1.10387
1.10781
1.11203
1.11671
1.12178
1.12714
1.13308
1.13956
1.14652
1.15393
1.07098
1.07098
1.07099
1.07098
1.07099
1.071
1.07102
1.07107
1.07113
1.07124
1.07137
1.07154
1.07175
1.07203
1.0724
1.07283
1.07339
1.07408
1.0749
1.07585
1.07697
1.07832
1.07983
1.08159
1.08357
1.08587
1.08851
1.09146
1.09473
1.09835
1.10234
1.10673
1.11157
1.07094
1.07094
1.07095
1.07093
1.07094
1.07095
1.07097
1.07103
1.07108
1.07118
1.07132
1.07151
1.07175
1.07206
1.07244
1.07289
1.07342
1.07409
1.07491
1.07589
1.07708
1.07842
1.07995
1.08175
1.0838
1.08605
1.08865
1.09158
1.09485
1.09847
1.10248
1.10692
1.11184
1.07098
1.07096
1.07095
1.07096
1.07098
1.07099
1.071
1.07101
1.07106
1.07112
1.07125
1.07145
1.07175
1.07209
1.07251
1.07299
1.0736
1.07433
1.07519
1.07619
1.07738
1.07879
1.08036
1.08218
1.08421
1.08655
1.08919
1.09212
1.09531
1.09898
1.10317
1.1077
1.11264
1.07099
1.07098
1.07096
1.07098
1.07101
1.07103
1.07104
1.07107
1.07113
1.0712
1.07134
1.07157
1.07189
1.07225
1.0727
1.07321
1.07385
1.07461
1.07551
1.07656
1.07779
1.07925
1.08088
1.08275
1.08483
1.08722
1.08988
1.09279
1.09611
1.09985
1.10406
1.10877
1.11383
1.07096
1.07096
1.07097
1.07097
1.071
1.07103
1.07108
1.07117
1.07125
1.0714
1.07159
1.07184
1.07215
1.07255
1.07301
1.07356
1.07418
1.07496
1.07591
1.07703
1.07837
1.07986
1.08155
1.08354
1.08577
1.08821
1.09101
1.09415
1.09764
1.10149
1.10574
1.1104
1.11553
1.07716
1.07714
1.07707
1.07696
1.0768
1.07658
1.07631
1.07601
1.07572
1.07543
1.07513
1.07482
1.07452
1.07423
1.07396
1.07372
1.0735
1.07332
1.0732
1.07316
1.07323
1.07338
1.07367
1.07408
1.07466
1.07543
1.07642
1.07763
1.07909
1.08083
1.08292
1.0853
1.08808
1.07714
1.07708
1.07699
1.07687
1.07671
1.0765
1.07625
1.07599
1.07568
1.07537
1.07506
1.07475
1.07445
1.07415
1.07388
1.07364
1.07343
1.07325
1.07313
1.0731
1.07318
1.07335
1.07368
1.07415
1.07476
1.0755
1.07647
1.0777
1.07921
1.08097
1.08301
1.08537
1.08815
1.07698
1.07694
1.07687
1.07674
1.07656
1.07635
1.07614
1.07589
1.07562
1.07532
1.07501
1.07469
1.07436
1.07407
1.07377
1.07352
1.07333
1.07319
1.07314
1.07314
1.07322
1.07344
1.07378
1.07423
1.07486
1.07569
1.07671
1.07795
1.07945
1.08123
1.08335
1.08577
1.08853
1.0768
1.07675
1.07666
1.07652
1.07635
1.07616
1.07596
1.07572
1.07545
1.07516
1.07486
1.07455
1.07424
1.07396
1.07368
1.07345
1.07328
1.07317
1.07314
1.07317
1.07328
1.07352
1.07386
1.07438
1.07507
1.07595
1.07702
1.07831
1.07985
1.08167
1.08382
1.08636
1.08923
1.07651
1.07646
1.07636
1.07624
1.07608
1.07589
1.07566
1.07541
1.07513
1.07485
1.07457
1.07429
1.07404
1.07379
1.07358
1.0734
1.07325
1.07316
1.07313
1.07319
1.07338
1.07367
1.07411
1.07469
1.07539
1.0763
1.07743
1.07882
1.08048
1.08246
1.08472
1.08731
1.09031
1.07604
1.07598
1.07589
1.07578
1.07564
1.07547
1.07526
1.07503
1.07477
1.07451
1.07427
1.07405
1.07381
1.07358
1.07341
1.07328
1.07319
1.07315
1.07318
1.0733
1.07356
1.07392
1.07443
1.07509
1.07588
1.07688
1.07812
1.07962
1.08137
1.08342
1.08583
1.08855
1.09162
1.07544
1.0754
1.07534
1.07524
1.07511
1.07495
1.07478
1.0746
1.07439
1.07416
1.07394
1.07375
1.07355
1.07337
1.07326
1.0732
1.07318
1.07322
1.07332
1.07353
1.07388
1.07433
1.07493
1.07566
1.07661
1.07778
1.07918
1.08082
1.08273
1.08495
1.0875
1.09043
1.09371
1.07467
1.07467
1.07463
1.07457
1.07449
1.07438
1.07423
1.07407
1.07391
1.07375
1.0736
1.07345
1.07334
1.07326
1.07321
1.07322
1.0733
1.07343
1.07364
1.07394
1.07437
1.07497
1.0757
1.07664
1.07778
1.07912
1.08066
1.0825
1.08466
1.08718
1.08997
1.0931
1.09661
1.07389
1.07388
1.07387
1.07381
1.07375
1.07369
1.07363
1.07354
1.07344
1.07333
1.07324
1.07318
1.07318
1.07319
1.07324
1.07338
1.0736
1.07389
1.07426
1.07473
1.07533
1.07612
1.07703
1.07816
1.07948
1.08104
1.08287
1.08499
1.0874
1.09012
1.09317
1.09657
1.10038
1.07335
1.07336
1.07334
1.0733
1.07323
1.07317
1.07313
1.07311
1.07308
1.07309
1.07313
1.07319
1.07328
1.07342
1.07366
1.07396
1.07431
1.07478
1.07534
1.07603
1.07686
1.07789
1.07905
1.08039
1.082
1.08386
1.08593
1.08833
1.09106
1.09412
1.09752
1.10132
1.10556
1.07307
1.07305
1.07303
1.07304
1.07305
1.07307
1.07308
1.0731
1.07316
1.07327
1.07343
1.07363
1.07388
1.07419
1.07462
1.0751
1.0757
1.07639
1.07717
1.07811
1.07927
1.08056
1.08202
1.0837
1.08565
1.08783
1.09035
1.09321
1.09637
1.09987
1.10367
1.10803
1.11274
1.07307
1.07308
1.07312
1.07316
1.07324
1.07333
1.07344
1.07358
1.07378
1.07402
1.07434
1.07472
1.07517
1.07571
1.07637
1.07711
1.07796
1.07891
1.08003
1.08131
1.08277
1.08442
1.08629
1.08844
1.09079
1.09341
1.09639
1.09971
1.10331
1.10736
1.11184
1.11674
1.12207
1.07365
1.0737
1.07379
1.0739
1.07405
1.07425
1.07448
1.07475
1.07509
1.07554
1.07605
1.07662
1.07732
1.07817
1.07909
1.08013
1.08133
1.08264
1.08416
1.08587
1.08777
1.0899
1.09226
1.09487
1.09778
1.10105
1.1046
1.10853
1.11279
1.11755
1.12281
1.12852
1.13467
1.07473
1.07479
1.07493
1.0751
1.07534
1.07565
1.07602
1.07645
1.07698
1.07763
1.07835
1.07921
1.08019
1.08129
1.08252
1.08389
1.08549
1.08722
1.08919
1.09137
1.09371
1.09639
1.09941
1.10278
1.10637
1.11028
1.11462
1.11927
1.12439
1.12986
1.13594
1.14256
1.1497
1.07579
1.07583
1.07594
1.07615
1.0764
1.07677
1.07723
1.0778
1.07849
1.07935
1.08029
1.08141
1.08268
1.08406
1.08558
1.08727
1.0892
1.09129
1.09365
1.09618
1.09906
1.10225
1.10574
1.10953
1.11363
1.11814
1.12315
1.12849
1.13434
1.14052
1.14732
1.1546
1.16217
1.0881
1.08803
1.0879
1.08767
1.08738
1.08702
1.08662
1.08614
1.08563
1.08507
1.08448
1.08386
1.08319
1.0825
1.0818
1.08106
1.08031
1.07956
1.07883
1.07811
1.07745
1.07684
1.07629
1.0758
1.07538
1.07505
1.07485
1.07478
1.0749
1.07518
1.07567
1.07644
1.07746
1.08802
1.08795
1.08782
1.08761
1.08732
1.08699
1.08658
1.08612
1.08559
1.08504
1.08445
1.08382
1.08315
1.08244
1.08171
1.08097
1.08023
1.0795
1.07877
1.07806
1.07737
1.07674
1.07618
1.07569
1.07528
1.07497
1.07477
1.07472
1.07486
1.07517
1.0757
1.07645
1.0775
1.08789
1.0878
1.08765
1.08744
1.08716
1.08681
1.08641
1.08597
1.08547
1.08492
1.08432
1.08367
1.08301
1.08233
1.08161
1.08088
1.08014
1.0794
1.07868
1.07797
1.0773
1.07666
1.07609
1.07561
1.07523
1.07497
1.07482
1.07479
1.07493
1.07528
1.07582
1.07661
1.07766
1.08759
1.08751
1.08735
1.08714
1.08686
1.08652
1.08612
1.08568
1.08518
1.08464
1.08403
1.08339
1.08273
1.08204
1.08133
1.08062
1.0799
1.07917
1.07846
1.07779
1.07715
1.07653
1.07599
1.07553
1.07518
1.07494
1.07484
1.07487
1.07505
1.07544
1.07603
1.07689
1.07799
1.08707
1.08699
1.08684
1.08662
1.08634
1.086
1.08561
1.08515
1.08465
1.0841
1.08352
1.08291
1.08226
1.08159
1.08091
1.08021
1.07951
1.0788
1.07813
1.07748
1.0769
1.07637
1.07589
1.07549
1.07517
1.07495
1.07487
1.07494
1.07519
1.07563
1.07629
1.07722
1.07844
1.08631
1.08624
1.0861
1.08589
1.08563
1.08533
1.08496
1.08452
1.08402
1.08349
1.08293
1.08234
1.0817
1.08103
1.08036
1.07969
1.07902
1.07838
1.07775
1.07715
1.07659
1.0761
1.07568
1.07533
1.07507
1.07492
1.0749
1.07506
1.07541
1.07594
1.0767
1.07774
1.07907
1.0853
1.08525
1.08512
1.08493
1.08468
1.08438
1.08402
1.08362
1.08317
1.08267
1.08212
1.08154
1.08092
1.08028
1.07965
1.07901
1.07839
1.0778
1.07721
1.07665
1.07616
1.07575
1.07539
1.07508
1.0749
1.07486
1.075
1.07529
1.07575
1.07644
1.07731
1.07845
1.07993
1.08393
1.08387
1.08375
1.08357
1.08335
1.08308
1.08274
1.08234
1.08192
1.08147
1.08097
1.08046
1.07991
1.07935
1.07878
1.0782
1.07765
1.07711
1.07659
1.0761
1.0757
1.07537
1.07509
1.07493
1.07489
1.075
1.07525
1.07569
1.07634
1.07719
1.07827
1.07963
1.08129
1.08224
1.08219
1.0821
1.08195
1.08173
1.08148
1.08117
1.08082
1.08045
1.08004
1.07959
1.07912
1.07865
1.07817
1.0777
1.07723
1.07678
1.07634
1.07594
1.0756
1.07531
1.07511
1.07498
1.07499
1.07513
1.07543
1.07588
1.0765
1.07732
1.07838
1.07973
1.08135
1.0833
1.0804
1.08034
1.08024
1.08009
1.07989
1.07965
1.07938
1.07909
1.07875
1.07839
1.07802
1.07765
1.07728
1.07691
1.07656
1.07623
1.07592
1.07562
1.07536
1.07516
1.07504
1.07505
1.07516
1.07536
1.07573
1.07625
1.07695
1.07783
1.07893
1.08027
1.08191
1.08389
1.08618
1.07835
1.0783
1.07822
1.07808
1.07792
1.07773
1.07752
1.07729
1.07702
1.07675
1.07648
1.07621
1.07594
1.0757
1.07547
1.07528
1.07513
1.07503
1.07497
1.07498
1.0751
1.07533
1.07568
1.07616
1.07676
1.07759
1.07862
1.07988
1.08137
1.08312
1.08516
1.08754
1.09033
1.07622
1.07619
1.07611
1.07603
1.07592
1.07578
1.07563
1.07545
1.07527
1.07512
1.07498
1.07484
1.07471
1.07462
1.07458
1.07459
1.07462
1.07473
1.07492
1.07521
1.07562
1.07617
1.07684
1.07765
1.07868
1.07991
1.08132
1.08299
1.08495
1.08722
1.08981
1.09277
1.09618
1.07399
1.07396
1.07391
1.07386
1.07377
1.0737
1.07365
1.07363
1.0736
1.07361
1.07363
1.07366
1.07375
1.07387
1.07403
1.07428
1.07459
1.07499
1.07551
1.07615
1.07693
1.07785
1.07895
1.08027
1.08178
1.08355
1.08556
1.0878
1.09037
1.0933
1.0966
1.1003
1.10442
1.07171
1.07171
1.07173
1.07173
1.07174
1.07176
1.07181
1.07189
1.07201
1.0722
1.07244
1.07271
1.07302
1.07337
1.07379
1.0743
1.07496
1.07573
1.07658
1.07763
1.07887
1.08033
1.08202
1.08389
1.08599
1.0884
1.09105
1.09405
1.09738
1.10103
1.10518
1.10982
1.11496
1.07009
1.07008
1.07007
1.0701
1.07013
1.07021
1.07035
1.07056
1.07084
1.07116
1.07157
1.07205
1.07259
1.07318
1.07385
1.07462
1.07557
1.07664
1.07789
1.07935
1.08101
1.08288
1.08496
1.08729
1.0899
1.09288
1.09615
1.09982
1.10379
1.10829
1.11328
1.11875
1.12469
1.1013
1.10123
1.10106
1.1008
1.10045
1.10001
1.0995
1.0989
1.09826
1.09756
1.09678
1.09593
1.09504
1.0941
1.09311
1.09209
1.09101
1.08988
1.08872
1.08755
1.08637
1.0852
1.08404
1.0829
1.08179
1.08071
1.07968
1.07874
1.0779
1.07714
1.07654
1.07609
1.07583
1.10124
1.10115
1.10097
1.10072
1.10038
1.09995
1.09945
1.09886
1.09821
1.09751
1.09675
1.0959
1.09499
1.09402
1.09302
1.09199
1.0909
1.08977
1.0886
1.08743
1.08626
1.08508
1.08391
1.08277
1.08166
1.0806
1.0796
1.07865
1.0778
1.07705
1.07645
1.07602
1.07577
1.10103
1.10095
1.10079
1.10054
1.10021
1.09978
1.09927
1.09871
1.09807
1.09736
1.09658
1.09575
1.09485
1.09391
1.0929
1.09185
1.09077
1.08965
1.08852
1.08736
1.08619
1.08501
1.08384
1.08268
1.08157
1.08052
1.07951
1.07859
1.07775
1.07705
1.07649
1.07609
1.07587
1.10069
1.1006
1.10043
1.10017
1.09983
1.09942
1.09893
1.09837
1.09773
1.09701
1.09623
1.0954
1.09451
1.09357
1.09259
1.09155
1.09048
1.08937
1.08825
1.08711
1.08596
1.08479
1.08362
1.08248
1.08138
1.08034
1.07937
1.07848
1.07767
1.077
1.07647
1.07609
1.07589
1.1001
1.10002
1.09987
1.09962
1.09927
1.09885
1.09833
1.09776
1.09712
1.09641
1.09564
1.0948
1.09391
1.09298
1.092
1.09099
1.08994
1.08884
1.08772
1.08659
1.08546
1.08432
1.08319
1.08208
1.081
1.08
1.07906
1.07821
1.07747
1.07684
1.07636
1.07605
1.07593
1.09929
1.09921
1.09904
1.09879
1.09846
1.09804
1.09755
1.09697
1.09634
1.09565
1.09489
1.09406
1.09316
1.09222
1.09125
1.09025
1.0892
1.08813
1.08703
1.08592
1.08482
1.08372
1.08262
1.08155
1.08052
1.07957
1.07867
1.07787
1.07718
1.07663
1.07624
1.07602
1.076
1.09809
1.098
1.09782
1.09756
1.09724
1.09683
1.09637
1.09583
1.09522
1.09453
1.09378
1.09297
1.09211
1.09118
1.09023
1.08923
1.08821
1.08716
1.0861
1.08503
1.08398
1.08294
1.0819
1.08088
1.07993
1.07904
1.07822
1.07749
1.07689
1.07642
1.07608
1.07594
1.07602
1.09636
1.09627
1.09609
1.09585
1.09554
1.09514
1.09468
1.09415
1.09356
1.09291
1.09219
1.09141
1.09058
1.08971
1.0888
1.08785
1.08687
1.08589
1.08489
1.08388
1.08288
1.08191
1.08095
1.08004
1.07918
1.07839
1.0777
1.0771
1.07663
1.07629
1.07611
1.07612
1.07632
1.09409
1.09403
1.09388
1.09365
1.09335
1.09297
1.09253
1.09203
1.09148
1.09086
1.09018
1.08944
1.08866
1.08784
1.08699
1.08611
1.08521
1.0843
1.08338
1.08246
1.08153
1.08065
1.07982
1.07904
1.07832
1.07768
1.07714
1.07668
1.07635
1.07619
1.0762
1.07644
1.07693
1.09135
1.09127
1.0911
1.09089
1.09061
1.09027
1.08988
1.08942
1.0889
1.08832
1.08768
1.087
1.08629
1.08554
1.08474
1.08394
1.08315
1.08236
1.08156
1.08078
1.08001
1.07929
1.07862
1.07801
1.07747
1.077
1.07663
1.07638
1.07628
1.07638
1.07666
1.07719
1.07796
1.08807
1.08799
1.08783
1.08762
1.08736
1.08704
1.08668
1.08628
1.08581
1.08528
1.08472
1.08413
1.0835
1.08284
1.08214
1.08146
1.08078
1.08012
1.07949
1.07885
1.07825
1.07771
1.07725
1.07684
1.07649
1.07627
1.07621
1.0763
1.07654
1.07697
1.07763
1.0785
1.07967
1.08421
1.08415
1.08402
1.08384
1.08359
1.08331
1.083
1.08265
1.08227
1.08184
1.08137
1.08086
1.08033
1.07978
1.07925
1.07874
1.07823
1.07774
1.07726
1.07682
1.07646
1.07618
1.07599
1.07587
1.07588
1.07602
1.07631
1.07677
1.07743
1.07831
1.07947
1.08087
1.08258
1.07972
1.07966
1.07956
1.07942
1.07924
1.07901
1.07875
1.07848
1.07818
1.07786
1.07751
1.07714
1.0768
1.07644
1.0761
1.07577
1.07547
1.07521
1.075
1.07485
1.0748
1.07487
1.07503
1.07535
1.07581
1.07639
1.07716
1.07813
1.07935
1.08083
1.08263
1.08478
1.08727
1.07474
1.07472
1.07465
1.07455
1.07439
1.07423
1.07408
1.07392
1.07375
1.07358
1.07341
1.07323
1.07305
1.07288
1.07274
1.07266
1.07263
1.07265
1.07275
1.07298
1.07336
1.07386
1.07449
1.0753
1.07626
1.07745
1.07885
1.08044
1.08236
1.08463
1.08731
1.09031
1.09369
1.07083
1.0708
1.07073
1.07067
1.07058
1.07047
1.0704
1.07032
1.07024
1.07017
1.0701
1.07007
1.07009
1.07015
1.07023
1.07036
1.07059
1.07089
1.07127
1.07181
1.07252
1.07343
1.07448
1.0757
1.07717
1.07884
1.0808
1.083
1.08557
1.08853
1.0919
1.09567
1.09988
1.11524
1.11514
1.11495
1.11466
1.11429
1.11382
1.11324
1.1126
1.11188
1.11109
1.11021
1.10926
1.10825
1.10717
1.10602
1.10478
1.10346
1.10208
1.10066
1.09918
1.09768
1.09615
1.09458
1.09299
1.09137
1.08977
1.08818
1.08659
1.08503
1.08354
1.08212
1.08078
1.07955
1.11515
1.11506
1.11489
1.11461
1.11425
1.11379
1.11324
1.11261
1.11189
1.11109
1.1102
1.10924
1.10822
1.10711
1.10593
1.10468
1.10335
1.10197
1.10055
1.09908
1.09758
1.09604
1.09445
1.09285
1.09124
1.08964
1.08805
1.08647
1.08494
1.08345
1.08202
1.08068
1.07945
1.11494
1.11485
1.11467
1.1144
1.11404
1.11357
1.11304
1.11241
1.11169
1.11088
1.11001
1.10906
1.10804
1.10693
1.10576
1.10452
1.10322
1.10185
1.10043
1.09895
1.09743
1.09587
1.09429
1.09268
1.09108
1.08947
1.08785
1.08627
1.08474
1.08326
1.08187
1.08058
1.07939
1.11459
1.1145
1.11433
1.11407
1.1137
1.11325
1.11271
1.11208
1.11136
1.11055
1.10968
1.10872
1.1077
1.1066
1.10543
1.1042
1.1029
1.10154
1.10013
1.09865
1.09713
1.09558
1.094
1.0924
1.09079
1.08918
1.08759
1.08602
1.08451
1.08305
1.08166
1.08038
1.07924
1.11404
1.11396
1.11378
1.1135
1.11313
1.11266
1.11211
1.11148
1.11076
1.10996
1.10907
1.10811
1.10708
1.10597
1.10481
1.10357
1.10228
1.10093
1.09952
1.09806
1.09657
1.09504
1.09348
1.09189
1.09031
1.08873
1.08717
1.08562
1.08413
1.0827
1.08139
1.08015
1.07902
1.11321
1.11313
1.11294
1.11266
1.11229
1.11184
1.11128
1.11064
1.10991
1.10911
1.10823
1.10727
1.10625
1.10516
1.104
1.10276
1.10146
1.1001
1.0987
1.09725
1.09578
1.09428
1.09274
1.09117
1.08962
1.08807
1.08652
1.08502
1.08358
1.08221
1.08093
1.07977
1.07873
1.11195
1.11185
1.11167
1.11138
1.11102
1.11056
1.11002
1.1094
1.10868
1.10787
1.10701
1.10606
1.10504
1.10394
1.10278
1.10155
1.10026
1.09893
1.09755
1.09614
1.0947
1.09324
1.09174
1.09021
1.0887
1.08719
1.08572
1.08429
1.08292
1.08163
1.0804
1.07929
1.07831
1.11
1.10992
1.10974
1.10947
1.10911
1.10866
1.10814
1.10753
1.10683
1.10604
1.10518
1.10424
1.10324
1.10219
1.10106
1.09986
1.09862
1.09732
1.09596
1.09458
1.09318
1.09178
1.09034
1.08889
1.08746
1.08604
1.08467
1.08334
1.08208
1.08088
1.07978
1.07878
1.07794
1.1074
1.10732
1.10714
1.10687
1.10653
1.1061
1.10559
1.10501
1.10434
1.10359
1.10276
1.10184
1.10087
1.09983
1.09874
1.0976
1.09641
1.09517
1.09387
1.09256
1.09122
1.08987
1.08852
1.08719
1.08587
1.08457
1.0833
1.08208
1.08093
1.07985
1.0789
1.07809
1.07747
1.10407
1.10396
1.10376
1.1035
1.10316
1.10275
1.10228
1.10174
1.1011
1.10037
1.09957
1.0987
1.09775
1.09675
1.09572
1.09464
1.09352
1.09236
1.09118
1.08997
1.08872
1.08749
1.08627
1.08506
1.08387
1.0827
1.08159
1.08055
1.07961
1.07878
1.07807
1.07752
1.07713
1.09984
1.09974
1.09956
1.09928
1.09894
1.09854
1.09808
1.09754
1.09693
1.09626
1.09553
1.09472
1.09385
1.09292
1.09194
1.09095
1.08993
1.08888
1.0878
1.08672
1.08564
1.08455
1.08345
1.08241
1.08143
1.08049
1.07962
1.07884
1.07816
1.07762
1.07721
1.07695
1.07692
1.09457
1.09448
1.09432
1.09407
1.09376
1.09338
1.09295
1.09245
1.0919
1.09128
1.0906
1.08985
1.08907
1.08822
1.08736
1.08648
1.08559
1.08467
1.08376
1.08285
1.08196
1.08109
1.08022
1.07943
1.07871
1.07807
1.07754
1.07712
1.07682
1.07669
1.07674
1.07697
1.07746
1.08808
1.08803
1.0879
1.08771
1.08744
1.0871
1.0867
1.08624
1.08576
1.08523
1.08465
1.08403
1.08339
1.08271
1.08201
1.08131
1.08059
1.07987
1.07915
1.07847
1.07784
1.07725
1.07675
1.07634
1.07602
1.07579
1.07568
1.07571
1.07591
1.07633
1.07696
1.07783
1.07904
1.0807
1.08065
1.08055
1.08037
1.08014
1.07987
1.07956
1.07922
1.07883
1.07842
1.07797
1.07749
1.077
1.07649
1.07597
1.07547
1.07498
1.07452
1.07408
1.0737
1.0734
1.07319
1.07309
1.07312
1.07328
1.0736
1.07408
1.07474
1.07561
1.07672
1.07812
1.07986
1.08192
1.07483
1.07477
1.07466
1.0745
1.0743
1.07408
1.07386
1.07359
1.07329
1.07298
1.07265
1.07231
1.07194
1.07159
1.07126
1.07093
1.07065
1.07041
1.07021
1.07013
1.07012
1.07022
1.07045
1.07085
1.07142
1.07221
1.07322
1.07447
1.07596
1.07774
1.07984
1.08228
1.08512
1.12891
1.12882
1.12864
1.12836
1.12797
1.12749
1.12692
1.12627
1.12553
1.1247
1.12378
1.12277
1.12168
1.1205
1.11922
1.11786
1.11641
1.11488
1.11327
1.11159
1.10984
1.10801
1.10613
1.1042
1.10222
1.1002
1.09814
1.09607
1.09401
1.09195
1.08991
1.08791
1.08595
1.12885
1.12877
1.12858
1.1283
1.12793
1.12746
1.1269
1.12626
1.12552
1.12468
1.12375
1.12274
1.12164
1.12044
1.11914
1.11777
1.11631
1.11478
1.11317
1.11148
1.10973
1.10791
1.10602
1.10408
1.1021
1.10008
1.09803
1.09598
1.09391
1.09186
1.08982
1.08782
1.08587
1.1287
1.1286
1.1284
1.12812
1.12776
1.1273
1.12674
1.12609
1.12534
1.12451
1.12358
1.12256
1.12144
1.12025
1.11898
1.11761
1.11615
1.11461
1.11299
1.1113
1.10953
1.10771
1.10584
1.10392
1.10194
1.09992
1.09787
1.09581
1.09375
1.0917
1.08967
1.08767
1.08574
1.12837
1.12828
1.12809
1.12781
1.12744
1.12698
1.12643
1.12578
1.12503
1.12419
1.12326
1.12223
1.12112
1.11993
1.11866
1.11729
1.11583
1.11428
1.11266
1.11097
1.10921
1.10739
1.10552
1.10361
1.10163
1.09961
1.09756
1.0955
1.09343
1.09138
1.08935
1.0874
1.08551
1.12787
1.12778
1.12759
1.1273
1.12692
1.12646
1.1259
1.12524
1.12447
1.12363
1.12269
1.12167
1.12056
1.11936
1.11807
1.1167
1.11523
1.11369
1.11209
1.11041
1.10865
1.10683
1.10496
1.10305
1.10108
1.09908
1.09704
1.09499
1.09296
1.09094
1.08895
1.087
1.08512
1.12707
1.12698
1.12679
1.1265
1.12612
1.12564
1.12508
1.12441
1.12364
1.12279
1.12185
1.12083
1.11972
1.11852
1.11723
1.11585
1.11438
1.11283
1.11121
1.10953
1.10778
1.10598
1.10413
1.10224
1.10029
1.09831
1.09629
1.09427
1.09225
1.09026
1.0883
1.08641
1.0846
1.12583
1.12573
1.12554
1.12525
1.12485
1.12435
1.12377
1.12309
1.12234
1.12149
1.12055
1.11954
1.11842
1.11721
1.11592
1.11455
1.1131
1.11158
1.10999
1.10832
1.10659
1.10481
1.10298
1.10109
1.09916
1.0972
1.09524
1.09327
1.09131
1.08937
1.08747
1.08562
1.08385
1.1238
1.12372
1.12352
1.12323
1.12285
1.12238
1.12182
1.12116
1.1204
1.11956
1.11864
1.11762
1.11651
1.11533
1.11405
1.1127
1.11127
1.10976
1.10818
1.10654
1.10485
1.1031
1.1013
1.09947
1.09758
1.09568
1.09378
1.09189
1.09001
1.08816
1.08635
1.0846
1.08296
1.121
1.1209
1.12069
1.12041
1.12005
1.11958
1.11903
1.11838
1.11763
1.1168
1.11587
1.11486
1.11377
1.11261
1.11136
1.11004
1.10863
1.10716
1.10564
1.10407
1.10242
1.10073
1.09901
1.09724
1.09546
1.09366
1.09185
1.09006
1.08827
1.08652
1.08485
1.08325
1.08175
1.11713
1.11703
1.11685
1.11657
1.1162
1.11574
1.1152
1.11456
1.11383
1.11301
1.11211
1.11112
1.11006
1.10891
1.10769
1.10641
1.10506
1.10367
1.10222
1.10072
1.09916
1.09755
1.09591
1.09427
1.09261
1.09093
1.08927
1.08763
1.08602
1.08447
1.08299
1.08162
1.08036
1.11205
1.11195
1.11176
1.11147
1.1111
1.11065
1.11011
1.10948
1.10877
1.10798
1.10711
1.10616
1.10514
1.10405
1.10289
1.10168
1.10041
1.09909
1.09772
1.0963
1.09486
1.09338
1.09189
1.0904
1.08891
1.08743
1.08597
1.08455
1.0832
1.08191
1.08073
1.07965
1.07874
1.10541
1.10532
1.10515
1.10489
1.10453
1.10409
1.10357
1.10297
1.1023
1.10155
1.10072
1.09983
1.09886
1.09784
1.09677
1.09565
1.0945
1.09329
1.09206
1.09079
1.08951
1.08822
1.08693
1.08567
1.08445
1.08325
1.0821
1.08101
1.08002
1.07913
1.07837
1.07774
1.07729
1.09704
1.09695
1.09679
1.09653
1.0962
1.0958
1.09534
1.09478
1.09417
1.0935
1.09275
1.09196
1.09111
1.09022
1.08926
1.08828
1.08729
1.08626
1.08522
1.08418
1.08315
1.08212
1.08112
1.08017
1.07928
1.07848
1.07774
1.07709
1.07658
1.0762
1.076
1.07601
1.07626
1.08745
1.08738
1.08725
1.08703
1.08675
1.08641
1.08602
1.08556
1.08504
1.08446
1.08383
1.08314
1.08241
1.08167
1.08088
1.08008
1.07928
1.07846
1.07766
1.07689
1.07616
1.07549
1.07486
1.07429
1.07383
1.07349
1.07329
1.07325
1.07335
1.07364
1.07416
1.07494
1.07601
1.07987
1.07981
1.0797
1.0795
1.07926
1.07896
1.07861
1.07821
1.07776
1.07727
1.07674
1.07617
1.07557
1.07496
1.07433
1.0737
1.07307
1.07244
1.07187
1.07133
1.07083
1.07042
1.0701
1.06989
1.06983
1.06994
1.07022
1.07067
1.07132
1.07221
1.07339
1.07488
1.07668
1.14191
1.14183
1.14164
1.14137
1.141
1.14055
1.14
1.13934
1.13861
1.13777
1.13683
1.1358
1.13466
1.13341
1.13204
1.13057
1.12899
1.1273
1.12552
1.12366
1.1217
1.11965
1.11752
1.1153
1.11301
1.11065
1.10822
1.10574
1.10324
1.10071
1.09816
1.09562
1.09312
1.14185
1.14177
1.14159
1.14132
1.14096
1.1405
1.13994
1.13929
1.13855
1.13772
1.13678
1.13574
1.13459
1.13332
1.13195
1.13047
1.1289
1.12722
1.12543
1.12355
1.12158
1.11953
1.11741
1.11519
1.11289
1.11053
1.10811
1.10563
1.10312
1.10059
1.09805
1.09552
1.09301
1.14175
1.14166
1.14147
1.1412
1.14083
1.14037
1.13981
1.13915
1.13841
1.13756
1.13661
1.13556
1.13439
1.13312
1.13177
1.13029
1.12871
1.12703
1.12525
1.12337
1.1214
1.11934
1.11718
1.11495
1.11266
1.1103
1.1079
1.10544
1.10295
1.10043
1.09788
1.09535
1.09285
1.14146
1.14137
1.14118
1.14091
1.14055
1.14009
1.13954
1.13887
1.13812
1.13727
1.13631
1.13525
1.13407
1.1328
1.13144
1.12995
1.12836
1.12668
1.1249
1.12303
1.12106
1.119
1.11685
1.11462
1.11233
1.10997
1.10757
1.10512
1.10263
1.10012
1.09758
1.09505
1.09254
1.14106
1.14097
1.14077
1.14048
1.14011
1.13965
1.13908
1.1384
1.13764
1.13677
1.13581
1.13475
1.13358
1.13231
1.13092
1.12943
1.12784
1.12614
1.12435
1.12248
1.1205
1.11844
1.11629
1.11408
1.11179
1.10944
1.10703
1.10458
1.1021
1.0996
1.09708
1.09457
1.09211
1.14036
1.14026
1.14006
1.13977
1.13937
1.1389
1.13833
1.13767
1.13691
1.13604
1.13506
1.13398
1.1328
1.13152
1.13013
1.12862
1.12703
1.12532
1.12353
1.12165
1.11968
1.11761
1.11546
1.11324
1.11096
1.1086
1.10621
1.10379
1.10133
1.09885
1.09636
1.09388
1.09143
1.1391
1.139
1.13881
1.13852
1.13814
1.13766
1.13707
1.13639
1.13562
1.13474
1.13376
1.13269
1.13151
1.13023
1.12884
1.12734
1.12575
1.12406
1.12228
1.1204
1.11845
1.11639
1.11426
1.11206
1.10979
1.10746
1.10507
1.10264
1.1002
1.09774
1.09531
1.09289
1.09051
1.13709
1.13701
1.13682
1.13653
1.13614
1.13565
1.13506
1.13437
1.13359
1.13271
1.13173
1.13066
1.12948
1.1282
1.12682
1.12533
1.12376
1.12209
1.12032
1.11846
1.11652
1.1145
1.1124
1.11023
1.10802
1.10574
1.10342
1.10105
1.09867
1.09628
1.0939
1.09156
1.08927
1.13406
1.13396
1.13376
1.13347
1.13308
1.13259
1.132
1.13132
1.13053
1.12963
1.12865
1.12758
1.12641
1.12516
1.1238
1.12234
1.12079
1.11914
1.11741
1.1156
1.11372
1.11174
1.10971
1.10762
1.10548
1.10329
1.10105
1.09879
1.09651
1.09422
1.09196
1.08974
1.08759
1.12964
1.12954
1.12936
1.12907
1.12867
1.12819
1.1276
1.12692
1.12613
1.12524
1.12425
1.12318
1.12203
1.12078
1.11945
1.11802
1.11652
1.11495
1.1133
1.11157
1.10977
1.10788
1.10594
1.10395
1.10192
1.09985
1.09775
1.09564
1.09352
1.09143
1.08938
1.08738
1.08544
1.12354
1.12344
1.12325
1.12296
1.12257
1.12207
1.12149
1.1208
1.12002
1.11915
1.1182
1.11717
1.11604
1.11482
1.11353
1.11215
1.11072
1.10922
1.10765
1.10602
1.10433
1.10259
1.10079
1.09895
1.09708
1.0952
1.0933
1.09141
1.08955
1.08772
1.08595
1.08424
1.08264
1.11536
1.11525
1.11506
1.11476
1.11438
1.11391
1.11333
1.11268
1.11193
1.11111
1.11022
1.10925
1.1082
1.10705
1.10583
1.10454
1.10319
1.10178
1.10034
1.09885
1.09732
1.09577
1.09418
1.09256
1.09095
1.08935
1.08773
1.08616
1.08465
1.08322
1.08186
1.08061
1.07949
1.10508
1.10499
1.1048
1.10453
1.10417
1.10373
1.1032
1.10257
1.10188
1.10112
1.10031
1.09942
1.09846
1.09744
1.09635
1.0952
1.09401
1.09277
1.09151
1.09023
1.08894
1.08763
1.08631
1.08499
1.08371
1.08246
1.08127
1.08015
1.07911
1.07815
1.07734
1.0767
1.07626
1.09378
1.0937
1.09357
1.09335
1.09304
1.09264
1.09216
1.0916
1.09095
1.09026
1.08951
1.08873
1.08789
1.087
1.08607
1.08509
1.08407
1.08303
1.08198
1.08095
1.07991
1.07891
1.07794
1.077
1.07612
1.07531
1.07458
1.07398
1.07352
1.07323
1.07314
1.07326
1.07361
1.08506
1.08501
1.08487
1.08467
1.08439
1.08402
1.08357
1.08306
1.08249
1.08187
1.0812
1.08049
1.07973
1.07894
1.0781
1.07726
1.0764
1.07553
1.07467
1.07383
1.07305
1.07229
1.07158
1.07094
1.07041
1.06999
1.06971
1.06957
1.06964
1.06993
1.07045
1.07123
1.07228
1.15397
1.15389
1.15371
1.15345
1.15311
1.15268
1.15214
1.15151
1.15078
1.14993
1.14897
1.14789
1.14668
1.14536
1.14392
1.14233
1.1406
1.13875
1.13679
1.13472
1.13254
1.13025
1.12785
1.12535
1.12275
1.12005
1.11728
1.11445
1.11156
1.10864
1.10568
1.1027
1.09972
1.15393
1.15384
1.15367
1.15341
1.15307
1.15263
1.15209
1.15145
1.15071
1.14986
1.14889
1.14782
1.14661
1.14528
1.14383
1.14223
1.14051
1.13865
1.13669
1.13461
1.13242
1.13012
1.12772
1.12521
1.12261
1.11992
1.11714
1.11432
1.11144
1.1085
1.10554
1.10256
1.09958
1.15383
1.15374
1.15356
1.15328
1.15291
1.15246
1.15191
1.15128
1.15055
1.14972
1.14876
1.14768
1.14646
1.14511
1.14362
1.14201
1.14028
1.13844
1.13648
1.13439
1.13219
1.12988
1.12746
1.12496
1.12236
1.11969
1.11693
1.1141
1.11122
1.10829
1.10531
1.10232
1.09934
1.15364
1.15353
1.15334
1.15305
1.15268
1.1522
1.15165
1.151
1.15026
1.14942
1.14846
1.14736
1.14614
1.14478
1.14329
1.14168
1.13995
1.1381
1.13613
1.13404
1.13184
1.12952
1.1271
1.1246
1.122
1.11933
1.11658
1.11375
1.11086
1.10793
1.10496
1.10197
1.09901
1.1533
1.1532
1.153
1.15271
1.15234
1.15186
1.15129
1.15062
1.14986
1.14899
1.14801
1.14691
1.14567
1.14432
1.14283
1.14122
1.13948
1.13761
1.13562
1.13351
1.1313
1.12899
1.12657
1.12406
1.12147
1.11879
1.11603
1.1132
1.11032
1.10741
1.10446
1.10148
1.09852
1.1527
1.1526
1.1524
1.15211
1.15174
1.15127
1.15071
1.15004
1.14926
1.14838
1.14738
1.14625
1.14499
1.14361
1.14209
1.14045
1.13869
1.13682
1.13484
1.13273
1.13051
1.12819
1.12576
1.12324
1.12062
1.11794
1.11519
1.11238
1.10951
1.10661
1.10366
1.10072
1.0978
1.15154
1.15143
1.15123
1.15094
1.15055
1.15007
1.1495
1.14882
1.14804
1.14714
1.14613
1.14501
1.14375
1.14236
1.14084
1.1392
1.13744
1.13558
1.1336
1.1315
1.12928
1.12696
1.12455
1.12204
1.11944
1.11676
1.114
1.1112
1.10834
1.10547
1.10258
1.09968
1.0968
1.14949
1.14939
1.14919
1.14889
1.14849
1.14799
1.14741
1.14672
1.14592
1.14501
1.14399
1.14286
1.1416
1.14021
1.13872
1.1371
1.13536
1.1335
1.13154
1.12946
1.12728
1.125
1.1226
1.12013
1.11757
1.11494
1.11224
1.10948
1.10667
1.10384
1.10099
1.09814
1.09531
1.14611
1.14601
1.14582
1.14551
1.1451
1.14459
1.14399
1.14329
1.14248
1.14155
1.14052
1.13938
1.13813
1.13676
1.13529
1.13371
1.132
1.13019
1.12828
1.12627
1.12414
1.12192
1.11962
1.11723
1.11476
1.11221
1.1096
1.10693
1.10422
1.10149
1.09873
1.096
1.0933
1.1409
1.14079
1.1406
1.14029
1.13989
1.13938
1.13878
1.13808
1.13726
1.13633
1.13529
1.13416
1.13291
1.13158
1.13014
1.1286
1.12697
1.12524
1.12341
1.12148
1.11945
1.11733
1.11511
1.11283
1.11049
1.1081
1.10564
1.10313
1.1006
1.09805
1.09549
1.09296
1.09049
1.13342
1.13332
1.13312
1.13282
1.13242
1.13193
1.13132
1.13062
1.1298
1.12889
1.12788
1.12677
1.12556
1.12428
1.1229
1.12142
1.11987
1.11822
1.1165
1.11469
1.11279
1.11083
1.10879
1.10669
1.10454
1.10235
1.10012
1.09785
1.09557
1.0933
1.09107
1.08889
1.08679
1.12353
1.12342
1.12321
1.12291
1.12252
1.12205
1.12148
1.1208
1.12002
1.11915
1.1182
1.11715
1.11602
1.11479
1.11347
1.1121
1.11066
1.10915
1.10757
1.10592
1.10421
1.10245
1.10064
1.0988
1.09693
1.09503
1.09311
1.0912
1.0893
1.08745
1.08565
1.08394
1.08234
1.11173
1.11164
1.11145
1.11118
1.11081
1.11034
1.10979
1.10914
1.10841
1.1076
1.10671
1.10574
1.10468
1.10356
1.10239
1.10115
1.09984
1.09849
1.0971
1.09567
1.09419
1.09268
1.09114
1.08959
1.08804
1.0865
1.08499
1.08355
1.08215
1.08082
1.07958
1.07846
1.07749
1.09932
1.09923
1.09906
1.09879
1.09845
1.09803
1.09751
1.09691
1.09622
1.09546
1.09465
1.09376
1.09283
1.09182
1.09076
1.08966
1.08852
1.08734
1.08615
1.08493
1.08371
1.08249
1.08128
1.08008
1.07889