/*--------------------------------*- C++ -*----------------------------------*\
| =========                 |                                                 |
| \\      /  F ield         | OpenFOAM: The Open Source CFD Toolbox           |
|  \\    /   O peration     | Version:  2412                                  |
|   \\  /    A nd           | Website:  www.openfoam.com                      |
|    \\/     M anipulation  |                                                 |
\*---------------------------------------------------------------------------*/
FoamFile
{
    version     2.0;
    format      ascii;
    arch        "LSB;label=32;scalar=64";
    class       volScalarField;
    location    "0.0250162";
    object      Vm_0;
}
// * * * * * * * * * * * * * * * * * * * * * * * * * * * * * * * * * * * * * //

dimensions      [1 2 -3 0 0 -1 0];

internalField   nonuniform List<scalar> 
8679
(
0.007966
0.00797396
0.00798212
0.00799427
0.00801566
0.00804386
0.00807973
0.00812468
0.008173
0.0082291
0.00829013
0.0083647
0.00845261
0.0085558
0.00866811
0.00879383
0.00894097
0.00910722
0.00929024
0.00949043
0.0097105
0.00995062
0.0102141
0.0105069
0.0108373
0.0111937
0.0115914
0.0120236
0.0124796
0.0129799
0.0135249
0.0141118
0.0147395
0.00797945
0.00798318
0.00799201
0.00800876
0.00803025
0.00805546
0.00809158
0.00813221
0.00817872
0.00823739
0.0083056
0.00838285
0.00847073
0.0085689
0.00868015
0.00880967
0.00895178
0.009116
0.0092991
0.00950032
0.00972253
0.00996734
0.0102391
0.0105444
0.0108729
0.0112358
0.0116255
0.0120567
0.0125215
0.0130126
0.0135533
0.0141416
0.0147771
0.0079879
0.00799286
0.00800534
0.00802017
0.00804251
0.00807046
0.00810363
0.00814313
0.00819211
0.00824622
0.008314
0.00839357
0.00848429
0.00858767
0.00870842
0.00884065
0.00899317
0.00916255
0.00934599
0.00954579
0.00977766
0.0100287
0.0103013
0.010602
0.0109394
0.0113008
0.0117018
0.0121362
0.0125956
0.0131053
0.0136607
0.0142567
0.0148917
0.00778279
0.00778304
0.00778388
0.00778311
0.00778362
0.00778452
0.00778634
0.00779095
0.00779622
0.00780516
0.00781666
0.00783094
0.00784896
0.00787255
0.00790443
0.00794146
0.00798988
0.00804904
0.00811874
0.00820032
0.00829676
0.00841188
0.0085412
0.00869215
0.00886167
0.00905943
0.00928527
0.00953836
0.00981859
0.0101284
0.0104703
0.0108466
0.0112612
0.00777996
0.00777952
0.00778031
0.00777913
0.00777953
0.00778035
0.00778229
0.00778701
0.00779125
0.00779995
0.00781232
0.00782822
0.00784878
0.00787592
0.00790772
0.00794694
0.00799174
0.00804923
0.00811938
0.0082037
0.0083058
0.0084202
0.00855184
0.00870639
0.00888136
0.00907455
0.00929709
0.00954855
0.00982861
0.0101388
0.0104826
0.0108631
0.0112843
0.00778285
0.00778134
0.00778009
0.00778143
0.00778325
0.00778424
0.00778459
0.00778564
0.00778994
0.00779467
0.00780581
0.00782354
0.00784925
0.00787819
0.00791376
0.00795503
0.00800726
0.0080702
0.00814384
0.00822967
0.00833124
0.00845207
0.00858689
0.00874292
0.00891672
0.00911736
0.00934386
0.00959439
0.00986838
0.0101828
0.0105415
0.0109303
0.0113529
0.00778424
0.00778266
0.00778134
0.00778287
0.0077853
0.00778718
0.00778843
0.00779047
0.00779587
0.00780178
0.00781424
0.00783347
0.00786056
0.0078922
0.00793033
0.0079741
0.00802887
0.00809444
0.00817112
0.00826097
0.00836684
0.00849201
0.00863118
0.00879201
0.00897029
0.00917458
0.00940292
0.00965239
0.00993666
0.0102575
0.0106178
0.0110217
0.0114551
0.00778103
0.00778092
0.00778235
0.00778229
0.0077844
0.00778755
0.00779194
0.00779924
0.00780651
0.00781869
0.00783536
0.00785647
0.00788319
0.00791741
0.00795666
0.00800372
0.00805762
0.00812449
0.00820526
0.00830167
0.00841663
0.00854392
0.008689
0.0088595
0.00905068
0.00926
0.00949927
0.00976833
0.0100675
0.0103977
0.0107616
0.0111616
0.0116007
0.00831237
0.00831118
0.00830481
0.00829531
0.00828143
0.00826261
0.00823957
0.00821418
0.00818946
0.00816441
0.00813834
0.00811184
0.00808656
0.00806142
0.00803875
0.00801741
0.00799881
0.00798353
0.00797336
0.00796942
0.0079756
0.00798904
0.00801389
0.00804865
0.00809812
0.00816448
0.00824892
0.00835307
0.00847789
0.00862689
0.00880595
0.00901041
0.0092483
0.00831081
0.00830617
0.00829787
0.00828764
0.00827382
0.00825605
0.00823499
0.00821222
0.00818573
0.00815933
0.0081326
0.0081058
0.00808071
0.0080548
0.00803166
0.00801101
0.00799273
0.00797782
0.00796763
0.00796442
0.00797154
0.00798652
0.00801455
0.00805473
0.00810666
0.0081703
0.00825355
0.00835869
0.0084887
0.00863892
0.00881374
0.00901625
0.00925414
0.00829736
0.00829352
0.00828746
0.00827669
0.00826104
0.00824357
0.00822537
0.00820346
0.00818035
0.00815485
0.0081284
0.00810051
0.00807295
0.0080475
0.008022
0.0080008
0.00798409
0.00797265
0.00796807
0.00796823
0.0079753
0.00799408
0.00802313
0.00806153
0.00811583
0.00818647
0.00827422
0.00838057
0.00850851
0.00866103
0.00884325
0.00905043
0.00928696
0.00828164
0.00827722
0.00826993
0.0082576
0.00824339
0.00822714
0.00820949
0.0081888
0.00816649
0.00814153
0.00811533
0.00808877
0.00806236
0.00803816
0.0080141
0.0079947
0.00797992
0.00797052
0.0079682
0.00797091
0.00798035
0.00800071
0.00803005
0.00807439
0.00813363
0.00820885
0.00830093
0.00841135
0.00854347
0.0086995
0.00888359
0.00910143
0.00934705
0.00825725
0.00825275
0.00824409
0.00823368
0.00822048
0.00820382
0.0081842
0.00816284
0.00813878
0.00811458
0.00809036
0.0080668
0.00804534
0.00802371
0.00800552
0.00799018
0.00797737
0.00796959
0.00796717
0.00797247
0.00798901
0.00801363
0.00805125
0.00810081
0.00816061
0.0082385
0.00833609
0.00845523
0.00859746
0.00876724
0.00896082
0.0091824
0.00943943
0.00821661
0.00821186
0.00820359
0.00819426
0.00818241
0.00816737
0.00814946
0.00812996
0.00810783
0.00808589
0.00806504
0.00804579
0.00802571
0.00800592
0.00799102
0.00798019
0.00797273
0.00796913
0.0079713
0.0079819
0.00800405
0.00803456
0.00807878
0.0081353
0.00820263
0.00828878
0.00839514
0.00852312
0.00867343
0.00884945
0.00905599
0.0092885
0.00955188
0.00816521
0.00816207
0.0081566
0.00814775
0.00813701
0.00812363
0.00810833
0.00809313
0.00807541
0.00805513
0.00803635
0.00802004
0.00800361
0.00798824
0.00797835
0.00797317
0.00797191
0.00797478
0.00798359
0.00800114
0.00803116
0.00806977
0.00812136
0.0081843
0.00826569
0.00836609
0.00848594
0.00862646
0.00879029
0.00898038
0.00919838
0.00945008
0.00973067
0.00809896
0.0080988
0.00809594
0.00809094
0.00808395
0.00807398
0.00806117
0.00804746
0.0080345
0.00802065
0.0080073
0.00799502
0.00798497
0.0079781
0.00797371
0.00797506
0.00798155
0.00799311
0.00801065
0.00803623
0.00807309
0.00812474
0.00818747
0.00826796
0.00836592
0.00848072
0.0086123
0.00876983
0.00895514
0.0091711
0.00941058
0.00967846
0.00997923
0.00803261
0.00803176
0.0080304
0.00802519
0.00802007
0.00801488
0.00800979
0.00800255
0.00799406
0.00798427
0.0079766
0.00797182
0.00797126
0.00797242
0.00797671
0.00798876
0.00800721
0.00803204
0.00806384
0.00810419
0.00815588
0.00822311
0.00830185
0.00839868
0.00851107
0.00864537
0.00880234
0.00898355
0.0091901
0.00942328
0.00968479
0.00997616
0.0103028
0.00798618
0.00798677
0.00798499
0.00798152
0.00797582
0.00797096
0.00796721
0.00796572
0.00796316
0.00796396
0.00796707
0.00797204
0.00797967
0.00799189
0.00801234
0.00803825
0.0080687
0.00810825
0.00815676
0.00821558
0.00828727
0.00837523
0.00847421
0.0085898
0.00872772
0.00888653
0.00906432
0.00926996
0.00950364
0.00976577
0.0100579
0.0103834
0.0107465
0.007962
0.00796037
0.00795864
0.00795947
0.00796074
0.00796191
0.00796305
0.00796509
0.00796968
0.00797917
0.00799303
0.00801026
0.00803134
0.00805845
0.00809483
0.00813647
0.00818773
0.00824701
0.00831329
0.00839439
0.00849312
0.008604
0.00872926
0.00887301
0.00904012
0.00922693
0.00944323
0.00968784
0.0099593
0.0102585
0.0105849
0.0109578
0.0113622
0.00796196
0.00796277
0.00796617
0.00796991
0.00797647
0.00798459
0.00799393
0.00800579
0.00802299
0.00804365
0.00807113
0.00810382
0.00814213
0.00818841
0.00824529
0.00830853
0.00838143
0.00846275
0.0085585
0.00866829
0.0087934
0.00893484
0.00909519
0.00927944
0.00948072
0.00970515
0.00996063
0.0102452
0.0105534
0.0109005
0.0112843
0.0117044
0.0121612
0.0080119
0.00801609
0.00802421
0.00803298
0.00804605
0.00806302
0.00808277
0.00810604
0.0081354
0.00817352
0.00821787
0.0082665
0.00832673
0.00839935
0.00847835
0.00856715
0.00866958
0.00878224
0.00891264
0.00905873
0.00922221
0.00940427
0.00960677
0.00983076
0.0100794
0.0103604
0.0106638
0.0110011
0.0113659
0.0117743
0.0122245
0.0127139
0.0132415
0.00810431
0.00810946
0.00812166
0.00813606
0.00815666
0.00818304
0.00821467
0.00825215
0.00829738
0.00835304
0.00841501
0.00848816
0.00857241
0.00866672
0.00877187
0.00888977
0.00902627
0.00917487
0.00934381
0.00953025
0.00973119
0.00996082
0.0102193
0.0105084
0.010816
0.0111509
0.0115232
0.0119211
0.0123604
0.0128289
0.0133503
0.0139177
0.0145289
0.00819544
0.008199
0.00820846
0.00822599
0.00824713
0.00827884
0.008319
0.0083674
0.0084263
0.00849989
0.00858045
0.00867689
0.00878544
0.00890423
0.00903408
0.00917866
0.00934445
0.00952378
0.00972565
0.00994237
0.0101891
0.010463
0.010762
0.0110865
0.0114385
0.0118247
0.0122544
0.0127118
0.0132134
0.0137425
0.0143249
0.0149495
0.0155982
0.00925056
0.00924455
0.0092329
0.00921316
0.00918814
0.00915803
0.00912354
0.00908255
0.0090384
0.00899091
0.00894005
0.00888694
0.00882951
0.00877066
0.00871005
0.00864727
0.00858274
0.00851802
0.00845552
0.00839394
0.0083374
0.0082855
0.00823823
0.00819602
0.00816014
0.00813213
0.00811445
0.00810873
0.00811858
0.00814284
0.00818531
0.0082506
0.00833795
0.00924348
0.00923727
0.00922619
0.00920815
0.00918345
0.00915463
0.00912018
0.00908022
0.00903517
0.00898756
0.00893762
0.00888365
0.00882599
0.00876489
0.00870263
0.00863937
0.00857569
0.00851336
0.00845025
0.00838947
0.00833027
0.00827659
0.00822877
0.0081869
0.00815176
0.00812465
0.00810802
0.00810361
0.00811575
0.00814193
0.00818761
0.00825219
0.00834152
0.009232
0.00922474
0.00921141
0.00919362
0.00916979
0.00913988
0.00910504
0.00906727
0.00902517
0.00897799
0.00892607
0.00887062
0.00881425
0.00875566
0.00869401
0.00863122
0.00856797
0.00850436
0.00844259
0.0083821
0.00832444
0.00826942
0.00822077
0.00817943
0.00814694
0.00812515
0.00811188
0.00810971
0.00812112
0.00815108
0.00819799
0.00826576
0.00835528
0.0092064
0.00919951
0.00918588
0.00916763
0.00914392
0.00911446
0.00908013
0.00904258
0.00900023
0.0089536
0.00890176
0.00884656
0.00879023
0.00873119
0.00866977
0.00860932
0.00854785
0.00848519
0.00842389
0.00836652
0.00831175
0.00825862
0.00821202
0.00817304
0.00814303
0.0081226
0.00811419
0.00811652
0.00813194
0.0081656
0.00821584
0.00828907
0.00838409
0.00916148
0.00915476
0.00914223
0.0091232
0.00909916
0.00907015
0.00903692
0.00899739
0.00895422
0.00890737
0.00885735
0.00880533
0.00874942
0.00869238
0.00863401
0.00857437
0.00851364
0.00845337
0.008396
0.00834025
0.00828996
0.00824451
0.00820416
0.00816951
0.0081418
0.00812321
0.00811612
0.00812194
0.00814421
0.00818182
0.00823791
0.00831783
0.00842226
0.00909701
0.0090907
0.00907881
0.00906084
0.00903882
0.00901276
0.00898081
0.00894306
0.00890011
0.00885473
0.00880752
0.00875661
0.00870205
0.00864449
0.00858681
0.00852926
0.00847226
0.00841719
0.0083631
0.00831163
0.00826374
0.00822183
0.00818576
0.00815578
0.00813322
0.00812028
0.00811909
0.00813242
0.0081624
0.00820814
0.00827311
0.00836236
0.00847669
0.00901041
0.0090058
0.00899499
0.0089786
0.00895733
0.00893099
0.00890029
0.00886587
0.00882743
0.00878441
0.0087374
0.00868763
0.00863523
0.00858027
0.00852567
0.00847141
0.00841819
0.00836706
0.00831659
0.00826854
0.00822729
0.00819158
0.00816051
0.00813437
0.00811879
0.00811588
0.00812776
0.00815245
0.00819198
0.00825051
0.00832546
0.0084233
0.00854958
0.00889306
0.00888772
0.00887765
0.0088621
0.00884286
0.00881981
0.00879045
0.00875675
0.00872072
0.00868163
0.00863941
0.00859536
0.00854871
0.00850058
0.00845165
0.00840182
0.00835482
0.00830836
0.00826358
0.008222
0.0081877
0.00815935
0.00813524
0.00812128
0.00811833
0.00812752
0.00814924
0.00818624
0.00824221
0.00831513
0.00840764
0.00852461
0.00866648
0.00874759
0.00874345
0.00873618
0.0087229
0.00870431
0.0086831
0.0086567
0.00862655
0.00859424
0.00855904
0.00852095
0.00848095
0.00844064
0.00839913
0.0083586
0.00831885
0.00828005
0.00824263
0.00820807
0.0081792
0.00815423
0.00813711
0.008126
0.00812656
0.00813893
0.00816401
0.00820299
0.00825609
0.00832621
0.00841716
0.0085326
0.0086714
0.00883873
0.00859007
0.00858545
0.00857698
0.00856349
0.00854663
0.00852643
0.0085032
0.00847809
0.00844861
0.00841828
0.00838667
0.00835439
0.00832331
0.00829098
0.008261
0.00823279
0.00820597
0.00818099
0.00815874
0.00814124
0.00813131
0.00813152
0.00814095
0.00815871
0.00818968
0.00823423
0.00829438
0.00837027
0.00846419
0.0085792
0.00871944
0.00888914
0.00908588
0.00841421
0.00841003
0.00840312
0.00839129
0.00837767
0.00836162
0.00834357
0.00832351
0.00830026
0.00827742
0.00825431
0.00823083
0.00820824
0.00818733
0.00816768
0.00815129
0.00813872
0.00812972
0.00812482
0.00812589
0.00813579
0.00815617
0.00818537
0.00822652
0.00827874
0.00834905
0.00843776
0.0085455
0.0086732
0.00882324
0.00899779
0.00920241
0.00944126
0.00823229
0.00822915
0.00822282
0.00821564
0.00820595
0.00819459
0.00818162
0.00816637
0.00815069
0.00813763
0.00812546
0.0081134
0.00810243
0.00809464
0.00809177
0.00809272
0.00809522
0.00810458
0.00812106
0.00814567
0.00818076
0.00822807
0.00828514
0.0083549
0.00844297
0.00854811
0.00866871
0.00881205
0.00898048
0.00917439
0.00939646
0.00965045
0.00994291
0.00804069
0.0080386
0.00803421
0.0080296
0.00802224
0.00801636
0.00801187
0.00801008
0.00800773
0.0080086
0.00801042
0.00801248
0.00802048
0.00803062
0.00804465
0.00806585
0.00809194
0.00812675
0.00817135
0.00822621
0.00829276
0.00837164
0.00846561
0.00857915
0.00870831
0.00886056
0.00903291
0.0092243
0.00944488
0.00969566
0.00997855
0.0102954
0.0106488
0.00784585
0.00784574
0.00784685
0.00784684
0.00784813
0.00785019
0.00785427
0.00786113
0.00787104
0.00788769
0.00790787
0.00793143
0.00795805
0.0079882
0.00802395
0.00806761
0.00812403
0.00818977
0.00826332
0.00835309
0.00845924
0.00858394
0.00872919
0.00888968
0.00906969
0.00927551
0.00950293
0.00976044
0.0100459
0.0103582
0.0107136
0.0111113
0.011552
0.00770707
0.00770591
0.00770526
0.00770789
0.00770985
0.00771721
0.00772938
0.00774694
0.00777075
0.00779809
0.00783343
0.00787485
0.00792098
0.00797177
0.00802859
0.00809502
0.00817649
0.00826769
0.00837518
0.00849989
0.00864221
0.00880246
0.00898129
0.00918097
0.0094047
0.00966022
0.00994035
0.0102542
0.0105951
0.0109803
0.0114082
0.0118768
0.0123856
0.0103812
0.0103753
0.0103605
0.0103385
0.0103088
0.0102712
0.0102271
0.0101761
0.0101206
0.0100607
0.00999413
0.00992112
0.00984452
0.00976417
0.0096798
0.00959192
0.00949927
0.0094027
0.00930306
0.00920276
0.00910229
0.00900183
0.00890202
0.00880437
0.00870952
0.0086171
0.00852866
0.00844832
0.0083758
0.00831116
0.00825906
0.00822101
0.00819849
0.0103765
0.0103689
0.0103533
0.0103315
0.0103022
0.0102656
0.0102228
0.0101721
0.0101168
0.010057
0.00999111
0.00991866
0.00984032
0.00975782
0.00967188
0.00958338
0.00948989
0.00939358
0.00929343
0.00919297
0.00909214
0.00899124
0.00889135
0.00879301
0.00869855
0.00860764
0.0085218
0.00844049
0.00836768
0.00830323
0.0082518
0.00821459
0.00819352
0.0103583
0.0103511
0.0103377
0.0103165
0.0102877
0.0102515
0.0102078
0.010159
0.0101043
0.0100434
0.00997732
0.00990547
0.00982903
0.00974768
0.00966158
0.00957163
0.00947936
0.00938312
0.00928574
0.00918694
0.00908673
0.00898554
0.00888477
0.00878609
0.00869047
0.00860047
0.00851411
0.00843501
0.00836325
0.00830292
0.0082551
0.008221
0.00820219
0.0103294
0.0103216
0.0103068
0.0102844
0.0102555
0.0102207
0.0101787
0.0101305
0.0100752
0.0100139
0.00994679
0.00987572
0.00979975
0.0097193
0.00963464
0.00954572
0.00945405
0.00935932
0.00926319
0.00916568
0.00906669
0.00896657
0.00886662
0.00876843
0.00867423
0.00858536
0.00850175
0.00842554
0.0083566
0.0082989
0.00825339
0.00822126
0.00820395
0.010279
0.0102719
0.0102586
0.0102371
0.0102079
0.0101712
0.0101272
0.0100779
0.0100229
0.00996198
0.00989596
0.00982441
0.0097485
0.0096685
0.00958476
0.0094981
0.00940761
0.00931389
0.00921761
0.00912078
0.00902361
0.00892618
0.00882901
0.00873384
0.00864185
0.00855619
0.0084752
0.008403
0.0083394
0.00828482
0.00824379
0.00821753
0.00820754
0.0102089
0.0102024
0.0101881
0.0101663
0.0101376
0.0101022
0.0100598
0.0100104
0.00995597
0.00989693
0.00983188
0.00976076
0.00968389
0.00960335
0.00951984
0.00943404
0.00934475
0.00925263
0.00915808
0.00906343
0.00896886
0.00887451
0.00878076
0.00868915
0.00860093
0.00851918
0.00844212
0.00837387
0.00831427
0.00826704
0.00823342
0.00821494
0.00821293
0.0101065
0.0100982
0.0100828
0.0100613
0.0100331
0.00999854
0.00995864
0.00991289
0.00986045
0.00980153
0.00973709
0.00966771
0.00959349
0.00951412
0.00943258
0.00934733
0.00925947
0.00916985
0.00907847
0.00898749
0.00889731
0.00880767
0.00871874
0.00863182
0.00854961
0.00847362
0.0084036
0.00834115
0.00828934
0.00824912
0.00822022
0.00820812
0.00821499
0.00995803
0.00995004
0.00993527
0.0099147
0.00988758
0.00985385
0.00981439
0.00976854
0.00971798
0.00966259
0.00960058
0.00953347
0.00946283
0.00938808
0.00931031
0.00922864
0.00914487
0.00906099
0.00897519
0.00888836
0.00880305
0.00871953
0.00863783
0.00855917
0.00848544
0.00841767
0.00835895
0.00830746
0.00826728
0.0082377
0.0082227
0.00822338
0.00824069
0.00976367
0.00975797
0.00974514
0.00972562
0.0096998
0.00966754
0.00962986
0.00958714
0.00953957
0.00948645
0.00942825
0.00936539
0.00929823
0.0092282
0.00915523
0.0090796
0.00900219
0.00892448
0.00884554
0.00876675
0.00868746
0.00861201
0.00854058
0.00847411
0.00841223
0.00835692
0.00831087
0.0082718
0.00824357
0.00822983
0.00823067
0.0082513
0.00829278
0.0095289
0.0095217
0.00950752
0.00948893
0.00946514
0.00943601
0.0094024
0.00936318
0.00931895
0.00926916
0.00921428
0.00915555
0.00909486
0.00903068
0.00896223
0.00889372
0.00882577
0.00875826
0.00868996
0.00862315
0.00855716
0.00849548
0.00843782
0.00838534
0.00833883
0.00829861
0.00826686
0.0082457
0.00823694
0.00824535
0.00826976
0.00831499
0.00838077
0.00924801
0.00924065
0.00922737
0.00920929
0.00918682
0.0091597
0.00912881
0.00909381
0.00905413
0.00900875
0.00896039
0.00890985
0.00885591
0.00879904
0.0087398
0.00868113
0.00862317
0.00856637
0.00851193
0.00845749
0.00840602
0.00836009
0.00831991
0.00828492
0.00825537
0.00823658
0.00823079
0.00823905
0.00825959
0.00829646
0.00835313
0.00842785
0.00852772
0.00891658
0.00891183
0.00890054
0.00888471
0.00886337
0.00883933
0.00881324
0.00878332
0.00875012
0.00871368
0.00867339
0.00862983
0.00858415
0.00853704
0.00849199
0.00844806
0.00840466
0.00836214
0.00832146
0.00828387
0.0082522
0.00822852
0.00821209
0.00820206
0.00820279
0.00821505
0.00824
0.00827947
0.00833594
0.00841151
0.00851099
0.00863066
0.00877698
0.00853204
0.00852728
0.0085184
0.00850634
0.00849071
0.00847147
0.00844923
0.00842535
0.00840018
0.00837303
0.0083422
0.0083112
0.00828161
0.00825128
0.00822172
0.00819307
0.00816782
0.00814577
0.0081276
0.00811488
0.00811003
0.00811608
0.00813042
0.00815779
0.0081966
0.00824628
0.00831247
0.00839611
0.00849988
0.00862688
0.00878101
0.00896573
0.00917888
0.00810524
0.00810368
0.00809772
0.00808896
0.00807558
0.0080619
0.0080486
0.00803523
0.00801998
0.00800591
0.00799135
0.00797605
0.0079605
0.00794561
0.00793358
0.00792662
0.00792462
0.0079257
0.00793486
0.00795452
0.00798719
0.00802988
0.00808368
0.00815329
0.0082357
0.00833743
0.00845716
0.00859412
0.00875845
0.00895291
0.00918232
0.00943971
0.00972953
0.00777049
0.00776721
0.00776196
0.00775611
0.00774867
0.00773957
0.00773358
0.00772643
0.00771927
0.00771329
0.00770757
0.00770536
0.00770642
0.00771179
0.00771845
0.00772999
0.00774984
0.00777539
0.00780764
0.00785381
0.00791493
0.00799275
0.00808261
0.00818751
0.0083135
0.00845663
0.00862426
0.00881301
0.00903333
0.00928742
0.00957558
0.00989862
0.0102599
0.011576
0.0115675
0.0115512
0.0115266
0.0114949
0.0114543
0.0114049
0.0113494
0.0112879
0.0112205
0.011145
0.0110638
0.0109771
0.0108848
0.0107856
0.0106794
0.0105664
0.0104486
0.0103263
0.0102001
0.0100712
0.00993969
0.00980526
0.00966913
0.00953048
0.00939288
0.00925664
0.00912097
0.0089871
0.00885953
0.00873774
0.00862257
0.00851752
0.0115687
0.0115608
0.0115459
0.0115224
0.0114908
0.0114515
0.0114046
0.0113506
0.011289
0.0112203
0.0111445
0.011062
0.0109742
0.0108794
0.0107782
0.0106711
0.0105571
0.010439
0.0103168
0.0101915
0.010063
0.00993054
0.00979442
0.00965746
0.0095192
0.00938179
0.00924554
0.0091109
0.00897898
0.00885147
0.00872903
0.00861432
0.00850908
0.01155
0.0115428
0.0115275
0.0115043
0.0114728
0.0114333
0.0113872
0.0113336
0.0112718
0.0112027
0.0111281
0.0110468
0.0109586
0.0108639
0.0107635
0.0106571
0.0105455
0.0104287
0.0103068
0.0101802
0.0100498
0.00991589
0.00978072
0.00964294
0.00950529
0.00936738
0.00922898
0.00909349
0.0089623
0.0088357
0.00871618
0.00860533
0.00850369
0.0115203
0.0115127
0.0114983
0.0114757
0.0114445
0.0114052
0.0113593
0.0113052
0.0112437
0.0111744
0.0110994
0.0110177
0.0109299
0.0108355
0.0107356
0.0106296
0.0105186
0.0104024
0.0102809
0.0101545
0.010024
0.00989084
0.00975575
0.00961866
0.00948111
0.00934281
0.00920621
0.00907234
0.00894249
0.00881706
0.00869828
0.00858892
0.00849123
0.0114735
0.0114664
0.0114508
0.0114271
0.0113948
0.0113547
0.011308
0.011254
0.0111922
0.0111236
0.0110476
0.0109653
0.0108766
0.010782
0.0106824
0.010576
0.0104651
0.0103494
0.0102289
0.010104
0.00997593
0.00984506
0.00971107
0.00957508
0.00943919
0.00930437
0.00917025
0.00903776
0.00890961
0.00878775
0.0086747
0.00856854
0.00847236
0.0114021
0.0113948
0.0113789
0.0113547
0.0113236
0.0112845
0.0112369
0.0111818
0.0111196
0.0110508
0.010975
0.0108933
0.0108055
0.0107122
0.0106126
0.0105067
0.0103948
0.0102785
0.0101582
0.0100344
0.00990807
0.0097794
0.00964756
0.00951332
0.00938014
0.00924752
0.00911507
0.00898631
0.00886287
0.00874532
0.00863607
0.00853657
0.00844699
0.0112943
0.0112859
0.0112699
0.0112455
0.0112143
0.011175
0.011129
0.0110753
0.0110136
0.0109447
0.0108704
0.0107898
0.0107022
0.010608
0.0105081
0.0104028
0.0102923
0.010178
0.01006
0.00993892
0.00981571
0.00969045
0.00956212
0.0094313
0.00930143
0.00917214
0.00904614
0.00892402
0.00880664
0.00869528
0.00859039
0.00849499
0.0084111
0.0111272
0.0111197
0.0111045
0.0110817
0.0110509
0.0110123
0.0109676
0.0109154
0.0108552
0.0107878
0.0107143
0.0106337
0.010548
0.0104575
0.0103605
0.0102583
0.0101518
0.0100401
0.00992384
0.00980576
0.00968585
0.00956515
0.00944243
0.00931821
0.00919537
0.00907366
0.00895598
0.00884264
0.0087341
0.00863147
0.00853696
0.00845177
0.00837934
0.0109043
0.0108972
0.0108818
0.010859
0.0108295
0.0107924
0.0107493
0.0106996
0.0106423
0.0105778
0.0105063
0.0104279
0.0103443
0.0102557
0.0101621
0.0100645
0.00996205
0.00985576
0.00974502
0.00963215
0.00951733
0.00940158
0.00928607
0.00917242
0.00905906
0.00894739
0.0088384
0.00873435
0.00863553
0.00854288
0.00846139
0.00839232
0.00833882
0.0106185
0.0106094
0.0105924
0.0105697
0.0105407
0.0105055
0.0104656
0.0104189
0.0103643
0.010302
0.0102328
0.0101582
0.0100773
0.00999155
0.00990292
0.00981102
0.00971467
0.00961533
0.00951402
0.00941028
0.00930366
0.00919757
0.00909328
0.00898948
0.00888735
0.00878774
0.00869265
0.0086032
0.00852237
0.00845116
0.00839073
0.00834322
0.00830969
0.0102564
0.0102478
0.0102319
0.0102086
0.0101795
0.010145
0.0101056
0.0100589
0.0100069
0.00994941
0.00988712
0.00981777
0.00974317
0.00966289
0.00957967
0.00949432
0.00940723
0.00931707
0.00922436
0.00913191
0.00903904
0.00894563
0.00885204
0.00876238
0.00867841
0.00859775
0.00852312
0.0084564
0.00839816
0.0083517
0.00831716
0.00829498
0.00829193
0.00980425
0.00979708
0.00978322
0.00976215
0.00973526
0.00970303
0.00966612
0.00962335
0.00957591
0.00952298
0.00946427
0.00940034
0.00933291
0.00926043
0.00918664
0.00911144
0.00903496
0.00895656
0.00887834
0.00880022
0.00872415
0.00864932
0.0085752
0.00850728
0.00844541
0.00839077
0.00834558
0.0083089
0.00828322
0.00827233
0.00827692
0.00829661
0.0083383
0.00924833
0.00924433
0.00923311
0.00921649
0.0091938
0.00916484
0.00913018
0.00909095
0.00904949
0.00900438
0.00895484
0.00890174
0.00884692
0.00878811
0.00872849
0.00866792
0.00860651
0.00854444
0.00848309
0.00842461
0.00837047
0.00832062
0.0082777
0.00824228
0.00821464
0.00819548
0.00818611
0.00818838
0.00820552
0.00824184
0.0082954
0.00837019
0.0084738
0.00861636
0.00861171
0.00860292
0.00858735
0.008568
0.00854488
0.00851842
0.0084895
0.00845583
0.00842051
0.00838235
0.00834132
0.00829874
0.00825537
0.00821096
0.00816762
0.00812613
0.00808603
0.00804855
0.00801578
0.00799
0.00797262
0.00796339
0.00796604
0.00798008
0.0080075
0.00804875
0.00810517
0.00817947
0.00827517
0.00839492
0.00854416
0.00872016
0.00811293
0.00810818
0.00809818
0.0080846
0.00806721
0.00804884
0.0080298
0.00800708
0.00798062
0.00795413
0.00792624
0.00789655
0.00786567
0.00783508
0.00780674
0.00777862
0.00775475
0.00773408
0.00771701
0.00770988
0.00770937
0.00771747
0.0077372
0.00777163
0.00782035
0.00788839
0.00797498
0.00808168
0.00821
0.00836231
0.00854189
0.00875104
0.00899487
0.0127478
0.0127398
0.0127245
0.0127006
0.0126674
0.0126256
0.0125769
0.0125211
0.0124581
0.0123866
0.0123076
0.0122213
0.0121279
0.0120265
0.0119174
0.0118005
0.0116759
0.0115448
0.0114073
0.0112632
0.0111133
0.0109568
0.0107957
0.01063
0.0104601
0.010287
0.0101106
0.00993322
0.00975645
0.00957986
0.00940556
0.0092339
0.00906583
0.0127429
0.0127354
0.0127195
0.0126957
0.0126636
0.0126234
0.0125752
0.0125202
0.0124572
0.0123855
0.0123056
0.012219
0.0121246
0.0120218
0.0119106
0.0117925
0.0116678
0.011537
0.0113985
0.0112537
0.0111037
0.0109478
0.0107857
0.0106195
0.0104498
0.0102766
0.0101014
0.00992523
0.00974847
0.00957252
0.00939751
0.00922617
0.00905939
0.0127298
0.0127213
0.012704
0.0126801
0.012649
0.0126096
0.0125617
0.012506
0.0124418
0.0123705
0.012291
0.0122031
0.0121074
0.0120056
0.0118966
0.0117795
0.0116544
0.0115218
0.0113828
0.0112381
0.0110866
0.0109307
0.0107703
0.0106056
0.0104363
0.0102634
0.0100875
0.00991072
0.00973455
0.00955845
0.00938446
0.00921332
0.00904825
0.012701
0.0126934
0.0126772
0.0126532
0.0126215
0.0125825
0.0125354
0.0124793
0.012415
0.0123427
0.012263
0.0121754
0.0120798
0.0119779
0.0118688
0.0117516
0.0116262
0.0114936
0.0113547
0.0112098
0.0110589
0.0109034
0.0107434
0.0105791
0.0104098
0.0102365
0.010061
0.00988409
0.00970694
0.00953106
0.00935766
0.00918991
0.00902802
0.0126586
0.0126509
0.0126342
0.0126095
0.0125771
0.0125376
0.0124893
0.0124327
0.0123674
0.012295
0.012215
0.0121271
0.0120319
0.0119289
0.0118187
0.0117008
0.0115754
0.0114433
0.0113059
0.0111618
0.0110117
0.0108553
0.0106954
0.0105311
0.0103626
0.010191
0.0100163
0.00984099
0.00966676
0.00949334
0.00932276
0.00915553
0.00899521
0.0125902
0.012582
0.0125655
0.0125409
0.0125083
0.0124677
0.012419
0.0123617
0.0122962
0.0122231
0.0121427
0.0120552
0.01196
0.0118568
0.0117463
0.0116281
0.0115022
0.0113693
0.0112308
0.011087
0.0109368
0.0107826
0.0106243
0.0104619
0.010295
0.0101251
0.00995223
0.00977871
0.00960582
0.00943553
0.00926764
0.00910536
0.00894989
0.012484
0.0124754
0.012459
0.0124339
0.0123995
0.0123566
0.0123067
0.0122491
0.0121845
0.0121115
0.0120316
0.0119445
0.0118487
0.011745
0.0116347
0.0115173
0.0113929
0.0112621
0.011126
0.0109829
0.0108345
0.0106822
0.0105254
0.0103637
0.0101978
0.0100299
0.00986235
0.00969327
0.00952492
0.00935916
0.00919582
0.00903771
0.00888571
0.0123099
0.0123026
0.0122856
0.0122609
0.0122286
0.0121883
0.0121401
0.0120832
0.0120182
0.0119464
0.011867
0.0117797
0.0116847
0.0115834
0.0114742
0.0113584
0.0112359
0.0111065
0.0109708
0.0108304
0.0106857
0.0105358
0.0103817
0.0102243
0.0100626
0.0098995
0.00973706
0.00957536
0.00941421
0.00925498
0.00910026
0.00895042
0.00880926
0.0120698
0.0120607
0.0120435
0.0120194
0.0119882
0.0119482
0.0119009
0.0118451
0.0117811
0.0117097
0.0116301
0.0115435
0.0114501
0.0113506
0.0112439
0.0111306
0.0110099
0.0108838
0.010753
0.0106185
0.0104778
0.0103327
0.0101848
0.0100335
0.00988066
0.00972648
0.00957174
0.00941775
0.0092646
0.00911498
0.00897153
0.00883418
0.00870586
0.0117378
0.0117297
0.0117138
0.0116902
0.0116584
0.0116192
0.0115723
0.011518
0.0114552
0.011385
0.0113075
0.0112234
0.0111321
0.0110338
0.0109293
0.0108191
0.010704
0.0105847
0.0104606
0.0103319
0.0101978
0.01006
0.0099195
0.00977869
0.00963655
0.0094927
0.00935005
0.00920984
0.00907205
0.00893895
0.00881192
0.00869461
0.00858665
0.011303
0.0112942
0.0112776
0.0112527
0.011221
0.0111829
0.0111362
0.0110827
0.0110217
0.0109536
0.0108797
0.0107983
0.0107106
0.0106167
0.0105173
0.0104136
0.0103052
0.0101923
0.0100743
0.00995322
0.00982911
0.00970247
0.0095748
0.00944717
0.00931957
0.00919302
0.00906742
0.00894609
0.0088299
0.00871999
0.00861822
0.00852612
0.00844816
0.0107338
0.0107258
0.010711
0.0106887
0.0106585
0.0106205
0.0105756
0.0105242
0.0104667
0.0104029
0.0103321
0.0102554
0.0101727
0.0100851
0.00999288
0.00989696
0.00979844
0.00969509
0.00958921
0.00948037
0.0093708
0.00926053
0.00915021
0.00904163
0.00893695
0.00883422
0.00873616
0.00864271
0.00855761
0.00848182
0.00841624
0.00836261
0.00832375
0.010016
0.0100088
0.00999505
0.00997285
0.00994463
0.00991026
0.00987039
0.0098229
0.00977047
0.00971257
0.00964902
0.00958076
0.00950841
0.00943173
0.00934988
0.00926591
0.00918078
0.00909255
0.00900311
0.00891408
0.00882577
0.00873735
0.00865191
0.00857039
0.00849437
0.00842538
0.00836233
0.00830669
0.00826271
0.00823006
0.00821342
0.00821397
0.00823516
0.00919421
0.00918829
0.00917736
0.00915886
0.00913445
0.00910544
0.00907224
0.00903227
0.00898776
0.00893848
0.00888421
0.00882532
0.00876296
0.00869892
0.00863147
0.00856315
0.00849389
0.00842401
0.00835522
0.00828978
0.00822702
0.00816908
0.00811518
0.00806642
0.00802706
0.00799819
0.00798121
0.00797742
0.00798581
0.00801055
0.00805594
0.00812227
0.00821444
0.00854462
0.00853948
0.00852989
0.00851315
0.00849223
0.0084666
0.00843656
0.008403
0.00836375
0.00832192
0.0082766
0.00822763
0.00817618
0.00812428
0.00806966
0.0080158
0.00796198
0.00790814
0.00785915
0.00781285
0.0077705
0.00773461
0.00770746
0.00768919
0.00768454
0.00769385
0.00771747